G5.5Ocore-PETIM in water
147184
    1aaa     O1    1   8.657   0.513   2.735 -0.6983  0.0797 -0.0693
    1aaa     C1    2   8.775   0.589   2.783  0.4981 -0.8026  0.2719
    1aaa     H1    3   8.862   0.528   2.808  1.4154  0.3024 -0.1503
    1aaa     H2    4   8.748   0.649   2.871  1.6578  0.7320 -0.3868
    1aaa     C2    5   8.590   0.426   2.829  1.0619 -0.4302 -0.3368
    1aaa     H3    6   8.653   0.370   2.900 -1.9708 -2.6907  0.8063
    1aaa     H4    7   8.529   0.355   2.772 -0.6050 -0.0375  0.8904
    1aaa     C3    8   8.807   0.695   2.673  0.3643  0.4557  0.3814
    1aaa     H5    9   8.826   0.646   2.577  0.6076  1.4125 -0.0627
    1aaa     H6   10   8.894   0.756   2.699 -0.7199  1.8515  0.8889
    1aaa     C4   11   8.500   0.507   2.921 -0.5523 -0.0450  0.4836
    1aaa     H7   12   8.566   0.576   2.976 -0.7741  0.9201 -0.4351
    1aaa     H8   13   8.447   0.443   2.993  1.4529  2.1925  4.2491
    1aaa     C5   14   8.696   0.801   2.652 -0.0129  0.4163 -0.2848
    1aaa     H9   15   8.617   0.755   2.592 -0.5955  0.5825  0.3426
    1aaa    H10   16   8.657   0.823   2.752 -0.0447  0.5128 -0.3181
    1aaa     C6   17   8.399   0.587   2.843 -0.2249 -0.2261 -0.0185
    1aaa    H11   18   8.336   0.520   2.782  0.3777  0.4317 -1.4264
    1aaa    H12   19   8.448   0.647   2.765 -3.0701 -0.0519 -1.8501
    1aaa     N1   20   8.747   0.926   2.587 -0.3497  0.1173  0.7025
    1aaa     N2   21   8.309   0.685   2.916  0.0083  0.2591 -0.0612
    1aaa     C7   22   8.178   0.714   2.842  0.4630 -0.4602 -0.3224
    1aaa    H13   23   8.132   0.619   2.812 -0.9662 -0.7111  2.3359
    1aaa    H14   24   8.102   0.763   2.904  1.4769 -2.0905  2.4238
    1aaa     C8   25   8.384   0.807   2.968  0.2358 -0.1602  0.5891
    1aaa    H15   26   8.453   0.770   3.045  0.4767 -2.1532 -0.5266
    1aaa    H16   27   8.443   0.864   2.895 -0.6890  0.8091  0.5874
    1aaa     C9   28   8.751   0.901   2.441  0.0479  0.4828 -0.3622
    1aaa    H17   29   8.821   0.818   2.424  1.9280  1.4411  2.0194
    1aaa    H18   30   8.653   0.866   2.407 -0.2535 -0.4559  1.3902
    1aaa    C10   31   8.683   1.055   2.635  0.2323  0.3246 -0.1599
    1aaa    H19   32   8.712   1.067   2.740  2.6901  0.5941 -0.8088
    1aaa    H20   33   8.723   1.146   2.589 -1.4944  0.5096 -1.3795
    1aaa    C11   34   8.191   0.797   2.716  0.6570  0.3407 -0.0314
    1aaa    H21   35   8.098   0.853   2.706 -0.6800 -1.9730 -1.3203
    1aaa    H22   36   8.269   0.871   2.739 -0.7647  1.6064  0.8406
    1aaa    C12   37   8.296   0.904   3.043 -0.3952 -0.2834 -0.0737
    1aaa    H23   38   8.363   0.990   3.053  0.4649 -0.8050 -1.1117
    1aaa    H24   39   8.216   0.942   2.979  0.1575  2.0442  0.5063
    1aaa    C13   40   8.809   1.020   2.365  0.8480 -0.0089 -0.1889
    1aaa    H25   41   8.810   1.000   2.257 -4.0945 -1.5133 -0.2257
    1aaa    H26   42   8.741   1.106   2.372  0.0455 -0.7517  1.8365
    1aaa    C14   43   8.528   1.055   2.630  0.2204 -0.0068  0.6401
    1aaa    H27   44   8.503   1.024   2.527 -0.0867  2.5201 -0.1106
    1aaa    H28   45   8.496   0.972   2.694 -0.0256 -0.4034  0.0197
    1aaa    C15   46   8.451   1.190   2.660 -0.1487 -0.6112 -0.0557
    1aaa    H29   47   8.495   1.275   2.607  0.2253  1.0003  2.6387
    1aaa    H30   48   8.349   1.175   2.622 -0.0430  0.2110 -0.7014
    1aaa    C16   49   8.943   1.074   2.414 -0.2062  0.2817 -0.3210
    1aaa    H31   50   8.936   1.141   2.501 -0.7084 -0.2038  0.0156
    1aaa    H32   51   9.008   0.990   2.442 -0.4817 -0.3432 -1.5055
    1aaa    C17   52   8.258   0.846   3.188  0.3402 -0.2065  0.9537
    1aaa    H33   53   8.200   0.759   3.155 -1.4503  1.9497 -2.1936
    1aaa    H34   54   8.346   0.814   3.244  0.7004 -0.7711  0.0994
    1aaa    C18   55   8.221   0.725   2.583  0.7991  0.1180 -0.9187
    1aaa    H35   56   8.328   0.710   2.565  0.8423 -1.1798  0.2168
    1aaa    H36   57   8.195   0.618   2.587  1.8392 -0.1088  0.1493
    2bbb     N1   58   8.628   1.376   3.155 -0.2552 -0.1095  1.0595
    2bbb     C1   59   8.779   1.375   3.164  0.2831 -0.0814  0.7530
    2bbb     H1   60   8.820   1.445   3.090  1.4112 -2.9866 -1.6030
    2bbb     H2   61   8.819   1.277   3.133  1.5602  0.5145  0.4531
    2bbb     C2   62   8.557   1.299   3.260  0.4011 -0.3210 -0.3149
    2bbb     H3   63   8.447   1.299   3.255  0.4148  0.1849 -0.6617
    2bbb     H4   64   8.590   1.340   3.356  1.4441  0.6654 -1.0769
    2bbb     C3   65   8.580   1.347   3.022 -0.5249  0.2123  0.0489
    2bbb     H5   66   8.626   1.254   2.988  0.1951  0.4858  0.2633
    2bbb     H6   67   8.614   1.427   2.955 -1.4465 -1.1107 -2.0964
    2bbb     C4   68   8.425   1.339   3.000  0.4431 -0.5168  0.0883
    2bbb     H7   69   8.370   1.424   3.043 -3.0200 -2.0588 -0.9598
    2bbb     H8   70   8.372   1.254   3.045 -0.9347  0.0254 -0.4579
    2bbb     C5   71   8.831   1.411   3.311 -0.2813  0.2900 -1.1920
    2bbb     H9   72   8.812   1.320   3.369 -1.9222 -0.0719 -2.2247
    2bbb    H10   73   8.777   1.499   3.349  2.0744  0.8556  1.1009
    2bbb     C6   74   8.591   1.151   3.267 -1.3106  0.7224 -0.5655
    2bbb    H11   75   8.699   1.132   3.257 -1.5345 -0.9470 -0.1223
    2bbb    H12   76   8.550   1.105   3.177  0.6199  0.6720 -1.4703
    2bbb     C7   77   8.391   1.326   2.854  0.1094 -0.2956  0.3042
    2bbb    H13   78   8.413   1.419   2.799 -0.7985  0.7036  1.5774
    2bbb    H14   79   8.284   1.306   2.843  0.1903 -1.7613  1.7743
    2bbb     C8   80   8.529   1.080   3.394 -0.3458 -0.6005  0.2024
    2bbb    H15   81   8.555   0.978   3.365 -0.6479 -0.2997 -1.1853
    2bbb    H16   82   8.423   1.106   3.401  0.2333  2.1385 -0.1771
    2bbb     C9   83   8.980   1.448   3.311 -0.2597  0.3868 -0.2913
    2bbb    H17   84   9.014   1.460   3.415  0.5502 -0.4263 -0.4497
    2bbb    H18   85   8.985   1.549   3.268 -0.9570  0.7314  0.4044
    2bbb     O1   86   8.452   1.206   2.800 -0.2447  0.1584  0.1096
    3bbb     N1   87   9.178   1.392   2.005 -0.1632 -0.6405 -0.7522
    3bbb     C1   88   9.101   1.495   1.930 -0.4755  0.0587 -0.4628
    3bbb     H1   89   9.026   1.450   1.865 -0.2136 -0.7567 -0.2090
    3bbb     H2   90   9.173   1.545   1.864  1.1572 -0.7005  0.6684
    3bbb     C2   91   9.251   1.299   1.913 -0.8434 -0.0693 -0.3776
    3bbb     H3   92   9.338   1.245   1.951 -0.5265  1.2754  0.9047
    3bbb     H4   93   9.283   1.363   1.829 -2.8472  0.4065 -0.8376
    3bbb     C3   94   9.105   1.341   2.125  0.2405 -0.2441 -0.2841
    3bbb     H5   95   9.009   1.301   2.093  0.4077 -0.0991 -1.0007
    3bbb     H6   96   9.069   1.418   2.194 -1.9100 -2.1917  0.8512
    3bbb     C4   97   9.187   1.242   2.208  0.3645 -0.3031  0.8264
    3bbb     H7   98   9.293   1.270   2.216  0.3527  0.0460 -0.0945
    3bbb     H8   99   9.189   1.146   2.154 -3.2571  0.6105 -1.2322
    3bbb     C5  100   9.036   1.603   2.021 -0.5379  0.0346  0.4459
    3bbb     H9  101   9.115   1.644   2.085 -2.5647  0.3633  2.8626
    3bbb    H10  102   8.954   1.570   2.085  0.1086  0.4500  1.5235
    3bbb     C6  103   9.154   1.195   1.855  0.2633 -0.1224 -0.2424
    3bbb    H11  104   9.082   1.251   1.795 -0.3644  1.6945  2.0572
    3bbb    H12  105   9.098   1.158   1.942 -0.3181  0.5682 -0.3148
    3bbb     C7  106   9.125   1.214   2.344 -0.5150 -0.1490  0.2932
    3bbb    H13  107   9.108   1.309   2.395  0.9339 -0.9421  2.4082
    3bbb    H14  108   9.189   1.151   2.408 -0.6831  0.9730  1.6181
    3bbb     C8  109   9.211   1.079   1.774  0.2350 -0.6976  0.2277
    3bbb    H15  110   9.257   1.124   1.685 -1.5691 -0.3039 -0.5498
    3bbb    H16  111   9.129   1.013   1.743 -0.6669  0.8274 -0.7339
    3bbb     C9  112   8.975   1.715   1.934 -0.6764 -0.4928 -0.9407
    3bbb    H17  113   9.061   1.777   1.905  2.5365 -2.5241  3.2268
    3bbb    H18  114   8.912   1.782   1.993 -0.3076 -0.7372 -0.2630
    3bbb     O1  115   9.004   1.145   2.308  0.1379  0.5347  0.0761
    4bbb     N1  116   8.004   0.820   3.651 -0.3629 -0.6053  0.5198
    4bbb     C1  117   8.111   0.905   3.703 -0.2456 -0.3397 -0.2743
    4bbb     H1  118   8.063   0.979   3.768 -1.1070 -1.5204  0.4719
    4bbb     H2  119   8.166   0.966   3.630  3.0843  0.9713  2.9755
    4bbb     C2  120   7.911   0.765   3.753  0.1777 -0.9456  0.2368
    4bbb     H3  121   7.849   0.848   3.790  1.8070  0.6831 -0.5715
    4bbb     H4  122   7.967   0.719   3.835 -0.8070 -1.7232  0.4963
    4bbb     C3  123   7.927   0.894   3.550 -0.5532  0.0643 -0.4524
    4bbb     H5  124   7.864   0.966   3.604  0.7368 -0.0400  1.3180
    4bbb     H6  125   7.860   0.824   3.500  0.2348  0.8405 -2.7318
    4bbb     C4  126   8.007   0.961   3.439 -0.4743 -0.3074 -0.1133
    4bbb     H7  127   8.059   1.056   3.460 -0.8043  0.4780 -2.5401
    4bbb     H8  128   7.937   0.998   3.363  0.0761 -0.0044 -0.4779
    4bbb     C5  129   8.220   0.816   3.770 -0.8725 -0.4514 -0.1702
    4bbb     H9  130   8.177   0.764   3.856  0.0646 -0.6139  0.2097
    4bbb    H10  131   8.303   0.875   3.811 -0.5353 -1.0526  0.0229
    4bbb     C6  132   7.817   0.655   3.688  0.0101  0.4393 -0.4538
    4bbb    H11  133   7.877   0.586   3.628  0.7525  1.2731 -0.6947
    4bbb    H12  134   7.743   0.699   3.620  2.3374  0.5058 -3.1016
    4bbb     C7  135   8.090   0.859   3.361  0.3840 -0.7813 -0.4562
    4bbb    H13  136   8.027   0.775   3.329  0.0084 -0.3750 -0.7916
    4bbb    H14  137   8.161   0.817   3.434 -1.8927 -1.6685  1.3416
    4bbb     C8  138   7.742   0.573   3.797 -0.2256 -0.8480  0.7235
    4bbb    H15  139   7.667   0.640   3.842 -0.2690  0.8986 -1.7535
    4bbb    H16  140   7.811   0.525   3.868 -1.6161 -1.2016  1.8857
    4bbb     C9  141   8.287   0.721   3.663 -0.0498 -0.0629  0.3595
    4bbb    H17  142   8.346   0.785   3.596 -1.2681 -0.1113 -0.8044
    4bbb    H18  143   8.214   0.669   3.599  1.0771 -1.9635  0.5288
    4bbb     O1  144   8.166   0.928   3.260 -0.3894 -0.1786 -0.0744
    5bbb     N1  145   8.025   1.191   2.393 -0.2608 -0.1847 -0.0477
    5bbb     C1  146   7.963   1.223   2.261  1.2751  0.9102 -0.9639
    5bbb     H1  147   8.019   1.177   2.179  0.7176  0.3999 -1.0666
    5bbb     H2  148   7.953   1.331   2.243 -0.8368  1.1952  1.3535
    5bbb     C2  149   8.157   1.250   2.412  0.4002  0.0683 -0.1102
    5bbb     H3  150   8.235   1.201   2.354 -0.3601 -0.7162 -0.4908
    5bbb     H4  151   8.171   1.226   2.518  0.6626 -0.0456 -0.1723
    5bbb     C3  152   8.010   1.043   2.424  0.2511  0.6393  0.8293
    5bbb     H5  153   7.912   0.996   2.413  1.2933 -1.9531  1.9103
    5bbb     H6  154   8.039   1.022   2.527  1.1126 -1.7814  0.1637
    5bbb     C4  155   8.112   0.967   2.331 -0.0120 -0.5660 -0.5095
    5bbb     H7  156   8.168   1.031   2.261  0.1141 -1.1124 -0.9137
    5bbb     H8  157   8.060   0.900   2.261 -3.5792 -3.4694  4.3338
    5bbb     C5  158   7.812   1.185   2.247  0.1640  0.3406  0.1530
    5bbb     H9  159   7.806   1.075   2.251  2.5766  0.1469 -0.0291
    5bbb    H10  160   7.790   1.215   2.144  2.8854  0.3321 -0.5086
    5bbb     C6  161   8.167   1.407   2.396  0.0170  0.3825 -0.4127
    5bbb    H11  162   8.172   1.433   2.289  1.6187  0.8616 -0.2472
    5bbb    H12  163   8.260   1.439   2.445  1.1998 -2.1343 -0.8762
    5bbb     C7  164   8.218   0.901   2.425  0.1729 -0.0937  0.5445
    5bbb    H13  165   8.239   0.975   2.502 -0.0051  0.4710  0.0556
    5bbb    H14  166   8.311   0.883   2.369  0.6997 -0.8578  1.6136
    5bbb     C8  167   8.052   1.481   2.466  0.2013 -0.0528 -0.4245
    5bbb    H15  168   8.044   1.439   2.567 -0.4206 -1.2213 -0.9393
    5bbb    H16  169   7.959   1.450   2.416 -1.2678  1.7140  1.0912
    5bbb     C9  170   7.710   1.259   2.342  0.0817 -0.4798  0.6642
    5bbb    H17  171   7.705   1.367   2.324 -1.6257 -0.4022  1.3842
    5bbb    H18  172   7.727   1.231   2.446 -0.3922 -2.2209  0.3195
    5bbb     O1  173   8.155   0.784   2.475 -0.0760  0.1530  0.3146
    6bbb     N1  174   8.715   1.393   3.814  1.0216 -0.5022  0.6906
    6bbb     C1  175   8.861   1.371   3.824  0.0361  0.4231  0.1820
    6bbb     H1  176   8.886   1.268   3.849 -0.0398  0.6535  1.2391
    6bbb     H2  177   8.899   1.431   3.908  0.4184 -0.1683  0.4322
    6bbb     C2  178   8.644   1.414   3.942  0.2495  0.3781 -0.9179
    6bbb     H3  179   8.664   1.325   4.002  1.9136  2.1866  1.3916
    6bbb     H4  180   8.537   1.424   3.918 -0.0738 -1.1272 -0.1919
    6bbb     C3  181   8.645   1.312   3.714  0.4272  0.4737  0.0507
    6bbb     H5  182   8.702   1.323   3.620 -0.0059 -1.8514 -0.5529
    6bbb     H6  183   8.545   1.355   3.699  0.9023  1.8979  0.7231
    6bbb     C4  184   8.643   1.160   3.736  0.7232  0.5552 -0.4050
    6bbb     H7  185   8.610   1.146   3.840 -1.0019  0.1661 -0.9754
    6bbb     H8  186   8.745   1.121   3.730  0.6178  0.5219 -4.5375
    6bbb     C5  187   8.942   1.417   3.695  0.9058  0.6379  0.7115
    6bbb     H9  188   8.906   1.357   3.610 -2.2432  1.7413  1.1335
    6bbb    H10  189   9.049   1.399   3.716  0.5768 -0.5536  1.4194
    6bbb     C6  190   8.686   1.529   4.028  0.1237  0.1466  0.0318
    6bbb    H11  191   8.691   1.615   3.961  1.7157 -2.1454 -3.0488
    6bbb    H12  192   8.788   1.512   4.065 -0.0568  2.0152  1.5651
    6bbb     C7  193   8.561   1.076   3.635 -0.0086 -0.4542 -0.4057
    6bbb    H13  194   8.456   1.107   3.645  0.7331  2.2554 -0.1670
    6bbb    H14  195   8.563   0.967   3.643 -1.8594 -0.5478 -0.7123
    6bbb     C8  196   8.588   1.548   4.141 -0.7230  0.3126 -0.4400
    6bbb    H15  197   8.491   1.530   4.092 -0.4822 -1.9686 -0.1781
    6bbb    H16  198   8.590   1.650   4.181 -0.5476  1.3452 -2.9137
    6bbb     C9  199   8.936   1.574   3.667  0.1791  0.0034  0.3076
    6bbb    H17  200   8.933   1.633   3.759  1.5603  0.3948  0.1335
    6bbb    H18  201   8.835   1.591   3.628 -0.0436  2.5170  1.7726
    6bbb     O1  202   8.605   1.130   3.508  0.5949 -0.0870  0.3099
    7bbb     N1  203   9.489   1.232   3.025 -0.0026  0.1062 -0.1438
    7bbb     C1  204   9.444   1.221   2.882  0.0935 -0.6197  0.1406
    7bbb     H1  205   9.352   1.164   2.864  0.0019 -1.4167  2.7259
    7bbb     H2  206   9.521   1.168   2.826  1.2322  1.1752 -0.0931
    7bbb     C2  207   9.545   1.113   3.087  0.0060 -0.6932 -1.2737
    7bbb     H3  208   9.551   1.036   3.010  1.7504 -1.0472 -0.8319
    7bbb     H4  209   9.484   1.075   3.169  1.6888 -0.4396  0.1458
    7bbb     C3  210   9.420   1.324   3.112 -0.1482 -0.0227  0.2763
    7bbb     H5  211   9.426   1.427   3.076 -1.1793  0.1792  0.6588
    7bbb     H6  212   9.479   1.327   3.205  1.1451  1.3668 -0.5468
    7bbb     C4  213   9.278   1.279   3.143 -0.1338  0.4583 -0.6217
    7bbb     H7  214   9.286   1.176   3.179  0.9816  0.1997 -1.5472
    7bbb     H8  215   9.218   1.268   3.052  1.5337 -0.6932 -1.6487
    7bbb     C5  216   9.428   1.357   2.808 -0.0819  0.3773 -0.1353
    7bbb     H9  217   9.521   1.416   2.804  1.0860 -1.3770  0.0101
    7bbb    H10  218   9.353   1.407   2.870  1.1441 -0.8290  2.4844
    7bbb     C6  219   9.687   1.138   3.147 -0.3151  0.5088 -0.3842
    7bbb    H11  220   9.669   1.191   3.241 -0.8230  0.4103 -0.4229
    7bbb    H12  221   9.743   1.200   3.077 -0.0033 -0.8462 -1.3824
    7bbb     C7  222   9.206   1.378   3.246 -0.0933 -0.3537  0.2309
    7bbb    H13  223   9.234   1.477   3.207  1.2633 -1.0296 -0.6258
    7bbb    H14  224   9.245   1.362   3.347 -2.5867 -0.7187  1.1905
    7bbb     C8  225   9.751   1.001   3.182 -0.2937 -0.2012 -0.0066
    7bbb    H15  226   9.749   0.951   3.084 -3.0847 -1.1428  0.4335
    7bbb    H16  227   9.697   0.941   3.256  0.0398 -0.2546  0.1931
    7bbb     C9  228   9.386   1.332   2.663  0.2272 -0.2925  0.2212
    7bbb    H17  229   9.296   1.270   2.673 -0.3050  0.2943 -0.7216
    7bbb    H18  230   9.456   1.258   2.622 -1.4023 -2.4878  1.1995
    7bbb     O1  231   9.063   1.351   3.249 -0.0998  0.1474  0.2451
    8bbb     N1  232   9.587   0.881   2.184 -0.0252 -0.0942  0.2384
    8bbb     C1  233   9.693   0.815   2.108  0.1212 -0.4740  0.2662
    8bbb     H1  234   9.653   0.723   2.064  1.1931 -1.0539  0.4656
    8bbb     H2  235   9.763   0.794   2.190 -0.4810 -0.2585  0.8457
    8bbb     C2  236   9.531   0.809   2.302 -0.1867  0.0582 -0.6905
    8bbb     H3  237   9.617   0.784   2.365 -1.2479 -1.2369  0.3138
    8bbb     H4  238   9.475   0.718   2.278 -0.4069 -0.2574  0.9312
    8bbb     C3  239   9.479   0.941   2.098 -0.0355  0.5849 -0.0055
    8bbb     H5  240   9.518   1.017   2.029  2.0310  0.3804  0.8588
    8bbb     H6  241   9.403   0.992   2.157 -1.3846 -1.0302 -0.2757
    8bbb     C4  242   9.387   0.842   2.016  0.3465  0.8743  0.7113
    8bbb     H7  243   9.347   0.760   2.077 -1.8136  0.0744 -1.6315
    8bbb     H8  244   9.446   0.780   1.948  3.2749  0.9389  2.9714
    8bbb     C5  245   9.769   0.900   2.005  0.0094 -0.2252  0.2636
    8bbb     H9  246   9.788   0.995   2.055  2.7954  0.8095 -2.4728
    8bbb    H10  247   9.702   0.916   1.919  2.0144  1.3244 -1.0820
    8bbb     C6  248   9.464   0.905   2.403  0.1695 -0.6228 -0.2579
    8bbb    H11  249   9.387   0.975   2.368 -1.5309 -0.7222  2.8897
    8bbb    H12  250   9.536   0.968   2.458  0.1681  0.1199 -1.0958
    8bbb     C7  251   9.267   0.915   1.950 -0.9547  0.2587 -0.2248
    8bbb    H13  252   9.205   0.960   2.029  0.1266 -1.7346  1.9032
    8bbb    H14  253   9.206   0.838   1.902  0.6914 -2.7821  2.1909
    8bbb     C8  254   9.413   0.819   2.514 -0.4627  0.8206 -0.1251
    8bbb    H15  255   9.495   0.757   2.551 -0.7251  0.2906 -0.4177
    8bbb    H16  256   9.328   0.758   2.480  0.9165 -1.2540  0.0250
    8bbb     C9  257   9.902   0.839   1.955  0.0103 -0.2094  0.0821
    8bbb    H17  258   9.966   0.826   2.043 -0.9233  2.0465  1.1752
    8bbb    H18  259   9.957   0.899   1.881 -0.6793 -0.8367 -0.9634
    8bbb     O1  260   9.315   1.012   1.848 -0.3047 -0.0523  0.2195
    9bbb     N1  261   8.564   1.911   1.622 -0.0816 -0.4470  0.3295
    9bbb     C1  262   8.600   2.052   1.648 -0.6045  0.2695  0.2611
    9bbb     H1  263   8.630   2.058   1.754 -0.0676 -1.5834  0.2476
    9bbb     H2  264   8.506   2.105   1.631 -0.8099 -0.2980 -0.3736
    9bbb     C2  265   8.446   1.855   1.692  0.2483 -0.1013 -0.1234
    9bbb     H3  266   8.474   1.855   1.798  0.1531 -0.5190 -0.0950
    9bbb     H4  267   8.434   1.753   1.654  0.6053 -0.6229  1.1129
    9bbb     C3  268   8.677   1.811   1.599 -0.4813  0.5799 -0.3185
    9bbb     H5  269   8.746   1.850   1.524  0.1740  0.4582  0.2163
    9bbb     H6  270   8.655   1.710   1.561  1.1093  0.0105  0.1964
    9bbb     C4  271   8.745   1.770   1.731 -0.0679 -0.2228 -0.4153
    9bbb     H7  272   8.682   1.696   1.781  1.9503 -2.8971 -1.5931
    9bbb     H8  273   8.743   1.848   1.808 -2.3690 -0.3627 -0.2607
    9bbb     C5  274   8.713   2.112   1.559  0.3074  0.4876  0.3113
    9bbb     H9  275   8.695   2.070   1.459 -1.7648  3.2363 -0.5973
    9bbb    H10  276   8.813   2.079   1.590  0.4079 -1.6302 -1.9733
    9bbb     C6  277   8.305   1.923   1.687 -0.3556  0.1338 -0.4650
    9bbb    H11  278   8.287   1.964   1.587 -1.5355  0.5574 -0.0884
    9bbb    H12  279   8.299   2.013   1.749 -1.4898 -0.7600  0.7897
    9bbb     C7  280   8.884   1.725   1.722  0.2713 -0.2059 -0.1849
    9bbb    H13  281   8.952   1.811   1.714 -0.8562  0.6574 -1.0305
    9bbb    H14  282   8.903   1.661   1.635  0.0191  0.2068 -0.5482
    9bbb     C8  283   8.193   1.824   1.712  0.7051  0.2918 -0.2429
    9bbb    H15  284   8.180   1.753   1.629  0.3452  2.2034 -1.8997
    9bbb    H16  285   8.093   1.867   1.726  0.2751 -0.9164  0.6182
    9bbb     C9  286   8.709   2.265   1.552  0.0613 -0.5446 -0.1811
    9bbb    H17  287   8.812   2.300   1.536 -0.1884  1.4506  1.9110
    9bbb    H18  288   8.671   2.294   1.651 -1.6563 -1.5507 -0.5110
    9bbb     O1  289   8.913   1.647   1.831  0.1090  0.2870 -0.6519
   10bbb     N1  290   7.277   0.260   3.493 -0.8370 -0.4074  0.4924
   10bbb     C1  291   7.271   0.128   3.558  0.0867 -0.0273 -0.0269
   10bbb     H1  292   7.268   0.142   3.667 -0.3912  1.8728 -0.2450
   10bbb     H2  293   7.365   0.073   3.547 -0.2708 -0.8329  0.7995
   10bbb     C2  294   7.338   0.255   3.348 -0.9609  0.1535  0.1671
   10bbb     H3  295   7.291   0.183   3.280 -1.0734  1.6590 -1.4139
   10bbb     H4  296   7.440   0.218   3.363 -0.6242  1.4539  1.3341
   10bbb     C3  297   7.330   0.365   3.581 -0.8366  0.3292  0.1632
   10bbb     H5  298   7.271   0.358   3.674  2.1893  1.7677  2.3537
   10bbb     H6  299   7.317   0.467   3.542 -1.3750  0.2088  0.0151
   10bbb     C4  300   7.481   0.358   3.613  0.2979  0.7452  0.5509
   10bbb     H7  301   7.529   0.358   3.515 -3.0542 -0.6672 -1.2640
   10bbb     H8  302   7.504   0.262   3.660 -1.9941  0.6032  1.5569
   10bbb     C5  303   7.158   0.041   3.501  0.7557  0.2705 -0.6783
   10bbb     H9  304   7.195   0.009   3.403 -2.1964  0.3496 -1.9241
   10bbb    H10  305   7.072   0.105   3.479  0.1165  0.5870  2.3029
   10bbb     C6  306   7.344   0.392   3.277  0.0334 -0.2978 -0.4488
   10bbb    H11  307   7.401   0.447   3.353  1.1978 -1.9376 -0.0752
   10bbb    H12  308   7.245   0.436   3.262 -0.9683 -2.0398  0.7233
   10bbb     C7  309   7.532   0.480   3.701 -0.0271 -0.0698 -0.4008
   10bbb    H13  310   7.477   0.487   3.796  0.0375  0.2389 -0.3867
   10bbb    H14  311   7.530   0.576   3.648  2.9350  0.1956 -0.1826
   10bbb     C8  312   7.441   0.386   3.153  0.1799 -0.5401 -0.1471
   10bbb    H15  313   7.535   0.341   3.186 -0.5653 -1.0154  1.4344
   10bbb    H16  314   7.474   0.485   3.120 -0.1885 -0.9087 -1.7218
   10bbb     C9  315   7.128  -0.083   3.588  0.3824 -0.3978  0.4240
   10bbb    H17  316   7.090  -0.050   3.685 -1.2674 -2.5949  0.5885
   10bbb    H18  317   7.223  -0.131   3.614 -0.4013 -1.7735  0.8243
   10bbb     O1  318   7.676   0.465   3.733  0.3662 -0.3953  1.0237
   11bbb     N1  319   8.750   0.792   3.751  0.3965 -0.2595 -0.6646
   11bbb     C1  320   8.793   0.835   3.893  0.5042  0.0340  0.2942
   11bbb     H1  321   8.810   0.743   3.950 -1.0257  0.0291  0.7649
   11bbb     H2  322   8.712   0.900   3.930 -1.6219 -2.1389 -0.3447
   11bbb     C2  323   8.860   0.764   3.657 -0.4630  0.9261 -0.2057
   11bbb     H3  324   8.924   0.853   3.659  1.2344 -0.2156 -1.4297
   11bbb     H4  325   8.827   0.757   3.553 -0.5317 -3.9435 -0.0921
   11bbb     C3  326   8.638   0.707   3.762 -0.6857 -0.4603 -0.3836
   11bbb     H5  327   8.552   0.773   3.781 -0.0672 -0.0991  1.2626
   11bbb     H6  328   8.638   0.624   3.834  1.0213  0.6221  0.9223
   11bbb     C4  329   8.588   0.650   3.628 -0.4498 -0.7814 -0.5774
   11bbb     H7  330   8.658   0.584   3.576 -1.3202 -1.9893 -0.2544
   11bbb     H8  331   8.557   0.727   3.556 -1.2882 -0.7239 -0.1744
   11bbb     C5  332   8.909   0.932   3.908  0.7280 -0.4853 -0.9356
   11bbb     H9  333   8.896   1.018   3.840 -1.0346  1.0595  1.1985
   11bbb    H10  334   8.999   0.879   3.874  1.0588  0.0250 -0.8686
   11bbb     C6  335   8.944   0.635   3.689  0.5077  0.0966  0.0566
   11bbb    H11  336   8.888   0.548   3.652  0.7298 -0.3153  0.6657
   11bbb    H12  337   8.967   0.626   3.796  0.2081  0.4753  0.1539
   11bbb     C7  338   8.460   0.560   3.659  0.0791 -0.2609 -0.0967
   11bbb    H13  339   8.500   0.471   3.708  0.3356 -1.1131 -1.7550
   11bbb    H14  340   8.405   0.537   3.567 -1.2068  1.4022  0.2060
   11bbb     C8  341   9.076   0.643   3.610 -0.5440 -0.4935  0.0025
   11bbb    H15  342   9.135   0.731   3.639  0.5433 -1.2296  0.0973
   11bbb    H16  343   9.048   0.661   3.505  1.1861 -0.5785 -0.5114
   11bbb     C9  344   8.922   0.997   4.046 -0.2042  0.4150 -0.0207
   11bbb    H17  345   8.837   1.054   4.087  0.6123  1.8146 -0.1916
   11bbb    H18  346   9.010   1.062   4.053  0.9111 -1.0362 -0.2781
   11bbb     O1  347   8.361   0.626   3.741 -0.1840 -0.3129 -0.3023
   12bbb     N1  348   7.807   1.918   2.326  0.4279  0.4313  0.0848
   12bbb     C1  349   7.887   1.891   2.207 -0.4035 -0.1384  0.0306
   12bbb     H1  350   7.971   1.826   2.236  0.7960  0.7292 -1.3685
   12bbb     H2  351   7.931   1.984   2.169 -2.1466  0.4181 -0.6968
   12bbb     C2  352   7.679   1.996   2.308 -0.3546  0.1615 -0.6265
   12bbb     H3  353   7.635   1.999   2.408  2.2291  3.3401  0.6018
   12bbb     H4  354   7.610   1.939   2.244  0.8989 -2.2221  0.0077
   12bbb     C3  355   7.873   1.946   2.456 -0.2476 -0.4846  0.1023
   12bbb     H5  356   7.798   1.946   2.536 -0.2855 -1.0539  0.0677
   12bbb     H6  357   7.915   2.048   2.456 -2.3098  0.5319 -3.5357
   12bbb     C4  358   7.992   1.857   2.498  0.1648 -0.4475  0.1372
   12bbb     H7  359   8.027   1.880   2.600  3.3813 -2.3288 -0.4161
   12bbb     H8  360   8.072   1.879   2.426  1.9304 -0.3524  2.0237
   12bbb     C5  361   7.816   1.809   2.101  0.4780  0.4149  0.0619
   12bbb     H9  362   7.867   1.824   2.005  0.6853 -1.2230 -0.1145
   12bbb    H10  363   7.719   1.856   2.079  0.6534  0.7808  0.0558
   12bbb     C6  364   7.702   2.144   2.269 -0.1463 -0.3254  0.2535
   12bbb    H11  365   7.731   2.152   2.164 -0.7554  0.0380  0.1116
   12bbb    H12  366   7.779   2.184   2.337 -0.2212  2.0919 -1.0055
   12bbb     C7  367   7.963   1.706   2.494  0.0340 -0.0911  0.0839
   12bbb    H13  368   7.897   1.685   2.409  0.7718  0.4738 -0.6401
   12bbb    H14  369   7.907   1.658   2.575 -0.8319  0.3395 -0.2506
   12bbb     C8  370   7.563   2.212   2.289  0.8549 -0.8830 -0.0404
   12bbb    H15  371   7.530   2.195   2.392  2.0702  1.5042  0.8215
   12bbb    H16  372   7.490   2.167   2.221 -2.3672  0.5207  2.2077
   12bbb     C9  373   7.803   1.652   2.120  0.4266  0.5394  0.3154
   12bbb    H17  374   7.762   1.634   2.220  2.1598  0.0021  0.9631
   12bbb    H18  375   7.901   1.612   2.147 -0.1499 -1.4149 -0.2941
   12bbb     O1  376   8.079   1.627   2.465  0.1723 -0.2289  0.2932
   13bbb     N1  377   7.136   1.111   2.398  0.3765 -0.4696  0.3465
   13bbb     C1  378   7.095   1.071   2.256 -0.0163 -0.8815 -0.5351
   13bbb     H1  379   7.156   0.985   2.227  0.0375 -0.9118 -0.3384
   13bbb     H2  380   7.134   1.154   2.196  2.0874 -0.9881  0.5688
   13bbb     C2  381   7.082   1.008   2.492 -0.1391 -0.6658 -0.1155
   13bbb     H3  382   7.106   0.906   2.458  0.5030 -0.8537  0.8816
   13bbb     H4  383   6.973   1.026   2.493 -0.0498 -0.1550  0.8002
   13bbb     C3  384   7.280   1.125   2.412  0.8798  0.1113 -0.4288
   13bbb     H5  385   7.325   1.027   2.394  0.1467  0.0463 -2.0881
   13bbb     H6  386   7.296   1.154   2.517 -2.0995  0.2382  0.0799
   13bbb     C4  387   7.338   1.237   2.321  0.2630  0.4734 -0.4928
   13bbb     H7  388   7.269   1.321   2.329  0.6560  0.7803 -0.2669
   13bbb     H8  389   7.351   1.188   2.224  2.7883 -0.6796  0.3274
   13bbb     C5  390   6.942   1.055   2.221 -1.2132  0.2519 -0.1554
   13bbb     H9  391   6.894   1.145   2.263  1.1165  2.1148 -1.1808
   13bbb    H10  392   6.912   0.966   2.278 -0.9262 -1.1306 -2.0917
   13bbb     C6  393   7.114   1.036   2.640  0.9895 -0.0469 -0.5075
   13bbb    H11  394   7.108   1.143   2.664  0.5573  0.3630 -2.2784
   13bbb    H12  395   7.219   1.010   2.655  1.1452  0.3125 -0.9365
   13bbb     C7  396   7.473   1.282   2.372  0.4197  0.2870  0.5117
   13bbb    H13  397   7.482   1.281   2.481  0.5130 -2.5374  0.5571
   13bbb    H14  398   7.479   1.388   2.342 -0.5661  0.1819 -0.1178
   13bbb     C8  399   7.026   0.948   2.737 -0.1025  0.0649 -0.4299
   13bbb    H15  400   6.927   0.994   2.747  0.7949  1.5904  2.6857
   13bbb    H16  401   7.068   0.937   2.838 -1.4152  0.5732  0.1882
   13bbb     C9  402   6.904   1.035   2.078  0.0896 -0.0364  0.4256
   13bbb    H17  403   6.796   1.050   2.063  0.0013 -0.7630  0.2470
   13bbb    H18  404   6.915   0.927   2.057  1.7254  0.0358  0.7758
   13bbb     O1  405   7.579   1.210   2.315  0.1532  0.5836  0.0574
   14bbb     N1  406   8.341   1.164   4.296 -0.3028  0.1026 -0.3228
   14bbb     C1  407   8.295   1.048   4.208  0.2832 -0.7582 -0.5698
   14bbb     H1  408   8.189   1.063   4.183  0.6887  1.0033 -1.3796
   14bbb     H2  409   8.292   0.954   4.265 -1.8476  0.1705  1.0146
   14bbb     C2  410   8.248   1.179   4.415  0.4059  0.4942  0.0151
   14bbb     H3  411   8.148   1.182   4.371  0.3981 -0.2244 -0.0426
   14bbb     H4  412   8.259   1.282   4.451  0.8967  1.4283 -2.6388
   14bbb     C3  413   8.485   1.166   4.334  0.2510 -0.1195  0.3677
   14bbb     H5  414   8.541   1.160   4.240 -3.3299 -0.0315 -1.9650
   14bbb     H6  415   8.502   1.070   4.384 -1.8680 -0.9188 -0.3277
   14bbb     C4  416   8.535   1.283   4.415 -0.6121 -0.4416  0.5281
   14bbb     H7  417   8.642   1.263   4.428  0.2737  1.7690 -2.2561
   14bbb     H8  418   8.488   1.292   4.514  1.2592 -1.1535  1.5327
   14bbb     C5  419   8.366   1.038   4.069  0.2734 -0.1624  0.4954
   14bbb     H9  420   8.314   0.955   4.020 -2.3252  1.1767  0.8016
   14bbb    H10  421   8.469   1.001   4.077  0.2296 -0.0908  1.5025
   14bbb     C6  422   8.261   1.063   4.520 -0.9319  0.5041  0.6608
   14bbb    H11  423   8.365   1.031   4.538  0.0376  1.7690 -2.0568
   14bbb    H12  424   8.213   0.968   4.492 -0.3965 -0.0112  1.4402
   14bbb     C7  425   8.515   1.416   4.339 -0.4693  0.0325 -0.7505
   14bbb    H13  426   8.533   1.498   4.410  2.1064  1.2575 -2.6504
   14bbb    H14  427   8.409   1.415   4.312 -0.8617  0.5407  0.6464
   14bbb     C8  428   8.209   1.110   4.659  0.4042 -0.2285 -0.5421
   14bbb    H15  429   8.115   1.164   4.640  1.7977  1.4024 -3.6467
   14bbb    H16  430   8.287   1.170   4.708  1.2865 -0.8647 -1.1495
   14bbb     C9  431   8.357   1.167   3.987 -0.0540  0.5270  0.4927
   14bbb    H17  432   8.417   1.161   3.895 -0.4429  0.5576  0.2346
   14bbb    H18  433   8.391   1.253   4.045 -0.8730  1.6001 -0.5700
   14bbb     O1  434   8.614   1.439   4.235 -0.0485  0.7345 -0.0205
   15bbb     N1  435   9.376   1.831   3.390 -0.1049  0.2285 -0.0884
   15bbb     C1  436   9.398   1.750   3.269  0.6549 -0.7870 -0.2518
   15bbb     H1  437   9.301   1.718   3.229 -0.2671 -0.1361  1.3410
   15bbb     H2  438   9.455   1.659   3.288  3.9040  0.9083 -1.1594
   15bbb     C2  439   9.497   1.885   3.461  0.2735 -0.0686 -0.2706
   15bbb     H3  440   9.451   1.940   3.543 -0.0979 -0.2376 -0.3584
   15bbb     H4  441   9.570   1.941   3.402  2.6983 -2.0341  0.6989
   15bbb     C3  442   9.272   1.780   3.488  0.1147 -0.4810  0.4765
   15bbb     H5  443   9.261   1.846   3.575 -0.1122 -0.8196  0.7081
   15bbb     H6  444   9.310   1.687   3.530  0.9285  0.6388  2.3525
   15bbb     C4  445   9.132   1.776   3.425 -0.1649 -0.0443 -0.1503
   15bbb     H7  446   9.137   1.703   3.344 -0.1963  0.5341 -0.6863
   15bbb     H8  447   9.118   1.876   3.382 -2.8614 -0.0493  0.5573
   15bbb     C5  448   9.464   1.817   3.147  0.0204 -0.2286 -0.0664
   15bbb     H9  449   9.535   1.892   3.182  0.1112 -0.9797  1.4532
   15bbb    H10  450   9.393   1.885   3.099  1.7764  1.7148 -0.0236
   15bbb     C6  451   9.584   1.781   3.533  0.4867 -0.7099  0.4251
   15bbb    H11  452   9.515   1.701   3.561 -2.5435  1.5195 -0.2395
   15bbb    H12  453   9.617   1.830   3.625 -0.6083 -0.4151  0.6651
   15bbb     C7  454   9.016   1.741   3.518 -0.1089 -0.3355  0.0168
   15bbb    H13  455   8.920   1.744   3.467 -0.1777  1.0441  0.2030
   15bbb    H14  456   9.011   1.818   3.596 -0.1744  0.9225 -1.2023
   15bbb     C8  457   9.713   1.745   3.450 -0.5991  0.6991 -0.1951
   15bbb    H15  458   9.678   1.740   3.346 -0.1926  2.0733 -0.4225
   15bbb    H16  459   9.749   1.648   3.485 -4.0423 -0.9400 -0.7526
   15bbb     C9  460   9.520   1.723   3.043 -0.3259 -0.4253 -0.1373
   15bbb    H17  461   9.553   1.776   2.953  2.3123  1.9766  2.0484
   15bbb    H18  462   9.441   1.648   3.027  1.0925 -1.5972 -2.1289
   15bbb     O1  463   9.047   1.612   3.582  0.4274  0.0737  0.9316
   16bbb     N1  464   9.991   0.652   3.021 -0.4792  0.5260 -0.0909
   16bbb     C1  465   9.931   0.510   3.018 -0.3520 -0.2636  0.5492
   16bbb     H1  466   9.821   0.506   3.013 -0.4075  0.4526  1.0205
   16bbb     H2  467   9.961   0.455   3.108  0.2130  1.7353  1.6441
   16bbb     C2  468   9.992   0.734   2.899 -0.2275  0.2263  0.6064
   16bbb     H3  469  10.064   0.692   2.829 -0.4890 -0.1007  0.5313
   16bbb     H4  470  10.023   0.839   2.909  0.7180  0.3714 -2.6884
   16bbb     C3  471   9.940   0.723   3.141  0.6031  0.3600  0.1294
   16bbb     H5  472   9.912   0.649   3.218 -0.8006  0.4502 -0.2620
   16bbb     H6  473   9.845   0.775   3.123  1.3382  1.7949  0.2334
   16bbb     C4  474  10.034   0.823   3.207  0.0312 -0.1156  0.1301
   16bbb     H7  475  10.081   0.892   3.136  1.2026  0.1559  1.1350
   16bbb     H8  476  10.111   0.766   3.260  0.8940 -1.2366 -2.2138
   16bbb     C5  477   9.994   0.426   2.897 -0.5453  0.0071  0.0304
   16bbb     H9  478  10.102   0.442   2.906 -0.6331  0.8954 -0.3386
   16bbb    H10  479   9.962   0.469   2.801  1.2489  0.0316 -0.5802
   16bbb     C6  480   9.858   0.742   2.821  0.3013  0.0944 -0.6113
   16bbb    H11  481   9.777   0.792   2.875 -1.1238  0.2113 -2.7450
   16bbb    H12  482   9.825   0.640   2.800  0.5183 -0.0867 -0.0809
   16bbb     C7  483   9.954   0.917   3.304 -0.8967 -0.8926 -0.2972
   16bbb    H13  484  10.027   0.951   3.378 -1.5545 -1.6644  0.7306
   16bbb    H14  485   9.876   0.862   3.358  0.2402 -0.7323  1.5718
   16bbb     C8  486   9.881   0.809   2.682  0.6049  0.5622  0.0640
   16bbb    H15  487   9.967   0.877   2.682  2.0004 -1.1304 -0.4899
   16bbb    H16  488   9.791   0.865   2.655 -0.3761 -1.2340 -0.5473
   16bbb     C9  489   9.942   0.277   2.920  0.0148 -0.4139  0.2131
   16bbb    H17  490   9.849   0.283   2.978 -0.5585 -0.2355 -0.7012
   16bbb    H18  491  10.013   0.217   2.979  0.1833  0.4403  0.8979
   16bbb     O1  492   9.884   1.027   3.233 -0.4978 -0.1930 -0.3005
   17bbb     N1  493   9.747   1.264   2.414 -0.3726 -0.0100 -0.2618
   17bbb     C1  494   9.795   1.145   2.341 -1.0627  0.2232  0.1783
   17bbb     H1  495   9.785   1.162   2.233  4.4816 -0.6013 -0.7596
   17bbb     H2  496   9.735   1.056   2.362 -0.5068 -0.4386 -0.9666
   17bbb     C2  497   9.799   1.268   2.559  0.1090 -0.0428 -0.0864
   17bbb     H3  498   9.763   1.357   2.612 -0.2286 -1.1361  1.6088
   17bbb     H4  499   9.907   1.286   2.556 -0.2362  2.2459 -0.1171
   17bbb     C3  500   9.608   1.290   2.389 -0.0103  0.2176  0.0091
   17bbb     H5  501   9.545   1.225   2.451  1.2130  0.8652  2.0328
   17bbb     H6  502   9.594   1.267   2.283  0.5956 -1.8344  0.3256
   17bbb     C4  503   9.563   1.433   2.421  0.6242  0.3319  0.1785
   17bbb     H7  504   9.576   1.476   2.321  0.4502 -1.1614 -0.5281
   17bbb     H8  505   9.626   1.481   2.497  2.1340 -0.0689 -0.7732
   17bbb     C5  506   9.946   1.117   2.364 -0.2179  0.2462  0.4417
   17bbb     H9  507   9.962   1.074   2.463 -0.4192  1.0952  0.8484
   17bbb    H10  508  10.001   1.211   2.351 -0.4986  0.1262 -2.2390
   17bbb     C6  509   9.756   1.146   2.648  0.1950  0.3419 -0.5713
   17bbb    H11  510   9.771   1.051   2.596  0.2675  0.0697 -0.0562
   17bbb    H12  511   9.646   1.153   2.648  0.2736  2.2121 -0.0014
   17bbb     C7  512   9.410   1.451   2.449  0.1607 -0.0453  0.1481
   17bbb    H13  513   9.351   1.372   2.401  1.3119 -0.6253 -0.3336
   17bbb    H14  514   9.386   1.544   2.396  2.3109  0.6831  0.3629
   17bbb     C8  515   9.815   1.135   2.785  0.4350  0.0085  0.1085
   17bbb    H15  516   9.763   1.060   2.846  2.0887  0.6441  2.4120
   17bbb    H16  517   9.792   1.225   2.844 -1.1297 -2.7138  4.0500
   17bbb     C9  518  10.006   1.017   2.259  0.0949  0.3728  0.0558
   17bbb    H17  519  10.001   1.052   2.155 -0.8283 -0.6086 -0.2539
   17bbb    H18  520   9.941   0.929   2.262  0.5272  0.0666  1.3696
   17bbb     O1  521   9.384   1.453   2.587  0.0787  0.0220 -0.3671
   18bbb     N1  522   9.368   0.635   2.964  0.2211  0.0482 -0.8819
   18bbb     C1  523   9.379   0.650   3.112  0.3991 -0.3144 -0.4108
   18bbb     H1  524   9.464   0.602   3.161  0.2214  0.8328  1.1085
   18bbb     H2  525   9.289   0.609   3.161 -0.2165  1.6404  0.1934
   18bbb     C2  526   9.402   0.491   2.919  0.6152 -0.4733  0.2629
   18bbb     H3  527   9.391   0.497   2.810  1.5669 -1.4989  0.1003
   18bbb     H4  528   9.324   0.419   2.948 -2.0954  1.8821 -0.7270
   18bbb     C3  529   9.239   0.685   2.910 -0.2691 -0.1236  0.3771
   18bbb     H5  530   9.189   0.758   2.974 -3.5870 -2.0190  0.1644
   18bbb     H6  531   9.171   0.600   2.901  1.4403 -1.6072  0.8079
   18bbb     C4  532   9.264   0.741   2.763 -0.2942  0.8957 -0.2629
   18bbb     H7  533   9.168   0.776   2.726 -1.0827 -1.4931 -0.6611
   18bbb     H8  534   9.283   0.658   2.694 -0.6032 -1.4762  2.3295
   18bbb     C5  535   9.390   0.795   3.151 -0.6377 -0.4812 -0.1483
   18bbb     H9  536   9.318   0.860   3.099  0.8753 -0.2307 -2.0649
   18bbb    H10  537   9.486   0.819   3.103 -1.2411 -0.1935 -1.2672
   18bbb     C6  538   9.544   0.437   2.945  0.0974  0.3442 -0.7811
   18bbb    H11  539   9.569   0.440   3.052  0.8883 -2.9320 -0.7573
   18bbb    H12  540   9.614   0.506   2.896  1.6137  0.1816  1.0378
   18bbb     C7  541   9.366   0.860   2.751 -0.5380 -0.3087  1.5278
   18bbb    H13  542   9.468   0.838   2.786 -0.5190 -2.4001  0.3447
   18bbb    H14  543   9.329   0.944   2.811 -0.1049  0.1403  1.1797
   18bbb     C8  544   9.559   0.291   2.883  0.4264 -0.1553 -0.0604
   18bbb    H15  545   9.492   0.227   2.942  0.9909 -0.4600  0.2616
   18bbb    H16  546   9.660   0.249   2.892 -0.0655 -1.4708 -0.3777
   18bbb     C9  547   9.398   0.833   3.305 -0.5686 -0.3808 -0.8649
   18bbb    H17  548   9.304   0.799   3.351 -0.1494 -1.5902 -0.8823
   18bbb    H18  549   9.405   0.942   3.317 -0.7176 -0.4284 -0.3156
   18bbb     O1  550   9.368   0.913   2.618  0.4894 -0.6854 -0.1846
   19bbb     N1  551  10.061   0.475   1.585 -0.1868 -0.0176  0.0214
   19bbb     C1  552  10.206   0.507   1.549 -0.6833  0.9032 -0.0822
   19bbb     H1  553  10.280   0.504   1.630  0.1857  1.5478 -0.8329
   19bbb     H2  554  10.206   0.613   1.521 -0.7953  0.7943 -0.5142
   19bbb     C2  555  10.027   0.341   1.623 -0.4155  0.2222  0.0436
   19bbb     H3  556  10.049   0.277   1.537 -0.6354  2.3890 -1.7098
   19bbb     H4  557   9.919   0.331   1.634 -0.3645 -0.0539  0.3135
   19bbb     C3  558  10.006   0.574   1.675 -0.0713  0.0109 -0.3957
   19bbb     H5  559  10.052   0.671   1.655  1.4703 -0.4158  0.8573
   19bbb     H6  560  10.049   0.552   1.774  3.0307 -0.7718 -1.8208
   19bbb     C4  561   9.854   0.576   1.683 -0.3827  0.0551 -0.0933
   19bbb     H7  562   9.823   0.480   1.725  0.2883 -1.4157 -2.7403
   19bbb     H8  563   9.810   0.589   1.584 -0.3679  0.7826 -0.0168
   19bbb     C5  564  10.253   0.432   1.424  0.6903 -0.1200 -0.0109
   19bbb     H9  565  10.188   0.454   1.339 -0.8351 -1.8169  0.6543
   19bbb    H10  566  10.243   0.324   1.435 -0.2613  0.0517  0.9748
   19bbb     C6  567  10.107   0.288   1.747 -0.6239  0.0735 -0.6887
   19bbb    H11  568  10.104   0.352   1.836 -0.2069 -2.5288  1.3221
   19bbb    H12  569  10.213   0.289   1.719 -0.2504 -1.1577  0.5535
   19bbb     C7  570   9.804   0.700   1.768 -0.0944  0.4489  0.6276
   19bbb    H13  571   9.695   0.699   1.776 -0.1758 -1.8336  0.0441
   19bbb    H14  572   9.833   0.790   1.712  2.2942 -1.0712 -0.7627
   19bbb     C8  573  10.077   0.140   1.794  0.2556 -0.5324  0.7229
   19bbb    H15  574   9.970   0.114   1.793  0.4847 -1.8717 -2.8758
   19bbb    H16  575  10.114   0.137   1.898  0.7235  0.7771  0.6185
   19bbb     C9  576  10.385   0.479   1.367 -0.4487  0.2883 -0.1353
   19bbb    H17  577  10.371   0.586   1.347  0.7637  0.5710  0.4236
   19bbb    H18  578  10.409   0.437   1.268 -1.7498  0.4801 -0.5548
   19bbb     O1  579   9.876   0.707   1.893  0.4389 -0.0073 -0.2170
   20bbb     N1  580   8.023   1.310   1.734  0.3704 -0.1120  0.1748
   20bbb     C1  581   8.144   1.254   1.675 -0.6913  0.4662  0.1216
   20bbb     H1  582   8.212   1.213   1.751 -1.3762 -1.1595 -0.0958
   20bbb     H2  583   8.204   1.323   1.614  1.2500 -1.9363 -0.8637
   20bbb     C2  584   7.915   1.215   1.770 -0.6886  0.4438  0.2353
   20bbb     H3  585   7.879   1.160   1.682 -1.1369 -1.5923  1.6182
   20bbb     H4  586   7.828   1.269   1.809 -0.8262 -1.4754  2.8321
   20bbb     C3  587   8.042   1.419   1.835  0.0863 -0.2530 -0.5649
   20bbb     H5  588   8.079   1.384   1.932  0.5765  0.4446 -0.4889
   20bbb     H6  589   7.944   1.463   1.857 -0.1744 -1.3576  0.5448
   20bbb     C4  590   8.127   1.535   1.783  0.0518 -0.5444 -0.0219
   20bbb     H7  591   8.081   1.561   1.687  1.1782  1.4220 -0.0916
   20bbb     H8  592   8.228   1.496   1.763  0.6860  0.0373  1.7681
   20bbb     C5  593   8.131   1.142   1.568  0.0488  0.5449 -0.3498
   20bbb     H9  594   8.098   1.053   1.622 -1.4058  0.9638 -0.5039
   20bbb    H10  595   8.221   1.100   1.521  2.3397  2.1776  2.2579
   20bbb     C6  596   7.954   1.120   1.886  0.4025  0.3368 -0.7828
   20bbb    H11  597   7.961   1.185   1.975 -0.8746 -1.5087  0.7545
   20bbb    H12  598   8.056   1.081   1.877  0.1065 -0.2991 -1.4030
   20bbb     C7  599   8.133   1.654   1.879  0.0515 -0.1801 -0.3221
   20bbb    H13  600   8.180   1.626   1.975  0.8347  1.0105 -0.3313
   20bbb    H14  601   8.036   1.702   1.897  1.9701  3.1735  2.6031
   20bbb     C8  602   7.843   1.011   1.904 -0.7178  1.1622 -0.2289
   20bbb    H15  603   7.874   0.950   1.989  0.8354  0.8182 -0.9954
   20bbb    H16  604   7.850   0.956   1.809  1.0862  0.6858  0.1475
   20bbb     C9  605   8.023   1.167   1.455 -0.7036 -0.8171 -0.2774
   20bbb    H17  606   8.073   1.216   1.370 -1.0017  4.6103  2.2604
   20bbb    H18  607   7.954   1.246   1.485 -1.7107 -0.5722 -2.9462
   20bbb     O1  608   8.224   1.760   1.838 -0.1079 -0.4304 -0.0797
   21bbb     N1  609   8.442   2.778   1.369 -0.6396  0.0774 -0.6083
   21bbb     C1  610   8.495   2.909   1.317  0.0267  0.3466  0.4296
   21bbb     H1  611   8.567   2.899   1.235 -1.9186 -0.4644 -1.2714
   21bbb     H2  612   8.553   2.955   1.397 -0.2798 -0.6535  1.2455
   21bbb     C2  613   8.385   2.780   1.507  0.3047 -0.6084  0.1527
   21bbb     H3  614   8.326   2.690   1.529  1.3749 -0.9545  1.7884
   21bbb     H4  615   8.318   2.867   1.511  0.7565 -0.1849 -0.9005
   21bbb     C3  616   8.546   2.671   1.344  0.0724  0.2266  0.1583
   21bbb     H5  617   8.646   2.700   1.379  0.5856  0.9955 -1.8020
   21bbb     H6  618   8.558   2.664   1.235 -2.1911  0.1557 -0.1267
   21bbb     C4  619   8.514   2.525   1.380  0.5797 -0.0461 -0.0604
   21bbb     H7  620   8.462   2.486   1.292 -0.5837  0.7171  0.2695
   21bbb     H8  621   8.437   2.521   1.458  0.5853 -0.4350 -0.0743
   21bbb     C5  622   8.382   3.002   1.261 -0.2225  0.1885 -0.0250
   21bbb     H9  623   8.312   3.026   1.342 -0.8765 -1.2788 -0.1233
   21bbb    H10  624   8.325   2.943   1.188 -0.8345  1.1840 -0.3636
   21bbb     C6  625   8.490   2.786   1.622 -0.3007  0.0375  0.2893
   21bbb    H11  626   8.582   2.839   1.592 -0.6646 -0.8787 -2.7775
   21bbb    H12  627   8.522   2.681   1.632  2.2271  0.8145  1.2586
   21bbb     C7  628   8.639   2.454   1.432 -0.5213  0.0447  0.1939
   21bbb    H13  629   8.666   2.499   1.528  2.4790 -1.8156  0.3386
   21bbb    H14  630   8.720   2.464   1.359 -1.3574 -0.7636 -0.8850
   21bbb     C8  631   8.443   2.832   1.759 -0.0855  0.6241 -0.3871
   21bbb    H15  632   8.428   2.940   1.750 -1.8522  0.5229  0.7994
   21bbb    H16  633   8.513   2.804   1.838 -1.5309 -1.1027  0.3439
   21bbb     C9  634   8.433   3.138   1.203  0.1654 -0.0008  0.7825
   21bbb    H17  635   8.509   3.186   1.266 -0.1373  1.2337  0.2264
   21bbb    H18  636   8.351   3.211   1.196 -0.7421 -0.7115  3.1568
   21bbb     O1  637   8.619   2.312   1.454  0.2915 -0.2023  1.0446
   22bbb     N1  638   7.364   0.160   2.578  0.1704 -0.4355  0.0263
   22bbb     C1  639   7.292   0.287   2.521 -0.5201  0.4218 -0.5585
   22bbb     H1  640   7.206   0.315   2.582  0.4337  0.5284  0.7818
   22bbb     H2  641   7.267   0.259   2.418  0.7472  0.8686 -1.0144
   22bbb     C2  642   7.275   0.045   2.585  0.8184 -1.0006 -0.3872
   22bbb     H3  643   7.227   0.043   2.486  1.7985 -1.0797 -0.8739
   22bbb     H4  644   7.191   0.054   2.654  1.2850 -0.9288  0.1757
   22bbb     C3  645   7.445   0.189   2.702  0.5474 -0.3559  0.0654
   22bbb     H5  646   7.507   0.278   2.689 -0.9030  1.0456  2.2674
   22bbb     H6  647   7.512   0.103   2.717  2.2248  0.8970 -0.0004
   22bbb     C4  648   7.371   0.220   2.826  0.1837 -0.1491 -0.0969
   22bbb     H7  649   7.317   0.131   2.861  0.9893 -0.9635 -0.8569
   22bbb     H8  650   7.299   0.301   2.812 -0.6573 -0.6780  1.0022
   22bbb     C5  651   7.379   0.412   2.502  0.1691 -0.4348  0.3782
   22bbb     H9  652   7.482   0.387   2.476 -0.5175  0.0229 -3.4278
   22bbb    H10  653   7.377   0.471   2.595 -1.7643  0.3440 -0.0923
   22bbb     C6  654   7.339  -0.079   2.626 -0.5456  0.8584 -0.1598
   22bbb    H11  655   7.368  -0.073   2.732 -0.8597 -0.7936  0.0403
   22bbb    H12  656   7.427  -0.090   2.562 -1.4289 -1.1296 -1.0908
   22bbb     C7  657   7.465   0.267   2.935 -0.5623 -0.0215  0.0950
   22bbb    H13  658   7.520   0.354   2.896  2.7757 -1.5156  1.0247
   22bbb    H14  659   7.543   0.195   2.964 -0.7273 -0.6877 -1.0414
   22bbb     C8  660   7.258  -0.208   2.611  0.9588  0.5331  0.3560
   22bbb    H15  661   7.310  -0.298   2.645 -0.8980 -0.5509  0.5039
   22bbb    H16  662   7.231  -0.222   2.506 -0.4313 -1.0686  0.8627
   22bbb     C9  663   7.319   0.501   2.388  0.1075  0.3927 -0.1999
   22bbb    H17  664   7.330   0.442   2.296  0.6319 -1.5960  1.0634
   22bbb    H18  665   7.382   0.590   2.379  0.0434  0.5301  0.6687
   22bbb     O1  666   7.377   0.304   3.048 -0.3723  0.0222 -0.5369
   23bbb     N1  667   6.792  -0.498   3.402  0.2825  0.6652  0.3085
   23bbb     C1  668   6.654  -0.462   3.444  0.2326  0.0653  0.5327
   23bbb     H1  669   6.653  -0.430   3.549  0.5725  1.8287  0.0401
   23bbb     H2  670   6.592  -0.552   3.444 -1.6893  1.2860 -1.2576
   23bbb     C2  671   6.800  -0.558   3.265 -0.2419 -0.2958 -0.4730
   23bbb     H3  672   6.896  -0.611   3.270  1.0286  1.9088 -0.2836
   23bbb     H4  673   6.818  -0.482   3.189 -0.5514  0.4624  0.1985
   23bbb     C3  674   6.902  -0.412   3.443 -0.2930 -0.4862  0.2452
   23bbb     H5  675   6.907  -0.324   3.379 -0.1752  0.0251  0.9477
   23bbb     H6  676   6.986  -0.483   3.433 -0.3921 -0.8301  1.5918
   23bbb     C4  677   6.894  -0.358   3.587 -0.4610  0.1186  0.0606
   23bbb     H7  678   6.872  -0.448   3.646  0.0323 -0.1168 -0.1133
   23bbb     H8  679   6.803  -0.302   3.615  0.3299  1.6057 -0.2583
   23bbb     C5  680   6.597  -0.348   3.356  0.8534  0.2076 -0.1855
   23bbb     H9  681   6.586  -0.372   3.250  0.1659  1.9418 -0.5487
   23bbb    H10  682   6.660  -0.259   3.369  0.5041  0.3117  0.9497
   23bbb     C6  683   6.696  -0.663   3.226  0.2961 -1.1708 -0.6357
   23bbb    H11  684   6.600  -0.620   3.194  0.1596 -1.7553 -1.0158
   23bbb    H12  685   6.678  -0.734   3.307 -2.1299 -1.0719 -1.0050
   23bbb     C7  686   7.024  -0.284   3.622 -0.0288  0.2510  0.1883
   23bbb    H13  687   7.107  -0.354   3.607  0.1370  0.6905 -1.0981
   23bbb    H14  688   7.022  -0.259   3.729  1.8241 -0.7531  0.5050
   23bbb     C8  689   6.747  -0.749   3.104 -0.1918  0.6760  0.5645
   23bbb    H15  690   6.670  -0.808   3.052 -0.4395  0.9584  0.6116
   23bbb    H16  691   6.825  -0.811   3.149  0.6350  1.4739  0.2707
   23bbb     C9  692   6.455  -0.324   3.414  0.0150  0.4778 -0.1364
   23bbb    H17  693   6.468  -0.314   3.522  0.1687 -2.2803  0.1637
   23bbb    H18  694   6.393  -0.414   3.407  0.4076 -0.1341  2.8583
   23bbb     O1  695   7.041  -0.178   3.535 -0.6778  0.5163 -0.1727
   24bbb     N1  696   9.225   0.298   3.336  0.0390 -0.2011  0.7195
   24bbb     C1  697   9.348   0.297   3.248 -0.3675  0.7173  0.4054
   24bbb     H1  698   9.395   0.396   3.251 -1.3857  1.2566 -0.5357
   24bbb     H2  699   9.318   0.293   3.143 -0.8954 -1.8703  0.6059
   24bbb     C2  700   9.120   0.387   3.297  0.6169  0.2220 -0.1878
   24bbb     H3  701   9.098   0.370   3.191  0.3816  0.2605 -0.1471
   24bbb     H4  702   9.144   0.494   3.306 -2.1193  0.9101 -0.0640
   24bbb     C3  703   9.254   0.278   3.477  0.0133  0.2071 -0.1030
   24bbb     H5  704   9.310   0.184   3.478 -0.6171 -0.1950 -1.5517
   24bbb     H6  705   9.159   0.267   3.531  0.9246  0.5939  1.6725
   24bbb     C4  706   9.337   0.384   3.553 -0.2384 -0.7794  0.7010
   24bbb     H7  707   9.436   0.391   3.505 -0.5220  1.3124  0.3483
   24bbb     H8  708   9.347   0.359   3.660  0.1586 -2.2320  0.3471
   24bbb     C5  709   9.465   0.190   3.276  0.0412  0.1593 -0.6174
   24bbb     H9  710   9.508   0.205   3.376  1.8629  2.3623 -1.6370
   24bbb    H10  711   9.542   0.216   3.202  0.1103 -2.9446 -1.7908
   24bbb     C6  712   8.987   0.361   3.366  0.0317  0.0190  0.0739
   24bbb    H11  713   8.973   0.407   3.464 -0.4772  0.0110  0.0061
   24bbb    H12  714   8.976   0.255   3.392 -1.8035  0.8476  3.2714
   24bbb     C7  715   9.279   0.526   3.546  0.6453  0.0128 -1.0678
   24bbb    H13  716   9.269   0.557   3.442  2.4835  0.9122 -1.0109
   24bbb    H14  717   9.344   0.596   3.599  1.5827 -1.0623 -0.7432
   24bbb     C8  718   8.872   0.409   3.278  0.3442  0.2685 -0.2360
   24bbb    H15  719   8.776   0.376   3.318  1.1299 -1.3790  0.3968
   24bbb    H16  720   8.877   0.377   3.174  3.8737 -0.8341  0.1428
   24bbb     C9  721   9.417   0.045   3.254 -0.4524  0.4903 -0.2398
   24bbb    H17  722   9.341   0.027   3.332  0.1318  1.7058  0.6402
   24bbb    H18  723   9.503  -0.023   3.255 -0.7570  0.0956 -0.3907
   24bbb     O1  724   9.153   0.523   3.621 -0.0603 -0.1503  0.0794
   25bbb     N1  725   8.642   0.692   4.364 -0.0611  0.6030  0.2886
   25bbb     C1  726   8.632   0.674   4.510  0.1459 -0.0288  0.5480
   25bbb     H1  727   8.722   0.650   4.568 -0.0981 -0.8185  0.5991
   25bbb     H2  728   8.568   0.589   4.535 -1.7929  0.7505 -1.4728
   25bbb     C2  729   8.510   0.705   4.306 -0.0028  0.3738 -0.3467
   25bbb     H3  730   8.466   0.803   4.329 -0.5986  0.2374 -0.8647
   25bbb     H4  731   8.447   0.629   4.353  0.5476 -1.4805 -2.4101
   25bbb     C3  732   8.721   0.802   4.305  0.1758 -0.3148  0.4496
   25bbb     H5  733   8.676   0.897   4.338 -0.3816 -1.2757  2.6243
   25bbb     H6  734   8.713   0.804   4.196 -0.1182 -0.0103  0.4759
   25bbb     C4  735   8.868   0.809   4.348  0.3825 -0.6096 -0.2951
   25bbb     H7  736   8.923   0.715   4.339  1.6822  0.2545 -1.9531
   25bbb     H8  737   8.860   0.823   4.456 -0.8967 -1.6155 -0.2321
   25bbb     C5  738   8.574   0.796   4.589  0.5924 -0.4595 -0.0978
   25bbb     H9  739   8.467   0.775   4.594  0.7487 -1.1627  0.4280
   25bbb    H10  740   8.590   0.894   4.543  2.1110 -0.5092  0.2750
   25bbb     C6  741   8.508   0.671   4.156 -0.2068  0.4347  0.6270
   25bbb    H11  742   8.592   0.610   4.121 -0.4416  1.6613 -2.4329
   25bbb    H12  743   8.533   0.761   4.099 -2.9275  2.3674  2.2262
   25bbb     C7  744   8.952   0.924   4.279  0.5545 -0.2167 -0.3496
   25bbb    H13  745   9.054   0.937   4.317  1.6498 -1.4661 -2.6360
   25bbb    H14  746   8.911   1.024   4.299 -2.2840 -1.4844  0.8081
   25bbb     C8  747   8.371   0.634   4.094  0.9413 -0.3414 -0.2095
   25bbb    H15  748   8.353   0.526   4.109 -1.8184 -0.0382 -0.7224
   25bbb    H16  749   8.377   0.648   3.986  1.2631 -1.2389 -0.3176
   25bbb     C9  750   8.635   0.790   4.736 -0.2987 -0.5619  0.7127
   25bbb    H17  751   8.582   0.864   4.797 -0.5201  1.6834 -1.9800
   25bbb    H18  752   8.739   0.823   4.728 -0.6744  0.2425 -3.9767
   25bbb     O1  753   8.957   0.888   4.134  0.3138 -0.0853 -0.3459
   26bbb     N1  754   7.523   2.668   1.981 -0.2058 -0.3048 -0.4057
   26bbb     C1  755   7.584   2.654   1.839  0.1328  0.1451  0.3015
   26bbb     H1  756   7.693   2.647   1.832  0.1746 -0.0245  1.0214
   26bbb     H2  757   7.574   2.750   1.788  3.1234 -0.4038 -1.5777
   26bbb     C2  758   7.584   2.783   2.056  0.9712  0.4713 -0.7663
   26bbb     H3  759   7.680   2.764   2.108 -0.2677  1.7489  2.2140
   26bbb     H4  760   7.520   2.820   2.137  3.0201  1.2857  0.5905
   26bbb     C3  761   7.516   2.545   2.063 -0.3321 -0.3046 -0.8882
   26bbb     H5  762   7.612   2.492   2.055 -0.1099 -0.0452 -0.0541
   26bbb     H6  763   7.447   2.468   2.027  1.0961 -2.6102  0.9930
   26bbb     C4  764   7.478   2.562   2.216  0.3284  0.5343 -0.3499
   26bbb     H7  765   7.391   2.629   2.218 -0.2831 -0.2318 -0.7548
   26bbb     H8  766   7.552   2.610   2.281  0.3460  1.3362 -0.9493
   26bbb     C5  767   7.507   2.570   1.744 -0.9380  0.0542  0.5401
   26bbb     H9  768   7.412   2.619   1.718 -1.1488 -1.3553 -1.5387
   26bbb    H10  769   7.493   2.470   1.788  3.0215 -0.6830  0.4972
   26bbb     C6  770   7.602   2.914   1.972  0.1694  0.5770  0.6964
   26bbb    H11  771   7.504   2.942   1.931  0.7736  1.7645  0.0083
   26bbb    H12  772   7.673   2.906   1.889 -0.0923 -0.8739  0.5880
   26bbb     C7  773   7.447   2.423   2.278  1.0317 -0.1900 -0.3101
   26bbb    H13  774   7.361   2.388   2.220  0.9234 -1.2741  0.4709
   26bbb    H14  775   7.423   2.432   2.385  0.7093  2.2865 -0.5336
   26bbb     C8  776   7.640   3.037   2.056  0.0293  0.5791 -0.6069
   26bbb    H15  777   7.710   3.012   2.136 -0.3044  2.8417  0.4757
   26bbb    H16  778   7.555   3.084   2.108  0.5692 -0.7329  1.5978
   26bbb     C9  779   7.592   2.552   1.612 -0.2205 -0.3075 -0.5958
   26bbb    H17  780   7.590   2.644   1.552 -1.3215 -0.5967 -1.0155
   26bbb    H18  781   7.545   2.479   1.544 -0.5883  0.0362 -0.7121
   26bbb     O1  782   7.576   2.356   2.271  0.2518  0.0616  0.1627
   27bbb     N1  783   7.309   1.585   2.000 -0.2961 -0.3684  0.2406
   27bbb     C1  784   7.214   1.473   2.026  0.5883  0.2289  0.8070
   27bbb     H1  785   7.261   1.386   2.074  1.3559  0.3090  0.2210
   27bbb     H2  786   7.156   1.446   1.937  1.7108  0.9957 -0.1926
   27bbb     C2  787   7.261   1.695   1.916 -0.0875 -0.0400 -0.1855
   27bbb     H3  788   7.154   1.705   1.939  0.1925  0.5373  0.8961
   27bbb     H4  789   7.279   1.670   1.810  1.0989 -1.1869  0.2596
   27bbb     C3  790   7.441   1.531   1.957  0.7747  0.4173  0.3992
   27bbb     H5  791   7.496   1.615   1.914  1.1572 -0.5774 -1.1567
   27bbb     H6  792   7.428   1.449   1.885  0.5094 -1.6761  2.6974
   27bbb     C4  793   7.534   1.478   2.071 -1.2937 -0.3681  0.1195
   27bbb     H7  794   7.502   1.380   2.106  0.0325 -0.2808  1.7178
   27bbb     H8  795   7.548   1.541   2.159  0.1044  1.7888 -1.5264
   27bbb     C5  796   7.111   1.507   2.137  1.0368  0.5325 -0.4851
   27bbb     H9  797   7.059   1.599   2.107 -2.5947 -1.1241  0.1302
   27bbb    H10  798   7.161   1.522   2.233  1.4922 -0.0229 -0.6313
   27bbb     C6  799   7.312   1.834   1.948  0.0688 -0.6007 -0.2208
   27bbb    H11  800   7.258   1.908   1.888 -0.5024 -0.0492  0.9372
   27bbb    H12  801   7.417   1.831   1.915  0.5299  1.7492  0.7769
   27bbb     C7  802   7.682   1.461   2.027  0.1618  0.0603 -0.7089
   27bbb    H13  803   7.686   1.403   1.934 -0.3316  0.1737 -0.8041
   27bbb    H14  804   7.747   1.410   2.100  0.1993  0.1412 -0.6855
   27bbb     C8  805   7.299   1.885   2.093  0.7001 -0.0865  0.0095
   27bbb    H15  806   7.363   1.973   2.103 -1.1436  1.5924 -1.8674
   27bbb    H16  807   7.346   1.818   2.165 -1.3720 -1.9578 -0.2681
   27bbb     C9  808   6.984   1.426   2.152 -0.2452  0.4698  0.2534
   27bbb    H17  809   7.002   1.319   2.168  0.1836  0.7347  1.6688
   27bbb    H18  810   6.927   1.431   2.058  0.0757  0.4880  0.0616
   27bbb     O1  811   7.738   1.591   2.002 -0.2515 -0.2071 -0.6926
   28bbb     N1  812   6.962   0.377   2.894  0.3838 -0.2041 -0.0094
   28bbb     C1  813   6.954   0.288   2.776 -0.5980  0.3861 -0.0624
   28bbb     H1  814   7.027   0.211   2.804 -0.3029  0.7075  0.0574
   28bbb     H2  815   6.983   0.335   2.681  0.3351 -0.3174 -0.1532
   28bbb     C2  816   6.921   0.319   3.023 -0.1052 -0.1076  0.3960
   28bbb     H3  817   6.823   0.272   3.008 -0.5441  0.8842  0.0776
   28bbb     H4  818   6.909   0.398   3.099 -1.5303  0.9566 -0.8765
   28bbb     C3  819   6.885   0.500   2.874 -0.2132  0.6351 -0.1219
   28bbb     H5  820   6.890   0.559   2.966  1.1774  0.8377 -0.2961
   28bbb     H6  821   6.779   0.480   2.858 -0.6930  1.2593  2.0144
   28bbb     C4  822   6.944   0.581   2.759  0.0144 -0.2758 -0.0134
   28bbb     H7  823   6.895   0.556   2.664  0.2246  0.1889 -0.2496
   28bbb     H8  824   7.050   0.565   2.734  0.1924 -0.1931  0.6797
   28bbb     C5  825   6.822   0.215   2.755  0.9522  0.5227  0.0055
   28bbb     H9  826   6.750   0.287   2.716  1.0638 -0.5744 -2.4107
   28bbb    H10  827   6.776   0.174   2.846  1.0831  1.2156  0.3909
   28bbb     C6  828   7.016   0.209   3.081  0.3178  0.1730  0.6269
   28bbb    H11  829   7.114   0.256   3.066 -0.8575  1.8277 -2.9841
   28bbb    H12  830   7.015   0.119   3.018  0.2069 -0.7663  1.9146
   28bbb     C7  831   6.925   0.737   2.783  0.0068  1.0132  0.0872
   28bbb    H13  832   6.957   0.755   2.886  2.7523 -0.6158 -0.3615
   28bbb    H14  833   6.818   0.759   2.775  0.1802  1.5703 -0.7580
   28bbb     C8  834   6.984   0.161   3.226 -0.3603  1.0342  0.0394
   28bbb    H15  835   6.972   0.241   3.300  0.5395  0.9165  0.3286
   28bbb    H16  836   7.064   0.092   3.260 -1.1744 -0.0930 -0.2684
   28bbb     C9  837   6.836   0.110   2.644  0.0292  0.1405  0.8915
   28bbb    H17  838   6.738   0.061   2.634  0.4777 -0.9994  1.9069
   28bbb    H18  839   6.900   0.027   2.677 -1.3486 -0.9399  0.9427
   28bbb     O1  840   7.009   0.812   2.696  0.0723  0.3746  0.3505
   29bbb     N1  841   7.193   1.330   1.636  0.1162  0.2603  0.7395
   29bbb     C1  842   7.316   1.303   1.553  0.4635  0.3346  0.1659
   29bbb     H1  843   7.307   1.343   1.451 -0.0256  1.3679  0.5933
   29bbb     H2  844   7.336   1.196   1.553 -1.1179 -0.0924 -2.8155
   29bbb     C2  845   7.120   1.461   1.622 -0.4997  0.7482 -0.5812
   29bbb     H3  846   7.168   1.544   1.674 -0.3221 -0.0397  0.5558
   29bbb     H4  847   7.021   1.446   1.668 -0.1427  0.5360  0.1327
   29bbb     C3  848   7.153   1.237   1.750  0.3359 -0.3826  0.0344
   29bbb     H5  849   7.185   1.271   1.849  1.2700  0.8453 -0.6662
   29bbb     H6  850   7.208   1.143   1.735  0.1861 -0.4250 -0.2442
   29bbb     C4  851   6.998   1.209   1.760 -0.1092  0.5498  0.6164
   29bbb     H7  852   6.961   1.193   1.657  1.3717  2.4343 -0.2572
   29bbb     H8  853   6.947   1.300   1.793 -0.6232  0.4457  0.1288
   29bbb     C5  854   7.440   1.371   1.604 -0.0717  0.3911 -0.1767
   29bbb     H9  855   7.525   1.328   1.550  2.5786  1.9456  2.4575
   29bbb    H10  856   7.462   1.334   1.705 -1.3018 -1.2209 -0.4596
   29bbb     C6  857   7.085   1.492   1.479  0.0642 -0.1474 -0.1144
   29bbb    H11  858   7.027   1.407   1.440  0.3487  0.6784 -2.5419
   29bbb    H12  859   7.181   1.500   1.426 -0.0178 -2.9078 -0.8614
   29bbb     C7  860   6.963   1.087   1.848  0.3527 -0.1254 -0.1957
   29bbb    H13  861   7.025   1.005   1.809  0.4538  0.3318 -1.0181
   29bbb    H14  862   6.862   1.055   1.819 -0.2732  0.3732  1.3885
   29bbb     C8  863   7.006   1.618   1.454  0.4674 -0.8254 -0.3949
   29bbb    H15  864   6.902   1.613   1.489  0.6643 -0.5256  0.2471
   29bbb    H16  865   7.002   1.645   1.348 -1.3624  2.2135  0.3246
   29bbb     C9  866   7.453   1.523   1.592  0.0933 -0.0470  0.0188
   29bbb    H17  867   7.374   1.576   1.646 -1.2660 -2.0600  0.1246
   29bbb    H18  868   7.438   1.548   1.486 -2.2151  0.1009  0.3177
   29bbb     O1  869   6.983   1.116   1.993  0.3901  0.0838  0.9183
   30bbb     N1  870   8.160   0.563   4.857  0.1431  0.3586  0.1450
   30bbb     C1  871   8.180   0.443   4.769 -0.0632  0.6106  0.0744
   30bbb     H1  872   8.101   0.436   4.693 -0.1758  1.0702  0.1461
   30bbb     H2  873   8.193   0.350   4.825  0.1225  1.3721  1.3188
   30bbb     C2  874   8.021   0.561   4.913  0.1056  0.0742 -0.6842
   30bbb     H3  875   7.948   0.578   4.833 -0.6298 -0.9300 -0.2458
   30bbb     H4  876   8.017   0.641   4.987 -0.2473 -1.3910  0.9403
   30bbb     C3  877   8.200   0.690   4.797 -0.1240  0.3379 -0.2186
   30bbb     H5  878   8.135   0.708   4.710 -0.7662 -4.1958 -0.9243
   30bbb     H6  879   8.305   0.671   4.771 -0.4268 -0.9786 -0.5270
   30bbb     C4  880   8.204   0.809   4.891  0.5813  0.9224 -0.1768
   30bbb     H7  881   8.268   0.775   4.973  1.3983 -2.0935 -1.9206
   30bbb     H8  882   8.104   0.829   4.933 -0.1232 -1.2746 -0.7125
   30bbb     C5  883   8.301   0.455   4.671  0.4541  0.4098 -0.5362
   30bbb     H9  884   8.397   0.461   4.724  1.0250 -0.2482 -1.4615
   30bbb    H10  885   8.294   0.541   4.603 -2.0493 -0.2544 -1.2241
   30bbb     C6  886   7.980   0.438   4.998 -0.6271  0.2675 -0.3564
   30bbb    H11  887   7.914   0.473   5.079  1.2800 -0.7677  1.7555
   30bbb    H12  888   8.068   0.390   5.042  0.4505  1.8666 -0.6737
   30bbb     C7  889   8.259   0.939   4.828  0.0694 -0.5760 -0.4692
   30bbb    H13  890   8.357   0.921   4.782  0.0919  1.5668 -1.3534
   30bbb    H14  891   8.266   1.018   4.904 -1.8800 -0.3286 -0.4879
   30bbb     C8  892   7.895   0.331   4.921  0.0687  0.1589 -0.3376
   30bbb    H15  893   7.812   0.377   4.868  0.4325 -0.5077 -1.5178
   30bbb    H16  894   7.839   0.285   5.004 -1.1777  2.0126 -0.1057
   30bbb     C9  895   8.314   0.330   4.583  0.0465  0.3380  0.2832
   30bbb    H17  896   8.295   0.244   4.647 -0.4444 -1.2279 -1.8689
   30bbb    H18  897   8.410   0.321   4.531 -0.0314 -3.4337  0.5729
   30bbb     O1  898   8.172   0.998   4.734  0.6052  0.5060  0.1895
   31bbb     N1  899   7.934   1.274   4.059 -0.2612  0.1109 -0.0990
   31bbb     C1  900   7.912   1.123   4.044 -0.7050  0.4310  0.9251
   31bbb     H1  901   7.929   1.073   4.140 -1.1227 -2.0315 -0.2108
   31bbb     H2  902   7.987   1.082   3.975 -1.8583 -1.3314  0.6378
   31bbb     C2  903   7.832   1.341   4.141 -0.4788 -0.2923  0.0678
   31bbb     H3  904   7.730   1.334   4.100 -0.2725 -2.0232 -0.2117
   31bbb     H4  905   7.848   1.449   4.151 -2.7532  0.2430 -1.3782
   31bbb     C3  906   7.954   1.360   3.931  0.2253  0.1898  0.6806
   31bbb     H5  907   7.967   1.465   3.962 -1.4897  0.0605  2.0383
   31bbb     H6  908   7.857   1.355   3.880 -1.5496  1.4959  3.5990
   31bbb     C4  909   8.060   1.308   3.836 -0.2645  0.4356  0.3635
   31bbb     H7  910   8.053   1.382   3.756 -0.2826  1.5351  1.3674
   31bbb     H8  911   8.025   1.216   3.787 -1.8786 -0.0031  2.2255
   31bbb     C5  912   7.769   1.065   4.005 -0.4199 -0.5965  0.2257
   31bbb     H9  913   7.686   1.099   4.068 -0.6544 -0.1722 -0.2972
   31bbb    H10  914   7.784   0.957   4.014 -2.1071 -1.0727 -2.0004
   31bbb     C6  915   7.816   1.288   4.286  0.1027  0.0492  0.2508
   31bbb    H11  916   7.903   1.321   4.344  0.4184 -0.9445  0.3552
   31bbb    H12  917   7.809   1.179   4.289 -2.0953 -0.0356 -3.1919
   31bbb     C7  918   8.198   1.315   3.898 -0.1979  0.1477 -0.0465
   31bbb    H13  919   8.202   1.399   3.969  0.5907 -0.3157  0.4735
   31bbb    H14  920   8.272   1.334   3.819 -0.5524  1.3492 -0.1039
   31bbb     C8  921   7.683   1.335   4.355  0.8345  0.3363  0.0179
   31bbb    H15  922   7.665   1.442   4.338 -1.0003 -0.0236 -0.5345
   31bbb    H16  923   7.698   1.321   4.463  1.2159  1.0590  0.0620
   31bbb     C9  924   7.733   1.098   3.859 -0.3713 -0.2510 -0.2389
   31bbb    H17  925   7.830   1.105   3.808  0.1197  0.2690  0.7421
   31bbb    H18  926   7.680   1.194   3.864  1.7433  0.9752 -0.5957
   31bbb     O1  927   8.222   1.185   3.956  0.1022  0.1834  0.0295
   32bbb     N1  928   9.854   2.160   3.144 -1.0607 -0.6746 -0.4512
   32bbb     C1  929   9.949   2.131   3.027 -0.1952 -0.1863  0.0324
   32bbb     H1  930   9.930   2.213   2.957  0.9897  2.1508  2.3035
   32bbb     H2  931   9.917   2.037   2.980  0.8812  0.3184 -1.8026
   32bbb     C2  932   9.714   2.162   3.093  0.1610  0.4634 -0.1627
   32bbb     H3  933   9.678   2.063   3.066  0.8057  0.0225  0.5510
   32bbb     H4  934   9.704   2.218   2.999 -0.5088  0.8736  0.1490
   32bbb     C3  935   9.882   2.077   3.263  0.3401 -0.0356  0.8952
   32bbb     H5  936   9.814   2.106   3.344 -0.1456  0.5091  0.3006
   32bbb     H6  937   9.985   2.091   3.300  0.9913 -0.1416 -0.7769
   32bbb     C4  938   9.866   1.915   3.235  0.3848 -0.1201  0.0052
   32bbb     H7  939   9.924   1.879   3.149 -1.4924  0.5819 -1.5948
   32bbb     H8  940   9.762   1.901   3.204 -0.5656  2.4757  1.6987
   32bbb     C5  941  10.099   2.126   3.064  0.3384 -0.8417  0.9983
   32bbb     H9  942  10.117   2.033   3.119 -2.5103  0.4266  4.4840
   32bbb    H10  943  10.113   2.208   3.135  0.1269 -0.2282  0.3475
   32bbb     C6  944   9.603   2.194   3.201 -0.3334 -0.0456  0.4760
   32bbb    H11  945   9.602   2.118   3.279  0.4706 -0.2003  0.3434
   32bbb    H12  946   9.504   2.189   3.154 -0.0483  2.4146 -0.5613
   32bbb     C7  947   9.907   1.842   3.359  0.0911 -0.1379  0.0524
   32bbb    H13  948  10.003   1.883   3.391  0.4348 -1.2066  0.4538
   32bbb    H14  949   9.924   1.737   3.332 -0.7636 -0.0553 -0.8555
   32bbb     C8  950   9.599   2.342   3.255  0.5040  0.2159 -0.4604
   32bbb    H15  951   9.678   2.369   3.326  0.9015  0.7627 -1.0952
   32bbb    H16  952   9.505   2.351   3.310  0.8790  1.1814  0.0442
   32bbb     C9  953  10.189   2.146   2.937  0.2564 -0.4207 -0.0548
   32bbb    H17  954  10.279   2.201   2.968  0.2016  0.4601 -1.3883
   32bbb    H18  955  10.144   2.208   2.859 -0.4321  2.3241  2.3345
   32bbb     O1  956   9.807   1.854   3.460  0.0746 -0.9560  0.4727
   33bbb     N1  957  10.062   1.497   3.000  0.6419  0.0367 -0.0280
   33bbb     C1  958  10.040   1.586   2.882  0.9580  0.4174 -0.7427
   33bbb     H1  959  10.132   1.631   2.842  0.7500  0.5699 -1.0532
   33bbb     H2  960   9.976   1.675   2.892 -0.3516 -0.3790 -1.6912
   33bbb     C2  961  10.144   1.559   3.103  0.2880  0.0190 -0.1212
   33bbb     H3  962  10.160   1.483   3.179 -0.3376 -2.0145 -1.9220
   33bbb     H4  963  10.084   1.641   3.143 -0.7443 -0.3422 -0.8857
   33bbb     C3  964   9.937   1.433   3.052  0.6568 -0.6446 -0.0062
   33bbb     H5  965   9.981   1.362   3.122 -1.4331 -2.3474 -0.3056
   33bbb     H6  966   9.891   1.378   2.968  0.8412  1.0753 -1.3015
   33bbb     C4  967   9.830   1.522   3.129 -0.0189  0.3235  0.7665
   33bbb     H7  968   9.892   1.593   3.186  0.1341  3.0003 -2.4229
   33bbb     H8  969   9.770   1.465   3.201  1.9021 -0.0194  2.1647
   33bbb     C5  970   9.987   1.498   2.760 -0.5752 -0.1115  0.7951
   33bbb     H9  971   9.890   1.450   2.776 -0.4350 -0.7046 -0.1009
   33bbb    H10  972  10.062   1.421   2.737 -0.2613 -0.3251  2.4110
   33bbb     C6  973  10.283   1.616   3.056  0.1200 -0.4881 -0.2727
   33bbb    H11  974  10.340   1.668   3.135 -1.3764  2.0784 -0.7569
   33bbb    H12  975  10.259   1.684   2.974 -1.0462 -0.7102 -0.1382
   33bbb     C7  976   9.730   1.580   3.029  0.3379  0.0641 -0.5821
   33bbb    H13  977   9.690   1.499   2.966  3.8222 -1.5470 -0.9772
   33bbb    H14  978   9.777   1.646   2.954  0.2009 -0.0493 -0.7700
   33bbb     C8  979  10.380   1.502   3.014  0.7293 -0.9007  0.2140
   33bbb    H15  980  10.333   1.446   2.932  0.7484  0.5476 -0.8104
   33bbb    H16  981  10.395   1.432   3.098  0.6376 -0.6529  0.4380
   33bbb     C9  982   9.966   1.591   2.633  0.3502 -0.1123 -0.6318
   33bbb    H17  983   9.927   1.527   2.552 -1.4647 -2.0823  1.6372
   33bbb    H18  984  10.063   1.638   2.612  0.6496 -0.9326 -1.1477
   33bbb     O1  985   9.637   1.657   3.102 -0.6132  0.3835  0.1848
   34bbb     N1  986  10.088   0.389   2.387 -0.3555  0.2052 -0.8706
   34bbb     C1  987  10.197   0.385   2.282  0.4097 -0.3640  0.1924
   34bbb     H1  988  10.199   0.290   2.228 -0.8021 -0.2666 -0.0592
   34bbb     H2  989  10.296   0.409   2.324  0.2860  0.6264 -0.0460
   34bbb     C2  990  10.096   0.274   2.487  0.4821 -0.4379  0.2898
   34bbb     H3  991  10.017   0.267   2.563  1.1471 -1.7335  0.8834
   34bbb     H4  992  10.185   0.285   2.550  0.3200 -2.6279  0.9913
   34bbb     C3  993  10.074   0.515   2.462  0.2061  0.5183  0.7881
   34bbb     H5  994  10.170   0.564   2.482 -0.1383  1.0965  1.0331
   34bbb     H6  995  10.031   0.495   2.561 -0.8278 -1.9574 -0.0685
   34bbb     C4  996   9.976   0.609   2.385  0.1375  1.1280 -0.6295
   34bbb     H7  997   9.885   0.552   2.366  0.7637 -0.2757  0.3600
   34bbb     H8  998  10.006   0.637   2.284  0.7110 -0.2669 -0.8743
   34bbb     C5  999  10.170   0.477   2.157 -0.1916 -0.2085  0.1722
   34bbb     H9 1000  10.182   0.579   2.195 -3.4583 -0.2069  1.5495
   34bbb    H10 1001  10.072   0.456   2.112 -0.7123  1.0835  0.6444
   34bbb     C6 1002  10.095   0.128   2.427 -0.2960  0.1615 -0.1070
   34bbb    H11 1003  10.094   0.051   2.504  0.2289 -1.1177 -1.3293
   34bbb    H12 1004  10.190   0.119   2.372 -1.0487 -1.0162 -1.2591
   34bbb     C7 1005   9.949   0.734   2.463 -0.0182 -0.0418 -0.7748
   34bbb    H13 1006   9.871   0.800   2.423 -0.7710  1.2985  2.5230
   34bbb    H14 1007  10.037   0.800   2.464 -1.0558  1.4157  0.9895
   34bbb     C8 1008   9.989   0.098   2.324  0.0487  0.2384  0.5589
   34bbb    H15 1009  10.011   0.155   2.233  2.9724 -2.5879 -0.7006
   34bbb    H16 1010   9.887   0.127   2.354 -0.5424  0.8614 -1.8574
   34bbb     C9 1011  10.274   0.465   2.044  0.2881 -0.7222  0.1747
   34bbb    H17 1012  10.249   0.374   1.989 -0.1986 -0.1543 -0.5641
   34bbb    H18 1013  10.377   0.453   2.079  0.4721 -1.3388 -0.5421
   34bbb     O1 1014   9.899   0.701   2.591  0.9491 -0.7079 -0.1122
   35bbb     N1 1015   9.641  -0.124   2.584  0.4749  0.1830 -0.1824
   35bbb     C1 1016   9.557  -0.024   2.511  0.0246  0.5624 -0.9685
   35bbb     H1 1017   9.617   0.060   2.476  0.0285  1.4455  0.9978
   35bbb     H2 1018   9.486   0.009   2.589 -0.9991 -1.2330 -1.0741
   35bbb     C2 1019   9.572  -0.256   2.607  0.3415 -0.1680 -0.5970
   35bbb     H3 1020   9.550  -0.304   2.511  0.6506  1.6071 -1.5973
   35bbb     H4 1021   9.476  -0.237   2.657  1.3607  0.2101  1.3265
   35bbb     C3 1022   9.726  -0.066   2.701 -0.0541  0.5502 -0.6885
   35bbb     H5 1023   9.793  -0.145   2.736 -1.4378 -0.4202 -0.1208
   35bbb     H6 1024   9.656  -0.047   2.783 -1.6311 -0.0883 -1.8327
   35bbb     C4 1025   9.807   0.057   2.663 -0.0723 -0.2577  0.0423
   35bbb     H7 1026   9.733   0.136   2.646  1.0093  0.5726 -0.9995
   35bbb     H8 1027   9.863   0.050   2.569  0.9308 -0.2667  0.6159
   35bbb     C5 1028   9.476  -0.079   2.400 -1.2235 -0.0264  0.2250
   35bbb     H9 1029   9.416  -0.163   2.437  1.0607 -0.9134  2.2999
   35bbb    H10 1030   9.546  -0.126   2.330  0.5239  3.0599 -0.2738
   35bbb     C6 1031   9.645  -0.354   2.703  0.1967 -0.3185  0.2361
   35bbb    H11 1032   9.648  -0.307   2.801  1.1536  0.7223 -0.2704
   35bbb    H12 1033   9.748  -0.363   2.667  0.4489 -0.1354  0.8994
   35bbb     C7 1034   9.901   0.088   2.784  0.9264 -0.5509 -0.8863
   35bbb    H13 1035  10.000   0.043   2.779  1.4571  0.4362  0.2701
   35bbb    H14 1036   9.852   0.060   2.878 -0.4496  1.7501 -0.8354
   35bbb     C8 1037   9.578  -0.494   2.708 -0.0461 -0.1883  0.0021
   35bbb    H15 1038   9.618  -0.553   2.791  1.1707  0.3196 -0.1887
   35bbb    H16 1039   9.598  -0.560   2.623 -1.1231 -1.2056  0.5222
   35bbb     C9 1040   9.383   0.024   2.327  0.4157 -0.8569  0.6035
   35bbb    H17 1041   9.447   0.106   2.292 -0.8308  0.5820  1.5511
   35bbb    H18 1042   9.326   0.068   2.410  2.0194  1.5612  0.5142
   35bbb     O1 1043   9.917   0.228   2.790  0.1084 -0.7983 -0.4313
   36bbb     N1 1044  10.361   1.175   2.729  0.8558  0.2512 -0.5875
   36bbb     C1 1045  10.286   1.176   2.600 -0.4516 -0.1064 -0.0351
   36bbb     H1 1046  10.193   1.231   2.616 -0.8608 -0.7551 -0.1540
   36bbb     H2 1047  10.252   1.078   2.564  1.3743 -0.2227 -1.6120
   36bbb     C2 1048  10.466   1.079   2.736 -0.4812 -0.3139  0.6152
   36bbb     H3 1049  10.511   1.059   2.638 -1.8652  0.6055 -0.2379
   36bbb     H4 1050  10.429   0.988   2.784 -2.3192 -0.1794 -0.4738
   36bbb     C3 1051  10.276   1.180   2.847  0.1515 -0.3295 -0.2086
   36bbb     H5 1052  10.202   1.260   2.841 -2.9529 -2.9300  0.4770
   36bbb     H6 1053  10.339   1.202   2.934  0.5095  1.5129 -0.8975
   36bbb     C4 1054  10.174   1.059   2.868 -0.1856  0.4523 -0.1672
   36bbb     H7 1055  10.201   0.999   2.956 -0.6760  2.1470  1.1922
   36bbb     H8 1056  10.168   0.991   2.782 -2.0249  1.9621 -1.2989
   36bbb     C5 1057  10.361   1.242   2.486 -0.2943  0.0946  0.0310
   36bbb     H9 1058  10.300   1.253   2.395  0.5554  1.7682 -0.3695
   36bbb    H10 1059  10.457   1.194   2.463 -0.5786 -1.4569  1.8337
   36bbb     C6 1060  10.582   1.122   2.828  0.1139  0.3208 -0.6683
   36bbb    H11 1061  10.654   1.039   2.821  0.1108  0.2809 -0.2797
   36bbb    H12 1062  10.545   1.128   2.931  0.3140  1.7611 -0.6595
   36bbb     C7 1063  10.029   1.107   2.900  0.5925 -0.2070 -0.3505
   36bbb    H13 1064  10.022   1.207   2.944 -1.9698  0.5399 -2.1919
   36bbb    H14 1065   9.979   1.038   2.969  0.2857  0.4424  0.0807
   36bbb     C8 1066  10.645   1.255   2.806  0.7655  0.4995  0.1553
   36bbb    H15 1067  10.719   1.274   2.885  1.3811 -0.4966 -0.1608
   36bbb    H16 1068  10.569   1.332   2.825  0.1239  0.2421 -1.2291
   36bbb     C9 1069  10.410   1.382   2.517 -0.2123  0.4881  0.3551
   36bbb    H17 1070  10.460   1.374   2.614 -1.3415  1.3388  1.0208
   36bbb    H18 1071  10.324   1.450   2.530 -1.0497 -0.1336 -1.5585
   36bbb     O1 1072   9.955   1.113   2.779  0.1479 -0.9634  0.0085
   37bbb     N1 1073  10.394   0.749   2.431  0.5936  0.1021 -0.5317
   37bbb     C1 1074  10.462   0.622   2.382  1.0572  0.0439  0.4179
   37bbb     H1 1075  10.430   0.601   2.279  0.4559  0.2297  0.5692
   37bbb     H2 1076  10.425   0.535   2.437 -0.7527 -1.3465 -2.7093
   37bbb     C2 1077  10.436   0.782   2.576 -0.5748 -0.3911 -0.0609
   37bbb     H3 1078  10.400   0.877   2.618 -0.1714 -0.3072  0.1075
   37bbb     H4 1079  10.545   0.796   2.573 -0.8178  1.9154 -0.0802
   37bbb     C3 1080  10.403   0.875   2.356 -0.5562 -0.3311 -0.4267
   37bbb     H5 1081  10.507   0.909   2.355 -1.0237  1.1301 -0.8408
   37bbb     H6 1082  10.350   0.951   2.414  0.6004  0.0179  0.1929
   37bbb     C4 1083  10.347   0.880   2.215 -0.0845  0.2389 -0.5064
   37bbb     H7 1084  10.385   0.792   2.162  1.2914  0.9000 -0.6480
   37bbb     H8 1085  10.383   0.965   2.156 -0.0945 -0.3887 -1.4319
   37bbb     C5 1086  10.615   0.625   2.382  0.0502 -0.3196  0.5129
   37bbb     H9 1087  10.646   0.623   2.487  4.3235 -0.1397 -0.5530
   37bbb    H10 1088  10.638   0.708   2.314  1.9890 -1.8751 -0.8455
   37bbb     C6 1089  10.396   0.669   2.674 -0.0222  0.9681 -0.4837
   37bbb    H11 1090  10.441   0.574   2.644 -0.6710 -0.1894  1.9503
   37bbb    H12 1091  10.287   0.664   2.682  0.1150 -2.5520  0.8720
   37bbb     C7 1092  10.195   0.877   2.211 -0.0979 -0.6353  0.2039
   37bbb    H13 1093  10.146   0.790   2.255 -1.1399  0.6125  1.6173
   37bbb    H14 1094  10.168   0.900   2.107  1.8107  0.8854 -0.0270
   37bbb     C8 1095  10.459   0.705   2.816 -0.4114  0.1733  0.1354
   37bbb    H15 1096  10.453   0.618   2.883  2.5974 -1.1785 -1.2030
   37bbb    H16 1097  10.408   0.789   2.865 -2.3699 -1.8826  1.8375
   37bbb     C9 1098  10.670   0.499   2.319 -0.3234  0.5414 -0.6582
   37bbb    H17 1099  10.628   0.417   2.378 -1.2431  1.9604  0.7285
   37bbb    H18 1100  10.778   0.497   2.340  0.0450  0.7652 -2.3751
   37bbb     O1 1101  10.139   0.985   2.291  0.2890  0.8535 -0.5598
   38bbb     N1 1102   9.570   0.402   2.264 -0.7652 -1.0193 -0.7115
   38bbb     C1 1103   9.429   0.436   2.234  0.9291 -0.0243 -0.0137
   38bbb     H1 1104   9.421   0.543   2.212  1.6461 -0.3798 -2.1989
   38bbb     H2 1105   9.359   0.408   2.314  1.7892 -0.8289  0.4715
   38bbb     C2 1106   9.672   0.461   2.173  0.1009 -0.1528  0.3166
   38bbb     H3 1107   9.706   0.557   2.212  0.8523 -0.3121  0.0715
   38bbb     H4 1108   9.622   0.471   2.076  0.1174 -2.3161  0.0313
   38bbb     C3 1109   9.617   0.419   2.400  0.1412 -0.0616  0.7524
   38bbb     H5 1110   9.630   0.526   2.418  2.5573 -0.1941  0.2225
   38bbb     H6 1111   9.717   0.374   2.410  0.0853 -0.5715 -0.7008
   38bbb     C4 1112   9.530   0.360   2.513 -0.3736  0.2049  0.5513
   38bbb     H7 1113   9.504   0.254   2.496 -0.6270  0.2682  0.5480
   38bbb     H8 1114   9.435   0.414   2.511  0.2918  1.4223  1.0052
   38bbb     C5 1115   9.386   0.355   2.111 -0.3320  0.0730 -0.7311
   38bbb     H9 1116   9.398   0.250   2.142  2.4340  1.2737  2.9083
   38bbb    H10 1117   9.459   0.360   2.029 -0.0899  2.7219 -0.4277
   38bbb     C6 1118   9.790   0.370   2.143  0.4937 -0.4713  1.0681
   38bbb    H11 1119   9.843   0.346   2.236  1.3937 -0.4116  0.5836
   38bbb    H12 1120   9.865   0.419   2.079 -0.2606 -1.0066 -0.2777
   38bbb     C7 1121   9.594   0.379   2.657 -0.0230 -0.3142 -0.2367
   38bbb    H13 1122   9.583   0.486   2.678  0.6739 -0.3838  0.5317
   38bbb    H14 1123   9.699   0.348   2.658 -0.5868 -2.4007  0.2318
   38bbb     C8 1124   9.734   0.235   2.084 -0.1256  0.1866 -0.1923
   38bbb    H15 1125   9.653   0.210   2.154 -1.1918  1.3691 -0.9678
   38bbb    H16 1126   9.814   0.160   2.084 -0.7619 -0.5061  0.3200
   38bbb     C9 1127   9.245   0.382   2.053 -0.6863  0.6080  0.0119
   38bbb    H17 1128   9.230   0.490   2.061 -2.0370  0.3620  1.0995
   38bbb    H18 1129   9.170   0.347   2.125  1.1098 -1.8132  0.8323
   38bbb     O1 1130   9.516   0.294   2.749 -0.3410 -0.3417 -0.6348
   39bbb     N1 1131   9.800   0.538   3.581 -0.2990 -0.0568 -0.5727
   39bbb     C1 1132   9.743   0.461   3.688 -0.5615 -0.0864 -0.6594
   39bbb     H1 1133   9.656   0.403   3.656 -0.1771 -0.0491 -1.8147
   39bbb     H2 1134   9.719   0.535   3.765 -1.0724  0.1906 -1.0814
   39bbb     C2 1135   9.888   0.454   3.489 -0.0314 -0.7999 -0.0406
   39bbb     H3 1136   9.965   0.405   3.550  0.7797  0.8263  0.3083
   39bbb     H4 1137   9.947   0.521   3.425 -1.3585  1.5307  1.0657
   39bbb     C3 1138   9.700   0.609   3.500 -0.1312  0.3103  0.3751
   39bbb     H5 1139   9.608   0.551   3.490 -0.1285  0.1659  1.1375
   39bbb     H6 1140   9.732   0.632   3.397 -0.8662  2.2617  0.5449
   39bbb     C4 1141   9.659   0.743   3.566 -0.1367  0.0496 -0.0595
   39bbb     H7 1142   9.736   0.819   3.547  0.9170 -1.0121 -0.1601
   39bbb     H8 1143   9.646   0.734   3.675 -1.4267 -0.0862 -0.2199
   39bbb     C5 1144   9.844   0.368   3.769  0.0263  0.2305  0.3242
   39bbb     H9 1145   9.796   0.358   3.866 -1.0001 -0.9317 -0.2851
   39bbb    H10 1146   9.938   0.424   3.777  0.4382 -0.1329 -1.5170
   39bbb     C6 1147   9.812   0.349   3.405 -0.3064  0.1961  0.1661
   39bbb    H11 1148   9.751   0.397   3.328 -1.9150 -0.7081  0.8210
   39bbb    H12 1149   9.730   0.292   3.452 -0.8372  1.0298  0.2828
   39bbb     C7 1150   9.532   0.806   3.506 -0.0935  0.2060 -0.2007
   39bbb    H13 1151   9.543   0.915   3.515 -1.1208  0.3466 -0.4723
   39bbb    H14 1152   9.446   0.779   3.568  1.2478  2.2158  2.7928
   39bbb     C8 1153   9.900   0.248   3.339 -0.6309 -0.7054  0.6588
   39bbb    H15 1154   9.967   0.199   3.411 -1.4672 -1.7919  0.7173
   39bbb    H16 1155   9.968   0.301   3.271 -3.2369  2.1640  0.0945
   39bbb     C9 1156   9.867   0.223   3.720 -0.7202  1.2457 -0.0640
   39bbb    H17 1157   9.944   0.176   3.784 -0.9985 -0.2960 -0.8178
   39bbb    H18 1158   9.920   0.224   3.624  0.3668 -0.0298  0.4824
   39bbb     O1 1159   9.511   0.769   3.372 -0.1243 -0.1955  0.0929
   40bbb     N1 1160  10.420  -0.269   1.581  0.3473  0.2282 -0.2762
   40bbb     C1 1161  10.381  -0.406   1.598 -0.1908  0.0367 -0.0278
   40bbb     H1 1162  10.426  -0.472   1.523  1.8579  1.7219 -0.3916
   40bbb     H2 1163  10.274  -0.408   1.576 -0.9850  2.8066  2.7788
   40bbb     C2 1164  10.427  -0.233   1.439  0.3830 -0.7538  0.1193
   40bbb     H3 1165  10.332  -0.221   1.386  0.6502 -0.3550 -0.2788
   40bbb     H4 1166  10.475  -0.310   1.379 -0.9029  0.1229 -2.1646
   40bbb     C3 1167  10.333  -0.181   1.663  0.2331  0.9040 -0.8221
   40bbb     H5 1168  10.369  -0.078   1.645  1.1138  0.4620 -1.6753
   40bbb     H6 1169  10.349  -0.199   1.770  1.9082  0.3164 -1.1426
   40bbb     C4 1170  10.180  -0.182   1.629  0.2826 -0.0302  0.2147
   40bbb     H7 1171  10.138  -0.283   1.633 -1.3397  0.5231 -1.3901
   40bbb     H8 1172  10.148  -0.158   1.527 -4.5303 -2.0184  0.9881
   40bbb     C5 1173  10.399  -0.453   1.742  0.2864  0.1190  0.1389
   40bbb     H9 1174  10.317  -0.404   1.796  2.8843  3.2624  1.6036
   40bbb    H10 1175  10.490  -0.410   1.786  0.5095 -0.7840  0.5717
   40bbb     C6 1176  10.496  -0.095   1.420 -0.2607 -0.3285 -0.2824
   40bbb    H11 1177  10.592  -0.092   1.473 -0.5386 -0.2825  0.2192
   40bbb    H12 1178  10.433  -0.011   1.451 -1.7490 -0.5886 -2.3646
   40bbb     C7 1179  10.107  -0.093   1.727  0.1194 -0.5088 -1.1767
   40bbb    H13 1180  10.132  -0.119   1.830  0.2791  0.2029 -1.0299
   40bbb    H14 1181  10.001  -0.117   1.720  0.1576 -0.9007 -0.4853
   40bbb     C8 1182  10.528  -0.059   1.268  0.6987  0.0138  0.9575
   40bbb    H15 1183  10.606  -0.129   1.237 -0.1868 -1.4868  1.9784
   40bbb    H16 1184  10.561   0.045   1.260  0.7443 -0.0659 -0.0264
   40bbb     C9 1185  10.395  -0.598   1.768  0.2512 -0.0469  0.1919
   40bbb    H17 1186  10.467  -0.651   1.704 -1.0732  0.3165 -1.6888
   40bbb    H18 1187  10.301  -0.643   1.737  1.4718 -2.2867 -0.5011
   40bbb     O1 1188  10.144   0.045   1.712  0.0621 -0.3040  0.0986
   41bbb     N1 1189  10.809   0.260   1.646  0.0173 -0.3514 -0.1329
   41bbb     C1 1190  10.925   0.327   1.723 -0.1020 -0.1896  0.2579
   41bbb     H1 1191  10.953   0.262   1.807 -2.2746  0.0011  1.1957
   41bbb     H2 1192  10.889   0.420   1.768 -0.3617 -0.2834  0.2459
   41bbb     C2 1193  10.703   0.241   1.744 -0.3403 -0.0501 -0.3908
   41bbb     H3 1194  10.672   0.339   1.782 -1.7694  0.3734 -2.5104
   41bbb     H4 1195  10.747   0.181   1.825  1.6145  2.4821  0.5688
   41bbb     C3 1196  10.771   0.329   1.519 -0.8088  0.4491 -0.1199
   41bbb     H5 1197  10.694   0.272   1.465  0.7764 -1.5269 -0.4080
   41bbb     H6 1198  10.854   0.332   1.448  0.5840 -0.2581  1.3922
   41bbb     C4 1199  10.723   0.471   1.543 -0.8794 -0.1247 -0.5973
   41bbb     H7 1200  10.810   0.539   1.540 -1.0727  0.1717  0.1992
   41bbb     H8 1201  10.680   0.484   1.643  1.7370 -2.0755  0.9190
   41bbb     C5 1202  11.047   0.353   1.637 -0.6140 -0.4909  0.2331
   41bbb     H9 1203  11.124   0.414   1.687  2.0659 -2.5764 -1.0642
   41bbb    H10 1204  11.015   0.409   1.549 -0.8154  1.3687  1.4382
   41bbb     C6 1205  10.569   0.180   1.693 -0.4255 -0.2381 -0.2558
   41bbb    H11 1206  10.594   0.110   1.614 -0.2237 -0.5472  0.0798
   41bbb    H12 1207  10.513   0.266   1.654  0.6576  1.1589  1.0745
   41bbb     C7 1208  10.620   0.508   1.438 -0.3533 -0.0638  0.1068
   41bbb    H13 1209  10.659   0.475   1.341  0.7189 -1.0856  0.8448
   41bbb    H14 1210  10.613   0.617   1.441 -0.3240 -0.0784  1.3035
   41bbb     C8 1211  10.484   0.111   1.799  0.1235  0.3896 -0.6532
   41bbb    H15 1212  10.529   0.014   1.823  1.7160  1.1728 -0.3479
   41bbb    H16 1213  10.382   0.092   1.763  0.3716  0.3278 -1.3445
   41bbb     C9 1214  11.115   0.215   1.596 -0.4040  0.1676 -0.5218
   41bbb    H17 1215  11.209   0.242   1.546  0.4581  0.0436  0.9708
   41bbb    H18 1216  11.042   0.166   1.530  1.9004 -0.2308 -2.9133
   41bbb     O1 1217  10.488   0.466   1.467 -0.1163  0.8571  0.1405
   42bbb     N1 1218   7.429   0.869   1.970  0.2127  0.1947  0.4023
   42bbb     C1 1219   7.385   0.801   2.097 -0.3428  0.2551  0.3753
   42bbb     H1 1220   7.400   0.693   2.082  0.7835  0.5449 -0.8052
   42bbb     H2 1221   7.279   0.814   2.124 -0.5829 -0.2214 -0.3146
   42bbb     C2 1222   7.395   0.792   1.848  0.0157  0.2025  0.2301
   42bbb     H3 1223   7.413   0.687   1.874  3.9502  0.7581  0.2803
   42bbb     H4 1224   7.470   0.813   1.771  2.0159 -2.8740  1.1707
   42bbb     C3 1225   7.417   1.015   1.963  0.3166  0.0488  0.5066
   42bbb     H5 1226   7.455   1.065   2.053 -1.8334 -0.8546  2.0132
   42bbb     H6 1227   7.310   1.039   1.967  0.7183  2.0979  0.0914
   42bbb     C4 1228   7.478   1.089   1.841 -0.1356  0.5108  0.9890
   42bbb     H7 1229   7.492   1.191   1.879 -1.9245  0.9208  0.6351
   42bbb     H8 1230   7.413   1.099   1.753  0.2601  1.9485  0.8322
   42bbb     C5 1231   7.461   0.852   2.216  0.9982  0.3833 -0.0813
   42bbb     H9 1232   7.411   0.805   2.302  0.3615  1.2944  0.0672
   42bbb    H10 1233   7.441   0.960   2.220 -1.0280  0.1021 -0.9294
   42bbb     C6 1234   7.253   0.804   1.791  0.7758  0.1954 -0.0014
   42bbb    H11 1235   7.256   0.744   1.699 -1.2281  0.3682 -0.2298
   42bbb    H12 1236   7.232   0.909   1.764 -2.5337 -0.3868 -0.1142
   42bbb     C7 1237   7.622   1.036   1.811 -0.9889  0.0598  0.4625
   42bbb    H13 1238   7.665   1.086   1.723 -2.1803  3.9723  1.9064
   42bbb    H14 1239   7.626   0.927   1.797  2.4360  0.3601 -2.4799
   42bbb     C8 1240   7.146   0.741   1.878  0.2194 -0.0459 -0.8440
   42bbb    H15 1241   7.139   0.803   1.969 -0.0395 -0.9609 -0.2330
   42bbb    H16 1242   7.176   0.647   1.925 -1.3516  0.2738  0.9315
   42bbb     C9 1243   7.618   0.827   2.211  0.1631 -0.1063  0.2149
   42bbb    H17 1244   7.664   0.860   2.305  1.3327 -0.9292 -0.0398
   42bbb    H18 1245   7.651   0.890   2.127 -0.9185  0.1709 -0.0122
   42bbb     O1 1246   7.711   1.062   1.925 -0.2392 -0.2361 -0.2446
   43bbb     N1 1247   7.595   0.789   1.387 -0.6414  0.1636 -0.0542
   43bbb     C1 1248   7.640   0.663   1.330  0.4358  0.6175  0.1086
   43bbb     H1 1249   7.744   0.647   1.363  1.0136  1.2529 -1.2995
   43bbb     H2 1250   7.646   0.670   1.221  2.7703  3.5233  0.2864
   43bbb     C2 1251   7.463   0.838   1.333  0.3755 -0.0206  0.1933
   43bbb     H3 1252   7.392   0.754   1.323  0.8055 -0.2723 -0.9353
   43bbb     H4 1253   7.468   0.866   1.227 -1.6123  1.3587  0.3991
   43bbb     C3 1254   7.700   0.886   1.418 -0.2016 -0.3158 -0.1529
   43bbb     H5 1255   7.788   0.836   1.461 -0.3224  0.2534  0.8066
   43bbb     H6 1256   7.656   0.964   1.482  0.6725  0.9662 -1.0766
   43bbb     C4 1257   7.760   0.959   1.295 -0.1324  0.9013  0.6194
   43bbb     H7 1258   7.667   0.985   1.244 -1.0569  0.0179  1.7950
   43bbb     H8 1259   7.816   0.884   1.237 -0.5083  1.3447 -0.3326
   43bbb     C5 1260   7.554   0.548   1.385  0.6923 -0.9903 -0.1021
   43bbb     H9 1261   7.592   0.457   1.338 -1.3053 -0.9132 -2.0458
   43bbb    H10 1262   7.458   0.552   1.333  1.3822  0.1231 -1.3826
   43bbb     C6 1263   7.392   0.961   1.402  0.0442  0.0033 -0.2871
   43bbb    H11 1264   7.449   1.049   1.370 -1.2090  0.1322 -2.2934
   43bbb    H12 1265   7.418   0.945   1.508  1.2961  0.7641 -0.4611
   43bbb     C7 1266   7.844   1.085   1.315 -0.4913  0.1428 -0.4507
   43bbb    H13 1267   7.775   1.163   1.348 -0.3911 -0.0863  0.3134
   43bbb    H14 1268   7.895   1.125   1.227  0.4108  0.9408  0.4116
   43bbb     C8 1269   7.243   0.969   1.366  0.1885  0.8788 -0.5355
   43bbb    H15 1270   7.223   0.968   1.258  1.9278  0.8967 -0.8915
   43bbb    H16 1271   7.192   1.056   1.407  0.1185  0.9163 -0.7030
   43bbb     C9 1272   7.532   0.535   1.539 -0.3141 -0.3059 -0.4664
   43bbb    H17 1273   7.451   0.461   1.551 -0.2198 -0.6674 -1.8499
   43bbb    H18 1274   7.492   0.631   1.575 -1.7011 -0.2820 -1.9587
   43bbb     O1 1275   7.948   1.056   1.411 -0.5045 -0.3744  0.1292
   44bbb     N1 1276   8.076   2.819   2.168  0.7815 -1.0337  0.1240
   44bbb     C1 1277   8.001   2.904   2.262 -0.1457 -0.1417  0.3450
   44bbb     H1 1278   7.899   2.864   2.254 -0.4619  0.7653 -0.3248
   44bbb     H2 1279   8.000   2.999   2.207  2.3613 -0.1861  0.1407
   44bbb     C2 1280   8.140   2.696   2.220 -0.0162  0.4706 -0.0189
   44bbb     H3 1281   8.208   2.720   2.303  0.9988 -1.8706 -0.0722
   44bbb     H4 1282   8.198   2.649   2.140 -0.8667 -1.0595  0.2188
   44bbb     C3 1283   8.009   2.817   2.035  0.7129  0.2442 -0.0139
   44bbb     H5 1284   7.967   2.912   2.000 -1.4421 -1.3962 -2.1708
   44bbb     H6 1285   7.926   2.746   2.044  0.4325  0.6028  0.3036
   44bbb     C4 1286   8.093   2.770   1.919 -0.5736  0.2326 -0.1104
   44bbb     H7 1287   8.033   2.767   1.827  1.9597  4.0128 -2.1754
   44bbb     H8 1288   8.119   2.664   1.933  1.6577  0.5552 -1.2852
   44bbb     C5 1289   8.057   2.935   2.394 -0.2530  0.0476 -0.5189
   44bbb     H9 1290   8.165   2.949   2.376  0.2631 -0.8180  1.5722
   44bbb    H10 1291   8.050   2.851   2.464 -0.7189 -0.2168 -0.8821
   44bbb     C6 1292   8.045   2.598   2.277  0.2346  0.3328 -0.3348
   44bbb    H11 1293   7.979   2.557   2.200  0.0886 -0.9926  0.4500
   44bbb    H12 1294   7.977   2.655   2.341 -0.1449 -0.9500  0.4469
   44bbb     C7 1295   8.223   2.848   1.891 -0.1486  0.6497  0.2279
   44bbb    H13 1296   8.276   2.850   1.987 -0.8424  0.2488  0.6252
   44bbb    H14 1297   8.205   2.953   1.863  0.9782  1.0923  1.0981
   44bbb     C8 1298   8.103   2.485   2.363  0.2311 -1.0878 -0.1455
   44bbb    H15 1299   8.162   2.419   2.298  0.4004  0.4518 -1.6284
   44bbb    H16 1300   8.020   2.429   2.407  0.5420 -2.5168 -1.3300
   44bbb     C9 1301   7.999   3.053   2.471 -0.0361  0.1887  0.8502
   44bbb    H17 1302   8.022   3.140   2.408  1.0222 -0.3418  0.4714
   44bbb    H18 1303   8.065   3.065   2.558  0.5916  0.5396  0.3319
   44bbb     O1 1304   8.307   2.779   1.791 -0.5497  0.0647 -0.3861
   45bbb     N1 1305   8.643   3.098   0.653 -0.0710  0.3384  0.0477
   45bbb     C1 1306   8.605   3.213   0.558  0.3387  0.2184 -0.6873
   45bbb     H1 1307   8.647   3.179   0.463  3.6649 -3.7528  1.8428
   45bbb     H2 1308   8.657   3.304   0.590 -0.6707  0.2431  1.0048
   45bbb     C2 1309   8.784   3.078   0.659  0.3255  0.1644 -0.4844
   45bbb     H3 1310   8.833   3.158   0.716 -1.5804  0.6488  0.5626
   45bbb     H4 1311   8.831   3.082   0.560  1.1815 -0.9120 -0.1493
   45bbb     C3 1312   8.567   3.089   0.786 -0.7115  0.0686 -0.9023
   45bbb     H5 1313   8.573   2.985   0.819 -1.0850  0.8968  2.1401
   45bbb     H6 1314   8.461   3.112   0.769 -0.4333  1.5390 -0.7920
   45bbb     C4 1315   8.620   3.201   0.886 -0.1521 -0.3244 -0.4376
   45bbb     H7 1316   8.618   3.299   0.836 -0.8847 -0.9450 -1.6653
   45bbb     H8 1317   8.721   3.179   0.924 -0.4434  1.2770  1.4176
   45bbb     C5 1318   8.453   3.234   0.528  0.1697  0.0305  0.0859
   45bbb     H9 1319   8.438   3.324   0.467 -0.5763 -0.3700 -0.3295
   45bbb    H10 1320   8.398   3.266   0.618 -0.5217  1.8598 -0.9401
   45bbb     C6 1321   8.835   2.946   0.727 -0.1448  0.3608  0.5495
   45bbb    H11 1322   8.784   2.858   0.685  0.3070  0.3451  0.0174
   45bbb    H12 1323   8.812   2.943   0.834 -0.0175  2.3865  0.6667
   45bbb     C7 1324   8.527   3.227   1.009 -0.6092  0.5601 -0.4261
   45bbb    H13 1325   8.436   3.282   0.984 -1.0104 -0.7455 -1.9533
   45bbb    H14 1326   8.597   3.281   1.074  1.0772  1.2182 -2.6585
   45bbb     C8 1327   8.986   2.912   0.699  0.4967  0.1617  0.3730
   45bbb    H15 1328   8.998   2.931   0.592 -2.6259 -2.5118 -0.6332
   45bbb    H16 1329   8.989   2.805   0.723 -1.4820  0.3806  1.8621
   45bbb     C9 1330   8.380   3.112   0.458 -0.3954  0.5490 -0.1477
   45bbb    H17 1331   8.394   3.017   0.510 -0.8078  1.1455  1.0837
   45bbb    H18 1332   8.430   3.096   0.361  0.4442 -0.3144  0.4185
   45bbb     O1 1333   8.492   3.109   1.075  0.0879  0.7243  0.5855
   46bbb     N1 1334   6.745  -0.226   2.834  0.4265 -0.1882 -0.6535
   46bbb     C1 1335   6.649  -0.309   2.753 -0.2318 -0.4766  0.3109
   46bbb     H1 1336   6.546  -0.290   2.784 -0.1459  0.9780 -0.2085
   46bbb     H2 1337   6.658  -0.417   2.773  0.5209 -0.2230  1.4758
   46bbb     C2 1338   6.693  -0.164   2.960 -0.4986  0.8343 -0.2278
   46bbb     H3 1339   6.773  -0.117   3.020  0.5535 -2.7823  1.4912
   46bbb     H4 1340   6.650  -0.244   3.022 -0.1447 -0.0911 -1.1373
   46bbb     C3 1341   6.882  -0.275   2.836  0.0661  0.3373  0.0885
   46bbb     H5 1342   6.898  -0.315   2.735  0.5457  0.5006  0.0946
   46bbb     H6 1343   6.898  -0.360   2.903 -1.5049  0.3056  0.4625
   46bbb     C4 1344   6.994  -0.175   2.877 -0.2995 -0.1284  0.2183
   46bbb     H7 1345   6.991  -0.172   2.987  1.3435 -1.8613  0.3646
   46bbb     H8 1346   6.967  -0.081   2.829  1.4140  0.5109  0.4168
   46bbb     C5 1347   6.654  -0.268   2.601  0.3446 -0.8148  0.1502
   46bbb     H9 1348   6.627  -0.352   2.535  0.9004 -1.9329  1.2985
   46bbb    H10 1349   6.758  -0.242   2.582 -0.3165  0.7391 -1.6914
   46bbb     C6 1350   6.575  -0.068   2.937 -0.3407  0.1728 -0.1899
   46bbb    H11 1351   6.484  -0.124   2.913 -0.0911 -0.8960  1.2171
   46bbb    H12 1352   6.601  -0.001   2.854  1.5252 -1.7479 -1.2512
   46bbb     C7 1353   7.135  -0.216   2.829 -0.5654 -0.7352 -0.2166
   46bbb    H13 1354   7.167  -0.317   2.857  0.3148 -0.1254  1.0927
   46bbb    H14 1355   7.201  -0.146   2.882  0.8594 -2.4264  0.3269
   46bbb     C8 1356   6.548   0.013   3.066 -0.3304 -0.6091  0.5802
   46bbb    H15 1357   6.643   0.046   3.108  0.6037 -1.6895 -0.5903
   46bbb    H16 1358   6.511  -0.048   3.149  0.4511 -0.7000  0.8658
   46bbb     C9 1359   6.559  -0.148   2.574 -0.1527  0.0266 -0.0852
   46bbb    H17 1360   6.571  -0.066   2.646  1.8411  1.0320 -1.4841
   46bbb    H18 1361   6.457  -0.189   2.571 -0.2285  0.2678 -1.6043
   46bbb     O1 1362   7.135  -0.198   2.685 -0.0317  0.0340 -0.5096
   47bbb     N1 1363   6.747   0.567   2.355 -0.2902  0.4862  0.1662
   47bbb     C1 1364   6.670   0.444   2.400  0.0037  0.4052 -0.1600
   47bbb     H1 1365   6.723   0.392   2.480 -0.1900 -1.1033 -0.9844
   47bbb     H2 1366   6.676   0.377   2.314  0.7336  1.6506 -1.1285
   47bbb     C2 1367   6.671   0.666   2.274 -0.0952  0.0804 -0.7696
   47bbb     H3 1368   6.599   0.614   2.209  1.3320 -1.4143 -1.2000
   47bbb     H4 1369   6.736   0.728   2.211 -0.5267  2.3261  0.8471
   47bbb     C3 1370   6.875   0.528   2.301 -0.2264 -0.3237  0.2332
   47bbb     H5 1371   6.859   0.501   2.196 -0.4697  0.4931  0.0546
   47bbb     H6 1372   6.913   0.445   2.362 -0.4758  0.6872  1.8158
   47bbb     C4 1373   6.981   0.635   2.330 -0.0175  1.0892  0.6312
   47bbb     H7 1374   6.980   0.651   2.439 -0.2393  0.3514  0.7407
   47bbb     H8 1375   6.959   0.727   2.274  1.9228 -0.0751 -2.2609
   47bbb     C5 1376   6.521   0.441   2.429 -0.1206  0.1762  0.8501
   47bbb     H9 1377   6.484   0.338   2.419 -0.6146  0.3273  1.0637
   47bbb    H10 1378   6.464   0.485   2.346 -0.5808 -1.6017  0.1723
   47bbb     C6 1379   6.597   0.779   2.353  0.4741 -0.1658 -0.0920
   47bbb    H11 1380   6.510   0.731   2.399 -0.1288  1.5456  0.6434
   47bbb    H12 1381   6.562   0.857   2.285 -1.0753 -0.4353  0.3580
   47bbb     C7 1382   7.124   0.589   2.296  0.4276 -0.5432  0.1167
   47bbb    H13 1383   7.178   0.679   2.264  1.6324 -0.5505  1.9528
   47bbb    H14 1384   7.121   0.515   2.215  1.6322 -1.1468  0.5969
   47bbb     C8 1385   6.680   0.843   2.473 -0.1089  0.4184 -0.3919
   47bbb    H15 1386   6.750   0.916   2.430 -1.1494 -0.0688 -3.1724
   47bbb    H16 1387   6.744   0.777   2.533 -0.2832  0.4413 -0.1817
   47bbb     C9 1388   6.484   0.494   2.570  0.2288 -0.0578 -0.3738
   47bbb    H17 1389   6.541   0.582   2.602 -1.1481  0.2298  1.4117
   47bbb    H18 1390   6.497   0.415   2.645 -0.4668 -1.3607 -1.5869
   47bbb     O1 1391   7.178   0.533   2.410  0.0039 -0.1203 -0.3534
   48bbb     N1 1392   7.220  -0.595   3.061  0.8749  0.0811  1.0217
   48bbb     C1 1393   7.310  -0.684   2.972  0.7885  0.5840 -0.0102
   48bbb     H1 1394   7.318  -0.641   2.871 -0.5067 -0.0311 -0.3904
   48bbb     H2 1395   7.266  -0.784   2.961 -1.0443  1.4642 -1.1617
   48bbb     C2 1396   7.273  -0.467   3.110 -0.0137 -0.6160  0.2584
   48bbb     H3 1397   7.295  -0.401   3.024 -1.6826 -1.0892 -0.5771
   48bbb     H4 1398   7.371  -0.492   3.153  0.6392  2.0246  0.5280
   48bbb     C3 1399   7.087  -0.581   3.007 -0.1904  0.0766  0.5126
   48bbb     H5 1400   7.093  -0.515   2.920 -0.0022 -0.8201 -0.1640
   48bbb     H6 1401   7.022  -0.535   3.082 -0.7311 -1.9847  1.3977
   48bbb     C4 1402   7.023  -0.715   2.956  0.1797  0.4248 -1.0936
   48bbb     H7 1403   7.025  -0.795   3.031 -2.4134  0.6919 -0.6492
   48bbb     H8 1404   7.082  -0.761   2.876  2.6923  0.7275  0.4681
   48bbb     C5 1405   7.460  -0.689   3.012 -0.5992 -0.4933 -0.0696
   48bbb     H9 1406   7.495  -0.588   3.034 -1.3008 -0.8874  3.4866
   48bbb    H10 1407   7.514  -0.715   2.921  0.6213  1.0528  0.1719
   48bbb     C6 1408   7.198  -0.381   3.215 -0.1001 -0.3536 -0.0370
   48bbb    H11 1409   7.172  -0.443   3.302 -0.0888  0.1636  0.3385
   48bbb    H12 1410   7.101  -0.343   3.180 -0.2068  0.7333  1.3355
   48bbb     C7 1411   6.879  -0.706   2.906  0.1290  0.3281  0.1199
   48bbb    H13 1412   6.839  -0.804   2.877 -0.3958  1.2478 -2.6326
   48bbb    H14 1413   6.888  -0.646   2.814  0.6155 -1.3371 -0.9659
   48bbb     C8 1414   7.284  -0.256   3.249  0.3554 -0.5969  0.2248
   48bbb    H15 1415   7.385  -0.265   3.293  0.8769  2.1382 -0.1959
   48bbb    H16 1416   7.230  -0.192   3.320 -3.5606 -2.5565 -0.7367
   48bbb     C9 1417   7.488  -0.781   3.127  0.4130 -0.0448 -0.4213
   48bbb    H17 1418   7.461  -0.879   3.086 -0.9150  0.8958 -1.9092
   48bbb    H18 1419   7.414  -0.761   3.206 -0.2893  1.0022 -1.3181
   48bbb     O1 1420   6.795  -0.654   3.009 -0.0256 -0.6139 -0.1301
   49bbb     N1 1421   6.102   0.089   3.527  0.0262 -0.2581  0.2513
   49bbb     C1 1422   6.043   0.231   3.511 -0.3384  0.3122 -0.4100
   49bbb     H1 1423   6.087   0.284   3.426 -1.9722  2.2403 -0.1128
   49bbb     H2 1424   6.082   0.291   3.594 -1.2605  1.2339 -0.6301
   49bbb     C2 1425   6.094   0.027   3.665  0.1577  0.6188  0.2791
   49bbb     H3 1426   6.171  -0.051   3.673  0.4570  0.8650 -0.1810
   49bbb     H4 1427   6.001  -0.030   3.675 -0.8862  2.1595 -0.3586
   49bbb     C3 1428   6.086  -0.002   3.415  0.6648  0.1520  0.0714
   49bbb     H5 1429   6.040   0.060   3.337  0.5830  0.7695  0.6051
   49bbb     H6 1430   6.017  -0.087   3.428  0.9150 -0.3563 -1.6489
   49bbb     C4 1431   6.220  -0.052   3.360 -0.7139  0.7817 -0.0161
   49bbb     H7 1432   6.293   0.030   3.364 -2.1049  2.1186 -0.9267
   49bbb     H8 1433   6.213  -0.070   3.252  1.2152  1.6311 -0.3237
   49bbb     C5 1434   5.890   0.244   3.511 -0.1836  0.6457 -0.2701
   49bbb     H9 1435   5.850   0.182   3.591  2.3282 -3.1775 -1.6803
   49bbb    H10 1436   5.852   0.206   3.415 -2.0572 -0.0770  0.7105
   49bbb     C6 1437   6.100   0.131   3.782  0.4936  0.5910 -1.0504
   49bbb    H11 1438   6.022   0.208   3.779  1.7818  1.9081 -3.1895
   49bbb    H12 1439   6.197   0.179   3.763  0.2203  1.3340 -0.5882
   49bbb     C7 1440   6.271  -0.186   3.415 -0.0324 -0.0581  0.0696
   49bbb    H13 1441   6.197  -0.266   3.403 -0.3254  0.6054 -3.5994
   49bbb    H14 1442   6.288  -0.168   3.522  0.2533  1.0822 -0.1560
   49bbb     C8 1443   6.107   0.056   3.919  0.1941  0.0389 -0.4852
   49bbb    H15 1444   6.112  -0.053   3.911  2.1330 -0.0504  1.1608
   49bbb    H16 1445   6.019   0.078   3.982  2.0424  3.4774  1.2340
   49bbb     C9 1446   5.850   0.392   3.541 -0.0934  0.0933 -0.5749
   49bbb    H17 1447   5.754   0.417   3.494 -0.6523  1.4523  1.1826
   49bbb    H18 1448   5.915   0.468   3.497 -1.5948  0.6544 -1.8917
   49bbb     O1 1449   6.392  -0.214   3.350  0.0483  0.2976  0.2781
   50bbb     N1 1450   8.931   0.962   3.164  0.0436 -0.0440 -0.9090
   50bbb     C1 1451   9.006   1.015   3.051  0.0736 -0.7083  0.0489
   50bbb     H1 1452   9.110   0.985   3.036 -0.0267  0.0232 -2.9332
   50bbb     H2 1453   9.023   1.122   3.071  0.2905 -0.4532 -1.3559
   50bbb     C2 1454   8.952   1.029   3.288 -0.3147  0.2762 -0.6294
   50bbb     H3 1455   8.864   1.017   3.352 -0.0066  1.7262  0.1227
   50bbb     H4 1456   8.964   1.137   3.270  0.3246  0.3973  0.4286
   50bbb     C3 1457   8.903   0.815   3.159  0.3131 -0.5702 -0.1641
   50bbb     H5 1458   8.992   0.758   3.190  1.8978  0.7270 -2.0262
   50bbb     H6 1459   8.886   0.783   3.055 -0.4594 -0.9765  0.0863
   50bbb     C4 1460   8.773   0.776   3.236 -0.0350  0.6154  0.5170
   50bbb     H7 1461   8.694   0.815   3.170  0.6781  0.9638 -0.1514
   50bbb     H8 1462   8.775   0.815   3.339  0.7767  1.3507  0.2402
   50bbb     C5 1463   8.921   1.009   2.917 -0.4839 -0.0556 -0.3414
   50bbb     H9 1464   8.840   1.081   2.934  0.7663  1.1361  0.9833
   50bbb    H10 1465   8.873   0.913   2.898 -0.1945 -0.8915  2.5704
   50bbb     C6 1466   9.076   0.986   3.374  0.0295 -0.2920 -0.0551
   50bbb    H11 1467   9.164   1.024   3.321  1.4881 -1.6195  1.3163
   50bbb    H12 1468   9.091   0.877   3.378  0.4907 -0.3153 -1.5869
   50bbb     C7 1469   8.756   0.622   3.228 -0.8863 -0.1263 -0.3353
   50bbb    H13 1470   8.747   0.587   3.125 -0.2516  0.2447 -0.5197
   50bbb    H14 1471   8.662   0.604   3.283 -0.5897  1.3561  0.7039
   50bbb     C8 1472   9.086   1.058   3.508  0.4770 -0.2641 -1.0428
   50bbb    H15 1473   8.999   1.035   3.571  0.1713  1.1154 -0.9149
   50bbb    H16 1474   9.078   1.167   3.498  1.0756 -0.0362  0.5561
   50bbb     C9 1475   9.004   1.052   2.795  0.1550 -0.3626  0.0278
   50bbb    H17 1476   8.939   1.044   2.707  0.8552 -1.6288 -0.3962
   50bbb    H18 1477   9.088   0.983   2.779 -0.8042 -1.5036 -0.2075
   50bbb     O1 1478   8.869   0.554   3.291  0.4773  0.2747  0.3882
   51bbb     N1 1479   9.143  -0.046   2.745  0.0218 -0.2348 -0.2899
   51bbb     C1 1480   9.158   0.087   2.683  0.3899  0.0169 -0.4435
   51bbb     H1 1481   9.105   0.095   2.588 -2.1024  1.6967  0.9780
   51bbb     H2 1482   9.264   0.100   2.656  0.8795  1.2264  1.7840
   51bbb     C2 1483   9.173  -0.166   2.667 -0.6563 -0.2308 -0.7213
   51bbb     H3 1484   9.142  -0.249   2.732  0.7913 -0.4179 -0.2231
   51bbb     H4 1485   9.281  -0.174   2.646 -0.7603  0.6541 -1.6521
   51bbb     C3 1486   9.183  -0.060   2.890  0.1981 -0.1663  0.2423
   51bbb     H5 1487   9.130  -0.147   2.932  0.4959 -1.7618 -2.4565
   51bbb     H6 1488   9.169   0.027   2.955 -0.2591  0.1383 -0.2698
   51bbb     C4 1489   9.331  -0.086   2.906 -0.2767 -0.1744 -0.6831
   51bbb     H7 1490   9.388   0.001   2.870 -1.8777  2.0626  1.8178
   51bbb     H8 1491   9.369  -0.176   2.858 -0.3180 -2.1123  2.6284
   51bbb     C5 1492   9.117   0.213   2.766  0.0512  0.1037  0.6250
   51bbb     H9 1493   9.193   0.208   2.845 -0.2091 -0.9070  0.8211
   51bbb    H10 1494   9.016   0.217   2.808 -0.6240 -0.4809 -0.8921
   51bbb     C6 1495   9.093  -0.168   2.539 -0.2481  0.6386  0.2871
   51bbb    H11 1496   9.134  -0.097   2.466 -2.3559  1.9745  0.3205
   51bbb    H12 1497   8.990  -0.137   2.562  0.1331  1.6585  0.7120
   51bbb     C7 1498   9.371  -0.097   3.057 -0.7346  0.0684  0.1926
   51bbb    H13 1499   9.477  -0.122   3.048 -0.0165  3.0283 -0.8882
   51bbb    H14 1500   9.316  -0.178   3.106 -0.4159  0.0378  0.5033
   51bbb     C8 1501   9.097  -0.309   2.471 -0.3086  0.1716 -0.1489
   51bbb    H15 1502   9.030  -0.305   2.385  0.7268 -0.8262 -1.0424
   51bbb    H16 1503   9.050  -0.376   2.544 -0.6708  0.4872 -0.0913
   51bbb     C9 1504   9.158   0.345   2.691  0.4115  0.6050  0.0945
   51bbb    H17 1505   9.266   0.369   2.693  0.7832 -0.9941  1.7685
   51bbb    H18 1506   9.123   0.433   2.746  0.4066  0.7144 -0.0829
   51bbb     O1 1507   9.354   0.032   3.121  0.4256 -0.1107 -0.4848
   52bbb     N1 1508   7.946   0.727   4.420  0.3556 -0.6694 -0.5838
   52bbb     C1 1509   7.939   0.786   4.556  0.3995  1.1672  0.2820
   52bbb     H1 1510   8.041   0.812   4.586  1.4789 -1.0009 -1.1625
   52bbb     H2 1511   7.894   0.713   4.624  0.2664  0.2491 -0.7430
   52bbb     C2 1512   7.978   0.578   4.425 -0.4272  0.4159  0.4379
   52bbb     H3 1513   8.071   0.562   4.480  1.5968 -0.8177 -3.0449
   52bbb     H4 1514   8.002   0.532   4.329  2.8375 -0.0397  1.3510
   52bbb     C3 1515   8.032   0.799   4.331 -0.0941 -0.4270  0.4889
   52bbb     H5 1516   8.135   0.783   4.364  0.0394  0.9600  0.7902
   52bbb     H6 1517   8.017   0.907   4.334  0.8757 -0.2760  0.4254
   52bbb     C4 1518   8.026   0.755   4.182  0.0274 -0.7850 -0.3747
   52bbb     H7 1519   8.042   0.844   4.120 -0.6757 -1.7219 -1.9563
   52bbb     H8 1520   7.929   0.706   4.167 -1.1664  0.8097  1.6116
   52bbb     C5 1521   7.858   0.921   4.569 -0.7558  0.2803  0.7852
   52bbb     H9 1522   7.874   1.006   4.501 -3.6568  0.6837  0.4694
   52bbb    H10 1523   7.872   0.964   4.669 -0.3972 -0.8914  1.2466
   52bbb     C6 1524   7.875   0.487   4.499 -0.6427 -0.0562  0.6124
   52bbb    H11 1525   7.893   0.511   4.605  1.7273  2.4480 -0.2508
   52bbb    H12 1526   7.914   0.385   4.484  0.4744  0.3951  0.3472
   52bbb     C7 1527   8.135   0.657   4.131 -0.3869 -1.0031  0.0555
   52bbb    H13 1528   8.120   0.632   4.025 -1.6422 -0.1924  0.0268
   52bbb    H14 1529   8.125   0.566   4.191 -0.7455 -1.1581 -0.2368
   52bbb     C8 1530   7.723   0.499   4.456 -0.1554 -0.4238 -0.3183
   52bbb    H15 1531   7.719   0.469   4.351 -2.4427 -0.3652 -0.2845
   52bbb    H16 1532   7.704   0.606   4.472  3.2490  0.4288 -1.0561
   52bbb     C9 1533   7.707   0.891   4.557 -0.6135 -0.6008  0.9513
   52bbb    H17 1534   7.677   0.853   4.459  3.0017  1.4914 -1.1618
   52bbb    H18 1535   7.650   0.985   4.561  1.0810  0.5021  0.0636
   52bbb     O1 1536   8.262   0.708   4.157 -0.0589  0.4014  0.2231
   53bbb     N1 1537   8.636   0.239   4.922 -0.2609 -0.1762  0.2465
   53bbb     C1 1538   8.699   0.219   5.054  0.2109  0.7200 -0.1295
   53bbb     H1 1539   8.706   0.110   5.069  0.9596  0.8170  0.2845
   53bbb     H2 1540   8.649   0.271   5.137  0.7704  2.1081 -0.6483
   53bbb     C2 1541   8.492   0.203   4.909  0.0450  0.4035 -0.1419
   53bbb     H3 1542   8.457   0.222   4.806 -2.1681 -1.3081  0.2029
   53bbb     H4 1543   8.426   0.266   4.970  1.0692 -0.2003  1.6651
   53bbb     C3 1544   8.664   0.377   4.865  0.7060 -0.0693  0.2192
   53bbb     H5 1545   8.622   0.399   4.766  0.6095  0.0135  0.2795
   53bbb     H6 1546   8.771   0.391   4.847  0.7391 -0.1989  0.3055
   53bbb     C4 1547   8.602   0.493   4.961 -0.3379 -0.2838 -0.1723
   53bbb     H7 1548   8.621   0.483   5.069  1.1526  1.4183 -0.2259
   53bbb     H8 1549   8.494   0.506   4.953 -0.5643 -1.9616 -0.3496
   53bbb     C5 1550   8.849   0.258   5.064 -0.2200 -0.0029  0.1368
   53bbb     H9 1551   8.879   0.249   5.169 -0.6374  2.1303  0.4863
   53bbb    H10 1552   8.855   0.366   5.046  0.3149  0.1548  1.2083
   53bbb     C6 1553   8.457   0.057   4.937  0.4076  1.0283  0.0511
   53bbb    H11 1554   8.351   0.036   4.919  0.6234 -1.5338  1.2891
   53bbb    H12 1555   8.485   0.032   5.040  1.6166 -0.2435 -0.5570
   53bbb     C7 1556   8.667   0.624   4.920  0.5585 -0.1145  0.1246
   53bbb    H13 1557   8.777   0.625   4.924  0.7455 -1.5492 -2.5415
   53bbb    H14 1558   8.630   0.704   4.986 -0.8479  0.7060 -1.5855
   53bbb     C8 1559   8.525  -0.050   4.856  0.2359 -0.5697 -0.5482
   53bbb    H15 1560   8.481  -0.144   4.890  0.2399 -1.0373 -1.7787
   53bbb    H16 1561   8.632  -0.051   4.882  0.8143 -0.9844 -2.7309
   53bbb     C9 1562   8.960   0.183   4.981  0.3750 -0.0668 -0.2935
   53bbb    H17 1563   8.908   0.103   4.927  0.9290 -1.3623  1.0391
   53bbb    H18 1564   9.038   0.140   5.045  0.9359  0.8295 -0.3488
   53bbb     O1 1565   8.616   0.652   4.789  0.2925  0.2193  0.1700
   54bbb     N1 1566   8.123   3.312   1.952  0.1166 -0.9152 -0.1143
   54bbb     C1 1567   8.120   3.393   1.822 -0.5737 -0.4500 -0.2266
   54bbb     H1 1568   8.220   3.438   1.812 -0.6847 -0.5859 -2.2661
   54bbb     H2 1569   8.055   3.482   1.821 -0.2950 -0.2404 -0.0440
   54bbb     C2 1570   8.181   3.393   2.063 -1.0654 -0.3052  0.4672
   54bbb     H3 1571   8.110   3.466   2.105  0.5334  1.8617 -0.3833
   54bbb     H4 1572   8.270   3.444   2.023 -1.1579  0.4255  1.1671
   54bbb     C3 1573   8.008   3.237   1.985  0.5041 -0.0870 -0.7844
   54bbb     H5 1574   8.026   3.184   2.079 -1.3419 -0.7368 -0.7657
   54bbb     H6 1575   7.992   3.169   1.900  2.4874  0.8112 -1.9746
   54bbb     C4 1576   7.883   3.323   2.006 -0.3717  0.4769  0.6796
   54bbb     H7 1577   7.853   3.357   1.906 -0.0641 -2.2505 -0.4435
   54bbb     H8 1578   7.911   3.415   2.060 -1.1409  0.9596  0.2772
   54bbb     C5 1579   8.073   3.325   1.693 -0.6803 -0.6307 -0.0901
   54bbb     H9 1580   8.078   3.386   1.602  0.5731 -0.8140 -0.1695
   54bbb    H10 1581   7.966   3.303   1.703 -0.7706  0.3701  1.3969
   54bbb     C6 1582   8.241   3.313   2.187 -0.7426  0.4295  0.5756
   54bbb    H11 1583   8.161   3.282   2.255 -1.6773 -0.8112 -1.0273
   54bbb    H12 1584   8.319   3.376   2.233  1.3667  0.1976 -2.4149
   54bbb     C7 1585   7.764   3.247   2.069  0.4629  0.6293 -0.0942
   54bbb    H13 1586   7.672   3.304   2.089  1.6409  1.8588  2.2755
   54bbb    H14 1587   7.801   3.204   2.163  1.1863  1.7265  0.1497
   54bbb     C8 1588   8.311   3.176   2.147  0.1341 -0.4204  0.3366
   54bbb    H15 1589   8.381   3.192   2.064 -1.2477 -0.1184 -0.8354
   54bbb    H16 1590   8.233   3.110   2.106 -1.0184  0.3581  1.1875
   54bbb     C9 1591   8.149   3.192   1.660  0.3369 -0.1554 -0.0974
   54bbb    H17 1592   8.171   3.147   1.758 -2.6085  0.2166  0.8388
   54bbb    H18 1593   8.242   3.206   1.603 -0.1045  0.5048 -0.6582
   54bbb     O1 1594   7.718   3.134   1.980  0.0498 -0.0824 -0.2152
   55bbb     N1 1595   8.112   2.416   1.759  0.2431  0.2006 -0.3973
   55bbb     C1 1596   8.226   2.378   1.667 -0.5240 -0.1769 -0.4210
   55bbb     H1 1597   8.235   2.468   1.605 -0.0323  0.5684  0.6856
   55bbb     H2 1598   8.191   2.291   1.611 -1.6772 -0.3286  0.5031
   55bbb     C2 1599   8.065   2.307   1.851 -0.2585 -0.0181 -0.3820
   55bbb     H3 1600   8.148   2.244   1.887  0.3673  0.8774 -0.1938
   55bbb     H4 1601   7.996   2.235   1.807  0.5218 -0.1197 -1.4695
   55bbb     C3 1602   8.001   2.495   1.701 -0.4083  0.6091 -0.1352
   55bbb     H5 1603   8.035   2.598   1.686  0.1494  0.5777  0.8403
   55bbb     H6 1604   7.926   2.488   1.780  0.0761  2.8340  0.5866
   55bbb     C4 1605   7.944   2.441   1.573 -0.6659 -0.2140  0.6428
   55bbb     H7 1606   7.918   2.335   1.586 -1.3027 -0.3567 -1.4382
   55bbb     H8 1607   8.006   2.451   1.483 -3.4387 -2.2447 -1.7021
   55bbb     C5 1608   8.362   2.359   1.748  0.4752 -0.2455 -0.6294
   55bbb     H9 1609   8.445   2.349   1.677  2.1067  0.4377  1.0870
   55bbb    H10 1610   8.356   2.268   1.808  0.5049  1.2647  1.8199
   55bbb     C6 1611   8.001   2.355   1.985 -0.2988  0.1907  0.0360
   55bbb    H11 1612   7.905   2.408   1.983 -1.4473 -1.7422  0.6666
   55bbb    H12 1613   8.071   2.431   2.020 -0.3334  0.3100 -0.1519
   55bbb     C7 1614   7.816   2.520   1.540 -0.0009  0.4865 -0.9152
   55bbb    H13 1615   7.783   2.468   1.449  0.1223 -0.6770 -0.3243
   55bbb    H14 1616   7.834   2.625   1.515 -0.4208  0.3716 -1.7414
   55bbb     C8 1617   7.995   2.237   2.089  0.1656  0.5648 -0.5614
   55bbb    H15 1618   7.959   2.147   2.039 -0.3591  0.8369 -0.6792
   55bbb    H16 1619   7.931   2.254   2.176  0.9480 -1.6168  0.5090
   55bbb     C9 1620   8.399   2.478   1.841  0.2181 -0.1923  0.4206
   55bbb    H17 1621   8.325   2.485   1.921  0.6381  2.9615  0.6865
   55bbb    H18 1622   8.400   2.575   1.788 -0.8262  0.6375  1.8461
   55bbb     O1 1623   7.721   2.507   1.642 -0.1396  0.2075  0.6015
   56bbb     N1 1624   6.894   2.223   2.270 -0.3215 -0.2702  0.0208
   56bbb     C1 1625   6.803   2.192   2.385 -0.1777  0.2006  0.1278
   56bbb     H1 1626   6.769   2.088   2.389  0.7663 -0.1738 -0.9265
   56bbb     H2 1627   6.708   2.239   2.358 -0.8650 -1.1598  0.1122
   56bbb     C2 1628   6.926   2.363   2.244  0.3981 -0.1555  0.3129
   56bbb     H3 1629   6.991   2.387   2.160 -0.1116  2.3724  0.5543
   56bbb     H4 1630   6.980   2.398   2.333  0.0624 -0.7444  0.7567
   56bbb     C3 1631   7.020   2.148   2.269 -0.6534  0.0579 -0.4660
   56bbb     H5 1632   7.080   2.189   2.351 -0.6764  1.2849 -1.0295
   56bbb     H6 1633   7.068   2.171   2.173 -1.3683  0.3258 -0.7708
   56bbb     C4 1634   7.000   1.995   2.284 -0.6251 -0.1115  0.2746
   56bbb     H7 1635   6.932   1.949   2.211 -1.0108 -0.5726  0.9166
   56bbb     H8 1636   6.966   1.962   2.383 -0.4327 -0.7059  0.1498
   56bbb     C5 1637   6.851   2.236   2.527 -0.5410 -0.3628  0.1665
   56bbb     H9 1638   6.898   2.335   2.522  1.1435 -1.1363  0.0402
   56bbb    H10 1639   6.931   2.167   2.556  1.3432  0.2297 -3.0276
   56bbb     C6 1640   6.810   2.451   2.220  0.2187  0.0101 -0.7705
   56bbb    H11 1641   6.842   2.555   2.208 -0.5097  0.3676  0.2790
   56bbb    H12 1642   6.752   2.450   2.313  1.3091  0.7767 -0.0555
   56bbb     C7 1643   7.130   1.922   2.259 -0.4416  1.2361 -0.1050
   56bbb    H13 1644   7.105   1.825   2.303 -3.2568  1.2314 -1.5333
   56bbb    H14 1645   7.214   1.974   2.308  0.4865 -0.2708 -0.0335
   56bbb     C8 1646   6.731   2.414   2.090  0.1217 -0.1403  0.1666
   56bbb    H15 1647   6.704   2.308   2.095 -1.4885  0.2911  2.1596
   56bbb    H16 1648   6.795   2.442   2.006 -1.4761  0.9955 -0.7318
   56bbb     C9 1649   6.737   2.234   2.633  0.2612  0.1827  0.7007
   56bbb    H17 1650   6.705   2.133   2.659 -0.6512 -0.1029 -1.3518
   56bbb    H18 1651   6.658   2.297   2.590  0.6554 -1.1696 -2.2624
   56bbb     O1 1652   7.162   1.924   2.120 -0.2933  0.0042  0.0752
   57bbb     N1 1653   6.559   1.733   2.406  0.3635  0.6409 -0.3496
   57bbb     C1 1654   6.591   1.729   2.552 -0.3205  0.5571  0.5123
   57bbb     H1 1655   6.582   1.623   2.581 -2.7484  0.6026  0.1043
   57bbb     H2 1656   6.513   1.785   2.606 -2.8278 -1.1577 -1.1308
   57bbb     C2 1657   6.530   1.874   2.362 -0.8671 -0.0119  0.8052
   57bbb     H3 1658   6.621   1.935   2.364 -0.0375 -1.1215 -0.5473
   57bbb     H4 1659   6.455   1.918   2.428 -0.6210  1.9922 -0.1944
   57bbb     C3 1660   6.657   1.664   2.322  0.6466  0.2531  0.7802
   57bbb     H5 1661   6.748   1.724   2.316 -0.0052  1.2403  0.3861
   57bbb     H6 1662   6.607   1.658   2.225  0.3711  1.7253  0.8038
   57bbb     C4 1663   6.701   1.520   2.366 -0.3888  0.5139  0.3807
   57bbb     H7 1664   6.613   1.466   2.401  0.3450 -0.3679  0.9224
   57bbb     H8 1665   6.767   1.528   2.454 -0.4912  1.1762  0.4040
   57bbb     C5 1666   6.732   1.793   2.591  0.0296  0.2865 -0.0218
   57bbb     H9 1667   6.749   1.890   2.543 -0.0823  0.1811 -0.2766
   57bbb    H10 1668   6.810   1.727   2.551  0.7946  0.4442  1.1648
   57bbb     C6 1669   6.482   1.891   2.208 -0.3125  0.9506 -0.0984
   57bbb    H11 1670   6.390   1.836   2.185  0.6073  0.1176 -2.0545
   57bbb    H12 1671   6.559   1.838   2.150 -1.7762  0.3190 -1.5487
   57bbb     C7 1672   6.768   1.438   2.261 -0.6472  0.0782 -0.3123
   57bbb    H13 1673   6.710   1.440   2.168 -4.0895 -1.5987  1.5998
   57bbb    H14 1674   6.764   1.335   2.299 -0.2917  0.0275 -0.4142
   57bbb     C8 1675   6.481   2.040   2.167 -0.0546 -0.1178  0.1752
   57bbb    H15 1676   6.424   2.052   2.074  0.6467 -0.4983 -0.3216
   57bbb    H16 1677   6.587   2.067   2.154  0.4014 -1.1308  1.5060
   57bbb     C9 1678   6.750   1.811   2.743 -0.7699  0.2864 -0.4332
   57bbb    H17 1679   6.746   1.709   2.782  1.4563  0.1789 -0.3577
   57bbb    H18 1680   6.667   1.863   2.792 -0.1091  0.5206  0.4587
   57bbb     O1 1681   6.902   1.487   2.254  0.0769  0.9008  0.1796
   58bbb     N1 1682   6.599   0.145   3.568  0.7016 -0.2609 -0.4950
   58bbb     C1 1683   6.630   0.082   3.702  0.4566 -0.2108 -0.0795
   58bbb     H1 1684   6.624   0.154   3.785  1.6454 -1.4458  1.1073
   58bbb     H2 1685   6.728   0.035   3.711 -0.2939 -2.1499 -1.3727
   58bbb     C2 1686   6.460   0.197   3.546 -0.2994 -0.3728 -0.3800
   58bbb     H3 1687   6.389   0.116   3.566  0.9282 -0.9897  1.9756
   58bbb     H4 1688   6.454   0.239   3.445  0.2447 -0.0688 -0.2905
   58bbb     C3 1689   6.647   0.074   3.444 -0.0208 -0.7139  0.0376
   58bbb     H5 1690   6.640   0.137   3.354  0.0967 -0.8734 -0.0834
   58bbb     H6 1691   6.586  -0.011   3.414 -1.2653  0.4826 -0.9584
   58bbb     C4 1692   6.796   0.036   3.453  0.0948 -0.0715  0.5888
   58bbb     H7 1693   6.803  -0.049   3.523 -4.0473  0.7266  2.2781
   58bbb     H8 1694   6.850   0.127   3.479 -0.3085  0.9024 -1.7182
   58bbb     C5 1695   6.545  -0.040   3.740 -0.3928 -0.6016  0.0353
   58bbb     H9 1696   6.542  -0.119   3.663 -0.7961  1.2667 -1.9632
   58bbb    H10 1697   6.439  -0.018   3.753 -0.5255  1.0739 -2.9400
   58bbb     C6 1698   6.416   0.309   3.643 -0.2855 -0.0593 -0.1286
   58bbb    H11 1699   6.411   0.265   3.743 -2.5782  0.2218 -0.0577
   58bbb    H12 1700   6.313   0.329   3.610 -0.0269 -1.3914 -1.9101
   58bbb     C7 1701   6.847  -0.020   3.311  0.3863 -0.0408  0.3748
   58bbb    H13 1702   6.783  -0.104   3.282  1.4077 -0.9953  0.8197
   58bbb    H14 1703   6.941  -0.074   3.329  1.3252  1.1408 -0.7421
   58bbb     C8 1704   6.507   0.435   3.656 -0.0337  0.3267  0.0071
   58bbb    H15 1705   6.549   0.479   3.564  1.6733  1.0292  1.0711
   58bbb    H16 1706   6.600   0.404   3.706  1.8251 -0.0524 -3.3462
   58bbb     C9 1707   6.602  -0.114   3.869  0.4484  0.8285  0.5345
   58bbb    H17 1708   6.525  -0.189   3.889  0.9821  0.4234  1.1096
   58bbb    H18 1709   6.605  -0.042   3.951 -0.7450  1.4202  0.0854
   58bbb     O1 1710   6.865   0.086   3.213  0.2910  0.5415 -0.3800
   59bbb     N1 1711   7.045   0.108   2.067  0.3192 -0.2529  0.1336
   59bbb     C1 1712   7.142   0.219   2.087 -0.2780  0.5771  0.3192
   59bbb     H1 1713   7.215   0.185   2.162 -1.3986 -1.6328  0.4717
   59bbb     H2 1714   7.115   0.318   2.125  2.7852  0.9933  1.7591
   59bbb     C2 1715   6.931   0.136   1.969 -0.8116  0.3872  0.0978
   59bbb     H3 1716   6.976   0.181   1.879 -0.2220  0.3518  0.3697
   59bbb     H4 1717   6.861   0.214   2.002 -1.0879  0.4082 -0.5224
   59bbb     C3 1718   7.009   0.041   2.196  0.9524  0.2315 -0.4187
   59bbb     H5 1719   7.094  -0.019   2.231  1.0540  1.3098  1.3286
   59bbb     H6 1720   6.932  -0.035   2.182  1.5945 -0.4689 -0.2164
   59bbb     C4 1721   6.970   0.143   2.305  0.0243 -0.0059  0.5584
   59bbb     H7 1722   6.889   0.204   2.264 -0.1937 -0.3171  0.5264
   59bbb     H8 1723   7.054   0.203   2.343 -0.3515 -0.7604  2.7491
   59bbb     C5 1724   7.229   0.241   1.958 -0.1431 -0.0712 -0.1847
   59bbb     H9 1725   7.174   0.263   1.866  0.4177 -0.6355 -0.6595
   59bbb    H10 1726   7.276   0.143   1.945 -1.0228 -0.7031  1.1365
   59bbb     C6 1727   6.857   0.004   1.931 -0.5152 -0.6613 -0.1844
   59bbb    H11 1728   6.788  -0.015   2.014 -0.2506  0.8887  0.4285
   59bbb    H12 1729   6.933  -0.075   1.930 -1.2522 -1.4218  1.1215
   59bbb     C7 1730   6.920   0.077   2.426 -0.6980  0.0787  0.1752
   59bbb    H13 1731   6.994   0.004   2.463 -2.2515 -0.9622  1.3639
   59bbb    H14 1732   6.831   0.017   2.403 -0.4089  0.0626 -0.9403
   59bbb     C8 1733   6.780  -0.001   1.793  0.2409 -0.2080  0.5745
   59bbb    H15 1734   6.849   0.013   1.708 -1.0289 -3.0847 -1.0968
   59bbb    H16 1735   6.695   0.067   1.785 -0.4277 -1.1324 -0.5196
   59bbb     C9 1736   7.342   0.352   1.974  0.2497  0.6064  0.5044
   59bbb    H17 1737   7.311   0.455   1.994  1.7485  1.2131 -0.1342
   59bbb    H18 1738   7.398   0.346   1.880  0.2305 -0.2615  0.5368
   59bbb     O1 1739   6.884   0.175   2.529  0.0375  0.2438  0.2588
   60bbb     N1 1740   6.830   1.954   1.768 -0.2607 -0.2030 -0.5131
   60bbb     C1 1741   6.873   1.891   1.900 -0.4606 -0.3617  0.0582
   60bbb     H1 1742   6.855   1.957   1.985 -2.4380 -1.1286  0.2939
   60bbb     H2 1743   6.981   1.876   1.897 -0.4914 -0.4968 -1.5832
   60bbb     C2 1744   6.703   2.022   1.786 -0.3985  0.0433  0.1866
   60bbb     H3 1745   6.725   2.123   1.824  2.4234 -1.4140  2.9678
   60bbb     H4 1746   6.646   1.975   1.867 -1.5137  1.5213  0.3111
   60bbb     C3 1747   6.943   2.026   1.699  0.6734 -0.7409  0.0528
   60bbb     H5 1748   7.000   2.086   1.772 -1.1252 -1.2268  1.9627
   60bbb     H6 1749   6.896   2.092   1.625 -1.5259 -1.8614  0.3625
   60bbb     C4 1750   7.044   1.936   1.632 -0.2502 -0.2400 -0.8270
   60bbb     H7 1751   7.075   1.874   1.718  2.1725 -1.2783 -2.3440
   60bbb     H8 1752   7.141   1.981   1.606  0.5488 -1.2476  0.3032
   60bbb     C5 1753   6.808   1.753   1.926  0.0531  0.3047 -0.0039
   60bbb     H9 1754   6.700   1.764   1.934  0.0947 -0.5588  2.5181
   60bbb    H10 1755   6.843   1.713   2.022 -0.5909  2.0539  1.0018
   60bbb     C6 1756   6.618   2.031   1.658  0.0602  0.3673  0.0664
   60bbb    H11 1757   6.600   1.932   1.613  1.2466  1.2053 -2.4662
   60bbb    H12 1758   6.680   2.088   1.588 -0.1403 -0.6731 -1.0075
   60bbb     C7 1759   6.981   1.839   1.526 -0.4327  0.4545 -0.6221
   60bbb    H13 1760   6.977   1.877   1.423  3.7122 -1.8219 -1.8661
   60bbb    H14 1761   6.881   1.806   1.556 -1.5794  2.6570 -1.7449
   60bbb     C8 1762   6.482   2.098   1.685 -0.4993 -1.0324 -0.4676
   60bbb    H15 1763   6.450   2.124   1.583  0.0103 -1.1198 -0.6554
   60bbb    H16 1764   6.494   2.196   1.732 -0.3239 -0.9702 -0.6408
   60bbb     C9 1765   6.829   1.652   1.815 -0.2179 -0.6850  1.1208
   60bbb    H17 1766   6.933   1.626   1.795 -0.3829 -0.9356  0.5665
   60bbb    H18 1767   6.783   1.703   1.729  1.1290  0.2065  0.8934
   60bbb     O1 1768   7.066   1.724   1.525  0.3531 -0.3325 -0.3179
   61bbb     N1 1769   7.656   2.002   1.644  0.4152  0.5531 -0.5168
   61bbb     C1 1770   7.681   2.136   1.706  0.6907 -0.0456  0.1509
   61bbb     H1 1771   7.631   2.212   1.643 -0.1506 -2.0945 -1.7944
   61bbb     H2 1772   7.787   2.162   1.700  0.5729  1.1158  2.2119
   61bbb     C2 1773   7.696   1.997   1.500 -0.2937  0.0015 -0.9086
   61bbb     H3 1774   7.678   1.894   1.468 -1.1519 -0.5339  1.1171
   61bbb     H4 1775   7.803   2.015   1.489  0.2172 -1.6838  0.7864
   61bbb     C3 1776   7.719   1.895   1.735 -0.5754  0.3786  0.5667
   61bbb     H5 1777   7.673   1.879   1.833  0.0579 -2.4440  0.4881
   61bbb     H6 1778   7.825   1.915   1.756  0.4755 -2.0133 -1.7924
   61bbb     C4 1779   7.721   1.751   1.672  0.0084 -0.1677 -0.2307
   61bbb     H7 1780   7.784   1.692   1.739  0.3484  2.2075  1.7050
   61bbb     H8 1781   7.771   1.746   1.575 -1.5649 -2.5643 -0.9910
   61bbb     C5 1782   7.622   2.164   1.844 -0.8252  0.2337 -0.7341
   61bbb     H9 1783   7.636   2.270   1.870 -3.5787  0.9354 -1.8341
   61bbb    H10 1784   7.682   2.109   1.918 -0.6385  0.3223 -0.8169
   61bbb     C6 1785   7.606   2.093   1.412 -0.1002 -0.2768 -0.5922
   61bbb    H11 1786   7.635   2.080   1.307 -0.7540 -2.5181 -0.5323
   61bbb    H12 1787   7.631   2.197   1.437 -0.1478  0.0259 -1.7570
   61bbb     C7 1788   7.579   1.704   1.665  0.0698 -0.2511  0.8005
   61bbb    H13 1789   7.534   1.745   1.573  2.0108  0.5454  0.1485
   61bbb    H14 1790   7.524   1.735   1.754 -2.1105 -1.7855  0.0709
   61bbb     C8 1791   7.455   2.077   1.422  0.6730  0.3494  0.1603
   61bbb    H15 1792   7.425   2.063   1.527  0.8541  0.9982  0.3040
   61bbb    H16 1793   7.442   1.979   1.375 -0.1239 -0.2358  1.5380
   61bbb     C9 1794   7.465   2.148   1.864  0.0365  0.4713 -0.2303
   61bbb    H17 1795   7.439   2.165   1.969 -1.3577  1.3030 -0.6828
   61bbb    H18 1796   7.418   2.053   1.835 -2.9506  1.8843 -0.3404
   61bbb     O1 1797   7.574   1.557   1.651 -0.6341 -0.2201 -0.3054
   62ccc     C3 1798   7.876   0.143   4.761  0.1439 -0.3757  0.4275
   62ccc     H5 1799   7.842   0.059   4.823 -0.6210 -0.2684  0.1670
   62ccc     H6 1800   7.790   0.181   4.705 -0.8810 -3.8772 -0.6347
   62ccc     C2 1801   7.969   0.076   4.659  0.4610 -0.4102  1.1949
   62ccc     H3 1802   8.061   0.037   4.705  2.0462  0.9394 -0.7186
   62ccc     H4 1803   8.021   0.153   4.602 -0.4165  0.3349  1.3838
   62ccc     C1 1804   7.895  -0.023   4.562  0.5057  0.0239 -0.0206
   62ccc     H1 1805   7.797   0.019   4.536  0.3479 -1.0806 -1.4024
   62ccc     H2 1806   7.867  -0.115   4.616  1.8080  0.0010  0.6571
   62ccc     N1 1807   7.983  -0.056   4.444 -0.4478 -0.0795 -0.6835
   62ccc     C4 1808   8.099  -0.141   4.478  0.3718 -0.5921  0.4295
   62ccc     H7 1809   8.173  -0.089   4.541  0.4261 -1.6664  1.2865
   62ccc     H8 1810   8.150  -0.165   4.384 -1.5516 -0.4644 -0.7031
   62ccc     C5 1811   8.054  -0.274   4.531  0.2850  0.2365 -0.2422
   62ccc     H9 1812   8.021  -0.268   4.635 -0.6942 -1.3919 -0.4324
   62ccc    H10 1813   7.978  -0.318   4.466 -0.4167  0.4344  0.4308
   62ccc     C6 1814   8.173  -0.361   4.520 -0.6038  0.2456  0.4254
   62ccc     O2 1815   8.190  -0.414   4.408  0.2131  0.1850 -0.3178
   62ccc     O3 1816   8.213  -0.435   4.614 -0.3152  0.0704  0.2612
   62ccc     C7 1817   7.903  -0.092   4.325 -0.6178  0.5419 -0.0555
   62ccc    H11 1818   7.870  -0.196   4.337  1.6715 -0.1307  1.0738
   62ccc    H12 1819   7.822  -0.020   4.314  0.2095  1.6990  1.1072
   62ccc     C8 1820   7.990  -0.086   4.203 -1.0063 -0.4868 -0.3849
   62ccc    H13 1821   8.038   0.012   4.201 -0.0737 -0.8181  2.3404
   62ccc    H14 1822   8.057  -0.173   4.208 -0.5090 -0.0344  2.5214
   62ccc     C9 1823   7.896  -0.097   4.087 -0.9998 -0.1043 -0.0113
   62ccc     O4 1824   7.898  -0.203   4.027 -0.6211 -0.3404 -0.2988
   62ccc     O5 1825   7.850   0.005   4.037  0.0387 -0.5184 -0.3922
   62ccc     O1 1826   7.963   0.247   4.827  0.3812 -0.2941  0.4578
   63ccc     C3 1827   8.180   0.225   4.404 -0.6451 -0.6543 -0.1511
   63ccc     H5 1828   8.214   0.128   4.442  0.5777 -0.2828 -0.2633
   63ccc     H6 1829   8.070   0.220   4.409 -0.6359  0.0621  1.2792
   63ccc     C2 1830   8.220   0.252   4.249 -0.2313  0.3677 -0.3921
   63ccc     H3 1831   8.177   0.348   4.218  0.2574  0.6099 -0.3297
   63ccc     H4 1832   8.168   0.173   4.192  1.1678 -2.0157  1.4519
   63ccc     C1 1833   8.369   0.223   4.227 -0.0836 -0.2139 -0.3970
   63ccc     H1 1834   8.376   0.114   4.240 -1.4710 -0.2065  0.6146
   63ccc     H2 1835   8.428   0.277   4.302 -0.0132 -1.4710  0.4853
   63ccc     N1 1836   8.421   0.248   4.094  0.1021 -0.2614  0.2744
   63ccc     C4 1837   8.558   0.187   4.084  0.3147  0.1262  0.6543
   63ccc     H7 1838   8.553   0.079   4.067  0.2366  0.1058  0.8067
   63ccc     H8 1839   8.601   0.213   4.181 -0.2111  3.6973  0.0511
   63ccc     C5 1840   8.635   0.255   3.972 -0.3700 -0.2944  0.4037
   63ccc     H9 1841   8.583   0.227   3.880 -1.9600  1.0776  0.8284
   63ccc    H10 1842   8.641   0.363   3.990  0.9795 -0.2660 -0.0757
   63ccc     C6 1843   8.785   0.213   3.963  0.1327 -0.4644 -0.4163
   63ccc     O2 1844   8.818   0.130   3.880 -0.3260  0.1917  0.4971
   63ccc     O3 1845   8.865   0.237   4.049  0.3200  0.1423  0.0152
   63ccc     C7 1846   8.323   0.219   3.983 -0.2237  0.2141  0.5414
   63ccc    H11 1847   8.230   0.272   4.005 -0.5612  0.4224 -1.2032
   63ccc    H12 1848   8.367   0.257   3.890  1.5857  0.0436  1.2904
   63ccc     C8 1849   8.297   0.069   3.954 -0.6650  0.5595  0.6600
   63ccc    H13 1850   8.393   0.018   3.939 -1.3173 -0.4614 -0.2197
   63ccc    H14 1851   8.264   0.034   4.053  0.4231 -2.7589 -0.0170
   63ccc     C9 1852   8.203   0.034   3.845 -0.1447 -0.0741 -0.7413
   63ccc     O4 1853   8.227   0.058   3.728 -0.5085  0.3705  0.3302
   63ccc     O5 1854   8.099  -0.017   3.876  0.2670  0.4512 -0.2565
   63ccc     O1 1855   8.217   0.343   4.477 -0.3242  0.1132 -1.0303
   64ccc     C3 1856   7.444   1.260   4.360  0.2933  0.5970 -0.2466
   64ccc     H5 1857   7.457   1.274   4.468 -0.0742  2.1026 -0.3702
   64ccc     H6 1858   7.391   1.339   4.306  1.1551  0.4925 -1.2689
   64ccc     C2 1859   7.376   1.123   4.324  0.2298 -0.6776 -0.0399
   64ccc     H3 1860   7.349   1.118   4.217 -1.3289 -1.5421  0.3678
   64ccc     H4 1861   7.282   1.119   4.380 -1.6317 -2.1696 -2.9907
   64ccc     C1 1862   7.451   0.993   4.349  0.0655 -0.3013 -0.0648
   64ccc     H1 1863   7.445   0.967   4.456 -1.9050  1.0546  0.2092
   64ccc     H2 1864   7.556   1.011   4.326 -0.0054  0.7547  0.3879
   64ccc     N1 1865   7.402   0.876   4.268  0.1116  0.0535 -0.2494
   64ccc     C4 1866   7.474   0.869   4.135  0.4474  0.6063 -0.0264
   64ccc     H7 1867   7.571   0.819   4.148 -0.2845 -0.8331  0.1034
   64ccc     H8 1868   7.477   0.968   4.088 -0.8727  1.1038  0.8646
   64ccc     C5 1869   7.395   0.778   4.032  0.1779  0.1616 -0.3709
   64ccc     H9 1870   7.411   0.813   3.929 -2.3289  1.8667 -0.2856
   64ccc    H10 1871   7.438   0.679   4.049 -2.9606 -1.3361 -0.4182
   64ccc     C6 1872   7.245   0.776   4.052 -0.0302  0.5671 -0.1926
   64ccc     O2 1873   7.190   0.876   4.019  0.0095  0.4645  0.1011
   64ccc     O3 1874   7.177   0.673   4.074  0.0184  0.3866  0.1122
   64ccc     C7 1875   7.400   0.757   4.346  0.1625  0.2394  0.7957
   64ccc    H11 1876   7.391   0.665   4.286 -0.7823  1.7711 -1.5498
   64ccc    H12 1877   7.493   0.753   4.404 -0.4748  2.7852  2.1105
   64ccc     C8 1878   7.279   0.758   4.442 -0.3885  0.4199  0.4928
   64ccc    H13 1879   7.297   0.679   4.516 -1.4285 -3.0107 -2.5939
   64ccc    H14 1880   7.273   0.854   4.495  0.6144  1.4227 -1.1179
   64ccc     C9 1881   7.145   0.739   4.379  0.0321 -0.0352 -0.0743
   64ccc     O4 1882   7.084   0.636   4.384 -0.1952 -0.2294 -0.1218
   64ccc     O5 1883   7.083   0.834   4.337  0.6387  0.0557 -0.1320
   64ccc     O1 1884   7.579   1.254   4.305  0.3543 -0.1735  0.9057
   65ccc     C3 1885   7.582   1.070   3.683  0.0102  0.3289 -0.3507
   65ccc     H5 1886   7.543   1.171   3.701  0.4935  0.3773  0.4635
   65ccc     H6 1887   7.659   1.078   3.605 -0.9697  0.3292 -1.3452
   65ccc     C2 1888   7.468   0.980   3.627  0.1488  0.2280 -0.1759
   65ccc     H3 1889   7.438   1.025   3.532 -1.1480 -3.3120 -1.6357
   65ccc     H4 1890   7.381   0.992   3.693 -0.7532  0.9289 -1.4556
   65ccc     C1 1891   7.505   0.834   3.597 -0.0939 -0.1780 -0.0662
   65ccc     H1 1892   7.514   0.789   3.697  0.1366 -0.4882 -0.2234
   65ccc     H2 1893   7.607   0.842   3.556 -0.3368  2.3921 -0.3112
   65ccc     N1 1894   7.415   0.756   3.511  0.3668 -0.7275  0.3818
   65ccc     C4 1895   7.420   0.776   3.370 -0.1147 -0.7065  0.0639
   65ccc     H7 1896   7.375   0.873   3.345 -0.0878 -1.1643 -1.9144
   65ccc     H8 1897   7.355   0.703   3.320  0.4282 -2.4006  1.6967
   65ccc     C5 1898   7.562   0.763   3.316  0.4625  0.0130 -0.2116
   65ccc     H9 1899   7.625   0.847   3.348  0.0076 -0.0271  0.8193
   65ccc    H10 1900   7.600   0.664   3.344  1.0931  0.8475  2.1614
   65ccc     C6 1901   7.551   0.777   3.165 -0.4595  0.1458 -0.1547
   65ccc     O2 1902   7.500   0.872   3.106 -1.1100  0.4589 -0.2718
   65ccc     O3 1903   7.617   0.705   3.093  0.3716  0.5223 -0.3544
   65ccc     C7 1904   7.266   0.754   3.551 -0.2163  0.8085 -0.0876
   65ccc    H11 1905   7.220   0.854   3.553  0.4466  1.1281  1.9386
   65ccc    H12 1906   7.211   0.695   3.477 -0.1260  0.0734  0.4160
   65ccc     C8 1907   7.241   0.696   3.690 -0.4022  0.2954 -0.5371
   65ccc    H13 1908   7.291   0.600   3.707 -0.2433  0.5789  0.6908
   65ccc    H14 1909   7.265   0.774   3.763  1.1009  0.1818 -0.8819
   65ccc     C9 1910   7.103   0.650   3.716 -0.1952 -0.0005  0.6958
   65ccc     O4 1911   7.032   0.697   3.801 -0.3117 -0.0702  0.0462
   65ccc     O5 1912   7.060   0.544   3.670 -0.1090  0.1103  0.4820
   65ccc     O1 1913   7.645   1.008   3.798 -0.1061  0.1600  0.5481
   66ccc     C3 1914   9.582   2.573   3.176 -0.0573 -0.0994  0.5245
   66ccc     H5 1915   9.510   2.596   3.256  1.6976  0.5231  1.9990
   66ccc     H6 1916   9.676   2.613   3.215 -1.4251  2.2423  1.6917
   66ccc     C2 1917   9.539   2.643   3.046 -0.5836 -0.3431  0.3691
   66ccc     H3 1918   9.526   2.749   3.070  0.5428 -0.5145  1.9093
   66ccc     H4 1919   9.442   2.604   3.015  0.2038 -0.4292 -2.1966
   66ccc     C1 1920   9.653   2.626   2.943 -0.2374  0.5286 -0.5486
   66ccc     H1 1921   9.656   2.519   2.918  3.3550  0.0043  1.4774
   66ccc     H2 1922   9.749   2.657   2.985  0.6533 -1.5814 -0.9057
   66ccc     N1 1923   9.628   2.695   2.813 -0.1714 -0.3410 -0.9263
   66ccc     C4 1924   9.742   2.659   2.728 -0.3725 -0.1260 -0.1222
   66ccc     H7 1925   9.715   2.569   2.671  0.1673  0.3281 -1.1178
   66ccc     H8 1926   9.828   2.640   2.794  0.9182  2.2729 -0.9931
   66ccc     C5 1927   9.783   2.770   2.630  0.1851  0.1804 -0.0638
   66ccc     H9 1928   9.703   2.800   2.561  2.0292  0.6886 -2.0616
   66ccc    H10 1929   9.803   2.865   2.681  0.2171  0.0247  0.2173
   66ccc     C6 1930   9.903   2.724   2.568  0.4008  0.0789 -0.3855
   66ccc     O2 1931  10.002   2.712   2.647  0.2191  0.5002  0.3623
   66ccc     O3 1932   9.906   2.705   2.448  0.3306  0.9513 -0.1551
   66ccc     C7 1933   9.499   2.665   2.744  0.4681  0.2214 -0.2667
   66ccc    H11 1934   9.418   2.718   2.795 -1.9000 -3.3509  0.0800
   66ccc    H12 1935   9.499   2.710   2.644  1.7841 -0.2149 -0.4923
   66ccc     C8 1936   9.451   2.520   2.723 -0.1880 -0.8332 -0.5878
   66ccc    H13 1937   9.525   2.452   2.679  0.8959  1.1815 -2.0667
   66ccc    H14 1938   9.431   2.472   2.819 -1.0389  0.3119 -0.1673
   66ccc     C9 1939   9.315   2.529   2.650 -0.3395 -0.1027  0.5099
   66ccc     O4 1940   9.297   2.476   2.541 -0.6171  0.2387  0.3546
   66ccc     O5 1941   9.220   2.579   2.703  0.1461  0.5163 -0.3308
   66ccc     O1 1942   9.581   2.435   3.148  0.6447  0.1660  0.1464
   67ccc     C3 1943  10.303   2.005   2.777 -0.2347 -0.0343 -0.5645
   67ccc     H5 1944  10.377   2.084   2.761  0.1567 -0.6376 -1.8792
   67ccc     H6 1945  10.351   1.907   2.785 -1.5432 -0.7247 -0.8116
   67ccc     C2 1946  10.200   1.997   2.658 -0.3991 -0.0087  0.2270
   67ccc     H3 1947  10.135   2.085   2.659 -0.2147  0.1428 -0.7700
   67ccc     H4 1948  10.145   1.903   2.676  0.0393 -0.0981  1.2151
   67ccc     C1 1949  10.262   1.999   2.523  0.6020  0.3486  0.1375
   67ccc     H1 1950  10.194   1.993   2.438 -0.5942  0.0569  1.0961
   67ccc     H2 1951  10.325   1.910   2.512 -1.9215 -1.3144 -2.1996
   67ccc     N1 1952  10.342   2.117   2.500 -0.4313  0.2685  0.6199
   67ccc     C4 1953  10.429   2.105   2.379  0.3600 -0.4391  0.3011
   67ccc     H7 1954  10.490   2.196   2.374  1.4937 -1.2305 -0.8230
   67ccc     H8 1955  10.378   2.099   2.283  2.1501 -1.5770 -0.6471
   67ccc     C5 1956  10.535   1.993   2.395  0.3630 -0.6084  0.4410
   67ccc     H9 1957  10.580   1.988   2.495  0.2548 -0.1888  0.5123
   67ccc    H10 1958  10.493   1.893   2.381 -0.3786 -0.8302  3.4462
   67ccc     C6 1959  10.642   2.018   2.303 -0.2209 -0.2093  0.0524
   67ccc     O2 1960  10.732   2.087   2.341 -0.8543 -0.2606  0.6517
   67ccc     O3 1961  10.660   1.950   2.205  0.7285  0.4435 -0.2948
   67ccc     C7 1962  10.264   2.240   2.498 -0.1836 -0.0734 -0.3375
   67ccc    H11 1963  10.173   2.232   2.437 -1.5615  2.3497  1.2356
   67ccc    H12 1964  10.232   2.253   2.602 -0.2544 -2.1835 -0.0493
   67ccc     C8 1965  10.332   2.361   2.452 -0.1474 -0.8745  0.6601
   67ccc    H13 1966  10.431   2.376   2.497 -0.3619  3.5019  0.1714
   67ccc    H14 1967  10.345   2.362   2.343 -0.0174 -0.5669  0.6755
   67ccc     C9 1968  10.246   2.481   2.480  0.3671 -0.4211 -0.1110
   67ccc     O4 1969  10.261   2.544   2.586 -0.0354 -0.9351 -0.7108
   67ccc     O5 1970  10.177   2.542   2.395 -0.5400 -0.7151 -0.2387
   67ccc     O1 1971  10.222   2.018   2.897  0.0379 -1.2354  0.1121
   68ccc     C3 1972  10.503   1.618   2.841  0.5623 -0.6844  0.5379
   68ccc     H5 1973  10.493   1.538   2.765 -0.4247 -2.0670  2.0548
   68ccc     H6 1974  10.424   1.692   2.826 -0.7533 -1.8443  1.5067
   68ccc     C2 1975  10.635   1.690   2.824 -0.2605  0.2255  0.7508
   68ccc     H3 1976  10.646   1.746   2.918 -0.5732  1.7473 -0.0917
   68ccc     H4 1977  10.626   1.764   2.744  2.1268  0.3819  0.5555
   68ccc     C1 1978  10.751   1.589   2.797  0.3878 -0.0487 -0.0455
   68ccc     H1 1979  10.760   1.536   2.702 -2.9117 -1.0585  0.0812
   68ccc     H2 1980  10.744   1.519   2.882 -0.3328  0.0109 -0.0501
   68ccc     N1 1981  10.877   1.655   2.797  0.6199  0.6238  0.0403
   68ccc     C4 1982  10.906   1.763   2.700  1.2647 -0.1630  0.3125
   68ccc     H7 1983  10.819   1.777   2.634  1.8190 -2.4920 -1.0577
   68ccc     H8 1984  11.000   1.750   2.645  2.5947  0.9513  2.2351
   68ccc     C5 1985  10.927   1.885   2.783 -0.3479 -0.1341  0.4627
   68ccc     H9 1986  10.829   1.907   2.827 -0.5424 -0.1578  0.0489
   68ccc    H10 1987  11.004   1.866   2.859 -0.4148 -0.3298  0.4821
   68ccc     C6 1988  10.989   1.996   2.707  0.8540 -0.0046  1.3864
   68ccc     O2 1989  11.109   1.999   2.699 -0.2886 -0.3747 -0.0084
   68ccc     O3 1990  10.919   2.054   2.623  0.4207 -0.2986 -0.1330
   68ccc     C7 1991  10.986   1.554   2.811  0.2072  0.2816  0.9693
   68ccc    H11 1992  10.968   1.498   2.904  1.2388 -3.4572 -0.9017
   68ccc    H12 1993  10.993   1.494   2.719  0.0391  1.3303  0.2606
   68ccc     C8 1994  11.133   1.609   2.820 -0.9213 -0.6008 -0.5867
   68ccc    H13 1995  11.182   1.644   2.728 -2.2046  0.0079 -1.0596
   68ccc    H14 1996  11.119   1.690   2.892 -1.4104 -0.5854 -0.6980
   68ccc     C9 1997  11.230   1.504   2.874  0.3863 -0.2587 -0.0683
   68ccc     O4 1998  11.304   1.450   2.800 -0.2187  1.0376 -0.4523
   68ccc     O5 1999  11.236   1.497   2.995 -0.0600  0.4696 -0.6737
   68ccc     O1 2000  10.503   1.553   2.968 -0.3099  0.0255 -0.5101
   69ccc     C3 2001   9.815   1.758   2.548  0.7290  0.3787 -0.4410
   69ccc     H5 2002   9.871   1.849   2.524 -1.5210  2.5270  1.8690
   69ccc     H6 2003   9.804   1.690   2.463 -1.2099 -2.2004  1.6826
   69ccc     C2 2004   9.688   1.824   2.584  0.0091  0.2771 -0.6818
   69ccc     H3 2005   9.616   1.749   2.620 -0.6664  1.8558  1.5032
   69ccc     H4 2006   9.642   1.874   2.498  1.9027  3.2243 -0.1107
   69ccc     C1 2007   9.704   1.922   2.704 -0.7472 -0.3935 -0.2394
   69ccc     H1 2008   9.803   1.903   2.748 -1.1051  0.3562  0.9357
   69ccc     H2 2009   9.646   1.891   2.792 -0.5006  1.0606  0.4641
   69ccc     N1 2010   9.676   2.067   2.674 -0.1103 -0.1787  0.5151
   69ccc     C4 2011   9.531   2.097   2.644 -0.3956 -0.1794 -0.8014
   69ccc     H7 2012   9.492   2.011   2.588  1.2752 -1.1181 -0.5855
   69ccc     H8 2013   9.520   2.189   2.585  3.2201  0.8572 -0.0982
   69ccc     C5 2014   9.454   2.125   2.777  1.2113  0.0390 -0.3950
   69ccc     H9 2015   9.464   2.036   2.840  0.3789  0.2903  0.1108
   69ccc    H10 2016   9.485   2.220   2.821 -0.5743  1.0599 -1.2145
   69ccc     C6 2017   9.305   2.155   2.746  0.2061  0.0741 -0.3616
   69ccc     O2 2018   9.269   2.163   2.636 -0.1580 -0.3600  0.0962
   69ccc     O3 2019   9.224   2.188   2.832 -0.6300 -0.4569  0.9753
   69ccc     C7 2020   9.782   2.132   2.584  0.1045 -0.7421 -0.3112
   69ccc    H11 2021   9.881   2.109   2.623  0.0188 -1.0100 -0.2521
   69ccc    H12 2022   9.782   2.086   2.484 -1.8377  0.0277 -0.7123
   69ccc     C8 2023   9.786   2.284   2.573  0.0396 -0.7925  0.0472
   69ccc    H13 2024   9.694   2.312   2.521  0.4857 -0.1904 -0.4130
   69ccc    H14 2025   9.783   2.324   2.675 -0.6915 -1.8124  0.4493
   69ccc     C9 2026   9.898   2.332   2.497 -0.9706 -0.1897  0.1415
   69ccc     O4 2027   9.898   2.336   2.376  0.1586  0.4873  0.7217
   69ccc     O5 2028   9.970   2.409   2.558 -0.1320  0.3906 -0.4976
   69ccc     O1 2029   9.861   1.682   2.665 -0.1382 -0.0473 -0.0861
   70ccc     C3 2030   9.945  -0.065   2.153 -0.3152 -0.1976 -0.2187
   70ccc     H5 2031   9.837  -0.047   2.149 -0.4858 -1.1540 -0.3176
   70ccc     H6 2032   9.991   0.003   2.081  2.9337 -1.6605  0.2640
   70ccc     C2 2033   9.976  -0.216   2.107 -0.6037  0.2700 -0.0512
   70ccc     H3 2034   9.955  -0.281   2.193 -2.2818  1.0141  0.1433
   70ccc     H4 2035  10.079  -0.230   2.073 -0.2659  1.6559  0.3701
   70ccc     C1 2036   9.886  -0.260   1.993  0.3382 -0.0809  0.4546
   70ccc     H1 2037   9.876  -0.180   1.919  4.2264 -0.4733 -0.7036
   70ccc     H2 2038   9.791  -0.289   2.040  0.4165  1.5820  1.7509
   70ccc     N1 2039   9.933  -0.389   1.921  0.9637  0.1690 -0.2378
   70ccc     C4 2040   9.930  -0.513   2.007 -0.1750  0.2169  0.4248
   70ccc     H7 2041   9.856  -0.589   1.979  0.7522 -0.9817  1.0912
   70ccc     H8 2042   9.916  -0.484   2.112  0.8226  0.5519  0.4769
   70ccc     C5 2043  10.066  -0.572   1.989 -0.4181 -0.4556  0.4984
   70ccc     H9 2044  10.089  -0.602   1.886 -1.9142  2.2041 -0.7353
   70ccc    H10 2045  10.147  -0.502   2.013  0.3622 -2.0545  2.8541
   70ccc     C6 2046  10.071  -0.697   2.076  0.1725  0.1171  0.0916
   70ccc     O2 2047  10.100  -0.680   2.191 -0.4135  0.3279 -0.0240
   70ccc     O3 2048  10.049  -0.808   2.038  1.5493 -0.1722  0.0682
   70ccc     C7 2049   9.859  -0.402   1.792 -0.4241  0.0992  0.8278
   70ccc    H11 2050   9.753  -0.409   1.816 -0.8268 -0.2437 -0.9253
   70ccc    H12 2051   9.875  -0.310   1.734  0.4526 -0.3433  0.3436
   70ccc     C8 2052   9.910  -0.522   1.700  0.7927 -0.3572  0.1060
   70ccc    H13 2053  10.015  -0.505   1.672  0.5059  0.6469 -0.4472
   70ccc    H14 2054   9.901  -0.615   1.756 -0.0149  0.9770  2.3300
   70ccc     C9 2055   9.825  -0.532   1.571 -0.5320 -0.1995 -0.0392
   70ccc     O4 2056   9.880  -0.507   1.461  0.0384 -0.2883  0.0910
   70ccc     O5 2057   9.704  -0.554   1.583 -0.6471  0.2350 -0.4740
   70ccc     O1 2058   9.997  -0.038   2.282 -0.7185  0.3879  0.6394
   71ccc     C3 2059  10.386   0.615   1.898 -0.2120  0.2705  0.2064
   71ccc     H5 2060  10.461   0.626   1.977 -1.6049  3.1187  1.2730
   71ccc     H6 2061  10.424   0.533   1.835  3.0156  1.5374  0.3281
   71ccc     C2 2062  10.371   0.739   1.811 -0.3063  0.5561  0.4395
   71ccc     H3 2063  10.329   0.817   1.875  0.7634  1.1446  0.4387
   71ccc     H4 2064  10.298   0.711   1.733 -1.5546  1.2794  1.3252
   71ccc     C1 2065  10.506   0.790   1.747 -0.2047 -0.6987 -0.1488
   71ccc     H1 2066  10.571   0.705   1.725 -2.0541 -1.8220 -1.7137
   71ccc     H2 2067  10.556   0.853   1.821 -0.9519  1.1440 -1.1297
   71ccc     N1 2068  10.481   0.879   1.634 -0.1868 -0.6136 -0.4591
   71ccc     C4 2069  10.450   0.814   1.509 -0.0009 -0.3842 -0.6127
   71ccc     H7 2070  10.434   0.707   1.524 -1.7949 -0.0776 -0.1626
   71ccc     H8 2071  10.538   0.820   1.444  1.1391  0.7540  0.9610
   71ccc     C5 2072  10.329   0.890   1.444 -0.6558 -0.2960 -0.4605
   71ccc     H9 2073  10.239   0.865   1.501 -0.8396  0.7725 -0.2549
   71ccc    H10 2074  10.356   0.996   1.435  1.0759 -0.6890 -0.3426
   71ccc     C6 2075  10.306   0.859   1.300  0.3500  0.2954 -0.0746
   71ccc     O2 2076  10.404   0.866   1.226 -0.6057 -0.1711  0.0488
   71ccc     O3 2077  10.196   0.817   1.261  0.0880  0.3270 -0.1139
   71ccc     C7 2078  10.577   0.993   1.626  0.2015 -0.0076  0.2834
   71ccc    H11 2079  10.547   1.057   1.542  2.4867  0.9142  0.1218
   71ccc    H12 2080  10.565   1.051   1.719  1.3527  1.0945 -0.2222
   71ccc     C8 2081  10.724   0.966   1.601  0.1212 -0.7346  0.4786
   71ccc    H13 2082  10.760   0.889   1.670 -2.6376 -1.0271  1.7071
   71ccc    H14 2083  10.728   0.928   1.498  2.9091  0.9211 -0.1282
   71ccc     C9 2084  10.801   1.096   1.605  1.2328 -0.0580  0.7732
   71ccc     O4 2085  10.917   1.097   1.629 -0.7209  0.1660  0.5684
   71ccc     O5 2086  10.748   1.204   1.629 -0.0162 -0.2038 -0.6114
   71ccc     O1 2087  10.260   0.581   1.957  0.1078  0.3046  0.4319
   72ccc     C3 2088   9.387  -0.601   2.782  0.2580  0.2186  0.0101
   72ccc     H5 2089   9.396  -0.684   2.711  0.1324 -0.5298  0.8568
   72ccc     H6 2090   9.447  -0.629   2.868  1.7625  0.9227 -0.7737
   72ccc     C2 2091   9.250  -0.577   2.839  0.6323 -0.0198 -0.0118
   72ccc     H3 2092   9.187  -0.530   2.762  0.8223  0.6538  0.2300
   72ccc     H4 2093   9.266  -0.505   2.921  1.2173 -2.5325  2.2101
   72ccc     C1 2094   9.189  -0.701   2.906 -0.3606 -0.3204 -0.2082
   72ccc     H1 2095   9.260  -0.737   2.981 -2.9737 -2.6199  1.3741
   72ccc     H2 2096   9.168  -0.782   2.835 -1.7577  0.1231 -0.3297
   72ccc     N1 2097   9.066  -0.676   2.979  0.6990  0.3167 -0.4326
   72ccc     C4 2098   8.953  -0.629   2.895 -0.8491  0.0793 -0.3641
   72ccc     H7 2099   8.905  -0.719   2.854  1.4605 -0.9002 -1.0955
   72ccc     H8 2100   8.977  -0.566   2.808 -3.1433 -0.9710 -1.8666
   72ccc     C5 2101   8.864  -0.547   2.978  0.2467 -0.1798 -0.5084
   72ccc     H9 2102   8.837  -0.608   3.065 -1.5391  0.1403 -0.7893
   72ccc    H10 2103   8.908  -0.450   3.005 -1.0704  0.4881 -0.6556
   72ccc     C6 2104   8.740  -0.523   2.899  0.7570  0.3059  0.0277
   72ccc     O2 2105   8.732  -0.438   2.809 -0.0967 -0.4437  0.6502
   72ccc     O3 2106   8.636  -0.586   2.926  0.2690 -0.3667 -0.4704
   72ccc     C7 2107   9.037  -0.792   3.058  0.2550 -0.1229  0.3016
   72ccc    H11 2108   8.928  -0.795   3.071 -0.0244 -1.3106 -1.7620
   72ccc    H12 2109   9.060  -0.884   3.001 -0.7950  0.7234 -1.5789
   72ccc     C8 2110   9.102  -0.791   3.193  0.1952  0.1775  0.3071
   72ccc    H13 2111   9.077  -0.888   3.237 -0.6669 -0.4182 -1.4171
   72ccc    H14 2112   9.209  -0.785   3.168 -0.1722 -0.5677 -1.6690
   72ccc     C9 2113   9.060  -0.676   3.282  0.1470  0.0924  0.2167
   72ccc     O4 2114   8.990  -0.704   3.376 -0.2013 -0.5714 -0.4624
   72ccc     O5 2115   9.142  -0.585   3.300 -0.1484 -0.2090 -0.2134
   72ccc     O1 2116   9.442  -0.476   2.740 -0.0822 -0.4624 -0.4308
   73ccc     C3 2117   9.175   0.024   2.207  0.8924 -0.0299  0.8713
   73ccc     H5 2118   9.117   0.029   2.299 -0.8580 -0.5382 -0.1461
   73ccc     H6 2119   9.201   0.124   2.169  0.1277 -0.6451 -1.4979
   73ccc     C2 2120   9.097  -0.064   2.106 -0.0344  0.9740 -0.2700
   73ccc     H3 2121   9.097  -0.166   2.146  0.2171  0.6572 -1.0748
   73ccc     H4 2122   9.148  -0.054   2.010 -1.1574  1.2333 -0.8540
   73ccc     C1 2123   8.948  -0.020   2.084  0.0972 -0.5832  0.1093
   73ccc     H1 2124   8.898  -0.071   2.001  0.2775  0.5165 -0.6926
   73ccc     H2 2125   8.953   0.086   2.055 -1.7840  0.1718  2.2487
   73ccc     N1 2126   8.856  -0.018   2.199  0.2974 -0.0711  0.1320
   73ccc     C4 2127   8.735   0.062   2.167  0.2552 -0.1493 -0.6026
   73ccc     H7 2128   8.765   0.149   2.108 -1.0331  1.5417  1.0896
   73ccc     H8 2129   8.696   0.095   2.264  0.5391 -1.3642 -0.0512
   73ccc     C5 2130   8.621  -0.013   2.096  0.2168  0.5178  0.2610
   73ccc     H9 2131   8.651  -0.059   2.001 -2.1063  0.0288 -0.3073
   73ccc    H10 2132   8.586  -0.094   2.160 -3.4994  1.9943  0.3305
   73ccc     C6 2133   8.502   0.073   2.079  0.0015 -0.0857  0.1558
   73ccc     O2 2134   8.426   0.084   2.169  0.0882 -0.0240 -0.2012
   73ccc     O3 2135   8.477   0.121   1.973 -0.3933 -0.0102 -0.3543
   73ccc     C7 2136   8.827  -0.144   2.262  0.5418 -0.2543  0.2910
   73ccc    H11 2137   8.772  -0.210   2.194 -1.2467 -0.1823  1.6098
   73ccc    H12 2138   8.927  -0.190   2.269  1.4898  1.0956 -2.6914
   73ccc     C8 2139   8.750  -0.137   2.399 -0.0306 -0.3330  0.7382
   73ccc    H13 2140   8.794  -0.059   2.462  2.0232 -0.1382 -0.8412
   73ccc    H14 2141   8.649  -0.101   2.377 -0.1373  0.3602  2.2195
   73ccc     C9 2142   8.746  -0.267   2.465 -0.9905 -0.2174 -0.4581
   73ccc     O4 2143   8.768  -0.269   2.583 -0.3288 -0.1447 -0.4480
   73ccc     O5 2144   8.708  -0.369   2.414  0.8060 -0.1094 -0.1830
   73ccc     O1 2145   9.303  -0.047   2.227 -0.6187 -0.5017 -0.2711
   74ccc     C3 2146  10.844   1.202   2.670  0.2963  0.2225 -0.6597
   74ccc     H5 2147  10.923   1.273   2.696  1.3522 -1.2642  0.3938
   74ccc     H6 2148  10.852   1.108   2.726 -0.7033 -0.5575 -1.7623
   74ccc     C2 2149  10.857   1.157   2.525  0.4110  0.5632  0.5691
   74ccc     H3 2150  10.960   1.120   2.511  0.6879  0.8878  1.6111
   74ccc     H4 2151  10.852   1.244   2.458 -1.4258  0.2859  0.3110
   74ccc     C1 2152  10.755   1.052   2.474  0.2033  0.5631 -0.3346
   74ccc     H1 2153  10.654   1.092   2.463  0.4803  1.5835  0.6899
   74ccc     H2 2154  10.744   0.968   2.544 -1.0893  0.0105 -1.1632
   74ccc     N1 2155  10.788   0.977   2.347  0.1433 -0.4272 -0.2815
   74ccc     C4 2156  10.752   1.058   2.231 -0.5643 -0.8909 -0.7629
   74ccc     H7 2157  10.830   1.135   2.220  0.3968 -1.8477 -0.7462
   74ccc     H8 2158  10.656   1.109   2.248 -0.5045 -1.5987  2.2577
   74ccc     C5 2159  10.725   0.969   2.109  0.2418 -0.1850  0.2917
   74ccc     H9 2160  10.805   0.901   2.078  0.6404 -0.5518  1.9834
   74ccc    H10 2161  10.635   0.910   2.133  1.1139 -1.6576  0.0394
   74ccc     C6 2162  10.698   1.064   1.990 -0.1576 -0.0171  0.4104
   74ccc     O2 2163  10.786   1.079   1.908  0.0219 -0.0453 -0.1309
   74ccc     O3 2164  10.603   1.141   1.984 -0.1687  0.5827  0.3589
   74ccc     C7 2165  10.921   0.907   2.344  0.2642 -0.2311 -0.0058
   74ccc    H11 2166  10.922   0.855   2.248  0.5363  0.2796 -0.2837
   74ccc    H12 2167  11.010   0.971   2.351  0.6256 -0.5039 -1.7695
   74ccc     C8 2168  10.935   0.798   2.454 -0.9802 -0.7325 -0.2409
   74ccc    H13 2169  10.972   0.848   2.545  2.6695  1.2674 -2.6050
   74ccc    H14 2170  10.846   0.734   2.460 -1.8464  0.2082 -2.2478
   74ccc     C9 2171  11.052   0.721   2.411 -0.4811  0.4069 -0.7221
   74ccc     O4 2172  11.057   0.599   2.437 -0.4266 -0.7243  0.1856
   74ccc     O5 2173  11.157   0.777   2.379 -0.2435 -0.4427  0.4770
   74ccc     O1 2174  10.707   1.260   2.683 -0.6036 -0.3523  0.2543
   75ccc     C3 2175  10.539   1.548   2.395  0.0516  0.2817 -0.4920
   75ccc     H5 2176  10.449   1.592   2.350  0.0494 -0.3931 -1.1754
   75ccc     H6 2177  10.552   1.599   2.491 -1.0280 -0.8919  0.3142
   75ccc     C2 2178  10.660   1.563   2.303 -0.8492  0.0882  0.9327
   75ccc     H3 2179  10.692   1.667   2.307  0.3155 -0.2329  0.1914
   75ccc     H4 2180  10.627   1.562   2.199  1.0531 -1.7866  0.2941
   75ccc     C1 2181  10.777   1.473   2.328 -1.0508 -0.1575 -0.5804
   75ccc     H1 2182  10.747   1.367   2.324 -0.5533 -0.2685 -1.4120
   75ccc     H2 2183  10.798   1.503   2.432  1.0960  0.1658 -1.0672
   75ccc     N1 2184  10.891   1.498   2.240  0.9345 -0.6079  0.2003
   75ccc     C4 2185  10.941   1.641   2.238  0.8585 -1.0598 -0.0895
   75ccc     H7 2186  10.875   1.702   2.175 -1.4916 -2.3773  0.9547
   75ccc     H8 2187  11.036   1.642   2.184  1.3149  1.5420  0.5996
   75ccc     C5 2188  10.983   1.688   2.378  0.2887  0.2356 -0.1859
   75ccc     H9 2189  10.899   1.692   2.448 -0.1235  0.6647 -0.7063
   75ccc    H10 2190  11.071   1.625   2.395  0.7094  0.8283 -0.1181
   75ccc     C6 2191  11.038   1.826   2.366 -0.1354  0.0868  0.4508
   75ccc     O2 2192  11.149   1.842   2.416  0.2538 -0.2125  0.6276
   75ccc     O3 2193  10.972   1.912   2.314  0.3696 -0.4117  0.2206
   75ccc     C7 2194  10.866   1.435   2.110  0.3638 -0.1579  0.2671
   75ccc    H11 2195  10.838   1.331   2.130 -0.7255  0.1681  0.5112
   75ccc    H12 2196  10.778   1.481   2.064  0.3304 -0.6035 -0.1242
   75ccc     C8 2197  10.988   1.431   2.023  0.1691 -0.2251 -0.0743
   75ccc    H13 2198  11.018   1.531   1.989 -1.5555  1.0419  1.8920
   75ccc    H14 2199  11.070   1.388   2.082 -0.3783 -2.9286 -1.1129
   75ccc     C9 2200  10.954   1.352   1.900  0.7972  0.1819 -0.4401
   75ccc     O4 2201  10.855   1.379   1.834  0.2675 -0.3416  0.4889
   75ccc     O5 2202  11.036   1.288   1.839 -0.2321  0.0961 -0.1257
   75ccc     O1 2203  10.505   1.416   2.419 -0.1533 -0.2766 -0.1175
   76ccc     C3 2204  10.688   0.742   2.910 -0.1685  0.5582  0.8436
   76ccc     H5 2205  10.659   0.834   2.963  0.2209  0.0555  1.9597
   76ccc     H6 2206  10.686   0.657   2.980 -2.7191  0.6109  0.9351
   76ccc     C2 2207  10.827   0.749   2.847  0.3326  0.5026 -0.2289
   76ccc     H3 2208  10.812   0.786   2.745 -0.6088 -1.2568 -0.7753
   76ccc     H4 2209  10.865   0.647   2.833  0.6861  0.3935  1.4316
   76ccc     C1 2210  10.921   0.844   2.915 -0.2469 -0.3193 -0.7291
   76ccc     H1 2211  10.925   0.803   3.017 -1.4653 -1.3032 -1.0579
   76ccc     H2 2212  10.861   0.936   2.923 -0.9457 -0.8494  0.4286
   76ccc     N1 2213  11.053   0.871   2.850 -0.1725 -0.2672  0.5258
   76ccc     C4 2214  11.120   0.745   2.824 -0.2942 -0.0877  0.5308
   76ccc     H7 2215  11.075   0.686   2.743  2.4035 -0.1529 -1.0632
   76ccc     H8 2216  11.118   0.682   2.913 -1.6145 -1.3444 -0.3288
   76ccc     C5 2217  11.260   0.759   2.767  0.1485  0.5095  0.1972
   76ccc     H9 2218  11.256   0.830   2.684 -1.8078 -0.1688 -0.3497
   76ccc    H10 2219  11.327   0.793   2.846  0.6502 -0.8553  0.3928
   76ccc     C6 2220  11.300   0.624   2.717  0.7812 -0.3392  0.0649
   76ccc     O2 2221  11.296   0.601   2.596  0.2268  0.3866  0.1044
   76ccc     O3 2222  11.319   0.541   2.802 -0.1987  0.3059  0.7900
   76ccc     C7 2223  11.119   0.959   2.931 -0.4132 -1.2822 -0.8078
   76ccc    H11 2224  11.131   0.914   3.030 -0.2031  1.3436  0.4480
   76ccc    H12 2225  11.223   0.974   2.898 -1.1869  1.8076 -2.1373
   76ccc     C8 2226  11.065   1.106   2.945  0.1660  0.3884  0.0021
   76ccc    H13 2227  11.069   1.169   2.855 -0.9064 -0.8734 -0.9754
   76ccc    H14 2228  10.963   1.112   2.985  0.4091 -1.3010  0.9793
   76ccc     C9 2229  11.166   1.174   3.037  0.6260  0.1469  0.3543
   76ccc     O4 2230  11.283   1.190   3.001  0.2473  0.0604 -0.0991
   76ccc     O5 2231  11.123   1.248   3.123 -0.0868  0.3738 -0.9503
   76ccc     O1 2232  10.603   0.722   2.792  0.2579  0.1983 -0.0256
   77ccc     C3 2233  10.712   0.382   2.120 -0.6218 -0.5065  0.1342
   77ccc     H5 2234  10.699   0.285   2.170  0.9714 -1.3874 -1.0599
   77ccc     H6 2235  10.668   0.361   2.022  0.0509 -0.9585 -0.0847
   77ccc     C2 2236  10.869   0.404   2.105  0.4534  0.3806 -0.1679
   77ccc     H3 2237  10.913   0.330   2.037  1.0942 -0.3604  1.0151
   77ccc     H4 2238  10.914   0.384   2.203  0.6988  1.6312 -0.0189
   77ccc     C1 2239  10.906   0.537   2.041  0.0315  0.6316 -0.0040
   77ccc     H1 2240  10.910   0.606   2.127  2.2319 -0.3153  0.7148
   77ccc     H2 2241  10.828   0.567   1.970  0.4142  2.0359  0.1201
   77ccc     N1 2242  11.034   0.554   1.972 -0.7389  0.0433 -0.0801
   77ccc     C4 2243  11.141   0.538   2.070 -0.9918  0.2593 -0.2490
   77ccc     H7 2244  11.132   0.438   2.116 -0.6595  0.2779 -0.1404
   77ccc     H8 2245  11.126   0.619   2.142  2.3837  1.0056 -0.2349
   77ccc     C5 2246  11.282   0.560   2.017 -1.1779 -0.3675  0.6792
   77ccc     H9 2247  11.311   0.492   1.936  1.0448 -0.2456  1.2931
   77ccc    H10 2248  11.287   0.661   1.975  0.9548 -0.7024  0.0312
   77ccc     C6 2249  11.363   0.551   2.140 -0.2774  0.1114  0.3398
   77ccc     O2 2250  11.355   0.622   2.234 -0.0990  0.2414  0.4036
   77ccc     O3 2251  11.463   0.478   2.137 -0.6352  0.1302 -0.2373
   77ccc     C7 2252  11.025   0.691   1.908 -0.4033  0.1030 -0.2661
   77ccc    H11 2253  10.922   0.723   1.892  0.2643  1.8257 -1.3856
   77ccc    H12 2254  11.074   0.765   1.973  0.0907  0.3096 -0.8601
   77ccc     C8 2255  11.087   0.697   1.768 -0.0408 -1.0191 -0.6015
   77ccc    H13 2256  11.192   0.670   1.778  0.8893  1.8439 -1.5218
   77ccc    H14 2257  11.037   0.624   1.703 -0.1414 -0.9047 -0.6553
   77ccc     C9 2258  11.085   0.838   1.713  0.2294 -0.5706 -0.0884
   77ccc     O4 2259  11.133   0.932   1.776 -0.0327 -0.3025 -0.5222
   77ccc     O5 2260  11.082   0.848   1.588  0.5828  0.4190 -0.3117
   77ccc     O1 2261  10.650   0.491   2.180  0.2762 -0.2087  0.1586
   78ccc     C3 2262   9.602   0.136   1.904 -0.1618  0.0348 -0.9931
   78ccc     H5 2263   9.664   0.047   1.889 -0.7757 -0.5950  0.1490
   78ccc     H6 2264   9.511   0.103   1.955  0.2422 -1.0203 -0.9380
   78ccc     C2 2265   9.560   0.179   1.760  0.1555 -0.6392  0.0645
   78ccc     H3 2266   9.509   0.276   1.756 -0.1283 -0.7829  0.1921
   78ccc     H4 2267   9.501   0.098   1.716 -1.1441 -1.6733  3.4024
   78ccc     C1 2268   9.677   0.196   1.665  0.1531 -0.0060 -0.1483
   78ccc     H1 2269   9.761   0.129   1.690 -0.0287  0.1013  0.7852
   78ccc     H2 2270   9.719   0.296   1.675  1.1142 -0.2962 -1.0494
   78ccc     N1 2271   9.657   0.177   1.520 -0.1363  0.2816 -0.3579
   78ccc     C4 2272   9.560   0.271   1.463  0.1802  0.4230  0.3044
   78ccc     H7 2273   9.481   0.288   1.538  0.7379  1.2061  0.7423
   78ccc     H8 2274   9.525   0.222   1.372  0.9610  1.6634 -0.6995
   78ccc     C5 2275   9.618   0.407   1.431  0.3047 -0.0711 -0.3012
   78ccc     H9 2276   9.638   0.465   1.522  0.6721  0.2811 -0.5953
   78ccc    H10 2277   9.713   0.399   1.377  0.6514 -1.0602  0.4441
   78ccc     C6 2278   9.513   0.481   1.363 -0.4715 -1.0490 -0.0411
   78ccc     O2 2279   9.490   0.457   1.244 -0.0331  0.0151  0.3023
   78ccc     O3 2280   9.412   0.509   1.426  0.2469 -0.1321 -0.6610
   78ccc     C7 2281   9.636   0.041   1.475 -0.1942 -0.4985 -0.1929
   78ccc    H11 2282   9.541   0.007   1.517  0.3812 -0.2205  1.4367
   78ccc    H12 2283   9.627   0.028   1.367 -0.1007 -1.6536 -0.0825
   78ccc     C8 2284   9.741  -0.061   1.515  0.3234  0.5265  0.0278
   78ccc    H13 2285   9.843  -0.039   1.480  2.0994 -2.7869  2.5133
   78ccc    H14 2286   9.746  -0.083   1.623  2.0848  1.0774  0.0993
   78ccc     C9 2287   9.714  -0.198   1.458 -0.0723 -0.2892 -0.8683
   78ccc     O4 2288   9.726  -0.226   1.341 -0.3470  0.2368 -0.4918
   78ccc     O5 2289   9.672  -0.287   1.523 -0.0926 -0.2521 -0.3233
   78ccc     O1 2290   9.663   0.254   1.962 -0.0377  0.3573  0.9271
   79ccc     C3 2291   9.108   0.315   1.868  0.8232 -0.1083  0.3832
   79ccc     H5 2292   9.045   0.248   1.928  1.5549 -0.7533  0.4599
   79ccc     H6 2293   9.062   0.414   1.858 -1.3092 -0.9107  1.5791
   79ccc     C2 2294   9.112   0.257   1.723  0.2699 -0.5096  0.6090
   79ccc     H3 2295   9.182   0.313   1.660  0.1290 -0.4941  0.4660
   79ccc     H4 2296   9.017   0.270   1.670  1.5314  0.3465 -1.5677
   79ccc     C1 2297   9.147   0.102   1.722 -0.7508 -0.8753 -0.7804
   79ccc     H1 2298   9.077   0.044   1.783  1.6793 -1.2245  1.8809
   79ccc     H2 2299   9.249   0.092   1.760 -1.5870  0.4380  2.1364
   79ccc     N1 2300   9.139   0.037   1.586  0.3416  0.4936 -1.4206
   79ccc     C4 2301   9.226   0.100   1.484  0.3451  0.1784 -0.3616
   79ccc     H7 2302   9.328   0.062   1.493 -0.6607 -2.8545 -0.7374
   79ccc     H8 2303   9.214   0.209   1.492 -2.2445 -0.0658 -0.1440
   79ccc     C5 2304   9.188   0.078   1.338  0.2446 -0.4767  0.4191
   79ccc     H9 2305   9.195  -0.026   1.302  1.2579 -0.0546 -0.6711
   79ccc    H10 2306   9.088   0.117   1.317 -1.5732 -1.4254  5.7152
   79ccc     C6 2307   9.296   0.149   1.258 -0.2072  0.0411 -0.2235
   79ccc     O2 2308   9.401   0.099   1.215  0.4803 -0.4341 -0.0447
   79ccc     O3 2309   9.281   0.267   1.234  0.4987 -0.3467  0.0116
   79ccc     C7 2310   9.150  -0.109   1.583  0.2905 -0.2519 -0.0529
   79ccc    H11 2311   9.071  -0.141   1.652 -0.0657 -0.5822 -0.6017
   79ccc    H12 2312   9.124  -0.149   1.484 -0.4132  0.1020 -0.0133
   79ccc     C8 2313   9.281  -0.163   1.633  0.3135  0.2642  0.4181
   79ccc    H13 2314   9.369  -0.140   1.572  0.4976 -1.9463 -0.2419
   79ccc    H14 2315   9.281  -0.133   1.738 -2.3330  0.6355  0.3912
   79ccc     C9 2316   9.278  -0.313   1.623  0.8286  0.7303 -0.5161
   79ccc     O4 2317   9.372  -0.375   1.573 -0.0538  0.5912 -0.1896
   79ccc     O5 2318   9.197  -0.376   1.692  0.1391  0.6717  0.2051
   79ccc     O1 2319   9.238   0.319   1.927  0.1796  0.5153  0.4719
   80ccc     C3 2320   9.896   0.045   3.200  0.8245  0.0551  0.5536
   80ccc     H5 2321   9.969   0.085   3.129  0.1800 -0.0789 -0.2055
   80ccc     H6 2322   9.948  -0.018   3.273 -0.5431  0.0733  1.5983
   80ccc     C2 2323   9.793  -0.043   3.129  0.0677 -0.3075 -0.4612
   80ccc     H3 2324   9.744   0.016   3.050 -0.0870  2.6094  1.6299
   80ccc     H4 2325   9.723  -0.068   3.210 -0.6773  0.3178 -0.8908
   80ccc     C1 2326   9.861  -0.169   3.081  0.6365  1.1299  0.4223
   80ccc     H1 2327   9.923  -0.213   3.161  2.3691  0.5053 -1.1785
   80ccc     H2 2328   9.933  -0.138   3.004  0.3375  3.2923  0.9441
   80ccc     N1 2329   9.766  -0.278   3.034 -0.2406  0.1783 -0.3389
   80ccc     C4 2330   9.840  -0.390   2.972 -0.4037 -0.5128  0.4878
   80ccc     H7 2331   9.766  -0.442   2.909 -1.0580  2.4235 -1.3755
   80ccc     H8 2332   9.886  -0.442   3.056 -0.3402 -0.5867  0.4067
   80ccc     C5 2333   9.954  -0.351   2.880 -0.7391 -0.3602 -0.3642
   80ccc     H9 2334   9.916  -0.275   2.811  1.5031 -0.7086 -2.0840
   80ccc    H10 2335  10.044  -0.315   2.932 -0.9457 -0.1890 -0.1208
   80ccc     C6 2336  10.006  -0.468   2.809  0.1867  0.6223  0.2544
   80ccc     O2 2337  10.000  -0.586   2.850  0.4200 -0.4067 -0.0785
   80ccc     O3 2338  10.065  -0.454   2.705 -0.3524 -0.2280 -0.4394
   80ccc     C7 2339   9.668  -0.325   3.134 -0.2615  0.5653  0.7842
   80ccc    H11 2340   9.728  -0.386   3.203  0.8626 -0.0068 -0.6561
   80ccc    H12 2341   9.618  -0.242   3.186  1.5638  2.5620 -0.5120
   80ccc     C8 2342   9.567  -0.422   3.067 -0.0939  0.0955  0.2317
   80ccc    H13 2343   9.506  -0.378   2.987  0.2958 -0.5744 -0.4434
   80ccc    H14 2344   9.619  -0.510   3.027  0.9466  1.2392 -1.0391
   80ccc     C9 2345   9.482  -0.475   3.175 -0.2004 -0.6320  0.5343
   80ccc     O4 2346   9.378  -0.424   3.212 -0.0247 -0.0926 -0.3654
   80ccc     O5 2347   9.529  -0.557   3.249 -0.1898  0.2305 -0.3930
   80ccc     O1 2348   9.817   0.152   3.261  0.3104  0.0190 -0.0263
   81ccc     C3 2349   9.766   0.028   3.632  0.9156 -0.5443 -0.1602
   81ccc     H5 2350   9.756   0.057   3.527  0.2308  1.5525  0.4235
   81ccc     H6 2351   9.860  -0.024   3.653  0.2836 -1.0025  1.7180
   81ccc     C2 2352   9.646  -0.057   3.686 -0.2407 -0.7574  0.4532
   81ccc     H3 2353   9.660  -0.058   3.795  0.7174 -0.9783  0.3386
   81ccc     H4 2354   9.653  -0.159   3.647 -0.9235 -0.6792  0.1186
   81ccc     C1 2355   9.513   0.001   3.652  0.4408  0.4394 -0.6944
   81ccc     H1 2356   9.514   0.004   3.542  1.3453 -0.8524 -0.7482
   81ccc     H2 2357   9.500   0.103   3.689  1.4901  0.0376  0.8571
   81ccc     N1 2358   9.397  -0.062   3.714 -0.8617  0.1353 -0.3531
   81ccc     C4 2359   9.394  -0.206   3.688 -0.4119 -1.0062 -0.7001
   81ccc     H7 2360   9.323  -0.252   3.758 -0.5448 -1.7379 -1.3056
   81ccc     H8 2361   9.486  -0.264   3.708  0.0234 -0.0036  0.3008
   81ccc     C5 2362   9.350  -0.235   3.548 -0.2671 -0.0203 -0.7219
   81ccc     H9 2363   9.266  -0.176   3.510  1.1903  3.2114  0.6288
   81ccc    H10 2364   9.433  -0.231   3.476 -0.4375  1.9233 -0.8556
   81ccc     C6 2365   9.308  -0.379   3.538 -0.0577 -0.6458  0.6398
   81ccc     O2 2366   9.209  -0.403   3.469  0.7859 -0.6499 -0.0483
   81ccc     O3 2367   9.391  -0.465   3.541  0.0811  0.3627  0.6360
   81ccc     C7 2368   9.396  -0.035   3.864 -0.1725 -0.3906  0.2704
   81ccc    H11 2369   9.322  -0.100   3.912  0.4898 -0.7431  0.8420
   81ccc    H12 2370   9.494  -0.049   3.913 -0.6741  1.5140  1.9305
   81ccc     C8 2371   9.364   0.115   3.891 -0.1453  0.4137  0.3429
   81ccc    H13 2372   9.460   0.166   3.906  1.7324 -2.7672  0.0373
   81ccc    H14 2373   9.291   0.144   3.814  0.3501 -1.6297 -0.9619
   81ccc     C9 2374   9.288   0.122   4.027 -0.0238 -0.0701  0.6657
   81ccc     O4 2375   9.357   0.141   4.127  0.0094 -0.5808  0.8509
   81ccc     O5 2376   9.168   0.139   4.033 -0.1276  0.0010  0.3679
   81ccc     O1 2377   9.748   0.150   3.719  0.1683  0.1435 -0.0204
   82ccc     C3 2378  10.335   0.038   1.147  0.2414 -0.4016  0.3827
   82ccc     H5 2379  10.284   0.069   1.239  1.6403  0.8195  0.7880
   82ccc     H6 2380  10.393   0.120   1.102 -1.6812  0.6329 -0.3420
   82ccc     C2 2381  10.241  -0.001   1.034 -0.3271 -1.0465  0.4250
   82ccc     H3 2382  10.163  -0.055   1.089  1.6424 -0.2646  4.3439
   82ccc     H4 2383  10.287  -0.067   0.959  1.4278 -1.2489  1.6102
   82ccc     C1 2384  10.176   0.113   0.952  0.0539  0.3132 -0.7343
   82ccc     H1 2385  10.122   0.063   0.871  2.4135  1.4162 -3.1514
   82ccc     H2 2386  10.254   0.166   0.896  0.3447  0.5064 -0.1559
   82ccc     N1 2387  10.100   0.208   1.027  0.0580  0.4946  0.8146
   82ccc     C4 2388  10.129   0.346   0.982 -0.0862 -0.3358  0.6226
   82ccc     H7 2389  10.056   0.403   1.042 -0.9670  2.7765 -3.0297
   82ccc     H8 2390  10.097   0.361   0.878  0.9145 -0.2644  0.3128
   82ccc     C5 2391  10.275   0.396   0.993  0.2776  0.2177 -0.2743
   82ccc     H9 2392  10.315   0.358   1.088 -1.2690  0.1915  0.3968
   82ccc    H10 2393  10.343   0.367   0.912 -0.0872 -0.3218 -0.3953
   82ccc     C6 2394  10.288   0.545   1.013 -0.1146  0.6167 -0.2268
   82ccc     O2 2395  10.195   0.612   1.052 -0.1020  0.0130  0.0412
   82ccc     O3 2396  10.395   0.601   0.989  0.0006  0.1115  0.0089
   82ccc     C7 2397   9.958   0.175   1.019  0.1630  0.5426  0.2416
   82ccc    H11 2398   9.914   0.236   0.940 -1.8886  0.2331  1.0848
   82ccc    H12 2399   9.948   0.066   1.005  1.6589  0.3851  0.2331
   82ccc     C8 2400   9.891   0.204   1.155 -0.3834 -0.2266  0.4514
   82ccc    H13 2401   9.950   0.149   1.230  1.0937  1.6687  0.7742
   82ccc    H14 2402   9.888   0.311   1.178 -0.0370 -0.2441  0.5805
   82ccc     C9 2403   9.762   0.137   1.154  0.2532 -0.4123  0.0095
   82ccc     O4 2404   9.654   0.191   1.140  0.0633 -0.4280 -0.6238
   82ccc     O5 2405   9.763   0.016   1.161  1.0458 -0.0698 -0.1952
   82ccc     O1 2406  10.414  -0.077   1.177 -0.7019 -0.1419 -0.2168
   83ccc     C3 2407  10.415  -0.744   1.966  0.1311 -0.3814  0.1720
   83ccc     H5 2408  10.321  -0.794   1.943 -0.4356 -0.3185  2.1535
   83ccc     H6 2409  10.490  -0.802   1.911  0.8104  1.1258 -0.5720
   83ccc     C2 2410  10.428  -0.753   2.117 -0.3171 -0.3268  0.0019
   83ccc     H3 2411  10.441  -0.853   2.159  1.9673  0.2871  0.8784
   83ccc     H4 2412  10.335  -0.719   2.164 -0.6262  1.3026 -1.6825
   83ccc     C1 2413  10.560  -0.667   2.157  0.3286  0.8657  0.4510
   83ccc     H1 2414  10.549  -0.559   2.142  2.4644  0.8152 -2.4106
   83ccc     H2 2415  10.641  -0.709   2.096  2.5374  0.6075  3.3179
   83ccc     N1 2416  10.614  -0.687   2.293  0.3249 -0.0991  0.2966
   83ccc     C4 2417  10.518  -0.616   2.380  0.2178  0.0253 -0.9186
   83ccc     H7 2418  10.446  -0.560   2.319  1.1397 -0.8034 -2.8361
   83ccc     H8 2419  10.567  -0.543   2.447 -1.5840 -1.0119  1.6926
   83ccc     C5 2420  10.427  -0.711   2.460 -0.8032  0.5260  0.5762
   83ccc     H9 2421  10.374  -0.769   2.383 -1.0649  0.8204  0.5271
   83ccc    H10 2422  10.485  -0.788   2.511 -2.7702 -1.9931 -0.7437
   83ccc     C6 2423  10.333  -0.641   2.558  0.8659 -0.5607  0.3932
   83ccc     O2 2424  10.218  -0.622   2.515 -0.2988  0.2087  0.0530
   83ccc     O3 2425  10.367  -0.588   2.660 -0.4262 -0.2631 -0.3803
   83ccc     C7 2426  10.746  -0.636   2.307 -0.5960 -0.1593  0.5532
   83ccc    H11 2427  10.804  -0.679   2.225  1.8250  1.1357  1.4585
   83ccc    H12 2428  10.748  -0.528   2.288 -1.4817 -0.1840  0.2837
   83ccc     C8 2429  10.820  -0.669   2.430 -0.3515 -0.2607  0.5525
   83ccc    H13 2430  10.763  -0.623   2.512 -0.8037 -2.1545  1.3724
   83ccc    H14 2431  10.836  -0.778   2.436 -0.9818 -0.5194 -1.7309
   83ccc     C9 2432  10.947  -0.595   2.403  0.8526  0.8615 -0.7871
   83ccc     O4 2433  11.027  -0.631   2.321  0.8162 -0.3580  0.3849
   83ccc     O5 2434  10.974  -0.485   2.456  0.7857  0.0489  0.1659
   83ccc     O1 2435  10.400  -0.609   1.912 -0.0071 -0.2601  0.2561
   84ccc     C3 2436  10.407   0.142   2.039  0.3996 -0.3585 -0.8325
   84ccc     H5 2437  10.385   0.226   2.106  1.3463  0.6303 -1.7505
   84ccc     H6 2438  10.309   0.106   2.006 -0.7857  1.9656 -0.0723
   84ccc     C2 2439  10.487   0.040   2.139 -0.4353  0.1934 -0.1227
   84ccc     H3 2440  10.449   0.031   2.241  1.0301 -2.3948  0.2727
   84ccc     H4 2441  10.595   0.059   2.137 -0.1433 -1.2878  0.3778
   84ccc     C1 2442  10.469  -0.100   2.077  0.2722 -0.1244  0.3226
   84ccc     H1 2443  10.516  -0.102   1.977 -1.3558  1.0495 -0.5021
   84ccc     H2 2444  10.363  -0.125   2.063  0.6748 -1.1528 -1.2376
   84ccc     N1 2445  10.523  -0.201   2.166 -0.1213 -0.2363  0.4625
   84ccc     C4 2446  10.622  -0.289   2.099 -0.0430 -0.2348  0.1130
   84ccc     H7 2447  10.590  -0.335   2.005  1.0086  0.4613 -0.6001
   84ccc     H8 2448  10.640  -0.372   2.169 -0.2896  2.2140  3.3200
   84ccc     C5 2449  10.756  -0.222   2.070 -0.3764  0.2977 -0.3787
   84ccc     H9 2450  10.756  -0.178   1.969 -0.3942  1.4874  0.1269
   84ccc    H10 2451  10.785  -0.140   2.137  1.5588 -0.1265 -0.6569
   84ccc     C6 2452  10.862  -0.324   2.082  0.5802  1.0304  0.6674
   84ccc     O2 2453  10.891  -0.399   1.990  0.1795 -0.5276 -0.2432
   84ccc     O3 2454  10.912  -0.350   2.193  0.6137  0.9875  0.6636
   84ccc     C7 2455  10.416  -0.274   2.239 -0.0814  0.0216 -0.3261
   84ccc    H11 2456  10.363  -0.337   2.167  0.4217 -1.3510  0.4618
   84ccc    H12 2457  10.468  -0.347   2.303 -1.6763 -0.5436  0.3873
   84ccc     C8 2458  10.328  -0.196   2.328 -0.5454 -0.0449 -0.6422
   84ccc    H13 2459  10.395  -0.132   2.387 -1.5478  0.8925 -0.4817
   84ccc    H14 2460  10.268  -0.119   2.278  2.5580  1.6666 -2.0090
   84ccc     C9 2461  10.257  -0.292   2.417  0.0596  0.9497 -0.1927
   84ccc     O4 2462  10.161  -0.360   2.370  0.2197  0.1384 -0.1945
   84ccc     O5 2463  10.264  -0.285   2.539 -0.2170  0.3542 -1.0201
   84ccc     O1 2464  10.480   0.190   1.925 -0.0055 -0.4628  0.1013
   85ccc     C3 2465  11.162   0.010   1.719 -0.2487 -0.3167 -0.0930
   85ccc     H5 2466  11.097  -0.045   1.650  1.4721  0.0903 -2.1422
   85ccc     H6 2467  11.267  -0.007   1.693  0.5930  2.2089  1.2705
   85ccc     C2 2468  11.150  -0.047   1.862  0.1365  0.4339  0.6487
   85ccc     H3 2469  11.178  -0.153   1.862  2.4511  0.9873  1.7742
   85ccc     H4 2470  11.044  -0.036   1.889  0.0918  2.7358 -0.2169
   85ccc     C1 2471  11.246   0.030   1.954 -0.0018  0.3609  0.1496
   85ccc     H1 2472  11.275   0.125   1.909 -0.1189  0.1592 -0.3593
   85ccc     H2 2473  11.345  -0.017   1.953 -0.1443  0.0368 -1.3780
   85ccc     N1 2474  11.197   0.042   2.090  0.0065 -0.0739 -0.1800
   85ccc     C4 2475  11.159  -0.084   2.154 -0.5576  0.3782 -0.2603
   85ccc     H7 2476  11.086  -0.136   2.091 -1.8257 -0.1588  1.5538
   85ccc     H8 2477  11.102  -0.069   2.247  0.2311 -0.9405  0.4754
   85ccc     C5 2478  11.271  -0.178   2.187  0.4039  0.5103 -0.4591
   85ccc     H9 2479  11.326  -0.211   2.097 -0.2659 -0.1021 -0.6515
   85ccc    H10 2480  11.334  -0.123   2.257 -0.0180  1.1240 -0.5568
   85ccc     C6 2481  11.201  -0.294   2.255 -0.8031  0.1557 -0.1551
   85ccc     O2 2482  11.210  -0.408   2.212 -0.0197  0.2050 -0.4496
   85ccc     O3 2483  11.156  -0.281   2.365  0.6457  0.1965  0.4203
   85ccc     C7 2484  11.279   0.128   2.176  0.3935 -0.0533 -0.3813
   85ccc    H11 2485  11.372   0.073   2.198 -0.3852 -0.1319  3.3593
   85ccc    H12 2486  11.295   0.221   2.120  1.7899 -0.1595 -0.1859
   85ccc     C8 2487  11.206   0.182   2.301  0.5179  0.2653 -0.3289
   85ccc    H13 2488  11.103   0.220   2.286  0.2331 -0.9302 -1.6048
   85ccc    H14 2489  11.196   0.102   2.375 -0.9960  1.2649  0.6232
   85ccc     C9 2490  11.288   0.291   2.369  0.1465  0.1730 -0.0940
   85ccc     O4 2491  11.409   0.276   2.391  0.1516 -0.7705 -0.3557
   85ccc     O5 2492  11.234   0.386   2.428 -0.1825  0.5413  0.2249
   85ccc     O1 2493  11.139   0.154   1.720 -0.3438 -0.2815  0.8662
   86ccc     C3 2494   6.915   0.653   1.878  0.0462  0.6240 -0.2056
   86ccc     H5 2495   6.955   0.552   1.894  1.4602  1.0942 -0.5815
   86ccc     H6 2496   6.878   0.687   1.976 -1.3227  0.1115 -0.5297
   86ccc     C2 2497   6.792   0.640   1.788 -0.1028 -0.1790 -0.3574
   86ccc     H3 2498   6.721   0.583   1.849  0.0079  1.0708  0.9929
   86ccc     H4 2499   6.824   0.587   1.696 -1.6962 -0.5550 -0.7278
   86ccc     C1 2500   6.727   0.774   1.768  1.2224  0.8929  0.8894
   86ccc     H1 2501   6.791   0.836   1.704  1.0729  0.3417  0.1842
   86ccc     H2 2502   6.707   0.817   1.867  0.3112 -1.1619  1.6581
   86ccc     N1 2503   6.590   0.764   1.702  0.1057  0.3336  0.4795
   86ccc     C4 2504   6.595   0.685   1.573  0.0770  0.2807 -0.4580
   86ccc     H7 2505   6.626   0.583   1.597  1.4963  1.2186  2.0991
   86ccc     H8 2506   6.680   0.721   1.514 -0.8303  0.3591 -1.7630
   86ccc     C5 2507   6.468   0.684   1.488  0.7348 -1.0348  0.4817
   86ccc     H9 2508   6.408   0.776   1.485  0.6894 -0.8409  3.6844
   86ccc    H10 2509   6.477   0.646   1.386 -3.0974  1.3026 -0.9565
   86ccc     C6 2510   6.380   0.588   1.555  0.0482  0.0064  0.1257
   86ccc     O2 2511   6.379   0.468   1.536  0.0042 -0.4824  0.4651
   86ccc     O3 2512   6.304   0.621   1.645 -0.1982 -0.0189  0.5053
   86ccc     C7 2513   6.543   0.903   1.683 -0.4777 -0.0739  0.4535
   86ccc    H11 2514   6.613   0.957   1.618  0.7708 -0.4888  1.4182
   86ccc    H12 2515   6.448   0.907   1.629  0.0300 -1.0819 -0.5440
   86ccc     C8 2516   6.533   1.000   1.799  0.4018 -0.6613 -0.4499
   86ccc    H13 2517   6.636   1.019   1.834 -0.0274  0.3323  0.3122
   86ccc    H14 2518   6.476   1.084   1.758 -3.1737 -3.3188 -1.3935
   86ccc     C9 2519   6.449   0.952   1.912 -0.6111 -0.1047  0.0340
   86ccc     O4 2520   6.419   0.839   1.935 -0.5264 -0.3839  0.0273
   86ccc     O5 2521   6.422   1.030   1.998  0.4015  0.0555  0.1303
   86ccc     O1 2522   7.017   0.730   1.815 -0.3595  0.4681  0.7713
   87ccc     C3 2523   7.772   0.659   2.153  0.4606  0.7387  0.0280
   87ccc     H5 2524   7.776   0.571   2.089 -0.9782  0.4962  0.2302
   87ccc     H6 2525   7.815   0.739   2.092 -0.8656  1.9538  0.6094
   87ccc     C2 2526   7.868   0.640   2.278  0.0862  0.2496  0.2360
   87ccc     H3 2527   7.892   0.739   2.320 -3.0388  1.5090 -0.6931
   87ccc     H4 2528   7.965   0.603   2.244  0.2724 -0.9844  1.9432
   87ccc     C1 2529   7.813   0.524   2.364 -0.4594  0.2537  0.7336
   87ccc     H1 2530   7.798   0.439   2.296 -1.5614 -2.1124  3.7158
   87ccc     H2 2531   7.713   0.548   2.403  0.2581  1.5681  1.8685
   87ccc     N1 2532   7.899   0.475   2.473  0.3873 -0.7197  0.7889
   87ccc     C4 2533   8.037   0.434   2.423  0.0039 -0.0069 -0.8046
   87ccc     H7 2534   8.097   0.398   2.508 -0.3831 -0.8593 -0.8748
   87ccc     H8 2535   8.088   0.528   2.400  2.0670 -0.6411  0.7628
   87ccc     C5 2536   8.043   0.329   2.309 -0.0703  0.6201 -0.0784
   87ccc     H9 2537   7.983   0.240   2.335  1.0153  0.1702  0.9609
   87ccc    H10 2538   8.017   0.371   2.212  1.2432  1.0341 -0.2698
   87ccc     C6 2539   8.184   0.279   2.300 -0.9203 -0.4639 -0.7525
   87ccc     O2 2540   8.262   0.332   2.227 -0.2373 -0.2347  0.2603
   87ccc     O3 2541   8.237   0.189   2.372  0.3927  1.1206 -0.1898
   87ccc     C7 2542   7.898   0.557   2.595  0.2380 -0.6332  0.4805
   87ccc    H11 2543   7.986   0.542   2.658 -0.2473 -1.8558  0.9069
   87ccc    H12 2544   7.886   0.662   2.566 -0.7366 -1.1955 -1.3114
   87ccc     C8 2545   7.775   0.526   2.673  0.1538  0.5618 -0.4660
   87ccc    H13 2546   7.682   0.566   2.631 -0.9351 -2.4366 -1.1525
   87ccc    H14 2547   7.759   0.422   2.705 -0.9180  0.6616 -0.6593
   87ccc     C9 2548   7.806   0.594   2.804 -0.7413  0.1866 -0.8229
   87ccc     O4 2549   7.751   0.700   2.828  0.6751 -0.2523 -0.0295
   87ccc     O5 2550   7.848   0.523   2.896  0.1103  0.4201 -0.2032
   87ccc     O1 2551   7.638   0.683   2.190  0.2253 -0.1979 -0.8138
   88ccc     C3 2552   7.047   0.827   1.393 -0.4140  0.2561 -0.6566
   88ccc     H5 2553   6.976   0.908   1.413 -1.2507  0.0980 -2.7458
   88ccc     H6 2554   7.030   0.808   1.287 -2.8652 -0.6734 -0.1622
   88ccc     C2 2555   6.996   0.706   1.476 -0.3576 -0.2084 -0.9229
   88ccc     H3 2556   6.891   0.689   1.447 -0.8349 -0.6855  0.9066
   88ccc     H4 2557   6.997   0.729   1.583 -1.8130 -2.2339 -0.4030
   88ccc     C1 2558   7.082   0.580   1.449 -0.2968 -0.7051  0.0915
   88ccc     H1 2559   7.190   0.598   1.461 -0.7929  2.5458  0.8928
   88ccc     H2 2560   7.068   0.555   1.344 -1.6400 -0.3682  0.1698
   88ccc     N1 2561   7.029   0.463   1.528 -0.0952  0.0280  0.0478
   88ccc     C4 2562   7.132   0.363   1.542 -0.3099  0.2301  0.2963
   88ccc     H7 2563   7.109   0.288   1.619 -1.0353 -0.7633 -0.8606
   88ccc     H8 2564   7.222   0.415   1.579  1.8049 -1.8793 -1.5075
   88ccc     C5 2565   7.168   0.298   1.414 -0.0171 -0.4288 -0.1664
   88ccc     H9 2566   7.119   0.344   1.328  0.6749  0.4732 -0.0960
   88ccc    H10 2567   7.276   0.317   1.403 -0.3276  2.8608  1.4912
   88ccc     C6 2568   7.142   0.153   1.420 -0.0047 -0.2756  0.8143
   88ccc     O2 2569   7.043   0.113   1.366 -0.4894 -0.2951 -0.5526
   88ccc     O3 2570   7.238   0.076   1.419 -0.0464 -0.1881 -0.1912
   88ccc     C7 2571   6.904   0.406   1.473 -0.7198 -0.3804  0.2135
   88ccc    H11 2572   6.826   0.482   1.460 -1.8405 -1.4842  0.3402
   88ccc    H12 2573   6.923   0.365   1.373 -0.9915 -0.1521  0.0690
   88ccc     C8 2574   6.847   0.295   1.556 -0.4397 -0.3186  0.9832
   88ccc    H13 2575   6.909   0.204   1.559 -1.5742 -1.1554 -0.0413
   88ccc    H14 2576   6.834   0.328   1.660  0.1276  1.4447  0.5293
   88ccc     C9 2577   6.716   0.250   1.505 -0.3987  0.0789 -0.8008
   88ccc     O4 2578   6.707   0.197   1.393 -0.1668 -0.1172  0.1714
   88ccc     O5 2579   6.618   0.259   1.580  0.1155  0.0065 -0.0251
   88ccc     O1 2580   7.182   0.852   1.428 -0.7172  0.2857 -0.3767
   89ccc     C3 2581   7.677   0.522   1.740  0.2237 -0.1596 -0.0430
   89ccc     H5 2582   7.661   0.626   1.769  2.9400  0.6186 -1.0302
   89ccc     H6 2583   7.614   0.449   1.791  1.1765 -1.4974 -0.7164
   89ccc     C2 2584   7.828   0.490   1.764  0.0194  0.4493 -0.0861
   89ccc     H3 2585   7.860   0.399   1.712 -0.1507  0.5854 -0.4314
   89ccc     H4 2586   7.846   0.480   1.872 -1.8456  2.6383  0.5183
   89ccc     C1 2587   7.913   0.606   1.712  0.3109  0.2669 -0.8539
   89ccc     H1 2588   7.873   0.701   1.750  1.7162  0.4649  0.2218
   89ccc     H2 2589   7.912   0.597   1.602  0.4278 -0.5609 -0.7946
   89ccc     N1 2590   8.052   0.614   1.757 -0.0303 -0.5916 -0.9190
   89ccc     C4 2591   8.111   0.751   1.767  0.7355  0.9699 -0.2273
   89ccc     H7 2592   8.032   0.826   1.783  0.1751  0.3861 -0.2089
   89ccc     H8 2593   8.169   0.781   1.679  0.7870  0.9469 -0.2016
   89ccc     C5 2594   8.193   0.748   1.894 -0.3118  0.0057 -0.0555
   89ccc     H9 2595   8.188   0.851   1.930 -1.1895  0.0898 -0.3995
   89ccc    H10 2596   8.146   0.679   1.965 -0.6688 -0.6458 -0.9064
   89ccc     C6 2597   8.340   0.713   1.888  0.0431 -0.2966 -0.3641
   89ccc     O2 2598   8.427   0.756   1.815  0.3852  0.1093 -0.0554
   89ccc     O3 2599   8.387   0.638   1.969  0.4683  0.0036  0.4222
   89ccc     C7 2600   8.144   0.512   1.715  0.1168  0.0001 -0.0690
   89ccc    H11 2601   8.127   0.489   1.609 -0.7642  0.6360 -0.0796
   89ccc    H12 2602   8.247   0.548   1.718  0.0963  0.3680 -2.0426
   89ccc     C8 2603   8.126   0.388   1.802 -0.0807 -0.1455 -0.5774
   89ccc    H13 2604   8.079   0.412   1.898 -1.6492 -1.6974 -0.9054
   89ccc    H14 2605   8.067   0.311   1.751  1.9282 -1.4286 -1.0757
   89ccc     C9 2606   8.268   0.342   1.837  0.1374 -0.3985 -0.0139
   89ccc     O4 2607   8.327   0.261   1.771 -0.1716 -0.5832  0.7456
   89ccc     O5 2608   8.311   0.364   1.946  0.1030  0.2462 -0.0549
   89ccc     O1 2609   7.657   0.492   1.598 -0.4157 -0.0676  0.1944
   90ccc     C3 2610   8.312   2.476   2.504  0.2121  0.5735  0.6207
   90ccc     H5 2611   8.276   2.376   2.528 -1.1730  0.6435 -0.9205
   90ccc     H6 2612   8.394   2.480   2.432  1.6257 -1.5853  2.0109
   90ccc     C2 2613   8.366   2.567   2.616  0.6417 -0.1733  0.0989
   90ccc     H3 2614   8.305   2.578   2.706  0.5503  2.3249 -0.2033
   90ccc     H4 2615   8.364   2.671   2.581 -0.2839 -0.8884 -2.1741
   90ccc     C1 2616   8.509   2.536   2.660  0.0383 -0.0565 -0.5250
   90ccc     H1 2617   8.541   2.604   2.740 -0.2262 -0.4881 -0.0413
   90ccc     H2 2618   8.570   2.558   2.572  1.3795 -0.4686  0.2784
   90ccc     N1 2619   8.540   2.399   2.706  0.5812 -0.0730 -0.1908
   90ccc     C4 2620   8.462   2.351   2.822 -0.0306  0.1974 -0.7651
   90ccc     H7 2621   8.355   2.373   2.806  0.1631 -0.3050 -3.1058
   90ccc     H8 2622   8.491   2.409   2.910  0.1946 -0.1464 -0.6088
   90ccc     C5 2623   8.471   2.207   2.865  0.2048  0.3654  0.5774
   90ccc     H9 2624   8.382   2.187   2.926 -0.1896 -1.3918 -0.5078
   90ccc    H10 2625   8.458   2.136   2.783  0.7616  0.3214  0.5227
   90ccc     C6 2626   8.592   2.158   2.932  0.5171 -0.1024  1.0637
   90ccc     O2 2627   8.616   2.188   3.047  0.0601 -0.1673 -0.4671
   90ccc     O3 2628   8.655   2.071   2.879 -0.0649 -0.0142 -0.1708
   90ccc     C7 2629   8.681   2.353   2.687 -0.2465  0.0287  0.1968
   90ccc    H11 2630   8.680   2.244   2.698  1.7781  0.1422  2.2492
   90ccc    H12 2631   8.721   2.378   2.588  2.2063 -2.2840  0.4833
   90ccc     C8 2632   8.779   2.396   2.795  0.0239  0.8445 -1.0389
   90ccc    H13 2633   8.811   2.501   2.785 -1.3079  1.3558 -0.2089
   90ccc    H14 2634   8.741   2.379   2.897  3.2711 -0.9124  0.0328
   90ccc     C9 2635   8.906   2.318   2.775 -0.3222  0.0361  0.2178
   90ccc     O4 2636   8.990   2.357   2.694 -0.2491 -0.1777  0.0872
   90ccc     O5 2637   8.911   2.203   2.816  0.2508 -0.3109  0.1829
   90ccc     O1 2638   8.192   2.546   2.462  0.1637  0.2978 -0.0072
   91ccc     C3 2639   7.781   3.152   2.505  0.3679 -0.2116 -0.1606
   91ccc     H5 2640   7.815   3.224   2.581 -1.0239 -0.7434  1.0152
   91ccc     H6 2641   7.796   3.204   2.410 -1.2092 -2.1366 -1.5487
   91ccc     C2 2642   7.636   3.116   2.527 -0.3307 -0.1325  0.1238
   91ccc     H3 2643   7.573   3.200   2.561 -0.1641 -0.1868  0.5760
   91ccc     H4 2644   7.634   3.032   2.597 -1.2321  0.7732  1.2413
   91ccc     C1 2645   7.568   3.068   2.394 -0.5310 -0.1942  0.0427
   91ccc     H1 2646   7.631   2.989   2.352 -1.2537 -1.5534  1.3983
   91ccc     H2 2647   7.586   3.149   2.322  2.3933 -1.5408 -0.8844
   91ccc     N1 2648   7.429   3.033   2.410  0.2160  0.0476  0.3584
   91ccc     C4 2649   7.405   2.907   2.479 -0.7342  0.2415 -0.9973
   91ccc     H7 2650   7.502   2.861   2.503 -0.1752  0.1207 -3.3082
   91ccc     H8 2651   7.354   2.837   2.413 -1.4320 -0.9472  0.7308
   91ccc     C5 2652   7.338   2.937   2.608 -0.2976 -0.7233 -0.9383
   91ccc     H9 2653   7.411   2.985   2.673 -1.3563 -0.2272 -0.0879
   91ccc    H10 2654   7.248   3.000   2.605 -0.7644 -1.3941 -2.5123
   91ccc     C6 2655   7.291   2.804   2.665  0.5234 -0.1693 -0.6641
   91ccc     O2 2656   7.344   2.738   2.750 -0.1097  0.2259  0.3670
   91ccc     O3 2657   7.178   2.774   2.633  0.7793  0.0179  0.0658
   91ccc     C7 2658   7.343   3.053   2.291 -0.0372  0.3570  0.0866
   91ccc    H11 2659   7.369   3.146   2.239  1.1613  1.6558  2.8194
   91ccc    H12 2660   7.362   2.966   2.227 -0.0044 -0.2468  0.8983
   91ccc     C8 2661   7.189   3.054   2.325  0.3530  0.1968  0.3046
   91ccc    H13 2662   7.155   2.961   2.371  0.4789  0.8778  1.8251
   91ccc    H14 2663   7.187   3.141   2.391  2.2793  0.7992 -0.3461
   91ccc     C9 2664   7.132   3.079   2.190  0.5503  0.5235  0.0437
   91ccc     O4 2665   7.047   3.163   2.165 -0.0762  0.0857  0.1877
   91ccc     O5 2666   7.136   2.987   2.110  0.3875 -0.3599 -0.2916
   91ccc     O1 2667   7.859   3.033   2.498  0.3242  0.6950 -0.4668
   92ccc     C3 2668   9.048   2.967   0.926  0.2993 -0.8314  0.1704
   92ccc     H5 2669   8.975   3.041   0.960  0.1803 -0.9849  0.2514
   92ccc     H6 2670   9.019   2.863   0.944 -0.5887 -0.5131  0.6672
   92ccc     C2 2671   9.176   3.003   1.005 -0.2056 -0.0038  0.1769
   92ccc     H3 2672   9.167   3.110   1.030 -0.5475 -0.0137  0.1101
   92ccc     H4 2673   9.261   2.983   0.939 -1.2707 -1.2076 -0.8865
   92ccc     C1 2674   9.183   2.927   1.145  0.3947  0.1083  0.8939
   92ccc     H1 2675   9.189   2.817   1.139  1.5374  0.1651  0.7452
   92ccc     H2 2676   9.087   2.955   1.190 -0.6329 -0.7903 -0.6432
   92ccc     N1 2677   9.298   2.967   1.235  0.6015 -0.9805 -0.1307
   92ccc     C4 2678   9.438   2.962   1.174  0.3156  0.4624 -0.0848
   92ccc     H7 2679   9.442   2.969   1.064  0.4093  0.4788 -0.0807
   92ccc     H8 2680   9.473   2.861   1.201 -0.5700 -0.4449 -2.0776
   92ccc     C5 2681   9.530   3.072   1.236  0.2206  0.1484 -0.3029
   92ccc     H9 2682   9.484   3.171   1.224  2.9327  1.9976  2.9642
   92ccc    H10 2683   9.544   3.061   1.344  0.7307 -0.0341 -0.3856
   92ccc     C6 2684   9.664   3.059   1.171  0.6977  0.1376 -0.6774
   92ccc     O2 2685   9.765   3.033   1.234 -0.0369  0.2788  0.0447
   92ccc     O3 2686   9.678   3.112   1.058 -0.6081  0.4478  0.4236
   92ccc     C7 2687   9.297   2.905   1.370 -0.4679  0.1636  0.2249
   92ccc    H11 2688   9.342   2.804   1.369  0.3183  0.4359 -3.0012
   92ccc    H12 2689   9.356   2.968   1.437 -2.4785 -1.0721  3.4115
   92ccc     C8 2690   9.158   2.887   1.432 -0.1183 -0.5244 -0.1078
   92ccc    H13 2691   9.107   2.984   1.430  3.3341  1.5053  1.0126
   92ccc    H14 2692   9.108   2.803   1.382  0.5984 -1.0401  0.0194
   92ccc     C9 2693   9.169   2.833   1.575 -0.5033 -0.1871  0.2528
   92ccc     O4 2694   9.138   2.911   1.663  0.6186  0.0511  0.0540
   92ccc     O5 2695   9.158   2.721   1.602 -0.2201  0.4415 -0.2415
   92ccc     O1 2696   9.070   2.987   0.785  0.0245 -0.6156  0.3889
   93ccc     C3 2697   8.177   3.096   0.335  0.5540 -0.3291  0.8435
   93ccc     H5 2698   8.242   3.116   0.249 -0.2829 -0.3114  0.1939
   93ccc     H6 2699   8.154   2.989   0.347 -0.3902 -0.2963 -0.3711
   93ccc     C2 2700   8.037   3.171   0.315 -0.3589 -0.0409  0.3883
   93ccc     H3 2701   7.995   3.145   0.217  0.8158 -1.1109  0.1348
   93ccc     H4 2702   8.065   3.276   0.324 -0.0081 -0.0618 -0.3591
   93ccc     C1 2703   7.942   3.133   0.432 -0.7609 -0.3735  0.8734
   93ccc     H1 2704   7.849   3.191   0.431 -0.6457 -0.1990  0.0121
   93ccc     H2 2705   7.986   3.165   0.527  0.1440  0.9687  0.0412
   93ccc     N1 2706   7.915   2.984   0.446 -0.0556 -0.0218  0.0737
   93ccc     C4 2707   7.858   2.951   0.572 -0.0019 -0.0142 -0.0178
   93ccc     H7 2708   7.917   2.983   0.659 -0.7281 -2.2513  1.3673
   93ccc     H8 2709   7.854   2.843   0.588 -0.1979  0.1506  1.1468
   93ccc     C5 2710   7.712   2.989   0.593 -0.6918  0.0270  0.3358
   93ccc     H9 2711   7.730   3.094   0.617  1.0394  0.2058 -1.4411
   93ccc    H10 2712   7.644   2.988   0.506 -0.1938  2.1874 -0.1343
   93ccc     C6 2713   7.661   2.915   0.719  0.3169  0.1792  0.1818
   93ccc     O2 2714   7.701   2.944   0.829  0.2701 -0.0410  0.2752
   93ccc     O3 2715   7.586   2.819   0.709  0.7235 -0.0356  0.6239
   93ccc     C7 2716   7.853   2.925   0.330 -0.3354  0.8327 -0.4002
   93ccc    H11 2717   7.747   2.955   0.325 -0.4785  1.1622  2.6830
   93ccc    H12 2718   7.908   2.963   0.244  0.3494  1.1710  0.1750
   93ccc     C8 2719   7.842   2.770   0.336 -0.1207  0.5825 -0.2001
   93ccc    H13 2720   7.930   2.721   0.380 -0.5565 -0.3120 -0.3105
   93ccc    H14 2721   7.754   2.746   0.397 -1.0284 -0.1886 -1.7554
   93ccc     C9 2722   7.822   2.714   0.197  0.5061  0.4058  0.2017
   93ccc     O4 2723   7.915   2.684   0.125  0.7868 -0.3534  0.2428
   93ccc     O5 2724   7.714   2.723   0.146  0.6961 -0.1848  0.3748
   93ccc     O1 2725   8.243   3.137   0.447 -0.1070 -0.3273  0.3041
   94ccc     C3 2726   6.447   0.231   3.154  0.1213  0.2090 -0.0471
   94ccc     H5 2727   6.430   0.193   3.255  2.6705  1.1788  0.8393
   94ccc     H6 2728   6.547   0.275   3.161  1.2456 -2.0746 -0.5987
   94ccc     C2 2729   6.357   0.340   3.112  0.0404  0.3119 -0.3183
   94ccc     H3 2730   6.252   0.310   3.120  0.4834 -1.3240 -0.3697
   94ccc     H4 2731   6.374   0.373   3.009 -1.4132 -2.5389 -1.5754
   94ccc     C1 2732   6.381   0.462   3.200  0.0069  0.4267  0.0366
   94ccc     H1 2733   6.488   0.465   3.225  0.3278 -0.8211 -1.0498
   94ccc     H2 2734   6.325   0.442   3.292  1.5425  0.6592  1.0638
   94ccc     N1 2735   6.341   0.590   3.148 -0.0269 -0.1452  0.2092
   94ccc     C4 2736   6.428   0.650   3.044  0.1527 -0.3469  0.2835
   94ccc     H7 2737   6.406   0.604   2.946  1.6304  1.0108 -0.7366
   94ccc     H8 2738   6.532   0.623   3.066  0.2665  0.7768  1.1883
   94ccc     C5 2739   6.419   0.799   3.038 -0.1345 -0.4994 -0.1166
   94ccc     H9 2740   6.495   0.840   2.971 -0.0701 -0.1515  0.1636
   94ccc    H10 2741   6.319   0.826   3.000 -0.2151  0.0806  0.4968
   94ccc     C6 2742   6.444   0.857   3.172  0.0536  0.7207  0.3315
   94ccc     O2 2743   6.358   0.920   3.232 -0.0838 -0.2496  0.2096
   94ccc     O3 2744   6.555   0.859   3.218  0.0421 -0.0136 -0.1711
   94ccc     C7 2745   6.194   0.590   3.116 -0.2153  0.1337  0.0859
   94ccc    H11 2746   6.164   0.678   3.058 -2.7236 -0.8155 -0.1818
   94ccc    H12 2747   6.174   0.511   3.042 -1.9120 -0.0783  0.7117
   94ccc     C8 2748   6.102   0.590   3.240 -0.0612  0.1019  0.2524
   94ccc    H13 2749   6.015   0.524   3.232 -1.4146  1.7697  0.5996
   94ccc    H14 2750   6.163   0.576   3.331  0.3881  1.2958  0.1468
   94ccc     C9 2751   6.045   0.727   3.250 -0.4503 -0.3812 -0.2560
   94ccc     O4 2752   6.111   0.809   3.318 -0.0225  0.4139 -0.4178
   94ccc     O5 2753   5.927   0.748   3.241  0.2453  0.4385  0.1968
   94ccc     O1 2754   6.450   0.124   3.045  0.0860 -0.0840 -0.2006
   95ccc     C3 2755   6.523   0.020   2.403  0.6748 -0.4594  0.0763
   95ccc     H5 2756   6.422   0.030   2.445  1.1148  1.3126  0.8327
   95ccc     H6 2757   6.566   0.111   2.449 -1.6326  0.5367  0.4037
   95ccc     C2 2758   6.519   0.033   2.251  0.2873 -0.4771  0.2863
   95ccc     H3 2759   6.499  -0.069   2.214 -0.3813  0.1367 -1.1077
   95ccc     H4 2760   6.617   0.061   2.212 -1.7609  3.0193 -3.0154
   95ccc     C1 2761   6.403   0.132   2.205 -0.4948  0.2847 -0.2740
   95ccc     H1 2762   6.401   0.225   2.263 -1.6062  0.0733  0.0536
   95ccc     H2 2763   6.306   0.087   2.229  0.7891 -1.7497  1.3262
   95ccc     N1 2764   6.397   0.161   2.063  0.3701  0.2984  1.0016
   95ccc     C4 2765   6.366   0.037   1.989  0.2487 -0.1746 -0.5411
   95ccc     H7 2766   6.285  -0.017   2.040 -0.7455  1.2702 -0.5232
   95ccc     H8 2767   6.459  -0.020   1.981 -0.1547 -0.7443 -1.2833
   95ccc     C5 2768   6.321   0.046   1.845 -0.0263  0.7090  0.2624
   95ccc     H9 2769   6.407   0.048   1.777  0.9719  0.8071  1.4957
   95ccc    H10 2770   6.254  -0.036   1.815 -0.5892  0.5073  1.9441
   95ccc     C6 2771   6.243   0.166   1.813  1.1059  0.7413  0.6742
   95ccc     O2 2772   6.295   0.248   1.738  0.2296  0.3297 -0.1041
   95ccc     O3 2773   6.124   0.159   1.838 -0.2164 -0.3538 -0.4940
   95ccc     C7 2774   6.515   0.233   2.014  0.1986 -0.6725 -0.2440
   95ccc    H11 2775   6.599   0.188   2.069 -0.7294  0.4282  2.1947
   95ccc    H12 2776   6.530   0.213   1.907  2.0401 -0.7987 -0.0102
   95ccc     C8 2777   6.515   0.382   2.051 -0.2627  0.0690 -0.4099
   95ccc    H13 2778   6.483   0.403   2.154  4.4956  0.7275  1.2295
   95ccc    H14 2779   6.617   0.422   2.040 -0.1375 -0.1702 -0.1386
   95ccc     C9 2780   6.424   0.447   1.950  0.3240 -0.1548 -0.2275
   95ccc     O4 2781   6.460   0.473   1.834  0.9377  0.4695 -0.3144
   95ccc     O5 2782   6.345   0.530   1.987  0.0311 -0.1142  0.2701
   95ccc     O1 2783   6.593  -0.096   2.444 -0.0632  0.3748  0.3094
   96ccc     C3 2784   6.648   1.003   2.656 -0.3241 -0.2290 -0.3548
   96ccc     H5 2785   6.721   0.958   2.723  1.3671  3.9342  0.8982
   96ccc     H6 2786   6.698   1.080   2.596 -1.8207  0.9288 -0.1804
   96ccc     C2 2787   6.540   1.069   2.739 -0.2853 -0.2139 -0.5729
   96ccc     H3 2788   6.499   0.991   2.804 -2.7246  1.1535 -0.3266
   96ccc     H4 2789   6.454   1.092   2.674 -0.1072  0.5151 -0.5614
   96ccc     C1 2790   6.587   1.193   2.825 -0.5252 -0.2065  0.4042
   96ccc     H1 2791   6.642   1.263   2.761 -2.7880 -0.5155 -2.0219
   96ccc     H2 2792   6.656   1.168   2.907 -1.6472  0.6957  1.6606
   96ccc     N1 2793   6.475   1.269   2.884  0.2682  0.0791 -0.1762
   96ccc     C4 2794   6.373   1.345   2.803  0.2386 -0.1984  0.2977
   96ccc     H7 2795   6.310   1.410   2.865  1.0673 -0.2032  1.1680
   96ccc     H8 2796   6.304   1.274   2.756  0.2041  0.0689 -0.0555
   96ccc     C5 2797   6.434   1.431   2.694  0.2182  0.3751 -0.1784
   96ccc     H9 2798   6.508   1.494   2.745  0.3186  0.2659 -0.1900
   96ccc    H10 2799   6.495   1.369   2.627 -0.8363 -0.0049 -0.8110
   96ccc     C6 2800   6.331   1.504   2.618  0.6911  0.2471 -0.0020
   96ccc     O2 2801   6.311   1.480   2.500 -0.3236 -0.2579 -0.2026
   96ccc     O3 2802   6.296   1.609   2.663  0.2364  0.2719 -0.1655
   96ccc     C7 2803   6.414   1.193   3.001  0.4420 -1.2174 -0.1372
   96ccc    H11 2804   6.345   1.116   2.964 -0.1647 -0.7808  0.0768
   96ccc    H12 2805   6.499   1.147   3.054  1.6293  0.0286 -0.8778
   96ccc     C8 2806   6.336   1.287   3.095 -0.2097  0.0991  0.2449
   96ccc    H13 2807   6.390   1.382   3.103  1.3190 -0.6054 -1.0097
   96ccc    H14 2808   6.238   1.317   3.057 -0.5383 -0.5319  0.5939
   96ccc     C9 2809   6.313   1.228   3.231  0.8917 -0.0986 -0.3331
   96ccc     O4 2810   6.407   1.199   3.299 -0.2857  0.6171 -0.2222
   96ccc     O5 2811   6.198   1.206   3.263  0.1863 -0.4063  0.0538
   96ccc     O1 2812   6.586   0.910   2.559 -0.6278  0.3312 -0.6242
   97ccc     C3 2813   6.305   0.567   2.703 -0.2596 -0.7702  0.0993
   97ccc     H5 2814   6.271   0.474   2.749  0.0052 -1.2021 -0.5610
   97ccc     H6 2815   6.387   0.603   2.766  0.8910 -3.5268  0.3266
   97ccc     C2 2816   6.185   0.668   2.698 -0.5523  0.3516  0.2183
   97ccc     H3 2817   6.121   0.675   2.787  0.6414  0.5600  1.0770
   97ccc     H4 2818   6.112   0.640   2.621 -1.1856  3.4558 -0.4656
   97ccc     C1 2819   6.233   0.810   2.647 -0.2548 -0.1243  0.2026
   97ccc     H1 2820   6.245   0.801   2.538  0.0854  1.8182  0.0289
   97ccc     H2 2821   6.327   0.849   2.686 -0.0948  0.7899 -1.0201
   97ccc     N1 2822   6.126   0.917   2.671  0.5264  0.0469 -0.5848
   97ccc     C4 2823   6.119   0.960   2.817  0.3082 -0.6069 -0.1874
   97ccc     H7 2824   6.214   0.990   2.863 -0.2495  0.5613  0.2408
   97ccc     H8 2825   6.100   0.862   2.863  1.0832 -0.1696  1.1487
   97ccc     C5 2826   6.009   1.064   2.854  0.1578 -0.1347 -0.1090
   97ccc     H9 2827   6.024   1.154   2.793  0.2606  1.0274  1.5495
   97ccc    H10 2828   5.910   1.019   2.835  0.3603 -1.0075  0.8325
   97ccc     C6 2829   6.006   1.105   3.001 -0.1870 -0.4126 -0.4192
   97ccc     O2 2830   6.016   1.024   3.092  0.7805  0.3978  0.0396
   97ccc     O3 2831   5.999   1.226   3.034 -0.0709  0.0935 -0.0408
   97ccc     C7 2832   6.152   1.032   2.575  0.1256  0.3340  0.5928
   97ccc    H11 2833   6.106   1.125   2.611  0.4613 -0.4523  3.2250
   97ccc    H12 2834   6.259   1.054   2.565  0.2097 -0.4693 -0.4374
   97ccc     C8 2835   6.106   1.008   2.433  0.0333  0.0265  0.7417
   97ccc    H13 2836   6.099   0.903   2.403 -2.8752  0.5543 -0.7916
   97ccc    H14 2837   6.011   1.060   2.413  0.7113  0.8794 -0.4037
   97ccc     C9 2838   6.195   1.077   2.327  0.5682 -0.0753  0.2801
   97ccc     O4 2839   6.189   1.201   2.316  0.4831 -0.3599 -0.0192
   97ccc     O5 2840   6.250   1.014   2.235  0.0302 -0.5795  0.2568
   97ccc     O1 2841   6.344   0.539   2.567  0.2676  0.1516  0.0559
   98ccc     C3 2842   7.384  -0.065   3.132  0.5699  0.0973 -0.1472
   98ccc     H5 2843   7.356  -0.000   3.047  1.3665 -0.4797 -0.8707
   98ccc     H6 2844   7.367  -0.009   3.225  2.5683 -1.0288  0.9608
   98ccc     C2 2845   7.525  -0.105   3.100 -0.4219  0.7029  0.5894
   98ccc     H3 2846   7.570  -0.030   3.033 -0.1759  0.6213  0.6587
   98ccc     H4 2847   7.522  -0.203   3.051 -1.0573  2.0610 -2.2481
   98ccc     C1 2848   7.618  -0.129   3.222 -0.3583 -0.3959 -0.0269
   98ccc     H1 2849   7.716  -0.157   3.184 -0.3918  1.0922 -1.3078
   98ccc     H2 2850   7.576  -0.213   3.278  1.1434  0.2039  2.1511
   98ccc     N1 2851   7.645  -0.017   3.316 -0.0034 -0.0460 -0.4914
   98ccc     C4 2852   7.707  -0.064   3.434  0.1112 -0.5096 -0.3686
   98ccc     H7 2853   7.806  -0.105   3.413  0.4701 -0.3068  0.8701
   98ccc     H8 2854   7.636  -0.140   3.470 -0.7586  0.5775  0.2969
   98ccc     C5 2855   7.706   0.033   3.553 -0.2730  0.0801  0.0627
   98ccc     H9 2856   7.733   0.136   3.526  0.3800 -0.4888 -1.5697
   98ccc    H10 2857   7.608   0.036   3.603 -0.3365  1.9717 -0.0977
   98ccc     C6 2858   7.804  -0.009   3.658  0.1107 -0.4981 -0.1763
   98ccc     O2 2859   7.908   0.052   3.655 -0.2774  0.1057  0.5388
   98ccc     O3 2860   7.774  -0.054   3.771 -0.2006  0.1467 -0.1102
   98ccc     C7 2861   7.690   0.100   3.248 -0.6890 -0.8185 -0.2795
   98ccc    H11 2862   7.626   0.129   3.163  0.4656  1.9784 -0.3015
   98ccc    H12 2863   7.685   0.192   3.308  0.4272 -1.6944  1.2157
   98ccc     C8 2864   7.836   0.084   3.198  0.1275 -0.4666  0.0074
   98ccc    H13 2865   7.904   0.084   3.284  0.6786  0.7840 -0.4128
   98ccc    H14 2866   7.843  -0.008   3.137 -1.5768 -0.8056  0.2835
   98ccc     C9 2867   7.870   0.195   3.106  0.3650  0.1650 -0.3819
   98ccc     O4 2868   7.923   0.295   3.146  0.0832 -0.2979 -0.5502
   98ccc     O5 2869   7.882   0.174   2.986  0.3437  0.3882  0.2380
   98ccc     O1 2870   7.303  -0.180   3.130 -0.3685  0.4653 -0.3483
   99ccc     C3 2871   7.642  -0.813   3.317  0.4807  1.0437  0.8580
   99ccc     H5 2872   7.583  -0.905   3.326 -1.5717  1.9675 -1.7021
   99ccc     H6 2873   7.750  -0.831   3.322  0.2796 -1.2341 -0.8755
   99ccc     C2 2874   7.605  -0.710   3.418 -0.0157 -0.0291 -0.1404
   99ccc     H3 2875   7.621  -0.751   3.519  0.8951  0.8493  0.0871
   99ccc     H4 2876   7.496  -0.699   3.417 -0.0712 -0.1775  1.2822
   99ccc     C1 2877   7.680  -0.577   3.405 -0.2884 -0.3785  0.5820
   99ccc     H1 2878   7.630  -0.515   3.330  0.1634 -0.8854 -0.1577
   99ccc     H2 2879   7.784  -0.596   3.375  0.2635 -0.1509  2.2593
   99ccc     N1 2880   7.680  -0.489   3.521  0.1381 -0.3843 -0.1005
   99ccc     C4 2881   7.795  -0.389   3.515 -0.1897  0.2650 -0.7042
   99ccc     H7 2882   7.769  -0.286   3.544 -0.0164 -0.1119  0.9043
   99ccc     H8 2883   7.827  -0.389   3.411  2.1144  0.7205 -0.0478
   99ccc     C5 2884   7.920  -0.437   3.591  0.3532  0.3108  0.3431
   99ccc     H9 2885   7.901  -0.505   3.674  2.5540  0.4675  1.0494
   99ccc    H10 2886   7.984  -0.481   3.514 -1.0219  1.3907 -1.5172
   99ccc     C6 2887   7.992  -0.319   3.647 -0.2701 -0.1238 -0.8086
   99ccc     O2 2888   7.967  -0.281   3.761  0.0392  0.0310  0.4242
   99ccc     O3 2889   8.078  -0.262   3.582  0.4147  0.0648  0.4438
   99ccc     C7 2890   7.552  -0.414   3.544 -0.6404 -0.0594  0.0494
   99ccc    H11 2891   7.533  -0.335   3.470  1.7280  2.2984  1.7544
   99ccc    H12 2892   7.474  -0.490   3.530  1.2066 -2.4605  2.0025
   99ccc     C8 2893   7.547  -0.351   3.676  0.1516  0.1882 -0.1745
   99ccc    H13 2894   7.599  -0.254   3.672 -1.1460  1.0283  1.5532
   99ccc    H14 2895   7.440  -0.332   3.691 -0.1867  0.1275 -2.3025
   99ccc     C9 2896   7.585  -0.441   3.785 -0.1471 -0.0799  0.0441
   99ccc     O4 2897   7.679  -0.403   3.856 -0.0437  0.1194  0.6160
   99ccc     O5 2898   7.491  -0.482   3.850 -0.6337  0.2089 -0.5812
   99ccc     O1 2899   7.624  -0.765   3.179  0.0951 -0.1471 -0.3425
  100ccc     C3 2900   6.237   0.062   4.127  0.6200  0.4050 -0.0421
  100ccc     H5 2901   6.172   0.131   4.181 -1.0614 -1.3215  0.2151
  100ccc     H6 2902   6.201  -0.040   4.142 -0.5987  0.9585  0.9150
  100ccc     C2 2903   6.387   0.060   4.175  0.2991  0.1372 -0.1524
  100ccc     H3 2904   6.438  -0.026   4.131  0.5246  0.7282 -1.0682
  100ccc     H4 2905   6.376   0.053   4.284 -1.4767 -0.4186 -0.3399
  100ccc     C1 2906   6.456   0.199   4.142 -0.1569  0.4257 -0.2789
  100ccc     H1 2907   6.408   0.284   4.193  1.1840  1.3604 -0.5158
  100ccc     H2 2908   6.438   0.221   4.036 -1.0937  1.3311  0.0525
  100ccc     N1 2909   6.603   0.202   4.170  0.0499 -0.3382 -0.0310
  100ccc     C4 2910   6.643   0.172   4.314  0.4140 -0.9012 -0.2318
  100ccc     H7 2911   6.752   0.172   4.322  0.2943 -0.3311  2.1471
  100ccc     H8 2912   6.609   0.071   4.340  3.4590 -2.3657 -1.4765
  100ccc     C5 2913   6.575   0.262   4.420 -0.4330  0.2498 -0.0205
  100ccc     H9 2914   6.558   0.362   4.377 -1.5769  1.0425  2.1537
  100ccc    H10 2915   6.482   0.214   4.452 -0.5957  0.5979  0.0381
  100ccc     C6 2916   6.667   0.264   4.539  0.9064 -0.5605  0.3061
  100ccc     O2 2917   6.676   0.171   4.615  0.0793 -0.2121  0.1549
  100ccc     O3 2918   6.737   0.363   4.548  0.5787  0.7903 -0.0972
  100ccc     C7 2919   6.668   0.322   4.127 -0.0605  0.1092  0.5921
  100ccc    H11 2920   6.617   0.356   4.036 -0.0626  2.3010  1.3454
  100ccc    H12 2921   6.651   0.402   4.201 -1.8274 -0.9258  1.3915
  100ccc     C8 2922   6.811   0.303   4.086  0.2857 -0.0622 -0.2508
  100ccc    H13 2923   6.874   0.266   4.167  0.2329  0.7109  0.1459
  100ccc    H14 2924   6.816   0.242   3.994  0.8839  1.4840 -1.2765
  100ccc     C9 2925   6.871   0.434   4.055  0.1449  0.3786  0.2087
  100ccc     O4 2926   6.913   0.508   4.148 -0.2301  0.4982 -0.1883
  100ccc     O5 2927   6.889   0.470   3.939  0.4621 -0.1733 -0.2906
  100ccc     O1 2928   6.228   0.092   3.986  1.0062  0.5164 -0.2894
  101ccc     C3 2929   5.787   0.535   3.722  0.4257 -0.3702 -0.1453
  101ccc     H5 2930   5.720   0.561   3.639  3.3172  1.3630 -2.0946
  101ccc     H6 2931   5.735   0.531   3.819  2.2883  2.0505  1.0507
  101ccc     C2 2932   5.885   0.644   3.741 -0.0925 -0.8513  0.7125
  101ccc     H3 2933   5.958   0.643   3.659 -1.7988 -1.3819 -0.8643
  101ccc     H4 2934   5.946   0.615   3.828 -0.5821 -2.7316  0.4731
  101ccc     C1 2935   5.826   0.784   3.766  0.4366 -0.5177 -0.1533
  101ccc     H1 2936   5.751   0.777   3.846 -2.9956  0.1618 -3.0360
  101ccc     H2 2937   5.764   0.804   3.677 -1.6489  2.5783  1.7990
  101ccc     N1 2938   5.927   0.896   3.791  0.3348  0.8220 -0.0652
  101ccc     C4 2939   5.993   0.885   3.919 -0.8266 -0.4791 -0.1175
  101ccc     H7 2940   6.076   0.814   3.911  0.2161  0.5901  0.9776
  101ccc     H8 2941   5.921   0.855   3.996 -1.6525  0.7221 -0.3858
  101ccc     C5 2942   6.054   1.020   3.966 -0.0048 -0.7411 -0.5128
  101ccc     H9 2943   6.150   1.043   3.917  1.2788 -1.6309  1.4464
  101ccc    H10 2944   5.981   1.101   3.953  0.9801  0.2804  0.1063
  101ccc     C6 2945   6.083   1.006   4.112  0.0335  0.0321  0.2730
  101ccc     O2 2946   6.175   1.078   4.155  0.4183 -0.1316 -0.1274
  101ccc     O3 2947   6.064   0.903   4.177  0.3474 -0.1311 -0.3415
  101ccc     C7 2948   6.023   0.930   3.680  0.0082 -0.3076  0.5095
  101ccc    H11 2949   6.099   1.004   3.710  0.7271 -0.9987  0.4170
  101ccc    H12 2950   6.067   0.831   3.662 -0.1452 -0.4569  0.9401
  101ccc     C8 2951   5.942   0.987   3.557 -0.1400  0.2977 -0.0869
  101ccc    H13 2952   5.884   0.908   3.507  2.4715 -0.4258 -2.2845
  101ccc    H14 2953   5.873   1.067   3.584 -1.9425 -1.4075  0.5370
  101ccc     C9 2954   6.034   1.053   3.458 -0.5750 -0.4263  0.0932
  101ccc     O4 2955   5.988   1.075   3.351 -0.4215 -0.1881  0.0460
  101ccc     O5 2956   6.153   1.036   3.457 -0.0866  0.3511 -0.1111
  101ccc     O1 2957   5.852   0.406   3.689  0.3155  0.7601  0.2044
  102ccc     C3 2958   9.223   1.092   3.719 -0.0974 -0.3991  0.0871
  102ccc     H5 2959   9.219   1.200   3.701  1.2331 -0.4988 -1.0052
  102ccc     H6 2960   9.143   1.072   3.791  1.8810  0.3244  2.6205
  102ccc     C2 2961   9.364   1.053   3.775 -0.3249 -0.0855 -0.0899
  102ccc     H3 2962   9.392   1.133   3.844 -1.9500 -0.2809  0.8513
  102ccc     H4 2963   9.437   1.053   3.693  0.1403  0.3519  0.3196
  102ccc     C1 2964   9.364   0.913   3.844  0.3975  0.6963  0.8338
  102ccc     H1 2965   9.464   0.869   3.838 -0.5130 -1.3641 -0.5687
  102ccc     H2 2966   9.316   0.842   3.775  2.3927 -0.3663  0.4486
  102ccc     N1 2967   9.314   0.898   3.983 -0.1591  0.2215  0.1452
  102ccc     C4 2968   9.419   0.929   4.080 -0.4685  0.6053 -0.1389
  102ccc     H7 2969   9.476   1.011   4.036 -0.2376  0.4586 -0.1157
  102ccc     H8 2970   9.486   0.846   4.106 -0.9781  0.6355  1.4460
  102ccc     C5 2971   9.357   0.975   4.217 -0.0603  0.5145  0.0143
  102ccc     H9 2972   9.276   1.047   4.198 -2.0752 -1.3170  1.2044
  102ccc    H10 2973   9.320   0.892   4.278  1.6469 -0.0783  0.2950
  102ccc     C6 2974   9.464   1.043   4.292  0.0451  0.1525  0.1582
  102ccc     O2 2975   9.562   0.993   4.337 -0.4076 -0.2236  0.5484
  102ccc     O3 2976   9.421   1.129   4.363  0.4305  0.1755  0.1901
  102ccc     C7 2977   9.246   0.766   4.011 -0.6251  0.1707 -0.1379
  102ccc    H11 2978   9.224   0.761   4.118 -0.0400  1.8069  0.0885
  102ccc    H12 2979   9.156   0.781   3.951  0.9314  0.3294 -2.5708
  102ccc     C8 2980   9.323   0.641   3.975 -0.4647  0.4978  0.1945
  102ccc    H13 2981   9.306   0.604   3.873  0.7520  1.3245 -0.3273
  102ccc    H14 2982   9.432   0.653   3.969 -0.2853 -0.8455  0.4770
  102ccc     C9 2983   9.289   0.539   4.076  0.1097 -0.1395 -0.5849
  102ccc     O4 2984   9.375   0.505   4.158 -0.0256  0.1632 -0.1211
  102ccc     O5 2985   9.192   0.479   4.070  0.0645  0.8091  0.3753
  102ccc     O1 2986   9.205   1.030   3.588  0.6114  0.5362  0.0295
  103ccc     C3 2987   8.947   1.282   2.791  0.6346 -0.5041  0.2390
  103ccc     H5 2988   8.876   1.254   2.713 -2.0024  2.2644  1.3960
  103ccc     H6 2989   8.879   1.287   2.877 -0.6441 -1.3492 -0.6761
  103ccc     C2 2990   9.016   1.420   2.761 -0.0488  0.2780 -0.4541
  103ccc     H3 2991   8.933   1.469   2.710 -1.3767 -2.4794 -1.1631
  103ccc     H4 2992   9.104   1.405   2.696  1.4776 -1.1650  1.8015
  103ccc     C1 2993   9.045   1.508   2.885 -0.5920 -0.7367 -0.9757
  103ccc     H1 2994   9.126   1.455   2.937 -0.3150  1.1593  0.6417
  103ccc     H2 2995   8.959   1.503   2.953  0.1717  1.2367  0.1852
  103ccc     N1 2996   9.085   1.654   2.879  0.1049  0.0294  0.7212
  103ccc     C4 2997   9.100   1.713   3.014 -0.3334 -0.3259  0.0018
  103ccc     H7 2998   9.174   1.794   3.006  0.3219 -0.6290  2.2874
  103ccc     H8 2999   9.149   1.636   3.075  0.5018 -0.2237 -0.5132
  103ccc     C5 3000   8.964   1.765   3.069  0.7967  0.0552  0.0477
  103ccc     H9 3001   8.882   1.695   3.085 -0.2042  1.3495  0.8130
  103ccc    H10 3002   8.991   1.826   3.156  0.8063  0.5135 -0.2712
  103ccc     C6 3003   8.911   1.862   2.965  0.2548 -0.0457  0.2762
  103ccc     O2 3004   8.943   1.980   2.975 -0.4140 -0.3342  0.3610
  103ccc     O3 3005   8.827   1.845   2.883  0.6710 -0.0761  0.4522
  103ccc     C7 3006   9.198   1.681   2.780 -0.4242  1.0569  0.3838
  103ccc    H11 3007   9.290   1.646   2.829  1.4798  1.5531 -2.6086
  103ccc    H12 3008   9.185   1.631   2.684  0.6255  1.3409  0.0718
  103ccc     C8 3009   9.209   1.826   2.743 -0.2605  0.8582 -0.1035
  103ccc    H13 3010   9.224   1.897   2.826 -0.6170  1.8170 -0.8477
  103ccc    H14 3011   9.304   1.836   2.689 -0.4582  0.7123 -0.4743
  103ccc     C9 3012   9.090   1.873   2.658  0.2156  0.2958 -0.2220
  103ccc     O4 3013   9.098   1.831   2.546 -0.2483 -0.4462 -0.6779
  103ccc     O5 3014   9.012   1.962   2.684 -0.5841 -0.0383  0.4397
  103ccc     O1 3015   9.057   1.191   2.800  0.1558 -0.1426  0.0484
  104ccc     C3 3016   9.232  -0.483   2.416 -0.2824  0.5189 -0.1921
  104ccc     H5 3017   9.192  -0.532   2.505 -0.0105  1.0796  0.2441
  104ccc     H6 3018   9.173  -0.512   2.328  0.4318 -2.9638  0.3504
  104ccc     C2 3019   9.375  -0.530   2.399 -1.2525  0.4460 -0.1672
  104ccc     H3 3020   9.380  -0.640   2.401 -2.0178  0.3864 -0.8525
  104ccc     H4 3021   9.431  -0.488   2.484 -2.5433 -0.2419  1.0737
  104ccc     C1 3022   9.433  -0.482   2.269 -0.2412  0.5508 -1.1217
  104ccc     H1 3023   9.455  -0.375   2.280 -0.6026  0.5203  0.1084
  104ccc     H2 3024   9.360  -0.491   2.188 -1.3751  0.9855 -0.1908
  104ccc     N1 3025   9.558  -0.542   2.229 -0.8473  0.2583 -0.3731
  104ccc     C4 3026   9.668  -0.514   2.321  0.3497  0.2367  0.6612
  104ccc     H7 3027   9.627  -0.499   2.422 -1.0482 -0.6924  0.2648
  104ccc     H8 3028   9.714  -0.419   2.290 -0.8609  0.1633 -1.5708
  104ccc     C5 3029   9.768  -0.628   2.339  0.5254  0.2420 -0.1410
  104ccc     H9 3030   9.727  -0.729   2.351  2.1799 -0.2275  2.4067
  104ccc    H10 3031   9.832  -0.626   2.250  0.4201  3.1176 -0.2750
  104ccc     C6 3032   9.849  -0.587   2.455  0.2428  0.2228  0.1064
  104ccc     O2 3033   9.940  -0.511   2.440 -0.0286 -0.2807 -0.2411
  104ccc     O3 3034   9.864  -0.671   2.543  0.1288  0.1253 -0.5570
  104ccc     C7 3035   9.600  -0.534   2.091 -0.0218 -0.4287 -0.1127
  104ccc    H11 3036   9.612  -0.426   2.074 -2.8010  0.0416  0.5440
  104ccc    H12 3037   9.690  -0.595   2.075 -0.2776 -0.5065 -1.3750
  104ccc     C8 3038   9.493  -0.586   1.996 -0.0961  0.0549 -0.1058
  104ccc    H13 3039   9.456  -0.682   2.033 -3.8524  1.9510  1.6107
  104ccc    H14 3040   9.402  -0.525   1.988  0.1454  0.4951  0.3968
  104ccc     C9 3041   9.550  -0.608   1.863 -0.9632 -0.2009  0.1749
  104ccc     O4 3042   9.507  -0.535   1.779 -0.0495  0.4794  0.3818
  104ccc     O5 3043   9.606  -0.716   1.836  0.1187  0.0942  0.2220
  104ccc     O1 3044   9.231  -0.344   2.437  0.0965 -0.5426  0.1030
  105ccc     C3 3045   9.118   0.470   2.486  0.1785 -0.5195  0.2916
  105ccc     H5 3046   9.099   0.550   2.559 -0.1261  1.3319 -1.7485
  105ccc     H6 3047   9.219   0.471   2.442  0.6342 -0.6940  1.2951
  105ccc     C2 3048   9.007   0.465   2.383 -0.1825 -0.4472  0.1417
  105ccc     H3 3049   8.911   0.435   2.427 -0.5612  1.4639  0.6805
  105ccc     H4 3050   9.045   0.385   2.318 -0.3444  0.3243 -0.9359
  105ccc     C1 3051   8.996   0.605   2.314 -0.1957  0.3597 -0.1438
  105ccc     H1 3052   9.097   0.640   2.289 -0.6468  2.2089  0.4932
  105ccc     H2 3053   8.960   0.677   2.388  0.4882  1.4871 -0.8817
  105ccc     N1 3054   8.912   0.614   2.191 -0.2973  0.5963  0.1233
  105ccc     C4 3055   8.778   0.549   2.215 -0.5448 -0.9891  0.4045
  105ccc     H7 3056   8.701   0.615   2.174  1.1777  0.8032 -0.0976
  105ccc     H8 3057   8.753   0.524   2.319 -1.3088 -0.2949  0.3964
  105ccc     C5 3058   8.767   0.425   2.138 -0.2191  0.9740  0.1678
  105ccc     H9 3059   8.824   0.438   2.046 -0.8324  1.3927 -0.1601
  105ccc    H10 3060   8.803   0.338   2.194 -0.0635  1.1810  0.3935
  105ccc     C6 3061   8.626   0.410   2.098 -0.7066  0.5370 -0.4695
  105ccc     O2 3062   8.541   0.376   2.180 -0.4774  0.1582 -0.2910
  105ccc     O3 3063   8.600   0.433   1.982  0.5568 -0.0248  0.0511
  105ccc     C7 3064   8.901   0.750   2.141 -0.5469  0.0270 -0.0370
  105ccc    H11 3065   8.807   0.796   2.171  0.4339  2.4352 -0.4481
  105ccc    H12 3066   8.992   0.799   2.178  1.1467 -1.4530 -1.9145
  105ccc     C8 3067   8.910   0.752   1.992 -0.6461 -0.4128 -0.1206
  105ccc    H13 3068   8.968   0.838   1.957 -2.6822  2.1614  2.3505
  105ccc    H14 3069   8.949   0.659   1.947  0.4703  0.2502 -0.5642
  105ccc     C9 3070   8.776   0.775   1.938  0.1712 -0.1952  0.4935
  105ccc     O4 3071   8.718   0.877   1.944  0.2284 -0.0465  0.3123
  105ccc     O5 3072   8.727   0.692   1.870 -0.4583 -0.5764  0.7610
  105ccc     O1 3073   9.104   0.343   2.558 -0.1039 -0.6062  0.7857
  106ccc     C3 3074   7.504   0.436   4.520 -0.2691  0.1782  0.1832
  106ccc     H5 3075   7.487   0.544   4.527 -0.5322  0.4362 -2.9155
  106ccc     H6 3076   7.469   0.415   4.418  0.5013  3.6315 -0.9175
  106ccc     C2 3077   7.420   0.362   4.626 -0.2971 -1.0781  0.7663
  106ccc     H3 3078   7.461   0.260   4.621  0.9423 -0.6218  1.0839
  106ccc     H4 3079   7.312   0.372   4.612 -0.3175  1.4402  2.1116
  106ccc     C1 3080   7.446   0.418   4.766 -0.2748 -0.8518 -0.1792
  106ccc     H1 3081   7.424   0.525   4.757  0.1741 -0.7292  0.1429
  106ccc     H2 3082   7.553   0.397   4.780 -0.6281 -1.9943  0.9798
  106ccc     N1 3083   7.360   0.352   4.860  0.0494 -0.2343  0.1997
  106ccc     C4 3084   7.415   0.343   4.995 -0.2142 -0.2528 -0.2349
  106ccc     H7 3085   7.340   0.310   5.068  0.3701  1.4483  1.1977
  106ccc     H8 3086   7.445   0.443   5.029  2.9256  0.1682 -3.6034
  106ccc     C5 3087   7.526   0.248   5.014 -1.2709  0.5492  0.3021
  106ccc     H9 3088   7.493   0.149   4.980 -0.7467  0.9694 -1.6126
  106ccc    H10 3089   7.612   0.279   4.953 -1.2993 -1.9543 -1.1624
  106ccc     C6 3090   7.564   0.252   5.160 -0.2120 -0.0671 -0.2729
  106ccc     O2 3091   7.502   0.200   5.246 -0.6383 -0.4040  0.2411
  106ccc     O3 3092   7.649   0.332   5.192 -0.0675  0.3190 -0.0660
  106ccc     C7 3093   7.224   0.418   4.867 -0.4900  0.7740 -0.5017
  106ccc    H11 3094   7.230   0.504   4.935  0.9083  0.0648  0.3051
  106ccc    H12 3095   7.187   0.468   4.776 -1.8371 -0.6776 -0.7969
  106ccc     C8 3096   7.117   0.318   4.920  0.2955 -0.5001  0.2287
  106ccc    H13 3097   7.140   0.222   4.871  1.8112  0.2599 -0.6313
  106ccc    H14 3098   7.116   0.298   5.028 -1.0356 -0.9548  0.1453
  106ccc     C9 3099   6.979   0.367   4.878  0.4080  0.1120  0.2804
  106ccc     O4 3100   6.924   0.312   4.784  0.7543 -0.6069  0.4333
  106ccc     O5 3101   6.914   0.430   4.958 -0.3672  0.2492  0.0127
  106ccc     O1 3102   7.643   0.419   4.536 -0.1867  0.4393 -0.4536
  107ccc     C3 3103   7.665   0.823   4.793 -0.0364 -0.2723 -0.1771
  107ccc     H5 3104   7.642   0.734   4.853  1.4158  1.4875  3.2586
  107ccc     H6 3105   7.763   0.857   4.831 -0.8758 -1.7200  3.7392
  107ccc     C2 3106   7.561   0.940   4.806 -0.4013 -0.3551 -0.6947
  107ccc     H3 3107   7.585   1.032   4.752 -2.5828  0.9906  0.4971
  107ccc     H4 3108   7.558   0.971   4.911  2.9019  0.1207 -0.6261
  107ccc     C1 3109   7.414   0.894   4.769  0.2467  0.5090  0.4511
  107ccc     H1 3110   7.395   0.799   4.820  0.7284  0.7943  1.1787
  107ccc     H2 3111   7.405   0.864   4.664 -1.1733 -2.6731  1.3623
  107ccc     N1 3112   7.301   0.983   4.802 -0.5959  0.4258 -0.6607
  107ccc     C4 3113   7.164   0.919   4.779  0.0351 -0.1321 -0.6222
  107ccc     H7 3114   7.153   0.879   4.677 -0.8591 -1.2310 -0.1171
  107ccc     H8 3115   7.091   0.996   4.805  1.0429  0.2118  1.3682
  107ccc     C5 3116   7.134   0.801   4.873 -0.1379 -0.3941  0.0718
  107ccc     H9 3117   7.202   0.719   4.845  0.4365  0.7127 -1.9853
  107ccc    H10 3118   7.144   0.836   4.976 -2.7193 -0.6103  0.4373
  107ccc     C6 3119   6.990   0.770   4.856  0.3529 -0.2392  0.2158
  107ccc     O2 3120   6.917   0.784   4.954  0.3680 -0.0772 -0.1766
  107ccc     O3 3121   6.952   0.690   4.775  0.1144 -0.1119  0.4873
  107ccc     C7 3122   7.328   1.111   4.732  0.1388 -0.4261  1.1185
  107ccc    H11 3123   7.415   1.166   4.769 -1.2728  1.7604  1.3909
  107ccc    H12 3124   7.350   1.095   4.626  0.8737  0.7117  1.0842
  107ccc     C8 3125   7.210   1.205   4.739 -0.2202  0.6623  0.0022
  107ccc    H13 3126   7.128   1.170   4.675 -0.4585  0.1443  0.5813
  107ccc    H14 3127   7.176   1.214   4.843 -2.2656 -0.8858 -0.4681
  107ccc     C9 3128   7.250   1.333   4.690  0.3258 -0.8125 -0.0408
  107ccc     O4 3129   7.330   1.394   4.755  0.7018 -0.2780  0.0129
  107ccc     O5 3130   7.213   1.381   4.584 -0.1214  0.0974  0.0294
  107ccc     O1 3131   7.673   0.796   4.656  0.5594 -0.6378 -0.1323
  108ccc     C3 3132   8.470  -0.147   4.645 -0.3612  0.6870 -0.7771
  108ccc     H5 3133   8.570  -0.191   4.662 -0.9972 -1.2858 -1.7984
  108ccc     H6 3134   8.393  -0.216   4.680  1.4459 -1.5508 -0.9210
  108ccc     C2 3135   8.466  -0.119   4.495  0.4980  0.2461 -0.0772
  108ccc     H3 3136   8.509  -0.021   4.470 -1.1241  1.3832  1.3896
  108ccc     H4 3137   8.361  -0.103   4.467  0.1877  1.3280  1.5332
  108ccc     C1 3138   8.536  -0.237   4.417 -0.1554  0.2417 -0.2150
  108ccc     H1 3139   8.470  -0.325   4.423 -0.4390  0.4753  0.1574
  108ccc     H2 3140   8.635  -0.253   4.461 -0.1980 -1.3566 -0.6236
  108ccc     N1 3141   8.558  -0.221   4.275  0.2401  0.2227 -0.4419
  108ccc     C4 3142   8.654  -0.111   4.244  0.3229 -0.5083  0.0918
  108ccc     H7 3143   8.615  -0.016   4.280 -1.2701 -0.8236 -0.7067
  108ccc     H8 3144   8.658  -0.109   4.134 -0.1326 -1.1238  0.0556
  108ccc     C5 3145   8.796  -0.139   4.291 -0.3035 -0.7799 -0.4000
  108ccc     H9 3146   8.813  -0.135   4.400 -0.9286 -1.5158 -0.2694
  108ccc    H10 3147   8.849  -0.224   4.248  0.4672 -0.9502  0.8392
  108ccc     C6 3148   8.889  -0.021   4.251 -0.1633 -0.2028 -0.2721
  108ccc     O2 3149   8.915   0.070   4.328 -0.1331 -0.2975 -0.7633
  108ccc     O3 3150   8.969  -0.032   4.165 -0.8086  0.0702  0.0578
  108ccc     C7 3151   8.434  -0.198   4.201 -0.0200 -0.2284  0.1471
  108ccc    H11 3152   8.349  -0.228   4.263  1.2833 -0.9080  1.6874
  108ccc    H12 3153   8.421  -0.097   4.162 -3.3568 -1.6109 -2.8574
  108ccc     C8 3154   8.443  -0.291   4.082  1.0431 -0.8382  0.2276
  108ccc    H13 3155   8.513  -0.241   4.014 -2.0986  1.9582 -1.2311
  108ccc    H14 3156   8.466  -0.397   4.099 -2.0547 -1.9409 -1.6883
  108ccc     C9 3157   8.312  -0.281   4.008 -1.1905 -0.6359 -0.2597
  108ccc     O4 3158   8.205  -0.292   4.065 -0.1486 -0.2163  0.5576
  108ccc     O5 3159   8.299  -0.247   3.890  0.3139  0.5782  0.9840
  108ccc     O1 3160   8.483  -0.027   4.720 -0.0106  0.3358  0.3661
  109ccc     C3 3161   9.106   0.380   4.925  0.4104 -0.9851 -0.1593
  109ccc     H5 3162   9.058   0.461   4.982  2.3112  0.1837 -0.1544
  109ccc     H6 3163   9.185   0.329   4.981 -0.7384 -3.7778 -0.9051
  109ccc     C2 3164   9.167   0.447   4.806  0.1069 -0.2385 -0.6362
  109ccc     H3 3165   9.205   0.368   4.739 -0.3253 -0.5993 -0.4641
  109ccc     H4 3166   9.257   0.503   4.833 -0.3366 -0.0603  0.4894
  109ccc     C1 3167   9.063   0.540   4.732  0.0558 -0.3213 -0.1011
  109ccc     H1 3168   9.039   0.627   4.795 -1.6403 -1.3640  0.7704
  109ccc     H2 3169   8.976   0.478   4.707  0.3902 -1.7530  2.0264
  109ccc     N1 3170   9.121   0.603   4.608 -0.0733 -0.1124 -0.8704
  109ccc     C4 3171   9.168   0.512   4.503 -0.6998 -0.4263  0.2733
  109ccc     H7 3172   9.254   0.452   4.535 -0.0765  0.3302  0.0651
  109ccc     H8 3173   9.200   0.570   4.415 -2.2808  1.5208  0.9198
  109ccc     C5 3174   9.059   0.416   4.457  0.4956 -0.2201 -0.4644
  109ccc     H9 3175   9.019   0.350   4.535  1.4814  0.9914  1.1108
  109ccc    H10 3176   8.983   0.484   4.417  2.5613  2.6777  0.2147
  109ccc     C6 3177   9.108   0.327   4.346 -0.0444 -0.5609 -0.1147
  109ccc     O2 3178   9.044   0.301   4.243  0.2118  0.0089 -0.0633
  109ccc     O3 3179   9.221   0.274   4.355  0.0127 -0.6228 -0.2612
  109ccc     C7 3180   9.232   0.691   4.643 -0.4623  0.5446 -0.6472
  109ccc    H11 3181   9.208   0.730   4.743  0.7452 -2.3148  0.8854
  109ccc    H12 3182   9.327   0.635   4.645 -1.9588 -2.1870  0.1613
  109ccc     C8 3183   9.244   0.807   4.550 -0.2227  0.3457 -0.1288
  109ccc    H13 3184   9.268   0.766   4.451 -1.2342  1.6943 -0.9580
  109ccc    H14 3185   9.145   0.852   4.546 -0.7385 -0.8090 -1.0307
  109ccc     C9 3186   9.352   0.897   4.597  0.2438 -0.4413 -0.1293
  109ccc     O4 3187   9.332   1.015   4.610 -0.0660  0.3077  0.0645
  109ccc     O5 3188   9.465   0.861   4.575  0.1036  0.1446  0.2154
  109ccc     O1 3189   9.016   0.274   4.886 -0.1362 -0.6602  0.1838
  110ccc     C3 3190   8.411   2.975   2.229  0.2697  0.0213  0.3948
  110ccc     H5 3191   8.326   2.909   2.209  0.7344 -0.3231 -0.4741
  110ccc     H6 3192   8.473   2.984   2.140 -0.1320 -0.4689  0.0596
  110ccc     C2 3193   8.495   2.918   2.340 -0.5781  0.2073 -0.1307
  110ccc     H3 3194   8.449   2.893   2.436  1.6899  1.4141  1.3588
  110ccc     H4 3195   8.571   2.987   2.378 -0.5755  0.2642 -0.2366
  110ccc     C1 3196   8.548   2.777   2.286 -0.0935  0.5114  0.2893
  110ccc     H1 3197   8.496   2.739   2.197  0.2238  0.0362  0.3018
  110ccc     H2 3198   8.531   2.699   2.361 -0.6352  1.8004  1.5516
  110ccc     N1 3199   8.697   2.776   2.251 -0.3736 -0.3912 -0.0236
  110ccc     C4 3200   8.724   2.862   2.134  0.0997 -0.2276 -0.1137
  110ccc     H7 3201   8.709   2.966   2.167 -0.4583 -1.0276  2.3806
  110ccc     H8 3202   8.645   2.832   2.064  2.4038  0.2430 -3.1142
  110ccc     C5 3203   8.856   2.837   2.059 -0.3997 -0.2771 -0.4323
  110ccc     H9 3204   8.940   2.886   2.111 -1.6175  1.0188  0.3775
  110ccc    H10 3205   8.877   2.730   2.074  2.4471  0.1011 -1.1358
  110ccc     C6 3206   8.862   2.861   1.919  0.3823 -0.0089  0.0074
  110ccc     O2 3207   8.929   2.790   1.846  0.3331  0.5053 -0.5912
  110ccc     O3 3208   8.842   2.973   1.881  0.1619 -0.1691 -0.3002
  110ccc     C7 3209   8.792   2.813   2.355  0.3257  0.3585  0.0468
  110ccc    H11 3210   8.896   2.808   2.320  0.4317 -1.9584  0.5645
  110ccc    H12 3211   8.771   2.913   2.397  1.7347  0.9881 -0.6899
  110ccc     C8 3212   8.784   2.702   2.463 -0.2031 -0.0261 -0.3313
  110ccc    H13 3213   8.690   2.722   2.516 -0.3004  2.4971 -1.2988
  110ccc    H14 3214   8.788   2.603   2.417  1.5726 -0.5908  0.8956
  110ccc     C9 3215   8.905   2.725   2.549  0.4084 -0.0036  0.5006
  110ccc     O4 3216   8.907   2.791   2.654  0.0788 -0.3124  0.8674
  110ccc     O5 3217   9.008   2.669   2.521  0.1180  1.0559 -0.1206
  110ccc     O1 3218   8.367   3.108   2.260  0.6088 -0.7815  0.0973
  111ccc     C3 3219   8.017   2.987   1.643 -0.5280  0.3852 -0.4959
  111ccc     H5 3220   8.084   2.902   1.623 -0.0720  0.4974  0.4567
  111ccc     H6 3221   8.001   2.989   1.752 -2.5684  0.5212 -0.7540
  111ccc     C2 3222   7.890   2.939   1.578  0.4930 -0.2201 -0.9771
  111ccc     H3 3223   7.870   2.833   1.598  0.5640  0.0303  0.5455
  111ccc     H4 3224   7.903   2.939   1.469 -1.1319 -0.6550 -1.2040
  111ccc     C1 3225   7.766   3.020   1.608  0.0836  0.2470 -0.4729
  111ccc     H1 3226   7.779   3.119   1.562 -2.2012  1.3766  1.1109
  111ccc     H2 3227   7.755   3.033   1.717 -0.2661  1.7682 -0.6591
  111ccc     N1 3228   7.637   2.966   1.552 -0.1332 -0.0519 -0.8610
  111ccc     C4 3229   7.514   3.045   1.585 -1.2595 -0.6390 -0.4085
  111ccc     H7 3230   7.510   3.130   1.516  0.0249 -1.0930 -1.0713
  111ccc     H8 3231   7.524   3.083   1.688  0.9894 -0.0927 -0.7767
  111ccc     C5 3232   7.385   2.959   1.573  0.6150 -0.5013  0.5025
  111ccc     H9 3233   7.350   2.949   1.470  2.1061  3.2880 -0.5278
  111ccc    H10 3234   7.402   2.860   1.617  0.4865 -0.4427  0.6868
  111ccc     C6 3235   7.285   3.035   1.650  0.6518  0.1823 -0.0083
  111ccc     O2 3236   7.269   3.004   1.765 -0.1330  0.3710  0.1969
  111ccc     O3 3237   7.184   3.084   1.599 -0.3163 -0.0581  0.6155
  111ccc     C7 3238   7.637   2.905   1.417  0.4152 -0.0039 -0.0307
  111ccc    H11 3239   7.710   2.824   1.428 -0.5314 -0.7611  0.9515
  111ccc    H12 3240   7.543   2.850   1.402  0.3009  0.5814 -1.6255
  111ccc     C8 3241   7.668   3.001   1.306 -0.5701 -0.5292 -0.6692
  111ccc    H13 3242   7.598   3.086   1.308 -0.0516 -0.0391  2.6102
  111ccc    H14 3243   7.769   3.043   1.314 -1.2957  0.9613  1.6315
  111ccc     C9 3244   7.656   2.940   1.178  0.2814 -0.4327  0.5705
  111ccc     O4 3245   7.550   2.929   1.125 -0.2886  0.2808  0.4747
  111ccc     O5 3246   7.757   2.928   1.108 -0.2647  0.3923 -0.3763
  111ccc     O1 3247   8.055   3.109   1.581  0.5589 -0.2318 -0.3339
  112ccc     C3 3248   8.143   2.149   2.266 -0.0820  0.3470 -0.4235
  112ccc     H5 3249   8.080   2.199   2.340 -1.3227  0.7489 -1.6947
  112ccc     H6 3250   8.110   2.045   2.253  0.3310  0.4033 -2.1521
  112ccc     C2 3251   8.291   2.136   2.304 -0.2200  0.1292  0.5675
  112ccc     H3 3252   8.294   2.112   2.411 -0.4290  1.6732  0.9565
  112ccc     H4 3253   8.350   2.227   2.286  0.6163 -0.4907  0.1378
  112ccc     C1 3254   8.363   2.031   2.208 -0.2515 -0.4296 -0.6043
  112ccc     H1 3255   8.357   2.068   2.105 -2.2655  1.6611  0.1847
  112ccc     H2 3256   8.300   1.941   2.209  0.1914 -0.7573 -1.4722
  112ccc     N1 3257   8.500   1.989   2.244  0.2318 -0.2329  0.0125
  112ccc     C4 3258   8.571   1.916   2.137 -0.2859 -0.1355  0.6330
  112ccc     H7 3259   8.551   1.960   2.038  1.1936  0.2037  0.4702
  112ccc     H8 3260   8.534   1.813   2.132  0.1170 -0.2480 -0.2232
  112ccc     C5 3261   8.717   1.922   2.155 -0.1150  0.6059  0.3792
  112ccc     H9 3262   8.772   1.914   2.060 -1.5065  0.3761 -0.4236
  112ccc    H10 3263   8.750   2.023   2.183 -1.6641  1.1153  0.4401
  112ccc     C6 3264   8.766   1.818   2.252 -0.4582 -0.2749 -1.3553
  112ccc     O2 3265   8.867   1.841   2.321  0.6610 -0.2721  0.1123
  112ccc     O3 3266   8.743   1.702   2.230  0.4799  0.2776  0.0237
  112ccc     C7 3267   8.508   1.928   2.375  0.9177  0.4297  0.0549
  112ccc    H11 3268   8.406   1.933   2.416  1.3025  0.1795  1.0866
  112ccc    H12 3269   8.530   1.820   2.379 -2.3501 -0.3620  0.0305
  112ccc     C8 3270   8.595   2.013   2.472 -0.3712  0.3049  0.1425
  112ccc    H13 3271   8.688   2.042   2.422  0.1250 -0.3807  0.6552
  112ccc    H14 3272   8.545   2.107   2.494 -0.0732  0.3835  0.4832
  112ccc     C9 3273   8.614   1.935   2.592 -0.6742 -0.4666 -0.1543
  112ccc     O4 3274   8.533   1.875   2.657  0.3038 -0.3134  0.1512
  112ccc     O5 3275   8.732   1.917   2.617  0.3473  0.0901  0.1704
  112ccc     O1 3276   8.129   2.223   2.142  0.9187  0.6138  0.2270
  113ccc     C3 3277   8.544   2.352   1.994  0.7462  0.4170  0.2413
  113ccc     H5 3278   8.525   2.383   2.097 -1.9777 -1.7282  0.4835
  113ccc     H6 3279   8.477   2.267   1.982  1.0219 -0.1875  2.5559
  113ccc     C2 3280   8.687   2.313   1.987  0.2042  0.4659 -0.3182
  113ccc     H3 3281   8.719   2.284   1.887  0.4517 -1.4096  0.2668
  113ccc     H4 3282   8.692   2.227   2.056 -2.3115  1.7819  1.7250
  113ccc     C1 3283   8.781   2.416   2.050 -0.2860  0.1767  0.2237
  113ccc     H1 3284   8.747   2.443   2.151 -1.4327 -0.5340  0.0561
  113ccc     H2 3285   8.767   2.508   1.992  1.5168  0.5899  0.3772
  113ccc     N1 3286   8.920   2.372   2.059 -0.1047 -0.2022  0.4181
  113ccc     C4 3287   8.984   2.367   2.197 -0.2764  0.2898  0.0013
  113ccc     H7 3288   8.984   2.463   2.250 -1.7306 -1.7745  4.2076
  113ccc     H8 3289   9.087   2.331   2.196 -0.3321  0.1367 -0.9739
  113ccc     C5 3290   8.907   2.265   2.281  0.3498 -0.3786 -0.0730
  113ccc     H9 3291   8.815   2.317   2.310  1.0904  0.7839  0.2720
  113ccc    H10 3292   8.892   2.164   2.240 -0.6485  0.1354 -1.0298
  113ccc     C6 3293   8.990   2.236   2.402  0.4558 -0.8675  0.2621
  113ccc     O2 3294   8.978   2.135   2.468 -0.5479 -0.0382  0.3225
  113ccc     O3 3295   9.081   2.308   2.436 -0.1222 -0.4495  0.7877
  113ccc     C7 3296   8.997   2.454   1.958  0.5044  0.3065 -0.0545
  113ccc    H11 3297   8.940   2.446   1.865 -0.4455  0.3673  0.5068
  113ccc    H12 3298   9.005   2.553   2.003  1.2486  0.1226  0.2380
  113ccc     C8 3299   9.139   2.398   1.927 -0.5729 -0.3674 -0.4502
  113ccc    H13 3300   9.201   2.414   2.017 -0.1912  0.2815 -0.8166
  113ccc    H14 3301   9.141   2.291   1.907  1.8926 -0.1574 -1.7768
  113ccc     C9 3302   9.189   2.472   1.811  0.5608  0.0950 -0.3111
  113ccc     O4 3303   9.231   2.407   1.720  0.2147 -0.0840 -0.3709
  113ccc     O5 3304   9.240   2.580   1.818 -0.5940 -0.2569  0.2480
  113ccc     O1 3305   8.527   2.459   1.904  0.1415  0.1904 -0.2756
  114ccc     C3 3306   6.533   2.454   1.964  0.1807  0.1456 -0.6410
  114ccc     H5 3307   6.597   2.447   1.875  0.2031 -4.1432 -0.5082
  114ccc     H6 3308   6.483   2.357   1.965  1.4913 -0.5941 -2.1588
  114ccc     C2 3309   6.427   2.567   1.947 -0.0308  0.2155  0.4504
  114ccc     H3 3310   6.462   2.654   1.889  2.9425 -0.7299  0.6619
  114ccc     H4 3311   6.411   2.609   2.047 -0.1943 -0.3438  0.6616
  114ccc     C1 3312   6.294   2.526   1.875 -0.2511 -0.2670 -0.9926
  114ccc     H1 3313   6.212   2.599   1.877  1.8918  2.2540  0.2068
  114ccc     H2 3314   6.263   2.436   1.929 -0.7888  1.1208  1.1082
  114ccc     N1 3315   6.322   2.491   1.738  0.1459 -0.5505  0.0920
  114ccc     C4 3316   6.211   2.416   1.678 -0.5379  0.1019 -0.4073
  114ccc     H7 3317   6.187   2.330   1.742  0.7727 -0.4265 -0.5901
  114ccc     H8 3318   6.243   2.378   1.580  2.9709  1.0633  0.2262
  114ccc     C5 3319   6.091   2.500   1.673  0.5714 -0.8837  0.2461
  114ccc     H9 3320   6.044   2.505   1.772  1.1519 -0.7551  0.5212
  114ccc    H10 3321   6.113   2.599   1.631 -0.0926 -1.6394 -2.0821
  114ccc     C6 3322   5.986   2.438   1.573  0.2545  0.0807 -0.3123
  114ccc     O2 3323   5.954   2.497   1.471  0.0386 -0.1727 -0.7686
  114ccc     O3 3324   5.905   2.363   1.615  0.2506 -0.2878  0.0833
  114ccc     C7 3325   6.374   2.603   1.655 -0.2215  0.0589  0.6916
  114ccc    H11 3326   6.321   2.605   1.559  2.2043  3.9835 -0.8453
  114ccc    H12 3327   6.358   2.705   1.692 -2.6896  0.0337 -0.1433
  114ccc     C8 3328   6.533   2.593   1.623  0.4466  0.1411 -0.7013
  114ccc    H13 3329   6.592   2.591   1.716  0.8804 -3.0556 -0.9426
  114ccc    H14 3330   6.567   2.507   1.565 -0.3911 -0.9455  0.3486
  114ccc     C9 3331   6.577   2.717   1.560 -0.5210 -0.0999  0.2155
  114ccc     O4 3332   6.596   2.824   1.619  0.0196 -0.7054 -0.8622
  114ccc     O5 3333   6.599   2.710   1.444  0.4520  0.1955  0.8090
  114ccc     O1 3334   6.611   2.490   2.076  0.0520  0.1691 -0.2672
  115ccc     C3 3335   6.713   2.301   2.855 -0.3134 -0.4212 -0.0391
  115ccc     H5 3336   6.635   2.374   2.831  2.5548  2.7808 -0.3709
  115ccc     H6 3337   6.678   2.200   2.883  0.7037 -0.5382  0.8929
  115ccc     C2 3338   6.800   2.364   2.968 -0.7550 -0.2435  0.5559
  115ccc     H3 3339   6.738   2.395   3.053  0.3162  0.1032  1.2361
  115ccc     H4 3340   6.845   2.457   2.932  2.0385 -1.4187  0.7315
  115ccc     C1 3341   6.903   2.256   3.014 -0.3862 -0.2624 -0.2384
  115ccc     H1 3342   6.974   2.215   2.941 -0.4689  0.8958 -1.0085
  115ccc     H2 3343   6.850   2.168   3.050 -0.8225  0.1498  0.1430
  115ccc     N1 3344   6.997   2.309   3.125  0.0272  0.3356 -0.2817
  115ccc     C4 3345   7.093   2.201   3.168 -0.0823  0.6885 -0.1994
  115ccc     H7 3346   7.188   2.196   3.113  0.5196  0.2615  0.8449
  115ccc     H8 3347   7.038   2.107   3.160 -0.7950  0.9093  1.6648
  115ccc     C5 3348   7.139   2.197   3.312  0.0516 -0.5566  0.0909
  115ccc     H9 3349   7.193   2.287   3.342 -1.4177  0.1165  0.8173
  115ccc    H10 3350   7.064   2.183   3.391  0.0173 -1.8691 -0.1475
  115ccc     C6 3351   7.236   2.082   3.318  0.1308 -0.1425 -0.9977
  115ccc     O2 3352   7.357   2.103   3.318 -0.1984 -0.2058 -0.2576
  115ccc     O3 3353   7.196   1.966   3.307 -0.0115 -0.7018  0.4098
  115ccc     C7 3354   7.075   2.424   3.072 -0.0673 -0.2499  0.4093
  115ccc    H11 3355   7.099   2.415   2.966  4.5306  2.7706  0.9246
  115ccc    H12 3356   7.010   2.513   3.071  0.5289  0.2131  1.2970
  115ccc     C8 3357   7.195   2.476   3.147 -1.1109 -0.6339 -0.4881
  115ccc    H13 3358   7.184   2.508   3.252 -0.9015  0.9836 -0.9272
  115ccc    H14 3359   7.275   2.401   3.142  0.2207  0.6125  0.9148
  115ccc     C9 3360   7.240   2.602   3.078 -0.4618  0.5888 -0.4096
  115ccc     O4 3361   7.200   2.647   2.969 -0.1367  1.1777 -0.1788
  115ccc     O5 3362   7.341   2.657   3.114 -0.3437  0.0557  0.1107
  115ccc     O1 3363   6.803   2.295   2.745 -0.2467 -0.2368 -0.2386
  116ccc     C3 3364   6.456   2.245   2.277  0.2305 -0.6915 -0.2666
  116ccc     H5 3365   6.513   2.275   2.366 -0.8803  0.1708  0.1778
  116ccc     H6 3366   6.522   2.275   2.195 -0.1854  2.7831  0.5229
  116ccc     C2 3367   6.320   2.322   2.277  0.1230  0.6495 -0.2368
  116ccc     H3 3368   6.268   2.288   2.187  0.1522 -0.7275  0.2519
  116ccc     H4 3369   6.330   2.430   2.259  0.1393  0.3739 -2.0291
  116ccc     C1 3370   6.234   2.274   2.401 -0.0256 -0.2190 -0.3993
  116ccc     H1 3371   6.190   2.180   2.365 -2.0174  1.1456 -1.7582
  116ccc     H2 3372   6.155   2.348   2.420 -1.7151 -1.0381 -3.4173
  116ccc     N1 3373   6.323   2.260   2.517  0.2794 -0.0279 -0.1621
  116ccc     C4 3374   6.353   2.377   2.600 -0.3988 -0.5492 -0.3937
  116ccc     H7 3375   6.361   2.464   2.533 -0.2171  0.9121  1.4311
  116ccc     H8 3376   6.450   2.361   2.649  0.6890 -1.1622 -2.6068
  116ccc     C5 3377   6.235   2.416   2.699  0.1781 -0.4753 -0.0438
  116ccc     H9 3378   6.137   2.407   2.649  0.4435 -0.1279 -0.6374
  116ccc    H10 3379   6.244   2.350   2.786 -0.7461 -1.0634 -0.3756
  116ccc     C6 3380   6.245   2.562   2.739 -0.6013  0.2751  1.0713
  116ccc     O2 3381   6.298   2.579   2.844 -0.4493 -0.1739 -0.7243
  116ccc     O3 3382   6.237   2.658   2.662 -0.0087  0.0105  0.2002
  116ccc     C7 3383   6.293   2.140   2.594 -0.0546  0.3039  0.4972
  116ccc    H11 3384   6.198   2.151   2.648 -0.9346  0.6890 -1.0656
  116ccc    H12 3385   6.271   2.055   2.528 -0.0785  0.0479  0.8309
  116ccc     C8 3386   6.392   2.077   2.687  0.1481 -0.3117  0.5138
  116ccc    H13 3387   6.488   2.082   2.635  0.6131  1.1985  1.4634
  116ccc    H14 3388   6.400   2.141   2.776 -0.0437  1.9329 -1.0025
  116ccc     C9 3389   6.351   1.944   2.742  0.5131 -0.9454 -0.0917
  116ccc     O4 3390   6.236   1.909   2.732 -0.1779  0.0018  0.3314
  116ccc     O5 3391   6.421   1.879   2.812 -0.2837 -0.0386  0.3054
  116ccc     O1 3392   6.428   2.106   2.276 -0.1894  0.0446  0.0176
  117ccc     C3 3393   6.995   1.802   2.713 -0.0104  0.6543  0.2337
  117ccc     H5 3394   6.988   1.694   2.701  2.1124  0.5140 -0.1252
  117ccc     H6 3395   7.009   1.847   2.613 -0.7329 -0.7346 -0.5073
  117ccc     C2 3396   7.118   1.838   2.805  0.0228  0.3492 -0.2792
  117ccc     H3 3397   7.193   1.764   2.775 -1.1232 -1.1798  0.5163
  117ccc     H4 3398   7.089   1.825   2.910 -1.5526 -0.3629 -0.7795
  117ccc     C1 3399   7.157   1.993   2.783  0.5500 -0.4333  0.1128
  117ccc     H1 3400   7.085   2.069   2.818  0.7276 -0.4206  0.4509
  117ccc     H2 3401   7.148   2.016   2.676  0.7447  3.4048  0.7792
  117ccc     N1 3402   7.294   2.034   2.822 -0.6835 -0.2398 -0.0693
  117ccc     C4 3403   7.300   2.182   2.804  0.1544  0.8970  0.6251
  117ccc     H7 3404   7.396   2.207   2.850  1.0472 -0.8193 -0.1838
  117ccc     H8 3405   7.217   2.235   2.853 -2.4069 -0.2887 -2.1662
  117ccc     C5 3406   7.297   2.223   2.655  0.6519  0.3161  0.0381
  117ccc     H9 3407   7.358   2.161   2.589 -0.6851 -0.7004 -0.2798
  117ccc    H10 3408   7.194   2.240   2.620  0.1908 -0.8938  0.7384
  117ccc     C6 3409   7.356   2.360   2.647 -0.1953 -0.1790  0.5350
  117ccc     O2 3410   7.477   2.372   2.635  0.3531 -0.3129  0.2274
  117ccc     O3 3411   7.290   2.457   2.680  0.0703  0.1662 -0.1163
  117ccc     C7 3412   7.336   1.987   2.959  0.9135  0.1003  0.0137
  117ccc    H11 3413   7.280   2.042   3.036  0.8581 -0.9494  0.7418
  117ccc    H12 3414   7.322   1.879   2.972  0.2306  0.3716  1.7696
  117ccc     C8 3415   7.477   2.027   2.997  0.3254 -0.8070  0.0448
  117ccc    H13 3416   7.533   2.007   2.905  0.2920  0.2455 -0.2120
  117ccc    H14 3417   7.482   2.134   3.017  0.0925 -0.1720 -2.8502
  117ccc     C9 3418   7.529   1.956   3.114  0.3284 -0.5039  0.0263
  117ccc     O4 3419   7.468   1.863   3.164  0.1984  0.1830 -0.2834
  117ccc     O5 3420   7.617   2.001   3.189 -0.4336  0.1948  0.3083
  117ccc     O1 3421   6.880   1.867   2.773 -0.1571  0.0189  0.2764
  118ccc     C3 3422   6.413   0.512   3.882 -0.5259  0.2141  0.2449
  118ccc     H5 3423   6.370   0.414   3.910  0.4109 -0.3544 -0.2635
  118ccc     H6 3424   6.505   0.531   3.939  0.2381 -2.0486 -0.1404
  118ccc     C2 3425   6.307   0.616   3.920  0.1210  0.0334 -0.1718
  118ccc     H3 3426   6.222   0.575   3.975 -0.2222  0.5880 -0.2872
  118ccc     H4 3427   6.263   0.653   3.827  0.8984 -0.6650 -0.8416
  118ccc     C1 3428   6.366   0.734   4.001  0.2491  0.6807  0.0971
  118ccc     H1 3429   6.406   0.704   4.098  0.4402 -1.9307 -0.7136
  118ccc     H2 3430   6.279   0.796   4.025  0.1383 -0.0009  1.5567
  118ccc     N1 3431   6.470   0.809   3.925 -0.1825 -0.0548  0.3317
  118ccc     C4 3432   6.414   0.905   3.830  0.3713  0.1598  0.7595
  118ccc     H7 3433   6.400   1.004   3.876  0.4628 -0.3208  1.8471
  118ccc     H8 3434   6.314   0.874   3.797  0.8426  2.4658 -3.4549
  118ccc     C5 3435   6.513   0.924   3.715  0.1124  0.1337  0.2121
  118ccc     H9 3436   6.604   0.976   3.747 -0.1944  1.3164 -0.7312
  118ccc    H10 3437   6.531   0.827   3.668  0.0336 -0.1015  0.6642
  118ccc     C6 3438   6.459   1.014   3.615 -0.1681  0.7424  0.3353
  118ccc     O2 3439   6.406   0.973   3.518  0.1137 -0.0110  0.6112
  118ccc     O3 3440   6.444   1.132   3.635 -0.1409  0.1675  0.3738
  118ccc     C7 3441   6.578   0.861   4.013  0.4344  0.3679  0.2245
  118ccc    H11 3442   6.629   0.946   3.967  2.6528 -0.7782  0.4305
  118ccc    H12 3443   6.537   0.899   4.107  0.2769 -0.4809  0.5063
  118ccc     C8 3444   6.685   0.755   4.019  0.1404 -0.6959 -0.1303
  118ccc    H13 3445   6.657   0.681   4.095  1.6815 -0.1453  1.0332
  118ccc    H14 3446   6.707   0.701   3.926 -0.0595 -1.5261  0.2993
  118ccc     C9 3447   6.813   0.823   4.073  0.1816  0.2216 -0.2552
  118ccc     O4 3448   6.909   0.833   3.998 -0.4416  0.3869 -0.2625
  118ccc     O5 3449   6.844   0.822   4.189  0.4823 -0.1149  0.2673
  118ccc     O1 3450   6.440   0.530   3.740 -0.5907  0.0676 -0.2481
  119ccc     C3 3451   6.771  -0.266   3.935 -0.5988 -0.2227  0.4306
  119ccc     H5 3452   6.682  -0.312   3.980 -0.0808 -0.5526  1.1455
  119ccc     H6 3453   6.828  -0.349   3.892 -0.8531  0.1709 -0.6936
  119ccc     C2 3454   6.848  -0.195   4.050  0.0134 -0.0417  0.4382
  119ccc     H3 3455   6.862  -0.267   4.132  2.4290  0.0668  0.1919
  119ccc     H4 3456   6.785  -0.112   4.085 -0.7187 -0.4652  0.1616
  119ccc     C1 3457   6.985  -0.134   4.007 -0.5132 -0.6249  0.3997
  119ccc     H1 3458   6.975  -0.052   3.935  1.5381 -0.7275 -0.0600
  119ccc     H2 3459   7.031  -0.210   3.942 -0.1607 -1.0937  1.1869
  119ccc     N1 3460   7.079  -0.092   4.112  0.1049 -0.3772 -0.0981
  119ccc     C4 3461   7.017   0.012   4.198  0.2663 -0.3085  0.6486
  119ccc     H7 3462   6.936  -0.037   4.253  0.0100  0.1294  0.6608
  119ccc     H8 3463   6.978   0.082   4.124  1.5612 -0.6788 -0.4303
  119ccc     C5 3464   7.111   0.079   4.304  0.1629 -0.2799 -0.0775
  119ccc     H9 3465   7.162   0.010   4.373  2.2054  2.6456  1.5528
  119ccc    H10 3466   7.189   0.146   4.267  0.5886  1.6367  3.8469
  119ccc     C6 3467   7.030   0.169   4.395  0.1259  0.0626 -0.2832
  119ccc     O2 3468   7.004   0.289   4.377 -0.0287  0.1789 -0.0639
  119ccc     O3 3469   6.989   0.125   4.501 -0.7871 -0.7087 -0.0193
  119ccc     C7 3470   7.203  -0.039   4.049 -0.3480  0.4479 -0.0470
  119ccc    H11 3471   7.183   0.052   3.992 -3.5361  0.5282  0.9789
  119ccc    H12 3472   7.273  -0.002   4.125  2.0449 -0.7273 -1.5613
  119ccc     C8 3473   7.284  -0.143   3.960  0.2806 -0.5327 -1.3746
  119ccc    H13 3474   7.281  -0.237   4.017  1.1844 -0.9702 -2.0075
  119ccc    H14 3475   7.259  -0.168   3.856  1.5824 -1.2508 -1.5281
  119ccc     C9 3476   7.426  -0.103   3.961 -0.2137  0.0351 -0.3890
  119ccc     O4 3477   7.464   0.012   3.946 -0.3984 -0.4277  0.4610
  119ccc     O5 3478   7.513  -0.182   3.986 -0.4169 -0.6362  0.6599
  119ccc     O1 3479   6.732  -0.171   3.834  0.1359 -0.0705 -0.3909
  120ccc     C3 3480   6.631  -0.150   1.692 -0.8173 -0.3450 -0.1763
  120ccc     H5 3481   6.546  -0.095   1.734  0.6280  0.4185  1.9101
  120ccc     H6 3482   6.662  -0.119   1.591  1.2092 -2.8179 -0.4306
  120ccc     C2 3483   6.614  -0.306   1.687 -0.2597  0.7644 -0.1828
  120ccc     H3 3484   6.538  -0.330   1.611  0.2168 -1.5038 -0.0118
  120ccc     H4 3485   6.573  -0.339   1.783 -1.5117  0.3477 -0.8311
  120ccc     C1 3486   6.747  -0.374   1.652  0.3279 -0.3369 -0.0996
  120ccc     H1 3487   6.728  -0.481   1.643 -3.5181  0.1412  0.5750
  120ccc     H2 3488   6.820  -0.379   1.735 -0.2588 -1.0501  0.3827
  120ccc     N1 3489   6.803  -0.336   1.521  0.4386  0.2171  0.4959
  120ccc     C4 3490   6.711  -0.364   1.407 -0.5352  0.5432 -0.7225
  120ccc     H7 3491   6.608  -0.332   1.424 -0.3233  0.0345  1.7662
  120ccc     H8 3492   6.719  -0.473   1.401  1.6040  0.4931  1.5077
  120ccc     C5 3493   6.743  -0.299   1.284 -0.0605 -0.2411 -0.7114
  120ccc     H9 3494   6.841  -0.334   1.248  2.0068  2.5195  1.6938
  120ccc    H10 3495   6.655  -0.316   1.221 -0.3571  0.5168 -0.5176
  120ccc     C6 3496   6.772  -0.155   1.307 -0.1939  0.4448 -0.0557
  120ccc     O2 3497   6.694  -0.069   1.282 -0.1624 -1.0995  0.6189
  120ccc     O3 3498   6.885  -0.116   1.301  0.3054 -0.3405 -0.7799
  120ccc     C7 3499   6.945  -0.372   1.508 -0.4232 -0.2159 -0.0371
  120ccc    H11 3500   6.970  -0.477   1.531  0.6825 -0.4837 -2.2070
  120ccc    H12 3501   6.975  -0.358   1.403 -2.5963 -0.5466 -0.7753
  120ccc     C8 3502   7.032  -0.286   1.593 -0.0106 -0.0095  0.5609
  120ccc    H13 3503   6.998  -0.182   1.591 -0.8931 -0.2707 -2.0805
  120ccc    H14 3504   7.036  -0.315   1.699  0.0027 -1.0314  0.2975
  120ccc     C9 3505   7.167  -0.283   1.536 -0.7617  0.7156  0.9035
  120ccc     O4 3506   7.259  -0.288   1.611  0.0499 -0.0354 -0.0128
  120ccc     O5 3507   7.180  -0.215   1.436  0.0817  0.0022  0.6893
  120ccc     O1 3508   6.734  -0.134   1.784  0.0110  0.4578  0.1132
  121ccc     C3 3509   7.555   0.360   2.096  0.0656 -0.7180 -0.5846
  121ccc     H5 3510   7.559   0.464   2.061  0.2455 -0.5096  0.0304
  121ccc     H6 3511   7.574   0.353   2.204 -0.9109 -2.4451 -0.4971
  121ccc     C2 3512   7.648   0.276   2.014 -0.6199 -0.0514 -0.0821
  121ccc     H3 3513   7.748   0.321   2.007 -1.3107  1.7146  0.8795
  121ccc     H4 3514   7.604   0.261   1.915 -1.0239 -1.0285  0.2279
  121ccc     C1 3515   7.659   0.133   2.080 -0.2687 -0.0011  1.1387
  121ccc     H1 3516   7.560   0.088   2.094  1.2261 -3.6800  0.9121
  121ccc     H2 3517   7.707   0.141   2.178  1.6061 -1.1415  0.3757
  121ccc     N1 3518   7.743   0.030   2.007  0.2609 -0.6745 -0.2427
  121ccc     C4 3519   7.689  -0.008   1.874 -0.2072  0.2551  0.3144
  121ccc     H7 3520   7.747  -0.097   1.844  0.4844  0.9423 -0.4151
  121ccc     H8 3521   7.692   0.069   1.796  1.1726  2.1989  2.1780
  121ccc     C5 3522   7.554  -0.073   1.879  0.4714  0.0459  0.0879
  121ccc     H9 3523   7.563  -0.168   1.935 -0.9843 -1.9205 -2.7670
  121ccc    H10 3524   7.483  -0.003   1.925  1.5637  0.6020  0.9752
  121ccc     C6 3525   7.509  -0.100   1.738  0.3913 -0.1747 -0.7178
  121ccc     O2 3526   7.568  -0.181   1.671  0.2877 -0.3948 -0.1304
  121ccc     O3 3527   7.419  -0.032   1.694 -0.3569 -0.2205  0.4023
  121ccc     C7 3528   7.880   0.075   1.999 -0.0830 -0.2846  0.1292
  121ccc    H11 3529   7.889   0.151   1.921 -0.5566  0.4742  0.7930
  121ccc    H12 3530   7.908   0.125   2.093  1.7056 -2.5650  0.9171
  121ccc     C8 3531   7.981  -0.045   1.982  0.4093 -0.2721  0.9276
  121ccc    H13 3532   7.970  -0.127   2.053 -2.0253 -0.8967 -0.0934
  121ccc    H14 3533   7.983  -0.073   1.876 -1.5634  2.4472  0.0550
  121ccc     C9 3534   8.123  -0.001   2.006  0.5693  0.5569  0.8679
  121ccc     O4 3535   8.181   0.051   1.914  0.1127 -0.3445  0.6868
  121ccc     O5 3536   8.153   0.044   2.113 -0.1233  0.2894 -0.0514
  121ccc     O1 3537   7.419   0.305   2.085 -0.1231 -0.5313 -0.1453
  122ccc     C3 3538   6.260   2.076   1.772 -0.1628 -0.3675 -0.3696
  122ccc     H5 3539   6.266   2.164   1.837  1.0544  0.8153 -2.0047
  122ccc     H6 3540   6.224   2.113   1.674  0.9055 -2.8390 -1.8003
  122ccc     C2 3541   6.156   1.976   1.830 -0.0821 -0.1966 -0.2992
  122ccc     H3 3542   6.136   1.893   1.761 -3.2906  0.6325 -0.5571
  122ccc     H4 3543   6.054   2.013   1.848 -0.8902 -2.5923  0.3785
  122ccc     C1 3544   6.194   1.925   1.969 -0.1558 -0.2077  0.2163
  122ccc     H1 3545   6.220   2.017   2.022  1.3601 -0.5485  0.1046
  122ccc     H2 3546   6.282   1.861   1.959  1.2864  1.0513  3.6221
  122ccc     N1 3547   6.080   1.849   2.028 -0.1186 -0.4722  0.2604
  122ccc     C4 3548   6.004   1.751   1.960 -0.2308  0.2211  0.5371
  122ccc     H7 3549   5.981   1.789   1.860 -2.4492  0.2494  1.0048
  122ccc     H8 3550   5.905   1.735   2.004  0.1064 -0.8775  0.9526
  122ccc     C5 3551   6.077   1.616   1.946  0.3655 -0.2688 -0.3407
  122ccc     H9 3552   6.174   1.639   1.899  0.6196 -2.9080 -1.2951
  122ccc    H10 3553   6.094   1.559   2.039  0.0745 -0.1647 -0.2245
  122ccc     C6 3554   6.002   1.529   1.851  0.4545  0.4480  0.9991
  122ccc     O2 3555   5.973   1.574   1.743  0.1957  0.4341  0.0759
  122ccc     O3 3556   5.991   1.410   1.876  0.6618 -0.2071 -0.5834
  122ccc     C7 3557   6.081   1.818   2.169 -0.1585 -0.7697 -0.0065
  122ccc    H11 3558   5.977   1.799   2.199 -0.0148  2.8189  3.5454
  122ccc    H12 3559   6.142   1.728   2.185  1.3207  0.3239  0.7339
  122ccc     C8 3560   6.125   1.928   2.264  0.0240  0.7784 -0.3017
  122ccc    H13 3561   6.221   1.977   2.242  0.1317  1.1169  0.8368
  122ccc    H14 3562   6.049   2.007   2.262  1.3827  2.1131 -1.8856
  122ccc     C9 3563   6.136   1.861   2.398 -0.7770 -0.2941  0.1872
  122ccc     O4 3564   6.223   1.778   2.408  0.1514 -0.0940 -0.0380
  122ccc     O5 3565   6.053   1.867   2.483  0.1160  0.3296 -0.2140
  122ccc     O1 3566   6.393   2.017   1.753  0.0972  0.0986 -1.2937
  123ccc     C3 3567   6.715   1.450   1.722  0.4419 -0.1874 -0.1986
  123ccc     H5 3568   6.810   1.429   1.671  0.1473  1.0358 -1.3122
  123ccc     H6 3569   6.678   1.358   1.769 -0.3775 -0.2678 -0.9669
  123ccc     C2 3570   6.606   1.513   1.637 -0.0256 -0.2841  0.4326
  123ccc     H3 3571   6.577   1.439   1.562  1.7040 -2.2705  1.6160
  123ccc     H4 3572   6.655   1.591   1.577 -1.5942 -0.6119 -1.3435
  123ccc     C1 3573   6.485   1.575   1.720 -0.2294 -0.5222  0.2887
  123ccc     H1 3574   6.431   1.641   1.652 -1.6653 -2.0970 -0.1894
  123ccc     H2 3575   6.522   1.651   1.789 -0.0986 -2.4574  2.4922
  123ccc     N1 3576   6.378   1.482   1.773 -0.3024  0.2308  0.3268
  123ccc     C4 3577   6.313   1.402   1.668  0.2246  0.1362 -0.6787
  123ccc     H7 3578   6.237   1.332   1.706 -1.2403  2.2443  0.4561
  123ccc     H8 3579   6.389   1.342   1.617  1.0963  0.9447 -0.3402
  123ccc     C5 3580   6.260   1.488   1.554 -0.5935 -0.0716 -0.5272
  123ccc     H9 3581   6.197   1.569   1.594 -0.0023 -0.3453  1.0379
  123ccc    H10 3582   6.334   1.525   1.483 -0.6430 -1.1508 -1.1575
  123ccc     C6 3583   6.180   1.403   1.466  0.2722  0.0060  0.7084
  123ccc     O2 3584   6.064   1.389   1.493  0.1113  0.1535  0.3048
  123ccc     O3 3585   6.225   1.335   1.378  0.6242 -0.1327  0.0387
  123ccc     C7 3586   6.423   1.395   1.882  0.2581 -0.0432 -0.2537
  123ccc    H11 3587   6.341   1.335   1.924  1.5737 -0.7754  1.4147
  123ccc    H12 3588   6.495   1.321   1.845 -0.1899 -1.6826  1.9227
  123ccc     C8 3589   6.472   1.472   2.003 -0.0438 -0.4749  0.2763
  123ccc    H13 3590   6.581   1.465   2.012  0.1186  0.8722 -0.4548
  123ccc    H14 3591   6.432   1.574   2.005 -1.8216 -1.1381  1.3041
  123ccc     C9 3592   6.420   1.416   2.137 -0.3325  0.0669  0.5263
  123ccc     O4 3593   6.395   1.492   2.225  0.3263 -0.0739 -0.1100
  123ccc     O5 3594   6.417   1.300   2.159 -0.5680  0.8079 -0.0160
  123ccc     O1 3595   6.747   1.532   1.835 -0.4895 -0.2101 -0.5400
  124ccc     C3 3596   7.274   2.238   1.412  0.2569  0.6789  0.1679
  124ccc     H5 3597   7.197   2.159   1.411 -0.6085  1.4569 -2.2750
  124ccc     H6 3598   7.311   2.259   1.513 -0.9432  0.1085  0.7436
  124ccc     C2 3599   7.227   2.350   1.324 -0.3038 -0.7356  0.8259
  124ccc     H3 3600   7.123   2.378   1.340 -0.5258  0.1713 -1.6999
  124ccc     H4 3601   7.218   2.310   1.222 -2.5065 -0.8455  1.0353
  124ccc     C1 3602   7.302   2.486   1.360 -0.0538 -0.6757  0.5014
  124ccc     H1 3603   7.409   2.472   1.340 -0.2506 -0.8497 -0.4953
  124ccc     H2 3604   7.297   2.513   1.466  0.9004 -0.2503  0.4452
  124ccc     N1 3605   7.258   2.598   1.278  0.1631 -0.2526  0.2845
  124ccc     C4 3606   7.303   2.610   1.145 -0.3506 -0.1192 -0.8139
  124ccc     H7 3607   7.276   2.708   1.103  2.0189  0.6064 -0.7907
  124ccc     H8 3608   7.249   2.536   1.085  0.6884 -0.3516 -1.5103
  124ccc     C5 3609   7.451   2.602   1.123 -0.5960 -0.3663  0.7469
  124ccc     H9 3610   7.499   2.680   1.183  0.9445 -0.5340 -0.2064
  124ccc    H10 3611   7.493   2.502   1.140 -2.9023 -1.4927  0.1936
  124ccc     C6 3612   7.504   2.625   0.983  0.1048  0.1806  0.2841
  124ccc     O2 3613   7.585   2.712   0.957  0.8209  0.0755 -0.2174
  124ccc     O3 3614   7.485   2.538   0.899 -0.1824  0.1359 -0.1545
  124ccc     C7 3615   7.120   2.644   1.296 -0.2996  0.6438  0.2001
  124ccc    H11 3616   7.092   2.680   1.196  1.5513  0.3610 -0.4499
  124ccc    H12 3617   7.055   2.561   1.326 -0.3379  0.7507  0.4127
  124ccc     C8 3618   7.120   2.757   1.405  0.8414 -0.0640 -0.2016
  124ccc    H13 3619   7.152   2.708   1.498  0.8405  1.0725  0.4186
  124ccc    H14 3620   7.187   2.842   1.387 -1.1258  1.2578 -1.8276
  124ccc     C9 3621   6.979   2.805   1.440  0.0485  0.1486 -0.5240
  124ccc     O4 3622   6.961   2.871   1.547 -0.3481 -0.4731  0.1555
  124ccc     O5 3623   6.881   2.793   1.367  0.1397 -0.2701 -0.1251
  124ccc     O1 3624   7.391   2.186   1.348  0.4734  0.1987 -0.0286
  125ccc     C3 3625   7.263   2.265   1.817 -0.7117 -0.3945 -0.3028
  125ccc     H5 3626   7.208   2.171   1.799 -0.3336 -1.6225  3.9265
  125ccc     H6 3627   7.253   2.293   1.922  0.6219 -1.7060  0.2066
  125ccc     C2 3628   7.195   2.379   1.735 -0.0779  0.1530 -0.1538
  125ccc     H3 3629   7.198   2.357   1.627  0.6017  0.3945 -0.1910
  125ccc     H4 3630   7.251   2.472   1.744  3.1227 -1.5485 -0.9377
  125ccc     C1 3631   7.058   2.378   1.795  0.2699 -0.0246  0.1952
  125ccc     H1 3632   7.076   2.377   1.904  0.4010 -1.8576  0.1944
  125ccc     H2 3633   7.002   2.289   1.765 -0.2299  0.1283  0.6393
  125ccc     N1 3634   6.965   2.485   1.763  0.2665  0.6085 -0.1412
  125ccc     C4 3635   6.930   2.499   1.622 -0.5955 -0.9980 -1.2521
  125ccc     H7 3636   7.012   2.535   1.558  0.3265 -0.5279  0.1545
  125ccc     H8 3637   6.861   2.584   1.616 -0.0836 -0.5351 -0.7033
  125ccc     C5 3638   6.868   2.376   1.564 -0.6148 -0.4460 -0.7130
  125ccc     H9 3639   6.952   2.306   1.553 -0.8313 -1.2012  1.6653
  125ccc    H10 3640   6.811   2.319   1.639  0.7952  0.6947  1.3535
  125ccc     C6 3641   6.779   2.384   1.446 -0.0498  0.4885  0.7598
  125ccc     O2 3642   6.790   2.475   1.368 -0.4361  0.3319 -0.3464
  125ccc     O3 3643   6.751   2.280   1.391 -0.3635 -0.1176  0.6330
  125ccc     C7 3644   6.995   2.616   1.829 -0.0656 -0.5705 -0.2513
  125ccc    H11 3645   7.035   2.585   1.927  0.3345 -3.7424 -1.3053
  125ccc    H12 3646   7.069   2.686   1.787 -1.3071  2.1703  1.8512
  125ccc     C8 3647   6.872   2.700   1.852  0.7549  0.2960  0.0017
  125ccc    H13 3648   6.821   2.724   1.758  0.4500 -0.1727  0.0385
  125ccc    H14 3649   6.794   2.653   1.914 -0.4987 -0.6308 -2.1787
  125ccc     C9 3650   6.915   2.818   1.919  0.4784 -0.2743  0.0043
  125ccc     O4 3651   6.898   2.830   2.038  0.3941  0.2709 -0.2526
  125ccc     O5 3652   6.979   2.908   1.873  0.0299 -0.1503  0.2662
  125ccc     O1 3653   7.403   2.244   1.781  0.1880  0.2770 -0.0111
  126SOL     OW 3654   4.811  11.034   2.540 -0.3282  0.0817  0.0783
  126SOL    HW1 3655   4.802  11.065   2.450  0.1652  0.0992  0.0332
  126SOL    HW2 3656   4.802  10.939   2.534  1.2687 -0.0658 -0.2068
  127SOL     OW 3657   8.998   9.424   6.622 -0.4694 -0.5895  0.4553
  127SOL    HW1 3658   8.998   9.329   6.639  0.3637 -0.8021 -0.6553
  127SOL    HW2 3659   9.064   9.458   6.683 -0.9665 -0.6667  1.0556
  128SOL     OW 3660   3.360   4.973   5.728  0.1759 -0.0339 -0.3201
  128SOL    HW1 3661   3.452   4.999   5.730  0.1026  0.2119  0.8161
  128SOL    HW2 3662   3.354   4.901   5.791 -0.4775  0.2199 -0.0799
  129SOL     OW 3663   5.732  10.258  10.850  0.3198 -0.2968  0.3667
  129SOL    HW1 3664   5.718  10.185  10.790 -1.9581  0.3701 -0.0173
  129SOL    HW2 3665   5.801  10.310  10.809 -1.1113  0.0965 -1.6808
  130SOL     OW 3666   2.605   0.558   0.432  0.2374  0.1301 -0.1964
  130SOL    HW1 3667   2.686   0.569   0.382  0.5046 -0.4892  0.0865
  130SOL    HW2 3668   2.628   0.499   0.503 -1.1800 -2.7044 -1.9058
  131SOL     OW 3669  11.187   0.657  10.799  0.1759  0.0977  0.1358
  131SOL    HW1 3670  11.221   0.718  10.864 -2.3346  3.4569 -1.3966
  131SOL    HW2 3671  11.216   0.692  10.715 -1.3317 -0.8212 -0.8242
  132SOL     OW 3672   3.549   3.017   0.815  0.2325  0.0596 -0.3516
  132SOL    HW1 3673   3.493   2.974   0.750  0.1776 -0.3090 -0.0635
  132SOL    HW2 3674   3.597   3.084   0.765 -0.6248  0.5296 -0.5528
  133SOL     OW 3675   8.696   3.554   1.271  0.1905  0.4570 -0.0330
  133SOL    HW1 3676   8.643   3.621   1.314  0.5553  0.7854 -0.0880
  133SOL    HW2 3677   8.783   3.593   1.264  0.1064  0.4648 -1.1924
  134SOL     OW 3678   0.059   1.462   7.573 -0.7174  0.4141  0.0314
  134SOL    HW1 3679   0.133   1.500   7.525  0.1192 -1.6776 -0.4678
  134SOL    HW2 3680   0.078   1.480   7.665 -0.1304  0.8187 -0.1634
  135SOL     OW 3681   0.467  10.485   8.238 -0.5446  0.8168  0.1821
  135SOL    HW1 3682   0.427  10.403   8.208  0.3842  0.1203  0.7820
  135SOL    HW2 3683   0.445  10.549   8.171 -0.9284 -0.0285 -0.5154
  136SOL     OW 3684   3.184   4.185   4.837 -0.3000  0.2664  0.2483
  136SOL    HW1 3685   3.155   4.095   4.853  0.6840  0.0216  0.7071
  136SOL    HW2 3686   3.104   4.231   4.811 -0.6273 -0.9707 -1.0717
  137SOL     OW 3687   1.521   0.325   6.089  0.3397 -0.0653 -0.0687
  137SOL    HW1 3688   1.462   0.390   6.127  2.2462  1.6276  0.1337
  137SOL    HW2 3689   1.485   0.241   6.117 -1.8993  0.8867  0.0981
  138SOL     OW 3690   9.709  10.447   9.279  0.2281 -0.4477 -0.0828
  138SOL    HW1 3691   9.775  10.507   9.248  0.7141 -1.0666 -0.2629
  138SOL    HW2 3692   9.755  10.363   9.289 -0.2925 -0.6495  0.7247
  139SOL     OW 3693   6.749   3.257  10.636  0.1029  0.0121 -0.1614
  139SOL    HW1 3694   6.754   3.186  10.700  0.1755  1.0296  1.0085
  139SOL    HW2 3695   6.770   3.336  10.687 -0.1137  0.8823 -1.3904
  140SOL     OW 3696  10.378   0.049   0.346  0.0971  0.2723  0.0312
  140SOL    HW1 3697  10.336  -0.034   0.326  0.1523  0.2143  0.1526
  140SOL    HW2 3698  10.334   0.080   0.426  0.6305 -0.0394  0.4522
  141SOL     OW 3699   9.157   0.308   8.400  0.3191  0.2584 -0.0856
  141SOL    HW1 3700   9.137   0.286   8.309 -2.0910 -1.5306  0.7843
  141SOL    HW2 3701   9.197   0.228   8.436 -2.6197 -0.6590  1.4394
  142SOL     OW 3702   3.997   2.578   9.847  0.0935 -0.1517 -0.1331
  142SOL    HW1 3703   3.944   2.517   9.796 -2.2827 -0.4201  2.3737
  142SOL    HW2 3704   4.044   2.523   9.909 -1.5373  0.3790  1.6865
  143SOL     OW 3705  11.016   5.882   7.840  0.2904  0.7494  0.0844
  143SOL    HW1 3706  10.998   5.839   7.923 -0.2413 -0.3579 -0.5816
  143SOL    HW2 3707  11.048   5.969   7.864 -0.4115  0.6536  1.4234
  144SOL     OW 3708   5.009   5.761   8.098  0.2251  0.2891 -0.1637
  144SOL    HW1 3709   4.935   5.703   8.117 -1.3799  2.1655 -0.3734
  144SOL    HW2 3710   5.018   5.756   8.002  1.1010 -0.7169 -0.0573
  145SOL     OW 3711   8.004   9.949   2.442  0.7304 -0.2505  0.2482
  145SOL    HW1 3712   7.998   9.918   2.533 -0.1961  2.2092  1.1243
  145SOL    HW2 3713   7.916   9.979   2.422  1.0370 -0.3457 -1.3357
  146SOL     OW 3714   4.071   4.700   8.108  0.2105 -0.1838  0.0215
  146SOL    HW1 3715   4.106   4.622   8.152 -0.0967 -1.0384 -1.2062
  146SOL    HW2 3716   3.994   4.669   8.061  0.0301  0.8894 -0.4263
  147SOL     OW 3717   1.084   9.185   1.995 -0.2332  0.3075  0.1292
  147SOL    HW1 3718   1.118   9.152   2.078 -2.2370 -0.0643  0.8435
  147SOL    HW2 3719   1.007   9.237   2.018 -1.7946 -1.1073 -1.5577
  148SOL     OW 3720   3.975  10.466   4.668  0.1957 -0.2833  0.0733
  148SOL    HW1 3721   4.023  10.484   4.587  0.7153  0.6573  0.5653
  148SOL    HW2 3722   3.882  10.472   4.644  0.2628 -2.5787 -0.9910
  149SOL     OW 3723  10.700   1.971   1.807  0.1104  0.6619 -0.2588
  149SOL    HW1 3724  10.764   1.943   1.873 -0.6460 -1.1921 -0.2471
  149SOL    HW2 3725  10.618   1.977   1.855  0.1609  2.6826 -0.3494
  150SOL     OW 3726   2.862   2.634  10.267 -0.0240  0.1083 -0.0010
  150SOL    HW1 3727   2.911   2.648  10.348 -0.4702  0.2458  0.2495
  150SOL    HW2 3728   2.799   2.706  10.265 -0.6264 -0.4187 -0.0074
  151SOL     OW 3729   4.282   5.598   8.130  0.4956 -0.1055 -0.5937
  151SOL    HW1 3730   4.321   5.515   8.158  1.1325  0.1893 -0.5943
  151SOL    HW2 3731   4.212   5.615   8.193 -0.0579 -0.9600 -0.9600
  152SOL     OW 3732   7.668   1.590   9.575 -0.5847 -0.5023 -0.0909
  152SOL    HW1 3733   7.593   1.643   9.603 -0.4259 -0.1429 -0.3373
  152SOL    HW2 3734   7.633   1.501   9.569 -0.9714 -0.3513 -0.1228
  153SOL     OW 3735   3.822   4.746  10.693  0.3999 -0.7165  0.2035
  153SOL    HW1 3736   3.797   4.680  10.758 -1.3380 -0.1216  0.1797
  153SOL    HW2 3737   3.739   4.783  10.663  1.1125 -1.3674 -2.8065
  154SOL     OW 3738   2.444   2.257   9.611  0.1959 -0.1374 -0.1803
  154SOL    HW1 3739   2.498   2.277   9.534  1.2474  0.6593  0.7495
  154SOL    HW2 3740   2.485   2.179   9.649 -1.8442 -2.1851 -1.8159
  155SOL     OW 3741   1.761  10.333   6.432 -0.2482  0.2104 -0.6336
  155SOL    HW1 3742   1.759  10.406   6.493  2.9830 -1.3535  1.6441
  155SOL    HW2 3743   1.831  10.355   6.370  2.2557 -1.6733  1.3426
  156SOL     OW 3744   5.630  10.333   2.839  0.2619 -0.6626  0.1098
  156SOL    HW1 3745   5.660  10.246   2.811  2.1610 -0.5502  1.5852
  156SOL    HW2 3746   5.608  10.322   2.931  1.7481  0.6444  0.6686
  157SOL     OW 3747   5.238   9.633  10.776  0.5576  0.4748 -0.0329
  157SOL    HW1 3748   5.301   9.570  10.811  0.1308  0.5764  0.9534
  157SOL    HW2 3749   5.276   9.661  10.693  0.5665 -1.3626 -0.6931
  158SOL     OW 3750   2.701   1.399   4.787 -0.0003  0.2908  0.5985
  158SOL    HW1 3751   2.661   1.436   4.709 -0.5861  0.5931  1.0384
  158SOL    HW2 3752   2.793   1.385   4.762 -0.6273 -1.7573 -0.9003
  159SOL     OW 3753   7.172  11.014   8.474  0.2961 -0.4396  0.2553
  159SOL    HW1 3754   7.189  10.998   8.567  0.0447  1.3640  0.6508
  159SOL    HW2 3755   7.101  10.954   8.452 -0.8231  0.2921  1.6991
  160SOL     OW 3756   9.972   3.712   0.468  0.1454 -0.7416 -0.3965
  160SOL    HW1 3757   9.904   3.644   0.469 -2.3277  1.5512  1.3919
  160SOL    HW2 3758   9.971   3.746   0.379  0.2747 -1.9498 -0.8737
  161SOL     OW 3759   1.959   0.094   2.249 -0.2519 -0.0444 -0.6427
  161SOL    HW1 3760   1.946   0.108   2.342 -2.1276  0.1595 -0.9013
  161SOL    HW2 3761   1.907   0.016   2.228  0.9680 -0.7136 -1.3463
  162SOL     OW 3762   4.100  10.805   0.362 -0.1288 -0.3521 -0.2229
  162SOL    HW1 3763   4.152  10.729   0.387 -1.5954 -1.4632 -0.4257
  162SOL    HW2 3764   4.161  10.861   0.314  0.7544 -1.8520 -0.9078
  163SOL     OW 3765   2.853   5.337   6.113 -0.7961  0.4470 -0.0026
  163SOL    HW1 3766   2.848   5.244   6.091 -0.9369  0.8376 -1.7283
  163SOL    HW2 3767   2.946   5.352   6.131 -0.9524 -0.2703  1.5832
  164SOL     OW 3768   9.422  10.414  11.039  0.1314 -0.4705  0.3187
  164SOL    HW1 3769   9.432  10.491  11.095 -0.3362  1.4038 -2.0081
  164SOL    HW2 3770   9.333  10.421  11.004  0.4551 -1.4385 -0.7804
  165SOL     OW 3771   9.329   2.430   7.637 -0.4544  0.3473  0.1965
  165SOL    HW1 3772   9.419   2.439   7.606 -0.1735 -0.4995  0.7105
  165SOL    HW2 3773   9.338   2.392   7.725 -1.3392 -3.6343 -1.2288
  166SOL     OW 3774   5.056   5.859   2.712 -0.4749  0.1732 -0.1315
  166SOL    HW1 3775   5.047   5.799   2.638 -2.3784 -0.5208  0.5686
  166SOL    HW2 3776   5.077   5.802   2.786 -1.5607  0.4386  0.4041
  167SOL     OW 3777   9.818   3.749   1.468  0.1323  0.9977 -0.2400
  167SOL    HW1 3778   9.809   3.753   1.563  0.2717  1.3435 -0.2400
  167SOL    HW2 3779   9.739   3.792   1.434 -0.9510 -0.9708 -0.3133
  168SOL     OW 3780   8.116   3.353  10.742  0.1880 -0.0651  0.6855
  168SOL    HW1 3781   8.121   3.277  10.684  1.6855  0.4275  0.1097
  168SOL    HW2 3782   8.159   3.324  10.823 -1.0679 -0.4561  1.2325
  169SOL     OW 3783  10.574  11.259  11.363  0.0602  0.5703  0.5435
  169SOL    HW1 3784  10.499  11.204  11.339  0.5619  0.0891  0.0690
  169SOL    HW2 3785  10.545  11.348  11.345 -0.0101  0.3093 -0.7236
  170SOL     OW 3786   0.040   9.277   6.473 -0.1465  0.0673 -0.0898
  170SOL    HW1 3787   0.000   9.206   6.423  1.0193 -1.3023  0.8570
  170SOL    HW2 3788   0.132   9.253   6.480  0.3180  1.7787  0.1252
  171SOL     OW 3789   7.349   3.766   3.896  0.3074 -0.0220 -0.0108
  171SOL    HW1 3790   7.409   3.836   3.920  1.1424 -0.4875 -0.7047
  171SOL    HW2 3791   7.285   3.809   3.838 -0.8229  0.7570  1.7378
  172SOL     OW 3792   6.310  10.800   8.777  0.1009  0.6611  0.3138
  172SOL    HW1 3793   6.315  10.819   8.683 -0.8479 -1.0397 -0.1120
  172SOL    HW2 3794   6.391  10.752   8.797  0.1306  0.7039  0.2976
  173SOL     OW 3795   3.815   4.251   9.974  0.4098  0.2783 -0.0257
  173SOL    HW1 3796   3.773   4.219   9.894  1.2480  0.2597 -0.4638
  173SOL    HW2 3797   3.758   4.322  10.004  0.4517  0.7446 -1.0184
  174SOL     OW 3798   4.845   2.515  11.133  0.0204  0.3277 -0.7000
  174SOL    HW1 3799   4.854   2.609  11.122 -0.3205  0.4896  0.3252
  174SOL    HW2 3800   4.928   2.479  11.101  0.5676  1.0574 -0.1044
  175SOL     OW 3801   4.186   4.833   6.592 -0.1868 -0.2623  0.2275
  175SOL    HW1 3802   4.173   4.912   6.540  0.2525  0.1948  0.7998
  175SOL    HW2 3803   4.118   4.772   6.561  2.0076 -1.2304 -3.1259
  176SOL     OW 3804   1.872   2.975   9.619  0.3997 -0.5464  0.2922
  176SOL    HW1 3805   1.808   2.955   9.688  1.4126 -2.0726  0.8263
  176SOL    HW2 3806   1.832   2.943   9.539  0.2603 -1.0058  0.5430
  177SOL     OW 3807   7.270  10.337   6.841  1.0037  0.2480  0.3675
  177SOL    HW1 3808   7.176  10.357   6.833  0.7380 -0.5177  1.3179
  177SOL    HW2 3809   7.305  10.408   6.895  1.0916  0.8297 -0.4405
  178SOL     OW 3810  10.028   0.237   6.221  0.6490  0.1700 -0.6123
  178SOL    HW1 3811   9.980   0.174   6.276  0.4779  1.4143  0.7135
  178SOL    HW2 3812  10.002   0.323   6.254  0.5748  0.9836 -2.6577
  179SOL     OW 3813   3.121  10.921   9.473 -0.2745  0.0389 -0.0037
  179SOL    HW1 3814   3.108  11.015   9.484 -0.3679  0.1345 -0.8659
  179SOL    HW2 3815   3.164  10.912   9.388 -1.7989 -0.7937 -0.7392
  180SOL     OW 3816   2.555  11.006   3.716  0.6399  0.0842 -0.1573
  180SOL    HW1 3817   2.647  10.988   3.699  0.5143 -1.8128  0.7916
  180SOL    HW2 3818   2.509  10.970   3.641  0.4834 -2.6642  1.1258
  181SOL     OW 3819   9.414   1.043   8.661 -0.3929 -0.4808  0.4253
  181SOL    HW1 3820   9.369   1.000   8.734  0.5093 -0.5337  0.9672
  181SOL    HW2 3821   9.507   1.034   8.682  0.0204 -2.4137 -1.8029
  182SOL     OW 3822   7.480   5.992   5.422  0.5299 -0.2366 -0.1822
  182SOL    HW1 3823   7.478   5.925   5.490 -0.7339 -1.6600 -1.5314
  182SOL    HW2 3824   7.430   6.065   5.460  2.0771  0.0786  1.3758
  183SOL     OW 3825   0.346   9.128   5.232 -0.0135  0.1388 -0.4175
  183SOL    HW1 3826   0.354   9.113   5.138 -1.1853  1.8418 -0.8274
  183SOL    HW2 3827   0.253   9.147   5.246  0.2627  0.6050  0.9640
  184SOL     OW 3828  11.324   3.440   9.374 -0.3299 -0.4497 -0.2661
  184SOL    HW1 3829  11.373   3.445   9.456  0.5663  1.3432 -0.8422
  184SOL    HW2 3830  11.240   3.400   9.398 -0.0723  0.0035  1.5205
  185SOL     OW 3831   6.488   6.314   6.452  0.7219  0.0454  0.0512
  185SOL    HW1 3832   6.507   6.295   6.544 -2.7422 -1.8789  0.5690
  185SOL    HW2 3833   6.479   6.228   6.411  2.1618  0.8619 -2.1516
  186SOL     OW 3834   1.023   0.141   6.160  0.0623  0.2788 -0.0250
  186SOL    HW1 3835   1.085   0.207   6.190 -1.2632  1.8271 -0.5215
  186SOL    HW2 3836   0.949   0.149   6.221  0.3066 -1.5308  0.5639
  187SOL     OW 3837   3.157   5.898   6.119  0.1857 -0.5173  0.5504
  187SOL    HW1 3838   3.099   5.974   6.128 -0.7955 -1.0657 -0.7461
  187SOL    HW2 3839   3.244   5.935   6.102 -0.3239  0.3337 -0.3062
  188SOL     OW 3840   1.569   8.036   5.991 -0.2190 -0.7354  0.4935
  188SOL    HW1 3841   1.487   7.990   5.972 -0.5597 -0.1670  0.5703
  188SOL    HW2 3842   1.620   7.974   6.043 -1.0119 -0.7283  1.3039
  189SOL     OW 3843   9.674   1.414   0.725  0.1011 -0.3845 -0.3326
  189SOL    HW1 3844   9.718   1.467   0.791  0.7818 -1.2561 -0.0703
  189SOL    HW2 3845   9.657   1.474   0.653 -0.8184  0.6225  0.6864
  190SOL     OW 3846   4.362   0.957   2.959  0.6190  0.0532  0.3975
  190SOL    HW1 3847   4.290   1.019   2.966 -0.2154 -0.9522  1.2061
  190SOL    HW2 3848   4.400   0.973   2.873 -0.5590  0.6288 -0.0335
  191SOL     OW 3849   8.348   4.196  10.411 -0.1587  0.0295  0.0492
  191SOL    HW1 3850   8.393   4.250  10.346  2.2120  0.1774  1.6510
  191SOL    HW2 3851   8.335   4.112  10.368  1.1955  0.1763 -0.7167
  192SOL     OW 3852   5.625  10.197   3.673  0.7516  0.1945  0.1547
  192SOL    HW1 3853   5.682  10.170   3.746  1.0271  1.1914  0.3187
  192SOL    HW2 3854   5.568  10.263   3.711 -1.0321 -1.2729  0.1672
  193SOL     OW 3855   9.534   1.599   9.837 -0.0822  0.1332 -0.6679
  193SOL    HW1 3856   9.464   1.609   9.772 -2.9595 -2.9052  1.6363
  193SOL    HW2 3857   9.577   1.516   9.813 -0.2807 -0.3128  0.4410
  194SOL     OW 3858   4.330   6.689  10.861  0.0506  0.0777 -0.2741
  194SOL    HW1 3859   4.255   6.745  10.881  1.9746  2.5876  0.5085
  194SOL    HW2 3860   4.328   6.620  10.927 -1.7161 -0.1201 -0.5018
  195SOL     OW 3861   0.371   0.438   2.264 -0.4676  0.1816 -0.0286
  195SOL    HW1 3862   0.439   0.379   2.230 -0.0012  1.4341 -1.3529
  195SOL    HW2 3863   0.420   0.506   2.311 -0.6105  1.9308 -2.2565
  196SOL     OW 3864   2.134   1.949   5.645 -0.0436  0.1521 -0.6083
  196SOL    HW1 3865   2.112   1.944   5.738 -0.6375 -2.6303 -0.8242
  196SOL    HW2 3866   2.228   1.965   5.644  0.5076 -2.5211  0.5741
  197SOL     OW 3867   0.422   5.684   3.675 -0.0738 -0.1249  0.0675
  197SOL    HW1 3868   0.511   5.663   3.701  0.5739  1.6268 -0.5309
  197SOL    HW2 3869   0.423   5.677   3.579 -0.1113  1.3369 -0.0735
  198SOL     OW 3870  10.436   7.439   8.506  0.0326 -0.0941  0.1775
  198SOL    HW1 3871  10.416   7.346   8.502 -1.7875  0.3056 -1.3299
  198SOL    HW2 3872  10.379   7.479   8.440  2.8210  1.7592 -1.2959
  199SOL     OW 3873   7.860  11.305   7.417  0.0620 -0.6567 -0.6919
  199SOL    HW1 3874   7.816  11.382   7.382 -0.3146 -0.6773 -0.2787
  199SOL    HW2 3875   7.812  11.231   7.380  0.0290 -0.6840 -0.5962
  200SOL     OW 3876   6.238   5.809   1.083  0.4155  0.3669  0.3367
  200SOL    HW1 3877   6.169   5.796   1.148  0.4524 -0.9474  0.1351
  200SOL    HW2 3878   6.319   5.812   1.134  0.2910  1.1075  0.5005
  201SOL     OW 3879  10.074   1.235   3.898  0.4984 -0.2227 -0.3023
  201SOL    HW1 3880  10.009   1.283   3.847 -0.4163 -0.8786  0.1993
  201SOL    HW2 3881  10.069   1.146   3.864  1.4324 -0.2007 -0.5205
  202SOL     OW 3882   6.025   1.646   0.299 -0.0288 -0.5707 -0.4094
  202SOL    HW1 3883   6.115   1.674   0.318 -0.0417  0.7136 -1.9458
  202SOL    HW2 3884   6.013   1.567   0.350  1.2372  0.4098  1.5422
  203SOL     OW 3885   4.951   0.267   9.102  0.2593 -0.6558 -0.4241
  203SOL    HW1 3886   4.936   0.307   9.016  1.1576 -0.4373 -0.4943
  203SOL    HW2 3887   5.044   0.284   9.120  0.0280 -0.5022  0.6915
  204SOL     OW 3888  10.506   6.876   0.870  0.5294  0.0496  0.3649
  204SOL    HW1 3889  10.511   6.781   0.878  0.3332 -0.0787 -0.9350
  204SOL    HW2 3890  10.469   6.904   0.954 -0.4082 -1.1063  0.3650
  205SOL     OW 3891   4.845   7.599   2.660 -0.0754  0.1572 -0.4898
  205SOL    HW1 3892   4.856   7.660   2.587  0.9800  0.3352 -0.1957
  205SOL    HW2 3893   4.877   7.647   2.736  0.0755 -0.5007 -0.1342
  206SOL     OW 3894   7.976   8.569   3.560 -0.1355  0.0210 -0.5476
  206SOL    HW1 3895   7.919   8.617   3.619 -2.5405 -0.6800 -2.1749
  206SOL    HW2 3896   8.063   8.576   3.600 -1.3174  1.1008  2.0509
  207SOL     OW 3897   3.734   6.574   0.417 -0.4951  0.8911 -0.2265
  207SOL    HW1 3898   3.785   6.494   0.403 -0.7703  0.2947  1.7520
  207SOL    HW2 3899   3.783   6.622   0.484 -2.2963  0.4432  1.5011
  208SOL     OW 3900   0.910   0.632   2.034 -0.4147 -0.4531  0.1454
  208SOL    HW1 3901   0.949   0.629   1.946  1.6167  0.8025  0.9474
  208SOL    HW2 3902   0.836   0.692   2.024  0.0636  0.0389 -0.6223
  209SOL     OW 3903   7.037   8.222   0.340  0.4606 -0.2682  0.0510
  209SOL    HW1 3904   7.016   8.241   0.432  3.8906  1.1236  0.6970
  209SOL    HW2 3905   7.037   8.308   0.297  0.2556 -0.7604 -0.9626
  210SOL     OW 3906   8.168   5.860   8.419 -0.2517 -0.3514 -0.3324
  210SOL    HW1 3907   8.093   5.803   8.401  0.4252 -0.6646 -2.5586
  210SOL    HW2 3908   8.143   5.909   8.497 -3.8608  1.3463 -2.3067
  211SOL     OW 3909   9.636   1.458   1.092  0.6904  0.2934 -0.3276
  211SOL    HW1 3910   9.570   1.506   1.042 -1.0751 -0.2963  1.3334
  211SOL    HW2 3911   9.662   1.518   1.161  0.0521 -0.3506  0.4865
  212SOL     OW 3912   5.127  10.199   9.375  0.6252 -0.3073 -0.6090
  212SOL    HW1 3913   5.120  10.128   9.311  0.0063  0.3330 -1.2759
  212SOL    HW2 3914   5.073  10.269   9.338  2.0817  0.9218 -0.5221
  213SOL     OW 3915   3.153   0.949   2.977 -0.3092 -0.0081  0.4055
  213SOL    HW1 3916   3.195   0.904   3.050 -1.8134 -1.6248  0.3264
  213SOL    HW2 3917   3.060   0.938   2.991 -0.6715  0.8055 -1.0657
  214SOL     OW 3918   5.137   7.371   5.564  0.0154 -0.1853  0.6352
  214SOL    HW1 3919   5.042   7.354   5.558 -0.1446  0.1055  2.0885
  214SOL    HW2 3920   5.170   7.349   5.476 -1.0394 -2.5662  0.7378
  215SOL     OW 3921  11.296   3.428   0.679  0.2379  0.5266  0.0973
  215SOL    HW1 3922  11.325   3.387   0.760  0.0247  0.4025  0.1090
  215SOL    HW2 3923  11.202   3.412   0.675  0.4759 -0.7348 -0.8908
  216SOL     OW 3924   8.083   1.709   7.441  0.5072  0.2360  0.4022
  216SOL    HW1 3925   8.123   1.653   7.375 -0.8711  0.3133 -0.5364
  216SOL    HW2 3926   8.140   1.786   7.444  1.5584 -0.5282  0.5963
  217SOL     OW 3927   3.239   7.832  10.748 -0.0120 -0.6561  0.0455
  217SOL    HW1 3928   3.185   7.877  10.683  1.0425 -1.0627 -1.1654
  217SOL    HW2 3929   3.270   7.754  10.702  0.4621 -1.1481  1.1810
  218SOL     OW 3930   2.691   5.717  10.185 -0.1737 -0.2068  0.2275
  218SOL    HW1 3931   2.721   5.777  10.253 -0.3194  2.3332 -1.8044
  218SOL    HW2 3932   2.771   5.690  10.140 -0.3634  1.8227 -1.4374
  219SOL     OW 3933  11.260   6.800   0.012 -0.6916  0.2937 -0.4024
  219SOL    HW1 3934  11.199   6.791   0.085 -0.4957  0.2320 -0.2465
  219SOL    HW2 3935  11.204   6.796  -0.066 -0.9479  0.7337 -0.2504
  220SOL     OW 3936   0.863   9.835  10.233 -0.2360  0.1077  0.3106
  220SOL    HW1 3937   0.918   9.871  10.164 -0.0748  0.2560  0.5151
  220SOL    HW2 3938   0.880   9.741  10.231  0.0866  0.1609  0.4228
  221SOL     OW 3939   3.214  11.261  10.189 -0.0808  0.5586  0.4425
  221SOL    HW1 3940   3.309  11.267  10.182 -0.0185 -1.1316 -1.0163
  221SOL    HW2 3941   3.199  11.179  10.237 -0.8007  0.8707  0.7625
  222SOL     OW 3942   8.871   1.871   7.636 -0.6535 -0.1613  0.0971
  222SOL    HW1 3943   8.898   1.963   7.633 -0.3102  0.0073  3.8239
  222SOL    HW2 3944   8.954   1.823   7.645 -0.9798 -0.5922  0.8147
  223SOL     OW 3945   9.290   3.618   1.105  0.3873  0.3242  0.3809
  223SOL    HW1 3946   9.306   3.525   1.118  1.9012  0.4268 -0.4341
  223SOL    HW2 3947   9.377   3.654   1.085 -0.3129  1.7344 -0.2529
  224SOL     OW 3948  10.281   4.637   2.731 -0.0721 -0.0162 -0.1338
  224SOL    HW1 3949  10.249   4.587   2.656  2.2513 -0.0740 -1.1582
  224SOL    HW2 3950  10.339   4.703   2.694  4.1014 -2.2769  1.6618
  225SOL     OW 3951   7.589   6.412   6.434 -0.2974  0.3156 -0.0115
  225SOL    HW1 3952   7.530   6.486   6.454 -1.3434  0.2453 -2.4997
  225SOL    HW2 3953   7.676   6.452   6.429 -0.4718  0.8938  1.2071
  226SOL     OW 3954   3.653   0.570   5.752  0.2600 -0.1197  0.3202
  226SOL    HW1 3955   3.672   0.482   5.783  1.8615  0.2841  0.5458
  226SOL    HW2 3956   3.596   0.557   5.676  1.9942 -1.4746 -0.8122
  227SOL     OW 3957   1.101   5.252   5.515 -0.2014  0.1214  0.5892
  227SOL    HW1 3958   1.072   5.199   5.589 -0.0776  0.7112  1.0713
  227SOL    HW2 3959   1.029   5.247   5.452  1.2598 -3.6526 -1.0685
  228SOL     OW 3960   8.384  10.320   4.510  0.3401 -0.2316  0.2662
  228SOL    HW1 3961   8.293  10.301   4.487  0.3191  0.7853 -0.5811
  228SOL    HW2 3962   8.393  10.286   4.599 -0.8084 -0.5308  0.2936
  229SOL     OW 3963   5.019   8.165  10.750  0.6968 -0.1620  0.3473
  229SOL    HW1 3964   4.953   8.174  10.820 -0.1946  0.6548 -0.5611
  229SOL    HW2 3965   4.996   8.084  10.706  2.4708 -1.7744  2.1639
  230SOL     OW 3966  11.327   9.308   0.423  0.1674  0.4228  0.6060
  230SOL    HW1 3967  11.333   9.391   0.375  1.6952  0.2805  0.4850
  230SOL    HW2 3968  11.324   9.334   0.515  0.4395  0.6274  0.5596
  231SOL     OW 3969   8.415   6.892   7.632 -0.1735  0.1563  0.1823
  231SOL    HW1 3970   8.336   6.933   7.595  1.7470  2.7234 -1.4895
  231SOL    HW2 3971   8.439   6.825   7.569 -1.2494 -0.9884  0.9583
  232SOL     OW 3972   3.861   4.737   2.474  0.0444  0.1309  0.4714
  232SOL    HW1 3973   3.880   4.644   2.463  1.8488  0.5881 -0.6489
  232SOL    HW2 3974   3.798   4.757   2.404 -0.9870 -0.3915  1.2258
  233SOL     OW 3975  11.260   0.109   5.153 -0.4969  0.2132  0.1055
  233SOL    HW1 3976  11.194   0.082   5.217 -0.3548  0.9331  0.5686
  233SOL    HW2 3977  11.232   0.069   5.071 -1.7714  0.8904  0.1935
  234SOL     OW 3978   3.873   8.991   3.717 -0.1234  0.3477 -0.2475
  234SOL    HW1 3979   3.832   8.937   3.785  0.2402  0.1025 -0.2130
  234SOL    HW2 3980   3.959   8.950   3.704 -0.9838 -0.9397 -2.3876
  235SOL     OW 3981   4.419   5.271   7.518 -0.5603 -0.1118  0.6906
  235SOL    HW1 3982   4.454   5.188   7.551 -0.7815  0.0942  1.4713
  235SOL    HW2 3983   4.345   5.246   7.464  0.9968 -0.5962 -1.3552
  236SOL     OW 3984  11.256   1.512   0.696  0.8188  0.0400 -0.1801
  236SOL    HW1 3985  11.217   1.426   0.680  0.4400  0.3858 -1.1683
  236SOL    HW2 3986  11.348   1.501   0.670  0.6635  0.0536 -0.7506
  237SOL     OW 3987   8.288   6.944   6.659 -0.2923 -0.7735 -0.0126
  237SOL    HW1 3988   8.280   6.863   6.609  0.0889 -0.3816 -0.7210
  237SOL    HW2 3989   8.357   6.927   6.723 -0.6063 -1.1928  0.2182
  238SOL     OW 3990   0.592  10.219   9.035 -0.2509  0.0590 -0.4548
  238SOL    HW1 3991   0.578  10.141   8.982  1.6403 -1.3320  0.9432
  238SOL    HW2 3992   0.631  10.186   9.116  0.0161  2.4081  0.4531
  239SOL     OW 3993   1.393   2.116   2.517  0.2583  0.1883  0.0676
  239SOL    HW1 3994   1.341   2.051   2.563 -0.9884  1.4085  0.4325
  239SOL    HW2 3995   1.443   2.065   2.452  1.2875 -1.4300  2.0098
  240SOL     OW 3996   2.221   9.393   0.985  0.1973  0.8034  0.3714
  240SOL    HW1 3997   2.250   9.484   0.978 -1.0609  1.1352 -1.1214
  240SOL    HW2 3998   2.278   9.346   0.925 -0.5842  1.0223 -0.5803
  241SOL     OW 3999   2.595   6.926   3.402 -0.2329  0.5774  0.9568
  241SOL    HW1 4000   2.509   6.942   3.363 -0.5614 -1.3833  0.7979
  241SOL    HW2 4001   2.581   6.940   3.496 -2.4178 -5.1490  1.9078
  242SOL     OW 4002   5.437   1.305   1.893  0.4917  0.0022  0.2311
  242SOL    HW1 4003   5.472   1.394   1.891  0.6026  0.0046  1.6965
  242SOL    HW2 4004   5.514   1.249   1.885  0.9407  0.0050  3.5282
  243SOL     OW 4005   5.721   6.106   8.880  0.0979 -0.0853 -0.3822
  243SOL    HW1 4006   5.798   6.153   8.850  0.8023 -0.2933  1.0330
  243SOL    HW2 4007   5.665   6.101   8.803  0.5899  1.8549 -0.9251
  244SOL     OW 4008   4.317   5.482   5.520  0.0004 -0.0283 -0.1955
  244SOL    HW1 4009   4.383   5.433   5.568  2.1024  1.3032 -1.5663
  244SOL    HW2 4010   4.326   5.572   5.551 -1.3868  0.1366 -0.2081
  245SOL     OW 4011   1.982   3.730   8.330 -0.1645 -0.1644  0.5243
  245SOL    HW1 4012   2.055   3.737   8.392  0.0546  0.5086  0.2000
  245SOL    HW2 4013   2.019   3.685   8.255  0.3600  1.4807 -0.2622
  246SOL     OW 4014   8.223   3.596   3.644  0.1302 -0.3878  0.3290
  246SOL    HW1 4015   8.185   3.682   3.625  1.1351 -0.1617 -0.8102
  246SOL    HW2 4016   8.155   3.550   3.694 -1.7064 -0.0437 -1.6625
  247SOL     OW 4017   4.827   4.281   9.106  0.2922 -0.6933 -0.1111
  247SOL    HW1 4018   4.841   4.189   9.088  0.7847 -0.7849  0.6826
  247SOL    HW2 4019   4.803   4.284   9.199  1.4125  0.0724  0.1746
  248SOL     OW 4020   7.869   2.193   0.952  0.0111  0.2834  0.4354
  248SOL    HW1 4021   7.837   2.280   0.929  0.3166 -0.0208 -1.3475
  248SOL    HW2 4022   7.963   2.196   0.931 -0.1693 -0.7450 -0.6523
  249SOL     OW 4023   1.059   2.827   1.883 -0.2219  0.1171  0.0275
  249SOL    HW1 4024   1.007   2.907   1.886  1.2351  1.0887  2.4961
  249SOL    HW2 4025   1.144   2.855   1.847 -0.2203 -0.6689 -0.5971
  250SOL     OW 4026   7.448   3.823   9.099 -0.8338  0.0354  0.0827
  250SOL    HW1 4027   7.356   3.803   9.116 -0.8526  0.0033 -0.0573
  250SOL    HW2 4028   7.477   3.753   9.041 -0.0050 -1.4830  2.2147
  251SOL     OW 4029   2.788   9.706   3.663 -0.1103 -0.2799  0.3542
  251SOL    HW1 4030   2.772   9.614   3.644  0.7436 -0.1042 -1.3932
  251SOL    HW2 4031   2.843   9.705   3.741 -0.3811 -1.2161  0.5525
  252SOL     OW 4032   5.363   9.784  10.528  0.1253 -0.6926  0.5262
  252SOL    HW1 4033   5.355   9.872  10.566  0.0011 -1.4687  2.4364
  252SOL    HW2 4034   5.285   9.774  10.474 -0.0678  0.2136  0.6217
  253SOL     OW 4035   3.291   2.341   3.374  0.3175 -0.2312  0.4394
  253SOL    HW1 4036   3.333   2.275   3.430  1.3336 -0.9901 -1.1574
  253SOL    HW2 4037   3.244   2.291   3.308  1.7962  0.5791 -1.3131
  254SOL     OW 4038  10.904   8.905   6.231  0.3458  0.1007  0.3453
  254SOL    HW1 4039  10.832   8.919   6.292  1.1801 -0.8817  1.6129
  254SOL    HW2 4040  10.899   8.812   6.209  1.6984 -0.1776  1.1140
  255SOL     OW 4041   4.610   3.206   2.075 -0.6019  0.2755  0.7719
  255SOL    HW1 4042   4.516   3.190   2.065 -0.6093  1.6283 -2.5296
  255SOL    HW2 4043   4.647   3.118   2.087 -2.0531 -0.6129 -0.7590
  256SOL     OW 4044   0.715   6.051   5.109  0.0158  0.0310  0.0596
  256SOL    HW1 4045   0.620   6.048   5.096  0.3020 -0.4354 -2.4808
  256SOL    HW2 4046   0.752   6.024   5.025  2.4273 -0.9443  1.3149
  257SOL     OW 4047   0.570   9.653   9.117 -0.3747  0.3853 -0.4768
  257SOL    HW1 4048   0.557   9.570   9.073  1.9282  1.0245 -2.5779
  257SOL    HW2 4049   0.584   9.630   9.209  0.1346 -1.5229 -0.9991
  258SOL     OW 4050   1.206  11.063   2.250 -0.0136  0.5556 -0.5297
  258SOL    HW1 4051   1.162  10.985   2.282 -0.7832  1.6623  1.2774
  258SOL    HW2 4052   1.145  11.135   2.269  0.8633  1.6536 -1.7050
  259SOL     OW 4053   6.461   3.593   9.543 -0.2461  0.2985  0.4141
  259SOL    HW1 4054   6.386   3.560   9.593  0.2123 -0.6541  0.4996
  259SOL    HW2 4055   6.424   3.624   9.461 -0.6777 -0.7326  0.2034
  260SOL     OW 4056   1.745  10.857   6.737 -0.1451  0.1274  0.1171
  260SOL    HW1 4057   1.818  10.813   6.781 -1.3658 -1.5892  0.4959
  260SOL    HW2 4058   1.781  10.881   6.651  1.5922  1.5719  1.1544
  261SOL     OW 4059   2.604   8.998   1.694 -0.2117 -0.1828  0.7127
  261SOL    HW1 4060   2.549   8.989   1.617  0.9407 -2.6735  0.0557
  261SOL    HW2 4061   2.564   8.940   1.759 -0.7033  1.2528  1.7315
  262SOL     OW 4062   1.796   8.481   6.829 -0.2101 -0.1683 -0.4489
  262SOL    HW1 4063   1.764   8.568   6.807  2.0797  0.6322 -0.8862
  262SOL    HW2 4064   1.843   8.492   6.911  0.4383 -0.8891 -0.7039
  263SOL     OW 4065   5.098   9.984   9.577  1.2859  0.1275 -0.4520
  263SOL    HW1 4066   5.071  10.022   9.660  0.8311  0.0092 -0.5460
  263SOL    HW2 4067   5.099  10.058   9.516 -0.5818 -0.1607 -0.8770
  264SOL     OW 4068   9.056   7.044   5.273  0.1365 -0.1205 -0.3339
  264SOL    HW1 4069   9.036   6.953   5.293 -0.9572  0.0686 -0.4973
  264SOL    HW2 4070   9.033   7.053   5.180 -0.6635  0.5523 -0.0784
  265SOL     OW 4071   8.460   3.461   3.566 -0.1022  1.1422 -0.4647
  265SOL    HW1 4072   8.526   3.451   3.635  0.0077 -0.3027 -0.7369
  265SOL    HW2 4073   8.381   3.488   3.612  0.1599  0.8981  0.1452
  266SOL     OW 4074   4.021   4.344   8.504  0.4853 -0.4295  0.5189
  266SOL    HW1 4075   4.045   4.252   8.516  0.2903 -0.7362 -1.2129
  266SOL    HW2 4076   4.099   4.392   8.531  1.5309 -1.2399 -0.8907
  267SOL     OW 4077  10.948   3.467   9.202  0.1567  0.0552  0.5415
  267SOL    HW1 4078  11.036   3.438   9.180  1.3410  4.4273 -1.5845
  267SOL    HW2 4079  10.894   3.442   9.127  0.4160  0.4149  0.2317
  268SOL     OW 4080   4.113   1.319   7.649 -1.1381 -0.6179  0.2139
  268SOL    HW1 4081   4.091   1.374   7.725 -1.2808 -1.2878  0.6687
  268SOL    HW2 4082   4.065   1.238   7.664 -0.7213 -0.9667 -0.3138
  269SOL     OW 4083   6.611  11.178   5.440 -0.0453 -0.2985  0.2237
  269SOL    HW1 4084   6.662  11.121   5.498 -1.2322 -0.5508  1.0417
  269SOL    HW2 4085   6.624  11.266   5.475 -0.2122 -0.3675  0.4595
  270SOL     OW 4086   6.469  10.061   5.583 -0.0867  0.1632 -0.7090
  270SOL    HW1 4087   6.525  10.100   5.516  0.4861 -1.2798 -1.1009
  270SOL    HW2 4088   6.454   9.972   5.552 -2.4124  0.4156 -0.4915
  271SOL     OW 4089   5.066   2.411   3.615  0.4166  0.0063  0.2423
  271SOL    HW1 4090   5.039   2.392   3.705 -0.3308  0.5733  0.1500
  271SOL    HW2 4091   5.065   2.507   3.610  0.5241 -0.0218 -0.3459
  272SOL     OW 4092   8.377   3.751   6.772 -0.0546 -0.1185 -0.5710
  272SOL    HW1 4093   8.412   3.736   6.860 -2.7101 -1.2386  0.3923
  272SOL    HW2 4094   8.427   3.692   6.716 -0.0435 -1.3234  0.6446
  273SOL     OW 4095   4.346   3.145   5.737  0.2185  0.7790  0.0590
  273SOL    HW1 4096   4.341   3.069   5.796 -0.5589  1.5479  1.0219
  273SOL    HW2 4097   4.434   3.140   5.699  0.6866  0.1650  1.1739
  274SOL     OW 4098   2.091   1.705   3.787  0.0207 -0.3767  0.4519
  274SOL    HW1 4099   2.151   1.674   3.720  0.2232  2.9592 -1.1341
  274SOL    HW2 4100   2.006   1.708   3.744 -0.8126 -2.4296  1.8235
  275SOL     OW 4101   8.052   7.088   9.371  0.1205 -0.0209 -0.1034
  275SOL    HW1 4102   7.971   7.121   9.332  0.9364  0.4994 -1.4429
  275SOL    HW2 4103   8.025   7.010   9.420 -1.3054  0.6286  0.1997
  276SOL     OW 4104   7.289   6.289   4.669  0.3515  0.5186  0.4032
  276SOL    HW1 4105   7.331   6.309   4.586  1.2254  0.8028  0.9049
  276SOL    HW2 4106   7.225   6.220   4.648  2.3141 -1.2507 -0.0860
  277SOL     OW 4107   8.921   2.043   8.617 -0.1464 -0.0509 -0.1380
  277SOL    HW1 4108   8.924   1.961   8.666 -1.9865 -1.7339 -2.5961
  277SOL    HW2 4109   8.874   2.104   8.674 -0.0970 -1.1659  1.1265
  278SOL     OW 4110   2.495   9.896   4.322 -0.3832  0.3192  0.0442
  278SOL    HW1 4111   2.508   9.804   4.345  1.5788  0.5486  0.0333
  278SOL    HW2 4112   2.525   9.902   4.232  4.1583  1.7499  1.3688
  279SOL     OW 4113   2.243   9.494   0.173  0.1612 -0.6568 -0.4847
  279SOL    HW1 4114   2.252   9.517   0.265  0.9623  0.6400 -0.8561
  279SOL    HW2 4115   2.297   9.558   0.127  0.4776 -1.8131 -1.7992
  280SOL     OW 4116   9.450   4.050   3.323 -0.4225  0.0043  0.1117
  280SOL    HW1 4117   9.441   4.139   3.356  1.3863  0.9316 -1.6374
  280SOL    HW2 4118   9.398   3.996   3.383 -0.2709  2.0045  2.1877
  281SOL     OW 4119   6.707   7.945   7.958 -0.1925  0.6101  0.1818
  281SOL    HW1 4120   6.689   7.858   7.993 -0.2971  0.0168 -1.2784
  281SOL    HW2 4121   6.780   7.932   7.898  1.0201  1.8778  1.2965
  282SOL     OW 4122   5.639  11.189  10.203 -0.1711  0.1845  0.0653
  282SOL    HW1 4123   5.689  11.160  10.127 -0.6471 -1.4647  0.3428
  282SOL    HW2 4124   5.549  11.160  10.185 -0.7365  1.7190  0.2859
  283SOL     OW 4125  10.071   3.005   5.125 -0.0038 -0.4915  0.0328
  283SOL    HW1 4126   9.989   2.967   5.094  0.7258 -1.7884 -0.3886
  283SOL    HW2 4127  10.121   2.930   5.158  0.0036  0.5643  2.7260
  284SOL     OW 4128   2.396   3.506   6.918 -0.1238  0.6607 -0.1642
  284SOL    HW1 4129   2.406   3.413   6.898  0.6054  0.9380 -1.1562
  284SOL    HW2 4130   2.318   3.510   6.974 -0.0150 -0.5674  0.1006
  285SOL     OW 4131   0.368   7.119  10.654 -0.3147  0.4867  0.0814
  285SOL    HW1 4132   0.455   7.120  10.616 -0.1416  2.0226  0.4412
  285SOL    HW2 4133   0.344   7.211  10.661 -0.1577  0.4151  4.0054
  286SOL     OW 4134   2.549   9.257   0.278  0.3493  0.2234 -0.2067
  286SOL    HW1 4135   2.578   9.189   0.339  1.2209  1.4553  0.8170
  286SOL    HW2 4136   2.454   9.264   0.293  0.4727  0.1598  0.6482
  287SOL     OW 4137   0.179   8.596   2.640  0.2041  0.1394 -0.1598
  287SOL    HW1 4138   0.131   8.667   2.598 -0.8593 -0.8006 -0.5691
  287SOL    HW2 4139   0.141   8.590   2.728 -1.5059 -1.5412 -0.9483
  288SOL     OW 4140   0.793   2.431   7.708  0.6351  0.0627  0.5080
  288SOL    HW1 4141   0.863   2.368   7.721 -0.5130 -1.8396 -1.7383
  288SOL    HW2 4142   0.838   2.513   7.688  2.3028 -1.1992 -1.3465
  289SOL     OW 4143   5.716   7.256   7.810 -0.1357 -0.4405  0.4582
  289SOL    HW1 4144   5.734   7.299   7.727 -1.5489  0.2176  0.4670
  289SOL    HW2 4145   5.763   7.308   7.875 -0.5723  0.1745  0.2869
  290SOL     OW 4146   7.338   4.896   7.247 -0.0729 -1.0804  0.0310
  290SOL    HW1 4147   7.364   4.970   7.193 -2.2412  1.0907  1.7399
  290SOL    HW2 4148   7.420   4.859   7.278  1.0833  1.1792 -0.1462
  291SOL     OW 4149   7.941   9.689   6.084 -0.2009  0.2826  0.6887
  291SOL    HW1 4150   7.878   9.725   6.146  0.1729  1.3634  0.4680
  291SOL    HW2 4151   7.888   9.660   6.010 -0.4071  1.5709  0.3233
  292SOL     OW 4152   0.553   2.128   0.353 -0.2053 -0.5292 -0.0138
  292SOL    HW1 4153   0.554   2.057   0.417 -0.1344 -2.9227 -2.5285
  292SOL    HW2 4154   0.646   2.151   0.341 -0.1628 -0.6472  0.0894
  293SOL     OW 4155   6.509   5.148   4.031  0.1757 -0.1093  0.1410
  293SOL    HW1 4156   6.576   5.170   3.967  0.7957 -1.7019  0.1920
  293SOL    HW2 4157   6.429   5.137   3.980  0.7411 -1.7382 -0.4750
  294SOL     OW 4158   1.735   1.576   1.837 -0.4192  0.0876 -0.6224
  294SOL    HW1 4159   1.756   1.494   1.882  0.0067  0.0571 -0.8614
  294SOL    HW2 4160   1.729   1.552   1.744  0.8788  0.5102 -0.8489
  295SOL     OW 4161   4.317   5.405   0.376  0.8081 -0.0772 -0.0643
  295SOL    HW1 4162   4.357   5.448   0.452  0.8547 -0.5616  0.1872
  295SOL    HW2 4163   4.225   5.430   0.380  0.8316 -0.0148  0.0938
  296SOL     OW 4164   8.901   1.491  10.345  0.1369  0.0558 -0.4292
  296SOL    HW1 4165   8.924   1.579  10.373  0.0564 -0.0635  0.0193
  296SOL    HW2 4166   8.967   1.434  10.385 -0.7511 -0.2570  0.6415
  297SOL     OW 4167  11.151   0.696   3.825 -0.0709  0.8720  0.0300
  297SOL    HW1 4168  11.086   0.655   3.768 -0.5151  2.8499 -0.9760
  297SOL    HW2 4169  11.219   0.630   3.835 -1.4944 -0.6959 -0.1431
  298SOL     OW 4170   6.585   9.203   9.783  0.4302  0.0627  0.8796
  298SOL    HW1 4171   6.597   9.168   9.695 -0.0115 -0.7298  1.1243
  298SOL    HW2 4172   6.673   9.207   9.820  0.7143  1.1998  0.1148
  299SOL     OW 4173   0.473   5.695   9.262  0.5543 -0.0143 -0.5455
  299SOL    HW1 4174   0.396   5.658   9.219  0.0590  0.5281 -0.1488
  299SOL    HW2 4175   0.548   5.649   9.223 -0.0698 -2.6368  1.0932
  300SOL     OW 4176   3.602   2.292  10.603 -0.0835  0.0857  0.3897
  300SOL    HW1 4177   3.663   2.332  10.665  0.3022  1.0690 -0.5875
  300SOL    HW2 4178   3.632   2.322  10.517 -0.9205 -0.8163 -0.2405
  301SOL     OW 4179   5.791   4.714  10.952 -0.2318  0.0216  0.5840
  301SOL    HW1 4180   5.831   4.630  10.973 -0.9095 -0.3861  0.2897
  301SOL    HW2 4181   5.774   4.754  11.037 -0.4644 -0.4102  0.7447
  302SOL     OW 4182   0.727   2.989   4.806  0.2203 -0.2114  0.2447
  302SOL    HW1 4183   0.755   2.933   4.734 -0.1995  0.3216 -0.3517
  302SOL    HW2 4184   0.638   3.015   4.782  0.4752  0.8498  0.4091
  303SOL     OW 4185   0.835  11.039   0.388 -0.2946 -0.3493  0.2337
  303SOL    HW1 4186   0.772  11.056   0.458  0.0667  0.5358  0.3670
  303SOL    HW2 4187   0.790  11.067   0.309 -0.6665 -1.2567  0.1118
  304SOL     OW 4188   0.248  11.354   1.126  0.1161  0.4586 -0.6091
  304SOL    HW1 4189   0.183  11.361   1.056 -0.2130 -2.2060 -0.6793
  304SOL    HW2 4190   0.319  11.302   1.087 -1.3603 -3.7625  1.6745
  305SOL     OW 4191  10.235   9.861  10.892  0.2595  0.1709  0.3553
  305SOL    HW1 4192  10.312   9.807  10.911 -0.2144 -0.3616  0.7794
  305SOL    HW2 4193  10.207   9.893  10.977 -1.7035 -1.9943  0.6344
  306SOL     OW 4194  10.914   1.959   9.576 -0.2484  0.5404 -0.2859
  306SOL    HW1 4195  10.911   1.867   9.603 -0.1506  0.5691 -0.1782
  306SOL    HW2 4196  10.911   1.956   9.481 -1.3275  0.4632 -0.2667
  307SOL     OW 4197   0.535   7.199   6.922 -0.1332  0.8943 -0.1371
  307SOL    HW1 4198   0.532   7.126   6.983 -0.8986  1.8567  1.0170
  307SOL    HW2 4199   0.484   7.169   6.846  0.5401 -0.1814 -0.1806
  308SOL     OW 4200   4.611   8.601   6.236 -0.2401  0.2847 -0.2060
  308SOL    HW1 4201   4.641   8.539   6.303  0.2649 -0.7935 -1.3853
  308SOL    HW2 4202   4.533   8.641   6.274 -0.2631 -0.6639  0.8217
  309SOL     OW 4203   4.457  10.951   9.910 -0.4025 -0.6081  0.0119
  309SOL    HW1 4204   4.474  10.859   9.888 -0.8999 -0.6596 -0.1678
  309SOL    HW2 4205   4.536  10.979   9.957 -0.6740 -1.4231  0.9875
  310SOL     OW 4206   2.838  11.038   4.716 -0.1905  0.5665 -0.2937
  310SOL    HW1 4207   2.874  10.952   4.694  2.2437  1.4160  0.0179
  310SOL    HW2 4208   2.880  11.061   4.799 -1.0411  1.9080 -0.2015
  311SOL     OW 4209   8.255   4.492   0.316 -0.8216 -1.0927 -0.3882
  311SOL    HW1 4210   8.223   4.582   0.316 -0.6217 -0.9908 -1.7003
  311SOL    HW2 4211   8.179   4.440   0.344 -0.5033 -0.4293  1.8551
  312SOL     OW 4212   6.507   4.705   3.014 -0.4205  0.2721  0.7873
  312SOL    HW1 4213   6.521   4.671   2.926  0.6041  0.0153  1.0374
  312SOL    HW2 4214   6.575   4.663   3.068 -1.0050  0.4463  1.6945
  313SOL     OW 4215   1.984   5.626   3.431  0.1573 -0.1119  0.0491
  313SOL    HW1 4216   2.019   5.538   3.419 -0.6891 -0.6496  1.3175
  313SOL    HW2 4217   1.897   5.613   3.470  0.3507  1.2964  1.0359
  314SOL     OW 4218   0.628   6.804   0.664 -0.3855  0.1475 -0.1754
  314SOL    HW1 4219   0.666   6.809   0.752  0.6981 -0.6293 -0.5792
  314SOL    HW2 4220   0.645   6.889   0.625  2.5578 -0.6688 -0.9465
  315SOL     OW 4221  11.049   4.626   2.736 -0.6919  0.1117  0.0832
  315SOL    HW1 4222  11.077   4.616   2.645 -0.3786  0.8871  0.0871
  315SOL    HW2 4223  11.040   4.536   2.768  0.5582 -0.1753 -0.2978
  316SOL     OW 4224  10.034   5.421   9.930 -0.7919  0.0512  0.1734
  316SOL    HW1 4225  10.088   5.481   9.982 -0.0522 -0.3069 -0.1719
  316SOL    HW2 4226   9.958   5.474   9.905  0.8571  1.6222 -1.9944
  317SOL     OW 4227   4.766   1.733   0.697 -0.3460  1.1814  0.1544
  317SOL    HW1 4228   4.815   1.711   0.618 -2.6531  1.3369 -1.4182
  317SOL    HW2 4229   4.709   1.658   0.711 -0.7263  1.6231  1.0296
  318SOL     OW 4230   7.073   6.461   8.523 -0.0866 -0.2486  0.7188
  318SOL    HW1 4231   7.075   6.366   8.514  2.5136 -0.5140  2.8749
  318SOL    HW2 4232   7.020   6.476   8.602 -2.5701  0.3592 -0.9514
  319SOL     OW 4233   9.483  10.291   0.667  0.7538  0.0316  0.5310
  319SOL    HW1 4234   9.506  10.202   0.641  0.9080  0.4209 -0.7176
  319SOL    HW2 4235   9.430  10.324   0.595  0.6261  0.9379  1.0220
  320SOL     OW 4236   4.835   6.123   0.271  0.1224 -0.1706  0.3484
  320SOL    HW1 4237   4.903   6.057   0.257  0.7478  0.4219  0.5418
  320SOL    HW2 4238   4.835   6.138   0.365 -1.7063 -1.6432  0.6309
  321SOL     OW 4239   7.081   4.527   8.635  0.1576 -0.3779 -0.3415
  321SOL    HW1 4240   7.037   4.474   8.701  0.2224 -1.7147 -1.3382
  321SOL    HW2 4241   7.161   4.557   8.679 -1.0422  0.9657  1.0275
  322SOL     OW 4242  11.238   9.657   5.868  0.3176 -0.0180  0.4456
  322SOL    HW1 4243  11.181   9.704   5.929  1.0495 -0.0659  1.1901
  322SOL    HW2 4244  11.316   9.635   5.920  2.3195  2.5228 -1.2328
  323SOL     OW 4245   2.735   3.962   1.808  0.0983 -0.0098  0.1413
  323SOL    HW1 4246   2.740   4.046   1.764  0.1512 -0.9020 -1.6494
  323SOL    HW2 4247   2.660   3.918   1.769  1.4777 -1.7138 -0.7281
  324SOL     OW 4248   7.247   6.254  10.970  0.2960  0.2726  0.1050
  324SOL    HW1 4249   7.326   6.303  10.948 -0.0481  1.3213  1.1313
  324SOL    HW2 4250   7.179   6.292  10.915  0.1834  0.4265  0.3515
  325SOL     OW 4251  10.703   2.729   8.408  0.1702 -0.3646 -0.1739
  325SOL    HW1 4252  10.680   2.790   8.338  1.2830  1.0883  0.6689
  325SOL    HW2 4253  10.671   2.644   8.377 -1.9607  0.7022 -1.1335
  326SOL     OW 4254   5.720   5.439   0.185  0.2678  0.2615 -0.0436
  326SOL    HW1 4255   5.647   5.381   0.161  0.5450  0.5409 -1.7091
  326SOL    HW2 4256   5.761   5.396   0.260  0.7856 -2.0039 -1.5280
  327SOL     OW 4257   0.467   0.553   9.572  0.0664 -0.1652 -0.3410
  327SOL    HW1 4258   0.434   0.479   9.521 -0.1258 -1.1279  1.1147
  327SOL    HW2 4259   0.473   0.519   9.662  1.2580  1.1948  0.1209
  328SOL     OW 4260   6.159   5.178   2.350  0.0953  0.1834 -0.1817
  328SOL    HW1 4261   6.199   5.246   2.404 -0.5261 -1.3863  2.4306
  328SOL    HW2 4262   6.154   5.102   2.408 -1.4305 -1.3712 -2.2327
  329SOL     OW 4263   3.701   7.588   8.443 -0.1346 -0.7088 -0.0527
  329SOL    HW1 4264   3.714   7.677   8.477 -1.7356 -0.2329 -0.5691
  329SOL    HW2 4265   3.769   7.536   8.484  1.3882  0.9220 -0.3942
  330SOL     OW 4266   8.758   9.385   8.747 -0.7487 -0.3893 -0.0399
  330SOL    HW1 4267   8.774   9.473   8.712 -1.6154 -0.1067  0.2508
  330SOL    HW2 4268   8.752   9.397   8.841  0.0277 -0.9122  0.0871
  331SOL     OW 4269   6.761   7.480   0.605 -0.0531 -0.1964  0.6811
  331SOL    HW1 4270   6.670   7.460   0.630 -0.9557  1.9542 -0.5942
  331SOL    HW2 4271   6.775   7.569   0.637  0.7520  0.3971 -1.1866
  332SOL     OW 4272   2.480   2.404   5.435 -0.1961 -0.2086 -0.1104
  332SOL    HW1 4273   2.412   2.420   5.501 -0.1478  1.0120 -0.3243
  332SOL    HW2 4274   2.482   2.485   5.383  0.1765 -0.9203 -1.2390
  333SOL     OW 4275   9.565   8.863   2.730  0.6689 -0.0276  0.4886
  333SOL    HW1 4276   9.532   8.902   2.810  0.7243 -0.5665  0.7811
  333SOL    HW2 4277   9.539   8.771   2.736 -0.3559  0.1633 -0.6614
  334SOL     OW 4278   5.924   5.761   1.871  0.7495 -0.0931 -0.4953
  334SOL    HW1 4279   5.958   5.713   1.946  0.0633  0.1136 -0.0434
  334SOL    HW2 4280   5.834   5.785   1.896 -0.3969 -2.1126 -2.2900
  335SOL     OW 4281  11.283   5.434   5.122  0.3276  0.0765 -0.2214
  335SOL    HW1 4282  11.226   5.418   5.047  0.4442  0.6430 -0.4345
  335SOL    HW2 4283  11.223   5.442   5.196 -0.1274  3.0444 -0.7910
  336SOL     OW 4284   0.103   9.160   2.808  0.2590  0.1010 -0.3823
  336SOL    HW1 4285   0.188   9.176   2.849  0.1192  2.7109 -0.9472
  336SOL    HW2 4286   0.123   9.103   2.734  1.3437 -0.1249  0.0547
  337SOL     OW 4287   9.388   1.114  10.949  0.2040 -0.3231 -0.1876
  337SOL    HW1 4288   9.327   1.046  10.922  1.7869 -1.7450 -0.3140
  337SOL    HW2 4289   9.393   1.106  11.045  0.9170 -0.8661 -0.2649
  338SOL     OW 4290   5.961   4.487   9.102 -0.6571 -0.0760 -0.1982
  338SOL    HW1 4291   5.947   4.426   9.174 -2.0921  1.9376  1.3725
  338SOL    HW2 4292   6.053   4.512   9.109 -0.3353 -1.2267 -0.1852
  339SOL     OW 4293   6.830   8.018   5.615 -0.0706 -0.1018  0.6995
  339SOL    HW1 4294   6.766   7.961   5.573 -2.1705  0.8093  2.4661
  339SOL    HW2 4295   6.853   7.973   5.696  0.0360  0.4655  0.9906
  340SOL     OW 4296   6.265   1.051   8.946  0.3255  0.3092  0.3503
  340SOL    HW1 4297   6.177   1.085   8.930  0.9953  1.5791 -1.0240
  340SOL    HW2 4298   6.300   1.108   9.014  0.2174  0.0385  0.6346
  341SOL     OW 4299   4.222   5.553   9.914 -0.2031 -0.3938 -0.3102
  341SOL    HW1 4300   4.158   5.621   9.936 -0.7159 -0.3116 -1.8941
  341SOL    HW2 4301   4.184   5.472   9.948  0.4379  0.0922  1.6369
  342SOL     OW 4302   0.316   4.508   8.456 -0.3338 -0.0335  0.3222
  342SOL    HW1 4303   0.389   4.570   8.455 -0.1119 -0.2933 -0.1804
  342SOL    HW2 4304   0.263   4.534   8.531  0.0910  0.3751  0.4853
  343SOL     OW 4305   0.339  10.888   7.898  0.1476  0.0492  0.7842
  343SOL    HW1 4306   0.401  10.928   7.958 -1.3116  0.1108  2.3147
  343SOL    HW2 4307   0.313  10.806   7.940  0.3415 -0.7395 -0.5691
  344SOL     OW 4308  10.671   1.732   6.183 -0.1509  0.3570  0.1867
  344SOL    HW1 4309  10.632   1.806   6.230 -1.0083 -0.0767  0.1767
  344SOL    HW2 4310  10.739   1.699   6.241  0.9889  1.7967 -0.2469
  345SOL     OW 4311   8.323   1.094   0.913 -0.0726  0.3378 -0.1189
  345SOL    HW1 4312   8.259   1.163   0.894  0.4606  0.7248 -0.5179
  345SOL    HW2 4313   8.333   1.097   1.008 -1.4549 -0.4571  0.0829
  346SOL     OW 4314  11.293   5.381   6.276  0.9305  0.2582 -0.2458
  346SOL    HW1 4315  11.236   5.455   6.298  1.5162  0.3497  1.0903
  346SOL    HW2 4316  11.282   5.369   6.182 -0.6210  0.8222 -0.1621
  347SOL     OW 4317   6.787   0.580   5.260 -0.0081 -0.3316  0.0035
  347SOL    HW1 4318   6.775   0.590   5.355 -1.3638 -0.0651 -0.1786
  347SOL    HW2 4319   6.882   0.588   5.248  0.0771  1.0680  1.1878
  348SOL     OW 4320  11.187   9.925   4.205  0.0425  0.0052 -0.1328
  348SOL    HW1 4321  11.216   9.913   4.296 -0.3426  0.0251 -0.0053
  348SOL    HW2 4322  11.102   9.969   4.212 -0.2593 -0.5075 -0.4798
  349SOL     OW 4323   6.636   9.173  10.395 -0.1939  0.1247  0.8019
  349SOL    HW1 4324   6.607   9.082  10.395  0.3916 -0.1120 -1.0480
  349SOL    HW2 4325   6.558   9.224  10.372 -0.3309  0.0161  1.0250
  350SOL     OW 4326   1.011   4.786   0.236  0.1512  0.0016  0.2208
  350SOL    HW1 4327   1.054   4.714   0.283  1.7182  0.0725 -1.0478
  350SOL    HW2 4328   1.072   4.859   0.241 -0.4593  0.5770 -0.3873
  351SOL     OW 4329   1.507   8.028   9.478 -0.3234 -0.9268  0.6991
  351SOL    HW1 4330   1.413   8.033   9.492 -0.4737  0.0466 -0.5173
  351SOL    HW2 4331   1.532   7.943   9.516 -2.0590 -2.2937 -0.9941
  352SOL     OW 4332   2.424   9.048   9.632  0.3776 -0.1154 -0.1267
  352SOL    HW1 4333   2.383   9.061   9.717  0.4714 -1.0858  0.0790
  352SOL    HW2 4334   2.471   9.130   9.616  0.0301  0.2328  0.5615
  353SOL     OW 4335   0.405   3.010   1.029 -0.2477 -0.2488 -0.0930
  353SOL    HW1 4336   0.397   3.099   1.065  0.1159 -0.1651 -0.2181
  353SOL    HW2 4337   0.492   2.981   1.056 -0.2566 -0.4607 -0.2929
  354SOL     OW 4338   2.870   9.545   4.622 -0.7094 -0.4812 -0.5894
  354SOL    HW1 4339   2.844   9.573   4.535 -0.5730 -0.5698 -0.6591
  354SOL    HW2 4340   2.801   9.577   4.680  0.7091  2.3350 -0.2680
  355SOL     OW 4341   0.620   7.269   9.485 -0.1131 -0.0169 -0.1318
  355SOL    HW1 4342   0.659   7.212   9.419 -0.5590  0.2429 -0.6208
  355SOL    HW2 4343   0.534   7.231   9.502 -0.5563  0.7024 -0.7180
  356SOL     OW 4344   6.299   6.678   3.938  0.9059 -0.0978  0.0692
  356SOL    HW1 4345   6.234   6.729   3.891  0.4855  0.0975  0.8542
  356SOL    HW2 4346   6.379   6.730   3.932  1.0948 -0.5065 -1.1981
  357SOL     OW 4347   3.957   3.111   3.324  0.3106 -0.2274  0.0512
  357SOL    HW1 4348   3.891   3.042   3.333  0.5391 -0.2998  1.3720
  357SOL    HW2 4349   3.934   3.175   3.391 -0.1297  1.2041 -1.4076
  358SOL     OW 4350   2.856   7.255   0.956  0.2202 -0.0327 -0.0237
  358SOL    HW1 4351   2.893   7.272   1.043 -1.2299 -0.4919  0.7132
  358SOL    HW2 4352   2.933   7.247   0.899  1.1943  0.6168  1.1326
  359SOL     OW 4353   8.153   6.567   6.851  0.1151 -0.6189 -0.1628
  359SOL    HW1 4354   8.113   6.538   6.933 -1.2877  0.2245 -0.5107
  359SOL    HW2 4355   8.081   6.609   6.803  1.5786  1.6489 -0.5112
  360SOL     OW 4356   4.605   3.193   8.279  0.1944  0.2932  0.2137
  360SOL    HW1 4357   4.679   3.165   8.224 -0.5367  0.2832 -0.7893
  360SOL    HW2 4358   4.538   3.126   8.265  0.3293 -0.2437  1.9026
  361SOL     OW 4359   7.746   7.498  10.502  0.0208  0.0221  0.2177
  361SOL    HW1 4360   7.792   7.486  10.419 -1.3270  0.7092 -0.6701
  361SOL    HW2 4361   7.666   7.447  10.492 -1.0567  1.6207  0.3131
  362SOL     OW 4362   8.251   8.661   1.367 -0.3521  0.3085  0.4609
  362SOL    HW1 4363   8.204   8.578   1.364  1.1272 -0.6773  1.9834
  362SOL    HW2 4364   8.248   8.686   1.460  0.4747  1.1822  0.2671
  363SOL     OW 4365   5.467   1.807   5.922  0.4252  0.3498  0.0784
  363SOL    HW1 4366   5.416   1.760   5.856  0.2693  0.5024  0.0886
  363SOL    HW2 4367   5.522   1.740   5.962 -0.1754  0.0684  0.4569
  364SOL     OW 4368   4.528   3.018   4.127  0.2884 -0.2970 -0.8722
  364SOL    HW1 4369   4.596   3.020   4.194  1.0291  1.8358 -1.6118
  364SOL    HW2 4370   4.570   2.979   4.050  0.4411  0.2623 -1.0769
  365SOL     OW 4371   7.395   1.046   9.586  0.1203  0.5512 -0.0367
  365SOL    HW1 4372   7.482   1.052   9.625  0.4863 -0.1088 -0.7226
  365SOL    HW2 4373   7.342   1.109   9.635  1.6510  3.1099 -1.4814
  366SOL     OW 4374   4.157   1.764  10.065 -0.1126  0.2830 -1.0704
  366SOL    HW1 4375   4.197   1.741   9.981  0.8603  1.2857 -0.9098
  366SOL    HW2 4376   4.105   1.842  10.046 -2.0585 -0.9736 -1.2673
  367SOL     OW 4377   0.481   4.000   9.306 -0.0635  0.5930 -0.2173
  367SOL    HW1 4378   0.539   4.061   9.261 -0.0640  0.7876  0.0428
  367SOL    HW2 4379   0.530   3.974   9.384  1.5598 -2.6373 -2.1012
  368SOL     OW 4380   7.847   1.479   8.741 -0.4791  0.2300 -0.1142
  368SOL    HW1 4381   7.770   1.467   8.797 -0.1907  0.1231  0.2684
  368SOL    HW2 4382   7.811   1.500   8.655 -0.9289  0.6217  0.1616
  369SOL     OW 4383   9.327   0.776   5.519 -0.4757  0.2991 -0.2144
  369SOL    HW1 4384   9.287   0.862   5.535  0.3817  1.4932 -3.5958
  369SOL    HW2 4385   9.377   0.788   5.438  1.7626 -2.7570  0.5532
  370SOL     OW 4386   6.779   3.483   8.509 -0.3183 -0.0382 -0.2248
  370SOL    HW1 4387   6.734   3.474   8.425 -0.3767 -0.7804 -0.1186
  370SOL    HW2 4388   6.767   3.398   8.552  2.0067 -0.6219 -0.6063
  371SOL     OW 4389   2.507   2.415   2.412  0.6875  0.5954 -0.5225
  371SOL    HW1 4390   2.557   2.362   2.350  0.4441  0.6383 -0.7564
  371SOL    HW2 4391   2.422   2.428   2.370  0.8732  1.4946 -0.6404
  372SOL     OW 4392  10.226   9.277   7.591  0.5757  0.4678 -0.5187
  372SOL    HW1 4393  10.314   9.315   7.594  1.6624 -1.9155  1.5392
  372SOL    HW2 4394  10.177   9.324   7.658  0.6698  0.8807 -0.7334
  373SOL     OW 4395   5.202   2.050   4.030 -0.3738 -0.1511 -0.3298
  373SOL    HW1 4396   5.212   1.964   3.989 -0.0176 -0.3140  0.0826
  373SOL    HW2 4397   5.118   2.082   3.999 -1.2416 -1.3136  0.6908
  374SOL     OW 4398   7.197   7.759   7.762 -0.3435 -0.6305 -0.1814
  374SOL    HW1 4399   7.211   7.764   7.857  0.0059  1.6808 -0.2973
  374SOL    HW2 4400   7.233   7.842   7.728 -0.5061 -1.3769 -2.3326
  375SOL     OW 4401   2.549  10.974   7.443  0.0019  0.1144  0.1417
  375SOL    HW1 4402   2.574  11.067   7.444  0.7578 -0.0777 -0.2083
  375SOL    HW2 4403   2.628  10.928   7.471  0.1024 -0.5234 -1.1295
  376SOL     OW 4404   3.230   6.091   4.751 -0.4374 -0.4505  0.3533
  376SOL    HW1 4405   3.183   6.037   4.688 -2.5377 -0.0547  1.4782
  376SOL    HW2 4406   3.293   6.031   4.792 -0.1557 -1.0882 -0.9473
  377SOL     OW 4407   9.026  11.203   0.699 -0.0910  0.5867 -0.6280
  377SOL    HW1 4408   8.978  11.157   0.631  0.0606  0.2879 -0.5364
  377SOL    HW2 4409   9.118  11.192   0.674 -0.0261  0.3248 -0.2842
  378SOL     OW 4410   6.593   2.203   9.478  0.1601 -0.3511  0.5343
  378SOL    HW1 4411   6.629   2.192   9.390 -1.4281 -1.0853 -0.0554
  378SOL    HW2 4412   6.657   2.259   9.523  1.3574 -0.5467 -0.8470
  379SOL     OW 4413   3.053   3.326   3.081  0.4638  0.5060  0.4961
  379SOL    HW1 4414   2.989   3.268   3.123 -0.2541  1.1669  0.3292
  379SOL    HW2 4415   3.137   3.302   3.121  0.1883 -0.6714  0.3991
  380SOL     OW 4416   9.171   7.420   7.450  0.0509  0.1931  0.5390
  380SOL    HW1 4417   9.091   7.418   7.503 -1.1284 -0.7307 -1.1857
  380SOL    HW2 4418   9.206   7.508   7.463 -1.0361  0.5057  1.6149
  381SOL     OW 4419   1.794   0.468   0.510  0.7143 -0.0841  0.6898
  381SOL    HW1 4420   1.811   0.495   0.600  0.2825 -0.0557  0.7637
  381SOL    HW2 4421   1.879   0.439   0.477  1.1732  1.2186  0.6581
  382SOL     OW 4422   4.217  10.203   4.779  0.7688  0.5254 -0.2350
  382SOL    HW1 4423   4.252  10.258   4.708 -0.9003  0.9899 -0.7505
  382SOL    HW2 4424   4.224  10.114   4.746  0.2646  0.7187 -0.9019
  383SOL     OW 4425   1.424   0.352   6.711 -0.1105  0.1410 -0.0285
  383SOL    HW1 4426   1.469   0.423   6.666 -0.7496  0.7115  0.2045
  383SOL    HW2 4427   1.332   0.380   6.712 -0.2232 -0.2455  0.9099
  384SOL     OW 4428   0.884  10.557   3.897  0.2772  0.1185  0.5283
  384SOL    HW1 4429   0.900  10.651   3.907  0.2907  0.3990 -1.7238
  384SOL    HW2 4430   0.791  10.546   3.918  0.1850  0.7045  0.4439
  385SOL     OW 4431   7.795   3.123   6.310 -0.0720 -0.4195 -0.2302
  385SOL    HW1 4432   7.770   3.141   6.219 -1.5510 -1.9493 -0.1752
  385SOL    HW2 4433   7.891   3.119   6.308  0.0250  1.3302 -1.3362
  386SOL     OW 4434   6.142   7.080   7.643 -0.0894 -0.4851 -0.1285
  386SOL    HW1 4435   6.228   7.041   7.623  0.2543  0.2630 -0.1429
  386SOL    HW2 4436   6.132   7.068   7.737  0.8251  0.9274  0.1932
  387SOL     OW 4437   4.346   6.924  11.313 -0.0446 -0.1838 -0.8557
  387SOL    HW1 4438   4.268   6.881  11.281  0.4664 -0.9326 -1.1164
  387SOL    HW2 4439   4.339   6.917  11.409 -0.2112 -0.3969 -0.8825
  388SOL     OW 4440   3.413  10.532   1.560  0.7611 -0.1602  0.0901
  388SOL    HW1 4441   3.508  10.543   1.558  0.9193  0.5443  3.9367
  388SOL    HW2 4442   3.378  10.620   1.574 -0.5065 -0.4533 -0.9345
  389SOL     OW 4443   1.067   2.247   6.069 -0.4056 -0.5825  0.5635
  389SOL    HW1 4444   1.104   2.332   6.046 -1.6213 -0.6897 -2.0806
  389SOL    HW2 4445   0.974   2.264   6.083 -0.9914 -1.6859 -1.6524
  390SOL     OW 4446   1.676   8.902  10.188 -0.8208 -0.2366 -0.6642
  390SOL    HW1 4447   1.721   8.923  10.269 -1.9511  1.8171 -0.5218
  390SOL    HW2 4448   1.623   8.825  10.210  0.3403 -0.8985 -0.0443
  391SOL     OW 4449   3.526   8.110  11.025  0.1535 -0.1720  0.2048
  391SOL    HW1 4450   3.581   8.188  11.024 -0.2290  0.1061 -1.1952
  391SOL    HW2 4451   3.584   8.038  11.000  0.1554 -0.0792 -0.0582
  392SOL     OW 4452   1.831   6.875  10.863  0.0290  0.2502 -0.2420
  392SOL    HW1 4453   1.834   6.781  10.846 -1.4772  0.1513 -0.1290
  392SOL    HW2 4454   1.825   6.915  10.777 -2.5750  0.0208 -0.2543
  393SOL     OW 4455   7.626   8.564   2.333  0.3204  0.2677  1.1477
  393SOL    HW1 4456   7.558   8.628   2.356  0.3471  0.0999  1.7072
  393SOL    HW2 4457   7.579   8.494   2.288  0.2065  0.4123  1.0397
  394SOL     OW 4458   0.085   2.193   8.792 -0.1495 -0.1151  0.8398
  394SOL    HW1 4459   0.082   2.260   8.861 -1.0348  0.7526 -0.0026
  394SOL    HW2 4460   0.145   2.127   8.825  1.4974  1.5311  1.3157
  395SOL     OW 4461   1.190   4.397   9.571 -0.4153  0.0109  0.1472
  395SOL    HW1 4462   1.124   4.328   9.583  1.4244 -1.5641  2.0566
  395SOL    HW2 4463   1.195   4.440   9.656  0.8608  0.2331 -0.0321
  396SOL     OW 4464   5.810   5.431  11.300  0.1446 -0.4923 -0.2120
  396SOL    HW1 4465   5.900   5.407  11.322  0.4281  0.7233  0.0218
  396SOL    HW2 4466   5.773   5.464  11.382 -0.8260 -1.8512 -0.0782
  397SOL     OW 4467   9.706   8.201   9.497 -0.3784 -0.1667  0.3901
  397SOL    HW1 4468   9.666   8.284   9.523 -0.3282 -0.6046  1.9641
  397SOL    HW2 4469   9.783   8.226   9.447 -1.3246  0.7061 -0.6732
  398SOL     OW 4470   0.924   1.350   0.642 -0.4534 -0.0950  0.4386
  398SOL    HW1 4471   0.990   1.357   0.712  0.2664 -0.8486 -0.1449
  398SOL    HW2 4472   0.909   1.440   0.614  1.3051  0.0065 -0.2954
  399SOL     OW 4473  10.953   9.801   2.878 -0.3722 -0.3517 -0.0908
  399SOL    HW1 4474  10.999   9.865   2.823  0.5099 -0.2447  0.7355
  399SOL    HW2 4475  10.971   9.717   2.836  0.7571 -0.3311  0.2960
  400SOL     OW 4476   5.392   8.336   1.617 -0.0766 -0.0579  0.1563
  400SOL    HW1 4477   5.460   8.274   1.592 -0.3926 -0.2737 -0.1859
  400SOL    HW2 4478   5.310   8.295   1.588 -0.4411 -0.1918  1.2956
  401SOL     OW 4479  11.243  11.127   5.694  0.0373 -0.3021  0.3998
  401SOL    HW1 4480  11.158  11.169   5.681  0.0291  0.1454  1.7720
  401SOL    HW2 4481  11.229  11.036   5.668 -1.0172 -0.3627  1.1228
  402SOL     OW 4482   0.586  11.246   9.665 -0.0175 -0.5378 -0.4818
  402SOL    HW1 4483   0.666  11.234   9.614 -0.3798 -1.2035 -0.9127
  402SOL    HW2 4484   0.592  11.180   9.734  1.7453  2.0444  2.0625
  403SOL     OW 4485   0.098  10.630   7.886 -0.6029 -0.3764  0.1063
  403SOL    HW1 4486   0.124  10.577   7.961 -1.3639  0.1478  0.7615
  403SOL    HW2 4487   0.006  10.607   7.872  0.0461 -1.9802 -1.9693
  404SOL     OW 4488   3.559   7.810   1.266  1.0296  0.5051  0.1002
  404SOL    HW1 4489   3.476   7.852   1.247  0.8745 -0.2209 -0.9329
  404SOL    HW2 4490   3.539   7.716   1.267  1.5458  0.3833  1.3847
  405SOL     OW 4491   3.591   3.855  11.061  0.6528 -0.3869  0.2410
  405SOL    HW1 4492   3.569   3.883  11.150  1.7156  1.0092  0.0983
  405SOL    HW2 4493   3.674   3.809  11.069  0.0016 -1.6387  0.1497
  406SOL     OW 4494   9.001  10.191   7.492  0.1748 -0.6927  0.3379
  406SOL    HW1 4495   9.085  10.236   7.481 -1.3418  2.0942 -0.9275
  406SOL    HW2 4496   8.972  10.215   7.580 -0.2149  0.0790  0.0049
  407SOL     OW 4497   2.049   3.055   8.619  0.4510  0.0601 -0.5528
  407SOL    HW1 4498   2.131   3.071   8.666  0.0018 -1.8290  0.9970
  407SOL    HW2 4499   2.071   3.068   8.526  1.4298  3.6868  0.0460
  408SOL     OW 4500   8.118   8.926  10.461 -0.3771  0.4101 -0.2834
  408SOL    HW1 4501   8.170   8.966  10.530 -0.8353  0.6561 -0.0773
  408SOL    HW2 4502   8.158   8.840  10.447 -1.5997 -0.5874  1.8450
  409SOL     OW 4503   5.949   2.304   5.083  0.6479  0.1690 -0.4226
  409SOL    HW1 4504   5.856   2.327   5.079  0.8756  0.9949 -1.5012
  409SOL    HW2 4505   5.950   2.209   5.094 -0.3169  0.1844 -0.0809
  410SOL     OW 4506   1.640   3.246   7.432  0.1381 -0.1762 -0.6727
  410SOL    HW1 4507   1.689   3.205   7.503 -0.6293  1.7710  1.0905
  410SOL    HW2 4508   1.697   3.239   7.356  1.1379 -2.0391  0.1868
  411SOL     OW 4509  10.467   7.230   3.942 -0.2219  0.3308 -0.3445
  411SOL    HW1 4510  10.490   7.303   3.998  0.3409 -0.1066  0.0128
  411SOL    HW2 4511  10.545   7.217   3.886 -1.4199  1.9090 -2.5159
  412SOL     OW 4512   7.775  10.279   0.799  0.4732 -0.3645 -0.0787
  412SOL    HW1 4513   7.842  10.231   0.848  1.0904  0.3635 -0.1762
  412SOL    HW2 4514   7.764  10.361   0.848  0.4096 -0.0375 -0.6325
  413SOL     OW 4515  10.468   5.534  11.216  0.4495  0.5216  0.3043
  413SOL    HW1 4516  10.533   5.486  11.165 -0.5533 -2.1072  1.3538
  413SOL    HW2 4517  10.438   5.603  11.157  2.0014 -0.0696 -1.2618
  414SOL     OW 4518   9.078   5.959   0.404  0.0381 -0.0147  0.3601
  414SOL    HW1 4519   9.150   5.967   0.341 -1.4525  1.1150 -1.2857
  414SOL    HW2 4520   9.056   6.049   0.425 -0.6832 -0.3630  1.1102
  415SOL     OW 4521   4.939   5.543   5.185 -0.1503  0.7541 -0.2776
  415SOL    HW1 4522   4.871   5.561   5.120 -0.7722  2.2254  0.7224
  415SOL    HW2 4523   4.918   5.601   5.258 -0.0666 -1.5072  1.6818
  416SOL     OW 4524   1.042   4.957  10.762  0.2822  0.1955  0.2247
  416SOL    HW1 4525   0.971   4.937  10.823  0.7421 -0.5416  0.5300
  416SOL    HW2 4526   1.120   4.917  10.802  0.6564  0.0200 -0.6593
  417SOL     OW 4527   8.543   7.903   0.258  0.3361 -0.2040 -0.4426
  417SOL    HW1 4528   8.559   7.882   0.166  0.8794 -1.9490  0.0153
  417SOL    HW2 4529   8.494   7.828   0.292 -1.8006  1.3863  0.2033
  418SOL     OW 4530   1.183  11.321   7.153 -0.2084  0.2336  0.0586
  418SOL    HW1 4531   1.158  11.242   7.202  0.3238 -0.3287 -0.5721
  418SOL    HW2 4532   1.248  11.364   7.209  1.2044 -0.9645 -0.6116
  419SOL     OW 4533   0.918  10.012   5.776  0.9730 -0.0256  0.2696
  419SOL    HW1 4534   0.989   9.990   5.836 -0.5480 -1.9113  1.4977
  419SOL    HW2 4535   0.899   9.931   5.729 -2.9579 -0.9153  2.9023
  420SOL     OW 4536   7.573   6.501   5.015 -0.0299 -0.0534 -0.0427
  420SOL    HW1 4537   7.553   6.502   4.922 -0.7027 -0.2050  0.0974
  420SOL    HW2 4538   7.590   6.593   5.037 -1.4462  0.2148  0.0113
  421SOL     OW 4539  10.761  10.192   6.490  0.5302  1.0862 -0.0254
  421SOL    HW1 4540  10.671  10.222   6.476  0.7238  1.5044 -0.4248
  421SOL    HW2 4541  10.814  10.254   6.439  0.9337 -0.1154 -1.1328
  422SOL     OW 4542   6.874   6.933   6.253 -0.0807  0.4821 -0.1680
  422SOL    HW1 4543   6.788   6.935   6.295  0.8579 -1.1715  2.0124
  422SOL    HW2 4544   6.908   6.846   6.271  2.8844  1.7056  0.8045
  423SOL     OW 4545   9.303   4.757   9.692 -0.0235  0.0188 -0.1432
  423SOL    HW1 4546   9.226   4.709   9.661 -0.0935  0.3490 -0.5032
  423SOL    HW2 4547   9.354   4.693   9.741 -0.6281 -0.1566  0.2747
  424SOL     OW 4548   0.156   6.649  10.871 -0.5114 -0.2973  0.3242
  424SOL    HW1 4549   0.081   6.703  10.846  0.4521  1.1000  0.3273
  424SOL    HW2 4550   0.232   6.704  10.851  0.4741 -1.3103  1.1894
  425SOL     OW 4551   8.362   7.757   5.533  0.4167 -0.5395 -0.0446
  425SOL    HW1 4552   8.376   7.840   5.579  1.1240 -0.4291 -0.4417
  425SOL    HW2 4553   8.449   7.730   5.505  0.1019 -1.0324 -0.5813
  426SOL     OW 4554   0.460   7.183   3.501 -0.0345 -0.1620 -0.1818
  426SOL    HW1 4555   0.476   7.159   3.592  1.2806  0.0262 -0.3545
  426SOL    HW2 4556   0.507   7.117   3.450 -1.5729 -0.8665 -0.7732
  427SOL     OW 4557   3.430   4.106   5.227 -0.0491 -0.0841 -0.4402
  427SOL    HW1 4558   3.417   4.137   5.138  0.1415 -0.8513 -0.7401
  427SOL    HW2 4559   3.482   4.026   5.218 -1.2181 -0.9639  0.2361
  428SOL     OW 4560   3.152  11.097   2.380  0.3267 -0.2905 -0.2982
  428SOL    HW1 4561   3.247  11.106   2.376  0.2483  1.8978  1.2539
  428SOL    HW2 4562   3.118  11.182   2.353 -1.1373 -0.4710  0.8536
  429SOL     OW 4563   3.932   4.997  11.330  0.3176  0.1153 -0.0196
  429SOL    HW1 4564   3.953   5.014  11.238  0.4957  0.8949  0.1605
  429SOL    HW2 4565   4.014   4.963  11.367  0.8702  1.7696  0.3356
  430SOL     OW 4566  10.357   3.793   3.597 -0.6384 -0.1759  0.2031
  430SOL    HW1 4567  10.354   3.723   3.662  1.7952 -0.1268  0.4498
  430SOL    HW2 4568  10.379   3.749   3.515 -1.2894  0.0574 -0.1031
  431SOL     OW 4569   8.331   9.788   7.263  0.0413 -0.4825 -0.0114
  431SOL    HW1 4570   8.297   9.783   7.352  0.9406 -1.1089  0.3121
  431SOL    HW2 4571   8.421   9.756   7.270 -0.3162 -1.9424 -1.3756
  432SOL     OW 4572   9.797  10.051   1.932 -0.0824 -0.2880 -0.5215
  432SOL    HW1 4573   9.879  10.099   1.930 -0.0206 -0.3778 -0.2067
  432SOL    HW2 4574   9.816   9.973   1.985 -0.7086  0.3100  0.6030
  433SOL     OW 4575   0.075   5.548   1.471  0.2137 -0.1902  0.2770
  433SOL    HW1 4576   0.024   5.627   1.453  0.7295  0.2136  0.5584
  433SOL    HW2 4577   0.084   5.547   1.567 -0.4823 -1.0336  0.3460
  434SOL     OW 4578   3.675   4.657  10.232  0.3526  0.1097  0.3287
  434SOL    HW1 4579   3.594   4.684  10.189 -0.1496  0.0709  1.2400
  434SOL    HW2 4580   3.743   4.670  10.165 -0.4401 -0.1777 -0.5531
  435SOL     OW 4581  10.504   4.289   1.830  0.0359 -0.3483  0.4543
  435SOL    HW1 4582  10.474   4.379   1.844  0.0826 -0.1782 -0.4907
  435SOL    HW2 4583  10.439   4.235   1.875  0.3425  0.1684  1.5660
  436SOL     OW 4584   9.332   2.899   3.045  0.5198  0.4270  0.4374
  436SOL    HW1 4585   9.333   2.980   3.096  0.3622  0.2270  0.7649
  436SOL    HW2 4586   9.406   2.907   2.985 -0.1241  1.2730 -0.2556
  437SOL     OW 4587   2.358   3.158   3.466 -0.0027 -0.3580  0.1361
  437SOL    HW1 4588   2.300   3.143   3.391 -0.4546  1.3571  0.0885
  437SOL    HW2 4589   2.352   3.078   3.518  0.9554 -1.9428 -2.0272
  438SOL     OW 4590   7.280   7.626   2.298 -0.3307 -0.3806  0.1798
  438SOL    HW1 4591   7.187   7.606   2.308 -0.5344  0.3292 -0.2461
  438SOL    HW2 4592   7.314   7.629   2.388 -0.8151 -0.2069  0.3584
  439SOL     OW 4593   5.947   4.795   5.955 -0.4201  0.0989  0.7330
  439SOL    HW1 4594   5.969   4.835   6.039 -1.2932 -1.0627  1.5484
  439SOL    HW2 4595   5.856   4.767   5.965 -0.7350  0.4585 -0.8203
  440SOL     OW 4596   1.861  10.394   2.898 -0.3951 -0.3101 -0.5801
  440SOL    HW1 4597   1.865  10.429   2.987 -0.6631  0.3495 -0.8155
  440SOL    HW2 4598   1.799  10.452   2.853  1.3381  0.7346 -1.7803
  441SOL     OW 4599   6.972   4.103   9.040 -0.7838  0.2895 -0.3474
  441SOL    HW1 4600   6.972   4.109   9.136  0.4119  1.0088 -0.3693
  441SOL    HW2 4601   6.881   4.083   9.018 -1.0235 -0.2006  0.9491
  442SOL     OW 4602  11.024   0.769   0.935 -0.4430 -0.6545 -0.1939
  442SOL    HW1 4603  11.035   0.722   1.018 -0.1735 -1.6609 -0.7820
  442SOL    HW2 4604  11.036   0.702   0.868  2.0381  0.5842 -1.1321
  443SOL     OW 4605   6.180   3.744   6.209 -0.2290  0.5859 -0.0888
  443SOL    HW1 4606   6.177   3.839   6.203  2.4807  0.7059 -0.9732
  443SOL    HW2 4607   6.104   3.714   6.159 -0.8285  2.2780 -0.2379
  444SOL     OW 4608   5.748  11.113   8.979  0.0444  0.3310  0.7421
  444SOL    HW1 4609   5.764  11.031   8.931  1.0525  0.5420  0.6911
  444SOL    HW2 4610   5.716  11.085   9.065 -0.1180 -0.0990  0.5464
  445SOL     OW 4611   7.473   7.999   6.251 -0.0457 -0.6817 -0.4630
  445SOL    HW1 4612   7.450   8.053   6.326 -1.0591 -0.3025 -1.0260
  445SOL    HW2 4613   7.470   7.909   6.284 -0.4041 -0.5123 -0.0217
  446SOL     OW 4614  10.324   5.122   2.056 -0.0376  0.2846  0.5107
  446SOL    HW1 4615  10.404   5.142   2.008  1.2860 -1.4629  1.8391
  446SOL    HW2 4616  10.330   5.028   2.074 -1.4325  0.4839  2.3118
  447SOL     OW 4617   0.388   5.257   0.322 -0.0448  0.3597  0.6416
  447SOL    HW1 4618   0.393   5.161   0.321 -0.0121  0.3590  0.9829
  447SOL    HW2 4619   0.320   5.277   0.386 -1.1811  0.5189 -0.5618
  448SOL     OW 4620   9.057  10.826   4.910  0.1768 -0.1403 -0.1409
  448SOL    HW1 4621   9.074  10.841   4.817 -1.1635  0.2064 -0.3505
  448SOL    HW2 4622   9.062  10.731   4.919  1.0968 -0.1242 -0.3955
  449SOL     OW 4623   8.878   3.632  10.949  0.0113  0.1288 -0.8402
  449SOL    HW1 4624   8.840   3.699  11.006  2.0614 -0.1821  1.0346
  449SOL    HW2 4625   8.804   3.578  10.922 -1.4128  1.9261 -0.7611
  450SOL     OW 4626  10.839   1.251   6.510  0.1360  0.1501  0.1719
  450SOL    HW1 4627  10.854   1.157   6.518 -1.5435 -0.0407  1.5965
  450SOL    HW2 4628  10.926   1.290   6.524  0.7547 -1.1607  0.1086
  451SOL     OW 4629  11.058   2.937   9.841 -0.0146  0.0596 -0.8430
  451SOL    HW1 4630  11.121   2.985   9.895 -0.8920  1.9457 -1.4224
  451SOL    HW2 4631  10.983   2.923   9.899 -0.6845  1.4850 -1.3293
  452SOL     OW 4632   5.827   2.619   2.103 -0.2868 -0.8153 -0.1636
  452SOL    HW1 4633   5.754   2.669   2.138 -0.3029 -1.7167  1.1985
  452SOL    HW2 4634   5.801   2.596   2.014  0.6303  3.3708 -1.7568
  453SOL     OW 4635   8.583  10.677   5.349 -0.1169 -0.2180  1.2423
  453SOL    HW1 4636   8.528  10.698   5.274  1.3987  1.3275  0.5058
  453SOL    HW2 4637   8.558  10.741   5.415  0.9526  0.6757  0.8048
  454SOL     OW 4638   5.632   2.750   9.636  0.5432 -0.0506 -0.8142
  454SOL    HW1 4639   5.637   2.757   9.541 -1.7028 -1.4898 -1.1296
  454SOL    HW2 4640   5.561   2.809   9.662  0.1116 -0.7845 -0.2511
  455SOL     OW 4641   4.665   6.613   0.939  0.3041  0.2319  0.6416
  455SOL    HW1 4642   4.738   6.653   0.986 -0.5689 -1.5169  3.7126
  455SOL    HW2 4643   4.703   6.537   0.895  0.5715  0.1311  1.0481
  456SOL     OW 4644   5.255   1.631  11.013 -0.3751 -0.4223 -0.6859
  456SOL    HW1 4645   5.172   1.589  10.992  0.2081 -1.6139 -0.7114
  456SOL    HW2 4646   5.233   1.723  11.027 -1.7132 -0.7435 -0.5562
  457SOL     OW 4647   5.128   7.102   3.104 -0.2268  0.3896 -0.7868
  457SOL    HW1 4648   5.109   7.095   3.010 -0.9177 -2.3376 -0.5229
  457SOL    HW2 4649   5.076   7.177   3.132  0.1149  1.3738 -2.5793
  458SOL     OW 4650   0.390   7.126   3.921 -0.6426 -0.3682  0.0258
  458SOL    HW1 4651   0.432   7.053   3.965  0.4225  0.7301  0.8876
  458SOL    HW2 4652   0.300   7.126   3.954 -0.4059 -0.7709  0.6823
  459SOL     OW 4653   1.161   3.755   1.890  0.7138  0.4812 -0.2794
  459SOL    HW1 4654   1.220   3.809   1.837  0.9312 -0.3072 -0.8731
  459SOL    HW2 4655   1.077   3.759   1.845  0.4772  1.1013  0.2167
  460SOL     OW 4656   4.420   4.759   5.256  0.2085 -0.7551 -0.2659
  460SOL    HW1 4657   4.425   4.778   5.162  0.2627 -0.1387 -0.1465
  460SOL    HW2 4658   4.476   4.683   5.269  0.1642 -0.8699 -0.7396
  461SOL     OW 4659   1.292   0.928   8.751 -0.0726  0.6237 -0.1313
  461SOL    HW1 4660   1.244   0.965   8.825 -0.7700 -0.8026  0.1557
  461SOL    HW2 4661   1.383   0.927   8.781 -0.2360  0.7961  0.3920
  462SOL     OW 4662   2.905  10.188   1.928  0.3021  0.4005 -0.0112
  462SOL    HW1 4663   2.988  10.195   1.976  0.4842  0.9329 -0.3890
  462SOL    HW2 4664   2.912  10.107   1.878  0.5790  0.4149  0.0021
  463SOL     OW 4665   6.880   9.282   6.712 -0.1095 -0.3009 -0.2855
  463SOL    HW1 4666   6.900   9.293   6.619 -0.7158  1.3041 -0.2700
  463SOL    HW2 4667   6.784   9.287   6.716 -0.1711 -1.6869  0.2893
  464SOL     OW 4668   7.738   7.793   7.165 -0.3711  0.5841 -0.0599
  464SOL    HW1 4669   7.816   7.849   7.164  0.4692 -0.5579 -0.6019
  464SOL    HW2 4670   7.699   7.807   7.079  0.9158 -1.0710 -0.9688
  465SOL     OW 4671   4.570   0.756   4.737 -0.0406  0.4338  0.4847
  465SOL    HW1 4672   4.576   0.843   4.777  0.4263  0.9984 -0.7443
  465SOL    HW2 4673   4.657   0.740   4.700 -0.1471 -0.5222  0.6236
  466SOL     OW 4674   9.823   3.023   1.477 -0.0676 -0.2484  0.3386
  466SOL    HW1 4675   9.917   3.004   1.476  0.5249  2.2527 -1.2112
  466SOL    HW2 4676   9.799   3.028   1.384 -1.8692 -1.2109  0.7004
  467SOL     OW 4677   2.153   6.251   8.669  0.3914  0.0887  0.2951
  467SOL    HW1 4678   2.183   6.290   8.750  0.4358 -0.4129  0.5245
  467SOL    HW2 4679   2.073   6.204   8.693  0.5211 -0.2389  0.0926
  468SOL     OW 4680   8.525   0.706   7.742 -0.0942 -0.5808  0.4048
  468SOL    HW1 4681   8.475   0.671   7.816 -1.9574  1.9412  0.4788
  468SOL    HW2 4682   8.581   0.634   7.714 -0.3476 -2.0699  3.3658
  469SOL     OW 4683   5.088   7.195   8.899 -0.2660  0.5058  0.1213
  469SOL    HW1 4684   4.995   7.176   8.908 -1.1611  3.4839 -1.3759
  469SOL    HW2 4685   5.117   7.219   8.987 -1.7133  2.2710  0.1792
  470SOL     OW 4686   3.057  11.150   5.977  0.7670  0.2181  0.7178
  470SOL    HW1 4687   3.029  11.197   5.899  1.7583 -1.4562 -0.7110
  470SOL    HW2 4688   2.995  11.078   5.987  1.7788 -0.7564  0.2541
  471SOL     OW 4689   0.015   3.522  10.188  0.2386 -0.1237 -0.4554
  471SOL    HW1 4690   0.067   3.591  10.145  2.2856 -0.3696  1.4376
  471SOL    HW2 4691  -0.019   3.564  10.267 -1.2346 -0.4345 -0.8917
  472SOL     OW 4692   6.584   4.971   0.681  0.5318  0.0733 -0.3788
  472SOL    HW1 4693   6.677   4.984   0.700  0.0138  1.3150  1.6568
  472SOL    HW2 4694   6.562   4.889   0.724  0.5508  0.1029 -0.3120
  473SOL     OW 4695   1.020   5.117   9.265 -0.3872 -0.2278  0.1199
  473SOL    HW1 4696   0.944   5.109   9.323 -0.9827  0.1243 -0.6003
  473SOL    HW2 4697   1.068   5.192   9.300  0.3550 -1.2341  1.3700
  474SOL     OW 4698  10.490   5.369   9.085 -0.5341 -0.2515  0.1316
  474SOL    HW1 4699  10.413   5.410   9.124  0.5529  0.5218  1.5829
  474SOL    HW2 4700  10.558   5.436   9.091  0.4883 -1.2231 -0.2917
  475SOL     OW 4701   7.263   6.665   9.263  0.0441  0.2629  0.2017
  475SOL    HW1 4702   7.283   6.733   9.328 -0.1429 -0.9182  1.5269
  475SOL    HW2 4703   7.283   6.706   9.179  4.6384  0.4107  1.1342
  476SOL     OW 4704   5.707   8.029  10.614 -0.4753  0.1075  0.1837
  476SOL    HW1 4705   5.798   8.000  10.612 -0.4855 -0.0717  1.5105
  476SOL    HW2 4706   5.682   8.037  10.522  0.6584 -0.5378 -0.1953
  477SOL     OW 4707   8.896  10.739   4.487  0.3720  0.0142  0.1400
  477SOL    HW1 4708   8.842  10.815   4.510 -0.8764 -1.2526  1.5893
  477SOL    HW2 4709   8.833  10.671   4.464  1.4829 -0.5221 -1.4842
  478SOL     OW 4710  11.157   6.365   1.618  0.2227 -0.1341 -0.3988
  478SOL    HW1 4711  11.086   6.387   1.679 -0.5269 -2.5866 -0.2648
  478SOL    HW2 4712  11.113   6.332   1.540  1.1833 -1.0719 -0.5759
  479SOL     OW 4713   8.892   8.888   2.276  0.3311 -0.1099  0.1878
  479SOL    HW1 4714   8.824   8.952   2.256 -0.8103 -1.1312  0.6640
  479SOL    HW2 4715   8.885   8.875   2.371  0.2993 -1.2018  0.0416
  480SOL     OW 4716  10.111   4.298   1.988  0.0201  0.8457  0.0515
  480SOL    HW1 4717  10.108   4.385   1.947  1.2236  0.8035 -0.1415
  480SOL    HW2 4718  10.084   4.238   1.918 -0.3467  1.0148  0.0465
  481SOL     OW 4719   5.980   1.726   3.338 -0.1079  0.2848  0.2761
  481SOL    HW1 4720   5.910   1.737   3.273  0.6329 -0.5680 -0.7021
  481SOL    HW2 4721   6.060   1.747   3.290  0.3273  1.1652  1.3574
  482SOL     OW 4722   0.274   5.632   4.308  0.2838 -0.2060  0.0899
  482SOL    HW1 4723   0.263   5.607   4.400 -1.9309  1.7329  0.4338
  482SOL    HW2 4724   0.303   5.551   4.265 -0.1521 -1.5734  2.2073
  483SOL     OW 4725   6.055  10.248   8.765 -0.5944 -0.0661 -0.1363
  483SOL    HW1 4726   6.044  10.343   8.766 -1.3997 -0.1073 -1.6978
  483SOL    HW2 4727   6.148  10.235   8.751 -0.5471  0.5098 -0.4176
  484SOL     OW 4728   0.855   8.300   8.675  0.2710  0.4417  0.3584
  484SOL    HW1 4729   0.789   8.299   8.606 -0.1246  1.0627  0.7094
  484SOL    HW2 4730   0.899   8.215   8.669 -1.6898 -0.6949  1.1991
  485SOL     OW 4731   0.046   7.242   1.471  0.4363  0.2053 -0.4459
  485SOL    HW1 4732   0.111   7.194   1.522 -0.3040 -0.7937 -0.4109
  485SOL    HW2 4733  -0.035   7.193   1.482 -0.4042  1.5608 -0.2773
  486SOL     OW 4734   7.878   2.574   5.958  0.0159 -0.1815  0.1519
  486SOL    HW1 4735   7.864   2.528   6.041 -0.2464 -0.2127  0.0913
  486SOL    HW2 4736   7.956   2.532   5.921  0.0963 -0.2102  0.3520
  487SOL     OW 4737   7.579   5.405   2.700  0.0393 -0.3204 -0.8199
  487SOL    HW1 4738   7.509   5.424   2.638  1.0009 -0.6799 -2.0397
  487SOL    HW2 4739   7.538   5.415   2.786 -0.7419  2.5559 -1.4220
  488SOL     OW 4740   9.212  10.932   9.000 -0.0853 -0.5919  0.2879
  488SOL    HW1 4741   9.184  10.904   8.913  0.3673  0.5391 -0.2457
  488SOL    HW2 4742   9.138  10.984   9.032 -0.5392 -1.5777  0.8870
  489SOL     OW 4743   7.575   2.956   9.480 -0.5417  0.0797 -0.2085
  489SOL    HW1 4744   7.483   2.934   9.498 -0.6033  1.1422  0.9235
  489SOL    HW2 4745   7.571   3.046   9.447  0.1472  0.4002  0.5608
  490SOL     OW 4746   6.606   8.166   2.596  0.1198  0.1972 -0.4658
  490SOL    HW1 4747   6.643   8.240   2.644 -1.0903  0.4559  0.0884
  490SOL    HW2 4748   6.667   8.093   2.614 -0.0045  0.4264  0.9997
  491SOL     OW 4749   1.209   8.953   9.038 -0.3008  0.0547  0.2262
  491SOL    HW1 4750   1.221   8.996   8.954 -0.4080  0.1098  0.2395
  491SOL    HW2 4751   1.255   9.009   9.101  0.0284 -0.1424  0.1606
  492SOL     OW 4752   0.465   9.322  11.145  0.1518  0.1216 -0.5340
  492SOL    HW1 4753   0.396   9.379  11.113 -0.5919  0.1858  1.0886
  492SOL    HW2 4754   0.539   9.338  11.086 -0.0565  2.6726 -0.2307
  493SOL     OW 4755   2.259   8.034   5.000  0.4996 -0.1813  0.4080
  493SOL    HW1 4756   2.198   7.973   5.043 -0.0896  1.0898  1.4826
  493SOL    HW2 4757   2.303   8.077   5.073  0.4637  1.0880 -0.3014
  494SOL     OW 4758   3.383   0.074   4.033 -0.2447 -0.5355  0.1338
  494SOL    HW1 4759   3.381   0.154   4.085 -0.4948  0.1944 -0.9654
  494SOL    HW2 4760   3.420   0.008   4.092 -0.3428  0.3020  1.1614
  495SOL     OW 4761   7.725   2.246  10.034 -0.1126  0.3000 -0.1609
  495SOL    HW1 4762   7.812   2.219  10.003  0.2387  1.7844 -0.5589
  495SOL    HW2 4763   7.734   2.254  10.129  0.0673  0.0295 -0.1556
  496SOL     OW 4764   8.502   9.845   1.440  0.1672  0.0197  0.1434
  496SOL    HW1 4765   8.565   9.911   1.411  0.0304  0.1919  0.2335
  496SOL    HW2 4766   8.550   9.791   1.503  1.0020 -1.4405 -1.6645
  497SOL     OW 4767   0.622   9.200   4.831  0.0034  0.1640  0.0158
  497SOL    HW1 4768   0.611   9.107   4.810  0.5515  0.0627  0.1467
  497SOL    HW2 4769   0.663   9.200   4.917  0.7883  0.5039 -0.3429
  498SOL     OW 4770   9.877  10.578   6.461 -0.2284 -0.1033  0.6226
  498SOL    HW1 4771   9.796  10.605   6.503 -0.3786  0.1860  0.1634
  498SOL    HW2 4772   9.869  10.483   6.450 -0.8872  0.0362 -0.2002
  499SOL     OW 4773   4.551   8.115   8.881 -0.2686 -0.4997  0.1609
  499SOL    HW1 4774   4.608   8.141   8.808  0.7149 -1.9566  0.3639
  499SOL    HW2 4775   4.579   8.170   8.954 -2.7580  2.6185 -0.9815
  500SOL     OW 4776   6.656   6.599   3.270 -0.1351  0.2149 -0.3980
  500SOL    HW1 4777   6.746   6.629   3.285  0.5999 -1.0307 -2.0699
  500SOL    HW2 4778   6.646   6.523   3.327  0.1477 -0.1180 -0.7892
  501SOL     OW 4779   1.437   3.882   0.628 -0.2446  0.4833 -0.4317
  501SOL    HW1 4780   1.350   3.860   0.593 -0.0077  1.0281 -1.3751
  501SOL    HW2 4781   1.435   3.848   0.718 -1.6429  1.0022 -0.2424
  502SOL     OW 4782  10.679  10.163   3.750  0.0404  0.0553 -0.1285
  502SOL    HW1 4783  10.596  10.212   3.749 -0.0795 -0.1236  0.4880
  502SOL    HW2 4784  10.743  10.225   3.716 -0.1896  0.4962  0.2230
  503SOL     OW 4785  10.032   1.175   7.227 -0.5327 -0.3546  0.5274
  503SOL    HW1 4786  10.034   1.265   7.259  2.1039  0.2695 -1.0871
  503SOL    HW2 4787   9.942   1.164   7.194 -0.5821  2.1820 -0.4803
  504SOL     OW 4788   8.871  10.465  10.936  0.5176  0.5805 -0.4584
  504SOL    HW1 4789   8.912  10.459  10.850 -0.5826 -2.1266 -0.8715
  504SOL    HW2 4790   8.911  10.395  10.987 -0.7675  0.4370  0.3870
  505SOL     OW 4791   8.734   5.386   5.826  0.4987 -0.2964  0.0765
  505SOL    HW1 4792   8.654   5.341   5.852  0.6964 -0.9193 -0.3960
  505SOL    HW2 4793   8.766   5.426   5.907  0.2478 -0.8800  0.4668
  506SOL     OW 4794   6.988   0.148   7.269  0.3594 -0.1028  0.9381
  506SOL    HW1 4795   6.998   0.235   7.308 -0.8423  0.3464  0.3068
  506SOL    HW2 4796   7.055   0.095   7.311  2.9836  1.7597 -0.5849
  507SOL     OW 4797   6.781   2.960  10.538  0.5255  1.0068 -0.2330
  507SOL    HW1 4798   6.814   2.945  10.449  0.0259  0.3569 -0.3216
  507SOL    HW2 4799   6.817   3.044  10.563  1.8010  0.5685 -0.5279
  508SOL     OW 4800   0.438   0.690  11.278  0.0991 -0.2149  0.3653
  508SOL    HW1 4801   0.506   0.755  11.294  0.1842 -0.6261  1.8986
  508SOL    HW2 4802   0.382   0.728  11.211 -0.5362  1.9962  2.0144
  509SOL     OW 4803  10.384  10.329  11.010 -0.2863 -0.5599 -0.5136
  509SOL    HW1 4804  10.420  10.286  11.088  0.2910  0.3864 -0.2499
  509SOL    HW2 4805  10.352  10.413  11.042 -0.4040 -0.3294 -1.2320
  510SOL     OW 4806   1.192   1.028  10.243 -0.8055 -0.4678  0.1279
  510SOL    HW1 4807   1.119   1.056  10.298 -1.2757 -0.6727 -0.3829
  510SOL    HW2 4808   1.191   1.088  10.169 -1.0879 -1.0950 -0.3858
  511SOL     OW 4809   1.568   1.741   0.462 -0.3228  0.3530  0.0447
  511SOL    HW1 4810   1.618   1.774   0.387  1.0639  0.9899  1.2046
  511SOL    HW2 4811   1.515   1.815   0.491 -2.5184 -0.4872 -1.5543
  512SOL     OW 4812  10.826   7.077  10.523  0.1231 -0.0340 -0.4679
  512SOL    HW1 4813  10.798   7.142  10.459  2.1418  0.9307 -0.4683
  512SOL    HW2 4814  10.858   7.004  10.470  0.5417  0.2041 -0.5506
  513SOL     OW 4815   5.548   9.984   0.843  0.4620  0.3617 -0.2964
  513SOL    HW1 4816   5.625   9.946   0.801 -0.6433 -0.3148 -1.7654
  513SOL    HW2 4817   5.501   9.909   0.879 -0.8294  0.4780 -1.6758
  514SOL     OW 4818   0.378   3.399   3.919 -0.0431 -0.3610  0.9286
  514SOL    HW1 4819   0.396   3.464   3.851 -2.4848 -0.2531  0.2882
  514SOL    HW2 4820   0.455   3.342   3.919  0.3516  0.0579 -1.4596
  515SOL     OW 4821   8.252   2.913  11.175  0.1556  0.4713  0.2011
  515SOL    HW1 4822   8.234   2.995  11.220 -0.2563 -0.3086  1.5044
  515SOL    HW2 4823   8.307   2.938  11.101  0.1636  1.8942  0.6572
  516SOL     OW 4824  10.891   3.789   4.374 -0.5880 -0.0187 -0.4560
  516SOL    HW1 4825  10.980   3.781   4.407 -0.7500  0.3314  0.0742
  516SOL    HW2 4826  10.897   3.854   4.304 -0.4493  0.0928 -0.3409
  517SOL     OW 4827   3.939  10.251   4.793 -0.4217  0.1782  0.3139
  517SOL    HW1 4828   3.952  10.333   4.745  0.3182 -0.2395 -0.2089
  517SOL    HW2 4829   4.018  10.201   4.777 -1.3620 -1.1428 -0.3358
  518SOL     OW 4830   0.573   0.514   6.444 -0.0786 -0.4304  0.4797
  518SOL    HW1 4831   0.588   0.596   6.491 -1.4351  0.3451 -0.3908
  518SOL    HW2 4832   0.571   0.538   6.352  2.5275 -1.9378 -0.0588
  519SOL     OW 4833   7.645   3.179   0.070  0.2280 -0.2306 -0.2442
  519SOL    HW1 4834   7.643   3.090   0.104  0.2151 -0.4060 -0.6899
  519SOL    HW2 4835   7.735   3.190   0.037  0.2966  0.0013  0.0130
  520SOL     OW 4836   2.691   1.086   1.478 -0.2550  1.0084 -0.5963
  520SOL    HW1 4837   2.644   1.060   1.557  2.6696  1.0663  1.3060
  520SOL    HW2 4838   2.649   1.035   1.408 -0.8892 -1.5774  1.4899
  521SOL     OW 4839  10.905   5.945   3.145  0.3033  0.1024 -0.2250
  521SOL    HW1 4840  10.973   6.013   3.152 -0.7323  1.4685 -2.4633
  521SOL    HW2 4841  10.951   5.868   3.112  1.1626  0.2363  0.6090
  522SOL     OW 4842   4.747   3.631   2.343  0.5210 -0.0370  0.3501
  522SOL    HW1 4843   4.687   3.706   2.340  0.2828 -0.2387 -1.2363
  522SOL    HW2 4844   4.710   3.569   2.280  0.7808 -1.4474  1.5418
  523SOL     OW 4845   1.681   5.889  10.386 -0.6120  0.7186 -0.1488
  523SOL    HW1 4846   1.693   5.797  10.361 -2.4075  0.3777  0.1019
  523SOL    HW2 4847   1.703   5.938  10.307  2.0963  0.2487  0.2069
  524SOL     OW 4848  10.242   3.576   9.219  0.3133  0.3399  0.0086
  524SOL    HW1 4849  10.283   3.496   9.251  0.2301  1.1150  2.2163
  524SOL    HW2 4850  10.298   3.604   9.147  2.0590 -0.1398  1.1074
  525SOL     OW 4851   7.595   2.405  10.904 -0.1995 -0.0609  0.6677
  525SOL    HW1 4852   7.554   2.426  10.820 -1.7110 -0.2600  1.3094
  525SOL    HW2 4853   7.688   2.423  10.891 -0.5905  1.2382 -0.6203
  526SOL     OW 4854   1.568  10.684   2.312  0.2128 -0.1380 -0.0885
  526SOL    HW1 4855   1.660  10.699   2.290  0.1099 -2.3425 -2.4802
  526SOL    HW2 4856   1.552  10.593   2.289 -2.2755 -0.2022  1.5131
  527SOL     OW 4857   5.782   6.042   6.546  0.2316 -0.4410 -0.1642
  527SOL    HW1 4858   5.719   6.108   6.515  1.9541  0.4562 -1.9475
  527SOL    HW2 4859   5.857   6.051   6.488  2.9957  0.0655  3.2058
  528SOL     OW 4860   2.225   4.233   2.145  0.9399  0.0730  0.3496
  528SOL    HW1 4861   2.142   4.198   2.111  1.5074 -0.2512 -0.7447
  528SOL    HW2 4862   2.242   4.182   2.224 -0.5417  1.0199  1.3424
  529SOL     OW 4863   5.656   6.208   7.924  0.2227  0.4652  0.3830
  529SOL    HW1 4864   5.587   6.142   7.923  0.9592 -0.3273  0.3188
  529SOL    HW2 4865   5.686   6.211   8.015  0.7443  0.0989  0.2318
  530SOL     OW 4866  10.980   7.763   4.165  0.0337 -0.3009  0.5248
  530SOL    HW1 4867  11.053   7.823   4.180 -0.7280  0.6218  0.6265
  530SOL    HW2 4868  11.008   7.681   4.207  0.1538  0.6564  2.4421
  531SOL     OW 4869   5.724   8.818  10.593 -0.5124 -0.2998 -0.4703
  531SOL    HW1 4870   5.794   8.835  10.655 -1.1487 -1.4128  0.5981
  531SOL    HW2 4871   5.737   8.882  10.523  1.3818 -0.2995 -0.1566
  532SOL     OW 4872   7.680   4.762   0.660 -0.2384  0.3742  0.8360
  532SOL    HW1 4873   7.633   4.815   0.596  0.9936  0.7156  0.1791
  532SOL    HW2 4874   7.733   4.824   0.710  0.1813 -0.0741  0.9677
  533SOL     OW 4875   4.742   2.253   9.215  0.1066 -0.2687  0.2544
  533SOL    HW1 4876   4.700   2.331   9.178  0.2436 -0.3763 -0.1261
  533SOL    HW2 4877   4.777   2.205   9.140 -0.9127 -1.2501  0.3738
  534SOL     OW 4878   7.896   2.162   3.361  0.0165  1.3976  0.3271
  534SOL    HW1 4879   7.921   2.250   3.389  1.7141  0.5057  1.7744
  534SOL    HW2 4880   7.978   2.111   3.365 -0.8780 -0.2098 -0.6735
  535SOL     OW 4881  10.211   2.248   5.167  0.5187 -0.2127  0.2679
  535SOL    HW1 4882  10.273   2.193   5.214  0.7492 -0.4225 -0.2692
  535SOL    HW2 4883  10.257   2.331   5.153  1.0830 -0.7165 -1.0307
  536SOL     OW 4884   7.722   2.419   2.516 -1.3261  0.5068 -0.0031
  536SOL    HW1 4885   7.716   2.417   2.421 -0.9402 -2.6585 -0.0649
  536SOL    HW2 4886   7.637   2.388   2.546 -0.1753 -2.5185  0.4546
  537SOL     OW 4887   8.260   3.547   1.511  0.2507 -0.2655 -0.3535
  537SOL    HW1 4888   8.293   3.475   1.564  0.8115  0.5314  0.3997
  537SOL    HW2 4889   8.272   3.518   1.420  0.0770 -1.2854 -0.0600
  538SOL     OW 4890   5.261   6.305   1.282 -0.1065 -0.2208 -0.1644
  538SOL    HW1 4891   5.296   6.247   1.215  0.7426  0.3286 -0.2098
  538SOL    HW2 4892   5.265   6.254   1.363 -0.6689 -0.7050 -0.4286
  539SOL     OW 4893   0.738   5.685   4.247  0.1951 -0.0901 -0.1598
  539SOL    HW1 4894   0.817   5.668   4.196 -0.9471 -0.9748 -1.6943
  539SOL    HW2 4895   0.690   5.602   4.247 -0.3375  0.1826  1.4918
  540SOL     OW 4896   5.506   8.198   8.984 -0.6221  0.5281  0.4027
  540SOL    HW1 4897   5.527   8.117   9.031 -0.0549  0.5766  0.2392
  540SOL    HW2 4898   5.415   8.187   8.957 -1.0310  0.6007  1.7106
  541SOL     OW 4899   4.370   4.025   0.244 -0.2072 -0.6160  0.6763
  541SOL    HW1 4900   4.382   4.035   0.149 -3.0013  0.4119  0.3212
  541SOL    HW2 4901   4.428   4.089   0.283 -0.3590  0.2561 -0.4635
  542SOL     OW 4902   3.688   2.266   0.189 -0.3576  0.3219  0.1186
  542SOL    HW1 4903   3.611   2.322   0.181 -0.7529 -0.3524 -1.1327
  542SOL    HW2 4904   3.726   2.288   0.274 -0.9134  1.9485 -0.0266
  543SOL     OW 4905   9.398   7.338  10.933 -0.0364 -0.6574 -0.5797
  543SOL    HW1 4906   9.386   7.318  10.841 -0.9872  0.2934 -0.6828
  543SOL    HW2 4907   9.478   7.292  10.958  0.6922 -0.2467 -2.0818
  544SOL     OW 4908   1.343   9.270   2.752 -0.2982  0.1636  0.5930
  544SOL    HW1 4909   1.264   9.298   2.707  0.7045  1.2972 -0.5458
  544SOL    HW2 4910   1.321   9.275   2.845 -1.8759 -0.6018  0.2881
  545SOL     OW 4911   5.991   3.340   7.262 -0.4186  0.0101  0.4268
  545SOL    HW1 4912   5.938   3.395   7.320 -2.2849 -0.9467 -0.2913
  545SOL    HW2 4913   5.966   3.251   7.285  0.9728 -0.4896  0.0962
  546SOL     OW 4914   4.970   7.317   2.030  0.0348 -0.7177 -0.0840
  546SOL    HW1 4915   4.902   7.292   1.967  0.2400  1.1550 -1.1184
  546SOL    HW2 4916   5.025   7.380   1.983  1.4967 -0.8926  1.2855
  547SOL     OW 4917   2.523   6.612   5.332  0.6850  0.4148  0.2132
  547SOL    HW1 4918   2.511   6.605   5.238 -0.0719  1.2328  0.2368
  547SOL    HW2 4919   2.546   6.704   5.346 -0.4669  0.6019  0.9515
  548SOL     OW 4920   4.079   5.762  10.682 -0.2769 -0.1343 -0.6084
  548SOL    HW1 4921   4.111   5.751  10.771  0.3315 -0.3486 -0.8505
  548SOL    HW2 4922   4.158   5.776  10.629 -0.6471  0.2388 -1.0781
  549SOL     OW 4923  10.779   0.631   9.399 -0.4293 -0.2158  0.5326
  549SOL    HW1 4924  10.874   0.638   9.390 -0.3317 -0.9514  0.9363
  549SOL    HW2 4925  10.748   0.722   9.396  0.0891 -0.0367 -1.6136
  550SOL     OW 4926   2.336   9.870   9.814 -0.3996  0.1896 -1.0075
  550SOL    HW1 4927   2.367   9.821   9.890 -0.4336  2.0803  0.2842
  550SOL    HW2 4928   2.410   9.869   9.753  0.5054  0.6455  0.0538
  551SOL     OW 4929   3.282   0.631   3.466 -0.3757 -0.5892 -0.3523
  551SOL    HW1 4930   3.240   0.635   3.551  0.9201 -3.1622  0.5203
  551SOL    HW2 4931   3.330   0.713   3.458 -1.5294  0.2168  0.8122
  552SOL     OW 4932   1.665   8.824   5.491  0.1737  0.6459  0.3077
  552SOL    HW1 4933   1.681   8.815   5.585  1.0295  1.0378  0.2094
  552SOL    HW2 4934   1.737   8.878   5.460  1.6559 -1.9934 -1.1220
  553SOL     OW 4935   6.142   7.469   6.789  0.1106  0.2296  0.1399
  553SOL    HW1 4936   6.192   7.548   6.769  0.1394 -0.0978 -1.2262
  553SOL    HW2 4937   6.104   7.485   6.875  2.6784  0.4167  1.3017
  554SOL     OW 4938   2.821   7.280  10.180  0.0369  0.1565 -0.3350
  554SOL    HW1 4939   2.861   7.276  10.267 -0.6041 -1.1646 -0.0817
  554SOL    HW2 4940   2.844   7.197  10.139 -0.0605  0.5741 -1.2505
  555SOL     OW 4941   8.694   3.199   1.858 -0.3083  0.1682 -0.2726
  555SOL    HW1 4942   8.698   3.222   1.951 -0.7935  0.5450 -0.3389
  555SOL    HW2 4943   8.738   3.114   1.852  0.2012  0.3942  0.2160
  556SOL     OW 4944   3.402   8.239   3.141  0.3557 -0.5270  0.1079
  556SOL    HW1 4945   3.355   8.296   3.081  1.5423  1.4370  0.9395
  556SOL    HW2 4946   3.462   8.189   3.085  0.7073  0.5117 -0.4726
  557SOL     OW 4947   2.791   2.107  11.168  0.2948  0.2442 -0.4690
  557SOL    HW1 4948   2.821   2.016  11.172 -2.3064 -0.6488  1.0277
  557SOL    HW2 4949   2.865   2.155  11.130  1.5626 -2.5388 -1.7821
  558SOL     OW 4950   7.441   1.577   3.560  0.1260 -0.0706  0.0072
  558SOL    HW1 4951   7.514   1.533   3.604  0.5074  0.7866  0.2443
  558SOL    HW2 4952   7.383   1.605   3.630  0.0917  0.1727 -0.1180
  559SOL     OW 4953  10.225  10.631   6.600  0.5840  0.5008 -0.1066
  559SOL    HW1 4954  10.177  10.568   6.654  0.9441 -0.1488 -0.5208
  559SOL    HW2 4955  10.180  10.627   6.515  0.5331  0.8971 -0.0983
  560SOL     OW 4956   4.140   4.365   5.199  0.1840  0.2257  0.0193
  560SOL    HW1 4957   4.214   4.321   5.241 -1.3725 -2.7483 -0.1070
  560SOL    HW2 4958   4.086   4.397   5.272  0.2749  0.0492  0.1639
  561SOL     OW 4959   1.118  10.050  10.130  0.0335  0.4178 -0.1549
  561SOL    HW1 4960   1.048  10.115  10.137 -0.2535  0.1167 -0.2280
  561SOL    HW2 4961   1.144  10.052  10.038  1.5046  1.9658  0.2449
  562SOL     OW 4962   2.958   0.411  10.031 -0.1463 -0.0244 -0.8689
  562SOL    HW1 4963   3.030   0.396  10.092  0.2110 -1.3628 -1.5773
  562SOL    HW2 4964   3.001   0.439   9.950 -0.4910  0.0313 -1.0353
  563SOL     OW 4965   0.255   0.717   0.621  0.2035  0.0523  0.2062
  563SOL    HW1 4966   0.215   0.727   0.708 -0.4416  0.2841 -0.1145
  563SOL    HW2 4967   0.216   0.637   0.586 -2.2802  1.7587 -1.2970
  564SOL     OW 4968   6.036   2.649   7.651 -0.5010 -0.0669  0.2831
  564SOL    HW1 4969   6.067   2.565   7.618  0.5618  0.0095  1.0286
  564SOL    HW2 4970   5.991   2.689   7.577  2.3646  0.3922 -1.3713
  565SOL     OW 4971   4.252   5.713   9.450  0.6796  0.2927  0.0832
  565SOL    HW1 4972   4.224   5.652   9.519  2.0083 -0.9324 -0.4105
  565SOL    HW2 4973   4.172   5.758   9.425 -0.4546 -1.5065  0.2367
  566SOL     OW 4974   0.954   1.843   8.172 -0.2300 -0.0242 -0.1552
  566SOL    HW1 4975   0.860   1.828   8.177 -0.1811 -1.2219 -1.8853
  566SOL    HW2 4976   0.993   1.756   8.168  0.9256  0.4504  0.1417
  567SOL     OW 4977   9.822   2.300   6.226  0.1636 -0.0341 -0.2611
  567SOL    HW1 4978   9.842   2.221   6.176 -2.2876 -1.9969  1.5911
  567SOL    HW2 4979   9.759   2.348   6.171  0.4772 -0.1481 -0.7240
  568SOL     OW 4980  11.195   7.043   2.364  0.2632 -0.1642  0.4536
  568SOL    HW1 4981  11.184   7.105   2.436 -0.2744  1.4093 -0.9114
  568SOL    HW2 4982  11.168   7.092   2.286 -0.4047 -2.1997 -0.6774
  569SOL     OW 4983   5.549   1.054   5.393  0.2956 -0.2752  0.2977
  569SOL    HW1 4984   5.635   1.089   5.369  0.4755 -1.2078 -0.5265
  569SOL    HW2 4985   5.535   1.082   5.483  1.2887  0.2243  0.3060
  570SOL     OW 4986   9.592   7.190   7.357 -0.2783  0.2855 -0.3103
  570SOL    HW1 4987   9.551   7.235   7.283 -0.6110  1.3202  0.4930
  570SOL    HW2 4988   9.659   7.251   7.388 -2.0735  1.2066  2.0744
  571SOL     OW 4989   8.266   7.666   6.852  0.1426  0.3675 -0.3400
  571SOL    HW1 4990   8.285   7.745   6.802  1.2970  1.5530  1.8372
  571SOL    HW2 4991   8.352   7.630   6.874 -0.3485 -0.5917  0.0731
  572SOL     OW 4992   5.118   9.922   2.714  0.0591  0.3512  0.3657
  572SOL    HW1 4993   5.202   9.904   2.755 -0.2874 -0.6907  0.6426
  572SOL    HW2 4994   5.109   9.854   2.647  0.2311  1.5104 -0.8697
  573SOL     OW 4995   1.304   7.798   3.240  0.3929 -0.0537  0.3301
  573SOL    HW1 4996   1.368   7.848   3.291 -0.5990 -0.0743  1.6329
  573SOL    HW2 4997   1.319   7.707   3.265 -0.4233 -0.0184  0.9948
  574SOL     OW 4998   7.963   3.375   3.428  0.3636 -0.4964  0.4614
  574SOL    HW1 4999   7.966   3.471   3.433 -0.6632 -0.4567  0.5210
  574SOL    HW2 5000   7.874   3.353   3.454  0.3352 -1.4227 -0.3920
  575SOL     OW 5001   4.915   0.104   0.220 -0.4589  0.3420 -0.1184
  575SOL    HW1 5002   5.004   0.070   0.216 -0.3212  0.7987 -1.4241
  575SOL    HW2 5003   4.920   0.177   0.281 -0.7574 -1.8487  2.7187
  576SOL     OW 5004   3.572   7.135   5.478  0.2084  0.1539 -0.2079
  576SOL    HW1 5005   3.623   7.083   5.539 -0.4173  0.2884  0.4483
  576SOL    HW2 5006   3.481   7.114   5.499 -0.0202  0.2533 -1.0531
  577SOL     OW 5007   9.208   8.776   5.434  0.3072 -0.2942  0.7752
  577SOL    HW1 5008   9.125   8.824   5.438 -0.1587 -0.8064 -1.5541
  577SOL    HW2 5009   9.194   8.710   5.366  2.4090 -0.8371  0.8211
  578SOL     OW 5010   8.151   2.226   5.773 -0.3845 -0.1080 -0.3377
  578SOL    HW1 5011   8.176   2.143   5.814  1.0229  1.4961  2.3919
  578SOL    HW2 5012   8.069   2.250   5.816 -0.4594  0.1898 -0.6462
  579SOL     OW 5013   4.148   1.993   0.287  0.0334 -0.3529  0.0098
  579SOL    HW1 5014   4.127   1.965   0.376 -0.5669  3.0975  1.1239
  579SOL    HW2 5015   4.243   1.995   0.284  0.0842  1.6298  1.4271
  580SOL     OW 5016   3.734   7.404   3.594  0.4358 -0.2719 -0.0670
  580SOL    HW1 5017   3.761   7.313   3.586 -1.8396 -0.9995 -0.0622
  580SOL    HW2 5018   3.792   7.440   3.661  1.5836 -1.6005 -0.2960
  581SOL     OW 5019   1.866   6.350   0.258 -0.7303 -0.2445  0.0369
  581SOL    HW1 5020   1.790   6.388   0.300  0.9927  1.7408  1.5410
  581SOL    HW2 5021   1.862   6.257   0.280 -1.7342  0.1528  1.6416
  582SOL     OW 5022  11.204   2.628   0.236  0.3240 -0.6037 -0.2494
  582SOL    HW1 5023  11.192   2.547   0.287 -0.5080  0.1189  0.7552
  582SOL    HW2 5024  11.283   2.667   0.272 -0.3916  0.0233  0.6923
  583SOL     OW 5025   1.294   3.072   6.737 -0.1938 -0.2343  0.6602
  583SOL    HW1 5026   1.350   3.010   6.783 -0.1132 -2.0020 -1.6188
  583SOL    HW2 5027   1.214   3.022   6.719  0.2825 -0.1578 -2.1821
  584SOL     OW 5028   1.817   5.115   9.397 -1.0418  0.2632 -0.0756
  584SOL    HW1 5029   1.796   5.121   9.491 -1.0456 -0.8390  0.0138
  584SOL    HW2 5030   1.741   5.153   9.353 -1.4932 -0.1120  0.3583
  585SOL     OW 5031   5.046   9.119   7.267 -0.5032 -0.0271 -0.3863
  585SOL    HW1 5032   5.122   9.178   7.264 -2.3235  2.5097  0.2768
  585SOL    HW2 5033   5.021   9.108   7.176 -0.6753  1.0053 -0.4733
  586SOL     OW 5034   9.033   0.807   5.061 -0.2625  0.1892  0.0806
  586SOL    HW1 5035   8.943   0.837   5.068 -0.3010  0.1742 -0.3422
  586SOL    HW2 5036   9.039   0.734   5.123 -0.2055  0.9534  1.0102
  587SOL     OW 5037  11.244   0.637   8.933 -0.1100 -0.2804  0.5274
  587SOL    HW1 5038  11.164   0.589   8.953 -0.5212  0.1421 -0.0531
  587SOL    HW2 5039  11.289   0.583   8.868 -0.2509 -0.2015  0.3632
  588SOL     OW 5040   4.086   1.497   8.530 -0.0205  0.0194 -0.1336
  588SOL    HW1 5041   4.080   1.585   8.566 -2.0128 -0.5291  1.0150
  588SOL    HW2 5042   3.998   1.461   8.540  0.7345 -2.0924 -0.6259
  589SOL     OW 5043  11.041   2.443   0.681  0.4461  0.0044 -0.9021
  589SOL    HW1 5044  11.133   2.453   0.706  0.4015 -1.1205 -0.1994
  589SOL    HW2 5045  11.044   2.394   0.599  0.4648 -0.6739 -0.5027
  590SOL     OW 5046   8.933   5.469   9.258 -0.5377  1.2114  0.2630
  590SOL    HW1 5047   8.933   5.550   9.308 -2.7787  1.9536 -0.8086
  590SOL    HW2 5048   8.844   5.435   9.265 -0.5243  0.5327 -1.8704
  591SOL     OW 5049   5.725  10.061   7.808 -0.2389  0.2317 -0.4160
  591SOL    HW1 5050   5.651  10.089   7.862 -0.6823  0.3844 -1.0787
  591SOL    HW2 5051   5.802  10.096   7.852 -0.6169  0.6460 -0.0712
  592SOL     OW 5052   6.947   3.389   9.492 -0.0047 -0.6457 -0.2168
  592SOL    HW1 5053   6.906   3.313   9.452  1.6903 -1.3166 -0.7426
  592SOL    HW2 5054   6.932   3.377   9.586 -0.2978 -1.2863 -0.3372
  593SOL     OW 5055   7.807   8.729   3.182 -0.1083  0.6386  0.1054
  593SOL    HW1 5056   7.872   8.729   3.111  1.4000  0.3375  1.4198
  593SOL    HW2 5057   7.843   8.789   3.247 -0.1759 -0.9613  1.6931
  594SOL     OW 5058   0.362  10.783   2.673 -0.3869  0.0524 -0.0432
  594SOL    HW1 5059   0.296  10.720   2.704  0.8540 -1.2593  0.0324
  594SOL    HW2 5060   0.367  10.849   2.743  0.1498 -1.1862  1.1375
  595SOL     OW 5061   6.686  10.412   5.749  0.8021  0.3164 -0.0839
  595SOL    HW1 5062   6.723  10.344   5.693 -0.0052 -2.1071  2.1366
  595SOL    HW2 5063   6.618  10.454   5.695  2.1817  0.2940 -1.9254
  596SOL     OW 5064   6.670  10.488   4.168  0.1316 -0.3624  0.1830
  596SOL    HW1 5065   6.622  10.539   4.233 -0.3969 -1.2634  0.5200
  596SOL    HW2 5066   6.750  10.460   4.214  1.2213  1.4655 -0.4982
  597SOL     OW 5067   2.831   3.849   1.222  0.4775  0.1154 -0.3668
  597SOL    HW1 5068   2.777   3.855   1.301  1.6366 -2.2975  0.7249
  597SOL    HW2 5069   2.775   3.804   1.158 -0.4367  2.0071 -0.9725
  598SOL     OW 5070   6.532   9.221   7.595 -0.1309  0.0140  0.7828
  598SOL    HW1 5071   6.486   9.152   7.643 -0.0116 -1.4359 -1.0443
  598SOL    HW2 5072   6.463   9.278   7.562 -0.5410 -1.1712 -0.4937
  599SOL     OW 5073   6.069   7.281   8.165 -0.7651 -0.0707  0.0988
  599SOL    HW1 5074   6.031   7.280   8.252 -2.4490 -0.0659 -0.5929
  599SOL    HW2 5075   6.141   7.218   8.169  0.0508  0.9149  1.8257
  600SOL     OW 5076   1.529   1.394   3.597 -0.6020 -0.1862  0.9932
  600SOL    HW1 5077   1.625   1.390   3.597 -0.5899 -0.0838  0.2832
  600SOL    HW2 5078   1.509   1.487   3.606 -0.5972  0.0023 -0.7149
  601SOL     OW 5079   8.871   9.719   5.801  0.2162 -0.1517 -0.0421
  601SOL    HW1 5080   8.907   9.637   5.836 -0.5458 -1.9462 -3.0729
  601SOL    HW2 5081   8.789   9.732   5.850  0.3196 -1.2314  0.4494
  602SOL     OW 5082   0.712   1.318   4.330 -0.2203  0.1065 -0.0823
  602SOL    HW1 5083   0.703   1.272   4.247  2.9873 -0.2876 -0.3437
  602SOL    HW2 5084   0.794   1.367   4.322  0.7537 -0.7042  3.1485
  603SOL     OW 5085  10.932   2.772   2.382  0.0763 -0.4367  0.1882
  603SOL    HW1 5086  10.950   2.701   2.444 -1.5188  1.0572  2.4959
  603SOL    HW2 5087  10.859   2.739   2.329  2.1095 -2.1375 -1.7862
  604SOL     OW 5088   5.009   3.019   6.344  0.1610  0.3662 -0.2056
  604SOL    HW1 5089   5.003   2.928   6.315  1.0274  0.5208 -0.8955
  604SOL    HW2 5090   5.102   3.034   6.359  0.1801  1.4896 -1.2927
  605SOL     OW 5091   9.008   3.162   2.004 -0.1743 -0.3492 -0.0571
  605SOL    HW1 5092   8.996   3.133   2.094 -1.5700  1.0732  0.2664
  605SOL    HW2 5093   8.947   3.109   1.953  0.6011 -1.1397 -0.1890
  606SOL     OW 5094  10.447   5.779   7.732  0.8008 -0.3874  0.3676
  606SOL    HW1 5095  10.366   5.829   7.735  0.6556 -0.5072 -0.8569
  606SOL    HW2 5096  10.514   5.842   7.705  0.9258 -0.4958  0.4232
  607SOL     OW 5097   8.501   9.356   3.031 -0.1810  0.4217 -0.3391
  607SOL    HW1 5098   8.475   9.441   3.066 -2.1960 -0.6209  0.9120
  607SOL    HW2 5099   8.423   9.325   2.984  0.1504 -1.1388  0.0795
  608SOL     OW 5100   8.833   5.610   5.016 -0.5917  0.0357  0.3382
  608SOL    HW1 5101   8.905   5.672   5.025 -0.5613 -0.0993  1.1439
  608SOL    HW2 5102   8.870   5.527   5.047 -0.5707 -0.4434 -0.9140
  609SOL     OW 5103   7.984   5.777   2.024  0.0968  0.0043 -0.5245
  609SOL    HW1 5104   7.980   5.688   1.990 -1.8234  0.5173 -1.7892
  609SOL    HW2 5105   7.921   5.826   1.971  0.9761  2.0894  0.2459
  610SOL     OW 5106   1.741   2.942   0.295 -0.2910  0.1689 -0.7644
  610SOL    HW1 5107   1.690   2.949   0.214  1.6744 -3.8084 -2.5899
  610SOL    HW2 5108   1.717   2.857   0.331  0.9290  0.6676  1.3964
  611SOL     OW 5109   6.099   3.036   5.760  0.8130 -0.0114  0.2821
  611SOL    HW1 5110   6.130   2.945   5.761  1.8844  0.3410  0.7091
  611SOL    HW2 5111   6.085   3.058   5.852 -2.1831 -0.5880  0.0745
  612SOL     OW 5112   9.518   1.769  11.045  0.2064  0.4028 -0.1046
  612SOL    HW1 5113   9.590   1.777  11.108  0.1611  1.7947 -0.1947
  612SOL    HW2 5114   9.558   1.789  10.960 -0.0848  0.2487 -0.2786
  613SOL     OW 5115   7.469   4.883   6.828  0.3250  0.4935  0.4635
  613SOL    HW1 5116   7.422   4.897   6.746  1.6353 -0.6016 -0.5324
  613SOL    HW2 5117   7.529   4.957   6.835  2.3910 -0.8827 -1.2386
  614SOL     OW 5118   2.967   7.428   8.115  0.6032  0.0829  0.3853
  614SOL    HW1 5119   3.048   7.395   8.076  2.0691  2.3435  1.3013
  614SOL    HW2 5120   2.917   7.463   8.042  1.5674  0.7981  0.0478
  615SOL     OW 5121   2.672   2.395  11.035 -0.2729 -0.9326  0.1426
  615SOL    HW1 5122   2.710   2.394  11.122  0.2871  1.2492 -0.0262
  615SOL    HW2 5123   2.583   2.429  11.047 -1.1838 -3.1505  0.1488
  616SOL     OW 5124   3.350   9.580   6.214  0.3079 -0.0929 -0.3409
  616SOL    HW1 5125   3.415   9.524   6.171 -1.3988 -2.0622 -0.5034
  616SOL    HW2 5126   3.293   9.609   6.143 -0.1281  0.0124  0.0456
  617SOL     OW 5127   8.673   0.141   7.120  0.6147 -0.5590 -0.7283
  617SOL    HW1 5128   8.705   0.205   7.057  1.1819 -1.3186 -1.2329
  617SOL    HW2 5129   8.718   0.163   7.202 -0.3824  0.6379 -0.4880
  618SOL     OW 5130  10.123   9.591   5.780 -0.2224  0.2172 -0.1432
  618SOL    HW1 5131  10.218   9.598   5.787 -0.2504  1.0285 -0.5090
  618SOL    HW2 5132  10.099   9.655   5.713 -0.9938 -0.2188 -0.2932
  619SOL     OW 5133  10.188   3.949  10.848 -0.0908  0.2848  0.2869
  619SOL    HW1 5134  10.234   4.018  10.895  1.4199  0.1724 -0.9163
  619SOL    HW2 5135  10.255   3.882  10.833 -1.3846 -1.2245  0.9756
  620SOL     OW 5136  10.394   5.004   4.458  0.2553 -0.4364 -0.5213
  620SOL    HW1 5137  10.338   4.988   4.534 -0.9143  1.0006 -1.0457
  620SOL    HW2 5138  10.450   5.077   4.483  0.1458 -0.2176 -0.9044
  621SOL     OW 5139   9.660   7.219  11.040  0.4112 -0.4025  0.1350
  621SOL    HW1 5140   9.684   7.266  10.960  0.3208  1.1040  0.9609
  621SOL    HW2 5141   9.729   7.154  11.050  0.9815  0.0600 -0.6258
  622SOL     OW 5142   9.416   2.676   4.141  0.3682 -0.1883 -0.1642
  622SOL    HW1 5143   9.428   2.661   4.047 -1.0292  1.4768 -0.6481
  622SOL    HW2 5144   9.493   2.725   4.168 -0.8483  2.5693 -1.3062
  623SOL     OW 5145   7.311   6.813   3.800  0.1182  0.2243 -0.1465
  623SOL    HW1 5146   7.350   6.886   3.752 -0.1660  0.5633  0.1381
  623SOL    HW2 5147   7.224   6.844   3.824  0.5343  0.3514  1.2595
  624SOL     OW 5148   0.436   8.856   9.017 -0.2802  0.5082 -0.1309
  624SOL    HW1 5149   0.417   8.762   9.019  0.8648  0.2668  2.1236
  624SOL    HW2 5150   0.357   8.897   9.054 -0.2515  0.3271  0.1332
  625SOL     OW 5151   2.104   6.710  10.294  0.4266 -0.1487  0.1578
  625SOL    HW1 5152   2.111   6.715  10.389 -0.0485 -2.4636  0.3627
  625SOL    HW2 5153   2.180   6.659  10.266  0.4080  0.2575 -0.6970
  626SOL     OW 5154   3.992   0.610   2.370 -0.2108 -0.1805 -0.0095
  626SOL    HW1 5155   3.965   0.519   2.383 -4.3567  1.0784  2.1951
  626SOL    HW2 5156   3.990   0.622   2.275  0.2485 -2.3034 -0.3360
  627SOL     OW 5157   2.996   9.508   6.849  0.0744 -0.0162  0.1261
  627SOL    HW1 5158   3.062   9.564   6.807 -0.2332  0.4674  0.2764
  627SOL    HW2 5159   2.976   9.553   6.932 -1.0421  0.2901 -0.2847
  628SOL     OW 5160  11.189   8.812   6.119  0.1443  0.7166  0.1469
  628SOL    HW1 5161  11.142   8.883   6.163  1.2215  0.5710  1.6131
  628SOL    HW2 5162  11.278   8.817   6.155  0.5972 -0.5187 -0.7580
  629SOL     OW 5163   0.169   3.511   4.063  0.0658 -0.3400  0.5672
  629SOL    HW1 5164   0.162   3.544   3.974 -1.4169 -0.9083  0.4479
  629SOL    HW2 5165   0.220   3.430   4.056 -0.4054 -0.6052  0.1675
  630SOL     OW 5166   5.563   7.405   2.812  0.1210 -0.0487  0.1190
  630SOL    HW1 5167   5.560   7.342   2.740 -0.3782 -0.7397  0.7356
  630SOL    HW2 5168   5.524   7.485   2.775 -1.1090 -0.7155 -0.0765
  631SOL     OW 5169   6.803   2.452  11.109 -0.0543  0.2402 -0.3239
  631SOL    HW1 5170   6.709   2.453  11.128  0.0684 -1.3409  0.4913
  631SOL    HW2 5171   6.836   2.532  11.149 -0.5505 -0.8036  2.3673
  632SOL     OW 5172   9.937   1.463   6.393 -0.4653 -0.1039  0.5434
  632SOL    HW1 5173   9.877   1.537   6.397 -0.4305 -0.0993  1.0023
  632SOL    HW2 5174  10.023   1.500   6.413 -0.7315 -0.5879  2.9280
  633SOL     OW 5175   6.289   0.120  10.375  0.2996  0.0280 -0.8087
  633SOL    HW1 5176   6.267   0.131  10.283  1.4154 -0.3997 -1.1379
  633SOL    HW2 5177   6.384   0.114  10.377  0.2343 -1.2057  0.2366
  634SOL     OW 5178   3.833   9.021   4.946  0.7649  0.1713 -0.0491
  634SOL    HW1 5179   3.809   9.022   4.853 -2.9345  1.1060  0.7162
  634SOL    HW2 5180   3.849   9.113   4.967 -2.3446  0.6169  0.9121
  635SOL     OW 5181   8.302   4.286   5.847 -0.3034  0.0423 -0.3824
  635SOL    HW1 5182   8.389   4.252   5.870 -0.5099 -0.2155  0.0481
  635SOL    HW2 5183   8.281   4.242   5.765 -0.0160  0.1281 -0.5054
  636SOL     OW 5184  10.321   9.637   3.543  0.1625 -0.5492  0.3363
  636SOL    HW1 5185  10.351   9.714   3.495  1.5623 -0.4846  1.2380
  636SOL    HW2 5186  10.235   9.617   3.506  0.6199  0.2658 -1.2570
  637SOL     OW 5187   1.480   3.989  10.856 -0.1223  0.9692  1.0061
  637SOL    HW1 5188   1.531   4.036  10.922  2.3107 -0.5252  0.3121
  637SOL    HW2 5189   1.429   3.926  10.905 -0.4917  1.7361  1.6313
  638SOL     OW 5190   0.953   2.851   2.484 -0.2339  0.0458 -0.5015
  638SOL    HW1 5191   1.046   2.849   2.464  0.4626  0.1296  2.3313
  638SOL    HW2 5192   0.913   2.796   2.417  1.7629  0.3523 -2.0443
  639SOL     OW 5193   2.983   8.813  10.589  0.2577  0.1557 -0.0104
  639SOL    HW1 5194   3.004   8.749  10.657 -1.2563  1.1832  1.5248
  639SOL    HW2 5195   2.913   8.771  10.538  1.2317 -0.5214 -0.8134
  640SOL     OW 5196   5.052  10.619   0.939 -0.1170 -0.4711  0.1739
  640SOL    HW1 5197   5.024  10.607   0.849 -0.6810  0.9080  0.1418
  640SOL    HW2 5198   4.979  10.589   0.992  0.0583 -0.9113  0.1681
  641SOL     OW 5199   3.349   8.952  11.155  0.2807  0.0642 -0.1701
  641SOL    HW1 5200   3.368   8.991  11.070 -3.0904  1.1246 -0.5760
  641SOL    HW2 5201   3.336   9.026  11.213 -2.2568 -0.4383  0.0135
  642SOL     OW 5202   2.696  10.088   0.421 -0.2371  0.1034  0.1027
  642SOL    HW1 5203   2.698  10.115   0.329  2.0768  2.2558  0.6635
  642SOL    HW2 5204   2.630  10.145   0.461 -1.6112 -1.1807 -0.2570
  643SOL     OW 5205  10.164   8.143   8.471 -0.1699  0.2290 -0.3445
  643SOL    HW1 5206  10.232   8.149   8.404  1.1217  0.2218  0.9138
  643SOL    HW2 5207  10.139   8.234   8.487 -1.3984  0.1622 -1.6922
  644SOL     OW 5208   0.095   5.268   9.702 -0.2171 -0.2521 -0.2133
  644SOL    HW1 5209   0.094   5.261   9.797 -2.6241 -0.6147 -0.2176
  644SOL    HW2 5210   0.130   5.184   9.672  0.8222 -0.0315  0.3210
  645SOL     OW 5211   8.887   0.911  10.054 -0.3462 -0.1070 -0.0737
  645SOL    HW1 5212   8.819   0.946   9.996 -0.1372 -1.5922 -1.2705
  645SOL    HW2 5213   8.964   0.901   9.997  1.0363  1.7996  1.2965
  646SOL     OW 5214  11.043   8.774   2.555  0.2442  0.1813  0.0785
  646SOL    HW1 5215  11.012   8.712   2.489  0.3217  1.1471 -0.8967
  646SOL    HW2 5216  10.972   8.779   2.618  0.0083 -0.4739 -0.1175
  647SOL     OW 5217   0.920   8.387   4.626  0.3445  0.0009 -0.1662
  647SOL    HW1 5218   0.852   8.355   4.686  0.4367 -0.0531 -0.0912
  647SOL    HW2 5219   0.883   8.467   4.589  0.3453  0.1091  0.0677
  648SOL     OW 5220  10.967   8.921   5.031  0.5391  0.0754 -0.2658
  648SOL    HW1 5221  10.909   8.995   5.053 -0.2013 -0.4153 -0.5197
  648SOL    HW2 5222  11.018   8.954   4.957  0.8651  0.6510  0.2026
  649SOL     OW 5223   0.144   3.174   2.272  0.5511  0.1100  0.0354
  649SOL    HW1 5224   0.127   3.240   2.339 -1.2235 -1.6345  1.4079
  649SOL    HW2 5225   0.192   3.105   2.317  0.3694 -0.5686 -0.7809
  650SOL     OW 5226  11.232   3.305  10.087  0.4644  0.5079 -0.0439
  650SOL    HW1 5227  11.148   3.348  10.104  0.3176  1.5291 -2.8553
  650SOL    HW2 5228  11.297   3.367  10.122  0.1158  0.3943  0.8371
  651SOL     OW 5229   2.800   3.717   6.941 -0.1186  0.1009 -0.1283
  651SOL    HW1 5230   2.834   3.747   6.857  0.3378  1.3626  0.4853
  651SOL    HW2 5231   2.874   3.674   6.984 -0.8386 -2.2842 -1.1183
  652SOL     OW 5232   8.109   0.053   1.645 -0.5909  0.1565 -0.0072
  652SOL    HW1 5233   8.148   0.131   1.606  2.5062 -1.2050  0.1217
  652SOL    HW2 5234   8.094   0.077   1.737  1.4895  0.3033  0.3476
  653SOL     OW 5235   6.392   1.345   5.989  0.2987  0.0732 -0.3389
  653SOL    HW1 5236   6.313   1.304   5.956 -0.0382  0.0411  0.4915
  653SOL    HW2 5237   6.428   1.282   6.052  0.5583  0.4245 -0.1271
  654SOL     OW 5238   6.909   9.670   3.009 -0.7459 -0.1020 -0.0984
  654SOL    HW1 5239   6.998   9.670   2.976 -0.6940  2.4238 -0.1572
  654SOL    HW2 5240   6.854   9.674   2.931 -1.0077 -2.5239 -0.1017
  655SOL     OW 5241   5.386  10.557   1.616  0.4869  0.4055  0.4036
  655SOL    HW1 5242   5.319  10.495   1.589  0.3086  0.3317  1.0017
  655SOL    HW2 5243   5.346  10.643   1.603  0.3641  0.3672  0.5263
  656SOL     OW 5244   5.155   7.669   6.456  0.0052 -0.2850 -0.5649
  656SOL    HW1 5245   5.204   7.694   6.377  0.8448 -0.9238 -0.2599
  656SOL    HW2 5246   5.189   7.583   6.479 -0.8710 -0.4911 -0.0080
  657SOL     OW 5247   3.972   3.782   5.818  0.2377  0.0764  0.1644
  657SOL    HW1 5248   4.032   3.750   5.750  1.0958  1.9544 -0.0251
  657SOL    HW2 5249   4.029   3.827   5.880 -0.8698  1.0490  0.5068
  658SOL     OW 5250   2.898   1.845   5.863  0.3982  0.1636 -0.4670
  658SOL    HW1 5251   2.855   1.914   5.812  0.7852 -0.2084 -1.3221
  658SOL    HW2 5252   2.958   1.891   5.921  0.8396  0.5369 -1.2100
  659SOL     OW 5253   4.717   2.275  10.960  0.0036 -0.8437  0.2019
  659SOL    HW1 5254   4.727   2.361  11.001 -0.2294 -1.1981  1.0186
  659SOL    HW2 5255   4.799   2.261  10.912  0.4472 -0.5987  0.8801
  660SOL     OW 5256   2.379   8.113   4.719 -0.0675  0.0630 -0.1786
  660SOL    HW1 5257   2.443   8.050   4.685  2.2290  1.4725  1.2682
  660SOL    HW2 5258   2.346   8.073   4.800  1.4166  0.6545  0.7576
  661SOL     OW 5259   5.964   4.091   5.624  0.0655  0.2922  0.1182
  661SOL    HW1 5260   5.925   4.025   5.567  1.5947  0.1028 -0.7517
  661SOL    HW2 5261   5.928   4.174   5.594  1.5287  0.2978 -1.7830
  662SOL     OW 5262   1.838   5.526   7.067  0.3991 -0.0180 -0.3675
  662SOL    HW1 5263   1.851   5.444   7.020  0.6743 -1.0390  1.3989
  662SOL    HW2 5264   1.744   5.531   7.082  0.3751  0.0248 -0.5320
  663SOL     OW 5265   4.557   6.918   4.864 -0.0149  0.1410  0.0496
  663SOL    HW1 5266   4.483   6.909   4.805 -0.2239  0.1635  0.3048
  663SOL    HW2 5267   4.612   6.842   4.846 -0.2710 -0.0543  0.0967
  664SOL     OW 5268   6.603   8.274   4.059  0.1901  0.1445  0.0618
  664SOL    HW1 5269   6.635   8.185   4.070 -3.7471 -1.8411 -2.3794
  664SOL    HW2 5270   6.565   8.297   4.143 -0.5139 -1.3148  0.1558
  665SOL     OW 5271   2.627   4.453   5.757 -0.5028 -0.8146  0.5850
  665SOL    HW1 5272   2.612   4.532   5.808 -0.7290 -0.0881 -0.5657
  665SOL    HW2 5273   2.543   4.407   5.759 -0.6258 -0.5932  0.5483
  666SOL     OW 5274   1.306   2.264   8.483  0.0296 -0.1568 -0.2663
  666SOL    HW1 5275   1.310   2.267   8.388 -0.5109 -0.0732 -0.2926
  666SOL    HW2 5276   1.333   2.351   8.512  0.4385 -0.2624 -0.3345
  667SOL     OW 5277   3.958   5.457  11.181 -0.0528  0.0526 -0.2764
  667SOL    HW1 5278   3.922   5.392  11.242  1.2957 -1.8506 -1.4235
  667SOL    HW2 5279   3.912   5.441  11.099  1.9763 -1.1690 -1.2479
  668SOL     OW 5280   0.626   8.520   4.137 -0.2204 -0.1816 -0.3203
  668SOL    HW1 5281   0.635   8.610   4.105  1.5942 -0.3168 -0.2895
  668SOL    HW2 5282   0.685   8.469   4.081 -0.6323 -1.2206  0.1713
  669SOL     OW 5283   8.654   2.686   6.031 -0.2076 -0.0627 -0.9761
  669SOL    HW1 5284   8.561   2.684   6.053 -0.3380  0.2417 -1.4827
  669SOL    HW2 5285   8.690   2.606   6.070 -0.4453  0.4061  0.2607
  670SOL     OW 5286   4.367   1.865   9.786 -0.2235  0.0390  0.2033
  670SOL    HW1 5287   4.403   1.823   9.864 -1.3723  1.4514  1.5835
  670SOL    HW2 5288   4.399   1.955   9.791  1.3836 -0.3150 -2.1411
  671SOL     OW 5289   5.692   9.193   7.245  0.1051  0.3590  0.2333
  671SOL    HW1 5290   5.783   9.172   7.226  0.3358  1.0194  0.6035
  671SOL    HW2 5291   5.679   9.281   7.210 -0.8545 -0.3389 -1.3000
  672SOL     OW 5292   4.001   5.762   8.620 -0.3104  0.5850 -0.4405
  672SOL    HW1 5293   4.050   5.794   8.696 -0.0277  0.1091 -0.4199
  672SOL    HW2 5294   3.952   5.838   8.590 -1.0471  0.5813  0.7028
  673SOL     OW 5295   3.308   9.080   5.382  0.1322  0.0227 -0.2288
  673SOL    HW1 5296   3.397   9.047   5.400  0.0071 -0.3174 -0.2247
  673SOL    HW2 5297   3.302   9.081   5.287 -0.2672 -1.0854 -0.2313
  674SOL     OW 5298   0.660   8.739   5.152  0.6248 -0.4489 -0.2265
  674SOL    HW1 5299   0.677   8.826   5.189 -1.0489  0.1030 -0.6805
  674SOL    HW2 5300   0.601   8.698   5.214  1.3340 -1.2462 -0.0665
  675SOL     OW 5301   3.824  10.141   0.689  0.3800 -0.8053 -0.0847
  675SOL    HW1 5302   3.887  10.121   0.758  1.8456  0.7512 -0.8922
  675SOL    HW2 5303   3.791  10.228   0.711 -0.3407 -0.9658 -0.4960
  676SOL     OW 5304   0.737   6.504   7.744 -0.2711 -0.3506 -0.0928
  676SOL    HW1 5305   0.774   6.513   7.832  0.2665  0.1233 -0.3682
  676SOL    HW2 5306   0.773   6.421   7.712 -1.1621 -0.9685  0.4628
  677SOL     OW 5307   7.658   8.461   8.307  0.2855  0.3591  0.1582
  677SOL    HW1 5308   7.746   8.422   8.309 -0.5282 -1.5464  1.7250
  677SOL    HW2 5309   7.654   8.517   8.385 -0.4112 -0.8813  1.0463
  678SOL     OW 5310   8.412   0.591   9.396  0.0212 -0.3760 -0.3597
  678SOL    HW1 5311   8.379   0.676   9.365  2.1968  0.5815 -0.2539
  678SOL    HW2 5312   8.455   0.553   9.320  2.2740  0.3641  0.4606
  679SOL     OW 5313   8.073   2.920   3.785 -0.4747 -0.2618 -0.0133
  679SOL    HW1 5314   8.000   2.908   3.725 -0.0282  0.4853 -0.7365
  679SOL    HW2 5315   8.038   2.975   3.855 -0.3445  0.9798 -0.8991
  680SOL     OW 5316   9.053   3.297   9.305 -0.3451  0.5879  0.1690
  680SOL    HW1 5317   9.024   3.301   9.214  1.6340 -1.0176 -0.5997
  680SOL    HW2 5318   9.127   3.237   9.304  0.4994  1.4648  2.6572
  681SOL     OW 5319  10.250   1.255   0.700 -0.0368 -0.6460  0.1631
  681SOL    HW1 5320  10.221   1.164   0.707  0.9436 -0.9687  0.1506
  681SOL    HW2 5321  10.266   1.283   0.790 -1.0914 -0.2198  0.2331
  682SOL     OW 5322   6.084   5.217   2.848  0.2740  0.5381 -0.6032
  682SOL    HW1 5323   6.163   5.177   2.813  1.1691  1.9474 -0.3072
  682SOL    HW2 5324   6.021   5.214   2.776  0.4642 -0.9386 -0.7203
  683SOL     OW 5325   1.867   7.466   5.204 -0.7027 -0.0080  0.4795
  683SOL    HW1 5326   1.849   7.454   5.297 -1.6211 -1.4699  0.1448
  683SOL    HW2 5327   1.906   7.383   5.177 -2.3861 -0.3974 -0.8744
  684SOL     OW 5328   5.747   2.078   2.297 -0.1298  0.2042  0.0507
  684SOL    HW1 5329   5.796   2.075   2.379  0.6058 -2.4805 -0.3894
  684SOL    HW2 5330   5.815   2.080   2.229 -0.7283  2.0279 -0.5625
  685SOL     OW 5331   1.881   0.927   9.136 -0.1973  0.4324 -0.3994
  685SOL    HW1 5332   1.842   0.972   9.211 -0.4931 -1.8568  0.9144
  685SOL    HW2 5333   1.845   0.972   9.060 -1.4824  1.5525  0.8115
  686SOL     OW 5334   4.452   6.567   0.532 -0.1404 -0.0637  0.9250
  686SOL    HW1 5335   4.384   6.507   0.564 -0.9609  0.2788 -0.1103
  686SOL    HW2 5336   4.528   6.512   0.515 -1.4158 -1.2038 -1.7034
  687SOL     OW 5337  11.294  10.827   7.197 -0.1858 -0.6467  0.1288
  687SOL    HW1 5338  11.290  10.918   7.171  0.1860 -1.4957 -3.3318
  687SOL    HW2 5339  11.375  10.820   7.249 -1.0043  1.1949  1.7490
  688SOL     OW 5340   9.243   9.613   3.231  0.4622 -0.0320  0.5297
  688SOL    HW1 5341   9.201   9.572   3.156  0.5008 -0.7343  0.8783
  688SOL    HW2 5342   9.180   9.601   3.303  0.3451  0.7880  0.5713
  689SOL     OW 5343   1.892   4.501   2.631 -0.0838 -0.4439  0.5708
  689SOL    HW1 5344   1.919   4.593   2.620 -1.2790  0.1994  2.5312
  689SOL    HW2 5345   1.974   4.455   2.653  0.5447  0.1086 -0.5407
  690SOL     OW 5346   4.140   9.106   1.434 -0.3347  0.3370  0.1563
  690SOL    HW1 5347   4.082   9.176   1.403  0.2613  0.5226 -0.5575
  690SOL    HW2 5348   4.081   9.033   1.452 -0.8410  0.6492 -0.1982
  691SOL     OW 5349   8.616   1.542  10.188  0.3142 -0.2119  0.1664
  691SOL    HW1 5350   8.530   1.508  10.163  1.0651 -1.8672 -0.2850
  691SOL    HW2 5351   8.633   1.612  10.124 -0.7280  0.2116  0.3331
  692SOL     OW 5352   5.180   1.257  10.601  0.0410 -0.0643  0.5490
  692SOL    HW1 5353   5.126   1.260  10.522 -0.8501 -2.5364  0.9717
  692SOL    HW2 5354   5.185   1.348  10.630 -2.3576  0.5069 -0.5435
  693SOL     OW 5355  10.478   5.102   1.166 -0.7586  0.8765  0.1446
  693SOL    HW1 5356  10.446   5.182   1.209 -1.1355  1.1914 -0.7073
  693SOL    HW2 5357  10.440   5.031   1.217  1.3655  1.1485  2.3181
  694SOL     OW 5358   4.994   6.141   2.210 -0.5496 -0.0057 -0.1453
  694SOL    HW1 5359   4.953   6.214   2.255 -1.2065 -1.1093  1.1073
  694SOL    HW2 5360   4.927   6.108   2.151 -1.7315 -2.0376  2.1627
  695SOL     OW 5361   8.899  10.766   6.645 -0.0349 -0.2632  0.4546
  695SOL    HW1 5362   8.844  10.694   6.675 -1.3576 -0.5334 -2.2606
  695SOL    HW2 5363   8.980  10.724   6.616 -0.2833 -0.5196  0.1139
  696SOL     OW 5364   8.110   0.621   5.991 -0.2909  0.4194 -0.5632
  696SOL    HW1 5365   8.104   0.708   6.030  0.6067  0.1350  0.2710
  696SOL    HW2 5366   8.025   0.581   6.006  0.1446  0.1573  1.5886
  697SOL     OW 5367   8.673   9.547   1.358  0.6239 -0.1193 -0.1336
  697SOL    HW1 5368   8.716   9.583   1.435  0.8717  1.2768 -0.8942
  697SOL    HW2 5369   8.718   9.586   1.284 -0.6000 -0.2315 -0.9762
  698SOL     OW 5370   5.908   3.653   6.187 -0.2193  0.1299  0.3271
  698SOL    HW1 5371   5.881   3.728   6.135 -0.2237 -0.2658 -0.2514
  698SOL    HW2 5372   5.859   3.662   6.269  0.6313  1.3624  0.7305
  699SOL     OW 5373   3.062  10.436   6.898  0.0691  0.9383 -0.4808
  699SOL    HW1 5374   3.098  10.520   6.871 -1.4540  1.5237 -0.8070
  699SOL    HW2 5375   3.042  10.447   6.991  0.4306  0.7187 -0.3739
  700SOL     OW 5376   7.716   5.472   9.687 -0.2193 -0.3587  0.3812
  700SOL    HW1 5377   7.739   5.554   9.732  0.1645  1.1182 -2.3377
  700SOL    HW2 5378   7.795   5.418   9.694 -0.4173 -0.5009  2.0534
  701SOL     OW 5379   4.958   8.591   0.916  0.0816  0.1183 -0.5342
  701SOL    HW1 5380   4.935   8.683   0.930 -0.1052  0.0478 -0.3645
  701SOL    HW2 5381   4.891   8.558   0.857 -0.0605  0.0003 -0.3114
  702SOL     OW 5382   3.031   6.203   0.232  0.0179 -0.0741  0.0869
  702SOL    HW1 5383   3.077   6.272   0.184  0.0884 -0.4487 -0.3880
  702SOL    HW2 5384   2.978   6.251   0.297 -0.3423  0.4569 -0.5819
  703SOL     OW 5385   8.977   2.122   5.487 -0.3742  0.0644 -0.0701
  703SOL    HW1 5386   9.036   2.097   5.558 -1.4288 -0.5539  0.6292
  703SOL    HW2 5387   8.945   2.209   5.512 -0.7805 -0.1727  0.2572
  704SOL     OW 5388   7.177   2.352   3.658 -0.5844  0.5127  0.5552
  704SOL    HW1 5389   7.175   2.380   3.750  3.1473 -0.2610  1.0106
  704SOL    HW2 5390   7.253   2.396   3.621  0.2002 -2.0394 -1.1337
  705SOL     OW 5391   2.865   5.892  10.837  0.4450 -0.1217 -0.1372
  705SOL    HW1 5392   2.837   5.802  10.848  0.0567 -0.6283 -3.9435
  705SOL    HW2 5393   2.791   5.944  10.867  0.1294 -1.0932  0.8206
  706SOL     OW 5394   4.280   9.677   8.992 -0.6809  0.4272 -0.1546
  706SOL    HW1 5395   4.339   9.603   9.009  0.0395  0.6754 -1.4892
  706SOL    HW2 5396   4.223   9.646   8.922 -0.8165  0.9070 -0.2553
  707SOL     OW 5397  11.367   2.942  10.224 -0.2532 -0.1461 -0.0743
  707SOL    HW1 5398  11.381   2.847  10.232 -2.1377 -0.5585 -1.1817
  707SOL    HW2 5399  11.398   2.977  10.307  1.1629 -1.6364  0.0879
  708SOL     OW 5400   2.288   7.683   7.576  0.7081 -0.2746  0.2879
  708SOL    HW1 5401   2.214   7.672   7.516 -0.0234  0.8036  0.9508
  708SOL    HW2 5402   2.286   7.604   7.631 -0.1334 -0.1397  0.4673
  709SOL     OW 5403   3.705   9.883   4.282  0.8489 -0.5351 -0.5795
  709SOL    HW1 5404   3.660   9.947   4.227  1.1598  0.8880  0.7595
  709SOL    HW2 5405   3.679   9.906   4.372  2.3677 -1.1762  0.0578
  710SOL     OW 5406   0.010   8.944   6.913  0.1043 -0.4413  0.0762
  710SOL    HW1 5407   0.101   8.921   6.893  0.3919 -1.0319  1.8215
  710SOL    HW2 5408  -0.040   8.866   6.889  0.2381 -0.5877  0.2664
  711SOL     OW 5409  11.321   8.825   3.580  0.0115  0.0029  0.6020
  711SOL    HW1 5410  11.281   8.912   3.575 -0.3012 -0.1835 -0.6980
  711SOL    HW2 5411  11.372   8.818   3.499  3.7927  0.7178  2.6872
  712SOL     OW 5412  11.232  10.986   1.814  0.7392 -0.4421  0.1380
  712SOL    HW1 5413  11.294  11.041   1.767  1.3637 -0.5576  0.8047
  712SOL    HW2 5414  11.260  10.991   1.906 -0.3998 -0.2720  0.4998
  713SOL     OW 5415  10.408   4.790   0.290  0.0672 -0.0837  0.5234
  713SOL    HW1 5416  10.313   4.783   0.277  0.1778 -0.7226 -0.0258
  713SOL    HW2 5417  10.419   4.859   0.355 -0.7135  0.9298 -0.3819
  714SOL     OW 5418   1.016   3.497   1.235  0.0231 -0.0326 -0.0007
  714SOL    HW1 5419   0.961   3.557   1.285  0.3346 -1.0855  1.6777
  714SOL    HW2 5420   1.086   3.552   1.201 -0.3601  0.7606  0.4631
  715SOL     OW 5421   8.387   2.351   8.021 -0.3244 -0.2693 -0.1805
  715SOL    HW1 5422   8.425   2.330   7.935 -1.4489  1.0687 -1.0479
  715SOL    HW2 5423   8.433   2.293   8.082  2.6197  0.7676 -1.2201
  716SOL     OW 5424   5.877   0.364   8.507 -0.4433  0.0455 -0.1564
  716SOL    HW1 5425   5.909   0.389   8.420 -0.4635 -0.7079 -0.3904
  716SOL    HW2 5426   5.793   0.322   8.490 -1.1054  1.1129  0.3644
  717SOL     OW 5427   0.979  10.005   8.311 -0.3574 -0.1471 -0.8016
  717SOL    HW1 5428   1.012   9.965   8.392  0.7482  0.3302 -0.9922
  717SOL    HW2 5429   0.919  10.073   8.340  0.5424  0.4694 -0.3425
  718SOL     OW 5430   1.922   3.360   0.361  0.1535 -0.0921 -0.9557
  718SOL    HW1 5431   1.877   3.431   0.315 -1.3996 -0.6465 -0.3708
  718SOL    HW2 5432   1.853   3.296   0.380  1.0816 -0.7269  0.5079
  719SOL     OW 5433   9.997  10.216   7.397  0.1195 -0.2362  0.0004
  719SOL    HW1 5434  10.019  10.221   7.304 -0.3591 -0.7755 -0.1481
  719SOL    HW2 5435  10.073  10.173   7.438  1.0336  1.4172  0.1287
  720SOL     OW 5436   6.162   8.989   2.038 -0.0733 -0.0376 -0.2772
  720SOL    HW1 5437   6.209   8.952   1.963 -0.8669  0.9450 -1.2872
  720SOL    HW2 5438   6.180   8.928   2.110 -0.2083 -1.6410 -1.5346
  721SOL     OW 5439   3.973   3.140   6.581 -0.1534 -0.1950  0.2161
  721SOL    HW1 5440   3.924   3.082   6.640 -2.3529  0.1467 -1.1900
  721SOL    HW2 5441   4.058   3.096   6.570 -0.1489 -0.9138  2.5668
  722SOL     OW 5442   9.728  10.039  10.551 -0.6865 -0.2985 -0.5532
  722SOL    HW1 5443   9.640  10.077  10.548  0.5530  4.8379  5.9530
  722SOL    HW2 5444   9.784  10.104  10.508  0.4912 -0.2701  0.9630
  723SOL     OW 5445   8.452  11.014   9.334 -0.5177 -0.0711  0.2042
  723SOL    HW1 5446   8.369  11.005   9.288 -0.7049  0.5866  0.3994
  723SOL    HW2 5447   8.513  11.049   9.269 -0.0727 -1.6291 -0.2596
  724SOL     OW 5448   5.850   6.235   4.957 -0.2024  0.5811 -0.5325
  724SOL    HW1 5449   5.808   6.163   5.004  1.9868  1.4077  3.1058
  724SOL    HW2 5450   5.871   6.199   4.871 -1.3106 -2.2904  0.2993
  725SOL     OW 5451  10.361  11.040   9.212  0.2145 -0.7173  0.4724
  725SOL    HW1 5452  10.266  11.045   9.198  0.2905  0.5001  0.2174
  725SOL    HW2 5453  10.376  11.092   9.291  0.9138  1.2656 -0.8879
  726SOL     OW 5454   0.967   0.293   4.030 -0.3047 -0.2211 -0.3181
  726SOL    HW1 5455   1.016   0.217   4.060 -1.2055 -1.2145 -1.2848
  726SOL    HW2 5456   0.963   0.351   4.106  0.7802 -0.9264  0.3007
  727SOL     OW 5457   7.808   4.527   7.424 -0.4043 -0.1038 -0.4014
  727SOL    HW1 5458   7.770   4.557   7.342 -0.1069 -2.3440 -1.4328
  727SOL    HW2 5459   7.818   4.433   7.413 -0.2755 -0.4713  2.1961
  728SOL     OW 5460  11.163   8.136   0.914  0.4214 -0.4286  0.5059
  728SOL    HW1 5461  11.135   8.058   0.867  1.0704  0.4809 -1.5187
  728SOL    HW2 5462  11.089   8.196   0.905  0.3566 -0.4255  1.0787
  729SOL     OW 5463   8.853  10.427   8.924 -0.3809  0.4361  0.1546
  729SOL    HW1 5464   8.888  10.341   8.944 -0.2535  0.1980 -1.0162
  729SOL    HW2 5465   8.861  10.477   9.005  0.3174 -0.3960  0.6014
  730SOL     OW 5466   9.667   1.274  10.162  0.2938 -0.3629  0.5437
  730SOL    HW1 5467   9.724   1.206  10.198  2.7681  0.5182 -1.4299
  730SOL    HW2 5468   9.622   1.231  10.090 -0.2534 -0.5941  1.0124
  731SOL     OW 5469   9.489   7.747  10.305 -0.1089  0.1030 -0.0652
  731SOL    HW1 5470   9.445   7.802  10.370  0.4834 -0.2565  0.6566
  731SOL    HW2 5471   9.456   7.778  10.221 -1.3420  0.1979  0.4217
  732SOL     OW 5472   8.605   3.876  11.289 -0.1430  0.4205 -0.5287
  732SOL    HW1 5473   8.669   3.862  11.359 -0.0302  1.3526 -0.4214
  732SOL    HW2 5474   8.656   3.868  11.208 -0.2769 -0.6746 -0.5081
  733SOL     OW 5475   5.815   2.125   1.184 -0.1283  0.0714 -0.7651
  733SOL    HW1 5476   5.802   2.032   1.200 -0.8815  0.0752 -1.2989
  733SOL    HW2 5477   5.842   2.131   1.093  1.4343  0.2673 -0.3160
  734SOL     OW 5478   0.040   2.340   5.813  0.0202  0.3826 -0.1418
  734SOL    HW1 5479   0.033   2.412   5.877  1.2439  0.0316  0.4113
  734SOL    HW2 5480   0.127   2.350   5.776  0.1593 -0.7472 -0.1392
  735SOL     OW 5481   7.365   4.635   9.036  0.4946 -0.0087 -0.1079
  735SOL    HW1 5482   7.452   4.673   9.050 -0.3435  1.5694  0.9815
  735SOL    HW2 5483   7.305   4.709   9.038 -1.0204 -1.1928  0.3468
  736SOL     OW 5484   8.227   5.138   5.487  0.3310 -0.0836  0.7302
  736SOL    HW1 5485   8.161   5.092   5.538  0.8760 -1.1931  0.4689
  736SOL    HW2 5486   8.186   5.154   5.403 -0.3611  1.2237  1.2762
  737SOL     OW 5487  10.740   1.439   5.747 -0.1445 -0.4676 -0.3169
  737SOL    HW1 5488  10.745   1.521   5.797  0.3758 -1.2316  0.9232
  737SOL    HW2 5489  10.660   1.397   5.778 -0.0332 -0.7676 -0.4328
  738SOL     OW 5490   0.022  10.038   8.862 -0.5297  0.0113  0.0455
  738SOL    HW1 5491  -0.037  10.023   8.935 -1.3552 -0.8355 -0.7510
  738SOL    HW2 5492   0.088   9.968   8.870 -1.3020 -0.8296 -0.6558
  739SOL     OW 5493  11.250   7.097   4.118 -0.2063 -0.3492  0.2737
  739SOL    HW1 5494  11.314   7.048   4.171  0.0158 -0.4984 -0.1234
  739SOL    HW2 5495  11.235   7.041   4.042 -0.2067  0.0505 -0.0208
  740SOL     OW 5496   5.201   7.070   6.519  0.0520  0.5535 -0.7700
  740SOL    HW1 5497   5.283   7.119   6.521 -0.2669  1.0878 -0.6097
  740SOL    HW2 5498   5.217   6.999   6.456  1.5506 -0.9961  1.2101
  741SOL     OW 5499   1.326   5.355   9.684 -0.0510  0.1650 -0.4297
  741SOL    HW1 5500   1.417   5.352   9.653  0.8644  0.0126  2.0158
  741SOL    HW2 5501   1.309   5.448   9.698  0.4580  0.0668  0.9705
  742SOL     OW 5502   2.202   6.324   1.134 -0.1530  0.3322  0.4761
  742SOL    HW1 5503   2.151   6.328   1.216  0.8266  1.6823  1.0467
  742SOL    HW2 5504   2.162   6.390   1.078 -0.9027 -0.6782 -0.2329
  743SOL     OW 5505   6.798   5.862   1.846 -0.3783  0.1726  0.3643
  743SOL    HW1 5506   6.805   5.806   1.923  1.2392  0.7468  0.6760
  743SOL    HW2 5507   6.833   5.946   1.874  0.1545  0.4199 -0.9423
  744SOL     OW 5508   8.753   7.092   8.615 -0.3597  0.0569 -0.3439
  744SOL    HW1 5509   8.839   7.072   8.578 -1.4880 -0.9336 -2.5864
  744SOL    HW2 5510   8.740   7.185   8.597  1.0256  0.7764  1.8771
  745SOL     OW 5511   6.112   8.062   2.027 -0.2922  0.0900  0.6194
  745SOL    HW1 5512   6.107   8.130   2.094  2.5755  0.3036  0.7758
  745SOL    HW2 5513   6.134   8.110   1.947  2.8287 -0.5654  0.9357
  746SOL     OW 5514   8.922   9.401   2.593 -0.5252 -0.1132  0.8018
  746SOL    HW1 5515   8.996   9.448   2.632 -2.0576  1.3215  2.1539
  746SOL    HW2 5516   8.960   9.320   2.559  2.3135  2.1353 -1.9320
  747SOL     OW 5517   3.618   3.755   9.544 -0.2998 -0.0400  0.1822
  747SOL    HW1 5518   3.651   3.781   9.630 -0.7225 -0.3890  0.4558
  747SOL    HW2 5519   3.531   3.795   9.538 -0.9415 -1.2861  0.5896
  748SOL     OW 5520   7.514  11.340   7.316 -0.2821 -0.0634  0.5309
  748SOL    HW1 5521   7.533  11.276   7.247 -0.5823  0.0369  0.3516
  748SOL    HW2 5522   7.441  11.302   7.364  0.1375 -0.2840  1.0013
  749SOL     OW 5523   6.747   6.849  10.406 -0.3335  0.4101  0.0144
  749SOL    HW1 5524   6.793   6.823  10.486 -0.8329 -0.3703  0.0585
  749SOL    HW2 5525   6.759   6.943  10.401  0.0562  0.4089  0.7910
  750SOL     OW 5526   1.721   3.169   0.963 -0.4318 -0.3987 -0.0018
  750SOL    HW1 5527   1.719   3.254   1.006 -0.3484  0.7788 -2.1870
  750SOL    HW2 5528   1.642   3.124   0.994 -0.0643  0.1203  1.7933
  751SOL     OW 5529   3.133  11.309   6.369 -0.8194  0.6604  0.3281
  751SOL    HW1 5530   3.209  11.257   6.342  0.2501  2.0606  0.4596
  751SOL    HW2 5531   3.091  11.335   6.287 -1.7263 -0.8938  0.2838
  752SOL     OW 5532   8.092   4.706   0.095 -0.4723 -0.0510  0.2198
  752SOL    HW1 5533   8.046   4.737   0.017  0.6781 -0.3455 -0.5940
  752SOL    HW2 5534   8.032   4.641   0.134 -1.3640  0.6150  0.0045
  753SOL     OW 5535   0.119   1.890   9.088 -0.1633  0.1161 -0.2047
  753SOL    HW1 5536   0.167   1.886   9.006  0.4951 -1.4610  0.2321
  753SOL    HW2 5537   0.148   1.973   9.128  0.7761  0.0897 -0.8006
  754SOL     OW 5538  11.197   8.649   3.042  0.3383  0.2916 -0.3163
  754SOL    HW1 5539  11.213   8.555   3.031  2.0934  0.2264  2.0635
  754SOL    HW2 5540  11.132   8.654   3.111  2.3297  0.7577  1.6489
  755SOL     OW 5541   4.557   2.505   1.810 -0.5530 -0.2563  0.3004
  755SOL    HW1 5542   4.626   2.541   1.866  0.2433  0.0916 -0.8646
  755SOL    HW2 5543   4.575   2.411   1.806  1.6650  0.1338 -2.2477
  756SOL     OW 5544  11.334   0.199   8.180  0.2407 -0.2430 -0.2221
  756SOL    HW1 5545  11.338   0.293   8.199  2.9927 -0.4059  0.5521
  756SOL    HW2 5546  11.304   0.159   8.262  1.1217 -0.1341  0.1741
  757SOL     OW 5547   9.175  10.541   6.430  0.4406  0.1917 -0.1815
  757SOL    HW1 5548   9.180  10.636   6.436 -0.0245  0.1789  0.5402
  757SOL    HW2 5549   9.191  10.510   6.520  1.2028 -0.4441 -0.5184
  758SOL     OW 5550   4.670   7.408   3.794 -0.4073 -0.5088 -0.3459
  758SOL    HW1 5551   4.661   7.440   3.883  0.3019  0.1429 -0.4969
  758SOL    HW2 5552   4.613   7.465   3.742  0.4679  0.2187 -0.5402
  759SOL     OW 5553   0.461   1.323   9.892 -0.0774 -0.0202 -0.0719
  759SOL    HW1 5554   0.528   1.255   9.882 -0.6594 -0.5728 -0.2643
  759SOL    HW2 5555   0.381   1.275   9.914 -0.2387  0.6936  0.9818
  760SOL     OW 5556   5.929  10.303  10.562  0.2686 -0.6611  0.1338
  760SOL    HW1 5557   5.910  10.224  10.512 -0.3721 -0.4348  0.0034
  760SOL    HW2 5558   5.926  10.374  10.498  0.8623 -0.5348  0.2454
  761SOL     OW 5559  10.164   2.216   8.575 -0.1180  0.2696  0.1874
  761SOL    HW1 5560  10.204   2.148   8.521  1.0108 -0.4523  1.8388
  761SOL    HW2 5561  10.070   2.198   8.571  0.0010 -0.1256 -1.0374
  762SOL     OW 5562   1.959   0.407   4.695 -0.5497  0.6773 -0.2660
  762SOL    HW1 5563   1.943   0.321   4.735  0.5777  0.3698 -0.4596
  762SOL    HW2 5564   1.974   0.389   4.603 -3.0211  1.3794 -0.8852
  763SOL     OW 5565   4.248   7.696  11.293 -0.0717 -0.5532  0.8445
  763SOL    HW1 5566   4.220   7.612  11.331  0.7263 -0.2769  2.0912
  763SOL    HW2 5567   4.341   7.685  11.276 -0.3871 -0.6526 -1.0988
  764SOL     OW 5568   0.075   2.686   0.333 -0.4739 -0.3625 -0.6589
  764SOL    HW1 5569   0.079   2.706   0.427 -1.8044 -1.4196 -0.3298
  764SOL    HW2 5570   0.145   2.623   0.318  1.5045  1.7961 -0.9893
  765SOL     OW 5571   6.447   3.980   0.628 -0.2838 -0.1761  0.7685
  765SOL    HW1 5572   6.463   4.041   0.556 -2.4028  1.6471  1.7371
  765SOL    HW2 5573   6.501   4.012   0.700  1.9450 -2.0834  0.0539
  766SOL     OW 5574  10.675   3.431   4.652  0.2005 -0.5220 -0.0063
  766SOL    HW1 5575  10.718   3.516   4.644  0.3253 -0.6993 -1.6357
  766SOL    HW2 5576  10.658   3.421   4.745  1.7983  0.4940  0.4297
  767SOL     OW 5577  10.714   4.200   5.461 -0.2660 -0.1607  0.2884
  767SOL    HW1 5578  10.669   4.259   5.401 -0.0527  0.1918  0.4667
  767SOL    HW2 5579  10.805   4.233   5.462 -0.4487  0.3507  1.4253
  768SOL     OW 5580   4.953   2.846   6.814  0.3800  0.1060 -0.4736
  768SOL    HW1 5581   4.927   2.938   6.818 -0.1744 -0.0176 -1.1167
  768SOL    HW2 5582   4.889   2.800   6.868 -0.2415 -0.0822 -1.3430
  769SOL     OW 5583   3.678   3.301   7.938 -0.6610  0.0295 -0.1099
  769SOL    HW1 5584   3.763   3.345   7.947  0.0951 -1.3054 -0.5381
  769SOL    HW2 5585   3.687   3.220   7.989 -1.3201 -0.6170 -0.9922
  770SOL     OW 5586   0.532   6.980   7.107  0.3748  1.0406 -0.0838
  770SOL    HW1 5587   0.616   6.945   7.076 -0.8619 -0.4285 -2.0165
  770SOL    HW2 5588   0.485   6.904   7.141 -0.5780  1.6641  0.0372
  771SOL     OW 5589  10.750   1.276   5.377 -0.0856 -0.0435 -0.3838
  771SOL    HW1 5590  10.814   1.256   5.445  1.5577  0.9288 -1.5781
  771SOL    HW2 5591  10.781   1.230   5.299 -1.9190 -1.1244 -0.5356
  772SOL     OW 5592   0.298   3.751   7.791  0.1251 -0.2503  0.0314
  772SOL    HW1 5593   0.279   3.733   7.883 -2.9597 -4.6090 -1.1390
  772SOL    HW2 5594   0.252   3.834   7.773 -0.8235 -0.2962  1.9777
  773SOL     OW 5595   7.156   5.542   7.021  0.1833  0.1043 -0.2009
  773SOL    HW1 5596   7.140   5.629   6.986 -0.6917 -0.4061 -1.1337
  773SOL    HW2 5597   7.111   5.483   6.960  0.5398 -0.9795  0.5516
  774SOL     OW 5598   1.084   9.050   8.781  0.0732  0.2824 -0.2077
  774SOL    HW1 5599   1.153   9.104   8.743  0.3465  0.0366 -0.0579
  774SOL    HW2 5600   1.013   9.112   8.799  0.1052  0.4724 -0.7154
  775SOL     OW 5601   9.115   7.786  10.403 -0.0015  0.2001  0.4159
  775SOL    HW1 5602   9.116   7.881  10.410  0.5375  0.2116  0.1907
  775SOL    HW2 5603   9.021   7.763  10.402 -0.1309  0.7291  0.3882
  776SOL     OW 5604   4.630   3.463   5.137  0.1577  0.0457 -0.0771
  776SOL    HW1 5605   4.723   3.455   5.154  0.3147 -0.3513 -1.0591
  776SOL    HW2 5606   4.624   3.484   5.043 -0.7627 -0.8713 -0.2455
  777SOL     OW 5607   0.205  10.338   8.434  0.4902 -0.4722  0.4929
  777SOL    HW1 5608   0.259  10.310   8.360 -1.5569 -0.8538 -0.9286
  777SOL    HW2 5609   0.209  10.433   8.433 -0.2373 -0.4376 -0.7151
  778SOL     OW 5610   0.112   8.254   3.620 -0.2794 -0.0208  0.3922
  778SOL    HW1 5611   0.050   8.230   3.551  0.4030  0.2888 -0.3486
  778SOL    HW2 5612   0.057   8.272   3.696 -0.9603 -1.6856  0.3257
  779SOL     OW 5613   8.805   8.108   7.353  0.1399 -0.3935  0.3779
  779SOL    HW1 5614   8.727   8.069   7.312  0.3226 -0.6548  0.2747
  779SOL    HW2 5615   8.822   8.186   7.301  0.0160 -0.3992  0.3273
  780SOL     OW 5616   0.437  10.698   5.405 -0.3422  0.6829  0.0630
  780SOL    HW1 5617   0.448  10.625   5.466 -0.3158  0.7383  0.1245
  780SOL    HW2 5618   0.482  10.771   5.446  0.6205  0.4369 -0.5393
  781SOL     OW 5619   2.663   3.592   4.352  0.4959 -0.2654 -0.1657
  781SOL    HW1 5620   2.698   3.645   4.281  1.6114 -1.9711 -0.9412
  781SOL    HW2 5621   2.715   3.618   4.429 -0.0979  0.9187 -0.1328
  782SOL     OW 5622   3.396  10.724   4.237 -0.2728  0.4960  0.9606
  782SOL    HW1 5623   3.489  10.746   4.227  0.0949 -1.9869 -3.0402
  782SOL    HW2 5624   3.394  10.656   4.304  0.8299  0.4209  0.9272
  783SOL     OW 5625   0.086   7.706   5.436  0.6183 -0.1286  0.1983
  783SOL    HW1 5626   0.095   7.801   5.445  0.3172 -0.0702 -0.0812
  783SOL    HW2 5627   0.004   7.695   5.387  0.0875 -0.5642  1.1550
  784SOL     OW 5628   6.485   6.163  10.243  0.1999 -0.5065 -0.3073
  784SOL    HW1 5629   6.498   6.090  10.303  0.5175 -2.3555 -2.4758
  784SOL    HW2 5630   6.568   6.210  10.243  1.4232 -2.5312 -1.8032
  785SOL     OW 5631   1.421   5.608   3.066 -0.1944 -0.2505 -0.1590
  785SOL    HW1 5632   1.359   5.565   3.007 -1.8957  1.6050  0.1520
  785SOL    HW2 5633   1.389   5.698   3.071  1.7795  0.4278  1.1108
  786SOL     OW 5634   7.711   9.735  10.006 -0.2120 -0.3060  0.0533
  786SOL    HW1 5635   7.698   9.826  10.031 -0.0519 -0.5125  0.8859
  786SOL    HW2 5636   7.622   9.701   9.994 -0.3273 -0.4905  1.3674
  787SOL     OW 5637   1.985   0.834   0.188  0.0673 -0.1885 -0.1713
  787SOL    HW1 5638   1.903   0.808   0.230 -1.9214  2.0611 -2.3306
  787SOL    HW2 5639   2.040   0.865   0.260 -2.1976  1.1671  1.0873
  788SOL     OW 5640   5.783   9.539   4.622 -0.2153 -0.1530  0.2228
  788SOL    HW1 5641   5.855   9.563   4.681 -0.2442 -2.0314  1.0970
  788SOL    HW2 5642   5.704   9.566   4.669 -0.1908 -0.6413  0.5494
  789SOL     OW 5643   5.426   9.481   4.672  0.3184 -0.1585 -0.1705
  789SOL    HW1 5644   5.388   9.485   4.584 -3.6611  1.7451  1.3901
  789SOL    HW2 5645   5.474   9.564   4.681 -0.3994  0.2613 -0.1328
  790SOL     OW 5646   7.880  10.317   1.871  0.0871  0.2948 -0.0099
  790SOL    HW1 5647   7.829  10.287   1.947  0.7888 -2.0536 -0.3955
  790SOL    HW2 5648   7.826  10.386   1.832 -1.8558 -0.7180  0.7423
  791SOL     OW 5649   8.287   3.932  10.329  0.5277 -0.2752 -0.7018
  791SOL    HW1 5650   8.232   3.901  10.257  0.0237  2.4932 -1.6227
  791SOL    HW2 5651   8.365   3.877  10.325 -1.2499 -3.0230 -0.5931
  792SOL     OW 5652   2.703   0.551   7.385 -0.1915  0.0577  0.6535
  792SOL    HW1 5653   2.740   0.531   7.471 -0.0505 -0.0162  0.5771
  792SOL    HW2 5654   2.639   0.620   7.402  0.3548  0.5623  0.7248
  793SOL     OW 5655   7.335   3.722   7.645 -0.1211  0.1626 -0.3863
  793SOL    HW1 5656   7.291   3.644   7.679 -0.5867 -0.2355 -1.8230
  793SOL    HW2 5657   7.284   3.795   7.679 -0.6606 -0.2293 -0.3413
  794SOL     OW 5658   9.959   7.260   7.732 -0.2132  0.4055 -0.0439
  794SOL    HW1 5659  10.006   7.222   7.806 -0.9725  0.8341  0.6725
  794SOL    HW2 5660   9.896   7.320   7.771  0.7156  2.1790 -1.1263
  795SOL     OW 5661   4.962   9.686   8.210 -0.3486  0.5512  0.4730
  795SOL    HW1 5662   4.993   9.718   8.125  0.2135 -1.1195  0.0041
  795SOL    HW2 5663   4.959   9.591   8.200  3.4617 -0.1175  3.4738
  796SOL     OW 5664   8.829   1.970   6.181 -0.2547  0.2558 -0.5784
  796SOL    HW1 5665   8.863   1.959   6.092  0.3969  0.2333 -0.3264
  796SOL    HW2 5666   8.892   1.925   6.237 -1.1055 -0.4716 -0.1758
  797SOL     OW 5667   9.052  11.198   4.909 -0.1494  0.1923 -0.4987
  797SOL    HW1 5668   9.080  11.246   4.987 -2.7385 -0.6620  1.1011
  797SOL    HW2 5669   8.999  11.126   4.943  1.7817 -2.5754 -2.9207
  798SOL     OW 5670  10.324   5.207   9.524  0.4005  0.0694  0.0078
  798SOL    HW1 5671  10.281   5.258   9.592  0.8609  0.6920 -0.1695
  798SOL    HW2 5672  10.256   5.145   9.495  0.2107 -0.2279  1.0402
  799SOL     OW 5673   1.479   3.934   7.383  0.0024 -0.1011  0.0575
  799SOL    HW1 5674   1.418   3.951   7.311  1.7304 -0.1591 -1.5192
  799SOL    HW2 5675   1.527   3.856   7.355  0.4158 -0.3953  1.5139
  800SOL     OW 5676   8.030  10.849   5.947  0.4394 -0.5542 -0.1566
  800SOL    HW1 5677   8.004  10.803   6.027  0.1824 -0.7755 -0.3646
  800SOL    HW2 5678   8.039  10.779   5.882 -0.4798 -0.2631 -0.6168
  801SOL     OW 5679   7.188   2.062  10.332  0.2915  0.8030  0.1653
  801SOL    HW1 5680   7.218   2.076  10.422  1.1138  0.4771 -0.0573
  801SOL    HW2 5681   7.260   2.092  10.277  0.3185 -0.1947 -0.3697
  802SOL     OW 5682  11.127   2.656   1.739 -0.7157  0.4338 -0.0463
  802SOL    HW1 5683  11.152   2.637   1.649 -0.5733 -2.0793  0.4649
  802SOL    HW2 5684  11.037   2.688   1.733 -0.9142 -0.2621 -1.0415
  803SOL     OW 5685   5.659   1.656   5.133  0.1858  0.6366  0.3422
  803SOL    HW1 5686   5.712   1.713   5.188  0.5821  0.3977  0.2128
  803SOL    HW2 5687   5.719   1.587   5.104  0.0518  0.8833 -0.5815
  804SOL     OW 5688   6.677   0.908   6.698  0.5160 -0.2492 -0.1064
  804SOL    HW1 5689   6.648   0.965   6.626 -2.0618 -0.3676  0.7476
  804SOL    HW2 5690   6.685   0.822   6.658 -1.4857 -0.4379 -0.2095
  805SOL     OW 5691   5.878   0.045   6.251 -0.0632 -0.0391 -0.2384
  805SOL    HW1 5692   5.876  -0.037   6.202 -0.2528  0.0029 -0.3021
  805SOL    HW2 5693   5.946   0.097   6.207  0.2907 -0.2851  0.0059
  806SOL     OW 5694   9.321   7.433   4.636 -0.7234 -0.2404 -0.1310
  806SOL    HW1 5695   9.245   7.427   4.694 -1.2871 -1.7573 -0.9821
  806SOL    HW2 5696   9.395   7.407   4.691 -0.6588  1.9372  0.9054
  807SOL     OW 5697   1.727   9.236   7.464  0.5407  0.4444  1.1899
  807SOL    HW1 5698   1.697   9.166   7.406 -0.4787  1.5532  0.2985
  807SOL    HW2 5699   1.697   9.209   7.551 -0.6068  0.1588  0.7337
  808SOL     OW 5700   4.528   5.851   1.762  0.3271  0.2964  0.4054
  808SOL    HW1 5701   4.448   5.811   1.727  1.6477 -0.1912 -2.3241
  808SOL    HW2 5702   4.512   5.945   1.759  0.1664  0.2445 -1.0881
  809SOL     OW 5703   6.157   8.499   6.607 -0.1905  0.8216 -0.3528
  809SOL    HW1 5704   6.120   8.573   6.558 -0.5868 -0.4031 -1.9787
  809SOL    HW2 5705   6.082   8.463   6.655 -0.4332  0.2875 -1.1206
  810SOL     OW 5706   5.443   7.213   6.505 -0.1519 -0.4131  0.0674
  810SOL    HW1 5707   5.471   7.164   6.582 -1.1004 -1.4317 -0.2079
  810SOL    HW2 5708   5.508   7.190   6.438  0.1499 -0.2558  0.3039
  811SOL     OW 5709  11.044   6.167   3.979  0.4487  0.6420  0.0979
  811SOL    HW1 5710  11.031   6.123   3.894 -0.3084  2.6246 -0.8805
  811SOL    HW2 5711  11.121   6.223   3.966 -0.3660  1.8555  0.2895
  812SOL     OW 5712   2.460  10.207   3.554  0.7496  0.4046 -0.4529
  812SOL    HW1 5713   2.539  10.174   3.596  0.4054 -0.4127 -0.4400
  812SOL    HW2 5714   2.489  10.241   3.469  0.8336 -1.7565 -1.3486
  813SOL     OW 5715   5.514   8.546   4.910  0.0678 -0.0096  0.6820
  813SOL    HW1 5716   5.533   8.498   4.990 -1.2542 -0.5743  0.6803
  813SOL    HW2 5717   5.424   8.523   4.889  0.8159 -1.0423 -1.7752
  814SOL     OW 5718   4.516   9.056   1.671  0.1203 -0.0064  0.1469
  814SOL    HW1 5719   4.462   9.127   1.636 -0.8322 -0.5975  0.3503
  814SOL    HW2 5720   4.606   9.088   1.666 -0.0481  0.2741 -2.0017
  815SOL     OW 5721   3.254   0.945   6.964  0.4271 -0.0344 -0.1451
  815SOL    HW1 5722   3.349   0.933   6.959  0.6201  1.0139  0.6148
  815SOL    HW2 5723   3.228   0.968   6.875  0.4730 -2.8208 -0.9614
  816SOL     OW 5724  10.040   2.958   9.727 -0.8119  0.0015  0.4450
  816SOL    HW1 5725  10.060   2.911   9.808 -1.3779 -0.7860  0.1397
  816SOL    HW2 5726   9.970   2.907   9.686 -1.3183  1.0130  0.0053
  817SOL     OW 5727   2.456  11.268   3.727  0.4946 -0.2623 -0.3149
  817SOL    HW1 5728   2.475  11.176   3.714  0.9612 -0.0265 -1.4000
  817SOL    HW2 5729   2.363  11.277   3.709  0.3005 -0.6276  0.4675
  818SOL     OW 5730   5.310   5.639   3.394 -0.0565  0.0031  0.0688
  818SOL    HW1 5731   5.288   5.730   3.411 -1.3780 -0.3049  0.1283
  818SOL    HW2 5732   5.376   5.617   3.460  1.2944  1.2776 -0.8033
  819SOL     OW 5733   7.225   0.992   8.625  0.1639  0.0438 -0.2876
  819SOL    HW1 5734   7.235   0.937   8.703 -0.7157 -2.4171 -1.7985
  819SOL    HW2 5735   7.133   0.985   8.602  0.6451 -0.4122 -2.2968
  820SOL     OW 5736   5.056  10.736   2.894 -0.5838 -0.1960  0.5725
  820SOL    HW1 5737   5.083  10.667   2.954  0.8863 -0.4019 -0.2901
  820SOL    HW2 5738   5.018  10.689   2.820  2.3307 -0.3087 -1.0004
  821SOL     OW 5739   6.909  10.680  10.914  0.0598 -0.0973 -0.9159
  821SOL    HW1 5740   6.860  10.625  10.975  0.3556 -1.2377 -1.6615
  821SOL    HW2 5741   6.980  10.623  10.883  0.5848  0.8268 -1.4532
  822SOL     OW 5742  11.014  10.717   4.530 -0.0103  0.5143 -0.0978
  822SOL    HW1 5743  11.097  10.762   4.511 -0.1253  0.3990 -0.9307
  822SOL    HW2 5744  10.950  10.788   4.534 -0.2153  0.4443 -1.5520
  823SOL     OW 5745   5.337   4.335   2.812 -0.0448  0.4291 -0.1156
  823SOL    HW1 5746   5.395   4.258   2.816  0.4265  0.8203  0.9038
  823SOL    HW2 5747   5.334   4.357   2.718 -2.4039 -2.4405 -0.8623
  824SOL     OW 5748   2.234   9.887   2.035 -0.1830 -0.6109 -0.2915
  824SOL    HW1 5749   2.182   9.831   1.977  0.0757  0.2258 -1.3800
  824SOL    HW2 5750   2.303   9.829   2.068 -0.6402 -1.2368 -0.4116
  825SOL     OW 5751   9.137   0.771   0.416 -0.3659  0.6024  0.3575
  825SOL    HW1 5752   9.190   0.695   0.440 -1.5519 -0.0768  0.9336
  825SOL    HW2 5753   9.201   0.837   0.388  0.7260 -0.3963  0.4009
  826SOL     OW 5754   2.427  10.094   9.948  0.5142 -0.1116 -0.1133
  826SOL    HW1 5755   2.388  10.011   9.922  2.4664 -0.8925 -0.7629
  826SOL    HW2 5756   2.388  10.159   9.890 -0.5807 -0.6640 -0.0088
  827SOL     OW 5757   9.475   7.052   2.851 -0.2037 -0.1466 -0.0307
  827SOL    HW1 5758   9.468   6.983   2.785 -1.1799 -0.3556  0.2792
  827SOL    HW2 5759   9.434   7.129   2.810  0.9528  0.2961 -0.4071
  828SOL     OW 5760   4.707  10.252   2.524 -0.4415 -0.1944  0.3239
  828SOL    HW1 5761   4.737  10.206   2.445 -0.5097 -0.9055  0.7105
  828SOL    HW2 5762   4.713  10.188   2.594  0.5807  0.7212  1.1126
  829SOL     OW 5763   7.439   6.806   7.195 -0.6930 -0.0151  0.0152
  829SOL    HW1 5764   7.426   6.895   7.162  0.7016  0.3641  0.4263
  829SOL    HW2 5765   7.441   6.816   7.290  0.7935 -0.2729  0.0314
  830SOL     OW 5766   2.739   4.406   3.884 -0.0477 -0.3325 -0.1390
  830SOL    HW1 5767   2.690   4.377   3.961 -0.3161 -0.5411 -0.3805
  830SOL    HW2 5768   2.816   4.451   3.918  0.2132 -1.0641  0.2497
  831SOL     OW 5769   3.563   2.945   2.412  0.9337  0.0368 -0.3839
  831SOL    HW1 5770   3.496   2.894   2.365  0.5248  0.0269  0.2024
  831SOL    HW2 5771   3.610   2.992   2.343  1.9382 -1.8347 -1.0566
  832SOL     OW 5772   8.410   7.072   8.803  0.3458 -0.4485 -0.2630
  832SOL    HW1 5773   8.493   7.080   8.756  1.3297 -0.1876  1.4154
  832SOL    HW2 5774   8.427   7.113   8.888 -1.1215 -1.4511  0.5630
  833SOL     OW 5775   3.830   1.747   1.234 -0.5697  0.0386  0.0928
  833SOL    HW1 5776   3.919   1.783   1.236 -0.2956 -0.6125  0.0877
  833SOL    HW2 5777   3.784   1.792   1.304 -0.3879  0.7660 -0.2490
  834SOL     OW 5778   9.471   3.074   6.788 -0.5942 -0.2028  0.3186
  834SOL    HW1 5779   9.428   3.011   6.846 -0.8708 -1.1212 -0.8467
  834SOL    HW2 5780   9.419   3.073   6.708 -1.5572  2.7337  0.8074
  835SOL     OW 5781   5.890   7.805   3.638 -0.0141  0.2612  0.3249
  835SOL    HW1 5782   5.830   7.738   3.671  1.0074 -1.4781 -1.2132
  835SOL    HW2 5783   5.837   7.856   3.577 -0.3508 -0.2336  0.1957
  836SOL     OW 5784   7.582   3.042   4.976  0.6162 -0.2225  0.2864
  836SOL    HW1 5785   7.664   3.032   5.024 -0.5305 -1.5843  2.0518
  836SOL    HW2 5786   7.592   2.985   4.900  0.7818 -1.5532  1.2690
  837SOL     OW 5787   8.323   3.856   0.106 -0.1484  0.4864 -0.2056
  837SOL    HW1 5788   8.230   3.879   0.107 -0.3765 -0.4480  0.7134
  837SOL    HW2 5789   8.366   3.931   0.146 -0.2903  1.7006 -2.1685
  838SOL     OW 5790   8.515   2.269   7.448  0.3640  0.4291  0.2268
  838SOL    HW1 5791   8.426   2.252   7.416  0.7063  0.9693 -1.0593
  838SOL    HW2 5792   8.502   2.330   7.521 -0.3805 -0.3005  0.7271
  839SOL     OW 5793   9.150   6.950   7.589 -0.2398  0.3146 -0.2815
  839SOL    HW1 5794   9.058   6.948   7.618 -0.2394  1.4519 -0.1449
  839SOL    HW2 5795   9.162   6.868   7.541 -0.9618 -0.4469  0.7781
  840SOL     OW 5796   7.170   2.865   8.011  0.3020 -0.4779 -0.0683
  840SOL    HW1 5797   7.145   2.776   7.986  0.0052 -0.3846 -0.1133
  840SOL    HW2 5798   7.086   2.909   8.028  0.2076  0.5660 -2.6800
  841SOL     OW 5799   0.080   4.361   3.864 -0.0548  0.0813  0.1448
  841SOL    HW1 5800   0.100   4.452   3.884  0.2573 -0.0505  0.4626
  841SOL    HW2 5801  -0.015   4.354   3.873  0.1191 -0.1439  2.4444
  842SOL     OW 5802   8.890   7.935  10.738 -0.3797 -0.0702 -0.0713
  842SOL    HW1 5803   8.815   7.993  10.745  0.0825  0.5320 -0.0587
  842SOL    HW2 5804   8.945   7.957  10.814  1.3873  1.7923 -1.7807
  843SOL     OW 5805   4.696   9.896   4.807  0.0443 -0.1007  0.3233
  843SOL    HW1 5806   4.695   9.987   4.835  1.1994 -0.2402  0.8718
  843SOL    HW2 5807   4.675   9.846   4.886 -2.0018 -0.2940 -0.2637
  844SOL     OW 5808   6.796   7.084   8.578 -0.4989 -0.0010 -0.2996
  844SOL    HW1 5809   6.751   7.104   8.496  2.2779 -0.2405 -2.0221
  844SOL    HW2 5810   6.793   7.165   8.628 -2.9973 -0.1078 -0.1943
  845SOL     OW 5811   1.096   7.431   7.113  0.7235  0.8171  0.0227
  845SOL    HW1 5812   1.028   7.418   7.046  1.1192  0.8136 -0.3845
  845SOL    HW2 5813   1.080   7.362   7.177  0.8421  0.3077 -0.4911
  846SOL     OW 5814   5.029   5.776  10.076  0.1423 -1.2101  0.5858
  846SOL    HW1 5815   4.946   5.787  10.030  0.5345 -0.6286  0.0091
  846SOL    HW2 5816   5.004   5.755  10.166 -0.6423 -2.4424  0.1105
  847SOL     OW 5817   5.742  10.566   2.568 -0.3806  0.6028  0.2495
  847SOL    HW1 5818   5.815  10.600   2.515  0.9911 -0.9518  1.0452
  847SOL    HW2 5819   5.685  10.523   2.505 -0.1629  1.0766 -0.2811
  848SOL     OW 5820   4.381  10.179   2.689 -0.1762 -0.6446  0.3221
  848SOL    HW1 5821   4.372  10.108   2.752  1.6841 -2.2325 -1.0817
  848SOL    HW2 5822   4.468  10.167   2.651 -0.4772  1.3875 -1.1931
  849SOL     OW 5823   5.954   3.675   5.323 -0.6354  0.2514 -0.2336
  849SOL    HW1 5824   5.965   3.586   5.288  1.8007  0.3417  0.1532
  849SOL    HW2 5825   5.999   3.731   5.260  0.7764  0.7963  1.1831
  850SOL     OW 5826   5.275   0.571   9.236 -0.2540  0.5740  0.4325
  850SOL    HW1 5827   5.194   0.598   9.193 -0.3211 -2.5332 -1.6626
  850SOL    HW2 5828   5.345   0.604   9.179 -0.1996 -0.2920 -0.0042
  851SOL     OW 5829   9.184  10.012   7.022  0.2408  0.2692 -0.1379
  851SOL    HW1 5830   9.252   9.987   7.084 -0.1450 -0.6077 -0.0429
  851SOL    HW2 5831   9.102   9.990   7.066 -0.1070  1.2697 -0.2657
  852SOL     OW 5832   4.784   0.706   1.341 -0.3956 -0.3638 -0.3468
  852SOL    HW1 5833   4.817   0.795   1.331 -1.7237  0.0912 -0.9811
  852SOL    HW2 5834   4.825   0.673   1.421  0.2671  0.7448 -0.2174
  853SOL     OW 5835   8.155   0.299   0.848 -0.3954  0.0834  0.2620
  853SOL    HW1 5836   8.155   0.389   0.879 -2.0984  0.2980 -0.2460
  853SOL    HW2 5837   8.128   0.247   0.923  2.2544 -0.2684  1.0652
  854SOL     OW 5838  11.199   9.598   3.387 -0.0879  0.6207  0.0797
  854SOL    HW1 5839  11.141   9.671   3.411 -0.9618 -0.5181  1.6565
  854SOL    HW2 5840  11.258   9.590   3.462 -0.3938 -0.6353  0.2091
  855SOL     OW 5841   5.625   9.775   3.161 -0.0920 -0.4900  0.3933
  855SOL    HW1 5842   5.630   9.680   3.170  0.4097 -0.3705  1.6045
  855SOL    HW2 5843   5.533   9.793   3.141 -1.0549 -1.0193  3.6873
  856SOL     OW 5844   8.565   8.761  11.244 -0.6282 -0.1899 -0.2400
  856SOL    HW1 5845   8.557   8.755  11.149  1.7865  1.9334 -0.6834
  856SOL    HW2 5846   8.499   8.824  11.270  1.5159  2.6978 -1.2363
  857SOL     OW 5847   8.449  11.162  10.460  0.2832  0.0425  0.0564
  857SOL    HW1 5848   8.386  11.126  10.397 -0.3951 -2.6861  2.0824
  857SOL    HW2 5849   8.397  11.181  10.538  1.3968  1.4162  0.5036
  858SOL     OW 5850   6.004   9.136   3.996 -0.1426  0.3122 -0.0357
  858SOL    HW1 5851   6.075   9.115   4.055 -1.1069  0.5100  1.2356
  858SOL    HW2 5852   5.937   9.070   4.014 -1.3079  1.6214  0.6570
  859SOL     OW 5853   0.829   7.087   1.830  0.3334  0.6411 -0.4281
  859SOL    HW1 5854   0.801   7.003   1.793 -0.1220  0.4549  0.3111
  859SOL    HW2 5855   0.921   7.074   1.853  1.1230  1.2558 -2.8826
  860SOL     OW 5856  10.559   8.830   1.413 -0.4775 -0.2004 -0.1693
  860SOL    HW1 5857  10.625   8.819   1.344  0.6879  0.4067  0.8143
  860SOL    HW2 5858  10.587   8.908   1.461 -0.7783 -1.0777  1.4972
  861SOL     OW 5859   4.844   6.975   5.077 -0.3634 -0.5024 -0.2339
  861SOL    HW1 5860   4.889   7.027   5.144 -1.6759  2.0611 -1.1949
  861SOL    HW2 5861   4.785   6.918   5.125  0.6798 -0.7123  0.8464
  862SOL     OW 5862   4.109   0.330   1.003  0.5900  0.2744  0.0142
  862SOL    HW1 5863   4.151   0.323   0.918  0.7157 -0.5540  0.1320
  862SOL    HW2 5864   4.177   0.305   1.066  0.6096  1.2480  0.3878
  863SOL     OW 5865  10.514   4.888   5.643  0.0048  0.0922  0.1884
  863SOL    HW1 5866  10.446   4.822   5.627  0.3394 -0.2013 -0.0657
  863SOL    HW2 5867  10.505   4.950   5.570  2.1063 -1.7328 -1.8159
  864SOL     OW 5868   2.623   2.719   3.689  0.7066  0.5826 -0.7178
  864SOL    HW1 5869   2.646   2.658   3.760  0.5664  0.5863 -0.6701
  864SOL    HW2 5870   2.587   2.663   3.620  2.7836  0.2795 -1.6653
  865SOL     OW 5871   0.010   4.529   5.851  0.5663  0.7693  0.2350
  865SOL    HW1 5872   0.028   4.450   5.901 -0.2462 -0.0571 -0.7559
  865SOL    HW2 5873  -0.006   4.499   5.762 -0.3543  1.9896 -0.0381
  866SOL     OW 5874   4.328  11.081   5.679  0.0891 -0.8128  0.0509
  866SOL    HW1 5875   4.400  11.141   5.699 -0.0545 -1.6142  3.6309
  866SOL    HW2 5876   4.267  11.134   5.627  0.1972  2.1041  2.5695
  867SOL     OW 5877   1.307   2.527  10.943 -0.3302  0.7559  0.3110
  867SOL    HW1 5878   1.335   2.500  10.856 -1.4319 -0.2791  0.2462
  867SOL    HW2 5879   1.283   2.620  10.933  0.4027  0.8906 -0.2603
  868SOL     OW 5880   1.124   8.030   0.021 -0.2831 -0.2082  0.0930
  868SOL    HW1 5881   1.143   8.104  -0.037 -0.1579 -0.2540  0.0779
  868SOL    HW2 5882   1.028   8.023   0.018 -0.2010 -1.2394 -1.3918
  869SOL     OW 5883   7.585   9.927   7.820 -0.1872  0.3228  0.3233
  869SOL    HW1 5884   7.644   9.865   7.863 -0.1708 -0.8686 -1.3165
  869SOL    HW2 5885   7.501   9.914   7.864  0.2676  0.5290  1.2773
  870SOL     OW 5886  11.338   6.855   3.637  0.0814 -0.2572 -0.2552
  870SOL    HW1 5887  11.429   6.844   3.665  0.2873  0.2296 -0.7295
  870SOL    HW2 5888  11.332   6.807   3.555  0.1576  0.4824 -0.7014
  871SOL     OW 5889   9.952   9.930   0.838  0.2468 -0.4535 -0.3880
  871SOL    HW1 5890   9.991   9.890   0.760 -0.8995  0.0387 -1.2465
  871SOL    HW2 5891  10.007  10.006   0.856  0.4612 -0.5146 -0.7765
  872SOL     OW 5892   3.242   0.951   8.754 -0.5570 -0.2283 -0.6020
  872SOL    HW1 5893   3.332   0.939   8.783 -0.5053  0.2814 -0.5430
  872SOL    HW2 5894   3.225   1.044   8.766 -1.8527 -0.6822  1.5532
  873SOL     OW 5895  10.069   6.486   3.466  0.4072  0.3802  0.3081
  873SOL    HW1 5896  10.106   6.570   3.491 -0.0773  1.2911 -1.7936
  873SOL    HW2 5897  10.105   6.469   3.378 -1.4437 -0.3615 -0.3510
  874SOL     OW 5898   9.399   5.763  10.533 -0.3637 -0.1066  0.0367
  874SOL    HW1 5899   9.479   5.732  10.575 -0.5915 -0.7738 -0.0135
  874SOL    HW2 5900   9.357   5.684  10.499  0.1874  0.4551 -2.1047
  875SOL     OW 5901  10.608   4.529  10.467 -0.2534 -0.0335  0.0726
  875SOL    HW1 5902  10.549   4.599  10.437 -2.1755 -0.8499  1.7053
  875SOL    HW2 5903  10.581   4.452  10.416  1.8304  0.3065 -1.6924
  876SOL     OW 5904   0.891   3.759  10.573 -0.0810  0.2227 -0.2689
  876SOL    HW1 5905   0.873   3.709  10.493 -0.9514  0.1068 -0.0122
  876SOL    HW2 5906   0.818   3.737  10.632  0.2175  0.7925  0.3252
  877SOL     OW 5907   9.607   4.171   9.033 -0.0484  0.0195 -0.1221
  877SOL    HW1 5908   9.531   4.117   9.052  0.1425 -0.8461 -1.7155
  877SOL    HW2 5909   9.631   4.149   8.944  0.2291  2.5365 -0.7387
  878SOL     OW 5910   1.836   7.141   8.901  0.1377  0.5065  0.0202
  878SOL    HW1 5911   1.754   7.160   8.855 -0.7692 -1.7016  0.6021
  878SOL    HW2 5912   1.856   7.050   8.879  2.8896  1.1767 -0.7004
  879SOL     OW 5913   4.889   7.905  10.875 -0.0211  0.2349  0.1260
  879SOL    HW1 5914   4.893   7.922  10.969 -2.7456 -0.6308  0.4999
  879SOL    HW2 5915   4.829   7.973  10.842 -0.4582 -0.5217 -0.6576
  880SOL     OW 5916   4.106   3.962   0.678  0.2756  0.0273 -0.4913
  880SOL    HW1 5917   4.137   3.953   0.588  0.1014  0.0561 -0.5531
  880SOL    HW2 5918   4.020   4.002   0.671 -0.1306 -0.7953 -0.3639
  881SOL     OW 5919   3.981   7.390   5.723  0.1983  0.2293  0.1066
  881SOL    HW1 5920   3.950   7.421   5.637 -2.7643 -0.1860  0.9132
  881SOL    HW2 5921   4.011   7.469   5.768 -2.9611  1.3704  0.4509
  882SOL     OW 5922  10.714   9.810   1.275 -0.0461 -0.0218  0.4660
  882SOL    HW1 5923  10.661   9.752   1.220  0.6140  0.0936 -0.3187
  882SOL    HW2 5924  10.799   9.766   1.282  0.6720  1.0794 -0.6459
  883SOL     OW 5925   8.857   4.331   8.837  1.2706  0.2342  0.3032
  883SOL    HW1 5926   8.912   4.350   8.913  0.5746  0.4533  0.7633
  883SOL    HW2 5927   8.863   4.410   8.782 -0.3569  1.1979  1.4434
  884SOL     OW 5928   8.575   5.789   1.224  0.6992 -0.3857 -0.0525
  884SOL    HW1 5929   8.651   5.795   1.167 -0.6526 -0.1484 -1.9172
  884SOL    HW2 5930   8.505   5.755   1.168 -0.3524 -1.5208  1.8332
  885SOL     OW 5931  10.794   3.323   3.703 -0.5581 -0.4734 -0.1872
  885SOL    HW1 5932  10.765   3.391   3.764 -1.6780  0.2374 -1.4598
  885SOL    HW2 5933  10.880   3.353   3.672  0.8893 -1.7273  2.3005
  886SOL     OW 5934   5.734   9.091   9.725 -0.4441 -0.4686  0.5267
  886SOL    HW1 5935   5.824   9.100   9.694 -0.6360  0.4441  0.2017
  886SOL    HW2 5936   5.740   9.096   9.820 -0.1940  0.0021  0.4853
  887SOL     OW 5937  10.551   2.079   1.609  0.0103  0.7032 -0.0279
  887SOL    HW1 5938  10.602   2.015   1.660  0.5116 -0.0296 -1.3875
  887SOL    HW2 5939  10.559   2.160   1.659  0.0896 -0.0749  1.2933
  888SOL     OW 5940   9.873   0.716  10.972  0.4054 -0.3051 -0.4407
  888SOL    HW1 5941   9.923   0.776  10.916 -0.1941  2.3665  1.6795
  888SOL    HW2 5942   9.847   0.770  11.047 -0.3662 -3.2329  1.5363
  889SOL     OW 5943   9.726   9.278  10.028 -0.2097  0.5951 -0.0497
  889SOL    HW1 5944   9.663   9.233  10.084 -1.5132 -0.3101 -2.1621
  889SOL    HW2 5945   9.780   9.209   9.991 -0.7426  0.9426 -1.5349
  890SOL     OW 5946   0.119   3.029  10.837 -0.0058 -0.2893 -0.1945
  890SOL    HW1 5947   0.181   2.979  10.785  0.4346 -0.9650  0.9428
  890SOL    HW2 5948   0.081   3.093  10.776  0.4896 -1.0528 -1.3162
  891SOL     OW 5949   4.941  10.894  10.056  0.2892  0.1264  0.4996
  891SOL    HW1 5950   4.983  10.920   9.974  1.1447 -0.9077  0.5853
  891SOL    HW2 5951   5.005  10.917  10.124  0.4768 -0.8848  0.6842
  892SOL     OW 5952   8.265  11.349   5.836 -0.0712 -0.2695  0.1256
  892SOL    HW1 5953   8.275  11.255   5.820 -1.7131 -0.2184 -1.5087
  892SOL    HW2 5954   8.323  11.390   5.772  0.8651 -0.1501  1.0327
  893SOL     OW 5955   8.941   5.870   1.075 -0.0047  0.9803 -0.4043
  893SOL    HW1 5956   8.938   5.927   0.999  0.0375  0.5699 -0.7191
  893SOL    HW2 5957   8.959   5.783   1.039  2.5475  1.1556  0.2490
  894SOL     OW 5958  10.343   0.576   0.084  0.2139  0.3175 -0.5313
  894SOL    HW1 5959  10.421   0.632   0.083 -1.0777  2.2105 -0.3972
  894SOL    HW2 5960  10.285   0.614   0.019 -0.2495 -1.6698 -1.3582
  895SOL     OW 5961   2.170   4.161   1.061  0.6259  0.1927  0.1570
  895SOL    HW1 5962   2.225   4.197   0.992  0.8848  0.5947  0.5647
  895SOL    HW2 5963   2.187   4.217   1.137 -0.1432  0.1652  0.3650
  896SOL     OW 5964   7.292   3.123   6.925 -0.3907  0.4328 -0.5028
  896SOL    HW1 5965   7.302   3.080   6.840 -1.9109 -1.7699  0.3165
  896SOL    HW2 5966   7.318   3.056   6.988 -0.5122  1.5794  0.8127
  897SOL     OW 5967   7.693   3.906   4.366 -0.1402  0.1074 -0.0174
  897SOL    HW1 5968   7.749   3.983   4.355  1.1599 -0.7757  0.1904
  897SOL    HW2 5969   7.676   3.902   4.460  1.1067 -0.7319  0.1879
  898SOL     OW 5970   0.829   8.961   6.572  0.2806 -0.1422 -0.3577
  898SOL    HW1 5971   0.849   9.033   6.633  0.0222 -0.2257 -0.1752
  898SOL    HW2 5972   0.877   8.886   6.607 -1.3188 -0.6760  0.7972
  899SOL     OW 5973  11.388   4.818   9.288  0.7960 -0.4562 -0.0353
  899SOL    HW1 5974  11.322   4.771   9.338 -0.2874  0.7984 -0.2322
  899SOL    HW2 5975  11.471   4.795   9.330 -0.0038 -0.0454  1.8850
  900SOL     OW 5976   3.421   4.738   7.573  0.1704  0.0638 -0.4092
  900SOL    HW1 5977   3.392   4.810   7.628  1.1293  0.8884 -0.9469
  900SOL    HW2 5978   3.398   4.659   7.622 -1.3168  0.7049 -0.0193
  901SOL     OW 5979   6.096   4.948   0.660  0.4476 -0.7978 -0.1302
  901SOL    HW1 5980   6.096   4.942   0.755  0.2524  0.1925 -0.0480
  901SOL    HW2 5981   6.180   4.988   0.638 -0.6607  1.7365 -0.1139
  902SOL     OW 5982   5.510  10.719   7.630 -0.2209 -0.1910  0.0544
  902SOL    HW1 5983   5.475  10.633   7.605  1.7890 -0.6181 -1.5391
  902SOL    HW2 5984   5.509  10.770   7.549  0.6214  0.5526  0.4895
  903SOL     OW 5985   5.652   0.865   4.133 -0.0678  0.1176 -0.4905
  903SOL    HW1 5986   5.575   0.878   4.188 -0.3336  4.9146 -1.5649
  903SOL    HW2 5987   5.726   0.876   4.193 -0.3298  1.7642 -0.4346
  904SOL     OW 5988   4.560   3.375   3.107  0.3703  0.2023  0.3881
  904SOL    HW1 5989   4.636   3.364   3.164  0.9572  0.9279 -0.2239
  904SOL    HW2 5990   4.525   3.462   3.131  0.2276  0.2251  0.1003
  905SOL     OW 5991   7.773   1.931   6.131 -0.5269  0.0472  0.2986
  905SOL    HW1 5992   7.732   1.867   6.189  0.7328 -3.8627 -2.6827
  905SOL    HW2 5993   7.714   1.936   6.056  1.2105 -0.6725 -1.1936
  906SOL     OW 5994   9.184   7.963   0.151  0.3572 -0.1821  0.0193
  906SOL    HW1 5995   9.162   7.989   0.062 -1.6838  1.4093  0.8995
  906SOL    HW2 5996   9.240   8.034   0.183  1.1322 -0.7777  0.0252
  907SOL     OW 5997   1.874   4.892   6.640  0.2682 -0.2142 -0.0005
  907SOL    HW1 5998   1.878   4.804   6.603  1.6058  0.1806 -0.8750
  907SOL    HW2 5999   1.801   4.934   6.594 -0.8632 -1.0643  0.9543
  908SOL     OW 6000   7.096   7.192   8.367  0.1390 -0.1144  0.7296
  908SOL    HW1 6001   7.134   7.188   8.280 -1.9598  1.7769 -0.3578
  908SOL    HW2 6002   7.001   7.195   8.352 -0.3882 -1.4969  3.1699
  909SOL     OW 6003   6.228  10.940   0.483  0.8231 -0.3361  0.3663
  909SOL    HW1 6004   6.239  10.998   0.558  0.2535  0.6289 -0.2813
  909SOL    HW2 6005   6.134  10.940   0.466  0.9361 -0.6321 -0.2807
  910SOL     OW 6006   0.999   7.926   6.885 -0.1785 -0.0040  1.0021
  910SOL    HW1 6007   0.932   7.962   6.827  0.3168  0.9388  1.0026
  910SOL    HW2 6008   1.074   7.983   6.874  0.7216 -1.1710  0.8379
  911SOL     OW 6009   0.977   9.294   6.335 -0.5648  0.2978 -0.4635
  911SOL    HW1 6010   0.937   9.344   6.405  0.6140  0.6791 -0.0470
  911SOL    HW2 6011   1.042   9.353   6.296  0.5139 -0.7146 -0.2680
  912SOL     OW 6012   7.838   0.547   6.095  0.4417  0.6078 -0.8858
  912SOL    HW1 6013   7.766   0.491   6.123  0.1398  1.2823 -0.2729
  912SOL    HW2 6014   7.906   0.536   6.162  0.7419  0.3088 -1.2302
  913SOL     OW 6015   1.917   4.805   5.508  0.1396 -0.2914 -0.7751
  913SOL    HW1 6016   1.933   4.850   5.592  1.5608 -0.6539 -0.8293
  913SOL    HW2 6017   1.917   4.876   5.443 -0.6543 -0.0440 -0.5179
  914SOL     OW 6018   7.999   0.546   8.238 -0.2960 -0.6171 -0.5247
  914SOL    HW1 6019   8.062   0.475   8.223 -0.4058 -0.8113 -0.0638
  914SOL    HW2 6020   7.922   0.502   8.274  0.5386 -0.0002  2.2601
  915SOL     OW 6021   2.179   8.305   4.878 -0.0828  0.2228 -0.6059
  915SOL    HW1 6022   2.170   8.373   4.811  0.1640  0.1845 -0.6758
  915SOL    HW2 6023   2.239   8.241   4.840 -0.0649  0.1242 -0.4110
  916SOL     OW 6024   5.390   4.564   9.859 -0.0870 -0.0869  0.9089
  916SOL    HW1 6025   5.404   4.574   9.765 -1.6957  1.4030  0.7869
  916SOL    HW2 6026   5.473   4.528   9.891  0.9229  0.4901 -0.8962
  917SOL     OW 6027   0.968   5.933   4.894  0.1677 -0.1188  0.0447
  917SOL    HW1 6028   1.048   5.906   4.849  0.3945 -0.4783  0.6488
  917SOL    HW2 6029   0.999   5.987   4.967 -0.2559  1.3859 -0.8582
  918SOL     OW 6030   9.166   4.744   7.937 -0.2501 -0.0616  0.2265
  918SOL    HW1 6031   9.173   4.649   7.948 -1.6924 -0.1628  0.3945
  918SOL    HW2 6032   9.079   4.758   7.899  1.0444  0.9800 -2.7174
  919SOL     OW 6033   1.220   3.818   7.465 -0.6068 -0.3957  0.0982
  919SOL    HW1 6034   1.163   3.822   7.389 -0.4167 -0.8598 -0.0705
  919SOL    HW2 6035   1.242   3.910   7.484 -1.1497 -0.2380 -0.0259
  920SOL     OW 6036   1.886   1.128   5.077 -0.9076 -0.1511  0.3478
  920SOL    HW1 6037   1.952   1.164   5.136 -0.1207 -1.0341  0.0323
  920SOL    HW2 6038   1.887   1.034   5.095 -2.0726 -0.1829  0.3222
  921SOL     OW 6039   0.125  10.201   2.674 -0.0537 -0.5856 -0.7825
  921SOL    HW1 6040   0.058  10.142   2.707  0.1247  0.3598  1.4799
  921SOL    HW2 6041   0.208  10.163   2.703  0.1548  0.0097 -0.5838
  922SOL     OW 6042  10.048   0.909  10.798  0.3897  0.6486 -0.0800
  922SOL    HW1 6043  10.133   0.883  10.832  0.4747 -0.9398 -1.3753
  922SOL    HW2 6044  10.032   0.849  10.725 -1.1062  1.9673 -0.9054
  923SOL     OW 6045   8.694   7.073   3.630  0.6518 -0.2616  0.0321
  923SOL    HW1 6046   8.619   7.108   3.678  2.0279  0.6018  1.6666
  923SOL    HW2 6047   8.655   7.018   3.562 -1.5160  1.7068 -0.4577
  924SOL     OW 6048   4.235  10.985   6.483 -0.0543 -0.5536 -0.6386
  924SOL    HW1 6049   4.316  11.006   6.529 -0.8633  0.4876  0.3921
  924SOL    HW2 6050   4.234  10.889   6.479  0.9684 -0.5974 -0.2106
  925SOL     OW 6051   6.669   4.043   7.469  0.3723  0.1008  0.7580
  925SOL    HW1 6052   6.723   4.003   7.401  0.8108  0.7497  0.7126
  925SOL    HW2 6053   6.593   3.986   7.476 -0.2224  0.6041 -1.0620
  926SOL     OW 6054   4.203  10.324   2.546  0.1834  0.3846 -0.4864
  926SOL    HW1 6055   4.252  10.280   2.614 -1.2757 -0.9954 -0.2632
  926SOL    HW2 6056   4.269  10.371   2.494  1.5688 -0.5023  0.4263
  927SOL     OW 6057   0.120   1.285   5.986 -0.0109 -0.4070 -0.2247
  927SOL    HW1 6058   0.073   1.358   5.945  0.2404  1.1143  2.0237
  927SOL    HW2 6059   0.211   1.314   5.991  0.2651 -1.2649 -0.1498
  928SOL     OW 6060   1.721  11.083   4.768  0.2739 -0.6796 -0.3186
  928SOL    HW1 6061   1.700  11.056   4.857  0.6183 -0.4818 -0.1723
  928SOL    HW2 6062   1.718  11.003   4.717 -2.0104 -0.5040 -0.5600
  929SOL     OW 6063   2.884   4.573   4.629 -0.6641  0.2774 -0.2292
  929SOL    HW1 6064   2.958   4.627   4.601 -0.5187  0.1821 -0.0279
  929SOL    HW2 6065   2.897   4.560   4.723 -1.7185  1.4782  0.1047
  930SOL     OW 6066   6.582   4.537  10.511 -0.6798 -0.1242  0.3748
  930SOL    HW1 6067   6.616   4.620  10.545 -0.9712 -0.0018  0.3696
  930SOL    HW2 6068   6.533   4.561  10.433 -2.2709 -0.0700  1.3472
  931SOL     OW 6069   2.162  11.353   9.441  0.5078 -0.6508 -0.1729
  931SOL    HW1 6070   2.247  11.391   9.418  1.3420 -2.2181  0.1325
  931SOL    HW2 6071   2.136  11.303   9.363 -0.0377 -0.3451 -0.1901
  932SOL     OW 6072   9.493   3.131   1.663  0.2573 -0.4731  0.0454
  932SOL    HW1 6073   9.429   3.191   1.625  0.8844  0.0786 -0.1513
  932SOL    HW2 6074   9.572   3.184   1.676  0.1635 -0.7144  1.8442
  933SOL     OW 6075   1.422   5.298   1.354 -0.2535 -0.3798 -0.0969
  933SOL    HW1 6076   1.355   5.313   1.421  0.0815  1.2835 -0.0847
  933SOL    HW2 6077   1.447   5.386   1.325  2.9810 -0.8371  0.9341
  934SOL     OW 6078   8.620   7.292   4.057 -0.1587  0.2730  0.4199
  934SOL    HW1 6079   8.601   7.257   3.970  0.1977 -1.9868  1.1953
  934SOL    HW2 6080   8.544   7.267   4.110  0.3282  0.2742  1.1251
  935SOL     OW 6081   5.692   0.152   2.985  0.3080  0.1977 -0.2326
  935SOL    HW1 6082   5.601   0.150   2.955  0.0986 -0.7550  0.4037
  935SOL    HW2 6083   5.739   0.095   2.923  0.8074  1.9076 -1.4992
  936SOL     OW 6084   8.135   2.986   9.396 -0.9840 -0.2324 -0.4990
  936SOL    HW1 6085   8.218   2.981   9.443 -0.6373 -0.1998 -1.1062
  936SOL    HW2 6086   8.091   2.903   9.417 -0.2572 -0.8074 -1.1784
  937SOL     OW 6087   4.042   0.892   3.746 -0.7447 -0.4945 -1.0269
  937SOL    HW1 6088   4.047   0.961   3.680 -0.3241  0.9523  0.4625
  937SOL    HW2 6089   4.132   0.860   3.753  0.0061  1.8162  1.2944
  938SOL     OW 6090   4.329  10.283   4.517 -0.2091  0.5958  0.0712
  938SOL    HW1 6091   4.281  10.265   4.436  2.5113 -2.6463 -1.0736
  938SOL    HW2 6092   4.390  10.352   4.493  1.0685 -0.8261 -1.0013
  939SOL     OW 6093   1.765   7.339   4.601 -0.2954  0.1603 -0.4026
  939SOL    HW1 6094   1.686   7.388   4.625  0.0321  0.9501 -0.8905
  939SOL    HW2 6095   1.785   7.287   4.679 -0.2367  1.3574  0.4149
  940SOL     OW 6096   6.128   6.641  10.886 -0.0305  0.2479 -0.3657
  940SOL    HW1 6097   6.060   6.636  10.953 -0.7179  1.1451 -0.9751
  940SOL    HW2 6098   6.089   6.599  10.809 -0.1236  1.2488 -0.8826
  941SOL     OW 6099   4.532   0.749   5.238 -0.1776 -0.3398 -0.0323
  941SOL    HW1 6100   4.508   0.664   5.276  1.4757  0.1159  2.2371
  941SOL    HW2 6101   4.473   0.812   5.280  2.1445  0.2706  2.6712
  942SOL     OW 6102  10.759   2.157   6.840  0.1002  0.1019 -0.1273
  942SOL    HW1 6103  10.844   2.168   6.799  0.8391  0.6261  1.4677
  942SOL    HW2 6104  10.731   2.247   6.861 -0.6116 -0.1010 -0.1867
  943SOL     OW 6105   2.043   0.171   2.518 -0.2305  1.1541 -0.0662
  943SOL    HW1 6106   2.042   0.144   2.610 -0.6980 -1.7317 -0.8411
  943SOL    HW2 6107   2.135   0.176   2.495 -0.1154  0.0463  0.1002
  944SOL     OW 6108   9.753   4.443   1.373  0.1089  0.0978 -0.0911
  944SOL    HW1 6109   9.725   4.489   1.452  0.6337  0.7576 -0.2805
  944SOL    HW2 6110   9.687   4.375   1.360 -0.3612  0.4286  0.5199
  945SOL     OW 6111   0.676   7.706   0.819 -0.0933 -0.6768 -0.0093
  945SOL    HW1 6112   0.771   7.700   0.816  0.1459  0.8691  2.2203
  945SOL    HW2 6113   0.656   7.793   0.784 -1.0220 -1.9716 -3.1411
  946SOL     OW 6114   7.525   2.575   5.483 -0.1521  0.1632 -0.0046
  946SOL    HW1 6115   7.491   2.607   5.399 -1.1161 -0.0176  0.3035
  946SOL    HW2 6116   7.448   2.572   5.540  0.4088 -0.1816  0.7449
  947SOL     OW 6117   0.850   5.741   7.909  0.1132 -0.0358 -0.0681
  947SOL    HW1 6118   0.826   5.663   7.959 -1.1972  0.4069  0.0271
  947SOL    HW2 6119   0.940   5.761   7.937  0.0700 -0.8783  0.7068
  948SOL     OW 6120   3.007   4.239   8.299 -0.2228 -0.1486 -0.2924
  948SOL    HW1 6121   3.000   4.266   8.207 -1.9000  4.5642  0.9134
  948SOL    HW2 6122   2.916   4.227   8.327  0.3268 -3.4280  0.4419
  949SOL     OW 6123   6.592   8.159   5.645 -0.1053  0.0834  0.3673
  949SOL    HW1 6124   6.676   8.115   5.631 -0.6507 -0.4569 -1.5026
  949SOL    HW2 6125   6.613   8.253   5.641  0.7553  0.0138  2.3963
  950SOL     OW 6126   4.313   7.654   1.582  0.0526  0.0907  0.2858
  950SOL    HW1 6127   4.390   7.601   1.599  0.0627  0.5039  1.5982
  950SOL    HW2 6128   4.265   7.605   1.514  1.5947 -0.0038 -0.7915
  951SOL     OW 6129   2.306   6.393   3.657  0.2799 -0.3774 -0.3113
  951SOL    HW1 6130   2.247   6.452   3.609  0.1346  0.0593  0.3810
  951SOL    HW2 6131   2.381   6.381   3.599  0.0287  0.0007 -0.7180
  952SOL     OW 6132   5.360   8.141   3.437  0.2798 -0.3453  0.2079
  952SOL    HW1 6133   5.319   8.171   3.356 -0.7154  0.2448  0.9123
  952SOL    HW2 6134   5.439   8.195   3.445 -0.4213  0.6802  0.4025
  953SOL     OW 6135   8.931   7.706   3.891  0.2341  0.0736  0.4512
  953SOL    HW1 6136   8.883   7.726   3.971  0.3956 -0.4971  0.6941
  953SOL    HW2 6137   8.867   7.720   3.821  0.1848  0.8897  0.6438
  954SOL     OW 6138   9.171   3.369   3.496  0.1021  0.4902  0.3882
  954SOL    HW1 6139   9.179   3.343   3.588 -0.6568  0.3327  0.4172
  954SOL    HW2 6140   9.095   3.320   3.464  0.4308  0.4568 -0.3541
  955SOL     OW 6141   2.238   5.537   9.327  0.5693  0.5635  0.0744
  955SOL    HW1 6142   2.263   5.456   9.372  1.8121  0.4219 -0.7954
  955SOL    HW2 6143   2.143   5.533   9.320  0.6692 -1.2870 -0.7398
  956SOL     OW 6144   9.167   8.745   5.975 -0.0465  0.0782  0.1336
  956SOL    HW1 6145   9.169   8.813   5.908 -0.5742  0.3760  0.4050
  956SOL    HW2 6146   9.091   8.768   6.029 -0.8671 -1.3199 -0.3816
  957SOL     OW 6147  10.547  10.911   8.108  0.3142  0.0319 -0.7361
  957SOL    HW1 6148  10.633  10.932   8.072  1.0526 -0.6932  0.5223
  957SOL    HW2 6149  10.526  10.826   8.069  1.6222 -1.2956  1.2858
  958SOL     OW 6150   2.648   5.682   7.282 -0.0001  0.6624 -0.1286
  958SOL    HW1 6151   2.725   5.649   7.235  1.4651  4.4146 -0.6708
  958SOL    HW2 6152   2.655   5.643   7.369  0.4297 -1.8779 -1.1980
  959SOL     OW 6153   9.502   5.823   3.631  0.0271 -0.2222  0.0994
  959SOL    HW1 6154   9.530   5.771   3.555 -3.2131 -0.3739 -1.1527
  959SOL    HW2 6155   9.486   5.910   3.595  2.1309  0.8265  1.4991
  960SOL     OW 6156   3.330   5.163   1.835 -0.2931  0.6096  0.6033
  960SOL    HW1 6157   3.254   5.213   1.804 -0.1559  1.0780  1.0207
  960SOL    HW2 6158   3.352   5.202   1.919  0.6685  0.7445  0.2969
  961SOL     OW 6159   6.599   6.935  11.338  0.2033 -0.3499  0.1470
  961SOL    HW1 6160   6.682   6.958  11.379 -1.3646  1.4095  2.5758
  961SOL    HW2 6161   6.593   6.840  11.348  0.7780 -0.1936  2.3041
  962SOL     OW 6162   1.038   5.072   9.931 -0.4697 -0.3971 -0.6790
  962SOL    HW1 6163   1.086   5.004   9.980 -1.6323 -0.3611  0.5871
  962SOL    HW2 6164   1.081   5.154   9.955 -0.3686 -0.4873 -0.5499
  963SOL     OW 6165   3.359   0.418   8.720 -0.2540  0.0792 -0.1459
  963SOL    HW1 6166   3.375   0.473   8.644 -0.4535 -0.4746 -0.5901
  963SOL    HW2 6167   3.406   0.337   8.702 -0.2824 -0.0508  0.3340
  964SOL     OW 6168   4.938   9.015  11.107  0.5155  0.1943  0.3357
  964SOL    HW1 6169   4.869   8.992  11.044 -0.3024 -0.5125  1.4437
  964SOL    HW2 6170   4.958   8.933  11.151 -0.9187  1.1206  2.8928
  965SOL     OW 6171   7.145   2.307   6.305 -0.1555 -0.3976 -0.1135
  965SOL    HW1 6172   7.152   2.402   6.294  1.6928 -0.4866  0.0122
  965SOL    HW2 6173   7.186   2.270   6.227  2.9135 -1.0199  1.6198
  966SOL     OW 6174   6.238   9.355   8.958  0.2909 -0.4230 -0.3280
  966SOL    HW1 6175   6.152   9.386   8.989  0.8190  1.5244 -0.6527
  966SOL    HW2 6176   6.300   9.392   9.021  1.0335 -0.0605 -1.2554
  967SOL     OW 6177   4.155   3.096   2.925 -0.0695 -0.9255  0.1145
  967SOL    HW1 6178   4.066   3.128   2.941 -0.2967 -2.2296  1.6921
  967SOL    HW2 6179   4.212   3.166   2.957 -0.4910  0.2069 -1.5199
  968SOL     OW 6180   0.358   3.530   0.841  0.3315 -0.2012  0.3917
  968SOL    HW1 6181   0.440   3.568   0.873  0.5992  0.4460 -0.9839
  968SOL    HW2 6182   0.383   3.477   0.766 -0.4471 -0.4611  0.3019
  969SOL     OW 6183   8.958   9.152   6.540  0.0258  0.0093  0.1516
  969SOL    HW1 6184   8.892   9.123   6.477 -1.3062 -0.3943  1.6438
  969SOL    HW2 6185   9.020   9.079   6.545  0.2094  0.0969 -0.7543
  970SOL     OW 6186   1.169   5.720   2.030  0.1973 -0.3440  0.3318
  970SOL    HW1 6187   1.168   5.681   1.943 -1.0585 -1.9325  1.0138
  970SOL    HW2 6188   1.260   5.717   2.057  0.5880  0.0807 -0.8638
  971SOL     OW 6189   9.040   4.456   9.038 -0.0267  0.9407  0.2680
  971SOL    HW1 6190   9.114   4.513   9.059 -1.1406  1.9979  1.5176
  971SOL    HW2 6191   9.070   4.368   9.059  1.0389  1.2899  0.2698
  972SOL     OW 6192   6.924   6.741   1.363  0.1013  0.0204  0.0272
  972SOL    HW1 6193   6.994   6.683   1.330  0.5924  0.0222  1.0377
  972SOL    HW2 6194   6.851   6.682   1.382  0.6131 -0.2931  1.0856
  973SOL     OW 6195   5.075  10.260   9.038  0.3242  0.3723 -0.0962
  973SOL    HW1 6196   5.080  10.354   9.055 -1.4629  0.4043  0.4895
  973SOL    HW2 6197   4.995  10.232   9.083  0.9849 -1.4945  0.0046
  974SOL     OW 6198  10.672   0.214   4.995 -0.2316 -0.1014  0.0091
  974SOL    HW1 6199  10.630   0.190   5.078 -0.2331  2.2833  0.7703
  974SOL    HW2 6200  10.764   0.227   5.019 -0.4757  1.9746  0.0150
  975SOL     OW 6201   3.881   2.356  10.091  0.0877 -0.0808 -0.1671
  975SOL    HW1 6202   3.969   2.392  10.078  0.6469 -1.0490  0.7716
  975SOL    HW2 6203   3.835   2.424  10.141  0.1804  0.5768 -0.9537
  976SOL     OW 6204   1.433   6.403  11.019 -0.0988 -0.5823  0.3185
  976SOL    HW1 6205   1.432   6.358  10.935  0.0158 -0.7725  0.4201
  976SOL    HW2 6206   1.523   6.433  11.030 -0.2759  0.0758  0.0346
  977SOL     OW 6207   3.212   8.353   2.073 -0.0385 -0.5037 -0.3166
  977SOL    HW1 6208   3.299   8.362   2.112  0.2743  2.0057 -1.3887
  977SOL    HW2 6209   3.217   8.272   2.022  1.2214 -1.0857  0.6677
  978SOL     OW 6210   3.017   6.657   8.402  0.7006  0.1967  0.0188
  978SOL    HW1 6211   2.982   6.740   8.435  0.1023  0.2356 -0.6739
  978SOL    HW2 6212   2.997   6.593   8.470  1.2165  0.6240  0.5826
  979SOL     OW 6213   6.041   5.478   5.979 -0.5387  0.2676  0.0006
  979SOL    HW1 6214   6.112   5.414   5.991 -0.9421 -0.1734  0.0443
  979SOL    HW2 6215   6.018   5.471   5.887 -3.7718 -3.0927  0.8144
  980SOL     OW 6216   3.989   8.031   2.276 -0.0509 -0.5002 -0.6927
  980SOL    HW1 6217   4.034   7.948   2.261 -0.6995 -1.1504  0.7787
  980SOL    HW2 6218   4.011   8.055   2.366 -0.1546  0.7471 -0.9834
  981SOL     OW 6219   4.327   5.441   7.172 -0.0219 -0.5591  0.8861
  981SOL    HW1 6220   4.238   5.406   7.164 -0.9383  1.8777 -0.7344
  981SOL    HW2 6221   4.315   5.527   7.212  1.1626  1.0924 -1.9935
  982SOL     OW 6222  11.010   6.509   0.054  0.0033  0.6698 -0.2109
  982SOL    HW1 6223  11.062   6.431   0.075 -0.6033  0.1360 -0.6432
  982SOL    HW2 6224  10.941   6.477  -0.004 -1.7780  1.0529  1.5842
  983SOL     OW 6225  10.487   8.081   5.721 -0.0718  0.4467  0.2604
  983SOL    HW1 6226  10.410   8.124   5.684 -0.6524 -0.5360  0.3146
  983SOL    HW2 6227  10.561   8.127   5.681 -0.6776  0.8860 -0.3802
  984SOL     OW 6228   6.963   9.702   4.206  0.6365  0.1675 -0.2436
  984SOL    HW1 6229   6.953   9.765   4.135 -0.7054 -0.1471 -0.3612
  984SOL    HW2 6230   7.054   9.711   4.233  0.7444  1.4313 -0.9335
  985SOL     OW 6231   2.404   4.368   7.942 -0.5956 -0.1325  0.4774
  985SOL    HW1 6232   2.351   4.289   7.949  1.3423 -1.5868 -0.0784
  985SOL    HW2 6233   2.412   4.382   7.848 -0.9955  0.7942  0.5773
  986SOL     OW 6234   6.593   8.078   6.934 -0.5286 -0.4736 -0.1272
  986SOL    HW1 6235   6.522   8.045   6.989  0.5516 -2.1637  0.3432
  986SOL    HW2 6236   6.583   8.031   6.851  0.3449 -1.1474  0.1357
  987SOL     OW 6237   5.564   2.668   5.841  0.4170  0.9168  0.6797
  987SOL    HW1 6238   5.610   2.605   5.897  0.6662  0.0959 -0.4156
  987SOL    HW2 6239   5.513   2.614   5.781 -0.7373  1.8049  0.8431
  988SOL     OW 6240   9.464   7.706   7.058 -0.1615  0.5259  0.3623
  988SOL    HW1 6241   9.552   7.742   7.054 -0.1922  0.5393 -0.3510
  988SOL    HW2 6242   9.407   7.782   7.059 -0.1716  0.5159  0.4933
  989SOL     OW 6243   6.610   2.741   8.331 -0.0877  0.1832  0.2121
  989SOL    HW1 6244   6.601   2.701   8.245 -1.3929 -0.4691  0.6163
  989SOL    HW2 6245   6.704   2.756   8.341  0.3854 -2.0113 -0.3205
  990SOL     OW 6246   4.141   2.460   0.396 -0.3211 -0.1120  0.4265
  990SOL    HW1 6247   4.173   2.440   0.484 -0.6242 -1.1002  0.3203
  990SOL    HW2 6248   4.064   2.404   0.385 -0.8033  0.6432 -0.1435
  991SOL     OW 6249   9.422   0.570  10.376  0.5551 -0.0467 -0.4996
  991SOL    HW1 6250   9.467   0.620  10.308  0.6200  0.3087 -0.2016
  991SOL    HW2 6251   9.343   0.538  10.334  0.5287  0.2791 -0.7060
  992SOL     OW 6252   0.549   1.701   5.535  0.0338  0.0411 -0.2026
  992SOL    HW1 6253   0.455   1.701   5.519 -0.1481 -0.8309  0.7327
  992SOL    HW2 6254   0.588   1.685   5.449 -0.7310 -0.7416 -0.4223
  993SOL     OW 6255   7.529   8.255   6.776 -0.0170  0.3071 -0.1459
  993SOL    HW1 6256   7.562   8.166   6.764 -1.3912 -0.2564  0.1005
  993SOL    HW2 6257   7.469   8.249   6.851  0.5863  1.6467  0.4894
  994SOL     OW 6258  10.424   8.041  11.315 -0.0719  0.1400  0.0409
  994SOL    HW1 6259  10.506   8.064  11.272  0.3322  0.7000  1.0669
  994SOL    HW2 6260  10.386   7.972  11.260  1.3443 -0.5189 -0.1491
  995SOL     OW 6261   2.238   2.917   5.459 -0.1787  0.7238  0.2281
  995SOL    HW1 6262   2.153   2.875   5.467  0.4119 -0.7773 -0.9285
  995SOL    HW2 6263   2.218   3.010   5.451 -1.8441  0.2811 -1.5369
  996SOL     OW 6264   2.796  10.339   0.677 -0.1688 -0.5359 -0.2228
  996SOL    HW1 6265   2.848  10.278   0.625  2.5519  0.1037  1.5264
  996SOL    HW2 6266   2.798  10.304   0.766  0.4271  1.3815  0.5826
  997SOL     OW 6267   8.744   7.212   9.907  0.2632 -0.2325  0.2747
  997SOL    HW1 6268   8.788   7.196   9.991 -2.2286 -0.0753  1.7146
  997SOL    HW2 6269   8.813   7.202   9.842  2.0949 -1.4044  2.2420
  998SOL     OW 6270   8.101   7.298   5.827 -0.1156  0.0225  0.2953
  998SOL    HW1 6271   8.137   7.308   5.915  0.4356  2.8637 -0.1667
  998SOL    HW2 6272   8.010   7.273   5.841  0.5922 -2.1724  1.5496
  999SOL     OW 6273   4.563   5.732   8.256 -0.0671 -0.2154 -0.4542
  999SOL    HW1 6274   4.520   5.792   8.194  2.0566 -1.4058 -3.2821
  999SOL    HW2 6275   4.507   5.654   8.257  0.3892 -0.5814 -1.7291
 1000SOL     OW 6276   1.385  10.896  11.148 -0.5310 -0.4772 -0.3830
 1000SOL    HW1 6277   1.444  10.851  11.088 -0.9229 -1.2893 -0.1836
 1000SOL    HW2 6278   1.400  10.855  11.233 -0.2665  0.3882  0.0024
 1001SOL     OW 6279  11.385   3.871   4.572 -0.3421  0.0742  0.0413
 1001SOL    HW1 6280  11.460   3.832   4.527  1.4521  3.2810 -0.0531
 1001SOL    HW2 6281  11.410   3.963   4.585 -3.7804  1.0060  1.1426
 1002SOL     OW 6282   4.184   4.351   8.750  0.7634 -0.0104 -0.0665
 1002SOL    HW1 6283   4.097   4.360   8.789  0.4634 -1.1072 -0.4439
 1002SOL    HW2 6284   4.217   4.441   8.743 -1.1800  0.6237 -1.8168
 1003SOL     OW 6285   5.633   3.979  10.527 -0.1849  0.1283 -0.4452
 1003SOL    HW1 6286   5.681   3.897  10.536  0.1042  0.3363 -0.0486
 1003SOL    HW2 6287   5.700   4.044  10.508 -0.4056  0.2870 -0.6802
 1004SOL     OW 6288   7.367   6.188   9.011  0.4726 -0.6097 -0.4892
 1004SOL    HW1 6289   7.356   6.283   9.015 -0.5222 -0.7320 -0.2572
 1004SOL    HW2 6290   7.383   6.170   8.918 -0.6983 -0.3551 -0.7490
 1005SOL     OW 6291   9.273   2.729  10.158 -0.3115  0.1118 -0.1609
 1005SOL    HW1 6292   9.317   2.810  10.183  0.0570  0.1613 -0.9466
 1005SOL    HW2 6293   9.203   2.718  10.223  0.4694  0.3575  0.7304
 1006SOL     OW 6294   9.774   9.172   3.636  0.8259 -0.2607  0.2513
 1006SOL    HW1 6295   9.758   9.077   3.636  1.7028 -0.4200 -0.4719
 1006SOL    HW2 6296   9.724   9.204   3.710  1.4284 -1.4530  1.2150
 1007SOL     OW 6297   5.162   8.330   4.689 -0.3213 -0.7380 -0.7830
 1007SOL    HW1 6298   5.096   8.369   4.745  0.0609 -0.6809 -0.3681
 1007SOL    HW2 6299   5.150   8.372   4.604 -0.9031 -0.8286 -0.7495
 1008SOL     OW 6300   3.947   8.749   9.364 -0.5258 -0.2413 -0.3232
 1008SOL    HW1 6301   4.008   8.774   9.433 -0.6131 -2.0366  0.4556
 1008SOL    HW2 6302   3.893   8.827   9.350  1.0728  0.9518 -0.1266
 1009SOL     OW 6303  11.195   6.026   7.400 -0.4538  0.5301  0.1668
 1009SOL    HW1 6304  11.188   5.969   7.477 -1.6632  1.4740  0.7941
 1009SOL    HW2 6305  11.260   6.092   7.425  1.1699 -0.6799 -0.6701
 1010SOL     OW 6306   8.098   5.382   1.071  0.4059  0.0321 -0.0736
 1010SOL    HW1 6307   8.121   5.443   1.001  1.1262 -0.7297 -0.5266
 1010SOL    HW2 6308   8.114   5.295   1.033 -0.8760 -0.4577  0.4527
 1011SOL     OW 6309   2.128   9.949   5.331  0.2406  0.1427 -0.2516
 1011SOL    HW1 6310   2.223   9.936   5.333  0.2654  0.2695 -0.5612
 1011SOL    HW2 6311   2.106   9.953   5.238 -0.0264  0.4261 -0.1778
 1012SOL     OW 6312   0.381   9.994   5.730  0.0569  0.7328 -0.5502
 1012SOL    HW1 6313   0.464   9.986   5.777  0.8955  1.0820 -1.9158
 1012SOL    HW2 6314   0.344  10.077   5.761 -1.4064 -0.8826  2.4555
 1013SOL     OW 6315   2.531   5.791   8.509  0.1660  0.9885 -0.1343
 1013SOL    HW1 6316   2.441   5.823   8.505  0.7513  2.8311  0.3648
 1013SOL    HW2 6317   2.534   5.737   8.588 -0.6094  0.4933 -0.4362
 1014SOL     OW 6318   9.447   7.569   9.620  0.2324  0.6342  0.3230
 1014SOL    HW1 6319   9.363   7.557   9.664  0.2727  0.1924  0.2772
 1014SOL    HW2 6320   9.428   7.631   9.549  0.1317  1.2153  0.8500
 1015SOL     OW 6321   7.086   4.151   0.366  0.4402  0.1935 -0.0461
 1015SOL    HW1 6322   7.117   4.239   0.344 -0.5205  0.4442 -0.4601
 1015SOL    HW2 6323   6.993   4.152   0.344  0.6489 -1.2835 -1.1404
 1016SOL     OW 6324   4.066   6.694   4.472 -0.3594 -0.7895  0.3635
 1016SOL    HW1 6325   4.050   6.704   4.378 -1.5542  2.0721  0.7543
 1016SOL    HW2 6326   4.112   6.774   4.497  0.3169 -1.6882  2.1741
 1017SOL     OW 6327   9.065  11.029  10.336 -0.5234  0.5903 -0.1261
 1017SOL    HW1 6328   9.098  11.074  10.414 -3.7693  1.3284  0.9954
 1017SOL    HW2 6329   9.102  11.078  10.263  2.4577 -0.0108  0.8514
 1018SOL     OW 6330   7.481   1.558   1.198  0.0342  0.1001  0.6301
 1018SOL    HW1 6331   7.393   1.596   1.207 -0.5544 -1.4478  1.9276
 1018SOL    HW2 6332   7.470   1.489   1.132  0.6891  0.9517 -0.4083
 1019SOL     OW 6333  10.081   2.101   5.744  0.1139 -0.4353  0.0203
 1019SOL    HW1 6334  10.013   2.046   5.705 -0.0524 -0.9439  1.0070
 1019SOL    HW2 6335  10.079   2.080   5.837 -1.1174  2.4406  0.7577
 1020SOL     OW 6336   1.453   0.879   4.276  0.3029  0.0439  0.2348
 1020SOL    HW1 6337   1.476   0.836   4.193 -0.2377 -0.0916  0.1527
 1020SOL    HW2 6338   1.431   0.807   4.335 -0.9490  0.2184 -0.0076
 1021SOL     OW 6339   2.964   3.408   5.826 -0.6222 -0.1152 -0.2785
 1021SOL    HW1 6340   2.913   3.328   5.828  0.6664 -0.9448  0.5191
 1021SOL    HW2 6341   2.926   3.463   5.894 -0.5466 -0.6584  0.2032
 1022SOL     OW 6342   9.383   5.420   3.982 -0.6011  0.4149  0.1459
 1022SOL    HW1 6343   9.473   5.394   4.000 -0.9833 -1.3183 -0.2488
 1022SOL    HW2 6344   9.329   5.352   4.023 -1.7444  1.5536  0.5959
 1023SOL     OW 6345   0.779   5.703   5.719  0.2853  0.6162 -0.3016
 1023SOL    HW1 6346   0.755   5.779   5.665 -0.3325  0.0182 -0.8829
 1023SOL    HW2 6347   0.838   5.652   5.663 -0.2034  0.0893 -0.3412
 1024SOL     OW 6348   9.805   5.776   9.106 -0.3508  0.1422 -0.7622
 1024SOL    HW1 6349   9.866   5.766   9.033  0.9321 -1.4530  0.4434
 1024SOL    HW2 6350   9.777   5.686   9.126 -0.3437  0.4908  0.9558
 1025SOL     OW 6351  10.565   9.776   3.959 -0.0227 -0.3639 -0.1062
 1025SOL    HW1 6352  10.630   9.766   3.888 -0.0397 -0.4408 -0.1114
 1025SOL    HW2 6353  10.486   9.805   3.915 -0.0342 -0.4137 -0.1192
 1026SOL     OW 6354   6.567   8.820   5.082  0.3286  0.0803 -0.6476
 1026SOL    HW1 6355   6.598   8.735   5.112 -0.1075 -0.5930 -2.0124
 1026SOL    HW2 6356   6.576   8.878   5.158 -1.4301 -1.6729  1.0063
 1027SOL     OW 6357   1.413   0.403   3.048 -0.3963 -0.1056 -0.3784
 1027SOL    HW1 6358   1.447   0.487   3.016  0.2461 -0.4614 -0.6610
 1027SOL    HW2 6359   1.327   0.396   3.008 -0.0889  0.0138 -1.0890
 1028SOL     OW 6360  10.586   6.914  10.381 -0.3116 -0.2473 -0.1402
 1028SOL    HW1 6361  10.650   6.887  10.446 -0.3061  0.2886  0.0866
 1028SOL    HW2 6362  10.515   6.955  10.431 -1.2879 -1.6632 -0.3134
 1029SOL     OW 6363  10.065   9.572   5.323 -0.2513 -0.6268  0.6454
 1029SOL    HW1 6364  10.022   9.565   5.408 -0.9088 -1.4246  0.2622
 1029SOL    HW2 6365  10.081   9.481   5.297  2.0850 -0.3629  0.9598
 1030SOL     OW 6366   8.684   8.550   7.486 -0.1794 -0.2549 -0.1566
 1030SOL    HW1 6367   8.713   8.640   7.473 -0.3078 -0.2651 -0.5495
 1030SOL    HW2 6368   8.751   8.511   7.542 -0.7550  0.4194  1.0353
 1031SOL     OW 6369   8.942   3.742  10.054 -0.3764 -0.3025 -0.4764
 1031SOL    HW1 6370   9.021   3.791  10.029 -0.6406  1.3446  1.6967
 1031SOL    HW2 6371   8.962   3.706  10.140 -1.0483 -2.2028 -1.0594
 1032SOL     OW 6372   6.643   5.736   6.126 -0.0863 -0.1974 -0.2627
 1032SOL    HW1 6373   6.584   5.680   6.177  0.2660 -0.1985  0.1528
 1032SOL    HW2 6374   6.722   5.683   6.114  1.4216  1.1271  2.5834
 1033SOL     OW 6375   1.237   2.246   0.177 -0.7976 -0.0166 -0.1676
 1033SOL    HW1 6376   1.212   2.332   0.211 -2.8811 -0.2110 -1.0719
 1033SOL    HW2 6377   1.228   2.254   0.082 -1.3208 -1.2897 -0.2523
 1034SOL     OW 6378   5.613   0.968   6.494 -0.2875 -0.3141 -0.2600
 1034SOL    HW1 6379   5.526   0.977   6.453  0.1550  0.0958 -1.1348
 1034SOL    HW2 6380   5.674   1.002   6.429  0.3661  1.3119  1.1225
 1035SOL     OW 6381   3.803   9.472   8.255  0.6978 -0.1655 -0.2462
 1035SOL    HW1 6382   3.848   9.458   8.171  0.6368  0.0483 -0.3140
 1035SOL    HW2 6383   3.846   9.411   8.315  0.4891 -0.5910 -0.5248
 1036SOL     OW 6384   8.857   5.738   0.656 -0.0596  0.2778  0.2947
 1036SOL    HW1 6385   8.836   5.751   0.564 -2.7729 -0.1101  0.7858
 1036SOL    HW2 6386   8.848   5.643   0.669 -1.7269  0.5553  1.3709
 1037SOL     OW 6387   0.610   9.591   9.385 -0.4306  0.3083  0.2185
 1037SOL    HW1 6388   0.634   9.674   9.425  0.1250  0.1786  0.1661
 1037SOL    HW2 6389   0.692   9.540   9.384 -0.3680  0.3870 -1.2520
 1038SOL     OW 6390   3.568   5.428   2.897 -0.2743 -0.2483  0.2005
 1038SOL    HW1 6391   3.570   5.521   2.919  1.0901 -0.2718  0.3031
 1038SOL    HW2 6392   3.479   5.412   2.867 -0.3754  1.2254 -0.3801
 1039SOL     OW 6393   9.599   3.872   4.173  0.1581  0.0110 -0.1116
 1039SOL    HW1 6394   9.562   3.799   4.124  0.1693  0.0101 -0.1185
 1039SOL    HW2 6395   9.571   3.950   4.125  0.9709 -0.0268 -0.6627
 1040SOL     OW 6396   6.825   4.830   7.556  0.2774 -0.0015 -0.1542
 1040SOL    HW1 6397   6.841   4.874   7.472 -0.1369 -1.6219 -1.1134
 1040SOL    HW2 6398   6.734   4.851   7.577  0.1846 -0.1142 -0.4368
 1041SOL     OW 6399   3.748   7.853   0.154 -0.4803  0.6631  0.1578
 1041SOL    HW1 6400   3.728   7.831   0.244 -1.3290  0.4129 -0.0893
 1041SOL    HW2 6401   3.826   7.801   0.133 -0.9042 -0.0829  0.4130
 1042SOL     OW 6402   0.420  10.882   6.623  0.1561 -0.1230  0.6358
 1042SOL    HW1 6403   0.439  10.818   6.554  1.1868 -0.9623  1.6692
 1042SOL    HW2 6404   0.426  10.967   6.579  0.4535 -0.6570 -0.3804
 1043SOL     OW 6405   7.577   0.853   6.824 -0.5553 -0.0502 -1.0851
 1043SOL    HW1 6406   7.551   0.933   6.778 -0.6867 -0.7534 -2.2716
 1043SOL    HW2 6407   7.669   0.841   6.801 -0.4836 -0.1366 -0.7531
 1044SOL     OW 6408   5.860  10.537  10.716 -0.0017 -0.2497 -0.6379
 1044SOL    HW1 6409   5.766  10.545  10.730  0.0913  3.9043 -1.0923
 1044SOL    HW2 6410   5.869  10.467  10.652 -2.6504 -1.3611  0.0599
 1045SOL     OW 6411   4.139  10.913   1.704  0.0475 -0.2107 -0.2662
 1045SOL    HW1 6412   4.229  10.903   1.673 -0.1082 -0.3923 -0.6721
 1045SOL    HW2 6413   4.099  10.828   1.688 -0.2875 -0.0306 -0.3912
 1046SOL     OW 6414   6.256   7.839   0.391  0.1761 -0.3664 -0.1545
 1046SOL    HW1 6415   6.302   7.921   0.408  0.2440 -0.6268  1.0343
 1046SOL    HW2 6416   6.296   7.776   0.452 -1.4357 -0.7042  0.6036
 1047SOL     OW 6417   3.472   3.796   7.298  0.2637 -0.0054 -0.0810
 1047SOL    HW1 6418   3.426   3.772   7.218 -0.2028 -2.5440  0.8502
 1047SOL    HW2 6419   3.514   3.715   7.327  2.0382  1.2962  1.2278
 1048SOL     OW 6420  11.388   3.679  10.440 -0.4027 -0.3861 -0.0695
 1048SOL    HW1 6421  11.310   3.736  10.444  0.4919  1.1967 -2.4928
 1048SOL    HW2 6422  11.443   3.710  10.512 -1.5147 -0.8048  1.0081
 1049SOL     OW 6423   0.265   1.602   6.227  0.6805  0.5670 -0.5788
 1049SOL    HW1 6424   0.303   1.515   6.215  3.6913  1.6655  0.1606
 1049SOL    HW2 6425   0.220   1.597   6.312  2.5732  0.2334  0.4538
 1050SOL     OW 6426   3.258   6.024   2.472  0.5188 -0.3286 -0.4892
 1050SOL    HW1 6427   3.278   5.936   2.440  2.8235  0.5870 -1.7979
 1050SOL    HW2 6428   3.165   6.036   2.454  0.7891 -1.4685 -2.9322
 1051SOL     OW 6429   4.110   9.586   2.708  0.5750 -0.7075 -0.0677
 1051SOL    HW1 6430   4.055   9.627   2.642 -0.6445 -0.6307  0.9591
 1051SOL    HW2 6431   4.164   9.523   2.659 -1.0232 -1.4038 -1.0128
 1052SOL     OW 6432   8.916   5.455   6.577  0.0384  0.7566 -0.2419
 1052SOL    HW1 6433   8.960   5.528   6.620  1.4063 -0.5076  0.6174
 1052SOL    HW2 6434   8.987   5.397   6.550 -1.0299 -0.5855 -0.2595
 1053SOL     OW 6435   4.695  10.077  10.914 -0.3237 -0.4063  0.5729
 1053SOL    HW1 6436   4.735   9.993  10.938  1.6012  0.3690  0.2974
 1053SOL    HW2 6437   4.616  10.083  10.967  1.0356 -1.0941  2.8105
 1054SOL     OW 6438   0.687   5.929   7.806  0.3207 -0.3309  0.3517
 1054SOL    HW1 6439   0.751   5.897   7.870 -0.2468 -1.2043  0.4918
 1054SOL    HW2 6440   0.624   5.858   7.798  0.4361 -0.2742 -1.2516
 1055SOL     OW 6441   1.465  10.670   7.644  0.0155  0.2218 -0.1041
 1055SOL    HW1 6442   1.510  10.648   7.726  0.1765 -1.5011 -0.6061
 1055SOL    HW2 6443   1.536  10.688   7.583 -0.1090  1.7660  0.1651
 1056SOL     OW 6444   5.023  10.157  10.942 -0.0333  0.4194 -0.0427
 1056SOL    HW1 6445   4.950  10.209  10.908  0.6612  2.5327  1.4453
 1056SOL    HW2 6446   4.984  10.073  10.965 -1.9737  1.3716  0.3969
 1057SOL     OW 6447  10.098   9.156   2.411 -0.6217 -0.1174  0.2628
 1057SOL    HW1 6448  10.151   9.108   2.475 -1.2207 -0.4719  0.5058
 1057SOL    HW2 6449  10.046   9.088   2.368 -2.3359  0.4045  1.4116
 1058SOL     OW 6450   5.329   4.953   0.195  0.1736 -0.0206 -0.3705
 1058SOL    HW1 6451   5.320   5.033   0.248  3.4792 -0.0602  0.4766
 1058SOL    HW2 6452   5.302   4.980   0.107 -0.0578  1.6658  0.1714
 1059SOL     OW 6453   1.961   3.983   2.187 -0.4318  0.4200 -0.1118
 1059SOL    HW1 6454   1.989   3.948   2.103 -0.1769  0.0412  0.1268
 1059SOL    HW2 6455   2.042   4.009   2.231 -0.5926  0.9816 -0.1429
 1060SOL     OW 6456   5.598   6.495   3.098  0.2579 -0.0011 -0.4165
 1060SOL    HW1 6457   5.664   6.548   3.143 -2.7825  3.6588  0.2522
 1060SOL    HW2 6458   5.519   6.505   3.151 -1.6868 -1.5159 -2.8289
 1061SOL     OW 6459   2.228   8.529   6.970  0.0941  0.6972 -0.5141
 1061SOL    HW1 6460   2.282   8.572   6.905 -0.5489  0.3967 -1.2624
 1061SOL    HW2 6461   2.290   8.487   7.029  0.6872  1.2684 -0.7254
 1062SOL     OW 6462   7.442   6.689   4.003 -0.0558 -0.1762  0.3732
 1062SOL    HW1 6463   7.381   6.738   3.947 -0.5462 -0.5346  0.5840
 1062SOL    HW2 6464   7.524   6.736   3.996  0.2179 -0.8275 -1.5444
 1063SOL     OW 6465   9.453   1.658   6.818 -0.0508  0.0337 -0.3584
 1063SOL    HW1 6466   9.413   1.696   6.740  1.1739  0.6460 -0.7269
 1063SOL    HW2 6467   9.467   1.566   6.796 -0.5555 -0.0073 -0.5090
 1064SOL     OW 6468   6.761   3.286   8.113 -0.4159 -0.3451 -0.7679
 1064SOL    HW1 6469   6.735   3.353   8.050 -2.0679  0.1913  0.4261
 1064SOL    HW2 6470   6.684   3.230   8.121 -0.5694  0.1038  1.3951
 1065SOL     OW 6471   8.459   5.102   9.809  0.3269  0.1465 -0.2307
 1065SOL    HW1 6472   8.468   5.048   9.730 -0.8596  0.7811 -0.8282
 1065SOL    HW2 6473   8.429   5.041   9.876  0.7989 -0.2967 -0.4167
 1066SOL     OW 6474   3.438   5.948   3.163  0.3497 -0.3860  0.0319
 1066SOL    HW1 6475   3.356   5.915   3.126  1.6437 -2.6276 -1.1201
 1066SOL    HW2 6476   3.496   5.958   3.087  0.9984  1.7195  0.7495
 1067SOL     OW 6477   9.051   1.186   9.949 -0.1122 -0.1824  0.0497
 1067SOL    HW1 6478   9.070   1.096   9.922 -1.7171 -0.3480 -0.6363
 1067SOL    HW2 6479   9.067   1.187  10.044 -0.7402 -1.3973  0.1897
 1068SOL     OW 6480   6.223   2.130   6.894 -0.0250 -0.6494  0.7904
 1068SOL    HW1 6481   6.228   2.176   6.810  0.3621 -1.3536  0.4192
 1068SOL    HW2 6482   6.130   2.129   6.916  0.0084  0.7717  1.0744
 1069SOL     OW 6483   1.273   9.206  10.179  0.1059  0.1751 -0.0218
 1069SOL    HW1 6484   1.335   9.201  10.252 -0.7501  1.6639  0.8571
 1069SOL    HW2 6485   1.326   9.187  10.101  0.8932 -2.2335  0.9813
 1070SOL     OW 6486   8.288  10.131   1.211 -0.0885 -0.2001 -0.2179
 1070SOL    HW1 6487   8.230  10.076   1.264  0.4079  0.1147  0.6868
 1070SOL    HW2 6488   8.238  10.212   1.197 -1.5505 -1.4630 -3.0805
 1071SOL     OW 6489   1.804  10.354   7.078  0.3140  0.8467  0.6370
 1071SOL    HW1 6490   1.746  10.289   7.039  2.3873 -0.2935 -0.6933
 1071SOL    HW2 6491   1.745  10.415   7.122 -1.8861 -0.1035 -0.8392
 1072SOL     OW 6492   3.895   6.056  10.187  0.1052 -0.3668 -0.0467
 1072SOL    HW1 6493   3.937   6.026  10.267  1.7583 -1.0855 -1.1351
 1072SOL    HW2 6494   3.948   6.130  10.158 -0.5951  0.0160 -0.3943
 1073SOL     OW 6495  10.567   5.147  10.663  0.3039  0.5164 -0.1542
 1073SOL    HW1 6496  10.593   5.190  10.744 -0.4687  1.5109 -0.4063
 1073SOL    HW2 6497  10.481   5.109  10.683  1.1226 -1.2646  0.1692
 1074SOL     OW 6498   2.885   2.088   5.162  0.0316  0.0241  0.0863
 1074SOL    HW1 6499   2.843   2.063   5.080 -2.9300 -1.3916  1.8581
 1074SOL    HW2 6500   2.845   2.171   5.186  1.0763  0.5674  0.0145
 1075SOL     OW 6501   9.832   6.706   7.016 -0.4105 -0.1511  0.1833
 1075SOL    HW1 6502   9.792   6.658   7.088 -0.3939 -1.1305 -0.4451
 1075SOL    HW2 6503   9.826   6.647   6.941  0.1619  0.5913 -0.4667
 1076SOL     OW 6504   5.329   2.639   3.333 -0.4596  0.0581  0.0980
 1076SOL    HW1 6505   5.423   2.657   3.324  0.0870 -3.1475 -2.4423
 1076SOL    HW2 6506   5.286   2.707   3.281  0.7089 -0.2894 -1.3612
 1077SOL     OW 6507   5.396   8.683   9.392 -0.0072 -0.4498 -0.1331
 1077SOL    HW1 6508   5.395   8.722   9.479  0.5673  0.5735 -0.5682
 1077SOL    HW2 6509   5.305   8.657   9.376 -0.1198 -0.6367  0.7555
 1078SOL     OW 6510   2.493   4.914   5.214 -0.0674 -0.2490 -0.1951
 1078SOL    HW1 6511   2.522   4.988   5.160 -0.0558  0.2609  0.5037
 1078SOL    HW2 6512   2.414   4.882   5.171 -0.5472  0.7042 -0.0359
 1079SOL     OW 6513   2.313   8.097   6.352  0.3414  0.1787  0.0521
 1079SOL    HW1 6514   2.223   8.117   6.329  0.5808  0.8238 -0.3682
 1079SOL    HW2 6515   2.351   8.059   6.273  0.6047  0.5024  0.0181
 1080SOL     OW 6516   2.400  10.966   3.497  0.1431 -0.2091  0.6073
 1080SOL    HW1 6517   2.428  10.971   3.406  0.7759  2.3294  0.8588
 1080SOL    HW2 6518   2.321  10.911   3.495  0.2338 -0.3563 -1.4134
 1081SOL     OW 6519   8.310   9.445   7.814 -0.2886 -0.4851 -0.2638
 1081SOL    HW1 6520   8.257   9.373   7.848 -0.8278 -0.4389 -0.9973
 1081SOL    HW2 6521   8.306   9.435   7.719  1.2055 -0.6199 -0.3485
 1082SOL     OW 6522   5.958   4.638   4.981  0.0025 -0.2037 -0.1698
 1082SOL    HW1 6523   5.880   4.583   4.966 -0.1215  0.0749 -0.5739
 1082SOL    HW2 6524   6.021   4.579   5.021 -0.9263 -0.0775  1.5743
 1083SOL     OW 6525  10.072   3.146   8.682 -0.3628 -0.1146  0.2445
 1083SOL    HW1 6526  10.056   3.127   8.590 -0.9378 -0.8835  0.4930
 1083SOL    HW2 6527   9.987   3.133   8.725 -0.2505  0.8580  0.7859
 1084SOL     OW 6528   6.911   8.837   0.018 -0.4409 -0.2707  0.8486
 1084SOL    HW1 6529   6.967   8.911   0.043  0.4254 -0.6488  0.1228
 1084SOL    HW2 6530   6.826   8.857   0.056  0.2089  0.2713  2.1073
 1085SOL     OW 6531   3.019  10.326   3.397  0.7322  0.7068  0.4344
 1085SOL    HW1 6532   3.034  10.290   3.484  1.1996 -0.3698 -0.0614
 1085SOL    HW2 6533   2.938  10.285   3.368  0.0605  1.7912  0.7114
 1086SOL     OW 6534   0.207   1.280   4.848  0.0596 -0.2229 -0.1920
 1086SOL    HW1 6535   0.289   1.245   4.883  0.0857 -0.6225 -0.6354
 1086SOL    HW2 6536   0.185   1.221   4.776  0.7964  1.4154 -1.8340
 1087SOL     OW 6537   1.206   6.999   2.946 -0.2753 -0.3310  0.3177
 1087SOL    HW1 6538   1.163   6.940   3.008  0.4739 -2.3455 -0.9958
 1087SOL    HW2 6539   1.222   7.079   2.997 -0.9397 -1.3924  2.3032
 1088SOL     OW 6540   5.647   7.989   4.685 -0.3947  0.1198 -0.1918
 1088SOL    HW1 6541   5.569   8.035   4.654 -0.7148 -0.7031 -0.6332
 1088SOL    HW2 6542   5.666   7.924   4.617 -0.1405 -0.6088  0.5599
 1089SOL     OW 6543  10.968   1.278   5.143 -0.4932 -0.1428 -0.0704
 1089SOL    HW1 6544  10.983   1.187   5.165 -2.3255 -0.5488 -0.3495
 1089SOL    HW2 6545  11.036   1.326   5.190 -0.2482 -1.5359  1.0482
 1090SOL     OW 6546   0.273   0.365   5.300  0.1055  0.0564  0.2901
 1090SOL    HW1 6547   0.346   0.326   5.348  0.9995 -0.7202 -1.6112
 1090SOL    HW2 6548   0.217   0.290   5.277 -0.4084  0.4392  0.2884
 1091SOL     OW 6549   2.739   2.744   3.001  0.5575  0.3012 -0.0263
 1091SOL    HW1 6550   2.738   2.790   3.085 -2.0787  0.4930 -0.0744
 1091SOL    HW2 6551   2.658   2.772   2.957  1.1610 -0.8797 -2.0314
 1092SOL     OW 6552   9.157   9.260   8.669  0.4143 -0.1121  0.2750
 1092SOL    HW1 6553   9.130   9.255   8.761 -0.5335 -3.5473 -0.0562
 1092SOL    HW2 6554   9.188   9.172   8.649  1.7335  0.8837 -2.4043
 1093SOL     OW 6555   8.500   4.592   9.474  0.4458 -0.1685  0.3653
 1093SOL    HW1 6556   8.584   4.548   9.468 -0.4631 -2.3266  2.0367
 1093SOL    HW2 6557   8.443   4.546   9.413 -0.3568 -1.0139  1.6839
 1094SOL     OW 6558   3.298   0.321   0.526 -0.2544 -0.2656  0.6112
 1094SOL    HW1 6559   3.240   0.336   0.601 -1.7046  1.4165 -0.7539
 1094SOL    HW2 6560   3.328   0.409   0.502 -1.0053 -0.5677 -1.6453
 1095SOL     OW 6561   3.455   7.727   4.439 -0.3953 -0.5340 -0.1009
 1095SOL    HW1 6562   3.539   7.773   4.432 -0.5561 -0.1018  0.6294
 1095SOL    HW2 6563   3.449   7.703   4.531 -1.2018 -0.3114 -0.0879
 1096SOL     OW 6564   6.135   0.540   6.411  0.4673  0.3095 -0.3475
 1096SOL    HW1 6565   6.054   0.541   6.360  0.5988  1.2755 -0.5492
 1096SOL    HW2 6566   6.109   0.506   6.496 -0.1573  0.6579 -0.3938
 1097SOL     OW 6567   2.924   0.719   8.554 -0.1920 -0.1497 -0.2844
 1097SOL    HW1 6568   2.877   0.637   8.568 -0.1614 -0.1741 -0.3223
 1097SOL    HW2 6569   2.912   0.738   8.460  0.0506 -0.2671 -0.3403
 1098SOL     OW 6570   2.484   7.310   4.374  0.3487  0.0044 -0.0379
 1098SOL    HW1 6571   2.397   7.274   4.391  0.9766 -0.6135  2.2100
 1098SOL    HW2 6572   2.469   7.389   4.323 -1.4284 -0.6760 -0.6295
 1099SOL     OW 6573   1.422   8.344  10.572  0.4836 -0.8012 -0.7435
 1099SOL    HW1 6574   1.375   8.277  10.523  1.3419 -1.8211 -0.2059
 1099SOL    HW2 6575   1.363   8.368  10.644 -0.3202 -0.0835 -1.6074
 1100SOL     OW 6576   8.737   3.280   2.618 -0.2528  0.6632  0.3235
 1100SOL    HW1 6577   8.759   3.263   2.526  0.6477  2.0156  0.2502
 1100SOL    HW2 6578   8.760   3.199   2.664 -2.0182 -0.5334 -0.8071
 1101SOL     OW 6579   4.431   1.668   5.196 -0.3298  0.1759  0.0952
 1101SOL    HW1 6580   4.480   1.642   5.275 -0.5649  1.5471  0.7285
 1101SOL    HW2 6581   4.398   1.756   5.217 -0.2333  0.6478 -1.6206
 1102SOL     OW 6582   0.281  11.269   7.639 -0.2074  0.4162  0.1856
 1102SOL    HW1 6583   0.208  11.330   7.649 -1.6961 -1.2606  0.1116
 1102SOL    HW2 6584   0.245  11.184   7.665  1.4330 -0.6549 -0.8329
 1103SOL     OW 6585   9.081   7.840   2.233 -0.3134  0.3465 -0.2417
 1103SOL    HW1 6586   9.172   7.863   2.212 -0.4471 -1.1591 -2.8860
 1103SOL    HW2 6587   9.069   7.753   2.195 -2.9731  0.6420 -0.2605
 1104SOL     OW 6588   7.195   8.951   9.119 -0.7169  0.3025 -0.3718
 1104SOL    HW1 6589   7.171   8.932   9.210  1.6915  1.4779  0.6185
 1104SOL    HW2 6590   7.253   9.027   9.125 -1.2694  1.0299 -3.0230
 1105SOL     OW 6591   5.298   6.647   9.673  0.7105 -0.4691  0.5448
 1105SOL    HW1 6592   5.316   6.632   9.580  0.6232  2.2988  0.0211
 1105SOL    HW2 6593   5.308   6.741   9.686 -1.2943 -0.4653  2.9268
 1106SOL     OW 6594   8.629   6.965   5.027  0.5015 -0.0452  0.0050
 1106SOL    HW1 6595   8.561   7.011   4.978  0.8873  0.8976  0.3179
 1106SOL    HW2 6596   8.629   6.877   4.991  0.9943  0.6889 -1.9131
 1107SOL     OW 6597   8.179   6.348   0.983 -0.1474  0.3961 -0.1493
 1107SOL    HW1 6598   8.127   6.388   0.913 -0.4857  1.2826  0.5915
 1107SOL    HW2 6599   8.137   6.377   1.064 -0.0227 -0.9561  0.4403
 1108SOL     OW 6600   3.785   6.066   4.144  0.4532 -0.0351  0.2194
 1108SOL    HW1 6601   3.758   5.985   4.101  0.6783 -0.1729  0.3390
 1108SOL    HW2 6602   3.726   6.133   4.108  0.7803 -0.1080 -0.4642
 1109SOL     OW 6603   7.391   2.472   6.435 -0.6204  0.0941  0.1704
 1109SOL    HW1 6604   7.300   2.446   6.445 -0.4975 -0.4427 -0.0628
 1109SOL    HW2 6605   7.399   2.499   6.344 -0.2783 -0.9929 -0.1393
 1110SOL     OW 6606   5.617   6.018   2.314 -0.7413 -0.2719  0.2817
 1110SOL    HW1 6607   5.528   5.984   2.314 -0.7828 -0.1771 -0.7401
 1110SOL    HW2 6608   5.630   6.050   2.404 -1.7286 -0.2805  0.4396
 1111SOL     OW 6609   1.213   3.206   8.011 -0.5006 -0.5786 -0.7704
 1111SOL    HW1 6610   1.301   3.212   7.975  0.1303 -0.7127  0.6774
 1111SOL    HW2 6611   1.221   3.240   8.100 -1.6080 -1.8236 -0.1611
 1112SOL     OW 6612   4.149   2.023   3.408  0.8022 -0.0150 -0.0649
 1112SOL    HW1 6613   4.173   1.936   3.441  0.8552  0.3410  0.8555
 1112SOL    HW2 6614   4.160   2.016   3.313 -2.8954 -2.2515 -0.5672
 1113SOL     OW 6615   8.062   2.884   6.369 -0.0902 -0.4174  0.5243
 1113SOL    HW1 6616   8.088   2.972   6.343  2.9502 -1.2431  0.4117
 1113SOL    HW2 6617   8.092   2.875   6.459 -0.7854 -1.1815  0.6929
 1114SOL     OW 6618   7.495   3.242   1.140  0.1179 -0.2632 -0.1730
 1114SOL    HW1 6619   7.572   3.191   1.114 -1.4992 -2.8102 -0.2985
 1114SOL    HW2 6620   7.429   3.177   1.162 -2.3667  1.8009 -1.0242
 1115SOL     OW 6621   1.796  11.311   4.050  0.2008 -0.3027 -0.2128
 1115SOL    HW1 6622   1.803  11.360   3.968  0.8811 -1.5379 -0.9253
 1115SOL    HW2 6623   1.867  11.246   4.045  0.4203 -0.2298  1.4761
 1116SOL     OW 6624   7.955   0.248   7.929 -0.3696 -0.3584  0.2175
 1116SOL    HW1 6625   7.947   0.174   7.990 -1.3515 -2.2058 -2.0023
 1116SOL    HW2 6626   7.868   0.289   7.931  0.3014  1.1362  1.7869
 1117SOL     OW 6627   9.413   1.779   8.406  0.7729  0.4399  0.1745
 1117SOL    HW1 6628   9.492   1.830   8.427  1.4657 -1.0090  1.2902
 1117SOL    HW2 6629   9.416   1.705   8.467 -0.3332 -0.7875 -1.2069
 1118SOL     OW 6630   6.570   8.147   2.089 -0.3497  0.2714  0.2582
 1118SOL    HW1 6631   6.547   8.152   2.182 -1.7937 -1.3463  0.0230
 1118SOL    HW2 6632   6.541   8.231   2.053 -2.1036 -0.0583  0.8091
 1119SOL     OW 6633   2.430   7.435   6.554 -0.1157 -0.0211 -0.4199
 1119SOL    HW1 6634   2.393   7.522   6.567 -0.2423 -0.4888  3.2915
 1119SOL    HW2 6635   2.520   7.442   6.586  0.1462 -1.0971 -0.8629
 1120SOL     OW 6636   1.781   4.490   0.524 -0.4730  0.6476  0.1424
 1120SOL    HW1 6637   1.795   4.497   0.430 -0.9569  0.0200  0.0159
 1120SOL    HW2 6638   1.853   4.434   0.554 -0.5203  0.5594  0.0916
 1121SOL     OW 6639   7.131   8.619  10.877  0.1553 -0.7191  0.4663
 1121SOL    HW1 6640   7.121   8.710  10.906  0.3293 -0.8793  1.0491
 1121SOL    HW2 6641   7.074   8.612  10.800  0.9141  0.1485 -0.1997
 1122SOL     OW 6642   0.335   5.895   2.561  0.1152 -0.2517 -0.7553
 1122SOL    HW1 6643   0.368   5.840   2.632 -0.7585  0.4584  0.2333
 1122SOL    HW2 6644   0.380   5.978   2.572  1.9571 -0.9008 -2.6677
 1123SOL     OW 6645  10.846  10.123   7.033  0.3368  0.3313 -0.0283
 1123SOL    HW1 6646  10.817  10.042   7.075  0.3273  0.7648  0.8140
 1123SOL    HW2 6647  10.777  10.186   7.054  0.2283  0.5032 -0.8745
 1124SOL     OW 6648   7.683   7.151   2.322 -0.3387 -0.1494  0.5453
 1124SOL    HW1 6649   7.682   7.246   2.308 -0.2607 -0.3803 -1.2748
 1124SOL    HW2 6650   7.762   7.121   2.277 -0.7173 -1.1465  0.5289
 1125SOL     OW 6651   4.002   0.636   9.708 -0.1119 -0.1308 -0.8985
 1125SOL    HW1 6652   3.973   0.549   9.681 -0.0552  0.1825 -2.0375
 1125SOL    HW2 6653   4.073   0.658   9.648  0.8269  0.1361  0.2742
 1126SOL     OW 6654   4.977   1.137   8.933  0.5351 -0.1668 -0.2992
 1126SOL    HW1 6655   4.900   1.186   8.961  0.7498  1.0650 -1.7365
 1126SOL    HW2 6656   4.977   1.144   8.838  0.5887 -2.9993 -0.5847
 1127SOL     OW 6657   8.529   8.638   2.572 -0.1787 -0.2326  0.4024
 1127SOL    HW1 6658   8.587   8.562   2.585  0.8617  0.4459 -0.1540
 1127SOL    HW2 6659   8.451   8.617   2.623  1.1503 -0.5256  2.4436
 1128SOL     OW 6660  10.229   7.955   1.498  0.0259  0.3881  0.0620
 1128SOL    HW1 6661  10.310   7.987   1.538 -0.4855  1.5095  0.2592
 1128SOL    HW2 6662  10.169   8.030   1.503 -0.9644 -0.3601 -0.2449
 1129SOL     OW 6663   8.349   1.983   9.236 -0.2093  0.2292 -0.0209
 1129SOL    HW1 6664   8.389   2.023   9.313 -0.4283  0.2689  0.0743
 1129SOL    HW2 6665   8.353   1.888   9.254 -1.1861  0.2721  0.5197
 1130SOL     OW 6666  10.377   0.223   6.456 -0.2207 -0.4788 -0.0631
 1130SOL    HW1 6667  10.351   0.307   6.495 -0.3090 -0.4450 -0.1956
 1130SOL    HW2 6668  10.472   0.220   6.469 -0.5024 -1.5671  2.3736
 1131SOL     OW 6669   3.022   7.291   0.744 -0.5320 -0.2632 -0.5801
 1131SOL    HW1 6670   3.023   7.254   0.656 -0.2826  0.1071 -0.7348
 1131SOL    HW2 6671   2.959   7.362   0.740 -0.0643  0.1560 -0.6292
 1132SOL     OW 6672   2.550   5.095   5.628  0.2490  0.6423  0.1020
 1132SOL    HW1 6673   2.461   5.073   5.656  0.5023  0.8538  1.1387
 1132SOL    HW2 6674   2.595   5.117   5.710  0.9422  1.6441 -0.5392
 1133SOL     OW 6675  11.343   2.664   4.885 -0.4628 -0.2705 -0.3517
 1133SOL    HW1 6676  11.254   2.632   4.899 -0.2843 -0.7102 -0.2260
 1133SOL    HW2 6677  11.332   2.758   4.867 -0.9915 -0.4189 -0.8260
 1134SOL     OW 6678   2.169   1.010   7.078 -0.1148 -0.2344 -0.2856
 1134SOL    HW1 6679   2.091   1.034   7.128 -0.9679 -0.1063 -1.6350
 1134SOL    HW2 6680   2.242   1.035   7.135 -0.9884  2.6119 -0.2688
 1135SOL     OW 6681   9.076   4.984   6.967  0.0270  0.8412  0.1601
 1135SOL    HW1 6682   9.062   4.975   7.061 -0.9682 -0.0337 -0.0500
 1135SOL    HW2 6683   9.069   5.078   6.951  4.0278  1.5435  1.4640
 1136SOL     OW 6684   1.257   2.718   1.362 -0.2656  0.9387 -0.6969
 1136SOL    HW1 6685   1.248   2.769   1.281 -1.7493  0.2425 -0.9960
 1136SOL    HW2 6686   1.221   2.774   1.430  0.8414  1.4615 -0.5164
 1137SOL     OW 6687   8.201   9.354   1.834  0.6006 -0.3082  0.3613
 1137SOL    HW1 6688   8.246   9.320   1.756  1.5103  1.7102 -0.0620
 1137SOL    HW2 6689   8.271   9.384   1.891 -0.1115 -0.6783  1.4537
 1138SOL     OW 6690   1.633   7.013   3.830  0.1471  0.2032  0.3646
 1138SOL    HW1 6691   1.548   7.007   3.873  0.6621  1.0684  1.5917
 1138SOL    HW2 6692   1.675   6.929   3.848 -0.0844  0.1338  0.5866
 1139SOL     OW 6693   7.627   7.590   0.052 -0.2647  0.1459 -0.4127
 1139SOL    HW1 6694   7.649   7.505   0.089 -0.7483  0.2093  0.0203
 1139SOL    HW2 6695   7.592   7.570  -0.035  1.5197  0.0412 -1.1643
 1140SOL     OW 6696   4.238   2.539  10.416 -0.2183  0.0520 -0.0747
 1140SOL    HW1 6697   4.266   2.460  10.462  0.3362 -1.6810 -3.0951
 1140SOL    HW2 6698   4.318   2.572  10.375 -0.8469  0.8295 -0.7184
 1141SOL     OW 6699   2.227   3.071   3.253 -0.6866  0.2430  0.2824
 1141SOL    HW1 6700   2.266   3.080   3.166 -0.5540 -2.2503 -0.0004
 1141SOL    HW2 6701   2.205   2.978   3.260 -2.1101  0.6525  2.3438
 1142SOL     OW 6702   8.650   5.193   4.874  0.3583  0.0450  0.6050
 1142SOL    HW1 6703   8.649   5.250   4.797  0.6884 -0.8151 -0.0478
 1142SOL    HW2 6704   8.567   5.146   4.870  0.8943 -0.9073  0.0553
 1143SOL     OW 6705  10.643   4.987   2.052 -0.2998  0.3319 -0.0555
 1143SOL    HW1 6706  10.607   5.068   2.016 -2.2501 -0.7889 -0.7616
 1143SOL    HW2 6707  10.567   4.930   2.064  0.6430 -0.4464  3.0473
 1144SOL     OW 6708   4.023   7.385   1.735 -0.1009  0.2146  0.1321
 1144SOL    HW1 6709   4.082   7.311   1.724  0.8091  1.0603 -0.7869
 1144SOL    HW2 6710   3.991   7.377   1.825 -1.7370 -2.5197 -0.5710
 1145SOL     OW 6711   0.336   6.672   2.116 -0.0812 -0.9318  0.1214
 1145SOL    HW1 6712   0.407   6.651   2.177  0.7731  1.3700  0.0099
 1145SOL    HW2 6713   0.261   6.692   2.173  0.3050 -0.1996  0.3897
 1146SOL     OW 6714   0.645   4.750  11.141  0.5954  0.2865  0.0019
 1146SOL    HW1 6715   0.642   4.725  11.048 -1.0099 -2.2199  0.6275
 1146SOL    HW2 6716   0.568   4.805  11.153  0.1921 -0.2774  0.0472
 1147SOL     OW 6717   8.793   6.550   4.606  0.3406 -0.3489 -0.6726
 1147SOL    HW1 6718   8.867   6.597   4.644 -0.8095  0.7363  0.3418
 1147SOL    HW2 6719   8.813   6.458   4.621  0.8914 -0.0254  0.7839
 1148SOL     OW 6720   8.023   6.494   0.802  0.1735 -0.2928 -0.0691
 1148SOL    HW1 6721   8.107   6.529   0.774 -0.1832  0.1570 -0.5761
 1148SOL    HW2 6722   8.002   6.542   0.882 -0.7961  1.4162 -1.2978
 1149SOL     OW 6723   6.123  10.640   8.915 -0.2911  0.6697  0.4785
 1149SOL    HW1 6724   6.191  10.674   8.857 -1.2852  2.1843  0.1526
 1149SOL    HW2 6725   6.054  10.611   8.856 -0.1277 -0.4780  0.8262
 1150SOL     OW 6726   9.012   9.939   7.437  0.1897  0.1087  0.4568
 1150SOL    HW1 6727   9.012  10.030   7.467 -1.4940 -0.3330  1.9499
 1150SOL    HW2 6728   8.984   9.944   7.346  0.5099  1.1117  0.3957
 1151SOL     OW 6729   9.301   8.360   8.781  0.1848 -0.0110 -0.2929
 1151SOL    HW1 6730   9.240   8.358   8.707  1.3759 -0.6485 -1.3003
 1151SOL    HW2 6731   9.305   8.269   8.811 -3.0411  0.6927  3.0078
 1152SOL     OW 6732   2.711   6.469   4.263  0.1485 -0.0339  0.2091
 1152SOL    HW1 6733   2.791   6.422   4.240  0.5875  0.6999  0.2137
 1152SOL    HW2 6734   2.641   6.406   4.247  0.7796 -0.9577  0.9512
 1153SOL     OW 6735   7.203   1.153   3.520  0.3872 -0.1904 -0.5866
 1153SOL    HW1 6736   7.169   1.240   3.498  0.4785  0.4307  1.5123
 1153SOL    HW2 6737   7.172   1.097   3.449 -2.6620  0.8968 -0.2761
 1154SOL     OW 6738   5.836   3.594   1.384 -0.3373  0.2512  0.1806
 1154SOL    HW1 6739   5.868   3.506   1.401  2.1847  1.2715  1.3709
 1154SOL    HW2 6740   5.764   3.606   1.445  0.7261 -0.2832  1.5957
 1155SOL     OW 6741   4.276   3.589   0.265  0.0141 -0.0312 -0.3731
 1155SOL    HW1 6742   4.297   3.594   0.359  0.3707  2.0543 -0.5225
 1155SOL    HW2 6743   4.246   3.678   0.243  1.1160 -0.1516 -2.5194
 1156SOL     OW 6744   2.715   4.704  11.318 -0.2368  0.0963 -0.0035
 1156SOL    HW1 6745   2.695   4.636  11.254 -3.1017 -0.6491  1.4799
 1156SOL    HW2 6746   2.770   4.660  11.383  1.3437  0.4135 -1.0795
 1157SOL     OW 6747   3.724  11.320   8.372  0.0566  0.1163 -0.4540
 1157SOL    HW1 6748   3.667  11.386   8.331  1.1511  1.0918 -0.4444
 1157SOL    HW2 6749   3.776  11.285   8.300  0.5696  0.3789 -0.2122
 1158SOL     OW 6750   5.363   1.103   9.257 -0.3017  0.3401 -0.2337
 1158SOL    HW1 6751   5.298   1.117   9.189 -0.7733  0.2229  0.1854
 1158SOL    HW2 6752   5.437   1.062   9.212 -0.4744  0.5752 -0.7321
 1159SOL     OW 6753  11.112   1.888   3.290 -0.0351  0.2055 -0.0203
 1159SOL    HW1 6754  11.057   1.889   3.212 -0.3388 -1.4896  0.1346
 1159SOL    HW2 6755  11.133   1.795   3.304 -0.4290  0.3952  2.2168
 1160SOL     OW 6756   8.069   9.703   6.664  0.0168 -0.0861 -0.2580
 1160SOL    HW1 6757   8.037   9.727   6.577  1.5165  1.8763 -0.3269
 1160SOL    HW2 6758   8.126   9.627   6.648 -1.5104 -1.2114 -0.6162
 1161SOL     OW 6759  11.040   1.252   9.793  0.5662  0.1711  0.3096
 1161SOL    HW1 6760  11.110   1.200   9.833  0.5903 -0.5430 -0.6259
 1161SOL    HW2 6761  10.959   1.211   9.825  0.5398  1.0368  1.4443
 1162SOL     OW 6762   2.402   1.962   8.520 -0.4939 -0.2626 -0.6091
 1162SOL    HW1 6763   2.468   1.892   8.512 -1.4016 -1.1084 -0.9859
 1162SOL    HW2 6764   2.400   2.002   8.434 -0.9380 -0.6810 -0.7976
 1163SOL     OW 6765   1.757   9.549   7.131 -0.0887 -0.4599  0.1660
 1163SOL    HW1 6766   1.786   9.613   7.197  0.3119  0.2898 -0.7196
 1163SOL    HW2 6767   1.731   9.602   7.056 -0.6016 -1.3046 -0.2603
 1164SOL     OW 6768   3.500  10.971   4.577 -0.7705  0.2519  0.2712
 1164SOL    HW1 6769   3.536  10.930   4.656 -2.0406 -1.0926  0.2022
 1164SOL    HW2 6770   3.505  10.904   4.510 -0.2809  1.1796 -0.6513
 1165SOL     OW 6771   5.260   7.880   8.503  0.1291  0.0333  0.1291
 1165SOL    HW1 6772   5.276   7.815   8.571 -0.8410  0.4796  0.8135
 1165SOL    HW2 6773   5.165   7.891   8.503  0.2828  1.6067  0.1920
 1166SOL     OW 6774   4.211   5.981   5.993  0.7047  0.4743 -0.2664
 1166SOL    HW1 6775   4.162   6.010   6.070  1.8712 -0.7602  1.0138
 1166SOL    HW2 6776   4.166   5.901   5.965  0.4300  0.7864 -0.7200
 1167SOL     OW 6777   2.118   0.240   7.002  0.2831  0.4015  0.0061
 1167SOL    HW1 6778   2.067   0.167   6.968 -0.7505  0.3833  1.5222
 1167SOL    HW2 6779   2.147   0.287   6.924  0.6738 -1.4093 -0.9759
 1168SOL     OW 6780   4.910  10.604   2.707 -0.6127 -0.1612  0.4251
 1168SOL    HW1 6781   4.922  10.516   2.671 -1.3011  0.1177 -0.5158
 1168SOL    HW2 6782   4.881  10.657   2.633 -2.7858  0.2786  1.4980
 1169SOL     OW 6783   3.192   6.349   7.828 -0.1132  0.4598 -0.4062
 1169SOL    HW1 6784   3.156   6.265   7.801 -0.8408  0.1886  1.2488
 1169SOL    HW2 6785   3.142   6.372   7.907  0.8974  1.8491 -0.1273
 1170SOL     OW 6786  10.543   5.847   0.442  0.0230  0.0880 -0.1323
 1170SOL    HW1 6787  10.450   5.865   0.427  0.3480  2.1118 -0.0907
 1170SOL    HW2 6788  10.561   5.768   0.392 -1.4437  0.3451 -1.1345
 1171SOL     OW 6789   9.810   9.354   4.094  0.1594  0.2786  0.2576
 1171SOL    HW1 6790   9.721   9.372   4.126  0.5937  0.5550  1.3430
 1171SOL    HW2 6791   9.810   9.388   4.005 -1.5966 -1.9911 -0.7199
 1172SOL     OW 6792   9.033   1.343   4.965  0.1378  0.2914 -0.0628
 1172SOL    HW1 6793   8.942   1.360   4.986  0.4223  2.4087 -0.3593
 1172SOL    HW2 6794   9.055   1.266   5.017 -1.1986  1.0727  1.7806
 1173SOL     OW 6795   7.420   2.974   8.794  0.2053 -0.1541 -0.0423
 1173SOL    HW1 6796   7.366   2.965   8.872  0.2524 -0.4300 -0.0400
 1173SOL    HW2 6797   7.510   2.960   8.826  0.0285 -2.9234 -0.5742
 1174SOL     OW 6798   6.870   3.876  10.891 -0.1572  0.7119  0.3630
 1174SOL    HW1 6799   6.862   3.929  10.970 -0.7058 -0.1480  0.8968
 1174SOL    HW2 6800   6.933   3.923  10.837  1.5729  0.4375  2.0444
 1175SOL     OW 6801   1.401   9.700   5.033 -0.1367 -0.7222  0.2470
 1175SOL    HW1 6802   1.455   9.651   5.095  0.5268  1.4391  1.5020
 1175SOL    HW2 6803   1.450   9.698   4.951  0.9766 -0.3151  0.8822
 1176SOL     OW 6804   7.949  10.517   6.633  0.1770  0.4852 -0.4845
 1176SOL    HW1 6805   7.931  10.424   6.617 -1.8175  1.2297 -3.5567
 1176SOL    HW2 6806   8.022  10.538   6.575  0.8040  0.8147  0.3997
 1177SOL     OW 6807  10.447   8.670   6.437  0.3862  0.1530  0.3814
 1177SOL    HW1 6808  10.381   8.712   6.382 -0.2031 -2.1672 -0.8210
 1177SOL    HW2 6809  10.401   8.646   6.517 -0.5068 -1.9496 -0.6679
 1178SOL     OW 6810   4.227  10.445   6.375 -0.2301 -0.2396 -0.1059
 1178SOL    HW1 6811   4.179  10.364   6.393  0.3839 -0.9253 -1.3756
 1178SOL    HW2 6812   4.161  10.514   6.378 -1.2512 -1.1073 -1.4169
 1179SOL     OW 6813   4.745   1.226   3.336  0.1168 -0.1313  0.0054
 1179SOL    HW1 6814   4.736   1.291   3.267  0.3341  0.1630  0.2538
 1179SOL    HW2 6815   4.836   1.196   3.330 -0.0579 -0.6221 -0.2925
 1180SOL     OW 6816   4.673  11.214  11.000 -0.0961 -0.4799  1.1965
 1180SOL    HW1 6817   4.611  11.193  10.930  1.0136  0.0546  0.0192
 1180SOL    HW2 6818   4.618  11.240  11.074 -1.2852 -0.6588  0.3977
 1181SOL     OW 6819   8.318   7.676   0.754  0.0133  0.2255 -0.7961
 1181SOL    HW1 6820   8.399   7.639   0.718 -0.6798 -0.6472 -1.5084
 1181SOL    HW2 6821   8.329   7.770   0.748  1.1346  0.1226 -0.5238
 1182SOL     OW 6822   1.413   9.294  11.085  0.2969 -0.4982  0.0290
 1182SOL    HW1 6823   1.467   9.333  11.154 -0.1104  0.2264 -0.0533
 1182SOL    HW2 6824   1.449   9.329  11.004 -0.3205  0.0223 -0.0232
 1183SOL     OW 6825   9.987   2.761   1.791 -0.7504 -0.0901  0.0383
 1183SOL    HW1 6826  10.075   2.764   1.752 -0.8913  0.2936 -0.2649
 1183SOL    HW2 6827  10.002   2.745   1.884 -0.3927 -0.7457 -0.1277
 1184SOL     OW 6828  10.763   0.302  10.947 -0.0678  0.3813  0.1922
 1184SOL    HW1 6829  10.699   0.316  10.877  0.7959 -1.0569 -0.9481
 1184SOL    HW2 6830  10.838   0.261  10.904  0.9943  0.5618  1.7671
 1185SOL     OW 6831  11.390   0.252   4.391 -0.2611  0.4359  0.0357
 1185SOL    HW1 6832  11.469   0.236   4.339 -0.1479  2.6109 -0.5664
 1185SOL    HW2 6833  11.422   0.281   4.476 -0.4330  0.1978  0.1838
 1186SOL     OW 6834   0.370   1.936   8.213  0.3222 -0.2588 -0.2873
 1186SOL    HW1 6835   0.319   1.962   8.137 -1.7191 -1.0717  0.7350
 1186SOL    HW2 6836   0.389   1.843   8.198  0.9801 -0.1178 -0.3624
 1187SOL     OW 6837   0.097   6.910   7.048  0.0827 -0.0821  0.2557
 1187SOL    HW1 6838   0.102   6.929   7.142 -1.2343 -0.7982  0.4950
 1187SOL    HW2 6839   0.140   6.824   7.039  2.0901  0.9061 -0.1522
 1188SOL     OW 6840   4.922   0.346   8.777 -0.5149 -0.0050 -0.3684
 1188SOL    HW1 6841   4.857   0.411   8.803  1.5679  1.9038  0.3461
 1188SOL    HW2 6842   4.958   0.379   8.695  0.2567 -0.4820 -0.2326
 1189SOL     OW 6843   3.416   7.949   0.360  0.0252  0.1042 -0.1355
 1189SOL    HW1 6844   3.411   7.989   0.273  0.0755 -0.0470 -0.2088
 1189SOL    HW2 6845   3.399   7.856   0.345 -0.3710  0.1405  0.0714
 1190SOL     OW 6846   3.357  10.407  10.413  0.4468 -0.4412 -0.0727
 1190SOL    HW1 6847   3.349  10.317  10.445  1.2503 -0.2504  0.6927
 1190SOL    HW2 6848   3.299  10.458  10.469  0.5172 -0.3748 -0.0603
 1191SOL     OW 6849  11.374   4.962   1.365 -0.3512  0.6098  0.3631
 1191SOL    HW1 6850  11.370   5.055   1.339 -0.6801  0.6263  0.4720
 1191SOL    HW2 6851  11.420   4.919   1.292 -1.1835  0.6711 -0.2117
 1192SOL     OW 6852  10.150   2.081   4.219 -0.4933  0.0136  0.2739
 1192SOL    HW1 6853  10.244   2.073   4.203 -0.5864 -1.1841  0.2665
 1192SOL    HW2 6854  10.128   2.005   4.273 -1.4655  0.2732  0.2586
 1193SOL     OW 6855   9.779   7.423   5.915  0.4766  0.2379 -0.2453
 1193SOL    HW1 6856   9.752   7.407   6.006  0.9168 -0.3598 -0.2138
 1193SOL    HW2 6857   9.713   7.378   5.863  0.8285 -0.3405 -0.1939
 1194SOL     OW 6858   9.593   4.659   7.932 -0.0057 -0.0467 -0.0139
 1194SOL    HW1 6859   9.559   4.570   7.922  0.6786 -0.5201  1.5362
 1194SOL    HW2 6860   9.671   4.662   7.876 -1.3295  0.3845 -1.9444
 1195SOL     OW 6861   3.043   6.732   3.850 -0.0027  0.0900  0.1867
 1195SOL    HW1 6862   2.978   6.677   3.895  1.8873 -0.2821  2.6333
 1195SOL    HW2 6863   2.995   6.812   3.828 -1.5186 -0.5091  1.1246
 1196SOL     OW 6864   9.911   1.994   8.851 -0.6875  0.3979 -0.2051
 1196SOL    HW1 6865   9.967   2.022   8.923 -1.1002  0.4757  0.0931
 1196SOL    HW2 6866   9.866   2.074   8.823 -2.6805 -0.0970  1.3606
 1197SOL     OW 6867   0.561   0.620   4.963 -0.9027 -0.1015 -1.1421
 1197SOL    HW1 6868   0.551   0.573   4.880  0.1020 -2.4425 -0.0241
 1197SOL    HW2 6869   0.516   0.565   5.027 -0.7028  1.0904  0.0588
 1198SOL     OW 6870   2.964   9.719   1.500  0.2751 -0.0621  0.4467
 1198SOL    HW1 6871   2.891   9.780   1.500  0.1979 -0.1542 -0.1841
 1198SOL    HW2 6872   3.019   9.748   1.574  0.3694  0.9211  0.0053
 1199SOL     OW 6873   0.814   7.888   4.277 -0.0044  0.1048  0.2185
 1199SOL    HW1 6874   0.763   7.948   4.331  0.8967  0.1594  1.0409
 1199SOL    HW2 6875   0.901   7.887   4.318  0.4851 -0.4372 -0.7952
 1200SOL     OW 6876   0.277   3.216   7.432 -0.2168 -0.2781  0.2555
 1200SOL    HW1 6877   0.365   3.236   7.403  0.3384  0.8669  2.5367
 1200SOL    HW2 6878   0.227   3.296   7.417 -0.4231 -0.3357  0.6166
 1201SOL     OW 6879   0.794   5.997   6.670  0.2480 -0.4984  0.1372
 1201SOL    HW1 6880   0.860   6.060   6.698  0.3299 -0.3466 -0.3893
 1201SOL    HW2 6881   0.825   5.913   6.704  0.6844 -0.4183 -0.0567
 1202SOL     OW 6882   4.481   6.959  10.844 -0.4159  0.6620  0.4280
 1202SOL    HW1 6883   4.522   6.964  10.930  1.1345 -1.1647 -0.1430
 1202SOL    HW2 6884   4.474   6.865  10.825 -2.2510  0.9766 -0.7654
 1203SOL     OW 6885   0.577   8.622   2.143  0.0176  0.1712  0.4375
 1203SOL    HW1 6886   0.513   8.684   2.108  1.4027  0.7360 -1.2032
 1203SOL    HW2 6887   0.637   8.605   2.071  1.1672 -1.1100  1.6309
 1204SOL     OW 6888   0.029   4.236   3.605 -0.1859 -0.0444  0.0791
 1204SOL    HW1 6889   0.062   4.259   3.691 -0.8312  0.9608  0.0751
 1204SOL    HW2 6890   0.071   4.153   3.584  0.9251  0.3127  0.8272
 1205SOL     OW 6891   0.663   2.148   4.094  0.1946 -0.1867  0.1755
 1205SOL    HW1 6892   0.750   2.109   4.098 -0.0817 -0.8688 -0.2326
 1205SOL    HW2 6893   0.678   2.241   4.109  0.9679 -0.3272  0.3330
 1206SOL     OW 6894   1.702  10.566  10.150  0.3289  0.7759 -0.7130
 1206SOL    HW1 6895   1.768  10.503  10.121  0.4592  0.4495  0.2721
 1206SOL    HW2 6896   1.752  10.632  10.199 -0.2247 -0.3481  1.4907
 1207SOL     OW 6897   6.498   5.672   1.282  0.1712  0.0181 -0.0328
 1207SOL    HW1 6898   6.431   5.610   1.256  1.2788 -0.9501 -0.6649
 1207SOL    HW2 6899   6.579   5.621   1.285  0.8621  1.1023  0.9004
 1208SOL     OW 6900  10.592   5.903   2.353  0.6843 -0.0096  0.3015
 1208SOL    HW1 6901  10.574   5.961   2.427 -2.7141  0.2564 -0.5561
 1208SOL    HW2 6902  10.518   5.842   2.351  2.3958 -2.2564 -0.8888
 1209SOL     OW 6903   9.777   4.804   5.306  0.4439  0.0893  0.3704
 1209SOL    HW1 6904   9.831   4.762   5.239  0.1838 -0.3629  0.4419
 1209SOL    HW2 6905   9.769   4.895   5.277  0.6119 -0.0250 -0.0376
 1210SOL     OW 6906   5.328   2.380   3.449 -0.5712  0.0253 -0.3348
 1210SOL    HW1 6907   5.237   2.381   3.479 -0.0473  1.0151  1.3630
 1210SOL    HW2 6908   5.343   2.468   3.416  0.5797  0.8565  2.1942
 1211SOL     OW 6909   2.136   3.562   4.134  0.4090  0.4102 -0.0706
 1211SOL    HW1 6910   2.221   3.581   4.174  1.3017 -2.8529 -0.1799
 1211SOL    HW2 6911   2.074   3.563   4.208  1.3514 -1.5266  0.8112
 1212SOL     OW 6912   2.923   7.854   0.280  0.0926  0.6790  0.2144
 1212SOL    HW1 6913   2.978   7.932   0.280  1.2264 -0.0957 -0.3963
 1212SOL    HW2 6914   2.973   7.789   0.231 -0.4591 -0.6966  1.3852
 1213SOL     OW 6915   2.921   0.180   8.127 -0.5079  0.0233 -0.3229
 1213SOL    HW1 6916   2.982   0.250   8.105 -0.0593  0.1181  1.1206
 1213SOL    HW2 6917   2.969   0.126   8.189 -1.6692 -0.2712  0.3382
 1214SOL     OW 6918   5.694   8.770   8.506 -0.7299  0.1447  0.0524
 1214SOL    HW1 6919   5.637   8.844   8.486 -0.2824  0.2347 -0.9457
 1214SOL    HW2 6920   5.744   8.756   8.426  0.3112 -0.2443  0.7543
 1215SOL     OW 6921   6.745   5.702   6.742 -0.2111 -0.0372 -0.1692
 1215SOL    HW1 6922   6.791   5.776   6.703 -1.1770  1.8103  1.9499
 1215SOL    HW2 6923   6.655   5.708   6.708  0.0255 -1.1206 -1.0589
 1216SOL     OW 6924  10.662   2.919   9.670  0.1817  0.6113 -0.0657
 1216SOL    HW1 6925  10.641   2.902   9.762 -2.0764  1.4066 -0.3538
 1216SOL    HW2 6926  10.725   2.851   9.646 -0.8605 -0.9839  1.4926
 1217SOL     OW 6927   5.463   0.120   5.407 -0.4611 -0.6827 -0.3596
 1217SOL    HW1 6928   5.472   0.215   5.410 -1.5214 -0.5700 -0.4548
 1217SOL    HW2 6929   5.379   0.102   5.447 -0.7744 -1.4913 -1.3307
 1218SOL     OW 6930   8.124   7.686   9.293  0.1725  0.2839  0.0448
 1218SOL    HW1 6931   8.152   7.734   9.215  2.4242 -1.2575 -0.1917
 1218SOL    HW2 6932   8.141   7.746   9.365  0.3887  0.8427 -0.4602
 1219SOL     OW 6933   8.276   3.395   9.492  0.2569 -0.2017  0.0742
 1219SOL    HW1 6934   8.253   3.487   9.496 -2.1967 -0.8021  1.7563
 1219SOL    HW2 6935   8.216   3.357   9.428  2.0260 -0.4955 -1.4973
 1220SOL     OW 6936   2.181  11.263   5.162 -0.2070 -0.1290 -0.1443
 1220SOL    HW1 6937   2.151  11.304   5.080 -1.4404 -0.7514 -0.0184
 1220SOL    HW2 6938   2.270  11.233   5.142 -0.2435  0.3202 -1.0472
 1221SOL     OW 6939   7.998   5.075   8.243  0.4416 -0.9380 -0.3476
 1221SOL    HW1 6940   7.946   5.143   8.285 -0.0150 -1.0982 -0.6381
 1221SOL    HW2 6941   8.077   5.068   8.297 -0.5776 -1.8585  1.1281
 1222SOL     OW 6942   9.131   4.660   6.637  0.8719 -0.1134  0.4503
 1222SOL    HW1 6943   9.205   4.606   6.607 -0.1545 -0.0740 -2.5279
 1222SOL    HW2 6944   9.064   4.597   6.662  0.2227 -0.2876 -1.5651
 1223SOL     OW 6945  10.675   3.190   6.169  0.1365  0.4555 -0.7287
 1223SOL    HW1 6946  10.643   3.253   6.233 -0.6099  1.7312 -2.2980
 1223SOL    HW2 6947  10.611   3.120   6.169  0.2697  0.3261  0.0729
 1224SOL     OW 6948   6.468   7.626   5.605 -0.2540  0.3626  0.0821
 1224SOL    HW1 6949   6.463   7.620   5.701  0.9792  0.6806  0.1799
 1224SOL    HW2 6950   6.558   7.604   5.584 -0.3442  0.9268 -0.9582
 1225SOL     OW 6951  10.997   1.219   9.490 -0.2904 -0.1393  0.3831
 1225SOL    HW1 6952  10.985   1.125   9.503  0.3152 -0.0904  1.4557
 1225SOL    HW2 6953  11.028   1.251   9.575  0.2056  0.9067 -0.1685
 1226SOL     OW 6954   6.347   4.069   4.772  0.7297 -0.9144  0.0782
 1226SOL    HW1 6955   6.374   3.996   4.828  1.2427 -1.5479 -0.9640
 1226SOL    HW2 6956   6.427   4.096   4.727  0.2887 -0.5533 -0.5104
 1227SOL     OW 6957  10.140   8.626   2.206  0.3317  0.1441 -0.3372
 1227SOL    HW1 6958  10.175   8.614   2.118  1.2361  1.7452 -0.2379
 1227SOL    HW2 6959  10.212   8.666   2.255 -0.0910 -0.8793  1.1946
 1228SOL     OW 6960   3.366  10.417   2.179 -0.0260  0.3542  0.2846
 1228SOL    HW1 6961   3.401  10.434   2.091 -0.3240  2.9225  0.5950
 1228SOL    HW2 6962   3.435  10.366   2.222  0.9827  0.7281 -0.8138
 1229SOL     OW 6963   2.185   3.106   2.969 -0.6262  0.2434  0.2724
 1229SOL    HW1 6964   2.148   3.194   2.959 -0.9955  0.2189  1.2373
 1229SOL    HW2 6965   2.279   3.118   2.960 -0.7991  0.3426 -2.0298
 1230SOL     OW 6966   1.712   4.486   3.631 -0.0431  0.4200 -0.4532
 1230SOL    HW1 6967   1.670   4.412   3.586  1.2895 -1.0523  0.5942
 1230SOL    HW2 6968   1.796   4.497   3.586  0.4698  0.1845  0.4150
 1231SOL     OW 6969   6.098   9.320   7.075  0.5302 -0.1988 -0.1797
 1231SOL    HW1 6970   6.133   9.280   6.995 -0.3271  0.1463 -0.7310
 1231SOL    HW2 6971   6.035   9.256   7.108 -0.2383  0.3247 -0.6153
 1232SOL     OW 6972   3.863   1.268   9.398 -0.7855 -0.1121 -0.3180
 1232SOL    HW1 6973   3.923   1.317   9.454 -0.5949  1.3448 -1.7357
 1232SOL    HW2 6974   3.906   1.183   9.385 -0.8295 -0.4976  1.6570
 1233SOL     OW 6975   3.267   1.113   1.975 -1.0695 -0.1998 -0.1490
 1233SOL    HW1 6976   3.282   1.116   1.881  3.5292 -1.1899  0.2923
 1233SOL    HW2 6977   3.260   1.205   2.001 -2.9344  0.0684 -1.4299
 1234SOL     OW 6978   9.150   7.838   0.763 -0.6639 -0.3321 -0.3942
 1234SOL    HW1 6979   9.186   7.833   0.674  0.8834  0.5711  0.1514
 1234SOL    HW2 6980   9.072   7.782   0.759 -0.8039 -0.0992 -2.3829
 1235SOL     OW 6981   5.928   4.521  11.106  0.1516 -0.8014  0.3457
 1235SOL    HW1 6982   5.984   4.570  11.167 -1.6611 -0.6021  1.9577
 1235SOL    HW2 6983   5.979   4.443  11.084  1.8309  0.2975  0.1904
 1236SOL     OW 6984   2.421   5.187   9.490  0.4132 -0.0490  0.1870
 1236SOL    HW1 6985   2.513   5.214   9.487  0.5727 -0.6280 -1.8321
 1236SOL    HW2 6986   2.423   5.100   9.529  0.7729 -0.1571 -0.0610
 1237SOL     OW 6987   0.391   7.253   4.920 -0.0814  0.0648  0.2612
 1237SOL    HW1 6988   0.432   7.167   4.921  0.3705  0.2693  1.6826
 1237SOL    HW2 6989   0.308   7.239   4.873  0.5391 -0.8507 -0.6154
 1238SOL     OW 6990   1.114   5.892  11.230 -0.4186 -0.5679 -0.1162
 1238SOL    HW1 6991   1.132   5.802  11.201  1.9790 -0.0026 -0.6825
 1238SOL    HW2 6992   1.200   5.935  11.225 -1.6182  1.9371 -0.5319
 1239SOL     OW 6993   4.067   3.726   1.158  0.4725  0.0067  0.5306
 1239SOL    HW1 6994   4.146   3.773   1.185  0.8379  0.5100 -1.2679
 1239SOL    HW2 6995   4.021   3.788   1.101 -0.5043 -0.8019  0.4177
 1240SOL     OW 6996   6.097   1.954   3.700  1.1217  0.1488  0.2004
 1240SOL    HW1 6997   6.087   2.040   3.658  1.3092  0.5266  0.9245
 1240SOL    HW2 6998   6.162   1.968   3.769  0.5554 -0.3881  0.8546
 1241SOL     OW 6999   3.699   8.966   8.339 -0.1055 -0.5539 -0.0259
 1241SOL    HW1 7000   3.792   8.965   8.318 -0.1471  0.1481 -0.2642
 1241SOL    HW2 7001   3.656   8.924   8.264 -0.2221  1.6274 -1.2556
 1242SOL     OW 7002   2.085   8.147   3.200  0.0057 -0.7647  0.2966
 1242SOL    HW1 7003   2.009   8.097   3.230  0.4502 -1.7988 -0.2547
 1242SOL    HW2 7004   2.048   8.219   3.148 -0.5956 -2.6320 -2.0616
 1243SOL     OW 7005   9.751   0.052   6.801 -0.8262 -0.1251  0.0292
 1243SOL    HW1 7006   9.760   0.003   6.883 -1.1696  0.4595  0.4264
 1243SOL    HW2 7007   9.750   0.144   6.829  3.3024  0.4355 -0.9059
 1244SOL     OW 7008   2.934   1.227   8.605 -0.5072  0.4662 -0.2251
 1244SOL    HW1 7009   2.865   1.294   8.604 -1.0196  0.0455  1.6370
 1244SOL    HW2 7010   2.945   1.206   8.698  0.0398 -1.6265 -0.7111
 1245SOL     OW 7011  10.947   8.387  10.992 -0.5255  0.0456  0.0708
 1245SOL    HW1 7012  10.949   8.293  10.970 -0.2391 -0.2507  1.2827
 1245SOL    HW2 7013  10.998   8.429  10.922  0.6664 -0.8949  0.3342
 1246SOL     OW 7014   4.816   3.271   3.938  0.3360  0.3058 -0.0253
 1246SOL    HW1 7015   4.846   3.278   3.847  1.8857  1.5954  0.5242
 1246SOL    HW2 7016   4.895   3.248   3.987 -0.5743 -0.8526  0.9566
 1247SOL     OW 7017   1.178   2.839   0.473  0.2563  0.0736 -0.5097
 1247SOL    HW1 7018   1.261   2.802   0.505 -0.0053  0.3174  0.4984
 1247SOL    HW2 7019   1.204   2.908   0.413  0.7591 -0.9502 -1.5209
 1248SOL     OW 7020   6.174   2.517   6.653 -0.0566 -0.0407 -0.1554
 1248SOL    HW1 7021   6.145   2.432   6.684  1.2034 -0.6130 -0.4644
 1248SOL    HW2 7022   6.126   2.531   6.571  2.3085 -2.1757 -2.0627
 1249SOL     OW 7023   5.747   7.352   8.380 -0.6539  0.2251 -0.3026
 1249SOL    HW1 7024   5.746   7.390   8.293 -1.0178  0.0915 -0.3592
 1249SOL    HW2 7025   5.691   7.410   8.432 -1.4118 -0.3528 -0.4467
 1250SOL     OW 7026   9.731   1.223   0.123  0.5845 -0.1155 -0.0487
 1250SOL    HW1 7027   9.677   1.300   0.104  0.5261 -0.1658 -0.0844
 1250SOL    HW2 7028   9.732   1.217   0.219 -0.7639 -1.0372 -0.0723
 1251SOL     OW 7029   1.194   4.948   4.905  0.0864 -0.2692 -0.0718
 1251SOL    HW1 7030   1.119   4.971   4.851 -0.8380 -1.1933  0.7560
 1251SOL    HW2 7031   1.186   4.853   4.917  3.3702 -1.0764 -2.8547
 1252SOL     OW 7032   8.217   7.273   7.935 -0.2420  0.4875  0.2696
 1252SOL    HW1 7033   8.160   7.195   7.938  0.1805  0.1686  0.0855
 1252SOL    HW2 7034   8.242   7.281   7.843  1.3318 -0.3608  0.5827
 1253SOL     OW 7035   0.969   8.206   9.406  0.2860 -0.4496 -0.4862
 1253SOL    HW1 7036   0.984   8.112   9.401 -0.1017 -0.4651 -1.5586
 1253SOL    HW2 7037   0.875   8.215   9.422  0.1881 -0.2418 -1.1366
 1254SOL     OW 7038  10.432   4.847   2.594 -0.0606 -0.0656  0.0861
 1254SOL    HW1 7039  10.417   4.935   2.628 -1.3190  0.3067 -1.3297
 1254SOL    HW2 7040  10.527   4.841   2.584  0.0158  1.3049 -0.2281
 1255SOL     OW 7041   3.296   9.635   1.102 -0.0299  0.5764 -0.1585
 1255SOL    HW1 7042   3.246   9.667   1.177  0.1512  0.4056  0.0355
 1255SOL    HW2 7043   3.272   9.695   1.031  1.0990  1.8070  0.4483
 1256SOL     OW 7044   9.808  10.988   4.368  0.0889  0.2008 -0.3383
 1256SOL    HW1 7045   9.749  10.992   4.293 -0.8515 -1.5881  0.2489
 1256SOL    HW2 7046   9.753  11.011   4.443  0.6911  0.6176 -0.0106
 1257SOL     OW 7047  11.012   0.928  10.008  0.0412  0.5617  0.5178
 1257SOL    HW1 7048  10.972   1.014   9.997  0.3241  0.6700  0.3201
 1257SOL    HW2 7049  10.992   0.903  10.098 -0.0091  0.8511  0.5874
 1258SOL     OW 7050   3.095   1.235   4.588 -0.2238  0.3590  0.1383
 1258SOL    HW1 7051   3.059   1.315   4.551 -0.1812  0.3981  0.1821
 1258SOL    HW2 7052   3.029   1.168   4.570 -0.0503  0.3076 -0.3050
 1259SOL     OW 7053   5.524  10.320   0.686 -0.1353 -0.0003  0.1664
 1259SOL    HW1 7054   5.568  10.350   0.766 -1.0304  0.4104  0.5154
 1259SOL    HW2 7055   5.450  10.268   0.718 -0.7449  0.5211 -0.3858
 1260SOL     OW 7056  11.228  10.250   7.514 -0.1931 -0.3884 -0.5366
 1260SOL    HW1 7057  11.182  10.166   7.518 -0.3288 -0.4694 -2.5752
 1260SOL    HW2 7058  11.321  10.227   7.521 -0.1912 -0.8102 -1.6582
 1261SOL     OW 7059   8.019   3.929   0.512 -0.2718 -0.4286 -0.1453
 1261SOL    HW1 7060   8.079   3.985   0.562 -0.9426  0.6687 -0.5397
 1261SOL    HW2 7061   7.967   3.990   0.461 -2.8787 -1.2099  1.3960
 1262SOL     OW 7062  10.997   4.408   5.222 -0.4738 -0.1099 -0.0444
 1262SOL    HW1 7063  10.946   4.344   5.173 -1.0965 -0.5006  1.0737
 1262SOL    HW2 7064  10.933   4.477   5.244  0.2306  1.0474 -1.4337
 1263SOL     OW 7065   0.003   0.651   0.806 -0.2767  0.4716 -0.0752
 1263SOL    HW1 7066   0.012   0.556   0.815  0.7864  0.6079  0.5022
 1263SOL    HW2 7067  -0.072   0.663   0.748 -0.8599 -0.7093  0.3978
 1264SOL     OW 7068   6.250  10.491   4.054 -0.0326  0.0362  0.3846
 1264SOL    HW1 7069   6.270  10.583   4.074 -0.5667  0.6441 -1.6141
 1264SOL    HW2 7070   6.158  10.481   4.079  0.1811 -0.1356  1.1268
 1265SOL     OW 7071   1.185   5.844   4.753 -0.0824  0.4943 -0.2932
 1265SOL    HW1 7072   1.200   5.855   4.659 -3.2132 -0.4640 -1.0408
 1265SOL    HW2 7073   1.199   5.751   4.769  0.0265  0.5762  0.0877
 1266SOL     OW 7074   0.798   2.731   9.214  0.4209  0.5144 -0.0715
 1266SOL    HW1 7075   0.785   2.654   9.270  0.8378  0.5915  0.1421
 1266SOL    HW2 7076   0.846   2.698   9.138  0.0798  0.4571 -0.2643
 1267SOL     OW 7077   8.919   5.505   6.009 -0.2074 -0.2352 -0.4229
 1267SOL    HW1 7078   8.898   5.579   6.066  0.1360 -1.4968  1.4639
 1267SOL    HW2 7079   9.003   5.528   5.970  0.6990 -0.2462  1.3927
 1268SOL     OW 7080   5.666   0.137   9.427 -0.3092 -0.5097 -0.3192
 1268SOL    HW1 7081   5.608   0.175   9.493  0.0749 -0.1997 -0.1628
 1268SOL    HW2 7082   5.654   0.042   9.437  1.5595 -0.5739  1.8468
 1269SOL     OW 7083   1.794   1.632  10.885  0.0043  0.2980 -0.1668
 1269SOL    HW1 7084   1.827   1.578  10.813  3.1416  0.9923  0.5960
 1269SOL    HW2 7085   1.754   1.707  10.843  0.4020 -0.0564 -1.2016
 1270SOL     OW 7086   9.302  11.166   6.022 -0.2135  0.5730  0.2992
 1270SOL    HW1 7087   9.334  11.252   6.049 -2.1621  1.2566  0.5412
 1270SOL    HW2 7088   9.216  11.182   5.984 -1.6698 -1.4945  2.3985
 1271SOL     OW 7089  10.335  11.304   0.712  0.1471  0.7683  0.0896
 1271SOL    HW1 7090  10.341  11.386   0.663  1.4637  0.0603 -0.9980
 1271SOL    HW2 7091  10.262  11.257   0.672  1.2110  0.1958 -1.2437
 1272SOL     OW 7092   8.945   0.041   7.950 -0.1199 -0.6661  0.4112
 1272SOL    HW1 7093   8.924   0.134   7.959 -1.4798 -0.8240 -0.7714
 1272SOL    HW2 7094   9.031   0.040   7.907  0.5129  0.0176  1.6137
 1273SOL     OW 7095  11.214   4.332   3.431 -0.4121 -0.0605 -0.5978
 1273SOL    HW1 7096  11.279   4.311   3.499 -1.1724 -0.5167  0.0050
 1273SOL    HW2 7097  11.140   4.367   3.479 -1.8431 -2.4270 -0.9067
 1274SOL     OW 7098   1.890  10.043   0.365 -0.7052 -0.2531 -0.2447
 1274SOL    HW1 7099   1.853  10.126   0.333 -1.1418 -0.4861 -0.3535
 1274SOL    HW2 7100   1.819  10.003   0.414  0.1442  0.3910  1.5865
 1275SOL     OW 7101   3.155   9.082   0.928 -0.1031  0.1145 -0.0103
 1275SOL    HW1 7102   3.172   8.996   0.888 -1.2663  0.3900 -1.1566
 1275SOL    HW2 7103   3.109   9.062   1.009 -0.5584 -0.3436 -0.3754
 1276SOL     OW 7104   6.508   0.742   6.340  0.0926 -0.4566 -0.5686
 1276SOL    HW1 7105   6.537   0.761   6.251 -0.2954 -0.5473 -0.7143
 1276SOL    HW2 7106   6.567   0.672   6.370 -0.4052 -1.1273 -1.1162
 1277SOL     OW 7107   0.643   6.858   9.296 -0.0310 -0.2563 -0.6646
 1277SOL    HW1 7108   0.572   6.806   9.333  2.0381 -1.4010  2.0791
 1277SOL    HW2 7109   0.669   6.810   9.217 -1.5944 -0.3720 -1.1313
 1278SOL     OW 7110   4.276   9.963   8.247  0.9060 -0.3193  0.4213
 1278SOL    HW1 7111   4.344  10.028   8.264  1.3080 -0.0217 -1.9389
 1278SOL    HW2 7112   4.237   9.946   8.333  2.0591  1.6018  1.4030
 1279SOL     OW 7113   5.169   2.461   1.879  0.2084 -0.0260  0.4753
 1279SOL    HW1 7114   5.255   2.419   1.878 -0.2966 -1.0986  0.6563
 1279SOL    HW2 7115   5.166   2.510   1.797  1.9967  2.2008  1.5990
 1280SOL     OW 7116   6.319   0.470   9.334 -0.5836  0.5370  0.3709
 1280SOL    HW1 7117   6.226   0.482   9.312 -0.1157  0.9757 -1.5289
 1280SOL    HW2 7118   6.357   0.557   9.324  0.1739  0.2088  0.3592
 1281SOL     OW 7119   7.347   1.572   4.465 -0.8425  0.0013  0.3488
 1281SOL    HW1 7120   7.314   1.484   4.482 -2.1689  0.5667  0.8388
 1281SOL    HW2 7121   7.432   1.574   4.508 -0.6248 -1.1480  0.0202
 1282SOL     OW 7122   2.876   2.451   4.043  0.3837 -0.8010 -0.1452
 1282SOL    HW1 7123   2.915   2.366   4.025  1.8371 -0.4430  1.1026
 1282SOL    HW2 7124   2.941   2.515   4.015 -1.1977  0.0188 -2.2764
 1283SOL     OW 7125   7.284   8.099   5.234 -0.6065 -0.4652 -0.0402
 1283SOL    HW1 7126   7.366   8.075   5.278  0.9616  1.5268 -1.6634
 1283SOL    HW2 7127   7.258   8.020   5.187 -0.7233 -1.7187  2.0051
 1284SOL     OW 7128   4.667   7.197   7.878  0.2640  0.1403  0.3305
 1284SOL    HW1 7129   4.732   7.267   7.890  0.4438 -0.2990  2.3011
 1284SOL    HW2 7130   4.625   7.218   7.795  0.3167  2.6178  0.8415
 1285SOL     OW 7131   7.362  10.153   7.935 -0.2939 -0.1404  0.0674
 1285SOL    HW1 7132   7.405  10.225   7.889 -0.7895 -0.6332 -1.1965
 1285SOL    HW2 7133   7.406  10.150   8.021  0.7080  0.7339 -0.3913
 1286SOL     OW 7134   3.258   3.208   8.136  0.0715 -0.2128  0.0425
 1286SOL    HW1 7135   3.202   3.259   8.196 -2.0148 -2.6367  0.3412
 1286SOL    HW2 7136   3.243   3.247   8.050  2.1634  2.5353  0.7595
 1287SOL     OW 7137   2.948   4.718   1.263 -0.2323  0.4285 -0.0133
 1287SOL    HW1 7138   3.032   4.747   1.299 -1.0458  1.3693  1.1975
 1287SOL    HW2 7139   2.947   4.623   1.278  0.0730  0.5982  1.1508
 1288SOL     OW 7140   1.782   1.123   6.865 -0.1132  0.0877  0.2934
 1288SOL    HW1 7141   1.868   1.129   6.824  0.0145 -1.3453  0.2993
 1288SOL    HW2 7142   1.729   1.073   6.803 -1.0455  1.1696  0.1665
 1289SOL     OW 7143   3.951  10.277   1.121  0.3504  0.1495 -0.2308
 1289SOL    HW1 7144   3.874  10.311   1.166 -0.2348  0.4446 -1.4200
 1289SOL    HW2 7145   3.921  10.195   1.081  0.4941  0.5327 -1.1421
 1290SOL     OW 7146   8.410  10.501   6.872 -0.2147 -0.1485  0.8032
 1290SOL    HW1 7147   8.321  10.475   6.894 -0.1441 -1.4856 -0.3841
 1290SOL    HW2 7148   8.451  10.422   6.837 -0.0800  1.4729 -3.2770
 1291SOL     OW 7149   2.606   0.076   1.203  0.4806 -0.4037  0.5655
 1291SOL    HW1 7150   2.545   0.011   1.238  0.7946 -1.6066 -0.9801
 1291SOL    HW2 7151   2.666   0.025   1.148  1.8655  0.9695  0.7343
 1292SOL     OW 7152   6.090   6.307   3.858 -0.3171 -0.3890  0.0331
 1292SOL    HW1 7153   6.018   6.359   3.893 -1.3902 -0.9153 -1.3005
 1292SOL    HW2 7154   6.086   6.225   3.909 -1.1859 -0.7291 -0.5491
 1293SOL     OW 7155   9.719   2.214   7.040  0.1018  0.1039  0.9774
 1293SOL    HW1 7156   9.655   2.286   7.044  0.6944  0.6298  1.1859
 1293SOL    HW2 7157   9.798   2.251   7.078  1.0279 -0.0039 -0.7514
 1294SOL     OW 7158   6.594   1.901   0.439  0.3893 -0.1066 -0.2484
 1294SOL    HW1 7159   6.536   1.862   0.505 -0.3133 -0.5331 -1.0892
 1294SOL    HW2 7160   6.682   1.878   0.468  0.0681 -0.7023  0.2836
 1295SOL     OW 7161   6.310   6.187   0.838  0.3865 -0.3795 -0.0516
 1295SOL    HW1 7162   6.275   6.261   0.888  0.6121  0.3812 -0.9871
 1295SOL    HW2 7163   6.260   6.188   0.756  2.0290  0.2493 -1.1010
 1296SOL     OW 7164   1.044   0.780   6.604 -0.0157  0.2337 -0.3447
 1296SOL    HW1 7165   1.124   0.802   6.652  0.4046 -1.0426 -0.4146
 1296SOL    HW2 7166   1.067   0.795   6.512  0.7358 -1.7156 -0.5174
 1297SOL     OW 7167   3.999   6.094   7.909 -0.0007 -0.0554 -0.3139
 1297SOL    HW1 7168   3.960   6.057   7.830 -1.8420  0.1918  0.4233
 1297SOL    HW2 7169   3.955   6.178   7.920  2.3446  1.2870 -0.5968
 1298SOL     OW 7170   4.153   4.868   9.219 -0.5880 -0.5195 -0.0303
 1298SOL    HW1 7171   4.183   4.782   9.247 -0.3564 -0.3682  0.1874
 1298SOL    HW2 7172   4.129   4.855   9.127  0.8582 -0.4819 -0.4477
 1299SOL     OW 7173  10.846   9.338   7.782 -0.1253  0.5887 -0.0208
 1299SOL    HW1 7174  10.933   9.318   7.816 -0.7000 -0.4691  0.9031
 1299SOL    HW2 7175  10.833   9.431   7.801  1.0239  0.9035 -0.7044
 1300SOL     OW 7176   2.387  10.926   8.698 -0.0097  0.4905  0.2173
 1300SOL    HW1 7177   2.428  10.956   8.779 -0.0938 -0.6779  0.7059
 1300SOL    HW2 7178   2.350  10.841   8.720 -0.1661  0.2267 -1.0119
 1301SOL     OW 7179  10.228  10.970   3.565  0.2008 -0.0405  0.1934
 1301SOL    HW1 7180  10.230  10.987   3.659  0.9464  2.6489 -0.2181
 1301SOL    HW2 7181  10.141  10.999   3.537 -0.3928 -1.7640  0.1553
 1302SOL     OW 7182   8.333  11.357   9.244 -0.2506  0.0324  0.0369
 1302SOL    HW1 7183   8.303  11.324   9.328 -0.5370  0.3136  0.0423
 1302SOL    HW2 7184   8.369  11.444   9.263 -1.0204  0.4209 -0.2566
 1303SOL     OW 7185   8.536   3.937   3.869 -0.0884 -0.2643  0.0275
 1303SOL    HW1 7186   8.547   3.882   3.791  0.4897 -0.6860  0.3981
 1303SOL    HW2 7187   8.455   3.907   3.909  0.2820 -0.9279  0.2872
 1304SOL     OW 7188   1.695   4.721   9.967  0.2067  0.2348  0.3733
 1304SOL    HW1 7189   1.736   4.658  10.026  0.8817  0.8607  0.5874
 1304SOL    HW2 7190   1.752   4.723   9.890  0.1561  0.5251  0.3396
 1305SOL     OW 7191   8.642   5.429   9.273  0.4364 -0.2939  0.1016
 1305SOL    HW1 7192   8.648   5.402   9.181 -1.3867  0.0968 -0.1694
 1305SOL    HW2 7193   8.549   5.425   9.293  0.4452  2.3048  1.1018
 1306SOL     OW 7194   2.616  11.189   8.598  0.4096 -0.0116  0.1722
 1306SOL    HW1 7195   2.556  11.187   8.673  1.6096  0.5588  1.1645
 1306SOL    HW2 7196   2.686  11.248   8.624  0.4468  0.8542 -1.7391
 1307SOL     OW 7197   4.547   7.852   9.945  0.0524 -0.3888  0.0146
 1307SOL    HW1 7198   4.555   7.763   9.910 -2.0870 -0.8472  0.5719
 1307SOL    HW2 7199   4.511   7.903   9.873  0.1883 -0.2279  0.0598
 1308SOL     OW 7200   3.471   2.752   6.683  0.1471 -0.0989  0.6086
 1308SOL    HW1 7201   3.433   2.713   6.604  2.0321 -0.1814 -0.3167
 1308SOL    HW2 7202   3.418   2.830   6.699 -0.3237 -0.1153 -0.7340
 1309SOL     OW 7203   1.117   9.099   6.799 -0.3978 -0.2180  0.2164
 1309SOL    HW1 7204   1.158   9.186   6.805  0.7133 -0.7364  0.4378
 1309SOL    HW2 7205   1.024   9.116   6.810 -0.0317  0.7272  2.7599
 1310SOL     OW 7206   7.422   5.534   1.944 -0.8343  0.6466 -0.3478
 1310SOL    HW1 7207   7.472   5.452   1.938 -1.7337  0.0935 -0.4385
 1310SOL    HW2 7208   7.489   5.602   1.955 -0.0278 -0.0043 -1.1071
 1311SOL     OW 7209   3.226   1.144   5.082  0.1189 -0.3411  0.2518
 1311SOL    HW1 7210   3.300   1.097   5.123  0.8911 -0.4149 -1.1710
 1311SOL    HW2 7211   3.164   1.075   5.060 -0.0240 -0.3674  0.7138
 1312SOL     OW 7212   7.172   0.905   0.220  0.6853  0.4823  0.0396
 1312SOL    HW1 7213   7.085   0.943   0.225  0.1111 -0.6978 -0.4860
 1312SOL    HW2 7214   7.226   0.960   0.277 -0.6326  0.6064  1.2121
 1313SOL     OW 7215   6.007  10.339   4.169 -0.4444  0.1892  0.0732
 1313SOL    HW1 7216   6.065  10.265   4.190 -0.0080  0.7792  1.0108
 1313SOL    HW2 7217   5.971  10.366   4.253  2.5647  3.6385  0.5068
 1314SOL     OW 7218  10.772   1.831   9.093  0.0171  0.1932  0.0209
 1314SOL    HW1 7219  10.680   1.837   9.067  0.4008  0.6187 -1.2976
 1314SOL    HW2 7220  10.795   1.739   9.081 -0.0277  0.2351 -0.3928
 1315SOL     OW 7221   0.568   8.599   8.501 -0.0444  0.5799 -0.1209
 1315SOL    HW1 7222   0.521   8.530   8.548 -0.0385  1.4393  1.2074
 1315SOL    HW2 7223   0.515   8.678   8.515  0.9781  1.2473  0.0777
 1316SOL     OW 7224   2.888   0.856   6.786  0.5152  0.2059 -0.4848
 1316SOL    HW1 7225   2.925   0.780   6.831 -0.3519 -0.7951 -1.4221
 1316SOL    HW2 7226   2.821   0.820   6.728 -0.6556  1.7902 -0.1882
 1317SOL     OW 7227   7.688   5.851   3.154 -0.1249  0.1664  0.0397
 1317SOL    HW1 7228   7.718   5.831   3.243 -1.3967 -0.3716  0.3588
 1317SOL    HW2 7229   7.681   5.766   3.111  3.4116  0.5227 -1.6258
 1318SOL     OW 7230   1.987   1.106   2.914 -0.2059 -0.2941  0.2368
 1318SOL    HW1 7231   1.942   1.121   2.831 -1.0818  0.2262  0.7856
 1318SOL    HW2 7232   2.080   1.112   2.893 -0.4042 -0.6761 -0.7929
 1319SOL     OW 7233   5.147   9.835   0.188 -0.4161 -0.2625 -0.0782
 1319SOL    HW1 7234   5.185   9.911   0.231 -0.3049  0.7568 -1.8736
 1319SOL    HW2 7235   5.155   9.764   0.252 -0.9449  1.3192  1.8289
 1320SOL     OW 7236   0.655   6.131   6.480  1.1809 -0.1411  0.2811
 1320SOL    HW1 7237   0.711   6.092   6.548  0.6793  1.1643  1.4916
 1320SOL    HW2 7238   0.664   6.225   6.494 -1.5834  0.1166  0.7462
 1321SOL     OW 7239  10.621   6.012   8.002  0.2305  0.2956 -0.2856
 1321SOL    HW1 7240  10.654   5.958   7.930  0.7699 -0.6729  0.6676
 1321SOL    HW2 7241  10.655   5.970   8.081  0.4422  1.8781  0.4991
 1322SOL     OW 7242   4.112   7.934   4.470 -0.1061 -0.3226  0.1022
 1322SOL    HW1 7243   4.195   7.976   4.446 -0.5303  1.7169  1.8288
 1322SOL    HW2 7244   4.055   7.950   4.395  0.2428  0.7884  0.0538
 1323SOL     OW 7245   1.932   1.462   7.469 -0.0383  0.0368 -0.1629
 1323SOL    HW1 7246   1.858   1.436   7.524 -0.7556 -0.5912 -1.3901
 1323SOL    HW2 7247   1.990   1.509   7.528 -0.3994 -1.2969  1.3309
 1324SOL     OW 7248   9.222   8.838   3.560 -0.2580  0.4227  0.3298
 1324SOL    HW1 7249   9.290   8.814   3.498  2.2639  0.7643  2.7699
 1324SOL    HW2 7250   9.204   8.757   3.609 -1.7970  0.2929 -0.3817
 1325SOL     OW 7251  10.789   9.748   8.141 -0.0370  0.2565 -0.2395
 1325SOL    HW1 7252  10.805   9.838   8.114 -1.9040  0.8555  0.4866
 1325SOL    HW2 7253  10.870   9.720   8.182  0.2613  1.9386  0.3949
 1326SOL     OW 7254  11.211   1.949   7.608  0.3094  0.4842 -0.5625
 1326SOL    HW1 7255  11.226   2.027   7.662 -0.8102  1.7190 -1.9559
 1326SOL    HW2 7256  11.222   1.980   7.518 -0.1135 -0.9885 -1.1405
 1327SOL     OW 7257   7.894  10.014   3.633  0.0393 -0.0328  0.2828
 1327SOL    HW1 7258   7.915   9.943   3.694 -1.1801 -0.5365  0.1377
 1327SOL    HW2 7259   7.806  10.043   3.658 -0.0800  0.4182 -0.6107
 1328SOL     OW 7260   3.900   8.365   8.709  0.2466  0.4167  0.3860
 1328SOL    HW1 7261   3.893   8.436   8.772  0.4383  1.1560 -0.3989
 1328SOL    HW2 7262   3.834   8.301   8.736  1.1205  0.1611  2.0050
 1329SOL     OW 7263   1.351   5.623   0.088 -0.1010 -0.6779 -0.4958
 1329SOL    HW1 7264   1.261   5.656   0.080 -0.2696 -0.6460  1.1576
 1329SOL    HW2 7265   1.342   5.531   0.109  0.2263 -0.5292  0.3322
 1330SOL     OW 7266   7.459   1.940   7.112 -0.2928  0.2133  0.6924
 1330SOL    HW1 7267   7.514   1.878   7.064  1.8173  0.5435  2.5643
 1330SOL    HW2 7268   7.488   2.026   7.083 -1.5276  0.4095 -0.0622
 1331SOL     OW 7269  10.467   2.358   3.151  0.3883 -1.0390  0.3392
 1331SOL    HW1 7270  10.474   2.340   3.058 -1.4313 -0.7018  0.1006
 1331SOL    HW2 7271  10.524   2.433   3.166 -0.0555 -0.4810 -0.7025
 1332SOL     OW 7272   8.176   6.458  11.088  0.2648 -0.7233  0.4386
 1332SOL    HW1 7273   8.126   6.397  11.034  0.8096 -0.7005 -0.1055
 1332SOL    HW2 7274   8.154   6.544  11.053  1.8027 -0.7898 -0.8063
 1333SOL     OW 7275   3.433   5.402   0.141  0.1386  0.8776  0.4287
 1333SOL    HW1 7276   3.347   5.385   0.179  0.1710 -0.1036  0.1013
 1333SOL    HW2 7277   3.453   5.492   0.164 -1.8722  1.7961 -1.2065
 1334SOL     OW 7278   0.607   9.307   2.812  0.2619  0.7753 -0.1852
 1334SOL    HW1 7279   0.521   9.296   2.771  0.5413  0.4868 -0.7066
 1334SOL    HW2 7280   0.648   9.221   2.806  0.6814  0.9690 -0.1704
 1335SOL     OW 7281  10.330   1.186  11.154  0.6644 -0.2688 -0.2650
 1335SOL    HW1 7282  10.383   1.257  11.190  0.5989 -0.2483 -0.2082
 1335SOL    HW2 7283  10.384   1.148  11.085  0.2683  0.5374 -1.0480
 1336SOL     OW 7284   0.187   3.710  10.109 -0.3990 -0.3694  0.0955
 1336SOL    HW1 7285   0.158   3.801  10.109  0.2307 -0.0946 -2.3008
 1336SOL    HW2 7286   0.245   3.703  10.185 -1.3230  0.8953  0.9628
 1337SOL     OW 7287   6.265   6.948   5.986  0.0498  0.4016 -0.3493
 1337SOL    HW1 7288   6.339   6.890   5.971  0.6232  0.6815  1.2286
 1337SOL    HW2 7289   6.188   6.891   5.981  0.6175 -0.6075  1.4747
 1338SOL     OW 7290  10.270   2.817   5.169  0.3735 -0.5338  0.1839
 1338SOL    HW1 7291  10.325   2.811   5.247 -0.5330 -0.2900  0.8638
 1338SOL    HW2 7292  10.324   2.783   5.098  0.6933 -2.2455  1.1881
 1339SOL     OW 7293  10.152   6.290  11.087 -0.2451 -0.0698 -0.1194
 1339SOL    HW1 7294  10.239   6.319  11.112 -0.8132  2.1342 -0.5190
 1339SOL    HW2 7295  10.093   6.340  11.143 -1.3101  0.2092 -1.4440
 1340SOL     OW 7296   8.549   9.975   6.645 -0.4964  0.6035 -0.2261
 1340SOL    HW1 7297   8.516   9.886   6.657 -1.7039  0.9061 -1.1252
 1340SOL    HW2 7298   8.629   9.978   6.698 -0.6617 -0.8748  0.1591
 1341SOL     OW 7299   0.500   2.404   4.660  0.3541 -0.4490 -0.3605
 1341SOL    HW1 7300   0.457   2.450   4.588  0.7941  1.2453  0.4272
 1341SOL    HW2 7301   0.552   2.471   4.704 -0.9285 -1.1214  2.3782
 1342SOL     OW 7302   4.221  10.094  10.709  0.2129 -0.3629  0.3713
 1342SOL    HW1 7303   4.224  10.027  10.641  1.1002 -1.7014  1.6538
 1342SOL    HW2 7304   4.309  10.133  10.708  0.2673 -0.4677  0.8054
 1343SOL     OW 7305   2.782   3.518   6.199 -0.3318  0.1113 -0.4602
 1343SOL    HW1 7306   2.792   3.513   6.104 -0.9281 -2.4244 -0.4700
 1343SOL    HW2 7307   2.782   3.611   6.219  1.6520  0.6754 -2.7186
 1344SOL     OW 7308   3.955  10.503   2.909  0.2496  0.3873 -0.3760
 1344SOL    HW1 7309   3.874  10.555   2.905  0.5803  0.9312 -0.0316
 1344SOL    HW2 7310   3.952  10.449   2.830 -0.0047  1.0719 -0.8439
 1345SOL     OW 7311   2.595   0.731   5.855 -0.2405 -0.1742  1.0249
 1345SOL    HW1 7312   2.639   0.810   5.824 -0.3828 -0.7259 -0.7025
 1345SOL    HW2 7313   2.659   0.661   5.839 -0.9812 -0.7143  0.3441
 1346SOL     OW 7314   8.156   2.454   6.424 -0.2262  0.2645  0.3164
 1346SOL    HW1 7315   8.188   2.365   6.408 -1.2374  0.2335 -1.8313
 1346SOL    HW2 7316   8.143   2.491   6.337 -4.4535  0.7931  0.9588
 1347SOL     OW 7317   7.442   8.720   8.392  0.1851  0.6923 -0.6683
 1347SOL    HW1 7318   7.403   8.780   8.329 -2.4177  0.4456  0.5632
 1347SOL    HW2 7319   7.377   8.650   8.402  0.9783  0.1633  1.4634
 1348SOL     OW 7320   0.902   4.009   0.798  0.0042  0.0550  0.2365
 1348SOL    HW1 7321   0.987   4.043   0.825  0.7983 -0.2127 -1.7527
 1348SOL    HW2 7322   0.889   3.930   0.851  1.1132 -0.0330  0.3947
 1349SOL     OW 7323   4.927   5.287  10.876 -0.2495 -0.1067 -0.3617
 1349SOL    HW1 7324   4.910   5.359  10.937  1.6272 -1.0161  1.3815
 1349SOL    HW2 7325   4.841   5.245  10.865 -1.3315  2.1528 -1.2091
 1350SOL     OW 7326   1.702   4.736   4.590  0.2248 -0.2576 -0.9978
 1350SOL    HW1 7327   1.674   4.771   4.675  1.5155  0.0811 -0.6983
 1350SOL    HW2 7328   1.664   4.648   4.588  0.8259 -0.5733  0.2953
 1351SOL     OW 7329  10.047   1.712  11.398  0.1147  0.0494 -0.2607
 1351SOL    HW1 7330   9.997   1.792  11.414  0.4720  0.2945 -0.3313
 1351SOL    HW2 7331  10.132   1.744  11.367  1.6057 -0.2122  3.1592
 1352SOL     OW 7332   6.867   2.938   4.835  0.1470  0.6275  0.0895
 1352SOL    HW1 7333   6.810   2.889   4.894  1.1006 -0.0435  0.4770
 1352SOL    HW2 7334   6.953   2.936   4.877  0.1945  2.7923  0.2149
 1353SOL     OW 7335   0.865  10.304   2.679  0.0968  0.4390 -0.5215
 1353SOL    HW1 7336   0.780  10.266   2.701  0.0228  0.6081 -0.5078
 1353SOL    HW2 7337   0.893  10.348   2.759  0.3466  0.1121 -0.4295
 1354SOL     OW 7338   0.666   2.812   6.112 -0.1395  0.0783  0.1061
 1354SOL    HW1 7339   0.611   2.818   6.034  1.2996 -1.5026 -1.1318
 1354SOL    HW2 7340   0.709   2.897   6.118 -0.7521  0.4343 -0.4340
 1355SOL     OW 7341   6.153   2.918   9.986 -0.6823  0.2268  0.3340
 1355SOL    HW1 7342   6.092   2.925  10.059 -0.7281  1.9112  0.1707
 1355SOL    HW2 7343   6.155   3.005   9.947  1.1756 -0.0043 -0.2078
 1356SOL     OW 7344  10.360   7.723  10.850 -0.1563 -0.3317 -0.8852
 1356SOL    HW1 7345  10.436   7.674  10.816 -1.2528 -1.7492 -1.4112
 1356SOL    HW2 7346  10.397   7.803  10.886  1.4824 -0.5226 -2.0398
 1357SOL     OW 7347   9.881   7.858   5.042  0.2479 -0.2086  0.0944
 1357SOL    HW1 7348   9.819   7.784   5.044  2.0712 -1.8726 -1.0279
 1357SOL    HW2 7349   9.888   7.885   5.134 -2.0243  0.0014  0.2721
 1358SOL     OW 7350   6.198   3.156   7.366 -0.3970  0.3534  0.3441
 1358SOL    HW1 7351   6.145   3.235   7.369  0.9626  1.2799  0.8748
 1358SOL    HW2 7352   6.286   3.186   7.342 -0.0877 -1.1332 -0.5145
 1359SOL     OW 7353   0.261  10.812  10.166 -0.1951 -0.3059 -0.4053
 1359SOL    HW1 7354   0.209  10.859  10.231 -1.2727 -1.1927 -0.5983
 1359SOL    HW2 7355   0.201  10.746  10.130  0.3946  0.1110 -2.2542
 1360SOL     OW 7356   5.221   3.639   5.903  0.2521 -0.3059 -0.7426
 1360SOL    HW1 7357   5.283   3.637   5.830 -1.5589 -0.6866 -2.3601
 1360SOL    HW2 7358   5.141   3.677   5.866 -1.8403 -3.4657  0.0874
 1361SOL     OW 7359  10.235   2.327   0.040  0.9960 -0.2935 -0.1278
 1361SOL    HW1 7360  10.287   2.250   0.065  0.6132  0.0354  1.7485
 1361SOL    HW2 7361  10.260   2.395   0.102  0.1324  0.6216 -0.7480
 1362SOL     OW 7362   1.714   9.375   3.053 -0.5179  0.3531 -0.0740
 1362SOL    HW1 7363   1.755   9.448   3.098  0.0927  1.0717 -1.7437
 1362SOL    HW2 7364   1.662   9.332   3.121 -1.1108  2.4710  0.9017
 1363SOL     OW 7365   8.565  10.837  11.374  0.3185 -0.2251 -0.0628
 1363SOL    HW1 7366   8.585  10.775  11.444 -0.4809 -0.2723  0.1282
 1363SOL    HW2 7367   8.475  10.818  11.350 -0.0885  1.1560  0.2946
 1364SOL     OW 7368   2.684   5.202   8.146  0.4344 -0.2240 -0.5298
 1364SOL    HW1 7369   2.651   5.291   8.136 -0.6266 -0.6848 -1.2905
 1364SOL    HW2 7370   2.647   5.172   8.230 -0.8814 -0.6206 -1.2182
 1365SOL     OW 7371   3.558   7.055   8.404 -0.0403  0.1822  0.0499
 1365SOL    HW1 7372   3.603   6.971   8.415  0.3688  0.2884 -0.7723
 1365SOL    HW2 7373   3.603   7.114   8.465  0.2345  0.0219  0.0034
 1366SOL     OW 7374   2.090   1.353   7.278  0.3034  0.1138 -0.0943
 1366SOL    HW1 7375   2.056   1.400   7.354  1.5529  0.7110  0.1189
 1366SOL    HW2 7376   2.095   1.262   7.306 -0.2644  0.1668  0.1712
 1367SOL     OW 7377   6.657   7.162   0.358  0.5956  0.1628  0.6550
 1367SOL    HW1 7378   6.677   7.256   0.356 -1.3402  0.6019 -0.1997
 1367SOL    HW2 7379   6.627   7.146   0.448 -2.6666  1.2695 -0.0917
 1368SOL     OW 7380   2.783   6.230   8.044 -0.0118  0.2123  0.2492
 1368SOL    HW1 7381   2.732   6.166   8.094  0.5054 -0.7148 -0.3812
 1368SOL    HW2 7382   2.813   6.181   7.967  0.8948  1.0545  0.0591
 1369SOL     OW 7383   1.488   9.865   7.298  0.3419 -0.5445 -0.3627
 1369SOL    HW1 7384   1.547   9.921   7.247 -1.5796  1.8159 -0.2219
 1369SOL    HW2 7385   1.514   9.880   7.389  0.8312 -1.1374 -0.4016
 1370SOL     OW 7386   4.790   5.079   4.887 -0.5869 -0.0709  0.1010
 1370SOL    HW1 7387   4.822   5.149   4.944 -0.4411  0.3916 -0.5374
 1370SOL    HW2 7388   4.696   5.074   4.907 -0.7204  0.7249 -0.2668
 1371SOL     OW 7389   4.041   5.378   1.870 -0.8925 -0.1782  0.1012
 1371SOL    HW1 7390   4.085   5.462   1.882 -1.9131  0.5810 -1.2161
 1371SOL    HW2 7391   4.094   5.331   1.806 -1.3017  0.2331 -0.5529
 1372SOL     OW 7392   8.236   6.926   0.074 -0.1669 -0.2409 -0.1448
 1372SOL    HW1 7393   8.158   6.942   0.021 -1.1507 -0.6427  1.1268
 1372SOL    HW2 7394   8.228   6.835   0.101 -0.6556  0.4145  2.1411
 1373SOL     OW 7395   1.315  10.676   2.635 -0.7622 -0.2428 -0.4326
 1373SOL    HW1 7396   1.276  10.704   2.718 -0.2032  1.4400 -0.6827
 1373SOL    HW2 7397   1.254  10.611   2.600 -1.6847 -0.0094  0.6644
 1374SOL     OW 7398   9.015   6.826   4.445  0.3120  0.5989  0.1900
 1374SOL    HW1 7399   9.070   6.862   4.376  1.8644 -0.2635  0.9269
 1374SOL    HW2 7400   9.007   6.733   4.424 -0.1804  0.5550  0.5375
 1375SOL     OW 7401   6.015   0.742   0.171  0.5307 -0.1676 -0.2261
 1375SOL    HW1 7402   6.108   0.723   0.188  0.8950  0.7263 -1.1547
 1375SOL    HW2 7403   6.016   0.803   0.098 -0.7320  1.0604  0.7347
 1376SOL     OW 7404   8.025   4.121   6.650  0.0718  0.1783 -0.1609
 1376SOL    HW1 7405   8.017   4.161   6.737 -0.8848 -0.4719  0.0650
 1376SOL    HW2 7406   8.101   4.063   6.658  0.2173  0.4012  0.1179
 1377SOL     OW 7407   6.930  10.518   8.368 -0.3139 -0.4501  0.3482
 1377SOL    HW1 7408   6.910  10.463   8.293  1.0062  0.9294 -1.0751
 1377SOL    HW2 7409   6.844  10.538   8.406 -1.0368 -0.9407 -0.9581
 1378SOL     OW 7410   3.925   7.978   1.240  0.4571 -0.3109 -0.9208
 1378SOL    HW1 7411   3.914   7.957   1.148  2.4445  1.2085 -1.5717
 1378SOL    HW2 7412   4.018   7.966   1.257  0.3237  0.5183  0.5869
 1379SOL     OW 7413   4.561   5.450   4.013 -1.3618 -0.2055  0.0484
 1379SOL    HW1 7414   4.563   5.366   3.966  2.3227 -0.0509 -0.3396
 1379SOL    HW2 7415   4.572   5.426   4.105  1.4769 -0.1842 -0.2195
 1380SOL     OW 7416   7.708   4.208   6.648  0.1298  0.2229 -0.2408
 1380SOL    HW1 7417   7.662   4.202   6.564 -1.3383  0.6916  0.4760
 1380SOL    HW2 7418   7.735   4.300   6.654  2.0983 -0.2582 -1.0876
 1381SOL     OW 7419   2.062   0.081   0.054  0.2797  0.1014 -0.1826
 1381SOL    HW1 7420   2.093  -0.002   0.092  0.4742  0.0506 -0.4537
 1381SOL    HW2 7421   1.968   0.081   0.072  0.0632 -0.7401 -1.2350
 1382SOL     OW 7422   2.702   2.676   5.801 -0.2774 -0.0807 -0.0648
 1382SOL    HW1 7423   2.773   2.613   5.805 -1.3204 -1.2284  1.5317
 1382SOL    HW2 7424   2.740   2.757   5.834  0.3775 -0.6008  0.4805
 1383SOL     OW 7425   0.272   4.963   0.675  0.1612 -0.2666  0.1188
 1383SOL    HW1 7426   0.250   5.033   0.737 -0.0863  0.6927 -1.0244
 1383SOL    HW2 7427   0.188   4.925   0.650  0.2070 -0.1368 -0.2281
 1384SOL     OW 7428   2.002   9.241   9.103  0.1013  0.0695  0.0497
 1384SOL    HW1 7429   1.943   9.287   9.044 -0.3763 -0.2191  0.3008
 1384SOL    HW2 7430   1.966   9.153   9.109  0.4940 -0.0744  0.2942
 1385SOL     OW 7431   1.852   2.561   5.350  0.5730  0.0300  0.0313
 1385SOL    HW1 7432   1.861   2.518   5.435 -0.7006 -0.2169  0.0613
 1385SOL    HW2 7433   1.902   2.642   5.359  1.3857 -0.5120  0.6278
 1386SOL     OW 7434   0.289   6.754   1.355 -0.4297 -0.1902 -0.1537
 1386SOL    HW1 7435   0.251   6.829   1.308  0.6257  0.3473 -0.1822
 1386SOL    HW2 7436   0.247   6.756   1.441 -0.8340  0.0898 -0.3537
 1387SOL     OW 7437   0.493   3.887   7.111 -0.1414  0.5273  0.0963
 1387SOL    HW1 7438   0.505   3.800   7.148  1.4792  1.5885  2.2818
 1387SOL    HW2 7439   0.398   3.898   7.107 -0.3967 -1.5627 -0.8923
 1388SOL     OW 7440   4.009   4.653   8.526 -0.2839  0.0085 -0.1096
 1388SOL    HW1 7441   4.071   4.691   8.464 -0.0226  0.6502  0.5229
 1388SOL    HW2 7442   3.939   4.618   8.472 -0.3497  1.0733 -0.7444
 1389SOL     OW 7443   4.100  11.293   3.180 -0.0733 -0.1639 -0.1950
 1389SOL    HW1 7444   4.070  11.316   3.268  1.4511  0.1219  0.2800
 1389SOL    HW2 7445   4.130  11.203   3.188 -1.2283 -0.6099 -0.7807
 1390SOL     OW 7446   2.941   1.060   3.655  0.8129 -0.0539  0.0454
 1390SOL    HW1 7447   2.995   1.041   3.578  0.0875 -0.6102 -0.3346
 1390SOL    HW2 7448   2.991   1.024   3.728  2.3367  1.9702  0.0913
 1391SOL     OW 7449   4.658  10.129  11.283 -0.0689 -0.4928 -0.0001
 1391SOL    HW1 7450   4.567  10.156  11.271 -0.4258 -0.9689  1.4946
 1391SOL    HW2 7451   4.652  10.043  11.324  1.0439 -0.0828  1.0643
 1392SOL     OW 7452  10.743   7.312   2.819  0.3052  0.4322  0.0478
 1392SOL    HW1 7453  10.766   7.242   2.757  1.6738  1.0275 -0.1562
 1392SOL    HW2 7454  10.651   7.298   2.837  0.3600 -0.9601 -0.5964
 1393SOL     OW 7455   9.523  10.091  11.381  0.4004  0.1788  0.2837
 1393SOL    HW1 7456   9.610  10.063  11.410  0.9332  1.0349 -0.4003
 1393SOL    HW2 7457   9.511  10.049  11.296  0.6948  1.0383 -0.1950
 1394SOL     OW 7458  10.329   3.792   4.347 -0.3199  0.0115 -0.3602
 1394SOL    HW1 7459  10.283   3.875   4.360 -1.9768 -0.6835 -1.6204
 1394SOL    HW2 7460  10.404   3.815   4.292 -0.2035  0.8076  0.1016
 1395SOL     OW 7461   2.631   7.099   7.563  0.2282 -0.6073  0.3229
 1395SOL    HW1 7462   2.713   7.132   7.599 -1.1445  0.8407  2.3518
 1395SOL    HW2 7463   2.612   7.020   7.614  0.0469 -0.5969  0.2705
 1396SOL     OW 7464   3.253   9.549   3.453 -0.2062 -0.0851  0.1656
 1396SOL    HW1 7465   3.342   9.539   3.420 -0.3503 -2.6783  0.3431
 1396SOL    HW2 7466   3.253   9.499   3.535 -1.9710 -0.7559 -0.1999
 1397SOL     OW 7467   6.921   9.860   8.882  0.3419  0.0388  0.1239
 1397SOL    HW1 7468   6.934   9.919   8.956 -0.8047  0.1546  0.2489
 1397SOL    HW2 7469   6.855   9.904   8.828 -0.4453 -1.0648  0.1611
 1398SOL     OW 7470   7.518   4.754   0.235  0.2509  0.3181  0.1364
 1398SOL    HW1 7471   7.526   4.771   0.141 -0.5561  0.7541  0.1361
 1398SOL    HW2 7472   7.571   4.675   0.250  0.1011  0.0393 -0.7461
 1399SOL     OW 7473   9.661   3.497   7.129  0.5165  0.2884 -0.2718
 1399SOL    HW1 7474   9.729   3.429   7.122 -0.1419 -0.3976 -0.1193
 1399SOL    HW2 7475   9.596   3.459   7.188  0.5809  1.4367  0.5668
 1400SOL     OW 7476   7.273   9.109   1.768  0.6311  0.1284  0.1043
 1400SOL    HW1 7477   7.251   9.172   1.837  2.9151  0.8600  0.2353
 1400SOL    HW2 7478   7.366   9.123   1.751  0.9127 -2.3586 -0.7792
 1401SOL     OW 7479   0.071   3.023  10.459  0.2153 -0.4291 -0.0156
 1401SOL    HW1 7480   0.080   3.097  10.519 -0.1416  0.5174 -1.0972
 1401SOL    HW2 7481   0.024   2.957  10.509  1.6593 -0.4558  1.4073
 1402SOL     OW 7482   4.879   8.223   2.754 -0.1630 -0.0234  0.3074
 1402SOL    HW1 7483   4.828   8.151   2.791 -0.7852 -0.0534 -0.5625
 1402SOL    HW2 7484   4.833   8.246   2.673  0.9514  0.2535 -0.2781
 1403SOL     OW 7485   8.132   5.839   0.095  0.6045 -0.5672  0.3947
 1403SOL    HW1 7486   8.186   5.787   0.155  1.3469 -1.2459 -0.8138
 1403SOL    HW2 7487   8.174   5.829   0.010  0.6672  1.9287  0.0776
 1404SOL     OW 7488   4.549   1.861  11.000  1.0996  0.4008 -0.0414
 1404SOL    HW1 7489   4.489   1.855  10.926 -1.0824 -2.7654  1.7261
 1404SOL    HW2 7490   4.624   1.807  10.974 -0.1217 -1.5759  0.2982
 1405SOL     OW 7491  10.170   3.444  10.613  0.4300  0.1855 -0.3776
 1405SOL    HW1 7492  10.242   3.483  10.565  1.5152 -1.2800 -0.0257
 1405SOL    HW2 7493  10.095   3.501  10.596  0.9637  0.2237 -3.0950
 1406SOL     OW 7494   8.315   5.374  10.055  0.6671 -0.6284 -0.4467
 1406SOL    HW1 7495   8.255   5.341  10.122  0.1094  0.2124 -0.5150
 1406SOL    HW2 7496   8.297   5.321   9.978 -0.2461 -0.1611 -0.5682
 1407SOL     OW 7497   1.974   1.993   1.541 -0.1103 -0.0220  0.0950
 1407SOL    HW1 7498   1.909   1.923   1.546 -0.3089  0.1489 -0.0943
 1407SOL    HW2 7499   1.980   2.027   1.630  0.0049 -0.2957  0.1929
 1408SOL     OW 7500   5.492   2.302   7.655 -0.5978 -0.7984  0.0489
 1408SOL    HW1 7501   5.403   2.278   7.629 -0.9818 -0.8936  1.3922
 1408SOL    HW2 7502   5.480   2.370   7.721  0.4152  1.3430 -1.8465
 1409SOL     OW 7503  10.637   2.098   6.191 -0.1695 -0.3302  0.1291
 1409SOL    HW1 7504  10.702   2.157   6.153 -0.4674 -0.5275 -0.7043
 1409SOL    HW2 7505  10.689   2.029   6.234  0.1714  0.1477  0.4935
 1410SOL     OW 7506   8.812   8.799   4.715 -0.2717  0.1809 -0.6912
 1410SOL    HW1 7507   8.753   8.724   4.715  0.7308 -0.6338 -0.3113
 1410SOL    HW2 7508   8.888   8.771   4.663 -0.5108  1.4731 -1.8060
 1411SOL     OW 7509   3.655   7.549   5.752 -0.1727 -0.7363 -0.1063
 1411SOL    HW1 7510   3.656   7.458   5.723 -1.3138 -0.9041  0.2983
 1411SOL    HW2 7511   3.633   7.544   5.845  0.2053 -0.0612  0.0296
 1412SOL     OW 7512   8.211   5.242   9.839 -0.1014 -0.1997 -0.1786
 1412SOL    HW1 7513   8.187   5.281   9.755 -0.2492 -0.9753 -0.5087
 1412SOL    HW2 7514   8.278   5.178   9.817  0.9446  0.6332  0.5004
 1413SOL     OW 7515   0.982   1.041   7.305  0.6305  0.1729 -0.3545
 1413SOL    HW1 7516   0.893   1.049   7.271  1.0790  1.6277 -1.2775
 1413SOL    HW2 7517   1.003   1.128   7.340  1.3335 -0.4318  0.8057
 1414SOL     OW 7518  10.940   6.983   1.578 -0.0572  0.6214  0.0833
 1414SOL    HW1 7519  10.965   6.979   1.670 -2.1810 -2.6726  0.6722
 1414SOL    HW2 7520  10.845   6.995   1.579 -0.2938 -0.6919 -1.5971
 1415SOL     OW 7521   0.775   0.783   4.309  0.1046  0.1059  0.1011
 1415SOL    HW1 7522   0.862   0.823   4.308 -0.2979  1.0144  0.6635
 1415SOL    HW2 7523   0.778   0.718   4.238  1.2489  0.0878  0.1436
 1416SOL     OW 7524   6.274   7.017   9.423 -0.1746  0.5815 -0.4856
 1416SOL    HW1 7525   6.227   7.092   9.461 -2.7569 -0.8745 -0.5541
 1416SOL    HW2 7526   6.312   6.972   9.499 -1.5722  0.1047 -0.0301
 1417SOL     OW 7527   8.472  10.397   7.952  0.2737  0.0402 -0.0325
 1417SOL    HW1 7528   8.536  10.329   7.972  2.7350  2.1365 -0.2704
 1417SOL    HW2 7529   8.414  10.398   8.028 -0.3321 -2.7646 -0.3570
 1418SOL     OW 7530  10.237   7.432  11.396  0.5760 -0.2427 -0.9030
 1418SOL    HW1 7531  10.237   7.358  11.456  2.2313 -0.9981 -1.7559
 1418SOL    HW2 7532  10.158   7.419  11.342 -0.1528 -0.3246  0.1538
 1419SOL     OW 7533   2.097   3.829   5.766 -0.1235 -0.2653 -0.5311
 1419SOL    HW1 7534   2.058   3.756   5.815 -1.4908  0.8910  0.1915
 1419SOL    HW2 7535   2.064   3.818   5.677 -2.1884  0.6602  0.0572
 1420SOL     OW 7536  10.771   9.194   7.552  0.6009 -0.8261  0.0883
 1420SOL    HW1 7537  10.684   9.170   7.583 -0.3369  2.0243 -0.0263
 1420SOL    HW2 7538  10.817   9.223   7.630  0.7096 -0.3479 -0.1525
 1421SOL     OW 7539   3.640   8.685   2.430 -0.5529 -0.6800  0.2617
 1421SOL    HW1 7540   3.665   8.775   2.452  0.2430 -0.9917  0.6788
 1421SOL    HW2 7541   3.721   8.644   2.399 -0.5830 -1.6509  1.3941
 1422SOL     OW 7542   1.927   0.727   4.483 -0.1383  0.5407  0.3531
 1422SOL    HW1 7543   1.863   0.718   4.553 -0.4192  0.7072  0.1196
 1422SOL    HW2 7544   1.890   0.792   4.424  0.2234  0.6037  0.1903
 1423SOL     OW 7545   4.886   2.713   9.664  0.6673  0.2201 -0.0249
 1423SOL    HW1 7546   4.905   2.807   9.661 -0.9417  0.5532 -1.7000
 1423SOL    HW2 7547   4.807   2.706   9.718  0.7394 -0.1699  0.0314
 1424SOL     OW 7548   3.125   8.775   9.993 -0.0208 -0.4201  0.3892
 1424SOL    HW1 7549   3.101   8.844   9.931 -1.8976  0.0462  1.5409
 1424SOL    HW2 7550   3.070   8.701   9.969  1.1435 -1.1422 -0.1106
 1425SOL     OW 7551   0.730   0.200   2.010  1.0683 -0.1594 -0.6194
 1425SOL    HW1 7552   0.811   0.150   2.022  0.8139 -0.2213  1.2789
 1425SOL    HW2 7553   0.680   0.150   1.947  1.5552 -1.3894 -0.0645
 1426SOL     OW 7554   1.030   9.780   7.589  0.0499  0.9932 -0.8212
 1426SOL    HW1 7555   1.111   9.762   7.637  0.3964  0.6913 -1.5059
 1426SOL    HW2 7556   0.966   9.718   7.626 -0.3672  2.3907  0.9278
 1427SOL     OW 7557   1.037   7.345   1.174  0.3728  0.4440  0.1367
 1427SOL    HW1 7558   0.960   7.329   1.227 -0.9918  2.1658 -1.1778
 1427SOL    HW2 7559   1.028   7.285   1.100  1.4493 -0.8423  1.0045
 1428SOL     OW 7560   7.659   7.843   5.779  0.1899 -0.3082  0.1346
 1428SOL    HW1 7561   7.696   7.856   5.866  2.7045  4.9153 -1.3611
 1428SOL    HW2 7562   7.719   7.782   5.736  0.5390 -0.6930  1.1271
 1429SOL     OW 7563   0.359   0.479   7.321 -0.7858 -0.3084  0.5220
 1429SOL    HW1 7564   0.392   0.493   7.409  1.9153  1.7465 -0.6993
 1429SOL    HW2 7565   0.388   0.390   7.298  1.4114  0.3347  0.6013
 1430SOL     OW 7566   5.116   1.484   9.707 -0.6756  0.7901 -0.2319
 1430SOL    HW1 7567   5.092   1.420   9.640  4.1370 -1.0984 -0.5584
 1430SOL    HW2 7568   5.116   1.568   9.662 -3.3625  0.5662 -0.8283
 1431SOL     OW 7569   4.744   3.837   8.638  0.6831  0.4742 -0.1481
 1431SOL    HW1 7570   4.829   3.881   8.637  0.3286  1.2352  1.0078
 1431SOL    HW2 7571   4.753   3.768   8.704 -0.3721  2.2729  1.9869
 1432SOL     OW 7572   0.420   3.491   1.629 -0.0186  0.0784  0.6059
 1432SOL    HW1 7573   0.353   3.429   1.602 -1.9027  1.9797  0.6637
 1432SOL    HW2 7574   0.405   3.568   1.574  0.5302  1.4691  2.3044
 1433SOL     OW 7575   3.615   5.843   4.747  0.1626  0.1606  0.0648
 1433SOL    HW1 7576   3.632   5.799   4.663  2.6847  0.9581  0.0669
 1433SOL    HW2 7577   3.697   5.888   4.767 -1.7226  3.5009  0.9241
 1434SOL     OW 7578   1.491  10.600   6.438  0.0802  0.4797  0.5452
 1434SOL    HW1 7579   1.495  10.517   6.485 -0.2579 -0.9020 -1.7042
 1434SOL    HW2 7580   1.575  10.605   6.392 -0.3240  0.8332 -0.1704
 1435SOL     OW 7581   4.447   7.700   7.405  0.2172  0.1081  0.7077
 1435SOL    HW1 7582   4.453   7.787   7.366 -0.7425  0.0456  0.4012
 1435SOL    HW2 7583   4.507   7.647   7.353 -0.3046  0.2532 -0.0598
 1436SOL     OW 7584   4.652  11.331   6.705 -0.2477 -0.1839 -0.6065
 1436SOL    HW1 7585   4.607  11.397   6.652 -1.8545  0.2245  1.1322
 1436SOL    HW2 7586   4.744  11.338   6.679 -0.3259  2.7877 -0.5210
 1437SOL     OW 7587   6.317   6.554   0.819 -0.1761  0.6169  0.4022
 1437SOL    HW1 7588   6.262   6.631   0.829  0.6077  1.1368  0.9048
 1437SOL    HW2 7589   6.399   6.578   0.862  0.2460 -0.3312  0.1585
 1438SOL     OW 7590   9.954   6.439   4.168 -0.0925 -0.0331  0.1261
 1438SOL    HW1 7591   9.983   6.349   4.151 -1.5121 -1.1144  2.7315
 1438SOL    HW2 7592  10.034   6.491   4.169  0.6032 -0.7487 -3.6030
 1439SOL     OW 7593   9.915  10.554   5.873  0.6352  0.0518 -0.1924
 1439SOL    HW1 7594   9.989  10.515   5.827 -0.4361 -0.6979 -1.3362
 1439SOL    HW2 7595   9.875  10.612   5.809 -1.7405 -2.0908 -0.8274
 1440SOL     OW 7596   9.629   3.408   5.785 -0.4597 -0.5818 -0.1396
 1440SOL    HW1 7597   9.699   3.420   5.849  1.0917 -0.6378 -1.7344
 1440SOL    HW2 7598   9.643   3.320   5.749 -0.9496 -0.3505 -0.9416
 1441SOL     OW 7599   9.624   2.935   0.374  0.3783  0.0343  0.0221
 1441SOL    HW1 7600   9.641   2.858   0.428 -1.2765  0.0748  0.6310
 1441SOL    HW2 7601   9.529   2.944   0.372  0.4201  0.6813 -2.0067
 1442SOL     OW 7602   0.357   4.910   4.507  0.0082  0.2951 -0.1592
 1442SOL    HW1 7603   0.290   4.865   4.559 -0.4645  0.4694 -0.6082
 1442SOL    HW2 7604   0.440   4.871   4.536 -0.3279 -0.2842  0.0485
 1443SOL     OW 7605   4.640   7.453   0.527  0.0953  0.0479  0.2834
 1443SOL    HW1 7606   4.651   7.533   0.476 -2.3254  1.7433  2.1586
 1443SOL    HW2 7607   4.698   7.463   0.603 -1.1949  0.7418  1.2175
 1444SOL     OW 7608   0.895   5.104   1.578 -0.3810  0.1531  0.5621
 1444SOL    HW1 7609   0.823   5.042   1.565 -1.5113  1.0004  2.4414
 1444SOL    HW2 7610   0.957   5.058   1.635  0.6797 -0.6104 -1.1281
 1445SOL     OW 7611   5.865   9.568   7.256 -0.2866  0.0381  0.4670
 1445SOL    HW1 7612   5.948   9.591   7.214  0.1322 -1.4293  0.4180
 1445SOL    HW2 7613   5.889   9.506   7.324 -1.2852  0.0947  0.8889
 1446SOL     OW 7614   9.070   3.945  10.987  0.0159 -0.2037 -0.6586
 1446SOL    HW1 7615   9.124   4.005  11.038 -1.2175  0.0168  0.4450
 1446SOL    HW2 7616   9.072   3.980  10.898  1.0677  0.2023 -0.4927
 1447SOL     OW 7617   8.152   2.191  10.326 -0.2362 -0.1121 -0.0847
 1447SOL    HW1 7618   8.172   2.188  10.232  1.7150 -2.6294  0.2973
 1447SOL    HW2 7619   8.064   2.155  10.332 -0.4803  0.3003 -0.9688
 1448SOL     OW 7620   9.622   2.459   1.805 -0.1558  0.4238 -0.6045
 1448SOL    HW1 7621   9.553   2.523   1.821  1.2371  1.9340 -0.3650
 1448SOL    HW2 7622   9.698   2.495   1.849  0.6502 -1.5014 -0.3415
 1449SOL     OW 7623   9.876   5.560   0.154 -0.4272 -0.0417 -0.4681
 1449SOL    HW1 7624   9.917   5.558   0.068  0.4068  0.3663 -0.1014
 1449SOL    HW2 7625   9.791   5.517   0.143  0.5863 -2.0053 -1.0108
 1450SOL     OW 7626   5.897   5.383   9.316  0.1580  0.6848  0.0046
 1450SOL    HW1 7627   5.889   5.427   9.401  0.9984  0.4295  0.2256
 1450SOL    HW2 7628   5.824   5.321   9.314  0.5531  0.1795  0.8525
 1451SOL     OW 7629   1.873   9.431   1.744  0.4008 -0.0643  0.6846
 1451SOL    HW1 7630   1.927   9.383   1.681 -0.0604 -0.3623  0.5133
 1451SOL    HW2 7631   1.815   9.485   1.690  0.7285  0.4790  0.8719
 1452SOL     OW 7632   6.359   4.143   9.078  0.4445 -0.1644 -0.1345
 1452SOL    HW1 7633   6.358   4.168   9.171 -2.7212 -3.2803  0.8543
 1452SOL    HW2 7634   6.285   4.190   9.040  0.0741 -0.9930 -0.4354
 1453SOL     OW 7635   5.068   5.790   0.685  0.4730  0.0606 -0.0591
 1453SOL    HW1 7636   5.072   5.870   0.634 -0.6651 -1.2602 -2.3871
 1453SOL    HW2 7637   5.159   5.772   0.708  1.0725  0.6345 -1.8286
 1454SOL     OW 7638  10.461   9.610   8.841 -0.4474 -0.0582 -0.0676
 1454SOL    HW1 7639  10.469   9.516   8.829  3.8930  0.1370 -0.2338
 1454SOL    HW2 7640  10.409   9.640   8.766  0.2444 -2.0458 -1.3913
 1455SOL     OW 7641  10.531   8.859   4.993  0.4680 -0.2570  0.3918
 1455SOL    HW1 7642  10.556   8.884   4.904 -2.0380 -0.5795 -0.4934
 1455SOL    HW2 7643  10.587   8.783   5.013  1.3892  0.0925 -0.7149
 1456SOL     OW 7644   9.529   6.604   4.821  0.6213  0.0525 -0.2872
 1456SOL    HW1 7645   9.580   6.596   4.741  1.6900  0.4538  0.3317
 1456SOL    HW2 7646   9.482   6.521   4.827  1.9150 -0.7314 -0.4199
 1457SOL     OW 7647   3.382   3.079  10.893 -0.1128 -0.4309 -0.6237
 1457SOL    HW1 7648   3.426   2.995  10.882 -0.2165 -0.4961 -0.5396
 1457SOL    HW2 7649   3.452   3.144  10.886  0.3279 -0.6140  1.4894
 1458SOL     OW 7650   4.243   7.940   2.642 -0.1156  0.1494  0.1896
 1458SOL    HW1 7651   4.165   7.990   2.617  0.3285  2.0062  2.2161
 1458SOL    HW2 7652   4.312   7.975   2.586 -0.2497  0.2761  0.0999
 1459SOL     OW 7653   4.804   5.542  10.018 -0.3561 -0.0801  0.1258
 1459SOL    HW1 7654   4.795   5.494  10.100 -0.3140  0.7717  0.6410
 1459SOL    HW2 7655   4.860   5.486   9.963  0.2466 -0.3095  0.9581
 1460SOL     OW 7656   6.667   5.281   0.014  0.2620 -0.2470  0.7471
 1460SOL    HW1 7657   6.647   5.373   0.002  3.5825  0.4461 -0.5170
 1460SOL    HW2 7658   6.634   5.238  -0.065 -1.4157 -0.2417  1.4013
 1461SOL     OW 7659   5.654   3.444   7.801  0.6197  0.2853 -0.3208
 1461SOL    HW1 7660   5.566   3.431   7.837  0.6738  0.7906  0.0024
 1461SOL    HW2 7661   5.658   3.385   7.726  0.9268 -1.7525  1.1851
 1462SOL     OW 7662   0.374  11.343  10.292  0.6238  0.3044 -0.5978
 1462SOL    HW1 7663   0.301  11.376  10.239  0.8680  1.8715 -0.0001
 1462SOL    HW2 7664   0.393  11.414  10.354  0.9491 -1.0937  0.9901
 1463SOL     OW 7665  11.076   9.691   9.544 -0.0857 -0.5037  0.6641
 1463SOL    HW1 7666  11.028   9.746   9.606  1.4262 -0.2746  1.6655
 1463SOL    HW2 7667  11.098   9.751   9.472  0.4255 -0.1137  1.1395
 1464SOL     OW 7668   5.583   4.933   8.941 -0.0825  0.4179  0.1560
 1464SOL    HW1 7669   5.663   4.881   8.940 -0.3034  0.0374 -1.8326
 1464SOL    HW2 7670   5.520   4.883   8.889 -1.0670  1.5411  0.2039
 1465SOL     OW 7671   0.601   4.390   2.490  0.0069 -0.0801 -0.9052
 1465SOL    HW1 7672   0.669   4.363   2.428 -0.3879  0.0594 -1.4032
 1465SOL    HW2 7673   0.531   4.325   2.480  0.0892 -0.2594 -0.3489
 1466SOL     OW 7674   2.810  11.172  10.656 -0.1588  0.4771  0.1582
 1466SOL    HW1 7675   2.884  11.209  10.704  1.1295  0.4639 -1.7262
 1466SOL    HW2 7676   2.797  11.085  10.694  0.6613  0.5594  0.6466
 1467SOL     OW 7677  11.086   4.398   2.318 -0.3428  0.2140 -0.0359
 1467SOL    HW1 7678  11.088   4.411   2.413  0.4078 -3.1310  0.5349
 1467SOL    HW2 7679  11.035   4.318   2.306 -0.0578  0.3343 -2.4377
 1468SOL     OW 7680   7.647  10.073   3.690  0.0525  0.8325  0.3876
 1468SOL    HW1 7681   7.619  10.078   3.781  0.5036  2.0285  0.4833
 1468SOL    HW2 7682   7.670  10.163   3.667 -1.6359  0.8689 -1.4318
 1469SOL     OW 7683  11.125   2.122   6.403  0.3541  0.1803 -0.2149
 1469SOL    HW1 7684  11.089   2.139   6.316  0.0440  0.9220  0.0521
 1469SOL    HW2 7685  11.049   2.122   6.461  0.7758  1.9819  0.3827
 1470SOL     OW 7686   2.526   5.013   7.123  0.1380 -0.5106 -0.5532
 1470SOL    HW1 7687   2.583   5.058   7.185 -1.0470  2.8373 -1.6705
 1470SOL    HW2 7688   2.581   4.944   7.087  0.9054 -2.6737  4.0215
 1471SOL     OW 7689  10.630   1.274   3.299  0.3428  0.4038  0.3952
 1471SOL    HW1 7690  10.667   1.309   3.218 -1.0278  0.4655 -0.2344
 1471SOL    HW2 7691  10.696   1.213   3.332  1.2371  0.9370 -0.3714
 1472SOL     OW 7692   1.992   2.622   4.059 -0.2622 -0.3402  0.2225
 1472SOL    HW1 7693   1.907   2.586   4.034 -0.1592 -1.4008  1.2977
 1472SOL    HW2 7694   2.023   2.564   4.129  0.7308  0.8107  0.7797
 1473SOL     OW 7695   4.399   5.841   8.041 -0.4532  0.2745  0.1070
 1473SOL    HW1 7696   4.355   5.818   7.959 -0.8665 -0.4224  0.5167
 1473SOL    HW2 7697   4.339   5.812   8.109  0.2641  0.0858  0.6703
 1474SOL     OW 7698   6.830   5.558   6.010 -0.4566 -0.2020  0.6192
 1474SOL    HW1 7699   6.812   5.578   5.918 -0.6199  0.0956  0.7153
 1474SOL    HW2 7700   6.817   5.463   6.016 -2.9688  0.0905  0.8986
 1475SOL     OW 7701  10.714  10.444   6.178  0.2628 -0.2257 -0.2856
 1475SOL    HW1 7702  10.797  10.397   6.181 -0.7088 -1.9758  0.6217
 1475SOL    HW2 7703  10.691  10.445   6.085  1.1145 -0.0069 -0.5087
 1476SOL     OW 7704   2.517  11.395   5.339  0.0443  0.0131  0.4423
 1476SOL    HW1 7705   2.503  11.345   5.420  2.2783 -0.2280  0.7263
 1476SOL    HW2 7706   2.602  11.436   5.351  0.3526  0.0942 -1.7487
 1477SOL     OW 7707   2.411  10.385   2.106 -0.0716 -0.2690  0.3098
 1477SOL    HW1 7708   2.495  10.354   2.138  0.5065  0.3273 -0.5754
 1477SOL    HW2 7709   2.388  10.325   2.035  0.4077  0.4831 -0.5171
 1478SOL     OW 7710   6.926   8.131   5.073  0.2350 -0.6952  0.8599
 1478SOL    HW1 7711   6.914   8.181   5.154  0.4576  1.9257 -0.5936
 1478SOL    HW2 7712   7.001   8.074   5.092  0.9278  0.5707  2.2189
 1479SOL     OW 7713  11.310   8.592   5.130  0.0317 -0.3761 -0.2738
 1479SOL    HW1 7714  11.293   8.625   5.219 -0.3476 -0.1496 -0.4255
 1479SOL    HW2 7715  11.399   8.559   5.134 -0.8560 -2.8981  0.9577
 1480SOL     OW 7716   7.106   9.849   5.789 -0.8852 -0.2633  0.2222
 1480SOL    HW1 7717   7.194   9.865   5.821 -0.6938  0.1554 -0.4850
 1480SOL    HW2 7718   7.053   9.920   5.826 -0.5508  0.5512 -0.8319
 1481SOL     OW 7719   8.505   9.126   8.414 -0.1198  0.5102  0.9009
 1481SOL    HW1 7720   8.504   9.089   8.503  1.3273  1.2393  1.2477
 1481SOL    HW2 7721   8.569   9.197   8.418 -0.4186  0.9055 -0.6071
 1482SOL     OW 7722   0.110   4.308   4.195  0.7476 -0.1149 -0.1420
 1482SOL    HW1 7723   0.119   4.281   4.104 -0.6700  0.8551 -0.6172
 1482SOL    HW2 7724   0.194   4.288   4.236  1.1457 -1.2456 -1.4780
 1483SOL     OW 7725   4.256   4.500  10.475  0.0165  0.1013 -0.1485
 1483SOL    HW1 7726   4.203   4.432  10.516 -1.8382  0.7508 -1.3613
 1483SOL    HW2 7727   4.284   4.462  10.392  0.2120  0.2853 -0.1670
 1484SOL     OW 7728   7.911   3.508   4.030  0.5681  0.5674  0.2578
 1484SOL    HW1 7729   7.828   3.485   3.988 -0.3127  2.1023  1.0655
 1484SOL    HW2 7730   7.928   3.435   4.091  0.0898 -0.0069 -0.2773
 1485SOL     OW 7731   5.585   1.287   1.466 -0.0536 -0.0455  0.1298
 1485SOL    HW1 7732   5.648   1.310   1.534  1.5072  0.5655 -1.4528
 1485SOL    HW2 7733   5.503   1.330   1.494  0.4976  0.0937  1.6466
 1486SOL     OW 7734   5.176   8.596  10.872  0.6879  0.0027 -0.1563
 1486SOL    HW1 7735   5.125   8.516  10.882  0.9590 -0.0401  1.0188
 1486SOL    HW2 7736   5.139   8.639  10.795  0.6478 -1.3165 -0.9062
 1487SOL     OW 7737   1.636  10.605   7.882  0.1790 -0.0850 -0.7737
 1487SOL    HW1 7738   1.612  10.608   7.975  0.9272 -0.8722 -0.5277
 1487SOL    HW2 7739   1.717  10.554   7.881  0.8708  0.9859 -1.7325
 1488SOL     OW 7740   1.315   0.602   3.301 -0.0784 -0.1991  0.2950
 1488SOL    HW1 7741   1.363   0.525   3.331  0.3429  0.0158  0.1922
 1488SOL    HW2 7742   1.229   0.569   3.275 -0.4086 -0.4247  1.5761
 1489SOL     OW 7743   5.569   2.976   1.920  0.1886  0.1008  0.1125
 1489SOL    HW1 7744   5.509   3.005   1.989 -0.5606 -2.3537  0.5991
 1489SOL    HW2 7745   5.629   2.916   1.964 -0.2295 -1.4408 -1.2965
 1490SOL     OW 7746   4.891   9.589   7.313 -0.5531 -0.3000 -0.0085
 1490SOL    HW1 7747   4.865   9.675   7.280 -1.5092  0.0636  1.5482
 1490SOL    HW2 7748   4.963   9.562   7.256 -0.0286  1.6697 -0.3729
 1491SOL     OW 7749   3.128   6.735   4.933 -0.3165 -0.8117 -0.1260
 1491SOL    HW1 7750   3.219   6.718   4.957 -0.9469 -1.4865  2.0546
 1491SOL    HW2 7751   3.090   6.648   4.920 -0.3869 -0.5020 -2.3250
 1492SOL     OW 7752   5.613   2.672   0.353 -0.5680  0.1050 -0.0877
 1492SOL    HW1 7753   5.585   2.755   0.393 -0.9509 -0.0766  0.0281
 1492SOL    HW2 7754   5.532   2.634   0.320 -0.4819 -0.5155  0.4082
 1493SOL     OW 7755   8.973   8.518   3.171  0.4857 -0.0052 -0.2403
 1493SOL    HW1 7756   9.014   8.491   3.253 -1.0608 -0.7484  0.3235
 1493SOL    HW2 7757   8.917   8.591   3.195 -0.1323 -0.3552 -0.5845
 1494SOL     OW 7758   9.303   2.119   3.382 -0.0671  0.0620  0.3587
 1494SOL    HW1 7759   9.310   2.023   3.375  0.1670  0.1078 -0.0653
 1494SOL    HW2 7760   9.332   2.139   3.471  3.2433  0.0452 -0.5942
 1495SOL     OW 7761  10.609   4.018   7.700 -0.2182 -0.1784  0.4383
 1495SOL    HW1 7762  10.639   4.104   7.672 -0.0008 -1.2209 -2.8898
 1495SOL    HW2 7763  10.672   3.991   7.767 -0.0186  1.9743  1.1948
 1496SOL     OW 7764   3.449   5.244   6.177 -0.1349  0.5135 -0.5022
 1496SOL    HW1 7765   3.524   5.302   6.187 -0.2461  0.3690  2.0716
 1496SOL    HW2 7766   3.377   5.302   6.152 -0.4430  1.8096  2.8289
 1497SOL     OW 7767   8.642  10.949   8.397 -0.2126 -0.2416 -0.7319
 1497SOL    HW1 7768   8.602  11.035   8.386  0.3519  0.1395  0.1608
 1497SOL    HW2 7769   8.733  10.961   8.372 -0.1536 -0.6069 -0.6997
 1498SOL     OW 7770   8.250   5.427   8.528  0.1809  0.2790  0.5058
 1498SOL    HW1 7771   8.223   5.510   8.567 -1.7569 -0.1234  0.1259
 1498SOL    HW2 7772   8.267   5.369   8.602  0.4212  0.6648  0.7548
 1499SOL     OW 7773   0.977   7.760   2.590  0.2702 -0.1690 -0.0278
 1499SOL    HW1 7774   0.955   7.773   2.498 -2.4176 -2.3863  0.1592
 1499SOL    HW2 7775   0.989   7.848   2.625 -0.5698  0.8316 -2.0953
 1500SOL     OW 7776   4.904   4.435   2.719 -0.2034 -0.2592  0.6740
 1500SOL    HW1 7777   4.931   4.526   2.723 -0.7127 -0.1002  0.5419
 1500SOL    HW2 7778   4.950   4.392   2.791 -1.9109  0.6073  2.3594
 1501SOL     OW 7779  10.236   6.476  10.434  0.0948  0.2510 -0.5609
 1501SOL    HW1 7780  10.222   6.551  10.492 -1.2562  0.6783 -1.3760
 1501SOL    HW2 7781  10.281   6.513  10.358  0.4500  0.0017 -0.4744
 1502SOL     OW 7782   6.525   9.230   2.352 -0.6655  0.3120 -0.4318
 1502SOL    HW1 7783   6.556   9.312   2.314 -1.3952  0.8469  0.1020
 1502SOL    HW2 7784   6.551   9.163   2.289 -1.9907  1.1817 -1.9763
 1503SOL     OW 7785   8.081   8.574   6.508 -0.7267 -0.3126 -1.1329
 1503SOL    HW1 7786   8.058   8.661   6.475  1.5039  0.3148 -1.1735
 1503SOL    HW2 7787   8.047   8.573   6.598  1.2283  1.5521 -0.2871
 1504SOL     OW 7788   8.886  11.082   0.498 -0.2647 -0.3272  0.1227
 1504SOL    HW1 7789   8.832  11.005   0.520 -1.5089 -0.1050 -1.9444
 1504SOL    HW2 7790   8.922  11.063   0.412  0.1981  1.0103 -0.0054
 1505SOL     OW 7791   8.615   4.496   0.220 -0.1080  0.3279  0.1698
 1505SOL    HW1 7792   8.542   4.434   0.228 -1.9493  2.1177 -1.6343
 1505SOL    HW2 7793   8.650   4.502   0.309 -1.1671 -1.7173  0.7989
 1506SOL     OW 7794   2.359   6.938   8.593 -0.3157  0.1405 -0.6469
 1506SOL    HW1 7795   2.404   6.971   8.671 -1.5537  1.0066 -0.2554
 1506SOL    HW2 7796   2.342   6.846   8.611 -0.2537  0.2449 -0.0434
 1507SOL     OW 7797   5.148   0.160   3.143 -0.0900 -0.0622  0.5841
 1507SOL    HW1 7798   5.109   0.177   3.058 -1.0051  1.8127  1.3171
 1507SOL    HW2 7799   5.217   0.226   3.152  0.9269 -1.1174  0.7524
 1508SOL     OW 7800   3.977   8.637   1.674 -0.0852  0.2492  0.5689
 1508SOL    HW1 7801   3.984   8.542   1.672  1.9839  0.3394 -0.5432
 1508SOL    HW2 7802   4.060   8.666   1.713  0.1275  1.6006 -0.7778
 1509SOL     OW 7803   5.475   2.839   7.727 -0.5233  0.3964 -0.2308
 1509SOL    HW1 7804   5.459   2.804   7.640 -1.0335  1.3597 -0.5318
 1509SOL    HW2 7805   5.481   2.934   7.715  0.9979  0.4327  0.5474
 1510SOL     OW 7806   8.315   1.527   3.583  0.3188 -0.2030  0.5991
 1510SOL    HW1 7807   8.406   1.554   3.579  0.2093  0.0093 -2.7834
 1510SOL    HW2 7808   8.316   1.435   3.557 -0.4232 -0.3066  0.9040
 1511SOL     OW 7809   1.421   7.390   7.902 -0.2403 -0.3279 -0.4625
 1511SOL    HW1 7810   1.462   7.391   7.988  1.3837  0.2846 -1.2126
 1511SOL    HW2 7811   1.476   7.334   7.849 -0.5759  0.2091 -1.4064
 1512SOL     OW 7812   7.330   0.125  10.788  0.1712  0.4584  1.2014
 1512SOL    HW1 7813   7.277   0.204  10.792 -0.9874 -0.2670  0.5838
 1512SOL    HW2 7814   7.269   0.055  10.764  1.3436 -0.4562  0.7469
 1513SOL     OW 7815   3.066   7.046   5.433 -0.4530 -0.1330  0.1225
 1513SOL    HW1 7816   2.983   7.092   5.445 -1.0634 -1.4761  1.2700
 1513SOL    HW2 7817   3.054   6.996   5.353 -0.9727 -0.7313  0.5595
 1514SOL     OW 7818   1.945   2.996   4.778 -0.0136 -0.0342  0.1490
 1514SOL    HW1 7819   1.972   2.931   4.713  0.2562  0.1928  0.0340
 1514SOL    HW2 7820   1.908   2.944   4.849  0.9817 -0.3778  0.4393
 1515SOL     OW 7821   5.430   9.188   5.018 -0.0364 -0.5407 -0.0088
 1515SOL    HW1 7822   5.432   9.262   5.080 -2.6279 -0.0500 -0.3732
 1515SOL    HW2 7823   5.472   9.116   5.065 -0.0738  0.3895  1.5287
 1516SOL     OW 7824   1.063   5.718   2.263 -0.3390  0.1386  0.2437
 1516SOL    HW1 7825   1.068   5.630   2.299 -0.0075  0.2981  0.5946
 1516SOL    HW2 7826   1.086   5.708   2.171  0.3490 -0.0462  0.4357
 1517SOL     OW 7827  10.575   3.535  10.007 -0.6716  0.2798  0.5295
 1517SOL    HW1 7828  10.615   3.612  10.046 -1.5669  0.6341  0.7559
 1517SOL    HW2 7829  10.488   3.530  10.046 -0.0293 -1.8608  1.8916
 1518SOL     OW 7830   3.358   0.862  11.155  0.3738 -0.0054 -0.2015
 1518SOL    HW1 7831   3.361   0.938  11.213  2.2839  0.6554 -1.0710
 1518SOL    HW2 7832   3.430   0.807  11.184  0.3444 -0.4375 -0.9327
 1519SOL     OW 7833   6.116   2.699   0.508  0.0301  0.7812 -0.2686
 1519SOL    HW1 7834   6.124   2.646   0.429  0.9615  1.2896 -0.5352
 1519SOL    HW2 7835   6.085   2.638   0.575 -1.4581  0.4897 -1.1719
 1520SOL     OW 7836   3.258   4.614   9.110  0.5286  0.2752  0.3313
 1520SOL    HW1 7837   3.264   4.630   9.204  1.1720 -1.3905  0.6059
 1520SOL    HW2 7838   3.337   4.655   9.074  1.2505 -0.6561  0.7911
 1521SOL     OW 7839   0.731   7.313   8.569 -0.1806 -0.0366  0.0423
 1521SOL    HW1 7840   0.756   7.227   8.601  0.1895  0.5721  1.4812
 1521SOL    HW2 7841   0.814   7.355   8.546  0.0212  1.0644  2.4267
 1522SOL     OW 7842   2.934  10.959   5.086 -0.2396 -0.3792  0.2661
 1522SOL    HW1 7843   2.896  10.883   5.043  0.6767 -0.2832 -0.7779
 1522SOL    HW2 7844   3.002  10.923   5.143  0.3856 -0.3393 -0.4415
 1523SOL     OW 7845   1.781   7.996   0.016 -0.1233  0.3859  0.1361
 1523SOL    HW1 7846   1.793   7.951   0.100 -0.0372  1.2878  0.6204
 1523SOL    HW2 7847   1.869   8.019  -0.012  0.3072 -3.3068 -2.1870
 1524SOL     OW 7848   4.720   6.787   1.567  0.0785  0.6846 -0.3398
 1524SOL    HW1 7849   4.638   6.739   1.559 -1.0994  2.5673 -0.0050
 1524SOL    HW2 7850   4.783   6.734   1.517 -0.4696 -2.5392  2.0515
 1525SOL     OW 7851   9.750   1.390   8.898 -0.0165 -0.2699 -0.3392
 1525SOL    HW1 7852   9.788   1.409   8.812 -1.8944  0.4035 -1.0602
 1525SOL    HW2 7853   9.826   1.375   8.954  1.3133  0.7451 -1.7694
 1526SOL     OW 7854   9.762   5.750   7.813  0.4559  0.5156  0.2395
 1526SOL    HW1 7855   9.855   5.732   7.799  0.3427 -0.1788  0.3050
 1526SOL    HW2 7856   9.719   5.668   7.788 -0.1857  1.0190 -0.3271
 1527SOL     OW 7857   2.004   0.385  11.334  0.4963 -0.1463 -0.3418
 1527SOL    HW1 7858   1.951   0.315  11.373  2.4827 -1.7193 -0.3217
 1527SOL    HW2 7859   2.017   0.448  11.405 -1.0933  0.1649 -0.2831
 1528SOL     OW 7860  10.547   4.101   4.459 -0.3478  0.6701  0.4181
 1528SOL    HW1 7861  10.504   4.097   4.374  2.0601 -0.5236 -0.8472
 1528SOL    HW2 7862  10.554   4.010   4.487 -0.1972  0.9745  1.4128
 1529SOL     OW 7863   5.354   9.736   1.385  0.0766 -0.1061  0.6459
 1529SOL    HW1 7864   5.361   9.687   1.304  0.5468  0.7623  0.1509
 1529SOL    HW2 7865   5.350   9.668   1.453  1.1352 -0.8274  0.0190
 1530SOL     OW 7866   8.518   5.940  11.041 -0.5675 -0.0832 -0.4023
 1530SOL    HW1 7867   8.511   5.853  11.001 -1.2867  0.0413 -0.5558
 1530SOL    HW2 7868   8.491   6.000  10.972 -1.4061  0.1594  0.1302
 1531SOL     OW 7869   4.797   7.430   4.293 -0.3574 -0.5289 -0.5128
 1531SOL    HW1 7870   4.770   7.521   4.303  2.6119  0.4180 -0.0100
 1531SOL    HW2 7871   4.766   7.387   4.372  0.0007  0.5753  0.2532
 1532SOL     OW 7872  10.243   8.165   0.811  0.2059 -0.3310  0.2627
 1532SOL    HW1 7873  10.152   8.193   0.801  0.2170 -0.6800 -0.9460
 1532SOL    HW2 7874  10.236   8.072   0.836  0.2173  0.1216  2.1237
 1533SOL     OW 7875  11.329   2.062  10.834 -0.0626 -0.0599 -0.2622
 1533SOL    HW1 7876  11.410   2.058  10.883 -1.6157  1.5907  2.6884
 1533SOL    HW2 7877  11.291   2.148  10.855 -2.1794 -0.4140 -2.1692
 1534SOL     OW 7878   8.056   7.965   6.700 -0.8606 -0.8409  0.1582
 1534SOL    HW1 7879   8.076   8.040   6.757 -1.2743 -1.8985  1.7340
 1534SOL    HW2 7880   8.044   8.005   6.613  0.7359  0.7000  0.5754
 1535SOL     OW 7881   5.632   7.915   6.062 -0.2454 -0.1753 -0.0789
 1535SOL    HW1 7882   5.686   7.985   6.097 -0.4105  0.2444 -0.6399
 1535SOL    HW2 7883   5.603   7.947   5.976  0.1820 -1.1769 -0.6259
 1536SOL     OW 7884   0.794   0.672   4.032  0.1317  0.3975 -0.1939
 1536SOL    HW1 7885   0.702   0.684   4.006  0.0877 -0.5923 -0.5426
 1536SOL    HW2 7886   0.824   0.599   3.978  0.4896 -0.7175  1.4495
 1537SOL     OW 7887  10.420   3.964   0.054  0.1755 -0.1456  0.2618
 1537SOL    HW1 7888  10.508   3.994   0.030  0.0426 -0.0864 -0.1546
 1537SOL    HW2 7889  10.421   3.961   0.149  2.0048 -4.0194  0.3457
 1538SOL     OW 7890   3.312  10.575   5.818  0.5774 -0.8819  0.0154
 1538SOL    HW1 7891   3.307  10.505   5.753 -2.4774 -1.4534  0.7406
 1538SOL    HW2 7892   3.228  10.573   5.863  1.3230  1.6750  1.7558
 1539SOL     OW 7893  11.358   9.860   4.434  0.3684 -0.1264  0.2539
 1539SOL    HW1 7894  11.407   9.933   4.471  1.3409 -0.7521  0.2328
 1539SOL    HW2 7895  11.381   9.785   4.488  1.2594 -0.9068 -1.1503
 1540SOL     OW 7896  11.112   6.994   9.083  0.7233 -0.0609  0.9603
 1540SOL    HW1 7897  11.098   7.087   9.070 -1.6413 -0.6291 -1.3724
 1540SOL    HW2 7898  11.133   6.960   8.996  0.2740 -1.8900  1.5182
 1541SOL     OW 7899  10.335   2.574   6.373 -0.5509 -0.3979  0.1210
 1541SOL    HW1 7900  10.322   2.480   6.386 -1.6742 -0.1434  0.9460
 1541SOL    HW2 7901  10.279   2.595   6.298 -0.1371 -0.4044 -0.1999
 1542SOL     OW 7902   5.657   5.038   8.340 -0.0854  0.2968 -0.0018
 1542SOL    HW1 7903   5.600   4.974   8.298 -0.9216  0.3555  1.0151
 1542SOL    HW2 7904   5.742   4.994   8.346 -0.7635 -0.9361  1.1353
 1543SOL     OW 7905   3.107   1.251   2.220 -0.3238 -0.6344  0.0757
 1543SOL    HW1 7906   3.188   1.269   2.267 -0.3937  0.0438 -0.0506
 1543SOL    HW2 7907   3.061   1.335   2.217 -0.6611 -0.8307 -0.5493
 1544SOL     OW 7908   5.699   1.660   1.105 -0.6665 -0.1053  0.4949
 1544SOL    HW1 7909   5.711   1.686   1.014 -1.1722  1.1101  0.7596
 1544SOL    HW2 7910   5.771   1.600   1.123  0.4404  0.9802 -0.2121
 1545SOL     OW 7911   7.000   4.387   8.421  0.4410 -0.3444  0.2996
 1545SOL    HW1 7912   7.063   4.315   8.425  0.0567 -0.6658  0.6963
 1545SOL    HW2 7913   7.035   4.453   8.480 -0.8526 -1.5612  2.5515
 1546SOL     OW 7914   4.229   6.695   4.802  0.0371  0.2370  1.1416
 1546SOL    HW1 7915   4.241   6.747   4.722 -0.4407 -1.4752 -0.0967
 1546SOL    HW2 7916   4.232   6.604   4.772 -2.5530 -0.4567  2.7139
 1547SOL     OW 7917   9.991   8.354   1.113 -0.0160  0.2606 -0.1322
 1547SOL    HW1 7918  10.031   8.417   1.054 -1.0730  2.1210  1.0208
 1547SOL    HW2 7919  10.025   8.269   1.085  0.7237  1.2224 -2.3582
 1548SOL     OW 7920   8.571   2.366   9.418 -0.1920 -0.5928 -0.6446
 1548SOL    HW1 7921   8.541   2.275   9.430 -1.6964 -0.3744 -2.2995
 1548SOL    HW2 7922   8.666   2.360   9.416 -0.1534 -1.8240  1.3648
 1549SOL     OW 7923   8.787   8.562   6.811 -0.3527  0.5013 -0.4583
 1549SOL    HW1 7924   8.705   8.560   6.761 -1.1589  2.1783  0.7012
 1549SOL    HW2 7925   8.762   8.532   6.899  0.4621  0.1753 -0.3353
 1550SOL     OW 7926   9.872   3.451   9.182  0.2771 -0.5657  0.0083
 1550SOL    HW1 7927   9.944   3.408   9.135 -0.3311 -0.0492 -1.4750
 1550SOL    HW2 7928   9.794   3.430   9.131 -0.6055 -0.8463  1.4158
 1551SOL     OW 7929   4.344   7.495   9.140 -0.7589 -0.1066  0.0612
 1551SOL    HW1 7930   4.416   7.517   9.200 -0.3654 -0.5186 -0.2595
 1551SOL    HW2 7931   4.273   7.555   9.166 -0.6482 -0.3809  1.0376
 1552SOL     OW 7932   3.691   0.998   3.982 -0.1744 -0.2560 -0.1012
 1552SOL    HW1 7933   3.636   1.076   3.983  0.9986  0.6065  0.3789
 1552SOL    HW2 7934   3.673   0.953   4.064  0.1056  0.2281  0.2292
 1553SOL     OW 7935   6.767   1.409   5.963  0.7192  0.3361  0.4394
 1553SOL    HW1 7936   6.758   1.316   5.980  0.9966 -0.1228 -1.5923
 1553SOL    HW2 7937   6.859   1.429   5.984  0.4533  0.3440  1.6191
 1554SOL     OW 7938  10.542  10.655   3.798 -0.5388 -0.2756 -0.0721
 1554SOL    HW1 7939  10.550  10.661   3.703  0.5652 -2.0393 -0.1278
 1554SOL    HW2 7940  10.449  10.641   3.814 -0.4776 -2.0834 -1.0617
 1555SOL     OW 7941   6.974   1.842   9.800 -0.0915 -0.0987  0.1683
 1555SOL    HW1 7942   6.898   1.792   9.770  0.9276 -0.4462 -2.0030
 1555SOL    HW2 7943   7.027   1.779   9.848  0.4867 -0.7859 -1.3189
 1556SOL     OW 7944   0.231   0.190   1.272  0.8123  0.1778  0.4157
 1556SOL    HW1 7945   0.187   0.161   1.352 -1.5394 -0.1720 -0.8806
 1556SOL    HW2 7946   0.242   0.110   1.221 -0.9358  0.7688 -1.0106
 1557SOL     OW 7947   8.929   9.254   7.228  0.0031  0.1756  0.6630
 1557SOL    HW1 7948   8.906   9.252   7.321  0.8607 -0.4405  0.8741
 1557SOL    HW2 7949   8.871   9.188   7.189 -0.3201  0.3954  0.7600
 1558SOL     OW 7950   6.765   2.148   5.118 -0.4485  0.2536 -0.3059
 1558SOL    HW1 7951   6.730   2.227   5.159 -1.4599 -0.3209 -0.0405
 1558SOL    HW2 7952   6.691   2.088   5.113  0.3141 -0.7053 -0.4522
 1559SOL     OW 7953   2.443   2.164   6.536 -0.2925  0.6521  0.1307
 1559SOL    HW1 7954   2.372   2.165   6.472  0.4699  0.8322 -0.7324
 1559SOL    HW2 7955   2.399   2.153   6.621 -1.1788 -2.4780 -0.5952
 1560SOL     OW 7956   5.264   3.148   4.102 -0.3834 -0.0553  0.2290
 1560SOL    HW1 7957   5.330   3.114   4.162 -0.0457 -0.3231 -0.2941
 1560SOL    HW2 7958   5.311   3.213   4.050 -1.1084  1.5709  1.5039
 1561SOL     OW 7959   9.875   9.114   3.950  0.0441  0.4942 -0.7574
 1561SOL    HW1 7960   9.849   9.176   4.018 -0.6810 -0.0827 -0.5028
 1561SOL    HW2 7961   9.941   9.161   3.898 -1.2611  1.8741 -1.2251
 1562SOL     OW 7962   8.304   8.595  11.002 -0.3698  0.6936 -0.2436
 1562SOL    HW1 7963   8.358   8.582  11.080 -0.5219  0.9587 -0.0921
 1562SOL    HW2 7964   8.214   8.599  11.035 -0.4660  0.4582 -0.4719
 1563SOL     OW 7965   0.535   0.230  10.879 -0.1669 -0.0903  0.0828
 1563SOL    HW1 7966   0.496   0.261  10.797 -1.0763 -0.8393  0.2280
 1563SOL    HW2 7967   0.621   0.197  10.852 -0.4126 -0.2322 -0.5618
 1564SOL     OW 7968   7.074   5.412   0.615  0.1507  0.4098  0.1333
 1564SOL    HW1 7969   7.105   5.401   0.525  0.7988  0.3194  0.3620
 1564SOL    HW2 7970   7.153   5.401   0.669 -0.4201 -0.7107  0.7858
 1565SOL     OW 7971   5.178   1.406   4.062 -0.0811  0.5899 -0.3249
 1565SOL    HW1 7972   5.223   1.464   4.001 -0.8926  1.3006 -0.2721
 1565SOL    HW2 7973   5.156   1.462   4.136  0.0848 -0.0503  0.2109
 1566SOL     OW 7974   2.097   4.720   0.428 -0.5194  0.0017  0.3389
 1566SOL    HW1 7975   2.182   4.764   0.427 -0.8692  0.7477  1.5957
 1566SOL    HW2 7976   2.041   4.777   0.375 -0.3421 -0.2912 -0.1716
 1567SOL     OW 7977   9.834   8.997   5.485  0.1356 -1.3542 -0.3175
 1567SOL    HW1 7978   9.873   8.910   5.489 -1.9523 -2.3459  0.1744
 1567SOL    HW2 7979   9.792   9.009   5.570 -0.9773 -0.5718 -0.9444
 1568SOL     OW 7980   6.991   4.754   4.543  0.2400  0.8912  0.1938
 1568SOL    HW1 7981   6.908   4.792   4.573 -0.1683  0.6537 -0.6029
 1568SOL    HW2 7982   6.977   4.659   4.547  1.0780  0.7908  1.6847
 1569SOL     OW 7983   4.893   2.084   7.878  0.1659  0.4813 -0.1663
 1569SOL    HW1 7984   4.969   2.075   7.935 -0.7506  0.0802  1.0386
 1569SOL    HW2 7985   4.889   2.177   7.857 -0.7244  1.0666  2.2749
 1570SOL     OW 7986   9.506   2.520   3.888 -0.4881 -0.5843 -0.0791
 1570SOL    HW1 7987   9.521   2.427   3.900  0.0797 -0.2871  1.9705
 1570SOL    HW2 7988   9.557   2.543   3.811  0.9488 -1.6292  0.5215
 1571SOL     OW 7989   6.974  10.758   7.722  0.1538  0.3707 -0.2340
 1571SOL    HW1 7990   6.986  10.721   7.635 -1.2538  0.2812 -0.4108
 1571SOL    HW2 7991   6.955  10.851   7.707 -1.5395  0.0619 -0.1387
 1572SOL     OW 7992   5.269   4.895   0.592  0.3942 -0.4179  0.0532
 1572SOL    HW1 7993   5.238   4.983   0.576 -0.9727 -1.0796 -1.1111
 1572SOL    HW2 7994   5.220   4.840   0.531  1.3950 -1.9580  0.5622
 1573SOL     OW 7995   7.726   8.172   9.850 -0.0907 -0.4433 -0.2947
 1573SOL    HW1 7996   7.787   8.103   9.874  0.9603  0.2164 -1.0233
 1573SOL    HW2 7997   7.643   8.145   9.891  0.8811 -0.8916  1.4840
 1574SOL     OW 7998   9.921   7.360   7.460  0.2312  0.2432  0.3373
 1574SOL    HW1 7999   9.839   7.410   7.462  0.2499  0.2737  0.3536
 1574SOL    HW2 8000   9.914   7.301   7.535  1.0285  1.5125  1.4420
 1575SOL     OW 8001   2.864   7.473   7.835 -0.6057  0.2208 -0.2241
 1575SOL    HW1 8002   2.887   7.381   7.843  0.4121  0.5835  1.4792
 1575SOL    HW2 8003   2.776   7.479   7.873 -0.9901 -0.1567 -1.0388
 1576SOL     OW 8004   9.565   7.654   7.336 -0.2430  0.6019 -0.4192
 1576SOL    HW1 8005   9.595   7.741   7.307  0.2633  0.2074 -1.0932
 1576SOL    HW2 8006   9.538   7.610   7.256 -0.6595  0.1920 -0.0561
 1577SOL     OW 8007   2.455  10.569   3.540  0.0134  0.2553 -0.1744
 1577SOL    HW1 8008   2.400  10.493   3.559 -1.1698  1.0141 -0.5149
 1577SOL    HW2 8009   2.418  10.607   3.461  1.0878  0.7433 -0.4636
 1578SOL     OW 8010   1.475  11.238   1.640  0.3803 -0.2667 -0.2142
 1578SOL    HW1 8011   1.521  11.282   1.711 -1.3522  1.0920  0.1136
 1578SOL    HW2 8012   1.542  11.227   1.572  1.3436  1.0648  0.4822
 1579SOL     OW 8013  10.989   1.638   3.731  0.0418  0.7494 -0.2678
 1579SOL    HW1 8014  10.896   1.616   3.737  0.1483  0.7488  1.9832
 1579SOL    HW2 8015  11.020   1.591   3.653 -0.9571 -2.6594  1.2254
 1580SOL     OW 8016   6.577   5.067  10.367  0.0600 -0.3910  0.8953
 1580SOL    HW1 8017   6.647   5.046  10.429 -1.2061 -0.8995  2.1989
 1580SOL    HW2 8018   6.527   5.137  10.410 -1.3135 -1.3092  0.8406
 1581SOL     OW 8019   4.976   9.624   9.382 -0.3928  0.0003  0.2512
 1581SOL    HW1 8020   4.929   9.629   9.465  0.0463  0.7470  0.4734
 1581SOL    HW2 8021   4.919   9.669   9.319 -1.5827 -2.1556 -0.3049
 1582SOL     OW 8022   3.942   0.361   3.673 -0.1920  0.2811 -0.4653
 1582SOL    HW1 8023   4.030   0.393   3.653 -0.8946  3.3185  0.6757
 1582SOL    HW2 8024   3.893   0.373   3.591  0.0503  0.2144 -0.6213
 1583SOL     OW 8025  10.972   6.859   5.512  0.2715 -0.2503 -0.3338
 1583SOL    HW1 8026  11.027   6.851   5.433  0.7323 -0.6193  0.0208
 1583SOL    HW2 8027  11.035   6.874   5.583 -0.0919 -0.6292  0.0720
 1584SOL     OW 8028   0.443   3.057   9.601  0.0375  0.0950  0.3496
 1584SOL    HW1 8029   0.352   3.043   9.577  0.0585 -0.4874  0.5867
 1584SOL    HW2 8030   0.441   3.086   9.692  0.0476  0.7834  0.1309
 1585SOL     OW 8031   1.741  10.457   5.079  0.2317 -0.0072 -0.1257
 1585SOL    HW1 8032   1.731  10.485   4.988  1.5331  1.0243  0.0083
 1585SOL    HW2 8033   1.811  10.392   5.077 -0.5199 -0.8371  0.0051
 1586SOL     OW 8034   5.115   6.205   8.176  0.2601  0.2954  0.0398
 1586SOL    HW1 8035   5.181   6.230   8.111  0.2251  2.1128  0.6326
 1586SOL    HW2 8036   5.032   6.207   8.128  0.2822  1.2375  0.0105
 1587SOL     OW 8037  10.526   9.349   8.853 -0.1216  0.6546 -0.3391
 1587SOL    HW1 8038  10.603   9.392   8.816  0.2981  0.3964  0.2128
 1587SOL    HW2 8039  10.548   9.256   8.853 -0.3904  0.5883 -0.0814
 1588SOL     OW 8040   6.419   0.332   0.469  0.2102 -0.1441  0.7658
 1588SOL    HW1 8041   6.356   0.374   0.411 -0.4306 -2.4447 -0.3445
 1588SOL    HW2 8042   6.384   0.347   0.557 -1.2037 -0.2499  0.2479
 1589SOL     OW 8043  10.759  10.955   7.401 -0.4257 -0.4068  0.2443
 1589SOL    HW1 8044  10.695  11.024   7.417  1.0663  1.4371 -1.1873
 1589SOL    HW2 8045  10.837  10.982   7.449  0.4735 -0.5767 -1.0398
 1590SOL     OW 8046   5.972  10.239   6.952 -0.0643 -0.3493  0.3244
 1590SOL    HW1 8047   5.985  10.235   7.047  0.7297 -1.3465  0.2008
 1590SOL    HW2 8048   6.059  10.259   6.917 -0.4539  0.4969 -0.1733
 1591SOL     OW 8049   8.739  11.254   3.837  0.1413  0.3210  0.2758
 1591SOL    HW1 8050   8.651  11.268   3.802  0.7994  0.9734 -1.2258
 1591SOL    HW2 8051   8.771  11.342   3.856  0.9010  0.1925 -0.3463
 1592SOL     OW 8052   3.579   6.296   6.025  0.2296 -0.3244  0.1723
 1592SOL    HW1 8053   3.567   6.241   6.102 -0.8757  1.3555  1.2526
 1592SOL    HW2 8054   3.665   6.335   6.036  0.4924 -0.8503  0.0291
 1593SOL     OW 8055   5.883  10.538   3.160 -0.5712 -0.2853  0.4902
 1593SOL    HW1 8056   5.884  10.590   3.080 -0.9660  0.6230  1.0497
 1593SOL    HW2 8057   5.875  10.603   3.230 -0.3490 -1.0656  1.2605
 1594SOL     OW 8058   7.435   8.498   6.649  0.3505  0.1307 -0.3202
 1594SOL    HW1 8059   7.347   8.534   6.660  0.0466 -0.9018  0.9884
 1594SOL    HW2 8060   7.426   8.405   6.672  1.8418  0.0842  0.2297
 1595SOL     OW 8061   5.805  11.332   4.100 -0.1711 -0.0847 -0.5434
 1595SOL    HW1 8062   5.812  11.391   4.175  0.3090  0.6527 -1.1476
 1595SOL    HW2 8063   5.712  11.331   4.078 -0.8345 -2.5863  1.8037
 1596SOL     OW 8064   3.975   1.098   7.777  0.4392  0.4427 -0.0239
 1596SOL    HW1 8065   3.901   1.132   7.827  1.3313  3.8726 -0.8155
 1596SOL    HW2 8066   3.939   1.020   7.733 -2.1050  0.8583  1.1193
 1597SOL     OW 8067   1.654   7.303   0.459  0.1899 -0.1927 -0.0103
 1597SOL    HW1 8068   1.632   7.387   0.418 -0.2283  0.4353  1.4218
 1597SOL    HW2 8069   1.700   7.255   0.392 -0.9958  0.5474 -1.4221
 1598SOL     OW 8070  11.244   0.316   8.943  0.0635 -0.0643 -0.6221
 1598SOL    HW1 8071  11.163   0.357   8.914  0.0779  1.1252  0.8926
 1598SOL    HW2 8072  11.280   0.275   8.864 -1.8518 -0.3964 -1.3793
 1599SOL     OW 8073   4.633   2.807   5.694  0.2779  0.6482 -0.0581
 1599SOL    HW1 8074   4.613   2.894   5.660 -0.5635 -0.1360 -1.6616
 1599SOL    HW2 8075   4.691   2.768   5.628 -0.8806 -0.6865 -0.3204
 1600SOL     OW 8076   6.166   3.576   8.035  0.0578 -0.4060 -0.1884
 1600SOL    HW1 8077   6.230   3.641   8.005 -0.7336  1.0329  1.1015
 1600SOL    HW2 8078   6.092   3.585   7.974  0.1967 -0.5329 -0.3760
 1601SOL     OW 8079   9.315   5.612   5.289 -0.0952 -0.2382  0.4770
 1601SOL    HW1 8080   9.325   5.516   5.287 -1.7090 -0.4420  1.0304
 1601SOL    HW2 8081   9.233   5.627   5.336 -1.4164  1.3107 -2.0804
 1602SOL     OW 8082   9.598   3.703   2.642 -0.1515  0.0468 -0.4265
 1602SOL    HW1 8083   9.516   3.701   2.593 -0.5079 -0.1587  0.1694
 1602SOL    HW2 8084   9.659   3.651   2.589 -1.0025 -1.6319  0.1625
 1603SOL     OW 8085  10.162   0.520  10.325  0.0441 -0.1993 -0.0336
 1603SOL    HW1 8086  10.091   0.456  10.321 -0.6493  0.6211 -1.2698
 1603SOL    HW2 8087  10.179   0.543  10.234  1.2311  0.3625  0.3094
 1604SOL     OW 8088   6.733  10.221   1.265  0.3302  0.0208  0.0433
 1604SOL    HW1 8089   6.777  10.172   1.334  1.1662  0.3734 -0.2248
 1604SOL    HW2 8090   6.654  10.256   1.306  2.6368  3.4988  2.0680
 1605SOL     OW 8091   1.750   0.286   8.743 -0.4322 -0.0594 -0.1828
 1605SOL    HW1 8092   1.805   0.208   8.730 -1.7911 -1.0423 -0.2183
 1605SOL    HW2 8093   1.806   0.359   8.719  1.1669 -0.9517  0.6323
 1606SOL     OW 8094   1.921   9.217   8.429  0.7832 -0.0104  0.2847
 1606SOL    HW1 8095   1.995   9.275   8.417  0.7048 -0.1523 -1.0043
 1606SOL    HW2 8096   1.895   9.229   8.520  0.9738  1.7266  0.1356
 1607SOL     OW 8097   9.340   7.638   3.072  0.0196 -0.4367  0.1704
 1607SOL    HW1 8098   9.297   7.645   2.987  1.8505  1.7211 -0.6837
 1607SOL    HW2 8099   9.389   7.556   3.067  0.4556 -0.1247 -1.0684
 1608SOL     OW 8100   5.033   2.930   5.589 -0.1102 -0.7129 -0.6898
 1608SOL    HW1 8101   5.087   2.963   5.517 -0.4291  2.8654  0.5335
 1608SOL    HW2 8102   4.944   2.935   5.556 -0.3674  2.0795  0.2186
 1609SOL     OW 8103   7.761  11.290   6.634 -0.4438  0.3524  0.4450
 1609SOL    HW1 8104   7.747  11.299   6.540 -0.9465  3.9976  0.6882
 1609SOL    HW2 8105   7.747  11.198   6.652 -1.7330 -0.2430 -2.8336
 1610SOL     OW 8106   9.022   5.285   7.014  0.0405  0.2008  0.2712
 1610SOL    HW1 8107   9.038   5.338   6.936  0.6416  0.4984  0.5875
 1610SOL    HW2 8108   8.930   5.301   7.036  0.1917  1.0515  0.3101
 1611SOL     OW 8109   4.917  10.642   1.886  0.4079 -0.0912 -0.5664
 1611SOL    HW1 8110   4.908  10.737   1.875 -0.9052 -0.0468  0.6196
 1611SOL    HW2 8111   4.838  10.606   1.845  1.4434 -0.7861 -2.0334
 1612SOL     OW 8112   0.433   0.847   1.065  0.0717  0.2079  0.5523
 1612SOL    HW1 8113   0.340   0.866   1.050 -0.0839 -0.4004  0.6874
 1612SOL    HW2 8114   0.460   0.911   1.130 -0.2945  0.3117  0.6055
 1613SOL     OW 8115   2.307  10.974   5.807  0.1854 -0.1538  0.7545
 1613SOL    HW1 8116   2.382  10.914   5.815 -0.9368 -1.4968  1.7579
 1613SOL    HW2 8117   2.248  10.947   5.877 -0.4246  2.1098  1.1819
 1614SOL     OW 8118   9.638   5.582   9.671 -0.6346 -0.4997  0.5705
 1614SOL    HW1 8119   9.687   5.657   9.704 -2.2802  1.3044 -0.8501
 1614SOL    HW2 8120   9.565   5.572   9.733  0.1737 -1.6852  1.3725
 1615SOL     OW 8121   1.913   3.685   6.657  0.0052  0.2440 -0.9551
 1615SOL    HW1 8122   1.827   3.643   6.654 -0.9573  1.9801  0.3797
 1615SOL    HW2 8123   1.895   3.774   6.686  2.3156  0.5222 -0.1646
 1616SOL     OW 8124   5.554   9.336   5.206 -0.4079 -0.9526 -0.0006
 1616SOL    HW1 8125   5.575   9.413   5.260  0.6533 -1.8409  0.8969
 1616SOL    HW2 8126   5.605   9.348   5.126  0.1948 -0.9832  0.3725
 1617SOL     OW 8127   7.426   5.827   3.036 -0.2690 -0.1332 -0.1698
 1617SOL    HW1 8128   7.482   5.900   3.061  0.9195 -1.0498 -0.0125
 1617SOL    HW2 8129   7.355   5.827   3.100 -0.1516  0.7370 -0.0362
 1618SOL     OW 8130   4.803   2.260  10.479  0.3075 -0.3978  0.2227
 1618SOL    HW1 8131   4.784   2.343  10.434  1.4073  1.1715  2.4407
 1618SOL    HW2 8132   4.897   2.248  10.468  0.5466 -0.1218  1.7796
 1619SOL     OW 8133  10.801   0.460   9.173 -0.1022  0.0126 -0.6088
 1619SOL    HW1 8134  10.843   0.458   9.088  0.3590  0.3318 -0.3882
 1619SOL    HW2 8135  10.828   0.543   9.212  0.4600 -0.5491  0.2323
 1620SOL     OW 8136   5.875   5.530   9.552 -0.4825 -0.0414 -0.0076
 1620SOL    HW1 8137   5.832   5.595   9.608 -0.1121  1.3288 -1.2488
 1620SOL    HW2 8138   5.907   5.464   9.612  1.1587  2.0786  1.5842
 1621SOL     OW 8139  11.206  10.253   3.489 -0.6740 -0.3645 -0.4574
 1621SOL    HW1 8140  11.145  10.211   3.429  0.5352 -1.6422 -0.8663
 1621SOL    HW2 8141  11.293  10.226   3.458  0.0514  0.2713  0.8996
 1622SOL     OW 8142   9.335   6.403   7.836  0.4942  0.2025 -0.3020
 1622SOL    HW1 8143   9.414   6.368   7.878 -0.7657 -0.6766  1.4447
 1622SOL    HW2 8144   9.270   6.406   7.906 -1.5439 -0.6960 -2.0531
 1623SOL     OW 8145   2.403   9.480   4.132  0.3178 -0.3450 -0.2488
 1623SOL    HW1 8146   2.407   9.564   4.085  1.9471 -0.2305  0.0598
 1623SOL    HW2 8147   2.381   9.504   4.222 -0.1026 -0.3317 -0.3534
 1624SOL     OW 8148   3.237   8.235   9.358  0.1032  0.4675  0.2292
 1624SOL    HW1 8149   3.271   8.222   9.447 -0.3150 -0.7840  0.2293
 1624SOL    HW2 8150   3.147   8.204   9.361  0.5503 -1.1352 -0.9812
 1625SOL     OW 8151   2.206   6.925   2.674 -0.0454  0.3953  0.6474
 1625SOL    HW1 8152   2.287   6.874   2.674  0.8208  1.7385  0.7858
 1625SOL    HW2 8153   2.228   7.005   2.721 -1.8570  0.1742  2.0002
 1626SOL     OW 8154   6.549   3.416   0.716  0.2695 -0.4209  0.4386
 1626SOL    HW1 8155   6.508   3.502   0.706  0.0769 -0.5672 -0.0595
 1626SOL    HW2 8156   6.476   3.356   0.733  0.3232 -0.5928  0.0931
 1627SOL     OW 8157   9.825   6.846   7.880 -0.3032  0.1516 -0.1759
 1627SOL    HW1 8158   9.833   6.760   7.839  2.0281  1.5886 -3.0857
 1627SOL    HW2 8159   9.762   6.893   7.825 -1.1909  0.5498  1.1072
 1628SOL     OW 8160  10.886   2.539   1.406 -0.1511 -0.1058  0.0063
 1628SOL    HW1 8161  10.792   2.539   1.389  0.0253 -2.3917 -1.5101
 1628SOL    HW2 8162  10.894   2.560   1.499 -2.0025  1.9090 -0.2396
 1629SOL     OW 8163   1.336   2.078   4.286  0.5791 -0.7108 -0.2765
 1629SOL    HW1 8164   1.317   2.012   4.352 -0.6334  0.7738  0.9505
 1629SOL    HW2 8165   1.411   2.126   4.320 -1.1874  1.2881  1.1272
 1630SOL     OW 8166   5.577   5.233  10.722  0.0236  0.0110  0.2274
 1630SOL    HW1 8167   5.671   5.221  10.708  0.4020  1.3839  1.3024
 1630SOL    HW2 8168   5.559   5.184  10.803  0.2503  1.2686  1.0796
 1631SOL     OW 8169   6.009   4.840   5.692  0.2234 -0.5435 -0.8930
 1631SOL    HW1 8170   5.992   4.832   5.786  1.9337 -0.2388 -0.5290
 1631SOL    HW2 8171   5.999   4.934   5.674  1.0423 -0.4287 -0.7672
 1632SOL     OW 8172   1.165   6.634   1.223 -0.0034  0.0638  0.8838
 1632SOL    HW1 8173   1.218   6.697   1.271 -0.0201 -0.5256  1.7065
 1632SOL    HW2 8174   1.201   6.548   1.248  0.8994 -0.2397 -1.2497
 1633SOL     OW 8175   5.798   9.467   1.727 -0.0149 -0.4387  0.2447
 1633SOL    HW1 8176   5.729   9.407   1.700  0.2266 -0.3989 -0.4691
 1633SOL    HW2 8177   5.811   9.448   1.820 -0.1347 -1.2940  0.0940
 1634SOL     OW 8178   6.655   1.673   9.245  0.1381  0.7471 -0.2673
 1634SOL    HW1 8179   6.645   1.678   9.150 -0.3555  1.6544 -0.1853
 1634SOL    HW2 8180   6.567   1.651   9.277  0.3479  0.2317 -0.0245
 1635SOL     OW 8181   6.206   1.252   5.799  0.3123  0.4538  0.1110
 1635SOL    HW1 8182   6.226   1.251   5.705 -0.1725  0.6464 -0.0001
 1635SOL    HW2 8183   6.110   1.260   5.802  0.2741 -0.1994  0.6191
 1636SOL     OW 8184   7.533  10.410   0.445  0.6449 -0.6713  0.0229
 1636SOL    HW1 8185   7.544  10.494   0.400  0.0113  0.1106  1.2460
 1636SOL    HW2 8186   7.622  10.378   0.459  0.8957 -0.1915 -0.4551
 1637SOL     OW 8187   0.978   7.394   5.449  0.1258 -1.2934  0.7399
 1637SOL    HW1 8188   0.986   7.410   5.355 -0.9845 -2.5007  0.3988
 1637SOL    HW2 8189   1.010   7.474   5.490  0.4166 -0.6489 -0.6664
 1638SOL     OW 8190   1.235   7.337   1.620 -0.3807  0.0957  0.3306
 1638SOL    HW1 8191   1.178   7.260   1.629 -1.8219  0.9045 -1.2485
 1638SOL    HW2 8192   1.245   7.348   1.525  0.7821  1.1654  0.5566
 1639SOL     OW 8193   3.084   0.793   4.156 -0.0260  0.3358 -0.8872
 1639SOL    HW1 8194   3.004   0.831   4.120  0.4158  2.0105 -0.2079
 1639SOL    HW2 8195   3.151   0.860   4.142  0.9995 -0.5517 -0.3971
 1640SOL     OW 8196   8.812   3.959   5.370  0.0391 -0.0366  0.1144
 1640SOL    HW1 8197   8.905   3.981   5.376 -0.3753  1.5871  1.4528
 1640SOL    HW2 8198   8.781   4.005   5.292  0.4339 -0.9475 -0.5906
 1641SOL     OW 8199   1.748   5.526   0.680 -0.4225 -0.4326  0.5509
 1641SOL    HW1 8200   1.764   5.441   0.720 -1.2375 -0.9411 -0.1489
 1641SOL    HW2 8201   1.652   5.531   0.672 -0.3592  0.3307  0.1270
 1642SOL     OW 8202   6.060   5.826   2.297 -0.1448  0.0106 -0.0244
 1642SOL    HW1 8203   5.993   5.842   2.364  1.2862  0.7587  1.2957
 1642SOL    HW2 8204   6.122   5.898   2.307  1.3684 -1.1631 -0.5527
 1643SOL     OW 8205   4.202   8.074   0.646 -0.1235 -0.4557  0.2822
 1643SOL    HW1 8206   4.225   7.991   0.603  0.4874 -1.0940  1.7509
 1643SOL    HW2 8207   4.238   8.142   0.589 -0.6656 -1.1778 -0.9731
 1644SOL     OW 8208   4.747   8.534   9.174  0.5023  0.3889  0.2384
 1644SOL    HW1 8209   4.793   8.584   9.241  1.7729 -0.8374  0.3348
 1644SOL    HW2 8210   4.801   8.543   9.096  0.3926 -0.2880  0.0804
 1645SOL     OW 8211   1.105  11.186   9.671 -0.3934 -0.0084 -0.1696
 1645SOL    HW1 8212   1.101  11.193   9.576 -1.0698  2.8150 -0.0273
 1645SOL    HW2 8213   1.198  11.180   9.691 -0.2150 -0.0983 -1.0010
 1646SOL     OW 8214   0.540   6.142   0.612  0.1379  0.3308  0.0595
 1646SOL    HW1 8215   0.503   6.230   0.616 -1.8564 -0.4610  0.0815
 1646SOL    HW2 8216   0.501   6.096   0.686  0.9551 -0.6548 -0.0969
 1647SOL     OW 8217   0.247   6.300   6.468  0.4017  0.3403 -0.2964
 1647SOL    HW1 8218   0.305   6.339   6.403  0.7888  0.5874  0.1897
 1647SOL    HW2 8219   0.277   6.210   6.476  1.1292  0.6288  0.3979
 1648SOL     OW 8220   9.339   5.292   9.984 -0.3276 -0.2176  0.1825
 1648SOL    HW1 8221   9.337   5.372   9.930  2.2081 -0.3134 -0.1725
 1648SOL    HW2 8222   9.298   5.226   9.928  2.5428 -0.3979 -1.9275
 1649SOL     OW 8223   6.282  10.465   3.763  0.1421 -0.4076  0.1835
 1649SOL    HW1 8224   6.337  10.516   3.703 -0.8748  0.0315 -0.3944
 1649SOL    HW2 8225   6.201  10.450   3.715  0.3671 -2.5446  0.3706
 1650SOL     OW 8226  11.225   6.846   6.048  0.5091  0.4804 -0.0370
 1650SOL    HW1 8227  11.273   6.865   5.967  0.0908 -0.2637 -0.4760
 1650SOL    HW2 8228  11.254   6.757   6.072  0.1495  0.4438  0.2756
 1651SOL     OW 8229   6.749   9.015   1.787 -0.1874 -0.2865  0.6011
 1651SOL    HW1 8230   6.768   8.969   1.869  0.3432 -1.3047 -0.0839
 1651SOL    HW2 8231   6.687   8.959   1.741  2.1678 -1.5434 -1.2670
 1652SOL     OW 8232   7.316  11.080   8.988  0.1421 -0.4141  0.2529
 1652SOL    HW1 8233   7.284  11.133   8.915  0.7838  0.7850  0.8150
 1652SOL    HW2 8234   7.355  11.003   8.946  2.0011  1.0275 -0.8426
 1653SOL     OW 8235   0.402   4.026   8.671  0.2972  0.3522  0.4480
 1653SOL    HW1 8236   0.359   4.033   8.756 -0.2507 -0.3437  0.2416
 1653SOL    HW2 8237   0.380   4.107   8.625 -0.4175  0.2063  0.5253
 1654SOL     OW 8238  10.380   2.375   1.520  0.0516 -0.1793  0.4182
 1654SOL    HW1 8239  10.442   2.313   1.481 -0.7811 -0.8093  0.0759
 1654SOL    HW2 8240  10.313   2.320   1.560 -1.1136  0.4921 -0.5519
 1655SOL     OW 8241   4.966  10.542   3.577 -0.0883  0.6984  0.0703
 1655SOL    HW1 8242   4.932  10.608   3.638 -0.7048 -0.0017  0.4965
 1655SOL    HW2 8243   5.037  10.587   3.531 -1.1623  1.9901 -0.3982
 1656SOL     OW 8244  10.074   7.609   9.645 -0.0209 -0.0376 -0.1599
 1656SOL    HW1 8245  10.151   7.662   9.623  0.1618 -0.5311 -0.7316
 1656SOL    HW2 8246  10.049   7.638   9.732  0.2955  0.7382 -0.3187
 1657SOL     OW 8247   4.831   9.334   4.562  0.0237 -0.6235 -0.4247
 1657SOL    HW1 8248   4.913   9.372   4.592  0.4493 -0.1900 -2.0430
 1657SOL    HW2 8249   4.808   9.270   4.630  0.4742  0.8622  1.2184
 1658SOL     OW 8250   8.637   1.283   0.141 -0.2311  0.5034  0.5754
 1658SOL    HW1 8251   8.662   1.193   0.160 -0.7286 -0.0245 -1.0868
 1658SOL    HW2 8252   8.712   1.335   0.168  1.7993 -0.7978 -2.1088
 1659SOL     OW 8253   4.654   2.790   6.085 -0.6369  0.8730 -0.4004
 1659SOL    HW1 8254   4.650   2.767   6.178 -1.1286 -0.6022 -0.7596
 1659SOL    HW2 8255   4.742   2.824   6.072 -0.6432  1.3189  0.6551
 1660SOL     OW 8256   3.033   3.643   0.211 -0.1417 -0.2626  0.4297
 1660SOL    HW1 8257   2.987   3.698   0.275 -0.3159  0.2082 -0.0855
 1660SOL    HW2 8258   2.976   3.643   0.135  0.4916 -0.0497 -0.0579
 1661SOL     OW 8259   8.188   6.617   8.820  0.5400  0.4291  0.2943
 1661SOL    HW1 8260   8.120   6.680   8.796 -0.5068 -0.7321  0.1300
 1661SOL    HW2 8261   8.268   6.653   8.781 -0.8000 -0.6295 -4.0412
 1662SOL     OW 8262   8.436   9.229   6.061 -0.0562  0.4883  0.4550
 1662SOL    HW1 8263   8.420   9.323   6.066 -1.1802  0.4312 -1.4302
 1662SOL    HW2 8264   8.446   9.211   5.968 -1.8455 -1.5663  0.5930
 1663SOL     OW 8265   0.511   8.953   9.751  0.1326  0.1778 -0.0136
 1663SOL    HW1 8266   0.562   8.964   9.831  0.2824 -1.8621  0.2314
 1663SOL    HW2 8267   0.575   8.960   9.680  0.4469 -0.4755  0.1947
 1664SOL     OW 8268  10.013   0.724   6.991  0.1910 -0.1664  0.4197
 1664SOL    HW1 8269  10.083   0.763   6.939 -1.1067  1.1030 -0.4167
 1664SOL    HW2 8270  10.013   0.632   6.965  0.7829  0.0603 -0.4380
 1665SOL     OW 8271   3.891   3.913   4.457 -0.0034  0.3291  0.3167
 1665SOL    HW1 8272   3.942   3.977   4.406 -0.0932  0.0944 -0.0749
 1665SOL    HW2 8273   3.806   3.910   4.412  0.7149 -1.6879 -1.0067
 1666SOL     OW 8274   2.961   3.123   3.255  0.2650 -0.5936 -0.4773
 1666SOL    HW1 8275   3.014   3.063   3.307 -1.4273  0.0099  2.1438
 1666SOL    HW2 8276   2.882   3.073   3.233 -0.7680  0.3298  0.9752
 1667SOL     OW 8277   9.390   1.559   2.121 -0.6647  0.0953 -0.0229
 1667SOL    HW1 8278   9.369   1.634   2.065 -0.4514  0.7739  0.7824
 1667SOL    HW2 8279   9.342   1.486   2.083 -0.4169  0.5138 -1.1634
 1668SOL     OW 8280   1.663   0.113   8.362  0.1412  0.1057 -0.1745
 1668SOL    HW1 8281   1.595   0.180   8.355 -0.4447 -0.4769 -0.1877
 1668SOL    HW2 8282   1.679   0.085   8.272  1.5744  1.3632 -0.3526
 1669SOL     OW 8283  11.348  11.380   3.856 -0.3032 -0.1188 -0.0330
 1669SOL    HW1 8284  11.404  11.455   3.876 -0.8886  0.0602  0.9990
 1669SOL    HW2 8285  11.277  11.416   3.802 -0.8313  0.1759  0.8407
 1670SOL     OW 8286   0.344   8.996   4.979 -0.0042 -0.5965 -0.2224
 1670SOL    HW1 8287   0.279   8.947   4.928 -0.7647  1.8404 -1.7835
 1670SOL    HW2 8288   0.426   8.986   4.929  0.3784 -1.9723  0.6319
 1671SOL     OW 8289   1.748   9.478   5.117 -0.2186 -0.7301  0.5088
 1671SOL    HW1 8290   1.819   9.534   5.088 -0.3154 -1.3944 -1.0812
 1671SOL    HW2 8291   1.691   9.535   5.168  1.1419 -0.0610  1.3344
 1672SOL     OW 8292   8.708   0.124   4.684 -0.1747 -0.2951  0.4377
 1672SOL    HW1 8293   8.652   0.048   4.698 -0.2039  0.0297  2.2438
 1672SOL    HW2 8294   8.691   0.181   4.759  0.4772  1.1232 -0.4423
 1673SOL     OW 8295   5.511  10.994   0.719  0.3541  0.1107 -0.1771
 1673SOL    HW1 8296   5.496  11.021   0.629  1.3799 -2.5539 -1.2491
 1673SOL    HW2 8297   5.585  11.047   0.749 -0.2698  1.3194 -0.6876
 1674SOL     OW 8298   3.192   2.264   2.973 -0.0159  0.3844  0.5450
 1674SOL    HW1 8299   3.278   2.298   2.998  0.9252 -0.9399 -0.7237
 1674SOL    HW2 8300   3.170   2.312   2.893  0.5597 -0.7718 -0.3319
 1675SOL     OW 8301   6.876   6.253   4.158 -0.3822 -0.2116 -0.4540
 1675SOL    HW1 8302   6.810   6.319   4.135 -0.4041  0.0585  0.3535
 1675SOL    HW2 8303   6.826   6.182   4.198 -0.3792 -0.8085 -1.4885
 1676SOL     OW 8304   8.745   4.539   8.322 -0.5281  0.3665  0.0598
 1676SOL    HW1 8305   8.767   4.469   8.260 -0.8134 -2.2505  2.6772
 1676SOL    HW2 8306   8.831   4.573   8.350 -0.4057  2.1783 -2.2517
 1677SOL     OW 8307   2.854   0.174   2.710  0.3050  0.5042  0.3248
 1677SOL    HW1 8308   2.834   0.265   2.689 -0.3404  0.5855  1.2340
 1677SOL    HW2 8309   2.796   0.123   2.654  1.1695  0.6153 -0.7096
 1678SOL     OW 8310   4.804  10.432   1.413  0.2588 -0.1471 -0.6646
 1678SOL    HW1 8311   4.799  10.523   1.383 -2.9788 -0.0507 -0.2288
 1678SOL    HW2 8312   4.885  10.398   1.376  0.2609  2.1552 -3.0381
 1679SOL     OW 8313   0.191   2.153   4.364  0.4792  0.3040  0.4011
 1679SOL    HW1 8314   0.198   2.126   4.456  1.2425  1.3525  0.6846
 1679SOL    HW2 8315   0.268   2.210   4.351  0.3309  0.2331 -0.8621
 1680SOL     OW 8316   7.426   3.417   2.200 -0.2959  0.5529 -0.1714
 1680SOL    HW1 8317   7.481   3.484   2.159  0.5618 -0.3440 -0.5432
 1680SOL    HW2 8318   7.345   3.418   2.149  0.0917  0.6476 -0.7997
 1681SOL     OW 8319   1.612  10.410   6.117 -0.0697  0.1012 -0.4115
 1681SOL    HW1 8320   1.631  10.499   6.150  1.4538 -0.5488  0.6200
 1681SOL    HW2 8321   1.525  10.390   6.151 -1.7280  2.2435 -3.0662
 1682SOL     OW 8322   3.811   8.100   7.419 -0.1222  0.6733  0.0706
 1682SOL    HW1 8323   3.716   8.103   7.413 -0.0040  0.6566 -2.9348
 1682SOL    HW2 8324   3.832   8.007   7.423 -0.2154  0.6916  2.0143
 1683SOL     OW 8325   5.514   3.778   5.404  0.5977  0.3324 -0.0962
 1683SOL    HW1 8326   5.485   3.862   5.439  0.3094 -0.0907  0.6977
 1683SOL    HW2 8327   5.587   3.752   5.460 -0.4620 -0.7904  0.8204
 1684SOL     OW 8328   5.523   6.319   9.389  0.1295  0.1332  0.3772
 1684SOL    HW1 8329   5.550   6.409   9.372  1.7182 -0.6115 -1.4723
 1684SOL    HW2 8330   5.596   6.281   9.438  0.8814 -0.9228 -1.4828
 1685SOL     OW 8331  11.001   8.305   9.709 -0.1686 -0.5074 -0.2156
 1685SOL    HW1 8332  11.074   8.318   9.648 -0.5024 -0.3981 -0.5939
 1685SOL    HW2 8333  10.989   8.210   9.713 -0.6099 -0.4859 -0.8772
 1686SOL     OW 8334   4.737  10.618   9.363 -0.1889  0.3051  0.4130
 1686SOL    HW1 8335   4.654  10.665   9.363 -0.1241  0.5004 -1.5622
 1686SOL    HW2 8336   4.801  10.682   9.392 -0.3411  0.9736 -0.6857
 1687SOL     OW 8337   5.966   1.427  11.257  0.0332 -0.0251 -0.0213
 1687SOL    HW1 8338   5.936   1.351  11.208  0.2063 -0.4638  0.5360
 1687SOL    HW2 8339   5.990   1.491  11.190  2.2977 -1.3722 -0.6267
 1688SOL     OW 8340   4.000   1.549  10.100 -0.4828  0.1732  0.0096
 1688SOL    HW1 8341   4.054   1.500  10.037  1.8522  0.2916  1.7688
 1688SOL    HW2 8342   4.049   1.630  10.115 -1.7746  0.8281  0.8304
 1689SOL     OW 8343  10.659   5.936   7.146 -0.0201  0.3229 -0.3071
 1689SOL    HW1 8344  10.686   6.005   7.207  2.3713 -0.8954  0.1531
 1689SOL    HW2 8345  10.643   5.981   7.064 -2.2128  1.8644  0.8706
 1690SOL     OW 8346   1.841  10.418   7.922 -0.2781  0.3037  0.5881
 1690SOL    HW1 8347   1.893  10.446   7.996 -0.4282  1.2873  0.3279
 1690SOL    HW2 8348   1.904  10.405   7.851 -0.2626  0.4580  0.5734
 1691SOL     OW 8349   8.658   8.209   2.615  0.3791  0.3420 -0.0272
 1691SOL    HW1 8350   8.570   8.196   2.578 -0.1737  2.6990  0.2678
 1691SOL    HW2 8351   8.645   8.197   2.710  0.5152  0.0619 -0.0442
 1692SOL     OW 8352   0.163  10.016   5.510 -0.0970 -0.4114 -0.2529
 1692SOL    HW1 8353   0.148   9.948   5.576 -1.3853  0.2738  0.1918
 1692SOL    HW2 8354   0.082  10.067   5.510 -0.0701 -0.3050 -2.2717
 1693SOL     OW 8355   7.973   3.381   5.663 -0.0153 -0.0302  0.0423
 1693SOL    HW1 8356   7.969   3.371   5.568 -1.2750 -2.2588  0.2568
 1693SOL    HW2 8357   8.062   3.353   5.687  0.1268  0.0063 -0.4398
 1694SOL     OW 8358   2.305   4.790   0.782 -0.1244  0.1583 -0.0821
 1694SOL    HW1 8359   2.283   4.787   0.689 -0.5332 -0.3060  0.0265
 1694SOL    HW2 8360   2.232   4.747   0.826 -0.1511  0.7747  0.4987
 1695SOL     OW 8361   2.862   4.930   3.527  0.0641 -0.3071 -0.1621
 1695SOL    HW1 8362   2.832   4.896   3.443 -0.4144 -0.7826  0.1910
 1695SOL    HW2 8363   2.924   4.864   3.559 -1.6971 -1.4769  1.0414
 1696SOL     OW 8364   2.775   8.615   0.456 -0.0294 -0.3849  0.2388
 1696SOL    HW1 8365   2.858   8.644   0.416 -0.1658  1.7874  1.4291
 1696SOL    HW2 8366   2.797   8.531   0.496  0.8651 -1.1927 -1.7614
 1697SOL     OW 8367   4.923   5.503   9.405 -0.1670 -0.0189  0.1041
 1697SOL    HW1 8368   4.899   5.481   9.315  1.2565 -1.8843  0.0931
 1697SOL    HW2 8369   4.882   5.434   9.458  0.9693 -0.3397  0.5935
 1698SOL     OW 8370   5.553   8.863   7.047 -0.1807 -0.7236  0.0449
 1698SOL    HW1 8371   5.524   8.803   6.979 -0.0866 -1.2101  0.4286
 1698SOL    HW2 8372   5.483   8.861   7.112 -0.2410 -0.3132 -0.0063
 1699SOL     OW 8373   7.149   9.808   4.510 -0.2897  0.2032 -0.0174
 1699SOL    HW1 8374   7.089   9.834   4.579  0.3928 -0.3052  0.7950
 1699SOL    HW2 8375   7.117   9.723   4.481  0.5552 -0.5243  1.0880
 1700SOL     OW 8376   0.811   0.833   2.447  0.0582 -0.7405 -0.2532
 1700SOL    HW1 8377   0.760   0.794   2.518  0.8019 -1.0223  0.1369
 1700SOL    HW2 8378   0.899   0.843   2.483 -0.3693  2.6847  0.1833
 1701SOL     OW 8379   9.187   6.931   3.136 -0.6787  0.0331 -0.5421
 1701SOL    HW1 8380   9.230   6.957   3.218  0.0799 -0.3641 -0.8042
 1701SOL    HW2 8381   9.198   7.007   3.079 -1.4420  0.4138 -0.1996
 1702SOL     OW 8382   1.567   0.398  10.104 -0.1027  0.1662 -0.0461
 1702SOL    HW1 8383   1.487   0.351  10.127 -1.1033  0.2326 -2.9356
 1702SOL    HW2 8384   1.564   0.404  10.008  2.0382  2.5652 -0.0587
 1703SOL     OW 8385   5.170  10.141   4.481  0.2236  0.2165 -0.0104
 1703SOL    HW1 8386   5.132  10.128   4.568 -1.1296  2.2216 -0.2285
 1703SOL    HW2 8387   5.095  10.147   4.423  1.1215 -1.7316 -1.4993
 1704SOL     OW 8388   8.522   2.667   3.018 -0.0557 -1.2189  0.2325
 1704SOL    HW1 8389   8.543   2.575   3.031 -1.3312 -1.6944 -0.7904
 1704SOL    HW2 8390   8.585   2.696   2.951 -0.7042 -1.8268 -0.6705
 1705SOL     OW 8391   7.523   9.580   3.702 -0.1528  0.2545 -0.2214
 1705SOL    HW1 8392   7.491   9.634   3.774 -1.6026 -1.3780  0.4353
 1705SOL    HW2 8393   7.600   9.627   3.669  0.1206  1.4266  1.9005
 1706SOL     OW 8394   2.584   2.189   0.576  0.6589 -0.6996  0.0409
 1706SOL    HW1 8395   2.641   2.246   0.525  1.0702 -1.2942 -0.1751
 1706SOL    HW2 8396   2.558   2.243   0.651  0.2108  0.1100 -0.6808
 1707SOL     OW 8397  10.224   3.508   3.649  0.0453 -0.2304 -0.0589
 1707SOL    HW1 8398  10.206   3.415   3.640 -0.2666 -0.1457 -0.3287
 1707SOL    HW2 8399  10.217   3.524   3.744 -2.1490 -0.0592 -0.1896
 1708SOL     OW 8400   1.913   3.947   7.293 -0.4876 -0.4657  0.4152
 1708SOL    HW1 8401   1.992   3.981   7.252 -0.8863  1.1863  0.9087
 1708SOL    HW2 8402   1.867   4.026   7.324 -4.5167 -0.7817 -3.6069
 1709SOL     OW 8403   3.538  10.684   4.507  0.0253 -0.5387 -0.3278
 1709SOL    HW1 8404   3.602  10.618   4.534 -0.2991 -0.6829  0.0887
 1709SOL    HW2 8405   3.568  10.711   4.420  0.5499 -0.7355 -0.2145
 1710SOL     OW 8406   4.779   8.294   4.675  0.7443  0.2434 -0.1697
 1710SOL    HW1 8407   4.684   8.288   4.669  0.7732  0.8218 -3.5078
 1710SOL    HW2 8408   4.803   8.237   4.748 -2.1950  1.1313  1.6382
 1711SOL     OW 8409   6.273   8.510   8.333  0.0778 -0.2406 -0.0541
 1711SOL    HW1 8410   6.307   8.568   8.266 -0.0450  0.7988  0.7509
 1711SOL    HW2 8411   6.178   8.521   8.328  0.1164  0.8878  1.1554
 1712SOL     OW 8412   3.056   6.810  11.022 -0.1401 -0.1463 -0.1543
 1712SOL    HW1 8413   3.117   6.862  10.971  0.0856  1.3332  1.5450
 1712SOL    HW2 8414   3.108   6.736  11.055  0.2127 -0.0059 -0.3959
 1713SOL     OW 8415   1.113   0.258   4.819  0.2782  0.1979 -0.3951
 1713SOL    HW1 8416   1.181   0.204   4.778  0.3310  0.3774 -0.5448
 1713SOL    HW2 8417   1.156   0.299   4.894 -0.1644 -1.1637  0.6410
 1714SOL     OW 8418   6.153   9.122   3.733 -0.3378 -0.2296  0.3348
 1714SOL    HW1 8419   6.134   9.089   3.820  3.3121  0.9588  1.7985
 1714SOL    HW2 8420   6.156   9.044   3.678 -0.8414 -1.2437  1.6982
 1715SOL     OW 8421   7.934  10.426   9.619 -0.1011  1.0883  0.0643
 1715SOL    HW1 8422   7.965  10.349   9.571 -0.0139  1.0237  0.2223
 1715SOL    HW2 8423   8.002  10.491   9.606  1.6100  0.0191  2.8456
 1716SOL     OW 8424   8.186   5.628   8.704  0.4987  0.1812  0.4260
 1716SOL    HW1 8425   8.222   5.617   8.792 -0.5980 -0.2799  0.8341
 1716SOL    HW2 8426   8.185   5.723   8.690  0.3878  0.2739  1.0359
 1717SOL     OW 8427   7.541   1.268   0.546 -0.0503  0.4844  0.0882
 1717SOL    HW1 8428   7.618   1.270   0.602 -0.0881  0.2291  0.1495
 1717SOL    HW2 8429   7.467   1.260   0.606 -0.1289  0.7702  0.0325
 1718SOL     OW 8430   1.815   4.381   8.000 -0.3588  0.1331  0.2657
 1718SOL    HW1 8431   1.887   4.436   8.031 -0.1664  0.9041 -1.4141
 1718SOL    HW2 8432   1.737   4.437   8.007 -0.3823  0.1650 -0.2119
 1719SOL     OW 8433  10.205   5.696   0.990 -0.3813 -0.3421  1.1167
 1719SOL    HW1 8434  10.232   5.781   1.024 -1.9166  0.5320  0.2445
 1719SOL    HW2 8435  10.110   5.699   0.990 -0.4889 -0.8738 -1.7430
 1720SOL     OW 8436   6.599   6.002   9.639  0.2491 -0.3233  0.2211
 1720SOL    HW1 8437   6.651   6.048   9.705  2.3793 -0.2696 -1.4102
 1720SOL    HW2 8438   6.588   5.913   9.675  1.9568 -0.4981  0.3985
 1721SOL     OW 8439   9.479   1.314   4.135  0.4951  0.8075  0.2032
 1721SOL    HW1 8440   9.432   1.300   4.217 -0.5000 -2.4296 -0.7624
 1721SOL    HW2 8441   9.420   1.367   4.082  0.1208  0.9705  0.7723
 1722SOL     OW 8442   6.197  11.394  11.161  0.3949  0.5169  0.2353
 1722SOL    HW1 8443   6.145  11.467  11.195  0.3213 -0.1782  1.6918
 1722SOL    HW2 8444   6.214  11.417  11.070 -0.6979  1.7451  0.3138
 1723SOL     OW 8445   5.560   0.809   5.494 -0.1090  0.4661 -0.1027
 1723SOL    HW1 8446   5.530   0.767   5.414 -4.0293 -0.8010  1.7708
 1723SOL    HW2 8447   5.545   0.903   5.480  0.3899  0.3903 -1.2167
 1724SOL     OW 8448   0.639   1.919   9.614 -0.2270  0.5240 -0.5934
 1724SOL    HW1 8449   0.645   1.942   9.521  1.7639  0.2237 -0.5744
 1724SOL    HW2 8450   0.688   1.837   9.622  2.3360  2.0785  1.1894
 1725SOL     OW 8451   6.456   6.592   9.736  0.2110 -0.1926  0.4689
 1725SOL    HW1 8452   6.538   6.626   9.773  0.6073 -0.7719  0.1291
 1725SOL    HW2 8453   6.481   6.512   9.690 -0.3004  0.4181 -0.9235
 1726SOL     OW 8454   9.118   3.060   8.985  0.3367  0.5155  0.2932
 1726SOL    HW1 8455   9.091   3.069   8.894  1.2229  1.1417  0.0864
 1726SOL    HW2 8456   9.089   2.972   9.010  0.4145  0.1973 -0.7045
 1727SOL     OW 8457   3.292   7.018   5.086 -0.5363 -0.2741  0.2154
 1727SOL    HW1 8458   3.337   6.960   5.148  0.1699 -1.1479 -1.0613
 1727SOL    HW2 8459   3.306   7.106   5.121 -0.4526 -0.7667  1.4724
 1728SOL     OW 8460   4.788   4.693  10.058  0.2876  0.4217 -0.1484
 1728SOL    HW1 8461   4.705   4.667  10.097  1.8205 -0.4396  2.7992
 1728SOL    HW2 8462   4.823   4.759  10.118  2.3803 -0.3279 -0.4639
 1729SOL     OW 8463   0.499   8.443  10.153  0.3140  0.2135 -0.1257
 1729SOL    HW1 8464   0.560   8.377  10.119  0.0508  0.2350 -0.6458
 1729SOL    HW2 8465   0.434   8.392  10.202  0.2646  0.1153 -0.2941
 1730SOL     OW 8466   9.210  10.093   5.348  0.1564  0.7301  0.1373
 1730SOL    HW1 8467   9.123  10.061   5.375  0.1254  1.3257  0.7597
 1730SOL    HW2 8468   9.226  10.168   5.404  0.6727  1.2010 -0.6287
 1731SOL     OW 8469   7.126   0.503   9.402 -0.5303  0.5418  0.7887
 1731SOL    HW1 8470   7.194   0.438   9.386 -0.7336  1.0344 -2.7753
 1731SOL    HW2 8471   7.044   0.453   9.401 -0.5314  0.5468  0.2391
 1732SOL     OW 8472   5.174   7.692  11.070 -0.1331  1.1117 -0.3750
 1732SOL    HW1 8473   5.210   7.616  11.025 -2.6822  0.0708 -0.8656
 1732SOL    HW2 8474   5.204   7.683  11.160  0.9264  0.4321 -0.7753
 1733SOL     OW 8475   6.214   9.390   3.691  0.1723 -0.5455  0.1032
 1733SOL    HW1 8476   6.145   9.439   3.734 -0.2511  0.9735 -2.1233
 1733SOL    HW2 8477   6.182   9.300   3.689 -1.1112 -0.1094  0.3254
 1734SOL     OW 8478   0.231   1.235   1.919  0.2909 -0.4615 -0.0325
 1734SOL    HW1 8479   0.234   1.185   2.000  0.2020  1.5966  1.3169
 1734SOL    HW2 8480   0.167   1.304   1.935 -0.1461 -0.3147 -2.0798
 1735SOL     OW 8481   1.260   5.113   1.864  0.1390  0.0549  0.6932
 1735SOL    HW1 8482   1.285   5.082   1.952  0.4286  0.6951  0.8435
 1735SOL    HW2 8483   1.318   5.187   1.848 -0.3925  0.3758  0.2452
 1736SOL     OW 8484   6.885   6.251   7.904 -0.1628 -0.7113 -0.0859
 1736SOL    HW1 8485   6.964   6.247   7.851 -0.5742  0.0192 -0.7848
 1736SOL    HW2 8486   6.819   6.206   7.852 -0.6946  0.4462 -0.4473
 1737SOL     OW 8487   2.869   5.497   0.457  0.1380 -0.2738 -0.2909
 1737SOL    HW1 8488   2.957   5.531   0.440 -1.1389  2.4716 -2.2559
 1737SOL    HW2 8489   2.839   5.546   0.533  0.0198 -0.6080 -0.1216
 1738SOL     OW 8490   8.708   5.129   7.630  0.2422  0.0661  0.1584
 1738SOL    HW1 8491   8.637   5.185   7.601 -1.5482 -2.6464 -1.0347
 1738SOL    HW2 8492   8.766   5.122   7.554  0.5776  0.3956  0.3749
 1739SOL     OW 8493   3.210   3.299   5.803  0.0915  0.5990  0.2865
 1739SOL    HW1 8494   3.218   3.337   5.891  0.0845  1.5584 -0.1176
 1739SOL    HW2 8495   3.132   3.340   5.766 -0.3341 -0.3615  0.0986
 1740SOL     OW 8496   5.484   4.604   8.601  0.3230  0.2649 -0.4223
 1740SOL    HW1 8497   5.534   4.557   8.535 -0.0575  0.9869 -1.2390
 1740SOL    HW2 8498   5.539   4.679   8.624  0.8595 -0.4645  0.7616
 1741SOL     OW 8499   8.690   6.933   0.401 -0.0771  0.3685  0.0928
 1741SOL    HW1 8500   8.676   7.027   0.400 -2.1945  0.1358  1.9070
 1741SOL    HW2 8501   8.620   6.897   0.347 -0.9100 -0.2955  1.5670
 1742SOL     OW 8502  10.176   4.987   6.269 -0.4002 -0.2459 -0.0048
 1742SOL    HW1 8503  10.135   4.907   6.301  1.3617 -1.1443  0.1310
 1742SOL    HW2 8504  10.227   5.019   6.344 -0.3341  0.4779 -0.3500
 1743SOL     OW 8505   7.887   2.148   4.498 -0.1952 -0.3771  0.0291
 1743SOL    HW1 8506   7.887   2.244   4.506  3.9441 -0.1669 -0.6915
 1743SOL    HW2 8507   7.882   2.132   4.403 -1.8252 -1.0137  0.1782
 1744SOL     OW 8508   9.589   9.940   9.481 -0.3342 -0.5975 -0.4690
 1744SOL    HW1 8509   9.578   9.845   9.485 -0.8622 -0.5144  0.0280
 1744SOL    HW2 8510   9.678   9.955   9.514 -0.4820 -0.8670  0.0633
 1745SOL     OW 8511   2.587   3.714  10.492  0.0924  0.7033  0.3903
 1745SOL    HW1 8512   2.549   3.801  10.479  0.2715  0.5960 -1.0564
 1745SOL    HW2 8513   2.513   3.654  10.483 -0.0867  0.7130  1.7111
 1746SOL     OW 8514  11.116   5.363   4.909  0.4774 -0.2456 -0.0347
 1746SOL    HW1 8515  11.032   5.325   4.936  0.2611  1.0775  1.3229
 1746SOL    HW2 8516  11.114   5.361   4.814 -1.2398  0.0226 -0.0413
 1747SOL     OW 8517   3.503   7.187   1.063 -0.3548 -0.3866 -0.4290
 1747SOL    HW1 8518   3.529   7.127   1.134 -0.6526 -1.2534 -1.0358
 1747SOL    HW2 8519   3.416   7.216   1.088 -0.8806 -1.4775 -0.9090
 1748SOL     OW 8520   2.788   3.169   5.023  0.3407 -0.0972 -0.3901
 1748SOL    HW1 8521   2.723   3.163   4.953 -1.0605  0.9681  0.7565
 1748SOL    HW2 8522   2.747   3.125   5.097  1.2150 -0.0022  0.1599
 1749SOL     OW 8523   6.025   9.815   2.604 -0.0126 -0.3158  0.1364
 1749SOL    HW1 8524   6.074   9.743   2.644  1.2493  0.9506  0.9715
 1749SOL    HW2 8525   5.933   9.791   2.615  0.3724 -2.2436 -0.4882
 1750SOL     OW 8526   8.460   1.952  10.062 -0.2415 -0.0356 -0.2547
 1750SOL    HW1 8527   8.540   2.002  10.048 -0.7196  0.6254 -0.7122
 1750SOL    HW2 8528   8.425   1.984  10.145 -0.5734  0.4453 -0.5718
 1751SOL     OW 8529   6.113   5.061   7.915  0.3542 -0.0420  0.0859
 1751SOL    HW1 8530   6.090   4.978   7.958  1.1265  0.1078  0.8082
 1751SOL    HW2 8531   6.093   5.128   7.980 -3.3896  0.7416 -1.5738
 1752SOL     OW 8532   2.962   2.540   9.359  0.1619  0.6175  0.5151
 1752SOL    HW1 8533   2.968   2.576   9.448  2.8527 -1.2683  1.2319
 1752SOL    HW2 8534   2.906   2.463   9.368 -0.9014  1.3319  0.1880
 1753SOL     OW 8535  10.122   6.236   7.639 -0.4792  0.4334 -0.1539
 1753SOL    HW1 8536  10.046   6.290   7.620 -1.0281 -0.2818 -0.0174
 1753SOL    HW2 8537  10.190   6.298   7.665 -1.5656  0.9636  1.5674
 1754SOL     OW 8538   1.303   0.128   1.893 -0.6145  0.6160  0.2037
 1754SOL    HW1 8539   1.309   0.038   1.924 -0.1662  0.8513  0.8373
 1754SOL    HW2 8540   1.260   0.122   1.808  0.5574 -0.3249 -0.3591
 1755SOL     OW 8541   3.860   8.589   0.046  0.1937  0.1693  0.0204
 1755SOL    HW1 8542   3.786   8.530   0.034  1.1938 -0.9280 -1.0883
 1755SOL    HW2 8543   3.906   8.586  -0.038  2.0802 -0.0182  1.0062
 1756SOL     OW 8544   1.763   3.912   6.673 -0.4384 -0.2896  0.5910
 1756SOL    HW1 8545   1.709   3.953   6.606  1.2769  2.1823  0.5986
 1756SOL    HW2 8546   1.705   3.902   6.749 -1.7867 -1.0354 -0.4944
 1757SOL     OW 8547   5.780   5.116   7.691 -0.3453  0.1770  0.2322
 1757SOL    HW1 8548   5.776   5.021   7.701 -0.5499  0.0480 -1.0057
 1757SOL    HW2 8549   5.735   5.150   7.769 -0.7757 -0.7569  0.3981
 1758SOL     OW 8550   8.673   3.848   2.670 -0.0551 -0.1787  0.0079
 1758SOL    HW1 8551   8.589   3.873   2.707  0.2039  0.3291  0.2657
 1758SOL    HW2 8552   8.657   3.763   2.630 -1.1216  0.6884 -1.4869
 1759SOL     OW 8553   5.999   1.190   8.891  1.0143 -0.3265 -0.6362
 1759SOL    HW1 8554   6.059   1.237   8.833 -0.5053  1.3103 -0.9766
 1759SOL    HW2 8555   6.019   1.222   8.978  0.7845  0.0696 -0.7258
 1760SOL     OW 8556   5.412   9.104  10.712  0.5441  0.2789 -0.1224
 1760SOL    HW1 8557   5.392   9.071  10.800  0.6329  0.6593  0.0421
 1760SOL    HW2 8558   5.508   9.097  10.706  0.5792  0.6480 -0.0273
 1761SOL     OW 8559   5.487   2.865   3.206 -0.3950 -0.1505  0.2700
 1761SOL    HW1 8560   5.490   2.926   3.279  1.0931  0.4990 -0.2999
 1761SOL    HW2 8561   5.418   2.898   3.149 -0.7761 -0.0101  0.8103
 1762SOL     OW 8562   8.809   9.209   4.170 -0.1606  0.2431 -0.3076
 1762SOL    HW1 8563   8.769   9.261   4.100 -2.2068 -1.0227 -0.1646
 1762SOL    HW2 8564   8.880   9.161   4.126  0.3609  1.4916 -0.8861
 1763SOL     OW 8565   0.789   3.889  11.248 -0.4269  0.2995  0.4651
 1763SOL    HW1 8566   0.818   3.933  11.328  0.5240 -1.3040  1.0543
 1763SOL    HW2 8567   0.723   3.826  11.277  1.0196 -1.3991  0.3015
 1764SOL     OW 8568  11.041   1.270   6.723  0.3337 -0.1575 -0.6194
 1764SOL    HW1 8569  11.085   1.299   6.803 -0.9337  0.1507 -0.0205
 1764SOL    HW2 8570  11.034   1.175   6.733  0.3845 -0.1472 -0.4862
 1765SOL     OW 8571   8.567   9.974   5.562 -0.5166 -0.1410 -0.3127
 1765SOL    HW1 8572   8.539   9.892   5.604 -1.2887  0.9941  1.5276
 1765SOL    HW2 8573   8.591  10.031   5.635 -2.4368  2.1519 -1.3266
 1766SOL     OW 8574   2.534   6.836   1.843  0.0017  0.0507 -0.6561
 1766SOL    HW1 8575   2.522   6.744   1.870 -0.0335  0.4908  0.9569
 1766SOL    HW2 8576   2.507   6.886   1.920 -1.3276  1.4791 -1.9837
 1767SOL     OW 8577   9.143   2.665   4.245 -0.6429 -0.1715  0.6337
 1767SOL    HW1 8578   9.154   2.702   4.332  0.3030  0.6939  0.1672
 1767SOL    HW2 8579   9.229   2.674   4.203 -1.1563 -0.2815 -0.5009
 1768SOL     OW 8580   8.379   1.287   6.202 -0.1112 -0.5328  0.5110
 1768SOL    HW1 8581   8.431   1.236   6.140  1.0674  0.5499  0.5663
 1768SOL    HW2 8582   8.309   1.228   6.229 -0.8576 -0.9707 -2.0668
 1769SOL     OW 8583   4.242   3.499   7.537 -0.4090 -0.1570  0.2842
 1769SOL    HW1 8584   4.156   3.535   7.515 -0.3364  0.7470  1.3854
 1769SOL    HW2 8585   4.297   3.522   7.462 -0.4009  1.9623  0.8565
 1770SOL     OW 8586   3.592   3.067   5.836  0.5570 -0.3556  0.5147
 1770SOL    HW1 8587   3.564   3.021   5.757  1.2047  1.4569 -0.8429
 1770SOL    HW2 8588   3.687   3.075   5.828  0.5243  0.7289  0.9609
 1771SOL     OW 8589   5.789   6.096   4.103  0.1320 -0.1689 -0.1599
 1771SOL    HW1 8590   5.839   6.015   4.089 -1.6740 -1.6286  1.3080
 1771SOL    HW2 8591   5.698   6.070   4.088 -0.3127  2.4697 -3.0692
 1772SOL     OW 8592   8.611   3.242   3.436  0.3244 -0.1764 -0.8636
 1772SOL    HW1 8593   8.566   3.321   3.466  1.1324 -0.4351  1.1499
 1772SOL    HW2 8594   8.559   3.170   3.472  2.2387 -0.4813  1.5321
 1773SOL     OW 8595   7.263   9.441   8.068 -0.4433 -0.0073 -0.3069
 1773SOL    HW1 8596   7.299   9.353   8.061 -2.4731 -0.9559  0.3862
 1773SOL    HW2 8597   7.334   9.499   8.040  0.7780 -1.8758 -1.2252
 1774SOL     OW 8598   5.768   8.647   2.530  0.3477 -0.4002 -0.0434
 1774SOL    HW1 8599   5.689   8.682   2.490  1.4755  1.4194 -0.8120
 1774SOL    HW2 8600   5.817   8.609   2.458  0.4173 -1.0879  0.3547
 1775SOL     OW 8601   8.340   1.233  10.412  0.4431  0.2783  0.1939
 1775SOL    HW1 8602   8.393   1.295  10.462 -0.6202  2.6107 -1.3692
 1775SOL    HW2 8603   8.404   1.176  10.370  1.5029  0.5954  1.3287
 1776SOL     OW 8604   7.420   4.612  10.920  0.0390  0.3660 -0.2189
 1776SOL    HW1 8605   7.390   4.536  10.972  1.5437 -0.2267 -0.1814
 1776SOL    HW2 8606   7.339   4.655  10.892 -0.8417 -0.9575  0.2056
 1777SOL     OW 8607  11.133   0.548   5.332 -0.5194  0.1667  0.2004
 1777SOL    HW1 8608  11.193   0.556   5.257 -1.6394 -0.1211 -0.7526
 1777SOL    HW2 8609  11.183   0.582   5.406  0.9386 -0.3627 -0.5006
 1778SOL     OW 8610   5.914   9.104   7.112  0.0500 -0.2156 -0.6110
 1778SOL    HW1 8611   5.956   9.033   7.160 -1.5727 -1.2638 -0.6549
 1778SOL    HW2 8612   5.859   9.060   7.047 -1.2818  1.0436 -0.3949
 1779SOL     OW 8613   6.359   1.924   3.414 -0.7729  0.1994  0.2401
 1779SOL    HW1 8614   6.385   1.999   3.467  0.4765  0.3669 -0.5602
 1779SOL    HW2 8615   6.284   1.887   3.460 -1.3199  1.8404  0.7288
 1780SOL     OW 8616   4.358   1.965   0.839  0.4696  0.4927  0.6591
 1780SOL    HW1 8617   4.356   1.965   0.934 -2.1654  2.1042  0.7059
 1780SOL    HW2 8618   4.266   1.963   0.813  1.0795  0.9226 -1.8340
 1781SOL     OW 8619   7.225   7.615  10.395 -0.8414 -0.0721 -0.0766
 1781SOL    HW1 8620   7.306   7.569  10.373 -0.5080  0.2819  0.4037
 1781SOL    HW2 8621   7.164   7.545  10.418 -0.1771 -0.2702  1.1725
 1782SOL     OW 8622   5.921   3.238   8.237  0.5520 -0.3366  0.3179
 1782SOL    HW1 8623   5.833   3.270   8.257  0.1383 -2.0939  1.6918
 1782SOL    HW2 8624   5.928   3.243   8.142 -0.8555  0.2651  0.2229
 1783SOL     OW 8625   1.689   3.813   7.917 -0.1513  0.0058  0.0853
 1783SOL    HW1 8626   1.655   3.778   7.835 -1.2009  1.4813 -0.1441
 1783SOL    HW2 8627   1.630   3.779   7.984  0.2433 -0.5652  0.1500
 1784SOL     OW 8628   1.133   7.934   7.762 -0.9175  0.4011 -0.5532
 1784SOL    HW1 8629   1.045   7.958   7.790 -0.0586  1.2689  1.6230
 1784SOL    HW2 8630   1.191   7.976   7.825  1.0318 -1.1913 -1.1584
 1785SOL     OW 8631   4.864   8.516   2.521 -0.2796 -0.1820  0.1167
 1785SOL    HW1 8632   4.829   8.433   2.552 -0.9078  0.1819  0.4148
 1785SOL    HW2 8633   4.941   8.532   2.575  0.9590 -1.4534 -1.1750
 1786SOL     OW 8634   1.420   3.206   6.516 -0.3848  0.5063 -0.4178
 1786SOL    HW1 8635   1.476   3.270   6.559 -0.8356  0.8553 -0.3317
 1786SOL    HW2 8636   1.371   3.165   6.588 -0.7303  0.6927 -0.5418
 1787SOL     OW 8637   8.079  10.827   8.291  0.0884 -0.0676  0.1756
 1787SOL    HW1 8638   8.066  10.898   8.354 -2.2114  0.2278 -0.5335
 1787SOL    HW2 8639   7.994  10.818   8.248  1.0226 -1.6251 -1.4618
 1788SOL     OW 8640   9.175   7.415   0.890 -0.2288  0.2580 -0.0341
 1788SOL    HW1 8641   9.141   7.373   0.811  0.2592 -1.7216  0.7330
 1788SOL    HW2 8642   9.110   7.395   0.958 -1.0668  2.6457 -0.0464
 1789SOL     OW 8643   3.927   1.087   1.009  0.3076 -0.1273  0.1678
 1789SOL    HW1 8644   3.914   1.150   1.081  1.6736  0.1610  0.1938
 1789SOL    HW2 8645   3.937   1.003   1.053  1.3617  0.0822  0.3385
 1790SOL     OW 8646   0.047  11.217   1.573 -0.4376  0.2528  0.2282
 1790SOL    HW1 8647   0.079  11.192   1.660  2.5465  0.0927 -0.8023
 1790SOL    HW2 8648   0.020  11.135   1.534  1.0714 -0.1704 -0.0094
 1791SOL     OW 8649   6.339   1.306  10.151 -0.1231 -0.1425 -0.3466
 1791SOL    HW1 8650   6.344   1.247  10.225 -0.5776  0.2299 -0.0103
 1791SOL    HW2 8651   6.370   1.390  10.184  1.0137 -0.3073 -0.9576
 1792SOL     OW 8652  10.698   3.160   8.961  0.3820  0.3784 -0.4036
 1792SOL    HW1 8653  10.725   3.196   8.876 -0.3020  1.0186 -0.3677
 1792SOL    HW2 8654  10.726   3.227   9.024 -2.0297  1.5429 -0.4468
 1793SOL     OW 8655  10.869   3.827   2.508 -0.0879 -0.1741 -0.2701
 1793SOL    HW1 8656  10.951   3.778   2.515  0.4532  0.9098  2.7386
 1793SOL    HW2 8657  10.896   3.916   2.486 -0.5111  0.0511  0.0995
 1794SOL     OW 8658   7.919   9.213  10.380 -0.4579 -0.1313  0.1356
 1794SOL    HW1 8659   7.934   9.191  10.472  0.4175  2.4229  0.7081
 1794SOL    HW2 8660   8.007   9.224  10.343 -0.7756 -1.7873 -1.2419
 1795SOL     OW 8661   3.464   9.673  10.858 -0.2995  0.8018 -0.2481
 1795SOL    HW1 8662   3.484   9.766  10.870  3.3275  0.2632 -0.7549
 1795SOL    HW2 8663   3.471   9.660  10.763 -0.4140 -0.0275 -0.1461
 1796SOL     OW 8664   0.907   2.532   7.071 -0.4094 -0.1773  0.3987
 1796SOL    HW1 8665   0.894   2.554   6.978 -0.3691 -0.3805  0.3441
 1796SOL    HW2 8666   0.926   2.438   7.070  1.0774  0.0860  0.4579
 1797SOL     OW 8667   7.787   3.730   1.075 -0.0459  0.3889 -0.3098
 1797SOL    HW1 8668   7.766   3.736   0.982  0.0341  1.2364 -0.2803
 1797SOL    HW2 8669   7.810   3.820   1.101  2.6454 -0.2616 -0.1170
 1798SOL     OW 8670   8.363   3.928   2.304 -0.3966  0.2198  0.4865
 1798SOL    HW1 8671   8.375   3.877   2.224 -1.4913  0.1370  0.3561
 1798SOL    HW2 8672   8.451   3.943   2.337 -0.0407 -1.5375  0.3952
 1799SOL     OW 8673   8.398   5.645   1.025  0.3115  0.3592 -0.4753
 1799SOL    HW1 8674   8.322   5.695   0.996 -1.6142 -1.6042  0.8588
 1799SOL    HW2 8675   8.422   5.593   0.949 -0.0517  0.5533 -0.7303
 1800SOL     OW 8676   9.064   8.593   4.818  0.3294 -0.7849  0.1774
 1800SOL    HW1 8677   8.970   8.585   4.831  0.1178 -0.6095 -1.0485
 1800SOL    HW2 8678   9.082   8.537   4.742  0.8300  0.8100 -0.9301
 1801SOL     OW 8679   5.391   0.878  11.386  0.4807  0.1763 -0.3385
 1801SOL    HW1 8680   5.344   0.833  11.316 -0.7497  1.0397 -0.1045
 1801SOL    HW2 8681   5.357   0.840  11.467  1.6535 -0.5795 -0.1630
 1802SOL     OW 8682   1.655   7.613   8.346 -0.6226 -0.4816 -0.5048
 1802SOL    HW1 8683   1.627   7.633   8.256 -0.1973  0.2727 -0.4789
 1802SOL    HW2 8684   1.732   7.668   8.360 -1.8477  0.9625  1.0142
 1803SOL     OW 8685   2.264   8.979   6.842  0.3006 -0.4946  0.6747
 1803SOL    HW1 8686   2.195   8.916   6.865  0.4168 -1.3998 -1.2405
 1803SOL    HW2 8687   2.333   8.926   6.802 -0.3694  0.9428 -2.7446
 1804SOL     OW 8688   1.668   5.954   2.355  0.2390 -0.1141  0.9467
 1804SOL    HW1 8689   1.621   6.031   2.388 -0.5278  0.1192 -0.6041
 1804SOL    HW2 8690   1.639   5.883   2.413 -0.4981  0.4146  1.2546
 1805SOL     OW 8691   3.326   4.928  11.063  0.3649 -0.0766 -0.6927
 1805SOL    HW1 8692   3.324   4.832  11.064 -0.8310 -0.1326 -2.6071
 1805SOL    HW2 8693   3.417   4.950  11.048  0.5754 -0.9382 -0.7499
 1806SOL     OW 8694   1.138   0.162   8.503  0.2399  0.1243  0.1934
 1806SOL    HW1 8695   1.219   0.211   8.513 -0.4109  1.6343 -1.4074
 1806SOL    HW2 8696   1.139   0.134   8.411  0.4790 -2.7575  0.9859
 1807SOL     OW 8697   3.895   5.439   5.105  0.5394  0.3532  0.6202
 1807SOL    HW1 8698   3.899   5.513   5.044  1.8827 -1.5879 -1.8746
 1807SOL    HW2 8699   3.987   5.420   5.125  0.2023 -0.4130  1.5108
 1808SOL     OW 8700   2.350   8.454   3.856  0.5708  0.6619 -0.2731
 1808SOL    HW1 8701   2.390   8.493   3.934  1.3927 -0.9818  0.1666
 1808SOL    HW2 8702   2.422   8.412   3.810 -0.1910  0.1568 -1.0418
 1809SOL     OW 8703   9.197   3.132   4.368 -0.0169  0.0135  0.6427
 1809SOL    HW1 8704   9.116   3.165   4.329 -0.7331 -0.9205  1.2778
 1809SOL    HW2 8705   9.168   3.092   4.451  1.2470  0.6342  1.4043
 1810SOL     OW 8706   6.319   4.432  10.918  0.7710  0.4902 -0.0278
 1810SOL    HW1 8707   6.370   4.414  10.840  1.6115 -0.7929  0.7841
 1810SOL    HW2 8708   6.268   4.352  10.932 -0.2793  1.1536  0.0815
 1811SOL     OW 8709   1.464   3.952   0.052  0.2470  0.1033 -0.3182
 1811SOL    HW1 8710   1.482   3.942  -0.042  0.4483  0.5230 -0.3267
 1811SOL    HW2 8711   1.443   4.044   0.062  0.7743  0.1723  0.1456
 1812SOL     OW 8712   7.385   6.238   4.068  0.4442 -0.3407  0.9089
 1812SOL    HW1 8713   7.400   6.180   3.994 -0.1911 -0.9489  1.2410
 1812SOL    HW2 8714   7.472   6.269   4.093  1.1163 -2.8859  2.0951
 1813SOL     OW 8715   0.742   3.841   4.547 -0.1060 -0.5503  0.0097
 1813SOL    HW1 8716   0.761   3.747   4.543 -1.4832 -0.9367  1.2884
 1813SOL    HW2 8717   0.735   3.859   4.641  0.6320  0.9531 -0.2018
 1814SOL     OW 8718   2.877   7.565   4.412  0.1886 -0.5433  0.0820
 1814SOL    HW1 8719   2.916   7.495   4.464  1.7239  1.0515  1.2068
 1814SOL    HW2 8720   2.897   7.541   4.321  0.2902 -1.7810  0.4219
 1815SOL     OW 8721   9.390   3.088   8.049 -0.4961  1.1765  0.0263
 1815SOL    HW1 8722   9.299   3.081   8.081 -0.2648  1.4713  0.7783
 1815SOL    HW2 8723   9.431   3.006   8.075 -0.7089  0.7701 -0.8833
 1816SOL     OW 8724   8.715   9.408   3.407 -0.1337 -0.4115 -0.5877
 1816SOL    HW1 8725   8.619   9.402   3.412 -0.0781 -2.5250 -1.0379
 1816SOL    HW2 8726   8.732   9.430   3.315 -0.1681 -0.1970 -0.5444
 1817SOL     OW 8727   9.649   8.911   3.634 -0.4799  0.4160  0.0623
 1817SOL    HW1 8728   9.730   8.866   3.657  1.7522  2.0700 -3.6059
 1817SOL    HW2 8729   9.594   8.843   3.596 -0.0322 -0.3988  0.8435
 1818SOL     OW 8730   0.588   2.485  10.466  0.2089  0.2244  0.6169
 1818SOL    HW1 8731   0.641   2.432  10.406  2.2482  2.0977  0.6453
 1818SOL    HW2 8732   0.521   2.524  10.411 -0.2533 -0.9892  0.2872
 1819SOL     OW 8733  11.054   7.735   0.461 -0.2889 -0.1673  0.8499
 1819SOL    HW1 8734  11.083   7.680   0.533  1.0687  0.4322  0.7942
 1819SOL    HW2 8735  10.988   7.793   0.500 -0.6281 -0.8255  1.2586
 1820SOL     OW 8736   4.433   1.027  10.984  0.4591  0.0996 -0.2885
 1820SOL    HW1 8737   4.486   1.038  10.905  0.6719 -1.0499 -0.3311
 1820SOL    HW2 8738   4.371   0.958  10.961  0.4113 -0.1234  0.4812
 1821SOL     OW 8739  10.244   1.844   5.722  0.2017 -0.1060  0.4534
 1821SOL    HW1 8740  10.220   1.936   5.730  0.3891 -0.0687  0.5748
 1821SOL    HW2 8741  10.333   1.845   5.688  0.1445 -0.2443  0.2988
 1822SOL     OW 8742   0.753   5.562   0.292  0.3692 -0.0024 -0.2932
 1822SOL    HW1 8743   0.689   5.563   0.363  0.5384  0.8454 -0.1356
 1822SOL    HW2 8744   0.831   5.521   0.330 -0.0290 -0.9009 -0.4428
 1823SOL     OW 8745   4.192   8.946   7.336  0.1799  0.0385 -0.2330
 1823SOL    HW1 8746   4.235   8.867   7.302  0.2715  0.4188 -1.0164
 1823SOL    HW2 8747   4.255   8.983   7.397  0.6780  0.2052 -0.8358
 1824SOL     OW 8748   6.558  11.310   7.038 -0.4055  0.3230  0.4153
 1824SOL    HW1 8749   6.547  11.246   6.968 -0.8411  0.3299  0.4729
 1824SOL    HW2 8750   6.507  11.386   7.010  0.5723  0.8680  0.0824
 1825SOL     OW 8751   2.374   9.208   1.381 -0.1117 -0.1289  0.7145
 1825SOL    HW1 8752   2.400   9.133   1.328  0.1407 -1.3575  2.4744
 1825SOL    HW2 8753   2.347   9.170   1.465 -1.0198  1.6741  1.2980
 1826SOL     OW 8754   6.566   5.271   6.692  0.3047 -0.4321 -0.3179
 1826SOL    HW1 8755   6.505   5.306   6.757  2.1205  2.1996  0.1321
 1826SOL    HW2 8756   6.564   5.335   6.621  3.0799  0.1962  0.0721
 1827SOL     OW 8757   7.920   8.494  10.737  0.7472  0.2393  0.3232
 1827SOL    HW1 8758   7.833   8.456  10.755  0.2679  0.9571 -0.4257
 1827SOL    HW2 8759   7.937   8.551  10.812  0.1754  0.7666  0.0627
 1828SOL     OW 8760   2.605  11.082   1.758 -0.4221  0.0138  0.0734
 1828SOL    HW1 8761   2.602  10.997   1.714 -3.4171 -0.6597  1.3280
 1828SOL    HW2 8762   2.513  11.106   1.770  0.2941  2.0549  2.3275
 1829SOL     OW 8763   5.211   7.201   9.133 -0.2240 -0.1626 -0.3548
 1829SOL    HW1 8764   5.241   7.110   9.129  1.0867  0.1735  0.9213
 1829SOL    HW2 8765   5.216   7.224   9.226 -0.4951  1.2321 -0.6571
 1830SOL     OW 8766   5.706   3.248   9.216 -0.0295 -0.1737 -0.2042
 1830SOL    HW1 8767   5.744   3.163   9.237  1.1377  0.0640 -1.2172
 1830SOL    HW2 8768   5.611   3.233   9.216  0.1188 -1.1735  0.8013
 1831SOL     OW 8769   7.661   3.984   3.813 -0.2840 -0.3813  0.0663
 1831SOL    HW1 8770   7.600   3.986   3.887  0.4171 -2.5988  0.7888
 1831SOL    HW2 8771   7.741   3.945   3.849  1.5742  2.2718 -0.9021
 1832SOL     OW 8772  11.238   7.960   3.986 -0.2453 -0.8401 -0.0853
 1832SOL    HW1 8773  11.239   7.913   4.070  0.3927  0.1826  0.5016
 1832SOL    HW2 8774  11.295   7.908   3.929 -0.1440 -1.1806  0.3235
 1833SOL     OW 8775   2.145   9.640   8.662  0.0672 -0.6400 -0.2231
 1833SOL    HW1 8776   2.062   9.640   8.614  0.0173  1.0545 -0.1945
 1833SOL    HW2 8777   2.195   9.712   8.623  0.5362 -0.0541  1.3954
 1834SOL     OW 8778  10.343   7.682   9.572 -0.3670 -0.2890  0.5099
 1834SOL    HW1 8779  10.331   7.669   9.478  0.1043 -3.5106  0.7546
 1834SOL    HW2 8780  10.361   7.775   9.582 -1.9315  0.4280 -2.3893
 1835SOL     OW 8781   3.469   0.320   6.329 -0.0616  0.3164  0.4495
 1835SOL    HW1 8782   3.376   0.339   6.342 -0.4097 -1.2583  0.4081
 1835SOL    HW2 8783   3.470   0.252   6.262  0.9177 -1.9257  2.6251
 1836SOL     OW 8784   7.026   4.569   7.855  0.1675 -0.3141  0.0560
 1836SOL    HW1 8785   7.119   4.564   7.880  0.3554 -1.6643 -0.8281
 1836SOL    HW2 8786   7.027   4.591   7.762 -0.4420  0.9873  0.3469
 1837SOL     OW 8787   7.736  10.728   0.602  0.0903  0.0089  0.5894
 1837SOL    HW1 8788   7.657  10.676   0.586  0.8769 -1.0332 -0.0326
 1837SOL    HW2 8789   7.742  10.786   0.526  0.0335 -0.0626  0.5300
 1838SOL     OW 8790   6.572   4.359   1.006  0.1708  0.1521 -0.1257
 1838SOL    HW1 8791   6.662   4.391   1.016 -0.3153  1.8857 -0.8371
 1838SOL    HW2 8792   6.552   4.316   1.089  0.4618  2.9484  1.5210
 1839SOL     OW 8793   7.776  10.920   2.482 -0.2412 -0.3279  0.2947
 1839SOL    HW1 8794   7.842  10.909   2.551  0.3604  0.1404 -0.2093
 1839SOL    HW2 8795   7.824  10.954   2.407 -0.7851 -1.3730 -0.5618
 1840SOL     OW 8796   2.502   2.127   1.884 -0.0340  0.0882 -0.3223
 1840SOL    HW1 8797   2.450   2.062   1.837 -0.7927 -0.6031  1.3785
 1840SOL    HW2 8798   2.583   2.081   1.907 -0.1370  0.0674  0.0022
 1841SOL     OW 8799   8.377   2.760   9.385  0.2970 -0.2355  0.1172
 1841SOL    HW1 8800   8.389   2.827   9.452  2.5592  0.0504 -0.4691
 1841SOL    HW2 8801   8.285   2.735   9.391 -1.1200  3.9847 -0.6366
 1842SOL     OW 8802   4.426   4.908  10.707  0.2274 -0.3170  0.1436
 1842SOL    HW1 8803   4.432   4.877  10.616  2.0627 -2.8244  0.9863
 1842SOL    HW2 8804   4.475   4.843  10.757  0.6242  1.8294  2.7580
 1843SOL     OW 8805   0.754   4.854   1.358 -0.3236 -0.3002  0.1257
 1843SOL    HW1 8806   0.664   4.877   1.382 -0.2017 -0.7080  0.9949
 1843SOL    HW2 8807   0.750   4.761   1.335  0.3288 -1.0452  2.7201
 1844SOL     OW 8808   4.359   1.544   9.553 -0.8384  0.2480 -0.1286
 1844SOL    HW1 8809   4.420   1.520   9.623 -0.7283 -0.8548 -0.5780
 1844SOL    HW2 8810   4.288   1.480   9.560  0.2173 -1.2812 -2.3377
 1845SOL     OW 8811   9.751   6.915   5.238  0.0118 -0.1539 -0.1329
 1845SOL    HW1 8812   9.810   6.975   5.283 -0.9646 -0.1069  1.1261
 1845SOL    HW2 8813   9.700   6.875   5.307 -2.7084  1.1486 -1.2341
 1846SOL     OW 8814   7.429   0.131   1.238  0.0485 -0.3812  0.4007
 1846SOL    HW1 8815   7.357   0.115   1.300 -0.2933 -1.1994 -0.2058
 1846SOL    HW2 8816   7.506   0.142   1.294  0.0388 -2.6451  0.9513
 1847SOL     OW 8817  11.018   5.003   6.167 -0.2824  0.1235 -0.1494
 1847SOL    HW1 8818  11.063   4.951   6.234 -0.5528  0.0959  0.0083
 1847SOL    HW2 8819  11.075   4.995   6.090 -1.8934 -3.1237 -1.1601
 1848SOL     OW 8820   4.309   5.942   5.083 -0.0785 -0.5983 -0.3050
 1848SOL    HW1 8821   4.336   5.851   5.073  0.7309 -0.4019 -0.0198
 1848SOL    HW2 8822   4.370   5.991   5.027 -1.2037 -0.3202 -1.3385
 1849SOL     OW 8823   1.558   6.959   3.460 -0.0624  0.1593  0.2463
 1849SOL    HW1 8824   1.584   6.905   3.535  0.6695  3.2603  2.4342
 1849SOL    HW2 8825   1.641   6.987   3.420 -0.4254 -0.3309 -0.8939
 1850SOL     OW 8826   8.216   3.897   5.772  0.0240 -0.2979  0.1816
 1850SOL    HW1 8827   8.208   3.942   5.856  0.5061 -0.6953  0.4412
 1850SOL    HW2 8828   8.125   3.878   5.746 -0.2681  1.6424 -0.3931
 1851SOL     OW 8829   2.534   0.169   6.479  0.5432  0.2887  0.1774
 1851SOL    HW1 8830   2.512   0.251   6.524  0.8047  0.1671  0.5308
 1851SOL    HW2 8831   2.629   0.160   6.491  0.5713  0.1154 -0.1682
 1852SOL     OW 8832   8.697   5.240   0.683 -0.4274  0.9851 -0.6556
 1852SOL    HW1 8833   8.660   5.173   0.625  2.0397  0.2464 -1.4918
 1852SOL    HW2 8834   8.631   5.252   0.751 -2.5809  0.4882 -2.5594
 1853SOL     OW 8835   9.263   9.801   7.475  0.0003 -0.8972 -0.4915
 1853SOL    HW1 8836   9.184   9.855   7.476 -0.6574 -1.7911 -1.3720
 1853SOL    HW2 8837   9.335   9.863   7.464 -0.5506 -0.0462  0.5166
 1854SOL     OW 8838   3.635   4.485   4.508 -0.1735 -0.1965 -0.3624
 1854SOL    HW1 8839   3.633   4.390   4.511  0.7711 -0.2162  1.7285
 1854SOL    HW2 8840   3.725   4.507   4.486 -0.0829  0.1857  0.3473
 1855SOL     OW 8841   9.277   7.833   4.293  0.1616 -0.8936  0.5103
 1855SOL    HW1 8842   9.225   7.775   4.238 -0.7018 -0.4944  0.8955
 1855SOL    HW2 8843   9.367   7.822   4.261 -0.2811 -0.8814 -0.8051
 1856SOL     OW 8844   0.115  10.313   7.413  0.0029  0.0865  0.2267
 1856SOL    HW1 8845   0.095  10.331   7.505  1.6636  0.2330  0.5915
 1856SOL    HW2 8846   0.182  10.245   7.416 -0.5681 -0.5453 -0.9144
 1857SOL     OW 8847   8.875   1.128   4.524 -0.3827  0.0761  0.1978
 1857SOL    HW1 8848   8.928   1.082   4.589  0.6411  0.5730 -0.2580
 1857SOL    HW2 8849   8.822   1.189   4.575 -1.6669 -1.4596  0.7981
 1858SOL     OW 8850   2.850   2.715   7.315 -0.6386  0.1663  0.9330
 1858SOL    HW1 8851   2.855   2.622   7.340 -1.5742 -0.2092 -0.1705
 1858SOL    HW2 8852   2.941   2.741   7.299 -0.5131 -1.2668 -1.1057
 1859SOL     OW 8853   1.487   9.843  10.726 -0.2062  0.0381  0.1884
 1859SOL    HW1 8854   1.513   9.934  10.719  3.4139 -0.9276 -1.4354
 1859SOL    HW2 8855   1.477   9.828  10.820 -0.3214  1.9482  0.5095
 1860SOL     OW 8856   8.414  10.988   7.730  0.1845  0.2136 -0.0549
 1860SOL    HW1 8857   8.373  10.963   7.647 -0.3818 -0.8854  0.5252
 1860SOL    HW2 8858   8.469  10.914   7.753 -0.0289  0.3038  0.7797
 1861SOL     OW 8859   8.236   7.574   1.616 -0.3498 -0.5850  0.0981
 1861SOL    HW1 8860   8.281   7.556   1.698  3.4227  2.0870 -1.0688
 1861SOL    HW2 8861   8.167   7.636   1.639  1.0991  0.6792  1.2899
 1862SOL     OW 8862   6.646   0.444   5.831 -0.0906 -0.1347  0.4237
 1862SOL    HW1 8863   6.578   0.443   5.898 -0.3460 -0.1164  0.1654
 1862SOL    HW2 8864   6.695   0.525   5.847 -1.3962  0.9236 -0.6471
 1863SOL     OW 8865   0.655   6.630   4.070  0.3072 -0.6390  0.9372
 1863SOL    HW1 8866   0.744   6.627   4.035  0.0769 -2.6743  0.4120
 1863SOL    HW2 8867   0.610   6.556   4.028 -0.5978 -1.9301  3.9258
 1864SOL     OW 8868   2.729   6.456   1.321  0.0018  0.1267 -0.0068
 1864SOL    HW1 8869   2.663   6.492   1.261  0.0414  0.2461  0.0225
 1864SOL    HW2 8870   2.800   6.428   1.263  0.6293  1.4601  0.0722
 1865SOL     OW 8871   7.804  10.605   7.963 -0.0730  0.5854  0.2262
 1865SOL    HW1 8872   7.841  10.535   8.017  0.4942  1.4247  0.9363
 1865SOL    HW2 8873   7.844  10.592   7.877  0.6398  0.5160  0.5637
 1866SOL     OW 8874   0.684   9.740  10.881  0.2433  0.0075  0.3587
 1866SOL    HW1 8875   0.623   9.728  10.808 -0.3411 -0.1287  0.8605
 1866SOL    HW2 8876   0.768   9.757  10.839  0.2042 -1.4060 -0.3780
 1867SOL     OW 8877   2.148   6.423   0.237 -0.0602 -0.5401  0.0867
 1867SOL    HW1 8878   2.184   6.484   0.301  0.0429 -1.3069  0.7797
 1867SOL    HW2 8879   2.119   6.348   0.289  1.2073 -1.7371 -0.8606
 1868SOL     OW 8880  11.068   4.241   7.619 -0.2037  0.0408  0.4773
 1868SOL    HW1 8881  11.101   4.169   7.565 -0.8383 -0.3644  0.6238
 1868SOL    HW2 8882  10.973   4.238   7.609 -0.1840  1.7776 -0.6667
 1869SOL     OW 8883   9.783   0.193   5.026  0.3072 -0.8277 -0.1202
 1869SOL    HW1 8884   9.695   0.223   5.000  0.0277 -1.1211  0.4754
 1869SOL    HW2 8885   9.797   0.114   4.974  0.9750  0.1922 -1.5710
 1870SOL     OW 8886   9.880  11.228   6.198  0.0385  0.2478 -0.1085
 1870SOL    HW1 8887   9.793  11.216   6.161  0.4838 -0.3802 -0.9878
 1870SOL    HW2 8888   9.903  11.144   6.236  0.3100  0.3740  0.0131
 1871SOL     OW 8889  11.315   7.607   4.310 -0.1049 -0.9298 -0.2639
 1871SOL    HW1 8890  11.388   7.652   4.352 -0.5227 -0.6950  0.2321
 1871SOL    HW2 8891  11.347   7.519   4.292  0.2916 -0.8305 -0.0392
 1872SOL     OW 8892   8.413   7.736   8.574  0.5106  0.3264  0.2451
 1872SOL    HW1 8893   8.399   7.689   8.656 -1.3074  0.7170  0.1803
 1872SOL    HW2 8894   8.393   7.672   8.505  1.7526  0.0878  0.0621
 1873SOL     OW 8895   0.318   5.617   5.408 -0.1339  0.4174  0.0298
 1873SOL    HW1 8896   0.360   5.689   5.362 -0.5028  0.5188 -0.1486
 1873SOL    HW2 8897   0.259   5.578   5.344  0.6039 -0.5035 -0.1016
 1874SOL     OW 8898   0.754   0.616   0.395 -0.0299 -0.2688 -0.0644
 1874SOL    HW1 8899   0.847   0.640   0.387 -0.0551 -0.4204 -0.9118
 1874SOL    HW2 8900   0.749   0.527   0.359 -0.4858 -0.3067  0.0853
 1875SOL     OW 8901   8.907   5.058   0.921  0.0340  0.4695 -0.7102
 1875SOL    HW1 8902   8.961   4.979   0.910  0.8204  0.5918  1.8101
 1875SOL    HW2 8903   8.818   5.028   0.904  0.2567 -1.1320  0.7389
 1876SOL     OW 8904   3.498   8.423   4.313  0.5755  0.1559  0.1845
 1876SOL    HW1 8905   3.562   8.494   4.318  1.0207  0.0155 -2.1671
 1876SOL    HW2 8906   3.550   8.345   4.297 -0.0603 -0.2638  0.1219
 1877SOL     OW 8907   9.514   2.404   0.825  0.1350  0.1724 -0.3277
 1877SOL    HW1 8908   9.426   2.367   0.827 -0.0659  0.5735 -1.1849
 1877SOL    HW2 8909   9.552   2.371   0.744  0.7225  0.1220 -0.0350
 1878SOL     OW 8910   6.549   9.034  10.757  0.0245 -0.0370 -0.3357
 1878SOL    HW1 8911   6.592   9.009  10.838 -1.9809  0.6136  0.9847
 1878SOL    HW2 8912   6.542   9.130  10.762 -4.0708 -0.2187  0.9612
 1879SOL     OW 8913   5.573  10.920   4.234  0.5110  0.3950  0.0419
 1879SOL    HW1 8914   5.477  10.925   4.228  0.3292 -3.0099 -1.8056
 1879SOL    HW2 8915   5.594  10.979   4.306 -3.0077  0.9965  0.7906
 1880SOL     OW 8916   2.871   7.218   2.615 -0.2114 -0.1204  0.1110
 1880SOL    HW1 8917   2.892   7.136   2.569 -2.1235 -1.5092  1.5382
 1880SOL    HW2 8918   2.949   7.272   2.604  1.1857 -2.1749 -0.8064
 1881SOL     OW 8919   5.105   8.512   4.097  0.2543  0.1891  0.2466
 1881SOL    HW1 8920   5.115   8.540   4.005  0.6037  0.2665  0.3074
 1881SOL    HW2 8921   5.155   8.431   4.103 -0.9047 -0.5696  0.0278
 1882SOL     OW 8922   7.928  11.009  11.332  0.0980 -0.3802  0.3861
 1882SOL    HW1 8923   7.972  11.093  11.346 -2.0693  0.8086  0.5335
 1882SOL    HW2 8924   7.894  10.985  11.419  0.7145 -1.4390  0.3489
 1883SOL     OW 8925   3.694   6.759   6.215  1.0266 -0.1460  0.2070
 1883SOL    HW1 8926   3.602   6.733   6.215 -0.5696  4.5026 -1.2851
 1883SOL    HW2 8927   3.736   6.698   6.156 -1.0121 -2.4630  0.9862
 1884SOL     OW 8928   4.545   7.404   7.322 -0.2198  0.4293  0.7233
 1884SOL    HW1 8929   4.635   7.372   7.329 -0.2067  0.0163 -0.8684
 1884SOL    HW2 8930   4.497   7.333   7.278 -0.7450  1.5941 -0.6704
 1885SOL     OW 8931   2.358   8.347   9.811  0.1428 -0.4358 -0.7256
 1885SOL    HW1 8932   2.406   8.321   9.732 -1.3667 -0.9581 -1.5095
 1885SOL    HW2 8933   2.329   8.265   9.850 -0.3148 -0.1276 -0.4056
 1886SOL     OW 8934   0.758   9.554   3.838  0.3568  0.1017  0.0265
 1886SOL    HW1 8935   0.834   9.589   3.791 -0.9084  1.3396 -1.1551
 1886SOL    HW2 8936   0.713   9.630   3.874 -2.0164 -0.2505 -1.9268
 1887SOL     OW 8937   4.951   0.569   5.023  0.0984 -0.3254 -0.2695
 1887SOL    HW1 8938   4.921   0.493   4.973  1.2064 -0.1786 -1.2097
 1887SOL    HW2 8939   4.877   0.628   5.026  0.0627 -0.2533 -1.9312
 1888SOL     OW 8940   8.064   5.816   9.819  0.0825  0.4416 -0.4773
 1888SOL    HW1 8941   8.083   5.876   9.747  0.5247  0.6921 -0.1586
 1888SOL    HW2 8942   8.055   5.872   9.896  0.7345  0.0804 -0.1313
 1889SOL     OW 8943   6.973   5.416  10.505 -0.2833 -0.8956 -0.4533
 1889SOL    HW1 8944   6.946   5.503  10.476  1.6975 -0.9633 -2.9214
 1889SOL    HW2 8945   6.940   5.409  10.594 -1.9239  1.7159 -0.7358
 1890SOL     OW 8946   6.681   9.552  11.195  0.2466  0.1298 -0.3303
 1890SOL    HW1 8947   6.641   9.638  11.187  1.6202  0.7988 -0.3220
 1890SOL    HW2 8948   6.617   9.492  11.157  0.1153  1.3957 -2.2559
 1891SOL     OW 8949   4.062   9.934   2.520  0.9045 -0.0415  0.1147
 1891SOL    HW1 8950   4.120   9.858   2.519  0.7093 -0.1957  0.2923
 1891SOL    HW2 8951   4.032   9.940   2.610  0.9029  0.2347  0.0949
 1892SOL     OW 8952   5.110   5.030   2.139  0.6268 -0.2895  0.4395
 1892SOL    HW1 8953   5.057   4.954   2.164  1.4548 -0.5446  1.5117
 1892SOL    HW2 8954   5.106   5.089   2.214  0.2120  0.6204 -0.2816
 1893SOL     OW 8955   8.003   2.078   7.525 -0.1513 -0.7772  0.0991
 1893SOL    HW1 8956   7.917   2.066   7.565 -0.8619  2.5733 -0.1016
 1893SOL    HW2 8957   8.055   2.121   7.592  0.3942 -0.0897 -0.7496
 1894SOL     OW 8958   1.809   7.450   3.745 -0.4041  0.2303 -0.3827
 1894SOL    HW1 8959   1.802   7.446   3.840 -0.5792 -0.5516 -0.4206
 1894SOL    HW2 8960   1.852   7.368   3.721 -2.5499 -0.7642 -1.1509
 1895SOL     OW 8961   2.583   6.121   0.180  0.6405  0.1441  0.5776
 1895SOL    HW1 8962   2.574   6.209   0.215 -0.1046  0.2013  0.2477
 1895SOL    HW2 8963   2.656   6.127   0.118  0.8351  0.4388  0.8343
 1896SOL     OW 8964   5.513   8.088   4.011 -0.3859  0.0052 -0.0445
 1896SOL    HW1 8965   5.459   8.030   3.956  0.3193 -0.7229  0.0203
 1896SOL    HW2 8966   5.603   8.066   3.987 -0.1083  1.1361 -0.0702
 1897SOL     OW 8967  10.607   0.460   9.505 -0.2675  0.0686 -0.0481
 1897SOL    HW1 8968  10.656   0.438   9.584 -0.4337 -1.9652 -0.4643
 1897SOL    HW2 8969  10.657   0.531   9.465  1.0759 -0.4124  0.7018
 1898SOL     OW 8970   3.978   7.663  10.741 -0.8370  0.2195 -0.2606
 1898SOL    HW1 8971   4.042   7.716  10.790  1.1108 -1.5716 -0.7274
 1898SOL    HW2 8972   3.896   7.677  10.788 -0.2909  3.0051  0.0833
 1899SOL     OW 8973   8.535  10.199   1.268 -0.5462 -0.6486  0.0208
 1899SOL    HW1 8974   8.550  10.176   1.359 -1.8580 -0.7109  0.2483
 1899SOL    HW2 8975   8.441  10.185   1.255 -0.8611  1.6579 -0.6538
 1900SOL     OW 8976   9.906   6.048   0.835 -0.3643 -0.4986  0.2399
 1900SOL    HW1 8977  10.000   6.044   0.824 -0.3259  1.5518 -0.5742
 1900SOL    HW2 8978   9.871   6.054   0.746 -1.1753 -0.2121  0.5636
 1901SOL     OW 8979   3.379   6.747   6.685  0.2117  0.2735  0.1091
 1901SOL    HW1 8980   3.416   6.834   6.673  1.4211 -0.1199  0.8525
 1901SOL    HW2 8981   3.286   6.763   6.702  0.1011  1.3090 -1.2848
 1902SOL     OW 8982   5.844   5.617  10.935  0.4266 -0.0669 -0.2596
 1902SOL    HW1 8983   5.778   5.549  10.952  1.5796 -0.9825  0.8058
 1902SOL    HW2 8984   5.831   5.681  11.005  2.2743 -1.5810  1.6380
 1903SOL     OW 8985   3.844   1.736   8.701  0.0250  0.5632 -0.4305
 1903SOL    HW1 8986   3.864   1.769   8.614  0.9312 -0.5053 -0.6519
 1903SOL    HW2 8987   3.817   1.814   8.751  1.5513  1.5509 -1.0785
 1904SOL     OW 8988   4.847   7.440  10.586 -0.3352  0.0612  0.2664
 1904SOL    HW1 8989   4.877   7.531  10.595  0.3141  0.1584 -2.2480
 1904SOL    HW2 8990   4.769   7.435  10.640 -0.0239  1.9311  0.9588
 1905SOL     OW 8991   0.161   5.166  11.008 -0.5716 -0.3430  0.0125
 1905SOL    HW1 8992   0.110   5.109  11.066 -0.7579  0.2094  0.3989
 1905SOL    HW2 8993   0.138   5.255  11.035  1.5867 -0.0600  1.0686
 1906SOL     OW 8994   6.098   0.391   7.031  0.1255  0.0153  0.0318
 1906SOL    HW1 8995   6.130   0.449   6.962 -0.1683 -1.3029 -1.2600
 1906SOL    HW2 8996   6.129   0.304   7.005 -1.4587 -0.7694  0.6488
 1907SOL     OW 8997   3.982   4.534   1.368 -0.0942 -0.2362 -0.1795
 1907SOL    HW1 8998   3.905   4.553   1.315 -0.0510  1.7272  0.3677
 1907SOL    HW2 8999   4.052   4.586   1.328  0.9063 -1.7663 -0.5017
 1908SOL     OW 9000   4.911   2.910   9.939 -0.0502  0.3793  0.3210
 1908SOL    HW1 9001   4.991   2.865   9.965 -1.1335 -0.7745  1.8244
 1908SOL    HW2 9002   4.841   2.863   9.984 -1.5490  1.6221 -0.6008
 1909SOL     OW 9003   6.726   2.367   4.184  0.2662 -0.1967  0.6299
 1909SOL    HW1 9004   6.708   2.354   4.090 -1.1025 -1.5825  1.0320
 1909SOL    HW2 9005   6.641   2.387   4.222  1.1646  2.7202  1.2919
 1910SOL     OW 9006   6.278   7.504   5.165  0.2501 -0.0847 -0.4100
 1910SOL    HW1 9007   6.239   7.422   5.133 -1.0228 -0.2127  1.3068
 1910SOL    HW2 9008   6.357   7.476   5.212 -0.3325 -0.4040  0.4187
 1911SOL     OW 9009   1.567   1.163   0.820 -0.0149  0.2015 -0.0610
 1911SOL    HW1 9010   1.489   1.119   0.788 -1.2399  1.6110  0.8596
 1911SOL    HW2 9011   1.552   1.256   0.803  1.7144  0.4689 -0.3668
 1912SOL     OW 9012  10.832   8.284   5.222  0.8118 -0.0772 -0.2765
 1912SOL    HW1 9013  10.822   8.196   5.257 -0.6368  0.0765 -0.2250
 1912SOL    HW2 9014  10.830   8.341   5.299  0.3775  0.0831 -0.4035
 1913SOL     OW 9015  10.721   6.348   8.161  0.3907  0.3775 -0.4189
 1913SOL    HW1 9016  10.631   6.327   8.186  0.7571  0.9279  1.5147
 1913SOL    HW2 9017  10.760   6.384   8.240  2.6934 -0.9989 -0.8266
 1914SOL     OW 9018   0.306   8.641   7.809 -0.8536  0.2384  0.4120
 1914SOL    HW1 9019   0.238   8.708   7.812 -0.7723  0.3285  4.3085
 1914SOL    HW2 9020   0.388   8.690   7.817 -0.5129 -0.1251 -0.6551
 1915SOL     OW 9021   0.250   4.657   6.060 -0.0189 -0.0969 -0.8057
 1915SOL    HW1 9022   0.261   4.712   6.138  0.0798 -0.3745 -0.6208
 1915SOL    HW2 9023   0.309   4.583   6.075  1.0852  0.5532 -1.7988
 1916SOL     OW 9024   1.171   9.633   6.917 -0.3664  0.0015 -0.2200
 1916SOL    HW1 9025   1.249   9.680   6.947 -1.4257  1.1586  0.8639
 1916SOL    HW2 9026   1.158   9.565   6.983  0.1479 -0.6854 -0.8173
 1917SOL     OW 9027   9.088   3.382   9.950 -0.2517 -0.4160 -0.3707
 1917SOL    HW1 9028   8.996   3.407   9.942  0.1155  1.7299  1.0336
 1917SOL    HW2 9029   9.136   3.455   9.911  0.8832 -1.6407 -1.3614
 1918SOL     OW 9030  11.325   1.974  10.151 -0.0273  0.0871 -0.0382
 1918SOL    HW1 9031  11.388   1.962  10.080  0.7378 -1.9003  0.9169
 1918SOL    HW2 9032  11.246   1.928  10.121 -0.2886  0.6635 -0.2674
 1919SOL     OW 9033   9.132   3.583  10.813 -0.4878 -0.1815 -0.0302
 1919SOL    HW1 9034   9.074   3.586  10.737  0.3145  4.0548 -0.6940
 1919SOL    HW2 9035   9.073   3.591  10.888 -1.0161  0.3546 -0.4935
 1920SOL     OW 9036   3.114   2.401   7.844 -0.2208 -0.1419 -0.8966
 1920SOL    HW1 9037   3.097   2.487   7.805 -1.0817  0.4059  0.5944
 1920SOL    HW2 9038   3.027   2.366   7.865  0.1911 -0.4449  0.4100
 1921SOL     OW 9039   3.369  11.164   8.916  0.3954 -0.6368 -0.1794
 1921SOL    HW1 9040   3.351  11.236   8.856  1.1389 -1.1698 -1.0577
 1921SOL    HW2 9041   3.456  11.134   8.893  0.7448 -0.8060  1.2352
 1922SOL     OW 9042   3.996   8.656   6.927  0.0840 -0.0190  0.1438
 1922SOL    HW1 9043   4.058   8.599   6.972 -0.0248 -1.5759 -1.5698
 1922SOL    HW2 9044   4.050   8.707   6.867  0.0557  1.0503  0.9836
 1923SOL     OW 9045   0.982   0.359   0.276  0.7436  0.4493 -0.0410
 1923SOL    HW1 9046   0.909   0.297   0.273  1.4403 -0.4992  1.5337
 1923SOL    HW2 9047   0.968   0.417   0.201 -2.7632  1.5839  1.3000
 1924SOL     OW 9048   0.475   1.485   3.506 -0.2486 -0.0266  0.1935
 1924SOL    HW1 9049   0.442   1.574   3.493  0.5118 -0.1369 -3.9591
 1924SOL    HW2 9050   0.398   1.430   3.505 -0.5893  0.4319  0.7360
 1925SOL     OW 9051   2.820   8.502   4.637  0.2900  0.6497 -0.6201
 1925SOL    HW1 9052   2.807   8.412   4.609  0.1280  0.9898 -1.6668
 1925SOL    HW2 9053   2.890   8.535   4.581  0.8198  0.9753  0.2194
 1926SOL     OW 9054   1.098   4.844  11.186 -0.4699  0.0861 -0.0128
 1926SOL    HW1 9055   1.041   4.838  11.263  0.5659 -0.2862  0.7419
 1926SOL    HW2 9056   1.037   4.859  11.113 -1.6238 -1.1102  0.6476
 1927SOL     OW 9057   6.485   5.609   8.184 -0.1941  0.5264  0.3320
 1927SOL    HW1 9058   6.490   5.674   8.255 -0.4584  0.4070  0.4628
 1927SOL    HW2 9059   6.503   5.659   8.105  0.7358  0.5427  0.5409
 1928SOL     OW 9060   1.157   6.013   9.054 -0.6432  0.2390 -0.0788
 1928SOL    HW1 9061   1.241   5.990   9.093 -0.3205 -0.6959 -1.2574
 1928SOL    HW2 9062   1.143   5.946   8.987 -2.0286  0.7502 -0.3275
 1929SOL     OW 9063   3.697   0.466   1.825 -0.1601 -0.0834 -0.4326
 1929SOL    HW1 9064   3.665   0.393   1.772  0.7905  0.1984 -1.4142
 1929SOL    HW2 9065   3.675   0.441   1.915  1.0590 -2.0794 -0.6320
 1930SOL     OW 9066   5.006   1.315   3.064 -0.0268 -0.2527  0.0053
 1930SOL    HW1 9067   5.064   1.255   3.111 -0.7177 -0.8045  0.1753
 1930SOL    HW2 9068   5.051   1.331   2.981  0.1900 -0.9860 -0.0276
 1931SOL     OW 9069   7.149   3.609   8.349  0.3977 -0.1749 -0.6104
 1931SOL    HW1 9070   7.181   3.529   8.308 -1.4199 -2.3031  1.7710
 1931SOL    HW2 9071   7.217   3.632   8.413 -0.1917 -1.3868  0.4963
 1932SOL     OW 9072  11.033   4.516   3.506 -0.1032 -0.4059 -0.0201
 1932SOL    HW1 9073  10.963   4.500   3.441 -0.8100  1.4260  0.2398
 1932SOL    HW2 9074  11.098   4.567   3.458 -1.0478  1.7511  0.8786
 1933SOL     OW 9075   3.334   5.094   8.804  0.0939  0.2186 -0.0133
 1933SOL    HW1 9076   3.259   5.045   8.838  0.1649 -0.1650 -0.3944
 1933SOL    HW2 9077   3.403   5.028   8.794  0.1374  0.3624 -0.7033
 1934SOL     OW 9078   3.758   8.566   8.501 -0.5256  0.0669  0.1905
 1934SOL    HW1 9079   3.734   8.565   8.408  3.0380 -1.3008 -0.9167
 1934SOL    HW2 9080   3.775   8.474   8.522  0.1285  0.5109  1.7538
 1935SOL     OW 9081   0.498   6.466  10.739  0.6451  0.2442 -0.0193
 1935SOL    HW1 9082   0.565   6.481  10.806  0.9778 -0.6526 -0.1389
 1935SOL    HW2 9083   0.476   6.554  10.708  1.7044  0.5662  0.0805
 1936SOL     OW 9084   5.878   0.703   6.349 -0.0071 -0.7040  0.3463
 1936SOL    HW1 9085   5.880   0.647   6.271 -0.7117 -1.9303  1.1615
 1936SOL    HW2 9086   5.786   0.708   6.373  0.1765 -0.1742  0.9860
 1937SOL     OW 9087   2.026  10.028   2.149  0.1780 -0.1563  0.4313
 1937SOL    HW1 9088   2.111   9.988   2.133  0.1711 -0.3032  0.7501
 1937SOL    HW2 9089   2.018  10.096   2.083  2.0479  2.2651  2.4858
 1938SOL     OW 9090   5.790   5.933   9.456 -1.1303 -0.1829  0.0007
 1938SOL    HW1 9091   5.776   5.864   9.392 -0.0246  0.0375 -0.5059
 1938SOL    HW2 9092   5.780   5.890   9.541 -1.6089 -0.7004 -0.3152
 1939SOL     OW 9093  11.240  10.785   0.947  0.2280 -0.2315  0.0115
 1939SOL    HW1 9094  11.218  10.812   0.857 -0.2090  0.8304  0.4186
 1939SOL    HW2 9095  11.336  10.777   0.947  0.2518  0.0104 -0.4910
 1940SOL     OW 9096   9.341   0.203   6.525  0.0214 -0.1875 -0.0446
 1940SOL    HW1 9097   9.363   0.110   6.526 -2.4771 -0.8724  1.0026
 1940SOL    HW2 9098   9.296   0.216   6.442  0.5904  0.1681 -0.3030
 1941SOL     OW 9099   2.413   1.509   4.259 -0.0718 -0.2648  0.2423
 1941SOL    HW1 9100   2.387   1.493   4.349  0.2873  0.4004  0.4691
 1941SOL    HW2 9101   2.350   1.574   4.227  0.3521  0.1836  0.3056
 1942SOL     OW 9102   4.766   1.560   8.644 -0.0090 -0.3123 -0.1450
 1942SOL    HW1 9103   4.788   1.591   8.732  3.3130 -0.7771 -0.7055
 1942SOL    HW2 9104   4.808   1.622   8.585 -1.3023 -0.6066 -1.4159
 1943SOL     OW 9105   1.809   6.487   4.798  0.3095  0.0938 -0.0308
 1943SOL    HW1 9106   1.815   6.461   4.890 -1.1589  0.4994  0.1984
 1943SOL    HW2 9107   1.723   6.528   4.790 -0.9507 -2.6738 -2.2570
 1944SOL     OW 9108  10.673   3.580   4.270  0.0403 -0.2299  0.3353
 1944SOL    HW1 9109  10.634   3.513   4.214  0.0835  0.2893 -0.3347
 1944SOL    HW2 9110  10.759   3.546   4.294 -0.6162 -1.1810  1.4386
 1945SOL     OW 9111   4.960   1.968   5.309  0.4200  0.4828  0.2395
 1945SOL    HW1 9112   4.991   2.020   5.383  1.9984  0.5364 -0.4277
 1945SOL    HW2 9113   5.038   1.924   5.276 -0.5379 -0.7482 -0.4590
 1946SOL     OW 9114   1.588   9.737   2.023  0.1371  0.4109 -0.2830
 1946SOL    HW1 9115   1.684   9.735   2.021  0.1821  1.0363  0.7062
 1946SOL    HW2 9116   1.564   9.667   2.084 -0.1085 -0.5915 -1.4808
 1947SOL     OW 9117   2.623   8.544   3.661  0.1237 -0.0199  0.2050
 1947SOL    HW1 9118   2.591   8.473   3.716 -0.1501 -1.1447 -1.3211
 1947SOL    HW2 9119   2.707   8.512   3.627  0.6635  0.9777  0.5738
 1948SOL     OW 9120   9.664   3.104   1.947  0.6244  0.5719 -0.3371
 1948SOL    HW1 9121   9.714   3.055   1.882  1.5645 -0.3213  0.9995
 1948SOL    HW2 9122   9.576   3.111   1.910  0.8683 -0.8156 -1.2364
 1949SOL     OW 9123   8.519   2.057   7.134 -0.3217  0.0838  0.0379
 1949SOL    HW1 9124   8.474   1.994   7.077 -1.4329  0.8230  0.0695
 1949SOL    HW2 9125   8.457   2.129   7.145  0.4127  0.5959  1.0694
 1950SOL     OW 9126   1.124   9.099   4.876  0.4753 -0.4101 -0.2567
 1950SOL    HW1 9127   1.032   9.078   4.859  0.1882  1.2778 -0.9330
 1950SOL    HW2 9128   1.123   9.137   4.964  0.4313  0.1055 -0.4765
 1951SOL     OW 9129  10.555   6.895   0.115  0.0652 -0.0837  0.1503
 1951SOL    HW1 9130  10.618   6.952   0.071 -0.4961 -0.3227 -1.0180
 1951SOL    HW2 9131  10.476   6.902   0.061 -0.2428 -1.3820  0.4140
 1952SOL     OW 9132   4.149   4.673   1.183  0.9710  0.1886 -0.0799
 1952SOL    HW1 9133   4.143   4.767   1.200  2.2010  0.6179 -1.7102
 1952SOL    HW2 9134   4.152   4.666   1.087  1.5938 -1.4496  0.0207
 1953SOL     OW 9135   0.086   3.572  10.778  0.1995 -0.1435 -0.3182
 1953SOL    HW1 9136   0.174   3.535  10.770  0.6828  0.3254  2.1985
 1953SOL    HW2 9137   0.096   3.664  10.757  0.9818  0.5694  2.7993
 1954SOL     OW 9138  11.065   2.983  10.961  0.3897  0.5910 -0.3930
 1954SOL    HW1 9139  11.060   2.977  11.057  0.3687  0.0046 -0.4266
 1954SOL    HW2 9140  10.985   3.029  10.936 -0.2811 -0.4548 -0.2270
 1955SOL     OW 9141   2.134   1.893  10.760 -0.4833 -0.2303  0.1855
 1955SOL    HW1 9142   2.098   1.879  10.848 -0.6359 -0.2681  0.1174
 1955SOL    HW2 9143   2.085   1.832  10.705 -1.5844  0.9660 -0.2245
 1956SOL     OW 9144   7.032   5.095   6.781  1.0629 -0.2706 -0.9298
 1956SOL    HW1 9145   6.951   5.103   6.731 -0.3697  0.4250  1.3607
 1956SOL    HW2 9146   7.090   5.162   6.745 -0.6215  1.5292 -0.4226
 1957SOL     OW 9147   6.954   4.437  10.981  0.1970  0.2838  0.1985
 1957SOL    HW1 9148   6.958   4.503  10.912  0.4810  0.8911  0.7946
 1957SOL    HW2 9149   6.869   4.394  10.968  0.5674 -0.1419 -1.0076
 1958SOL     OW 9150   2.186   2.181   1.307 -0.0138  0.1381 -0.0275
 1958SOL    HW1 9151   2.254   2.136   1.358  1.2834  2.3659  0.3793
 1958SOL    HW2 9152   2.235   2.236   1.246 -1.5216  0.2736 -1.1661
 1959SOL     OW 9153   4.624   6.711   9.623  0.3548  0.0542 -0.2416
 1959SOL    HW1 9154   4.601   6.800   9.596 -1.8016 -0.1254  0.7891
 1959SOL    HW2 9155   4.702   6.690   9.572 -0.4715  1.6468 -2.3393
 1960SOL     OW 9156   7.176   0.141   0.900  0.2984 -0.6137  0.5831
 1960SOL    HW1 9157   7.220   0.195   0.835 -1.7669 -0.5798 -0.9039
 1960SOL    HW2 9158   7.126   0.203   0.953 -1.3930 -0.8990 -0.5805
 1961SOL     OW 9159   7.376   8.733   3.776  0.7813 -0.4925 -0.1249
 1961SOL    HW1 9160   7.321   8.668   3.819  0.0445  0.5330  0.5367
 1961SOL    HW2 9161   7.324   8.814   3.778  1.3749 -0.0380 -1.5524
 1962SOL     OW 9162   7.010  10.688   0.746  0.4212 -0.0264 -0.4112
 1962SOL    HW1 9163   7.067  10.626   0.701 -1.9664 -2.6130 -0.1805
 1962SOL    HW2 9164   6.975  10.743   0.676  0.7148 -0.5678 -0.9980
 1963SOL     OW 9165   1.843   8.658   7.873 -0.5148 -0.1729 -0.7143
 1963SOL    HW1 9166   1.789   8.709   7.813  0.3980  1.1062 -0.4738
 1963SOL    HW2 9167   1.901   8.607   7.817 -1.1239 -0.6252 -0.9449
 1964SOL     OW 9168   2.256   5.841   3.303 -0.1739 -0.1956 -0.3293
 1964SOL    HW1 9169   2.292   5.930   3.299 -3.7866  1.4442 -1.2183
 1964SOL    HW2 9170   2.229   5.830   3.394 -1.5578  0.5640 -0.6052
 1965SOL     OW 9171   6.132   5.836   3.164 -0.4158 -0.1143 -0.1074
 1965SOL    HW1 9172   6.170   5.809   3.247 -0.2782 -0.0610 -0.1533
 1965SOL    HW2 9173   6.044   5.797   3.164 -0.4853  0.0433  0.1433
 1966SOL     OW 9174   3.474   0.071   1.293  0.9976 -0.3218  0.0513
 1966SOL    HW1 9175   3.395   0.026   1.322 -0.1435  0.4162 -1.7328
 1966SOL    HW2 9176   3.518   0.009   1.235 -0.3349  0.5758 -2.0358
 1967SOL     OW 9177   1.892   9.615  10.944  0.6097  0.8166 -0.3919
 1967SOL    HW1 9178   1.892   9.706  10.973 -0.7772  0.9481 -0.7237
 1967SOL    HW2 9179   1.811   9.606  10.894  0.2667 -0.8218  0.3803
 1968SOL     OW 9180   2.776   3.655   8.200  0.6841 -0.0345 -0.3127
 1968SOL    HW1 9181   2.849   3.605   8.163  1.0013 -0.4503  0.8620
 1968SOL    HW2 9182   2.753   3.609   8.280 -1.3513 -0.3155 -1.0005
 1969SOL     OW 9183   8.030   3.490   2.431 -0.1283 -0.6202 -0.5208
 1969SOL    HW1 9184   8.077   3.535   2.361 -1.4870 -0.5394 -1.4211
 1969SOL    HW2 9185   8.099   3.454   2.487  1.0471 -1.8219 -2.6134
 1970SOL     OW 9186   9.753  10.961   8.872  0.1153  0.3119  0.4008
 1970SOL    HW1 9187   9.817  10.992   8.808 -0.0681 -0.0527  0.0354
 1970SOL    HW2 9188   9.797  10.968   8.956 -0.0916  2.0731  0.4008
 1971SOL     OW 9189   2.975   7.693  10.882 -0.1684 -0.2058  0.4901
 1971SOL    HW1 9190   2.990   7.758  10.814 -0.3304 -0.0753  0.5794
 1971SOL    HW2 9191   3.032   7.620  10.858 -0.1414 -0.1148  0.2767
 1972SOL     OW 9192   4.350   7.187   8.315  0.2664  0.0990  0.2387
 1972SOL    HW1 9193   4.419   7.197   8.249 -1.6664 -1.6356 -2.2370
 1972SOL    HW2 9194   4.387   7.126   8.379  0.9150 -1.2218 -1.3253
 1973SOL     OW 9195  10.154   5.967   2.607  0.4832 -0.1337  0.2671
 1973SOL    HW1 9196  10.122   6.017   2.682 -1.3074  1.2623 -1.3080
 1973SOL    HW2 9197  10.183   5.884   2.644 -1.6964 -0.0876  2.3270
 1974SOL     OW 9198  10.696  10.236   0.116  0.0024 -0.2819 -0.5395
 1974SOL    HW1 9199  10.694  10.156   0.168  2.2246 -0.3526 -0.4764
 1974SOL    HW2 9200  10.683  10.306   0.179  0.9228 -0.4644 -0.1277
 1975SOL     OW 9201   3.589   4.967   8.099  0.1277  0.1238 -0.4844
 1975SOL    HW1 9202   3.668   4.969   8.153  0.6083 -1.6286 -1.0651
 1975SOL    HW2 9203   3.528   4.911   8.147 -0.7355  1.3392 -0.1178
 1976SOL     OW 9204   6.654   6.088   1.017 -0.1643 -0.3770  0.4336
 1976SOL    HW1 9205   6.569   6.055   0.987 -0.5328  1.2688 -0.4275
 1976SOL    HW2 9206   6.714   6.068   0.946 -0.3768  0.6685 -0.0659
 1977SOL     OW 9207   0.098   6.779   1.568  0.2987  0.3337  0.0702
 1977SOL    HW1 9208   0.021   6.815   1.523 -0.1461  0.1295  0.6649
 1977SOL    HW2 9209   0.065   6.749   1.652  0.6461 -1.5189 -0.4181
 1978SOL     OW 9210   8.999   1.941   6.818 -0.3149 -0.4118  0.3852
 1978SOL    HW1 9211   9.076   1.890   6.841 -0.5128 -0.8107  0.1721
 1978SOL    HW2 9212   8.941   1.931   6.893 -0.2121 -0.2116  0.4930
 1979SOL     OW 9213  10.829   3.784   6.362 -0.2197  0.7944  0.2991
 1979SOL    HW1 9214  10.792   3.710   6.313  0.8255  0.7577 -0.4776
 1979SOL    HW2 9215  10.883   3.830   6.298 -1.4769  2.7289  0.5360
 1980SOL     OW 9216   8.424   9.619   3.111 -0.0233 -0.8939 -0.3784
 1980SOL    HW1 9217   8.395   9.675   3.039  1.3690 -0.4345 -0.6204
 1980SOL    HW2 9218   8.365   9.640   3.184  0.8159  1.3664 -0.2773
 1981SOL     OW 9219   4.942   2.730   6.572 -0.0560 -0.0219 -0.1872
 1981SOL    HW1 9220   4.961   2.774   6.655  0.4412  0.5001 -0.5686
 1981SOL    HW2 9221   4.851   2.753   6.553 -0.2289 -0.2803  0.2887
 1982SOL     OW 9222   6.029   0.930   6.455  0.0391 -0.2809  0.3243
 1982SOL    HW1 9223   6.073   0.858   6.409  3.8730  2.3144 -0.4610
 1982SOL    HW2 9224   5.978   0.974   6.387 -0.2584 -0.7244  0.2531
 1983SOL     OW 9225   2.453   2.460   1.549  0.4039  0.2906 -0.2171
 1983SOL    HW1 9226   2.471   2.394   1.481 -0.3258 -1.1772  0.9407
 1983SOL    HW2 9227   2.477   2.417   1.631 -3.5701 -0.0938  0.9957
 1984SOL     OW 9228   4.258   8.574   8.490  0.1997  0.0476 -0.1612
 1984SOL    HW1 9229   4.338   8.521   8.486  1.0665  1.2827  0.4137
 1984SOL    HW2 9230   4.253   8.617   8.404  0.0646 -0.1335 -0.2462
 1985SOL     OW 9231   6.591   8.320   1.705 -0.3772  0.5988 -0.0128
 1985SOL    HW1 9232   6.546   8.236   1.712  0.0042  0.4343  0.5993
 1985SOL    HW2 9233   6.543   8.368   1.638 -1.1625  0.2418  0.2867
 1986SOL     OW 9234   0.314   7.450   2.604  0.5677 -0.9163 -1.1240
 1986SOL    HW1 9235   0.329   7.542   2.580  0.8039  0.5194  3.3916
 1986SOL    HW2 9236   0.400   7.409   2.596  1.1208  0.0838 -0.6248
 1987SOL     OW 9237   0.620   8.018   5.081 -0.0558  0.2670 -0.1514
 1987SOL    HW1 9238   0.653   8.080   5.146  1.3383 -0.7698  0.1594
 1987SOL    HW2 9239   0.692   8.009   5.018  0.0102 -1.4507  0.1191
 1988SOL     OW 9240   5.993   0.804   0.454  0.5819  0.0863 -0.7428
 1988SOL    HW1 9241   6.034   0.888   0.432 -1.1931  1.0884 -0.4284
 1988SOL    HW2 9242   5.962   0.770   0.371 -0.3326  0.6794 -0.6630
 1989SOL     OW 9243  10.507   7.589   1.920 -0.3566  0.1372 -0.0770
 1989SOL    HW1 9244  10.453   7.530   1.868  1.0865  0.7001 -2.3806
 1989SOL    HW2 9245  10.560   7.532   1.976  2.0306 -1.0243 -3.2496
 1990SOL     OW 9246   6.181  11.294   5.276  0.6980  0.4490  0.5698
 1990SOL    HW1 9247   6.154  11.379   5.311 -0.2580  0.0616  0.8305
 1990SOL    HW2 9248   6.105  11.264   5.227  0.9225 -0.3733  0.7104
 1991SOL     OW 9249   6.157   6.080   3.095  0.1813  0.2444  1.1287
 1991SOL    HW1 9250   6.152   5.991   3.129 -1.5079  0.0243  0.3920
 1991SOL    HW2 9251   6.136   6.136   3.170 -1.2825 -0.1283  1.0279
 1992SOL     OW 9252   2.249   9.080   5.496 -0.7916  0.1178 -0.0913
 1992SOL    HW1 9253   2.195   9.158   5.509 -0.0563  0.9349 -1.7602
 1992SOL    HW2 9254   2.226   9.049   5.408  0.3714 -0.4083 -0.2242
 1993SOL     OW 9255   8.063   5.534   3.662  0.1050  0.8284  0.2785
 1993SOL    HW1 9256   8.001   5.461   3.664  0.9855  0.0224 -0.4685
 1993SOL    HW2 9257   8.047   5.582   3.743  0.4044 -0.9745  1.4730
 1994SOL     OW 9258   8.381   9.364   5.287 -0.2353 -0.2135 -0.3631
 1994SOL    HW1 9259   8.321   9.310   5.235 -0.0817 -1.5882  0.8301
 1994SOL    HW2 9260   8.462   9.314   5.291  1.7159  2.3287 -3.3171
 1995SOL     OW 9261   4.647   6.987   4.334  0.1654  0.3057  0.5428
 1995SOL    HW1 9262   4.617   6.916   4.278 -0.4035 -0.0574  1.2887
 1995SOL    HW2 9263   4.736   7.005   4.305  0.0855 -0.2754 -0.0772
 1996SOL     OW 9264   5.421   3.422   7.521  0.2662  0.5964  0.7846
 1996SOL    HW1 9265   5.329   3.436   7.498  0.3007 -1.1527 -0.6255
 1996SOL    HW2 9266   5.438   3.484   7.591 -1.5714  2.0102  0.0591
 1997SOL     OW 9267   7.365   7.345   0.003  0.4888  0.5141 -0.7580
 1997SOL    HW1 9268   7.290   7.332  -0.055  1.3010 -0.5493 -1.6194
 1997SOL    HW2 9269   7.374   7.263   0.051  1.1705  0.5806 -0.7570
 1998SOL     OW 9270   6.189   6.657   1.151  0.0262  0.5255 -0.1157
 1998SOL    HW1 9271   6.250   6.707   1.205  0.5700 -0.1424 -0.0912
 1998SOL    HW2 9272   6.209   6.683   1.061 -1.5920  2.4253  0.0321
 1999SOL     OW 9273  10.028   0.707  10.622  0.4630  0.6961 -0.5334
 1999SOL    HW1 9274   9.967   0.649  10.668  0.1667  1.2222 -0.2422
 1999SOL    HW2 9275  10.094   0.649  10.584 -0.0801  0.1392 -0.6330
 2000SOL     OW 9276   0.639   8.994   5.654 -0.2700 -0.7686 -0.0256
 2000SOL    HW1 9277   0.576   8.961   5.589 -0.8979 -0.0759  0.2179
 2000SOL    HW2 9278   0.698   9.050   5.604 -0.5852 -0.4550 -0.0495
 2001SOL     OW 9279   4.592   5.324   0.822  0.1679 -0.0631  0.2063
 2001SOL    HW1 9280   4.529   5.300   0.755 -1.7687  1.6578  1.3117
 2001SOL    HW2 9281   4.602   5.245   0.876 -0.0270 -0.7328 -0.7175
 2002SOL     OW 9282   9.359   5.214   0.528 -0.2927 -0.1104  0.1245
 2002SOL    HW1 9283   9.316   5.161   0.461  1.3174 -0.8790 -0.3388
 2002SOL    HW2 9284   9.432   5.256   0.482  2.0137 -2.1291  1.7172
 2003SOL     OW 9285   2.386   7.458   3.203  0.1071  0.0975  0.3321
 2003SOL    HW1 9286   2.291   7.447   3.203  0.1120  0.0440  0.6777
 2003SOL    HW2 9287   2.416   7.410   3.126 -0.1460  0.1176  0.2201
 2004SOL     OW 9288  10.898   2.054   4.749  0.3596  0.0400  0.6864
 2004SOL    HW1 9289  10.866   2.117   4.684 -0.5115  0.6847  1.7055
 2004SOL    HW2 9290  10.929   1.980   4.697  1.7731  1.4439 -0.5716
 2005SOL     OW 9291   3.135  10.372   0.091 -0.2114  0.3822  0.1190
 2005SOL    HW1 9292   3.095  10.304   0.037 -0.8006  0.9180 -0.1232
 2005SOL    HW2 9293   3.195  10.324   0.150  0.6939 -0.1766 -1.2128
 2006SOL     OW 9294   7.740   9.482   8.409 -0.1200 -0.1792 -0.2819
 2006SOL    HW1 9295   7.673   9.483   8.478  0.2509  0.6301  0.0751
 2006SOL    HW2 9296   7.773   9.392   8.411 -0.0661 -0.1559  0.6546
 2007SOL     OW 9297   1.754  10.424  11.219  0.4945 -0.3721 -0.3504
 2007SOL    HW1 9298   1.706  10.475  11.284  0.2436  1.5792 -1.9554
 2007SOL    HW2 9299   1.846  10.445  11.234  0.3416  1.3894 -1.5732
 2008SOL     OW 9300   0.353   8.744  10.174  0.6074 -0.0828  0.2752
 2008SOL    HW1 9301   0.389   8.655  10.178  0.5213 -0.1002  0.7290
 2008SOL    HW2 9302   0.270   8.738  10.221 -0.7741 -0.4053 -2.0894
 2009SOL     OW 9303   8.816   3.861  11.104  0.3620 -0.5281 -0.5699
 2009SOL    HW1 9304   8.793   3.948  11.137 -1.0734 -0.7463 -0.9065
 2009SOL    HW2 9305   8.898   3.874  11.056  0.7020  0.4341  0.2372
 2010SOL     OW 9306   1.497   2.853   1.195  0.3167  0.0258  0.0939
 2010SOL    HW1 9307   1.436   2.817   1.130 -0.3343  1.7565 -0.3214
 2010SOL    HW2 9308   1.551   2.779   1.222  1.1746 -0.6404 -3.0328
 2011SOL     OW 9309   4.596  11.346   5.763 -0.2693 -0.0407  0.2620
 2011SOL    HW1 9310   4.519  11.384   5.806 -0.9439  0.5272 -1.3498
 2011SOL    HW2 9311   4.615  11.407   5.691  1.6023 -0.2623  0.5288
 2012SOL     OW 9312   1.024   3.567   7.991 -0.2357  0.5154 -0.2709
 2012SOL    HW1 9313   1.104   3.547   8.039 -0.7519 -2.2116 -0.3500
 2012SOL    HW2 9314   0.959   3.586   8.058 -0.1909 -0.1214 -0.0419
 2013SOL     OW 9315  10.338   7.355   6.429 -0.2145  0.2759  0.0240
 2013SOL    HW1 9316  10.392   7.309   6.493  0.3594  0.3158 -0.4188
 2013SOL    HW2 9317  10.274   7.404   6.482  1.9179  2.4804  0.7625
 2014SOL     OW 9318   7.153   6.892   8.800 -0.7604 -0.2113 -0.3779
 2014SOL    HW1 9319   7.186   6.814   8.756 -1.4521 -0.7025 -0.0529
 2014SOL    HW2 9320   7.213   6.962   8.774  0.2291 -0.9627 -0.1912
 2015SOL     OW 9321   8.370   1.446   6.662 -0.0526 -0.5997  0.1957
 2015SOL    HW1 9322   8.360   1.525   6.609  0.0813 -0.6178  0.1436
 2015SOL    HW2 9323   8.309   1.383   6.623  0.7596 -0.9404 -0.5680
 2016SOL     OW 9324   7.961   8.487   5.838  0.2582  0.0850  0.5499
 2016SOL    HW1 9325   7.963   8.397   5.869 -0.5240  0.9799  3.5756
 2016SOL    HW2 9326   7.881   8.524   5.876  2.1376  2.8774  2.1302
 2017SOL     OW 9327   0.783   3.660   2.442 -0.7052  0.2914 -0.1837
 2017SOL    HW1 9328   0.797   3.745   2.402  0.1947  0.1547 -0.1830
 2017SOL    HW2 9329   0.870   3.632   2.471 -0.8407 -0.9961 -0.9177
 2018SOL     OW 9330  10.568   2.967   8.675 -0.0190 -0.0821 -0.4500
 2018SOL    HW1 9331  10.629   2.905   8.715  0.1889  0.2405 -0.2654
 2018SOL    HW2 9332  10.493   2.969   8.735  0.2589  0.3417 -0.1115
 2019SOL     OW 9333   7.173   3.660   0.486  0.6895  0.1914 -0.0591
 2019SOL    HW1 9334   7.089   3.705   0.492  0.9262  0.4682  1.7566
 2019SOL    HW2 9335   7.238   3.730   0.495  1.0614 -0.3017  1.4627
 2020SOL     OW 9336   9.284   8.639   7.030  0.0510 -0.0417  0.4965
 2020SOL    HW1 9337   9.197   8.641   6.990  0.1234 -2.8881 -0.0075
 2020SOL    HW2 9338   9.342   8.678   6.964 -0.6342  0.7420  0.3393
 2021SOL     OW 9339   0.900   9.222   0.717  0.0155 -0.1590 -0.1291
 2021SOL    HW1 9340   0.842   9.281   0.671  1.5920  2.6795  1.2815
 2021SOL    HW2 9341   0.951   9.278   0.775  1.7034 -2.9113  1.2737
 2022SOL     OW 9342   9.206   7.193   3.063  0.2996 -0.6142  0.1383
 2022SOL    HW1 9343   9.126   7.243   3.051 -0.3798 -1.2698  1.6348
 2022SOL    HW2 9344   9.272   7.239   3.011 -0.9558  0.1377 -0.8372
 2023SOL     OW 9345   9.178  10.453   1.859  0.5926 -0.1989  0.1910
 2023SOL    HW1 9346   9.164  10.411   1.774 -0.3708  0.8084 -0.1719
 2023SOL    HW2 9347   9.109  10.416   1.914  0.1823  0.3558  0.0629
 2024SOL     OW 9348   4.765   6.165   2.910 -0.2997  0.0093  0.0320
 2024SOL    HW1 9349   4.793   6.120   2.989  0.5780  1.3232  0.5095
 2024SOL    HW2 9350   4.840   6.160   2.852 -0.5643 -0.0296 -0.3097
 2025SOL     OW 9351   8.694   5.382  11.277  0.3311 -0.5878 -0.1585
 2025SOL    HW1 9352   8.646   5.302  11.296 -0.1540 -0.0304  1.1244
 2025SOL    HW2 9353   8.697   5.428  11.361  0.7640  0.6486 -0.8293
 2026SOL     OW 9354   3.287   4.100   3.506 -0.0879 -0.6532  0.6324
 2026SOL    HW1 9355   3.377   4.132   3.501 -0.1686 -0.4996  0.1308
 2026SOL    HW2 9356   3.249   4.123   3.422 -0.6494 -0.5684  0.9088
 2027SOL     OW 9357   5.907   6.999   3.223 -0.1112 -0.3090 -0.0457
 2027SOL    HW1 9358   5.896   7.068   3.289 -0.6281 -2.5456  2.3699
 2027SOL    HW2 9359   5.940   6.924   3.272  1.2671 -1.5806 -2.7137
 2028SOL     OW 9360   1.815   7.915  10.451  0.1723 -0.6223  0.3734
 2028SOL    HW1 9361   1.890   7.870  10.412  1.7674  0.4108  2.0652
 2028SOL    HW2 9362   1.841   8.008  10.453 -1.4217 -0.1437  0.4608
 2029SOL     OW 9363   8.642   1.332   0.588  0.2831  0.1811  0.1859
 2029SOL    HW1 9364   8.672   1.318   0.678 -1.2733 -0.0486  0.7081
 2029SOL    HW2 9365   8.629   1.244   0.554 -1.1388  0.2461  0.4839
 2030SOL     OW 9366   8.482   7.818   8.994 -0.0355  0.3331 -1.0031
 2030SOL    HW1 9367   8.536   7.752   9.039 -0.7168  0.4088 -0.0570
 2030SOL    HW2 9368   8.453   7.774   8.914  0.4684 -0.1160 -0.9461
 2031SOL     OW 9369   3.374   8.694   5.501  0.1273  0.0791  0.1159
 2031SOL    HW1 9370   3.428   8.697   5.580  1.3865 -0.5101 -0.6876
 2031SOL    HW2 9371   3.437   8.697   5.429 -0.7737 -2.4480 -0.8642
 2032SOL     OW 9372   2.790   6.346   1.856 -0.4101 -0.2107  0.3017
 2032SOL    HW1 9373   2.846   6.278   1.820  0.9604  0.9896  0.0660
 2032SOL    HW2 9374   2.710   6.301   1.882 -0.6699 -1.4798 -2.3670
 2033SOL     OW 9375   3.089   8.196   0.488 -0.3552  0.2587  0.2903
 2033SOL    HW1 9376   3.068   8.128   0.553 -0.8491  0.1873  0.0645
 2033SOL    HW2 9377   3.064   8.157   0.404 -0.7183  0.7424  0.1663
 2034SOL     OW 9378   6.539  10.178   2.820  0.5255 -0.1297  0.4551
 2034SOL    HW1 9379   6.583  10.203   2.901  2.0427 -0.0965 -0.3402
 2034SOL    HW2 9380   6.563  10.247   2.758  1.2074 -1.2866 -0.5993
 2035SOL     OW 9381   6.690   5.305   8.502  0.0511  0.7027  0.6130
 2035SOL    HW1 9382   6.702   5.340   8.414 -3.2483 -0.7093 -0.5521
 2035SOL    HW2 9383   6.719   5.214   8.496 -0.8919  0.3847  0.7320
 2036SOL     OW 9384   4.221   6.486   4.627 -0.0509 -0.0124  0.6939
 2036SOL    HW1 9385   4.203   6.556   4.564  0.9970 -0.1533  0.2069
 2036SOL    HW2 9386   4.216   6.406   4.576 -0.1848 -0.2105  1.0141
 2037SOL     OW 9387   8.452   9.142   1.773  0.6067  0.4560  0.5397
 2037SOL    HW1 9388   8.394   9.187   1.712  0.1133 -0.3411  0.4132
 2037SOL    HW2 9389   8.519   9.102   1.717  0.1573 -0.2700  0.5208
 2038SOL     OW 9390   1.934   8.219   8.044  0.3581 -0.1622 -0.1861
 2038SOL    HW1 9391   1.966   8.183   7.961  0.2797  0.7170 -0.6095
 2038SOL    HW2 9392   1.918   8.142   8.099 -1.4989 -0.9014 -1.6663
 2039SOL     OW 9393   4.093   6.427   9.687 -0.2881  0.2432 -0.1228
 2039SOL    HW1 9394   4.098   6.401   9.595 -0.8559 -0.0618 -0.0661
 2039SOL    HW2 9395   4.132   6.353   9.735  0.9288  0.8194 -0.1766
 2040SOL     OW 9396   6.732   9.131   3.003  0.3679  0.3087  0.7261
 2040SOL    HW1 9397   6.754   9.047   3.043 -2.4861 -0.3727  1.0332
 2040SOL    HW2 9398   6.656   9.162   3.052  0.2106  2.1882 -0.5986
 2041SOL     OW 9399   3.128  10.698   2.760  0.1544 -0.3492 -0.3882
 2041SOL    HW1 9400   3.183  10.662   2.829 -1.1490  1.1750  1.5403
 2041SOL    HW2 9401   3.177  10.773   2.727 -0.2629  0.3901  0.6187
 2042SOL     OW 9402   6.268  11.056   4.096  0.4654  0.2842  0.3918
 2042SOL    HW1 9403   6.287  11.018   4.182  0.0689  0.5895  0.6138
 2042SOL    HW2 9404   6.182  11.097   4.106 -0.8587 -1.9675 -0.8880
 2043SOL     OW 9405   3.531   2.264   4.517 -0.3885 -0.1107 -0.1966
 2043SOL    HW1 9406   3.479   2.186   4.534 -0.8762 -0.3174 -2.3736
 2043SOL    HW2 9407   3.622   2.232   4.515 -0.5772 -0.6409 -0.9670
 2044SOL     OW 9408   7.485   2.510   4.399 -0.1445  0.0659  0.2075
 2044SOL    HW1 9409   7.464   2.569   4.471  0.0367  1.3547 -0.7425
 2044SOL    HW2 9410   7.496   2.424   4.439 -0.1532  0.7308  1.6796
 2045SOL     OW 9411   6.216   0.434   5.973  0.0526  0.5124  0.0359
 2045SOL    HW1 9412   6.236   0.452   5.881  1.3424  0.9131  0.3653
 2045SOL    HW2 9413   6.151   0.499   5.998  0.6103  1.2041 -0.2765
 2046SOL     OW 9414   3.073   7.482   8.368  0.1082  0.0727 -0.1258
 2046SOL    HW1 9415   3.042   7.406   8.418 -1.1313  0.7842  0.2155
 2046SOL    HW2 9416   3.027   7.477   8.285 -0.7080  0.9695  0.2650
 2047SOL     OW 9417   4.649   6.261   9.888  0.1733 -0.0690 -0.6563
 2047SOL    HW1 9418   4.648   6.304   9.803 -1.2488 -3.3083 -2.4549
 2047SOL    HW2 9419   4.700   6.181   9.874  1.4608  0.1348  2.0935
 2048SOL     OW 9420   0.816   3.152   1.317  0.3711  0.2603 -0.4764
 2048SOL    HW1 9421   0.842   3.156   1.409 -0.3452 -1.9343 -0.1352
 2048SOL    HW2 9422   0.728   3.188   1.316 -0.0405 -0.6937 -0.0893
 2049SOL     OW 9423   7.433   2.527  11.328  0.0052 -0.4462  0.8801
 2049SOL    HW1 9424   7.430   2.441  11.286  1.9382 -0.2028  0.1590
 2049SOL    HW2 9425   7.341   2.548  11.345 -0.4892 -2.8304  1.4882
 2050SOL     OW 9426  11.077   6.881   6.399 -0.3263  0.5527  0.6147
 2050SOL    HW1 9427  11.117   6.939   6.334  0.2091  0.3648  0.7754
 2050SOL    HW2 9428  11.142   6.812   6.413 -1.9516 -1.5913 -1.5043
 2051SOL     OW 9429   9.042   1.630   1.337  0.3309  0.1490  0.1042
 2051SOL    HW1 9430   9.131   1.615   1.306 -0.1969  2.0418 -2.6304
 2051SOL    HW2 9431   8.998   1.546   1.324  0.9964 -0.0113 -1.2395
 2052SOL     OW 9432   0.344   8.585   8.945  0.0723  0.3344 -0.0093
 2052SOL    HW1 9433   0.299   8.515   8.994  0.7291 -0.5612 -0.6513
 2052SOL    HW2 9434   0.274   8.629   8.897 -0.2587 -0.3698 -0.1851
 2053SOL     OW 9435   3.133   5.455   3.240 -0.1399 -0.1974 -0.3111
 2053SOL    HW1 9436   3.198   5.504   3.189  0.9882 -1.8990 -0.5690
 2053SOL    HW2 9437   3.103   5.517   3.307  1.6977  0.6546 -0.2334
 2054SOL     OW 9438   7.605   7.525   9.644 -0.0441 -0.0583 -0.3233
 2054SOL    HW1 9439   7.549   7.560   9.575  0.1054  0.4709 -0.1795
 2054SOL    HW2 9440   7.683   7.581   9.643  0.5461 -0.8739 -0.6124
 2055SOL     OW 9441   8.054   8.011   2.132  0.2966 -0.3755  0.0585
 2055SOL    HW1 9442   8.120   7.947   2.103  1.5135  0.2737  1.2658
 2055SOL    HW2 9443   8.092   8.096   2.109 -0.2559  0.0013  0.5188
 2056SOL     OW 9444   1.388   7.487   1.167  0.0508  0.2647  0.4414
 2056SOL    HW1 9445   1.406   7.574   1.201 -2.2654  0.7563  0.5650
 2056SOL    HW2 9446   1.351   7.502   1.080 -0.9472 -0.5175  0.7021
 2057SOL     OW 9447   0.882   1.509   8.604  0.3355 -0.1573 -0.4175
 2057SOL    HW1 9448   0.961   1.510   8.549 -1.0420  3.5896 -2.7650
 2057SOL    HW2 9449   0.893   1.584   8.662 -1.0229 -0.1979 -0.0870
 2058SOL     OW 9450   1.824   3.999   9.778 -0.1870 -0.4344 -0.2652
 2058SOL    HW1 9451   1.877   3.950   9.716 -0.6880 -1.2476 -0.0645
 2058SOL    HW2 9452   1.742   4.016   9.732 -1.2469 -2.5484  0.7180
 2059SOL     OW 9453   1.125   8.497   3.533  0.4734 -0.2224  0.3857
 2059SOL    HW1 9454   1.175   8.485   3.452  0.4434  1.0728  0.1657
 2059SOL    HW2 9455   1.034   8.505   3.504  0.5228  0.7831  0.4921
 2060SOL     OW 9456   0.675   6.618   1.165  0.0896 -0.3860  0.1315
 2060SOL    HW1 9457   0.653   6.529   1.138 -0.0063 -0.4646  0.4688
 2060SOL    HW2 9458   0.767   6.614   1.190  0.4261 -0.1161 -1.0244
 2061SOL     OW 9459  10.392   1.930  10.775 -0.0482  0.1176 -0.1223
 2061SOL    HW1 9460  10.412   1.974  10.858  0.0888  1.2649 -0.7378
 2061SOL    HW2 9461  10.343   1.852  10.801  2.6105 -1.2226  1.2518
 2062SOL     OW 9462   6.645   9.072   9.558 -0.2393  0.0376 -0.8111
 2062SOL    HW1 9463   6.735   9.043   9.545 -0.5194 -1.0172 -0.4601
 2062SOL    HW2 9464   6.592   9.007   9.512 -0.8827 -0.0202  0.0034
 2063SOL     OW 9465   2.300   8.410   9.121  0.0057 -0.1285 -0.1157
 2063SOL    HW1 9466   2.395   8.404   9.129 -0.1183 -0.7333  1.2024
 2063SOL    HW2 9467   2.283   8.500   9.093  0.9082  0.4265  1.0455
 2064SOL     OW 9468   6.349   1.204   9.177  0.0534 -0.6627  0.4145
 2064SOL    HW1 9469   6.402   1.236   9.251 -0.1212  0.6301  0.0147
 2064SOL    HW2 9470   6.262   1.241   9.192  0.5561  1.5994 -1.5808
 2065SOL     OW 9471   5.663   5.155   0.737 -0.0602 -0.0081  0.2764
 2065SOL    HW1 9472   5.638   5.212   0.809  1.8177 -1.1921  1.9684
 2065SOL    HW2 9473   5.612   5.075   0.750  0.7505 -0.4681  0.6933
 2066SOL     OW 9474   0.340   6.745   5.148  0.3318 -0.2321  0.0926
 2066SOL    HW1 9475   0.276   6.736   5.076  1.4448 -1.3407 -0.7940
 2066SOL    HW2 9476   0.298   6.703   5.222 -0.0703 -0.7441 -0.4158
 2067SOL     OW 9477  10.578   8.704   9.376 -0.0351  0.8813 -0.2131
 2067SOL    HW1 9478  10.531   8.621   9.390 -0.7240  1.1150 -1.0781
 2067SOL    HW2 9479  10.611   8.727   9.463 -0.7094  0.2102  0.2403
 2068SOL     OW 9480   1.136   6.320   1.896 -0.4793 -0.2119  0.4845
 2068SOL    HW1 9481   1.152   6.230   1.867 -0.9420 -0.1728  0.0908
 2068SOL    HW2 9482   1.080   6.310   1.973 -1.5009 -0.2338 -0.2406
 2069SOL     OW 9483   0.091   7.926   5.031  0.1951  0.1161  0.5375
 2069SOL    HW1 9484   0.145   8.002   5.011 -1.4847  1.4828  0.9469
 2069SOL    HW2 9485   0.099   7.915   5.126 -1.5591  1.4505  0.8923
 2070SOL     OW 9486   5.857   9.187   8.386  0.1443  0.2125  0.0777
 2070SOL    HW1 9487   5.880   9.238   8.464 -0.1511  1.2007 -0.4671
 2070SOL    HW2 9488   5.901   9.233   8.314  1.4825 -1.4139 -0.2104
 2071SOL     OW 9489   0.018   8.878   0.026  0.2819 -0.0644  0.5452
 2071SOL    HW1 9490  -0.001   8.965   0.061 -1.2981 -0.3349  0.4283
 2071SOL    HW2 9491  -0.018   8.818   0.091  0.1376 -0.6211 -0.0384
 2072SOL     OW 9492   9.865   2.173   7.900 -0.1063 -0.9957 -0.2906
 2072SOL    HW1 9493   9.913   2.215   7.972  2.3370 -0.6747 -1.9824
 2072SOL    HW2 9494   9.782   2.220   7.895  0.8425  0.8532  0.5339
 2073SOL     OW 9495   8.935   5.234   1.167  1.1279  0.3349 -0.7403
 2073SOL    HW1 9496   8.961   5.179   1.094  0.3017 -0.6306 -0.3334
 2073SOL    HW2 9497   9.015   5.246   1.218  1.5880  0.5751 -1.5127
 2074SOL     OW 9498   1.567   0.472   8.479 -0.3706  0.1546 -0.5587
 2074SOL    HW1 9499   1.493   0.429   8.435 -1.3624  1.6454 -0.4498
 2074SOL    HW2 9500   1.568   0.435   8.567 -1.0186  0.1289 -0.5582
 2075SOL     OW 9501   3.290   1.356   8.013 -0.4137 -0.3496  0.7760
 2075SOL    HW1 9502   3.315   1.287   7.951  0.0011  0.5385 -0.0731
 2075SOL    HW2 9503   3.292   1.436   7.961  0.1197  0.4512  1.9943
 2076SOL     OW 9504   5.814   4.397   5.709 -0.4328  0.0355 -0.2628
 2076SOL    HW1 9505   5.896   4.357   5.681 -0.3843 -2.4789  2.8864
 2076SOL    HW2 9506   5.746   4.352   5.660 -0.1165 -0.6853 -0.0487
 2077SOL     OW 9507  10.486   6.141  10.892 -0.7491  0.1754 -0.8843
 2077SOL    HW1 9508  10.416   6.186  10.940 -1.6792 -1.9102 -0.1717
 2077SOL    HW2 9509  10.552   6.209  10.876 -1.3789  1.4494  1.4732
 2078SOL     OW 9510   3.689   6.603   1.634 -1.0758 -0.1372 -0.2781
 2078SOL    HW1 9511   3.734   6.579   1.552 -1.1923  1.2101 -0.7553
 2078SOL    HW2 9512   3.729   6.547   1.700 -0.2274 -0.5022 -1.0722
 2079SOL     OW 9513   4.916   3.135   4.709 -0.1197 -0.2940  0.1668
 2079SOL    HW1 9514   4.849   3.204   4.716  1.7533  1.6917 -0.2958
 2079SOL    HW2 9515   4.961   3.155   4.627  1.1436 -1.5015  0.5401
 2080SOL     OW 9516   2.648   5.998   6.215  0.4441 -0.1752 -0.0510
 2080SOL    HW1 9517   2.705   6.050   6.271  1.1043 -1.4979  0.5517
 2080SOL    HW2 9518   2.689   5.912   6.212 -1.7816 -1.3593  0.8702
 2081SOL     OW 9519   2.103   0.863   5.613 -0.5407 -0.5340  0.4541
 2081SOL    HW1 9520   2.118   0.915   5.692  1.3133  0.2276 -0.3504
 2081SOL    HW2 9521   2.182   0.810   5.604 -1.6828 -2.2804  0.3159
 2082SOL     OW 9522   4.542  10.047   5.554 -0.1446  0.6427 -0.8872
 2082SOL    HW1 9523   4.578  10.112   5.493  0.0778 -0.2649 -1.7628
 2082SOL    HW2 9524   4.610   9.980   5.560 -0.4336  0.4126 -0.1240
 2083SOL     OW 9525   7.998   2.886   4.883 -0.0176 -0.7947 -0.5602
 2083SOL    HW1 9526   7.932   2.932   4.935 -0.4186 -2.3994  0.4143
 2083SOL    HW2 9527   7.961   2.881   4.795  0.4494  1.5070 -0.9660
 2084SOL     OW 9528   7.075   5.926   8.970  0.5703 -0.1321 -0.3377
 2084SOL    HW1 9529   7.043   6.003   9.016 -2.8460 -2.3050  1.3444
 2084SOL    HW2 9530   7.010   5.910   8.902  0.1693 -2.3979  0.4769
 2085SOL     OW 9531   7.182  10.223   2.766  0.6303  0.1374 -0.1056
 2085SOL    HW1 9532   7.136  10.292   2.719 -0.4247 -0.2993  0.2746
 2085SOL    HW2 9533   7.139  10.218   2.851 -0.5261 -2.1965 -0.7521
 2086SOL     OW 9534   4.156   3.327   9.840 -0.0213  0.1848  0.2559
 2086SOL    HW1 9535   4.177   3.416   9.868  1.0543 -0.7232  2.5939
 2086SOL    HW2 9536   4.064   3.332   9.813  0.0965  2.0336  0.0447
 2087SOL     OW 9537   2.535   3.284   4.574 -0.3475  0.3980  0.3443
 2087SOL    HW1 9538   2.578   3.337   4.506  0.5913 -0.0416  0.5785
 2087SOL    HW2 9539   2.455   3.252   4.533  1.7179 -2.5859 -1.7960
 2088SOL     OW 9540   0.258   4.633   9.270  0.2530  0.8491 -0.1678
 2088SOL    HW1 9541   0.229   4.668   9.354  1.7023  0.3480  0.5891
 2088SOL    HW2 9542   0.232   4.541   9.272 -1.2903  1.2424 -1.0568
 2089SOL     OW 9543   5.077   6.608   2.006  0.8372 -0.0812  0.2672
 2089SOL    HW1 9544   5.156   6.566   2.040  0.1103 -0.8980  0.9994
 2089SOL    HW2 9545   5.102   6.700   1.997  1.1464  0.2128  3.0189
 2090SOL     OW 9546   6.662   4.612  11.061  0.2531  0.4107 -0.5027
 2090SOL    HW1 9547   6.732   4.668  11.096  0.7811  0.1697 -1.1395
 2090SOL    HW2 9548   6.613   4.668  11.001  0.3938  0.3716 -0.6570
 2091SOL     OW 9549   4.546  11.004   8.860  0.0787  0.0827 -0.2034
 2091SOL    HW1 9550   4.637  11.012   8.830  0.3084  0.5557  0.5790
 2091SOL    HW2 9551   4.545  11.050   8.944 -0.2824 -2.1117  1.0524
 2092SOL     OW 9552   1.477   9.221   4.929  0.3724  0.2387  0.3565
 2092SOL    HW1 9553   1.439   9.177   4.853 -0.6435  2.4279 -0.4799
 2092SOL    HW2 9554   1.548   9.274   4.894 -0.5721  1.8430  0.7495
 2093SOL     OW 9555   2.301   0.058   8.802 -0.2740  0.2210  0.5012
 2093SOL    HW1 9556   2.205   0.057   8.791 -0.2562 -0.5927  0.3159
 2093SOL    HW2 9557   2.326   0.149   8.786 -0.7649  0.0243 -1.7997
 2094SOL     OW 9558  10.153   3.913   8.936  0.5810  0.4243  0.0988
 2094SOL    HW1 9559  10.159   3.974   8.863  0.3558  0.7004  0.3034
 2094SOL    HW2 9560  10.129   3.968   9.011  1.4471  0.2432  0.5171
 2095SOL     OW 9561   0.858   2.482   2.158 -0.7448  0.4280  0.0045
 2095SOL    HW1 9562   0.907   2.523   2.087 -0.4278  1.3915  0.7628
 2095SOL    HW2 9563   0.790   2.431   2.113  0.3653 -0.2050 -1.0316
 2096SOL     OW 9564   9.077  11.052   3.898  0.0121  0.1985 -0.0850
 2096SOL    HW1 9565   8.984  11.033   3.896  0.3800 -2.2417  1.3009
 2096SOL    HW2 9566   9.117  10.979   3.851  1.3489 -0.2888  1.7080
 2097SOL     OW 9567   3.895   8.799   0.806 -0.0836  0.3394 -0.0061
 2097SOL    HW1 9568   3.893   8.844   0.722 -1.9405  1.0535  0.3835
 2097SOL    HW2 9569   3.938   8.861   0.866 -0.7939  0.7623  0.0700
 2098SOL     OW 9570   5.459   3.212   6.221  0.1126 -0.8236 -0.2547
 2098SOL    HW1 9571   5.497   3.285   6.172  0.0737 -0.8057 -0.2572
 2098SOL    HW2 9572   5.483   3.134   6.171  1.0461 -0.9087  0.2828
 2099SOL     OW 9573   8.637   4.134   0.557  0.0876 -0.2417  0.1256
 2099SOL    HW1 9574   8.699   4.186   0.608 -1.4925  0.9193  0.9273
 2099SOL    HW2 9575   8.692   4.072   0.509  1.9627  1.5403 -0.1595
 2100SOL     OW 9576  11.066   4.630   0.973  0.3722  0.1338  0.7151
 2100SOL    HW1 9577  11.111   4.603   0.893  0.6002  0.7889  0.6162
 2100SOL    HW2 9578  10.991   4.571   0.979 -0.9433  1.4615 -1.2041
 2101SOL     OW 9579   8.243   3.026   4.382 -0.4560  0.2212 -0.0166
 2101SOL    HW1 9580   8.153   3.025   4.414 -0.8861 -0.5813 -1.1782
 2101SOL    HW2 9581   8.292   3.076   4.448 -1.3857 -0.8682  1.5673
 2102SOL     OW 9582  10.481   7.289   1.929 -0.2352 -0.3093  0.3199
 2102SOL    HW1 9583  10.423   7.234   1.876 -0.9945 -0.3940  1.2050
 2102SOL    HW2 9584  10.421   7.340   1.984  0.4719  1.0904 -0.1740
 2103SOL     OW 9585   0.696   2.128   1.027 -0.3103 -0.4094  0.7263
 2103SOL    HW1 9586   0.755   2.202   1.012 -1.9927  0.9442  0.4803
 2103SOL    HW2 9587   0.754   2.052   1.031  1.3575  0.7055 -0.5773
 2104SOL     OW 9588   6.737   6.694   6.715  0.2022  0.1093 -0.0128
 2104SOL    HW1 9589   6.699   6.717   6.630 -0.4904  1.6127  0.6580
 2104SOL    HW2 9590   6.751   6.778   6.758  3.1499 -0.4550  0.3038
 2105SOL     OW 9591   0.345   8.085   3.785 -0.3536  0.3963 -0.0850
 2105SOL    HW1 9592   0.310   8.116   3.869 -1.4044 -1.0124  0.0310
 2105SOL    HW2 9593   0.300   8.137   3.719 -0.4698  0.6279  0.1766
 2106SOL     OW 9594   6.314   9.722   7.485 -0.1362 -0.1382  0.1495
 2106SOL    HW1 9595   6.290   9.735   7.393  0.2577 -1.4770 -0.1586
 2106SOL    HW2 9596   6.379   9.790   7.503 -1.6710  1.4510  0.0581
 2107SOL     OW 9597   6.866   4.787   8.098 -0.5239 -0.4629  0.2004
 2107SOL    HW1 9598   6.856   4.692   8.097 -0.8407 -0.4241 -0.3363
 2107SOL    HW2 9599   6.797   4.820   8.041  1.2847 -0.0823 -1.9126
 2108SOL     OW 9600   7.310   9.034   5.502  0.2567 -0.0287 -0.3627
 2108SOL    HW1 9601   7.392   9.008   5.460  1.5919 -0.5451  2.3661
 2108SOL    HW2 9602   7.264   8.952   5.517 -0.0774  0.1222 -0.5637
 2109SOL     OW 9603   2.345   3.335   4.225 -0.3635  0.3746 -0.2607
 2109SOL    HW1 9604   2.409   3.350   4.156  0.2164 -0.4635  0.0800
 2109SOL    HW2 9605   2.287   3.411   4.221  2.5205  2.9347  1.5607
 2110SOL     OW 9606   5.974   8.257  10.670  0.4371 -0.0464  0.4952
 2110SOL    HW1 9607   5.992   8.284  10.580 -1.1888 -0.0068  0.1447
 2110SOL    HW2 9608   5.959   8.162  10.664  1.7812 -0.3051  0.9845
 2111SOL     OW 9609   3.071   4.187   4.122  0.3430 -0.0499 -0.3440
 2111SOL    HW1 9610   2.998   4.149   4.170  1.7028 -1.1282  0.9620
 2111SOL    HW2 9611   3.059   4.158   4.032 -0.3952 -0.8866  0.0184
 2112SOL     OW 9612   9.062   8.136   0.400 -0.1985  0.2320 -0.2289
 2112SOL    HW1 9613   9.002   8.106   0.468  0.5373 -0.6156  0.0455
 2112SOL    HW2 9614   9.031   8.092   0.320  0.0723 -0.2249 -0.0827
 2113SOL     OW 9615   0.994   6.158   8.637  0.7736 -0.8008 -0.0900
 2113SOL    HW1 9616   0.910   6.187   8.602  0.7563 -1.7715 -0.8685
 2113SOL    HW2 9617   0.974   6.127   8.725  0.2864 -1.1845 -0.3358
 2114SOL     OW 9618   8.400   5.492   0.788  0.9513  0.4202 -0.7723
 2114SOL    HW1 9619   8.439   5.512   0.703  1.4796 -1.4373 -1.0101
 2114SOL    HW2 9620   8.312   5.530   0.783  1.9484  2.9254 -0.9770
 2115SOL     OW 9621   1.541   5.550   7.569  0.2055 -0.4725  0.0305
 2115SOL    HW1 9622   1.482   5.612   7.614  0.6410  0.5714 -0.8013
 2115SOL    HW2 9623   1.611   5.605   7.535  0.7031 -1.4691 -0.5736
 2116SOL     OW 9624   0.972   5.722  10.624  0.2170  0.0726  0.0295
 2116SOL    HW1 9625   0.991   5.727  10.718 -1.4879 -0.5602  0.4326
 2116SOL    HW2 9626   0.923   5.801  10.605  0.6858  0.2726 -0.3813
 2117SOL     OW 9627   3.104   4.835   4.789  0.2078 -0.1413  0.0630
 2117SOL    HW1 9628   3.158   4.839   4.710 -0.4146  1.1834 -0.3201
 2117SOL    HW2 9629   3.107   4.923   4.825  0.1095 -0.6169  1.2892
 2118SOL     OW 9630   6.569   6.155   5.984 -0.2194  0.9581 -0.3813
 2118SOL    HW1 9631   6.628   6.230   5.992  1.0697  0.0086 -0.5376
 2118SOL    HW2 9632   6.607   6.089   6.043 -0.5766 -0.0188 -1.2131
 2119SOL     OW 9633   3.198  10.955   8.819 -0.3058  0.0288  0.3260
 2119SOL    HW1 9634   3.114  10.992   8.793  0.0466  0.4566 -0.2232
 2119SOL    HW2 9635   3.251  11.031   8.843  0.1229 -0.1867  0.0745
 2120SOL     OW 9636   6.635   1.682   8.956  0.3590  0.5561  0.2036
 2120SOL    HW1 9637   6.621   1.731   8.874  0.1247 -0.1405 -0.1800
 2120SOL    HW2 9638   6.688   1.607   8.930 -2.7818 -1.7803 -0.1018
 2121SOL     OW 9639   4.917   9.194   9.075  0.0677 -0.0505 -0.1139
 2121SOL    HW1 9640   4.919   9.106   9.113 -0.9787 -0.3867 -0.7692
 2121SOL    HW2 9641   4.900   9.252   9.149  0.2228 -0.4543  0.2430
 2122SOL     OW 9642   9.135   9.348  11.178  0.1859  0.1721  0.5329
 2122SOL    HW1 9643   9.148   9.309  11.091 -0.6000  1.0618  0.0038
 2122SOL    HW2 9644   9.058   9.304  11.213  1.0198 -0.8304  1.1828
 2123SOL     OW 9645   2.645   5.631   9.655  0.4746  0.2427 -0.0800
 2123SOL    HW1 9646   2.625   5.563   9.720  2.6956  0.6356  1.1263
 2123SOL    HW2 9647   2.571   5.629   9.595 -1.1486 -0.9344  1.8138
 2124SOL     OW 9648   0.881   3.391   8.711 -0.0733  0.1406 -0.2933
 2124SOL    HW1 9649   0.964   3.351   8.684 -0.0428  0.4800 -0.7123
 2124SOL    HW2 9650   0.883   3.389   8.806  0.0081 -0.6948 -0.3044
 2125SOL     OW 9651   4.605   0.594   7.150 -0.3791 -0.3677 -1.2556
 2125SOL    HW1 9652   4.528   0.538   7.140 -0.0439 -0.7832 -1.5811
 2125SOL    HW2 9653   4.651   0.557   7.226 -0.4228 -0.2198 -1.1582
 2126SOL     OW 9654   3.492   8.120   4.528  0.0197 -0.1649  0.7891
 2126SOL    HW1 9655   3.450   8.205   4.536 -1.0162 -0.5726 -0.0332
 2126SOL    HW2 9656   3.499   8.087   4.618 -1.3836 -0.0467  0.9598
 2127SOL     OW 9657   7.692   6.994   0.340  0.3563  0.3165 -0.1958
 2127SOL    HW1 9658   7.690   6.917   0.397 -0.4188 -0.7234 -1.5670
 2127SOL    HW2 9659   7.661   7.066   0.396 -1.1347 -0.8175  0.5184
 2128SOL     OW 9660   6.745   7.148   1.249 -0.8855  0.1735  0.4065
 2128SOL    HW1 9661   6.667   7.095   1.231 -0.6476  0.1229 -0.5370
 2128SOL    HW2 9662   6.802   7.090   1.300 -1.4404  0.1975  1.0702
 2129SOL     OW 9663   2.064   0.596   7.131 -0.0362  0.8429  0.5695
 2129SOL    HW1 9664   2.084   0.502   7.138 -0.9668  0.5751 -0.1628
 2129SOL    HW2 9665   2.078   0.630   7.219  0.9417  0.1460  0.7024
 2130SOL     OW 9666   3.392   6.961   1.912  0.1202  0.0686  0.3383
 2130SOL    HW1 9667   3.397   7.055   1.929  0.4749  0.1952 -0.4193
 2130SOL    HW2 9668   3.418   6.952   1.820 -0.0929 -0.7513  0.3519
 2131SOL     OW 9669   4.514  10.433  11.205 -0.3839  0.8173 -0.1052
 2131SOL    HW1 9670   4.593  10.427  11.151  0.1306 -2.0439  0.7937
 2131SOL    HW2 9671   4.482  10.343  11.210 -2.5034  1.5884  1.3379
 2132SOL     OW 9672   0.828   8.597   7.534  0.0209 -0.1749 -0.1365
 2132SOL    HW1 9673   0.912   8.608   7.577  0.0018 -0.9736  0.1213
 2132SOL    HW2 9674   0.840   8.521   7.478 -0.2984  0.1760 -0.6871
 2133SOL     OW 9675  10.382   4.461   8.964 -0.4346  0.6542  0.6124
 2133SOL    HW1 9676  10.347   4.385   9.009  0.1060 -0.6727 -1.0848
 2133SOL    HW2 9677  10.306   4.504   8.926 -0.5970 -0.1272  0.0232
 2134SOL     OW 9678   1.859   9.183   5.312  0.0829  0.0308  0.8556
 2134SOL    HW1 9679   1.778   9.179   5.261 -0.9511  0.4749  2.3939
 2134SOL    HW2 9680   1.909   9.106   5.284 -1.2418 -0.7262  0.4974
 2135SOL     OW 9681   7.295   0.789   5.590  0.0913 -0.1834  0.4824
 2135SOL    HW1 9682   7.379   0.806   5.546  0.3424  0.3744  1.1538
 2135SOL    HW2 9683   7.275   0.872   5.634 -1.9147  0.4380 -1.4158
 2136SOL     OW 9684   5.367   1.489   6.638  0.2457 -0.0896 -0.0734
 2136SOL    HW1 9685   5.343   1.486   6.545  2.3519 -1.1531 -0.6287
 2136SOL    HW2 9686   5.302   1.433   6.681 -0.3462 -0.1145 -0.9709
 2137SOL     OW 9687   6.769   2.291   9.865  0.0807 -0.3379 -0.2431
 2137SOL    HW1 9688   6.691   2.252   9.905 -0.8895  1.4956 -0.2347
 2137SOL    HW2 9689   6.830   2.218   9.855 -2.4078 -2.3154 -2.2606
 2138SOL     OW 9690   7.710   6.939   8.665 -0.2593  0.4569  0.0436
 2138SOL    HW1 9691   7.632   6.927   8.610 -0.5077 -0.6390  0.6224
 2138SOL    HW2 9692   7.767   6.866   8.643  1.3386  2.0933 -1.5191
 2139SOL     OW 9693  11.260   0.015   4.636  0.5693  0.1851  0.2381
 2139SOL    HW1 9694  11.322  -0.058   4.629  0.9908  0.6040 -0.4513
 2139SOL    HW2 9695  11.240   0.038   4.545 -1.6319 -0.7970  0.4035
 2140SOL     OW 9696  10.093   8.815   4.579  0.2811 -0.0018 -0.3110
 2140SOL    HW1 9697  10.161   8.876   4.552  0.6045 -0.8819 -1.5596
 2140SOL    HW2 9698  10.141   8.745   4.624  0.0937 -0.1611 -0.3592
 2141SOL     OW 9699   2.506   1.197   7.684 -0.1790 -0.1600  0.3493
 2141SOL    HW1 9700   2.568   1.217   7.755 -0.3911 -1.0839  0.8044
 2141SOL    HW2 9701   2.553   1.137   7.627 -0.2218  0.1215  0.0118
 2142SOL     OW 9702   6.961   8.761   0.686  0.4507 -0.5694 -0.7020
 2142SOL    HW1 9703   6.922   8.683   0.726 -0.9211  0.8673  0.8880
 2142SOL    HW2 9704   6.908   8.778   0.608  0.8764 -1.2837 -1.1685
 2143SOL     OW 9705   3.814  10.709   7.894 -0.2641 -0.2328 -0.2232
 2143SOL    HW1 9706   3.755  10.724   7.820 -1.7165  0.5735  1.0392
 2143SOL    HW2 9707   3.884  10.654   7.858  1.4949  3.5039 -3.3556
 2144SOL     OW 9708   5.024  11.128   5.120  0.0735  0.0045  0.1978
 2144SOL    HW1 9709   5.050  11.159   5.207  2.2958  0.8061 -0.6813
 2144SOL    HW2 9710   5.105  11.095   5.081 -0.7219  0.3220 -1.8399
 2145SOL     OW 9711   2.782   5.707   1.561 -0.0281 -0.2934  0.1173
 2145SOL    HW1 9712   2.865   5.743   1.532  0.4746 -1.6188 -0.1391
 2145SOL    HW2 9713   2.717   5.744   1.500  0.3586  0.7133  0.2982
 2146SOL     OW 9714   8.898   2.361   5.257  0.2072  0.2759 -0.2022
 2146SOL    HW1 9715   8.949   2.289   5.220 -0.3859  0.6171 -1.7407
 2146SOL    HW2 9716   8.876   2.416   5.182 -0.3354  1.4509  0.7892
 2147SOL     OW 9717   7.240   3.611   1.250  0.0834 -0.2066  0.0736
 2147SOL    HW1 9718   7.247   3.677   1.181  0.6772 -1.2284 -0.8608
 2147SOL    HW2 9719   7.258   3.659   1.331  0.5465  0.7616 -0.5895
 2148SOL     OW 9720   5.378   4.707   4.341 -0.2117  0.0785  0.0370
 2148SOL    HW1 9721   5.340   4.701   4.253  1.3742  1.8466 -0.8334
 2148SOL    HW2 9722   5.384   4.801   4.358 -1.2595 -0.2150  2.4404
 2149SOL     OW 9723  11.241   0.289   0.789  0.0690  0.2421  0.1167
 2149SOL    HW1 9724  11.163   0.344   0.786 -0.9937 -1.1757  0.4853
 2149SOL    HW2 9725  11.208   0.202   0.810  1.7746 -0.3819  0.3934
 2150SOL     OW 9726   4.306   3.857   1.168 -0.3636 -0.1500  0.3888
 2150SOL    HW1 9727   4.283   3.948   1.189  0.3058 -0.0003  0.4683
 2150SOL    HW2 9728   4.350   3.825   1.247 -0.1771 -0.3982  0.1819
 2151SOL     OW 9729   6.405   1.565   0.754 -0.2772 -0.2515  0.0218
 2151SOL    HW1 9730   6.493   1.538   0.781 -0.1589  0.7689  0.7041
 2151SOL    HW2 9731   6.366   1.602   0.834 -0.5921  1.1479 -0.7579
 2152SOL     OW 9732   2.378   4.149   5.125 -0.3580 -0.4532 -0.0076
 2152SOL    HW1 9733   2.377   4.092   5.048 -0.9802 -3.6068  2.1686
 2152SOL    HW2 9734   2.450   4.116   5.179  0.3747  1.9873  0.6509
 2153SOL     OW 9735   3.333   8.202   8.845 -0.4374  0.6685  0.4107
 2153SOL    HW1 9736   3.366   8.234   8.761 -1.9592  1.0863 -0.0688
 2153SOL    HW2 9737   3.393   8.133   8.871 -0.1937  0.2299 -1.2522
 2154SOL     OW 9738   7.742   3.730   2.974 -0.7027  0.0685  0.2234
 2154SOL    HW1 9739   7.753   3.790   2.900  2.2362  0.6889  1.0470
 2154SOL    HW2 9740   7.822   3.678   2.975 -0.9655 -0.4064  2.5738
 2155SOL     OW 9741   4.185   1.779   3.244  0.4345  0.3387 -0.0828
 2155SOL    HW1 9742   4.241   1.702   3.239  1.0704  0.8441 -1.3569
 2155SOL    HW2 9743   4.106   1.749   3.289  1.4922 -0.5190  1.2903
 2156SOL     OW 9744   8.911   7.267   0.431  0.1449  0.1287  0.5296
 2156SOL    HW1 9745   8.964   7.345   0.450  2.7312 -1.4440  0.2421
 2156SOL    HW2 9746   8.973   7.205   0.394 -1.0633 -3.2167  3.5582
 2157SOL     OW 9747   9.494   4.711   6.702 -0.3723 -0.3988  0.4921
 2157SOL    HW1 9748   9.411   4.760   6.701 -0.6627 -0.8448 -0.9981
 2157SOL    HW2 9749   9.525   4.717   6.612  1.7683  0.6088  1.2414
 2158SOL     OW 9750   3.017   1.746   2.490  0.3615 -0.1051 -0.0093
 2158SOL    HW1 9751   2.995   1.684   2.560  1.9715 -0.8150 -0.0878
 2158SOL    HW2 9752   2.940   1.746   2.433  0.3193 -2.0641 -0.0121
 2159SOL     OW 9753   1.820   4.042   3.614  0.0828 -0.2492  0.0872
 2159SOL    HW1 9754   1.746   3.982   3.616 -0.1055 -0.0677 -0.9267
 2159SOL    HW2 9755   1.867   4.020   3.534  1.7011 -1.0163  1.1971
 2160SOL     OW 9756   2.691   5.935   6.586  0.1334  0.5053  0.3469
 2160SOL    HW1 9757   2.627   5.864   6.594 -1.1871  1.4801 -0.9230
 2160SOL    HW2 9758   2.656   5.990   6.516  2.6842  0.7973 -0.7980
 2161SOL     OW 9759   9.293   5.595  10.824 -0.5058 -0.1637 -0.5103
 2161SOL    HW1 9760   9.325   5.685  10.817  2.6578 -1.2302 -1.4647
 2161SOL    HW2 9761   9.314   5.556  10.739 -1.5071 -1.9312  0.0033
 2162SOL     OW 9762   3.730   2.575  10.156  0.2278  0.3515 -0.2192
 2162SOL    HW1 9763   3.672   2.576  10.080 -1.5681  2.8350  1.0242
 2162SOL    HW2 9764   3.771   2.661  10.156  0.6394  0.1807  1.2909
 2163SOL     OW 9765   3.101   9.538   1.348  0.5603  0.0981 -0.1077
 2163SOL    HW1 9766   3.044   9.614   1.359  0.0515 -0.2370 -0.3896
 2163SOL    HW2 9767   3.071   9.476   1.414  0.8948  0.0989  0.0422
 2164SOL     OW 9768   6.082   2.209   3.439 -0.3846 -0.2035  0.6462
 2164SOL    HW1 9769   6.072   2.300   3.410 -1.5526 -0.6728 -0.5150
 2164SOL    HW2 9770   6.012   2.198   3.504  0.2816 -0.0558  1.4087
 2165SOL     OW 9771  10.971   2.704   4.376  0.1026  0.3460 -0.0007
 2165SOL    HW1 9772  10.888   2.715   4.328 -0.0530  0.7139  0.3473
 2165SOL    HW2 9773  10.955   2.746   4.461  0.9873  1.3921 -0.3205
 2166SOL     OW 9774   5.576   3.028  10.961  0.5971  0.0371  0.4368
 2166SOL    HW1 9775   5.485   2.999  10.951  1.2234 -1.6517 -1.0187
 2166SOL    HW2 9776   5.585   3.046  11.054 -0.5943 -2.1941  1.0692
 2167SOL     OW 9777   5.522  10.592   3.194 -0.1711  0.5160 -0.2679
 2167SOL    HW1 9778   5.600  10.633   3.229 -0.6740  1.7069 -0.5153
 2167SOL    HW2 9779   5.538  10.498   3.205  0.9161  0.7660  0.4645
 2168SOL     OW 9780   8.122   1.549   8.413 -0.5584 -0.6238  0.3047
 2168SOL    HW1 9781   8.027   1.557   8.404 -0.5216  1.4581  1.1324
 2168SOL    HW2 9782   8.152   1.524   8.325 -1.7224  0.6775 -0.5205
 2169SOL     OW 9783   7.990   1.160   5.839  0.3614 -0.3415  0.1144
 2169SOL    HW1 9784   7.980   1.176   5.745  0.3526  1.1906  0.3579
 2169SOL    HW2 9785   7.916   1.206   5.879  0.6766 -0.5248  0.9252
 2170SOL     OW 9786   5.668   1.129  10.269  0.5229  0.1762  0.3875
 2170SOL    HW1 9787   5.700   1.039  10.264 -0.2399 -0.0720 -0.1182
 2170SOL    HW2 9788   5.724   1.177  10.208  1.4211  0.2077  1.2085
 2171SOL     OW 9789   1.663   6.273   7.742 -0.7941 -0.7251 -0.0006
 2171SOL    HW1 9790   1.685   6.257   7.650 -1.3031 -1.7618  0.0424
 2171SOL    HW2 9791   1.671   6.188   7.784 -0.6424 -0.2738  0.9088
 2172SOL     OW 9792   0.971   4.589   3.581  0.1231  0.2405  0.8289
 2172SOL    HW1 9793   0.921   4.670   3.583  0.1486  0.2476  1.4435
 2172SOL    HW2 9794   0.927   4.535   3.515  0.7167  1.1305 -0.3337
 2173SOL     OW 9795   6.770   3.608  11.265  0.0552  0.1585 -0.0935
 2173SOL    HW1 9796   6.802   3.612  11.175  0.1997 -0.6071 -0.0854
 2173SOL    HW2 9797   6.754   3.699  11.290  1.1562  0.4643 -0.4811
 2174SOL     OW 9798   6.747   5.069   2.563  0.0740 -0.1406 -0.8877
 2174SOL    HW1 9799   6.744   5.103   2.474  1.0070  0.5205 -0.6904
 2174SOL    HW2 9800   6.813   5.123   2.607 -1.2258  0.3600  0.5493
 2175SOL     OW 9801   6.121  10.317   2.956 -0.2796 -0.1573  0.1951
 2175SOL    HW1 9802   6.033  10.351   2.941  0.4646  1.0724 -1.8475
 2175SOL    HW2 9803   6.136  10.256   2.884  0.6153 -0.2071  0.4145
 2176SOL     OW 9804   5.492   9.085   5.347  0.4112 -0.3704 -0.0024
 2176SOL    HW1 9805   5.521   9.175   5.333  2.3949 -0.5287  2.3850
 2176SOL    HW2 9806   5.533   9.035   5.277 -1.8507  0.6606 -2.2167
 2177SOL     OW 9807   8.196   9.736   4.836  0.2416  0.6206  0.4291
 2177SOL    HW1 9808   8.208   9.668   4.902 -1.3233 -0.2068 -0.0818
 2177SOL    HW2 9809   8.272   9.728   4.779  0.9653  0.5004  1.3823
 2178SOL     OW 9810   8.549   5.921   6.073  0.7611  0.1308  0.3837
 2178SOL    HW1 9811   8.574   5.832   6.095  1.9091  0.5461  0.8652
 2178SOL    HW2 9812   8.516   5.916   5.983  1.5388 -0.6571  0.1329
 2179SOL     OW 9813   5.824  10.221   3.136  0.0583 -0.5661 -0.2854
 2179SOL    HW1 9814   5.733  10.248   3.129  0.2827 -0.2107 -2.4320
 2179SOL    HW2 9815   5.868  10.298   3.174 -0.4289 -0.5678  0.3072
 2180SOL     OW 9816   9.525   7.821  10.971  0.3725  0.0168 -0.5799
 2180SOL    HW1 9817   9.536   7.808  10.877 -0.8667  1.2943 -0.9509
 2180SOL    HW2 9818   9.515   7.733  11.006 -1.4787 -0.4348 -2.0109
 2181SOL     OW 9819   4.008  10.948   6.914  0.0348 -0.0882  0.2915
 2181SOL    HW1 9820   3.953  10.955   6.991 -0.4574  0.0491 -0.0640
 2181SOL    HW2 9821   3.958  10.991   6.844  1.4383  1.8769  0.3857
 2182SOL     OW 9822   3.064  10.662   0.362 -0.1629  0.4520  0.8259
 2182SOL    HW1 9823   3.042  10.570   0.374  1.4404  0.1266  1.5010
 2182SOL    HW2 9824   3.159  10.665   0.368  0.2355  1.5705 -3.0479
 2183SOL     OW 9825   7.210   1.563  10.148  0.0473 -0.0594 -0.3321
 2183SOL    HW1 9826   7.206   1.553  10.243  0.5048  0.8521 -0.2059
 2183SOL    HW2 9827   7.303   1.580  10.129  0.4355 -2.5868 -1.2144
 2184SOL     OW 9828   4.965   3.494   2.165 -0.4569 -0.2092  0.4603
 2184SOL    HW1 9829   4.971   3.589   2.161 -0.2775 -0.2395 -0.0478
 2184SOL    HW2 9830   4.907   3.470   2.093 -1.9335 -0.3667  1.6594
 2185SOL     OW 9831   9.873  10.364  11.284  0.1463  0.0470  0.4439
 2185SOL    HW1 9832   9.858  10.386  11.376 -0.7618  0.7775  0.1364
 2185SOL    HW2 9833   9.802  10.409  11.237  0.5253 -0.4218 -0.5979
 2186SOL     OW 9834  10.989   2.802   0.823 -0.1532  0.3337  0.2429
 2186SOL    HW1 9835  11.048   2.736   0.862  0.6262  0.3016 -0.9506
 2186SOL    HW2 9836  10.931   2.752   0.766 -0.2763  0.5559  0.1714
 2187SOL     OW 9837   9.836   5.860   6.014  0.2487  0.8293 -0.0910
 2187SOL    HW1 9838   9.745   5.829   6.010  1.0791 -1.8928 -0.2401
 2187SOL    HW2 9839   9.848   5.888   6.105 -0.7499  1.2900 -0.0910
 2188SOL     OW 9840   6.583   2.178   6.628 -0.1262  0.5315 -0.3770
 2188SOL    HW1 9841   6.561   2.174   6.721 -0.8705 -0.5090 -0.5818
 2188SOL    HW2 9842   6.561   2.267   6.602  1.7542  1.4025  0.8206
 2189SOL     OW 9843   9.747   2.101  10.345  0.4442  0.8125  0.3511
 2189SOL    HW1 9844   9.667   2.087  10.295  0.2576 -0.4270  0.9588
 2189SOL    HW2 9845   9.739   2.189  10.381  0.2454  1.4387 -1.1747
 2190SOL     OW 9846   0.620   5.338   5.373  0.1838  0.2054  0.2872
 2190SOL    HW1 9847   0.642   5.420   5.417  0.0668  1.0759 -1.2044
 2190SOL    HW2 9848   0.526   5.327   5.389  0.1550  0.4759  0.3141
 2191SOL     OW 9849   1.153  10.230   3.531  0.2323  0.8775  0.2310
 2191SOL    HW1 9850   1.060  10.214   3.551  0.6951 -1.0424  1.1605
 2191SOL    HW2 9851   1.155  10.316   3.490 -2.1554  0.3222 -1.2507
 2192SOL     OW 9852   5.040   9.366  10.290  0.2522  0.2975  0.1967
 2192SOL    HW1 9853   5.116   9.416  10.321  0.5904  1.0904 -1.7366
 2192SOL    HW2 9854   5.010   9.317  10.366  3.2532 -0.7497  0.8362
 2193SOL     OW 9855   9.484   3.541   5.494 -0.2905  0.1800 -0.5181
 2193SOL    HW1 9856   9.473   3.615   5.434  1.0922  1.1020  0.2903
 2193SOL    HW2 9857   9.455   3.575   5.578 -0.1807 -0.3836 -0.2545
 2194SOL     OW 9858   2.143  11.012   4.739 -0.1966  0.3707  0.1780
 2194SOL    HW1 9859   2.125  11.018   4.833  0.5284  2.5351  0.2213
 2194SOL    HW2 9860   2.212  11.076   4.724 -0.1530 -0.0936 -1.8189
 2195SOL     OW 9861   2.044   5.390   3.577 -0.2254 -0.0671 -0.5078
 2195SOL    HW1 9862   1.969   5.391   3.636  0.1730 -0.2760  0.0114
 2195SOL    HW2 9863   2.063   5.298   3.563  0.4785 -0.0170  0.0716
 2196SOL     OW 9864   1.659  11.304   5.750 -0.2299 -0.5928 -0.0215
 2196SOL    HW1 9865   1.723  11.296   5.680 -0.3366  0.2662 -0.2318
 2196SOL    HW2 9866   1.711  11.307   5.830  0.1571  1.6974 -0.2794
 2197SOL     OW 9867   9.368   2.247   5.743 -0.0843  0.0702  0.5098
 2197SOL    HW1 9868   9.347   2.322   5.687 -0.9273  0.3443  1.1799
 2197SOL    HW2 9869   9.306   2.179   5.716  1.9612 -1.1482 -1.5119
 2198SOL     OW 9870   4.917   0.388   6.550  0.2601 -0.5191 -0.2713
 2198SOL    HW1 9871   4.937   0.437   6.630 -1.9162 -1.1481  0.7570
 2198SOL    HW2 9872   4.919   0.296   6.577 -0.8972 -0.7241 -0.7979
 2199SOL     OW 9873   8.894   2.288  10.864  0.2482  0.2469  0.4498
 2199SOL    HW1 9874   8.865   2.235  10.939  1.2346 -1.3901 -0.2603
 2199SOL    HW2 9875   8.836   2.262  10.792 -1.5938  2.8161  0.8935
 2200SOL     OW 9876   5.763   4.104   6.657 -0.6365 -0.6219  0.0333
 2200SOL    HW1 9877   5.747   4.013   6.682 -1.0736 -0.9014 -1.2344
 2200SOL    HW2 9878   5.757   4.105   6.562  2.7395  0.0672 -0.3112
 2201SOL     OW 9879   2.468   5.350   2.777 -0.5789  0.1469 -0.5925
 2201SOL    HW1 9880   2.531   5.378   2.710 -1.5164 -1.4887 -2.2233
 2201SOL    HW2 9881   2.404   5.421   2.780 -0.1851  0.5268 -0.9824
 2202SOL     OW 9882  10.631   7.293  10.200  0.2447 -0.4045 -0.2357
 2202SOL    HW1 9883  10.587   7.367  10.157 -0.3672 -0.1578  0.7662
 2202SOL    HW2 9884  10.561   7.229  10.214  0.6498 -0.9219 -0.5488
 2203SOL     OW 9885   1.761   7.272  10.803 -0.1861  0.4700 -0.6964
 2203SOL    HW1 9886   1.687   7.330  10.820 -0.7960  0.2327 -2.3732
 2203SOL    HW2 9887   1.721   7.185  10.793  0.5047  0.0747 -0.1029
 2204SOL     OW 9888   0.213   7.060   1.612 -0.2077 -0.1894  0.6899
 2204SOL    HW1 9889   0.304   7.050   1.642 -0.5290  2.1246  2.7648
 2204SOL    HW2 9890   0.170   6.980   1.642  0.8070 -0.6033  1.1274
 2205SOL     OW 9891   3.482  10.316   3.059  0.5503 -0.0162 -0.3359
 2205SOL    HW1 9892   3.576  10.322   3.075  0.7631 -3.6078  0.5633
 2205SOL    HW2 9893   3.442  10.351   3.138  1.1760 -0.0528  0.0068
 2206SOL     OW 9894   7.719   5.168   7.343  0.1733  0.0614 -0.2943
 2206SOL    HW1 9895   7.802   5.204   7.372 -0.3970  0.7347  0.5516
 2206SOL    HW2 9896   7.742   5.089   7.294  1.4277  1.3737 -1.9347
 2207SOL     OW 9897   6.295   4.830   1.545  0.2894 -0.5794  0.0947
 2207SOL    HW1 9898   6.251   4.794   1.622  0.9624 -1.6377  0.0120
 2207SOL    HW2 9899   6.284   4.925   1.553 -0.9975 -0.7535  0.6618
 2208SOL     OW 9900   3.833  10.134   3.161 -1.1588 -0.5964 -1.0828
 2208SOL    HW1 9901   3.812  10.044   3.185  1.2919 -0.5582  1.8054
 2208SOL    HW2 9902   3.905  10.127   3.099 -0.9123 -0.6262 -0.7930
 2209SOL     OW 9903   3.709   6.312   3.099 -0.5912 -0.0721 -0.0272
 2209SOL    HW1 9904   3.702   6.232   3.151 -0.2811  0.2581  0.5286
 2209SOL    HW2 9905   3.777   6.364   3.143 -1.0395  0.6493 -0.1670
 2210SOL     OW 9906   5.903   6.165   4.610 -0.0476 -0.2820  0.5432
 2210SOL    HW1 9907   5.927   6.182   4.519  0.1727  0.2530  0.6991
 2210SOL    HW2 9908   5.986   6.137   4.651  0.0785  0.4653  0.8148
 2211SOL     OW 9909   0.462   3.462   4.190 -0.1764  0.0663  0.2661
 2211SOL    HW1 9910   0.529   3.529   4.184  1.2718 -1.3276  0.2185
 2211SOL    HW2 9911   0.419   3.463   4.105 -0.2105  0.9438  0.2837
 2212SOL     OW 9912   8.712   8.185   8.649 -0.4364 -0.3741 -0.2038
 2212SOL    HW1 9913   8.628   8.144   8.630 -0.5637  0.2653 -1.0673
 2212SOL    HW2 9914   8.777   8.118   8.627 -0.6953 -0.6519 -0.1260
 2213SOL     OW 9915  10.160   4.890   8.511 -0.3429  0.3167 -0.1040
 2213SOL    HW1 9916  10.249   4.912   8.536 -0.7062  0.0016  1.6187
 2213SOL    HW2 9917  10.151   4.922   8.421  2.1968 -1.6412 -1.1974
 2214SOL     OW 9918   3.205   2.456  10.939  0.1125 -0.6106 -0.1286
 2214SOL    HW1 9919   3.271   2.412  10.992  1.0432  1.6396  0.7191
 2214SOL    HW2 9920   3.154   2.508  11.001 -0.3721  0.1697 -1.1406
 2215SOL     OW 9921  10.281   9.129   8.956 -0.0359 -0.0129 -0.4693
 2215SOL    HW1 9922  10.218   9.111   8.886 -0.5693  0.5997 -0.1578
 2215SOL    HW2 9923  10.366   9.109   8.918 -0.3797 -0.4207 -1.0405
 2216SOL     OW 9924   6.379   7.186   8.751 -0.0549  0.1885  0.5944
 2216SOL    HW1 9925   6.324   7.235   8.812 -1.7277 -2.3742  1.3295
 2216SOL    HW2 9926   6.335   7.195   8.666  0.1255  0.6681  0.5534
 2217SOL     OW 9927   9.640   9.149   0.068 -0.0747  0.1348  0.7817
 2217SOL    HW1 9928   9.654   9.161   0.162 -2.1682 -1.3250  1.3550
 2217SOL    HW2 9929   9.580   9.074   0.062 -0.2467  0.3827 -1.7060
 2218SOL     OW 9930  10.274   0.926   0.464  0.2546  0.0720 -0.2776
 2218SOL    HW1 9931  10.356   0.976   0.468  1.4026 -1.5883 -1.4782
 2218SOL    HW2 9932  10.213   0.985   0.420  1.7101  0.3279 -2.1323
 2219SOL     OW 9933   5.603   4.873   3.208 -0.6533 -0.2078  0.1654
 2219SOL    HW1 9934   5.685   4.921   3.225 -0.5697 -0.3851  0.2682
 2219SOL    HW2 9935   5.621   4.784   3.239 -0.0317 -0.9165 -1.9871
 2220SOL     OW 9936   7.110   7.325   6.810  0.2186 -0.2985 -0.6494
 2220SOL    HW1 9937   7.096   7.234   6.784  3.5747 -0.6865 -1.5297
 2220SOL    HW2 9938   7.205   7.334   6.818 -0.0700  2.6778  1.2536
 2221SOL     OW 9939   0.884   6.987   8.864 -0.0970  0.3786 -0.2368
 2221SOL    HW1 9940   0.810   7.002   8.923 -0.7184 -0.4112 -0.7806
 2221SOL    HW2 9941   0.934   6.917   8.907  0.3933  0.9795  0.1790
 2222SOL     OW 9942   5.005  10.842   7.381  0.1719 -0.3834  0.1410
 2222SOL    HW1 9943   5.025  10.756   7.345 -0.9340 -1.1429  1.2560
 2222SOL    HW2 9944   4.975  10.824   7.471 -0.6415  1.1001  0.1915
 2223SOL     OW 9945   7.969   2.045   4.740  0.0553 -0.7512  0.7938
 2223SOL    HW1 9946   8.034   1.978   4.718 -0.7678 -2.0459  2.1017
 2223SOL    HW2 9947   7.930   2.069   4.656  1.5018 -0.6712  0.1058
 2224SOL     OW 9948   6.365   7.779   1.867  0.1937  0.1113  0.1019
 2224SOL    HW1 9949   6.455   7.748   1.879  0.1236  0.2143  0.9925
 2224SOL    HW2 9950   6.334   7.735   1.788  1.1827  0.4501 -0.4915
 2225SOL     OW 9951   1.357  10.120   1.971  0.5325 -0.4035  0.4841
 2225SOL    HW1 9952   1.439  10.169   1.969  0.0769  0.5438  2.2216
 2225SOL    HW2 9953   1.315  10.149   2.052 -1.2245 -1.3423 -0.0465
 2226SOL     OW 9954   7.186   5.014  10.817 -0.1931 -0.3906 -0.0378
 2226SOL    HW1 9955   7.268   5.016  10.768  1.5819  0.5141  2.7014
 2226SOL    HW2 9956   7.134   5.085  10.780 -0.0173 -1.2755 -2.1377
 2227SOL     OW 9957   0.569   1.657   8.774 -0.7212 -0.6502  0.0999
 2227SOL    HW1 9958   0.606   1.674   8.688 -0.9595  0.9280  0.2802
 2227SOL    HW2 9959   0.602   1.571   8.798  0.1394 -0.6849 -1.1444
 2228SOL     OW 9960   0.276   2.912  10.635  0.2926  0.3576 -0.2516
 2228SOL    HW1 9961   0.286   2.968  10.558  0.4175  0.0665 -0.4527
 2228SOL    HW2 9962   0.310   2.827  10.606  0.6554  0.3359  0.2337
 2229SOL     OW 9963   0.932   9.239   5.250  0.1346 -0.0755 -0.0970
 2229SOL    HW1 9964   0.909   9.315   5.303  0.8828 -1.3637  2.2119
 2229SOL    HW2 9965   0.966   9.276   5.168 -0.0976  2.0296  0.6926
 2230SOL     OW 9966   2.366   5.946   2.486 -0.5066  0.5586  0.3750
 2230SOL    HW1 9967   2.304   5.874   2.500  1.0650 -0.5913  1.6795
 2230SOL    HW2 9968   2.413   5.922   2.406  0.9257 -0.6129  1.5073
 2231SOL     OW 9969   9.282   6.689   1.663  0.4479  0.1154  0.1584
 2231SOL    HW1 9970   9.356   6.657   1.611  0.7848 -1.8192  1.7128
 2231SOL    HW2 9971   9.210   6.629   1.643  0.1464  0.2548  0.7833
 2232SOL     OW 9972   8.652   3.614   5.923  0.1268 -0.1292  0.5973
 2232SOL    HW1 9973   8.599   3.588   5.848  0.0586  0.1991  0.5319
 2232SOL    HW2 9974   8.632   3.706   5.937  0.2514 -0.1483  0.9272
 2233SOL     OW 9975   6.823   6.815   3.415  0.1570 -0.1063 -0.2491
 2233SOL    HW1 9976   6.871   6.858   3.344 -0.5096  0.0695 -0.5951
 2233SOL    HW2 9977   6.829   6.876   3.488 -0.9575  0.6957 -0.7991
 2234SOL     OW 9978   7.385   0.345   1.073 -0.1565 -0.2462  0.3179
 2234SOL    HW1 9979   7.414   0.280   1.137  0.9420 -0.0264  0.0679
 2234SOL    HW2 9980   7.462   0.360   1.018 -1.4864 -1.6175 -2.0930
 2235SOL     OW 9981   6.651   5.124   7.125  0.4603 -0.3123 -0.5809
 2235SOL    HW1 9982   6.737   5.153   7.094  0.0241  0.5172 -1.0465
 2235SOL    HW2 9983   6.610   5.084   7.048  0.2286 -0.2313 -0.5002
 2236SOL     OW 9984   2.098   1.268   6.123 -0.2782 -0.2401 -0.5408
 2236SOL    HW1 9985   2.105   1.206   6.196 -1.8127  0.9618  0.6862
 2236SOL    HW2 9986   2.177   1.252   6.071  0.6280 -1.4619  1.1079
 2237SOL     OW 9987   7.594   7.695   7.977  0.0330 -1.0902 -0.2793
 2237SOL    HW1 9988   7.580   7.726   7.887 -0.3262 -0.0186  0.1208
 2237SOL    HW2 9989   7.683   7.724   7.998 -0.3105 -0.2847  0.1038
 2238SOL     OW 9990   7.115   3.357   3.675 -0.8221  0.2669  0.7103
 2238SOL    HW1 9991   7.086   3.272   3.642 -1.0435  0.2904  0.8373
 2238SOL    HW2 9992   7.114   3.347   3.770  0.2482  0.0585  0.7105
 2239SOL     OW 9993  10.167   5.351   8.428  0.2906 -0.1374 -0.5518
 2239SOL    HW1 9994  10.157   5.375   8.336 -1.3655 -0.2002 -0.4223
 2239SOL    HW2 9995  10.243   5.401   8.458  0.5249  0.2906 -1.8160
 2240SOL     OW 9996   5.609   6.556   6.937  0.2243  0.1902  0.2089
 2240SOL    HW1 9997   5.637   6.647   6.947 -0.4130  0.2735  1.5733
 2240SOL    HW2 9998   5.576   6.532   7.024 -0.9295 -0.8945 -0.4926
 2241SOL     OW 9999   5.444   1.071   5.129  0.0644  0.5780  0.4194
 2241SOL    HW110000   5.483   1.095   5.213 -1.1223  0.2062  1.0898
 2241SOL    HW210001   5.419   0.979   5.139 -0.6743  0.7144 -0.1099
 2242SOL     OW10002  11.202   9.179   8.515 -0.1876  0.1622  0.1062
 2242SOL    HW110003  11.161   9.148   8.596  0.5579  1.9621  1.2559
 2242SOL    HW210004  11.288   9.136   8.514 -0.5518 -0.5719 -0.2290
 2243SOL     OW10005   2.169   2.413   2.689  0.2466  0.0872  0.1835
 2243SOL    HW110006   2.141   2.476   2.624  0.0557 -0.0181  0.1615
 2243SOL    HW210007   2.198   2.466   2.764 -1.2349  0.1948  0.7148
 2244SOL     OW10008   7.838   6.478   4.111  0.1673  0.3520 -0.3872
 2244SOL    HW110009   7.920   6.430   4.111  0.2666  0.5221  0.0107
 2244SOL    HW210010   7.825   6.504   4.019 -0.5457 -1.5494 -0.8624
 2245SOL     OW10011   7.361   8.475  10.729  0.0624 -0.1397  0.5537
 2245SOL    HW110012   7.351   8.557  10.778  0.3025  1.2451 -1.5799
 2245SOL    HW210013   7.271   8.448  10.710 -0.0764 -1.2273  2.4850
 2246SOL     OW10014  10.065   8.951   0.515  0.0772 -0.1426 -0.2830
 2246SOL    HW110015  10.102   8.996   0.439  0.2519 -0.4481 -0.3786
 2246SOL    HW210016  10.044   9.022   0.576  0.3335  0.0727 -0.4409
 2247SOL     OW10017   5.366   8.527   9.850  0.1335  0.1860 -0.1070
 2247SOL    HW110018   5.285   8.541   9.899  0.0417  1.0945 -0.4911
 2247SOL    HW210019   5.390   8.436   9.868  0.6322  0.7281  2.4045
 2248SOL     OW10020   7.263   6.818   1.660 -0.5820  0.0278 -0.7380
 2248SOL    HW110021   7.255   6.881   1.589  1.3332 -1.6328 -2.5475
 2248SOL    HW210022   7.187   6.760   1.650 -0.8433  0.3762 -0.7919
 2249SOL     OW10023   5.267   5.689   6.023  0.2601 -0.5563 -0.0117
 2249SOL    HW110024   5.250   5.642   5.942 -0.9654  0.8371 -0.6165
 2249SOL    HW210025   5.181   5.698   6.064  0.4697  0.9259  0.1750
 2250SOL     OW10026   6.611   1.416   3.726 -0.5553 -0.3092  0.1368
 2250SOL    HW110027   6.547   1.422   3.797 -0.5767 -1.1999  0.2110
 2250SOL    HW210028   6.573   1.352   3.666 -0.0907 -0.2674 -0.2033
 2251SOL     OW10029   5.343   1.156  11.306  0.2913 -0.2486  0.2232
 2251SOL    HW110030   5.288   1.218  11.355  0.7920 -0.5691  1.2328
 2251SOL    HW210031   5.315   1.070  11.336  1.4381 -0.4104  0.8986
 2252SOL     OW10032   5.986   6.284   8.808  0.2507 -0.2696 -0.5287
 2252SOL    HW110033   5.947   6.354   8.755  1.7711  1.2008  0.2352
 2252SOL    HW210034   6.077   6.280   8.779  1.0140  0.2913  1.6219
 2253SOL     OW10035  11.376   4.497   3.077 -0.4978 -0.2703 -0.1666
 2253SOL    HW110036  11.418   4.460   3.155  1.9082  1.5979 -0.4595
 2253SOL    HW210037  11.409   4.587   3.072 -1.2490 -0.0448 -2.8667
 2254SOL     OW10038   8.455   7.108   1.878  0.7899 -0.1288  0.1562
 2254SOL    HW110039   8.374   7.139   1.837  1.2871  0.3183 -0.5222
 2254SOL    HW210040   8.488   7.040   1.820  1.8274  0.9431 -0.5695
 2255SOL     OW10041   4.664   7.905   2.473  0.1781 -0.3251  0.1167
 2255SOL    HW110042   4.739   7.942   2.425 -0.2262  0.0041 -0.2745
 2255SOL    HW210043   4.692   7.904   2.564  0.6085 -0.0593 -0.0095
 2256SOL     OW10044   8.254   9.306   8.690  0.1027 -0.2728  0.8296
 2256SOL    HW110045   8.298   9.388   8.667 -0.5564 -0.5391 -1.6484
 2256SOL    HW210046   8.282   9.288   8.780  2.4646  1.2073  0.4642
 2257SOL     OW10047   3.558   3.516  10.510  0.2353  0.0228  0.1987
 2257SOL    HW110048   3.464   3.511  10.493 -0.1354  2.8846  0.9789
 2257SOL    HW210049   3.590   3.585  10.452  1.2383  1.2253  2.0633
 2258SOL     OW10050  11.218   8.398   1.522  0.3803 -0.1319  0.1032
 2258SOL    HW110051  11.258   8.462   1.462  2.3795 -0.5569  0.9019
 2258SOL    HW210052  11.156   8.350   1.467 -1.1763  2.4180 -0.5447
 2259SOL     OW10053   9.695   8.378   3.864 -0.5319 -0.2891  0.3468
 2259SOL    HW110054   9.759   8.319   3.825  0.2632  0.2565  0.7909
 2259SOL    HW210055   9.718   8.379   3.957 -0.0577  1.2772  0.2380
 2260SOL     OW10056  10.805   9.949   2.464  0.0864 -0.4232  0.6887
 2260SOL    HW110057  10.901   9.951   2.460  0.1591  0.0034  2.1180
 2260SOL    HW210058  10.779   9.886   2.397  1.3396 -0.1571 -0.0749
 2261SOL     OW10059   4.818   0.564   8.230  0.1581  0.0335 -0.2817
 2261SOL    HW110060   4.770   0.551   8.149 -0.6006 -0.2884  0.1997
 2261SOL    HW210061   4.908   0.579   8.203 -0.5250  2.8158 -1.3415
 2262SOL     OW10062  10.095   3.172   5.341  0.6988 -0.0427 -0.6828
 2262SOL    HW110063  10.092   3.115   5.418 -1.7033  2.0928  0.9431
 2262SOL    HW210064  10.096   3.111   5.267  1.0590 -2.1680  0.9603
 2263SOL     OW10065   0.945   3.011   7.143 -0.2219 -0.3016 -0.0649
 2263SOL    HW110066   1.000   3.084   7.114  0.1298 -0.8507 -0.7915
 2263SOL    HW210067   0.879   3.052   7.199 -0.9170  0.7781 -1.6137
 2264SOL     OW10068   4.669   5.191  10.873  0.5722 -0.3311 -0.1366
 2264SOL    HW110069   4.659   5.111  10.926 -2.2350 -0.9516 -1.4278
 2264SOL    HW210070   4.620   5.173  10.793  0.8645  2.2752 -0.9885
 2265SOL     OW10071  10.127   3.184   9.845 -0.1144 -0.2413  0.2195
 2265SOL    HW110072  10.089   3.107   9.802 -0.1868 -0.3672  0.5108
 2265SOL    HW210073  10.114   3.255   9.781  1.1751 -0.7388 -0.6343
 2266SOL     OW10074   9.289   7.270  10.115  0.2553 -0.2413 -0.0107
 2266SOL    HW110075   9.307   7.354  10.074  1.7841  0.2020  1.4736
 2266SOL    HW210076   9.343   7.207  10.067  1.4658  0.1553  0.7810
 2267SOL     OW10077   5.069  11.373   3.750 -0.2626  0.3521  0.1449
 2267SOL    HW110078   5.123  11.349   3.826  0.2341 -2.7394 -1.0071
 2267SOL    HW210079   5.133  11.390   3.681 -0.7042  3.4321  0.3619
 2268SOL     OW10080   3.019   0.314   6.901  0.5790 -0.3715  0.7063
 2268SOL    HW110081   3.037   0.312   6.995  1.1363 -0.7912  0.5896
 2268SOL    HW210082   3.095   0.273   6.861 -0.9377 -2.9567  0.2636
 2269SOL     OW10083   0.033   0.038   6.810  0.2565 -0.3225  0.7531
 2269SOL    HW110084   0.071   0.121   6.783  0.5989 -1.2312 -1.9031
 2269SOL    HW210085   0.076   0.018   6.893  1.6696  1.1866  0.4404
 2270SOL     OW10086   9.737   6.469   7.126 -0.3107 -0.5275 -0.5501
 2270SOL    HW110087   9.713   6.455   7.217  0.1137 -0.3339 -0.4027
 2270SOL    HW210088   9.807   6.406   7.110  1.2286  0.9718 -0.0437
 2271SOL     OW10089   2.435  11.238   5.050 -0.1837  0.5758  0.6086
 2271SOL    HW110090   2.500  11.270   5.112  0.0904  0.6533  0.2854
 2271SOL    HW210091   2.444  11.296   4.974 -1.1890  1.1070  0.8786
 2272SOL     OW10092   4.535   8.821   0.125  0.2457 -0.2842  0.3529
 2272SOL    HW110093   4.606   8.826   0.188 -0.7414 -1.4618  1.6198
 2272SOL    HW210094   4.455   8.825   0.178 -0.6264 -0.2534 -0.9085
 2273SOL     OW10095   4.846   3.798   0.856 -0.0959 -0.3642 -0.3139
 2273SOL    HW110096   4.865   3.727   0.795 -0.3354  0.4434 -1.3488
 2273SOL    HW210097   4.925   3.806   0.909  0.1831 -0.9548 -0.6349
 2274SOL     OW10098   3.656   7.690   2.916  0.5276 -0.0886  0.1174
 2274SOL    HW110099   3.732   7.697   2.859  0.5581 -0.5381  0.0974
 2274SOL    HW210100   3.688   7.644   2.994  0.2317 -0.4683  0.0191
 2275SOL     OW10101   3.453   5.071   7.045  0.1485  0.1507 -0.3135
 2275SOL    HW110102   3.376   5.089   7.098  1.9118  0.3510  2.3847
 2275SOL    HW210103   3.487   5.157   7.021  0.7633  0.1369  0.4690
 2276SOL     OW10104   7.219   6.675   6.616  0.6302  0.1932  0.0390
 2276SOL    HW110105   7.213   6.602   6.678  1.4657  0.9097  0.9818
 2276SOL    HW210106   7.127   6.697   6.597  0.3655 -0.6554  0.2653
 2277SOL     OW10107   7.396  10.064   8.869 -0.5233  0.3296 -0.3187
 2277SOL    HW110108   7.378   9.996   8.804  0.3684 -0.1708 -0.0618
 2277SOL    HW210109   7.456  10.022   8.931 -1.5213  0.7115  0.9672
 2278SOL     OW10110   2.657   1.339   4.091 -0.5572 -0.4309 -0.1876
 2278SOL    HW110111   2.690   1.360   4.003  1.0970 -2.0512  0.0027
 2278SOL    HW210112   2.578   1.392   4.099 -0.5122  0.1095 -2.4853
 2279SOL     OW10113   0.275  10.358   2.901  0.0186  0.0867  0.2948
 2279SOL    HW110114   0.180  10.359   2.909  0.0147 -1.7679  0.9603
 2279SOL    HW210115   0.294  10.282   2.845  1.0891  0.9147 -0.5352
 2280SOL     OW10116   1.409   2.871  10.782  0.6946  0.3097  0.1771
 2280SOL    HW110117   1.436   2.949  10.733  0.9880  0.0917 -0.0148
 2280SOL    HW210118   1.371   2.814  10.716  2.5501 -0.6698 -0.1212
 2281SOL     OW10119   4.927   3.741   9.147 -0.5455 -0.5093 -0.0375
 2281SOL    HW110120   4.894   3.653   9.128 -1.5519 -0.6072  1.8976
 2281SOL    HW210121   4.953   3.737   9.239  0.0504  1.0367 -0.1056
 2282SOL     OW10122   3.585   0.181   7.588  0.3765  0.2509 -0.0768
 2282SOL    HW110123   3.655   0.116   7.578 -2.1524 -2.9201  1.2153
 2282SOL    HW210124   3.569   0.213   7.499  2.2979 -0.1307 -0.6152
 2283SOL     OW10125  11.313   4.838   4.869  0.0358 -0.0602  0.9019
 2283SOL    HW110126  11.407   4.856   4.874  0.6292 -2.4626 -0.0794
 2283SOL    HW210127  11.280   4.902   4.807  0.2523  3.1190  3.7936
 2284SOL     OW10128   6.305   9.061   5.096  0.3938 -0.3580  0.1756
 2284SOL    HW110129   6.372   9.024   5.038 -0.0915  0.3473 -0.8645
 2284SOL    HW210130   6.236   8.995   5.098 -0.0983  0.0806 -1.0113
 2285SOL     OW10131   5.513   7.488   0.171  0.3190  0.3172  0.7188
 2285SOL    HW110132   5.545   7.578   0.176  0.5306  0.2223  1.1693
 2285SOL    HW210133   5.521   7.455   0.261  0.7954 -0.3413  0.4417
 2286SOL     OW10134   1.524   4.975   5.395  0.0694 -0.7409  0.4102
 2286SOL    HW110135   1.442   4.999   5.438 -0.7981 -1.8948 -0.5433
 2286SOL    HW210136   1.542   5.048   5.335 -1.4323 -1.4353 -0.9503
 2287SOL     OW10137   3.418   1.476   9.358  0.0696 -0.4251  0.2927
 2287SOL    HW110138   3.412   1.529   9.438 -0.6981  0.2947 -0.2132
 2287SOL    HW210139   3.327   1.466   9.330  0.3992  0.6688 -1.3244
 2288SOL     OW10140   0.921   0.819   0.617  0.4822  0.1631  0.0428
 2288SOL    HW110141   0.924   0.842   0.525 -0.4236 -0.8155 -0.2647
 2288SOL    HW210142   0.910   0.902   0.663 -0.1519  0.5709 -0.8189
 2289SOL     OW10143   6.396   7.773  11.332 -0.4797 -0.2996 -0.1212
 2289SOL    HW110144   6.415   7.697  11.277 -0.7044 -1.3756  1.2441
 2289SOL    HW210145   6.302   7.787  11.323 -0.0132  1.8417 -2.8486
 2290SOL     OW10146   5.198   0.485   5.561  0.0524 -0.1896 -0.5440
 2290SOL    HW110147   5.213   0.402   5.515  0.0747 -1.1177  1.0707
 2290SOL    HW210148   5.183   0.460   5.652  0.0572  1.5913 -0.0122
 2291SOL     OW10149   4.423  10.250   6.580  0.5685  0.2642  0.0915
 2291SOL    HW110150   4.461  10.319   6.633  1.3901  0.0651 -0.2221
 2291SOL    HW210151   4.330  10.273   6.573  0.3667  0.0975  1.8908
 2292SOL     OW10152   2.281   7.122   5.723 -0.2556  0.1576  0.3404
 2292SOL    HW110153   2.368   7.162   5.723 -0.5331  0.7769  0.6637
 2292SOL    HW210154   2.279   7.068   5.645  0.5936 -0.2402  0.5850
 2293SOL     OW10155   9.460   8.973   7.485 -0.8239  0.3444 -0.3768
 2293SOL    HW110156   9.420   8.932   7.561  1.3944  0.6948  1.0516
 2293SOL    HW210157   9.413   9.056   7.474 -0.1633  1.0285  1.6271
 2294SOL     OW10158   1.991   4.272  10.855  1.1124  0.5793  0.8872
 2294SOL    HW110159   1.959   4.354  10.890 -0.9541 -0.3433  1.3047
 2294SOL    HW210160   1.973   4.277  10.761  3.7636  1.7686  0.3645
 2295SOL     OW10161   3.546   1.753   4.680  0.2704 -0.4554 -0.6541
 2295SOL    HW110162   3.480   1.815   4.652 -0.1594 -1.1084 -1.1306
 2295SOL    HW210163   3.506   1.706   4.754  0.4189 -0.4790 -0.5862
 2296SOL     OW10164   7.787  10.592   1.342  0.0979 -0.4285 -0.0946
 2296SOL    HW110165   7.792  10.686   1.326 -1.2887 -0.6134 -1.9902
 2296SOL    HW210166   7.693  10.574   1.350  0.2472 -1.8253 -1.0607
 2297SOL     OW10167   3.844   4.763   9.282 -0.0144  0.1371 -0.4399
 2297SOL    HW110168   3.859   4.674   9.252 -2.0268  0.2250 -1.9576
 2297SOL    HW210169   3.871   4.818   9.209  0.9877  0.7718  0.3945
 2298SOL     OW10170   7.345   3.335   3.340  0.3793 -0.3157  0.3303
 2298SOL    HW110171   7.420   3.278   3.322  0.6964 -0.4010  1.7913
 2298SOL    HW210172   7.385   3.417   3.372 -0.0677  0.7510 -1.6719
 2299SOL     OW10173   7.869   5.478   4.407  0.1230 -0.4713  0.1319
 2299SOL    HW110174   7.813   5.556   4.399 -0.1797 -0.7594 -0.6616
 2299SOL    HW210175   7.958   5.513   4.407 -0.0367 -0.0323  1.0616
 2300SOL     OW10176  10.208   5.615   8.970 -0.6805 -0.1192 -0.2114
 2300SOL    HW110177  10.141   5.683   8.961 -1.3161 -0.9451 -2.3339
 2300SOL    HW210178  10.193   5.578   9.057 -0.2985  2.3934  1.0317
 2301SOL     OW10179   1.084   0.276   8.191 -0.2133  0.1116  0.5749
 2301SOL    HW110180   1.141   0.207   8.224  0.0366  0.3906  0.7290
 2301SOL    HW210181   1.127   0.358   8.217 -0.6771  0.3238  0.6844
 2302SOL     OW10182   5.135   1.867   3.162  0.3039  0.2835  0.6121
 2302SOL    HW110183   5.150   1.823   3.078 -2.4751  0.3597 -0.0295
 2302SOL    HW210184   5.148   1.960   3.144 -0.7396  0.3458  0.0965
 2303SOL     OW10185   0.035   1.648   4.763 -0.6402 -0.4781  0.2410
 2303SOL    HW110186   0.047   1.682   4.675 -0.7721 -0.5052  0.2117
 2303SOL    HW210187   0.105   1.689   4.815 -0.8058 -0.1491  0.2092
 2304SOL     OW10188   7.637  10.618   9.749  0.3538 -0.1861 -0.6962
 2304SOL    HW110189   7.605  10.541   9.702  2.4366 -1.1282 -0.6834
 2304SOL    HW210190   7.706  10.653   9.693  1.8830 -0.4710  0.9197
 2305SOL     OW10191   9.386   2.500   3.604  0.5659  0.6220 -0.6441
 2305SOL    HW110192   9.432   2.551   3.537  1.3362 -0.4823 -0.9910
 2305SOL    HW210193   9.302   2.543   3.613  1.3092  2.1550 -0.6667
 2306SOL     OW10194  10.330   2.801   1.101 -0.3147  0.1451  0.2732
 2306SOL    HW110195  10.361   2.891   1.110 -0.3222  0.2342 -0.5838
 2306SOL    HW210196  10.409   2.748   1.104 -0.2918  0.1915  0.5595
 2307SOL     OW10197   1.810   2.653  10.874  0.1872  0.5382  0.3156
 2307SOL    HW110198   1.790   2.726  10.933  1.5052  1.0208  0.1960
 2307SOL    HW210199   1.756   2.581  10.906 -0.0608  1.1535  1.3273
 2308SOL     OW10200   7.965   2.206   9.958 -0.0086 -0.0373 -0.3640
 2308SOL    HW110201   7.992   2.287   9.915 -1.6403  0.9023  0.2589
 2308SOL    HW210202   8.043   2.176  10.005  0.7563  0.9144 -1.0030
 2309SOL     OW10203   9.468   5.551   1.550 -0.6490 -0.0475 -0.7225
 2309SOL    HW110204   9.491   5.567   1.641 -1.6539 -0.1227 -0.4498
 2309SOL    HW210205   9.544   5.505   1.514  0.5659  1.6401 -0.4430
 2310SOL     OW10206  10.657   7.020  10.130 -0.1557  0.0350 -0.2025
 2310SOL    HW110207  10.610   7.003  10.212  0.5970 -1.5204 -0.0697
 2310SOL    HW210208  10.750   7.011  10.153  0.2421  2.3882 -0.6176
 2311SOL     OW10209   6.626   7.499   8.636 -0.1044 -0.0597  0.0787
 2311SOL    HW110210   6.531   7.512   8.640 -0.4130 -2.0957  3.4759
 2311SOL    HW210211   6.641   7.418   8.684  3.1384 -1.7020 -3.2434
 2312SOL     OW10212   2.836  10.594   6.657 -0.0219  0.1625  0.5413
 2312SOL    HW110213   2.927  10.593   6.625  0.7034  2.0948  2.2717
 2312SOL    HW210214   2.834  10.525   6.723 -0.0899 -0.4870 -0.1269
 2313SOL     OW10215   4.217   9.728   7.862 -0.0663 -0.1211 -0.2695
 2313SOL    HW110216   4.209   9.754   7.770 -0.0556 -0.8038 -0.4697
 2313SOL    HW210217   4.309   9.745   7.883  0.2302 -1.0405 -0.7388
 2314SOL     OW10218   9.264   4.989   7.653  0.3751  0.2133  0.7520
 2314SOL    HW110219   9.259   4.916   7.716 -1.5492  0.8173  1.3719
 2314SOL    HW210220   9.217   5.060   7.696  2.7825  2.1066  0.4484
 2315SOL     OW10221   9.195   7.321   3.580 -0.2506 -0.3042  0.3413
 2315SOL    HW110222   9.235   7.290   3.498 -0.0492 -0.5639  0.5357
 2315SOL    HW210223   9.110   7.356   3.553  0.0720  0.1845 -0.0686
 2316SOL     OW10224   6.603   2.220   3.785 -0.5706 -0.3543 -0.4806
 2316SOL    HW110225   6.626   2.198   3.695  0.2963 -1.9903  0.1074
 2316SOL    HW210226   6.683   2.255   3.823 -0.9539  0.4143 -0.3558
 2317SOL     OW10227   3.268   1.493   2.791 -0.0236 -0.1819  0.4269
 2317SOL    HW110228   3.323   1.508   2.868 -0.6011 -0.4148  0.8902
 2317SOL    HW210229   3.306   1.549   2.724 -0.1005  0.7792  1.1635
 2318SOL     OW10230   3.323   6.537   6.418  0.3399 -0.3703 -0.3593
 2318SOL    HW110231   3.289   6.448   6.420  1.1580 -0.7113  2.1988
 2318SOL    HW210232   3.255   6.590   6.459  0.6274 -0.1346 -0.1826
 2319SOL     OW10233   9.789   0.776   0.510  0.3075 -1.2229  0.3549
 2319SOL    HW110234   9.759   0.831   0.438  1.7927 -0.8211  0.0095
 2319SOL    HW210235   9.709   0.746   0.552 -0.5558  0.1744 -0.2263
 2320SOL     OW10236   3.935   7.486   5.485 -0.2966 -0.0899 -0.0001
 2320SOL    HW110237   3.985   7.499   5.404 -0.5850  0.1114 -0.1461
 2320SOL    HW210238   3.847   7.463   5.455  0.0608 -1.9039  0.2410
 2321SOL     OW10239   8.873   7.663  10.791 -0.4227 -0.4887 -0.2547
 2321SOL    HW110240   8.880   7.755  10.763 -0.6175 -0.7184 -1.0755
 2321SOL    HW210241   8.963   7.638  10.812 -0.1017 -0.6100 -1.6724
 2322SOL     OW10242   0.790   1.278   6.352 -0.5629  0.2375  0.4032
 2322SOL    HW110243   0.705   1.247   6.322 -0.1008  0.8047 -1.6387
 2322SOL    HW210244   0.852   1.214   6.317 -0.0398  0.5867  0.6873
 2323SOL     OW10245   6.644   5.470   3.148 -0.5974  0.7848 -0.1911
 2323SOL    HW110246   6.593   5.413   3.090 -0.4269  1.5531 -1.1244
 2323SOL    HW210247   6.581   5.536   3.178 -0.6680  0.4282  0.4470
 2324SOL     OW10248  10.427   4.686   3.916 -0.6988 -0.5579  0.0908
 2324SOL    HW110249  10.365   4.618   3.889 -1.4194 -1.6124  3.7933
 2324SOL    HW210250  10.512   4.652   3.890 -1.2638 -1.4390 -0.6976
 2325SOL     OW10251   5.134   3.109   8.435 -0.4766 -0.8180  0.0102
 2325SOL    HW110252   5.171   3.136   8.519 -2.7607  0.5546  0.6401
 2325SOL    HW210253   5.061   3.052   8.458 -0.7350 -0.9438 -1.0738
 2326SOL     OW10254   3.299   7.337   0.140  0.0178  0.0946  0.1391
 2326SOL    HW110255   3.310   7.249   0.102  0.2947  0.5664 -0.9200
 2326SOL    HW210256   3.355   7.337   0.217 -0.6000 -0.9146  0.6167
 2327SOL     OW10257   6.475   6.717   4.610 -0.0760 -0.4569 -0.7674
 2327SOL    HW110258   6.487   6.745   4.519  1.9391  0.9195 -0.1531
 2327SOL    HW210259   6.504   6.626   4.611 -0.7736 -0.6979 -1.6237
 2328SOL     OW10260   0.870   7.992  11.284 -0.4269 -0.0217 -0.3374
 2328SOL    HW110261   0.782   7.986  11.247  0.3196 -1.6631 -2.0412
 2328SOL    HW210262   0.928   7.983  11.209  1.2257  0.8399  0.7697
 2329SOL     OW10263  11.211   7.013   5.630 -0.3495  0.4774 -0.8552
 2329SOL    HW110264  11.286   7.058   5.591  0.1844  1.9120  1.5977
 2329SOL    HW210265  11.150   7.084   5.652 -0.1502 -0.0422  1.7277
 2330SOL     OW10266   6.058   2.474   3.376 -0.0277  0.1462 -0.1083
 2330SOL    HW110267   5.995   2.517   3.317  0.1077 -0.6142 -0.8317
 2330SOL    HW210268   6.142   2.513   3.353  0.2510 -1.1573 -1.4629
 2331SOL     OW10269   9.608   7.317  10.152  0.1106  0.1392 -0.1758
 2331SOL    HW110270   9.678   7.252  10.145 -1.0495 -1.2906  0.8707
 2331SOL    HW210271   9.597   7.350  10.063 -0.3671 -2.3268 -1.1163
 2332SOL     OW10272  10.540   0.897  11.229 -0.4461 -0.1374 -0.5131
 2332SOL    HW110273  10.609   0.962  11.218 -0.7935  0.2181 -0.6458
 2332SOL    HW210274  10.489   0.903  11.147 -0.2985 -0.7903 -0.6529
 2333SOL     OW10275   9.689   0.753   4.223 -0.5844  0.0940  0.5809
 2333SOL    HW110276   9.718   0.817   4.158 -0.8800 -0.4521 -0.1014
 2333SOL    HW210277   9.647   0.684   4.172 -2.0055  0.2728  1.4423
 2334SOL     OW10278   6.428   4.188  11.219  0.6721  0.4255  0.2500
 2334SOL    HW110279   6.415   4.099  11.187  1.5519 -0.1108  1.3235
 2334SOL    HW210280   6.339   4.221  11.235  0.2455  0.4151 -1.8195
 2335SOL     OW10281  10.816   9.214   0.799 -0.2145  0.2925 -0.0466
 2335SOL    HW110282  10.874   9.233   0.873 -1.0766  0.7209  0.5345
 2335SOL    HW210283  10.830   9.121   0.781  0.1447  0.2298  0.5233
 2336SOL     OW10284   7.771   0.380   7.310 -0.2127 -0.9256  0.0028
 2336SOL    HW110285   7.791   0.292   7.279  1.2408 -0.2762 -1.0072
 2336SOL    HW210286   7.709   0.415   7.246 -0.2589 -0.9710  0.0231
 2337SOL     OW10287   2.364   0.568  10.688  0.4010  0.3793  0.6396
 2337SOL    HW110288   2.324   0.481  10.685  2.2558 -0.4996  0.0307
 2337SOL    HW210289   2.313   0.620  10.626 -0.9275 -0.1597  1.2409
 2338SOL     OW10290   9.046   4.959   7.255 -0.4520  0.3268 -0.6398
 2338SOL    HW110291   9.113   4.912   7.305 -0.0316  1.8348  0.2671
 2338SOL    HW210292   8.970   4.902   7.258  0.3789 -0.8145 -0.5440
 2339SOL     OW10293   2.838   3.153   2.646 -0.7583  0.0607  0.4515
 2339SOL    HW110294   2.749   3.186   2.633 -1.6436 -2.0349  0.8539
 2339SOL    HW210295   2.887   3.229   2.678 -2.3684  1.2676  0.1828
 2340SOL     OW10296   6.736  10.502   4.706 -0.4132 -0.1398 -0.1740
 2340SOL    HW110297   6.646  10.489   4.737 -0.7833  0.0873 -1.1298
 2340SOL    HW210298   6.768  10.577   4.756 -0.0708 -1.3746  1.5665
 2341SOL     OW10299   0.649  11.370   2.852  0.7008 -0.3252 -0.2518
 2341SOL    HW110300   0.665  11.348   2.760  1.4748 -0.4378 -0.0953
 2341SOL    HW210301   0.631  11.285   2.893  0.5414 -0.2961 -0.2618
 2342SOL     OW10302   1.186   4.165   3.125 -0.4359 -0.3875 -0.3971
 2342SOL    HW110303   1.110   4.142   3.072  1.3790 -0.8871 -2.9212
 2342SOL    HW210304   1.214   4.250   3.091 -1.1752  0.9781  2.1229
 2343SOL     OW10305   8.358   3.754   4.496  0.2487  0.0253  0.4895
 2343SOL    HW110306   8.315   3.785   4.416 -1.3853 -1.1121  0.8687
 2343SOL    HW210307   8.307   3.794   4.567  1.0917  0.2615  0.9687
 2344SOL     OW10308   9.368   3.166   9.039  0.2882  0.1322 -0.4597
 2344SOL    HW110309   9.281   3.133   9.014 -0.6735  1.4667  0.9888
 2344SOL    HW210310   9.419   3.161   8.958 -1.2224 -0.3792 -1.4322
 2345SOL     OW10311   2.872  11.266   7.847  0.0854  0.3494 -0.3186
 2345SOL    HW110312   2.956  11.273   7.893 -0.2965  1.2744  0.2672
 2345SOL    HW210313   2.894  11.229   7.762  1.0119  0.0370  0.0436
 2346SOL     OW10314   4.802   0.791   1.832  0.6032 -0.5079 -0.9342
 2346SOL    HW110315   4.767   0.867   1.785  2.6159  0.2234 -1.3719
 2346SOL    HW210316   4.802   0.721   1.768 -2.0903 -1.2090 -0.2823
 2347SOL     OW10317   4.349   0.709   3.068 -0.0718  0.2375  0.1074
 2347SOL    HW110318   4.372   0.798   3.041  0.5548  0.1816  0.4524
 2347SOL    HW210319   4.392   0.653   3.003  0.2854  0.1565  0.4095
 2348SOL     OW10320   8.057   6.202   7.963 -0.0674  0.0301 -0.6633
 2348SOL    HW110321   7.977   6.173   8.008 -0.7683 -0.2195 -1.9968
 2348SOL    HW210322   8.115   6.126   7.965  0.2007  0.2438  0.4019
 2349SOL     OW10323   6.127   2.938   8.375  0.2006  0.0076  0.3855
 2349SOL    HW110324   6.173   2.855   8.388  0.2296  0.0011  0.2433
 2349SOL    HW210325   6.103   2.938   8.283 -0.7783 -0.3394  0.6381
 2350SOL     OW10326   3.855   3.460   4.556  0.1872  0.4475 -0.4404
 2350SOL    HW110327   3.769   3.420   4.542  0.1156  0.6676 -0.6210
 2350SOL    HW210328   3.860   3.531   4.492  1.1217 -0.5240 -1.5066
 2351SOL     OW10329   5.676   2.308   5.146 -0.1325  0.1204 -0.1701
 2351SOL    HW110330   5.595   2.306   5.196  0.8989 -0.3688  1.5400
 2351SOL    HW210331   5.653   2.267   5.062 -1.9431  1.1525 -0.2338
 2352SOL     OW10332   3.806   4.675   6.813 -0.0662  0.1742 -0.2707
 2352SOL    HW110333   3.720   4.714   6.826 -0.5950 -1.1836  0.4928
 2352SOL    HW210334   3.845   4.671   6.901 -0.2649 -1.4776 -0.2173
 2353SOL     OW10335   2.666  11.320   3.045  0.6498  0.5007  0.7529
 2353SOL    HW110336   2.661  11.400   3.097  0.0104  0.4763  0.7379
 2353SOL    HW210337   2.746  11.330   2.993  0.0194  1.6150 -0.0420
 2354SOL     OW10338   0.484   9.688   4.390  0.8088  0.0406  0.5565
 2354SOL    HW110339   0.518   9.633   4.320  1.2859  1.2658 -0.2065
 2354SOL    HW210340   0.473   9.629   4.464  0.3209 -1.2657 -0.5362
 2355SOL     OW10341   4.702   6.766  10.807  0.1195 -0.6871  0.6514
 2355SOL    HW110342   4.672   6.752  10.897  0.4366  0.6671  0.9910
 2355SOL    HW210343   4.628   6.737  10.753 -1.7427  2.1468  1.4527
 2356SOL     OW10344   6.481   3.568   3.190 -0.2066 -0.2528 -0.3287
 2356SOL    HW110345   6.504   3.490   3.241 -1.3449 -0.5785 -0.2779
 2356SOL    HW210346   6.550   3.631   3.210 -0.2033 -0.6409  1.0084
 2357SOL     OW10347   4.761   5.222   2.456  0.1797  0.5262  0.1313
 2357SOL    HW110348   4.712   5.222   2.537  0.1142  1.4915  0.1112
 2357SOL    HW210349   4.695   5.213   2.387  0.3379 -1.6320  0.1945
 2358SOL     OW10350   2.435  11.207   2.580  0.2215 -0.1623  0.2268
 2358SOL    HW110351   2.398  11.157   2.507  1.7462  0.0712 -0.7497
 2358SOL    HW210352   2.500  11.148   2.619 -0.4341 -0.2076  1.2904
 2359SOL     OW10353   5.813   5.054   5.095  0.3677  0.2452  0.2648
 2359SOL    HW110354   5.752   5.125   5.076  1.1170  0.6473 -0.7435
 2359SOL    HW210355   5.760   4.987   5.137 -0.7944  0.5153 -0.7227
 2360SOL     OW10356   2.856   2.808   8.411  0.4531 -0.8004 -0.3432
 2360SOL    HW110357   2.890   2.875   8.351  2.4096 -1.0134  0.4695
 2360SOL    HW210358   2.796   2.856   8.468  1.5895  0.2224  0.0315
 2361SOL     OW10359  10.665   8.158   4.030 -0.3416  0.7131  0.5679
 2361SOL    HW110360  10.623   8.187   4.111 -1.2305 -2.3295  1.3513
 2361SOL    HW210361  10.675   8.063   4.042 -0.4903  0.1457 -2.8884
 2362SOL     OW10362   2.807   7.951   5.292 -0.3722 -0.1996  0.4177
 2362SOL    HW110363   2.886   7.903   5.317 -1.1050 -1.1862  0.9339
 2362SOL    HW210364   2.736   7.904   5.336 -1.7030 -1.7049 -2.9203
 2363SOL     OW10365   5.751   0.404   1.750  0.2183 -0.1799  0.2711
 2363SOL    HW110366   5.718   0.458   1.679  0.9254  0.7013  0.6010
 2363SOL    HW210367   5.841   0.384   1.726  0.0345 -1.0419  0.2615
 2364SOL     OW10368   1.666  10.184   5.193  0.0664  0.3007 -0.5191
 2364SOL    HW110369   1.738  10.132   5.155  0.2403  0.2197 -0.0807
 2364SOL    HW210370   1.637  10.240   5.121  0.7602  0.5398 -0.6245
 2365SOL     OW10371   2.444   7.547   4.174  0.0539 -0.0016 -0.4010
 2365SOL    HW110372   2.468   7.597   4.096 -0.8457 -0.2117 -0.8146
 2365SOL    HW210373   2.355   7.575   4.195 -0.1087 -0.7334 -0.0738
 2366SOL     OW10374   3.674  10.800   5.485 -0.8795 -0.4030 -0.1414
 2366SOL    HW110375   3.743  10.865   5.502  1.0472 -2.3980  0.1798
 2366SOL    HW210376   3.651  10.767   5.571 -0.2580 -1.6252 -0.4210
 2367SOL     OW10377   0.379   1.631   0.084 -0.8402  0.0440  0.1183
 2367SOL    HW110378   0.366   1.666  -0.004  0.4046 -2.5612 -1.2152
 2367SOL    HW210379   0.402   1.707   0.137 -1.3595  1.6486 -1.8397
 2368SOL     OW10380   1.322   8.331   3.818 -0.2448 -0.3415  0.1591
 2368SOL    HW110381   1.413   8.314   3.794  0.0469  1.2329  0.0984
 2368SOL    HW210382   1.315   8.303   3.909  0.0934 -1.1577 -0.0563
 2369SOL     OW10383   6.617   7.338   6.955 -0.4457  0.5541  0.0454
 2369SOL    HW110384   6.705   7.315   6.925 -0.4678  0.2144  0.2410
 2369SOL    HW210385   6.559   7.310   6.884 -0.3238  1.6366 -0.5090
 2370SOL     OW10386   5.727  10.322   9.293 -0.8274  0.0311 -0.1824
 2370SOL    HW110387   5.718  10.230   9.318 -0.5018 -0.0742 -0.4368
 2370SOL    HW210388   5.815  10.328   9.256 -1.9895 -0.2889 -3.2681
 2371SOL     OW10389   2.501   7.151   4.888  0.1370 -0.6878  0.3187
 2371SOL    HW110390   2.489   7.231   4.836 -2.5953 -0.7080  0.7677
 2371SOL    HW210391   2.593   7.128   4.875  0.4133  1.1914 -1.7479
 2372SOL     OW10392  10.051   0.347   9.847 -0.3340 -0.3689 -0.2266
 2372SOL    HW110393  10.006   0.391   9.775 -0.6374  1.9987  1.3010
 2372SOL    HW210394   9.987   0.285   9.882 -0.8398 -0.1726 -0.7866
 2373SOL     OW10395   5.115   7.985   5.275 -0.0670 -0.3327 -0.6072
 2373SOL    HW110396   5.158   8.062   5.312  1.3869 -1.5379  0.3210
 2373SOL    HW210397   5.117   7.999   5.180  0.3716  0.6668 -0.4584
 2374SOL     OW10398   4.463   9.661  10.345 -0.2646 -0.4554 -0.0878
 2374SOL    HW110399   4.496   9.681  10.433 -0.1414  1.9779 -0.6120
 2374SOL    HW210400   4.454   9.566  10.344  0.9155 -0.6667  2.1329
 2375SOL     OW10401   6.126   6.217   7.873 -0.1645 -0.7794 -0.6000
 2375SOL    HW110402   6.215   6.222   7.838  0.2977  0.4185  0.6615
 2375SOL    HW210403   6.079   6.286   7.827 -0.0041 -0.3294 -0.0933
 2376SOL     OW10404   0.296   6.833   5.629  0.4093  0.1123  0.1946
 2376SOL    HW110405   0.368   6.804   5.572  0.7819 -1.0703  1.2154
 2376SOL    HW210406   0.237   6.757   5.633 -0.5907  0.8464 -0.1165
 2377SOL     OW10407  10.428   0.684   5.870 -0.1028 -0.2457  0.1900
 2377SOL    HW110408  10.339   0.678   5.836  0.0794 -0.0302 -0.3285
 2377SOL    HW210409  10.462   0.595   5.864 -0.0638 -0.2044 -0.2110
 2378SOL     OW10410   4.625   8.671   5.193 -0.0302  0.3804 -0.2045
 2378SOL    HW110411   4.598   8.661   5.101 -2.9942  0.2927  0.5690
 2378SOL    HW210412   4.621   8.582   5.229  1.4284  0.3666 -0.0170
 2379SOL     OW10413   9.768  10.048   3.129  0.3329 -0.2436  0.5266
 2379SOL    HW110414   9.718  10.062   3.210  1.5232  0.4890  1.1688
 2379SOL    HW210415   9.855  10.021   3.160  1.1204  1.0440 -0.4514
 2380SOL     OW10416   1.461   2.907   3.674 -0.1503  0.2383 -0.2555
 2380SOL    HW110417   1.453   2.936   3.765  1.1912  0.1953 -0.1041
 2380SOL    HW210418   1.374   2.875   3.652 -0.8773  1.5782  0.5366
 2381SOL     OW10419   0.878   5.906  11.369 -0.1840 -0.0980 -0.1890
 2381SOL    HW110420   0.967   5.891  11.337 -0.1182 -1.7781  0.6573
 2381SOL    HW210421   0.824   5.909  11.291  0.5128  0.2323 -0.6714
 2382SOL     OW10422   2.297   6.718   3.306 -0.2485 -0.6539 -0.3950
 2382SOL    HW110423   2.202   6.710   3.297 -0.4087 -0.5603  0.9437
 2382SOL    HW210424   2.330   6.630   3.292 -0.6818 -0.9756  0.5332
 2383SOL     OW10425   0.139   9.878   0.942 -0.3220  0.0853  0.3062
 2383SOL    HW110426   0.181   9.951   0.897 -0.5697  0.0188 -0.0383
 2383SOL    HW210427   0.194   9.802   0.921 -0.0786  0.1659  0.6439
 2384SOL     OW10428  10.230   0.842   6.852  0.1452 -0.3689  0.2376
 2384SOL    HW110429  10.246   0.923   6.901 -2.1099 -0.1640  0.7349
 2384SOL    HW210430  10.237   0.868   6.760 -0.1252  0.3101  0.3992
 2385SOL     OW10431   1.241   2.549   7.148  0.0504 -0.1857 -0.1337
 2385SOL    HW110432   1.201   2.632   7.173 -1.4386 -0.6905 -0.7120
 2385SOL    HW210433   1.268   2.509   7.231 -2.4345 -0.6723  0.5260
 2386SOL     OW10434   1.233   1.465   3.391 -0.0742  0.4005  0.6867
 2386SOL    HW110435   1.267   1.377   3.402  0.3645  0.2178 -1.5627
 2386SOL    HW210436   1.152   1.454   3.340  0.7348  1.3320 -0.8807
 2387SOL     OW10437   5.532   6.002   5.616 -0.1689 -0.0494  0.3134
 2387SOL    HW110438   5.545   6.020   5.710  0.1610  2.6713 -0.1659
 2387SOL    HW210439   5.594   6.059   5.572 -2.3207  0.9655 -1.6159
 2388SOL     OW10440   0.750   8.229   5.215 -0.2584 -0.2357  0.5002
 2388SOL    HW110441   0.779   8.315   5.183 -0.3261 -0.9967 -1.8321
 2388SOL    HW210442   0.827   8.193   5.259  0.5620  0.0692 -0.6290
 2389SOL     OW10443   6.814   4.539   6.511  0.0240  0.1377 -0.3343
 2389SOL    HW110444   6.771   4.460   6.545  0.4743  0.2607  0.5656
 2389SOL    HW210445   6.745   4.605   6.508 -0.3577 -0.2935 -1.0985
 2390SOL     OW10446   1.113   0.939   8.062 -0.0234 -0.1613 -0.2817
 2390SOL    HW110447   1.031   0.928   8.111  0.9486 -0.0320  1.4815
 2390SOL    HW210448   1.112   0.869   7.997 -1.7943  0.2181 -0.7269
 2391SOL     OW10449   3.038   6.369   6.032  0.0594  0.3194  0.4780
 2391SOL    HW110450   3.105   6.363   5.964  0.1127 -2.8480  0.6648
 2391SOL    HW210451   2.963   6.411   5.989  0.2445 -1.1814 -1.4634
 2392SOL     OW10452  10.441  10.088   7.687 -0.2495  0.4095 -0.2675
 2392SOL    HW110453  10.414  10.074   7.778 -0.2266  1.7833 -0.0240
 2392SOL    HW210454  10.364  10.067   7.635 -0.4059  0.0524  0.1106
 2393SOL     OW10455   4.744   4.550   4.282  0.2757 -0.5870  0.3802
 2393SOL    HW110456   4.781   4.471   4.320  2.5013 -0.2395 -0.8915
 2393SOL    HW210457   4.820   4.605   4.261 -0.9955  0.5259 -1.7041
 2394SOL     OW10458   8.322  11.233   0.837 -0.4098 -0.4164  0.9817
 2394SOL    HW110459   8.404  11.188   0.856  0.1213  0.5616  1.0734
 2394SOL    HW210460   8.289  11.259   0.923 -1.0620 -1.1934  0.9823
 2395SOL     OW10461   3.938   1.259   2.082  0.0392 -0.7653 -0.4726
 2395SOL    HW110462   3.866   1.214   2.125 -0.7163  0.9913  0.2061
 2395SOL    HW210463   3.899   1.297   2.003 -0.1053  1.0896  0.4395
 2396SOL     OW10464   4.739   6.129   8.598  0.5000  0.0778 -0.2192
 2396SOL    HW110465   4.730   6.158   8.688  1.2459  2.6295 -0.9102
 2396SOL    HW210466   4.679   6.054   8.591  0.2230  0.0043  2.2812
 2397SOL     OW10467   7.656   2.658   6.253  0.1158 -0.1741 -0.3288
 2397SOL    HW110468   7.744   2.689   6.232  0.2164 -0.4981 -0.4005
 2397SOL    HW210469   7.599   2.734   6.240  0.4541  0.1834  0.2299
 2398SOL     OW10470   2.920   5.844   9.160 -0.8311  0.3083  0.0738
 2398SOL    HW110471   2.967   5.774   9.115 -1.2742  1.0418 -1.5825
 2398SOL    HW210472   2.888   5.803   9.241  1.7760 -0.4558  0.7946
 2399SOL     OW10473   5.914   3.969   0.624  0.6002  0.1915  0.0332
 2399SOL    HW110474   6.002   3.982   0.587  0.8077  0.1726  0.5054
 2399SOL    HW210475   5.923   3.890   0.678  0.5877  0.8144  0.9668
 2400SOL     OW10476   5.894   3.358   0.082 -0.3822  0.5112 -0.5931
 2400SOL    HW110477   5.888   3.433   0.022 -0.8466 -1.1393 -2.7120
 2400SOL    HW210478   5.808   3.317   0.079  0.3209 -1.0287 -0.7379
 2401SOL     OW10479   6.042   8.968   0.570  0.1617  0.1222  0.4531
 2401SOL    HW110480   6.033   9.017   0.488  1.5327 -0.7954 -0.2899
 2401SOL    HW210481   5.961   8.987   0.618 -0.1895  1.5458 -0.6308
 2402SOL     OW10482   6.112   4.547   4.265  0.2126  0.1423  0.2390
 2402SOL    HW110483   6.175   4.501   4.209 -0.3276  0.7268 -0.9022
 2402SOL    HW210484   6.073   4.613   4.207 -2.5365 -1.1690  0.4250
 2403SOL     OW10485   1.444   4.981   4.187  0.1386 -0.3391 -0.4836
 2403SOL    HW110486   1.417   4.968   4.278  0.9618  0.7091 -0.0649
 2403SOL    HW210487   1.441   5.076   4.175 -0.6864 -0.5060 -1.7937
 2404SOL     OW10488   4.966   4.752   4.903 -0.0930  0.2107 -0.0411
 2404SOL    HW110489   4.934   4.796   4.824 -0.1519  1.2605  0.5404
 2404SOL    HW210490   5.016   4.678   4.871  0.7230  1.1900 -1.1141
 2405SOL     OW10491   0.982   1.644   5.248 -0.2394 -0.0832  0.1225
 2405SOL    HW110492   1.028   1.633   5.165 -1.0610  0.7251 -0.4616
 2405SOL    HW210493   0.971   1.555   5.282 -0.2660 -0.4535 -0.8321
 2406SOL     OW10494   1.490   6.065   8.881  0.3776 -0.3103 -0.0118
 2406SOL    HW110495   1.408   6.087   8.838 -0.3379 -0.7429  1.0742
 2406SOL    HW210496   1.556   6.120   8.838 -0.0366 -1.5910 -2.4978
 2407SOL     OW10497   8.158   4.967   3.197 -0.3595 -0.3623 -0.1686
 2407SOL    HW110498   8.179   4.885   3.240  2.1795  0.6403  0.6806
 2407SOL    HW210499   8.194   5.034   3.255  0.1113  1.2061 -2.1629
 2408SOL     OW10500   8.692   6.438  10.333 -0.0884  0.0291 -0.3854
 2408SOL    HW110501   8.649   6.456  10.249 -0.0078  0.1623 -0.3995
 2408SOL    HW210502   8.734   6.521  10.356  0.6258 -0.2618 -0.6383
 2409SOL     OW10503   2.102   8.494   3.753 -0.0985  0.3081 -0.2993
 2409SOL    HW110504   2.141   8.540   3.679  0.1037  0.8681  0.1495
 2409SOL    HW210505   2.176   8.451   3.796  0.0564  1.4462  0.6074
 2410SOL     OW10506   0.499   0.978   1.923  0.5072  0.3128  0.2554
 2410SOL    HW110507   0.479   1.011   1.836  0.4744 -1.6431 -0.5246
 2410SOL    HW210508   0.417   0.987   1.971 -0.7131 -2.2233 -1.1592
 2411SOL     OW10509   8.538   7.939   8.696  0.1669  0.1925  0.0125
 2411SOL    HW110510   8.625   7.911   8.721 -0.6355 -0.9462  1.6577
 2411SOL    HW210511   8.498   7.862   8.655 -0.6755  0.1265  0.9202
 2412SOL     OW10512  10.111   8.450   9.711  0.1395 -0.1860  0.2939
 2412SOL    HW110513  10.049   8.427   9.780  0.8803 -0.0374  1.0265
 2412SOL    HW210514  10.090   8.541   9.689 -0.7040 -0.5161 -0.3565
 2413SOL     OW10515   7.273   7.844   3.548  0.4039  0.2228  0.3760
 2413SOL    HW110516   7.316   7.929   3.561 -0.6093  0.6114  1.2793
 2413SOL    HW210517   7.328   7.782   3.596  1.0038  0.3972 -0.0675
 2414SOL     OW10518   5.968   1.544   7.726  0.6670 -0.2476 -0.1057
 2414SOL    HW110519   6.023   1.503   7.658  0.7270 -0.6872  0.1991
 2414SOL    HW210520   6.028   1.602   7.773  1.0545 -1.2434  0.6657
 2415SOL     OW10521  11.013   1.301   3.370 -0.3353 -0.6599  0.0018
 2415SOL    HW110522  10.946   1.363   3.341  0.5166  0.5657  0.5542
 2415SOL    HW210523  11.066   1.285   3.292 -0.1433 -0.1207  0.0128
 2416SOL     OW10524   7.690   0.498   0.428  0.0723 -0.2464 -0.4413
 2416SOL    HW110525   7.685   0.412   0.471 -3.4389 -0.0136 -0.0731
 2416SOL    HW210526   7.677   0.480   0.335  1.7729 -0.2704 -0.6931
 2417SOL     OW10527  11.066   6.910   1.813  0.0937 -0.7524  0.0180
 2417SOL    HW110528  11.057   6.815   1.809 -0.3409 -0.6773 -1.2087
 2417SOL    HW210529  11.131   6.925   1.882 -0.6912 -1.8687  1.0332
 2418SOL     OW10530  11.384   7.554   2.711 -0.6178 -0.2739 -0.1840
 2418SOL    HW110531  11.456   7.497   2.740 -1.2512 -1.3212 -0.6123
 2418SOL    HW210532  11.387   7.549   2.615 -1.9165 -1.2141 -0.2052
 2419SOL     OW10533   7.303   7.303   8.510 -0.2116 -0.3223  0.5958
 2419SOL    HW110534   7.265   7.372   8.456 -0.8141 -2.3828 -1.8699
 2419SOL    HW210535   7.240   7.231   8.503  1.4555 -1.9009  1.1314
 2420SOL     OW10536   9.458   6.749  10.985  0.1516  0.0475 -0.0706
 2420SOL    HW110537   9.462   6.716  10.895 -0.8205 -0.0623 -0.0853
 2420SOL    HW210538   9.386   6.701  11.025 -0.5303  1.2824  0.2594
 2421SOL     OW10539   3.689   3.401  10.239 -0.1405 -0.2965  0.1146
 2421SOL    HW110540   3.641   3.397  10.322 -1.3202  2.3624 -0.3389
 2421SOL    HW210541   3.739   3.482  10.244 -1.8364  1.0379 -2.5383
 2422SOL     OW10542   4.145  10.567   6.717 -0.2668  0.4726 -0.1226
 2422SOL    HW110543   4.068  10.520   6.687 -0.4764 -0.4404  1.6968
 2422SOL    HW210544   4.199  10.500   6.759  0.4781  1.4844  0.5835
 2423SOL     OW10545   0.992   5.669   3.578 -0.3425 -0.1561  0.6969
 2423SOL    HW110546   0.965   5.760   3.587  2.1615  0.8709 -1.0629
 2423SOL    HW210547   1.020   5.661   3.487  0.2375 -2.4795  1.0142
 2424SOL     OW10548   2.979   3.992  11.081  0.3738  0.3363  0.1387
 2424SOL    HW110549   3.055   4.050  11.076 -0.2549  1.3678  1.7072
 2424SOL    HW210550   2.913   4.034  11.025  0.4330  0.2852  0.0298
 2425SOL     OW10551   4.206   6.888   1.288  0.9793  0.2792  0.0719
 2425SOL    HW110552   4.288   6.937   1.287  0.5008  1.1437  0.6544
 2425SOL    HW210553   4.150   6.935   1.225  0.4160  0.6863  0.8570
 2426SOL     OW10554   0.961   0.297   3.144  0.1291 -0.2642  0.1995
 2426SOL    HW110555   1.046   0.268   3.110 -0.6184 -0.3969 -1.6749
 2426SOL    HW210556   0.898   0.241   3.099 -0.9385 -0.4564  1.8955
 2427SOL     OW10557   8.121   4.425   1.149 -0.5344 -0.1251 -0.0854
 2427SOL    HW110558   8.144   4.334   1.165 -1.3472 -0.4010 -0.4605
 2427SOL    HW210559   8.205   4.470   1.140 -0.1423 -1.0296 -1.0086
 2428SOL     OW10560   4.523   3.191   0.098  0.1206 -0.3386  0.4429
 2428SOL    HW110561   4.495   3.207   0.188 -1.8526  0.6807 -0.2891
 2428SOL    HW210562   4.561   3.274   0.070  1.2166 -0.8170  0.4819
 2429SOL     OW10563   4.879  11.098   9.471  0.6783 -0.0868 -0.1263
 2429SOL    HW110564   4.850  11.086   9.562 -1.2458  0.4562 -0.6315
 2429SOL    HW210565   4.804  11.136   9.427  1.8886  0.4688 -1.7754
 2430SOL     OW10566   7.857   7.248   8.286  0.1779 -0.1616  1.1254
 2430SOL    HW110567   7.903   7.188   8.345  1.4798 -0.6278 -0.3031
 2430SOL    HW210568   7.774   7.204   8.266  0.9795 -1.3681  0.3435
 2431SOL     OW10569   9.922   6.735   5.649 -0.3468  0.4994  0.6459
 2431SOL    HW110570   9.869   6.688   5.584 -1.0334  1.4924  0.4550
 2431SOL    HW210571   9.985   6.670   5.680 -1.9026 -0.8420  1.1351
 2432SOL     OW10572   3.080   0.438   4.697 -0.1155  0.0705 -0.1386
 2432SOL    HW110573   2.990   0.471   4.692  0.2213  1.5586  2.2484
 2432SOL    HW210574   3.132   0.505   4.653 -0.1311 -0.8778 -1.6792
 2433SOL     OW10575   1.471   9.582   5.980 -0.1012  0.1530 -0.3859
 2433SOL    HW110576   1.447   9.525   5.907  0.5728 -0.2785 -0.2753
 2433SOL    HW210577   1.537   9.641   5.943 -0.2389  0.3653 -0.2955
 2434SOL     OW10578   8.022   2.880   5.988 -0.0999  0.3337  0.0423
 2434SOL    HW110579   7.965   2.956   5.982 -0.2129  0.4793  2.1151
 2434SOL    HW210580   8.095   2.909   6.043 -0.6908 -1.3123  1.8345
 2435SOL     OW10581   1.399   4.870  11.224 -0.0966 -0.1672  0.0904
 2435SOL    HW110582   1.387   4.960  11.254  0.2422 -0.1673  0.2270
 2435SOL    HW210583   1.310   4.835  11.218 -0.4546  0.8870 -2.1831
 2436SOL     OW10584   3.705   7.619   5.064 -0.4037 -0.3277  0.1668
 2436SOL    HW110585   3.766   7.652   5.130  0.4467 -1.6901  0.1163
 2436SOL    HW210586   3.711   7.523   5.072 -0.2933 -0.5429 -1.8515
 2437SOL     OW10587   8.384   3.274  10.793 -0.0731  0.1201 -0.4619
 2437SOL    HW110588   8.435   3.333  10.737 -0.2505 -1.4435 -2.3679
 2437SOL    HW210589   8.432   3.191  10.790 -1.3768 -0.6568 -0.2241
 2438SOL     OW10590   2.983   8.022   9.705  0.6741  0.6015 -0.2477
 2438SOL    HW110591   3.057   8.083   9.712  3.2693 -2.0253 -2.2975
 2438SOL    HW210592   3.023   7.939   9.682 -2.5427 -2.2054  3.0492
 2439SOL     OW10593   9.823   9.375   4.402  0.6118 -0.0815  0.2080
 2439SOL    HW110594   9.839   9.370   4.308  0.5781  1.3599  0.1145
 2439SOL    HW210595   9.826   9.468   4.423 -0.1669 -0.3162  1.5004
 2440SOL     OW10596   6.239  10.422   7.999 -0.4173 -0.8201 -0.7245
 2440SOL    HW110597   6.185  10.451   7.925  0.2556 -1.2497 -1.4002
 2440SOL    HW210598   6.329  10.432   7.968 -0.1059 -0.3904  0.2804
 2441SOL     OW10599   1.039   1.047   3.431 -0.5545  0.2304  0.0830
 2441SOL    HW110600   1.103   0.978   3.415  0.6075  1.4283 -0.7176
 2441SOL    HW210601   0.959   1.016   3.388  0.1670 -0.2961 -0.9312
 2442SOL     OW10602   6.403   5.349   9.147  0.5091 -0.2615  0.1899
 2442SOL    HW110603   6.436   5.421   9.202  0.4115 -1.8200  2.4322
 2442SOL    HW210604   6.407   5.383   9.058  1.4206  2.1480  1.0648
 2443SOL     OW10605   8.601   9.846   0.139 -0.1544 -0.6247  0.2803
 2443SOL    HW110606   8.554   9.763   0.147  1.6804 -1.8325 -0.7324
 2443SOL    HW210607   8.544   9.910   0.182 -1.5685 -2.4100  1.2260
 2444SOL     OW10608   6.732   4.624   2.814 -0.1767 -0.5847 -0.4349
 2444SOL    HW110609   6.720   4.710   2.856 -0.3109 -1.6711  1.9178
 2444SOL    HW210610   6.677   4.628   2.736 -2.2409  0.6258  0.9679
 2445SOL     OW10611   0.123   7.581   9.469 -0.0516  0.5303  0.5400
 2445SOL    HW110612   0.208   7.605   9.432 -0.9052 -0.0573 -1.9988
 2445SOL    HW210613   0.144   7.520   9.540  1.6117 -0.5628 -0.8233
 2446SOL     OW10614   9.011   9.245  10.103  0.6495  0.3580  0.1892
 2446SOL    HW110615   9.024   9.295  10.184 -0.2082 -0.8891  1.1276
 2446SOL    HW210616   9.049   9.160  10.121 -0.3516 -0.2280 -0.3808
 2447SOL     OW10617   6.774   8.024   8.419  0.1026  0.0623 -0.1781
 2447SOL    HW110618   6.718   8.025   8.341 -1.1938  2.3867  0.6999
 2447SOL    HW210619   6.837   8.094   8.405  0.4992 -0.1587  0.4473
 2448SOL     OW10620   5.632   1.415   6.635  0.1385  0.2741  0.1835
 2448SOL    HW110621   5.641   1.374   6.721  1.5438  1.7069  0.7770
 2448SOL    HW210622   5.541   1.445   6.633  0.0029 -0.0338  1.0629
 2449SOL     OW10623  10.738   1.434  10.631  0.0870 -0.4452 -0.3638
 2449SOL    HW110624  10.721   1.340  10.631 -0.5009 -0.3537 -1.1860
 2449SOL    HW210625  10.782   1.450  10.547 -1.5614  0.2867 -1.1325
 2450SOL     OW10626   6.315   3.057   5.997 -0.7942  0.1179 -0.4075
 2450SOL    HW110627   6.363   3.139   5.999 -1.4698  0.5056  0.2069
 2450SOL    HW210628   6.355   3.007   5.925  1.0808  0.0622  0.6355
 2451SOL     OW10629   6.531   3.140   8.134  0.4911 -0.0267  0.4910
 2451SOL    HW110630   6.540   3.070   8.069 -2.0450 -1.3147  1.3697
 2451SOL    HW210631   6.552   3.098   8.218 -0.5616  0.3730  0.9751
 2452SOL     OW10632   8.519   1.433   4.748 -0.1477 -0.4473  0.1001
 2452SOL    HW110633   8.580   1.490   4.703  1.0162 -2.3378 -0.8431
 2452SOL    HW210634   8.498   1.479   4.830  1.9795  0.5732  0.1328
 2453SOL     OW10635   9.808   4.457   1.045 -0.0565 -0.3466  0.3066
 2453SOL    HW110636   9.848   4.379   1.083  0.5614 -1.9794 -3.2381
 2453SOL    HW210637   9.882   4.509   1.014 -0.5372  0.6631  0.8009
 2454SOL     OW10638   1.492   0.241   7.332 -0.1319  0.5334 -0.1411
 2454SOL    HW110639   1.399   0.230   7.352 -0.1282  1.0983  0.2056
 2454SOL    HW210640   1.537   0.179   7.390 -0.3164 -0.1427 -0.7024
 2455SOL     OW10641   3.814   0.467   4.411 -0.8371 -0.2598 -0.6521
 2455SOL    HW110642   3.863   0.387   4.429 -1.5034 -0.8942 -1.5671
 2455SOL    HW210643   3.739   0.439   4.359 -0.5985  1.0788 -1.7923
 2456SOL     OW10644  10.627   8.177   3.753 -0.3362  0.0630 -0.7856
 2456SOL    HW110645  10.656   8.175   3.845 -1.7439  1.2924 -0.2714
 2456SOL    HW210646  10.582   8.093   3.740 -1.3215  0.4334  0.0901
 2457SOL     OW10647   6.657   2.350   1.053 -0.1801 -0.2569 -0.6429
 2457SOL    HW110648   6.655   2.255   1.043  1.8695 -0.2050 -2.3859
 2457SOL    HW210649   6.589   2.382   0.993 -1.0022 -0.6017  0.0878
 2458SOL     OW10650   7.028   7.402  10.470 -0.0153  0.0105  0.3983
 2458SOL    HW110651   6.980   7.466  10.417  0.6671 -2.3616 -3.4630
 2458SOL    HW210652   6.964   7.334  10.490  0.5116 -0.7793 -0.4956
 2459SOL     OW10653   3.542   9.130   1.305  0.7409  0.1442 -0.0521
 2459SOL    HW110654   3.482   9.059   1.326 -0.6459  1.4645  0.6167
 2459SOL    HW210655   3.509   9.167   1.224  1.6006 -0.1023 -0.5268
 2460SOL     OW10656   9.030  11.152   9.027 -0.0708 -0.1145  0.1445
 2460SOL    HW110657   9.066  11.217   9.087 -2.8491  2.8449 -1.0968
 2460SOL    HW210658   8.948  11.125   9.067  0.2227 -1.6465 -0.2045
 2461SOL     OW10659   9.170   8.491   9.467 -0.3312  0.0290  0.4877
 2461SOL    HW110660   9.152   8.403   9.435 -1.9566  0.2421  0.7037
 2461SOL    HW210661   9.189   8.543   9.388  2.5027 -0.8415  0.4878
 2462SOL     OW10662   6.945   0.844   3.483  0.5478  0.2559  0.3524
 2462SOL    HW110663   6.994   0.917   3.444  1.4207 -0.3340  0.3142
 2462SOL    HW210664   6.955   0.772   3.420  1.8820 -0.6787  1.5632
 2463SOL     OW10665   2.075   4.588   5.559  0.1260 -0.3594  0.1933
 2463SOL    HW110666   2.047   4.541   5.481 -1.0992 -0.5313  0.7174
 2463SOL    HW210667   2.047   4.678   5.544  0.9600 -0.1319 -0.0701
 2464SOL     OW10668   3.298   5.126   4.540  0.2138  1.2587  0.2154
 2464SOL    HW110669   3.365   5.063   4.513  0.5716  1.9838 -0.6423
 2464SOL    HW210670   3.252   5.148   4.459  0.2900  2.3026  0.4339
 2465SOL     OW10671   3.084   2.621   4.526 -0.3624 -0.3712 -0.0305
 2465SOL    HW110672   3.004   2.593   4.571  1.3561 -2.5017  1.9565
 2465SOL    HW210673   3.128   2.539   4.504  1.9512  0.7305  0.2741
 2466SOL     OW10674   0.663   5.056   6.180  0.6418  0.3732  0.4216
 2466SOL    HW110675   0.588   5.099   6.139  0.3733  1.1180  1.6599
 2466SOL    HW210676   0.728   5.050   6.110 -0.6525 -0.5590 -0.7666
 2467SOL     OW10677   4.846   5.125   9.000  0.7849 -0.1360 -0.0903
 2467SOL    HW110678   4.880   5.109   8.912 -0.8942 -0.0360 -0.7949
 2467SOL    HW210679   4.920   5.161   9.048  1.2725  1.5209 -1.9591
 2468SOL     OW10680   6.300  10.686   1.057 -0.2547  0.0481 -0.5488
 2468SOL    HW110681   6.384  10.646   1.081  0.2440  1.1585 -0.3615
 2468SOL    HW210682   6.294  10.674   0.963 -0.1754 -0.5706 -0.4797
 2469SOL     OW10683   6.690   6.812   2.634  0.0681 -0.2037  0.1124
 2469SOL    HW110684   6.687   6.906   2.653  1.2111  0.0045 -0.6514
 2469SOL    HW210685   6.598   6.785   2.637 -0.1953  0.6978  1.4376
 2470SOL     OW10686   5.941   0.617   1.190 -0.4831  0.1013  0.2502
 2470SOL    HW110687   5.997   0.559   1.138 -0.7420  0.3563 -0.3227
 2470SOL    HW210688   5.852   0.594   1.163 -0.6114  0.3725  0.4412
 2471SOL     OW10689   6.986   3.878   7.975  0.0252 -0.5158  0.0706
 2471SOL    HW110690   7.001   3.957   8.027 -2.3426 -0.3800  0.6338
 2471SOL    HW210691   6.897   3.887   7.941  0.0793 -2.4626 -0.7385
 2472SOL     OW10692   1.646   2.600   3.373 -0.3940 -0.0932  0.1152
 2472SOL    HW110693   1.692   2.609   3.290 -0.2634 -1.0310  0.0762
 2472SOL    HW210694   1.714   2.615   3.439 -0.4687  0.5144  0.0578
 2473SOL     OW10695   9.194   5.522   8.663  0.2403  0.1241 -0.3713
 2473SOL    HW110696   9.180   5.617   8.665  0.9704  0.2952 -1.7625
 2473SOL    HW210697   9.267   5.511   8.602  0.2175 -1.3321 -0.1539
 2474SOL     OW10698   9.916   2.542   5.252  0.2336  0.0121 -0.1982
 2474SOL    HW110699  10.011   2.548   5.263  0.3437 -0.3025 -0.9097
 2474SOL    HW210700   9.902   2.456   5.212 -0.3640 -0.0022  0.0299
 2475SOL     OW10701  10.515   0.842   4.231  0.1714  0.3019 -0.1256
 2475SOL    HW110702  10.582   0.819   4.166 -0.3794  1.4634 -1.1455
 2475SOL    HW210703  10.530   0.935   4.247 -1.0387  0.5106 -0.1717
 2476SOL     OW10704   5.288   8.239   6.648 -0.1730  0.1568 -0.3257
 2476SOL    HW110705   5.338   8.318   6.626  0.7735 -0.4743 -0.5541
 2476SOL    HW210706   5.355   8.175   6.673 -1.0202 -0.0527  1.6188
 2477SOL     OW10707   1.368   9.056   4.036 -0.7857 -0.4302  0.2252
 2477SOL    HW110708   1.333   9.056   4.125 -0.3623  0.3815  0.4023
 2477SOL    HW210709   1.360   9.147   4.007  0.2705 -0.4256 -0.0846
 2478SOL     OW10710   6.941   6.527   6.602  0.6104 -0.8957 -0.1542
 2478SOL    HW110711   6.872   6.572   6.650  1.7024  1.1485 -0.4162
 2478SOL    HW210712   6.896   6.454   6.558 -1.5863  0.9076 -1.0945
 2479SOL     OW10713   2.468   8.187  10.119  0.4223  0.0584  0.1403
 2479SOL    HW110714   2.469   8.176  10.024 -0.0865 -1.5549  0.2836
 2479SOL    HW210715   2.560   8.192  10.144  0.5584  0.4602 -0.4325
 2480SOL     OW10716   7.737   6.221   3.872  0.3256 -0.2052 -0.2501
 2480SOL    HW110717   7.728   6.316   3.878 -1.0864 -0.2914 -0.6286
 2480SOL    HW210718   7.648   6.188   3.885  0.7035 -1.4406 -0.7078
 2481SOL     OW10719   5.000  10.149   6.564  0.4856  0.2786 -0.0245
 2481SOL    HW110720   5.028  10.058   6.569  0.1508  0.0296 -1.8759
 2481SOL    HW210721   4.955  10.156   6.480  1.4122  2.4078 -0.4156
 2482SOL     OW10722   1.443   3.058   3.901  0.1193 -0.3090  0.2427
 2482SOL    HW110723   1.432   2.978   3.952 -0.4226 -0.8250 -0.6573
 2482SOL    HW210724   1.403   3.126   3.956  0.6760 -0.6280  1.0573
 2483SOL     OW10725   0.555   6.858   6.254 -0.6237 -0.1677  0.5792
 2483SOL    HW110726   0.617   6.787   6.236  0.3659  0.9189 -0.4894
 2483SOL    HW210727   0.547   6.859   6.349  1.4266 -0.0360  0.7988
 2484SOL     OW10728   1.823   3.230   6.071  0.4702  0.2356 -0.4151
 2484SOL    HW110729   1.759   3.292   6.105  0.2783 -0.5465  0.7123
 2484SOL    HW210730   1.870   3.199   6.149  0.2430 -1.3680 -0.8790
 2485SOL     OW10731   1.252   0.769   0.520 -0.1227  0.3261  0.0040
 2485SOL    HW110732   1.346   0.762   0.537 -0.0127  1.7654  0.1182
 2485SOL    HW210733   1.213   0.785   0.606 -0.6789 -1.7909  0.1906
 2486SOL     OW10734   4.234   8.624   7.924 -0.4483 -0.5618  0.1560
 2486SOL    HW110735   4.222   8.571   7.846 -0.6614 -0.7957  0.3431
 2486SOL    HW210736   4.192   8.707   7.904  3.1824  1.0418 -1.6134
 2487SOL     OW10737   1.278  11.306   2.063  0.0518  0.4046 -0.3418
 2487SOL    HW110738   1.253  11.213   2.067 -0.4121  0.5587  0.8189
 2487SOL    HW210739   1.358  11.311   2.117 -0.1275  0.7320 -0.1011
 2488SOL     OW10740   0.848   9.645   3.197  0.3603  0.1440 -0.3500
 2488SOL    HW110741   0.859   9.567   3.143 -0.4376 -0.5337  0.4253
 2488SOL    HW210742   0.856   9.718   3.136  0.7229 -0.5586 -1.1609
 2489SOL     OW10743   8.802   6.153  11.343  0.2133  0.2059  0.8474
 2489SOL    HW110744   8.840   6.212  11.409  2.5668 -1.1227  0.8057
 2489SOL    HW210745   8.871   6.145  11.277 -0.8921 -0.9507 -0.2076
 2490SOL     OW10746   7.138   5.928   1.390 -0.3661  0.3810  0.0195
 2490SOL    HW110747   7.085   5.850   1.376 -1.4098  1.1427 -0.4529
 2490SOL    HW210748   7.082   6.000   1.360  0.7096  1.2727  0.0991
 2491SOL     OW10749   6.853   8.427   9.496  0.3829 -0.0426  0.5062
 2491SOL    HW110750   6.867   8.499   9.433 -0.4337  0.3313  0.7336
 2491SOL    HW210751   6.937   8.381   9.498  1.0559  1.1322  0.6399
 2492SOL     OW10752   2.726   5.088  10.083  0.9873 -0.0007 -0.4521
 2492SOL    HW110753   2.644   5.116  10.125  1.3555 -0.8249  0.8592
 2492SOL    HW210754   2.788   5.077  10.155  2.1196  0.0934 -1.3776
 2493SOL     OW10755   4.466   2.759   6.363 -0.3869 -0.3352 -0.3530
 2493SOL    HW110756   4.426   2.743   6.278 -0.4975 -0.2747 -0.3127
 2493SOL    HW210757   4.392   2.765   6.424 -0.4166  1.1107 -0.4942
 2494SOL     OW10758   0.675   1.560   6.722 -0.1740 -0.2025  0.5541
 2494SOL    HW110759   0.656   1.648   6.757  1.5899  0.2947  0.3372
 2494SOL    HW210760   0.646   1.565   6.631 -0.3023  0.0725  0.6066
 2495SOL     OW10761   7.590   4.843   4.919 -0.2137  0.2755 -0.0357
 2495SOL    HW110762   7.654   4.800   4.861  0.5391  0.7583  0.4121
 2495SOL    HW210763   7.609   4.937   4.910 -1.6464  0.5268 -0.7847
 2496SOL     OW10764   4.160   7.119   1.852  0.3563 -0.4805  0.0151
 2496SOL    HW110765   4.252   7.105   1.876  0.2375 -0.5286  0.4627
 2496SOL    HW210766   4.143   7.055   1.783  0.5142 -0.8398  0.3023
 2497SOL     OW10767   8.166   6.992   6.256  0.0533  0.8094 -0.0146
 2497SOL    HW110768   8.079   7.014   6.224 -0.2075  1.2923  0.9868
 2497SOL    HW210769   8.157   6.904   6.294  0.9440 -0.9302 -3.4175
 2498SOL     OW10770   3.707   5.656   3.281  0.3216  0.0759 -0.3671
 2498SOL    HW110771   3.673   5.677   3.368  0.4558 -0.4902 -0.1797
 2498SOL    HW210772   3.676   5.567   3.263  2.7604 -0.9891  0.3581
 2499SOL     OW10773  10.409   9.951  10.154 -0.0721  0.0977 -0.4213
 2499SOL    HW110774  10.436  10.039  10.181 -2.1311  0.2392  1.4739
 2499SOL    HW210775  10.339   9.928  10.215  0.6582 -3.0425 -0.6141
 2500SOL     OW10776   3.415   1.176   9.003 -0.3147  0.2141 -0.3177
 2500SOL    HW110777   3.375   1.146   9.085 -0.2737 -0.1060 -0.4125
 2500SOL    HW210778   3.437   1.095   8.956 -0.6578  0.3914 -0.8007
 2501SOL     OW10779   3.653   6.115   0.635  0.3490 -0.5512 -1.1954
 2501SOL    HW110780   3.561   6.091   0.639  0.1902  0.2020 -0.1399
 2501SOL    HW210781   3.653   6.209   0.616  0.8692 -0.2616  0.1652
 2502SOL     OW10782   9.019   0.215   8.889  1.0252  0.0092  0.2408
 2502SOL    HW110783   9.073   0.154   8.839 -0.6303 -1.3911  0.0602
 2502SOL    HW210784   9.028   0.188   8.980 -1.1740 -1.8488  0.0000
 2503SOL     OW10785   7.326   1.720   3.829  0.2368  0.1835  0.5757
 2503SOL    HW110786   7.315   1.814   3.840 -1.3110 -0.0101  0.9405
 2503SOL    HW210787   7.303   1.683   3.914 -1.0540 -0.6285 -0.0890
 2504SOL     OW10788  10.673   7.683   9.303  0.4934  0.0855  1.1455
 2504SOL    HW110789  10.610   7.613   9.322 -0.0840 -0.2412 -1.5174
 2504SOL    HW210790  10.734   7.644   9.241  1.5568  1.3023  1.3787
 2505SOL     OW10791   1.658   4.338   0.987  0.0268 -0.4001  0.3600
 2505SOL    HW110792   1.669   4.304   0.898 -0.4502  0.6232 -0.1058
 2505SOL    HW210793   1.582   4.291   1.022  1.3708 -2.2360  0.9722
 2506SOL     OW10794   8.871   9.259  11.246  0.3333  0.3148 -0.0509
 2506SOL    HW110795   8.832   9.241  11.160 -0.6569  1.0179  0.2344
 2506SOL    HW210796   8.808   9.223  11.309 -0.0064  1.6725  0.4194
 2507SOL     OW10797   4.374   2.337   2.159  0.3475  0.1545  0.2292
 2507SOL    HW110798   4.300   2.382   2.118 -0.1801 -1.5476 -0.7675
 2507SOL    HW210799   4.442   2.405   2.168 -0.9543  1.4951  0.2398
 2508SOL     OW10800   4.127   1.267   6.914 -0.2674  0.0783 -0.1331
 2508SOL    HW110801   4.207   1.265   6.860 -1.0690 -2.2911 -1.4061
 2508SOL    HW210802   4.159   1.254   7.003  1.0360  3.3201  0.0076
 2509SOL     OW10803  11.257   9.256   6.693 -0.3120  0.0004 -0.0620
 2509SOL    HW110804  11.328   9.256   6.629 -0.4404  0.2622 -0.2063
 2509SOL    HW210805  11.177   9.267   6.641 -0.4167  0.2060  0.1396
 2510SOL     OW10806   4.427   3.177   2.886  0.0885  0.1670 -0.4556
 2510SOL    HW110807   4.413   3.257   2.836 -1.2224  0.0478 -0.3372
 2510SOL    HW210808   4.503   3.136   2.846  0.1923  0.9911 -1.1365
 2511SOL     OW10809   6.577   6.163   8.731  0.6757  0.2299  0.1393
 2511SOL    HW110810   6.556   6.256   8.722 -1.1034 -0.1898 -0.6357
 2511SOL    HW210811   6.636   6.144   8.658  0.7532  0.6732  0.0845
 2512SOL     OW10812   7.007   5.539   5.320 -0.1892  0.7412 -0.2600
 2512SOL    HW110813   6.979   5.448   5.310  1.3530  0.0251  1.3988
 2512SOL    HW210814   6.925   5.589   5.323 -1.0528 -0.3750 -2.4498
 2513SOL     OW10815   0.005   0.825   6.948 -0.2036 -0.1467 -0.3453
 2513SOL    HW110816   0.088   0.838   6.902 -0.4115  0.6193 -0.5064
 2513SOL    HW210817  -0.043   0.906   6.935 -0.0578  0.3039  1.6984
 2514SOL     OW10818   2.592   6.718  10.000  0.0606  0.1703  0.8024
 2514SOL    HW110819   2.620   6.677  10.082 -1.0192  0.3206  1.2627
 2514SOL    HW210820   2.646   6.677   9.933 -0.5273 -1.5599  1.3189
 2515SOL     OW10821   9.688   5.774   0.102 -0.5453 -0.0332  0.2953
 2515SOL    HW110822   9.654   5.684   0.108 -0.0895 -0.2377 -0.0753
 2515SOL    HW210823   9.767   5.773   0.156 -1.6853  0.7400  2.0764
 2516SOL     OW10824   9.333  10.141   7.690 -0.1503  0.2877 -0.3129
 2516SOL    HW110825   9.307  10.227   7.657  0.0063  0.3655 -0.2343
 2516SOL    HW210826   9.414  10.157   7.738  0.1694  0.0114 -0.7511
 2517SOL     OW10827   0.686  10.068   7.857  0.4811 -0.0483 -0.0407
 2517SOL    HW110828   0.727   9.983   7.838  0.5189 -0.0097 -0.1298
 2517SOL    HW210829   0.727  10.129   7.796  1.4968  0.3211  0.9711
 2518SOL     OW10830   1.219   5.682  10.457 -0.4953  0.3323 -0.0033
 2518SOL    HW110831   1.136   5.637  10.473 -0.0367 -1.0476 -1.2098
 2518SOL    HW210832   1.229   5.742  10.530 -2.4258  0.3420  0.2993
 2519SOL     OW10833  10.269   6.976   9.534 -0.2542  0.1886  0.1538
 2519SOL    HW110834  10.266   7.065   9.568  2.5363 -0.0239  1.2190
 2519SOL    HW210835  10.314   6.984   9.450  0.5108 -0.2495  0.5130
 2520SOL     OW10836   3.741   6.342   7.056  0.7039  0.1398  0.4488
 2520SOL    HW110837   3.798   6.330   7.132  3.6962  0.2423 -1.5787
 2520SOL    HW210838   3.792   6.397   6.997 -1.5754  0.2728 -1.5477
 2521SOL     OW10839   7.561   0.542   6.608  0.6690  0.1555  0.0522
 2521SOL    HW110840   7.543   0.629   6.573 -1.5575 -0.3017 -0.0538
 2521SOL    HW210841   7.528   0.482   6.541 -0.5089 -0.7350  1.3766
 2522SOL     OW10842  10.024   9.010   8.032  0.3967  0.2588 -0.8840
 2522SOL    HW110843  10.086   8.960   7.980  0.1975  0.0413 -0.9166
 2522SOL    HW210844  10.076   9.077   8.076  0.5156  0.6595 -1.6300
 2523SOL     OW10845   3.783   3.809   7.329 -0.1464  0.1819 -0.1313
 2523SOL    HW110846   3.725   3.733   7.333 -0.4873  0.4664  0.4395
 2523SOL    HW210847   3.751   3.868   7.398  2.0913 -0.5534  1.6692
 2524SOL     OW10848   0.391   1.413   6.744  0.4625 -0.1334 -0.2982
 2524SOL    HW110849   0.421   1.416   6.834 -1.8370  0.5870  0.5160
 2524SOL    HW210850   0.310   1.465   6.743 -0.4615 -1.4456 -2.3979
 2525SOL     OW10851   5.073   6.542   7.419  0.6586  0.5874 -0.0867
 2525SOL    HW110852   5.100   6.622   7.465  0.1773  0.8241 -0.2060
 2525SOL    HW210853   5.107   6.471   7.473 -1.0818  0.8390  1.4207
 2526SOL     OW10854   8.515   7.181   6.519 -0.2638  0.1885 -0.0674
 2526SOL    HW110855   8.572   7.240   6.569  0.1696 -1.3214  1.3044
 2526SOL    HW210856   8.576   7.123   6.473 -0.6698 -0.4630  0.2006
 2527SOL     OW10857   5.749   1.695   1.771 -0.6223  0.2426  0.1919
 2527SOL    HW110858   5.836   1.655   1.769 -0.2106  0.7664  3.0803
 2527SOL    HW210859   5.761   1.780   1.729  0.1289  0.1274  0.1552
 2528SOL     OW10860   9.381   6.341   9.396  0.3004  0.5019  0.0683
 2528SOL    HW110861   9.373   6.347   9.301 -0.5453  1.7473  0.1797
 2528SOL    HW210862   9.475   6.335   9.412  0.3940 -1.1035 -0.8776
 2529SOL     OW10863   2.828  11.028   9.173 -0.1961  0.5445 -0.4206
 2529SOL    HW110864   2.856  11.074   9.094  1.4397 -1.3726 -1.0338
 2529SOL    HW210865   2.813  10.938   9.144 -2.1348  0.3683  0.9626
 2530SOL     OW10866   8.977   8.641   1.153  0.0755 -0.0842 -0.6631
 2530SOL    HW110867   8.972   8.732   1.124  0.6014  0.0836 -0.2468
 2530SOL    HW210868   9.071   8.624   1.164 -0.0117 -0.6943 -0.7822
 2531SOL     OW10869   3.981   4.136   5.225 -0.4009 -0.0828  0.1326
 2531SOL    HW110870   4.049   4.203   5.215  0.5586 -1.1255 -0.7883
 2531SOL    HW210871   3.903   4.183   5.254  0.4831  1.2843  0.3438
 2532SOL     OW10872   1.898   3.021   5.460  0.1486 -0.1077  0.0017
 2532SOL    HW110873   1.854   3.100   5.431 -0.7285 -1.3271 -2.2218
 2532SOL    HW210874   1.833   2.975   5.513  0.0556 -0.1293 -0.1302
 2533SOL     OW10875   5.337   7.809   2.156  0.6616 -0.2123  0.6336
 2533SOL    HW110876   5.351   7.829   2.248 -0.2050 -1.9389  1.1753
 2533SOL    HW210877   5.424   7.810   2.117  1.1679 -0.7245  1.7383
 2534SOL     OW10878   4.413  10.513   6.165  0.1522 -0.0040 -0.6261
 2534SOL    HW110879   4.379  10.444   6.221 -1.3752  0.5473 -0.8258
 2534SOL    HW210880   4.365  10.592   6.192  2.2809  1.1580  0.0434
 2535SOL     OW10881   6.424   5.801   5.944  0.3478 -0.0336  0.1928
 2535SOL    HW110882   6.484   5.755   6.003  0.8707  1.0782  0.5445
 2535SOL    HW210883   6.379   5.864   6.001  0.4475  0.6637 -0.4935
 2536SOL     OW10884   1.902   9.040   6.180 -0.1182 -0.1028 -0.4288
 2536SOL    HW110885   1.987   8.997   6.175 -0.6735 -1.4089  0.5966
 2536SOL    HW210886   1.866   9.032   6.092 -0.8678 -3.2976  0.0482
 2537SOL     OW10887   7.857   8.350   0.724  0.1009 -0.3158 -0.9199
 2537SOL    HW110888   7.919   8.378   0.657  0.8652  0.8373  0.2235
 2537SOL    HW210889   7.891   8.267   0.756  0.6167 -0.0759 -0.8444
 2538SOL     OW10890  10.182   0.326  10.923 -0.4167  0.3540 -0.4952
 2538SOL    HW110891  10.219   0.342  10.836  0.5735 -1.7577 -0.5367
 2538SOL    HW210892  10.229   0.384  10.981  1.5872 -0.8083 -0.8679
 2539SOL     OW10893   7.153   9.415   2.690  0.5508 -0.7029 -0.2456
 2539SOL    HW110894   7.196   9.355   2.630  1.8783  0.8092 -0.8714
 2539SOL    HW210895   7.182   9.387   2.777  0.0185 -1.8111 -0.4073
 2540SOL     OW10896   4.145  10.227   7.300 -0.4522 -0.1230  0.3033
 2540SOL    HW110897   4.135  10.322   7.297 -0.8754 -0.1278  1.3198
 2540SOL    HW210898   4.201  10.207   7.225 -0.6086  0.8915 -0.1034
 2541SOL     OW10899   5.198  10.353  11.248  0.4667  0.0249  0.7608
 2541SOL    HW110900   5.179  10.260  11.232  1.7646  0.2151 -2.6410
 2541SOL    HW210901   5.273  10.352  11.307  0.1556 -1.0870  1.1612
 2542SOL     OW10902   0.863   0.297   1.283  0.4510 -0.5015  0.0246
 2542SOL    HW110903   0.894   0.211   1.312 -0.9533 -1.3433 -0.8843
 2542SOL    HW210904   0.842   0.286   1.191  0.1959  0.8188 -0.1063
 2543SOL     OW10905   1.941   1.066   0.012  0.1966  0.4780 -0.2133
 2543SOL    HW110906   2.006   1.011   0.056  0.1527  0.2169 -0.4735
 2543SOL    HW210907   1.975   1.077  -0.077  1.3986  2.7821  0.4392
 2544SOL     OW10908  10.880   5.172   7.352  0.0025 -0.5082 -0.2232
 2544SOL    HW110909  10.888   5.113   7.276  0.3628  0.1124 -0.6716
 2544SOL    HW210910  10.787   5.197   7.352 -0.2422 -1.3429  0.1869
 2545SOL     OW10911  10.954  10.569   3.345  0.8290 -0.2116  0.2466
 2545SOL    HW110912  10.971  10.662   3.332 -1.0267 -0.1592 -2.6388
 2545SOL    HW210913  10.980  10.528   3.262 -1.0333 -1.8247  0.3876
 2546SOL     OW10914   0.459   5.492   5.638 -0.4710 -0.1334 -0.3972
 2546SOL    HW110915   0.528   5.542   5.596 -0.8134  1.1812  0.5357
 2546SOL    HW210916   0.393   5.479   5.569 -0.1498  0.2747 -0.7831
 2547SOL     OW10917   8.796  10.892   5.568 -0.3504 -0.1398  0.6768
 2547SOL    HW110918   8.845  10.969   5.543 -2.0261  0.1456 -2.1197
 2547SOL    HW210919   8.791  10.839   5.489  2.4779 -4.3105  2.8771
 2548SOL     OW10920   1.321   8.114   5.169  0.1524 -0.3207  0.4468
 2548SOL    HW110921   1.364   8.132   5.252 -0.2484  0.0297  0.5817
 2548SOL    HW210922   1.341   8.190   5.114 -0.7594  0.1120  0.7014
 2549SOL     OW10923   9.602   9.103   8.853 -0.5445  0.0928 -0.2887
 2549SOL    HW110924   9.658   9.156   8.910  0.9458 -0.2832 -1.3377
 2549SOL    HW210925   9.531   9.162   8.827 -1.1056  0.3572  1.6800
 2550SOL     OW10926   3.623   1.783   8.022  0.0240 -0.2491  0.4493
 2550SOL    HW110927   3.621   1.822   8.110 -3.4716  2.8767 -0.7583
 2550SOL    HW210928   3.665   1.850   7.968 -0.6958 -0.7398 -0.7562
 2551SOL     OW10929   1.183  10.927   1.927  0.3333 -0.2554  0.5039
 2551SOL    HW110930   1.147  10.847   1.965 -1.4041 -0.4303 -1.3158
 2551SOL    HW210931   1.264  10.899   1.884 -0.1985 -1.0524 -0.0128
 2552SOL     OW10932   0.682   2.617   9.710  0.4133  0.0613 -0.7581
 2552SOL    HW110933   0.767   2.586   9.679  0.9182  0.9717 -0.2786
 2552SOL    HW210934   0.625   2.608   9.633  0.7822 -1.0930 -0.9223
 2553SOL     OW10935  10.208   8.475   0.925  0.1002 -0.6814 -0.3303
 2553SOL    HW110936  10.268   8.415   0.969 -1.5054 -3.1876 -1.2751
 2553SOL    HW210937  10.239   8.478   0.834 -0.5650 -1.2207 -0.5943
 2554SOL     OW10938   5.319   1.532   6.378 -0.1064 -0.0123  0.1801
 2554SOL    HW110939   5.404   1.576   6.376 -0.4459  0.6606  0.4791
 2554SOL    HW210940   5.276   1.559   6.297 -0.3649  0.3145  0.4242
 2555SOL     OW10941   3.784   2.519  11.151 -0.2278  0.2926  0.0415
 2555SOL    HW110942   3.868   2.518  11.105 -0.8754 -0.7230 -1.1797
 2555SOL    HW210943   3.807   2.533  11.243  1.2184  0.7208 -0.3579
 2556SOL     OW10944   3.954   4.191   1.927  0.0971 -0.3808  0.3299
 2556SOL    HW110945   3.934   4.151   1.842 -1.0697 -1.0460  0.9006
 2556SOL    HW210946   3.885   4.256   1.939  0.5969  0.1222  0.5154
 2557SOL     OW10947  10.947   4.711   1.609 -0.0668 -0.0016 -0.5130
 2557SOL    HW110948  10.999   4.632   1.606 -0.3460 -0.2248  0.1979
 2557SOL    HW210949  10.978   4.764   1.536  0.3804 -0.6022 -0.7622
 2558SOL     OW10950   3.593  11.022   7.462 -0.2796 -0.3166 -0.1484
 2558SOL    HW110951   3.540  10.961   7.513  0.3077  0.2406  1.1740
 2558SOL    HW210952   3.657  10.966   7.416 -0.2692 -0.7622  0.3984
 2559SOL     OW10953   9.545  10.294  10.544 -0.0937 -0.0678  0.2077
 2559SOL    HW110954   9.489  10.246  10.484 -2.3429  1.2662  1.0861
 2559SOL    HW210955   9.508  10.382  10.546  2.8973  1.3334 -0.1473
 2560SOL     OW10956   4.424   1.761   6.334  0.4252 -0.2970 -0.2177
 2560SOL    HW110957   4.488   1.757   6.406 -1.8405 -0.2352  1.9438
 2560SOL    HW210958   4.384   1.674   6.333 -0.8851  0.2725 -0.0648
 2561SOL     OW10959   6.475   8.299   1.268  0.4313 -0.0606  0.2014
 2561SOL    HW110960   6.408   8.319   1.202  0.4870  0.2018  0.2218
 2561SOL    HW210961   6.434   8.322   1.351  0.2594 -0.6596  0.2864
 2562SOL     OW10962   5.852   4.130  11.306  0.4872 -0.2651 -0.0539
 2562SOL    HW110963   5.864   4.153  11.214 -0.5431  1.0590  0.1080
 2562SOL    HW210964   5.891   4.203  11.354 -0.0009 -0.3912  0.5463
 2563SOL     OW10965   1.909   6.874   1.354 -0.6097  0.2960 -0.0910
 2563SOL    HW110966   1.978   6.828   1.305 -0.2503  0.0524  0.6301
 2563SOL    HW210967   1.827   6.840   1.317 -0.4269  2.0894 -2.3966
 2564SOL     OW10968   1.613   0.709   8.580 -0.7140  0.4892 -0.1827
 2564SOL    HW110969   1.626   0.770   8.507  1.4593  1.5376  1.0067
 2564SOL    HW210970   1.561   0.637   8.541 -3.4893  3.0180 -1.6188
 2565SOL     OW10971   1.435   4.436  10.911  0.2911  0.0911 -0.6320
 2565SOL    HW110972   1.358   4.490  10.929 -0.9036 -2.0319  1.1086
 2565SOL    HW210973   1.509   4.495  10.924 -0.9667  1.8200 -0.8851
 2566SOL     OW10974   3.851   5.455   9.840  0.0135  0.0842  0.0752
 2566SOL    HW110975   3.831   5.540   9.880  0.5490  0.5155 -0.5380
 2566SOL    HW210976   3.915   5.415   9.899  0.7920  0.7112 -0.3272
 2567SOL     OW10977  10.053   4.930   6.730  0.1585  0.6021 -0.4343
 2567SOL    HW110978  10.022   4.937   6.821  0.7893  2.1185 -0.3078
 2567SOL    HW210979   9.991   4.983   6.680  0.2681  0.4158 -0.7677
 2568SOL     OW10980   3.611   6.088   1.944 -0.0934 -0.4160 -0.7265
 2568SOL    HW110981   3.580   6.007   1.902 -2.6204  0.6180 -1.0235
 2568SOL    HW210982   3.617   6.151   1.873 -2.2855  0.7630  0.0666
 2569SOL     OW10983   8.138   3.363   5.282 -0.1932  0.3352 -0.0512
 2569SOL    HW110984   8.125   3.457   5.267 -0.5699  0.3085  0.0893
 2569SOL    HW210985   8.084   3.321   5.214 -0.5399  0.2207  0.2933
 2570SOL     OW10986  11.299   1.203   4.440  0.3000  0.1979  0.1585
 2570SOL    HW110987  11.321   1.295   4.452 -0.3227  0.4648 -0.5869
 2570SOL    HW210988  11.344   1.178   4.359  0.6402 -0.2145  0.4729
 2571SOL     OW10989   0.661   6.221   5.456 -0.3282  0.1625 -0.1899
 2571SOL    HW110990   0.661   6.297   5.399  3.2672  0.8466  0.4812
 2571SOL    HW210991   0.650   6.256   5.544  0.3597 -0.1627  0.0380
 2572SOL     OW10992   0.204   0.576   7.777  0.7560  0.4220  0.5608
 2572SOL    HW110993   0.152   0.621   7.844 -0.0857  0.0308  0.1828
 2572SOL    HW210994   0.191   0.628   7.698 -0.2425 -0.4697  0.1152
 2573SOL     OW10995   9.670   7.627   4.164 -0.0342  0.2325  0.0076
 2573SOL    HW110996   9.752   7.642   4.117  0.7700  1.8212  1.8124
 2573SOL    HW210997   9.671   7.533   4.185  0.1108 -0.2760 -2.0482
 2574SOL     OW10998   9.469   3.200  11.194  0.2599 -0.2473 -1.0879
 2574SOL    HW110999   9.415   3.151  11.256  1.5287  1.9525  2.0291
 2574SOL    HW211000   9.529   3.135  11.158 -0.1062 -1.5590  0.5408
 2575SOL     OW11001   8.834   3.964   0.489  0.5447  0.1125 -0.2581
 2575SOL    HW111002   8.821   3.928   0.577 -1.2101  2.1989  0.4298
 2575SOL    HW211003   8.928   3.964   0.477  0.8054 -0.5729  1.4917
 2576SOL     OW11004   6.214   1.396  10.479 -0.0427  0.0807  0.6124
 2576SOL    HW111005   6.138   1.422  10.427  0.0874 -0.6727  0.0275
 2576SOL    HW211006   6.181   1.395  10.570 -0.7761 -0.3727  0.3516
 2577SOL     OW11007   1.844   0.194  10.703 -0.7059 -0.6628  0.4563
 2577SOL    HW111008   1.877   0.110  10.672 -0.8740 -1.0106  1.1720
 2577SOL    HW211009   1.757   0.173  10.739 -1.5155  0.1347 -0.9385
 2578SOL     OW11010   3.612   7.094   1.286  0.1841  0.5514  0.8449
 2578SOL    HW111011   3.676   7.033   1.323  0.7120  0.3246 -0.4028
 2578SOL    HW211012   3.641   7.180   1.316  1.2549  0.4758  0.0777
 2579SOL     OW11013   2.744   8.563   6.739  0.1916  0.1106  0.0262
 2579SOL    HW111014   2.679   8.508   6.696  0.8352 -1.0157  0.4490
 2579SOL    HW211015   2.824   8.510   6.739  0.9670  1.2476 -0.0052
 2580SOL     OW11016   9.210   7.459   7.843  0.3212 -0.1984 -0.2200
 2580SOL    HW111017   9.186   7.381   7.793 -0.8547  0.7683 -1.2406
 2580SOL    HW211018   9.131   7.513   7.843  1.0194  0.8726  0.7001
 2581SOL     OW11019   3.730   7.709  10.824  0.1048  0.0619  1.0019
 2581SOL    HW111020   3.678   7.632  10.847 -0.5271  0.1689  0.0132
 2581SOL    HW211021   3.691   7.781  10.873 -0.4602  0.0723  0.5512
 2582SOL     OW11022   2.901   7.234   6.788  0.3285  0.4379  0.2919
 2582SOL    HW111023   2.861   7.147   6.785 -0.8710  0.9173  1.2666
 2582SOL    HW211024   2.895   7.260   6.880 -1.2352  2.3650 -0.2758
 2583SOL     OW11025   2.096   7.430   5.892  0.4663 -0.0589  0.4388
 2583SOL    HW111026   2.079   7.419   5.799  2.4245 -0.2698  0.0727
 2583SOL    HW211027   2.033   7.373   5.935  0.2090 -0.7375 -0.8015
 2584SOL     OW11028   8.612   5.388   9.545 -0.3217 -0.6141 -0.1392
 2584SOL    HW111029   8.618   5.375   9.450 -1.0031 -1.3458 -0.0943
 2584SOL    HW211030   8.657   5.471   9.561 -0.4992 -0.3096 -1.1462
 2585SOL     OW11031   4.818   9.531   2.485 -0.3795  0.4918  0.5421
 2585SOL    HW111032   4.784   9.453   2.442 -2.9925  1.5899  0.3962
 2585SOL    HW211033   4.806   9.514   2.579 -0.0565  0.3442  0.5563
 2586SOL     OW11034   4.817  10.092   7.727 -0.2099 -0.2973  0.0010
 2586SOL    HW111035   4.890  10.126   7.675 -0.6163 -0.8583 -0.9630
 2586SOL    HW211036   4.789  10.014   7.680 -0.1612 -1.2112  1.4433
 2587SOL     OW11037  10.011   6.214   3.501  0.2495  0.4717 -0.3859
 2587SOL    HW111038  10.097   6.188   3.470 -0.2035  0.9041 -2.1035
 2587SOL    HW211039  10.018   6.308   3.517  0.3639  0.3256  0.4531
 2588SOL     OW11040   6.729   5.752   7.134  0.8627 -0.2164  0.3807
 2588SOL    HW111041   6.779   5.689   7.081  1.4391 -1.3076  2.1235
 2588SOL    HW211042   6.647   5.707   7.153  0.5389  0.2843  0.1547
 2589SOL     OW11043  10.050   4.647   8.234  0.3798  0.3213  0.4744
 2589SOL    HW111044  10.021   4.701   8.160  2.0984 -0.8936 -1.2022
 2589SOL    HW211045   9.972   4.636   8.288 -1.6031 -0.5314 -2.3117
 2590SOL     OW11046  10.237   4.890   6.042 -0.1712  0.0370 -0.6228
 2590SOL    HW111047  10.183   4.811   6.036  1.1320 -1.0421  0.9786
 2590SOL    HW211048  10.219   4.925   6.130 -0.2582  1.1848 -1.0776
 2591SOL     OW11049   1.389   1.352   7.964 -0.5372 -0.4907 -0.5478
 2591SOL    HW111050   1.297   1.363   7.942 -0.9723 -0.8842  0.9109
 2591SOL    HW211051   1.432   1.431   7.931 -1.9125  1.1172  1.2402
 2592SOL     OW11052   0.508   9.666   1.250  0.4830  0.2101 -0.4414
 2592SOL    HW111053   0.498   9.751   1.294  1.8814  0.4286 -0.4883
 2592SOL    HW211054   0.600   9.663   1.226  0.6211 -1.6586  0.2061
 2593SOL     OW11055   9.485   7.240   1.009 -0.1370  0.1465  0.5961
 2593SOL    HW111056   9.541   7.222   1.084 -0.0093 -1.5553  0.1291
 2593SOL    HW211057   9.399   7.205   1.033 -0.4909  0.9103  0.5034
 2594SOL     OW11058   8.605   0.829   9.089 -0.4261 -0.0770 -0.4063
 2594SOL    HW111059   8.533   0.774   9.118 -0.5174 -1.1308 -2.4905
 2594SOL    HW211060   8.684   0.784   9.122 -0.4494 -1.9600 -2.6443
 2595SOL     OW11061   8.018   0.698   1.363  0.0950 -0.5567 -0.2363
 2595SOL    HW111062   7.962   0.764   1.404  0.2550 -0.9376  0.6043
 2595SOL    HW211063   8.099   0.745   1.343 -0.4647 -0.0248 -1.3825
 2596SOL     OW11064   8.427  10.878   8.198  0.0486  0.1117  0.0362
 2596SOL    HW111065   8.376  10.826   8.136  0.6016 -2.3802  1.5489
 2596SOL    HW211066   8.361  10.925   8.249 -0.6851 -1.4976  0.6410
 2597SOL     OW11067   6.559  10.007   8.266 -0.3273  0.4705  0.0198
 2597SOL    HW111068   6.493   9.949   8.304  0.5720 -0.8764 -0.3980
 2597SOL    HW211069   6.637   9.995   8.320  0.1878  0.4722 -0.6975
 2598SOL     OW11070   5.707   9.588   0.816 -0.1337 -0.2693  0.5107
 2598SOL    HW111071   5.613   9.577   0.804  0.0744 -0.2924 -1.3585
 2598SOL    HW211072   5.728   9.670   0.772  0.7680 -0.4058  0.6687
 2599SOL     OW11073   9.788   3.105   4.238 -0.2216 -0.6524 -0.4626
 2599SOL    HW111074   9.785   3.173   4.305  0.6099 -1.0830  0.0275
 2599SOL    HW211075   9.879   3.104   4.209 -0.5181 -0.6435 -1.4316
 2600SOL     OW11076   7.494  10.954   8.760 -0.3159  0.1465 -0.2263
 2600SOL    HW111077   7.508  11.036   8.714  0.0364  2.1734  3.1456
 2600SOL    HW211078   7.560  10.895   8.725  1.1670  2.1451 -0.9867
 2601SOL     OW11079   5.658   0.980   5.817 -0.3350  0.1696 -0.0436
 2601SOL    HW111080   5.666   1.021   5.903 -0.3333 -0.6562  0.3669
 2601SOL    HW211081   5.747   0.982   5.781 -0.3145  0.4223  0.0198
 2602SOL     OW11082   5.952  11.015   3.252 -0.0135  0.1609  0.7082
 2602SOL    HW111083   5.919  10.983   3.336  1.5174  0.4819  1.4612
 2602SOL    HW211084   5.893  11.086   3.228 -3.8461 -3.2050 -1.2340
 2603SOL     OW11085  10.562   5.969   3.749 -0.1541 -0.0987  0.1063
 2603SOL    HW111086  10.562   5.986   3.655 -2.0637  0.5294  0.1737
 2603SOL    HW211087  10.487   5.911   3.763  0.1737 -0.2716  1.2294
 2604SOL     OW11088   9.415   5.508   0.773 -0.7383  0.4039 -0.0852
 2604SOL    HW111089   9.334   5.535   0.729 -1.0807  0.5344  0.5982
 2604SOL    HW211090   9.414   5.557   0.856  1.2003  2.2116 -1.0245
 2605SOL     OW11091  10.374   8.759   0.450  0.0303  0.5144  0.0598
 2605SOL    HW111092  10.456   8.804   0.471  0.2466  0.2397 -0.1936
 2605SOL    HW211093  10.307   8.808   0.498  0.5755 -0.4721  1.9028
 2606SOL     OW11094   5.109   8.866   2.947 -0.1856 -1.3090 -0.0408
 2606SOL    HW111095   5.080   8.920   2.874 -2.7711 -0.8993  1.1734
 2606SOL    HW211096   5.177   8.809   2.910 -0.3945 -0.1440 -2.3721
 2607SOL     OW11097   6.249   0.066  10.913  0.7759  0.1152 -0.6263
 2607SOL    HW111098   6.300   0.079  10.833  0.1612  0.9138 -0.9016
 2607SOL    HW211099   6.158   0.073  10.885  0.5563  0.7913  0.2037
 2608SOL     OW11100   1.804   4.148   7.458  0.1762  0.7535  0.3568
 2608SOL    HW111101   1.717   4.185   7.441  0.5942  1.3061 -0.6821
 2608SOL    HW211102   1.858   4.223   7.481  0.8695  0.7352 -1.0947
 2609SOL     OW11103   7.395   7.942  10.670  0.0283  0.0575  0.3607
 2609SOL    HW111104   7.299   7.936  10.666  0.0759 -0.3878 -0.4153
 2609SOL    HW211105   7.413   8.036  10.670 -0.3689  0.1893 -1.5327
 2610SOL     OW11106   8.070   3.481   0.524  0.2967 -0.6921  0.2592
 2610SOL    HW111107   7.983   3.519   0.515  0.1613 -1.0713 -0.0619
 2610SOL    HW211108   8.069   3.436   0.608  0.0845 -0.9418  0.1242
 2611SOL     OW11109   8.795   2.067   8.155  0.1225 -0.0788 -0.2591
 2611SOL    HW111110   8.864   2.098   8.214 -1.4380  0.5652  1.3086
 2611SOL    HW211111   8.729   2.137   8.156 -1.1829 -1.2685 -0.6280
 2612SOL     OW11112   1.993   5.870  11.299  0.8963 -0.2371  0.3305
 2612SOL    HW111113   2.001   5.931  11.372  0.7858  0.4757 -0.2452
 2612SOL    HW211114   1.988   5.784  11.341 -0.8995  0.2650  1.2693
 2613SOL     OW11115   9.634   1.606   9.340  0.4670  0.3779  0.0346
 2613SOL    HW111116   9.655   1.538   9.404  0.0777  0.8341  0.6484
 2613SOL    HW211117   9.632   1.559   9.256  1.7993 -0.0681  0.2317
 2614SOL     OW11118   9.380   6.914   1.503 -0.2612 -0.1131  0.2642
 2614SOL    HW111119   9.380   6.818   1.505 -1.5491 -0.2321 -1.8977
 2614SOL    HW211120   9.458   6.937   1.451 -1.2116 -0.1639 -1.2662
 2615SOL     OW11121   5.514   6.845  11.083  0.0775 -0.0444  0.0007
 2615SOL    HW111122   5.439   6.831  11.025 -0.5498  0.1104  0.7677
 2615SOL    HW211123   5.479   6.836  11.171  0.8959  0.3441  0.3766
 2616SOL     OW11124   2.273   3.022   7.398  0.9135 -0.4282  0.0215
 2616SOL    HW111125   2.290   3.078   7.474 -1.2807 -0.7507  0.8392
 2616SOL    HW211126   2.220   3.077   7.339 -0.7670 -1.3855  0.5745
 2617SOL     OW11127   1.535   0.830   3.977  0.2257 -0.0567 -0.1303
 2617SOL    HW111128   1.443   0.857   3.976  0.6228  1.3850 -1.0476
 2617SOL    HW211129   1.539   0.754   3.919 -0.8030 -1.8745  1.9842
 2618SOL     OW11130  11.167  10.478   0.545  0.3579 -0.1424 -0.1415
 2618SOL    HW111131  11.247  10.524   0.571  0.9880 -1.1102 -0.3425
 2618SOL    HW211132  11.099  10.515   0.602  1.1570 -0.0956  0.8071
 2619SOL     OW11133   6.472   8.328   3.837 -0.1746 -0.0300  0.1070
 2619SOL    HW111134   6.534   8.288   3.898  1.0936  0.1241 -1.0342
 2619SOL    HW211135   6.428   8.254   3.796  1.3672 -0.2612 -1.1880
 2620SOL     OW11136  10.534   2.840   7.715  0.4323  0.5076 -0.4307
 2620SOL    HW111137  10.580   2.798   7.641 -0.5471 -0.1727 -0.6781
 2620SOL    HW211138  10.587   2.916   7.736  1.6657 -0.2425 -0.7141
 2621SOL     OW11139   6.206   1.526  11.014 -0.1346 -0.3763 -0.1357
 2621SOL    HW111140   6.168   1.574  11.088  0.5493 -2.0435  1.3622
 2621SOL    HW211141   6.133   1.512  10.955 -1.0627 -0.3646  0.9723
 2622SOL     OW11142   5.010   2.272   1.102  0.2004 -0.1949 -0.0254
 2622SOL    HW111143   4.942   2.223   1.058 -1.5735  0.1437  2.1323
 2622SOL    HW211144   5.078   2.208   1.121 -1.2872 -1.5132  1.1898
 2623SOL     OW11145   5.625   6.183   2.073  0.2869 -0.2025  0.1020
 2623SOL    HW111146   5.644   6.109   2.132 -0.1215 -1.0098 -0.7457
 2623SOL    HW211147   5.697   6.182   2.010  1.1524  1.1544  1.0183
 2624SOL     OW11148   8.843   6.971   6.200  0.2175 -0.2211  0.2180
 2624SOL    HW111149   8.900   6.910   6.247  0.4721 -1.4179 -1.5629
 2624SOL    HW211150   8.898   7.007   6.131 -1.2217 -1.7673 -1.8584
 2625SOL     OW11151   9.186   1.218   6.467 -0.3126 -0.0428  0.1518
 2625SOL    HW111152   9.090   1.215   6.472 -0.4559  1.3827 -0.9972
 2625SOL    HW211153   9.215   1.154   6.531 -2.0447 -1.0357  0.0202
 2626SOL     OW11154   4.017   5.541   3.605  0.5317 -0.4919  0.1744
 2626SOL    HW111155   4.001   5.632   3.583 -2.2755 -0.4098  2.0599
 2626SOL    HW211156   4.019   5.496   3.520  0.8560  1.1427 -0.7247
 2627SOL     OW11157   2.424   4.848   0.227 -0.0218 -0.4759 -0.1440
 2627SOL    HW111158   2.382   4.933   0.211 -0.1095 -0.4187  0.3551
 2627SOL    HW211159   2.518   4.867   0.224 -0.0349 -0.1778  0.8184
 2628SOL     OW11160  11.266   6.579   2.550  0.7559 -0.2638  0.4961
 2628SOL    HW111161  11.301   6.572   2.639  1.9278 -1.1963 -0.0057
 2628SOL    HW211162  11.314   6.652   2.511 -0.3364  0.6681  0.8682
 2629SOL     OW11163   8.521   8.329   2.015  0.0478 -0.1837 -0.4635
 2629SOL    HW111164   8.603   8.304   2.057 -0.7410 -1.4731  0.3784
 2629SOL    HW211165   8.531   8.422   1.995  0.8794  0.2228  1.6269
 2630SOL     OW11166   3.852   4.394   4.102  0.1511  0.2421 -0.3943
 2630SOL    HW111167   3.810   4.347   4.175 -1.1270  2.0218  0.1053
 2630SOL    HW211168   3.921   4.445   4.144  0.5737 -0.0779 -0.7033
 2631SOL     OW11169   0.949   8.888   4.074 -0.2200  0.1329  0.6565
 2631SOL    HW111170   0.930   8.812   4.129  1.3792 -0.9851 -0.2658
 2631SOL    HW211171   1.029   8.865   4.027 -1.3964  1.0712 -2.0477
 2632SOL     OW11172   2.433   7.570   0.200  0.0687 -0.0324 -0.4232
 2632SOL    HW111173   2.481   7.503   0.151  1.3244  1.1238 -0.8467
 2632SOL    HW211174   2.479   7.577   0.283 -0.1728  0.1680 -0.3042
 2633SOL     OW11175   1.465   2.416   0.049  0.2189  0.4469  0.1887
 2633SOL    HW111176   1.412   2.473   0.105 -1.5737 -0.3193 -0.6336
 2633SOL    HW211177   1.438   2.440  -0.040  1.9893  0.6803 -0.3213
 2634SOL     OW11178   8.028   2.029   6.141 -0.4336  0.5216  1.2859
 2634SOL    HW111179   7.940   1.991   6.144  0.1274 -1.5757 -2.3361
 2634SOL    HW211180   8.027   2.086   6.064  1.7293 -1.0021 -0.0170
 2635SOL     OW11181   3.316   3.275   4.540 -0.1823  0.2350  0.2136
 2635SOL    HW111182   3.351   3.240   4.622  3.9354  1.6409 -0.6919
 2635SOL    HW211183   3.274   3.357   4.565  0.3491  0.2672  1.0587
 2636SOL     OW11184   0.554  10.555   4.710  0.2362 -0.5622  0.4651
 2636SOL    HW111185   0.577  10.594   4.795 -0.4334  0.3831  0.2322
 2636SOL    HW211186   0.492  10.617   4.671 -3.1038 -3.0726  1.2464
 2637SOL     OW11187   7.608   5.693  10.459 -0.0060 -0.2486  0.2017
 2637SOL    HW111188   7.673   5.729  10.398 -0.8323  0.2041 -0.4340
 2637SOL    HW211189   7.538   5.661  10.402  0.8222 -3.2663  0.6657
 2638SOL     OW11190   2.956   3.045   6.096 -0.1232  0.0466 -0.0959
 2638SOL    HW111191   3.035   3.052   6.042 -0.5529 -2.7405 -1.2738
 2638SOL    HW211192   2.989   3.026   6.184  0.5408  0.2284 -0.2998
 2639SOL     OW11193   6.410   4.149   9.760 -0.0344 -0.3798 -0.1514
 2639SOL    HW111194   6.425   4.058   9.784 -1.8472 -1.2713 -2.1284
 2639SOL    HW211195   6.495   4.181   9.730  0.5118 -1.5673  0.1089
 2640SOL     OW11196   0.957   2.136   0.844 -0.3173  0.2707  0.1645
 2640SOL    HW111197   0.972   2.218   0.891 -0.1760  0.0941  0.4312
 2640SOL    HW211198   1.036   2.085   0.861  0.6545  0.9730 -1.9066
 2641SOL     OW11199   8.832   6.413   1.364 -0.4101 -0.4958 -0.4573
 2641SOL    HW111200   8.798   6.497   1.396  2.5094  1.2195 -1.5233
 2641SOL    HW211201   8.874   6.373   1.440  1.5420  0.8761 -0.7703
 2642SOL     OW11202   0.177   6.178  10.330  0.0397 -0.8377  0.0880
 2642SOL    HW111203   0.213   6.093  10.354 -0.7646 -0.3028  3.7700
 2642SOL    HW211204   0.088   6.177  10.365  0.1701  1.6558  0.7066
 2643SOL     OW11205   7.621   7.512   6.847 -0.6693 -0.1701  0.2577
 2643SOL    HW111206   7.692   7.448   6.853  0.9437  1.3817 -1.2274
 2643SOL    HW211207   7.600   7.534   6.938  1.1738 -0.2452  0.7376
 2644SOL     OW11208   6.455  10.007   5.868  0.3538 -0.0704  0.6660
 2644SOL    HW111209   6.493   9.989   5.782  0.5437 -1.6648  1.0539
 2644SOL    HW211210   6.441  10.101   5.868  3.4173  0.4939  0.1181
 2645SOL     OW11211  11.287  10.092   6.708  0.2963 -0.0691  0.3908
 2645SOL    HW111212  11.349  10.164   6.711 -0.3403  0.4729  0.7052
 2645SOL    HW211213  11.236  10.101   6.788  0.1402 -0.8077  0.3821
 2646SOL     OW11214   9.980   5.233   8.673 -0.0919 -0.7421 -0.2391
 2646SOL    HW111215   9.945   5.176   8.605 -0.9681  1.2687 -1.5688
 2646SOL    HW211216  10.013   5.310   8.626  1.6672 -0.3949  1.4076
 2647SOL     OW11217   6.052  10.691   9.440  0.8928  0.3560 -0.1704
 2647SOL    HW111218   6.092  10.740   9.512  1.9588  0.1540 -0.6141
 2647SOL    HW211219   5.975  10.650   9.480  0.3792  1.7810  0.3828
 2648SOL     OW11220   6.175   8.015   7.102 -0.2044 -0.2650  0.2058
 2648SOL    HW111221   6.219   8.063   7.032 -1.1100  0.1716 -0.0812
 2648SOL    HW211222   6.139   8.082   7.159 -1.8211 -0.5658 -0.4106
 2649SOL     OW11223   4.010   1.028   2.843 -0.5498  0.1986 -0.3606
 2649SOL    HW111224   4.031   1.072   2.925 -0.3007  0.2226 -0.4365
 2649SOL    HW211225   3.978   1.097   2.786 -0.2089  0.2712 -0.4627
 2650SOL     OW11226   9.400  11.363   7.066  0.1273 -0.3871 -0.2562
 2650SOL    HW111227   9.319  11.342   7.113 -0.1374  0.9103 -0.0932
 2650SOL    HW211228   9.441  11.432   7.119 -0.1547  1.0724 -1.8449
 2651SOL     OW11229   8.947   5.479   2.486  0.1748 -0.1743  0.1000
 2651SOL    HW111230   8.994   5.554   2.522 -0.5655  0.0249  0.6763
 2651SOL    HW211231   8.908   5.512   2.405 -0.3644  0.1475  0.4835
 2652SOL     OW11232  10.296   6.800   8.797 -0.4694 -0.0583 -0.4119
 2652SOL    HW111233  10.290   6.872   8.861 -0.8716 -0.7573  0.3511
 2652SOL    HW211234  10.384   6.810   8.760  0.0820 -0.0984  0.8253
 2653SOL     OW11235  11.191  10.584   1.891 -0.5800 -0.6047  0.3039
 2653SOL    HW111236  11.232  10.641   1.826 -1.5263  0.8970  0.9764
 2653SOL    HW211237  11.159  10.509   1.841  0.1236 -0.2471 -0.7039
 2654SOL     OW11238   8.678  11.228   9.797  0.1024  0.7964  0.3855
 2654SOL    HW111239   8.662  11.240   9.704  1.2695  0.5448  0.1379
 2654SOL    HW211240   8.617  11.288   9.840 -0.9705  0.3625 -0.5041
 2655SOL     OW11241   6.819   0.318   7.149 -0.4394  0.4287  0.1189
 2655SOL    HW111242   6.864   0.250   7.201  0.5706  2.5634  2.2482
 2655SOL    HW211243   6.890   0.361   7.101 -1.0719  0.0316 -1.2054
 2656SOL     OW11244  10.832   2.504   3.848 -0.0793  0.4545 -0.0326
 2656SOL    HW111245  10.782   2.538   3.773 -0.3513 -1.4952 -0.7806
 2656SOL    HW211246  10.781   2.530   3.925 -1.0894  0.3888 -0.6671
 2657SOL     OW11247   7.602   1.918   3.744 -0.6538  0.2452  0.3078
 2657SOL    HW111248   7.517   1.937   3.702 -0.2305  1.5880  0.0128
 2657SOL    HW211249   7.622   1.997   3.793 -0.7005 -0.9656  2.3830
 2658SOL     OW11250   4.275   2.180   5.189  0.3835 -0.2650  0.1596
 2658SOL    HW111251   4.181   2.190   5.202 -0.2334 -1.8109 -2.4408
 2658SOL    HW211252   4.292   2.088   5.212  1.0992 -0.2132 -0.1471
 2659SOL     OW11253  11.362   0.118   6.084 -0.1376  0.2842  0.3946
 2659SOL    HW111254  11.441   0.164   6.053 -1.0589  2.0508  0.5159
 2659SOL    HW211255  11.325   0.078   6.006  1.1714 -1.1009  0.4321
 2660SOL     OW11256   6.578   4.253   7.232  0.4981  0.0667 -0.1821
 2660SOL    HW111257   6.591   4.191   7.304  0.5465  0.9065  0.5515
 2660SOL    HW211258   6.499   4.302   7.257  0.3396  0.1611 -0.8534
 2661SOL     OW11259  10.192   9.116   4.958 -0.2258  0.3403  0.4789
 2661SOL    HW111260  10.143   9.173   5.016  1.2391  1.2913  0.8359
 2661SOL    HW211261  10.126   9.081   4.897 -1.4255  1.0176  1.3511
 2662SOL     OW11262   0.355   4.717   4.130 -0.0369  0.1745  0.9704
 2662SOL    HW111263   0.285   4.781   4.117  0.7852  0.8687 -0.2320
 2662SOL    HW211264   0.432   4.758   4.091  0.4777 -1.6312 -0.0029
 2663SOL     OW11265   3.406   1.470   1.398 -0.6253 -0.3698  0.9437
 2663SOL    HW111266   3.312   1.453   1.404 -0.7457  0.3824  1.2158
 2663SOL    HW211267   3.446   1.399   1.448 -1.0822 -0.2859  1.4300
 2664SOL     OW11268   9.385   6.812   2.730  0.1678 -0.0750  0.1616
 2664SOL    HW111269   9.304   6.786   2.774 -0.0267  1.0094  0.4579
 2664SOL    HW211270   9.358   6.836   2.642 -0.0684  1.5525  0.6404
 2665SOL     OW11271   3.699  10.548   2.804  0.4763  0.5875 -0.2356
 2665SOL    HW111272   3.624  10.593   2.842 -1.2318 -0.5532 -2.0805
 2665SOL    HW211273   3.673  10.456   2.798  1.8521  0.2286 -1.3106
 2666SOL     OW11274   7.757  11.260   5.803  0.5483 -0.3749 -0.4064
 2666SOL    HW111275   7.816  11.184   5.809 -1.4711 -2.0122 -0.1485
 2666SOL    HW211276   7.679  11.233   5.852 -1.3326  0.7932 -2.5839
 2667SOL     OW11277  11.281   3.314   9.805  0.2838 -0.4711 -0.6987
 2667SOL    HW111278  11.214   3.278   9.864  0.4435 -0.7717 -0.7005
 2667SOL    HW211279  11.340   3.362   9.863  1.7473 -2.6616 -0.2793
 2668SOL     OW11280   3.398   0.369   8.184 -0.6761 -0.2835  0.8808
 2668SOL    HW111281   3.356   0.455   8.184 -0.6456 -0.2152 -0.8610
 2668SOL    HW211282   3.422   0.355   8.092  0.1488 -1.7556  1.2894
 2669SOL     OW11283   2.164   3.851   0.323 -0.3577 -0.4259 -0.1029
 2669SOL    HW111284   2.071   3.870   0.310 -0.4275  0.5997  1.5522
 2669SOL    HW211285   2.207   3.936   0.318  0.4310 -0.8322 -0.3794
 2670SOL     OW11286   4.451   1.149   0.018  0.3478  0.0285 -0.0455
 2670SOL    HW111287   4.378   1.209   0.031  1.5079  1.4754  0.0486
 2670SOL    HW211288   4.524   1.206  -0.008  2.0371 -1.0826  2.0162
 2671SOL     OW11289   8.566   3.817   4.148  0.0961  0.1337  0.0739
 2671SOL    HW111290   8.516   3.807   4.067 -1.1214  0.4825  0.7590
 2671SOL    HW211291   8.525   3.891   4.192  1.1880  0.3908  0.7009
 2672SOL     OW11292  10.978  10.849   0.024 -0.0890  0.2765 -0.0656
 2672SOL    HW111293  11.059  10.901   0.023 -0.9474  1.7276  1.3074
 2672SOL    HW211294  10.942  10.860  -0.064  0.3091  1.1242 -0.1363
 2673SOL     OW11295   6.325   4.220   2.358 -0.0530 -0.1242 -0.7685
 2673SOL    HW111296   6.417   4.218   2.332  0.0609 -1.3443 -0.3818
 2673SOL    HW211297   6.326   4.257   2.447  0.0660 -0.1057 -0.7775
 2674SOL     OW11298   0.996   7.678   8.386  0.1181  0.4642 -0.0486
 2674SOL    HW111299   1.064   7.744   8.402  1.1092 -0.8162  1.3277
 2674SOL    HW211300   0.921   7.710   8.436  0.4467  0.7848  0.2554
 2675SOL     OW11301   0.570   5.543   9.611 -0.4860  0.1825 -0.1792
 2675SOL    HW111302   0.523   5.626   9.601 -0.3754  0.1206 -1.4153
 2675SOL    HW211303   0.662   5.567   9.620 -0.5914  0.2431  0.7563
 2676SOL     OW11304   4.010   2.958   1.141 -0.5145 -0.2527 -0.0495
 2676SOL    HW111305   4.095   2.957   1.186  0.2237 -1.8516 -1.3970
 2676SOL    HW211306   4.009   3.041   1.093  0.2946 -0.2419 -0.0530
 2677SOL     OW11307   7.147   5.754   7.406 -0.0221 -0.4081 -0.5433
 2677SOL    HW111308   7.054   5.741   7.426 -0.0975 -0.2698 -0.8073
 2677SOL    HW211309   7.191   5.682   7.452 -0.2146 -0.2199 -0.0531
 2678SOL     OW11310   6.514   9.555   8.827 -0.1214 -0.1784  0.1248
 2678SOL    HW111311   6.573   9.530   8.757  0.6425 -1.1411  1.0877
 2678SOL    HW211312   6.432   9.509   8.807 -0.0870 -0.0193 -0.4035
 2679SOL     OW11313   1.512   1.812   7.453 -0.4512  0.0344 -0.0974
 2679SOL    HW111314   1.480   1.874   7.388  0.0832  0.2382 -0.1669
 2679SOL    HW211315   1.437   1.798   7.511 -0.8071  0.1587 -0.5183
 2680SOL     OW11316   4.524   8.412   2.012 -0.4729  0.3857 -0.4500
 2680SOL    HW111317   4.606   8.366   1.994  0.5187  1.2159  1.5350
 2680SOL    HW211318   4.517   8.477   1.942  0.7639  0.5008 -0.4918
 2681SOL     OW11319   8.396   8.847   5.941 -0.3737  0.4098 -0.3004
 2681SOL    HW111320   8.365   8.937   5.932  0.1076  0.4294 -2.3495
 2681SOL    HW211321   8.318   8.794   5.925 -0.6611  0.4345  0.9260
 2682SOL     OW11322   9.180   4.725   6.187 -0.7072  0.0774  0.1260
 2682SOL    HW111323   9.088   4.733   6.163 -0.6247  0.5782 -0.0302
 2682SOL    HW211324   9.223   4.692   6.107 -0.6961  0.1776  0.0900
 2683SOL     OW11325   6.377   0.431   6.347 -0.0484 -0.1202 -0.2414
 2683SOL    HW111326   6.294   0.475   6.364 -0.3727 -0.5704 -0.6248
 2683SOL    HW211327   6.415   0.417   6.434 -0.8158 -0.7475  0.0020
 2684SOL     OW11328   0.352   2.529  10.906 -0.7952 -0.3421 -0.1405
 2684SOL    HW111329   0.332   2.607  10.957 -0.2188  0.4450 -1.0887
 2684SOL    HW211330   0.446   2.515  10.917 -0.4388  0.4773 -1.7974
 2685SOL     OW11331   3.003   5.237  10.766 -0.6937  0.4325 -0.1207
 2685SOL    HW111332   3.040   5.180  10.699  1.3072 -0.4000  1.5898
 2685SOL    HW211333   3.036   5.202  10.849 -3.5216  1.0856  1.3942
 2686SOL     OW11334   0.398  11.059   9.534  0.3199  0.1057 -0.2175
 2686SOL    HW111335   0.454  11.027   9.605  0.2664  0.5539  0.0294
 2686SOL    HW211336   0.375  11.148   9.560  0.9508  0.5705 -1.1806
 2687SOL     OW11337  10.561   5.432   5.222 -0.0739 -0.1042  0.4506
 2687SOL    HW111338  10.554   5.370   5.294  0.7596  0.0018  0.6351
 2687SOL    HW211339  10.606   5.384   5.152 -1.5667 -0.4541 -0.3086
 2688SOL     OW11340   7.212   4.931   8.261 -0.4265  0.0403  0.7413
 2688SOL    HW111341   7.189   5.018   8.228 -3.8345 -1.1011 -0.3606
 2688SOL    HW211342   7.261   4.890   8.190  1.1647  0.9723  1.2537
 2689SOL     OW11343   3.244   7.877  10.418 -0.0479 -0.4759  0.1719
 2689SOL    HW111344   3.254   7.970  10.398  1.9532 -0.2231  2.0133
 2689SOL    HW211345   3.329   7.839  10.396  0.6020 -1.0428  3.1702
 2690SOL     OW11346   3.098   9.414   1.863 -0.2986  0.0095 -0.0614
 2690SOL    HW111347   3.050   9.331   1.857 -0.3111  0.0908 -1.5493
 2690SOL    HW211348   3.179   9.398   1.815  0.3846  0.4204  0.9297
 2691SOL     OW11349   9.701   8.986   2.499  0.0634  0.0616  0.5356
 2691SOL    HW111350   9.691   9.076   2.529  2.0687  0.1710  1.0105
 2691SOL    HW211351   9.680   8.933   2.577  1.0076  0.2110  0.9070
 2692SOL     OW11352   3.574   5.619   4.058  0.8020  0.0464 -0.1506
 2692SOL    HW111353   3.628   5.559   4.006  0.7516 -0.5267  0.4588
 2692SOL    HW211354   3.625   5.635   4.137 -0.4247 -1.4493  0.9885
 2693SOL     OW11355   0.873   4.788   5.216 -0.2977  0.3841 -0.3260
 2693SOL    HW111356   0.949   4.796   5.274 -1.6673  0.2583  1.5386
 2693SOL    HW211357   0.847   4.879   5.198 -1.3125  0.4409  1.2626
 2694SOL     OW11358   5.576   1.214   2.226 -0.2437 -0.4156 -0.0322
 2694SOL    HW111359   5.592   1.302   2.192  1.5526 -0.6380  0.1468
 2694SOL    HW211360   5.489   1.190   2.192 -0.6957  1.3399 -0.2163
 2695SOL     OW11361   6.310   0.861   9.532 -0.3448 -0.3919  0.3739
 2695SOL    HW111362   6.253   0.784   9.521 -0.0697 -0.4859 -0.4929
 2695SOL    HW211363   6.348   0.875   9.445  0.5765 -0.0333  0.8133
 2696SOL     OW11364   6.581   3.363   9.576  0.3837  0.3796  0.1334
 2696SOL    HW111365   6.588   3.305   9.500 -1.7779  0.9184 -0.5583
 2696SOL    HW211366   6.536   3.440   9.542  0.7097  1.2797  1.6640
 2697SOL     OW11367   9.237   0.136   9.345  0.4178  0.8558 -0.3426
 2697SOL    HW111368   9.270   0.183   9.268  0.3475  1.1405 -0.1985
 2697SOL    HW211369   9.174   0.195   9.384 -3.6001 -1.2427 -2.9928
 2698SOL     OW11370   0.780   8.443   9.281  0.1668  0.4417 -0.0388
 2698SOL    HW111371   0.692   8.421   9.310  1.0552 -2.1465  1.0839
 2698SOL    HW211372   0.824   8.475   9.359  0.1853  1.9473 -0.6452
 2699SOL     OW11373   6.714   4.765   5.791  0.1468  0.0239  0.0505
 2699SOL    HW111374   6.758   4.681   5.776  0.6193  0.0624  1.0749
 2699SOL    HW211375   6.621   4.743   5.795  0.2299 -0.3816 -0.1332
 2700SOL     OW11376   4.891   8.945   3.661  0.7850  0.0780  0.5956
 2700SOL    HW111377   4.963   8.920   3.718  0.4696  0.3487  1.1165
 2700SOL    HW211378   4.812   8.915   3.706  0.5869 -0.5675 -0.1569
 2701SOL     OW11379  11.276   1.118   9.884 -0.4385  0.1263  0.1786
 2701SOL    HW111380  11.311   1.129   9.972 -0.5795 -0.5594  0.3295
 2701SOL    HW211381  11.335   1.168   9.828  0.3360 -0.3930  0.5148
 2702SOL     OW11382  10.360   5.604   8.554 -0.0906 -0.4538 -0.3014
 2702SOL    HW111383  10.429   5.669   8.566 -2.2256  1.8959  0.0304
 2702SOL    HW211384  10.404   5.520   8.568  2.1600  1.0288  2.6964
 2703SOL     OW11385   4.042   6.190   5.400 -0.3343  0.6356 -0.2240
 2703SOL    HW111386   4.113   6.126   5.393 -0.2523  0.6157  0.6859
 2703SOL    HW211387   4.086   6.274   5.417 -0.5027  0.6742  0.0386
 2704SOL     OW11388   2.758   8.705   6.985  0.0594  0.1188 -0.4319
 2704SOL    HW111389   2.759   8.648   7.062  1.7021 -1.2468 -1.4072
 2704SOL    HW211390   2.730   8.648   6.913 -0.9529  1.2522 -0.9820
 2705SOL     OW11391   3.459   6.271   7.373  0.4309  0.0270  0.4671
 2705SOL    HW111392   3.515   6.347   7.392 -0.0254  0.2386  0.9869
 2705SOL    HW211393   3.443   6.231   7.459 -3.1678  2.0315  0.8908
 2706SOL     OW11394   9.325   0.688   6.245  0.4133  0.2348 -0.1023
 2706SOL    HW111395   9.348   0.781   6.252 -3.3196  1.3379 -0.0718
 2706SOL    HW211396   9.309   0.661   6.336  2.0795 -0.6665 -0.0538
 2707SOL     OW11397   3.140   0.587   7.840  0.2289 -0.1382  0.1785
 2707SOL    HW111398   3.072   0.535   7.797  0.0761 -0.1827  0.4733
 2707SOL    HW211399   3.221   0.537   7.826  0.2895  0.1606 -0.6041
 2708SOL     OW11400   7.154   1.037  10.663 -0.6587  0.0121 -0.1048
 2708SOL    HW111401   7.098   1.114  10.651 -0.9605 -0.0829  0.6206
 2708SOL    HW211402   7.239   1.073  10.688 -0.8020  0.1124  0.2430
 2709SOL     OW11403   7.011   1.522   7.533 -0.1283 -0.4898  0.6634
 2709SOL    HW111404   7.097   1.481   7.532 -0.2295 -0.7327 -1.2797
 2709SOL    HW211405   6.949   1.449   7.527 -0.3376 -0.2116 -1.4158
 2710SOL     OW11406   3.625   2.090   4.838  0.1262 -0.5261  0.2545
 2710SOL    HW111407   3.534   2.100   4.864  0.6389  1.8741  1.4799
 2710SOL    HW211408   3.621   2.056   4.749 -2.0562  1.6452 -0.5845
 2711SOL     OW11409   7.075   5.873   1.015 -0.1204  0.3328 -0.2555
 2711SOL    HW111410   7.085   5.779   1.030  0.8177  0.4381 -0.1369
 2711SOL    HW211411   7.139   5.893   0.947  0.9279  1.1724  0.9317
 2712SOL     OW11412   4.680   5.596   3.673  0.2017 -0.2147 -0.1818
 2712SOL    HW111413   4.650   5.509   3.645  1.3329 -0.3325 -1.1101
 2712SOL    HW211414   4.756   5.578   3.729  0.0920  0.1623  0.0885
 2713SOL     OW11415   0.588   0.722   7.634 -0.3101 -0.1688 -0.4569
 2713SOL    HW111416   0.656   0.702   7.571  1.1356  0.8083  0.7384
 2713SOL    HW211417   0.508   0.729   7.582  0.3756 -1.8065 -1.8189
 2714SOL     OW11418   5.879   2.402   1.049  0.3329 -0.0565  0.9141
 2714SOL    HW111419   5.965   2.397   1.009  0.3573  0.4418  0.9040
 2714SOL    HW211420   5.893   2.446   1.133  0.0178  0.4698  0.6971
 2715SOL     OW11421   7.628   9.508  10.621  0.3666  0.2338 -0.0965
 2715SOL    HW111422   7.646   9.602  10.622 -0.6453  0.4534 -0.6116
 2715SOL    HW211423   7.674   9.475  10.544  0.2657  0.4193 -0.2377
 2716SOL     OW11424   1.387  10.387   5.414  0.2301  0.3340 -0.1573
 2716SOL    HW111425   1.414  10.394   5.322  0.3449 -0.1694 -0.1642
 2716SOL    HW211426   1.362  10.476   5.439 -0.7684  0.3007 -0.9776
 2717SOL     OW11427  10.102   4.058   9.199 -0.2964 -0.1466 -0.1875
 2717SOL    HW111428  10.021   4.109   9.210 -0.2004 -0.0918  0.3039
 2717SOL    HW211429  10.083   3.974   9.242  0.4708  0.4736  1.4509
 2718SOL     OW11430  11.348   5.585   7.302 -0.6492  0.0235  0.1183
 2718SOL    HW111431  11.305   5.653   7.250 -0.5118  0.5271  0.6656
 2718SOL    HW211432  11.289   5.569   7.375  0.5733  1.5055  1.4873
 2719SOL     OW11433   4.872   0.199   3.654 -0.0841 -0.4239  0.4836
 2719SOL    HW111434   4.847   0.224   3.565  1.4025 -0.8022 -0.0754
 2719SOL    HW211435   4.888   0.105   3.649 -0.8665 -0.6180  1.3843
 2720SOL     OW11436   0.620   0.121   1.271  0.5991 -0.1547 -0.3320
 2720SOL    HW111437   0.634   0.186   1.339  2.7562 -1.5662  0.6547
 2720SOL    HW211438   0.558   0.059   1.310  1.1523 -0.4932  0.0073
 2721SOL     OW11439   3.350   7.071   0.077  0.5036 -0.1910  0.0459
 2721SOL    HW111440   3.344   6.977   0.091 -1.4931 -0.0916  0.1976
 2721SOL    HW211441   3.335   7.082  -0.017 -1.9382  0.0779  0.3988
 2722SOL     OW11442   2.870   1.368  11.259 -0.0326  0.0346  0.7482
 2722SOL    HW111443   2.943   1.329  11.308 -0.1537  0.1877  1.0540
 2722SOL    HW211444   2.794   1.354  11.315 -0.4947 -1.3109 -0.1468
 2723SOL     OW11445   1.346   1.049   2.450  0.2366  0.6544 -0.5707
 2723SOL    HW111446   1.434   1.053   2.410 -0.0276 -1.6303 -1.5393
 2723SOL    HW211447   1.292   1.008   2.383 -1.0547 -0.0514  0.8538
 2724SOL     OW11448   6.541   3.899   0.910  0.0324 -0.0958 -0.1722
 2724SOL    HW111449   6.604   3.846   0.959 -0.2205 -1.6588 -1.4750
 2724SOL    HW211450   6.498   3.952   0.977  0.0987 -1.7371  1.2512
 2725SOL     OW11451   8.553  11.216   7.734  0.2041  0.6459  0.6325
 2725SOL    HW111452   8.538  11.123   7.718  2.1580 -0.1213  2.7362
 2725SOL    HW211453   8.470  11.258   7.711 -0.9780 -1.6966  0.3568
 2726SOL     OW11454   0.227   5.784   7.454  0.5858  0.6628 -0.2925
 2726SOL    HW111455   0.153   5.790   7.514 -0.3988 -0.3916 -1.3496
 2726SOL    HW211456   0.220   5.696   7.416  1.1688  1.2924 -1.9568
 2727SOL     OW11457   5.959   5.631   6.907  0.1178 -0.3380 -0.1297
 2727SOL    HW111458   5.884   5.572   6.910  1.1297 -1.6419  0.1679
 2727SOL    HW211459   5.924   5.716   6.935 -0.6002 -1.5895  3.1237
 2728SOL     OW11460   6.654   5.518   4.225 -0.4694 -0.6637  0.1503
 2728SOL    HW111461   6.735   5.522   4.276 -1.5142 -0.9414  1.8911
 2728SOL    HW211462   6.604   5.447   4.265 -2.4536  0.8162  0.4331
 2729SOL     OW11463  10.111   9.381   9.845  0.2897 -0.1653 -0.0037
 2729SOL    HW111464  10.124   9.371   9.751  0.8755 -0.8068  0.1313
 2729SOL    HW211465  10.198   9.404   9.879  0.2176 -0.5398  0.4458
 2730SOL     OW11466   2.051  10.993   4.995  0.0630 -0.0131  0.1782
 2730SOL    HW111467   2.001  10.969   5.073  0.1132  0.9906  0.5264
 2730SOL    HW211468   2.140  10.964   5.015 -0.4068 -2.1481 -0.5974
 2731SOL     OW11469   0.206  11.132   4.957  0.5377  0.0357  0.1621
 2731SOL    HW111470   0.159  11.165   5.034  1.4508  0.4680  0.5440
 2731SOL    HW211471   0.248  11.210   4.920 -0.1124 -0.1199 -0.9414
 2732SOL     OW11472  10.778   2.166   7.324 -0.1408 -0.6646  0.2109
 2732SOL    HW111473  10.791   2.148   7.417 -0.0232 -2.8436 -0.1742
 2732SOL    HW211474  10.846   2.115   7.280 -1.4336 -1.2453 -1.1641
 2733SOL     OW11475  11.124   9.428   1.293  0.5968 -0.0301  0.3102
 2733SOL    HW111476  11.157   9.417   1.383  0.4659 -0.5511  0.2985
 2733SOL    HW211477  11.171   9.504   1.260 -0.1883  0.8757  1.2106
 2734SOL     OW11478   8.786   8.822  10.823  0.0998 -0.2634  0.0061
 2734SOL    HW111479   8.861   8.842  10.880 -0.5705 -0.5092  0.9978
 2734SOL    HW211480   8.823   8.820  10.735  1.2602 -0.3907  0.4789
 2735SOL     OW11481   3.165   3.859  10.257 -0.2160  0.7772 -0.2233
 2735SOL    HW111482   3.077   3.869  10.220 -0.8103  1.0436  1.2171
 2735SOL    HW211483   3.154   3.798  10.329  1.1233 -0.5225 -1.0761
 2736SOL     OW11484   7.558  10.414   8.213  0.0803  0.0524  0.4711
 2736SOL    HW111485   7.558  10.378   8.125 -1.8672 -1.2156  0.9084
 2736SOL    HW211486   7.620  10.361   8.262  0.8994  0.5305 -0.0372
 2737SOL     OW11487   1.963   8.796   5.427  0.1316 -0.5316  0.0971
 2737SOL    HW111488   2.042   8.749   5.398  0.3361 -1.2837  1.7500
 2737SOL    HW211489   1.925   8.739   5.493 -1.1478  0.4042  0.1982
 2738SOL     OW11490   4.142   7.245   7.334 -0.3460 -0.6994  0.4681
 2738SOL    HW111491   4.119   7.306   7.264  2.8906  1.5505  1.0770
 2738SOL    HW211492   4.225   7.206   7.305 -0.7374 -2.4156  1.5311
 2739SOL     OW11493   5.683   1.245   9.763  0.8164 -0.3756 -0.9169
 2739SOL    HW111494   5.613   1.203   9.713 -0.1866 -0.6226  0.5928
 2739SOL    HW211495   5.681   1.336   9.734 -1.5139  0.0996  0.4145
 2740SOL     OW11496   0.774  10.880   6.280 -0.3504  0.1951  0.0654
 2740SOL    HW111497   0.776  10.792   6.242 -3.6328  0.3861 -0.8502
 2740SOL    HW211498   0.825  10.933   6.218 -0.7473 -0.5657 -0.9411
 2741SOL     OW11499   0.556   9.971   3.237  0.4880 -0.2481 -0.3966
 2741SOL    HW111500   0.578  10.060   3.263  0.7707 -0.7094  1.0469
 2741SOL    HW211501   0.596   9.960   3.151  0.0413  1.1535 -0.8138
 2742SOL     OW11502   5.293   2.595   8.445  0.1104 -0.6467 -0.3236
 2742SOL    HW111503   5.316   2.663   8.508  0.1647 -0.2985 -0.7104
 2742SOL    HW211504   5.276   2.643   8.364 -0.1252 -1.0723 -0.5288
 2743SOL     OW11505   1.381   9.917  11.242 -0.3809  0.1123 -0.3516
 2743SOL    HW111506   1.442   9.893  11.312 -0.8186  0.3736  0.1267
 2743SOL    HW211507   1.298   9.877  11.267 -0.7280  0.8213 -0.3308
 2744SOL     OW11508  10.535   4.883   9.428 -0.0583  0.7336  0.1816
 2744SOL    HW111509  10.506   4.816   9.366  0.4474  0.3782  0.3213
 2744SOL    HW211510  10.571   4.953   9.374  0.1774  0.5226  0.0612
 2745SOL     OW11511   8.363   5.315   8.780  0.1912  0.2430  0.0110
 2745SOL    HW111512   8.452   5.282   8.795 -0.4113 -0.3856  2.6768
 2745SOL    HW211513   8.363   5.401   8.822 -0.5892 -0.0052  0.5405
 2746SOL     OW11514   7.885   0.663   7.940 -0.2932 -0.0709  0.0678
 2746SOL    HW111515   7.896   0.741   7.995  0.1916  1.8098 -2.5511
 2746SOL    HW211516   7.974   0.635   7.919 -0.4764 -0.5652 -0.0737
 2747SOL     OW11517   6.568   8.765   2.239 -0.0810  0.6038  0.1738
 2747SOL    HW111518   6.636   8.707   2.205  1.6647  1.4271  2.1224
 2747SOL    HW211519   6.552   8.734   2.328 -2.3398  0.4078 -0.2369
 2748SOL     OW11520   7.239   1.759   4.289 -0.1754 -0.3930 -0.0636
 2748SOL    HW111521   7.146   1.766   4.310 -0.1103 -0.3595  0.2220
 2748SOL    HW211522   7.273   1.696   4.352  0.1529  0.1982  0.3701
 2749SOL     OW11523   7.846   7.034   0.141 -0.4461 -0.3650 -0.5619
 2749SOL    HW111524   7.804   7.014   0.224  2.7263 -0.9252  1.0271
 2749SOL    HW211525   7.828   7.127   0.127 -2.8220 -0.7410 -0.4376
 2750SOL     OW11526   7.844  10.767   7.491  0.0201 -0.1457 -0.1664
 2750SOL    HW111527   7.820  10.678   7.467 -1.0183 -0.1729  0.8833
 2750SOL    HW211528   7.795  10.822   7.430 -0.1494 -0.2775 -0.1506
 2751SOL     OW11529   7.176   3.517   8.850 -0.1645  0.4153  0.0275
 2751SOL    HW111530   7.109   3.491   8.913  0.0041 -1.9064 -0.6556
 2751SOL    HW211531   7.128   3.530   8.768 -0.0130  0.6426 -0.0254
 2752SOL     OW11532   1.247   4.612   3.123 -0.0937  0.6047  0.3623
 2752SOL    HW111533   1.267   4.524   3.155 -0.5817  0.0957 -0.6821
 2752SOL    HW211534   1.303   4.622   3.045 -0.9017  0.7474 -0.2080
 2753SOL     OW11535   7.332   5.023  10.560  0.4703  0.2575  0.2631
 2753SOL    HW111536   7.427   5.028  10.546  0.3787  1.1225 -0.1678
 2753SOL    HW211537   7.295   5.070  10.485 -0.3191 -0.3568  0.2527
 2754SOL     OW11538   2.207   1.460  11.289  0.3852  0.0361  1.2656
 2754SOL    HW111539   2.114   1.473  11.308 -0.0892 -0.3888 -0.5597
 2754SOL    HW211540   2.240   1.412  11.364 -1.2761 -1.3259  1.1920
 2755SOL     OW11541   9.670   3.740   0.410 -0.1596  0.0581 -0.1113
 2755SOL    HW111542   9.636   3.766   0.496 -0.8547  1.0450 -0.6664
 2755SOL    HW211543   9.656   3.646   0.406 -0.7208  0.1033  0.6010
 2756SOL     OW11544  10.286   3.689  10.605 -0.6123 -0.2381 -0.4651
 2756SOL    HW111545  10.338   3.667  10.682  0.7354 -0.3611 -1.3736
 2756SOL    HW211546  10.351   3.701  10.535 -1.8870 -2.0559 -2.0627
 2757SOL     OW11547  11.265   4.868  10.323 -0.1276  0.1555  0.5295
 2757SOL    HW111548  11.304   4.791  10.365  2.4657  1.2052  0.2226
 2757SOL    HW211549  11.337   4.931  10.318 -1.0859  1.1512 -2.8410
 2758SOL     OW11550   0.129  10.711   0.948  0.2747 -0.0785 -0.1915
 2758SOL    HW111551   0.151  10.622   0.922  0.8611  0.0872 -0.2702
 2758SOL    HW211552   0.150  10.765   0.872 -1.3798 -0.0250 -0.6579
 2759SOL     OW11553   0.918   5.369   5.067 -0.0989 -0.0006 -0.0510
 2759SOL    HW111554   0.851   5.305   5.044  1.2715 -1.5733  0.1280
 2759SOL    HW211555   0.933   5.419   4.987 -1.2196  0.1395 -0.1848
 2760SOL     OW11556   7.019   5.763   6.872  0.3086 -0.0963  1.1342
 2760SOL    HW111557   6.963   5.695   6.833  0.8872  1.2788 -2.5036
 2760SOL    HW211558   6.966   5.843   6.867  0.5879  0.2478  2.9579
 2761SOL     OW11559   9.303   4.297   2.626  0.2934 -0.2485  0.0648
 2761SOL    HW111560   9.269   4.383   2.600 -1.3732 -1.1641 -0.9881
 2761SOL    HW211561   9.316   4.304   2.721 -2.7024  0.3138  0.5452
 2762SOL     OW11562   2.766   3.532   8.459 -0.2255  0.2795  0.0214
 2762SOL    HW111563   2.671   3.539   8.463 -0.1598  1.2326  0.2191
 2762SOL    HW211564   2.794   3.536   8.551 -0.0392 -0.8142  0.0196
 2763SOL     OW11565   7.634   1.681  10.504  0.0766 -0.1954 -0.1343
 2763SOL    HW111566   7.580   1.750  10.543  0.3399 -0.3276  0.4723
 2763SOL    HW211567   7.602   1.601  10.544  1.2697 -0.1996  0.8746
 2764SOL     OW11568   8.041   6.853   0.619 -0.1822  0.2227 -0.0553
 2764SOL    HW111569   8.049   6.937   0.573 -0.0555 -0.6784 -1.7970
 2764SOL    HW211570   7.955   6.820   0.593 -0.7226  0.2988  1.5352
 2765SOL     OW11571   0.575  10.968   4.765 -0.0816 -0.6024 -0.1693
 2765SOL    HW111572   0.669  10.981   4.760 -0.0958  0.0716  0.8684
 2765SOL    HW211573   0.538  11.045   4.721 -0.1457 -0.7473 -0.3682
 2766SOL     OW11574   5.656   5.952   3.133 -0.0176 -0.1033 -0.2907
 2766SOL    HW111575   5.721   5.883   3.144  0.1318  0.3430  2.0881
 2766SOL    HW211576   5.703   6.022   3.086  0.7032 -0.4475 -0.0865
 2767SOL     OW11577   1.811  10.982   8.277  0.4484  0.1222  1.1072
 2767SOL    HW111578   1.861  10.995   8.358  1.0191  1.6743  0.5238
 2767SOL    HW211579   1.721  11.005   8.301  0.7574  1.3973  1.1174
 2768SOL     OW11580   3.229   5.657   4.716  0.0809  0.2090 -0.0007
 2768SOL    HW111581   3.223   5.561   4.711  0.9414  0.1696 -0.3075
 2768SOL    HW211582   3.279   5.683   4.639 -0.0944  0.9064  0.1133
 2769SOL     OW11583  11.164   3.317   9.099  0.6652 -0.1039 -0.2200
 2769SOL    HW111584  11.250   3.276   9.093  0.7494  0.0496 -0.0837
 2769SOL    HW211585  11.102   3.245   9.091  0.7974 -0.1513 -0.8636
 2770SOL     OW11586   5.216   1.994   7.454 -0.5633  0.5642  0.4855
 2770SOL    HW111587   5.134   1.944   7.455  0.9692 -2.2012  0.2951
 2770SOL    HW211588   5.247   1.992   7.545 -0.5724  1.3469  0.5077
 2771SOL     OW11589   5.290   7.109   1.481 -0.4669  0.2626  0.0268
 2771SOL    HW111590   5.259   7.136   1.395 -1.3081 -1.5857 -0.2798
 2771SOL    HW211591   5.227   7.044   1.511 -0.1878  0.8515  2.0551
 2772SOL     OW11592   9.606   2.692   9.608 -0.0983 -0.3237  0.3022
 2772SOL    HW111593   9.561   2.776   9.605  0.1628 -0.1784  0.3882
 2772SOL    HW211594   9.562   2.638   9.543 -1.2077 -0.5929  1.2457
 2773SOL     OW11595   6.940   6.390   7.202 -0.3167  0.0701 -0.0860
 2773SOL    HW111596   6.864   6.431   7.160  0.0228 -0.7152 -1.5274
 2773SOL    HW211597   7.013   6.450   7.183  0.2153 -1.1735 -2.3462
 2774SOL     OW11598   7.495   7.208   5.031  0.7073 -0.7064  0.8663
 2774SOL    HW111599   7.536   7.256   4.958 -0.3008 -0.3501  0.5238
 2774SOL    HW211600   7.560   7.143   5.056  1.0926 -0.7931 -0.3106
 2775SOL     OW11601   1.114   3.345   3.033 -0.5103  0.5079 -0.0807
 2775SOL    HW111602   1.194   3.297   3.054 -0.5549  0.5247  0.1242
 2775SOL    HW211603   1.055   3.327   3.106 -0.9697 -0.1322 -0.5919
 2776SOL     OW11604   5.208   7.759   1.268 -0.4756  0.2371 -0.0838
 2776SOL    HW111605   5.171   7.837   1.226 -0.5679  0.4551  0.4002
 2776SOL    HW211606   5.273   7.727   1.206 -0.9565  0.2718 -0.6158
 2777SOL     OW11607   2.253   7.869  11.375  0.5802  0.1773 -0.5218
 2777SOL    HW111608   2.348   7.879  11.369  0.7605 -1.8091 -2.2277
 2777SOL    HW211609   2.227   7.836  11.289 -1.3851 -1.1497  0.5141
 2778SOL     OW11610   6.292   0.503   4.252  0.1498 -0.6421 -0.3921
 2778SOL    HW111611   6.363   0.555   4.291 -1.0930 -1.0150  2.6633
 2778SOL    HW211612   6.322   0.412   4.261  0.2490 -0.6957 -1.2264
 2779SOL     OW11613  10.838   1.209   7.381 -0.0005  0.0955  0.7563
 2779SOL    HW111614  10.841   1.117   7.407 -0.9698 -0.3824 -0.6831
 2779SOL    HW211615  10.748   1.222   7.349  0.5315  1.1601 -0.3819
 2780SOL     OW11616   4.019   2.592  10.252 -0.2224 -0.4642  0.3489
 2780SOL    HW111617   3.941   2.595  10.308 -1.4888 -0.4776 -1.3509
 2780SOL    HW211618   4.085   2.549  10.307 -1.7736 -1.6217  1.4288
 2781SOL     OW11619   9.369   3.706   9.986 -0.4495 -0.2234  0.1713
 2781SOL    HW111620   9.314   3.783   9.973 -0.7404 -0.4502  0.0471
 2781SOL    HW211621   9.336   3.641   9.924 -0.4079 -0.5527  0.4887
 2782SOL     OW11622   8.564   9.156   5.279 -0.5723  0.5794  0.0561
 2782SOL    HW111623   8.657   9.135   5.270 -0.6136  0.6707 -0.6371
 2782SOL    HW211624   8.519   9.072   5.270 -0.5868  0.6125 -0.2012
 2783SOL     OW11625   8.361   0.073   7.467  0.4617 -0.2283 -0.5054
 2783SOL    HW111626   8.301   0.025   7.410 -0.4715  0.5816 -0.2291
 2783SOL    HW211627   8.397   0.142   7.412  0.0096  0.1902 -0.2835
 2784SOL     OW11628   3.554   0.496   6.112  0.2864 -0.4470  0.6134
 2784SOL    HW111629   3.527   0.470   6.201  0.0943 -0.5428  0.5277
 2784SOL    HW211630   3.474   0.487   6.060  0.4580 -0.6294  0.3804
 2785SOL     OW11631   2.160   4.468   2.294  0.0487  0.1941 -0.4730
 2785SOL    HW111632   2.224   4.538   2.307  0.3447 -0.4085  1.6014
 2785SOL    HW211633   2.210   4.396   2.257  0.1790  0.3315 -0.5674
 2786SOL     OW11634   6.063   4.883   8.122 -0.0102 -0.1268 -0.5585
 2786SOL    HW111635   6.070   4.886   8.218 -1.2267 -1.3297 -0.3953
 2786SOL    HW211636   6.021   4.799   8.104 -2.2297  1.1803 -1.9781
 2787SOL     OW11637  10.570   3.519  10.907 -0.2159  0.5651 -0.2824
 2787SOL    HW111638  10.497   3.460  10.926  0.1058 -0.0354 -0.8832
 2787SOL    HW211639  10.638   3.462  10.871  0.3312  1.2092 -0.2803
 2788SOL     OW11640   3.571  11.205   9.773  0.0590  0.2805 -0.0964
 2788SOL    HW111641   3.585  11.112   9.790 -0.3364  0.3705  0.7291
 2788SOL    HW211642   3.477  11.217   9.779  0.2323  1.0758  1.6613
 2789SOL     OW11643   8.762   8.250   1.785  0.3590 -0.5554 -0.2826
 2789SOL    HW111644   8.821   8.319   1.758 -1.0621  0.5507 -0.6683
 2789SOL    HW211645   8.746   8.199   1.705  0.2970 -0.4671 -0.3270
 2790SOL     OW11646   4.993   2.951   0.666 -0.5825  0.2754 -0.4435
 2790SOL    HW111647   4.933   2.969   0.594 -1.1710 -0.4045 -0.1328
 2790SOL    HW211648   4.940   2.905   0.731  0.5763 -1.5840 -0.7331
 2791SOL     OW11649  10.848   8.886   3.632 -0.2970 -0.0201  0.6745
 2791SOL    HW111650  10.780   8.953   3.640  0.6467  0.9019  1.3486
 2791SOL    HW211651  10.866   8.860   3.722 -0.8123 -1.3667  0.4019
 2792SOL     OW11652   6.982   0.794   8.352  0.3266 -0.0241  0.2326
 2792SOL    HW111653   6.992   0.701   8.375  1.8742 -0.0880 -0.6028
 2792SOL    HW211654   6.950   0.835   8.432  4.0059 -0.4985  2.1383
 2793SOL     OW11655   5.821   1.261   2.378 -0.1856 -0.6625 -0.1827
 2793SOL    HW111656   5.767   1.340   2.381 -0.2456 -0.6891 -0.4528
 2793SOL    HW211657   5.810   1.221   2.464  1.3501  0.6025  0.6514
 2794SOL     OW11658  10.897   8.466   7.945 -0.3264  0.1957  0.2533
 2794SOL    HW111659  10.864   8.479   7.856 -1.9626 -1.1869  0.5952
 2794SOL    HW211660  10.947   8.385   7.941 -0.8496 -0.1609  0.6671
 2795SOL     OW11661   7.547   8.344   9.354  0.2153  0.3602  0.2097
 2795SOL    HW111662   7.472   8.347   9.413  2.2309 -0.8773  3.0505
 2795SOL    HW211663   7.620   8.382   9.405  1.4611  2.2423 -2.6728
 2796SOL     OW11664   6.791   0.699   9.665  0.1147 -0.2901 -0.2158
 2796SOL    HW111665   6.884   0.715   9.650 -0.0963  0.0510 -1.2010
 2796SOL    HW211666   6.780   0.606   9.643 -0.0933  0.0806 -1.8194
 2797SOL     OW11667   5.339  11.076   1.311  0.2582  0.8099 -0.0232
 2797SOL    HW111668   5.343  11.084   1.406 -1.0022  0.6484  0.0584
 2797SOL    HW211669   5.334  10.982   1.294  1.9632  0.7434 -0.3430
 2798SOL     OW11670   9.309  11.115  10.915 -0.0199  0.3303  0.3785
 2798SOL    HW111671   9.288  11.192  10.863  1.1672  0.2660 -0.2081
 2798SOL    HW211672   9.390  11.081  10.878 -0.2006 -0.8671  1.0051
 2799SOL     OW11673   6.793   3.019   5.705  0.0274  0.0105 -0.2852
 2799SOL    HW111674   6.819   3.026   5.797 -1.2457  1.8238 -0.0083
 2799SOL    HW211675   6.754   3.104   5.685 -4.2099 -1.8415 -1.0344
 2800SOL     OW11676   9.151   3.901  10.038  0.3849 -0.1994  0.2919
 2800SOL    HW111677   9.120   3.958  10.108 -0.6035 -2.4195  1.7814
 2800SOL    HW211678   9.133   3.950   9.958  0.2120  1.8178  1.4889
 2801SOL     OW11679   7.872   6.723  10.768  0.1492 -0.0470 -0.1489
 2801SOL    HW111680   7.853   6.807  10.810 -0.0165  0.4631 -1.1964
 2801SOL    HW211681   7.885   6.662  10.840 -3.0927  0.0950  0.7163
 2802SOL     OW11682   4.775   9.587   6.669  0.5994 -0.3238 -0.6136
 2802SOL    HW111683   4.679   9.589   6.671  0.5813  1.4975  2.2778
 2802SOL    HW211684   4.797   9.495   6.685 -0.6073 -0.7549 -1.2375
 2803SOL     OW11685   4.859   4.343   8.018  0.2502 -0.3577 -0.4721
 2803SOL    HW111686   4.832   4.432   8.042  1.1608 -0.9034  3.2045
 2803SOL    HW211687   4.951   4.339   8.043 -0.2270 -2.8046  1.1970
 2804SOL     OW11688   3.190   4.798   1.356  0.3313 -0.1482  0.0589
 2804SOL    HW111689   3.281   4.809   1.383  0.6378 -0.6447 -0.7558
 2804SOL    HW211690   3.139   4.843   1.424  1.2803  1.8624 -0.4905
 2805SOL     OW11691   7.922   6.537   0.189  0.2948 -0.3868  0.0857
 2805SOL    HW111692   7.856   6.606   0.179  0.0614 -0.4782  0.9729
 2805SOL    HW211693   7.900   6.473   0.120 -1.1099 -0.8706  0.9409
 2806SOL     OW11694   6.852   8.591   6.899  0.0219 -0.0613  0.2625
 2806SOL    HW111695   6.791   8.664   6.909 -1.1618 -0.6887 -1.7615
 2806SOL    HW211696   6.938   8.631   6.905 -0.5875  1.2650  0.6412
 2807SOL     OW11697   2.625   5.856   9.356 -0.0016 -0.1063 -0.0368
 2807SOL    HW111698   2.701   5.819   9.401 -0.4034  1.1972  1.8373
 2807SOL    HW211699   2.552   5.801   9.384  0.0214 -0.5157 -0.7454
 2808SOL     OW11700   4.438   9.420  10.458 -0.0636  0.2819  0.5933
 2808SOL    HW111701   4.435   9.484  10.530 -0.4601  1.6129 -0.5582
 2808SOL    HW211702   4.531   9.398  10.449  0.2025  1.3868  0.4571
 2809SOL     OW11703   8.062   8.517   9.521  0.1470 -0.6834  0.4701
 2809SOL    HW111704   7.979   8.483   9.486  0.1646 -0.0286 -0.2340
 2809SOL    HW211705   8.068   8.606   9.486  0.4036 -0.1651  1.7777
 2810SOL     OW11706   2.763   0.935   9.412  0.1771  0.4507 -0.6900
 2810SOL    HW111707   2.681   0.916   9.368  0.0216  2.7271 -1.4783
 2810SOL    HW211708   2.743   0.926   9.505 -2.0076  4.2690 -0.6264
 2811SOL     OW11709   4.716   4.465   5.782 -0.0629 -0.0237 -0.5508
 2811SOL    HW111710   4.809   4.488   5.782  0.0801 -0.6094 -0.8943
 2811SOL    HW211711   4.673   4.539   5.738  0.3751 -0.3213 -1.4895
 2812SOL     OW11712   3.138  11.327   4.964  0.3293  0.1260 -0.5716
 2812SOL    HW111713   3.169  11.356   4.879  2.2051 -0.6978 -0.2323
 2812SOL    HW211714   3.218  11.314   5.015 -0.6526 -1.0817  0.7470
 2813SOL     OW11715   2.859   1.923  10.637 -0.5465  0.4107 -0.1333
 2813SOL    HW111716   2.823   1.940  10.550  0.5926  1.3971 -0.4263
 2813SOL    HW211717   2.788   1.879  10.684 -0.1718 -3.3212 -2.5774
 2814SOL     OW11718   2.679   1.594   6.864 -0.2727  0.3552  0.3798
 2814SOL    HW111719   2.650   1.534   6.795  1.1879  1.5259 -1.3096
 2814SOL    HW211720   2.770   1.571   6.880 -0.2624  0.8582  1.0964
 2815SOL     OW11721   5.974   7.898   8.082 -0.5599 -0.1814 -1.0816
 2815SOL    HW111722   5.884   7.866   8.088 -0.6103  0.0202 -0.7138
 2815SOL    HW211723   5.978   7.968   8.147 -0.2609  0.1008 -1.3998
 2816SOL     OW11724   0.701   2.900   1.492  0.1178 -0.0986  0.4639
 2816SOL    HW111725   0.722   2.974   1.548 -0.7845  0.2142  0.4107
 2816SOL    HW211726   0.764   2.905   1.420  1.0472 -0.2989  1.2509
 2817SOL     OW11727   8.002   4.424  11.278 -0.1285  0.0804 -0.1035
 2817SOL    HW111728   7.956   4.344  11.300  0.3396 -0.2078 -0.1458
 2817SOL    HW211729   8.084   4.419  11.327 -0.8950  1.4516  1.4340
 2818SOL     OW11730   4.565   3.745   2.600 -0.6596  0.2909 -0.1378
 2818SOL    HW111731   4.655   3.734   2.629 -0.6232  0.1000 -0.3180
 2818SOL    HW211732   4.572   3.774   2.509 -0.7851 -2.2701 -1.0451
 2819SOL     OW11733   7.742   2.856   2.967  0.1110  0.1553 -0.2205
 2819SOL    HW111734   7.647   2.847   2.973  0.1126 -2.5178 -2.2942
 2819SOL    HW211735   7.761   2.852   2.874  2.3417 -0.8401  0.2073
 2820SOL     OW11736  10.310   4.832   9.611 -0.1301  0.0233  0.2191
 2820SOL    HW111737  10.386   4.839   9.554 -1.0048  0.4087 -0.9367
 2820SOL    HW211738  10.237   4.863   9.558 -1.6935 -3.3876  0.0898
 2821SOL     OW11739   5.267   4.481   7.482  0.7327  0.0240 -0.4197
 2821SOL    HW111740   5.296   4.409   7.427  3.0054 -0.1035  0.8276
 2821SOL    HW211741   5.174   4.465   7.496  1.2218 -2.9182  0.1106
 2822SOL     OW11742   5.143   8.195   9.846 -0.5414  0.4220  0.9123
 2822SOL    HW111743   5.196   8.121   9.874 -0.7360  0.4382  1.3239
 2822SOL    HW211744   5.053   8.162   9.847 -0.4309 -0.2446 -1.7222
 2823SOL     OW11745   6.568   8.852   6.653 -0.1608 -0.4210  0.0145
 2823SOL    HW111746   6.653   8.894   6.638 -0.2600 -0.7116 -1.4581
 2823SOL    HW211747   6.581   8.761   6.626 -0.4760 -0.9161  1.4223
 2824SOL     OW11748   7.199   2.818   6.693 -0.2202  0.7027 -0.4452
 2824SOL    HW111749   7.246   2.792   6.773 -1.8940 -0.3485  0.2448
 2824SOL    HW211750   7.114   2.775   6.700 -1.0083  1.9049 -2.0397
 2825SOL     OW11751   1.436   5.925   5.830 -0.1128 -0.0818  0.4453
 2825SOL    HW111752   1.525   5.901   5.855  0.2499 -0.2437 -0.9392
 2825SOL    HW211753   1.386   5.843   5.834  0.8285 -0.9814 -2.9969
 2826SOL     OW11754   5.612   2.795   1.706  0.3639 -0.2636 -0.9498
 2826SOL    HW111755   5.532   2.818   1.754  1.2281 -1.6406  1.3470
 2826SOL    HW211756   5.666   2.874   1.709  0.8216 -0.5852  1.4223
 2827SOL     OW11757   2.286   4.323  10.823  0.3112  0.4418 -0.2850
 2827SOL    HW111758   2.195   4.292  10.826  1.0420 -1.8568  0.3579
 2827SOL    HW211759   2.338   4.244  10.836  2.4011  2.0930  2.3969
 2828SOL     OW11760   4.927   0.835   2.647 -0.0610 -0.2100 -0.0481
 2828SOL    HW111761   4.920   0.826   2.552 -1.8998  0.5581 -0.0280
 2828SOL    HW211762   4.990   0.905   2.660 -0.8885  0.7026 -0.7790
 2829SOL     OW11763   4.543   2.489   4.507 -0.4169 -0.1545 -0.0523
 2829SOL    HW111764   4.525   2.512   4.598  1.3006 -1.5041  0.7054
 2829SOL    HW211765   4.516   2.566   4.456  0.9836  1.7062  1.8487
 2830SOL     OW11766   6.803  10.518   8.698  0.2030 -0.4282 -0.0140
 2830SOL    HW111767   6.778  10.595   8.646 -0.2721 -1.0649 -0.7658
 2830SOL    HW211768   6.888  10.540   8.735 -0.2556  0.7488  0.3893
 2831SOL     OW11769   8.400   7.928   7.870  0.3025  0.3272 -0.0407
 2831SOL    HW111770   8.425   8.016   7.900 -0.8562  0.5000  0.4610
 2831SOL    HW211771   8.316   7.940   7.828 -0.3647 -0.6894  0.9431
 2832SOL     OW11772   1.130   7.443   2.455  0.6781 -0.0898 -0.1035
 2832SOL    HW111773   1.105   7.350   2.448  2.2060 -0.6007  0.7762
 2832SOL    HW211774   1.223   7.444   2.431  1.4876  0.7112  2.7692
 2833SOL     OW11775   5.962  10.932   8.693  0.4085  0.0155  0.0901
 2833SOL    HW111776   5.976  10.873   8.620  0.0718 -0.3463  0.3119
 2833SOL    HW211777   5.912  11.005   8.656 -1.2768 -0.9727  0.2873
 2834SOL     OW11778  10.266   5.829   4.607 -0.0422  0.3322  0.0150
 2834SOL    HW111779  10.258   5.873   4.692  1.1271 -0.3539  0.4995
 2834SOL    HW211780  10.345   5.866   4.568 -2.0378  2.7713 -2.1127
 2835SOL     OW11781   9.287   5.049   8.750 -0.5015  0.3561  0.2203
 2835SOL    HW111782   9.297   5.129   8.802 -1.8877  1.3472 -0.9561
 2835SOL    HW211783   9.369   5.041   8.702 -0.0404  0.6042  0.9508
 2836SOL     OW11784   5.586   4.178   4.912 -0.7243  0.2193 -0.2685
 2836SOL    HW111785   5.532   4.135   4.979 -1.0202  0.3972 -0.3893
 2836SOL    HW211786   5.543   4.262   4.898  0.3870  0.9655  0.6492
 2837SOL     OW11787   3.980   8.170   1.536 -0.0095 -0.5919 -0.4655
 2837SOL    HW111788   4.056   8.114   1.520 -0.0104 -0.3247 -1.4584
 2837SOL    HW211789   3.909   8.130   1.485  0.1446  0.6387 -1.7058
 2838SOL     OW11790   8.157   5.808  10.923  0.7644  0.3465  0.0820
 2838SOL    HW111791   8.222   5.786  10.856 -1.2068  0.7232 -2.0325
 2838SOL    HW211792   8.073   5.797  10.881 -0.5501  2.5114  1.8939
 2839SOL     OW11793  10.722   9.191   1.801  0.0143 -0.5862 -0.0921
 2839SOL    HW111794  10.658   9.195   1.730 -0.5162 -0.2697  0.3929
 2839SOL    HW211795  10.805   9.172   1.758 -0.0046  1.1489 -0.9949
 2840SOL     OW11796  11.380   8.332   5.795 -0.3168  0.4499  0.0439
 2840SOL    HW111797  11.451   8.270   5.812 -0.2356  0.2962 -0.8018
 2840SOL    HW211798  11.316   8.315   5.864  0.3132  0.3511  0.6094
 2841SOL     OW11799   0.378   8.976   3.846 -0.3117 -0.6619  0.2897
 2841SOL    HW111800   0.395   8.889   3.882  0.0406 -0.7136  0.0047
 2841SOL    HW211801   0.457   8.997   3.797  0.5264  0.7287  2.1195
 2842SOL     OW11802   0.646   2.093   9.834 -0.4923  0.1298 -0.3579
 2842SOL    HW111803   0.650   2.081   9.739 -2.0651 -1.1134 -0.3024
 2842SOL    HW211804   0.599   2.016   9.867 -0.9464  1.0620  1.3176
 2843SOL     OW11805   8.952   3.653  10.591  0.5851 -0.3856  0.1608
 2843SOL    HW111806   8.897   3.576  10.600  0.6934 -0.3935  0.8034
 2843SOL    HW211807   8.890   3.726  10.586  0.5102 -0.4005  0.8135
 2844SOL     OW11808   0.499   7.425   1.729  0.2877 -0.1221 -0.1285
 2844SOL    HW111809   0.589   7.453   1.746  0.3331 -0.1967 -0.2474
 2844SOL    HW211810   0.473   7.380   1.809 -0.5035  2.0520  0.9197
 2845SOL     OW11811   2.771  10.772   7.032 -0.2372  0.0407 -0.9014
 2845SOL    HW111812   2.814  10.792   6.949 -1.2632  0.7267 -1.2902
 2845SOL    HW211813   2.728  10.688   7.018  0.5168 -0.4006 -0.6732
 2846SOL     OW11814   5.095   9.460   3.691 -0.0852 -0.1163 -0.1292
 2846SOL    HW111815   5.189   9.449   3.707  0.4876  3.5121 -0.1454
 2846SOL    HW211816   5.089   9.537   3.636 -3.0857 -0.9956 -1.2291
 2847SOL     OW11817   1.840   3.575   7.597 -0.3837 -0.2390 -0.0834
 2847SOL    HW111818   1.747   3.577   7.573 -0.8029  3.4710  1.2894
 2847SOL    HW211819   1.845   3.505   7.663 -1.5685 -2.2437 -1.9418
 2848SOL     OW11820   2.032   2.881   0.192 -0.1791 -0.3401  0.3887
 2848SOL    HW111821   1.942   2.912   0.186  0.0071  0.1449  0.0483
 2848SOL    HW211822   2.031   2.820   0.266 -0.4878  0.7108  1.2888
 2849SOL     OW11823   2.156   1.359   3.187 -0.3106  0.1935 -0.0172
 2849SOL    HW111824   2.115   1.378   3.271  0.3873 -0.2504  0.4329
 2849SOL    HW211825   2.149   1.265   3.176  0.6832  0.0841  0.1370
 2850SOL     OW11826   6.445   0.817   0.853 -0.0262  0.1864 -0.1055
 2850SOL    HW111827   6.512   0.881   0.830  0.2029 -0.2332 -0.6376
 2850SOL    HW211828   6.472   0.780   0.937 -1.2136  2.2230  1.2546
 2851SOL     OW11829   8.647   4.983   5.608 -0.6151 -0.4638 -0.2431
 2851SOL    HW111830   8.573   5.013   5.662 -0.2712  2.1521 -1.0541
 2851SOL    HW211831   8.607   4.959   5.524 -0.7633 -1.1366  0.0146
 2852SOL     OW11832   6.681   5.474   5.552  0.7666  0.0240  0.0622
 2852SOL    HW111833   6.679   5.426   5.635  0.3792  0.1195  0.1050
 2852SOL    HW211834   6.640   5.558   5.571 -1.4606 -0.7965 -0.7662
 2853SOL     OW11835   3.726   6.239  10.860  0.3645 -0.5770 -0.2225
 2853SOL    HW111836   3.788   6.234  10.933  1.7240  2.4621 -1.0179
 2853SOL    HW211837   3.649   6.192  10.891  1.6745 -1.2537  2.2825
 2854SOL     OW11838  11.362  10.928  10.585  0.1674 -0.0699 -0.2902
 2854SOL    HW111839  11.412  10.955  10.508 -0.4095 -1.1178 -1.0392
 2854SOL    HW211840  11.274  10.962  10.569  0.7173  2.4854  1.3975
 2855SOL     OW11841   0.186   6.174   7.607  0.3672 -0.3398 -0.0326
 2855SOL    HW111842   0.137   6.121   7.670 -0.1666 -0.5987 -0.6610
 2855SOL    HW211843   0.243   6.229   7.662 -0.3753 -0.2687  0.6893
 2856SOL     OW11844  10.123  10.168  10.182  0.1877  0.9474 -0.3629
 2856SOL    HW111845  10.061  10.156  10.111 -0.1530  1.0857 -0.0920
 2856SOL    HW211846  10.125  10.262  10.197  0.8427  0.9909 -0.7052
 2857SOL     OW11847   6.340   4.438   5.411 -0.4379 -0.3552 -0.3527
 2857SOL    HW111848   6.283   4.408   5.340  1.0810  2.0641 -2.8184
 2857SOL    HW211849   6.311   4.389   5.488 -1.3640 -4.1691 -2.8518
 2858SOL     OW11850  10.342   3.550   8.680  0.0019 -0.1251 -0.5247
 2858SOL    HW111851  10.279   3.587   8.742 -0.9094 -0.4126 -1.2600
 2858SOL    HW211852  10.398   3.493   8.733  0.3126  0.9340  0.3164
 2859SOL     OW11853   5.574   0.093   7.541  0.1534  0.6291 -0.1892
 2859SOL    HW111854   5.553   0.176   7.499 -0.9198 -0.4675 -1.9536
 2859SOL    HW211855   5.553   0.027   7.476  1.0079 -1.0522  1.1467
 2860SOL     OW11856   6.094   5.115   8.947 -0.4182  0.1990 -0.6930
 2860SOL    HW111857   6.130   5.077   8.866  2.6522  1.0975  0.1066
 2860SOL    HW211858   6.161   5.098   9.013 -2.9812 -0.8174  1.8410
 2861SOL     OW11859   6.881   1.932   7.298  0.0678 -0.0543  0.5533
 2861SOL    HW111860   6.788   1.951   7.305  0.2569  0.8202  0.7493
 2861SOL    HW211861   6.892   1.850   7.347 -0.4841  0.1800  1.0778
 2862SOL     OW11862   5.137   1.093   2.431 -1.0103  0.4714  0.2135
 2862SOL    HW111863   5.083   1.018   2.406 -0.6265  0.4822 -0.7034
 2862SOL    HW211864   5.133   1.151   2.354  1.1026  0.0061 -0.2930
 2863SOL     OW11865   0.607   5.699   6.107  0.6076 -0.5642  0.0758
 2863SOL    HW111866   0.645   5.781   6.074 -2.7784  0.4946 -1.6577
 2863SOL    HW211867   0.638   5.633   6.046 -1.4676  0.5556 -2.3668
 2864SOL     OW11868   6.312   8.408   4.033  0.6190  0.5897  0.1677
 2864SOL    HW111869   6.349   8.376   4.116  2.1253  1.5258 -0.1143
 2864SOL    HW211870   6.360   8.361   3.965 -1.6453 -1.3315 -0.2660
 2865SOL     OW11871   6.943   5.269   8.351 -0.4452 -0.3151 -0.2381
 2865SOL    HW111872   6.905   5.182   8.337  1.0222 -0.9677 -0.2868
 2865SOL    HW211873   7.009   5.256   8.418 -0.7167  0.9251  0.2889
 2866SOL     OW11874   6.958   2.156   4.246 -0.1173  0.2026  0.4098
 2866SOL    HW111875   6.956   2.132   4.153 -1.1035  0.5574  0.3344
 2866SOL    HW211876   7.000   2.081   4.288 -1.9398 -1.1234  0.0044
 2867SOL     OW11877   1.115   6.233   4.555 -0.2728 -0.3827 -0.2952
 2867SOL    HW111878   1.211   6.230   4.545 -0.3401  0.2240 -1.4158
 2867SOL    HW211879   1.087   6.298   4.490 -1.1973  1.6754  1.9803
 2868SOL     OW11880   5.514   5.375   4.728  0.0717 -0.1777  0.1806
 2868SOL    HW111881   5.436   5.319   4.727  0.4414 -0.7609  1.2502
 2868SOL    HW211882   5.537   5.386   4.636 -1.8635  0.8855 -0.2200
 2869SOL     OW11883   5.542   5.628  10.264 -0.8581  0.4173  0.0049
 2869SOL    HW111884   5.506   5.608  10.351 -0.6823 -0.7017 -0.1655
 2869SOL    HW211885   5.605   5.699  10.280  0.1476 -0.6574  1.0292
 2870SOL     OW11886  10.906   1.653  11.336 -0.4224  0.6478  0.1446
 2870SOL    HW111887  10.829   1.664  11.280 -0.0672 -0.5531 -0.6111
 2870SOL    HW211888  10.941   1.742  11.344 -1.0407  0.9945 -0.7313
 2871SOL     OW11889   4.846  10.708   1.321  0.1540 -0.3689  0.6118
 2871SOL    HW111890   4.886  10.706   1.408 -1.8806  1.2699  1.6811
 2871SOL    HW211891   4.867  10.795   1.287  0.6039 -0.8588 -0.4095
 2872SOL     OW11892   9.297   8.240   0.569  0.3177  0.1510  0.5439
 2872SOL    HW111893   9.368   8.233   0.505 -0.0311  0.5850  0.0948
 2872SOL    HW211894   9.218   8.216   0.520 -0.2603  2.5077  0.1793
 2873SOL     OW11895   0.717   8.995   8.090 -0.0489 -0.3088  0.4220
 2873SOL    HW111896   0.773   8.917   8.086 -0.7752 -1.0460  2.9449
 2873SOL    HW211897   0.644   8.975   8.031  1.7253  0.2815 -2.1944
 2874SOL     OW11898   6.573   5.911   4.879 -0.1871 -0.2226 -0.5913
 2874SOL    HW111899   6.525   5.857   4.942  1.0584 -0.2216  0.3998
 2874SOL    HW211900   6.510   5.976   4.850 -0.5170  0.4599  1.5080
 2875SOL     OW11901  10.188   8.222   3.474  0.3061  0.0180  0.2649
 2875SOL    HW111902  10.095   8.216   3.453  0.0505  0.4694  1.2264
 2875SOL    HW211903  10.191   8.264   3.559  1.3529 -0.9825  0.7482
 2876SOL     OW11904   6.667  10.355   1.766 -0.3228 -0.3621  0.0978
 2876SOL    HW111905   6.707  10.371   1.852 -2.8727 -1.2552  1.5703
 2876SOL    HW211906   6.645  10.442   1.733  0.8855  0.0067  0.2260
 2877SOL     OW11907   7.783  10.369   5.408  0.5636 -0.4029 -0.5262
 2877SOL    HW111908   7.808  10.375   5.316  1.1435 -0.2359 -0.3617
 2877SOL    HW211909   7.785  10.460   5.439  0.6611 -0.4896 -0.2756
 2878SOL     OW11910  10.606   9.511   6.143 -0.3529 -0.0368  0.0469
 2878SOL    HW111911  10.641   9.458   6.071  0.7232 -0.5776  0.9450
 2878SOL    HW211912  10.524   9.468   6.166  0.6377 -1.5344  0.9436
 2879SOL     OW11913   6.391   2.052   7.432  0.5374 -0.5657  0.3207
 2879SOL    HW111914   6.440   2.090   7.505  1.0250  0.4094 -0.4890
 2879SOL    HW211915   6.345   2.126   7.393  2.2258 -0.5539 -1.8589
 2880SOL     OW11916   8.333   4.271   4.972  0.5127 -0.3739  0.3587
 2880SOL    HW111917   8.339   4.181   4.940  0.3922 -0.3234  0.1917
 2880SOL    HW211918   8.323   4.262   5.067 -0.5746 -0.5797  0.2433
 2881SOL     OW11919   1.567   9.386   6.130 -0.2683 -0.4801  0.1956
 2881SOL    HW111920   1.530   9.463   6.086  1.5716  1.6337  2.1015
 2881SOL    HW211921   1.501   9.362   6.195 -0.6735 -0.2661 -0.1274
 2882SOL     OW11922   2.272   1.321   5.686 -0.1951  0.1988 -0.1573
 2882SOL    HW111923   2.247   1.325   5.778  0.8701  1.3769  0.1043
 2882SOL    HW211924   2.350   1.376   5.679  1.2566 -1.8523 -1.2955
 2883SOL     OW11925   1.528   6.404   6.077 -0.2038  0.1823 -0.3298
 2883SOL    HW111926   1.575   6.357   6.008  1.5182  0.4045  0.6336
 2883SOL    HW211927   1.437   6.407   6.047  0.1407 -1.4099 -1.6671
 2884SOL     OW11928   1.117   1.392   8.053 -0.1429  0.3768  0.1846
 2884SOL    HW111929   1.024   1.400   8.075 -0.3357  0.1082 -0.5160
 2884SOL    HW211930   1.162   1.443   8.121 -0.5581 -2.0714  2.4573
 2885SOL     OW11931   9.116   8.721   4.350 -0.0852  0.6900  0.1287
 2885SOL    HW111932   9.159   8.737   4.266 -0.9287  0.1089 -0.4294
 2885SOL    HW211933   9.093   8.627   4.348 -1.4470  0.9904  0.3568
 2886SOL     OW11934   4.978  11.391   4.964  0.2547  0.2354  0.2659
 2886SOL    HW111935   5.005  11.437   4.885  0.8401 -0.8758 -0.2050
 2886SOL    HW211936   5.027  11.309   4.962 -0.3256 -0.1600  1.3716
 2887SOL     OW11937   4.361   7.447   4.157  0.0034 -0.1505  0.5077
 2887SOL    HW111938   4.395   7.374   4.106 -0.5059  0.1581 -0.2962
 2887SOL    HW211939   4.269   7.454   4.132  0.0704  0.8358  0.4809
 2888SOL     OW11940   6.137   8.927   6.619  0.6712 -0.4319 -0.1275
 2888SOL    HW111941   6.108   8.986   6.549 -0.9820 -0.7966  0.1908
 2888SOL    HW211942   6.065   8.864   6.628  1.5687 -1.3660  0.8115
 2889SOL     OW11943   5.527   1.472   9.658 -0.3885 -0.6588  0.1704
 2889SOL    HW111944   5.480   1.463   9.575  0.2454 -2.4405 -0.0316
 2889SOL    HW211945   5.458   1.474   9.724 -0.9098  1.0024 -0.3673
 2890SOL     OW11946   9.413   4.237   7.025 -0.1905  0.2081 -0.4671
 2890SOL    HW111947   9.473   4.309   7.005  0.0846 -0.6475 -3.1438
 2890SOL    HW211948   9.331   4.280   7.047  0.4441  1.3492 -0.2221
 2891SOL     OW11949   4.475   4.278   1.079 -0.4272  0.0850  0.4875
 2891SOL    HW111950   4.483   4.365   1.119  0.2951 -0.0865  0.7401
 2891SOL    HW211951   4.414   4.231   1.135 -1.3614  0.6444 -0.0402
 2892SOL     OW11952   4.523   2.491   9.375 -0.0662  0.0699 -0.4456
 2892SOL    HW111953   4.539   2.439   9.454 -0.0764 -1.3929 -1.3837
 2892SOL    HW211954   4.511   2.427   9.305 -0.5950  1.3258 -1.5528
 2893SOL     OW11955   7.900   2.388   7.294 -0.1973  0.3537  0.5817
 2893SOL    HW111956   7.876   2.307   7.251  1.0616  0.4617 -0.3828
 2893SOL    HW211957   7.968   2.363   7.357  0.9319  0.7580 -0.4276
 2894SOL     OW11958   5.265   8.017  10.032  0.0403 -0.0051 -0.2937
 2894SOL    HW111959   5.267   7.922  10.022  0.3475  0.1174 -1.6346
 2894SOL    HW211960   5.304   8.034  10.118  0.4586 -1.0618 -0.2688
 2895SOL     OW11961   3.273  11.356  10.567 -0.2558  0.0440  0.0019
 2895SOL    HW111962   3.319  11.383  10.488 -0.4365  0.8259  0.1612
 2895SOL    HW211963   3.310  11.410  10.637 -0.4646 -0.2731  0.3653
 2896SOL     OW11964   9.552   9.094   3.392 -0.4548  0.6056 -0.0940
 2896SOL    HW111965   9.604   9.140   3.459  2.5942 -0.9128 -1.2133
 2896SOL    HW211966   9.592   9.120   3.309 -0.6087 -1.6539 -0.9429
 2897SOL     OW11967   6.037   1.581   9.100  0.1079  0.2966  0.2308
 2897SOL    HW111968   6.128   1.605   9.084 -0.2588  1.0446 -0.8374
 2897SOL    HW211969   6.039   1.486   9.112  0.8609  0.1054 -1.1590
 2898SOL     OW11970   7.840   0.067  10.693  0.1785  0.4346  0.1060
 2898SOL    HW111971   7.749   0.087  10.714  0.0596 -1.8930  2.3569
 2898SOL    HW211972   7.890   0.107  10.764  0.4574 -1.5605  1.1261
 2899SOL     OW11973   8.590   1.989   3.522  0.3813 -0.2607  0.2478
 2899SOL    HW111974   8.678   2.009   3.552  0.1307  1.4956 -0.0760
 2899SOL    HW211975   8.532   2.039   3.580 -0.3598 -0.7810 -0.0224
 2900SOL     OW11976   6.126   9.232   3.200  0.0581 -0.1748  0.2576
 2900SOL    HW111977   6.036   9.230   3.235 -0.6691  0.6955 -1.4425
 2900SOL    HW211978   6.150   9.140   3.189 -0.1273 -0.4481  1.8741
 2901SOL     OW11979   5.965   0.165   1.580  0.4615 -0.1652 -0.5117
 2901SOL    HW111980   6.051   0.204   1.563 -0.2201  1.1012 -1.2062
 2901SOL    HW211981   5.903   0.229   1.545 -0.7874 -0.7458  0.5735
 2902SOL     OW11982   1.696   0.978   0.993  0.3901 -0.1127 -0.1449
 2902SOL    HW111983   1.665   1.025   0.916  2.1544  1.2738 -0.0791
 2902SOL    HW211984   1.788   1.002   1.000  1.0476 -2.6165  0.6720
 2903SOL     OW11985   4.839   5.982   7.753  0.3984 -0.2768  0.2460
 2903SOL    HW111986   4.794   5.950   7.831  0.3287 -1.2885 -0.1890
 2903SOL    HW211987   4.873   5.902   7.711 -0.9902  0.0527 -1.6309
 2904SOL     OW11988   8.536   2.463   7.232 -0.3612  0.1962 -0.0100
 2904SOL    HW111989   8.518   2.385   7.286  0.2901 -0.7448 -1.1107
 2904SOL    HW211990   8.502   2.441   7.145  1.7344  0.2584 -0.8999
 2905SOL     OW11991   4.720   6.237   8.868 -0.3896 -0.0316  0.4092
 2905SOL    HW111992   4.776   6.313   8.882 -0.1016  0.0264 -0.9367
 2905SOL    HW211993   4.633   6.266   8.896 -0.2522  0.7348  0.0599
 2906SOL     OW11994   0.890   8.113   1.265 -0.5336 -0.0342  0.1475
 2906SOL    HW111995   0.848   8.073   1.189 -0.0877  0.1951 -0.2249
 2906SOL    HW211996   0.825   8.106   1.335 -1.7809  1.6270 -0.7769
 2907SOL     OW11997   5.668   6.280   3.701  0.0552 -0.1694 -0.5346
 2907SOL    HW111998   5.741   6.304   3.644 -0.5461 -0.2727 -1.3659
 2907SOL    HW211999   5.612   6.225   3.647 -0.3657 -0.5466  0.2646
 2908SOL     OW12000   5.189   8.909   7.776  0.0777 -0.2629  0.0314
 2908SOL    HW112001   5.129   8.847   7.734  0.2216 -1.2613  1.2145
 2908SOL    HW212002   5.133   8.962   7.833 -0.1617  1.2962 -1.5796
 2909SOL     OW12003   0.463   1.284   8.145 -0.2027  0.5538 -0.1418
 2909SOL    HW112004   0.481   1.195   8.113  0.9621 -0.6081  3.2480
 2909SOL    HW212005   0.398   1.319   8.084  0.5486 -1.9504 -2.5957
 2910SOL     OW12006  10.264   2.697   8.959  0.4781  0.1614  0.1717
 2910SOL    HW112007  10.213   2.631   8.912  2.5070 -0.1212 -1.8509
 2910SOL    HW212008  10.277   2.660   9.046 -0.9414 -0.7099  0.0474
 2911SOL     OW12009  10.253   7.922   3.471 -0.3619  0.4422  0.2808
 2911SOL    HW112010  10.200   8.000   3.456 -0.1675  0.2329 -1.7056
 2911SOL    HW212011  10.221   7.888   3.555 -1.3265  1.9187  0.5627
 2912SOL     OW12012   9.797   3.658   2.400  0.5972 -0.4167 -0.1637
 2912SOL    HW112013   9.718   3.702   2.369  1.8455  1.9353 -0.2351
 2912SOL    HW212014   9.844   3.633   2.321  1.2905  0.8720 -0.1895
 2913SOL     OW12015   0.553   1.530   1.351  0.4010  0.5135  0.7809
 2913SOL    HW112016   0.513   1.615   1.335 -1.6790 -0.8682 -2.3864
 2913SOL    HW212017   0.614   1.518   1.278 -1.0718 -1.5732 -0.2044
 2914SOL     OW12018   8.515   7.101   9.747 -0.3730  0.4283 -0.0291
 2914SOL    HW112019   8.518   7.197   9.739  1.9858  0.3003 -1.6995
 2914SOL    HW212020   8.600   7.077   9.782 -0.9242 -1.0922  0.3341
 2915SOL     OW12021   0.511   1.788   1.274  0.1897  0.4051 -0.0724
 2915SOL    HW112022   0.490   1.853   1.341  1.2548  1.8898 -1.1082
 2915SOL    HW212023   0.435   1.788   1.216  0.5262  1.4021 -0.5425
 2916SOL     OW12024   7.621   4.520   5.776 -0.0243 -0.6931 -0.5576
 2916SOL    HW112025   7.613   4.611   5.749  2.1453 -0.6328 -1.2117
 2916SOL    HW212026   7.595   4.521   5.868 -2.7579  0.0025 -1.2403
 2917SOL     OW12027   3.988   1.796   5.627 -0.5041  0.3756 -0.0036
 2917SOL    HW112028   3.959   1.876   5.671 -0.9262  0.2710 -0.0844
 2917SOL    HW212029   4.081   1.809   5.612 -0.0625 -0.0943  2.0163
 2918SOL     OW12030   6.575   2.895   7.981 -0.1528 -0.2776  0.6084
 2918SOL    HW112031   6.487   2.872   7.953 -0.2728  1.4008 -0.5151
 2918SOL    HW212032   6.622   2.811   7.985 -1.6145 -1.1184  0.6315
 2919SOL     OW12033   2.282   5.658   3.095 -0.0188 -0.3672  0.2934
 2919SOL    HW112034   2.311   5.726   3.156  1.1363 -0.7954  0.2602
 2919SOL    HW212035   2.261   5.583   3.151 -3.2518  0.5659  0.5239
 2920SOL     OW12036   7.443   6.688   2.152  0.1938 -0.2145  0.1103
 2920SOL    HW112037   7.498   6.762   2.125 -0.2384 -0.3238 -1.1522
 2920SOL    HW212038   7.504   6.616   2.163  0.3032 -0.4320 -1.6497
 2921SOL     OW12039   6.301   7.130   4.412  0.3898  0.3502  0.0639
 2921SOL    HW112040   6.261   7.073   4.347  0.8106  2.3992 -2.1380
 2921SOL    HW212041   6.392   7.102   4.417  0.4004  0.3085 -0.3778
 2922SOL     OW12042  11.049   9.216   8.040 -0.3381 -0.0813  0.6112
 2922SOL    HW112043  11.055   9.139   8.095  4.9186 -0.2205  0.2881
 2922SOL    HW212044  11.079   9.187   7.954 -0.2763  1.8622 -0.0887
 2923SOL     OW12045   4.649   6.693   7.041  0.0796 -0.2300  0.0956
 2923SOL    HW112046   4.715   6.700   6.971  0.7932  2.0077  0.9172
 2923SOL    HW212047   4.565   6.699   6.996  0.4255 -1.6413 -0.8135
 2924SOL     OW12048   4.855  11.394   9.172 -0.6011  0.3365  0.1158
 2924SOL    HW112049   4.926  11.361   9.118 -1.8121 -0.1168 -1.2384
 2924SOL    HW212050   4.871  11.489   9.179 -0.7269  0.4941 -1.5274
 2925SOL     OW12051   2.484   4.131   2.570  0.0813 -0.2210  0.0907
 2925SOL    HW112052   2.533   4.087   2.501 -1.3369  0.2606 -1.2721
 2925SOL    HW212053   2.452   4.061   2.626  0.6707 -0.6621 -0.1155
 2926SOL     OW12054   3.302   7.600  10.609 -0.2446 -0.1537 -0.0451
 2926SOL    HW112055   3.228   7.595  10.549  0.3126 -0.1160 -0.7583
 2926SOL    HW212056   3.354   7.522  10.588  0.1294  0.0423  0.1501
 2927SOL     OW12057   4.268  10.231   0.126 -0.3897  0.1881 -0.1566
 2927SOL    HW112058   4.178  10.264   0.128 -0.6266 -0.4364  2.2235
 2927SOL    HW212059   4.260  10.142   0.091 -0.3743  0.7944 -1.8442
 2928SOL     OW12060   0.905   1.628   7.160 -0.0603  0.1259 -0.7442
 2928SOL    HW112061   0.959   1.597   7.087  1.1309  1.8397 -0.6451
 2928SOL    HW212062   0.947   1.592   7.238 -0.1227 -0.0189 -0.7771
 2929SOL     OW12063   5.855   5.292  10.582 -0.2795 -0.4191  0.4251
 2929SOL    HW112064   5.940   5.336  10.588 -0.6391  0.2253  0.8761
 2929SOL    HW212065   5.872   5.203  10.615  0.6606 -0.9505 -1.3223
 2930SOL     OW12066   4.563   3.350   9.274 -0.5832  0.5937 -0.6544
 2930SOL    HW112067   4.645   3.396   9.291 -0.0410 -0.6085  0.1601
 2930SOL    HW212068   4.499   3.395   9.328 -0.4579  1.4794 -1.2195
 2931SOL     OW12069  10.779   5.492  10.606  0.2643 -0.0588  0.4432
 2931SOL    HW112070  10.720   5.439  10.552  1.2874 -0.6739 -0.1093
 2931SOL    HW212071  10.861   5.444  10.606  0.8409  0.8856  1.0207
 2932SOL     OW12072   6.797   3.924  11.398 -0.4780  0.4738  0.9811
 2932SOL    HW112073   6.734   3.853  11.413  1.6642 -1.6605  0.6087
 2932SOL    HW212074   6.775   3.990  11.463 -3.0847 -0.1479  0.8357
 2933SOL     OW12075   7.974   2.424   8.895  0.1436 -0.1225  0.0108
 2933SOL    HW112076   7.880   2.422   8.879  0.3785 -0.7664 -1.4325
 2933SOL    HW212077   7.992   2.342   8.942 -0.0155  0.0446  0.3699
 2934SOL     OW12078   8.045   9.874   1.958 -0.2671  0.1392  0.0498
 2934SOL    HW112079   8.046   9.909   1.869 -0.0823 -1.8720 -0.7830
 2934SOL    HW212080   8.047   9.779   1.947 -1.8388 -0.2178  2.1744
 2935SOL     OW12081   1.854   4.025   0.514 -0.2415  0.7239  0.3061
 2935SOL    HW112082   1.774   3.972   0.512 -0.0926  0.5049  0.0087
 2935SOL    HW212083   1.847   4.082   0.438  0.8446 -0.7437 -0.9709
 2936SOL     OW12084   2.138   4.930   9.566 -0.7361 -0.8470  0.5193
 2936SOL    HW112085   2.076   4.981   9.618 -1.6020 -0.8113 -0.5099
 2936SOL    HW212086   2.089   4.906   9.487  1.0626  0.6160 -1.1428
 2937SOL     OW12087   4.821   0.695   1.058 -0.5235 -0.4585 -0.1206
 2937SOL    HW112088   4.800   0.782   1.022  1.0295 -0.5990 -1.4627
 2937SOL    HW212089   4.814   0.706   1.153 -1.6032  0.7791 -0.3091
 2938SOL     OW12090   4.920   2.098   2.949  0.2667 -0.3472  0.1729
 2938SOL    HW112091   4.864   2.095   3.027 -0.0661 -1.5260 -0.0813
 2938SOL    HW212092   4.879   2.164   2.893 -0.1952 -0.3541  0.4911
 2939SOL     OW12093   6.339   5.375   2.159 -0.1910  0.1125 -0.1293
 2939SOL    HW112094   6.377   5.443   2.215 -0.7118 -1.3181  2.1220
 2939SOL    HW212095   6.246   5.374   2.182 -0.3490 -0.8043 -0.7224
 2940SOL     OW12096   4.457   8.550   1.781 -0.1670 -0.8669  0.1336
 2940SOL    HW112097   4.412   8.507   1.707  1.3938 -0.3390 -1.1935
 2940SOL    HW212098   4.412   8.634   1.791 -0.2093 -0.8181 -0.4169
 2941SOL     OW12099   9.172   6.187   9.830 -0.3105  0.0133 -0.3651
 2941SOL    HW112100   9.250   6.133   9.815 -1.0163 -0.6575 -1.7229
 2941SOL    HW212101   9.172   6.249   9.757 -1.7874 -0.8856 -1.1604
 2942SOL     OW12102   2.191   6.688   6.368 -0.1666 -0.1026  0.7033
 2942SOL    HW112103   2.286   6.676   6.375 -0.0351 -0.3209 -0.9996
 2942SOL    HW212104   2.162   6.614   6.315 -1.1788  0.3736  0.5838
 2943SOL     OW12105   1.243   4.320   1.218  0.3996  0.2823 -0.0422
 2943SOL    HW112106   1.166   4.318   1.162 -0.4289  0.8280  1.0391
 2943SOL    HW212107   1.273   4.411   1.215  0.0123  0.4457  0.8261
 2944SOL     OW12108   6.985   0.621  10.807  0.2596  0.0527 -0.1365
 2944SOL    HW112109   6.942   0.680  10.744 -1.1296 -1.5432 -0.7550
 2944SOL    HW212110   7.063   0.590  10.761 -1.4653 -2.1943 -1.7645
 2945SOL     OW12111   1.631   7.315   8.087  0.2327 -0.1932  0.3212
 2945SOL    HW112112   1.709   7.317   8.032  0.3405  0.3082  0.4899
 2945SOL    HW212113   1.620   7.222   8.110  1.0169 -0.2132  0.6455
 2946SOL     OW12114   5.755  11.207   6.132  0.0030  0.1234 -0.2799
 2946SOL    HW112115   5.704  11.175   6.057 -0.1497 -0.4223  0.0522
 2946SOL    HW212116   5.702  11.276   6.170 -0.8777 -0.9694  0.5368
 2947SOL     OW12117   5.262   3.288   8.254  0.1567  0.2787  0.1740
 2947SOL    HW112118   5.232   3.229   8.324  0.2107 -1.0730 -0.8984
 2947SOL    HW212119   5.184   3.338   8.230 -0.1637 -0.1150  0.3697
 2948SOL     OW12120   4.352   0.734   9.154  0.2543 -0.3012  1.0037
 2948SOL    HW112121   4.278   0.740   9.214 -0.3031 -0.2181  0.3229
 2948SOL    HW212122   4.374   0.825   9.133 -0.5194 -0.3332 -0.0586
 2949SOL     OW12123  11.197   6.607   8.575 -0.6187 -0.3475 -0.1551
 2949SOL    HW112124  11.175   6.598   8.668 -1.0373  0.8331 -0.1221
 2949SOL    HW212125  11.261   6.538   8.558 -0.3681 -0.4321  1.0636
 2950SOL     OW12126   6.802   1.194   3.761  0.9926 -0.2185  0.4203
 2950SOL    HW112127   6.850   1.111   3.766  0.6416 -0.3914  0.9431
 2950SOL    HW212128   6.735   1.188   3.829  1.9617  1.1264  1.5689
 2951SOL     OW12129   4.460   2.050   5.678  0.2514  0.4137  0.2582
 2951SOL    HW112130   4.430   2.004   5.756  0.0326  0.4016  0.1671
 2951SOL    HW212131   4.417   2.135   5.683  0.9625  0.7670  0.6373
 2952SOL     OW12132  10.957  11.119  11.191  0.3992  0.2223  0.3818
 2952SOL    HW112133  10.905  11.191  11.224  0.2348 -0.9527  2.9370
 2952SOL    HW212134  10.904  11.041  11.207  1.9122 -0.7768  0.8086
 2953SOL     OW12135  10.130  11.073   4.775  0.2745  0.1994  0.0264
 2953SOL    HW112136  10.051  11.025   4.750  1.3020 -0.6815 -1.7096
 2953SOL    HW212137  10.136  11.144   4.711  0.2744  1.0027  0.8847
 2954SOL     OW12138   4.499   7.441   1.561  0.6362  0.1469  0.1725
 2954SOL    HW112139   4.531   7.439   1.471 -0.2472 -0.9089 -0.1356
 2954SOL    HW212140   4.578   7.432   1.615  0.9176 -2.6690 -0.5705
 2955SOL     OW12141   3.249   9.384   4.886  0.4058 -0.4203 -0.0688
 2955SOL    HW112142   3.248   9.475   4.857 -0.1964 -0.6077 -0.6542
 2955SOL    HW212143   3.342   9.365   4.901  0.5433  0.2582 -0.0391
 2956SOL     OW12144   5.043   9.474  11.128  0.3250 -0.5572  0.0524
 2956SOL    HW112145   4.990   9.553  11.132  0.6517 -0.3882  2.0934
 2956SOL    HW212146   5.127   9.499  11.165  0.3158 -1.9161  1.1013
 2957SOL     OW12147   3.965   2.944   5.816 -0.4615  0.2342 -0.3347
 2957SOL    HW112148   3.949   3.036   5.839 -1.5711 -0.4474  1.8630
 2957SOL    HW212149   4.045   2.921   5.863 -0.9391 -0.2773  0.2493
 2958SOL     OW12150   4.962  10.905   3.340 -0.5052  0.1229  0.2689
 2958SOL    HW112151   5.055  10.901   3.318 -0.7339 -1.7274 -0.5187
 2958SOL    HW212152   4.961  10.910   3.436  0.4224 -1.6956  0.4167
 2959SOL     OW12153   8.815   8.577   5.667 -0.5205  0.0609 -0.0859
 2959SOL    HW112154   8.752   8.578   5.740 -0.4404  2.1907  0.0077
 2959SOL    HW212155   8.789   8.651   5.612  0.1666 -0.7799 -1.6057
 2960SOL     OW12156   5.505  10.729   8.335 -0.1198 -0.2093 -0.5083
 2960SOL    HW112157   5.578  10.763   8.387 -1.4276  0.8220  0.7053
 2960SOL    HW212158   5.489  10.642   8.371 -1.4611  0.7502  1.3836
 2961SOL     OW12159  11.160   5.130   5.854 -0.3990  0.0874 -0.4990
 2961SOL    HW112160  11.131   5.040   5.842  1.8770 -0.9346  1.1031
 2961SOL    HW212161  11.192   5.134   5.944 -1.3588  2.7982 -0.1739
 2962SOL     OW12162   8.626   9.545   6.452 -0.3419 -0.9490 -0.4239
 2962SOL    HW112163   8.627   9.455   6.420 -0.3116 -1.4586  0.9448
 2962SOL    HW212164   8.662   9.540   6.540  0.4893  0.5491 -0.6375
 2963SOL     OW12165   8.991   8.781   8.232  0.1122  0.5920 -0.0471
 2963SOL    HW112166   8.909   8.830   8.236 -0.6063 -0.6213  0.7870
 2963SOL    HW212167   9.022   8.778   8.323  1.5324  1.7483 -0.4663
 2964SOL     OW12168   5.810   1.306   8.545 -0.5142  0.3709 -0.1369
 2964SOL    HW112169   5.849   1.219   8.543  0.7135  0.7788  1.9645
 2964SOL    HW212170   5.755   1.310   8.468 -2.2431 -3.0172  0.7253
 2965SOL     OW12171   9.149   8.721  10.957  0.5178 -0.0344  0.1716
 2965SOL    HW112172   9.151   8.758  11.045 -1.7428  0.5550  0.0396
 2965SOL    HW212173   9.104   8.787  10.904  1.5408 -0.5217 -1.3827
 2966SOL     OW12174   2.657  11.001   4.464  0.1704  0.7284 -0.2102
 2966SOL    HW112175   2.704  11.083   4.481 -2.0296  1.8970  0.7732
 2966SOL    HW212176   2.641  10.964   4.551  1.2436 -0.8571 -0.6533
 2967SOL     OW12177   2.891   9.663   0.187  0.7652  0.6075  0.6228
 2967SOL    HW112178   2.836   9.593   0.221 -0.5429  0.5457 -1.4294
 2967SOL    HW212179   2.934   9.624   0.110  1.5588  1.4759  0.6113
 2968SOL     OW12180   9.319   3.486   4.899 -0.9029  0.5538  0.3213
 2968SOL    HW112181   9.364   3.570   4.905 -0.8937  0.5006  1.0736
 2968SOL    HW212182   9.369   3.438   4.832  0.2643  0.4462  1.2417
 2969SOL     OW12183   0.820  11.115   2.105 -0.2420  0.0292 -0.1821
 2969SOL    HW112184   0.915  11.100   2.111 -0.2813 -0.6641 -1.0691
 2969SOL    HW212185   0.784  11.072   2.183 -0.0427 -1.8337 -1.0810
 2970SOL     OW12186   1.293   4.374   2.944 -0.1407 -0.0756  0.8902
 2970SOL    HW112187   1.281   4.322   2.865 -1.5091 -0.0633  1.0705
 2970SOL    HW212188   1.388   4.386   2.950  0.2437 -2.6353  0.9115
 2971SOL     OW12189   0.172   5.127   8.726  0.9527  0.1090  0.5427
 2971SOL    HW112190   0.182   5.164   8.814 -0.7964  1.4240  0.2257
 2971SOL    HW212191   0.188   5.200   8.667  0.4489 -0.3593 -0.1900
 2972SOL     OW12192   4.924   4.219   4.953  0.4786 -0.1996  0.1308
 2972SOL    HW112193   4.843   4.266   4.936  0.2461  0.0439  1.7392
 2972SOL    HW212194   4.951   4.185   4.868 -0.0281  1.7469 -0.8794
 2973SOL     OW12195  10.703   1.725  11.188 -0.0984  0.3267  0.2446
 2973SOL    HW112196  10.714   1.816  11.159  4.8520 -0.3910 -1.1772
 2973SOL    HW212197  10.678   1.678  11.109  1.8445 -0.0209 -0.2326
 2974SOL     OW12198   1.910   8.649   2.184  0.0428 -0.5628  0.0841
 2974SOL    HW112199   1.942   8.614   2.267  2.4099 -0.1009 -0.5545
 2974SOL    HW212200   1.885   8.739   2.204 -1.5710 -1.1343  0.7421
 2975SOL     OW12201   6.524   9.898   6.418  0.1861  0.1158  0.2323
 2975SOL    HW112202   6.574   9.818   6.407 -0.3039 -0.0795 -0.6861
 2975SOL    HW212203   6.517   9.935   6.330 -0.8895  0.3624  0.3989
 2976SOL     OW12204   0.238   9.520   5.146  0.0360  0.3574  0.0134
 2976SOL    HW112205   0.279   9.600   5.176  0.8444 -0.4105  1.0084
 2976SOL    HW212206   0.217   9.537   5.054  1.3106  1.2660 -0.1292
 2977SOL     OW12207   7.995   0.419  10.381  0.3530 -0.4016  0.5339
 2977SOL    HW112208   7.920   0.372  10.417 -0.8964  0.7181 -0.5070
 2977SOL    HW212209   8.053   0.434  10.457 -0.4917 -1.2295  1.3660
 2978SOL     OW12210   0.698   2.774   7.733 -0.1852 -0.1594  0.3641
 2978SOL    HW112211   0.762   2.751   7.666 -0.9606 -1.7966  0.1575
 2978SOL    HW212212   0.732   2.735   7.813 -0.2418  0.1479  0.5416
 2979SOL     OW12213   6.122   1.888  10.073  0.0863 -0.2473 -0.3086
 2979SOL    HW112214   6.143   1.885   9.980 -1.3114  0.5574 -0.6775
 2979SOL    HW212215   6.077   1.805  10.091 -1.0801  0.2764 -0.7413
 2980SOL     OW12216   3.902  10.316   7.007 -0.2779 -0.2666 -0.0963
 2980SOL    HW112217   3.984  10.275   6.980  0.1762 -0.2668  1.1957
 2980SOL    HW212218   3.918  10.410   6.995  0.1885 -0.2167  0.8226
 2981SOL     OW12219  10.081   7.090   9.208  0.3331  0.3855  0.3808
 2981SOL    HW112220  10.010   7.066   9.268  1.4325  0.6280  1.8414
 2981SOL    HW212221  10.121   7.167   9.249  1.4875  0.2015 -0.3689
 2982SOL     OW12222  11.097   5.305   8.490  0.7895  0.2935  0.2868
 2982SOL    HW112223  11.027   5.360   8.525  0.4028  0.2456 -0.3914
 2982SOL    HW212224  11.161   5.301   8.560  0.0947  0.3096  0.9392
 2983SOL     OW12225   3.786   9.319  11.321  0.1564 -0.4464 -0.9300
 2983SOL    HW112226   3.760   9.270  11.399 -0.0716  0.6377 -0.2942
 2983SOL    HW212227   3.819   9.253  11.261  1.2484 -1.2241  0.4573
 2984SOL     OW12228   6.023  11.141   0.170 -0.0013  0.2140 -0.1864
 2984SOL    HW112229   6.073  11.169   0.094 -1.8056 -0.8792 -1.8632
 2984SOL    HW212230   6.007  11.222   0.219  1.7026  0.8388 -0.5986
 2985SOL     OW12231   4.834   1.788   7.933  0.0666 -0.1728 -0.0639
 2985SOL    HW112232   4.919   1.781   7.890  0.4023 -0.2716  0.6168
 2985SOL    HW212233   4.838   1.871   7.980  0.3810 -0.9136  1.2471
 2986SOL     OW12234   7.577   5.514   0.207 -0.5127 -0.0106  0.5264
 2986SOL    HW112235   7.567   5.532   0.301 -1.1979  0.7601  0.3145
 2986SOL    HW212236   7.517   5.442   0.190  0.0401 -0.5441  0.7856
 2987SOL     OW12237   0.973   5.800  10.212  0.5260  0.2104  0.3897
 2987SOL    HW112238   1.032   5.818  10.284 -0.3395  0.2894  1.0906
 2987SOL    HW212239   0.900   5.752  10.251  0.0253  0.2862 -0.4198
 2988SOL     OW12240   6.620  11.337   1.035 -0.6603 -0.3972 -0.2885
 2988SOL    HW112241   6.633  11.354   1.128  1.4524 -1.3533 -0.3542
 2988SOL    HW212242   6.629  11.422   0.993 -2.7988  0.2546  0.4166
 2989SOL     OW12243  10.468  10.384   5.794  0.2183 -0.4126  0.3759
 2989SOL    HW112244  10.452  10.293   5.818  0.4594 -0.3261  0.8676
 2989SOL    HW212245  10.422  10.435   5.861  1.8484 -0.1652  1.3592
 2990SOL     OW12246   6.858   2.852   8.240 -0.2908 -0.2859  0.0480
 2990SOL    HW112247   6.884   2.845   8.331 -1.4866  0.5331  0.4753
 2990SOL    HW212248   6.894   2.936   8.211 -1.0630  0.0913  0.1697
 2991SOL     OW12249   9.383   2.849   8.236 -0.2515  0.2556  0.2930
 2991SOL    HW112250   9.394   2.924   8.296 -0.5616 -0.9182  1.8853
 2991SOL    HW212251   9.291   2.852   8.211  0.0540  1.2129 -0.8122
 2992SOL     OW12252   0.428   5.652   0.154 -0.0043 -0.4521  0.3769
 2992SOL    HW112253   0.380   5.710   0.213 -1.4020  0.7220 -1.8015
 2992SOL    HW212254   0.360   5.613   0.098  1.3880  0.1631 -1.8769
 2993SOL     OW12255   6.640   9.475   9.620  0.1382 -0.0242 -0.2095
 2993SOL    HW112256   6.599   9.541   9.676 -3.5251 -0.5996 -1.9466
 2993SOL    HW212257   6.649   9.398   9.675 -2.2774 -0.2098  0.0142
 2994SOL     OW12258  11.078   5.451   5.293 -0.1470  0.8248  0.0553
 2994SOL    HW112259  11.085   5.516   5.364 -0.4659 -0.4299  1.2940
 2994SOL    HW212260  10.985   5.428   5.291  0.2154 -0.9210  0.9336
 2995SOL     OW12261   8.722   0.482   9.718 -0.1422 -0.0273 -0.0801
 2995SOL    HW112262   8.707   0.533   9.638  0.9277 -0.3855 -0.5247
 2995SOL    HW212263   8.648   0.422   9.722 -1.1359  1.1693  0.1548
 2996SOL     OW12264   2.802   0.751   1.413  0.1481  0.1625 -0.1608
 2996SOL    HW112265   2.819   0.768   1.506 -1.2601 -1.2778  0.4010
 2996SOL    HW212266   2.889   0.745   1.373  0.7983 -0.4356  1.3009
 2997SOL     OW12267   6.196   5.491   1.466 -0.8557 -0.3734  0.0975
 2997SOL    HW112268   6.123   5.431   1.481  0.0056 -2.3278 -2.7473
 2997SOL    HW212269   6.274   5.440   1.488 -0.1024 -0.3538 -2.2688
 2998SOL     OW12270   2.866   9.962   3.538 -0.1114 -0.3174 -0.3362
 2998SOL    HW112271   2.811   9.893   3.576  0.2062 -0.8413 -0.8015
 2998SOL    HW212272   2.933   9.914   3.490  0.9365  0.3033  0.4662
 2999SOL     OW12273   7.526   4.484   4.172  0.3992 -0.4067 -0.1370
 2999SOL    HW112274   7.554   4.515   4.086  1.0403 -0.2430  0.1295
 2999SOL    HW212275   7.545   4.557   4.231 -4.0426  1.3169 -0.4650
 3000SOL     OW12276   1.007   2.118  10.184 -0.4354  0.0101 -0.3824
 3000SOL    HW112277   1.013   2.212  10.197 -0.4479 -0.1229  0.6866
 3000SOL    HW212278   0.937   2.090  10.243 -1.1529 -0.5308 -1.4540
 3001SOL     OW12279   9.039   8.537   8.136  0.3730  0.1820  0.0757
 3001SOL    HW112280   9.031   8.626   8.171  1.6295  0.0956  0.6441
 3001SOL    HW212281   9.125   8.535   8.096  0.0696 -0.5791 -0.5533
 3002SOL     OW12282   3.850   1.173   3.361 -0.1844  0.3015  0.4357
 3002SOL    HW112283   3.856   1.251   3.306 -2.2759 -1.4741 -2.5753
 3002SOL    HW212284   3.781   1.194   3.425 -1.1745  0.7464 -0.7395
 3003SOL     OW12285   1.064  10.443   2.861  0.8081  0.2020  0.7909
 3003SOL    HW112286   1.095  10.435   2.771  0.4885  0.0579  0.6929
 3003SOL    HW212287   1.052  10.538   2.874  3.1001  0.4530  1.4475
 3004SOL     OW12288   3.256   2.454   1.186  0.3198 -0.3817 -0.4819
 3004SOL    HW112289   3.267   2.533   1.134 -0.2173 -1.2087 -1.9208
 3004SOL    HW212290   3.183   2.473   1.245  2.5374  1.4879  1.9057
 3005SOL     OW12291   0.689   6.012   8.439  0.4282 -0.2798 -0.1883
 3005SOL    HW112292   0.596   6.030   8.422  0.4177 -0.4556 -0.3212
 3005SOL    HW212293   0.724   5.987   8.353  1.0142  1.5557 -0.5267
 3006SOL     OW12294   4.243   8.232  11.114  0.1942 -0.6865  0.4494
 3006SOL    HW112295   4.205   8.201  11.197 -2.8535  1.8857  0.2020
 3006SOL    HW212296   4.306   8.300  11.141  0.6996 -1.2533  0.7069
 3007SOL     OW12297   8.653   4.874   6.212  0.2450 -0.5658  0.0002
 3007SOL    HW112298   8.597   4.908   6.282  1.6764 -0.4683  1.1392
 3007SOL    HW212299   8.612   4.905   6.131 -0.2075  1.2436  0.8815
 3008SOL     OW12300   4.759   9.136   8.872 -0.2140 -0.5739  0.3549
 3008SOL    HW112301   4.783   9.171   8.957 -0.1867 -0.8534  0.4630
 3008SOL    HW212302   4.788   9.045   8.874  2.2352  0.0943 -0.9330
 3009SOL     OW12303   9.804   9.143   6.472 -0.1531  0.5879  0.2010
 3009SOL    HW112304   9.873   9.200   6.505 -0.2465  0.4954  0.5609
 3009SOL    HW212305   9.836   9.054   6.488  0.1748  0.5207 -0.7261
 3010SOL     OW12306   1.605   3.093   2.017 -0.0885  0.3914 -0.1363
 3010SOL    HW112307   1.537   3.030   1.992  0.8909 -0.8337  0.1502
 3010SOL    HW212308   1.683   3.063   1.969  0.5619  0.9904  0.5272
 3011SOL     OW12309   4.750  10.994  10.444  0.5383 -0.5743  0.5028
 3011SOL    HW112310   4.756  11.080  10.403  0.9088 -0.9829 -0.3262
 3011SOL    HW212311   4.835  10.982  10.487  1.1242 -1.1922 -0.7696
 3012SOL     OW12312   0.423   7.122   7.333  0.3966  0.8148 -0.0929
 3012SOL    HW112313   0.475   7.078   7.266  0.7884  2.2305 -0.7471
 3012SOL    HW212314   0.392   7.203   7.292 -0.6974  0.9543  0.9212
 3013SOL     OW12315  10.973   4.253   6.152  0.0118  0.6547 -0.1050
 3013SOL    HW112316  10.930   4.270   6.236  2.3303  4.0721  0.6016
 3013SOL    HW212317  10.909   4.281   6.086 -1.4311 -1.0655  0.4947
 3014SOL     OW12318   5.990   2.865   5.091 -0.7543  0.1121  0.4100
 3014SOL    HW112319   5.899   2.843   5.072 -1.0019  2.0625 -0.9711
 3014SOL    HW212320   5.989   2.895   5.182 -1.0497 -1.9178  1.1181
 3015SOL     OW12321   2.449   8.276   4.114  0.7589  0.3688  0.7270
 3015SOL    HW112322   2.517   8.335   4.146 -0.0463  1.8582 -0.2133
 3015SOL    HW212323   2.496   8.215   4.057  1.1969  2.0525 -0.7842
 3016SOL     OW12324   1.540   4.296   6.093 -0.5133 -0.4010  0.5036
 3016SOL    HW112325   1.575   4.207   6.099 -0.1274 -0.3026 -0.1307
 3016SOL    HW212326   1.540   4.315   5.999  0.8464  0.8341  0.7119
 3017SOL     OW12327   4.058   5.409   0.804  0.2173 -0.0074 -0.7335
 3017SOL    HW112328   4.084   5.415   0.712 -1.1164 -1.0585 -1.2062
 3017SOL    HW212329   4.133   5.369   0.847  0.2598 -0.9617 -1.6580
 3018SOL     OW12330   3.974   3.200   4.904 -0.0413 -0.4271 -0.0008
 3018SOL    HW112331   3.888   3.222   4.869 -0.7513 -2.1853  0.5174
 3018SOL    HW212332   3.957   3.128   4.965  1.6168  0.1383  1.2039
 3019SOL     OW12333   3.529   3.684   5.599 -0.4165 -0.1904 -0.1252
 3019SOL    HW112334   3.584   3.755   5.568 -0.4808  0.2445  0.7119
 3019SOL    HW212335   3.572   3.654   5.680 -0.0686 -1.5016 -0.7621
 3020SOL     OW12336   1.173   1.855   0.488 -0.1339 -0.1876  0.2050
 3020SOL    HW112337   1.252   1.840   0.437 -0.7288  0.7310 -1.0357
 3020SOL    HW212338   1.119   1.912   0.433 -0.7419  0.9725  1.9165
 3021SOL     OW12339   6.239   6.099   7.339 -0.1036 -0.1572  0.5177
 3021SOL    HW112340   6.323   6.058   7.317 -1.0607 -1.7208 -0.3735
 3021SOL    HW212341   6.263   6.188   7.365  1.7110 -0.0476 -1.2232
 3022SOL     OW12342   3.426   9.784   8.034 -0.3367 -0.2823 -0.0917
 3022SOL    HW112343   3.418   9.853   7.968  1.8592  0.0312 -0.1217
 3022SOL    HW212344   3.412   9.829   8.117 -0.2396 -0.0702 -0.1877
 3023SOL     OW12345   9.291   8.015   8.856 -0.0512  0.0973 -0.1616
 3023SOL    HW112346   9.278   7.933   8.903  1.5539  1.1021  2.2845
 3023SOL    HW212347   9.361   7.997   8.793 -0.8631 -0.7918 -0.8269
 3024SOL     OW12348  11.163   3.939   1.464  0.2818  0.3286  0.2754
 3024SOL    HW112349  11.214   3.973   1.391 -0.5275 -1.9272 -1.4583
 3024SOL    HW212350  11.224   3.883   1.512  1.2447  2.9582  2.3603
 3025SOL     OW12351   5.584   3.949   8.254 -0.2139  0.5980  0.4478
 3025SOL    HW112352   5.620   3.931   8.166  0.7053 -0.1431  0.9526
 3025SOL    HW212353   5.662   3.959   8.309 -0.7861  1.1346  1.1646
 3026SOL     OW12354  10.480   6.347   7.472 -0.2869  0.0298 -0.1790
 3026SOL    HW112355  10.565   6.373   7.507  0.3136 -1.9484 -0.0520
 3026SOL    HW212356  10.421   6.352   7.547  0.1726 -0.5216  0.2316
 3027SOL     OW12357   4.495   2.849   1.337 -0.4012  0.5393  0.5453
 3027SOL    HW112358   4.587   2.822   1.331 -0.4526  0.2112  1.1655
 3027SOL    HW212359   4.493   2.935   1.295 -0.4312 -0.7951 -2.4747
 3028SOL     OW12360  11.141  11.082  10.581  0.6033  0.5330  0.0608
 3028SOL    HW112361  11.048  11.085  10.602  1.0359  2.7395  1.9336
 3028SOL    HW212362  11.144  11.086  10.485 -1.1930 -0.3728 -0.0779
 3029SOL     OW12363   1.152   8.134   7.167  0.1440  0.4950  0.8231
 3029SOL    HW112364   1.101   8.204   7.126 -0.4084  0.6829  1.7881
 3029SOL    HW212365   1.104   8.114   7.248 -0.1005 -1.4841  0.2523
 3030SOL     OW12366   8.066   0.928   8.795 -0.4196  0.4888  1.2707
 3030SOL    HW112367   8.152   0.936   8.754 -0.4255  0.0441  1.1690
 3030SOL    HW212368   8.006   0.912   8.723 -0.3590 -0.7978  1.4876
 3031SOL     OW12369   4.922   0.717   3.118 -0.1530  0.5193  0.2221
 3031SOL    HW112370   4.829   0.704   3.095  0.1016 -1.3022  0.1015
 3031SOL    HW212371   4.968   0.651   3.067  1.3253  1.8600 -0.2541
 3032SOL     OW12372   7.765   6.950   4.790 -0.0819 -0.4790  0.5530
 3032SOL    HW112373   7.769   6.971   4.697  0.1513  0.6802  0.8177
 3032SOL    HW212374   7.762   6.854   4.792  2.2486 -0.6286 -0.5484
 3033SOL     OW12375   3.418  10.231   5.739 -0.1819 -0.3684 -0.0179
 3033SOL    HW112376   3.483  10.298   5.720 -0.7002 -0.6029 -3.0434
 3033SOL    HW212377   3.454  10.151   5.702 -0.6970 -1.2524  1.3241
 3034SOL     OW12378   4.164   3.479   2.941 -0.6034 -0.1519 -0.0862
 3034SOL    HW112379   4.102   3.427   2.991 -0.9724  1.2230  0.9666
 3034SOL    HW212380   4.246   3.474   2.992 -1.0353  1.4201  0.8723
 3035SOL     OW12381   5.904   2.525   3.781 -0.5761 -0.4185  0.0037
 3035SOL    HW112382   5.879   2.617   3.771 -0.2164 -0.2150  0.8701
 3035SOL    HW212383   5.979   2.514   3.724 -0.4615 -0.1001  0.0890
 3036SOL     OW12384  10.664   8.453   6.798  0.0992 -0.0596  0.4593
 3036SOL    HW112385  10.700   8.368   6.774 -2.3447 -0.6762 -1.4262
 3036SOL    HW212386  10.658   8.450   6.894  3.4422 -0.4401  0.7747
 3037SOL     OW12387   8.578   1.154   6.054  0.3684 -0.0350 -0.8217
 3037SOL    HW112388   8.615   1.072   6.087  0.2999  0.6378  1.0208
 3037SOL    HW212389   8.654   1.205   6.024  0.3461 -1.0600 -2.8034
 3038SOL     OW12390   0.051   8.876   4.124 -0.3671  0.5744  0.1476
 3038SOL    HW112391   0.071   8.903   4.035  0.0775  2.5456  0.7949
 3038SOL    HW212392   0.029   8.783   4.117  1.2669  0.2690 -1.7602
 3039SOL     OW12393   8.749   7.549   7.827  0.1323  0.1151 -0.0375
 3039SOL    HW112394   8.660   7.566   7.859 -0.8520 -2.0506 -1.3731
 3039SOL    HW212395   8.806   7.582   7.896 -1.7041  1.3053  1.0063
 3040SOL     OW12396   6.172   8.469   9.914 -0.4065  0.4102  0.1294
 3040SOL    HW112397   6.127   8.545   9.951  0.3101  0.0013  1.9629
 3040SOL    HW212398   6.122   8.447   9.835 -2.1351  1.2424  0.9347
 3041SOL     OW12399   9.302  10.281   3.404  0.2405 -0.2753 -0.1773
 3041SOL    HW112400   9.216  10.322   3.394  0.3896 -0.0171 -0.4512
 3041SOL    HW212401   9.355  10.322   3.335  0.4237 -0.8528 -0.3844
 3042SOL     OW12402   1.436   8.474  10.192  0.0657  0.7445 -0.2882
 3042SOL    HW112403   1.493   8.543  10.228 -0.7929  0.6545  1.3026
 3042SOL    HW212404   1.481   8.392  10.213 -0.1576  0.7117  0.0506
 3043SOL     OW12405  10.825  10.754   7.667  0.7579  0.2450  0.1470
 3043SOL    HW112406  10.865  10.686   7.613  1.5325 -0.2932  1.3588
 3043SOL    HW212407  10.891  10.775   7.732  1.3599  3.6398 -1.3565
 3044SOL     OW12408  10.111   4.075   2.330 -0.1155 -0.0489 -0.1471
 3044SOL    HW112409  10.114   3.998   2.387  1.1073 -0.1199 -0.2805
 3044SOL    HW212410  10.156   4.048   2.250 -0.1838  0.6164 -0.4183
 3045SOL     OW12411   1.721   8.558   1.726 -0.3017 -0.2110 -0.3537
 3045SOL    HW112412   1.631   8.528   1.712 -0.0586 -0.6527 -1.0324
 3045SOL    HW212413   1.764   8.543   1.642  0.4826 -0.2703  0.0540
 3046SOL     OW12414   4.627   8.346   1.032 -0.5590  0.0644  0.4790
 3046SOL    HW112415   4.581   8.330   1.115 -0.4754  1.8525  0.9107
 3046SOL    HW212416   4.699   8.404   1.055  0.0164 -0.1499 -0.7131
 3047SOL     OW12417   4.994   6.056   9.642 -0.0418  0.5097 -0.0993
 3047SOL    HW112418   5.068   6.095   9.689 -0.3940  1.2735 -0.1714
 3047SOL    HW212419   5.034   5.999   9.576  0.4773  0.6971  0.0547
 3048SOL     OW12420   7.892   6.802  11.192  0.1010 -0.2232  0.1439
 3048SOL    HW112421   7.885   6.706  11.187 -1.8486 -0.3682  3.2258
 3048SOL    HW212422   7.866   6.832  11.105 -1.8560 -2.4374 -0.1524
 3049SOL     OW12423   5.563   8.128  11.263  0.1896 -0.3886 -0.5839
 3049SOL    HW112424   5.475   8.096  11.281  0.8713 -1.8556  0.4037
 3049SOL    HW212425   5.616   8.048  11.257  1.7547  0.5060  0.6215
 3050SOL     OW12426   1.370  10.084   3.137  0.3862  0.3090  0.4013
 3050SOL    HW112427   1.400  10.027   3.066  0.7850  0.4795  0.4261
 3050SOL    HW212428   1.370  10.028   3.214  0.1071  0.1645  0.2985
 3051SOL     OW12429   6.140   9.456  10.176 -0.2560  0.1947  0.0477
 3051SOL    HW112430   6.157   9.511  10.252  1.3198  0.3744 -0.3924
 3051SOL    HW212431   6.197   9.492  10.107  0.3083 -1.5471 -0.4564
 3052SOL     OW12432   7.353   0.061   8.699  0.3612  0.5393  0.4197
 3052SOL    HW112433   7.424   0.117   8.668  0.6058 -0.4458 -0.8940
 3052SOL    HW212434   7.274   0.102   8.663  0.4055  0.7826  0.5951
 3053SOL     OW12435   0.842   0.440   1.544  0.4556 -0.6104 -0.1627
 3053SOL    HW112436   0.752   0.408   1.549  0.5873 -1.0041 -0.2787
 3053SOL    HW212437   0.892   0.367   1.508  0.6122  0.0037 -1.2636
 3054SOL     OW12438   2.343   0.796   5.118  0.3568  0.1168 -0.2428
 3054SOL    HW112439   2.427   0.816   5.077  1.4506  0.8750  2.2056
 3054SOL    HW212440   2.319   0.710   5.083  1.5103  0.4199 -1.9183
 3055SOL     OW12441   5.942   4.113   3.170  0.0787 -0.0629 -0.2819
 3055SOL    HW112442   6.017   4.087   3.224 -0.9662 -2.0110  0.3359
 3055SOL    HW212443   5.980   4.164   3.099  1.7622  0.5885  1.0251
 3056SOL     OW12444   2.794   8.009   2.110  0.6275 -0.6840 -0.1644
 3056SOL    HW112445   2.813   7.925   2.068  0.1092 -1.0057  0.2357
 3056SOL    HW212446   2.874   8.060   2.098  0.7029 -0.9922 -1.0008
 3057SOL     OW12447   5.371   7.749   0.844 -0.0311  0.1198  0.1264
 3057SOL    HW112448   5.374   7.778   0.753  0.8942  1.2415  0.4950
 3057SOL    HW212449   5.322   7.817   0.890 -0.6905 -0.5504  0.4447
 3058SOL     OW12450   0.920   1.240   9.855 -0.1014 -0.0441 -0.4223
 3058SOL    HW112451   0.922   1.167   9.792 -0.3952  1.4660 -2.2451
 3058SOL    HW212452   0.834   1.234   9.896 -0.6822  0.0913 -1.5895
 3059SOL     OW12453   4.332   2.078   2.198 -0.5960  0.2110  0.1716
 3059SOL    HW112454   4.294   2.056   2.113  0.0747  0.5460 -0.2250
 3059SOL    HW212455   4.362   2.169   2.187 -2.6426  1.1320  1.5169
 3060SOL     OW12456   4.491   3.092  10.983 -0.6864 -0.1003  0.6121
 3060SOL    HW112457   4.546   3.106  10.906  0.1644  0.8949  1.3632
 3060SOL    HW212458   4.402   3.112  10.953 -0.3675  0.2714 -0.1139
 3061SOL     OW12459   8.631   0.588   6.427  0.6592 -0.3199 -0.0108
 3061SOL    HW112460   8.666   0.677   6.427  1.9030 -0.7845  0.7029
 3061SOL    HW212461   8.630   0.563   6.335  2.8280 -0.4898 -0.0377
 3062SOL     OW12462  10.116   8.692  10.676  0.0880  0.2804  0.2438
 3062SOL    HW112463  10.190   8.655  10.724  1.1758  0.5117 -1.1782
 3062SOL    HW212464  10.040   8.674  10.731  1.0754 -0.7883  1.3141
 3063SOL     OW12465  10.905   8.856   7.198 -0.0216 -0.3961 -0.5797
 3063SOL    HW112466  10.974   8.826   7.258 -1.1163 -0.8181  0.4973
 3063SOL    HW212467  10.830   8.873   7.255 -0.9234 -0.2751 -1.7855
 3064SOL     OW12468   6.818   4.802   3.149  0.2811  0.1277  0.3443
 3064SOL    HW112469   6.881   4.814   3.078 -0.8793  0.5125 -0.6584
 3064SOL    HW212470   6.809   4.707   3.157  0.7946  0.0734  0.3298
 3065SOL     OW12471   6.179   3.032  11.175 -0.0193 -0.4456  0.2655
 3065SOL    HW112472   6.175   3.033  11.079 -1.4716 -0.2566  0.3063
 3065SOL    HW212473   6.184   3.125  11.199  0.0034 -0.4807  0.3930
 3066SOL     OW12474   5.499   1.087   0.230 -0.1056 -0.2728  0.5149
 3066SOL    HW112475   5.472   1.009   0.181  0.1817 -0.8780  1.3109
 3066SOL    HW212476   5.418   1.118   0.270 -0.2892  0.0603 -0.0939
 3067SOL     OW12477   0.636   6.321   4.517 -0.1428 -0.2363  0.2568
 3067SOL    HW112478   0.696   6.255   4.482 -0.3261 -0.3304  0.1147
 3067SOL    HW212479   0.607   6.370   4.440  0.0427  0.0534  0.3694
 3068SOL     OW12480   0.695   1.263   0.247  0.2653 -0.1043 -0.5793
 3068SOL    HW112481   0.773   1.270   0.191  0.4756 -0.5586 -0.3549
 3068SOL    HW212482   0.636   1.332   0.216  1.2677  1.0855  0.0772
 3069SOL     OW12483   7.599   6.487   2.206 -0.0010  0.2389 -0.3264
 3069SOL    HW112484   7.643   6.545   2.268 -0.5305 -0.1021  0.3918
 3069SOL    HW212485   7.574   6.411   2.259  0.1608 -0.3832 -1.1161
 3070SOL     OW12486   0.878   3.539  10.036 -0.0222  0.0285 -0.1058
 3070SOL    HW112487   0.797   3.488  10.048 -0.7831  1.3566  0.6141
 3070SOL    HW212488   0.847   3.627  10.013  1.2219  0.5639  0.2110
 3071SOL     OW12489   3.514   6.425   5.147 -0.1172 -0.3950  0.2798
 3071SOL    HW112490   3.559   6.362   5.203  0.6239 -0.7192 -0.6436
 3071SOL    HW212491   3.446   6.373   5.103 -2.1445  0.3008  2.4253
 3072SOL     OW12492   9.427   0.824  10.537  0.0478 -0.6085 -0.6234
 3072SOL    HW112493   9.354   0.854  10.590 -0.2756  3.5605 -2.9868
 3072SOL    HW212494   9.403   0.735  10.511 -3.2393 -0.1205  0.2556
 3073SOL     OW12495   0.471   6.352   9.461  0.5081 -0.6639 -0.5476
 3073SOL    HW112496   0.405   6.421   9.466  0.2015 -0.7825 -2.2068
 3073SOL    HW212497   0.462   6.304   9.543 -1.1734 -0.3894 -0.5367
 3074SOL     OW12498  10.186   2.981   5.689  0.0148 -0.2282 -0.2241
 3074SOL    HW112499  10.242   3.005   5.614  0.1894  0.6257  0.1667
 3074SOL    HW212500  10.245   2.934   5.748 -0.0880 -0.7771 -0.5545
 3075SOL     OW12501   8.404  10.525  10.354  0.0517  0.3967  0.0050
 3075SOL    HW112502   8.361  10.519  10.439  2.4857 -1.6220  1.2320
 3075SOL    HW212503   8.347  10.478  10.294 -1.4852  1.4773  0.5526
 3076SOL     OW12504   0.817   2.355   6.660  0.5236  0.3566 -1.1732
 3076SOL    HW112505   0.745   2.334   6.720  0.3601  2.9871 -0.3365
 3076SOL    HW212506   0.890   2.302   6.691  0.4509  1.6232  1.4702
 3077SOL     OW12507   5.020   3.635   0.299  0.4097 -0.5870 -0.3904
 3077SOL    HW112508   5.090   3.571   0.285 -0.0532 -0.7104 -2.4906
 3077SOL    HW212509   5.004   3.673   0.213 -0.4487  1.2239  0.4987
 3078SOL     OW12510   7.564  10.145   7.508 -0.0968 -0.2764 -0.2880
 3078SOL    HW112511   7.608  10.157   7.592 -2.6237  0.7562  1.0001
 3078SOL    HW212512   7.477  10.113   7.531 -0.5937 -0.7428 -2.5811
 3079SOL     OW12513  11.041   9.227   7.155  0.1154 -0.9307  0.4900
 3079SOL    HW112514  10.951   9.199   7.141 -0.0341 -0.5577  0.7017
 3079SOL    HW212515  11.088   9.195   7.078  0.1914 -2.7814  1.2293
 3080SOL     OW12516   0.378   9.708   2.360 -0.4863  0.0138  0.3102
 3080SOL    HW112517   0.372   9.661   2.277  0.0753  0.2506  0.1301
 3080SOL    HW212518   0.346   9.796   2.340  0.6986  0.4030  0.0642
 3081SOL     OW12519   2.747   7.200   5.118 -0.1006 -0.3834 -0.0176
 3081SOL    HW112520   2.802   7.191   5.196 -0.7612  2.2001  0.8485
 3081SOL    HW212521   2.659   7.175   5.148 -0.2385  0.0062 -0.0925
 3082SOL     OW12522   4.809   3.206   9.045 -0.0632 -0.3204  0.2066
 3082SOL    HW112523   4.735   3.149   9.067  0.2545 -1.1893 -0.9230
 3082SOL    HW212524   4.809   3.211   8.950  1.3853 -0.4029  0.1835
 3083SOL     OW12525  11.348   4.821   0.976  0.0529  0.7450 -0.1575
 3083SOL    HW112526  11.365   4.824   1.070  1.8012 -0.6917 -0.3891
 3083SOL    HW212527  11.329   4.912   0.953 -1.5627  0.9634  1.7426
 3084SOL     OW12528   0.282   3.241   6.235 -0.1664  0.1369  0.1094
 3084SOL    HW112529   0.282   3.147   6.251 -0.3260 -0.0885 -1.1026
 3084SOL    HW212530   0.254   3.250   6.144 -0.4367  1.3774  0.2962
 3085SOL     OW12531   8.600   9.413   1.635 -0.1562  0.2498  0.1451
 3085SOL    HW112532   8.637   9.371   1.557  0.4321 -0.1482  0.6237
 3085SOL    HW212533   8.626   9.355   1.708  0.7043  1.4490  0.8282
 3086SOL     OW12534   3.439   6.789   2.318  0.0973  0.8925 -0.1441
 3086SOL    HW112535   3.361   6.743   2.348  0.9596  0.2521  1.2156
 3086SOL    HW212536   3.511   6.746   2.364  1.0864  2.6613  0.0524
 3087SOL     OW12537   4.578   6.498   7.376  0.2317  0.3933 -0.2847
 3087SOL    HW112538   4.539   6.441   7.310  1.3990 -0.7773 -0.0060
 3087SOL    HW212539   4.543   6.466   7.459  0.2672  0.6139 -0.1837
 3088SOL     OW12540   2.105   8.993   3.677  0.1035 -0.8137  0.7434
 3088SOL    HW112541   2.158   9.006   3.756  0.5261 -0.3172  0.3801
 3088SOL    HW212542   2.114   8.900   3.657 -2.6024 -1.7720  3.1279
 3089SOL     OW12543   3.780   6.635   6.444  0.0438 -0.4312 -0.5795
 3089SOL    HW112544   3.749   6.696   6.377 -0.3003 -0.1580 -0.1783
 3089SOL    HW212545   3.781   6.687   6.525  1.3811 -0.4814 -0.5422
 3090SOL     OW12546   2.535   9.562   4.838 -0.6266 -0.2101  0.1869
 3090SOL    HW112547   2.561   9.629   4.775  3.2679 -0.0009  1.7063
 3090SOL    HW212548   2.524   9.483   4.786 -2.4703  0.9311 -1.2770
 3091SOL     OW12549   6.403   3.821   9.358  0.7495 -0.1208 -0.2095
 3091SOL    HW112550   6.369   3.837   9.269  2.2063  0.7938 -0.6277
 3091SOL    HW212551   6.329   3.843   9.415 -0.8864 -2.6053 -1.2097
 3092SOL     OW12552   4.109   0.474  10.812  0.4567  0.0084  0.4078
 3092SOL    HW112553   4.029   0.426  10.830 -0.7624  2.4743  2.1985
 3092SOL    HW212554   4.179   0.419  10.847 -0.7072 -1.0257  1.1758
 3093SOL     OW12555   7.126   5.324   0.356 -0.1914 -0.1791 -0.0804
 3093SOL    HW112556   7.156   5.245   0.310 -0.0034  0.3749 -0.9264
 3093SOL    HW212557   7.116   5.390   0.287 -0.3794  0.5322  0.6134
 3094SOL     OW12558   4.688   9.349   8.345 -0.4821 -0.1047  0.0369
 3094SOL    HW112559   4.692   9.253   8.346  0.0557 -0.1413 -1.4723
 3094SOL    HW212560   4.703   9.375   8.435  2.0212 -1.3944  0.0765
 3095SOL     OW12561   6.366   8.374  11.199  0.1167  0.2512 -0.0904
 3095SOL    HW112562   6.446   8.426  11.199  0.0749  0.3165  0.4946
 3095SOL    HW212563   6.342   8.368  11.106  0.5265  0.6430 -0.2262
 3096SOL     OW12564   3.938  10.872   8.101 -0.1334  0.2031 -0.1166
 3096SOL    HW112565   3.872  10.818   8.058  0.3322 -2.0993  1.8506
 3096SOL    HW212566   3.921  10.862   8.194  0.8914  2.3693  0.3626
 3097SOL     OW12567   5.144   8.772   6.158  0.7065  0.0876  1.2224
 3097SOL    HW112568   5.076   8.705   6.164 -0.3972  1.1254  0.6985
 3097SOL    HW212569   5.102   8.851   6.193  1.8899  0.5809  1.5733
 3098SOL     OW12570   1.359   0.060   5.885 -0.2404  0.2508 -0.1276
 3098SOL    HW112571   1.310   0.136   5.918 -0.4821  0.0557 -0.0348
 3098SOL    HW212572   1.334  -0.012   5.944  0.0054  0.1039 -0.2020
 3099SOL     OW12573   1.899   4.105  10.338 -0.6073 -0.1687 -0.2682
 3099SOL    HW112574   1.921   4.015  10.360  1.9940  0.2454 -0.9055
 3099SOL    HW212575   1.895   4.106  10.242 -2.2305  0.0857 -0.2206
 3100SOL     OW12576  10.308   2.939   8.830 -0.4421 -0.3844  0.4421
 3100SOL    HW112577  10.213   2.953   8.835 -0.2850  1.2515 -0.4633
 3100SOL    HW212578  10.321   2.851   8.867 -2.2055 -0.3230  1.3407
 3101SOL     OW12579  11.214   2.342   3.160 -0.2193 -0.3690  0.3565
 3101SOL    HW112580  11.125   2.372   3.139 -0.3542 -1.1048 -0.1318
 3101SOL    HW212581  11.262   2.423   3.179 -1.5976 -0.0883  3.1022
 3102SOL     OW12582   7.128   8.040   9.723 -0.4179  0.2615  0.2164
 3102SOL    HW112583   7.039   8.029   9.687 -0.6064  1.6288  0.2184
 3102SOL    HW212584   7.183   7.985   9.667 -0.9889  0.9145 -1.0454
 3103SOL     OW12585   7.586   2.258   4.459  0.2308  0.3410 -0.0101
 3103SOL    HW112586   7.619   2.220   4.541  0.7336  1.2181  0.2019
 3103SOL    HW212587   7.637   2.214   4.391 -0.8215 -1.0689  0.0527
 3104SOL     OW12588   6.131   8.215   7.290  0.5094  0.4024  0.5999
 3104SOL    HW112589   6.143   8.302   7.252 -2.0591  1.0248  1.0480
 3104SOL    HW212590   6.155   8.225   7.382 -1.2341  1.0912  1.0145
 3105SOL     OW12591   8.558   4.939   3.928 -0.4291  0.2895  0.8142
 3105SOL    HW112592   8.635   4.894   3.962 -0.9235 -1.9819 -0.8197
 3105SOL    HW212593   8.488   4.917   3.990 -0.2294  0.5576  1.1372
 3106SOL     OW12594   6.883   6.083   0.664 -0.0043 -0.0119  0.2057
 3106SOL    HW112595   6.811   6.138   0.695 -1.3721 -1.4418 -0.3157
 3106SOL    HW212596   6.889   6.012   0.727  1.5311  0.4750  0.6821
 3107SOL     OW12597   6.272  10.548  10.734 -0.3226  0.3118 -0.1939
 3107SOL    HW112598   6.209  10.538  10.806 -0.8873  0.3136 -0.6758
 3107SOL    HW212599   6.280  10.461  10.697 -2.4741  0.8067 -2.1078
 3108SOL     OW12600   5.642   4.296   9.072 -0.2339  0.2222  0.2590
 3108SOL    HW112601   5.685   4.251   8.999 -0.9315 -0.0171 -0.0172
 3108SOL    HW212602   5.567   4.240   9.093 -1.4737  1.5227 -0.4890
 3109SOL     OW12603   9.620   5.965  10.517 -0.9559 -0.0979  0.3508
 3109SOL    HW112604   9.532   5.928  10.531 -1.1753 -0.1970 -1.1230
 3109SOL    HW212605   9.606   6.059  10.511 -0.9968 -0.1332 -0.1193
 3110SOL     OW12606   3.003   7.325   2.865 -0.8980  0.0617 -0.3958
 3110SOL    HW112607   3.068   7.392   2.889  0.8573 -1.9743  0.9042
 3110SOL    HW212608   3.026   7.301   2.775 -0.9862  0.5955 -0.5649
 3111SOL     OW12609   6.400   5.258   7.183 -0.4824 -0.2734  0.5311
 3111SOL    HW112610   6.464   5.193   7.152 -0.5233  0.2674 -0.7152
 3111SOL    HW212611   6.369   5.222   7.266 -0.9881 -2.2028 -0.4205
 3112SOL     OW12612   4.895   5.795   3.759 -0.0557 -0.5228 -0.3367
 3112SOL    HW112613   4.935   5.849   3.827  0.4069 -1.6154  0.2984
 3112SOL    HW212614   4.896   5.706   3.796 -1.3310 -0.8810 -1.0876
 3113SOL     OW12615   7.832   4.988   4.746  0.1348  0.1516 -0.4634
 3113SOL    HW112616   7.855   5.041   4.671 -2.3015  0.7148 -0.8993
 3113SOL    HW212617   7.838   5.048   4.821  1.5677 -0.1470 -0.3076
 3114SOL     OW12618   8.278   5.346   4.807  0.1890  0.5869 -0.8470
 3114SOL    HW112619   8.334   5.420   4.832  0.2403  1.1723 -2.5780
 3114SOL    HW212620   8.334   5.290   4.753  0.0115 -0.5257  0.0665
 3115SOL     OW12621   4.868   7.175   4.848 -0.8303 -0.4774  0.0831
 3115SOL    HW112622   4.847   7.102   4.906 -1.2201 -1.1652 -0.9083
 3115SOL    HW212623   4.889   7.135   4.764 -0.4904  0.5170 -0.3308
 3116SOL     OW12624   5.877   3.524   8.554 -0.5074 -0.2355 -0.1007
 3116SOL    HW112625   5.965   3.527   8.592 -0.4044 -1.5040 -0.1829
 3116SOL    HW212626   5.873   3.598   8.495 -0.2618  1.1297  1.5252
 3117SOL     OW12627  10.659   3.634   1.678  0.3854 -0.0705  0.0065
 3117SOL    HW112628  10.712   3.635   1.758 -1.9005  0.6210  1.6188
 3117SOL    HW212629  10.646   3.542   1.659  1.5282 -0.2440  0.0013
 3118SOL     OW12630  10.112   9.892   9.437  0.1646 -0.4443 -0.3735
 3118SOL    HW112631  10.053   9.869   9.509 -0.5907  0.3759 -0.7026
 3118SOL    HW212632  10.132   9.808   9.395 -1.2553 -0.6893 -0.6069
 3119SOL     OW12633   1.404   8.875  11.013 -0.4192 -0.3452  0.1502
 3119SOL    HW112634   1.396   8.789  11.055 -0.1810 -0.0860  0.7365
 3119SOL    HW212635   1.440   8.931  11.081 -1.0278  0.3409 -0.0920
 3120SOL     OW12636   5.226   4.211   7.329 -0.1289 -0.1552  0.1461
 3120SOL    HW112637   5.139   4.216   7.290  0.2102  3.3732 -0.4854
 3120SOL    HW212638   5.213   4.167   7.412 -2.4274 -0.1602 -0.1609
 3121SOL     OW12639   5.810   7.177   6.065  0.3222  0.2792 -0.2503
 3121SOL    HW112640   5.735   7.227   6.034  1.0737  0.4131 -1.9359
 3121SOL    HW212641   5.830   7.117   5.994  2.7468  1.3101 -0.5483
 3122SOL     OW12642   0.167   8.602  10.814  0.1807  0.0031 -0.1634
 3122SOL    HW112643   0.132   8.550  10.742 -0.0315  0.4371 -0.3803
 3122SOL    HW212644   0.207   8.678  10.772 -1.5859  1.2292  0.2421
 3123SOL     OW12645   1.451   7.476  11.215 -0.4948  0.6194  0.4940
 3123SOL    HW112646   1.391   7.428  11.272  0.2093  1.3910  1.9562
 3123SOL    HW212647   1.435   7.568  11.237 -0.0994  0.9321 -0.4776
 3124SOL     OW12648   2.891   3.707   4.978 -0.1596 -0.7361 -0.5132
 3124SOL    HW112649   2.866   3.753   5.058  2.5300  0.5086 -0.2782
 3124SOL    HW212650   2.870   3.615   4.996 -0.1558 -0.4092  1.3948
 3125SOL     OW12651   2.817   6.026   1.742  0.0012 -0.0892  0.3203
 3125SOL    HW112652   2.880   6.051   1.810  0.6076 -1.2095  0.1928
 3125SOL    HW212653   2.755   5.968   1.786  0.2893 -0.6745 -0.0420
 3126SOL     OW12654  10.077   9.017   1.375  0.3158 -0.1734  0.6185
 3126SOL    HW112655  10.043   8.958   1.441  1.0762 -0.7170  0.5412
 3126SOL    HW212656  10.004   9.077   1.355 -0.0857 -0.3497  1.5340
 3127SOL     OW12657   2.786   4.663   6.843 -0.4361 -0.1355  1.0298
 3127SOL    HW112658   2.703   4.618   6.827 -0.0882 -0.1702 -0.8178
 3127SOL    HW212659   2.779   4.692   6.934 -3.2202  1.3316  0.4813
 3128SOL     OW12660   6.236   7.978   9.434 -0.0883  0.3261  0.5594
 3128SOL    HW112661   6.327   7.978   9.405 -0.0399 -1.8931  0.5235
 3128SOL    HW212662   6.234   7.914   9.505 -1.2811  1.6904  1.8160
 3129SOL     OW12663   4.048   8.338   8.454 -0.3433 -0.4753  0.1326
 3129SOL    HW112664   4.036   8.359   8.547  1.3020 -1.2036  0.5461
 3129SOL    HW212665   4.142   8.346   8.440 -0.3107 -2.2586 -0.9938
 3130SOL     OW12666  10.721   4.064   9.713  0.1193 -0.1823  0.4251
 3130SOL    HW112667  10.686   4.125   9.778  1.4962  0.7225  0.3432
 3130SOL    HW212668  10.812   4.051   9.738  0.6833  0.1812 -1.2983
 3131SOL     OW12669   9.063  11.325  10.928  0.3368 -0.0346  0.0564
 3131SOL    HW112670   9.147  11.297  10.963 -1.0246 -1.8908  2.0476
 3131SOL    HW212671   9.030  11.250  10.879 -0.5470  0.3671  0.0041
 3132SOL     OW12672   5.261  10.970   3.678  0.2004  0.2443 -0.2064
 3132SOL    HW112673   5.312  11.036   3.631  1.0082  0.7422  1.2822
 3132SOL    HW212674   5.326  10.925   3.733 -0.8922  0.7190  1.5474
 3133SOL     OW12675   1.967   3.777   2.356 -0.1673  0.2898 -0.0891
 3133SOL    HW112676   1.957   3.852   2.297 -1.2412 -0.0160 -0.3149
 3133SOL    HW212677   1.976   3.817   2.443  0.9448  0.7236 -0.3815
 3134SOL     OW12678   3.125   2.976   7.592 -0.7088 -0.1800  0.2722
 3134SOL    HW112679   3.061   3.022   7.646 -2.5566 -0.9231 -1.1623
 3134SOL    HW212680   3.080   2.898   7.562  0.5822 -0.3345 -1.4674
 3135SOL     OW12681   7.338   4.524   7.092 -0.6178  0.1744  0.4446
 3135SOL    HW112682   7.369   4.458   7.155 -1.8877  0.8188  1.8167
 3135SOL    HW212683   7.251   4.495   7.067 -0.1535 -0.0300 -1.0022
 3136SOL     OW12684   5.677  11.083   7.226 -0.1130 -0.6666 -0.5384
 3136SOL    HW112685   5.656  11.079   7.319  1.5614  1.4707 -0.0015
 3136SOL    HW212686   5.763  11.041   7.219  0.7956  1.1260 -0.7012
 3137SOL     OW12687   8.200   8.453   4.350 -0.0052  0.2447 -0.1760
 3137SOL    HW112688   8.239   8.440   4.263 -0.0627  0.7600 -0.2802
 3137SOL    HW212689   8.116   8.496   4.333 -0.4935 -0.5834  0.0681
 3138SOL     OW12690   0.539   0.436   0.774 -0.2097  0.3703 -0.1978
 3138SOL    HW112691   0.621   0.483   0.757 -0.8524  1.4395 -0.4146
 3138SOL    HW212692   0.478   0.503   0.801 -0.4413 -0.7031  2.1984
 3139SOL     OW12693   7.433   0.228   1.663 -0.2009 -0.4499 -0.1806
 3139SOL    HW112694   7.458   0.138   1.684 -1.1033 -1.3367 -2.5801
 3139SOL    HW212695   7.337   0.226   1.660 -0.2443  0.6636 -0.0563
 3140SOL     OW12696  11.129   6.015   0.890  0.1625 -0.3785 -0.4140
 3140SOL    HW112697  11.144   5.930   0.932  2.8410 -0.9713 -2.3023
 3140SOL    HW212698  11.202   6.069   0.921 -0.8705  0.8850 -0.1371
 3141SOL     OW12699   3.372   5.212  10.159 -0.2227 -0.4493 -0.4004
 3141SOL    HW112700   3.293   5.264  10.142 -0.0916 -0.4213 -0.9471
 3141SOL    HW212701   3.443   5.277  10.165 -0.4378 -0.3280  1.5821
 3142SOL     OW12702   7.904   4.576   4.874 -0.5280 -0.4833 -0.4907
 3142SOL    HW112703   7.822   4.564   4.922 -0.5154  0.0774 -0.3125
 3142SOL    HW212704   7.878   4.624   4.795 -0.0451  2.2655  0.8797
 3143SOL     OW12705   6.520   7.206   2.949 -0.0390  0.1043  0.4180
 3143SOL    HW112706   6.611   7.222   2.974  0.4680 -0.2257 -1.0953
 3143SOL    HW212707   6.526   7.152   2.870 -1.5661 -0.4635  0.6570
 3144SOL     OW12708   8.082   9.170   9.748 -0.9137  0.2406 -0.4347
 3144SOL    HW112709   8.068   9.082   9.713 -3.7355  0.8507 -1.0368
 3144SOL    HW212710   8.077   9.158   9.843 -1.3535 -0.2340 -0.5111
 3145SOL     OW12711   6.374   2.276   8.184  0.2699  0.0248  0.3724
 3145SOL    HW112712   6.384   2.182   8.172  1.1784 -0.1556  2.1938
 3145SOL    HW212713   6.301   2.285   8.245 -1.3075  0.6595 -1.5067
 3146SOL     OW12714   7.086  11.112   7.808 -0.0628 -0.0819 -0.3196
 3146SOL    HW112715   7.127  11.139   7.890  1.8914 -0.4094 -1.1148
 3146SOL    HW212716   7.005  11.069   7.834  1.0345 -1.1804  1.5497
 3147SOL     OW12717  10.683   8.778   7.892 -0.0254 -0.6718 -0.2374
 3147SOL    HW112718  10.763   8.831   7.892 -0.3484 -0.0524 -2.5767
 3147SOL    HW212719  10.712   8.693   7.859 -0.4152 -0.1597 -2.0345
 3148SOL     OW12720   1.365   0.605   6.532  0.3535 -0.4074  0.5629
 3148SOL    HW112721   1.354   0.700   6.525 -0.0646 -0.3553  1.8000
 3148SOL    HW212722   1.337   0.572   6.447  1.7608  0.6685 -0.3801
 3149SOL     OW12723   3.552   6.847   5.915  0.4532  0.3606 -0.0975
 3149SOL    HW112724   3.587   6.782   5.976 -0.0039  0.1807 -0.0212
 3149SOL    HW212725   3.629   6.892   5.881  0.8325 -0.7285 -0.7225
 3150SOL     OW12726   7.072   4.472   9.521 -0.4488 -1.1184  0.3326
 3150SOL    HW112727   7.145   4.523   9.557  0.1875 -0.1995 -2.0209
 3150SOL    HW212728   7.030   4.432   9.597  2.3886 -1.5460  1.8022
 3151SOL     OW12729   4.510   1.161   5.553  0.6851  0.3504 -0.3513
 3151SOL    HW112730   4.552   1.240   5.519  1.3720  0.8686  1.5543
 3151SOL    HW212731   4.544   1.090   5.499  1.7884  1.1182 -0.6945
 3152SOL     OW12732   4.015   4.041   7.837  0.8598  0.0154 -0.2402
 3152SOL    HW112733   4.082   3.975   7.818  1.1000  0.7174 -2.0581
 3152SOL    HW212734   3.959   4.042   7.759 -0.2445  0.6655  0.5280
 3153SOL     OW12735  10.995   2.734   1.249  0.3957 -0.2448 -0.0185
 3153SOL    HW112736  11.008   2.709   1.157 -1.5910  0.9840 -0.6782
 3153SOL    HW212737  10.950   2.659   1.288  2.5051 -1.3940  0.4123
 3154SOL     OW12738   2.682   7.520   5.818 -0.7104 -0.4278 -0.0044
 3154SOL    HW112739   2.650   7.584   5.755 -0.5031 -0.2217  0.0985
 3154SOL    HW212740   2.604   7.497   5.870 -1.2913 -1.9077 -1.4247
 3155SOL     OW12741   5.227   9.558   6.193 -0.2306 -0.2140 -0.2528
 3155SOL    HW112742   5.214   9.491   6.261 -0.5151 -0.4614 -0.5489
 3155SOL    HW212743   5.319   9.552   6.170 -0.0188  0.1818  0.4350
 3156SOL     OW12744   3.031   1.216   0.048 -0.7447  0.2886 -0.3869
 3156SOL    HW112745   3.119   1.252   0.037 -1.1957  1.0968 -1.5463
 3156SOL    HW212746   3.008   1.235   0.139  0.6686 -0.8710  0.2633
 3157SOL     OW12747   9.096   6.087   7.608 -0.3547  0.1013  0.4340
 3157SOL    HW112748   9.109   5.993   7.622  0.4862 -0.1412 -1.6208
 3157SOL    HW212749   9.178   6.127   7.635 -0.5106  0.1917  0.7799
 3158SOL     OW12750   1.949   3.502   5.558 -0.2800 -0.6935 -0.3606
 3158SOL    HW112751   1.915   3.457   5.634  0.6427 -0.8344 -0.0113
 3158SOL    HW212752   1.982   3.433   5.501  1.5918 -0.5014  0.3997
 3159SOL     OW12753   4.997  11.204   7.500 -0.3753  0.3343  0.2325
 3159SOL    HW112754   5.064  11.165   7.444  0.7580  1.4640  0.7509
 3159SOL    HW212755   4.921  11.213   7.444  0.7181  1.4140 -1.1409
 3160SOL     OW12756   3.505   2.460   0.235 -0.0145  0.2279 -0.4622
 3160SOL    HW112757   3.496   2.518   0.160 -0.5621  0.7023 -0.0395
 3160SOL    HW212758   3.440   2.491   0.298 -0.4630 -0.9557 -0.3039
 3161SOL     OW12759   1.450   1.524   0.346 -0.3658  0.4919  0.0474
 3161SOL    HW112760   1.359   1.528   0.316 -0.6084  0.5312  0.7708
 3161SOL    HW212761   1.459   1.601   0.403 -0.3105 -0.2790  1.1172
 3162SOL     OW12762  10.126   7.896   4.557 -0.6667  0.0295  0.0262
 3162SOL    HW112763  10.213   7.927   4.582 -1.4213  1.0681  1.5015
 3162SOL    HW212764  10.093   7.851   4.635 -0.6198 -2.3371 -1.2410
 3163SOL     OW12765   3.976   0.619  11.064  0.4530 -0.0233  0.2654
 3163SOL    HW112766   3.995   0.562  11.139  1.2865 -0.9656 -0.6356
 3163SOL    HW212767   4.056   0.618  11.012 -0.7326 -1.0072 -1.6614
 3164SOL     OW12768   4.017   7.845   7.424  0.2845  0.1134  0.1624
 3164SOL    HW112769   4.066   7.835   7.506  1.4793  2.5914 -0.1582
 3164SOL    HW212770   4.071   7.904   7.371 -0.1412 -1.8919 -2.7205
 3165SOL     OW12771   3.553   8.651   6.556  0.2369  0.0811  0.4512
 3165SOL    HW112772   3.584   8.562   6.572  2.3455  1.2532  3.7774
 3165SOL    HW212773   3.630   8.706   6.567 -0.9160  2.3968 -1.8407
 3166SOL     OW12774   2.297   2.385   5.637  0.3269 -0.2144  0.2281
 3166SOL    HW112775   2.342   2.451   5.689 -0.5404  0.5204  0.0916
 3166SOL    HW212776   2.257   2.327   5.701 -0.3105  0.3886  0.3935
 3167SOL     OW12777   1.587   2.371   0.796  0.4007  0.3550  0.2075
 3167SOL    HW112778   1.670   2.416   0.789  1.8073 -2.3387 -3.1983
 3167SOL    HW212779   1.523   2.432   0.758  1.4295  1.1579 -0.2810
 3168SOL     OW12780   8.604   3.057   6.817  0.5953  0.1196  0.2409
 3168SOL    HW112781   8.584   3.078   6.908  1.7894 -2.9373  1.3355
 3168SOL    HW212782   8.583   2.964   6.808  1.7468  0.0088 -2.2282
 3169SOL     OW12783   0.332   6.440  10.366 -0.0348 -0.3288 -0.0904
 3169SOL    HW112784   0.304   6.349  10.378  0.0813 -0.4260 -0.5096
 3169SOL    HW212785   0.398   6.435  10.297 -1.2448  0.2720 -1.3453
 3170SOL     OW12786   9.328   1.832   2.047 -0.0906 -0.0787 -0.5780
 3170SOL    HW112787   9.248   1.860   2.092  0.8581  0.6394  0.7585
 3170SOL    HW212788   9.355   1.909   1.997 -0.2444 -0.3268 -1.0439
 3171SOL     OW12789   8.944   4.152  10.546 -0.0707  0.0697 -0.2846
 3171SOL    HW112790   8.990   4.095  10.606  1.7963  1.3248 -0.4578
 3171SOL    HW212791   8.885   4.204  10.601  1.1254  0.7286  0.4007
 3172SOL     OW12792   2.917   5.142   4.162 -0.4611  0.2271  0.0222
 3172SOL    HW112793   2.857   5.152   4.236  1.0712  2.2355  1.1046
 3172SOL    HW212794   2.878   5.195   4.092 -0.4620  0.7091  0.3821
 3173SOL     OW12795   2.677   5.985   8.231 -0.1147 -0.3967 -0.0652
 3173SOL    HW112796   2.742   5.958   8.296 -2.2224 -2.1976  1.4289
 3173SOL    HW212797   2.605   6.020   8.282 -1.1803 -0.3550 -1.5377
 3174SOL     OW12798   6.894   5.017  10.428  0.1818 -0.4700  0.5327
 3174SOL    HW112799   6.871   5.108  10.405 -1.9281 -0.7072  1.4748
 3174SOL    HW212800   6.983   5.023  10.463  0.1443  1.2250  0.4335
 3175SOL     OW12801   4.592   2.545  11.049  0.0190 -0.6889 -0.1331
 3175SOL    HW112802   4.602   2.637  11.025 -0.4611 -0.6072 -0.0320
 3175SOL    HW212803   4.656   2.531  11.118  0.0421 -0.4135 -0.0976
 3176SOL     OW12804   9.724   1.747   8.446  0.1978 -0.3494  0.3997
 3176SOL    HW112805   9.690   1.673   8.497  0.0862 -0.8020 -0.3159
 3176SOL    HW212806   9.734   1.817   8.510 -0.0728 -0.8625  1.0195
 3177SOL     OW12807   9.200   3.186   6.950 -0.5365 -0.1377  0.8196
 3177SOL    HW112808   9.175   3.261   6.896 -1.5704  0.4842  2.0971
 3177SOL    HW212809   9.239   3.124   6.888 -0.5686  1.0311 -0.4276
 3178SOL     OW12810   6.589   1.993   7.244 -0.0821 -0.0301  0.0428
 3178SOL    HW112811   6.571   2.077   7.202  1.7484  0.3491 -0.0518
 3178SOL    HW212812   6.550   2.001   7.332 -0.5252  0.6437 -0.2103
 3179SOL     OW12813  10.792   0.191   4.355 -0.0078 -0.1874 -0.2068
 3179SOL    HW112814  10.781   0.147   4.271 -1.0339 -1.2355  0.4310
 3179SOL    HW212815  10.860   0.141   4.400 -2.5208 -2.5064  1.2993
 3180SOL     OW12816   4.275   1.305   5.623 -0.1389  0.0036 -0.4108
 3180SOL    HW112817   4.341   1.240   5.598 -1.1026 -0.5953 -1.4783
 3180SOL    HW212818   4.304   1.386   5.582  1.5629  0.5625  1.6559
 3181SOL     OW12819   9.660   9.727   9.143 -0.4053  0.0962 -0.4374
 3181SOL    HW112820   9.635   9.818   9.125 -1.8754 -0.2416 -0.2991
 3181SOL    HW212821   9.622   9.709   9.229  1.2215 -0.1855  0.2465
 3182SOL     OW12822   1.841   1.970   9.242 -0.4158  0.3167 -0.0121
 3182SOL    HW112823   1.851   1.906   9.313  0.7503  1.8988  1.3616
 3182SOL    HW212824   1.783   2.037   9.279 -1.7717  0.0211 -1.4842
 3183SOL     OW12825   4.600   6.209   7.772 -0.4698  0.1566 -0.6185
 3183SOL    HW112826   4.547   6.168   7.840 -1.0853 -2.2102 -2.3817
 3183SOL    HW212827   4.679   6.154   7.767  0.3738  1.3291 -0.6723
 3184SOL     OW12828   0.514   0.459   3.415  0.3159  0.0454  0.0500
 3184SOL    HW112829   0.534   0.552   3.425 -1.1733  0.3366  0.5562
 3184SOL    HW212830   0.584   0.425   3.358  0.1034  1.7795 -1.3351
 3185SOL     OW12831   7.705  10.306   6.085 -0.4640  0.0340  0.8619
 3185SOL    HW112832   7.785  10.254   6.079  0.0414  0.6787  1.6502
 3185SOL    HW212833   7.651  10.277   6.012  0.5564 -0.3083  0.2271
 3186SOL     OW12834  11.323   1.035  10.597 -0.1960 -0.4399 -0.1813
 3186SOL    HW112835  11.327   0.955  10.651  0.8017 -1.0376 -1.1021
 3186SOL    HW212836  11.398   1.087  10.626 -1.4000  0.6555  1.1052
 3187SOL     OW12837   7.961   8.980   1.161  0.1219  0.4927 -0.3598
 3187SOL    HW112838   8.002   9.027   1.088 -0.5147 -0.1549 -1.1637
 3187SOL    HW212839   8.028   8.918   1.190  0.5300  1.0442 -0.1004
 3188SOL     OW12840   0.953   8.419   5.695  0.6174 -0.4593  1.2122
 3188SOL    HW112841   1.033   8.466   5.675  0.9263 -0.5589  2.1469
 3188SOL    HW212842   0.976   8.326   5.685  0.6674 -0.4940  1.6213
 3189SOL     OW12843   1.361   5.428   0.367  0.2062  0.3811 -0.1896
 3189SOL    HW112844   1.306   5.399   0.295 -1.1863  0.6189  0.7455
 3189SOL    HW212845   1.341   5.521   0.376 -1.9683 -0.2049  2.3817
 3190SOL     OW12846   0.636   9.311   7.455  0.5358 -0.2657 -0.2609
 3190SOL    HW112847   0.687   9.386   7.486  1.1131 -0.2869 -1.1313
 3190SOL    HW212848   0.641   9.316   7.359 -1.3137 -0.1183 -0.3870
 3191SOL     OW12849   5.039   8.051   1.777  0.2754 -0.5939  0.5859
 3191SOL    HW112850   5.072   8.056   1.866 -1.0647  0.4483  1.0479
 3191SOL    HW212851   4.971   7.983   1.780 -0.5710  0.2318  0.6537
 3192SOL     OW12852  11.186   9.282   3.708  0.3548 -0.6446 -0.2546
 3192SOL    HW112853  11.125   9.354   3.693  0.6819 -0.5849 -1.3607
 3192SOL    HW212854  11.234   9.308   3.787  0.2275  0.1812 -0.4365
 3193SOL     OW12855   9.444   2.905   6.080 -0.2998  0.1639 -0.2510
 3193SOL    HW112856   9.512   2.942   6.137  0.6616 -0.6650 -0.8345
 3193SOL    HW212857   9.448   2.958   6.000 -0.8528  0.5745 -0.0180
 3194SOL     OW12858   9.214   9.641   8.160  0.4227  0.9794  0.2797
 3194SOL    HW112859   9.307   9.651   8.182  0.4631 -0.3149  0.7917
 3194SOL    HW212860   9.211   9.565   8.103 -0.2311  1.5684 -0.4959
 3195SOL     OW12861  10.112   7.028   2.781 -0.3751 -0.0806  0.3180
 3195SOL    HW112862  10.139   7.036   2.873 -1.7818  0.5808  0.7010
 3195SOL    HW212863  10.091   7.117   2.754  0.1229 -0.2597 -0.6859
 3196SOL     OW12864   6.311   5.417  11.039  0.4134  0.0240  0.1518
 3196SOL    HW112865   6.300   5.389  11.130 -0.8086 -2.6309 -0.7177
 3196SOL    HW212866   6.245   5.485  11.026 -0.7366 -0.9295  0.7743
 3197SOL     OW12867   8.833   2.868   8.847 -0.6898 -0.0450  0.0092
 3197SOL    HW112868   8.792   2.814   8.780 -2.0946  1.2468 -0.2277
 3197SOL    HW212869   8.759   2.908   8.894  0.2942  0.8749  0.8253
 3198SOL     OW12870   2.956   7.554  10.146  0.5094  0.5570  1.1762
 3198SOL    HW112871   2.863   7.534  10.145  0.5032  0.5063  1.8471
 3198SOL    HW212872   2.997   7.485  10.095 -0.0570  2.0166 -1.4247
 3199SOL     OW12873   3.205   8.279   3.581 -0.2171 -0.1553  0.2756
 3199SOL    HW112874   3.293   8.265   3.545 -0.1342 -0.5081  0.6084
 3199SOL    HW212875   3.148   8.275   3.504 -0.0847 -1.3662  0.2084
 3200SOL     OW12876   3.622   9.912   0.147  0.2544 -0.4924  0.6049
 3200SOL    HW112877   3.560   9.984   0.140  0.9245 -0.0054 -0.5288
 3200SOL    HW212878   3.567   9.835   0.161 -0.7500 -0.3092 -1.8495
 3201SOL     OW12879   9.560   5.779   5.790  0.3246 -0.0538 -0.2697
 3201SOL    HW112880   9.504   5.724   5.845 -0.6398  0.2053 -0.9513
 3201SOL    HW212881   9.572   5.860   5.841  0.9896 -0.5267  0.3407
 3202SOL     OW12882   5.549   3.833   7.094 -0.1626 -0.0486  0.1367
 3202SOL    HW112883   5.538   3.740   7.075  0.2027 -0.6522  2.6475
 3202SOL    HW212884   5.460   3.867   7.100 -0.3020 -0.3755 -0.0446
 3203SOL     OW12885   2.544  10.910   4.725  0.2883  0.1938 -0.3833
 3203SOL    HW112886   2.472  10.973   4.717 -0.0080 -0.1700 -0.6151
 3203SOL    HW212887   2.512  10.831   4.682 -0.0108 -0.7014  1.3964
 3204SOL     OW12888   2.309   5.036   8.509  0.1637  0.0837  0.1180
 3204SOL    HW112889   2.219   5.057   8.481 -0.1030 -0.5200  0.5149
 3204SOL    HW212890   2.299   5.003   8.598  0.7364 -0.4084 -0.0017
 3205SOL     OW12891   0.337  10.220   8.184 -0.0205 -0.0487  0.2011
 3205SOL    HW112892   0.257  10.245   8.138 -0.4349 -0.1840  0.8247
 3205SOL    HW212893   0.404  10.217   8.117 -0.7906 -1.1106 -0.5505
 3206SOL     OW12894   2.016   6.169   8.420  0.1332  0.0374 -0.0640
 3206SOL    HW112895   1.962   6.231   8.371  2.0689 -0.3527 -2.9528
 3206SOL    HW212896   2.051   6.220   8.494 -2.8866  0.6609  1.0567
 3207SOL     OW12897   7.256   5.371   4.503 -0.6264  0.4606 -0.1381
 3207SOL    HW112898   7.332   5.339   4.454 -0.2319  0.5745  0.3871
 3207SOL    HW212899   7.182   5.322   4.468 -0.3989  0.7460 -1.0502
 3208SOL     OW12900  10.691   0.122   0.378  0.7329 -0.5903 -0.3156
 3208SOL    HW112901  10.708   0.164   0.294 -0.8462  1.4251  0.2729
 3208SOL    HW212902  10.614   0.167   0.412  0.3735 -2.4269  1.5135
 3209SOL     OW12903   8.332  10.145  11.041  0.4396 -0.3783  0.0124
 3209SOL    HW112904   8.254  10.141  10.985  0.2545 -0.8669  0.2976
 3209SOL    HW212905   8.317  10.219  11.099  0.7287  0.2657 -0.7231
 3210SOL     OW12906   1.001   8.761   1.410 -0.1159 -0.2402 -0.1439
 3210SOL    HW112907   1.006   8.853   1.436  1.6224 -0.5656  0.7964
 3210SOL    HW212908   1.091   8.729   1.415 -0.3259 -1.4595 -2.5670
 3211SOL     OW12909   4.405   2.461   0.228  0.1539 -0.4747  0.0488
 3211SOL    HW112910   4.385   2.457   0.134  0.1412 -1.2122  0.0820
 3211SOL    HW212911   4.319   2.460   0.271  0.1552 -3.2062  0.1733
 3212SOL     OW12912   9.859   9.863   8.715  0.4968 -0.0060 -0.6667
 3212SOL    HW112913   9.895   9.798   8.776  0.1718 -0.4560 -0.9483
 3212SOL    HW212914   9.817   9.811   8.647 -1.2746  0.4803 -0.0143
 3213SOL     OW12915   4.176   0.206   1.941 -0.4229  0.2163  0.3553
 3213SOL    HW112916   4.113   0.277   1.952  0.2918  0.9877 -0.4598
 3213SOL    HW212917   4.162   0.151   2.019 -0.3096  1.7726  1.5388
 3214SOL     OW12918   1.853   9.585   5.607  0.2837 -0.3368  0.3535
 3214SOL    HW112919   1.815   9.673   5.609 -0.7710 -0.6761 -1.7681
 3214SOL    HW212920   1.887   9.577   5.518  0.3635 -2.0965  0.5183
 3215SOL     OW12921   4.502   5.868   6.095 -0.0770  0.5963  0.2251
 3215SOL    HW112922   4.476   5.787   6.138  0.3279 -0.6983 -1.8039
 3215SOL    HW212923   4.420   5.906   6.063 -0.0470 -1.7099 -3.1694
 3216SOL     OW12924   1.645   9.987   3.105 -0.2727 -0.0540 -0.1882
 3216SOL    HW112925   1.713  10.033   3.154 -0.1016  0.1158 -0.5807
 3216SOL    HW212926   1.642  10.032   3.021 -0.3438 -0.5386 -0.4483
 3217SOL     OW12927  10.662   5.957   4.148 -0.0534  0.1007 -0.1787
 3217SOL    HW112928  10.714   6.037   4.139  0.2824 -0.1057 -0.0830
 3217SOL    HW212929  10.725   5.886   4.138 -0.4168 -0.1569 -0.6677
 3218SOL     OW12930   7.647   2.705  10.776  0.2875  0.3961  0.1458
 3218SOL    HW112931   7.595   2.763  10.720 -0.8501 -0.2935  0.4525
 3218SOL    HW212932   7.673   2.759  10.850 -1.5925  0.3220  0.9293
 3219SOL     OW12933   3.647   7.961  11.313 -0.1774  0.1868 -0.2042
 3219SOL    HW112934   3.680   7.928  11.397  0.5182 -1.3900 -1.0588
 3219SOL    HW212935   3.719   8.014  11.278  0.2346 -0.6151 -0.5978
 3220SOL     OW12936   9.147   6.739   0.959  0.4780  0.5609  0.2035
 3220SOL    HW112937   9.206   6.693   1.018 -0.2083  0.3197  0.7223
 3220SOL    HW212938   9.062   6.696   0.971  0.0400  1.3292 -0.0185
 3221SOL     OW12939   0.095   8.986   8.284  0.4776  0.1675  0.3938
 3221SOL    HW112940   0.076   9.009   8.375  2.1909  2.8036  0.1842
 3221SOL    HW212941   0.114   8.892   8.286  0.0435  0.0839  2.6486
 3222SOL     OW12942   2.419   4.618   5.287  0.3218  0.5801  0.5940
 3222SOL    HW112943   2.445   4.704   5.252  1.3130 -0.0722 -0.3405
 3222SOL    HW212944   2.361   4.581   5.220 -0.6162  0.7608  1.2842
 3223SOL     OW12945   8.854   7.525   2.339  0.0538  0.1123 -0.5632
 3223SOL    HW112946   8.802   7.470   2.397 -0.5133 -0.1227 -1.2763
 3223SOL    HW212947   8.794   7.593   2.311  0.1792 -0.0587 -1.2594
 3224SOL     OW12948   9.560   7.815   3.390 -0.2094 -0.1010 -0.0057
 3224SOL    HW112949   9.653   7.838   3.394 -0.0181 -0.9367  0.8177
 3224SOL    HW212950   9.546   7.761   3.468 -1.6946  1.0850  0.5869
 3225SOL     OW12951   0.221   3.950   1.404  0.2264 -0.5388  0.0445
 3225SOL    HW112952   0.252   3.867   1.439  0.8331  0.0596  0.9915
 3225SOL    HW212953   0.167   3.987   1.473  1.2274  0.5435  0.2850
 3226SOL     OW12954   1.190   6.753   8.296 -0.1004  0.3102  0.2481
 3226SOL    HW112955   1.189   6.666   8.338 -3.2321 -0.1054 -0.4481
 3226SOL    HW212956   1.244   6.741   8.218 -0.4474 -1.0043  0.1859
 3227SOL     OW12957   4.032  10.596   1.579 -0.5132 -0.3067 -0.0845
 3227SOL    HW112958   4.076  10.591   1.494 -1.6189  1.7223 -0.8414
 3227SOL    HW212959   4.102  10.582   1.643  0.6210 -0.3500 -1.2910
 3228SOL     OW12960   6.693   5.678   2.061 -0.2147  0.7370 -0.2552
 3228SOL    HW112961   6.622   5.707   2.118  0.3579  2.4125 -0.3271
 3228SOL    HW212962   6.669   5.589   2.035 -1.3943  0.6193  1.1160
 3229SOL     OW12963   7.101   6.312   6.315 -0.1862 -0.0740  0.3698
 3229SOL    HW112964   7.127   6.293   6.405  0.6284 -1.6337 -0.1638
 3229SOL    HW212965   7.170   6.370   6.282 -0.6817  0.8032  0.8493
 3230SOL     OW12966   8.955   1.232   8.144  0.1508 -0.5204 -0.0102
 3230SOL    HW112967   8.959   1.310   8.199  0.4377  0.6744 -1.6362
 3230SOL    HW212968   8.957   1.266   8.054  0.8945 -2.4321 -0.7723
 3231SOL     OW12969   4.650   6.981   0.063  0.7988 -0.0170 -0.3468
 3231SOL    HW112970   4.631   7.075   0.065 -0.0057 -0.1471 -1.1771
 3231SOL    HW212971   4.745   6.976   0.049  1.0686  0.6552  1.0455
 3232SOL     OW12972   1.144   9.564   8.350  0.1221 -0.3558  0.6195
 3232SOL    HW112973   1.111   9.475   8.336  0.8501 -0.2877 -2.3029
 3232SOL    HW212974   1.070   9.620   8.329  0.4475 -0.2784 -0.3851
 3233SOL     OW12975   5.732   1.723   6.903  0.0611  0.1860  1.0444
 3233SOL    HW112976   5.638   1.735   6.888  0.2316  0.6002  0.2483
 3233SOL    HW212977   5.739   1.635   6.940 -0.2733 -1.9580 -3.3442
 3234SOL     OW12978   1.785   3.957   3.058  0.4122 -0.7058 -0.4139
 3234SOL    HW112979   1.779   3.868   3.093  1.3088 -0.5935  0.0450
 3234SOL    HW212980   1.696   3.977   3.030  0.1796 -1.7152 -0.4407
 3235SOL     OW12981   8.543   2.933   3.148  0.0856  0.4828  0.1429
 3235SOL    HW112982   8.536   2.856   3.091  1.8835  0.0309  0.4501
 3235SOL    HW212983   8.543   3.007   3.087  2.2966 -0.0101 -0.5456
 3236SOL     OW12984   2.070   9.061  10.969 -0.0927 -0.7179 -0.2185
 3236SOL    HW112985   2.115   8.977  10.973 -0.8222 -1.1822 -1.4577
 3236SOL    HW212986   2.062   9.080  10.876  0.2726  0.8533  0.0270
 3237SOL     OW12987   0.726   4.617   8.177 -0.3079 -0.1634  0.7408
 3237SOL    HW112988   0.694   4.535   8.141 -3.2597 -0.1003  2.8360
 3237SOL    HW212989   0.766   4.592   8.261 -0.2105  0.4049  0.8703
 3238SOL     OW12990  10.220   2.953   9.978  0.2640  0.1001  0.3871
 3238SOL    HW112991  10.183   3.040   9.991 -0.2739 -0.3653  2.1068
 3238SOL    HW212992  10.200   2.905  10.058  1.5603 -1.2590 -0.0510
 3239SOL     OW12993  11.022   8.339   8.889 -0.0272  0.0722 -0.2723
 3239SOL    HW112994  11.039   8.413   8.830 -1.8880  0.1315 -0.7920
 3239SOL    HW212995  11.089   8.275   8.867 -0.9100 -0.0963 -2.8195
 3240SOL     OW12996   9.691   2.192   3.633  0.2018  0.2429 -0.1569
 3240SOL    HW112997   9.757   2.212   3.699 -0.3504 -0.2457  0.5499
 3240SOL    HW212998   9.719   2.243   3.556 -0.5758  2.9949  1.2310
 3241SOL     OW12999   0.876   4.296   7.475 -0.1346  0.0725  0.7688
 3241SOL    HW113000   0.902   4.388   7.464  0.9508 -0.3016 -0.0800
 3241SOL    HW213001   0.781   4.296   7.463 -0.0256  0.9568 -0.3112
 3242SOL     OW13002   9.371   9.176   5.881 -0.0774 -0.2024  0.0882
 3242SOL    HW113003   9.384   9.109   5.815  1.2176 -0.5352  0.6489
 3242SOL    HW213004   9.279   9.201   5.872 -0.9641 -2.9234  0.7013
 3243SOL     OW13005   4.119  11.216   0.671 -0.0453 -0.1992 -0.5311
 3243SOL    HW113006   4.125  11.123   0.647 -0.1456  0.1273 -1.9370
 3243SOL    HW213007   4.198  11.233   0.722 -1.0629 -1.5414  1.6000
 3244SOL     OW13008  10.841   2.901  10.005  0.0779  0.1425 -0.7575
 3244SOL    HW113009  10.798   2.981  10.035  0.0103 -0.1776  0.0074
 3244SOL    HW213010  10.798   2.831  10.053  0.6003 -0.2925 -0.9164
 3245SOL     OW13011  10.355   8.588   3.688  0.5831  0.5314 -0.2899
 3245SOL    HW113012  10.383   8.537   3.612  0.1317  1.8354 -1.3741
 3245SOL    HW213013  10.429   8.582   3.749 -0.2660 -3.1271  0.5858
 3246SOL     OW13014   6.567   4.317   2.109 -0.1001 -0.3331 -0.0145
 3246SOL    HW113015   6.650   4.280   2.140  1.1159  1.1669 -1.3230
 3246SOL    HW213016   6.533   4.252   2.048  0.8931 -0.3164 -0.6124
 3247SOL     OW13017   8.990   9.835  10.504  0.6971 -0.4924 -0.2346
 3247SOL    HW113018   8.921   9.846  10.568 -0.2981 -0.0907 -1.3333
 3247SOL    HW213019   9.071   9.859  10.550 -0.1322  0.9364  0.5328
 3248SOL     OW13020   8.667   9.868  10.372 -0.2376  0.0971 -0.1081
 3248SOL    HW113021   8.713   9.887  10.454 -1.1229  1.0550  0.1838
 3248SOL    HW213022   8.720   9.911  10.305 -0.8184  1.4203  0.2571
 3249SOL     OW13023   7.197  10.693   3.522  0.5266 -0.3277  0.2693
 3249SOL    HW113024   7.236  10.751   3.587  0.3631 -0.1016  0.1673
 3249SOL    HW213025   7.104  10.716   3.521  0.3240 -1.0640  0.7243
 3250SOL     OW13026   4.405   5.764   3.759  0.2901  0.0135 -0.2103
 3250SOL    HW113027   4.389   5.829   3.827 -1.7917  0.1729 -0.7884
 3250SOL    HW213028   4.500   5.767   3.745  0.4328  1.8295  0.8260
 3251SOL     OW13029  10.360  10.536   8.580  0.5770 -0.8374 -0.1653
 3251SOL    HW113030  10.342  10.455   8.627  1.3463 -0.6160  0.5445
 3251SOL    HW213031  10.278  10.585   8.585  0.5892 -0.8871  0.8384
 3252SOL     OW13032   3.517  11.091   5.218 -0.2090  0.6970  0.1620
 3252SOL    HW113033   3.566  11.125   5.293 -0.2441  1.6014 -0.2126
 3252SOL    HW213034   3.555  11.136   5.143  0.2689 -0.6930 -0.4459
 3253SOL     OW13035   3.140   5.172   0.757 -0.6845 -0.3076 -0.1704
 3253SOL    HW113036   3.068   5.203   0.703 -1.0544 -1.7065 -0.5182
 3253SOL    HW213037   3.181   5.251   0.790 -2.7263  0.5303  0.5136
 3254SOL     OW13038   2.695   2.544   5.244 -0.0783  0.3160 -0.2882
 3254SOL    HW113039   2.683   2.564   5.336 -1.4142 -0.7466 -0.1984
 3254SOL    HW213040   2.644   2.610   5.198 -0.3594  0.1568 -0.2076
 3255SOL     OW13041   7.092   0.074   5.964 -0.2166 -0.2577  0.2691
 3255SOL    HW113042   7.098   0.094   6.057  2.0740 -2.7282  0.7662
 3255SOL    HW213043   7.038  -0.004   5.959  1.5405 -1.5065 -0.1579
 3256SOL     OW13044   3.713  10.684   0.992 -0.2337  0.2791 -0.3697
 3256SOL    HW113045   3.755  10.761   0.955  0.6555 -1.0046 -2.2019
 3256SOL    HW213046   3.634  10.717   1.034  0.3326  2.2205 -0.7468
 3257SOL     OW13047  11.145   2.388   3.639  0.0619 -0.4973 -0.3438
 3257SOL    HW113048  11.147   2.469   3.589 -1.8346 -1.1560 -1.6082
 3257SOL    HW213049  11.118   2.321   3.576  2.0922 -2.2435  0.5311
 3258SOL     OW13050   2.881   3.658  11.370 -0.0695  0.5372  0.4713
 3258SOL    HW113051   2.945   3.642  11.300 -1.7821  0.1434 -1.0676
 3258SOL    HW213052   2.851   3.747  11.355 -0.3145  0.5176  0.8315
 3259SOL     OW13053   0.940   6.395   9.274  0.3113 -0.3290 -0.5401
 3259SOL    HW113054   0.934   6.478   9.322 -0.6259  1.8658 -4.0672
 3259SOL    HW213055   0.852   6.358   9.279  0.5184 -0.7403  0.3293
 3260SOL     OW13056   3.627   6.364   2.603  0.2001  0.4661  0.0103
 3260SOL    HW113057   3.622   6.368   2.508  1.8560  1.4830 -0.0724
 3260SOL    HW213058   3.700   6.422   2.626 -0.3062  0.4165  1.9130
 3261SOL     OW13059   8.923   2.743   1.138  0.4787  0.3411  0.0984
 3261SOL    HW113060   8.837   2.767   1.103  0.3694 -0.1851 -0.0121
 3261SOL    HW213061   8.923   2.778   1.227 -0.4570 -0.9274  0.6381
 3262SOL     OW13062   8.180   4.682   2.855  0.5475  0.6931  0.8543
 3262SOL    HW113063   8.237   4.614   2.818 -1.1690 -0.6533  0.5536
 3262SOL    HW213064   8.121   4.705   2.783  0.7518  2.1502  1.1233
 3263SOL     OW13065   5.304   1.348   9.839 -0.9644  0.9231 -0.3860
 3263SOL    HW113066   5.292   1.380   9.929  0.3742  1.3013 -0.3257
 3263SOL    HW213067   5.254   1.409   9.785 -0.1376  1.9089 -0.0724
 3264SOL     OW13068   8.034   2.259   5.490 -0.0926  0.3934  0.2104
 3264SOL    HW113069   7.939   2.265   5.479 -0.1260 -1.0037 -0.5037
 3264SOL    HW213070   8.055   2.327   5.554 -1.3735  1.6681 -0.6570
 3265SOL     OW13071   6.003   4.258  10.718 -0.6139  0.2414  0.5096
 3265SOL    HW113072   5.929   4.308  10.682  0.1553  1.6963  0.8437
 3265SOL    HW213073   6.042   4.215  10.642 -0.9674  0.6109  0.1076
 3266SOL     OW13074   2.575   9.965  10.935 -0.4296  0.3586 -0.3592
 3266SOL    HW113075   2.498   9.919  10.901 -0.6648  0.0832  0.5241
 3266SOL    HW213076   2.649   9.921  10.892 -0.6554 -0.7881  0.3682
 3267SOL     OW13077   9.811   1.881   1.056  0.4806 -0.4291  0.2884
 3267SOL    HW113078   9.815   1.976   1.049  0.9805 -0.3340  1.5710
 3267SOL    HW213079   9.848   1.849   0.974  1.1052  0.4808  0.2090
 3268SOL     OW13080   7.749   7.843   1.428 -0.1389 -0.3320  0.1380
 3268SOL    HW113081   7.829   7.833   1.377 -1.2293 -2.1873 -1.3477
 3268SOL    HW213082   7.684   7.790   1.381 -2.7289  2.4313  0.3132
 3269SOL     OW13083   3.647   3.267   8.863 -0.6301  0.1957  0.4379
 3269SOL    HW113084   3.657   3.308   8.778 -1.8472 -1.7702 -0.7336
 3269SOL    HW213085   3.567   3.214   8.855  1.0271 -2.7114  1.6627
 3270SOL     OW13086   7.245   2.644  11.067  0.4148  0.1086  0.6022
 3270SOL    HW113087   7.155   2.658  11.037  0.6111 -0.2656 -0.1794
 3270SOL    HW213088   7.263   2.552  11.049  1.3734  0.4790 -0.4124
 3271SOL     OW13089   8.677   7.971  10.345 -0.2446  0.4491  0.4238
 3271SOL    HW113090   8.602   8.000  10.293  1.1217  1.7173 -0.9140
 3271SOL    HW213091   8.722   8.052  10.370  1.3654 -0.3174  0.1327
 3272SOL     OW13092   0.471   3.104   3.914 -1.0497  0.6859 -0.6737
 3272SOL    HW113093   0.467   3.027   3.857 -0.5405 -0.8047  1.1946
 3272SOL    HW213094   0.524   3.167   3.866  1.1402 -1.2893 -1.0181
 3273SOL     OW13095   7.196  10.474   6.535  0.2376  0.0602  0.2674
 3273SOL    HW113096   7.239  10.394   6.564 -0.0562  0.0357  0.6500
 3273SOL    HW213097   7.120  10.444   6.485  1.0144  0.1031 -0.9671
 3274SOL     OW13098   4.615  10.038   0.324  0.8786 -1.0499  0.0700
 3274SOL    HW113099   4.677   9.993   0.381 -0.5717 -1.9837  0.9511
 3274SOL    HW213100   4.532   9.993   0.338  0.2368 -0.5980 -1.9706
 3275SOL     OW13101  10.589   9.336  10.717 -0.2171  0.3181 -0.0436
 3275SOL    HW113102  10.584   9.292  10.632  0.2481  0.9309 -0.3910
 3275SOL    HW213103  10.682   9.359  10.727  0.1249 -1.4361  1.4929
 3276SOL     OW13104   3.750   2.006   9.278 -0.1261  0.2552  0.4386
 3276SOL    HW113105   3.838   2.002   9.315 -0.4999  1.9542  1.6136
 3276SOL    HW213106   3.698   2.052   9.343 -2.2980 -2.0264  0.4573
 3277SOL     OW13107   3.250   1.858   5.969 -0.1589  0.4319 -0.1946
 3277SOL    HW113108   3.241   1.883   6.061 -1.6345  0.1277 -0.2290
 3277SOL    HW213109   3.191   1.918   5.923 -1.2172 -0.9193 -0.6459
 3278SOL     OW13110   5.503   4.047   2.587  0.5487 -0.8406  0.1016
 3278SOL    HW113111   5.530   4.086   2.671  1.2861 -0.1041 -0.4600
 3278SOL    HW213112   5.503   3.953   2.603 -0.1489 -0.6814  1.1682
 3279SOL     OW13113   1.350   6.813   1.316  0.2775 -0.5820  0.5518
 3279SOL    HW113114   1.408   6.872   1.267  0.3729  0.4328  1.8462
 3279SOL    HW213115   1.398   6.793   1.396 -0.6985 -0.6400  1.1345
 3280SOL     OW13116   4.811  11.093   4.330  0.2779  0.0060  0.1929
 3280SOL    HW113117   4.825  11.050   4.414 -0.1098 -0.0842  0.2107
 3280SOL    HW213118   4.734  11.148   4.343  2.0660  2.5473  0.8892
 3281SOL     OW13119   5.136  10.342   6.681  0.2387 -0.1536  0.1635
 3281SOL    HW113120   5.088  10.425   6.686  1.0087  0.3172 -0.0973
 3281SOL    HW213121   5.080  10.285   6.628 -0.6633 -0.0692  0.9797
 3282SOL     OW13122   3.706   1.860   6.083 -0.0552  0.5481 -0.0623
 3282SOL    HW113123   3.712   1.955   6.096  0.1437  0.8471 -2.0650
 3282SOL    HW213124   3.615   1.844   6.061 -0.3446  0.0895  1.3924
 3283SOL     OW13125   1.733   5.749   5.680  0.3002 -0.0839 -0.2421
 3283SOL    HW113126   1.826   5.762   5.665  0.5965 -1.6558  0.0138
 3283SOL    HW213127   1.716   5.793   5.763  1.3706 -1.7190  0.9137
 3284SOL     OW13128   5.288   4.075   4.248  0.1474  0.2386  0.0145
 3284SOL    HW113129   5.310   4.126   4.170  2.8886 -1.9792 -0.8241
 3284SOL    HW213130   5.351   4.104   4.314 -0.7795  0.5931  0.7700
 3285SOL     OW13131  10.210   8.385  10.361 -0.1832  0.4175  0.1676
 3285SOL    HW113132  10.254   8.464  10.393 -0.1600  1.2154 -1.7237
 3285SOL    HW213133  10.159   8.414  10.285 -4.0439 -0.4325  2.1637
 3286SOL     OW13134   0.354   7.740   8.764 -0.7719  0.0768  0.3851
 3286SOL    HW113135   0.372   7.793   8.841 -3.4615  1.3232  0.2971
 3286SOL    HW213136   0.380   7.652   8.788  1.3262  0.9365  1.5352
 3287SOL     OW13137   5.664   2.561   2.672  0.1739  0.1407  0.0621
 3287SOL    HW113138   5.618   2.531   2.751  0.6930 -0.7559  0.0381
 3287SOL    HW213139   5.715   2.637   2.700  0.4804 -0.2722  0.6346
 3288SOL     OW13140   7.325   9.189   6.046 -0.2163  0.3156 -0.1514
 3288SOL    HW113141   7.259   9.243   6.090  0.0094  1.4405 -1.1655
 3288SOL    HW213142   7.388   9.169   6.115 -2.5609 -2.5371  1.4170
 3289SOL     OW13143   5.075   2.874   0.324  0.5781  0.3048  0.5462
 3289SOL    HW113144   5.023   2.945   0.364  0.5632  1.1578 -0.9218
 3289SOL    HW213145   5.057   2.798   0.379 -1.0227  0.9541  0.9855
 3290SOL     OW13146   3.225   1.475   9.682 -0.1521 -0.5321  0.2316
 3290SOL    HW113147   3.165   1.493   9.755 -0.4950 -1.1120  0.0940
 3290SOL    HW213148   3.284   1.551   9.682 -0.7600 -0.0416  0.4909
 3291SOL     OW13149   1.182   9.513   3.213  0.2494 -0.4070  0.4667
 3291SOL    HW113150   1.190   9.608   3.216  1.5764 -0.4159 -1.0948
 3291SOL    HW213151   1.110   9.498   3.152  1.7212 -0.3481 -1.3934
 3292SOL     OW13152  10.367   1.224   4.250 -0.1743  0.0147  0.4981
 3292SOL    HW113153  10.451   1.187   4.277  0.8485  1.1641 -1.0064
 3292SOL    HW213154  10.348   1.291   4.316 -0.2206 -0.6428  1.1670
 3293SOL     OW13155   6.877   3.972   4.409  0.7029  0.4122 -0.0690
 3293SOL    HW113156   6.941   3.903   4.390  1.9982  1.2545  1.0581
 3293SOL    HW213157   6.859   3.963   4.502 -0.0002  0.8875 -0.1543
 3294SOL     OW13158   9.016   7.110   1.560  0.3393  0.6349 -0.1721
 3294SOL    HW113159   8.923   7.092   1.543  0.2522  2.5127 -2.1803
 3294SOL    HW213160   9.044   7.040   1.619 -2.0262 -0.7282 -0.5479
 3295SOL     OW13161   6.824   1.492   3.362  0.1544  0.3668  0.2567
 3295SOL    HW113162   6.842   1.518   3.272  1.0542 -0.4283  0.1862
 3295SOL    HW213163   6.729   1.480   3.365  0.0772  0.7226 -0.4936
 3296SOL     OW13164   6.563   2.710   3.228  0.7194 -0.1476  0.4868
 3296SOL    HW113165   6.561   2.805   3.236  0.3245  0.0299 -1.2956
 3296SOL    HW213166   6.628   2.692   3.159 -1.4338 -0.9119 -1.4921
 3297SOL     OW13167  10.826   8.958   3.224  0.4892 -0.9747 -0.3429
 3297SOL    HW113168  10.763   9.027   3.246 -2.1447 -2.9797 -1.0202
 3297SOL    HW213169  10.881   8.951   3.301  0.2005  1.1791  0.1301
 3298SOL     OW13170   3.249   7.899   7.836  0.1351  0.1027  0.2964
 3298SOL    HW113171   3.165   7.934   7.866  0.2645  0.6984 -0.0188
 3298SOL    HW213172   3.289   7.862   7.915 -0.8397 -1.0896  0.2681
 3299SOL     OW13173   9.001   1.012   4.722 -0.0524 -0.3760  0.5942
 3299SOL    HW113174   8.955   0.997   4.804  0.3353  0.9008  1.0609
 3299SOL    HW213175   9.090   0.982   4.739  0.0158 -0.1554  0.6267
 3300SOL     OW13176   3.367   3.102   1.382 -0.5339  0.0208  0.7222
 3300SOL    HW113177   3.419   3.165   1.333  0.8089 -1.3395  0.3090
 3300SOL    HW213178   3.278   3.139   1.383 -0.5575  0.3165 -2.4515
 3301SOL     OW13179   5.080   3.991   5.228  0.2865  0.0786 -0.1506
 3301SOL    HW113180   5.117   4.071   5.190 -0.2678  0.6986  0.5756
 3301SOL    HW213181   5.091   4.002   5.322 -1.0613 -0.0433  0.0383
 3302SOL     OW13182   6.243   5.726   6.355 -0.0472 -0.1917  0.0246
 3302SOL    HW113183   6.205   5.779   6.425  0.4261  0.7672 -0.4230
 3302SOL    HW213184   6.212   5.767   6.274  1.1776  0.0671 -0.3345
 3303SOL     OW13185  10.512   5.264   5.442 -0.5052 -0.0590  0.1506
 3303SOL    HW113186  10.580   5.264   5.509 -0.6090 -0.8876  0.2663
 3303SOL    HW213187  10.432   5.241   5.489 -0.5725 -0.6840 -0.2607
 3304SOL     OW13188   4.952  10.443   6.366 -0.1303 -0.5552 -0.3190
 3304SOL    HW113189   4.962  10.475   6.455  1.5483  0.3783 -0.7968
 3304SOL    HW213190   4.964  10.520   6.311 -2.7080 -0.8041 -1.3593
 3305SOL     OW13191   1.250   6.950   8.668 -0.0136 -0.2661  0.0100
 3305SOL    HW113192   1.211   7.010   8.604 -0.9419  1.8061  2.3802
 3305SOL    HW213193   1.327   6.996   8.700 -0.2000 -0.7323  1.1706
 3306SOL     OW13194   9.612   6.844   9.222  0.6601  0.2651 -0.6904
 3306SOL    HW113195   9.637   6.782   9.153 -2.5220 -1.3596 -0.5840
 3306SOL    HW213196   9.635   6.799   9.304  0.1036  0.0764 -0.6362
 3307SOL     OW13197  10.913   1.995   1.441 -0.1867 -0.2380 -0.4127
 3307SOL    HW113198  10.981   1.931   1.465 -0.7842 -0.5108  0.6273
 3307SOL    HW213199  10.841   1.976   1.501 -0.8996  0.5343 -1.0090
 3308SOL     OW13200   4.125   8.911   2.638  0.5834 -0.6635 -0.5354
 3308SOL    HW113201   4.153   8.940   2.551 -2.3540  0.7550 -1.1350
 3308SOL    HW213202   4.104   8.819   2.626  0.0983 -0.4566 -1.3951
 3309SOL     OW13203   4.015   4.538   2.306  1.1623  0.1923 -0.3832
 3309SOL    HW113204   4.092   4.593   2.319  0.4228  1.1084  0.2813
 3309SOL    HW213205   3.990   4.553   2.215  0.6410  1.4254 -0.0544
 3310SOL     OW13206   2.143   4.849   4.422 -0.4093 -0.4725  0.0063
 3310SOL    HW113207   2.161   4.866   4.330 -0.0432 -0.1454  0.1363
 3310SOL    HW213208   2.152   4.754   4.431  0.7142 -0.3914 -0.0576
 3311SOL     OW13209   0.446   0.066   4.474 -0.2711 -0.1139 -0.0740
 3311SOL    HW113210   0.503   0.107   4.539  0.8973  1.1325 -1.7735
 3311SOL    HW213211   0.489   0.084   4.390 -1.7730 -1.5299 -1.2201
 3312SOL     OW13212   2.794   3.183   7.873  0.3028  0.0520  0.0963
 3312SOL    HW113213   2.761   3.107   7.824  0.7860 -1.2475  1.6947
 3312SOL    HW213214   2.838   3.145   7.949 -1.2534  2.0068  2.1034
 3313SOL     OW13215   0.245   3.917   7.035 -0.2217 -0.2307 -0.2922
 3313SOL    HW113216   0.188   3.964   7.096  0.5099  0.1434  0.1220
 3313SOL    HW213217   0.261   3.980   6.965  1.2041  0.3780  0.5327
 3314SOL     OW13218   7.831  11.242   8.586  0.4101  0.5252 -0.3182
 3314SOL    HW113219   7.744  11.261   8.621  0.2756  0.9587 -0.8721
 3314SOL    HW213220   7.831  11.147   8.572  0.4858  0.3391  0.8865
 3315SOL     OW13221   4.217   0.854   8.405  0.0975  0.0949 -0.0382
 3315SOL    HW113222   4.190   0.833   8.494  0.5382 -0.5252 -0.0405
 3315SOL    HW213223   4.224   0.949   8.403  1.3738  0.0566  0.9806
 3316SOL     OW13224   8.326   6.049   2.496  0.5143  0.0195 -0.0585
 3316SOL    HW113225   8.243   6.002   2.505  1.1530 -1.3166 -0.7951
 3316SOL    HW213226   8.366   6.043   2.583  0.7685 -1.2086 -0.2353
 3317SOL     OW13227   0.103   5.331   9.407 -0.4209 -0.1978 -0.6054
 3317SOL    HW113228   0.118   5.261   9.344 -1.9898 -1.3096  0.1684
 3317SOL    HW213229   0.134   5.295   9.490 -1.1804  0.0261 -0.2134
 3318SOL     OW13230   6.783   6.534   6.970 -0.0390 -0.3480  0.4902
 3318SOL    HW113231   6.759   6.555   6.880  1.0606 -1.6466 -0.1428
 3318SOL    HW213232   6.728   6.458   6.992  1.9650 -2.1083 -0.2880
 3319SOL     OW13233   6.907   3.903   7.643 -0.2693 -0.2463  0.7019
 3319SOL    HW113234   6.827   3.942   7.677 -1.4218 -2.0696  0.2537
 3319SOL    HW213235   6.898   3.909   7.548 -0.5937 -1.7360  0.6119
 3320SOL     OW13236   0.821   4.537   4.312  0.6071  0.3502  0.4020
 3320SOL    HW113237   0.748   4.554   4.372  0.8101 -0.4178  0.8724
 3320SOL    HW213238   0.792   4.463   4.258  0.6195  0.7247 -0.1275
 3321SOL     OW13239   7.427   2.736   4.576 -0.2320  0.0400 -0.3279
 3321SOL    HW113240   7.332   2.732   4.583 -0.2197  0.3836  0.0491
 3321SOL    HW213241   7.448   2.829   4.583  0.1943 -0.1026  0.3644
 3322SOL     OW13242   9.428   5.641   8.243  0.3942  0.0214 -0.0495
 3322SOL    HW113243   9.376   5.688   8.178  0.6848  0.0036 -0.2999
 3322SOL    HW213244   9.386   5.661   8.327 -1.4448 -1.8328 -0.4231
 3323SOL     OW13245   7.254  11.188   5.763  0.5194 -0.0181  0.4700
 3323SOL    HW113246   7.297  11.196   5.848 -0.4352 -3.2321  1.4158
 3323SOL    HW213247   7.171  11.234   5.774 -0.1635 -1.4654  1.8154
 3324SOL     OW13248   0.793   5.988   3.764 -0.3083 -0.0882  0.4813
 3324SOL    HW113249   0.879   5.946   3.758 -0.3365  0.0822 -3.0906
 3324SOL    HW213250   0.808   6.064   3.821  1.9056 -0.1003  0.0106
 3325SOL     OW13251   5.025   2.538   5.628  0.3881 -0.3217  0.5075
 3325SOL    HW113252   5.053   2.447   5.636 -0.9693 -0.8315 -0.2462
 3325SOL    HW213253   5.080   2.574   5.558 -0.3792 -1.1369 -0.5445
 3326SOL     OW13254  10.155   6.018  10.794  0.2231  0.1710 -0.6758
 3326SOL    HW113255  10.237   6.043  10.752  1.2961 -2.1792 -0.1545
 3326SOL    HW213256  10.173   6.025  10.888  1.2083 -3.7769 -0.3896
 3327SOL     OW13257   0.474   4.426   1.411 -0.3739  0.5335 -0.4411
 3327SOL    HW113258   0.381   4.413   1.432 -0.5106 -1.8412 -2.0706
 3327SOL    HW213259   0.517   4.432   1.496 -1.5784 -2.5073  0.5129
 3328SOL     OW13260   7.527   5.698  11.359 -0.3924 -0.1005  0.2282
 3328SOL    HW113261   7.496   5.613  11.328  2.1963 -1.4859  1.0898
 3328SOL    HW213262   7.517   5.693  11.454  0.6216  0.1355  0.3633
 3329SOL     OW13263   5.347   9.878   5.621 -0.2989  0.1404 -0.1256
 3329SOL    HW113264   5.288   9.808   5.593 -0.3012  0.5905 -1.2983
 3329SOL    HW213265   5.431   9.835   5.635 -0.5197 -0.2408  0.0434
 3330SOL     OW13266   5.204   3.599   3.540 -0.1519 -0.1456  0.3161
 3330SOL    HW113267   5.117   3.590   3.501  0.7045 -1.1125 -1.4936
 3330SOL    HW213268   5.190   3.655   3.617 -1.8966  2.2214 -1.5569
 3331SOL     OW13269   2.495   7.130   9.084 -0.4082  0.4744  0.1145
 3331SOL    HW113270   2.414   7.079   9.081  0.7435 -1.5270  1.1575
 3331SOL    HW213271   2.478   7.198   9.149 -0.4273 -1.5951  2.4378
 3332SOL     OW13272   9.976   5.170   3.007  0.5458  0.0028  0.3804
 3332SOL    HW113273   9.983   5.082   3.043 -0.8584 -0.0485  0.5894
 3332SOL    HW213274   9.981   5.158   2.912  2.1856 -0.0836  0.4577
 3333SOL     OW13275   8.556   6.458   5.810 -0.4888  0.0589  0.2610
 3333SOL    HW113276   8.471   6.428   5.777  0.1823 -0.5523 -0.9732
 3333SOL    HW213277   8.540   6.548   5.839 -1.4434  0.1329 -0.4534
 3334SOL     OW13278   0.327   9.218   8.559 -0.2171  0.2241  0.2709
 3334SOL    HW113279   0.362   9.130   8.570 -1.6270 -0.2875  0.8505
 3334SOL    HW213280   0.357   9.244   8.472  0.8769 -0.4945  0.4010
 3335SOL     OW13281   6.843   9.929   9.523 -1.1688  0.4213 -0.1707
 3335SOL    HW113282   6.828   9.835   9.518 -1.2906  0.2844  1.8876
 3335SOL    HW213283   6.780   9.967   9.462 -0.3216 -0.8581 -1.9092
 3336SOL     OW13284   0.720   7.666   8.838  0.2718  0.1341 -0.1522
 3336SOL    HW113285   0.655   7.736   8.825  1.8301  1.6142 -0.3891
 3336SOL    HW213286   0.761   7.687   8.922 -0.8959 -1.9653  1.0232
 3337SOL     OW13287  11.181   4.695   8.437  0.3966  0.1619  0.2155
 3337SOL    HW113288  11.194   4.622   8.377  0.9252  1.1853 -0.9517
 3337SOL    HW213289  11.222   4.666   8.518 -0.6965 -1.4156  0.2615
 3338SOL     OW13290   9.345   6.113   4.001  0.7831 -0.3539  0.0572
 3338SOL    HW113291   9.411   6.049   3.974  1.1363 -0.2579  0.6466
 3338SOL    HW213292   9.271   6.098   3.944  1.7556  0.3458 -1.4669
 3339SOL     OW13293   7.138   4.126   6.137 -0.1533 -0.3216 -0.3506
 3339SOL    HW113294   7.070   4.085   6.190  0.0682 -0.9885 -0.5762
 3339SOL    HW213295   7.184   4.184   6.197 -0.3689 -0.5225  0.0106
 3340SOL     OW13296   5.501  11.086   7.941  0.1041  0.0450  0.1667
 3340SOL    HW113297   5.426  11.127   7.898  1.2443  0.5275 -1.4471
 3340SOL    HW213298   5.517  11.140   8.019 -1.2063 -0.0854  0.5518
 3341SOL     OW13299   2.505   8.659   3.183  0.0717  0.2269  0.2581
 3341SOL    HW113300   2.481   8.610   3.262 -0.7748  1.0667  0.5397
 3341SOL    HW213301   2.430   8.716   3.167  1.4650  2.2329  0.5843
 3342SOL     OW13302   3.681   1.521   5.849  0.1256  0.4492  0.3835
 3342SOL    HW113303   3.772   1.549   5.841 -0.0097  0.8908  0.3729
 3342SOL    HW213304   3.636   1.563   5.776  0.0316 -0.2927  0.0031
 3343SOL     OW13305   0.446   2.794   1.378  0.1877 -0.0603 -0.3151
 3343SOL    HW113306   0.417   2.885   1.379  0.8777  0.1956 -1.2126
 3343SOL    HW213307   0.521   2.792   1.437  0.0326 -0.0996 -0.1190
 3344SOL     OW13308   7.451   7.297   3.644  0.2168  0.0216  0.2660
 3344SOL    HW113309   7.357   7.313   3.657  0.0328 -1.1483  0.5485
 3344SOL    HW213310   7.488   7.301   3.732 -0.0207 -2.0186  0.5094
 3345SOL     OW13311   1.491   8.116  10.006 -0.0398 -0.8691 -0.2987
 3345SOL    HW113312   1.506   8.024   9.984  0.5981 -0.4318 -1.8120
 3345SOL    HW213313   1.401   8.119  10.038 -1.0513 -1.6180 -2.8236
 3346SOL     OW13314   9.777  10.314   1.410  0.4274  0.1906  0.0380
 3346SOL    HW113315   9.827  10.263   1.474  0.1855 -0.6084 -0.4028
 3346SOL    HW213316   9.832  10.316   1.332 -0.3077 -0.8847 -0.5251
 3347SOL     OW13317   8.851   8.882   3.494  0.3499 -0.3811  0.2265
 3347SOL    HW113318   8.794   8.957   3.483  0.3811 -0.3223  0.4544
 3347SOL    HW213319   8.842   8.858   3.587  0.7175 -0.3486  0.2743
 3348SOL     OW13320   6.143  10.607   8.432 -0.1045 -0.8888 -0.0104
 3348SOL    HW113321   6.138  10.522   8.387  0.0368 -0.3929 -0.9925
 3348SOL    HW213322   6.189  10.663   8.370  0.4576 -0.2872  0.9369
 3349SOL     OW13323   9.539   0.414   6.504  0.0621  0.4981 -0.1640
 3349SOL    HW113324   9.493   0.340   6.544 -0.1054  0.5011 -0.3532
 3349SOL    HW213325   9.586   0.377   6.430  0.9216  0.3658  0.4236
 3350SOL     OW13326  10.554   0.729   0.033 -0.1131 -0.3347  0.6498
 3350SOL    HW113327  10.546   0.775  -0.051  0.7672 -1.3206 -0.0036
 3350SOL    HW213328  10.602   0.789   0.089 -3.2717  1.6288  1.5025
 3351SOL     OW13329   6.844  10.618   5.102 -0.0056  0.1834 -0.5853
 3351SOL    HW113330   6.895  10.540   5.081 -0.4799  0.1167 -1.5464
 3351SOL    HW213331   6.907  10.690   5.099  0.4076 -0.1279  0.1868
 3352SOL     OW13332   2.577   4.001   6.995  0.4832  0.5278 -0.0885
 3352SOL    HW113333   2.533   3.922   6.964  0.2475  1.0047 -1.0375
 3352SOL    HW213334   2.584   3.990   7.089 -1.4357  0.3158  0.0622
 3353SOL     OW13335   9.928   8.112   4.757 -0.5205  0.0112 -0.0391
 3353SOL    HW113336   9.907   8.019   4.753  0.2974 -0.1590 -2.6803
 3353SOL    HW213337  10.011   8.116   4.805 -0.2409 -0.7292 -0.4302
 3354SOL     OW13338   4.465   6.613  10.306  0.1857  0.1193  0.0459
 3354SOL    HW113339   4.396   6.678  10.311  0.2419  0.1477  0.4561
 3354SOL    HW213340   4.467   6.587  10.214  0.4845  1.0449 -0.2205
 3355SOL     OW13341   2.639   1.900   2.812  0.1638 -0.1838  0.0959
 3355SOL    HW113342   2.705   1.834   2.790  2.6720  1.7211  1.4067
 3355SOL    HW213343   2.682   1.984   2.794 -2.1328  1.1581  0.4778
 3356SOL     OW13344   8.355  10.551   5.563  0.4505 -0.0585 -0.0036
 3356SOL    HW113345   8.425  10.501   5.604 -1.2263  0.0676  3.3432
 3356SOL    HW213346   8.319  10.492   5.497 -0.1924 -2.6065  2.4619
 3357SOL     OW13347   4.823   2.843   0.850  0.0073 -0.0110 -0.3619
 3357SOL    HW113348   4.821   2.762   0.901 -0.8648  0.4698  0.4135
 3357SOL    HW213349   4.754   2.833   0.785  0.9362 -0.5104 -1.2887
 3358SOL     OW13350   1.550   8.418   8.882 -0.6928  1.0111  0.1015
 3358SOL    HW113351   1.501   8.397   8.962  0.0633 -1.0096  0.0856
 3358SOL    HW213352   1.551   8.336   8.832  0.9103  1.5698 -0.8586
 3359SOL     OW13353   1.658   2.873   4.212  0.2637 -0.4409  0.0488
 3359SOL    HW113354   1.644   2.778   4.205 -0.1665 -0.3035 -1.1833
 3359SOL    HW213355   1.684   2.900   4.124  1.6596  0.4038  0.6950
 3360SOL     OW13356   5.956   7.124   0.133 -0.6453 -0.0447 -0.2996
 3360SOL    HW113357   6.027   7.102   0.192 -0.1442  1.3119 -0.3531
 3360SOL    HW213358   5.884   7.151   0.191 -1.7459 -2.9113 -0.1682
 3361SOL     OW13359   5.062   4.367   1.116 -0.1129  0.4849  0.1708
 3361SOL    HW113360   5.090   4.282   1.149  0.7475  0.2037 -1.1668
 3361SOL    HW213361   5.103   4.430   1.175 -0.2513 -0.0197  0.8119
 3362SOL     OW13362   4.903  11.041   8.218 -0.1188  0.9290 -0.5162
 3362SOL    HW113363   4.837  11.106   8.243  0.2258  0.8415  0.7127
 3362SOL    HW213364   4.856  10.977   8.165 -0.5799  1.9014 -1.3037
 3363SOL     OW13365   3.353   9.947   9.930  0.5125  0.3851  0.0629
 3363SOL    HW113366   3.348  10.005   9.854  2.4288  0.5073 -0.0213
 3363SOL    HW213367   3.388   9.865   9.896  0.9369  0.2790  0.7391
 3364SOL     OW13368   8.761   3.670   6.728  0.0474 -0.2850  0.0523
 3364SOL    HW113369   8.764   3.739   6.795  2.4881 -1.0269  0.8141
 3364SOL    HW213370   8.740   3.716   6.647  3.5092  1.7712  0.1586
 3365SOL     OW13371   1.018   8.192   4.083 -0.3478 -0.5922  0.0121
 3365SOL    HW113372   1.042   8.105   4.049  1.4380 -0.4645  0.7809
 3365SOL    HW213373   0.976   8.236   4.010 -2.6387 -2.5838  0.0248
 3366SOL     OW13374   6.172   5.405   7.203  0.2019  0.2691  0.2161
 3366SOL    HW113375   6.262   5.375   7.194 -0.3175 -0.8988 -1.7915
 3366SOL    HW213376   6.128   5.336   7.254 -0.3098 -1.0439 -1.8682
 3367SOL     OW13377   5.154   1.308   0.103  0.1525  0.2615 -0.1793
 3367SOL    HW113378   5.059   1.300   0.107  0.0711  0.1741 -1.7027
 3367SOL    HW213379   5.186   1.261   0.180 -0.9982 -0.6176 -0.2251
 3368SOL     OW13380   5.231   4.265  10.524 -0.3572 -0.1397 -0.7405
 3368SOL    HW113381   5.245   4.332  10.591 -2.8981  2.6207 -2.7059
 3368SOL    HW213382   5.214   4.185  10.573  0.3731  1.1679  1.8000
 3369SOL     OW13383   2.990   2.471   0.624  0.4573 -0.8386 -0.6745
 3369SOL    HW113384   3.023   2.388   0.591  1.2373 -0.5321 -0.6842
 3369SOL    HW213385   2.899   2.453   0.648  0.7858 -1.8442 -0.1095
 3370SOL     OW13386   7.783   9.889   9.785  0.1851  0.2492 -0.2803
 3370SOL    HW113387   7.794   9.813   9.842 -0.2322 -0.9457 -1.7353
 3370SOL    HW213388   7.690   9.889   9.763  0.1831  1.1931 -0.3117
 3371SOL     OW13389  10.345   0.268  10.236  0.2157  0.1872  0.1508
 3371SOL    HW113390  10.359   0.233  10.324  1.9195 -2.3477 -1.0157
 3371SOL    HW213391  10.264   0.228  10.206 -0.0227  0.5380  0.3249
 3372SOL     OW13392   4.725   3.748   7.509  0.3809 -0.2779 -0.7337
 3372SOL    HW113393   4.719   3.836   7.546  0.1515 -0.6335  0.1114
 3372SOL    HW213394   4.638   3.729   7.475 -0.5553 -1.3722  1.9725
 3373SOL     OW13395   1.044   4.003   2.018 -0.2384  0.3829 -0.2888
 3373SOL    HW113396   1.120   3.961   1.978 -1.3279 -1.9136 -0.0953
 3373SOL    HW213397   1.071   4.018   2.109  0.1341 -0.0868 -0.3150
 3374SOL     OW13398   9.096   7.706   1.223  0.5002 -0.1079  0.0634
 3374SOL    HW113399   9.054   7.721   1.139  0.4651  0.0353  0.1065
 3374SOL    HW213400   9.167   7.645   1.204  0.0569 -0.6208  0.0523
 3375SOL     OW13401   6.331   2.194   9.441 -0.2662 -0.5835 -0.1109
 3375SOL    HW113402   6.423   2.197   9.467 -0.2714 -1.7909  0.0941
 3375SOL    HW213403   6.289   2.141   9.508 -0.9837 -0.6227 -0.5833
 3376SOL     OW13404   6.449   8.366   4.303  0.0926 -0.1895  0.5935
 3376SOL    HW113405   6.487   8.429   4.364  1.6196 -0.2680 -0.2172
 3376SOL    HW213406   6.397   8.308   4.357 -0.5180  1.1519  1.4913
 3377SOL     OW13407   4.113   0.860  10.907  0.3503 -0.4346  0.5007
 3377SOL    HW113408   4.160   0.913  10.842  0.6433 -0.1763  0.9234
 3377SOL    HW213409   4.182   0.814  10.955  0.2871  1.0636  2.1209
 3378SOL     OW13410   9.260   9.062   0.265 -0.3659  0.2764  0.1894
 3378SOL    HW113411   9.319   8.989   0.284 -2.6495 -1.4730  0.9022
 3378SOL    HW213412   9.255   9.063   0.169 -1.4308 -1.5069  0.1866
 3379SOL     OW13413   1.980   3.674  11.398  0.5863 -0.6470 -0.2015
 3379SOL    HW113414   1.909   3.678  11.334  0.9419  0.2471 -0.5583
 3379SOL    HW213415   1.951   3.732  11.468  1.1986  0.1800 -0.6126
 3380SOL     OW13416   7.962   6.949   3.449  0.2574 -0.2511  0.4678
 3380SOL    HW113417   7.875   6.987   3.443 -0.0959 -1.1241 -0.1802
 3380SOL    HW213418   8.021   7.019   3.422 -0.3430 -0.0381 -0.3189
 3381SOL     OW13419   2.637   9.853  10.414 -0.1378  0.0288  0.3741
 3381SOL    HW113420   2.597   9.919  10.358  0.0530  0.8005  1.1263
 3381SOL    HW213421   2.709   9.817  10.362 -0.1802  0.4854 -0.0068
 3382SOL     OW13422   9.353   5.699   5.031 -0.6355 -0.5507 -0.1404
 3382SOL    HW113423   9.323   5.673   5.118 -2.5253 -0.6481 -0.7761
 3382SOL    HW213424   9.375   5.617   4.987 -2.3338 -0.7877 -0.6396
 3383SOL     OW13425   2.353   0.576  11.181  0.4737  0.1622  0.1442
 3383SOL    HW113426   2.370   0.578  11.275  1.7613 -2.4533  0.0423
 3383SOL    HW213427   2.439   0.586  11.140  0.1015 -0.1370 -0.7446
 3384SOL     OW13428   5.225   8.514   1.311  0.2174 -0.1137  0.3162
 3384SOL    HW113429   5.285   8.518   1.236  0.4244  1.4671  0.5236
 3384SOL    HW213430   5.275   8.553   1.383 -1.6191  3.1683  0.0321
 3385SOL     OW13431   3.771   7.510   4.775 -0.3593  0.3924  0.0526
 3385SOL    HW113432   3.682   7.477   4.764  0.9380 -2.8281 -2.0734
 3385SOL    HW213433   3.802   7.469   4.856 -0.2323  0.0704 -0.1587
 3386SOL     OW13434   3.012   9.967   2.103  0.4003 -0.4713 -0.3122
 3386SOL    HW113435   2.967   9.965   2.018  0.8277 -1.2061 -0.5326
 3386SOL    HW213436   3.018   9.874   2.129 -0.8332 -0.1980  1.1203
 3387SOL     OW13437   4.278  10.359   6.818  0.2757 -0.2454 -0.6927
 3387SOL    HW113438   4.202  10.311   6.851  1.3379 -1.8095 -0.4206
 3387SOL    HW213439   4.346  10.293   6.808  1.3841  0.9806 -1.6814
 3388SOL     OW13440   0.355   8.854   1.661 -0.2375  0.1158  0.3153
 3388SOL    HW113441   0.328   8.785   1.600  2.8462 -0.5962 -0.4421
 3388SOL    HW213442   0.402   8.807   1.730  1.0015  1.3278  0.3361
 3389SOL     OW13443   2.608  11.130   3.277 -0.2113 -0.3791 -0.5125
 3389SOL    HW113444   2.646  11.189   3.342 -1.6390 -0.7914  0.7659
 3389SOL    HW213445   2.648  11.156   3.194  0.8220  0.9182  0.3556
 3390SOL     OW13446   4.296   9.456   2.556 -0.2720 -0.4111  0.0015
 3390SOL    HW113447   4.303   9.366   2.524 -0.4072  0.0073 -1.2743
 3390SOL    HW213448   4.358   9.461   2.629  0.4791 -1.2548 -0.5629
 3391SOL     OW13449   5.045  10.580   8.368  0.2715  0.4871  0.0349
 3391SOL    HW113450   5.079  10.501   8.409  0.4470  0.1145 -0.8182
 3391SOL    HW213451   5.107  10.649   8.392  1.4122 -0.0992 -1.1400
 3392SOL     OW13452   3.054   3.326   8.787  0.3344 -0.2720 -0.8009
 3392SOL    HW113453   3.066   3.421   8.790 -2.0124  0.0772  1.5827
 3392SOL    HW213454   3.076   3.296   8.874  0.5972 -1.8725 -1.3905
 3393SOL     OW13455   3.046   8.531   8.054  0.0514 -0.4469  0.3119
 3393SOL    HW113456   3.104   8.546   8.128 -0.7971  2.1933  0.5660
 3393SOL    HW213457   2.958   8.536   8.091 -0.4207 -2.8327 -0.3171
 3394SOL     OW13458   8.974   8.395   1.687 -0.6590  0.3432  0.1235
 3394SOL    HW113459   8.983   8.368   1.595 -0.8699  0.5372  0.0463
 3394SOL    HW213460   8.927   8.478   1.683  0.9217  1.2837  0.2936
 3395SOL     OW13461   1.182   4.142   9.867  0.1639  0.1367  0.3420
 3395SOL    HW113462   1.142   4.210   9.921 -1.1595 -0.5449  0.2502
 3395SOL    HW213463   1.193   4.067   9.926  0.8134  0.1226  0.2212
 3396SOL     OW13464   7.076   2.785   4.347  0.7058  0.1535  0.0903
 3396SOL    HW113465   7.022   2.828   4.413  0.1938  0.4456 -0.5033
 3396SOL    HW213466   7.094   2.854   4.283  0.9929 -0.1839 -0.1940
 3397SOL     OW13467   1.824   7.012   6.220  0.2040 -0.1702 -0.7431
 3397SOL    HW113468   1.792   7.069   6.290  1.4772 -2.6683  2.0327
 3397SOL    HW213469   1.871   6.942   6.264  2.1552 -1.2899 -4.1931
 3398SOL     OW13470   1.482   4.121   2.175 -0.5262  0.0999 -0.1221
 3398SOL    HW113471   1.456   4.029   2.183 -0.8411  0.1484 -0.5757
 3398SOL    HW213472   1.445   4.150   2.091  1.5474 -0.0170 -1.1458
 3399SOL     OW13473   7.838   7.849   6.823  0.2150 -0.0357  0.1291
 3399SOL    HW113474   7.912   7.871   6.766 -0.2287 -2.0534 -1.3457
 3399SOL    HW213475   7.766   7.901   6.789  0.2628 -0.2830 -0.3655
 3400SOL     OW13476   1.314   7.691   1.673  0.2085  0.4761 -0.0604
 3400SOL    HW113477   1.345   7.782   1.668  1.0173  0.2927  1.0463
 3400SOL    HW213478   1.344   7.651   1.592  1.3010  0.7912  0.1628
 3401SOL     OW13479   6.039   1.296   0.827  0.5962 -0.0832 -0.5783
 3401SOL    HW113480   6.121   1.318   0.785  1.2477 -1.3440 -0.0134
 3401SOL    HW213481   6.000   1.229   0.771 -0.5069  1.1352 -1.3266
 3402SOL     OW13482   6.976   7.560   0.344 -0.1168 -0.2190  0.2206
 3402SOL    HW113483   6.997   7.653   0.356  0.9831 -0.5231  0.7678
 3402SOL    HW213484   6.967   7.550   0.249 -0.9955  0.5972  0.2074
 3403SOL     OW13485   7.548   6.958   1.592  0.2337  0.7498  0.0302
 3403SOL    HW113486   7.507   6.920   1.514  0.7741 -0.1982  0.1835
 3403SOL    HW213487   7.601   6.886   1.627  0.0728  1.1990  1.2147
 3404SOL     OW13488   3.427   4.318   0.716 -0.5067 -0.0184 -0.0625
 3404SOL    HW113489   3.431   4.411   0.736  1.1568 -0.3212  1.2393
 3404SOL    HW213490   3.446   4.314   0.622  0.0002  0.9272 -0.0182
 3405SOL     OW13491  10.783   2.494   1.774  0.2944  0.3904 -0.2593
 3405SOL    HW113492  10.814   2.421   1.721 -0.1536 -0.2718  0.3764
 3405SOL    HW213493  10.797   2.571   1.719  0.9852 -0.1420 -0.8483
 3406SOL     OW13494   7.397   1.221  10.661 -0.0706  0.2234 -0.2787
 3406SOL    HW113495   7.472   1.187  10.613 -1.3534 -1.5556 -1.1710
 3406SOL    HW213496   7.434   1.283  10.723  2.1846 -0.9784 -0.3141
 3407SOL     OW13497   2.297   8.857   4.355 -0.0068  0.1406 -0.1736
 3407SOL    HW113498   2.255   8.778   4.321 -1.0387  0.7257 -0.2814
 3407SOL    HW213499   2.321   8.907   4.276 -0.2586  0.3962 -0.0896
 3408SOL     OW13500   8.176   4.757   9.517 -0.1821  0.3050  0.2563
 3408SOL    HW113501   8.112   4.825   9.539  0.0031  0.1266  1.4184
 3408SOL    HW213502   8.146   4.680   9.565  0.9269  0.2359  0.8583
 3409SOL     OW13503   2.284   2.699  10.264 -0.1886 -0.5502  1.0103
 3409SOL    HW113504   2.257   2.790  10.281  0.4267 -0.6879  2.9838
 3409SOL    HW213505   2.208   2.659  10.223 -0.6267  0.7304  0.5084
 3410SOL     OW13506   6.198   1.818   3.195  0.6082  0.2717 -0.0302
 3410SOL    HW113507   6.244   1.836   3.277 -0.1030 -1.7628  0.8802
 3410SOL    HW213508   6.149   1.898   3.177  2.0974  1.3698  0.5881
 3411SOL     OW13509   3.654   5.538  10.967 -0.9152  0.2865  0.2481
 3411SOL    HW113510   3.707   5.615  10.945  0.0101 -0.3621  0.1376
 3411SOL    HW213511   3.598   5.567  11.038 -1.4856  1.4248 -0.6351
 3412SOL     OW13512   5.416  10.201   0.907  0.3848 -0.0792 -0.4372
 3412SOL    HW113513   5.468  10.121   0.899  1.9449  0.9931 -1.7530
 3412SOL    HW213514   5.452  10.245   0.984 -0.0111 -0.3130 -0.1155
 3413SOL     OW13515   2.938   3.636   3.749  0.5550 -0.4099 -0.6228
 3413SOL    HW113516   2.898   3.689   3.818 -0.1075 -0.3656 -1.0263
 3413SOL    HW213517   2.905   3.674   3.668  0.4184 -1.1610 -0.9270
 3414SOL     OW13518   1.563   7.422   6.425  0.1095  0.4191  0.1284
 3414SOL    HW113519   1.479   7.440   6.466  0.7068  1.1196  1.0751
 3414SOL    HW213520   1.597   7.346   6.473 -0.8652 -1.2219 -1.6063
 3415SOL     OW13521   1.294   9.776   1.035  0.2435 -0.3747  0.6037
 3415SOL    HW113522   1.303   9.836   0.961 -0.0027  0.6506  1.3869
 3415SOL    HW213523   1.326   9.692   1.001  0.3286  0.1178 -0.5981
 3416SOL     OW13524  11.329   9.421   0.661  0.4822 -0.9758  0.4671
 3416SOL    HW113525  11.268   9.471   0.715  0.6353 -2.2602  1.9097
 3416SOL    HW213526  11.415   9.434   0.702  0.6431 -1.7555  0.4044
 3417SOL     OW13527   5.605  10.926   5.123  0.5427 -0.2555  0.0881
 3417SOL    HW113528   5.701  10.933   5.118  0.4027  1.4033 -0.9503
 3417SOL    HW213529   5.577  11.009   5.161 -0.5505 -0.2652 -0.6678
 3418SOL     OW13530   4.088   8.548   0.802 -0.0649  0.0460 -0.3286
 3418SOL    HW113531   4.042   8.632   0.803 -0.7230 -0.2685 -1.7723
 3418SOL    HW213532   4.130   8.545   0.716  0.9495 -0.5876  0.1738
 3419SOL     OW13533   0.558   1.431   0.080  0.6912 -0.2727 -0.0381
 3419SOL    HW113534   0.569   1.434  -0.015  0.8350 -0.0514 -0.0170
 3419SOL    HW213535   0.545   1.523   0.105 -0.1967 -0.4125  0.0588
 3420SOL     OW13536   5.083   7.277   2.279  0.0552  0.0010 -0.2921
 3420SOL    HW113537   5.044   7.264   2.193  0.5407 -0.2307 -0.4795
 3420SOL    HW213538   5.121   7.365   2.275  1.9734 -0.8186 -1.0713
 3421SOL     OW13539   7.818  11.114  10.175  0.4619  0.0957 -1.1828
 3421SOL    HW113540   7.820  11.187  10.238  0.7268 -1.0696  0.2151
 3421SOL    HW213541   7.875  11.143  10.104  1.2095  0.9399 -0.2808
 3422SOL     OW13542   2.423   1.740   8.083 -0.3129 -0.3389 -0.3095
 3422SOL    HW113543   2.355   1.688   8.039 -0.3925  0.4034 -1.0883
 3422SOL    HW213544   2.373   1.803   8.136 -0.2353  0.0364 -0.6789
 3423SOL     OW13545   5.887   6.080   0.979 -0.3940  0.5980 -0.7259
 3423SOL    HW113546   5.915   6.137   1.051 -0.0444  1.6059 -1.6367
 3423SOL    HW213547   5.965   6.073   0.923 -1.2155  1.4308 -2.0195
 3424SOL     OW13548   5.406   5.653   8.009  0.2400  0.1148 -0.3147
 3424SOL    HW113549   5.354   5.599   7.950 -1.9927  0.9585  0.7846
 3424SOL    HW213550   5.360   5.737   8.012  0.8198  0.4123  1.8450
 3425SOL     OW13551   6.445   6.927  10.716  0.4240  0.9434  0.0273
 3425SOL    HW113552   6.507   6.863  10.752 -0.0686  0.8240  0.6968
 3425SOL    HW213553   6.377   6.874  10.673  1.3358  1.1020 -1.6815
 3426SOL     OW13554   9.548   7.863   4.153  0.3246 -0.0922 -0.1806
 3426SOL    HW113555   9.617   7.928   4.165  0.3133  0.4741 -2.7706
 3426SOL    HW213556   9.594   7.779   4.160  1.0566  0.2576 -0.5959
 3427SOL     OW13557   7.473   8.017   8.623  0.4445  0.0560  0.1376
 3427SOL    HW113558   7.458   8.004   8.716  1.1385 -1.3035  0.0962
 3427SOL    HW213559   7.555   8.065   8.618  1.0478 -0.9287  0.2372
 3428SOL     OW13560   7.997  11.262   5.447  0.0962 -0.6599  0.4135
 3428SOL    HW113561   8.000  11.326   5.518  0.5246 -0.1102 -0.0837
 3428SOL    HW213562   7.920  11.288   5.395  0.4017 -0.4029  0.0846
 3429SOL     OW13563   9.459   4.229   6.686  0.0537 -0.4647 -0.9099
 3429SOL    HW113564   9.527   4.250   6.622 -0.4092 -0.4676 -1.4031
 3429SOL    HW213565   9.506   4.227   6.770  0.8997 -1.7241 -1.3872
 3430SOL     OW13566   5.202   9.876   1.041 -0.2555  0.3049 -0.6795
 3430SOL    HW113567   5.177   9.923   1.121  1.2618  0.0035 -0.0029
 3430SOL    HW213568   5.258   9.805   1.071  1.8910  1.2823 -2.1250
 3431SOL     OW13569   3.578   2.046   6.996 -0.5440 -0.1734 -0.4708
 3431SOL    HW113570   3.621   2.132   6.995 -2.2288  0.8792  2.6369
 3431SOL    HW213571   3.632   1.992   7.054 -1.1278 -0.1737  0.0881
 3432SOL     OW13572   7.312   5.946   1.606 -0.3603 -0.4133 -0.0427
 3432SOL    HW113573   7.268   5.971   1.524 -0.3764 -0.1353  0.0483
 3432SOL    HW213574   7.257   5.878   1.643 -0.7762  0.0063  0.1229
 3433SOL     OW13575   6.972   7.162   4.336 -0.0322 -0.1935  0.1229
 3433SOL    HW113576   6.969   7.237   4.395 -0.1267 -0.5369  0.5627
 3433SOL    HW213577   6.880   7.143   4.317  0.0276  0.7358 -1.2080
 3434SOL     OW13578   1.426   8.636   8.552 -0.9266 -0.0433 -0.4961
 3434SOL    HW113579   1.353   8.582   8.586 -0.3158 -0.4003  0.2830
 3434SOL    HW213580   1.413   8.636   8.457 -0.9610 -1.5537 -0.5148
 3435SOL     OW13581   3.559   2.520   6.812 -0.6127 -0.3082  0.0955
 3435SOL    HW113582   3.506   2.450   6.775  0.5719 -0.4531 -1.3991
 3435SOL    HW213583   3.516   2.601   6.783 -0.9285 -0.4073  0.2778
 3436SOL     OW13584   7.755   6.076   9.318  0.7235  0.5545  0.3207
 3436SOL    HW113585   7.711   6.158   9.298  0.5357  0.9773  2.2977
 3436SOL    HW213586   7.756   6.028   9.235 -0.8669  1.7451 -0.4245
 3437SOL     OW13587   5.403   0.751   5.251  0.3353 -0.2502  0.6936
 3437SOL    HW113588   5.308   0.767   5.253  0.4245  0.4145 -0.0470
 3437SOL    HW213589   5.416   0.696   5.175  0.6412  0.3766  0.2834
 3438SOL     OW13590   9.423   7.925   0.835  0.0379  0.3240  0.7746
 3438SOL    HW113591   9.433   7.832   0.819  3.0677  0.8266 -1.0648
 3438SOL    HW213592   9.328   7.939   0.836 -0.5085 -2.6956  0.9544
 3439SOL     OW13593   7.849   9.481   5.312 -0.2491  0.1112 -0.2347
 3439SOL    HW113594   7.813   9.550   5.256 -1.4616 -0.2738  0.0360
 3439SOL    HW213595   7.796   9.485   5.392  0.4090 -0.3943  0.2363
 3440SOL     OW13596   2.015  10.636   5.568  0.4008 -0.1915 -0.7947
 3440SOL    HW113597   1.986  10.554   5.527 -0.0703 -0.8565  0.7820
 3440SOL    HW213598   2.102  10.652   5.531 -0.6121  0.1474 -3.2487
 3441SOL     OW13599   9.055  10.044   1.340 -0.5009  0.1665  0.1227
 3441SOL    HW113600   9.100   9.963   1.317 -2.0028 -0.6484 -0.0479
 3441SOL    HW213601   9.038  10.036   1.434 -0.9675  0.1153  0.0357
 3442SOL     OW13602   9.802   5.285   3.769 -0.1425 -0.0605 -0.3663
 3442SOL    HW113603   9.710   5.302   3.788  0.1235  0.2626  0.6830
 3442SOL    HW213604   9.827   5.354   3.707 -0.8416 -0.7237 -1.4318
 3443SOL     OW13605   4.486   3.564   7.669  0.5059 -0.0826 -0.2894
 3443SOL    HW113606   4.455   3.475   7.687  0.3461 -0.2311 -1.2660
 3443SOL    HW213607   4.423   3.600   7.607  1.6643 -0.0261 -1.5005
 3444SOL     OW13608   7.742   5.095  10.462 -0.1172 -0.2001 -0.1353
 3444SOL    HW113609   7.797   5.020  10.486 -0.9182 -0.5695  0.5805
 3444SOL    HW213610   7.804   5.161  10.430  0.8890 -0.1698  1.7407
 3445SOL     OW13611   6.655   5.985   4.064 -0.0469 -0.0569 -0.6318
 3445SOL    HW113612   6.633   6.062   4.116 -1.3620 -0.0821 -1.1136
 3445SOL    HW213613   6.651   5.912   4.127  0.7888  0.1986 -0.2660
 3446SOL     OW13614   9.752   0.454   5.137 -0.1941 -0.0325 -0.0776
 3446SOL    HW113615   9.660   0.429   5.130 -0.4672  0.8347  0.3617
 3446SOL    HW213616   9.800   0.372   5.122 -0.9789 -0.1964 -1.8644
 3447SOL     OW13617   9.138   9.615   9.472 -0.0378  0.1176  0.1940
 3447SOL    HW113618   9.140   9.711   9.478  0.1035  0.1536 -0.3491
 3447SOL    HW213619   9.212   9.586   9.525  0.6369  0.3676 -0.5910
 3448SOL     OW13620   2.207   7.504   4.697  0.1578  0.2359 -0.4480
 3448SOL    HW113621   2.166   7.492   4.612  0.7965  0.3029 -0.7744
 3448SOL    HW213622   2.142   7.474   4.760 -0.7549  1.2581 -0.8867
 3449SOL     OW13623   8.999   4.203   4.537 -0.1567 -0.0668  0.2421
 3449SOL    HW113624   9.050   4.245   4.607 -0.6875  2.1833 -0.6539
 3449SOL    HW213625   8.918   4.175   4.580  0.4553 -0.7570  0.9838
 3450SOL     OW13626  10.623   3.343   0.169  0.0473 -0.0251  0.1173
 3450SOL    HW113627  10.530   3.327   0.151 -0.1641  0.2741  0.8789
 3450SOL    HW213628  10.665   3.257   0.160 -0.3076 -0.1663 -0.2013
 3451SOL     OW13629  11.125   5.005  10.522 -0.1545 -0.1439  0.2198
 3451SOL    HW113630  11.139   4.977  10.432  0.4162 -1.0867  0.5892
 3451SOL    HW213631  11.196   4.964  10.572 -0.9477 -0.3231  1.2363
 3452SOL     OW13632   8.304   8.893  10.188  0.3070  0.2115 -0.0050
 3452SOL    HW113633   8.315   8.872  10.095  0.9144 -0.1094  0.1356
 3452SOL    HW213634   8.386   8.936  10.213  0.4131 -0.3019  0.5421
 3453SOL     OW13635   0.964   1.953   7.702 -1.2051 -0.0223 -0.6005
 3453SOL    HW113636   0.996   2.044   7.702  0.6600 -0.6248 -1.2269
 3453SOL    HW213637   0.924   1.941   7.788  1.2473  0.5306  0.7174
 3454SOL     OW13638   5.683   4.540   3.901  0.1947  0.8716 -0.1012
 3454SOL    HW113639   5.634   4.589   3.968 -0.2816 -0.1956  0.3584
 3454SOL    HW213640   5.767   4.521   3.942  0.1792  0.8477 -0.0802
 3455SOL     OW13641   7.383   4.746   9.437 -0.3551  0.0779 -0.1256
 3455SOL    HW113642   7.448   4.805   9.475 -0.0121  0.5782 -1.4235
 3455SOL    HW213643   7.304   4.799   9.430  0.0154  0.4887 -1.4989
 3456SOL     OW13644   5.837   1.940   1.693 -0.1356  0.2449  0.1426
 3456SOL    HW113645   5.893   2.007   1.652  0.9781  0.2691  1.6320
 3456SOL    HW213646   5.816   1.977   1.779  0.6695 -1.3892  1.0754
 3457SOL     OW13647   0.363   3.780   1.182  0.2953 -0.2404 -0.0493
 3457SOL    HW113648   0.330   3.690   1.183 -0.7996  0.1178 -1.1222
 3457SOL    HW213649   0.289   3.832   1.151  0.6125  1.1693  1.4252
 3458SOL     OW13650   8.342   8.151   4.925  0.0924 -0.1776  0.1991
 3458SOL    HW113651   8.339   8.231   4.872  2.3497 -0.3907 -0.3571
 3458SOL    HW213652   8.429   8.115   4.909  0.5353 -0.7953  3.3087
 3459SOL     OW13653   3.121   9.087   8.216 -0.5390 -0.0913  0.6500
 3459SOL    HW113654   3.133   8.995   8.193  1.3141  0.2169  0.2753
 3459SOL    HW213655   3.076   9.125   8.141 -1.4543 -0.7038  0.8702
 3460SOL     OW13656  11.183   4.666   9.374 -0.0655  0.0321 -0.1597
 3460SOL    HW113657  11.139   4.701   9.451 -0.9720 -1.0335 -0.1636
 3460SOL    HW213658  11.137   4.705   9.300 -0.4370 -0.4009 -0.1606
 3461SOL     OW13659   1.787   2.505   8.727 -0.2048  0.4756 -0.0223
 3461SOL    HW113660   1.768   2.519   8.634 -1.1448 -5.4728 -1.1867
 3461SOL    HW213661   1.704   2.523   8.771 -0.8959 -0.1902 -0.9936
 3462SOL     OW13662   8.540   2.360   3.781 -0.2149  0.4052  0.3552
 3462SOL    HW113663   8.603   2.427   3.805 -0.8745  2.0505 -2.1439
 3462SOL    HW213664   8.464   2.378   3.837  0.0582  0.9501  0.5625
 3463SOL     OW13665   0.442   8.476   9.432 -0.0432 -0.0697  0.6790
 3463SOL    HW113666   0.420   8.383   9.433 -0.6339  0.0718  1.2926
 3463SOL    HW213667   0.445   8.501   9.524 -0.7842  0.7220  0.5021
 3464SOL     OW13668   7.312   7.754   8.278 -0.0506 -0.5630 -0.0730
 3464SOL    HW113669   7.237   7.761   8.220  0.2811 -0.2910 -0.4786
 3464SOL    HW213670   7.340   7.844   8.293  0.7709 -0.6963 -0.7068
 3465SOL     OW13671  11.290   9.839   5.432 -0.5175  0.0260 -0.3189
 3465SOL    HW113672  11.219   9.850   5.368 -0.9221 -1.0016 -0.0614
 3465SOL    HW213673  11.275   9.909   5.495  0.1189  1.3142 -1.5356
 3466SOL     OW13674   3.491   8.960  10.496 -0.3729 -0.1089 -0.1485
 3466SOL    HW113675   3.535   9.021  10.437 -1.0937  0.1265 -0.4659
 3466SOL    HW213676   3.398   8.969  10.473 -0.5605 -0.7483  0.3455
 3467SOL     OW13677   8.125  10.058   0.717  0.0198 -0.3786  0.3976
 3467SOL    HW113678   8.198  10.109   0.682 -0.4383  0.4466  0.6255
 3467SOL    HW213679   8.156   9.967   0.712  1.5911  0.0350  1.7115
 3468SOL     OW13680   0.639   0.862   8.572  0.1990  0.2820  0.1224
 3468SOL    HW113681   0.578   0.823   8.509  1.9113  1.4814 -2.4265
 3468SOL    HW213682   0.644   0.798   8.643 -2.4806 -0.7382 -0.4968
 3469SOL     OW13683   1.011   7.202   7.547  0.0151 -0.3441 -0.1091
 3469SOL    HW113684   0.967   7.129   7.503 -1.7247 -0.2857  1.4394
 3469SOL    HW213685   0.961   7.279   7.522  0.6062  0.0515 -0.1039
 3470SOL     OW13686   2.226  10.015   1.656 -0.1302 -0.2449  0.7227
 3470SOL    HW113687   2.267  10.066   1.586 -2.3808  1.2802  0.4333
 3470SOL    HW213688   2.201   9.933   1.615 -0.8346  0.3752 -0.0977
 3471SOL     OW13689   3.515   3.637   6.816 -0.3263  0.3138  0.3950
 3471SOL    HW113690   3.496   3.577   6.888 -0.5156  0.7887  0.7484
 3471SOL    HW213691   3.481   3.722   6.846  0.7229  0.7907  0.2718
 3472SOL     OW13692   5.666   5.444   3.230  0.1987  0.1694  0.3000
 3472SOL    HW113693   5.583   5.423   3.272 -0.0756 -0.6436 -0.6065
 3472SOL    HW213694   5.708   5.359   3.215  1.1344  0.5557  0.6007
 3473SOL     OW13695   2.315   2.951   0.814 -0.5281  0.1348  0.5936
 3473SOL    HW113696   2.305   3.046   0.806  0.0676  0.0987 -0.7830
 3473SOL    HW213697   2.275   2.930   0.899  0.2596  1.7345  1.4004
 3474SOL     OW13698   7.311   0.159   5.812  0.2154  0.0801 -0.1070
 3474SOL    HW113699   7.239   0.134   5.870  1.0322 -3.1727 -0.3343
 3474SOL    HW213700   7.386   0.167   5.870  0.5261 -0.7311 -0.3921
 3475SOL     OW13701   8.576   0.341   0.423  0.4105 -0.4076 -0.8094
 3475SOL    HW113702   8.647   0.398   0.395 -0.4771  0.8903 -0.4862
 3475SOL    HW213703   8.606   0.307   0.508 -0.8736  3.2058  1.3140
 3476SOL     OW13704   8.148   9.627   6.244 -0.0806  0.0714  0.7588
 3476SOL    HW113705   8.071   9.644   6.189  0.6706  1.6537  0.1347
 3476SOL    HW213706   8.143   9.692   6.314  1.9183  1.8871 -0.6591
 3477SOL     OW13707   2.195  11.319   5.510  0.0478  0.0862 -0.2205
 3477SOL    HW113708   2.165  11.323   5.601  1.3594 -0.9476  0.2865
 3477SOL    HW213709   2.135  11.377   5.462 -2.2748 -1.2953  0.8416
 3478SOL     OW13710   8.573   9.655   9.356  0.3719 -0.1364 -0.2452
 3478SOL    HW113711   8.589   9.719   9.287 -1.8105  0.3967 -0.3302
 3478SOL    HW213712   8.554   9.708   9.434  0.5966 -0.7053  0.2067
 3479SOL     OW13713   0.136   7.919   9.204 -0.4948  0.4886 -0.0673
 3479SOL    HW113714   0.106   8.009   9.195 -0.3158  0.5973  0.3834
 3479SOL    HW213715   0.163   7.894   9.116  0.6578  1.3148  0.0190
 3480SOL     OW13716   3.741   1.291  10.383 -0.1893 -0.0649 -0.0307
 3480SOL    HW113717   3.686   1.356  10.427 -1.2032 -2.2218  2.1525
 3480SOL    HW213718   3.750   1.221  10.447  0.2262 -2.4224 -2.4967
 3481SOL     OW13719   2.564   4.037   9.829  0.2055  0.3562 -0.0319
 3481SOL    HW113720   2.556   4.082   9.744  2.4711  0.5961 -0.1684
 3481SOL    HW213721   2.560   3.944   9.807 -1.9563  0.3985 -0.0371
 3482SOL     OW13722   8.835   2.451   8.626  0.3988  0.8930 -0.2392
 3482SOL    HW113723   8.826   2.419   8.716  1.9630  0.9676 -0.0155
 3482SOL    HW213724   8.924   2.426   8.601  0.5037  2.1492 -1.2388
 3483SOL     OW13725   0.387   7.389   7.154  0.2063 -0.2637 -0.2577
 3483SOL    HW113726   0.355   7.476   7.178 -0.2581 -0.2691 -0.8373
 3483SOL    HW213727   0.404   7.395   7.060 -2.4665 -1.5618 -0.9197
 3484SOL     OW13728   7.831   5.022   6.309  0.2114 -0.2107 -0.5546
 3484SOL    HW113729   7.916   5.062   6.333 -0.6597  1.8701 -0.6824
 3484SOL    HW213730   7.785   5.013   6.393 -0.4471  1.2246 -0.7322
 3485SOL     OW13731  11.195   7.626   0.653 -0.5779 -0.0521 -0.1359
 3485SOL    HW113732  11.158   7.578   0.726  0.4586  0.4168  0.7284
 3485SOL    HW213733  11.288   7.604   0.654  0.1503  2.6738  0.9288
 3486SOL     OW13734   0.944   1.026   4.287  0.4499 -0.2514 -0.1630
 3486SOL    HW113735   1.025   0.975   4.278  1.7397  1.8995 -1.4827
 3486SOL    HW213736   0.939   1.048   4.380  0.3515 -1.9214  0.2628
 3487SOL     OW13737   9.593   8.899   8.669 -0.2470  0.1631  0.1712
 3487SOL    HW113738   9.683   8.879   8.693  0.2224  1.3845 -0.4743
 3487SOL    HW213739   9.565   8.965   8.732 -0.3082  0.5836 -0.2907
 3488SOL     OW13740  11.204   1.905   2.121 -0.4500  0.4154  0.3545
 3488SOL    HW113741  11.140   1.920   2.190  0.2218 -1.4089  1.4223
 3488SOL    HW213742  11.278   1.961   2.144 -0.7443  0.8044  0.3646
 3489SOL     OW13743  11.277   5.290  10.122  0.6056 -0.1507 -0.2215
 3489SOL    HW113744  11.295   5.310  10.213 -0.2453  0.7043 -0.2260
 3489SOL    HW213745  11.248   5.373  10.084  0.8864 -0.5076 -1.2556
 3490SOL     OW13746   9.540   1.749   4.485  0.4584  0.0674 -0.4775
 3490SOL    HW113747   9.605   1.712   4.545 -1.9053 -1.9100  1.0739
 3490SOL    HW213748   9.510   1.674   4.433  0.2868  1.1825 -2.0712
 3491SOL     OW13749   4.535   2.444   0.491  0.0228 -0.5850  0.3387
 3491SOL    HW113750   4.477   2.448   0.415  0.7876 -0.8488 -0.2765
 3491SOL    HW213751   4.616   2.487   0.461 -0.5595  1.8085  1.8717
 3492SOL     OW13752   9.766   4.268   3.150  0.6009  0.1311  0.3150
 3492SOL    HW113753   9.775   4.195   3.088 -0.4626 -0.7238  1.1166
 3492SOL    HW213754   9.672   4.288   3.151  0.7290  0.7758  0.9261
 3493SOL     OW13755   2.795  10.081   9.651  0.0310 -0.2598  0.3384
 3493SOL    HW113756   2.805  10.001   9.601 -0.4913  0.3851 -0.8285
 3493SOL    HW213757   2.756  10.053   9.734 -0.9952 -1.1069 -0.4075
 3494SOL     OW13758   5.307   6.614   2.201 -0.3464 -0.5208  0.7242
 3494SOL    HW113759   5.382   6.636   2.257 -0.0393  1.1241 -0.2802
 3494SOL    HW213760   5.294   6.520   2.214 -0.7385 -0.1222  4.0847
 3495SOL     OW13761  11.310   3.741   8.732 -0.0752 -0.3298  0.5803
 3495SOL    HW113762  11.354   3.661   8.764 -0.6183 -0.8575  0.0342
 3495SOL    HW213763  11.382   3.800   8.710  0.4382 -1.4345 -0.9458
 3496SOL     OW13764   0.021   7.998   5.528 -0.1532 -0.3188 -0.1931
 3496SOL    HW113765  -0.006   8.089   5.535 -0.5528 -0.4362 -0.1776
 3496SOL    HW213766   0.064   7.992   5.442  0.8175  0.1157  0.2434
 3497SOL     OW13767   6.067   6.941   3.936  0.5770  0.5711  0.2945
 3497SOL    HW113768   5.978   6.920   3.905  0.5706  0.3322  0.4722
 3497SOL    HW213769   6.121   6.939   3.857  0.6886 -0.7236  0.3689
 3498SOL     OW13770  11.037   5.000   3.358 -0.0601 -0.2152 -0.6920
 3498SOL    HW113771  11.101   4.986   3.428 -1.5202 -1.6936  0.4306
 3498SOL    HW213772  11.039   5.094   3.342  0.9684  0.0333  0.7063
 3499SOL     OW13773  10.575   6.201   8.622  0.2449 -0.8347  0.0611
 3499SOL    HW113774  10.648   6.222   8.681  0.9279 -0.4906 -0.8928
 3499SOL    HW213775  10.514   6.150   8.677  1.1587 -1.0648  0.8892
 3500SOL     OW13776   8.497   9.445  10.757 -0.4178  0.1715 -0.4868
 3500SOL    HW113777   8.501   9.503  10.681 -1.6618  0.5029 -0.3251
 3500SOL    HW213778   8.522   9.501  10.830 -0.1596  0.1072 -0.5257
 3501SOL     OW13779   1.268  10.518   9.568 -0.1122  0.5137  0.1090
 3501SOL    HW113780   1.346  10.555   9.611  0.4999 -1.0808  0.4291
 3501SOL    HW213781   1.202  10.587   9.576  0.7227  1.2062  1.4580
 3502SOL     OW13782   5.210   5.908   3.636  0.0254  0.0637  0.7276
 3502SOL    HW113783   5.236   5.948   3.554  0.6857  0.4143  1.0976
 3502SOL    HW213784   5.292   5.890   3.682 -0.3542  1.3242  1.9840
 3503SOL     OW13785   0.412   9.168   2.621 -0.1692 -0.1751  0.2593
 3503SOL    HW113786   0.472   9.156   2.548 -1.1739 -0.7746 -0.5001
 3503SOL    HW213787   0.328   9.133   2.589 -0.4674 -1.1161  1.9552
 3504SOL     OW13788   6.013  11.077   0.878 -0.0916 -0.4154 -0.2666
 3504SOL    HW113789   6.008  11.054   0.971  2.4337  0.1490  0.0874
 3504SOL    HW213790   6.032  11.171   0.878 -0.5136 -0.3251 -1.3628
 3505SOL     OW13791   3.260  10.287   1.593 -0.4214 -0.0369 -0.2512
 3505SOL    HW113792   3.314  10.227   1.541 -0.0947 -0.5182  0.6260
 3505SOL    HW213793   3.307  10.371   1.590 -0.3676 -0.0804 -0.6610
 3506SOL     OW13794   3.465   7.540   0.742 -0.2160 -0.9788  0.1373
 3506SOL    HW113795   3.485   7.486   0.819  2.0706  1.5434  1.4590
 3506SOL    HW213796   3.397   7.600   0.773 -0.0890 -0.6817 -0.1673
 3507SOL     OW13797  10.551   6.192   8.972  0.2559  0.1205 -0.4611
 3507SOL    HW113798  10.634   6.195   9.019  0.9081 -0.2957 -1.5344
 3507SOL    HW213799  10.488   6.235   9.030  1.1792  0.2785  0.4457
 3508SOL     OW13800   6.829   7.997   2.640 -0.0260  0.1838 -0.2310
 3508SOL    HW113801   6.861   7.995   2.550 -0.7196  1.6321 -0.5443
 3508SOL    HW213802   6.838   7.907   2.671  2.0798  0.0592 -1.0662
 3509SOL     OW13803   3.028  10.862   1.205  0.1219 -0.4392 -0.6235
 3509SOL    HW113804   3.035  10.937   1.147 -0.2320 -0.6828 -0.9842
 3509SOL    HW213805   2.939  10.866   1.240  1.0836  1.1712  1.9331
 3510SOL     OW13806   1.831   2.300   4.882  0.0375 -0.1235  0.0115
 3510SOL    HW113807   1.854   2.211   4.854  1.9581 -0.1724  1.5190
 3510SOL    HW213808   1.901   2.325   4.943 -1.0971  1.9753  0.5609
 3511SOL     OW13809  10.089   8.397   4.848 -0.5890  0.1223 -0.1489
 3511SOL    HW113810  10.088   8.411   4.943 -1.4825 -0.2204 -0.0944
 3511SOL    HW213811  10.174   8.357   4.830 -0.1147  0.8683  0.4035
 3512SOL     OW13812   1.580   4.079   7.872 -0.3216  0.6385  0.0623
 3512SOL    HW113813   1.569   4.054   7.781  1.9176  2.8441 -0.9184
 3512SOL    HW213814   1.635   4.010   7.909 -0.5085  0.1858 -0.4937
 3513SOL     OW13815   3.819   6.130   2.085 -0.3247  0.4938 -0.3456
 3513SOL    HW113816   3.861   6.160   2.004 -0.9772 -0.2475 -0.9866
 3513SOL    HW213817   3.727   6.120   2.061 -0.6294  0.8172  0.6590
 3514SOL     OW13818   6.128   8.443   1.695 -0.1500 -0.6238  0.0931
 3514SOL    HW113819   6.033   8.454   1.702 -0.1117  0.2932 -0.6168
 3514SOL    HW213820   6.164   8.510   1.753  0.0721 -0.7218  0.0694
 3515SOL     OW13821   6.445   5.600   8.866  0.0068 -0.4338  0.0661
 3515SOL    HW113822   6.463   5.520   8.816  0.5774 -0.9329  1.0455
 3515SOL    HW213823   6.351   5.598   8.883  0.0931 -1.1118  0.4546
 3516SOL     OW13824   3.256  11.010   4.371 -0.0388  0.4018  0.0237
 3516SOL    HW113825   3.264  10.931   4.316 -0.8507  0.5273 -0.2900
 3516SOL    HW213826   3.286  10.982   4.457  0.0504 -0.1458 -0.1808
 3517SOL     OW13827   1.305   6.889  10.281  0.3932 -0.3480 -0.5401
 3517SOL    HW113828   1.334   6.980  10.279 -0.6759 -0.0062 -1.1591
 3517SOL    HW213829   1.240   6.883  10.211  0.4129 -1.5774 -0.4694
 3518SOL     OW13830   6.901   9.006   8.498 -0.0927  0.4581 -0.5114
 3518SOL    HW113831   6.822   8.957   8.476  0.2975  0.2505 -1.4951
 3518SOL    HW213832   6.964   8.939   8.523 -0.3899  0.6616  0.8834
 3519SOL     OW13833   4.587   2.276   6.068  0.0232  0.3180 -0.6047
 3519SOL    HW113834   4.635   2.335   6.125 -1.3537  0.6958  0.2105
 3519SOL    HW213835   4.616   2.299   5.979  0.4531  1.3215 -0.2185
 3520SOL     OW13836   0.243   0.678  11.054 -0.0148  0.1628 -0.0365
 3520SOL    HW113837   0.264   0.666  10.961  0.2310 -1.7756  0.2353
 3520SOL    HW213838   0.163   0.626  11.067 -1.1074  1.9000  0.4588
 3521SOL     OW13839  10.706   5.097   8.877  0.5709  0.3510  0.0225
 3521SOL    HW113840  10.793   5.135   8.870  0.0996  1.1320 -2.3787
 3521SOL    HW213841  10.654   5.164   8.922  0.8328  0.5571  0.0197
 3522SOL     OW13842   6.030   6.180   9.196 -0.1474 -0.4235 -0.2124
 3522SOL    HW113843   6.006   6.092   9.165 -0.6810 -0.5845  0.6101
 3522SOL    HW213844   5.954   6.234   9.173  0.2378 -0.1448 -0.8370
 3523SOL     OW13845   1.499   3.082  11.060  0.1762 -0.2454 -0.3290
 3523SOL    HW113846   1.510   3.154  10.998  0.0234  0.0124 -0.0548
 3523SOL    HW213847   1.442   3.117  11.128 -1.9775 -1.3552 -1.4362
 3524SOL     OW13848  11.038   9.635   8.501  0.0303 -0.0496  0.1422
 3524SOL    HW113849  11.107   9.582   8.539  0.1409  1.2154  1.8195
 3524SOL    HW213850  10.958   9.585   8.515  0.6033 -1.9560 -2.6355
 3525SOL     OW13851   0.177   1.458  10.216  0.3968  0.1339 -0.0249
 3525SOL    HW113852   0.099   1.421  10.258 -0.3857  1.1802 -0.5073
 3525SOL    HW213853   0.174   1.428  10.126  1.7196 -1.5570  0.4400
 3526SOL     OW13854   1.957   8.177   3.543 -0.1407  0.3231  0.2455
 3526SOL    HW113855   1.872   8.142   3.519 -0.4585  1.0164  0.3267
 3526SOL    HW213856   1.956   8.183   3.638  0.6327 -1.2071  0.3790
 3527SOL     OW13857   5.185   3.767   3.754 -0.4887 -1.0046 -0.5162
 3527SOL    HW113858   5.189   3.718   3.837 -0.4484 -1.2665 -0.6718
 3527SOL    HW213859   5.123   3.838   3.771  1.9085  0.9828  0.8379
 3528SOL     OW13860   6.529   3.279   7.362 -0.0724  0.0618  0.0680
 3528SOL    HW113861   6.551   3.327   7.442 -1.3135  0.4977  0.1696
 3528SOL    HW213862   6.590   3.312   7.296 -1.0917  2.0501  0.0583
 3529SOL     OW13863   7.905   2.669   7.629  0.0563 -0.1827 -0.0415
 3529SOL    HW113864   7.965   2.634   7.694 -0.4417  0.2352  0.6561
 3529SOL    HW213865   7.822   2.679   7.675 -0.3620 -0.0775 -0.7945
 3530SOL     OW13866   2.091   6.706   1.198  0.7741  0.0332 -0.7460
 3530SOL    HW113867   2.175   6.661   1.190 -0.1378 -1.8811 -0.1078
 3530SOL    HW213868   2.028   6.647   1.155 -0.3918  0.9936 -0.4136
 3531SOL     OW13869  10.211   4.402   9.836 -0.4253 -0.2209 -0.2568
 3531SOL    HW113870  10.191   4.322   9.788  0.8934 -1.0453  0.5126
 3531SOL    HW213871  10.207   4.471   9.770  2.0121 -1.3983 -1.8051
 3532SOL     OW13872   5.541   0.617   2.959  0.2269 -0.6205 -0.0150
 3532SOL    HW113873   5.476   0.550   2.935 -1.5082  1.0696 -0.2992
 3532SOL    HW213874   5.537   0.620   3.055  1.1741 -1.6924  0.0805
 3533SOL     OW13875  10.552   5.061   0.131  0.3583  0.3385  0.2811
 3533SOL    HW113876  10.528   5.092   0.218 -0.2025 -1.5415  0.8606
 3533SOL    HW213877  10.471   5.066   0.080  0.6987  1.4887 -0.1712
 3534SOL     OW13878  10.888   3.062   4.637 -0.8299  0.1857 -0.2323
 3534SOL    HW113879  10.866   3.065   4.544  1.6466 -1.3669 -0.9511
 3534SOL    HW213880  10.918   3.150   4.658 -0.5944  0.3259 -1.1328
 3535SOL     OW13881   9.631   6.000   9.634 -0.4485  0.1082 -0.4152
 3535SOL    HW113882   9.685   5.938   9.683  0.0368  1.4839  0.8713
 3535SOL    HW213883   9.638   5.971   9.543  2.7847  0.4048 -0.3640
 3536SOL     OW13884   4.860   0.195   2.135  0.1061 -0.3014 -0.6742
 3536SOL    HW113885   4.823   0.284   2.133  0.1591 -0.2158  0.8403
 3536SOL    HW213886   4.948   0.205   2.099  0.1937  0.3178 -0.3065
 3537SOL     OW13887   0.359   9.329   7.874  0.4069  0.4811  0.1302
 3537SOL    HW113888   0.350   9.376   7.791  1.0304  1.3124  0.5199
 3537SOL    HW213889   0.315   9.384   7.938 -1.2617 -0.8037  0.1586
 3538SOL     OW13890   2.092   4.451   6.490  0.0692 -0.3364 -0.1774
 3538SOL    HW113891   2.023   4.399   6.450  1.4890 -1.1044 -1.7397
 3538SOL    HW213892   2.143   4.388   6.541 -0.4306  0.2513  1.1049
 3539SOL     OW13893   0.752   0.236   7.004 -0.2213 -0.4447  0.2798
 3539SOL    HW113894   0.685   0.304   7.003 -0.7414 -0.8938  1.6672
 3539SOL    HW213895   0.815   0.267   7.069  0.0616 -0.8111  0.1840
 3540SOL     OW13896   7.930   3.548   0.904  0.7054 -0.3051 -0.0323
 3540SOL    HW113897   7.852   3.596   0.877  0.4332  0.3796  1.8345
 3540SOL    HW213898   7.942   3.571   0.996  2.5393 -1.1890 -0.0060
 3541SOL     OW13899   0.194   1.186   0.351 -0.0900  0.1558 -0.4438
 3541SOL    HW113900   0.115   1.156   0.304  0.2187  0.2520 -1.0273
 3541SOL    HW213901   0.218   1.267   0.308 -0.0832  0.5092  0.2095
 3542SOL     OW13902  10.905   6.001   1.304 -0.3526  0.1697 -0.5056
 3542SOL    HW113903  10.839   6.070   1.312 -2.2145 -1.6437  0.8872
 3542SOL    HW213904  10.862   5.933   1.251  0.2749 -1.1525  0.6243
 3543SOL     OW13905  10.188   0.495   3.368 -0.6353 -0.4111 -0.1454
 3543SOL    HW113906  10.221   0.551   3.298 -1.7833  1.0748  0.4268
 3543SOL    HW213907  10.165   0.413   3.325 -2.6855  0.9604 -1.8436
 3544SOL     OW13908   9.345   5.871   4.476 -0.5303 -0.0115 -0.4036
 3544SOL    HW113909   9.395   5.951   4.494  0.3367 -0.5069 -0.5464
 3544SOL    HW213910   9.385   5.835   4.397 -0.4074 -0.9825  0.0868
 3545SOL     OW13911   8.721   1.261  11.266 -0.4674  0.0190 -0.2912
 3545SOL    HW113912   8.771   1.182  11.247  0.0412  0.1609  0.4218
 3545SOL    HW213913   8.701   1.255  11.359  0.2400  1.1074 -0.0569
 3546SOL     OW13914  11.078   8.383   9.958  0.3062  0.0011 -0.1202
 3546SOL    HW113915  11.168   8.388   9.927  0.2239 -2.3704 -0.9828
 3546SOL    HW213916  11.027   8.365   9.879 -0.6480 -0.6775  0.6211
 3547SOL     OW13917   7.685   9.569   8.933 -0.3650 -0.5648 -0.0138
 3547SOL    HW113918   7.729   9.497   8.976  0.0004 -0.7827 -0.7428
 3547SOL    HW213919   7.592   9.556   8.953 -0.1102  0.1078  1.8327
 3548SOL     OW13920   6.312  10.094   4.976 -0.0976  0.0876  0.0982
 3548SOL    HW113921   6.256  10.038   5.029 -1.9303  0.7470 -1.0489
 3548SOL    HW213922   6.337  10.166   5.034 -0.1360 -0.3970  0.7244
 3549SOL     OW13923   6.183   2.463   7.979 -0.4667  0.0187 -0.3444
 3549SOL    HW113924   6.267   2.418   7.969 -0.6556  0.1142 -3.0552
 3549SOL    HW213925   6.118   2.402   7.944 -1.4116  0.4250  0.6281
 3550SOL     OW13926   9.464   5.557  11.090  0.3518 -0.2697 -0.3929
 3550SOL    HW113927   9.370   5.572  11.089  0.2699 -0.5946  0.9272
 3550SOL    HW213928   9.475   5.471  11.048  0.1887  0.2582 -1.5665
 3551SOL     OW13929   4.495   4.201   6.758  0.0364 -0.2340  0.0164
 3551SOL    HW113930   4.496   4.109   6.782 -1.4322  0.3018  2.5051
 3551SOL    HW213931   4.586   4.221   6.736  0.7543 -1.8602  1.2787
 3552SOL     OW13932   2.701   6.765   8.435 -0.2074 -0.3659  0.5839
 3552SOL    HW113933   2.670   6.691   8.383 -0.4206 -0.1195  0.3543
 3552SOL    HW213934   2.650   6.760   8.516 -1.7360  0.7023 -0.2526
 3553SOL     OW13935   1.851   1.475   0.165 -0.0166 -0.3145 -0.3466
 3553SOL    HW113936   1.884   1.456   0.077  0.1383  0.1360 -0.3867
 3553SOL    HW213937   1.909   1.427   0.224 -0.1656 -0.6785 -0.4909
 3554SOL     OW13938   7.492   3.819   5.349 -0.4032 -0.1377  0.3690
 3554SOL    HW113939   7.550   3.771   5.408 -0.9168 -1.4739 -0.1822
 3554SOL    HW213940   7.445   3.879   5.406 -0.8952 -1.4015  1.3422
 3555SOL     OW13941   7.564   8.802   1.217 -0.0804  0.1329 -0.0884
 3555SOL    HW113942   7.606   8.812   1.132  0.7953 -0.4400  0.2558
 3555SOL    HW213943   7.491   8.743   1.201 -0.1958  0.3925 -0.5255
 3556SOL     OW13944   0.682   8.329   8.082  0.4382  0.0383 -0.2267
 3556SOL    HW113945   0.697   8.393   8.013 -0.3460  0.7484  0.2384
 3556SOL    HW213946   0.587   8.316   8.083  0.5496 -0.8312 -0.0498
 3557SOL     OW13947   3.598  11.384  11.165  0.3528  1.0296  0.3817
 3557SOL    HW113948   3.526  11.348  11.216 -0.1044 -0.1788 -1.0481
 3557SOL    HW213949   3.582  11.478  11.163 -0.0204  1.0124  1.8045
 3558SOL     OW13950   3.405   1.717   7.221  0.0829  0.1009 -0.0855
 3558SOL    HW113951   3.431   1.807   7.205  1.1369 -0.4751 -1.8870
 3558SOL    HW213952   3.311   1.715   7.199 -0.1540  0.9146  0.7990
 3559SOL     OW13953   4.655   3.606   0.994  0.4972  0.3855 -0.1273
 3559SOL    HW113954   4.743   3.637   1.015  0.6357  1.1263 -1.6410
 3559SOL    HW213955   4.658   3.585   0.901 -0.4900 -1.1966  0.1426
 3560SOL     OW13956   1.689   6.556   9.873  0.1716 -0.7521 -0.4619
 3560SOL    HW113957   1.747   6.616   9.918  0.9156 -2.0268  0.3428
 3560SOL    HW213958   1.687   6.588   9.782 -0.4580  1.1795  0.1765
 3561SOL     OW13959   7.699   1.492   1.378  0.6394 -0.2689  0.2609
 3561SOL    HW113960   7.653   1.479   1.461  2.0122 -1.9605  0.8300
 3561SOL    HW213961   7.631   1.511   1.314 -0.6107 -0.6031  1.4627
 3562SOL     OW13962   4.421   8.012   6.129  0.8602  0.3930 -0.0453
 3562SOL    HW113963   4.437   7.975   6.042 -2.4481  1.3256 -1.1951
 3562SOL    HW213964   4.443   8.104   6.120  0.2332  0.5522 -0.0200
 3563SOL     OW13965   0.208   5.007   7.148 -0.0795 -0.3692  0.2000
 3563SOL    HW113966   0.226   5.044   7.235  0.6850 -0.7185  0.1981
 3563SOL    HW213967   0.278   5.040   7.093 -1.2582  0.8793 -0.6105
 3564SOL     OW13968   8.289   9.576   8.674 -0.4618  0.0436  0.6038
 3564SOL    HW113969   8.279   9.591   8.767 -1.0153  3.1988  0.1362
 3564SOL    HW213970   8.208   9.609   8.635  1.4224  2.9203 -1.2717
 3565SOL     OW13971   3.012   0.079   7.380  0.0080 -0.4243 -0.5882
 3565SOL    HW113972   2.921   0.095   7.403 -0.1848 -0.7789 -1.0732
 3565SOL    HW213973   3.028  -0.012   7.406 -0.3279 -0.9558 -2.1400
 3566SOL     OW13974   9.032   8.377   4.635  0.1313 -0.1009  0.5915
 3566SOL    HW113975   9.119   8.345   4.658  0.5822  1.2866  0.9417
 3566SOL    HW213976   9.003   8.321   4.564  1.3681 -0.5050  0.3897
 3567SOL     OW13977   9.120   3.835   0.123 -0.8412  0.1540 -0.0624
 3567SOL    HW113978   9.172   3.756   0.109 -2.0898 -0.3862 -2.0354
 3567SOL    HW213979   9.175   3.906   0.088 -0.4100 -0.0545  0.1776
 3568SOL     OW13980   4.669   9.482   6.987  0.4351  0.4094 -0.1365
 3568SOL    HW113981   4.604   9.431   6.938 -0.0261 -0.5476  1.3984
 3568SOL    HW213982   4.753   9.450   6.955  0.1415 -0.4349 -0.0909
 3569SOL     OW13983   1.196   5.216   4.907 -0.1483  0.3875 -0.1470
 3569SOL    HW113984   1.194   5.122   4.929 -1.3987  0.9662  2.6207
 3569SOL    HW213985   1.248   5.255   4.977 -0.3804  1.8929 -0.7914
 3570SOL     OW13986   6.781   4.532   8.037  0.1703  0.2982  0.7795
 3570SOL    HW113987   6.835   4.560   7.963 -2.3770  1.7571 -0.6512
 3570SOL    HW213988   6.711   4.481   7.998  0.2267 -1.2318  2.5503
 3571SOL     OW13989   7.322   9.851   7.056  0.0747 -0.1479  0.7407
 3571SOL    HW113990   7.280   9.890   7.133  0.5017  0.1528  0.8224
 3571SOL    HW213991   7.325   9.922   6.992 -0.8824 -0.5743  0.1964
 3572SOL     OW13992  11.221  10.500   7.415  0.2893  0.0819 -0.3329
 3572SOL    HW113993  11.251  10.475   7.327 -0.2388 -0.1083 -0.4640
 3572SOL    HW213994  11.225  10.418   7.465 -0.6107 -0.0864 -0.5250
 3573SOL     OW13995   6.789   1.045   5.482 -0.6105  0.2867  0.1979
 3573SOL    HW113996   6.736   0.979   5.437 -1.9237  1.9497 -0.7931
 3573SOL    HW213997   6.736   1.069   5.558 -0.2257  0.3745  0.4415
 3574SOL     OW13998  10.669   7.751   7.604 -0.6758  0.2157  0.5529
 3574SOL    HW113999  10.613   7.677   7.627 -1.0162  0.6175  1.0530
 3574SOL    HW214000  10.610   7.814   7.562 -0.4696  0.3608  0.4796
 3575SOL     OW14001   7.031   6.913   4.898 -0.2533  0.2243 -0.2599
 3575SOL    HW114002   7.055   6.924   4.806 -1.0271  0.5883 -0.4283
 3575SOL    HW214003   7.049   6.821   4.918 -0.6920 -0.0139 -0.9569
 3576SOL     OW14004  10.853   3.429  11.066  0.5223  0.1029 -0.1009
 3576SOL    HW114005  10.843   3.390  11.153 -2.1716 -0.0755 -0.3849
 3576SOL    HW214006  10.809   3.367  11.007 -1.9172  2.3778 -0.8828
 3577SOL     OW14007   0.770   3.549   4.201 -0.4632 -0.2974 -0.1609
 3577SOL    HW114008   0.800   3.546   4.110 -2.5909  1.6682 -1.0140
 3577SOL    HW214009   0.770   3.457   4.229 -1.4154 -1.1820 -2.7394
 3578SOL     OW14010   9.282   4.586   5.972  0.3276  0.5977 -0.2404
 3578SOL    HW114011   9.233   4.552   5.897 -1.4560 -1.8551  1.8386
 3578SOL    HW214012   9.373   4.564   5.953 -0.2302 -1.0954 -1.1753
 3579SOL     OW14013   6.183   4.200   5.363 -0.2878 -0.1231  0.3561
 3579SOL    HW114014   6.094   4.221   5.391 -0.3767 -1.3075  1.0247
 3579SOL    HW214015   6.229   4.177   5.444  0.7224  0.7216  0.0602
 3580SOL     OW14016  10.956   4.864   6.607  0.1569  0.2788 -0.0155
 3580SOL    HW114017  11.013   4.868   6.530  0.4814 -0.1658  0.2002
 3580SOL    HW214018  10.987   4.788   6.656 -0.9067 -0.2305 -0.1150
 3581SOL     OW14019   2.808   8.873   5.974 -0.6701 -0.1552 -0.2349
 3581SOL    HW114020   2.888   8.839   5.934  0.0055  0.3326  0.6706
 3581SOL    HW214021   2.817   8.968   5.969  0.2670  0.0036  2.5453
 3582SOL     OW14022   9.662   2.201   1.967 -0.4677 -0.0153  0.3405
 3582SOL    HW114023   9.646   2.202   1.873 -0.6666  0.0785  0.3752
 3582SOL    HW214024   9.648   2.292   1.995  1.3190  0.3553  0.1718
 3583SOL     OW14025   8.985   2.769  10.897  0.3408  0.4047 -0.9212
 3583SOL    HW114026   9.071   2.785  10.858  0.7785  1.7635  0.4757
 3583SOL    HW214027   8.974   2.841  10.960 -1.4749 -0.1922 -0.4982
 3584SOL     OW14028   9.635   9.377   6.453 -0.5278 -0.2125  0.0584
 3584SOL    HW114029   9.626   9.386   6.548  0.3736 -1.4149  0.2884
 3584SOL    HW214030   9.681   9.293   6.441  1.0114  0.7567 -1.3611
 3585SOL     OW14031  10.155   9.500   1.002  0.1381 -0.3012 -0.4865
 3585SOL    HW114032  10.107   9.505   0.919 -0.0747 -0.7358 -0.3928
 3585SOL    HW214033  10.163   9.406   1.020  0.8614 -0.2310 -0.4019
 3586SOL     OW14034   1.056   3.842   2.867  0.1003  0.0992  0.0815
 3586SOL    HW114035   1.113   3.767   2.851 -1.0092 -0.5001 -1.3229
 3586SOL    HW214036   1.095   3.913   2.817  0.9378  0.3779  1.0995
 3587SOL     OW14037   5.519   1.694   4.022 -0.1452  0.3431 -0.0426
 3587SOL    HW114038   5.454   1.636   3.983  1.9730 -1.8835 -0.4460
 3587SOL    HW214039   5.580   1.636   4.067  0.7796  2.4474  1.5846
 3588SOL     OW14040   5.734   3.875   1.751  0.4019  0.2833 -0.1557
 3588SOL    HW114041   5.763   3.807   1.812 -1.2924  0.4003  0.8546
 3588SOL    HW214042   5.640   3.857   1.738  0.5524  0.6909 -2.2071
 3589SOL     OW14043  10.106   4.799   3.873  0.3148 -0.0209  0.3144
 3589SOL    HW114044  10.146   4.836   3.794  0.5531 -2.0518 -0.5563
 3589SOL    HW214045  10.178   4.796   3.937  0.2650  1.0697  0.4487
 3590SOL     OW14046   0.169  10.833   1.584 -0.1968  0.1332 -0.2449
 3590SOL    HW114047   0.198  10.904   1.640 -0.9575 -3.0368  4.7322
 3590SOL    HW214048   0.247  10.780   1.568 -0.0517  0.8278 -2.1544
 3591SOL     OW14049   1.077   8.768   0.709 -0.2064  0.0247 -0.6399
 3591SOL    HW114050   1.136   8.776   0.785 -1.0773 -0.3001  0.0873
 3591SOL    HW214051   0.990   8.758   0.748 -0.6013 -0.7020 -1.6899
 3592SOL     OW14052   3.038   8.771   5.897  0.4783  0.2560 -0.7219
 3592SOL    HW114053   3.098   8.701   5.923 -1.3161 -2.0515 -2.3475
 3592SOL    HW214054   3.096   8.840   5.864  2.3734  0.1454  2.0183
 3593SOL     OW14055   3.801   0.068   5.632  0.0883  0.2877  0.2874
 3593SOL    HW114056   3.748   0.107   5.701 -1.2965 -0.4476 -0.3158
 3593SOL    HW214057   3.842  -0.008   5.673 -1.2983 -0.5652  0.1576
 3594SOL     OW14058   1.278   3.054   9.796 -0.0106 -0.2917 -0.0386
 3594SOL    HW114059   1.317   2.981   9.748  2.4994  0.1781  1.1057
 3594SOL    HW214060   1.222   3.012   9.861  0.2768 -1.1297 -0.3101
 3595SOL     OW14061   6.198   0.353   4.681 -0.5908  0.1990  0.0518
 3595SOL    HW114062   6.142   0.275   4.688  0.4712 -0.4833  1.4605
 3595SOL    HW214063   6.250   0.352   4.761  0.2610  1.7463 -0.4450
 3596SOL     OW14064   7.959  10.514   7.762 -0.6419  0.0468  0.3082
 3596SOL    HW114065   8.010  10.448   7.809 -2.4150 -0.1505  2.0678
 3596SOL    HW214066   8.024  10.565   7.714  1.3264  0.2062  2.9151
 3597SOL     OW14067  10.327   5.184   1.728  0.2038 -0.3629 -0.8578
 3597SOL    HW114068  10.274   5.261   1.750 -0.5180 -0.8098 -1.0110
 3597SOL    HW214069  10.271   5.131   1.671 -0.6527 -2.6737  1.9141
 3598SOL     OW14070   0.393   1.687   9.585  0.2377 -0.7471 -0.1251
 3598SOL    HW114071   0.454   1.614   9.592  0.6937 -0.3326  0.2614
 3598SOL    HW214072   0.433   1.746   9.522 -1.3911 -2.0402 -2.5209
 3599SOL     OW14073   8.560   3.757   9.091 -0.5807  0.3140  0.1053
 3599SOL    HW114074   8.625   3.824   9.069 -1.5035  0.5644 -2.1443
 3599SOL    HW214075   8.575   3.687   9.028 -1.1860 -0.5426  0.8796
 3600SOL     OW14076  11.158   4.966   6.898  0.7738  0.2127 -0.4163
 3600SOL    HW114077  11.091   5.032   6.879  0.3399 -0.3538 -0.8787
 3600SOL    HW214078  11.229   4.985   6.837  0.3392 -0.1960 -1.0590
 3601SOL     OW14079   8.951   9.247   4.457  0.5248 -0.2114 -0.0898
 3601SOL    HW114080   8.943   9.342   4.466 -0.2976 -0.2031 -0.7869
 3601SOL    HW214081   9.036   9.226   4.495  1.1398  0.9223 -0.7857
 3602SOL     OW14082   6.155   8.416  11.364 -0.2956  0.2886  0.5927
 3602SOL    HW114083   6.224   8.387  11.305  1.0393  0.4020  2.0402
 3602SOL    HW214084   6.084   8.353  11.350  0.1582  0.0524 -0.7828
 3603SOL     OW14085   2.239   2.145   7.254 -0.2101  0.3630 -0.3132
 3603SOL    HW114086   2.262   2.196   7.331 -0.1389  0.2194 -0.2382
 3603SOL    HW214087   2.320   2.100   7.230 -1.0385 -2.5873  1.7928
 3604SOL     OW14088   7.813  10.015   8.725 -0.1265  1.2008  0.0902
 3604SOL    HW114089   7.732  10.034   8.677 -0.2605  0.3471 -0.0361
 3604SOL    HW214090   7.791  10.030   8.817 -0.1767  1.7991 -0.0135
 3605SOL     OW14091   7.623   8.266   7.273  0.2248  0.3280 -0.3458
 3605SOL    HW114092   7.692   8.224   7.222 -1.4058 -0.4446 -2.0469
 3605SOL    HW214093   7.608   8.350   7.228 -3.2177 -1.5539 -3.2293
 3606SOL     OW14094   2.429   0.609   8.663 -0.3245  0.4890  0.5577
 3606SOL    HW114095   2.360   0.589   8.600 -0.8745 -0.7576  1.5174
 3606SOL    HW214096   2.454   0.524   8.700  0.2197  1.1444  1.7846
 3607SOL     OW14097   4.534   1.164   7.224  0.2032 -0.0260 -0.0605
 3607SOL    HW114098   4.572   1.081   7.253  0.4765 -0.1668 -0.7932
 3607SOL    HW214099   4.450   1.140   7.186  0.8426 -0.1518 -1.4529
 3608SOL     OW14100   0.711   3.191   5.824  0.3656  0.2022  0.2890
 3608SOL    HW114101   0.696   3.244   5.903  1.1099 -2.1065  2.0839
 3608SOL    HW214102   0.625   3.155   5.802  0.1089  1.0459 -0.1588
 3609SOL     OW14103  11.335   3.697   1.328  0.2447  0.5128 -0.2649
 3609SOL    HW114104  11.261   3.654   1.284 -0.2582  2.1917 -1.1133
 3609SOL    HW214105  11.306   3.707   1.419  0.5515 -1.2770  0.0767
 3610SOL     OW14106  11.316   4.260   8.744  0.5612 -0.1740  0.4303
 3610SOL    HW114107  11.383   4.329   8.742 -0.0560  0.4960  1.4393
 3610SOL    HW214108  11.318   4.228   8.834 -1.8290  1.3092  1.1326
 3611SOL     OW14109   0.039   3.304  10.847 -0.1410  0.3928  0.0954
 3611SOL    HW114110   0.006   3.265  10.928  1.7099 -2.4494 -0.3499
 3611SOL    HW214111   0.019   3.397  10.855 -2.0800 -0.1296  2.7388
 3612SOL     OW14112   0.320   4.270   7.848  0.2403 -0.2005 -0.4274
 3612SOL    HW114113   0.235   4.314   7.844 -0.1949 -0.9252  0.5747
 3612SOL    HW214114   0.305   4.193   7.903  2.2976  1.3562  2.5358
 3613SOL     OW14115   9.579   3.653   2.975  0.3081 -0.0418  0.3602
 3613SOL    HW114116   9.558   3.747   2.980  0.4744  0.1488 -1.8643
 3613SOL    HW214117   9.643   3.640   3.046  1.2251  1.8084 -0.0649
 3614SOL     OW14118  10.372   3.473   4.759  0.1272 -0.1245 -0.3664
 3614SOL    HW114119  10.409   3.542   4.703  2.5445 -1.5374 -0.6253
 3614SOL    HW214120  10.364   3.514   4.845  0.7541  0.7328 -0.6969
 3615SOL     OW14121  10.300   3.999   5.280  0.1389  0.0497  0.0557
 3615SOL    HW114122  10.388   4.018   5.248  0.4114 -0.0429  0.7377
 3615SOL    HW214123  10.244   4.006   5.202  0.8168 -0.4045 -0.4808
 3616SOL     OW14124   3.497   3.241   2.779 -1.1367  0.1512  1.2162
 3616SOL    HW114125   3.427   3.294   2.740 -0.2165 -0.3813 -1.4263
 3616SOL    HW214126   3.475   3.152   2.753 -0.8156 -0.3353  2.5845
 3617SOL     OW14127   4.009   5.678   2.515 -0.2393  0.4805 -0.2725
 3617SOL    HW114128   4.098   5.645   2.522 -1.7548 -3.9250  1.0158
 3617SOL    HW214129   3.983   5.699   2.605 -0.8465  0.8237 -0.5169
 3618SOL     OW14130   5.145   6.998   3.506  0.3847  0.0276  0.4089
 3618SOL    HW114131   5.057   7.034   3.504 -0.1984 -1.4088 -1.0336
 3618SOL    HW214132   5.133   6.907   3.532  1.4764 -0.1240  0.4190
 3619SOL     OW14133   7.261   7.561   8.827  0.1464 -0.0744 -0.6443
 3619SOL    HW114134   7.341   7.514   8.806 -0.0195  0.4143 -2.6655
 3619SOL    HW214135   7.264   7.575   8.921  0.9840 -2.6437 -0.2264
 3620SOL     OW14136   1.278   7.532   8.357  0.2208 -0.5026 -0.2955
 3620SOL    HW114137   1.355   7.560   8.407 -1.1316  2.1075  0.4969
 3620SOL    HW214138   1.203   7.558   8.410 -1.3034  1.9955 -3.2671
 3621SOL     OW14139  10.988   3.052   1.779  0.2173 -0.3723  0.1997
 3621SOL    HW114140  10.997   3.147   1.774 -0.9266 -0.1365  1.7826
 3621SOL    HW214141  11.032   3.020   1.700  1.8402  1.3686  0.3118
 3622SOL     OW14142   2.885   2.748  11.193  0.0036  0.2095 -0.3016
 3622SOL    HW114143   2.846   2.828  11.158  0.2366 -0.4307 -2.1397
 3622SOL    HW214144   2.812   2.703  11.236 -0.6393  0.3840 -1.1808
 3623SOL     OW14145   7.669   3.023   8.898  0.4966 -0.5257  0.0181
 3623SOL    HW114146   7.741   3.010   8.961  2.1498  0.3951 -1.5963
 3623SOL    HW214147   7.645   3.115   8.908 -0.6300 -0.8781  0.6856
 3624SOL     OW14148   3.938   5.160   2.809  0.0369  0.2628  0.2898
 3624SOL    HW114149   3.893   5.213   2.875  0.1920 -1.0958  1.5288
 3624SOL    HW214150   3.912   5.070   2.827 -0.2201 -0.1298 -1.7783
 3625SOL     OW14151   2.725   8.967  10.676 -0.5531 -0.2631  0.1847
 3625SOL    HW114152   2.639   9.002  10.654 -0.0848  0.2687 -0.8756
 3625SOL    HW214153   2.784   9.003  10.610  0.6401  0.0303  1.3441
 3626SOL     OW14154   4.878   5.752   0.026 -0.4453  0.3890  0.4124
 3626SOL    HW114155   4.971   5.756   0.003 -0.4301  0.3084  0.4581
 3626SOL    HW214156   4.874   5.786   0.115 -0.6846  2.0334 -0.1886
 3627SOL     OW14157   9.472   4.316   8.590  0.0852  0.1543 -0.4277
 3627SOL    HW114158   9.406   4.379   8.617  0.4365 -0.5920  2.5433
 3627SOL    HW214159   9.537   4.318   8.660  0.1832 -3.2984 -0.2121
 3628SOL     OW14160   9.752   4.848   3.059 -0.3292 -0.1431  0.5042
 3628SOL    HW114161   9.727   4.756   3.048 -0.0478 -0.1626  0.0180
 3628SOL    HW214162   9.842   4.845   3.092 -0.3633 -0.0421  0.6079
 3629SOL     OW14163   3.703   2.585   2.268  0.2558  0.1892 -0.6065
 3629SOL    HW114164   3.701   2.610   2.175 -1.5034  1.0920 -0.3590
 3629SOL    HW214165   3.741   2.662   2.312 -0.7142  0.5483 -0.3779
 3630SOL     OW14166   1.432   8.481   9.437  0.3198 -0.8112 -0.0705
 3630SOL    HW114167   1.362   8.422   9.408  1.0131 -3.7233  3.4815
 3630SOL    HW214168   1.388   8.544   9.495  0.3797 -1.8882  1.1922
 3631SOL     OW14169   5.058   2.024   6.201  0.2883 -0.1373  0.4715
 3631SOL    HW114170   5.064   1.959   6.271  0.7823  0.9276  1.4538
 3631SOL    HW214171   5.081   2.107   6.243 -1.7577  0.9416 -0.3839
 3632SOL     OW14172   9.253   3.218   5.802 -0.3933  0.2178 -0.4492
 3632SOL    HW114173   9.176   3.209   5.857 -1.5849  1.0612 -1.8944
 3632SOL    HW214174   9.272   3.312   5.802 -0.5854  0.2716 -1.6641
 3633SOL     OW14175   4.335   8.305   5.428 -0.4999 -0.4366 -0.0422
 3633SOL    HW114176   4.254   8.336   5.467 -0.2450 -0.4645  0.5108
 3633SOL    HW214177   4.357   8.370   5.362  0.7106  1.2835  1.9472
 3634SOL     OW14178   2.565  10.145   8.466 -0.0115 -0.2859 -0.2251
 3634SOL    HW114179   2.602  10.166   8.552 -1.8464  0.2813  0.4844
 3634SOL    HW214180   2.512  10.222   8.444 -0.4634 -0.9000 -1.3464
 3635SOL     OW14181   2.497   9.816   1.417  0.0378  0.6537 -0.2652
 3635SOL    HW114182   2.407   9.783   1.406 -0.1247  1.4715 -1.5397
 3635SOL    HW214183   2.524   9.782   1.502 -1.0169 -0.6776 -0.4193
 3636SOL     OW14184   6.459  11.286   4.474  0.0317 -0.4132  0.0965
 3636SOL    HW114185   6.545  11.299   4.436 -0.0804  0.1314  0.0183
 3636SOL    HW214186   6.447  11.191   4.476 -0.9174 -0.5097 -3.4358
 3637SOL     OW14187   1.857   6.675   6.027  0.0754 -0.7011  0.0396
 3637SOL    HW114188   1.775   6.667   5.978 -0.1462 -1.6680  0.5386
 3637SOL    HW214189   1.835   6.733   6.100 -0.4973 -1.8060  0.7890
 3638SOL     OW14190   6.251   4.117   0.821  0.5245  0.8151  0.3868
 3638SOL    HW114191   6.333   4.151   0.783  1.1924 -1.8929 -0.8421
 3638SOL    HW214192   6.189   4.119   0.749  0.9640 -1.6213 -0.1590
 3639SOL     OW14193   3.061   2.012  10.052  0.9085  0.1027 -0.5549
 3639SOL    HW114194   3.039   2.069  10.126  1.4389 -0.0302 -0.2888
 3639SOL    HW214195   3.004   1.936  10.063  2.0200 -0.6092  0.5875
 3640SOL     OW14196   6.746   8.370   2.739  0.1800  1.0500  0.2882
 3640SOL    HW114197   6.748   8.450   2.791 -0.2774  1.2239  0.0430
 3640SOL    HW214198   6.839   8.346   2.728  0.3361  1.7830 -0.0102
 3641SOL     OW14199   9.377  10.637   3.434  0.0517 -0.8537  0.1004
 3641SOL    HW114200   9.432  10.602   3.504  1.1226 -1.1363 -0.8589
 3641SOL    HW214201   9.370  10.566   3.371  0.4866 -0.0633 -0.8598
 3642SOL     OW14202   3.790   2.877   8.403 -0.5753 -0.5519  0.2144
 3642SOL    HW114203   3.773   2.959   8.356 -0.1906 -0.1165  0.8245
 3642SOL    HW214204   3.748   2.890   8.488  3.3543  0.9260  2.1649
 3643SOL     OW14205   8.116   9.439   0.421  0.0793 -0.3995  0.3351
 3643SOL    HW114206   8.195   9.435   0.474 -0.3769 -0.3463  1.0209
 3643SOL    HW214207   8.143   9.402   0.336  0.7412 -0.7277  0.6792
 3644SOL     OW14208  10.665   4.738   0.737 -0.4875  0.3494  0.1700
 3644SOL    HW114209  10.599   4.670   0.724  0.3999 -0.6359  0.7289
 3644SOL    HW214210  10.664   4.755   0.831  0.7777 -0.4414  0.3481
 3645SOL     OW14211   6.102   8.810   1.323  0.3317  0.1191 -0.0013
 3645SOL    HW114212   6.095   8.786   1.231  1.2285 -0.0863 -0.0266
 3645SOL    HW214213   6.165   8.883   1.324  0.9143 -0.3776  0.5096
 3646SOL     OW14214  10.966   3.805   3.960  0.1663 -0.1245 -0.8797
 3646SOL    HW114215  10.972   3.900   3.971  0.4385 -0.1263 -0.9798
 3646SOL    HW214216  11.037   3.770   4.014 -1.6631 -0.4638  1.4671
 3647SOL     OW14217  10.630   5.435   0.127  0.6005 -0.6080  0.7346
 3647SOL    HW114218  10.600   5.394   0.046 -2.2203 -2.2100  2.4401
 3647SOL    HW214219  10.581   5.517   0.131 -1.0475 -1.5870  1.8198
 3648SOL     OW14220   2.683   5.472   5.406 -0.1470  0.0146 -0.1350
 3648SOL    HW114221   2.725   5.540   5.353  0.3416 -1.1533 -1.2766
 3648SOL    HW214222   2.679   5.510   5.494  0.5006  1.3474 -0.6494
 3649SOL     OW14223   8.351   9.726   6.452 -0.4229  0.3608  0.0129
 3649SOL    HW114224   8.378   9.665   6.384  2.1799  0.1467  1.1280
 3649SOL    HW214225   8.386   9.689   6.533 -0.5383  2.3004  1.0123
 3650SOL     OW14226   7.997   1.532   5.714  0.0305  0.7239  0.2392
 3650SOL    HW114227   7.962   1.497   5.632 -0.4835 -0.1888  0.8375
 3650SOL    HW214228   7.923   1.532   5.774  0.7931 -0.3401  1.2446
 3651SOL     OW14229   3.930   4.285   9.349  0.3055  0.1185  0.7220
 3651SOL    HW114230   3.846   4.314   9.384  0.4042  1.8309 -0.3443
 3651SOL    HW214231   3.907   4.231   9.274  0.1462  0.8877  0.2086
 3652SOL     OW14232   0.827   3.202   4.914 -0.1896  0.1790 -0.0117
 3652SOL    HW114233   0.916   3.226   4.889 -0.4009  0.1349 -0.8253
 3652SOL    HW214234   0.807   3.125   4.861 -0.2292 -0.6424  1.1424
 3653SOL     OW14235   4.137   0.718   9.329  0.1094 -0.4343 -0.2969
 3653SOL    HW114236   4.180   0.701   9.413 -0.2298  1.5052  0.3159
 3653SOL    HW214237   4.063   0.775   9.351  0.9265  1.4191 -2.0628
 3654SOL     OW14238   5.790   4.341   0.709 -0.1014 -0.0383  0.4824
 3654SOL    HW114239   5.808   4.272   0.645 -1.4723  1.8390 -2.1546
 3654SOL    HW214240   5.858   4.406   0.694 -0.6323  0.5779  0.6787
 3655SOL     OW14241   1.127   7.295  10.989 -0.4272 -0.4449 -0.0631
 3655SOL    HW114242   1.161   7.373  11.032 -2.9105  1.4598 -1.2702
 3655SOL    HW214243   1.184   7.283  10.913 -0.5115  0.7742 -0.3462
 3656SOL     OW14244   1.567   3.691   7.291  0.3749  0.0670  0.0734
 3656SOL    HW114245   1.506   3.643   7.235  1.3256 -1.3295  0.1698
 3656SOL    HW214246   1.561   3.648   7.376  1.0080  0.3308  0.2608
 3657SOL     OW14247   0.809   3.690   2.064  0.1932 -0.2991 -0.2412
 3657SOL    HW114248   0.761   3.675   1.983 -0.4467  1.6223 -0.2835
 3657SOL    HW214249   0.755   3.753   2.112 -1.0833 -3.5520  3.1566
 3658SOL     OW14250   0.434   1.862   2.793  0.5444  0.5692 -0.3334
 3658SOL    HW114251   0.451   1.905   2.708  0.5769 -1.2713 -1.3050
 3658SOL    HW214252   0.431   1.769   2.772  1.1527  0.0244  1.8239
 3659SOL     OW14253   6.600   8.051   1.380 -0.3092 -0.3695 -0.0274
 3659SOL    HW114254   6.578   8.021   1.468  0.4759 -0.5908  0.1020
 3659SOL    HW214255   6.529   8.112   1.357 -1.0175 -1.0346  0.3697
 3660SOL     OW14256   7.211   3.232   9.915 -0.3298  0.0724  0.0946
 3660SOL    HW114257   7.150   3.218   9.842 -0.7089  0.6553  0.2872
 3660SOL    HW214258   7.171   3.304   9.965  0.5109  0.4519  0.2297
 3661SOL     OW14259  10.400   6.248  11.351 -0.3652  0.4289 -0.3394
 3661SOL    HW114260  10.401   6.332  11.396 -0.5297 -0.4393  1.3523
 3661SOL    HW214261  10.332   6.197  11.395  3.0916 -2.4428  2.3658
 3662SOL     OW14262   2.397   9.918   0.393 -0.6745  0.7115  0.1350
 3662SOL    HW114263   2.447   9.869   0.328  1.0664  2.0114  0.4250
 3662SOL    HW214264   2.306   9.905   0.367 -0.1839 -1.1791 -0.8104
 3663SOL     OW14265  11.160   9.088   3.927  0.2188  0.4754 -0.1280
 3663SOL    HW114266  11.241   9.058   3.968  0.1795  1.9017  1.0961
 3663SOL    HW214267  11.188   9.133   3.847  0.4224 -0.9725 -0.9023
 3664SOL     OW14268   2.284   1.804   8.750  0.4028 -0.0129 -0.0871
 3664SOL    HW114269   2.220   1.869   8.779 -0.2003 -0.3320 -0.6896
 3664SOL    HW214270   2.328   1.845   8.676  1.3090  0.4322  0.6667
 3665SOL     OW14271  10.614   9.731   2.530 -0.2323  0.4703  0.0408
 3665SOL    HW114272  10.643   9.750   2.440 -1.3706  1.6793 -0.1033
 3665SOL    HW214273  10.681   9.770   2.586  1.2603 -1.5457 -0.2305
 3666SOL     OW14274   7.843   4.212   7.518  0.8706  0.2809  0.0817
 3666SOL    HW114275   7.778   4.256   7.573  0.7340 -0.1750  0.2960
 3666SOL    HW214276   7.813   4.121   7.514  0.9613  0.2733 -0.6291
 3667SOL     OW14277   4.410   0.152   8.679  0.1210 -0.3232 -0.3270
 3667SOL    HW114278   4.347   0.202   8.731  0.3909  0.9837 -1.1817
 3667SOL    HW214279   4.372   0.151   8.591 -0.0839 -2.0530 -0.2399
 3668SOL     OW14280   1.350   2.452   1.097  0.7192  0.1398  0.2753
 3668SOL    HW114281   1.286   2.443   1.168  0.2185 -1.3274 -0.3050
 3668SOL    HW214282   1.403   2.373   1.104  3.5583  2.0327  1.7136
 3669SOL     OW14283   0.419   8.453   2.944  0.3216 -0.2192 -0.1739
 3669SOL    HW114284   0.431   8.545   2.922  1.0352 -0.3945 -0.5542
 3669SOL    HW214285   0.328   8.446   2.974  0.6949  0.8975  1.3478
 3670SOL     OW14286   7.555   8.175   2.930 -0.2041  0.0098 -0.3275
 3670SOL    HW114287   7.505   8.145   3.006  0.7078 -0.8273 -0.0330
 3670SOL    HW214288   7.495   8.231   2.882 -1.2954 -0.6819  0.1990
 3671SOL     OW14289   5.728   8.515   3.732  0.2390 -0.7033 -0.7236
 3671SOL    HW114290   5.816   8.550   3.719 -0.1735  0.4919 -0.4298
 3671SOL    HW214291   5.687   8.576   3.793 -1.6388  0.2432 -2.8095
 3672SOL     OW14292   2.816   0.017   1.581  0.4460 -0.0925  0.4771
 3672SOL    HW114293   2.783   0.101   1.550  0.8898 -0.1182 -0.0876
 3672SOL    HW214294   2.825   0.028   1.676 -0.7736  0.0428  0.5849
 3673SOL     OW14295   2.902   9.830   5.068  0.2739 -0.6603 -0.2406
 3673SOL    HW114296   2.880   9.748   5.025 -0.2402  0.1803 -1.6313
 3673SOL    HW214297   2.866   9.898   5.011  1.3047  0.5655  0.5164
 3674SOL     OW14298   8.741   2.677   4.339  0.5520 -0.1251 -0.4913
 3674SOL    HW114299   8.811   2.715   4.392  2.0559  1.3474 -3.3147
 3674SOL    HW214300   8.762   2.584   4.334  0.1376 -0.4044  1.6921
 3675SOL     OW14301   2.308   9.795  10.131  0.0526 -0.2577  0.4269
 3675SOL    HW114302   2.387   9.744  10.149  0.7599  0.6807  0.0714
 3675SOL    HW214303   2.253   9.737  10.079  1.0910 -0.4692 -0.4779
 3676SOL     OW14304   9.722   3.167   5.279 -0.4429 -0.1012  0.4884
 3676SOL    HW114305   9.752   3.081   5.308 -0.7673 -0.3074  0.2255
 3676SOL    HW214306   9.798   3.224   5.289 -0.1205 -0.4973  0.3233
 3677SOL     OW14307  11.206   9.929   3.792 -0.0002  0.4616 -0.6118
 3677SOL    HW114308  11.282   9.964   3.839  0.0599  0.5067 -0.7425
 3677SOL    HW214309  11.158  10.007   3.764  1.2216  0.5305 -2.7238
 3678SOL     OW14310   0.002   5.760   9.159 -0.0187 -0.1475 -0.2537
 3678SOL    HW114311  -0.086   5.723   9.166  0.2429 -0.5426  1.5637
 3678SOL    HW214312  -0.010   5.843   9.113 -1.3008 -0.3070 -0.2448
 3679SOL     OW14313   3.003  11.398  11.146 -0.3658  0.4591  0.1420
 3679SOL    HW114314   2.964  11.420  11.061  0.0926 -0.6374 -0.3744
 3679SOL    HW214315   3.083  11.351  11.125 -0.3829 -0.0750  1.1803
 3680SOL     OW14316   2.314   1.570   3.239 -0.4548 -0.1938  0.6636
 3680SOL    HW114317   2.263   1.492   3.217 -1.8567  0.2361  2.1842
 3680SOL    HW214318   2.276   1.639   3.184 -0.2659 -0.2543  0.4560
 3681SOL     OW14319   6.130  10.936  10.169 -0.0626  0.3405 -0.5512
 3681SOL    HW114320   6.137  10.845  10.198  0.1077  0.3271 -0.6354
 3681SOL    HW214321   6.183  10.941  10.090  2.0735  1.1141  0.8537
 3682SOL     OW14322   5.397   0.552   1.245  0.4085  0.2940 -0.0003
 3682SOL    HW114323   5.344   0.619   1.289 -1.0871 -1.7925  1.6116
 3682SOL    HW214324   5.454   0.517   1.313 -0.0475 -1.2004 -0.3486
 3683SOL     OW14325  10.794   1.291   4.023  0.0908 -0.0759 -0.3654
 3683SOL    HW114326  10.704   1.324   4.019 -0.1566 -0.6964 -0.0148
 3683SOL    HW214327  10.836   1.345   4.090 -0.4811 -0.8461  0.6429
 3684SOL     OW14328   8.542   0.076   3.139  0.3719 -0.1748 -0.0820
 3684SOL    HW114329   8.594   0.037   3.209 -1.8674 -0.7314  1.3779
 3684SOL    HW214330   8.586   0.049   3.058  2.0324 -1.0044  1.0491
 3685SOL     OW14331   6.412   9.051   1.633 -0.3003  0.3108  0.3264
 3685SOL    HW114332   6.458   9.136   1.635  0.3875 -0.0045 -0.9388
 3685SOL    HW214333   6.464   8.998   1.573 -0.8208 -0.9626  0.9856
 3686SOL     OW14334   0.933   4.186   0.370 -1.1239  0.1364  0.0848
 3686SOL    HW114335   0.852   4.190   0.319  0.2764  1.8956 -2.1990
 3686SOL    HW214336   0.925   4.258   0.433 -1.5674 -0.0880  0.2935
 3687SOL     OW14337   0.545   2.881   7.994 -0.4963 -0.3249 -0.3322
 3687SOL    HW114338   0.619   2.831   7.960 -0.5979 -0.3093 -0.5814
 3687SOL    HW214339   0.547   2.866   8.088 -0.7448 -1.0948 -0.4426
 3688SOL     OW14340   1.270   3.650   6.391 -0.0272 -0.6254  0.2498
 3688SOL    HW114341   1.310   3.676   6.308  1.0459  1.3195  1.2887
 3688SOL    HW214342   1.184   3.693   6.390  1.7399  3.4803  1.9566
 3689SOL     OW14343   1.223   7.529  11.055  0.5617 -0.1163  0.1244
 3689SOL    HW114344   1.313   7.522  11.087  0.5663 -0.0381  0.1273
 3689SOL    HW214345   1.201   7.621  11.065  0.6691 -0.0302 -0.3865
 3690SOL     OW14346   1.252   9.141   7.464 -0.3522  0.0106 -0.6420
 3690SOL    HW114347   1.311   9.070   7.437  0.6020 -0.1271  1.6054
 3690SOL    HW214348   1.280   9.216   7.412  0.1188 -0.6820 -1.4200
 3691SOL     OW14349   7.862   3.774   9.536  0.1630 -0.0791  0.4470
 3691SOL    HW114350   7.904   3.691   9.561 -0.4041 -0.0785  1.4556
 3691SOL    HW214351   7.935   3.831   9.512  0.6170 -0.6204  0.5014
 3692SOL     OW14352  10.503   9.626   7.816  0.4107 -0.3208  0.0546
 3692SOL    HW114353  10.515   9.692   7.747 -0.1750 -0.8240 -0.5397
 3692SOL    HW214354  10.476   9.677   7.892 -0.2376  0.1245 -0.4521
 3693SOL     OW14355  11.034   6.475   5.202  0.5355  0.3148 -0.8071
 3693SOL    HW114356  11.069   6.427   5.128 -1.2375  1.2975 -2.3779
 3693SOL    HW214357  10.970   6.416   5.242  0.8196  0.1352 -0.6098
 3694SOL     OW14358   7.832   8.619   4.580  0.2484  0.1702  0.2322
 3694SOL    HW114359   7.750   8.653   4.544  0.4647  0.2316 -0.1956
 3694SOL    HW214360   7.826   8.639   4.674  0.2911  1.2247  0.0270
 3695SOL     OW14361  10.980  11.058   7.541 -0.1425  1.0832 -0.1758
 3695SOL    HW114362  11.025  11.054   7.625 -0.1114  0.0663 -0.2340
 3695SOL    HW214363  11.050  11.070   7.477  0.1926 -1.2754 -0.3465
 3696SOL     OW14364   1.181   9.708   2.549 -0.1272  0.1774 -0.3763
 3696SOL    HW114365   1.175   9.758   2.467 -1.3776  1.9743  0.7350
 3696SOL    HW214366   1.266   9.735   2.586 -0.8106  1.6076  0.2372
 3697SOL     OW14367   2.617  10.222   2.398 -0.4704 -0.3575  0.0116
 3697SOL    HW114368   2.642  10.234   2.306  0.2845 -0.0159  0.2552
 3697SOL    HW214369   2.697  10.238   2.447 -1.0022  0.0156  0.7741
 3698SOL     OW14370   0.353  10.688   5.160 -0.0755 -1.0201  0.3838
 3698SOL    HW114371   0.366  10.699   5.254  2.2447  0.7414 -0.0466
 3698SOL    HW214372   0.394  10.765   5.121 -2.1969 -0.9898 -2.0327
 3699SOL     OW14373   8.969   5.226   9.717 -0.1898  0.3519  0.0588
 3699SOL    HW114374   9.017   5.151   9.754  0.3258  0.8117  0.3362
 3699SOL    HW214375   8.905   5.186   9.658  0.0276 -0.3145  0.2580
 3700SOL     OW14376  10.029   7.034   5.131  0.3391  0.2438 -0.4164
 3700SOL    HW114377   9.991   6.954   5.094 -1.1362  0.3327  0.8444
 3700SOL    HW214378  10.032   7.095   5.057  2.4934 -1.2412 -1.6810
 3701SOL     OW14379   4.936   7.699   9.063 -0.2839 -0.2764 -0.2517
 3701SOL    HW114380   4.847   7.676   9.088  0.1325 -1.3999  0.2502
 3701SOL    HW214381   4.961   7.769   9.124  0.1004 -1.7916  1.4035
 3702SOL     OW14382   6.705   5.048   6.106  0.1811 -0.0976 -0.0826
 3702SOL    HW114383   6.640   4.978   6.095  0.7311 -0.6252 -0.0431
 3702SOL    HW214384   6.789   5.003   6.100  0.5473  0.6101 -0.3530
 3703SOL     OW14385   7.565  10.095   1.836 -0.5819  0.1444 -0.2719
 3703SOL    HW114386   7.575  10.106   1.930  1.4181  0.3608 -0.4751
 3703SOL    HW214387   7.616  10.017   1.815 -1.8850 -0.5405 -1.0577
 3704SOL     OW14388   2.035   1.843  10.438  0.1261  0.1670  0.3536
 3704SOL    HW114389   2.118   1.843  10.390  0.5468  0.7070  1.0661
 3704SOL    HW214390   2.036   1.762  10.488 -0.1050 -0.1694 -0.1690
 3705SOL     OW14391   5.865   3.602   3.797 -0.4195  0.2912 -0.3185
 3705SOL    HW114392   5.785   3.651   3.775 -0.5413 -0.1350 -0.8711
 3705SOL    HW214393   5.834   3.528   3.848 -0.3887  0.0973 -0.5776
 3706SOL     OW14394   8.420   8.941   7.891 -0.5935 -0.2762 -0.0661
 3706SOL    HW114395   8.486   8.873   7.884  0.6466  0.5999  2.0859
 3706SOL    HW214396   8.468   9.019   7.919 -2.0976  1.2657 -1.5129
 3707SOL     OW14397   7.213   3.294   0.942 -0.3217 -0.1186  0.0946
 3707SOL    HW114398   7.175   3.314   1.028 -1.1788 -0.4232 -0.2051
 3707SOL    HW214399   7.196   3.372   0.889  1.9420  0.8784  0.7414
 3708SOL     OW14400   2.260   0.203   7.728  0.0028 -0.3193  1.0563
 3708SOL    HW114401   2.313   0.203   7.807  1.4373 -0.5404  0.1314
 3708SOL    HW214402   2.252   0.111   7.703 -0.2923 -0.2381  0.8414
 3709SOL     OW14403   4.681   3.057   7.786 -0.0166 -0.3416 -0.2556
 3709SOL    HW114404   4.617   3.044   7.716 -3.0638  0.7400  2.1121
 3709SOL    HW214405   4.692   3.152   7.791  1.5911 -0.4862 -0.3475
 3710SOL     OW14406   9.116   2.365  10.311  0.2998  0.0592 -0.3846
 3710SOL    HW114407   9.152   2.335  10.228 -0.3208 -2.0772  0.0410
 3710SOL    HW214408   9.021   2.366  10.297  0.2790  2.7798 -0.6058
 3711SOL     OW14409   3.324   0.026   7.104  0.5672 -0.2517  0.6206
 3711SOL    HW114410   3.410   0.013   7.065  1.5920 -1.2627  3.0099
 3711SOL    HW214411   3.334   0.106   7.157 -0.8166  1.1572 -1.1023
 3712SOL     OW14412   6.222   4.635   0.647 -0.1691 -0.3767  0.4019
 3712SOL    HW114413   6.248   4.726   0.630 -1.4331 -0.3046 -1.3017
 3712SOL    HW214414   6.304   4.585   0.638  0.7589  0.6559  2.4010
 3713SOL     OW14415   3.128   0.288   4.901  0.2520 -0.0623  0.2889
 3713SOL    HW114416   3.165   0.203   4.876 -1.8287 -0.8903 -0.1205
 3713SOL    HW214417   3.098   0.327   4.819 -1.4978 -0.2898  0.7855
 3714SOL     OW14418   4.841   9.006   4.447 -0.0065 -0.4462 -0.3234
 3714SOL    HW114419   4.833   9.040   4.536 -0.4997  1.0305 -0.9074
 3714SOL    HW214420   4.795   8.921   4.450 -0.3929 -0.2168  0.7171
 3715SOL     OW14421   3.898   7.903   9.243 -0.1125 -0.2088  0.4349
 3715SOL    HW114422   3.958   7.832   9.219 -1.2826 -1.7097  1.7098
 3715SOL    HW214423   3.954   7.981   9.246  1.1386 -0.9446 -1.4328
 3716SOL     OW14424  10.089   9.817  11.331 -0.1016 -0.3615  0.1150
 3716SOL    HW114425  10.073   9.767  11.251 -1.5767 -1.3530  0.9775
 3716SOL    HW214426  10.093   9.750  11.400  1.5419  0.4387  0.8376
 3717SOL     OW14427   9.579   1.550   7.189  0.0838  0.1610 -0.1181
 3717SOL    HW114428   9.583   1.585   7.278 -1.0810  0.2225 -0.0853
 3717SOL    HW214429   9.568   1.627   7.133 -1.7718 -0.0514 -0.0996
 3718SOL     OW14430   3.871   7.414   6.892 -0.1512 -0.2532  0.2720
 3718SOL    HW114431   3.777   7.406   6.872 -0.4242 -1.4993  1.8883
 3718SOL    HW214432   3.885   7.509   6.902 -1.4336 -0.1086  0.8894
 3719SOL     OW14433   0.116   5.622   2.910  0.1022 -0.3474 -0.3567
 3719SOL    HW114434   0.134   5.707   2.871  0.2536  1.0377  2.4473
 3719SOL    HW214435   0.043   5.587   2.861 -1.6407  2.5867 -0.0632
 3720SOL     OW14436   5.089   8.100   4.573  0.4075 -0.5730 -0.0811
 3720SOL    HW114437   5.084   8.181   4.623  0.8928 -1.4815  1.4906
 3720SOL    HW214438   5.142   8.122   4.496 -1.6284  1.2382 -1.0742
 3721SOL     OW14439   9.203  11.291   5.132 -0.4032 -0.1593 -0.2187
 3721SOL    HW114440   9.184  11.331   5.217 -1.7014 -1.7569  0.2825
 3721SOL    HW214441   9.231  11.202   5.152 -0.1306 -0.3732 -1.4365
 3722SOL     OW14442   1.575   3.943   9.641  0.3006  0.2883 -0.7304
 3722SOL    HW114443   1.562   3.912   9.551 -0.7484  0.7040 -0.7286
 3722SOL    HW214444   1.500   4.000   9.658  0.9680  0.9452  0.0926
 3723SOL     OW14445   5.372   3.271   9.646  0.3444  0.4763 -0.0830
 3723SOL    HW114446   5.461   3.302   9.629  0.8510 -0.7500  0.2535
 3723SOL    HW214447   5.361   3.282   9.741  0.6899 -0.7580  0.1086
 3724SOL     OW14448   4.679   4.096  10.287 -0.3659  0.1548 -0.5250
 3724SOL    HW114449   4.612   4.042  10.329  0.5543 -1.9029 -1.6111
 3724SOL    HW214450   4.706   4.158  10.355 -0.9872 -1.1747  0.9826
 3725SOL     OW14451   2.359   1.608   4.524 -0.1951 -0.0284  0.1658
 3725SOL    HW114452   2.447   1.580   4.548 -1.1253 -1.1090  2.7291
 3725SOL    HW214453   2.302   1.567   4.590 -2.6823  0.2128 -1.6851
 3726SOL     OW14454   8.149   6.845   7.858 -0.3788  0.1788  0.2980
 3726SOL    HW114455   8.054   6.846   7.858 -0.4475 -1.9627  0.8387
 3726SOL    HW214456   8.173   6.752   7.856  1.6932  0.6303  0.9474
 3727SOL     OW14457   8.381  10.837   8.507  0.4687 -0.1650  0.0298
 3727SOL    HW114458   8.445  10.862   8.441 -0.6180  0.2084 -0.9171
 3727SOL    HW214459   8.351  10.750   8.481 -0.2207  0.1297 -0.1823
 3728SOL     OW14460   6.681   9.899   7.025  0.2403 -0.0943  0.1451
 3728SOL    HW114461   6.630   9.818   7.020  0.9591 -0.4738 -2.9143
 3728SOL    HW214462   6.638   9.959   6.965  0.0036  1.7275  2.0061
 3729SOL     OW14463   3.678   8.753   5.598  0.8690 -0.6112 -0.6034
 3729SOL    HW114464   3.752   8.813   5.606 -0.4420  1.0085 -0.1835
 3729SOL    HW214465   3.668   8.740   5.504  0.0418  1.3335 -0.8207
 3730SOL     OW14466   1.582   7.295   1.084 -0.1797  0.3518 -0.2574
 3730SOL    HW114467   1.643   7.288   1.158 -1.7534  0.4208  1.0960
 3730SOL    HW214468   1.533   7.375   1.101  1.8776  2.4946 -3.3694
 3731SOL     OW14469  10.198   4.315   4.433 -0.0264 -0.2758  0.1770
 3731SOL    HW114470  10.263   4.385   4.440  0.1478 -0.0305 -2.7743
 3731SOL    HW214471  10.127   4.343   4.490  0.6567  1.5869  0.1816
 3732SOL     OW14472  10.041   9.330   7.990 -0.1567  0.3056 -0.0156
 3732SOL    HW114473  10.100   9.305   8.061  1.4899  0.9040 -1.1105
 3732SOL    HW214474  10.096   9.381   7.930 -1.6129  0.2481 -1.4677
 3733SOL     OW14475   5.577  11.249   9.803  0.0755 -0.3814 -0.1789
 3733SOL    HW114476   5.507  11.309   9.777 -0.4575 -0.7182  0.4464
 3733SOL    HW214477   5.654  11.305   9.811 -0.0263 -0.0676 -1.2502
 3734SOL     OW14478   5.366   7.864   0.589  0.1277  0.5546  0.8023
 3734SOL    HW114479   5.379   7.939   0.531  0.3214  1.1170  1.5537
 3734SOL    HW214480   5.334   7.795   0.532 -0.3321  1.2985  0.1348
 3735SOL     OW14481   0.989   4.424   4.489 -0.1503  0.3794 -0.4459
 3735SOL    HW114482   0.961   4.460   4.405  0.6707  2.1143 -0.0150
 3735SOL    HW214483   0.909   4.416   4.540 -0.6438 -0.6054 -1.3326
 3736SOL     OW14484   9.953   7.902   8.708 -0.4900 -0.1892  0.3095
 3736SOL    HW114485   9.860   7.910   8.686  0.1244  1.3781 -2.0426
 3736SOL    HW214486   9.971   7.808   8.703 -1.4574 -0.3236 -1.6547
 3737SOL     OW14487   3.335   8.456   1.221 -0.0816 -0.6812  0.0248
 3737SOL    HW114488   3.390   8.378   1.215  1.9788  0.7493 -1.2196
 3737SOL    HW214489   3.387   8.518   1.272 -1.5758 -0.0402  0.8134
 3738SOL     OW14490   0.978   4.059  10.238  0.2384 -0.3394 -0.1016
 3738SOL    HW114491   0.902   4.048  10.296  0.9089  1.9637  1.3585
 3738SOL    HW214492   1.041   3.995  10.270 -0.2602 -0.7015  0.1781
 3739SOL     OW14493   2.730   5.685   5.953 -0.5488  0.0092 -0.3234
 3739SOL    HW114494   2.723   5.781   5.948  0.3045  0.0116 -1.8521
 3739SOL    HW214495   2.822   5.667   5.935 -0.5888 -1.0950  0.4888
 3740SOL     OW14496   8.747   7.918   9.044  0.0892  0.4106  0.1227
 3740SOL    HW114497   8.656   7.888   9.052 -0.2734  1.2081 -0.8782
 3740SOL    HW214498   8.784   7.863   8.974 -0.0302  1.0172 -0.4206
 3741SOL     OW14499   4.132   6.645   9.277 -0.2883  0.5372 -0.3747
 3741SOL    HW114500   4.130   6.583   9.204  0.1554 -0.7331  0.6461
 3741SOL    HW214501   4.157   6.729   9.238  2.7880 -0.6839 -1.2957
 3742SOL     OW14502   1.907  10.883  10.664 -0.4341  0.6842 -0.2693
 3742SOL    HW114503   1.857  10.802  10.661  1.1997 -0.3502 -1.1352
 3742SOL    HW214504   1.887  10.927  10.581  0.6077 -0.0693 -0.9308
 3743SOL     OW14505   3.850   3.762   6.094 -0.5638  0.2778  0.0624
 3743SOL    HW114506   3.875   3.762   6.001  1.0900  0.8899  0.4770
 3743SOL    HW214507   3.790   3.689   6.102 -0.9528  0.3767 -1.5529
 3744SOL     OW14508   0.966   7.183   9.531 -0.2885 -0.2542  0.5240
 3744SOL    HW114509   1.037   7.186   9.466 -1.1507  0.1324 -0.4234
 3744SOL    HW214510   0.964   7.091   9.559 -0.3405 -0.5804 -0.4998
 3745SOL     OW14511   9.316   8.512   3.207 -0.4354 -0.6075  0.5310
 3745SOL    HW114512   9.297   8.418   3.199  2.9541 -1.3965  0.4115
 3745SOL    HW214513   9.291   8.548   3.122  1.4066 -2.1291 -0.7451
 3746SOL     OW14514   2.581  10.530   5.066 -0.5729  0.0575 -0.0653
 3746SOL    HW114515   2.528  10.527   4.987 -0.0844  2.1826 -0.5330
 3746SOL    HW214516   2.519  10.513   5.137 -0.9439 -2.2655 -0.8666
 3747SOL     OW14517   6.168   4.239   9.650 -0.2153 -0.0335  0.2856
 3747SOL    HW114518   6.242   4.191   9.687  0.3840 -0.0728 -0.9011
 3747SOL    HW214519   6.208   4.316   9.608 -0.7330 -0.4701 -1.0592
 3748SOL     OW14520   3.184   2.644   2.464  0.5891 -0.3354  0.2859
 3748SOL    HW114521   3.257   2.585   2.449  0.8600  0.3184 -1.1840
 3748SOL    HW214522   3.149   2.662   2.376 -0.6125  0.2633  0.8574
 3749SOL     OW14523   0.262   3.851   9.520  0.0713 -0.0551  0.6249
 3749SOL    HW114524   0.197   3.851   9.449  0.1901  0.1541  0.5153
 3749SOL    HW214525   0.253   3.937   9.560 -0.6898 -0.5277  1.5093
 3750SOL     OW14526   6.505   9.668   3.835 -0.0441 -0.2147  0.0953
 3750SOL    HW114527   6.590   9.624   3.838  0.7025  0.9570 -2.1806
 3750SOL    HW214528   6.442   9.599   3.857  1.4529 -1.0292  2.1606
 3751SOL     OW14529   0.957  11.212   4.383  0.0951 -0.4434  0.0602
 3751SOL    HW114530   0.972  11.237   4.291  2.6728  0.3232  0.6138
 3751SOL    HW214531   0.975  11.118   4.385  1.1649 -0.2560 -0.0452
 3752SOL     OW14532   3.395  11.276  11.324 -0.2829  0.1727 -0.3100
 3752SOL    HW114533   3.388  11.254  11.417 -0.9912 -0.2665 -0.4648
 3752SOL    HW214534   3.335  11.349  11.312  0.7565  1.0816 -0.1691
 3753SOL     OW14535   5.938  10.695   2.405 -0.1996  0.3779  0.3092
 3753SOL    HW114536   6.024  10.666   2.374 -0.0996  2.3463 -1.5447
 3753SOL    HW214537   5.886  10.704   2.325 -1.9957 -0.2617  1.3470
 3754SOL     OW14538   1.574   6.600   4.765  0.8760  0.2295 -0.3911
 3754SOL    HW114539   1.540   6.657   4.833  1.4338  0.8301 -0.6052
 3754SOL    HW214540   1.505   6.534   4.752  0.9615 -0.1847  1.0801
 3755SOL     OW14541   4.497   9.476   2.767  0.0625  0.4482  0.0528
 3755SOL    HW114542   4.588   9.494   2.744 -0.0523  0.5642 -0.3090
 3755SOL    HW214543   4.503   9.411   2.838  0.4085 -0.1594 -0.5215
 3756SOL     OW14544   4.311   0.307   0.112 -0.3385  0.6235 -0.2225
 3756SOL    HW114545   4.355   0.231   0.074  0.0194 -0.7290  2.6407
 3756SOL    HW214546   4.222   0.276   0.129 -1.1830  1.9368 -1.8948
 3757SOL     OW14547   3.296   1.756   8.267  0.2338  0.3179 -0.1237
 3757SOL    HW114548   3.361   1.707   8.217 -0.4678  0.4284 -1.1733
 3757SOL    HW214549   3.329   1.755   8.356  0.9660 -0.8169 -0.3851
 3758SOL     OW14550   1.590   8.709   6.068  0.4847  0.7063  0.1565
 3758SOL    HW114551   1.525   8.657   6.116  2.6712 -0.7257  1.7515
 3758SOL    HW214552   1.578   8.684   5.976 -2.1672  1.6503  0.1607
 3759SOL     OW14553   6.032   9.423   9.310 -0.7666  0.4301 -0.1293
 3759SOL    HW114554   5.957   9.465   9.269 -1.3829  2.5756  2.8599
 3759SOL    HW214555   6.105   9.484   9.294 -0.2165 -0.3588 -0.7620
 3760SOL     OW14556   3.832   5.650   9.421 -0.1544 -0.1587  0.2404
 3760SOL    HW114557   3.752   5.620   9.378  1.4469 -2.8324 -1.1810
 3760SOL    HW214558   3.833   5.605   9.506  0.1470 -0.6801 -0.0346
 3761SOL     OW14559   8.149   9.207   3.904 -0.2812  0.1287  0.1869
 3761SOL    HW114560   8.201   9.149   3.960 -2.4539 -1.4011  0.7289
 3761SOL    HW214561   8.148   9.291   3.950 -1.1397 -0.7985  1.9436
 3762SOL     OW14562   8.353   6.502   0.219 -0.0479  0.0491 -0.3995
 3762SOL    HW114563   8.405   6.464   0.290 -0.0339  0.3358 -0.2557
 3762SOL    HW214564   8.303   6.428   0.184 -2.5817  0.4239  2.0541
 3763SOL     OW14565   8.824   6.226   6.639  0.7605 -0.4440 -0.0671
 3763SOL    HW114566   8.796   6.317   6.631 -1.5906 -1.1565 -0.7568
 3763SOL    HW214567   8.810   6.188   6.552  1.9450 -1.4333  0.1388
 3764SOL     OW14568   5.642   7.927   1.898 -0.0209 -0.0842  0.0604
 3764SOL    HW114569   5.622   7.882   1.981 -0.3027  0.8769  0.5299
 3764SOL    HW214570   5.737   7.933   1.897 -0.0097 -0.2155  0.2555
 3765SOL     OW14571   1.950   3.262   6.789  0.2636 -0.1518  0.3114
 3765SOL    HW114572   1.869   3.311   6.799 -0.5937 -1.3713 -0.4388
 3765SOL    HW214573   2.005   3.316   6.733  0.9102  1.7482  2.6231
 3766SOL     OW14574   7.168   3.901   7.745 -0.1233 -0.1712 -0.1714
 3766SOL    HW114575   7.163   3.931   7.836  1.0153  0.1415 -0.1920
 3766SOL    HW214576   7.077   3.896   7.716 -0.4481  1.0067  0.5773
 3767SOL     OW14577   2.202   7.650   4.209  0.2451  0.7858  0.0361
 3767SOL    HW114578   2.176   7.696   4.289 -2.7199 -0.8854  0.2014
 3767SOL    HW214579   2.156   7.566   4.215  1.2111 -0.0260 -2.7033
 3768SOL     OW14580   7.656   2.664  11.216 -0.6142  0.1945 -0.0669
 3768SOL    HW114581   7.652   2.632  11.126  1.1671 -3.7768  1.0493
 3768SOL    HW214582   7.572   2.638  11.255 -0.9119  0.8687 -0.2395
 3769SOL     OW14583   4.113   7.728  10.050 -0.2823 -0.5967 -0.2847
 3769SOL    HW114584   4.085   7.646  10.090 -0.4153 -0.3595  0.1105
 3769SOL    HW214585   4.034   7.762  10.007 -0.1712 -0.7877 -0.6390
 3770SOL     OW14586   2.593   9.144   5.268  0.4837 -0.0712  0.3056
 3770SOL    HW114587   2.527   9.204   5.233 -1.4657 -1.9478  0.5784
 3770SOL    HW214588   2.575   9.139   5.361  1.4254 -0.1640  0.4963
 3771SOL     OW14589   0.480   7.172   2.441 -0.3899 -0.1496  0.8302
 3771SOL    HW114590   0.423   7.129   2.505  0.9544 -1.3438  1.2764
 3771SOL    HW214591   0.501   7.257   2.480 -1.4805  0.1277  0.8549
 3772SOL     OW14592   7.314   6.670   8.739  0.0743 -0.4545 -0.1065
 3772SOL    HW114593   7.408   6.681   8.729 -0.1134  0.3150 -1.2277
 3772SOL    HW214594   7.297   6.580   8.710  0.3143 -0.1593 -1.2325
 3773SOL     OW14595   0.355   4.654   1.943 -0.1749 -0.8401 -0.1564
 3773SOL    HW114596   0.418   4.720   1.914  0.0541 -1.5758 -1.3829
 3773SOL    HW214597   0.373   4.578   1.888  0.3429 -2.3519  1.9751
 3774SOL     OW14598   1.107   7.673   0.386 -0.0855  0.3832  0.0851
 3774SOL    HW114599   1.144   7.757   0.359 -0.4290 -0.0673 -1.9353
 3774SOL    HW214600   1.012   7.686   0.381 -0.1443 -0.3475 -1.1238
 3775SOL     OW14601   5.110   4.715   9.079 -0.2913 -0.0941 -0.5052
 3775SOL    HW114602   5.097   4.651   9.149  0.0101  2.2954  1.8899
 3775SOL    HW214603   5.022   4.737   9.049 -0.6137  0.7613  1.0011
 3776SOL     OW14604   4.907   5.650   4.203 -0.4402  0.3043 -0.2195
 3776SOL    HW114605   4.908   5.572   4.259 -0.1711  0.7077  0.3410
 3776SOL    HW214606   4.825   5.643   4.154  0.2151 -1.0270 -1.1799
 3777SOL     OW14607   0.672   6.480   3.591 -0.2017 -0.2369 -0.1445
 3777SOL    HW114608   0.658   6.420   3.517  0.1891  1.1205 -1.3629
 3777SOL    HW214609   0.591   6.531   3.596  0.2322  0.5054 -0.4544
 3778SOL     OW14610   2.570   1.614   3.688  0.2838 -0.0903  0.1517
 3778SOL    HW114611   2.561   1.615   3.593  0.6017 -0.6812  0.1104
 3778SOL    HW214612   2.530   1.696   3.717 -0.1464 -0.0766 -0.4607
 3779SOL     OW14613   3.224   2.114   6.747 -0.3124  0.1584 -0.0085
 3779SOL    HW114614   3.294   2.070   6.698  0.0934  0.0671  0.6333
 3779SOL    HW214615   3.150   2.054   6.743  0.5809 -1.1558  1.8197
 3780SOL     OW14616   6.999  10.428   5.352 -0.4164  0.1153 -0.2219
 3780SOL    HW114617   6.980  10.334   5.363 -0.9382  0.3582  1.2388
 3780SOL    HW214618   7.030  10.436   5.262  0.1544 -1.5472 -0.2123
 3781SOL     OW14619   1.647  10.801   5.248 -0.0586  0.6176  0.3483
 3781SOL    HW114620   1.695  10.868   5.297 -0.4626  0.5336  0.8580
 3781SOL    HW214621   1.688  10.718   5.274  0.7100  0.6815 -0.5851
 3782SOL     OW14622   1.931   5.073   5.464 -0.3033 -0.1305  0.2321
 3782SOL    HW114623   1.921   5.137   5.534  1.4647  0.2856  0.1418
 3782SOL    HW214624   1.894   5.116   5.387  0.1632  0.4608  0.3385
 3783SOL     OW14625   6.338   1.141   1.264  0.1118 -0.2595 -0.2235
 3783SOL    HW114626   6.338   1.156   1.170  1.2235 -0.3002 -0.2496
 3783SOL    HW214627   6.301   1.221   1.301  0.3594  0.0679 -0.6686
 3784SOL     OW14628   0.668   0.865   5.043 -0.5637 -0.1114 -0.2344
 3784SOL    HW114629   0.659   0.843   5.135 -1.2036  0.8962 -0.0434
 3784SOL    HW214630   0.605   0.808   4.998 -0.5916 -0.2656 -0.0019
 3785SOL     OW14631   8.037   4.363  10.995 -0.1252 -0.1325  0.5061
 3785SOL    HW114632   7.992   4.399  11.072 -0.6808 -0.7164  0.4586
 3785SOL    HW214633   8.115   4.321  11.031 -0.6670 -0.8839  0.8158
 3786SOL     OW14634   4.665   6.662   6.711 -0.4646  0.0480  0.3845
 3786SOL    HW114635   4.698   6.579   6.677  0.3823  0.9033 -0.9598
 3786SOL    HW214636   4.735   6.695   6.767  0.1075  0.8432 -0.7686
 3787SOL     OW14637   3.288  11.224   3.022  0.4065 -0.6970  0.4316
 3787SOL    HW114638   3.383  11.234   3.013  0.3339 -0.5314 -0.2376
 3787SOL    HW214639   3.277  11.170   3.100  1.0327 -0.3650  0.7570
 3788SOL     OW14640   2.498  10.521   9.765 -0.3393  0.3793 -0.4650
 3788SOL    HW114641   2.512  10.606   9.805 -0.6131  1.3194 -2.2807
 3788SOL    HW214642   2.492  10.539   9.671  1.7646 -1.8874 -1.1494
 3789SOL     OW14643   0.769  10.551   5.836 -0.0139 -0.1104  0.0706
 3789SOL    HW114644   0.699  10.590   5.887 -0.4075 -1.4285  0.5629
 3789SOL    HW214645   0.843  10.546   5.896  0.4734  1.0952 -0.3901
 3790SOL     OW14646  11.262   8.683   2.780 -0.6634  0.0891  0.4348
 3790SOL    HW114647  11.238   8.712   2.868 -2.1947 -1.6313  0.6331
 3790SOL    HW214648  11.238   8.591   2.777  0.7907 -0.2956 -1.3056
 3791SOL     OW14649   0.806   5.896   8.649 -0.2546 -0.6308 -0.4414
 3791SOL    HW114650   0.756   5.829   8.694  0.1324 -0.2278  0.6073
 3791SOL    HW214651   0.753   5.919   8.573 -2.0110  0.2743  0.9872
 3792SOL     OW14652   7.971   9.145   7.407 -0.0069  0.1131 -0.1814
 3792SOL    HW114653   8.029   9.156   7.332  0.2935 -0.9880 -0.1337
 3792SOL    HW214654   7.986   9.055   7.436  0.3138  0.6884  1.5562
 3793SOL     OW14655   3.891   8.194   6.416  0.2594  0.4595 -0.3117
 3793SOL    HW114656   3.894   8.143   6.497  1.2092  0.9558 -0.0190
 3793SOL    HW214657   3.885   8.128   6.347  2.9372 -0.1766 -0.0266
 3794SOL     OW14658   8.511   0.478   8.837 -0.4125  0.0131  0.7559
 3794SOL    HW114659   8.466   0.500   8.755  0.1249  0.4864  0.5861
 3794SOL    HW214660   8.582   0.541   8.844 -1.5376  1.1694  2.5204
 3795SOL     OW14661  10.424   6.823   9.708 -0.4907  0.3983  0.0266
 3795SOL    HW114662  10.404   6.757   9.774  0.7157  0.2556  0.2798
 3795SOL    HW214663  10.339   6.851   9.675 -1.1220  0.4892  1.6583
 3796SOL     OW14664   4.208   6.744   6.620 -0.2678  0.1804  0.2589
 3796SOL    HW114665   4.243   6.816   6.567  0.4718  0.8519  1.5919
 3796SOL    HW214666   4.144   6.786   6.677 -1.7611 -0.6898 -0.6948
 3797SOL     OW14667   2.915  11.312   9.568  0.3182 -0.3017  0.6289
 3797SOL    HW114668   2.875  11.235   9.528  0.0434 -0.3137  0.9286
 3797SOL    HW214669   2.909  11.296   9.662 -1.0064  0.7057  0.7492
 3798SOL     OW14670   5.307   1.034   3.954  0.2769 -0.1777  0.4737
 3798SOL    HW114671   5.226   1.043   3.905  0.8507 -1.0015 -0.6797
 3798SOL    HW214672   5.281   1.042   4.046 -1.0589 -0.2073  0.1161
 3799SOL     OW14673   5.128  10.814   6.850 -0.3933 -0.0872 -0.3852
 3799SOL    HW114674   5.211  10.842   6.813 -1.0682 -0.7163 -2.4998
 3799SOL    HW214675   5.092  10.892   6.893  0.8307  0.4345 -0.2836
 3800SOL     OW14676   0.265   6.164   1.739  0.0017  0.5940  0.1137
 3800SOL    HW114677   0.198   6.096   1.739  1.3780 -0.8606 -1.3728
 3800SOL    HW214678   0.234   6.228   1.674 -0.9045  1.0000  0.9256
 3801SOL     OW14679  11.254   7.336   9.899  0.0612  0.3367 -0.2816
 3801SOL    HW114680  11.272   7.295   9.815  0.0050 -0.1443 -0.0588
 3801SOL    HW214681  11.298   7.421   9.894 -0.8521  0.7869 -1.2270
 3802SOL     OW14682   0.144   2.502   3.412  0.1601 -0.5661  0.1842
 3802SOL    HW114683   0.107   2.514   3.499  1.5335  0.0500  0.7085
 3802SOL    HW214684   0.205   2.575   3.401 -0.8913  0.1112 -1.8210
 3803SOL     OW14685   9.880   6.060  10.740 -0.3994 -0.3373  0.5781
 3803SOL    HW114686   9.975   6.063  10.753 -0.4024  0.9275  0.4532
 3803SOL    HW214687   9.865   5.978  10.693  0.9793  0.6890 -1.8711
 3804SOL     OW14688   8.657   4.180   1.077 -0.0585  0.4805  0.4707
 3804SOL    HW114689   8.651   4.276   1.080 -5.0032  0.5117 -0.9171
 3804SOL    HW214690   8.627   4.152   1.164  2.2700  0.0766  1.2014
 3805SOL     OW14691   5.472   3.475   1.152 -0.0017 -0.1059 -0.1730
 3805SOL    HW114692   5.459   3.538   1.223  0.6266  0.3801 -0.4899
 3805SOL    HW214693   5.499   3.527   1.077  0.9986 -0.8030 -0.3129
 3806SOL     OW14694   0.460   9.417   4.494 -0.4000  0.0776  0.1379
 3806SOL    HW114695   0.381   9.375   4.461  0.1172 -1.9897  1.3738
 3806SOL    HW214696   0.462   9.395   4.587  1.7940 -0.1967  0.0704
 3807SOL     OW14697   7.459  10.733   1.297  0.3481  0.7872 -0.0218
 3807SOL    HW114698   7.456  10.639   1.283  0.9084  0.7839 -0.1317
 3807SOL    HW214699   7.450  10.771   1.209 -0.8729  0.8636  0.1194
 3808SOL     OW14700   9.239   3.044   3.473 -0.3122  0.3883 -0.0493
 3808SOL    HW114701   9.219   3.091   3.554  0.7983  1.7023 -0.4930
 3808SOL    HW214702   9.155   3.037   3.427 -0.8065  0.3414  0.8483
 3809SOL     OW14703   4.604   5.308   7.289  0.0242 -0.5120 -0.3546
 3809SOL    HW114704   4.561   5.305   7.204 -1.8530 -3.1062  0.5602
 3809SOL    HW214705   4.536   5.335   7.350  0.9689 -0.0760  0.5409
 3810SOL     OW14706   4.218   7.659   7.060 -0.1920  0.2031 -0.7293
 3810SOL    HW114707   4.215   7.608   6.979 -1.5385  0.3093 -0.7819
 3810SOL    HW214708   4.130   7.648   7.098  0.3748  0.2627  0.6454
 3811SOL     OW14709   9.605  11.138   9.201  0.1708 -0.1844 -0.3177
 3811SOL    HW114710   9.612  11.169   9.111 -0.7537 -1.5250 -0.8970
 3811SOL    HW214711   9.595  11.217   9.254  1.3211  0.6622 -1.3120
 3812SOL     OW14712  10.984   5.908   4.455  0.2753 -0.0362 -0.2957
 3812SOL    HW114713  11.003   5.818   4.428 -2.3160 -0.9111  0.4788
 3812SOL    HW214714  11.020   5.962   4.385  1.3444 -1.7148 -1.0941
 3813SOL     OW14715   7.298   9.008  11.324 -0.0097 -1.0521 -0.2369
 3813SOL    HW114716   7.238   8.985  11.252 -0.2372  1.5454 -0.9864
 3813SOL    HW214717   7.354   9.076  11.287  2.1705 -2.0454  1.0636
 3814SOL     OW14718   3.823   1.453   8.557  0.1917  0.2480 -0.0802
 3814SOL    HW114719   3.756   1.519   8.573 -0.1368 -0.3827  1.2589
 3814SOL    HW214720   3.783   1.370   8.583  1.0511 -0.3140 -0.4928
 3815SOL     OW14721   3.408   3.833   1.067 -0.2958 -0.2669 -0.2284
 3815SOL    HW114722   3.319   3.849   1.098 -0.5942 -0.0462 -1.1582
 3815SOL    HW214723   3.397   3.807   0.976  0.6288  0.4380 -0.5586
 3816SOL     OW14724   2.659   6.722   0.597 -0.0067 -0.4294  0.2674
 3816SOL    HW114725   2.685   6.814   0.597  2.1973 -0.9980 -0.2430
 3816SOL    HW214726   2.741   6.674   0.609 -0.9190 -2.3701 -0.8478
 3817SOL     OW14727   9.035   8.472   2.600 -0.0004  0.0440  0.9281
 3817SOL    HW114728   9.102   8.435   2.658  1.2530  1.3596  0.3737
 3817SOL    HW214729   9.081   8.541   2.551 -1.6330  0.6148  0.1375
 3818SOL     OW14730  10.419   5.816   8.269 -0.7284 -0.2848 -0.0777
 3818SOL    HW114731  10.461   5.750   8.214  0.4927  1.1680 -0.9733
 3818SOL    HW214732  10.456   5.803   8.356 -0.6512 -0.8955 -0.2002
 3819SOL     OW14733   0.117   4.862  11.069  0.1043  0.2578 -0.3317
 3819SOL    HW114734   0.085   4.904  11.149  0.6803 -0.7897  0.4716
 3819SOL    HW214735   0.039   4.826  11.028 -0.0469 -0.3173  0.4396
 3820SOL     OW14736  10.160   8.887   5.107 -0.0295  0.0403 -0.2668
 3820SOL    HW114737  10.199   8.839   5.033  0.7572  0.6141 -0.2359
 3820SOL    HW214738  10.177   8.979   5.088 -0.8281  0.2645  0.0711
 3821SOL     OW14739   9.444   8.586   1.402  0.6052  0.2753 -0.2245
 3821SOL    HW114740   9.392   8.613   1.478 -2.0423 -1.1658 -1.3853
 3821SOL    HW214741   9.488   8.667   1.374  0.3202  1.2081  1.7963
 3822SOL     OW14742  10.401   4.847   2.065 -0.1758 -0.0242  0.1374
 3822SOL    HW114743  10.356   4.812   2.142 -0.5421  1.0198  0.4129
 3822SOL    HW214744  10.363   4.800   1.991 -2.3508  1.4016  0.2737
 3823SOL     OW14745   9.007   7.514   3.492 -0.2496  0.6331 -0.7897
 3823SOL    HW114746   8.917   7.539   3.471  0.0397  1.1402 -1.4556
 3823SOL    HW214747   9.054   7.519   3.409  0.6769  1.6010 -0.2288
 3824SOL     OW14748   5.725   5.026   1.428  0.5728  0.1701 -0.1966
 3824SOL    HW114749   5.773   4.948   1.400  1.7208  1.2531 -1.4561
 3824SOL    HW214750   5.641   5.019   1.383  1.5642  0.7716 -2.3261
 3825SOL     OW14751   0.818   6.093   7.340 -0.0544  0.3319 -0.0168
 3825SOL    HW114752   0.819   6.029   7.411  0.7385  1.6490  1.2259
 3825SOL    HW214753   0.889   6.066   7.282 -0.5680 -0.6356 -0.2132
 3826SOL     OW14754   3.375   4.553   7.811  0.4123 -0.0727  0.0858
 3826SOL    HW114755   3.417   4.597   7.884 -0.0169 -1.3384  1.1404
 3826SOL    HW214756   3.295   4.516   7.847 -0.3059  0.0740 -1.2639
 3827SOL     OW14757   0.817  10.524  10.790  0.2092 -0.1262  0.3148
 3827SOL    HW114758   0.864  10.538  10.707  2.2407  1.2104  1.6058
 3827SOL    HW214759   0.886  10.502  10.853 -1.0269  0.6973  2.0377
 3828SOL     OW14760   3.059   8.985   9.842  0.4273  0.1257  0.0388
 3828SOL    HW114761   3.050   9.080   9.833 -1.6551  0.1459  1.5767
 3828SOL    HW214762   2.991   8.950   9.785  0.1932 -0.3705  0.6144
 3829SOL     OW14763   1.595   0.985   6.726  0.5273  0.2674  0.5303
 3829SOL    HW114764   1.540   0.982   6.805 -0.0993  1.0723  0.1438
 3829SOL    HW214765   1.555   1.053   6.672  0.8749 -0.3550 -0.5409
 3830SOL     OW14766   0.088   6.776   8.807  0.2087  0.0901 -0.5045
 3830SOL    HW114767   0.078   6.700   8.865  1.1369 -1.4986 -2.3152
 3830SOL    HW214768   0.182   6.795   8.809 -0.0333  1.3318  0.0482
 3831SOL     OW14769   1.219   6.429   2.276 -0.4059  0.0907 -0.0544
 3831SOL    HW114770   1.286   6.373   2.236 -1.9341 -1.4457 -0.5699
 3831SOL    HW214771   1.266   6.509   2.300  1.9150 -1.4205  0.8403
 3832SOL     OW14772  10.856   5.671   1.049  0.1614  0.1409  0.1771
 3832SOL    HW114773  10.790   5.613   1.086  0.9024 -0.1512  1.0593
 3832SOL    HW214774  10.831   5.678   0.956 -3.5502  3.3229  1.1100
 3833SOL     OW14775   0.110   1.509  10.750 -0.0127 -0.4447 -0.1058
 3833SOL    HW114776   0.098   1.464  10.834 -1.3983 -1.7529 -0.9607
 3833SOL    HW214777   0.205   1.521  10.743  0.1035 -0.0064  1.7843
 3834SOL     OW14778   2.431   3.659   7.253  0.1117  0.1500  0.1235
 3834SOL    HW114779   2.514   3.619   7.225  0.0927  1.7100 -2.4925
 3834SOL    HW214780   2.455   3.714   7.328  1.2717 -0.1440 -0.0137
 3835SOL     OW14781   3.530   9.057   9.664 -0.2772  0.3805  0.2726
 3835SOL    HW114782   3.440   9.059   9.630 -0.1197  2.4180 -0.1529
 3835SOL    HW214783   3.553   9.149   9.678  1.9870 -0.0251 -0.2924
 3836SOL     OW14784   1.134   5.517  10.062 -0.1648 -0.1258  0.2286
 3836SOL    HW114785   1.110   5.480   9.977 -0.2301  1.3423 -0.4194
 3836SOL    HW214786   1.151   5.609  10.044 -0.9479  0.3899  1.9575
 3837SOL     OW14787   4.013   6.031   8.968  0.4126  0.4855  0.6081
 3837SOL    HW114788   4.069   6.093   9.016  0.1833  0.8857  0.3671
 3837SOL    HW214789   3.956   6.087   8.916 -0.4347  0.0854  1.0940
 3838SOL     OW14790   8.696   0.176   8.367 -0.3250 -0.4754 -0.1086
 3838SOL    HW114791   8.635   0.190   8.294 -1.5026 -1.4839  0.6431
 3838SOL    HW214792   8.643   0.134   8.435  1.1908 -1.3215  0.6096
 3839SOL     OW14793   8.848   1.826   4.656  0.6154 -0.0110 -0.7077
 3839SOL    HW114794   8.911   1.833   4.584  1.1330 -1.9566 -0.5128
 3839SOL    HW214795   8.901   1.799   4.731 -0.3252 -0.9833 -0.3708
 3840SOL     OW14796   9.861   4.670   4.883  0.2070  0.6455  0.5906
 3840SOL    HW114797   9.904   4.710   4.959  0.7157  0.3121  0.4894
 3840SOL    HW214798   9.769   4.691   4.893  0.3510  1.1008  0.9955
 3841SOL     OW14799   2.700   1.243   6.111  0.7006  0.5774  0.0474
 3841SOL    HW114800   2.745   1.325   6.129  1.8737 -0.1752  0.6680
 3841SOL    HW214801   2.716   1.227   6.018  2.1694  0.0845  0.3589
 3842SOL     OW14802   6.136   2.339   9.320  0.6546 -0.1107 -0.3096
 3842SOL    HW114803   6.204   2.292   9.369  1.2587  1.3524  0.2998
 3842SOL    HW214804   6.070   2.360   9.386  1.5404  1.9962 -0.0136
 3843SOL     OW14805   5.506   6.840  10.438 -0.1925 -0.2873  0.1216
 3843SOL    HW114806   5.573   6.823  10.505 -0.4916  1.0330  0.7862
 3843SOL    HW214807   5.556   6.850  10.357  0.5636  1.5174  0.7459
 3844SOL     OW14808   8.307   5.623   9.272 -0.2546 -0.6917  0.3657
 3844SOL    HW114809   8.249   5.611   9.348  1.4527 -0.7643  1.7262
 3844SOL    HW214810   8.283   5.708   9.237 -1.4823 -0.9119  0.5916
 3845SOL     OW14811   7.461   6.442   0.776 -0.2930 -0.2690 -0.5510
 3845SOL    HW114812   7.553   6.458   0.798  0.1909 -2.4493 -0.7542
 3845SOL    HW214813   7.457   6.450   0.681 -0.8657  2.0594 -0.4072
 3846SOL     OW14814   7.807   5.450   2.551 -0.4144 -0.2595  0.1859
 3846SOL    HW114815   7.808   5.363   2.512  1.3264 -1.1553  2.0743
 3846SOL    HW214816   7.741   5.445   2.619 -1.9574  0.6719 -1.1548
 3847SOL     OW14817   6.254   3.968   2.032  0.3025  0.2862 -0.1434
 3847SOL    HW114818   6.185   3.970   2.098 -1.3528  3.0211 -1.7886
 3847SOL    HW214819   6.329   3.931   2.077 -1.4718 -0.3527  2.4894
 3848SOL     OW14820   6.833   8.673   2.833 -0.0443  0.1437 -0.2709
 3848SOL    HW114821   6.896   8.608   2.800  0.1687 -0.5310  1.3626
 3848SOL    HW214822   6.853   8.752   2.784  1.8097 -0.1730 -0.1161
 3849SOL     OW14823   4.292   1.068   8.168  0.7525 -0.1663 -1.3695
 3849SOL    HW114824   4.384   1.072   8.194  0.3152  0.2725  0.1939
 3849SOL    HW214825   4.257   1.154   8.192 -0.2808 -0.6563 -1.0674
 3850SOL     OW14826   1.819   8.070  11.005  0.0660 -0.5434  0.1060
 3850SOL    HW114827   1.869   8.124  10.945  1.2041 -1.8707 -0.2004
 3850SOL    HW214828   1.826   8.114  11.090 -2.2196  1.7849 -0.7869
 3851SOL     OW14829   7.103   0.111  10.386  0.1144  0.2082 -0.2085
 3851SOL    HW114830   7.193   0.083  10.367  1.0376  1.3995  1.9762
 3851SOL    HW214831   7.103   0.205  10.368  0.6412  1.1091  3.6301
 3852SOL     OW14832   5.388   3.378   1.871 -0.1969 -0.5058 -0.0402
 3852SOL    HW114833   5.415   3.300   1.919  3.1309  0.2198 -0.5121
 3852SOL    HW214834   5.446   3.382   1.795  0.5541  2.9277  0.5153
 3853SOL     OW14835   3.790   5.579   0.063  0.4253  0.4904  0.2779
 3853SOL    HW114836   3.808   5.491   0.030  2.2977 -0.2905  3.0043
 3853SOL    HW214837   3.867   5.601   0.116 -0.9766  2.8348  1.5147
 3854SOL     OW14838   0.506   9.873   0.156 -0.1815 -0.1165 -0.5437
 3854SOL    HW114839   0.550   9.823   0.087  0.8948 -0.4907  0.3775
 3854SOL    HW214840   0.562   9.950   0.169 -0.2897 -0.1256  0.0048
 3855SOL     OW14841   7.271   8.850   2.905  0.0602  0.2241  0.7847
 3855SOL    HW114842   7.282   8.901   2.985  0.0111  2.5212 -0.5671
 3855SOL    HW214843   7.177   8.853   2.887  0.2919  1.4919 -0.3837
 3856SOL     OW14844   2.817   6.995   6.564  0.1413  0.7012  0.6192
 3856SOL    HW114845   2.829   6.949   6.647 -0.8912  1.3517  1.1416
 3856SOL    HW214846   2.735   7.043   6.574 -0.3567  0.2686 -1.0180
 3857SOL     OW14847   9.683   4.434   0.665 -0.6797  0.1703 -0.2394
 3857SOL    HW114848   9.642   4.476   0.741  2.9558  2.7373  0.5775
 3857SOL    HW214849   9.740   4.367   0.703  0.0617  0.4755 -0.7798
 3858SOL     OW14850   6.940   4.484   4.493  0.0262  0.4708 -0.3878
 3858SOL    HW114851   6.881   4.498   4.418 -2.4670 -1.7810  0.9854
 3858SOL    HW214852   6.953   4.390   4.495 -0.2745  0.4355  2.2286
 3859SOL     OW14853   1.450   5.125   6.094  0.1291 -0.2763 -0.4343
 3859SOL    HW114854   1.394   5.152   6.167  1.1075  0.0542  0.2294
 3859SOL    HW214855   1.391   5.115   6.020 -0.9330 -0.8940  0.4693
 3860SOL     OW14856   3.337   6.120   1.740 -0.3690 -0.0786 -0.3751
 3860SOL    HW114857   3.279   6.044   1.738  0.0313 -0.3831 -0.5421
 3860SOL    HW214858   3.424   6.084   1.725 -0.2828  0.5108 -1.4130
 3861SOL     OW14859   6.316   8.301   6.700 -0.4536 -0.3722  0.4138
 3861SOL    HW114860   6.267   8.370   6.656  0.8694  0.7086  0.5683
 3861SOL    HW214861   6.392   8.285   6.644 -1.6984 -3.1811 -0.6884
 3862SOL     OW14862   6.425   4.247   6.574  0.3602  0.6754  0.5394
 3862SOL    HW114863   6.387   4.227   6.659  1.5893 -0.2553  0.8988
 3862SOL    HW214864   6.470   4.330   6.586  0.9060  0.3271  0.9383
 3863SOL     OW14865   0.336   5.833   1.210  0.0781  0.0174 -0.5709
 3863SOL    HW114866   0.339   5.876   1.124  0.1292  0.6478 -0.2582
 3863SOL    HW214867   0.419   5.856   1.251 -0.0661 -0.0501 -0.2423
 3864SOL     OW14868  10.803   6.560   6.556 -0.3128  0.6960 -0.0416
 3864SOL    HW114869  10.833   6.647   6.583  1.7623  0.0002  0.0854
 3864SOL    HW214870  10.744   6.532   6.626  0.0201  1.4875  0.5713
 3865SOL     OW14871   0.372   5.289   4.523 -0.5979 -0.0009 -0.3795
 3865SOL    HW114872   0.462   5.260   4.515  0.1953  2.5179 -1.9926
 3865SOL    HW214873   0.378   5.373   4.568 -1.8311  1.2204 -2.3211
 3866SOL     OW14874   1.070   6.497   3.346  0.3176  0.3459 -0.8461
 3866SOL    HW114875   1.125   6.454   3.279  0.1061  2.1947 -2.2910
 3866SOL    HW214876   1.081   6.590   3.329 -1.0032  0.8252  0.7354
 3867SOL     OW14877   2.309   8.653   1.946 -0.1883  0.1481 -0.3057
 3867SOL    HW114878   2.315   8.691   2.033  0.2684 -0.6889  0.0399
 3867SOL    HW214879   2.215   8.643   1.930 -0.3000 -2.6912  1.4605
 3868SOL     OW14880  10.005   5.520   2.770 -0.1938  0.4081 -0.4012
 3868SOL    HW114881  10.096   5.548   2.768 -0.1395  0.2192 -0.6909
 3868SOL    HW214882   9.965   5.570   2.841  0.0373  0.7866 -0.5351
 3869SOL     OW14883   8.115   3.606  10.905  0.4837 -0.2950 -0.4422
 3869SOL    HW114884   8.107   3.539  10.837 -2.5855  0.4774 -0.9730
 3869SOL    HW214885   8.119   3.556  10.987 -1.6140 -1.2334 -0.8328
 3870SOL     OW14886   1.959   8.262   1.643 -0.4683 -0.4960 -0.1092
 3870SOL    HW114887   1.949   8.202   1.569 -0.9600 -1.4743  0.7309
 3870SOL    HW214888   1.991   8.343   1.604 -1.2917 -0.8007 -1.4811
 3871SOL     OW14889   7.664  10.474  11.238  0.6671 -0.2111  0.0091
 3871SOL    HW114890   7.677  10.380  11.249 -0.3425 -0.5146 -1.1937
 3871SOL    HW214891   7.704  10.513  11.316  1.0551 -1.6301  0.5486
 3872SOL     OW14892   8.386   4.379   2.343 -0.1037 -0.4878 -0.2546
 3872SOL    HW114893   8.466   4.431   2.351 -0.1168 -0.5301  0.1477
 3872SOL    HW214894   8.351   4.374   2.432 -0.0868 -1.2115 -0.2867
 3873SOL     OW14895   0.351   5.246   5.408 -0.3367  0.6813 -0.8032
 3873SOL    HW114896   0.286   5.178   5.424 -0.3219  0.8742  0.1764
 3873SOL    HW214897   0.343   5.305   5.483  2.7367 -0.6684  0.7597
 3874SOL     OW14898   9.138   6.387   8.037 -0.2293 -0.3454  0.3292
 3874SOL    HW114899   9.143   6.481   8.059 -1.5551 -0.2411  0.2577
 3874SOL    HW214900   9.084   6.349   8.106  1.5840 -1.3850  1.2496
 3875SOL     OW14901   6.731  11.097   2.268  0.0874 -0.4513 -0.0445
 3875SOL    HW114902   6.804  11.118   2.327 -0.1465 -0.0470  0.1038
 3875SOL    HW214903   6.772  11.086   2.182  0.5036 -1.5717  0.2802
 3876SOL     OW14904   8.753   6.788   7.616 -0.0215  0.3278  0.2345
 3876SOL    HW114905   8.694   6.778   7.541 -0.0894  2.6053 -0.0861
 3876SOL    HW214906   8.809   6.863   7.593  0.5949  0.4766  2.0472
 3877SOL     OW14907   6.110   2.694  10.606  0.6104  0.4706  0.0202
 3877SOL    HW114908   6.021   2.662  10.624  0.5017  0.8432  0.1652
 3877SOL    HW214909   6.100   2.789  10.601  1.3705  0.7398  2.2870
 3878SOL     OW14910   3.646   4.027   2.183  0.0912 -0.0076  0.2811
 3878SOL    HW114911   3.626   4.088   2.113 -0.5649 -0.8148 -0.2568
 3878SOL    HW214912   3.639   4.079   2.263  0.5502  0.8474 -0.2185
 3879SOL     OW14913   2.922   4.309   5.386 -0.1318 -0.2754 -0.5701
 3879SOL    HW114914   2.909   4.329   5.479  0.0353  1.2293 -0.8384
 3879SOL    HW214915   2.854   4.245   5.366 -0.6642 -0.0480  0.4113
 3880SOL     OW14916   7.526   1.811   8.060  0.8164 -0.3663  0.6238
 3880SOL    HW114917   7.433   1.797   8.080  1.1298 -1.8269  1.2056
 3880SOL    HW214918   7.527   1.891   8.007 -0.9506 -1.1904 -0.7915
 3881SOL     OW14919   5.246   7.597   6.722 -0.8761 -0.5952  0.0603
 3881SOL    HW114920   5.281   7.649   6.650  0.5497 -1.7219 -0.1090
 3881SOL    HW214921   5.180   7.653   6.763 -1.1598  0.3727 -1.6221
 3882SOL     OW14922   1.647   2.427   2.502 -0.0975  0.6460 -0.3995
 3882SOL    HW114923   1.741   2.431   2.484  0.8260 -3.1783  2.2449
 3882SOL    HW214924   1.637   2.470   2.587 -0.7413  0.9142 -0.6056
 3883SOL     OW14925   3.137   1.659   7.213  0.0853  0.2875 -0.0828
 3883SOL    HW114926   3.119   1.665   7.120 -0.8217  1.5593  0.1578
 3883SOL    HW214927   3.117   1.568   7.235  0.2090  0.0034 -1.0941
 3884SOL     OW14928   7.040   4.797   6.788  0.6353 -0.0004  0.2035
 3884SOL    HW114929   7.057   4.891   6.785 -1.5277  0.4496  0.4044
 3884SOL    HW214930   7.098   4.765   6.857  2.5109  0.8747 -0.8836
 3885SOL     OW14931   9.828   3.721   5.892  0.1816  0.7115 -0.2480
 3885SOL    HW114932   9.890   3.780   5.935 -0.0505  0.7108  0.0933
 3885SOL    HW214933   9.871   3.636   5.891  0.9688  1.0959 -1.6996
 3886SOL     OW14934   7.556   8.582   8.085  0.4436 -0.4782  0.2144
 3886SOL    HW114935   7.486   8.530   8.046 -1.0536  0.5108  1.4814
 3886SOL    HW214936   7.585   8.530   8.160  1.4642 -1.1109 -0.5748
 3887SOL     OW14937  11.315   3.676   6.762  0.3066 -0.0989  0.6238
 3887SOL    HW114938  11.295   3.719   6.846  0.3289 -1.3334  1.2787
 3887SOL    HW214939  11.367   3.741   6.714 -0.7653  1.1178  1.0397
 3888SOL     OW14940   5.033   7.065   2.842  0.1713  0.5641  0.1449
 3888SOL    HW114941   5.000   7.149   2.810 -1.7909 -0.7577 -1.5306
 3888SOL    HW214942   4.955   7.017   2.869  1.0565 -1.3389 -0.5016
 3889SOL     OW14943   6.972   0.578   0.081  0.4639 -0.4162 -0.1119
 3889SOL    HW114944   6.974   0.624   0.165  0.6383  0.2924 -0.4975
 3889SOL    HW214945   6.965   0.647   0.016 -3.0491 -1.0472 -0.5715
 3890SOL     OW14946   2.135  10.211  11.302  0.0634  0.2880 -0.0857
 3890SOL    HW114947   2.203  10.160  11.258  0.7708  1.9593 -1.0308
 3890SOL    HW214948   2.068  10.147  11.326 -0.2152 -0.8299 -3.3373
 3891SOL     OW14949  10.628   2.391   4.374  0.1615  0.0498  0.6633
 3891SOL    HW114950  10.639   2.473   4.421  0.1436 -0.8947  2.3776
 3891SOL    HW214951  10.711   2.378   4.328  0.2165  0.9417  0.5090
 3892SOL     OW14952   3.902   1.436  10.847 -0.5159 -0.3591 -0.2155
 3892SOL    HW114953   3.944   1.514  10.884  0.0206 -0.8660  0.2831
 3892SOL    HW214954   3.892   1.456  10.754  1.6148 -0.5055 -0.5412
 3893SOL     OW14955   8.471   8.516  10.124  0.1950  0.5546 -0.4120
 3893SOL    HW114956   8.381   8.530  10.154  0.3597  0.1467  0.2928
 3893SOL    HW214957   8.468   8.533  10.030 -1.0038 -1.1532 -0.7228
 3894SOL     OW14958   6.272   7.810   7.746 -0.3900 -1.0752  0.4135
 3894SOL    HW114959   6.215   7.879   7.781  2.3122  0.6746  1.7420
 3894SOL    HW214960   6.253   7.734   7.801  0.2786  0.2335  2.6079
 3895SOL     OW14961   5.248   5.867   7.988  0.1929  0.0432  0.3300
 3895SOL    HW114962   5.177   5.855   8.050  0.5945 -1.6029  0.5226
 3895SOL    HW214963   5.219   5.939   7.931 -0.6214  0.8882  1.7655
 3896SOL     OW14964   9.406   4.168  10.479  0.4757 -0.0989 -0.1734
 3896SOL    HW114965   9.461   4.093  10.457  0.1403 -0.1958 -0.6947
 3896SOL    HW214966   9.468   4.241  10.489  0.7150 -0.2519 -0.5446
 3897SOL     OW14967   6.596   8.448   0.082  0.5728  0.0905  0.0635
 3897SOL    HW114968   6.585   8.395   0.004 -1.9628 -0.1849  0.5308
 3897SOL    HW214969   6.683   8.426   0.114  0.7259 -1.5626 -1.3581
 3898SOL     OW14970   8.867   6.766   5.441  0.2891 -0.0278  0.2149
 3898SOL    HW114971   8.920   6.758   5.362 -0.1473  0.7098 -0.1601
 3898SOL    HW214972   8.848   6.675   5.465  0.6151 -0.2669 -0.3965
 3899SOL     OW14973   8.085   3.126   6.259  0.0088 -0.2878 -0.6050
 3899SOL    HW114974   8.124   3.212   6.273  0.2123 -0.4782  0.0663
 3899SOL    HW214975   8.141   3.085   6.193  0.1261 -0.0379 -0.6621
 3900SOL     OW14976   5.462   8.982   9.376 -0.6212 -0.1865 -0.0062
 3900SOL    HW114977   5.519   8.917   9.334 -0.8581 -0.4432  0.0664
 3900SOL    HW214978   5.513   9.063   9.374 -0.9906  0.0311 -1.6112
 3901SOL     OW14979   6.977   8.205   2.468 -0.1870 -0.4049  0.0940
 3901SOL    HW114980   7.024   8.187   2.386 -1.3518 -2.3149 -0.2186
 3901SOL    HW214981   7.046   8.210   2.535  0.8720  2.0603 -1.0535
 3902SOL     OW14982   2.985   5.459   6.491  0.1011  0.1175 -0.5282
 3902SOL    HW114983   2.906   5.511   6.473 -0.4461 -0.8505 -1.0021
 3902SOL    HW214984   2.975   5.432   6.582 -1.3584 -1.9812 -1.2181
 3903SOL     OW14985   1.431   1.339   1.905  0.4264  0.2638 -0.4799
 3903SOL    HW114986   1.340   1.311   1.901  0.3037  0.5373  0.3085
 3903SOL    HW214987   1.478   1.277   1.849  0.2093 -1.6824  1.3978
 3904SOL     OW14988   9.448   2.919   9.588  0.3139 -0.1692 -0.1798
 3904SOL    HW114989   9.372   2.921   9.530  0.1434  0.2497  0.0561
 3904SOL    HW214990   9.414   2.942   9.674  0.5983 -0.6130  0.0591
 3905SOL     OW14991   2.323   8.093   8.472  0.3523  0.5831  0.2474
 3905SOL    HW114992   2.317   8.167   8.532  1.1498 -0.3923  1.5921
 3905SOL    HW214993   2.321   8.016   8.528 -0.3654 -0.4333 -1.1052
 3906SOL     OW14994  10.574   8.766  10.627 -0.3579 -0.1795 -0.4874
 3906SOL    HW114995  10.604   8.856  10.637 -0.3420 -0.1728 -0.6061
 3906SOL    HW214996  10.642   8.722  10.576 -1.3392  0.2643 -2.2567
 3907SOL     OW14997   9.738   8.973  11.221  0.2427 -0.0271 -0.2977
 3907SOL    HW114998   9.724   9.026  11.142 -0.9505  1.3324  0.7594
 3907SOL    HW214999   9.705   9.028  11.292 -1.4318 -2.3749  0.8519
 3908SOL     OW15000   8.220  11.013   6.118 -0.3465  0.0679 -0.0369
 3908SOL    HW115001   8.205  10.988   6.026 -2.4712 -0.9528  0.5257
 3908SOL    HW215002   8.316  11.016   6.126  0.0547 -3.7416 -1.3286
 3909SOL     OW15003   0.002   6.491   1.165 -0.3070  0.0310 -0.1080
 3909SOL    HW115004  -0.011   6.485   1.260  0.9683  1.6132  0.1994
 3909SOL    HW215005  -0.037   6.575   1.141 -0.1822 -0.1347 -0.9168
 3910SOL     OW15006   5.152   0.085   6.844  0.3199  0.1495  0.5884
 3910SOL    HW115007   5.177  -0.007   6.856  2.2299  0.7507  1.6681
 3910SOL    HW215008   5.122   0.113   6.930 -0.7227  0.4179  0.1445
 3911SOL     OW15009   4.497  10.089   8.684 -0.3023 -0.0689 -0.7838
 3911SOL    HW115010   4.476  10.001   8.653 -0.6928 -0.5280  0.7252
 3911SOL    HW215011   4.415  10.138   8.675 -0.5843 -0.3733  0.0821
 3912SOL     OW15012   7.442  10.984   0.046 -0.4212  0.1541 -0.0418
 3912SOL    HW115013   7.418  10.915  -0.016  1.1776 -0.8172  0.3607
 3912SOL    HW215014   7.452  10.938   0.130  1.7856  0.6167  0.0090
 3913SOL     OW15015   7.824   5.755   0.697 -0.2058  0.0636 -0.1401
 3913SOL    HW115016   7.836   5.848   0.680 -0.4625  0.7000  2.7478
 3913SOL    HW215017   7.749   5.730   0.643  0.6855  1.1375 -1.9823
 3914SOL     OW15018   7.735  10.619   3.827 -0.8223  0.5306  0.6309
 3914SOL    HW115019   7.652  10.578   3.802 -0.5582  0.0070  0.5918
 3914SOL    HW215020   7.793  10.604   3.752  0.0985 -1.4010  1.6544
 3915SOL     OW15021   3.757   1.708   2.104  0.2567  0.2895  0.2664
 3915SOL    HW115022   3.771   1.652   2.180 -0.9784  0.9735  1.0257
 3915SOL    HW215023   3.821   1.779   2.114  0.6975 -0.0960  0.1846
 3916SOL     OW15024  10.915   2.463   8.471  0.5177  0.0973 -0.1298
 3916SOL    HW115025  10.998   2.429   8.504  0.6078  1.8942  1.7173
 3916SOL    HW215026  10.850   2.400   8.501  1.0531 -0.4961 -0.1954
 3917SOL     OW15027   5.494   2.470   4.023  0.0451  0.0129 -0.3625
 3917SOL    HW115028   5.482   2.526   3.946 -2.5462  0.3501  0.2056
 3917SOL    HW215029   5.462   2.384   3.995  0.1462 -0.1439 -0.0022
 3918SOL     OW15030   9.204   6.849   3.832 -0.2769  0.3652  0.2724
 3918SOL    HW115031   9.121   6.890   3.804 -0.1479  0.4549  0.0217
 3918SOL    HW215032   9.250   6.919   3.878 -0.3870  0.2830  0.5130
 3919SOL     OW15033   3.568   1.015   7.694 -0.4495  0.7056  0.0750
 3919SOL    HW115034   3.541   0.925   7.676  0.2343  0.7469 -1.2101
 3919SOL    HW215035   3.535   1.065   7.620 -1.0173  1.5638  0.8937
 3920SOL     OW15036   5.016   7.737   6.090 -0.0166  0.2371  0.3598
 3920SOL    HW115037   4.952   7.806   6.106  0.7145  0.7910  0.9846
 3920SOL    HW215038   4.964   7.661   6.064 -0.9893  0.4348  1.6293
 3921SOL     OW15039   4.146   0.153   7.307 -0.0136  0.7898 -0.1719
 3921SOL    HW115040   4.086   0.227   7.314 -1.0966 -0.0196 -0.6755
 3921SOL    HW215041   4.191   0.167   7.224 -2.7589 -0.8826 -2.1102
 3922SOL     OW15042   3.633   2.769   3.779 -0.5380  0.0585  0.2128
 3922SOL    HW115043   3.699   2.831   3.748  1.3480 -0.7688  2.2676
 3922SOL    HW215044   3.582   2.747   3.701  2.8960 -0.7437 -2.0292
 3923SOL     OW15045   6.980   1.590  11.200  0.1743  0.0060 -0.0231
 3923SOL    HW115046   7.074   1.577  11.187  0.1916 -0.2915  0.3844
 3923SOL    HW215047   6.944   1.595  11.112  0.2626 -2.0611 -0.2236
 3924SOL     OW15048   4.024   4.736   3.286 -0.7946  0.2637 -0.8668
 3924SOL    HW115049   4.058   4.811   3.238 -0.3967 -0.2773 -1.4435
 3924SOL    HW215050   4.097   4.674   3.290 -1.0732 -0.0385 -0.2837
 3925SOL     OW15051   8.388   2.702   8.467 -0.1104 -0.3822 -0.6069
 3925SOL    HW115052   8.324   2.773   8.472 -0.6584 -0.9322  0.8625
 3925SOL    HW215053   8.334   2.622   8.465  0.5047 -0.8323  0.0772
 3926SOL     OW15054   6.892   7.684  10.546  0.4204 -0.4569 -0.7642
 3926SOL    HW115055   6.916   7.770  10.581 -1.4855 -0.3504  0.4870
 3926SOL    HW215056   6.936   7.679  10.461  0.5942  1.7572 -0.8699
 3927SOL     OW15057   9.731   1.357   1.569  0.2028  0.5654 -0.1998
 3927SOL    HW115058   9.696   1.403   1.646  0.4636  1.8402 -0.8203
 3927SOL    HW215059   9.658   1.353   1.508 -0.4142 -1.6928  0.6149
 3928SOL     OW15060   0.646   3.864   0.332  0.2497  0.2658 -0.1755
 3928SOL    HW115061   0.605   3.857   0.419  1.6744 -1.8164  0.4103
 3928SOL    HW215062   0.637   3.956   0.309  1.1796  1.2721  2.9013
 3929SOL     OW15063   0.763   7.721   9.114  0.7275  0.3900  0.0254
 3929SOL    HW115064   0.700   7.705   9.185  0.8574 -1.5492 -0.2417
 3929SOL    HW215065   0.779   7.815   9.117 -0.7451  0.6360  1.3180
 3930SOL     OW15066   5.435   4.033   0.763  0.2947 -0.3008  0.1234
 3930SOL    HW115067   5.494   3.958   0.749  0.8607  0.2672 -0.5808
 3930SOL    HW215068   5.417   4.066   0.675 -1.7565 -0.9542  0.2505
 3931SOL     OW15069   2.957  10.544   5.631  0.0429 -0.3774 -0.0739
 3931SOL    HW115070   2.875  10.496   5.637 -0.6194  0.4615 -1.7281
 3931SOL    HW215071   2.965  10.565   5.538  2.1540 -0.4620  0.0487
 3932SOL     OW15072   6.980  10.090   5.414  0.1991 -0.0267 -0.4488
 3932SOL    HW115073   7.064  10.093   5.460 -0.1189 -0.2071  0.1573
 3932SOL    HW215074   6.975  10.001   5.378  0.0241 -0.2053  0.0008
 3933SOL     OW15075   0.216   2.942   9.944 -0.1227  0.3410  0.2976
 3933SOL    HW115076   0.302   2.959   9.904 -0.8566  3.2250 -0.2401
 3933SOL    HW215077   0.153   2.974   9.880 -1.4954  1.0286  1.9297
 3934SOL     OW15078   5.772   6.036  10.034  0.5829  0.2231  0.7265
 3934SOL    HW115079   5.676   6.034  10.028  0.6374  1.4862 -1.2099
 3934SOL    HW215080   5.802   6.031   9.944  2.3379  0.8679  1.2329
 3935SOL     OW15081   7.850   6.445   4.820 -0.6716 -0.4246  0.2878
 3935SOL    HW115082   7.945   6.451   4.823 -0.7643  1.4495  1.2410
 3935SOL    HW215083   7.831   6.353   4.837  0.9414 -0.5294  1.8512
 3936SOL     OW15084   6.343   7.669   0.578 -0.0874 -0.2735 -0.4694
 3936SOL    HW115085   6.254   7.692   0.603  0.1874  1.8739 -1.2767
 3936SOL    HW215086   6.396   7.692   0.655  0.2156  2.2628 -1.3502
 3937SOL     OW15087   4.822   2.579   5.827 -0.5450 -0.3074 -0.3168
 3937SOL    HW115088   4.872   2.570   5.746 -0.0258  0.2709 -0.0714
 3937SOL    HW215089   4.785   2.492   5.843  1.1887 -1.0214  0.0035
 3938SOL     OW15090   4.126   9.193   5.863 -0.1013  0.1956  0.1835
 3938SOL    HW115091   4.181   9.117   5.883  0.0804  0.5617  1.1514
 3938SOL    HW215092   4.187   9.266   5.853 -0.3756  0.5842  1.1554
 3939SOL     OW15093   3.640   0.375   7.852 -0.0034 -0.3168  0.2155
 3939SOL    HW115094   3.670   0.337   7.769  1.9745 -0.4286  0.9245
 3939SOL    HW215095   3.721   0.394   7.900 -1.0816  0.5301  1.7785
 3940SOL     OW15096   8.965   4.863   0.444  0.0757  1.0211 -0.4038
 3940SOL    HW115097   8.957   4.955   0.468  1.7345  1.1823 -0.3616
 3940SOL    HW215098   8.878   4.840   0.411 -0.2510  2.7157 -0.8483
 3941SOL     OW15099   0.312  11.190   0.654  1.1664 -0.7293  0.0550
 3941SOL    HW115100   0.323  11.181   0.559  1.0854  1.9492 -0.2733
 3941SOL    HW215101   0.238  11.249   0.665  1.7604 -0.2454  1.7694
 3942SOL     OW15102   5.758   2.269  11.159 -0.3091  0.5702  0.2172
 3942SOL    HW115103   5.718   2.355  11.155 -1.6837 -0.0433  0.3622
 3942SOL    HW215104   5.812   2.272  11.238 -0.7632  1.1200  0.5159
 3943SOL     OW15105   6.918  10.692   3.543 -0.1374 -0.0991 -0.4893
 3943SOL    HW115106   6.885  10.766   3.492 -0.6397  0.1605  0.1932
 3943SOL    HW215107   6.914  10.722   3.634  0.6050 -0.6056 -0.2836
 3944SOL     OW15108   2.763   7.877   9.715 -0.0662  0.0202 -0.4758
 3944SOL    HW115109   2.768   7.853   9.808  2.2546 -1.9519 -1.0294
 3944SOL    HW215110   2.836   7.937   9.702  1.1385 -1.5972 -1.4781
 3945SOL     OW15111   9.040   7.736   7.826  0.0876 -0.1569 -0.0799
 3945SOL    HW115112   8.980   7.776   7.763 -0.7899 -0.2536  0.6729
 3945SOL    HW215113   9.126   7.741   7.784 -0.1379  1.6940 -0.4022
 3946SOL     OW15114   5.222   2.652   4.930  0.0509  0.0010  0.5517
 3946SOL    HW115115   5.284   2.607   4.986 -0.2593 -1.0205  0.1048
 3946SOL    HW215116   5.176   2.581   4.884 -0.2705  0.7826 -0.3627
 3947SOL     OW15117  10.227   6.694   7.312 -0.2241  0.2645 -0.0439
 3947SOL    HW115118  10.165   6.651   7.371 -0.6844 -0.2982 -0.9098
 3947SOL    HW215119  10.175   6.714   7.234  1.3411 -3.3056 -2.2306
 3948SOL     OW15120   1.963  10.255   5.036 -0.1062  0.0477  0.1498
 3948SOL    HW115121   2.026  10.301   5.091  0.6190 -0.7914  0.0314
 3948SOL    HW215122   1.979  10.162   5.052 -0.5923 -0.1963 -0.6872
 3949SOL     OW15123   7.833   0.262   8.695  0.2008 -0.2429  0.4080
 3949SOL    HW115124   7.872   0.296   8.614 -0.0664 -2.4459 -0.7205
 3949SOL    HW215125   7.908   0.231   8.747  0.2320 -1.5239 -0.3453
 3950SOL     OW15126   0.612   3.130   0.818  0.1607 -0.0878  0.6551
 3950SOL    HW115127   0.547   3.122   0.747  0.0794  1.6657  0.4918
 3950SOL    HW215128   0.567   3.096   0.895 -0.5910  0.1327  0.3279
 3951SOL     OW15129   2.645   5.418   5.976 -0.4501 -0.0476 -0.1509
 3951SOL    HW115130   2.720   5.401   6.034 -0.8302 -1.0940  0.0471
 3951SOL    HW215131   2.646   5.513   5.965 -0.0492  0.1252  1.1485
 3952SOL     OW15132   4.146   0.795   0.218 -0.0229  0.0503  0.0003
 3952SOL    HW115133   4.101   0.747   0.148 -1.5482 -0.1970  1.1070
 3952SOL    HW215134   4.145   0.886   0.190  0.1355 -0.1577 -0.6880
 3953SOL     OW15135   1.644   4.391   3.884 -0.4267 -0.2250 -0.4515
 3953SOL    HW115136   1.723   4.355   3.923 -0.4181 -0.5411 -0.7618
 3953SOL    HW215137   1.673   4.432   3.803 -0.6135 -0.5449 -0.6831
 3954SOL     OW15138   5.829   2.168  10.156 -0.5319  0.1117 -0.8319
 3954SOL    HW115139   5.767   2.181  10.083 -0.1648 -0.8296 -1.3380
 3954SOL    HW215140   5.796   2.090  10.201  0.3832 -0.5192 -1.2278
 3955SOL     OW15141   9.514   1.928   6.584  0.0673 -0.0920 -0.0707
 3955SOL    HW115142   9.538   1.966   6.668  0.1559  1.2954 -0.7113
 3955SOL    HW215143   9.439   1.872   6.605 -0.1855  0.5683  0.8683
 3956SOL     OW15144   4.888   0.367   4.853 -0.1575  1.0812  0.4418
 3956SOL    HW115145   4.981   0.349   4.862 -0.4108  0.1115  1.3957
 3956SOL    HW215146   4.881   0.422   4.775  1.1131  0.3908 -0.1912
 3957SOL     OW15147   7.242   9.482  10.064 -0.1596  0.1417 -0.2407
 3957SOL    HW115148   7.249   9.396  10.106 -1.0088  0.8403  1.4096
 3957SOL    HW215149   7.190   9.465   9.986  1.5689 -1.2117 -1.1947
 3958SOL     OW15150   3.109   6.966   1.755 -0.9299 -0.6368 -0.0869
 3958SOL    HW115151   3.162   6.898   1.797 -0.4019  0.3813  0.9591
 3958SOL    HW215152   3.095   6.934   1.666  0.2133 -1.6163  0.0551
 3959SOL     OW15153  11.354   3.919   4.103 -0.4314  0.6669  0.3195
 3959SOL    HW115154  11.321   3.955   4.021  0.0377  0.3840  0.0038
 3959SOL    HW215155  11.313   3.832   4.109  1.0876 -0.1531 -0.6311
 3960SOL     OW15156   2.171   2.920   3.531 -0.2760 -0.2622  0.4317
 3960SOL    HW115157   2.108   2.963   3.589  0.9354 -0.0608  1.6383
 3960SOL    HW215158   2.118   2.885   3.459 -1.5003  1.9120  0.1912
 3961SOL     OW15159   4.632  10.247   5.374 -0.3928  0.6655 -0.0404
 3961SOL    HW115160   4.618  10.264   5.281 -1.5003  2.1228  0.3482
 3961SOL    HW215161   4.727  10.247   5.385 -0.2683  1.8366 -0.9638
 3962SOL     OW15162   5.933   8.369   6.108  0.1832 -0.3572  0.1438
 3962SOL    HW115163   5.986   8.388   6.031  0.1000 -0.0248  0.1662
 3962SOL    HW215164   5.849   8.412   6.090  0.4765  0.5369  0.8294
 3963SOL     OW15165  11.369   4.190   5.227 -0.0769 -0.3369  0.2545
 3963SOL    HW115166  11.453   4.151   5.203  0.7749  0.6451  1.5448
 3963SOL    HW215167  11.351   4.156   5.314 -1.3008 -0.9457 -0.2157
 3964SOL     OW15168   8.677   9.230   1.447 -0.3784 -0.3051 -0.5702
 3964SOL    HW115169   8.678   9.146   1.493  0.6447  0.1595  0.3170
 3964SOL    HW215170   8.764   9.267   1.465 -0.5916  0.6627 -1.4699
 3965SOL     OW15171   0.030   1.131   4.226 -0.6381 -0.1449 -0.6067
 3965SOL    HW115172  -0.000   1.176   4.147 -2.5540 -0.4971 -0.1244
 3965SOL    HW215173   0.121   1.109   4.208 -0.8084  0.4676 -2.4039
 3966SOL     OW15174  11.244   1.824   8.824 -0.1853 -0.0493 -0.0884
 3966SOL    HW115175  11.179   1.795   8.888 -1.7888  0.6019 -1.3589
 3966SOL    HW215176  11.263   1.746   8.772  0.1491 -0.2653  0.3500
 3967SOL     OW15177   7.773  10.532   6.836 -0.0689 -0.1482  0.1960
 3967SOL    HW115178   7.825  10.576   6.903  1.0865  1.8139 -1.8433
 3967SOL    HW215179   7.833  10.521   6.762 -2.2202  1.4880 -1.9789
 3968SOL     OW15180   5.145   3.547   3.047  0.1629 -0.2208  0.1494
 3968SOL    HW115181   5.169   3.533   2.956  2.3117 -0.6609  0.7338
 3968SOL    HW215182   5.050   3.536   3.048  0.2352 -1.5588 -1.8039
 3969SOL     OW15183   0.871   3.008   5.286 -0.7461 -0.1695  0.1172
 3969SOL    HW115184   0.827   3.074   5.233 -1.3331  0.4985  1.3985
 3969SOL    HW215185   0.960   3.042   5.299 -1.3499  0.9196  1.6410
 3970SOL     OW15186   9.627   2.688   6.640  0.3830 -0.1303  0.0679
 3970SOL    HW115187   9.640   2.715   6.549  1.7685  0.6530  0.4636
 3970SOL    HW215188   9.714   2.697   6.680  0.1697 -1.9727  1.0835
 3971SOL     OW15189   0.344   3.323   7.053 -0.0182  0.2438 -0.0951
 3971SOL    HW115190   0.373   3.287   6.969  1.6485 -1.9732  1.3313
 3971SOL    HW215191   0.252   3.296   7.059 -0.1392  0.3740 -1.1781
 3972SOL     OW15192   1.826   0.892  10.156 -0.3000  0.1720 -0.0249
 3972SOL    HW115193   1.866   0.938  10.082  2.8124 -0.8810  0.8814
 3972SOL    HW215194   1.839   0.799  10.136 -0.9845 -0.1665  1.0464
 3973SOL     OW15195   8.366   7.560   1.860 -0.0757 -0.3728  0.0205
 3973SOL    HW115196   8.352   7.493   1.927 -1.1905  0.6262  0.8225
 3973SOL    HW215197   8.452   7.597   1.882 -0.5016  0.0578  1.0132
 3974SOL     OW15198   7.192   4.639   3.289 -1.0905 -0.6173  0.2460
 3974SOL    HW115199   7.271   4.585   3.287 -0.8839 -0.5582  2.8908
 3974SOL    HW215200   7.175   4.661   3.197  1.4110 -1.3989 -0.4803
 3975SOL     OW15201   9.342   7.830   1.100  0.5077  0.2589 -0.1256
 3975SOL    HW115202   9.386   7.799   1.021 -0.2893 -1.0647 -0.0788
 3975SOL    HW215203   9.302   7.913   1.075  0.7496  0.1302 -0.9479
 3976SOL     OW15204   7.259   7.255   5.194 -0.1814 -0.0540 -0.7980
 3976SOL    HW115205   7.309   7.225   5.270 -1.3741 -0.4593 -0.1455
 3976SOL    HW215206   7.324   7.268   5.126  1.0180  0.8925  0.4589
 3977SOL     OW15207   0.502   6.118   4.163 -0.0441 -0.1081 -0.4928
 3977SOL    HW115208   0.526   6.026   4.153  0.5032  0.0084 -0.3155
 3977SOL    HW215209   0.485   6.129   4.256 -0.1760 -0.0457 -0.5237
 3978SOL     OW15210   1.427   1.775   6.359  0.9340 -0.2558  0.4168
 3978SOL    HW115211   1.368   1.709   6.324  2.0406 -0.9572 -0.1840
 3978SOL    HW215212   1.441   1.749   6.450 -0.4384  0.4865  0.8712
 3979SOL     OW15213  10.101   7.705   3.162  0.0977  0.2693  0.1934
 3979SOL    HW115214  10.135   7.652   3.090 -1.4122  0.6412 -0.8461
 3979SOL    HW215215  10.172   7.766   3.183  0.9007 -0.4773 -0.3328
 3980SOL     OW15216   0.199  10.159   1.006 -0.1231 -0.5111  0.2797
 3980SOL    HW115217   0.176  10.252   1.006 -0.3954 -0.5257 -2.1400
 3980SOL    HW215218   0.237  10.144   1.092  0.8038  2.0606  0.3973
 3981SOL     OW15219   6.750   4.881   4.627 -0.1997  0.0807 -0.3509
 3981SOL    HW115220   6.709   4.965   4.608 -0.2719  0.6589  2.0565
 3981SOL    HW215221   6.737   4.868   4.721  1.6382 -1.6342 -0.2584
 3982SOL     OW15222   8.111   7.490   5.034 -0.5996 -0.1785  0.4763
 3982SOL    HW115223   8.049   7.459   4.967  0.9138 -1.9658 -0.1877
 3982SOL    HW215224   8.144   7.573   5.000 -1.4834  0.0291  0.0979
 3983SOL     OW15225  10.036   6.265   8.583  0.0448 -0.1073 -0.1305
 3983SOL    HW115226  10.081   6.216   8.514 -0.8571 -0.6258 -0.3642
 3983SOL    HW215227  10.006   6.197   8.645 -0.7239  0.1912 -0.1664
 3984SOL     OW15228   2.587   5.693   8.260  0.5239  0.1808 -0.0300
 3984SOL    HW115229   2.616   5.773   8.217  1.1850  0.4206  0.8438
 3984SOL    HW215230   2.568   5.719   8.350  1.2071 -0.7186  0.3975
 3985SOL     OW15231   3.639   4.013   6.672 -0.4158  0.5372 -0.4983
 3985SOL    HW115232   3.692   3.944   6.713 -1.6153 -0.3350 -0.3776
 3985SOL    HW215233   3.704   4.075   6.638  0.7603  2.0716  3.7992
 3986SOL     OW15234   1.532   2.456   1.391 -0.3033 -0.0572 -0.0118
 3986SOL    HW115235   1.573   2.392   1.450  0.7735  0.2353 -0.4205
 3986SOL    HW215236   1.443   2.465   1.425  0.1397 -0.2545  1.2835
 3987SOL     OW15237   0.807   3.482   0.880 -0.2432  0.2975  0.2291
 3987SOL    HW115238   0.797   3.401   0.830  0.5851  0.4732 -0.2362
 3987SOL    HW215239   0.832   3.453   0.967 -0.6976  0.0284  0.2758
 3988SOL     OW15240   1.070   8.181   5.353  0.3106 -0.0759  0.1893
 3988SOL    HW115241   1.102   8.272   5.354  0.6509 -0.1903  0.7785
 3988SOL    HW215242   1.126   8.136   5.291 -0.8412  0.4378 -1.2884
 3989SOL     OW15243   6.235   7.429   2.157 -0.2675  0.7892 -0.3240
 3989SOL    HW115244   6.217   7.351   2.210  0.5436  2.5452  2.8505
 3989SOL    HW215245   6.148   7.462   2.133 -0.6522 -1.9097 -3.3731
 3990SOL     OW15246  11.010   1.583   6.056  0.3631 -0.0584  0.0533
 3990SOL    HW115247  11.092   1.538   6.033  0.7036  1.7721 -2.8194
 3990SOL    HW215248  10.941   1.522   6.029  0.7720 -0.6185  0.2376
 3991SOL     OW15249   0.858   2.938   3.813  0.2411  0.2438  0.0967
 3991SOL    HW115250   0.894   2.995   3.745 -0.1316 -0.2437 -0.5205
 3991SOL    HW215251   0.908   2.857   3.805  0.6566  0.4174  0.8586
 3992SOL     OW15252   5.207   9.345   6.382 -0.3154  0.5810 -0.0576
 3992SOL    HW115253   5.267   9.271   6.391 -0.7427  0.3196  0.7092
 3992SOL    HW215254   5.121   9.309   6.402 -0.6536  1.0875 -0.5684
 3993SOL     OW15255   3.995   8.984   1.014  1.5456 -0.0718  0.2366
 3993SOL    HW115256   3.966   9.044   0.945 -0.6013 -2.0306 -0.6862
 3993SOL    HW215257   3.928   8.990   1.081  0.7647 -2.0521 -0.2917
 3994SOL     OW15258   9.049   6.193   5.628 -0.1535  0.0997  0.5397
 3994SOL    HW115259   9.040   6.266   5.567 -3.1795 -0.1070  0.6162
 3994SOL    HW215260   8.993   6.124   5.592  1.9595 -1.9492  0.9122
 3995SOL     OW15261   5.065   0.137   6.126 -0.8054 -0.2114  0.2182
 3995SOL    HW115262   5.071   0.098   6.039 -0.1917 -0.1709  0.2409
 3995SOL    HW215263   5.103   0.071   6.184  1.6194  0.9668  0.0925
 3996SOL     OW15264   5.484   2.670   9.333 -0.3267  0.0204 -0.1792
 3996SOL    HW115265   5.454   2.601   9.273 -0.7061  0.3235 -0.3440
 3996SOL    HW215266   5.470   2.751   9.285  0.3778  0.2008 -0.0938
 3997SOL     OW15267   8.165   6.965   9.726  0.3482  0.5480 -0.2968
 3997SOL    HW115268   8.170   7.023   9.802 -0.6573  1.7840 -1.1365
 3997SOL    HW215269   8.089   6.997   9.676 -0.0784 -1.3332 -0.9227
 3998SOL     OW15270   3.943   8.771   8.387  0.7196  0.3452 -0.0996
 3998SOL    HW115271   3.891   8.704   8.430  1.7331 -0.1048  0.4557
 3998SOL    HW215272   4.033   8.740   8.394  1.4092  2.5189  1.5969
 3999SOL     OW15273   9.637   9.744   4.588 -0.4555  0.1893 -0.3718
 3999SOL    HW115274   9.653   9.825   4.636  0.8118 -0.1148 -0.2463
 3999SOL    HW215275   9.603   9.683   4.654  4.1325 -1.2278  1.1053
 4000SOL     OW15276  11.339   3.091   9.420 -0.3343  0.3186  0.2128
 4000SOL    HW115277  11.358   3.182   9.398  1.1104  0.1299  0.5793
 4000SOL    HW215278  11.411   3.064   9.477 -0.0589 -1.4149 -0.8605
 4001SOL     OW15279   8.716   7.977   9.907 -0.0730  0.2206 -0.9122
 4001SOL    HW115280   8.782   7.958   9.840 -1.0001 -2.1787 -1.2482
 4001SOL    HW215281   8.742   7.923   9.982 -1.5567 -0.6923 -1.0168
 4002SOL     OW15282   2.880   5.756   0.606  0.1105 -0.0770 -0.7422
 4002SOL    HW115283   2.891   5.731   0.698 -0.6704  0.1209 -0.5905
 4002SOL    HW215284   2.862   5.850   0.609  1.5809  0.2396 -1.2114
 4003SOL     OW15285   1.033   0.390   6.567  0.2570  0.7248 -0.0074
 4003SOL    HW115286   1.032   0.299   6.538 -0.9061  0.7352 -0.0349
 4003SOL    HW215287   0.997   0.439   6.493 -2.8612  0.7413  1.3783
 4004SOL     OW15288   5.304   6.677   0.336  0.9068 -0.1877  0.0525
 4004SOL    HW115289   5.243   6.726   0.391  0.3020  0.3808 -1.0612
 4004SOL    HW215290   5.251   6.607   0.298  1.2993 -0.5461  0.1582
 4005SOL     OW15291  10.636   5.899   2.032  0.2643 -0.2809  0.3688
 4005SOL    HW115292  10.610   5.960   1.963  1.0867 -1.2497 -0.8266
 4005SOL    HW215293  10.646   5.954   2.110  1.5392  1.2041 -0.7932
 4006SOL     OW15294   1.752   1.781   5.544 -0.8587 -0.3545  0.2723
 4006SOL    HW115295   1.716   1.829   5.619 -0.0819  0.3836  0.1889
 4006SOL    HW215296   1.843   1.765   5.567 -1.2756 -2.5145  0.6266
 4007SOL     OW15297   9.439   8.696   9.334 -0.1108 -0.5851  0.1723
 4007SOL    HW115298   9.520   8.731   9.297 -1.5342 -0.4399 -3.1708
 4007SOL    HW215299   9.435   8.606   9.301 -1.4036 -0.5141  0.0815
 4008SOL     OW15300  11.210   5.913   9.959  0.1284  0.0748 -0.0836
 4008SOL    HW115301  11.203   6.008   9.948  1.9762  0.2861  0.2989
 4008SOL    HW215302  11.281   5.887   9.900  0.9247 -0.7749  1.2139
 4009SOL     OW15303   7.300   7.919   8.946 -0.1078  0.5250 -0.2238
 4009SOL    HW115304   7.266   8.009   8.949  0.8455  0.9083  2.5182
 4009SOL    HW215305   7.223   7.865   8.933 -0.8478  1.6751 -0.8494
 4010SOL     OW15306   1.661   5.666   0.973 -0.4276  0.1949 -0.2847
 4010SOL    HW115307   1.746   5.636   1.004  0.6055  1.7317 -1.5176
 4010SOL    HW215308   1.600   5.598   1.003  1.3024 -1.3139  0.0038
 4011SOL     OW15309   6.818   6.896   0.570  0.1218 -0.1539 -0.1632
 4011SOL    HW115310   6.876   6.873   0.643  0.2601  1.1148  0.1540
 4011SOL    HW215311   6.870   6.879   0.492  1.6053  2.4677  0.1345
 4012SOL     OW15312   6.867  10.656   9.020 -0.2967  0.0476 -0.3946
 4012SOL    HW115313   6.858  10.717   8.947  1.4664  1.9320  0.8694
 4012SOL    HW215314   6.938  10.597   8.993  0.2439  0.6402 -0.2926
 4013SOL     OW15315   7.644   8.697   1.727  0.2695 -0.0033 -0.2808
 4013SOL    HW115316   7.649   8.602   1.728  0.5912 -0.0122  2.2435
 4013SOL    HW215317   7.551   8.716   1.731  0.2291 -0.1932 -0.3015
 4014SOL     OW15318   5.742   6.237   3.026 -1.1291  0.5198 -0.8268
 4014SOL    HW115319   5.722   6.299   3.097  1.6649 -0.1800  0.7368
 4014SOL    HW215320   5.796   6.287   2.965  1.2078 -0.2866  0.4836
 4015SOL     OW15321   6.419  10.158  10.350  0.2181  0.3283  0.1686
 4015SOL    HW115322   6.487  10.139  10.414  1.1654 -0.1888 -0.9623
 4015SOL    HW215323   6.460  10.218  10.289 -0.1515 -0.4051 -0.8240
 4016SOL     OW15324   9.367   7.258  10.375 -0.7008 -0.4224 -0.3124
 4016SOL    HW115325   9.350   7.254  10.280 -1.8863  1.2716 -0.2057
 4016SOL    HW215326   9.414   7.340  10.388 -1.4772 -0.1179  0.6868
 4017SOL     OW15327   1.050  10.674   9.597  0.0102  0.1824 -0.5686
 4017SOL    HW115328   1.025  10.672   9.505 -3.1619 -2.3248  0.1480
 4017SOL    HW215329   1.016  10.757   9.630 -2.1675 -0.4556 -1.0090
 4018SOL     OW15330   3.226   7.051   1.285  0.4341 -0.0932  0.2712
 4018SOL    HW115331   3.205   7.127   1.232  0.2691 -1.5666 -1.9069
 4018SOL    HW215332   3.181   6.978   1.242 -0.7512 -1.2264  3.1787
 4019SOL     OW15333   5.596   8.151   6.351 -0.1628  0.7340  0.0407
 4019SOL    HW115334   5.647   8.071   6.365  0.1222  0.6485 -1.2849
 4019SOL    HW215335   5.505   8.121   6.345 -0.3624  0.8380  2.0079
 4020SOL     OW15336   7.538   8.960  10.514  0.5016  0.6612  0.3278
 4020SOL    HW115337   7.503   9.046  10.536 -0.7574  0.7843 -1.9254
 4020SOL    HW215338   7.472   8.898  10.544 -0.0746  0.6868 -0.8617
 4021SOL     OW15339   4.161  10.591   9.326  0.2447 -0.1168  0.6692
 4021SOL    HW115340   4.070  10.621   9.326 -0.6166 -2.5002 -0.2979
 4021SOL    HW215341   4.180  10.573   9.418 -0.7784 -0.9603  0.7363
 4022SOL     OW15342  10.518   1.893   5.669 -0.2341 -0.4351 -0.2079
 4022SOL    HW115343  10.600   1.876   5.623  0.0514  1.7654 -0.6237
 4022SOL    HW215344  10.541   1.957   5.736 -1.5073 -0.2218  0.0548
 4023SOL     OW15345   6.698   0.898   7.201  0.4017 -0.3239  0.6744
 4023SOL    HW115346   6.613   0.933   7.175  0.7683  1.1249  1.3050
 4023SOL    HW215347   6.757   0.922   7.129  0.1217 -2.1829 -0.2283
 4024SOL     OW15348   1.713   7.673   3.870 -0.5498 -0.0809 -0.0475
 4024SOL    HW115349   1.638   7.702   3.818 -0.1705 -0.7924 -1.0117
 4024SOL    HW215350   1.742   7.592   3.828 -0.0419 -0.5246  1.0961
 4025SOL     OW15351   4.648   3.209   3.575 -0.2843  0.2069 -0.4775
 4025SOL    HW115352   4.647   3.161   3.657  0.3483  0.6313 -0.2116
 4025SOL    HW215353   4.620   3.146   3.509  0.3081 -0.4626 -0.0984
 4026SOL     OW15354   0.245   3.443   1.971 -0.0123  0.0326  0.2464
 4026SOL    HW115355   0.231   3.348   1.966 -0.4828  0.1455 -0.7396
 4026SOL    HW215356   0.164   3.481   1.938  0.5960  0.7695 -0.4207
 4027SOL     OW15357   8.760   0.901   5.104 -0.5236 -0.5981  0.3352
 4027SOL    HW115358   8.779   0.945   5.187  1.0013 -0.2208 -0.1730
 4027SOL    HW215359   8.727   0.971   5.048  1.4898 -0.1118 -0.3369
 4028SOL     OW15360   6.971   9.452   8.958  0.2052 -0.1560 -0.7791
 4028SOL    HW115361   6.959   9.457   9.053 -1.6715  0.1927 -1.0073
 4028SOL    HW215362   7.043   9.390   8.947  1.5368  0.9739  0.9155
 4029SOL     OW15363   9.767   9.600   3.085  0.2047 -0.3037  0.8087
 4029SOL    HW115364   9.743   9.687   3.054 -0.9668 -0.4267  1.3003
 4029SOL    HW215365   9.842   9.574   3.031 -1.4017 -0.2954 -1.5673
 4030SOL     OW15366   6.051   8.942   3.159 -0.3566  0.4713 -0.2613
 4030SOL    HW115367   6.008   8.864   3.124 -2.6655  1.3935  0.3205
 4030SOL    HW215368   6.077   8.917   3.247  1.0509 -0.3195 -0.8587
 4031SOL     OW15369   8.838  10.797   6.341 -0.9049 -0.2946  0.1986
 4031SOL    HW115370   8.857  10.731   6.408  0.1276  0.1666  0.3839
 4031SOL    HW215371   8.891  10.769   6.265 -0.4586  0.3117  0.2821
 4032SOL     OW15372   1.257   1.366   4.322  0.0114 -0.2416  0.2717
 4032SOL    HW115373   1.292   1.277   4.320  1.5589  0.3352 -0.6506
 4032SOL    HW215374   1.294   1.408   4.244 -0.0158  1.4464  1.1176
 4033SOL     OW15375   2.863   9.008  10.437  0.5096  0.4788  0.4015
 4033SOL    HW115376   2.912   8.945  10.490  0.3475  0.5812  0.6702
 4033SOL    HW215377   2.866   8.971  10.348  0.2246 -0.0236  0.5959
 4034SOL     OW15378   7.744   8.074   9.497  0.0360 -0.0179 -0.5155
 4034SOL    HW115379   7.707   8.008   9.557  0.7025  0.7583  0.7861
 4034SOL    HW215380   7.678   8.143   9.494  0.8944  0.9213  1.0439
 4035SOL     OW15381   2.908   1.970   5.411  0.3981  1.0892  0.4608
 4035SOL    HW115382   2.911   2.013   5.325  1.1472  0.9883  0.4282
 4035SOL    HW215383   2.993   1.990   5.450  0.8349 -0.4980  0.3827
 4036SOL     OW15384   1.310   3.157   2.606 -0.1214 -0.3380 -0.2347
 4036SOL    HW115385   1.385   3.114   2.648  1.1558  0.7198 -1.3643
 4036SOL    HW215386   1.337   3.249   2.597 -0.4695 -0.4480 -3.0276
 4037SOL     OW15387   4.694   0.723   3.599 -0.3295 -0.4440  0.8262
 4037SOL    HW115388   4.706   0.804   3.648  0.0635  0.7854 -1.2010
 4037SOL    HW215389   4.778   0.677   3.606  1.0946  1.4984 -1.6497
 4038SOL     OW15390   3.558   9.390   4.930  0.0103 -0.0066  0.0130
 4038SOL    HW115391   3.642   9.391   4.975 -0.5475 -0.0202  1.0966
 4038SOL    HW215392   3.539   9.482   4.912  1.2544 -0.1177 -2.2413
 4039SOL     OW15393   0.761   8.138  10.459  0.2758 -0.0499  0.0323
 4039SOL    HW115394   0.791   8.068  10.517  0.3196 -0.3537 -0.3542
 4039SOL    HW215395   0.683   8.102  10.416 -0.0040  0.3321  0.2184
 4040SOL     OW15396   1.300  11.103   2.600  0.2363  0.2429 -0.1400
 4040SOL    HW115397   1.318  11.192   2.631 -1.1148  0.3189  0.4812
 4040SOL    HW215398   1.355  11.093   2.522 -0.3250  1.9810 -0.7954
 4041SOL     OW15399   0.532  10.306   0.032  0.6240 -0.3115  0.2869
 4041SOL    HW115400   0.551  10.278  -0.057 -0.4619  0.8252 -0.3451
 4041SOL    HW215401   0.442  10.340   0.027 -0.0484 -1.6720  2.1594
 4042SOL     OW15402   4.118  11.073  11.025  0.8367 -0.0668 -0.3157
 4042SOL    HW115403   4.146  11.106  11.110 -0.7815  1.0723 -0.1771
 4042SOL    HW215404   4.086  10.984  11.043  2.5702 -0.6951 -0.1747
 4043SOL     OW15405   7.855   7.435   7.096  0.3051  0.2930  0.0182
 4043SOL    HW115406   7.884   7.457   7.008  1.6193 -1.4540 -0.0398
 4043SOL    HW215407   7.884   7.345   7.109  1.4097  0.9362  2.7295
 4044SOL     OW15408   9.702   9.651  11.183 -0.0682 -0.0977 -0.3620
 4044SOL    HW115409   9.790   9.671  11.216 -1.3313  2.4539  1.8998
 4044SOL    HW215410   9.668   9.585  11.244 -0.7965  1.3406  0.8794
 4045SOL     OW15411   0.961   1.007   5.692 -0.2774 -0.1745 -0.0146
 4045SOL    HW115412   0.907   0.983   5.767 -0.3192  1.2151  0.4385
 4045SOL    HW215413   1.029   0.940   5.688  0.1574  0.1214  1.7377
 4046SOL     OW15414   7.267  10.547   5.245 -0.6394 -0.2053  0.3461
 4046SOL    HW115415   7.255  10.466   5.195  0.1765 -0.2329  0.1729
 4046SOL    HW215416   7.193  10.602   5.219  0.1353  0.0676 -1.4893
 4047SOL     OW15417   0.787  11.182  11.056  0.2584 -0.1994 -0.2396
 4047SOL    HW115418   0.837  11.260  11.077  0.0241 -0.3936  1.1492
 4047SOL    HW215419   0.841  11.134  10.993  0.5474  0.9024 -0.8432
 4048SOL     OW15420   0.903   5.334   4.303  0.1329 -0.7360 -0.2012
 4048SOL    HW115421   0.867   5.382   4.377  1.3302  0.0970 -0.1370
 4048SOL    HW215422   0.828   5.318   4.245 -0.0947  2.7481 -1.0721
 4049SOL     OW15423   4.049   5.966   3.055  0.1539  0.7811  0.2373
 4049SOL    HW115424   4.134   5.960   3.012  0.6964  0.7897  1.2895
 4049SOL    HW215425   3.987   5.938   2.988  1.1240 -0.6977 -0.0919
 4050SOL     OW15426   3.341   2.814  11.249 -0.4247  0.4191 -0.2438
 4050SOL    HW115427   3.420   2.865  11.232 -0.6266  1.0499  0.6054
 4050SOL    HW215428   3.269   2.876  11.235 -0.6780  0.3762  0.7596
 4051SOL     OW15429   0.426   2.477  10.145 -0.4157 -0.0987 -0.4723
 4051SOL    HW115430   0.407   2.489  10.052  0.4271  0.9815 -0.5283
 4051SOL    HW215431   0.386   2.393  10.167  0.3065 -0.9209 -2.0678
 4052SOL     OW15432   6.444   8.640   3.529  0.0417 -0.4527 -0.7198
 4052SOL    HW115433   6.515   8.576   3.525  0.1594 -0.7388  2.7761
 4052SOL    HW215434   6.365   8.587   3.540 -0.2824 -0.0573 -1.1083
 4053SOL     OW15435   3.125  10.278   2.122  1.0440 -0.0348 -0.2187
 4053SOL    HW115436   3.123  10.306   2.030  0.5516 -1.0043 -0.5094
 4053SOL    HW215437   3.211  10.307   2.153  1.3589 -0.0032 -1.0784
 4054SOL     OW15438   9.503   9.581  10.735 -0.0016 -0.4862  0.1533
 4054SOL    HW115439   9.427   9.628  10.769  1.0229 -0.3169  2.3565
 4054SOL    HW215440   9.552   9.647  10.685  0.4021  0.3106  1.5636
 4055SOL     OW15441   4.335   8.012   9.290 -0.2728 -0.0423 -0.5517
 4055SOL    HW115442   4.326   7.950   9.363  0.9279  1.9510  1.3996
 4055SOL    HW215443   4.245   8.037   9.269 -0.6065  0.6079  1.4455
 4056SOL     OW15444   7.933   0.655   1.091  0.2054  0.1400  0.1650
 4056SOL    HW115445   7.945   0.660   1.186  0.2991 -1.0780  0.2241
 4056SOL    HW215446   7.872   0.583   1.078  0.0133  0.4458 -0.6931
 4057SOL     OW15447  10.625  10.262   7.600  0.4077 -0.2128 -0.3294
 4057SOL    HW115448  10.588  10.304   7.523  1.1855 -0.2884 -0.7531
 4057SOL    HW215449  10.556  10.203   7.631 -1.0618  1.9699  0.8052
 4058SOL     OW15450   7.614  11.071   7.710  0.0302 -0.0253 -0.3961
 4058SOL    HW115451   7.581  11.107   7.792 -0.9130 -0.0457 -0.7524
 4058SOL    HW215452   7.682  11.009   7.736  0.4947  0.7718  0.3068
 4059SOL     OW15453   7.412   9.841   0.967 -0.0747 -0.2748  0.2887
 4059SOL    HW115454   7.484   9.780   0.986  0.0811 -1.1117 -2.5554
 4059SOL    HW215455   7.454   9.914   0.921 -0.9025 -0.3368 -0.5879
 4060SOL     OW15456   0.927   7.803   3.768 -0.0595 -0.0241 -0.0229
 4060SOL    HW115457   0.939   7.730   3.708  1.2593  0.5596 -0.5154
 4060SOL    HW215458   0.951   7.881   3.718 -0.8448  0.6958  0.6731
 4061SOL     OW15459   3.459   0.365   6.972  0.0642  0.8335  0.1452
 4061SOL    HW115460   3.503   0.420   7.036 -0.7332  0.7955  0.7425
 4061SOL    HW215461   3.460   0.416   6.891  4.0824 -0.4594 -0.8431
 4062SOL     OW15462   5.411   0.932   2.997 -0.0064 -0.1808 -0.0242
 4062SOL    HW115463   5.488   0.947   3.051 -0.8775 -0.3818  1.3145
 4062SOL    HW215464   5.362   0.864   3.043 -0.4769 -0.7947 -1.3913
 4063SOL     OW15465   2.287   6.519   1.998  0.2086  0.2253 -0.2945
 4063SOL    HW115466   2.291   6.454   1.927 -0.1118 -0.7722  0.5783
 4063SOL    HW215467   2.216   6.488   2.055  1.1838  0.3809  1.0507
 4064SOL     OW15468   1.521   7.116   4.217  0.0485 -0.0208  0.0378
 4064SOL    HW115469   1.588   7.183   4.228  0.6526 -0.4542 -0.9038
 4064SOL    HW215470   1.525   7.066   4.299  0.6698  0.1450  0.1198
 4065SOL     OW15471   5.446   6.223  11.192 -0.0069 -0.4961 -0.4928
 4065SOL    HW115472   5.504   6.282  11.240 -0.5961  0.0102 -0.3954
 4065SOL    HW215473   5.497   6.197  11.115 -0.2712  1.3813 -1.3699
 4066SOL     OW15474  10.765   7.661   9.823  0.1122 -0.0557  0.2758
 4066SOL    HW115475  10.813   7.685   9.744 -1.5887 -0.0510 -0.8071
 4066SOL    HW215476  10.808   7.582   9.855  0.3040 -0.5655 -1.1690
 4067SOL     OW15477   7.308   9.852   7.651 -0.6097 -0.6423  0.0521
 4067SOL    HW115478   7.244   9.811   7.709 -0.8467  0.6490  0.7441
 4067SOL    HW215479   7.389   9.802   7.664 -0.6022 -0.2481  1.6632
 4068SOL     OW15480   6.973   0.955  11.228  0.4706  0.7864  0.2017
 4068SOL    HW115481   6.983   0.958  11.133  0.6291  1.6175  0.2348
 4068SOL    HW215482   7.059   0.983  11.262  0.2948  0.8660  0.5844
 4069SOL     OW15483   2.764   2.682   4.672  0.3512  0.1287 -0.7990
 4069SOL    HW115484   2.747   2.657   4.581  0.0951  1.8596 -1.2731
 4069SOL    HW215485   2.723   2.768   4.681  1.4507  0.5442  0.5920
 4070SOL     OW15486   9.112   6.391   8.468  0.3199  0.1149 -0.4656
 4070SOL    HW115487   9.079   6.481   8.468  0.7550  0.2944  0.6627
 4070SOL    HW215488   9.204   6.399   8.492  0.6798 -0.5463 -1.5694
 4071SOL     OW15489   1.566   9.923   1.434 -0.3119 -0.3173  0.1661
 4071SOL    HW115490   1.478   9.962   1.430 -0.4392 -0.6193 -0.0537
 4071SOL    HW215491   1.561   9.848   1.374  0.4611  0.3907 -0.8185
 4072SOL     OW15492   0.175   7.493   4.358 -0.5965 -0.1789 -0.7061
 4072SOL    HW115493   0.111   7.454   4.417 -1.7109 -1.2848 -2.5365
 4072SOL    HW215494   0.234   7.421   4.334  0.1173  0.3553 -0.5861
 4073SOL     OW15495   8.041  10.491  11.053  0.2821  0.0587  0.0915
 4073SOL    HW115496   8.015  10.423  11.114  0.2668 -0.5188 -0.5475
 4073SOL    HW215497   8.135  10.501  11.067  0.8214 -2.0031 -1.6494
 4074SOL     OW15498   0.388  11.359  11.298 -0.0717  0.0626  0.0709
 4074SOL    HW115499   0.426  11.445  11.316  2.8982 -0.9463 -0.6730
 4074SOL    HW215500   0.403  11.346  11.204 -0.6147 -1.1767  0.1359
 4075SOL     OW15501  10.948   9.675   2.053 -0.1764 -0.2411 -0.1507
 4075SOL    HW115502  10.885   9.610   2.021  1.4163 -0.8873 -2.1635
 4075SOL    HW215503  10.995   9.630   2.124 -0.2608 -0.6582 -0.3577
 4076SOL     OW15504   3.080   1.295   8.392  0.2235  0.0471  0.2982
 4076SOL    HW115505   3.013   1.273   8.458  0.7506 -0.3822  0.7010
 4076SOL    HW215506   3.145   1.347   8.440 -0.2124  1.1612 -0.2811
 4077SOL     OW15507   4.963   1.952   5.867  0.7540  0.2135 -0.2687
 4077SOL    HW115508   4.978   1.859   5.886 -0.8406 -0.0608 -0.1805
 4077SOL    HW215509   4.920   1.985   5.946  1.9688  1.2262 -0.0068
 4078SOL     OW15510   2.209   4.101   5.723  0.0438  0.4222 -0.0986
 4078SOL    HW115511   2.150   4.025   5.719  0.7356 -0.2051 -4.8330
 4078SOL    HW215512   2.153   4.176   5.705 -0.3507  0.9572  2.8836
 4079SOL     OW15513   8.423   9.318  10.071  0.7692 -0.2170 -0.9364
 4079SOL    HW115514   8.487   9.277  10.013 -0.5234 -1.5453 -1.4774
 4079SOL    HW215515   8.377   9.245  10.112  0.4123  0.7131  0.3671
 4080SOL     OW15516   7.549   3.389   3.708 -0.1375  0.3640 -0.5755
 4080SOL    HW115517   7.518   3.306   3.672 -0.5622  0.7846 -1.1910
 4080SOL    HW215518   7.473   3.446   3.707  0.4078  1.1021 -1.1878
 4081SOL     OW15519   7.399   4.870   2.892 -0.0638 -0.0407  0.0711
 4081SOL    HW115520   7.353   4.952   2.906  1.3127  0.9855 -1.1398
 4081SOL    HW215521   7.353   4.829   2.819 -0.4915 -0.1464  0.3987
 4082SOL     OW15522   0.994   7.668   7.125  0.4694 -0.1130  0.2835
 4082SOL    HW115523   0.950   7.671   7.040  0.2370 -2.1860  0.2731
 4082SOL    HW215524   1.041   7.584   7.125  1.5237  0.4257  1.7020
 4083SOL     OW15525   1.378   8.431   1.895  0.2089 -0.0561 -0.0273
 4083SOL    HW115526   1.365   8.443   1.801  0.3801  1.4057  0.1091
 4083SOL    HW215527   1.292   8.408   1.929 -0.3258  1.4410 -0.2785
 4084SOL     OW15528   5.332   5.968   1.908 -0.0331 -0.4925  0.6501
 4084SOL    HW115529   5.258   6.028   1.896  0.4062  0.4517  2.2604
 4084SOL    HW215530   5.385   5.981   1.830 -0.7308  0.0651  0.2455
 4085SOL     OW15531  11.242   4.516  10.801  0.0173  0.1152 -0.3939
 4085SOL    HW115532  11.244   4.472  10.716 -0.4487  0.7498 -0.7453
 4085SOL    HW215533  11.150   4.512  10.828  0.0873  0.2958 -0.1190
 4086SOL     OW15534   4.610   7.937   6.422  0.0033  0.0809 -0.2511
 4086SOL    HW115535   4.652   7.855   6.396 -0.4889 -0.2447 -0.0452
 4086SOL    HW215536   4.644   7.956   6.509 -1.0264 -0.7222  0.3454
 4087SOL     OW15537   5.299   9.414   0.340 -0.3457 -0.2448  0.6778
 4087SOL    HW115538   5.310   9.332   0.292  1.0310  0.6559 -0.6537
 4087SOL    HW215539   5.352   9.403   0.419  0.1872 -0.4810  0.2917
 4088SOL     OW15540  10.706   3.120   1.565 -0.5517  0.2757 -0.0403
 4088SOL    HW115541  10.714   3.036   1.520 -1.2844  0.8568 -1.3208
 4088SOL    HW215542  10.733   3.102   1.655 -0.0846 -1.1774 -0.4441
 4089SOL     OW15543   2.721   4.365   8.035  0.2996  0.3192  0.1213
 4089SOL    HW115544   2.668   4.421   7.978  1.4552 -0.3714 -1.7300
 4089SOL    HW215545   2.657   4.312   8.082 -0.7655  2.2047  0.9244
 4090SOL     OW15546   8.430   8.066  10.195  0.0570 -0.1002  0.3595
 4090SOL    HW115547   8.335   8.053  10.197  0.0512 -0.1932  2.7775
 4090SOL    HW215548   8.451   8.083  10.103 -2.1173 -1.3108 -0.4149
 4091SOL     OW15549   6.627   6.449   8.750  0.0380 -0.3624 -0.6335
 4091SOL    HW115550   6.563   6.467   8.819 -0.6507 -2.3062 -0.7080
 4091SOL    HW215551   6.635   6.532   8.703 -1.8842  0.1361 -0.1752
 4092SOL     OW15552   1.617   0.960   7.705 -0.1336 -0.1740 -1.0781
 4092SOL    HW115553   1.681   0.946   7.775 -1.3829  0.0331  0.1415
 4092SOL    HW215554   1.614   1.055   7.694 -1.3013 -0.0837 -0.0868
 4093SOL     OW15555   6.166  10.469   7.759  0.1769  0.3695  0.4887
 4093SOL    HW115556   6.136  10.558   7.741 -0.6804  0.2097  1.0485
 4093SOL    HW215557   6.096  10.413   7.724  0.3585 -0.0493  0.7963
 4094SOL     OW15558   0.067   3.134   1.416 -0.7015 -0.4019 -0.1922
 4094SOL    HW115559  -0.017   3.097   1.442 -0.5177 -1.4484 -1.0016
 4094SOL    HW215560   0.045   3.202   1.352 -1.0588  1.1744  1.5235
 4095SOL     OW15561   9.804   0.019   8.233 -0.4005  0.5913 -0.7740
 4095SOL    HW115562   9.753  -0.044   8.284 -0.4195  0.0965 -1.3898
 4095SOL    HW215563   9.884  -0.028   8.211 -0.5267  0.6908 -1.4533
 4096SOL     OW15564   6.471   4.115   8.449 -0.2645  0.4418  0.0767
 4096SOL    HW115565   6.562   4.128   8.423 -0.2559 -1.1851 -0.8432
 4096SOL    HW215566   6.473   4.110   8.545  0.5501  0.8248  0.0824
 4097SOL     OW15567   8.925   5.525   4.061  0.4798  0.0199  0.4845
 4097SOL    HW115568   8.917   5.430   4.068  2.5714 -0.2475  0.1029
 4097SOL    HW215569   8.944   5.541   3.968 -2.3900  1.1053  0.0112
 4098SOL     OW15570   0.464   0.239  11.383  0.1566  0.2352  0.0741
 4098SOL    HW115571   0.412   0.314  11.355 -1.0639 -0.8152 -0.5588
 4098SOL    HW215572   0.445   0.231  11.477  0.6453  0.9665  0.2468
 4099SOL     OW15573   9.141   5.528   0.703  0.3369 -0.1214  0.3797
 4099SOL    HW115574   9.054   5.498   0.678  1.0423 -0.2166 -2.2442
 4099SOL    HW215575   9.133   5.549   0.796 -2.5410  0.1645  0.1671
 4100SOL     OW15576   4.571   3.336   1.037  0.2776  0.2058 -0.0087
 4100SOL    HW115577   4.485   3.329   0.996 -0.8012  0.2548  2.1267
 4100SOL    HW215578   4.589   3.430   1.036 -1.6356  0.7374  3.1214
 4101SOL     OW15579   7.029  11.291   0.777  0.5381 -0.2940 -0.0829
 4101SOL    HW115580   6.940  11.273   0.807 -0.8946  1.4851 -2.8599
 4101SOL    HW215581   7.049  11.378   0.812  1.4693 -0.8990  0.9713
 4102SOL     OW15582  11.153  10.802   2.655  0.0793 -0.7782 -0.1254
 4102SOL    HW115583  11.069  10.849   2.655  0.0677 -0.7981 -0.0214
 4102SOL    HW215584  11.176  10.795   2.748  1.0842  0.8414 -0.2060
 4103SOL     OW15585   5.643   9.506   3.766  0.3404  0.1062 -0.6367
 4103SOL    HW115586   5.561   9.523   3.721  0.4846  0.6424 -0.6996
 4103SOL    HW215587   5.641   9.565   3.842 -0.8272 -2.1588  1.2502
 4104SOL     OW15588   8.042   1.536   6.394 -0.6621  0.2753  0.5046
 4104SOL    HW115589   8.011   1.446   6.391 -0.3251  0.0913  1.7322
 4104SOL    HW215590   8.044   1.565   6.303 -0.0662 -1.2094  0.0185
 4105SOL     OW15591   7.096   8.656   5.762  0.1654  0.4985 -0.4016
 4105SOL    HW115592   7.170   8.596   5.760  0.4424  0.7680  1.0040
 4105SOL    HW215593   7.088   8.682   5.854 -1.2729  0.9716 -0.6312
 4106SOL     OW15594   4.037   5.568   0.199 -0.1579 -0.5095 -0.4283
 4106SOL    HW115595   4.119   5.535   0.160  0.2409 -0.2306  0.1725
 4106SOL    HW215596   4.063   5.646   0.247 -0.8449 -0.2141 -0.5288
 4107SOL     OW15597   1.167   4.137   7.396 -0.0975 -0.0921  0.0236
 4107SOL    HW115598   1.189   4.227   7.371 -0.6537  0.8674  2.6964
 4107SOL    HW215599   1.193   4.084   7.320 -0.1626  2.3397 -1.8199
 4108SOL     OW15600   0.978  10.524  10.561 -0.9566 -0.0493 -0.2199
 4108SOL    HW115601   0.975  10.609  10.517 -1.0742  0.4332  0.6994
 4108SOL    HW215602   1.071  10.509  10.578 -0.9426 -0.0686 -0.3121
 4109SOL     OW15603   5.840   1.589   1.456 -0.2881  0.7954 -0.5305
 4109SOL    HW115604   5.918   1.635   1.488 -0.8349  0.2918  1.6915
 4109SOL    HW215605   5.875   1.513   1.410  0.6130 -0.0082  1.3426
 4110SOL     OW15606   1.253   2.766   3.415  0.2661 -0.0728 -0.3031
 4110SOL    HW115607   1.289   2.678   3.400  1.0729  0.3141 -0.7373
 4110SOL    HW215608   1.230   2.767   3.508 -0.5558 -1.0251 -0.4864
 4111SOL     OW15609   5.991   7.473   3.780 -0.5228 -0.4153  0.3042
 4111SOL    HW115610   6.055   7.528   3.736 -0.2009 -0.1138  1.1279
 4111SOL    HW215611   5.923   7.458   3.715 -0.4123  0.6159 -0.0611
 4112SOL     OW15612   3.549   2.597   5.008  0.1336 -0.7437 -0.5554
 4112SOL    HW115613   3.593   2.599   5.092  0.0451 -3.2104 -0.3799
 4112SOL    HW215614   3.487   2.671   5.011 -0.4151 -1.2204  1.8458
 4113SOL     OW15615   3.839   4.616   7.987  0.1713  0.5024 -0.2176
 4113SOL    HW115616   3.828   4.537   8.040  1.2239  1.6978  1.9342
 4113SOL    HW215617   3.751   4.637   7.956 -0.2263 -1.1037 -0.2593
 4114SOL     OW15618   3.100   1.584   5.783 -0.1201 -0.3093 -0.5595
 4114SOL    HW115619   3.146   1.539   5.712 -0.2618 -1.8730  0.2905
 4114SOL    HW215620   3.014   1.604   5.747  0.0717 -0.3915 -1.0745
 4115SOL     OW15621   5.624   8.974   1.399  0.6994  0.3107  0.1531
 4115SOL    HW115622   5.589   9.058   1.431 -1.9342 -1.0593  1.1604
 4115SOL    HW215623   5.638   8.988   1.306  1.2234  2.1184  0.4528
 4116SOL     OW15624   9.767   6.641   7.688 -0.3595  0.3229  0.6983
 4116SOL    HW115625   9.823   6.704   7.641  1.6157 -2.7086 -1.4088
 4116SOL    HW215626   9.685   6.641   7.638  0.1067  0.2948 -0.0893
 4117SOL     OW15627   1.714   8.751   7.155  0.0547  0.1752  0.0109
 4117SOL    HW115628   1.756   8.749   7.068  2.8078  1.1609  1.1874
 4117SOL    HW215629   1.762   8.685   7.206  0.3888  1.5120  1.5032
 4118SOL     OW15630   8.308   9.548  11.105 -0.4288 -0.6841  0.1746
 4118SOL    HW115631   8.242   9.529  11.039 -0.2565  0.3863 -0.3114
 4118SOL    HW215632   8.369   9.608  11.063  0.8009 -1.5406  0.6545
 4119SOL     OW15633   3.376   2.216   0.491 -0.3543  0.3899  0.1957
 4119SOL    HW115634   3.442   2.282   0.469 -0.6544  0.1742 -1.5052
 4119SOL    HW215635   3.392   2.144   0.429 -2.6429  0.6596 -0.7981
 4120SOL     OW15636   9.718   1.084  10.454 -0.3278  0.1703 -0.4648
 4120SOL    HW115637   9.787   1.133  10.409  0.6977 -1.3166 -0.5775
 4120SOL    HW215638   9.763   1.041  10.527 -0.7454 -2.1335 -1.4964
 4121SOL     OW15639   4.539   5.738  10.344  0.5545  0.0005 -0.2936
 4121SOL    HW115640   4.477   5.666  10.354  0.1879  0.6413  3.2139
 4121SOL    HW215641   4.616   5.711  10.393  1.1470  1.2455 -0.4903
 4122SOL     OW15642   2.685   9.441   3.701 -0.0432  0.0985  0.4418
 4122SOL    HW115643   2.667   9.416   3.791  0.1722  0.1717  0.5038
 4122SOL    HW215644   2.706   9.359   3.657 -0.0145  0.0819  0.4870
 4123SOL     OW15645   2.826   0.972   1.820 -0.3531  0.1903  0.1063
 4123SOL    HW115646   2.916   0.978   1.788  0.0449  1.8498  1.3791
 4123SOL    HW215647   2.833   0.994   1.913 -2.0652  0.2536  0.2456
 4124SOL     OW15648   8.373   5.350   6.975  0.3407  0.0678  0.5288
 4124SOL    HW115649   8.340   5.263   6.996  1.3588 -0.6272 -0.6266
 4124SOL    HW215650   8.294   5.400   6.951 -0.0392 -1.3411 -1.4342
 4125SOL     OW15651   8.936   3.198   1.184  0.3314 -0.2212  0.0864
 4125SOL    HW115652   9.014   3.253   1.190  0.0964  0.0509  0.7624
 4125SOL    HW215653   8.884   3.238   1.114 -0.0283  0.6764  0.8508
 4126SOL     OW15654   7.780   3.055   5.156  0.2060 -0.6969 -0.3518
 4126SOL    HW115655   7.815   3.033   5.243  1.8791 -0.5899 -0.9690
 4126SOL    HW215656   7.816   3.141   5.137 -0.6876 -0.4331 -0.8990
 4127SOL     OW15657  11.274   3.830   5.301 -0.5250 -0.1689 -0.3761
 4127SOL    HW115658  11.296   3.746   5.259 -1.5816 -0.5943 -0.1017
 4127SOL    HW215659  11.357   3.859   5.339 -0.1892 -1.2001 -0.2784
 4128SOL     OW15660   1.304   5.187   5.863 -0.2982  0.0873 -0.2560
 4128SOL    HW115661   1.345   5.132   5.797  0.3307  0.0999  0.1192
 4128SOL    HW215662   1.351   5.270   5.859  1.6084 -0.7480  1.9995
 4129SOL     OW15663   3.811   7.061   9.009 -0.3837 -0.3273 -0.0543
 4129SOL    HW115664   3.771   7.146   8.992 -1.5922 -0.5983  1.2757
 4129SOL    HW215665   3.778   7.035   9.094  0.5212 -1.8283 -0.1211
 4130SOL     OW15666   5.428   2.205   3.967  0.5889  0.2980 -0.0208
 4130SOL    HW115667   5.356   2.155   3.929  0.0143  2.2252 -1.6157
 4130SOL    HW215668   5.474   2.142   4.022 -1.8609 -1.1751  0.4819
 4131SOL     OW15669   7.104   9.111   1.570  0.0402 -0.5572  0.5184
 4131SOL    HW115670   7.177   9.098   1.630 -0.2177 -0.1338  0.9330
 4131SOL    HW215671   7.079   9.203   1.582  0.3475 -0.3087 -0.6572
 4132SOL     OW15672   2.718  10.313   3.364 -0.2129 -0.1837 -0.4464
 4132SOL    HW115673   2.729  10.227   3.324 -0.7421 -0.0732 -0.8383
 4132SOL    HW215674   2.681  10.367   3.294 -0.2523  0.2578 -0.0856
 4133SOL     OW15675  11.396  10.991   6.059  0.2384 -0.0258 -0.3160
 4133SOL    HW115676  11.391  11.071   6.112 -0.7489 -0.7516  0.7002
 4133SOL    HW215677  11.468  10.941   6.098 -0.0035 -0.2246 -0.1232
 4134SOL     OW15678   3.740   5.434   3.855 -0.1951 -0.2624  0.0078
 4134SOL    HW115679   3.818   5.473   3.816 -1.1494 -0.5225 -2.3263
 4134SOL    HW215680   3.771   5.351   3.892  1.3091  1.3113  2.5839
 4135SOL     OW15681   1.842   0.023   0.391 -0.2952  0.0879 -0.7206
 4135SOL    HW115682   1.875   0.090   0.450 -0.2432 -0.4361 -0.1404
 4135SOL    HW215683   1.918  -0.034   0.376 -0.5454 -0.2827 -0.5781
 4136SOL     OW15684   5.349   8.597   4.201  0.0450 -0.0491  0.5898
 4136SOL    HW115685   5.386   8.541   4.132 -0.1747 -0.1013  0.5151
 4136SOL    HW215686   5.255   8.580   4.198 -0.1120  0.8484  0.1017
 4137SOL     OW15687   7.816   0.485  10.998 -0.6498  0.4023 -0.2203
 4137SOL    HW115688   7.794   0.539  11.073 -1.3995 -1.0396  0.6517
 4137SOL    HW215689   7.735   0.439  10.977  0.3548 -1.6832  0.2063
 4138SOL     OW15690   5.360   3.246   9.182 -0.3188  0.3995 -0.4322
 4138SOL    HW115691   5.281   3.299   9.197  0.1336  1.0327 -0.2209
 4138SOL    HW215692   5.381   3.261   9.090 -1.4438 -1.1860 -0.9879
 4139SOL     OW15693   8.273   2.965   6.126  0.4118 -0.2472  0.4372
 4139SOL    HW115694   8.352   3.008   6.094 -0.0718  0.9006  0.7508
 4139SOL    HW215695   8.305   2.890   6.177  1.3416  0.8105  1.4378
 4140SOL     OW15696   0.269   9.471   0.231 -0.2714 -0.0321 -0.2049
 4140SOL    HW115697   0.269   9.565   0.212  0.1135  0.2175  0.9458
 4140SOL    HW215698   0.320   9.433   0.160  2.2519  1.0176  0.9043
 4141SOL     OW15699   1.994   7.403   4.489 -0.0277 -0.6854 -0.5015
 4141SOL    HW115700   1.976   7.494   4.465  0.9264  0.0513  1.3814
 4141SOL    HW215701   1.909   7.369   4.516 -0.0932  0.2447  0.5509
 4142SOL     OW15702   0.597   4.739   0.141  0.1013  0.1745 -0.3049
 4142SOL    HW115703   0.636   4.762   0.226  0.6290  1.1072 -0.7834
 4142SOL    HW215704   0.575   4.824   0.102 -1.4260 -0.2946 -0.5103
 4143SOL     OW15705   5.757   8.147   6.139 -0.3141  0.1497  0.3392
 4143SOL    HW115706   5.702   8.184   6.208 -1.7794  2.9861 -2.1322
 4143SOL    HW215707   5.838   8.198   6.144 -0.0320 -0.3169  0.5653
 4144SOL     OW15708   5.401   8.288   8.662 -0.0703  0.3868 -0.2822
 4144SOL    HW115709   5.479   8.293   8.718 -0.0140  0.1626 -0.3395
 4144SOL    HW215710   5.379   8.195   8.660 -0.1704  0.4145 -0.4981
 4145SOL     OW15711  10.425   9.285   6.232  0.7071  0.3277 -0.1844
 4145SOL    HW115712  10.446   9.208   6.178  1.0819  1.4941 -1.7847
 4145SOL    HW215713  10.344   9.261   6.276  1.7119 -1.6373  0.7344
 4146SOL     OW15714  10.099   9.002   2.900  0.0601 -0.2600  0.1724
 4146SOL    HW115715  10.039   8.967   2.966  0.7528 -0.2513  0.8244
 4146SOL    HW215716  10.052   9.076   2.861 -1.1420 -1.4485 -0.7383
 4147SOL     OW15717   1.141   0.334   6.796  0.2888 -0.2273 -0.5064
 4147SOL    HW115718   1.097   0.400   6.849 -1.7274 -2.2891  0.5699
 4147SOL    HW215719   1.111   0.353   6.706 -0.2357  0.3379 -0.2234
 4148SOL     OW15720   3.715   5.667   9.994 -0.3501  0.4484  0.2694
 4148SOL    HW115721   3.749   5.756   9.984  0.2978 -0.0254 -2.2684
 4148SOL    HW215722   3.655   5.673  10.069  0.0371  2.8966  0.4589
 4149SOL     OW15723   1.240   6.823   0.265 -0.0269  0.8659  0.2032
 4149SOL    HW115724   1.259   6.889   0.198 -0.5960 -1.1337 -2.0794
 4149SOL    HW215725   1.177   6.764   0.223  1.1861 -1.6842  1.7112
 4150SOL     OW15726   4.701   6.785   3.927 -0.7134 -0.1202  0.0325
 4150SOL    HW115727   4.783   6.773   3.975 -0.6368  1.4676  0.3643
 4150SOL    HW215728   4.676   6.697   3.900  0.5333 -0.7637  0.8598
 4151SOL     OW15729   5.712   9.597   8.787  0.2738  0.5068  0.0854
 4151SOL    HW115730   5.647   9.598   8.858 -0.2389  0.4117 -0.3727
 4151SOL    HW215731   5.691   9.673   8.733 -1.2110 -0.9683 -1.5813
 4152SOL     OW15732   2.703   6.075   9.644 -0.0686  0.1471 -0.0369
 4152SOL    HW115733   2.698   6.159   9.690 -2.2655  0.8751 -1.4479
 4152SOL    HW215734   2.764   6.090   9.572  0.3588  0.1994  0.3338
 4153SOL     OW15735   9.539   9.508   8.893  0.0403 -0.0773  0.3530
 4153SOL    HW115736   9.500   9.439   8.840 -0.1048 -0.9096  1.5152
 4153SOL    HW215737   9.610   9.465   8.940  1.1572  0.9851 -0.2780
 4154SOL     OW15738   4.294   9.710   2.135  0.0858  0.0649  0.2490
 4154SOL    HW115739   4.256   9.762   2.065  1.0467  0.4503 -0.0033
 4154SOL    HW215740   4.221   9.693   2.194 -0.6814 -0.0304 -0.6941
 4155SOL     OW15741   9.746   7.888   7.966 -0.2251  0.3757  0.1508
 4155SOL    HW115742   9.833   7.873   8.001 -0.5400  0.1813  0.8712
 4155SOL    HW215743   9.704   7.946   8.029 -0.6892  0.2898 -0.0702
 4156SOL     OW15744   8.371   3.139   4.174 -0.4834  0.0104 -0.0205
 4156SOL    HW115745   8.318   3.129   4.252 -0.3718 -1.4876 -0.1029
 4156SOL    HW215746   8.454   3.097   4.196  0.6502  2.1721  0.0515
 4157SOL     OW15747  10.058  10.395  10.966  0.3433  0.3315  0.7334
 4157SOL    HW115748   9.963  10.406  10.974  0.3501  0.9295  0.0943
 4157SOL    HW215749  10.095  10.476  10.999  0.4974  1.2842 -1.5498
 4158SOL     OW15750   0.023   6.119   3.772 -0.6325  0.5645  0.2392
 4158SOL    HW115751   0.085   6.103   3.844 -0.8169 -0.3320  0.2077
 4158SOL    HW215752   0.009   6.033   3.733 -0.5026  1.0529 -0.9080
 4159SOL     OW15753  11.134  10.347   6.647 -0.0214  0.0818  0.1381
 4159SOL    HW115754  11.073  10.305   6.708 -0.8272  2.5734  1.1789
 4159SOL    HW215755  11.209  10.287   6.643 -1.1560 -1.5083  1.3646
 4160SOL     OW15756   7.643   4.109   7.867  0.3296 -0.8353 -0.6967
 4160SOL    HW115757   7.594   4.043   7.819 -0.2196 -2.0019  1.3305
 4160SOL    HW215758   7.734   4.082   7.860  0.2222 -1.1673 -0.8010
 4161SOL     OW15759   4.259   7.508   2.385 -1.2167  0.1954  0.0448
 4161SOL    HW115760   4.285   7.567   2.456 -1.6833  1.8697 -1.1012
 4161SOL    HW215761   4.300   7.425   2.407 -0.7390  0.8618  1.8800
 4162SOL     OW15762   3.582   7.044  10.906 -0.6335  0.2115 -0.3158
 4162SOL    HW115763   3.518   7.017  10.972  0.2766  0.0378  0.5241
 4162SOL    HW215764   3.564   7.137  10.892 -3.1400 -0.4688 -2.4841
 4163SOL     OW15765   4.206   1.385   5.884 -0.5523  0.1481 -0.3442
 4163SOL    HW115766   4.214   1.354   5.794 -0.3867  0.8015 -0.5636
 4163SOL    HW215767   4.112   1.385   5.901 -0.6869  1.2217 -0.9664
 4164SOL     OW15768   6.313   2.505   7.118  0.3621 -0.2811 -0.2075
 4164SOL    HW115769   6.305   2.591   7.159  1.1174 -1.0762  1.6932
 4164SOL    HW215770   6.222   2.477   7.104  0.0260 -0.4063  1.9127
 4165SOL     OW15771   8.286   0.510   5.101 -0.0484 -0.3436 -0.5885
 4165SOL    HW115772   8.223   0.578   5.125  0.5543  0.9634 -2.4434
 4165SOL    HW215773   8.270   0.495   5.008  0.3544 -2.2085 -0.3855
 4166SOL     OW15774   7.338   2.995   7.176  0.2512 -0.5789  0.1313
 4166SOL    HW115775   7.417   2.964   7.220  0.5299 -2.0647 -1.3363
 4166SOL    HW215776   7.305   3.065   7.233  2.3688 -0.2107  0.9846
 4167SOL     OW15777   6.945  10.762   3.805 -0.4082 -0.3197  0.1867
 4167SOL    HW115778   7.027  10.718   3.824  0.2246  0.7969  0.1284
 4167SOL    HW215779   6.889  10.743   3.880  0.6028  0.5503  1.1996
 4168SOL     OW15780   0.558   8.045   9.206  0.0286 -0.2080  0.0333
 4168SOL    HW115781   0.512   8.102   9.144  0.4168  1.5795  1.3146
 4168SOL    HW215782   0.488   8.004   9.256 -0.2525  0.3807  0.1397
 4169SOL     OW15783   2.727   2.330   7.666  0.3027 -0.3038 -0.5344
 4169SOL    HW115784   2.706   2.266   7.597 -0.1205 -0.2150 -0.4914
 4169SOL    HW215785   2.642   2.364   7.693  0.1162 -2.7393  2.3765
 4170SOL     OW15786   3.340   6.891   9.971  0.1958 -0.0907  0.0428
 4170SOL    HW115787   3.265   6.868  10.026 -1.0778  0.5383 -1.3629
 4170SOL    HW215788   3.390   6.809   9.963 -1.1889 -0.9360 -0.2568
 4171SOL     OW15789   3.465   7.059   8.829  0.2549 -0.2706  0.2909
 4171SOL    HW115790   3.420   7.108   8.761  0.5058  1.2548  1.1855
 4171SOL    HW215791   3.556   7.088   8.824  0.0470  0.8455  2.0658
 4172SOL     OW15792   3.147   8.964   3.501 -0.3614 -0.0276  0.4353
 4172SOL    HW115793   3.104   8.916   3.573 -0.5633 -0.2360  0.1771
 4172SOL    HW215794   3.153   8.900   3.430 -1.2345  0.5239 -0.1484
 4173SOL     OW15795   1.350   0.348   0.662  0.2471 -0.3366  0.1619
 4173SOL    HW115796   1.262   0.374   0.634  0.6604  2.5210  1.1607
 4173SOL    HW215797   1.390   0.310   0.584 -1.8429 -1.7538 -0.2996
 4174SOL     OW15798  10.680   4.320  10.196 -0.5503 -0.0843 -0.2866
 4174SOL    HW115799  10.606   4.261  10.211 -0.7002  0.4183  1.0649
 4174SOL    HW215800  10.639   4.404  10.177 -0.3282 -0.2829 -1.7826
 4175SOL     OW15801   1.370   3.587   8.483 -0.2731 -0.5216  0.0941
 4175SOL    HW115802   1.379   3.674   8.444 -2.9742  0.4907  1.4942
 4175SOL    HW215803   1.427   3.590   8.560 -1.2409  0.4843  0.8001
 4176SOL     OW15804   6.851   0.795   4.560 -0.5238 -0.4379  0.0564
 4176SOL    HW115805   6.896   0.759   4.637 -1.2610 -0.1895  0.6159
 4176SOL    HW215806   6.772   0.835   4.596 -1.0381 -0.6020 -0.8753
 4177SOL     OW15807   3.674   2.683   4.601 -0.2815  0.3586 -0.0135
 4177SOL    HW115808   3.717   2.603   4.572 -2.0536 -0.3332 -0.9225
 4177SOL    HW215809   3.598   2.692   4.543 -0.8173  2.0220  0.8689
 4178SOL     OW15810   3.021  10.587   8.374 -0.0856 -0.2190 -0.0885
 4178SOL    HW115811   3.038  10.532   8.450 -1.7457 -0.1251  0.3875
 4178SOL    HW215812   2.968  10.532   8.316  0.4586 -0.0023 -0.8089
 4179SOL     OW15813   1.553   0.004   1.292  0.1973 -0.1198  0.3797
 4179SOL    HW115814   1.564  -0.086   1.324  0.1687  0.1844  1.2691
 4179SOL    HW215815   1.460   0.024   1.308  0.6735  0.8365  2.3097
 4180SOL     OW15816   5.683   3.717  11.226 -0.2044  0.2462  0.6370
 4180SOL    HW115817   5.726   3.780  11.168 -1.2779  0.5663  0.1711
 4180SOL    HW215818   5.664   3.767  11.306  0.0117  0.1810  0.7313
 4181SOL     OW15819   6.584   8.049   8.188  0.0438 -0.3390  0.0495
 4181SOL    HW115820   6.533   7.968   8.189  0.8617 -0.8533  1.3232
 4181SOL    HW215821   6.633   8.045   8.106 -0.5981 -0.6873 -0.3271
 4182SOL     OW15822   2.900   2.889   5.730  0.2286  0.4270 -0.5369
 4182SOL    HW115823   2.907   2.925   5.642  0.2284 -1.0206 -1.1465
 4182SOL    HW215824   2.985   2.849   5.747 -0.1098 -0.2059 -0.2950
 4183SOL     OW15825   9.408   2.619   8.092 -0.2582 -0.6104  0.1906
 4183SOL    HW115826   9.393   2.709   8.121 -0.7089 -0.6080 -0.0490
 4183SOL    HW215827   9.496   2.621   8.054 -0.6705 -0.0254 -0.7594
 4184SOL     OW15828   8.503  10.422   3.472  0.9604 -0.1958  0.2082
 4184SOL    HW115829   8.429  10.471   3.436 -0.0414 -1.3280  0.6686
 4184SOL    HW215830   8.514  10.348   3.413 -1.0782 -2.4112  2.3704
 4185SOL     OW15831   4.912   4.885   1.523  0.3571 -0.0896 -0.1410
 4185SOL    HW115832   4.916   4.902   1.429  1.3193 -0.5934 -0.1973
 4185SOL    HW215833   4.877   4.796   1.530 -5.2254  1.7210  0.1669
 4186SOL     OW15834  10.345   2.831   5.852  0.0760 -0.4167  0.1385
 4186SOL    HW115835  10.424   2.882   5.834  0.3530 -0.0444  2.1741
 4186SOL    HW215836  10.369   2.740   5.833  0.3348 -0.0856 -1.1814
 4187SOL     OW15837   6.100   7.691   5.085 -0.2077 -0.0347  0.3445
 4187SOL    HW115838   6.089   7.773   5.133 -0.8333  0.0088  0.1381
 4187SOL    HW215839   6.183   7.656   5.116  0.2470  0.8561  0.1661
 4188SOL     OW15840   9.576   8.451   9.527 -0.7208 -0.0618  0.1890
 4188SOL    HW115841   9.620   8.533   9.509 -0.1261 -0.8421 -2.1999
 4188SOL    HW215842   9.503   8.448   9.466  0.5805 -2.2607 -1.4009
 4189SOL     OW15843  10.427   7.534   6.792 -0.5107  0.4685  0.7528
 4189SOL    HW115844  10.508   7.554   6.744  0.3750  0.8783  2.3304
 4189SOL    HW215845  10.392   7.456   6.749  1.1025 -0.1251  0.4515
 4190SOL     OW15846   2.805  10.123   4.006  0.0677  0.5442 -0.2161
 4190SOL    HW115847   2.832  10.033   4.025 -0.1971  0.4863 -0.1111
 4190SOL    HW215848   2.852  10.146   3.926  1.2647  0.8180  0.5394
 4191SOL     OW15849   5.318  11.233   2.490  0.2470  0.7261  0.1858
 4191SOL    HW115850   5.247  11.260   2.547  0.5595  1.1124  0.3936
 4191SOL    HW215851   5.338  11.143   2.517 -0.2127  0.5855  0.0703
 4192SOL     OW15852   1.363   0.820   9.472 -0.4686  0.0143 -0.4550
 4192SOL    HW115853   1.432   0.755   9.468 -0.9679 -0.5010 -0.8201
 4192SOL    HW215854   1.355   0.842   9.565 -0.8177 -1.0162 -0.2345
 4193SOL     OW15855   5.083   9.969   7.552 -0.7706 -0.3313 -0.8804
 4193SOL    HW115856   5.112   9.968   7.460  0.8061  0.9624 -0.4546
 4193SOL    HW215857   5.096  10.060   7.580  2.1371 -1.3282  1.5782
 4194SOL     OW15858   5.093   3.119   6.029  0.3732  0.6536 -0.6291
 4194SOL    HW115859   5.136   3.186   6.083  0.3375 -0.2192  0.5115
 4194SOL    HW215860   5.005   3.153   6.016  0.1251  0.5129  0.5612
 4195SOL     OW15861   4.601  10.504   5.613  0.1150 -0.3597  0.4987
 4195SOL    HW115862   4.629  10.457   5.692  1.9030  0.4903  0.4118
 4195SOL    HW215863   4.539  10.569   5.645  1.2019  0.3146  1.3167
 4196SOL     OW15864   4.334   1.582   2.171 -0.3931  0.0297 -0.1623
 4196SOL    HW115865   4.288   1.624   2.098 -0.1602  2.3776  0.9493
 4196SOL    HW215866   4.264   1.545   2.225 -0.7723  0.7470 -0.1478
 4197SOL     OW15867  11.071   1.932   3.953  0.8258 -0.2290 -0.0455
 4197SOL    HW115868  11.058   1.943   3.859  1.4218 -0.5033 -0.1674
 4197SOL    HW215869  11.104   2.017   3.983 -1.0276  0.4290  0.2451
 4198SOL     OW15870   2.810  10.000  11.248 -0.3625 -0.3004 -0.1573
 4198SOL    HW115871   2.749  10.011  11.175 -1.8621 -0.3031  1.0473
 4198SOL    HW215872   2.791   9.913  11.282  1.4692 -0.9851 -0.7299
 4199SOL     OW15873   4.532   7.711  10.260  0.5410 -0.5032  0.1004
 4199SOL    HW115874   4.554   7.625  10.224  0.6954 -0.5963  0.4124
 4199SOL    HW215875   4.485   7.692  10.341  2.2447 -0.3107  1.1824
 4200SOL     OW15876   2.368  10.385   9.168  0.1270 -0.5495  0.0638
 4200SOL    HW115877   2.366  10.469   9.213 -0.4396 -1.3920  1.6947
 4200SOL    HW215878   2.431  10.332   9.217  0.1382 -1.2244 -0.6502
 4201SOL     OW15879   3.069   4.251   6.744  0.5441 -0.1044  0.3444
 4201SOL    HW115880   3.124   4.292   6.677  0.8050  0.3110  0.8050
 4201SOL    HW215881   3.091   4.158   6.740  1.7163  0.1255  0.9043
 4202SOL     OW15882   5.544   7.641   5.938 -0.4823 -0.2005  0.6221
 4202SOL    HW115883   5.544   7.681   6.024  0.4213 -0.8459  0.9467
 4202SOL    HW215884   5.636   7.643   5.911 -0.5597 -1.1968  0.2475
 4203SOL     OW15885   7.744   6.123   5.491  0.4386  0.3447  0.1460
 4203SOL    HW115886   7.725   6.048   5.548 -1.8408  0.7614  0.0397
 4203SOL    HW215887   7.744   6.086   5.402  0.3466  0.2959  0.1660
 4204SOL     OW15888   1.875   9.990   6.452 -0.1274  0.1719 -0.4876
 4204SOL    HW115889   1.945   9.949   6.401  0.2883  0.1071  0.1174
 4204SOL    HW215890   1.844  10.062   6.397 -0.7406 -0.8188 -1.4824
 4205SOL     OW15891   1.446   2.125   6.054  0.1333 -0.5937  0.2138
 4205SOL    HW115892   1.464   2.146   6.145 -0.9146 -1.0383  0.5330
 4205SOL    HW215893   1.505   2.181   6.004  0.0703  0.3038  1.1339
 4206SOL     OW15894   2.323   3.796   4.187  0.3723  0.4300 -0.4154
 4206SOL    HW115895   2.236   3.807   4.224  0.4188 -1.6206  0.4568
 4206SOL    HW215896   2.383   3.829   4.254  0.3401 -0.5945  0.1382
 4207SOL     OW15897   1.161   5.641   6.178 -0.4642  0.3873  0.1739
 4207SOL    HW115898   1.213   5.619   6.255  1.7682 -0.5015 -1.5043
 4207SOL    HW215899   1.206   5.600   6.105 -1.1827  3.0887 -1.9615
 4208SOL     OW15900  10.289   7.265   9.604 -0.2422 -0.3094 -0.3369
 4208SOL    HW115901  10.250   7.316   9.676 -1.6154 -1.1989 -0.4348
 4208SOL    HW215902  10.380   7.253   9.632 -0.0556  1.5387  0.0387
 4209SOL     OW15903   8.426   4.782   4.664 -0.5656  0.2684  0.3727
 4209SOL    HW115904   8.522   4.784   4.659 -0.4969 -0.9788  0.8459
 4209SOL    HW215905   8.402   4.698   4.624 -1.2954 -0.4646  2.2261
 4210SOL     OW15906   1.373   9.466   8.622 -0.2316 -0.0197  0.2375
 4210SOL    HW115907   1.458   9.427   8.603 -0.7067 -0.4380 -1.1501
 4210SOL    HW215908   1.383   9.558   8.598  0.0151  0.0782  0.7042
 4211SOL     OW15909   2.533   4.208   1.876  0.0299  0.1535  0.2863
 4211SOL    HW115910   2.583   4.288   1.891 -2.1918  1.5794  0.7113
 4211SOL    HW215911   2.581   4.161   1.809  2.9888  0.3549  2.0917
 4212SOL     OW15912   8.288   0.368  10.806 -0.6061  0.3781 -0.3561
 4212SOL    HW115913   8.260   0.403  10.891  1.5077  3.3114 -0.7367
 4212SOL    HW215914   8.383   0.366  10.810 -0.4829 -2.9505 -1.4513
 4213SOL     OW15915   4.201   3.109   8.276 -0.0682 -0.0085  0.3341
 4213SOL    HW115916   4.133   3.173   8.296 -0.5924  0.1560 -1.7635
 4213SOL    HW215917   4.154   3.027   8.260  0.4068 -0.3683  0.7308
 4214SOL     OW15918   0.394   9.323  10.178 -0.1706 -0.2387  0.0984
 4214SOL    HW115919   0.397   9.242  10.228 -0.8914  0.1518  0.7998
 4214SOL    HW215920   0.313   9.366  10.207 -0.4585  0.1397 -1.1939
 4215SOL     OW15921   8.310   9.862   1.645 -0.1369 -0.4609  0.3262
 4215SOL    HW115922   8.357   9.780   1.658 -0.6766 -0.9644 -0.7956
 4215SOL    HW215923   8.359   9.908   1.578 -0.4750 -0.3759  0.1328
 4216SOL     OW15924   8.458   0.419   9.884 -0.2686 -0.4348 -0.2881
 4216SOL    HW115925   8.451   0.339   9.832 -0.4821  0.6018 -1.9496
 4216SOL    HW215926   8.449   0.490   9.820  1.5099  0.9431  0.8764
 4217SOL     OW15927   6.603   9.386   2.657  0.0677 -0.2415  0.2519
 4217SOL    HW115928   6.695   9.364   2.670  0.3587 -0.0077 -1.2008
 4217SOL    HW215929   6.560   9.302   2.640  0.0259 -0.3411  0.8438
 4218SOL     OW15930   4.132  10.909   5.411 -0.3877  0.3050 -0.6045
 4218SOL    HW115931   4.135  10.898   5.316 -1.8793 -0.9782 -0.5362
 4218SOL    HW215932   4.174  10.830   5.445 -0.7999  0.2621 -0.1902
 4219SOL     OW15933   2.388   3.929   5.975 -0.1093 -0.0316  0.0493
 4219SOL    HW115934   2.387   3.937   5.880  0.3635 -1.1263 -0.0603
 4219SOL    HW215935   2.418   3.840   5.991 -2.0289 -0.5249  1.1868
 4220SOL     OW15936   7.444   9.155   0.508 -0.6175 -0.2861 -0.5505
 4220SOL    HW115937   7.457   9.121   0.597  1.5743 -0.2694 -0.8151
 4220SOL    HW215938   7.410   9.243   0.522  1.7095  0.5422  0.3999
 4221SOL     OW15939   1.310   4.187  10.749 -0.1950 -0.5894 -0.4943
 4221SOL    HW115940   1.335   4.278  10.767 -2.0666 -0.0741 -0.3547
 4221SOL    HW215941   1.372   4.136  10.801  0.7943  0.6001 -0.4470
 4222SOL     OW15942   8.128   0.787   8.233  0.0861 -0.2594  0.3577
 4222SOL    HW115943   8.088   0.700   8.235 -2.1095  0.6832  0.5633
 4222SOL    HW215944   8.074   0.836   8.170 -0.9580  1.9020  2.7542
 4223SOL     OW15945  11.373   4.157  10.793 -0.2580 -0.1580  0.8779
 4223SOL    HW115946  11.464   4.151  10.764 -0.2824 -0.0287  0.7758
 4223SOL    HW215947  11.321   4.146  10.714 -0.3169  0.7651  0.7745
 4224SOL     OW15948   2.017   9.951   7.903 -0.4526 -0.1598  0.0558
 4224SOL    HW115949   2.020  10.025   7.963 -1.6958  1.5652 -1.9082
 4224SOL    HW215950   1.966   9.885   7.949 -1.3239  1.0916  0.9325
 4225SOL     OW15951   2.335   8.580   5.058 -0.1908  0.0694 -0.0751
 4225SOL    HW115952   2.402   8.562   4.992  0.2073 -0.4259  0.4522
 4225SOL    HW215953   2.299   8.494   5.080 -0.2431  0.2171  0.4310
 4226SOL     OW15954  10.146  10.887   4.398 -0.5960  0.0710 -0.0330
 4226SOL    HW115955  10.131  10.837   4.317 -0.1937 -0.7524  0.3850
 4226SOL    HW215956  10.058  10.896   4.436 -0.5961 -1.0447  0.2839
 4227SOL     OW15957   0.362   0.981   0.474 -0.1446  0.0968 -0.1242
 4227SOL    HW115958   0.295   1.047   0.452  0.8016  1.4657  0.9045
 4227SOL    HW215959   0.388   1.003   0.564  1.5533 -0.4957 -0.4353
 4228SOL     OW15960   2.325   7.496   9.674 -0.4042  0.2774  0.1662
 4228SOL    HW115961   2.322   7.530   9.584 -4.3583  0.0091  0.0582
 4228SOL    HW215962   2.348   7.404   9.663 -0.4099  0.3481 -0.5083
 4229SOL     OW15963   6.448   5.328   8.800  0.1099  0.1106 -0.5437
 4229SOL    HW115964   6.501   5.258   8.837 -1.0528 -0.5496 -0.0611
 4229SOL    HW215965   6.399   5.286   8.729 -1.4602  0.1020  0.4827
 4230SOL     OW15966   4.118   5.533   9.611 -0.4230 -0.5935  0.1832
 4230SOL    HW115967   4.081   5.454   9.571  1.5927 -1.7802  0.4619
 4230SOL    HW215968   4.160   5.501   9.691  1.8668  0.4388 -0.5254
 4231SOL     OW15969   2.592   5.852   1.131  0.0398 -0.6312  0.1999
 4231SOL    HW115970   2.593   5.800   1.212  0.8743  1.3620  1.5574
 4231SOL    HW215971   2.502   5.843   1.098 -0.5311 -0.9469  1.7393
 4232SOL     OW15972   3.064   2.641   2.190  0.2107  0.0822  0.3158
 4232SOL    HW115973   3.041   2.554   2.158 -1.7202  0.7022 -0.0789
 4232SOL    HW215974   3.073   2.694   2.111  2.0329  0.1371  0.5157
 4233SOL     OW15975   1.378   1.532   5.531 -0.4553 -0.5348 -0.7028
 4233SOL    HW115976   1.311   1.485   5.580 -0.2972 -0.4503 -0.4075
 4233SOL    HW215977   1.457   1.479   5.541 -0.0300  0.2716  0.4282
 4234SOL     OW15978   7.956   9.132   8.153  0.2005 -0.1332  0.0184
 4234SOL    HW115979   7.891   9.065   8.135 -0.7664  0.3562  1.5432
 4234SOL    HW215980   8.037   9.083   8.170 -0.0177 -0.7881 -0.7707
 4235SOL     OW15981   8.843   2.264   7.564  0.0047  0.5503 -0.6706
 4235SOL    HW115982   8.825   2.301   7.650  1.2012  3.2591 -1.4921
 4235SOL    HW215983   8.757   2.250   7.525 -0.5502 -0.6059  0.8503
 4236SOL     OW15984   5.889   3.775   9.340  0.3243  0.1249 -0.4940
 4236SOL    HW115985   5.971   3.738   9.308 -0.1377  0.1981 -1.8085
 4236SOL    HW215986   5.839   3.700   9.371  0.6107 -0.0003 -0.3333
 4237SOL     OW15987   5.108   3.354   3.888  0.4678  0.1572 -0.3169
 4237SOL    HW115988   5.035   3.383   3.833 -0.6425 -0.1132  0.9785
 4237SOL    HW215989   5.106   3.259   3.882 -1.1942 -0.0330  2.0191
 4238SOL     OW15990   5.720   5.280   6.346  0.6457 -0.0916  0.8482
 4238SOL    HW115991   5.795   5.332   6.318 -0.0107  0.6855  0.4965
 4238SOL    HW215992   5.651   5.302   6.284 -0.3216  0.3456  2.0290
 4239SOL     OW15993   6.820   0.575   6.851  0.1174 -0.2990 -0.2515
 4239SOL    HW115994   6.775   0.602   6.931  1.0213  1.3411 -0.2578
 4239SOL    HW215995   6.826   0.479   6.859 -1.6865 -0.3909  0.6063
 4240SOL     OW15996   3.740   0.612  10.189 -0.5597 -0.2799 -0.2249
 4240SOL    HW115997   3.770   0.605  10.280  2.3548 -1.2819 -1.1520
 4240SOL    HW215998   3.744   0.706  10.170  0.0845 -0.1885  0.3210
 4241SOL     OW15999   4.479   1.046   4.196  0.8275  0.4189 -0.0684
 4241SOL    HW116000   4.488   0.967   4.249  1.0890 -0.1579 -0.9486
 4241SOL    HW216001   4.529   1.112   4.244 -0.7038  0.4920  1.4970
 4242SOL     OW16002   9.732   3.290   5.018  0.1466  0.1037 -0.3645
 4242SOL    HW116003   9.695   3.289   5.106 -1.6121  0.5233 -1.0675
 4242SOL    HW216004   9.827   3.289   5.032 -0.1011 -0.2318  1.5139
 4243SOL     OW16005   8.402   6.573  10.204  0.6627 -0.2775 -0.2685
 4243SOL    HW116006   8.310   6.554  10.185  0.0327  2.1248  0.0552
 4243SOL    HW216007   8.451   6.512  10.149 -1.1001 -1.9025 -0.1306
 4244SOL     OW16008   8.337  10.317   3.021 -0.2680 -0.0256 -0.1125
 4244SOL    HW116009   8.319  10.403   2.983  2.1125  0.1740 -0.9217
 4244SOL    HW216010   8.292  10.318   3.105 -1.0012  1.6636 -0.4938
 4245SOL     OW16011  10.405  10.150   5.864  0.1876  0.0571 -0.0652
 4245SOL    HW116012  10.406  10.090   5.939 -0.5929 -0.4788 -0.4699
 4245SOL    HW216013  10.477  10.119   5.808  0.3463  0.0434  0.1446
 4246SOL     OW16014   6.814   6.362   2.145 -0.1416 -0.2947  0.0969
 4246SOL    HW116015   6.884   6.427   2.139  0.9639 -1.3626  0.9157
 4246SOL    HW216016   6.747   6.403   2.199  1.3012 -0.4145  2.1112
 4247SOL     OW16017   4.275   4.310   6.631 -0.5289 -0.2179 -0.4757
 4247SOL    HW116018   4.345   4.262   6.676 -0.8862 -0.5491 -0.2719
 4247SOL    HW216019   4.309   4.324   6.543 -0.8523 -1.8194 -0.8918
 4248SOL     OW16020   4.219   0.754   0.629  0.1403  0.2686  0.5735
 4248SOL    HW116021   4.163   0.759   0.707 -0.6997  0.8630 -0.0542
 4248SOL    HW216022   4.206   0.666   0.596 -1.6324  0.8744 -0.4273
 4249SOL     OW16023   4.725  11.304   8.949 -0.0117  0.1009  0.0055
 4249SOL    HW116024   4.636  11.341   8.949  0.5487  1.5643 -1.3582
 4249SOL    HW216025   4.765  11.338   9.029 -0.4201  0.0660  0.2305
 4250SOL     OW16026   1.125   2.814   7.184 -0.2905  0.3333  0.5240
 4250SOL    HW116027   1.134   2.857   7.269 -0.7896 -0.2231  0.8707
 4250SOL    HW216028   1.044   2.849   7.148 -1.8360 -1.7809  1.7271
 4251SOL     OW16029   9.149   9.144   1.138  0.1207 -0.4888  0.2272
 4251SOL    HW116030   9.080   9.207   1.116 -0.0080 -0.8106 -0.3375
 4251SOL    HW216031   9.213   9.153   1.068  1.6953  1.2365  1.7938
 4252SOL     OW16032   8.791   0.516   9.248  0.1693  0.2936  0.7923
 4252SOL    HW116033   8.822   0.606   9.239  0.5398  0.0166 -0.9382
 4252SOL    HW216034   8.857   0.473   9.303 -0.1729  1.1320  1.8886
 4253SOL     OW16035   5.971   4.055   2.655  0.1660  0.0299 -0.3062
 4253SOL    HW116036   6.045   4.063   2.714 -0.2973  0.9414  0.1785
 4253SOL    HW216037   5.933   3.969   2.675 -1.8309  1.4710  3.0277
 4254SOL     OW16038   2.668  10.675   3.660  0.0448 -0.3201  0.1576
 4254SOL    HW116039   2.584  10.643   3.626 -0.9237  0.2675  1.8522
 4254SOL    HW216040   2.728  10.601   3.650 -0.8609 -0.9993 -0.4228
 4255SOL     OW16041   4.206   9.555   7.473  0.0767 -0.1247  0.1525
 4255SOL    HW116042   4.143   9.606   7.524  0.3875  1.4770 -0.9943
 4255SOL    HW216043   4.159   9.475   7.449  0.2227 -1.4398  3.6884
 4256SOL     OW16044   9.929   8.606  11.336  0.3773 -0.0418 -0.4275
 4256SOL    HW116045  10.014   8.606  11.380  2.2629 -0.8398 -3.7291
 4256SOL    HW216046   9.900   8.515  11.340  0.8190 -0.2270 -1.2236
 4257SOL     OW16047  10.978   5.676   8.880 -0.1299  0.0889 -0.1059
 4257SOL    HW116048  10.954   5.646   8.792  0.7133 -1.6765  0.2212
 4257SOL    HW216049  10.896   5.679   8.928 -0.6129  1.1472 -0.9394
 4258SOL     OW16050   3.093   8.854  11.344 -0.1983 -0.0983  0.0654
 4258SOL    HW116051   3.015   8.827  11.393 -0.6283 -0.9496 -1.0347
 4258SOL    HW216052   3.161   8.793  11.372  0.2809  1.0462  1.5066
 4259SOL     OW16053   4.685   2.119   6.585  0.8310 -0.0251  0.9711
 4259SOL    HW116054   4.696   2.209   6.555 -0.2321 -0.5775 -1.3140
 4259SOL    HW216055   4.747   2.069   6.531 -1.2227 -1.0787 -0.5811
 4260SOL     OW16056   7.895  10.333   1.357 -0.6413  0.7512 -0.6299
 4260SOL    HW116057   7.886  10.291   1.443 -2.9259  0.1662 -1.0629
 4260SOL    HW216058   7.847  10.415   1.366 -2.8110 -0.2793 -1.8505
 4261SOL     OW16059   4.583   9.000   2.154 -0.6935  0.1403  0.0136
 4261SOL    HW116060   4.608   9.067   2.091 -1.6375  0.8442  0.3551
 4261SOL    HW216061   4.505   9.035   2.196  0.5358  0.2190  2.3813
 4262SOL     OW16062   9.630   5.286   1.515  0.1726  0.0771 -0.2854
 4262SOL    HW116063   9.703   5.317   1.569 -2.1206  0.0294  3.0524
 4262SOL    HW216064   9.630   5.191   1.527 -0.9760  0.1641  0.5530
 4263SOL     OW16065   3.428   3.449   3.850  0.7467 -0.1013 -0.1047
 4263SOL    HW116066   3.431   3.489   3.936  1.2234 -0.4254  0.0380
 4263SOL    HW216067   3.418   3.522   3.789 -1.1358  0.0168  0.3047
 4264SOL     OW16068  10.279   2.402   3.386 -0.1961 -0.7079 -0.0162
 4264SOL    HW116069  10.342   2.346   3.341  0.0740 -0.0616 -0.4496
 4264SOL    HW216070  10.318   2.489   3.383 -0.5842 -0.5051  0.7083
 4265SOL     OW16071   2.216   8.259   5.881  0.1285 -0.3294 -0.3878
 4265SOL    HW116072   2.234   8.167   5.897  1.3155  0.0356  0.5207
 4265SOL    HW216073   2.142   8.279   5.938  0.3274 -0.5417 -0.0555
 4266SOL     OW16074   5.213   6.227   9.766  0.3260 -0.2279 -0.2370
 4266SOL    HW116075   5.280   6.192   9.708 -0.2527  0.1346 -1.1622
 4266SOL    HW216076   5.255   6.302   9.808  0.6382 -0.2611 -0.4822
 4267SOL     OW16077  10.124  10.549  11.396 -0.1455  0.4041 -0.0446
 4267SOL    HW116078  10.036  10.587  11.400  0.2213  1.1842  1.3228
 4267SOL    HW216079  10.142  10.541  11.302 -0.7411  2.4736 -0.3936
 4268SOL     OW16080   7.123   2.511   8.671 -0.0500 -0.0445  0.3373
 4268SOL    HW116081   7.213   2.514   8.701  0.1165 -0.1265 -0.1355
 4268SOL    HW216082   7.111   2.593   8.623  0.1488 -0.5543 -0.6170
 4269SOL     OW16083   3.198   0.883   1.865 -0.4196 -0.6273  0.3698
 4269SOL    HW116084   3.224   0.944   1.934  0.6376  0.7141 -1.1268
 4269SOL    HW216085   3.124   0.835   1.902 -0.1162  0.2715  2.2895
 4270SOL     OW16086   4.081   7.129   8.273 -0.3995  0.2470 -0.4404
 4270SOL    HW116087   4.073   7.105   8.181 -0.1029  1.8912 -0.9251
 4270SOL    HW216088   4.168   7.168   8.281 -0.0624 -0.6888  0.7531
 4271SOL     OW16089   9.481   8.531   8.659 -0.2799 -0.7513 -0.8894
 4271SOL    HW116090   9.406   8.477   8.685  0.0338 -0.6939  0.2111
 4271SOL    HW216091   9.523   8.554   8.742 -2.1854  3.8821 -0.9101
 4272SOL     OW16092   1.564   2.622  11.036 -0.2279  0.4083 -0.3660
 4272SOL    HW116093   1.473   2.592  11.040  0.0150 -0.3282 -0.1335
 4272SOL    HW216094   1.615   2.541  11.029  0.3335  0.8699 -2.0060
 4273SOL     OW16095   8.180  11.314   5.195  0.0980 -1.0248 -0.2411
 4273SOL    HW116096   8.137  11.249   5.139  0.9788 -1.3017 -0.6104
 4273SOL    HW216097   8.155  11.398   5.157 -1.1959 -1.1151  0.3445
 4274SOL     OW16098   2.787  10.173   0.883  0.6561 -0.4464  0.6903
 4274SOL    HW116099   2.730  10.103   0.851  0.8804 -0.6077  0.6405
 4274SOL    HW216100   2.784  10.165   0.978 -0.3407  0.2934  0.7434
 4275SOL     OW16101   5.608  10.364   5.094  0.7239 -1.1408  0.1607
 4275SOL    HW116102   5.668  10.392   5.164  0.8291 -0.6527 -0.1190
 4275SOL    HW216103   5.663  10.360   5.016 -0.0522  1.7513 -0.6462
 4276SOL     OW16104   2.815   4.159   7.829  0.5054 -0.3432 -0.3130
 4276SOL    HW116105   2.771   4.168   7.914  1.2834 -0.4290  0.1125
 4276SOL    HW216106   2.824   4.064   7.817  0.5893 -0.3255 -0.3888
 4277SOL     OW16107  10.694   8.100   8.606 -0.4508  0.4795  0.1866
 4277SOL    HW116108  10.616   8.062   8.564  0.0942  1.1962 -1.5846
 4277SOL    HW216109  10.753   8.025   8.618 -1.0330  0.0885  0.6768
 4278SOL     OW16110  10.941   8.641  10.661  0.2841 -0.5038 -0.9036
 4278SOL    HW116111  10.935   8.725  10.707  1.6185  0.2631 -2.0719
 4278SOL    HW216112  10.867   8.642  10.600  0.5788  0.0625 -1.2631
 4279SOL     OW16113   0.588  10.652   8.428 -0.5527 -0.2565  0.6511
 4279SOL    HW116114   0.534  10.703   8.489  0.5771 -0.8362  2.2160
 4279SOL    HW216115   0.525  10.609   8.370 -1.7681 -0.6184  2.1721
 4280SOL     OW16116   7.593   3.000   4.105  0.0442  0.3874  0.6111
 4280SOL    HW116117   7.553   2.914   4.118 -1.2941  1.0975  1.4997
 4280SOL    HW216118   7.539   3.042   4.038  0.0336  0.9194  0.9459
 4281SOL     OW16119   5.633   4.991   4.792 -0.8209  0.2578  0.6209
 4281SOL    HW116120   5.629   4.918   4.731 -0.2510  0.4166  0.3865
 4281SOL    HW216121   5.556   4.979   4.848 -1.6559  0.3909 -0.4411
 4282SOL     OW16122   4.738   4.326  11.283  0.0741 -0.2811 -0.2831
 4282SOL    HW116123   4.697   4.389  11.223  1.3541 -1.2995 -2.3111
 4282SOL    HW216124   4.794   4.380  11.339 -0.2036  0.5776 -0.8095
 4283SOL     OW16125   0.949   5.945   9.490  0.0294  0.4659 -0.1763
 4283SOL    HW116126   0.954   6.006   9.417 -1.1556  1.6495  0.6755
 4283SOL    HW216127   0.957   5.858   9.450  0.0938  1.1166 -1.6153
 4284SOL     OW16128   9.995   6.259   9.401  0.4563 -0.0418 -0.6113
 4284SOL    HW116129  10.018   6.225   9.488 -0.1216 -0.7373 -0.7174
 4284SOL    HW216130  10.068   6.316   9.377  0.6764  0.0692  0.2819
 4285SOL     OW16131   7.900   0.452   9.545  0.0425  0.0907 -0.3061
 4285SOL    HW116132   7.859   0.493   9.621  1.0398  1.0001 -0.2364
 4285SOL    HW216133   7.994   0.460   9.562  0.4971  3.6784 -3.2819
 4286SOL     OW16134   8.949  11.011   7.974 -0.0203  0.9096 -0.0270
 4286SOL    HW116135   8.868  11.047   7.939  0.2626  0.3770 -1.2906
 4286SOL    HW216136   8.934  10.916   7.976 -0.1578  0.9384  1.6877
 4287SOL     OW16137   2.157   7.644   6.022 -0.0109  0.1754 -0.0768
 4287SOL    HW116138   2.148   7.560   5.976  1.5478 -0.4247  0.6368
 4287SOL    HW216139   2.068   7.668   6.045 -0.5250 -1.1432 -0.5682
 4288SOL     OW16140   3.460   9.001   0.798 -0.1131 -0.1410  0.0269
 4288SOL    HW116141   3.500   9.069   0.744  0.2510 -1.1315 -0.9822
 4288SOL    HW216142   3.419   8.941   0.735 -0.1812 -1.0123  0.8716
 4289SOL     OW16143   5.495  11.034   8.735 -0.5368  0.0532  0.1857
 4289SOL    HW116144   5.550  11.088   8.678  0.0749 -0.2311  0.4975
 4289SOL    HW216145   5.551  10.960   8.759 -0.6476  0.3683  1.4840
 4290SOL     OW16146  10.530  10.249   6.325 -0.2755 -0.4950 -0.4240
 4290SOL    HW116147  10.497  10.165   6.294  0.1811 -0.4804 -0.9662
 4290SOL    HW216148  10.558  10.295   6.246  0.7664 -0.3942 -0.0135
 4291SOL     OW16149   8.151   4.190   2.902 -0.2803  0.0617 -0.4053
 4291SOL    HW116150   8.244   4.212   2.899 -0.7844  2.5723  0.4578
 4291SOL    HW216151   8.106   4.270   2.875 -2.2436 -0.3160  1.4674
 4292SOL     OW16152  11.126   5.590   6.358  0.6159  0.2181  0.5598
 4292SOL    HW116153  11.118   5.627   6.446 -1.0488  0.3188  0.4013
 4292SOL    HW216154  11.117   5.665   6.299 -2.1854 -0.2407  0.2564
 4293SOL     OW16155  10.561   7.550   8.228  0.4155 -0.0730  0.1104
 4293SOL    HW116156  10.475   7.509   8.216  0.0038  0.6281  0.5796
 4293SOL    HW216157  10.557   7.630   8.175  0.2335  0.7092  1.2587
 4294SOL     OW16158   9.010   7.946   4.381 -0.3723 -0.2585  0.2697
 4294SOL    HW116159   9.095   7.903   4.386  0.1946  0.6570 -0.9452
 4294SOL    HW216160   8.979   7.928   4.292 -1.4814 -0.6058  0.7042
 4295SOL     OW16161   5.080   5.945   6.767  0.5147  0.2747 -0.4029
 4295SOL    HW116162   5.119   5.876   6.821  0.8366  1.6229  1.1653
 4295SOL    HW216163   5.154   5.998   6.738  0.1268  1.0365 -0.0245
 4296SOL     OW16164   9.725  10.343   4.925  0.2510  0.0051  0.6407
 4296SOL    HW116165   9.652  10.336   4.863  0.8830 -1.6719  0.0421
 4296SOL    HW216166   9.718  10.265   4.979  0.3828  0.8906  1.9973
 4297SOL     OW16167  10.674   5.967   9.403 -0.5924 -0.5896 -0.4252
 4297SOL    HW116168  10.615   6.042   9.409 -1.6017 -1.2220 -1.7767
 4297SOL    HW216169  10.616   5.892   9.391  0.4460 -1.3870 -0.5896
 4298SOL     OW16170   1.896   8.193   0.395 -0.4238  0.2892 -0.3164
 4298SOL    HW116171   1.918   8.124   0.458 -0.5430  1.1968  0.7586
 4298SOL    HW216172   1.804   8.175   0.372 -0.9347  0.9159  1.1087
 4299SOL     OW16173   0.336   9.033   0.307  0.3925 -0.4584  0.2633
 4299SOL    HW116174   0.311   8.942   0.321 -0.7055 -0.0084  1.4959
 4299SOL    HW216175   0.254   9.082   0.317  1.3521  0.9017  2.3988
 4300SOL     OW16176   8.626   5.185   8.777 -0.3692  0.5116 -0.0980
 4300SOL    HW116177   8.646   5.095   8.801 -0.0150  0.8155  0.7637
 4300SOL    HW216178   8.682   5.202   8.701 -1.4947 -0.4488 -1.1881
 4301SOL     OW16179   0.598   9.398  10.478 -0.1470  0.4505  0.1176
 4301SOL    HW116180   0.537   9.463  10.443  1.2337  0.5609 -2.2290
 4301SOL    HW216181   0.677   9.448  10.500  0.5624 -0.2510 -0.7637
 4302SOL     OW16182   2.669   7.705  10.495  0.4087  0.3074  0.1048
 4302SOL    HW116183   2.634   7.649  10.427 -0.4863 -0.4201  1.1310
 4302SOL    HW216184   2.762   7.712  10.476 -0.0123  1.1226 -1.8753
 4303SOL     OW16185   3.798   2.833  10.846  0.3899 -0.4953 -0.3985
 4303SOL    HW116186   3.855   2.808  10.919 -0.1905 -2.5162 -0.5827
 4303SOL    HW216187   3.859   2.855  10.775  0.9602 -1.5633 -0.2571
 4304SOL     OW16188   7.187   4.291   8.194 -0.3113 -0.4189 -0.5293
 4304SOL    HW116189   7.165   4.250   8.278  3.0940 -0.7347  0.3265
 4304SOL    HW216190   7.164   4.384   8.206  0.7240 -0.3414  1.0119
 4305SOL     OW16191   0.127   5.548   3.647  0.2091 -0.8001  0.0024
 4305SOL    HW116192   0.162   5.567   3.560  2.3243 -1.6514  0.6078
 4305SOL    HW216193   0.166   5.614   3.704  1.4234 -2.1501  0.8034
 4306SOL     OW16194   6.744   6.547   0.691  0.1385  0.2798 -0.3659
 4306SOL    HW116195   6.817   6.609   0.690  0.4353 -0.0345  0.5390
 4306SOL    HW216196   6.750   6.501   0.607  1.6817 -0.5132  0.1382
 4307SOL     OW16197  10.360   3.070   5.481  0.0060  0.3027  0.4211
 4307SOL    HW116198  10.381   3.087   5.390  0.3083 -0.3501  0.3691
 4307SOL    HW216199  10.437   3.025   5.516 -1.2508 -2.1313  0.2221
 4308SOL     OW16200   2.042   7.251   5.139 -0.1606 -0.4641 -0.2818
 4308SOL    HW116201   2.114   7.244   5.200 -1.1544 -0.0492  0.9836
 4308SOL    HW216202   2.056   7.181   5.076  0.5115 -1.3548  0.8352
 4309SOL     OW16203   6.139   7.398   0.829  0.0660  0.3589 -0.0317
 4309SOL    HW116204   6.169   7.470   0.884  1.3495  0.8139 -1.2575
 4309SOL    HW216205   6.069   7.437   0.776 -0.9986 -0.0128  1.0799
 4310SOL     OW16206   6.753   6.909   8.795 -0.3958  0.2955 -0.3914
 4310SOL    HW116207   6.734   6.940   8.707 -2.8630 -0.5412 -0.2217
 4310SOL    HW216208   6.671   6.921   8.844  0.5890 -0.2148  1.5087
 4311SOL     OW16209   5.742  11.233   2.325  0.7873  0.7447  0.0568
 4311SOL    HW116210   5.779  11.149   2.296  3.0701  1.5326  0.4508
 4311SOL    HW216211   5.655  11.235   2.285  0.6771 -1.7560 -0.0252
 4312SOL     OW16212   4.741   4.269   6.984 -0.0937 -0.2452 -1.0491
 4312SOL    HW116213   4.806   4.211   6.944 -1.5776 -1.3475 -1.9632
 4312SOL    HW216214   4.734   4.237   7.074  2.0747  1.2103 -0.2795
 4313SOL     OW16215   5.078   0.275   5.369  0.5605  0.2132  0.4993
 4313SOL    HW116216   5.023   0.348   5.341  0.6398  0.4781  1.0206
 4313SOL    HW216217   5.101   0.230   5.288  1.5653  1.5047  0.0251
 4314SOL     OW16218   3.689   2.650   2.005  0.3344 -0.1035 -0.7668
 4314SOL    HW116219   3.596   2.627   2.001  0.3262 -0.9611  1.9235
 4314SOL    HW216220   3.693   2.743   1.984 -1.4687  0.4826  1.1647
 4315SOL     OW16221   9.382   0.690   4.936 -0.3892  0.5397  0.1178
 4315SOL    HW116222   9.455   0.677   4.876 -1.4170 -1.1764 -0.8314
 4315SOL    HW216223   9.394   0.623   5.004 -1.4141 -0.2125 -0.4198
 4316SOL     OW16224   4.906   6.193   6.027  0.2919 -0.1086 -0.4555
 4316SOL    HW116225   4.885   6.275   5.982 -0.2139 -1.2329 -2.3750
 4316SOL    HW216226   4.857   6.127   5.980  0.5676 -1.5321  1.1518
 4317SOL     OW16227   7.661   9.408   0.290 -0.5117 -0.1315  0.1054
 4317SOL    HW116228   7.665   9.503   0.277  2.6794 -0.0106  0.9748
 4317SOL    HW216229   7.726   9.391   0.359  0.4758 -3.1176 -1.4029
 4318SOL     OW16230   2.120   9.056   7.540  0.1616  0.0344 -0.6884
 4318SOL    HW116231   2.209   9.030   7.563 -0.1621 -0.7582 -0.2933
 4318SOL    HW216232   2.132   9.131   7.482  1.0511  0.6815  0.2807
 4319SOL     OW16233   4.081   8.525   1.972  0.8739 -0.0834 -0.0733
 4319SOL    HW116234   4.137   8.457   1.934 -0.7975 -1.7884  0.4038
 4319SOL    HW216235   3.994   8.486   1.977 -0.2190  2.1855  0.0187
 4320SOL     OW16236   7.371  11.307   2.186  0.7832 -0.1064 -0.5046
 4320SOL    HW116237   7.424  11.228   2.195  1.7943  0.4737 -1.1614
 4320SOL    HW216238   7.424  11.376   2.227  0.7861  0.5844 -1.6338
 4321SOL     OW16239  10.353   3.483   6.880 -0.9822 -0.0206 -0.4924
 4321SOL    HW116240  10.422   3.423   6.907 -0.4098 -0.0763 -1.9540
 4321SOL    HW216241  10.351   3.475   6.784 -2.2112  0.8638 -0.5677
 4322SOL     OW16242   6.845   9.438   4.178  0.2591 -0.2459 -0.1770
 4322SOL    HW116243   6.753   9.433   4.203 -0.0372 -0.9863 -1.3409
 4322SOL    HW216244   6.873   9.525   4.205 -0.5622 -0.2958  0.8900
 4323SOL     OW16245   4.008   6.796   1.458  0.0563 -0.0393  0.0826
 4323SOL    HW116246   4.089   6.817   1.412  0.3775 -3.2698 -1.1244
 4323SOL    HW216247   4.002   6.700   1.453 -1.7084 -0.3027  3.8064
 4324SOL     OW16248   6.129   0.901   1.956 -0.1433  0.3139  0.3981
 4324SOL    HW116249   6.151   0.911   1.864  0.6210  0.5631  0.5996
 4324SOL    HW216250   6.066   0.829   1.958 -0.0911  0.2404 -0.3088
 4325SOL     OW16251   2.779   4.493   3.095  0.4132  0.4169  0.7406
 4325SOL    HW116252   2.805   4.461   3.009  0.1373  1.2707  0.3269
 4325SOL    HW216253   2.819   4.432   3.157 -0.2185 -0.8041 -0.0177
 4326SOL     OW16254   9.118   5.810   7.641  0.0076 -0.7210 -0.3876
 4326SOL    HW116255   9.082   5.723   7.628  0.8544 -0.7361 -3.2561
 4326SOL    HW216256   9.212   5.796   7.651  0.1218 -0.1587 -0.6165
 4327SOL     OW16257   6.753   1.079   9.560  0.4527  0.3684 -0.2199
 4327SOL    HW116258   6.678   1.087   9.619  0.8659 -1.3100  0.5931
 4327SOL    HW216259   6.827   1.060   9.618  0.5411 -3.2365 -1.2723
 4328SOL     OW16260   0.604   6.365   1.921  0.5327  0.3959 -0.7779
 4328SOL    HW116261   0.522   6.416   1.924 -0.0280 -0.5259  0.2951
 4328SOL    HW216262   0.631   6.369   1.829 -1.7135 -0.7949 -1.5765
 4329SOL     OW16263   8.169   3.568   0.251  0.7302  0.1041  0.2181
 4329SOL    HW116264   8.154   3.524   0.335  1.5950 -0.7205 -0.0416
 4329SOL    HW216265   8.241   3.629   0.268 -0.1160  1.0641  0.4439
 4330SOL     OW16266   2.792   8.515   3.258 -0.2664 -0.2783  0.0901
 4330SOL    HW116267   2.759   8.497   3.346 -0.6049  2.6856  0.6853
 4330SOL    HW216268   2.742   8.592   3.229 -0.5436 -1.4870 -2.9556
 4331SOL     OW16269   1.193   3.550   5.479  0.0128 -0.3633 -0.0900
 4331SOL    HW116270   1.161   3.589   5.398 -0.6330 -0.8427 -0.0708
 4331SOL    HW216271   1.286   3.533   5.462  0.3172  1.2015 -0.0794
 4332SOL     OW16272   2.261  11.213   3.499 -0.0423  0.1214  0.6849
 4332SOL    HW116273   2.196  11.174   3.441  1.0061  0.9435 -1.1381
 4332SOL    HW216274   2.337  11.154   3.494 -0.2944 -0.3507  2.0746
 4333SOL     OW16275   3.258   8.892   0.578  0.1975 -0.6847 -0.2247
 4333SOL    HW116276   3.224   8.980   0.597  3.1739  0.3305  1.0398
 4333SOL    HW216277   3.226   8.839   0.651  0.2336 -0.1021  0.2257
 4334SOL     OW16278   2.050   2.286   6.851  0.3724  0.0093 -0.6629
 4334SOL    HW116279   2.033   2.194   6.872  1.8205 -0.2799 -0.6238
 4334SOL    HW216280   2.056   2.330   6.935 -1.4856  0.4127 -0.6918
 4335SOL     OW16281   3.339   7.291   5.170 -0.1345  0.2862 -0.1331
 4335SOL    HW116282   3.377   7.365   5.123 -0.2647  0.4863  0.0695
 4335SOL    HW216283   3.384   7.290   5.254  0.4706 -0.3933 -0.4549
 4336SOL     OW16284   5.823   0.273   8.119  0.4502 -0.3007 -0.1070
 4336SOL    HW116285   5.901   0.328   8.131 -0.3451  0.9960 -0.6205
 4336SOL    HW216286   5.782   0.270   8.205 -0.6498  1.7812 -0.4884
 4337SOL     OW16287   2.526   9.562   1.182 -0.0575 -0.4614 -0.6966
 4337SOL    HW116288   2.572   9.643   1.201 -0.3627 -0.8860  2.2647
 4337SOL    HW216289   2.589   9.493   1.201 -0.3186 -0.9916 -1.6328
 4338SOL     OW16290   2.532   7.687   2.324  0.0150 -0.4460 -0.5049
 4338SOL    HW116291   2.607   7.671   2.381 -0.4025 -0.1832  0.1203
 4338SOL    HW216292   2.549   7.773   2.285 -0.2958 -0.0759  0.1690
 4339SOL     OW16293   0.411  11.383   3.228 -0.2344  0.5528 -0.3275
 4339SOL    HW116294   0.360  11.308   3.258 -2.7015  2.4017  0.4006
 4339SOL    HW216295   0.388  11.392   3.136  2.3313 -1.1991 -1.2765
 4340SOL     OW16296   9.115  10.079   4.402 -0.0910 -0.5867 -0.2117
 4340SOL    HW116297   9.094  10.145   4.469 -0.1294  1.0607 -1.7722
 4340SOL    HW216298   9.054  10.007   4.420 -0.2021 -0.1402  1.4130
 4341SOL     OW16299   0.301   2.671   6.537 -0.2719  0.3745  0.0386
 4341SOL    HW116300   0.360   2.721   6.479 -0.6776  0.0030 -0.7048
 4341SOL    HW216301   0.343   2.676   6.623  0.3008  1.0072 -0.2642
 4342SOL     OW16302  10.732  10.604   6.913  0.0936  0.2070 -0.3035
 4342SOL    HW116303  10.762  10.573   6.828 -0.5222 -2.7889  0.4680
 4342SOL    HW216304  10.789  10.678   6.933  2.8777 -1.4317 -1.6016
 4343SOL     OW16305  10.084   1.834   7.011  0.3461 -0.5272  0.1854
 4343SOL    HW116306  10.046   1.890   6.944  0.3017 -1.6895 -0.7973
 4343SOL    HW216307  10.142   1.775   6.963  4.5035  1.8726  1.6472
 4344SOL     OW16308   1.447   2.900   8.087  0.6129 -0.2927 -0.4615
 4344SOL    HW116309   1.542   2.890   8.089  0.8502  1.5267 -0.7702
 4344SOL    HW216310   1.431   2.965   8.019 -0.9519 -1.3097 -1.1144
 4345SOL     OW16311   9.571   9.511   2.075 -0.0253 -0.0569 -1.1688
 4345SOL    HW116312   9.542   9.427   2.110  0.3736  0.9005  1.6763
 4345SOL    HW216313   9.661   9.521   2.107 -0.2532  1.7008 -0.9730
 4346SOL     OW16314   5.388   8.076   1.358 -0.2732  0.0916  0.8273
 4346SOL    HW116315   5.305   8.123   1.347  0.3830  0.8589 -1.4593
 4346SOL    HW216316   5.448   8.143   1.390  0.2557  0.4592 -0.8337
 4347SOL     OW16317   6.980   6.398   1.512 -0.1790  0.3372  0.2488
 4347SOL    HW116318   6.959   6.344   1.589  0.3044 -0.8804 -0.4470
 4347SOL    HW216319   7.002   6.335   1.444 -0.2187  1.4147 -0.7886
 4348SOL     OW16320   7.617   6.093   8.625 -0.2351  0.2667  0.5579
 4348SOL    HW116321   7.570   6.175   8.618 -0.1643  0.3621  1.1155
 4348SOL    HW216322   7.549   6.027   8.639 -0.3186  0.1766 -0.2580
 4349SOL     OW16323   4.129   3.129   2.226 -0.0465  0.4713  0.0382
 4349SOL    HW116324   4.146   3.158   2.315 -1.1622 -1.1080  0.8257
 4349SOL    HW216325   4.070   3.054   2.236  0.9218 -0.6386 -1.9531
 4350SOL     OW16326  11.296   1.040   1.487 -0.3320 -0.2376  0.2252
 4350SOL    HW116327  11.353   1.116   1.481  0.3623 -0.2964  3.7633
 4350SOL    HW216328  11.354   0.965   1.476  0.1910 -0.2702  2.6402
 4351SOL     OW16329   2.384   0.421   0.618  0.5837  0.3146 -0.6275
 4351SOL    HW116330   2.309   0.377   0.578  0.7354 -0.6447  0.1106
 4351SOL    HW216331   2.348   0.466   0.694  0.6823  0.2201 -0.5249
 4352SOL     OW16332   8.548  10.765   2.645 -0.1450  0.2894  0.0367
 4352SOL    HW116333   8.526  10.807   2.728  2.1615  0.0565  0.8247
 4352SOL    HW216334   8.555  10.672   2.666 -0.4366  0.1120 -0.6297
 4353SOL     OW16335   6.612   7.525   3.182 -0.0811 -0.3724 -0.1275
 4353SOL    HW116336   6.550   7.480   3.239 -1.0029  1.6936  0.6051
 4353SOL    HW216337   6.688   7.541   3.238  0.4007 -1.2847 -0.4956
 4354SOL     OW16338   6.700  10.015   9.967 -0.6636  0.5883  0.3277
 4354SOL    HW116339   6.755  10.046   9.895  0.1112 -0.6697  0.3338
 4354SOL    HW216340   6.667   9.930   9.937  1.0502 -0.7832  2.0494
 4355SOL     OW16341   9.480   3.267   5.476 -0.6702  0.1488 -0.6499
 4355SOL    HW116342   9.466   3.362   5.481  0.8818  0.4493 -1.4364
 4355SOL    HW216343   9.494   3.250   5.383 -1.2112 -0.9163 -0.5500
 4356SOL     OW16344  11.297   9.480   6.168 -0.6084  0.6801 -0.4308
 4356SOL    HW116345  11.334   9.403   6.124 -0.1625  0.1319  0.8476
 4356SOL    HW216346  11.364   9.506   6.231 -1.8639  0.3872  1.1081
 4357SOL     OW16347   6.091  11.131   5.878  0.1831  0.0036 -0.1907
 4357SOL    HW116348   6.111  11.149   5.969  1.2161 -2.0489  0.0539
 4357SOL    HW216349   6.013  11.183   5.859 -0.6637 -0.3157  2.1609
 4358SOL     OW16350   1.032   1.570   6.548  0.1946 -0.2128  0.1969
 4358SOL    HW116351   1.017   1.501   6.613  1.9426 -0.1832  0.6838
 4358SOL    HW216352   1.003   1.650   6.592 -0.1800 -0.4092  0.3107
 4359SOL     OW16353   7.312   8.353   5.114 -0.7608  0.3331 -0.6560
 4359SOL    HW116354   7.293   8.266   5.148  0.6803  0.4667  0.5843
 4359SOL    HW216355   7.358   8.337   5.032  1.4818 -0.2057  0.6084
 4360SOL     OW16356   7.593   4.852  10.622 -0.2314 -0.1078  0.4603
 4360SOL    HW116357   7.655   4.783  10.597  0.5122  0.6185  0.2317
 4360SOL    HW216358   7.514   4.806  10.647  0.2990 -1.0496  0.4383
 4361SOL     OW16359   3.611   2.012  10.920  0.1623 -0.8878 -0.1309
 4361SOL    HW116360   3.684   2.066  10.891 -1.6200  2.2648  0.7835
 4361SOL    HW216361   3.588   1.960  10.843  1.5137  0.1923 -1.3236
 4362SOL     OW16362   9.868   3.804   0.226  0.6403  0.0070 -0.4230
 4362SOL    HW116363   9.783   3.789   0.267 -0.6570  3.1984 -1.6695
 4362SOL    HW216364   9.861   3.762   0.140  0.7288 -0.5631 -0.1596
 4363SOL     OW16365   9.150   1.584   4.984  0.1193  0.1431  0.0327
 4363SOL    HW116366   9.214   1.591   4.913 -0.3732 -0.1337 -0.4558
 4363SOL    HW216367   9.114   1.496   4.974 -0.4936  0.3751  0.1561
 4364SOL     OW16368   2.474   2.728   8.615 -0.1314  0.4948  0.4093
 4364SOL    HW116369   2.426   2.799   8.573  0.4050  1.2022  0.9780
 4364SOL    HW216370   2.544   2.771   8.664  0.2096 -0.4240  0.7579
 4365SOL     OW16371   7.608   6.175   1.765 -0.3257 -0.1205  0.8069
 4365SOL    HW116372   7.540   6.149   1.827 -1.0941  2.5601  1.1946
 4365SOL    HW216373   7.688   6.179   1.818  0.2130 -2.9785  0.4100
 4366SOL     OW16374  11.025   4.220   6.718  0.0802  0.1159  0.2728
 4366SOL    HW116375  11.099   4.266   6.678 -0.2503  0.1308 -0.3282
 4366SOL    HW216376  11.054   4.202   6.808  0.6680  0.4493  0.1558
 4367SOL     OW16377   3.371   6.050   0.632  0.0128 -0.1403 -0.0176
 4367SOL    HW116378   3.277   6.054   0.612  0.5167 -0.3344 -2.8493
 4367SOL    HW216379   3.383   5.964   0.673 -0.8539 -0.8028 -1.0776
 4368SOL     OW16380  10.277   5.416   9.796 -0.2289  0.0662  0.1214
 4368SOL    HW116381  10.184   5.440   9.804  0.2439  1.6621  1.4714
 4368SOL    HW216382  10.283   5.329   9.835 -0.8472  0.8318  2.0585
 4369SOL     OW16383   4.264   1.982   4.637 -0.0681 -0.0321 -0.1663
 4369SOL    HW116384   4.170   1.966   4.644  0.2335 -3.1011 -1.7407
 4369SOL    HW216385   4.275   2.022   4.550  0.0590  0.7162  0.1882
 4370SOL     OW16386   3.052   2.819  10.918  0.3299  0.1044  0.6642
 4370SOL    HW116387   2.990   2.767  10.867 -0.0368 -0.3763  1.5826
 4370SOL    HW216388   3.137   2.777  10.901  0.4383  0.7931 -0.6305
 4371SOL     OW16389   7.122   2.744   9.674 -0.1058 -0.3595  0.4457
 4371SOL    HW116390   7.211   2.742   9.640 -0.0123 -0.9271  0.7159
 4371SOL    HW216391   7.076   2.677   9.623 -0.3938 -0.0380  0.2745
 4372SOL     OW16392   3.169   5.192   5.934 -0.0865 -0.4733 -0.1487
 4372SOL    HW116393   3.141   5.247   5.861  0.1984  0.1116  0.1689
 4372SOL    HW216394   3.243   5.239   5.972 -1.6165  0.4494  1.9046
 4373SOL     OW16395   9.609   6.445   7.401  0.2287 -0.4896  0.1413
 4373SOL    HW116396   9.531   6.394   7.382  0.1398 -0.3413  0.1142
 4373SOL    HW216397   9.678   6.379   7.414 -0.5266 -0.8105  3.2196
 4374SOL     OW16398   2.433   5.167   4.971  0.5764  0.1613 -0.0012
 4374SOL    HW116399   2.422   5.226   5.045  1.3011  3.2585 -2.1480
 4374SOL    HW216400   2.520   5.127   4.983  0.1040 -0.4641  1.4521
 4375SOL     OW16401   3.830   9.454   0.691 -0.4781  0.0758  0.1567
 4375SOL    HW116402   3.898   9.393   0.662 -0.7595 -0.0615 -0.2204
 4375SOL    HW216403   3.795   9.491   0.610  0.1091  1.2069  0.3942
 4376SOL     OW16404   1.700   5.586  10.721  0.3632 -0.2381 -0.0354
 4376SOL    HW116405   1.688   5.515  10.783  0.4922 -0.7088 -0.5378
 4376SOL    HW216406   1.625   5.579  10.662  1.3781 -1.2218 -1.2816
 4377SOL     OW16407  11.032   5.674   3.019 -0.3760 -0.3703 -0.2743
 4377SOL    HW116408  11.073   5.607   2.965 -1.2350  0.4192 -1.9947
 4377SOL    HW216409  10.941   5.676   2.990 -1.1653 -0.6393  1.9956
 4378SOL     OW16410   7.582   0.179   8.548 -0.2345  0.2827 -0.5397
 4378SOL    HW116411   7.597   0.114   8.480 -0.5702  0.2864 -0.6187
 4378SOL    HW216412   7.669   0.194   8.586 -0.4028 -1.5743  0.7237
 4379SOL     OW16413   8.935   6.997   5.546 -0.2535 -0.1967 -0.1820
 4379SOL    HW116414   8.908   6.909   5.518  1.1442 -0.2131 -1.6241
 4379SOL    HW216415   8.948   7.045   5.464 -1.3924  1.5148  0.5841
 4380SOL     OW16416   1.763   7.081   2.604  0.2084  0.0695 -0.2677
 4380SOL    HW116417   1.705   7.152   2.575 -0.9450 -0.9488 -0.5721
 4380SOL    HW216418   1.757   7.015   2.535 -0.7766 -1.4176  1.1428
 4381SOL     OW16419   7.449   0.127   0.362 -0.0041  0.7618  0.1594
 4381SOL    HW116420   7.526   0.169   0.400 -0.2370  0.8913  0.4883
 4381SOL    HW216421   7.379   0.191   0.372 -0.1032  0.7423 -0.3628
 4382SOL     OW16422   9.264  10.397   3.006 -0.0112  0.3205  0.5260
 4382SOL    HW116423   9.169  10.392   3.016  0.0456 -0.5130  0.7110
 4382SOL    HW216424   9.283  10.346   2.928  0.4780 -1.3424  1.6852
 4383SOL     OW16425   8.240  10.253   2.222 -0.0981 -0.0376  0.3310
 4383SOL    HW116426   8.175  10.246   2.151  0.0159 -0.5143  0.2749
 4383SOL    HW216427   8.294  10.328   2.197  0.1542 -0.4143 -0.2631
 4384SOL     OW16428   8.773  10.124   7.290  0.6194 -0.2173  0.3514
 4384SOL    HW116429   8.702  10.100   7.350  0.5906  0.8568  0.7636
 4384SOL    HW216430   8.836  10.170   7.345  0.7606  0.4809 -0.3797
 4385SOL     OW16431   2.812  10.036   9.311  0.1889  0.0841  0.3739
 4385SOL    HW116432   2.773   9.973   9.373  1.0431 -0.9389 -0.1032
 4385SOL    HW216433   2.905  10.034   9.330  0.4198  0.0113 -0.7213
 4386SOL     OW16434   8.263   9.990   4.916  0.2503 -0.0523  0.3106
 4386SOL    HW116435   8.214   9.915   4.882 -3.4431  1.7015  1.2534
 4386SOL    HW216436   8.313   9.954   4.989  2.5983 -2.4269 -2.2043
 4387SOL     OW16437  10.470   1.441  11.189  0.5810  0.1010  0.3934
 4387SOL    HW116438  10.537   1.476  11.130 -0.6863  2.6026  0.2989
 4387SOL    HW216439  10.518   1.417  11.268  1.6805  1.6033  0.2379
 4388SOL     OW16440   2.119   9.738   4.183  0.4585 -0.0115  0.4595
 4388SOL    HW116441   2.186   9.806   4.177  2.1391 -1.6454 -0.2275
 4388SOL    HW216442   2.126   9.690   4.101 -0.1246 -1.4778  1.2277
 4389SOL     OW16443   5.703  10.725   9.302  0.3332  0.1357 -0.0539
 4389SOL    HW116444   5.657  10.656   9.253  0.1039 -0.0698  0.4411
 4389SOL    HW216445   5.732  10.682   9.382  0.8816  0.4175 -0.1001
 4390SOL     OW16446   5.482   3.620  11.038 -0.1168 -0.0841 -0.2644
 4390SOL    HW116447   5.495   3.527  11.017  0.6928  0.0295 -0.3153
 4390SOL    HW216448   5.555   3.642  11.096 -0.0579  0.6226 -0.5935
 4391SOL     OW16449   7.880   8.168  11.301 -0.3870  0.0390 -0.3752
 4391SOL    HW116450   7.805   8.214  11.264 -0.3007 -0.6121 -1.3826
 4391SOL    HW216451   7.857   8.075  11.294 -0.2300 -0.1149  0.9284
 4392SOL     OW16452   7.053   7.077   0.562  0.4758 -0.5240  0.0530
 4392SOL    HW116453   7.047   6.986   0.532 -2.2347 -1.0276  1.8049
 4392SOL    HW216454   7.012   7.128   0.493 -2.0290 -1.2103  0.9485
 4393SOL     OW16455  10.484   9.484   4.025  0.0793  0.6469 -0.2256
 4393SOL    HW116456  10.455   9.484   4.116 -0.1572 -0.2764 -0.2850
 4393SOL    HW216457  10.475   9.574   3.996  1.2378  1.1874  1.0034
 4394SOL     OW16458   8.016   4.445   6.649 -0.2311  0.0609 -0.1625
 4394SOL    HW116459   8.014   4.383   6.723 -0.7341  1.1910  0.8103
 4394SOL    HW216460   7.926   4.444   6.616 -0.6071  1.2641  0.7474
 4395SOL     OW16461   6.016   8.592   8.317 -0.3267  0.1562 -0.3028
 4395SOL    HW116462   5.933   8.558   8.284 -0.8548  0.0302  1.0791
 4395SOL    HW216463   5.997   8.619   8.407  0.9823  0.7167 -0.1666
 4396SOL     OW16464   6.785  10.509   4.449 -0.1200 -0.2425  0.0155
 4396SOL    HW116465   6.771  10.504   4.543  1.5986 -1.3540  0.2562
 4396SOL    HW216466   6.859  10.568   4.438 -0.1693 -0.2853 -0.6103
 4397SOL     OW16467   2.041   6.705   7.984 -0.6344 -0.3144 -0.2761
 4397SOL    HW116468   2.007   6.793   8.001  0.7760  0.2657 -0.3341
 4397SOL    HW216469   2.134   6.718   7.968 -0.2325 -1.9284  0.5695
 4398SOL     OW16470   9.185  10.945   9.831 -0.3388 -0.2091  0.7099
 4398SOL    HW116471   9.192  10.850   9.838 -0.4503 -0.1457  1.8050
 4398SOL    HW216472   9.208  10.978   9.918  0.3490  0.8078  0.1595
 4399SOL     OW16473   2.995  11.388   8.790 -0.5299 -0.1183 -0.3090
 4399SOL    HW116474   3.029  11.352   8.872 -0.5980 -2.3083 -1.1866
 4399SOL    HW216475   2.922  11.443   8.817  0.0122 -0.0700  1.1568
 4400SOL     OW16476  10.248   5.470   1.432 -0.4031  0.2433  0.9047
 4400SOL    HW116477  10.186   5.493   1.501 -1.4251  0.8132 -0.1595
 4400SOL    HW216478  10.248   5.546   1.373  2.0043  0.6493  1.3052
 4401SOL     OW16479   0.691   3.976   8.771  0.2310  0.4736 -0.4700
 4401SOL    HW116480   0.611   4.007   8.728 -1.7419  0.8950  3.0684
 4401SOL    HW216481   0.744   4.055   8.782 -1.4044  1.3746  1.8456
 4402SOL     OW16482   7.111   9.862   8.591 -0.4160 -0.5601 -1.0036
 4402SOL    HW116483   7.146   9.869   8.502  3.3710  0.3665  0.3477
 4402SOL    HW216484   7.092   9.952   8.616  1.4845 -0.3902  0.0430
 4403SOL     OW16485   2.496   8.386   1.051  0.9178 -0.2903  0.0639
 4403SOL    HW116486   2.529   8.466   1.009  0.7505  0.1860  0.8080
 4403SOL    HW216487   2.563   8.320   1.033  1.7896  0.4026  0.6889
 4404SOL     OW16488   1.141  10.115   1.519 -0.2447  0.1111  0.3204
 4404SOL    HW116489   1.209  10.182   1.519  0.8057 -0.8700 -1.6854
 4404SOL    HW216490   1.124  10.098   1.611  0.5005  2.0923  0.8607
 4405SOL     OW16491   8.997   8.453   6.622 -0.0059  0.3875 -0.0830
 4405SOL    HW116492   9.007   8.473   6.529  0.3125 -1.0258 -0.3836
 4405SOL    HW216493   8.916   8.496   6.647 -1.1457 -0.7878 -1.5254
 4406SOL     OW16494   7.115   1.652   9.908  0.3397 -0.1516  0.4842
 4406SOL    HW116495   7.174   1.632   9.980  1.4647  1.9134  0.2057
 4406SOL    HW216496   7.138   1.589   9.840  0.9130 -0.5743  1.0601
 4407SOL     OW16497  10.685   9.792   8.502  0.1005 -0.0786  0.4205
 4407SOL    HW116498  10.735   9.845   8.564  1.8333  0.1233 -1.0798
 4407SOL    HW216499  10.697   9.835   8.418 -0.0331 -1.7762 -0.5066
 4408SOL     OW16500  10.251   6.401   3.010 -0.0139  0.5233 -0.3009
 4408SOL    HW116501  10.319   6.376   3.072 -1.4175 -3.0457  0.0102
 4408SOL    HW216502  10.276   6.359   2.928 -1.8223 -0.9828 -0.1433
 4409SOL     OW16503   5.742   2.583   9.123  0.5707  0.2726 -0.0568
 4409SOL    HW116504   5.808   2.602   9.056  1.5439  2.4395  1.3990
 4409SOL    HW216505   5.663   2.630   9.093  0.5924  0.1293 -0.3395
 4410SOL     OW16506   7.997   1.399   3.263  0.1970 -0.2780 -0.2388
 4410SOL    HW116507   7.976   1.372   3.352 -0.1781  1.4737  0.2374
 4410SOL    HW216508   8.076   1.350   3.241 -0.0479 -1.1832  0.8152
 4411SOL     OW16509   2.978   9.433   5.201  0.5320  0.1029  0.4205
 4411SOL    HW116510   2.914   9.413   5.270  0.5640 -1.1846  0.0984
 4411SOL    HW216511   3.011   9.520   5.224 -0.9854  0.5962  0.8572
 4412SOL     OW16512   5.406   6.769   5.155 -0.2892 -0.6734 -0.0989
 4412SOL    HW116513   5.423   6.692   5.210 -2.2022 -2.3585 -1.7087
 4412SOL    HW216514   5.393   6.733   5.067 -1.6150  1.4698 -0.8447
 4413SOL     OW16515   3.501  10.361   2.534  0.1125 -0.6549  0.1756
 4413SOL    HW116516   3.555  10.317   2.600  0.4891  1.0168  1.0381
 4413SOL    HW216517   3.504  10.453   2.559  0.1459  0.0192 -2.1264
 4414SOL     OW16518   5.178   6.190   6.466  0.0186 -0.8621  0.2315
 4414SOL    HW116519   5.187   6.207   6.372  2.3489  0.2357  0.5844
 4414SOL    HW216520   5.091   6.222   6.488 -0.3240 -0.5472 -1.4316
 4415SOL     OW16521   7.149   9.259   8.921  0.0200 -0.2883  1.0528
 4415SOL    HW116522   7.127   9.234   8.832  0.3182  1.0206  0.5830
 4415SOL    HW216523   7.235   9.219   8.937 -0.0698 -0.5881  0.7841
 4416SOL     OW16524   1.938   8.436   2.499 -0.4307 -0.1441 -0.3274
 4416SOL    HW116525   2.019   8.470   2.462  1.1585 -1.2526  1.9405
 4416SOL    HW216526   1.914   8.363   2.442  1.1203 -0.8896 -0.0593
 4417SOL     OW16527   7.195  10.751   2.080 -0.1351 -0.0087 -0.4152
 4417SOL    HW116528   7.234  10.738   2.166 -1.8788  0.9509  0.5782
 4417SOL    HW216529   7.218  10.841   2.056 -4.2049  1.8724  1.7107
 4418SOL     OW16530   2.294   8.978   4.989  0.1389 -0.4577 -0.2253
 4418SOL    HW116531   2.274   8.918   4.917  0.2950  1.2250 -1.7595
 4418SOL    HW216532   2.367   9.031   4.956 -0.5793  1.1687  0.6829
 4419SOL     OW16533   5.767  11.349   2.799  0.1769  0.5556  0.5787
 4419SOL    HW116534   5.714  11.362   2.721  0.0931  1.7358  0.8139
 4419SOL    HW216535   5.753  11.257   2.823  1.4856 -0.3441 -1.7088
 4420SOL     OW16536   6.841   0.248   7.843  0.2052  0.5270  0.7415
 4420SOL    HW116537   6.845   0.334   7.885 -1.8858  1.0089  0.0840
 4420SOL    HW216538   6.753   0.216   7.863  0.0356 -0.2985 -1.1514
 4421SOL     OW16539  10.542   6.860  11.081 -0.2208  0.2863 -0.1105
 4421SOL    HW116540  10.618   6.885  11.027  0.0527 -0.2124  0.0420
 4421SOL    HW216541  10.552   6.766  11.094 -2.0506 -0.2506 -1.9612
 4422SOL     OW16542   4.783   2.570   1.991  0.0768 -0.2095  0.0387
 4422SOL    HW116543   4.830   2.487   1.999  1.6288  0.6896  0.6830
 4422SOL    HW216544   4.839   2.624   1.934 -1.7291 -0.1423 -1.7661
 4423SOL     OW16545   3.691   8.630   0.770  0.0043 -0.4833 -0.3204
 4423SOL    HW116546   3.715   8.568   0.701  0.1804 -1.7390  0.8405
 4423SOL    HW216547   3.769   8.685   0.781  1.2445 -2.3876  1.0949
 4424SOL     OW16548   0.773  10.896   3.573 -0.3578  0.2002 -0.8675
 4424SOL    HW116549   0.696  10.888   3.628  0.1797 -0.0787 -0.1348
 4424SOL    HW216550   0.783  10.810   3.532  0.3658 -0.2279  0.1528
 4425SOL     OW16551  11.383   9.667   7.395 -0.2777 -0.8211 -1.1032
 4425SOL    HW116552  11.467   9.635   7.360 -0.6504  1.0121 -4.0045
 4425SOL    HW216553  11.373   9.754   7.357 -1.3450  1.0752  2.9436
 4426SOL     OW16554   2.107   8.829   0.320 -0.2960 -0.1784  0.1128
 4426SOL    HW116555   2.192   8.824   0.276  0.0273 -0.3976  0.7514
 4426SOL    HW216556   2.072   8.740   0.315 -0.0727 -0.3024  0.6459
 4427SOL     OW16557   0.609   1.097   5.906  0.1205 -0.6071 -0.3908
 4427SOL    HW116558   0.572   1.143   5.831  0.5264  0.2195 -0.0987
 4427SOL    HW216559   0.545   1.110   5.976  0.3181 -0.3258 -0.2593
 4428SOL     OW16560   9.777   8.396  10.119 -0.2384  0.5271  0.0867
 4428SOL    HW116561   9.683   8.403  10.104 -0.4258 -0.7429  0.5902
 4428SOL    HW216562   9.788   8.417  10.212 -0.3400 -1.6497  0.6292
 4429SOL     OW16563   9.600   5.394   6.069 -0.0865  0.0067  0.4764
 4429SOL    HW116564   9.691   5.369   6.086 -0.2231 -0.6091  0.3424
 4429SOL    HW216565   9.563   5.318   6.025 -0.6030  0.3502  0.3098
 4430SOL     OW16566   8.081  10.074   7.253  0.1230 -0.0477  0.5674
 4430SOL    HW116567   8.023  10.024   7.195 -0.0108 -0.4362  1.0256
 4430SOL    HW216568   8.169  10.053   7.223  0.0371  2.0090 -1.3594
 4431SOL     OW16569   6.081   5.319   3.670  0.1911  0.3387  0.0230
 4431SOL    HW116570   6.144   5.385   3.643 -0.8616  1.7221  0.8190
 4431SOL    HW216571   6.066   5.266   3.591  2.4371 -0.1718 -0.1334
 4432SOL     OW16572   7.106   0.641  10.314 -0.3078 -0.3499  0.1701
 4432SOL    HW116573   7.193   0.647  10.354 -1.4536  0.2738  2.8060
 4432SOL    HW216574   7.090   0.729  10.280 -0.4710 -0.0361  1.0288
 4433SOL     OW16575   1.545   1.147   8.592  0.2761 -0.0340 -0.3747
 4433SOL    HW116576   1.488   1.150   8.669 -0.1860  1.3140 -0.7384
 4433SOL    HW216577   1.509   1.077   8.538  0.1787 -0.5218  0.3113
 4434SOL     OW16578  11.367   5.236   7.341  0.0382  0.6789 -0.2101
 4434SOL    HW116579  11.284   5.280   7.360  0.6070  2.2245 -1.1581
 4434SOL    HW216580  11.362   5.213   7.249 -0.2647 -1.3683  0.2715
 4435SOL     OW16581   5.399   4.758   8.838  0.1114  0.0600 -0.1792
 4435SOL    HW116582   5.417   4.702   8.763 -1.9933  0.5545 -1.1159
 4435SOL    HW216583   5.403   4.698   8.913 -1.2400 -1.2261 -1.0632
 4436SOL     OW16584   7.541   6.844   6.326 -0.8562 -0.0323 -0.0280
 4436SOL    HW116585   7.472   6.911   6.323 -2.1727 -1.3565 -0.4804
 4436SOL    HW216586   7.501   6.770   6.371 -0.2175 -1.3572 -1.5287
 4437SOL     OW16587   2.193   9.431   4.855  0.2206  0.3914 -0.2990
 4437SOL    HW116588   2.116   9.459   4.805  1.1043  2.6918 -0.4897
 4437SOL    HW216589   2.259   9.412   4.788  0.5144  0.6327 -0.0767
 4438SOL     OW16590   5.320   8.234   8.383 -0.5167  0.8374  0.2694
 4438SOL    HW116591   5.232   8.204   8.362 -0.2434  0.8000 -0.9199
 4438SOL    HW216592   5.308   8.296   8.455 -1.6032  1.3587 -0.3298
 4439SOL     OW16593   4.586   3.027   2.706 -0.0140 -0.2032 -0.3184
 4439SOL    HW116594   4.648   3.100   2.700 -0.6018  0.3953  0.6309
 4439SOL    HW216595   4.635   2.952   2.672  1.3107  0.2110  0.5748
 4440SOL     OW16596   4.615   6.245   4.184 -0.5606  0.0973  0.2569
 4440SOL    HW116597   4.642   6.200   4.264 -2.1911  1.3860  1.6234
 4440SOL    HW216598   4.525   6.215   4.169  0.0450 -0.9035 -1.7391
 4441SOL     OW16599   6.189   5.452   0.082 -0.6548  0.0328 -0.1537
 4441SOL    HW116600   6.249   5.520   0.116  0.3500 -0.7861 -0.2324
 4441SOL    HW216601   6.153   5.491   0.002 -1.7512  1.3136  0.9131
 4442SOL     OW16602   1.606   5.937  11.339  0.2896 -0.5428 -0.6131
 4442SOL    HW116603   1.650   5.871  11.286  1.2356 -0.1645 -0.3192
 4442SOL    HW216604   1.656   6.017  11.325 -0.2860 -0.1047 -0.2422
 4443SOL     OW16605   6.154   8.177   1.377  0.1504 -0.2318  0.0312
 4443SOL    HW116606   6.181   8.088   1.401  0.3577 -0.0781  0.3660
 4443SOL    HW216607   6.099   8.206   1.449  0.9381  0.3071  0.4257
 4444SOL     OW16608   5.232   2.007   5.826 -0.0611  0.1806 -0.4728
 4444SOL    HW116609   5.264   2.081   5.879 -0.9233 -0.1181  0.5044
 4444SOL    HW216610   5.136   2.012   5.833 -0.1641 -0.3686 -1.3350
 4445SOL     OW16611  10.186   0.453   4.133 -0.2599 -0.2229 -0.4116
 4445SOL    HW116612  10.229   0.435   4.050  1.4960 -1.3902  0.6687
 4445SOL    HW216613  10.238   0.524   4.172 -1.0510  0.3005 -0.2688
 4446SOL     OW16614   2.604   1.042   4.008  0.8576  0.1841  0.1030
 4446SOL    HW116615   2.510   1.043   4.024  0.8531  0.0265  0.0897
 4446SOL    HW216616   2.629   1.134   4.003  0.4200  0.2410 -1.6062
 4447SOL     OW16617   8.110   0.508   3.068 -0.7041  0.0550 -0.1771
 4447SOL    HW116618   8.185   0.547   3.024 -1.0479  0.8460 -0.0788
 4447SOL    HW216619   8.128   0.520   3.161 -1.5074  1.3369 -0.1729
 4448SOL     OW16620   6.426   4.330   8.830  0.3330 -0.1913  0.2124
 4448SOL    HW116621   6.438   4.242   8.794 -3.6525  0.3226 -3.1314
 4448SOL    HW216622   6.380   4.316   8.913 -0.1805 -1.3358 -0.2338
 4449SOL     OW16623   0.674   3.316   3.484  0.0606  0.4079 -0.2976
 4449SOL    HW116624   0.606   3.347   3.425 -0.2646 -0.6181 -0.4813
 4449SOL    HW216625   0.677   3.221   3.470  0.8631  0.3143  0.4031
 4450SOL     OW16626  10.784   5.609   7.647  0.4915 -0.2181  0.0919
 4450SOL    HW116627  10.699   5.581   7.681  0.0331 -0.8632 -1.5296
 4450SOL    HW216628  10.842   5.534   7.662  1.1897  0.7029  2.4520
 4451SOL     OW16629   4.903   9.627   0.538 -0.3126  0.2114 -0.6808
 4451SOL    HW116630   4.890   9.532   0.531  1.0467 -0.0068 -0.5480
 4451SOL    HW216631   4.970   9.646   0.472 -0.1759  0.9896 -0.3197
 4452SOL     OW16632   2.462   1.506   9.398  0.3213 -0.1504  0.5078
 4452SOL    HW116633   2.454   1.522   9.303  3.7340  1.1521  0.2740
 4452SOL    HW216634   2.409   1.574   9.438  0.8820  0.9455 -0.5353
 4453SOL     OW16635   5.167   5.491   9.649  0.0864  0.3101  0.0653
 4453SOL    HW116636   5.124   5.457   9.571  1.9376  2.3793 -2.0575
 4453SOL    HW216637   5.228   5.422   9.676 -0.1693 -0.2171 -0.6997
 4454SOL     OW16638  10.196  10.770   5.159 -0.2953  0.1058 -0.0119
 4454SOL    HW116639  10.200  10.848   5.104 -2.4823 -0.9840 -1.8990
 4454SOL    HW216640  10.280  10.726   5.143  0.7604  1.7591  0.6975
 4455SOL     OW16641   6.857   1.412   8.192 -0.7450  0.8935 -0.3227
 4455SOL    HW116642   6.821   1.437   8.278  0.1711 -0.7336  0.5868
 4455SOL    HW216643   6.798   1.452   8.129 -2.8937  0.1083  1.0893
 4456SOL     OW16644   1.619   3.845   9.964  0.4035  0.0428 -0.1968
 4456SOL    HW116645   1.710   3.816   9.961  0.4625  0.1244  0.5541
 4456SOL    HW216646   1.575   3.794   9.896  1.2243  0.8038 -1.3254
 4457SOL     OW16647   4.111   2.689   8.746  0.1577 -0.1387 -0.4481
 4457SOL    HW116648   4.152   2.706   8.661  0.7198 -0.4701 -0.2458
 4457SOL    HW216649   4.029   2.737   8.742 -0.4591 -1.2005 -1.6988
 4458SOL     OW16650   9.742   1.283   3.904 -0.0405  0.3388  0.5500
 4458SOL    HW116651   9.746   1.318   3.994  0.2792  0.9086  0.3232
 4458SOL    HW216652   9.793   1.345   3.853 -0.7716  0.3784 -0.1477
 4459SOL     OW16653   2.662   2.816  10.320  0.2768  0.0059  0.4783
 4459SOL    HW116654   2.599   2.861  10.265  1.1582  0.7581  0.0519
 4459SOL    HW216655   2.644   2.848  10.409 -2.2049 -2.4028  0.9878
 4460SOL     OW16656   4.475   6.422   4.462  0.0251  0.3389  0.0963
 4460SOL    HW116657   4.479   6.504   4.511 -0.3678 -0.0549  0.8117
 4460SOL    HW216658   4.565   6.391   4.458  0.0952  0.5136  0.3320
 4461SOL     OW16659  10.803   3.107   8.375  0.4866  0.1825  0.1339
 4461SOL    HW116660  10.735   3.173   8.358  1.7888  1.7823  0.8373
 4461SOL    HW216661  10.817   3.064   8.291 -0.6998  0.4939 -0.2439
 4462SOL     OW16662   2.222   9.044   3.245  0.4881 -0.2274  0.0440
 4462SOL    HW116663   2.126   9.033   3.245  0.4240  0.2772 -0.6502
 4462SOL    HW216664   2.238   9.107   3.315  0.2920 -0.1577  0.0279
 4463SOL     OW16665  10.185   2.854   3.929  0.1922  0.1998 -0.2302
 4463SOL    HW116666  10.247   2.916   3.892  0.0948  0.6614  0.3592
 4463SOL    HW216667  10.215   2.842   4.019 -1.3571  1.5137  0.5173
 4464SOL     OW16668  10.594  11.211   5.504 -0.8689 -0.4148 -0.9070
 4464SOL    HW116669  10.560  11.136   5.554 -0.6334 -0.4677 -0.8209
 4464SOL    HW216670  10.677  11.179   5.467  0.7462  0.6592  1.4877
 4465SOL     OW16671   1.845   8.572  10.800 -0.3144  0.2839 -0.4135
 4465SOL    HW116672   1.775   8.511  10.822  0.2062  0.1688  1.0549
 4465SOL    HW216673   1.910   8.520  10.753  0.1179 -0.3238  0.8128
 4466SOL     OW16674   2.222   1.472   4.711  0.3421  0.0759  0.5229
 4466SOL    HW116675   2.251   1.445   4.798 -1.4963 -0.1026  1.1170
 4466SOL    HW216676   2.148   1.415   4.691  0.8323 -0.0009 -1.2593
 4467SOL     OW16677   3.579   9.810   7.325 -0.1892  0.9606  0.6528
 4467SOL    HW116678   3.499   9.759   7.319  0.4502  0.0615 -2.5880
 4467SOL    HW216679   3.590   9.847   7.237  2.1777  2.2759  1.4021
 4468SOL     OW16680   4.934   9.869   4.680 -0.4141  0.2778 -0.0207
 4468SOL    HW116681   4.992   9.876   4.755  0.1849  2.0601 -0.5983
 4468SOL    HW216682   4.848   9.899   4.712  0.0539  1.9507 -0.2267
 4469SOL     OW16683   2.560   8.334   8.142  0.2186  0.0084  0.3721
 4469SOL    HW116684   2.478   8.313   8.098  1.2012 -0.6555 -1.2571
 4469SOL    HW216685   2.625   8.276   8.101  1.8127  1.6262  0.4520
 4470SOL     OW16686   3.369  11.182   6.708  0.0445  0.1388  0.1543
 4470SOL    HW116687   3.400  11.185   6.798  1.5165 -1.6482 -0.2346
 4470SOL    HW216688   3.323  11.098   6.701 -3.1657  1.7625  0.1169
 4471SOL     OW16689   3.141   1.702   3.771 -0.1950 -0.5150  0.1171
 4471SOL    HW116690   3.058   1.739   3.801  0.1625  0.9019 -0.5773
 4471SOL    HW216691   3.124   1.608   3.763 -2.7588  0.0731 -3.1411
 4472SOL     OW16692   9.041   3.262   5.947  0.1091  0.6353  0.0482
 4472SOL    HW116693   8.971   3.316   5.911  0.0680  0.6056  0.0834
 4472SOL    HW216694   9.048   3.290   6.039  1.6576  2.2229 -0.5066
 4473SOL     OW16695   5.816   4.548   8.901 -0.2994 -0.0009  0.7699
 4473SOL    HW116696   5.860   4.516   8.980  0.7689 -0.3621  0.0608
 4473SOL    HW216697   5.723   4.544   8.921 -0.0190  1.8594  2.7494
 4474SOL     OW16698  11.386   3.620   9.777 -0.1573 -0.4806  0.6782
 4474SOL    HW116699  11.304   3.640   9.822 -0.0394  2.3660 -0.1497
 4474SOL    HW216700  11.445   3.590   9.846 -1.3963 -0.9440  1.5674
 4475SOL     OW16701   1.130   2.565   4.195 -0.8463 -0.0481  0.5395
 4475SOL    HW116702   1.041   2.542   4.224 -0.8802  0.6253  0.9999
 4475SOL    HW216703   1.176   2.482   4.190 -1.1353 -0.2870  1.5947
 4476SOL     OW16704  10.204   8.566   8.750 -0.0179  0.1471 -0.8310
 4476SOL    HW116705  10.182   8.607   8.834  1.9222 -0.4723  0.0385
 4476SOL    HW216706  10.138   8.497   8.739 -1.5898  1.5817 -0.9272
 4477SOL     OW16707   1.342   3.007   8.479  0.0882  0.0505 -0.3796
 4477SOL    HW116708   1.418   3.061   8.455  1.4633 -1.7835 -0.3271
 4477SOL    HW216709   1.289   3.065   8.533  0.1803  2.1796 -2.4136
 4478SOL     OW16710   0.068  11.088   5.428 -0.6226 -0.5712  0.4143
 4478SOL    HW116711   0.024  11.144   5.492 -0.2318 -1.1904  1.2267
 4478SOL    HW216712   0.123  11.030   5.480 -0.2295 -1.0219 -0.4894
 4479SOL     OW16713   0.725   4.328   4.137 -0.3095 -0.0891 -0.0174
 4479SOL    HW116714   0.775   4.287   4.066 -0.0470  0.3481 -0.0912
 4479SOL    HW216715   0.661   4.383   4.092  0.0234  0.3842  0.0821
 4480SOL     OW16716   7.084  10.415   3.724  0.4567 -0.3875 -0.2269
 4480SOL    HW116717   7.095  10.321   3.738 -0.7170 -0.5973 -0.6488
 4480SOL    HW216718   7.092  10.426   3.629 -2.0493 -0.4625 -0.5013
 4481SOL     OW16719  10.201   8.560   1.913  0.1289  0.1664  0.0324
 4481SOL    HW116720  10.239   8.476   1.890  1.0976  0.9823 -1.4810
 4481SOL    HW216721  10.115   8.561   1.871  0.2729  0.0934 -0.2603
 4482SOL     OW16722   2.277   3.768   1.473  0.5750  0.2787  0.5211
 4482SOL    HW116723   2.240   3.693   1.520 -0.0824  0.2504 -0.0367
 4482SOL    HW216724   2.357   3.733   1.432  0.0606 -0.2230 -0.0672
 4483SOL     OW16725  11.051   4.231   0.462  0.2760 -0.3402 -0.2028
 4483SOL    HW116726  10.997   4.306   0.485  0.1350 -0.6178  0.3918
 4483SOL    HW216727  11.108   4.263   0.391 -0.8110 -0.1074 -0.9955
 4484SOL     OW16728   2.143  10.800   9.916  0.3154  0.4386  0.6346
 4484SOL    HW116729   2.199  10.838   9.848 -1.2585  2.5057  0.4064
 4484SOL    HW216730   2.061  10.781   9.871 -0.0798 -0.0630  1.5482
 4485SOL     OW16731   1.479   5.413   2.101 -0.2406 -0.5087 -0.1162
 4485SOL    HW116732   1.521   5.346   2.154  0.6197 -1.8635 -2.3605
 4485SOL    HW216733   1.466   5.371   2.016 -1.9495  1.3965 -0.8714
 4486SOL     OW16734   3.269   5.130   1.446 -0.3808  0.1804  0.0777
 4486SOL    HW116735   3.271   5.219   1.483  0.2561  0.8987 -1.5527
 4486SOL    HW216736   3.296   5.074   1.518 -3.7930  0.8653  2.1118
 4487SOL     OW16737   9.952   9.075   5.913 -0.7970  0.0960 -0.5756
 4487SOL    HW116738   9.964   9.124   5.831  1.5528  0.8213  0.1305
 4487SOL    HW216739   9.870   9.109   5.949 -0.3119  2.0192 -1.1448
 4488SOL     OW16740   2.968   5.023   9.398 -0.6503 -0.3610  0.3338
 4488SOL    HW116741   2.872   5.013   9.395 -0.7569 -0.1352  1.8161
 4488SOL    HW216742   2.993   4.976   9.478  0.4552 -0.2358  0.0695
 4489SOL     OW16743   7.376   9.895   3.327  0.4491  0.0214  0.4802
 4489SOL    HW116744   7.331   9.964   3.375  0.5854 -0.4419  1.2984
 4489SOL    HW216745   7.354   9.815   3.374  1.8147 -0.2608  0.6758
 4490SOL     OW16746   3.810   7.125   3.581  0.6100  0.6881  0.4639
 4490SOL    HW116747   3.828   7.032   3.566 -1.8357 -0.0723  1.6285
 4490SOL    HW216748   3.892   7.161   3.615  1.2888 -1.3154  1.0576
 4491SOL     OW16749  10.642   0.332   6.004  0.2862 -0.5310  0.0260
 4491SOL    HW116750  10.576   0.263   6.011 -0.0397 -0.0520  2.0996
 4491SOL    HW216751  10.718   0.297   6.051  0.3335  0.2660  0.5595
 4492SOL     OW16752   7.928   8.831   0.622 -0.1377  0.1888  0.0459
 4492SOL    HW116753   7.969   8.768   0.563 -0.3745  0.6690 -0.6392
 4492SOL    HW216754   7.834   8.819   0.607 -0.2932 -1.0089  1.7049
 4493SOL     OW16755   0.606   4.130   1.771 -0.1728  0.4187  0.2193
 4493SOL    HW116756   0.623   4.223   1.764  0.6717  0.2258 -0.4207
 4493SOL    HW216757   0.681   4.095   1.819 -0.2041 -0.0119 -0.0407
 4494SOL     OW16758   2.482   0.274   4.913 -0.0801 -0.2661 -0.3836
 4494SOL    HW116759   2.510   0.365   4.913 -0.5195 -0.1134 -1.5219
 4494SOL    HW216760   2.399   0.273   4.960  0.6902 -0.3578  1.0307
 4495SOL     OW16761  10.134   4.820  10.507  0.3367 -0.4532  0.4050
 4495SOL    HW116762  10.089   4.885  10.561  0.5206 -0.6036  0.7418
 4495SOL    HW216763  10.131   4.739  10.558  2.2545 -0.1383  1.1254
 4496SOL     OW16764   5.241   4.563   6.780 -0.1957  0.2703 -0.2023
 4496SOL    HW116765   5.191   4.610   6.713 -0.5446  0.3766  0.1284
 4496SOL    HW216766   5.324   4.542   6.737 -1.1364 -1.3862 -1.3523
 4497SOL     OW16767   1.907  11.302   1.338  0.5049  0.5698  0.0549
 4497SOL    HW116768   1.851  11.262   1.271  0.3019  0.5700  0.2235
 4497SOL    HW216769   1.960  11.230   1.372  0.0350  0.4070  0.4638
 4498SOL     OW16770   3.609   6.410   2.030  0.2959 -0.3155  0.1220
 4498SOL    HW116771   3.699   6.422   2.001 -0.2039 -0.6578 -1.6850
 4498SOL    HW216772   3.566   6.365   1.957 -1.4717  0.3337  0.7082
 4499SOL     OW16773  10.509  11.148   0.195  0.4629 -0.6030 -0.4067
 4499SOL    HW116774  10.565  11.171   0.121  0.0358 -0.3645 -0.6579
 4499SOL    HW216775  10.557  11.179   0.272 -0.5377  2.0348 -0.7844
 4500SOL     OW16776  10.391   4.644   9.362 -0.0645  0.4863  0.4521
 4500SOL    HW116777  10.305   4.685   9.360  0.0938  0.9330  1.8873
 4500SOL    HW216778  10.373   4.550   9.354 -0.9654  0.2948  3.3621
 4501SOL     OW16779   6.824   8.285   0.141 -0.7376  0.4809  0.0007
 4501SOL    HW116780   6.858   8.273   0.230 -1.3913  1.1675  0.3578
 4501SOL    HW216781   6.895   8.326   0.093 -0.3260 -0.0297  0.1638
 4502SOL     OW16782   7.063   3.288   3.331  0.7120  0.3597  0.6475
 4502SOL    HW116783   7.048   3.382   3.323  0.4967  0.1546 -2.4900
 4502SOL    HW216784   7.159   3.279   3.329  0.9022  0.5786  3.7041
 4503SOL     OW16785   8.768   6.385   0.641 -0.1590 -0.0360 -0.7411
 4503SOL    HW116786   8.682   6.345   0.651 -0.1669 -0.5169 -2.3680
 4503SOL    HW216787   8.826   6.332   0.697 -0.9560  0.5699  0.7124
 4504SOL     OW16788   9.581   5.154  11.282 -0.3737  0.0431  0.1840
 4504SOL    HW116789   9.514   5.188  11.341 -1.2421 -0.7395 -0.3183
 4504SOL    HW216790   9.532   5.110  11.213  0.6313  0.4473 -0.8280
 4505SOL     OW16791   7.005   1.182   8.788  0.2799 -0.5359 -0.2928
 4505SOL    HW116792   6.972   1.114   8.729 -0.8030 -0.1701 -0.1328
 4505SOL    HW216793   7.023   1.257   8.730 -1.5966  0.1178 -0.1010
 4506SOL     OW16794   1.154   0.891  10.930  0.3771  0.7515  0.3384
 4506SOL    HW116795   1.058   0.899  10.933  0.3961  0.7649  1.5344
 4506SOL    HW216796   1.183   0.970  10.885 -0.2212  0.1741 -1.1232
 4507SOL     OW16797   0.518   1.774   4.828 -0.5951 -1.1750  0.1265
 4507SOL    HW116798   0.604   1.788   4.789 -1.1484 -1.3461 -1.1869
 4507SOL    HW216799   0.487   1.692   4.790 -1.5168 -0.9054  0.2689
 4508SOL     OW16800   4.206   0.267   8.827  0.2074 -0.4720 -0.7724
 4508SOL    HW116801   4.122   0.258   8.872  0.4779  1.8583  0.3428
 4508SOL    HW216802   4.269   0.223   8.884  0.3056  1.1771  0.4790
 4509SOL     OW16803   6.187  10.212   1.719  0.3300 -0.2036 -0.3245
 4509SOL    HW116804   6.110  10.254   1.757  1.1522  1.0346  0.0094
 4509SOL    HW216805   6.223  10.159   1.790 -0.6402 -1.4191 -0.7121
 4510SOL     OW16806  10.903   7.122   9.360  0.5243 -0.0665 -0.0049
 4510SOL    HW116807  10.944   7.037   9.344 -1.4405 -0.9153 -0.9254
 4510SOL    HW216808  10.873   7.117   9.451 -0.8339 -0.9803 -0.4683
 4511SOL     OW16809   7.090   7.216   5.953 -0.5451 -0.2538  0.6869
 4511SOL    HW116810   7.175   7.259   5.968  0.0359 -0.7316 -1.0388
 4511SOL    HW216811   7.032   7.286   5.925 -0.3228 -0.1466  0.4888
 4512SOL     OW16812  10.344   3.324   5.604 -0.1046  0.2701  0.1027
 4512SOL    HW116813  10.416   3.269   5.636 -0.0400  0.2404 -0.0945
 4512SOL    HW216814  10.299   3.268   5.541 -0.7045  0.0446  0.7193
 4513SOL     OW16815   8.233   4.888   2.514  0.0243  0.0183 -0.4449
 4513SOL    HW116816   8.226   4.954   2.445 -1.3398 -1.2616 -1.5973
 4513SOL    HW216817   8.175   4.920   2.584 -0.9012 -0.0878 -1.1380
 4514SOL     OW16818   4.959  10.132  10.322  0.1648 -0.1902 -0.2190
 4514SOL    HW116819   4.915  10.052  10.293 -1.0057  0.2635  0.2412
 4514SOL    HW216820   5.052  10.118  10.301 -0.2349 -1.0134 -1.5815
 4515SOL     OW16821   0.898   1.670   6.113  0.2231 -0.0319 -0.3030
 4515SOL    HW116822   0.902   1.591   6.168  2.9480 -1.4955 -2.3539
 4515SOL    HW216823   0.867   1.739   6.172 -0.5625 -2.2472  2.0411
 4516SOL     OW16824   9.590   4.382   4.995 -0.4713  0.3023  0.2521
 4516SOL    HW116825   9.536   4.323   4.942 -1.2153 -0.1277  1.4417
 4516SOL    HW216826   9.667   4.398   4.941 -0.4063 -1.4693 -0.2694
 4517SOL     OW16827   7.243  11.128   0.643 -0.2761 -0.0323 -0.1537
 4517SOL    HW116828   7.209  11.164   0.725  1.3715  0.2146  0.4624
 4517SOL    HW216829   7.299  11.055   0.670  1.5010  0.9916 -0.8992
 4518SOL     OW16830   3.083   8.142   9.054  0.2908  0.1047  0.3405
 4518SOL    HW116831   3.034   8.102   9.126 -0.0336  0.3677  0.2632
 4518SOL    HW216832   3.038   8.114   8.975  1.5563 -1.4907  0.1245
 4519SOL     OW16833   8.857   7.597   5.884 -0.3068  0.1169 -0.1323
 4519SOL    HW116834   8.939   7.554   5.907  0.2435  1.0996 -0.1867
 4519SOL    HW216835   8.818   7.621   5.969  1.0991  2.5889 -0.0774
 4520SOL     OW16836   1.059  10.365   0.353  0.0281  0.0250  0.2867
 4520SOL    HW116837   1.085  10.326   0.269 -0.9337 -0.2404  0.1021
 4520SOL    HW216838   1.050  10.290   0.411  0.7034  0.2092  0.6460
 4521SOL     OW16839  10.212   7.252   8.505  0.2279  0.1696  0.2630
 4521SOL    HW116840  10.139   7.290   8.553 -0.6518  1.2620 -1.8531
 4521SOL    HW216841  10.183   7.164   8.482  0.3392 -0.0671  0.9985
 4522SOL     OW16842   1.211   3.587   5.191  0.0874  0.0260 -0.3225
 4522SOL    HW116843   1.148   3.650   5.156  1.8089  2.8740  1.3094
 4522SOL    HW216844   1.281   3.583   5.125  0.5918  0.8940  0.1427
 4523SOL     OW16845   6.539   5.216   9.746  0.6470 -0.0082  0.3184
 4523SOL    HW116846   6.588   5.296   9.765  1.6985 -0.4047 -0.6284
 4523SOL    HW216847   6.481   5.240   9.673  0.4309  0.0769  0.5153
 4524SOL     OW16848   0.362   0.948   6.379  0.0763  0.2034 -0.0704
 4524SOL    HW116849   0.292   1.011   6.397 -0.0213  0.1830 -0.3780
 4524SOL    HW216850   0.348   0.878   6.442  1.9559  1.8529  2.3928
 4525SOL     OW16851   6.433   1.089   5.414 -0.0973  0.0404  0.3605
 4525SOL    HW116852   6.482   1.024   5.363  0.1141  0.3564  0.1581
 4525SOL    HW216853   6.472   1.084   5.502  0.6918  0.6848  0.0624
 4526SOL     OW16854   9.871   0.895  11.187 -0.6408  0.2478  0.1183
 4526SOL    HW116855   9.918   0.937  11.260 -1.5114  0.3889  0.6083
 4526SOL    HW216856   9.803   0.958  11.163 -1.0043 -0.2379 -0.1373
 4527SOL     OW16857  10.912   6.264  10.040  0.6359  0.0019 -0.4216
 4527SOL    HW116858  11.000   6.256  10.005  1.1953  1.2991  0.5914
 4527SOL    HW216859  10.906   6.195  10.107  0.4553 -0.8301 -1.2763
 4528SOL     OW16860   3.005   6.120   0.852  0.4879 -0.0964  0.2199
 4528SOL    HW116861   3.006   6.028   0.828 -1.2575 -0.6047  1.8664
 4528SOL    HW216862   3.057   6.124   0.933  1.7486  0.6483 -0.5852
 4529SOL     OW16863   3.931   8.608   5.273 -0.0037  0.4625  0.4285
 4529SOL    HW116864   3.929   8.701   5.252 -0.3325  0.2255 -0.6503
 4529SOL    HW216865   3.840   8.581   5.272  0.1336  0.0028  0.1781
 4530SOL     OW16866   0.958  10.710   4.731  0.0780  0.0728  0.3940
 4530SOL    HW116867   1.007  10.632   4.704 -1.4879 -0.7626 -0.1758
 4530SOL    HW216868   0.920  10.687   4.815  1.5701  1.1633  1.4260
 4531SOL     OW16869   9.420  10.434   3.218  0.1975 -0.8457  0.1827
 4531SOL    HW116870   9.508  10.461   3.193 -0.5395  0.0448 -1.6730
 4531SOL    HW216871   9.370  10.435   3.136 -1.6186 -0.9794  1.2207
 4532SOL     OW16872   3.388   4.349   7.131  0.1554  0.3372  0.0341
 4532SOL    HW116873   3.353   4.394   7.054 -0.7159  0.7287  0.6353
 4532SOL    HW216874   3.479   4.375   7.136 -0.1663  1.5102 -0.0226
 4533SOL     OW16875  10.655  11.178   7.185 -0.3062  0.7643 -0.4283
 4533SOL    HW116876  10.750  11.177   7.193 -0.4015 -1.2260  1.2693
 4533SOL    HW216877  10.635  11.112   7.118 -0.5595 -1.9452  2.1194
 4534SOL     OW16878   0.441   0.826   1.436  0.3604 -0.2298  0.4096
 4534SOL    HW116879   0.458   0.844   1.529 -0.3409 -2.1886  0.9761
 4534SOL    HW216880   0.449   0.731   1.428 -0.5220 -0.2006 -1.3383
 4535SOL     OW16881   1.098   5.902   0.216  0.0535 -0.7068 -0.0346
 4535SOL    HW116882   1.033   5.833   0.202  0.5138 -1.3604  0.8498
 4535SOL    HW216883   1.160   5.863   0.279  0.5627  0.3674  0.1550
 4536SOL     OW16884   2.735   6.328   6.667 -0.0991  0.5580  0.0876
 4536SOL    HW116885   2.811   6.269   6.666 -0.2447  0.3724 -0.1581
 4536SOL    HW216886   2.720   6.349   6.575 -1.4235 -0.8061 -0.0507
 4537SOL     OW16887   3.745   7.080   1.898 -0.1798 -0.1067 -0.0123
 4537SOL    HW116888   3.740   6.988   1.922  0.0266 -0.0551  0.2266
 4537SOL    HW216889   3.787   7.080   1.812  1.9950 -0.0904  1.0106
 4538SOL     OW16890   0.106   3.840   1.077  0.1565  0.0448  0.2594
 4538SOL    HW116891   0.101   3.770   1.012 -0.1943 -0.4633  0.8239
 4538SOL    HW216892   0.015   3.866   1.092  0.3455  1.4488 -0.8049
 4539SOL     OW16893   1.546   3.676   4.288  0.3047  0.2670 -0.4209
 4539SOL    HW116894   1.558   3.683   4.383  1.2326 -0.2315 -0.4941
 4539SOL    HW216895   1.627   3.710   4.251 -0.9360  2.6984 -1.1268
 4540SOL     OW16896   1.094  10.243   7.523 -0.9666 -0.1411  0.4848
 4540SOL    HW116897   1.028  10.208   7.464 -1.8577  0.9285  0.8146
 4540SOL    HW216898   1.058  10.229   7.611 -0.9911  0.8701  0.6486
 4541SOL     OW16899   5.179   6.598  10.596  0.1632  0.2880 -0.2677
 4541SOL    HW116900   5.111   6.628  10.657 -1.5750 -1.6353 -1.1292
 4541SOL    HW216901   5.256   6.583  10.651 -1.0772 -0.5404  1.3269
 4542SOL     OW16902   3.961   0.368   7.415  0.3083 -0.2513 -0.3406
 4542SOL    HW116903   3.997   0.405   7.496  1.4910  1.2746 -1.4984
 4542SOL    HW216904   3.878   0.329   7.441  0.2866  0.8916  1.4665
 4543SOL     OW16905   0.066  11.262   4.499 -0.0417 -0.5653  0.0656
 4543SOL    HW116906   0.077  11.289   4.408 -2.0603 -0.0952 -0.0904
 4543SOL    HW216907   0.104  11.333   4.551  0.6096 -0.5742 -0.3894
 4544SOL     OW16908   6.867   4.014   0.758  1.1632 -0.5000  0.1205
 4544SOL    HW116909   6.834   4.103   0.766  0.3849 -0.7350 -0.3700
 4544SOL    HW216910   6.833   3.969   0.836  0.5567 -0.6695 -0.2394
 4545SOL     OW16911  10.812   4.771   5.044 -0.3167  0.2129  0.0575
 4545SOL    HW116912  10.746   4.828   5.084 -0.1511  0.7436 -0.4113
 4545SOL    HW216913  10.895   4.812   5.068 -0.2054  0.3402 -0.5324
 4546SOL     OW16914   2.479   4.738  10.291  0.6681  0.3055 -0.1829
 4546SOL    HW116915   2.400   4.776  10.251  0.9810  0.1496 -0.9577
 4546SOL    HW216916   2.521   4.812  10.334  1.0355  0.7803 -1.3037
 4547SOL     OW16917   2.242   6.118   3.823  0.5177 -0.2595 -0.1263
 4547SOL    HW116918   2.298   6.134   3.900  0.5997 -1.9204  0.1813
 4547SOL    HW216919   2.229   6.205   3.786 -0.2372  0.7415  2.2492
 4548SOL     OW16920   1.653   8.321   9.568 -0.3336  0.0591  0.0428
 4548SOL    HW116921   1.585   8.260   9.541  0.0457  0.2542 -1.4917
 4548SOL    HW216922   1.637   8.400   9.516  0.7014  0.3154  0.0776
 4549SOL     OW16923   7.345   7.589   7.142 -0.6646 -0.4387 -0.2858
 4549SOL    HW116924   7.352   7.493   7.144  0.0645 -0.6178 -3.9754
 4549SOL    HW216925   7.435   7.620   7.150 -0.9664  0.0666  1.6982
 4550SOL     OW16926   9.026   6.146   6.781 -0.6411 -0.0048 -0.0155
 4550SOL    HW116927   8.952   6.176   6.727  0.3138  1.1519 -0.7483
 4550SOL    HW216928   9.096   6.208   6.761  0.7567 -1.4793  0.1248
 4551SOL     OW16929   9.662   9.166  11.025  0.1408 -0.2019 -0.0910
 4551SOL    HW116930   9.703   9.187  10.941  1.9262 -0.9129  0.5435
 4551SOL    HW216931   9.663   9.249  11.073 -1.1617  0.2790 -0.8394
 4552SOL     OW16932  10.196   1.616   9.051 -0.5068 -0.5247 -0.0508
 4552SOL    HW116933  10.216   1.708   9.032 -0.9599 -0.5913 -0.9037
 4552SOL    HW216934  10.279   1.580   9.084 -0.5686  0.4114  1.1827
 4553SOL     OW16935   4.630   7.835   4.079 -0.2041  0.0936  0.5105
 4553SOL    HW116936   4.597   7.832   3.989  0.7897 -0.2078  0.1424
 4553SOL    HW216937   4.724   7.843   4.070  0.1098 -1.8171  1.5093
 4554SOL     OW16938   2.549   1.193  10.265 -0.1519  0.1945  0.4314
 4554SOL    HW116939   2.503   1.126  10.215  1.1001 -0.7865  0.5277
 4554SOL    HW216940   2.553   1.159  10.354 -1.3008  1.3712  0.9643
 4555SOL     OW16941   4.046   2.909   6.258  0.0541  0.0841 -0.0275
 4555SOL    HW116942   4.052   2.826   6.210 -2.7858 -0.3994  0.2542
 4555SOL    HW216943   3.974   2.896   6.320  0.1999  2.4252  0.7493
 4556SOL     OW16944   2.083   3.468   4.859 -0.3052  0.6521 -0.3958
 4556SOL    HW116945   2.174   3.497   4.859  0.4393 -1.4904 -0.7878
 4556SOL    HW216946   2.037   3.534   4.807  1.3080  0.9985 -1.4702
 4557SOL     OW16947   1.509   2.161   6.325  0.8071 -0.4325 -0.2468
 4557SOL    HW116948   1.476   2.246   6.355  1.3366 -0.4698  0.4908
 4557SOL    HW216949   1.437   2.100   6.340  0.4235 -0.1153 -0.7816
 4558SOL     OW16950   5.788   3.222   3.184 -0.0349  0.3684 -0.3276
 4558SOL    HW116951   5.814   3.180   3.266  1.5331  0.7469 -0.5969
 4558SOL    HW216952   5.757   3.309   3.210  0.5746  0.5346 -0.1326
 4559SOL     OW16953   6.688   4.080   3.420  0.5671  0.5328  0.6734
 4559SOL    HW116954   6.716   4.059   3.330  1.5185 -0.4286  1.1672
 4559SOL    HW216955   6.704   4.174   3.428 -2.5715  1.3812 -1.1725
 4560SOL     OW16956  10.850   1.683   0.648  0.1656  0.0703 -0.4596
 4560SOL    HW116957  10.886   1.627   0.579  0.0053 -0.4981 -0.0960
 4560SOL    HW216958  10.926   1.714   0.696  0.3723  1.5918 -1.7128
 4561SOL     OW16959   9.150   2.926   9.534  0.9394  0.2816 -0.3073
 4561SOL    HW116960   9.174   2.992   9.468  2.0694 -0.0325 -0.2229
 4561SOL    HW216961   9.136   2.846   9.484  1.5810  0.0960 -0.1906
 4562SOL     OW16962   8.069   2.442  10.415 -0.1267  0.3090  0.6607
 4562SOL    HW116963   8.103   2.353  10.406 -2.5619 -0.6577  0.2638
 4562SOL    HW216964   8.086   2.483  10.330 -2.0854 -1.0063 -0.4475
 4563SOL     OW16965  10.769  10.196   2.887 -0.2969 -0.3129 -0.1613
 4563SOL    HW116966  10.796  10.220   2.976 -2.0428  3.6367 -0.4513
 4563SOL    HW216967  10.836  10.235   2.831  0.6131 -2.4925 -0.6565
 4564SOL     OW16968   0.687   8.408   0.349 -0.0440 -0.2859 -0.2450
 4564SOL    HW116969   0.724   8.359   0.276  0.0800  0.9920 -1.0718
 4564SOL    HW216970   0.614   8.354   0.380  0.2588 -1.1121 -0.9328
 4565SOL     OW16971   5.753   7.302   2.196  0.4549 -0.3926 -0.0900
 4565SOL    HW116972   5.809   7.334   2.125  0.4136  3.2081  1.2694
 4565SOL    HW216973   5.671   7.349   2.185  0.0274 -0.6776  1.6100
 4566SOL     OW16974  10.422  11.194   4.598  0.4475 -0.1058  0.4188
 4566SOL    HW116975  10.329  11.212   4.610  0.2432 -0.3166 -0.6815
 4566SOL    HW216976  10.459  11.278   4.569  0.3529 -0.3078 -0.3240
 4567SOL     OW16977   3.681   8.356  11.006  0.2923 -0.1297  0.1955
 4567SOL    HW116978   3.645   8.443  11.023  0.7279  0.6709 -2.4781
 4567SOL    HW216979   3.775   8.369  10.997  0.3246 -0.7967 -0.5735
 4568SOL     OW16980   3.329  10.914   6.647 -0.1527  0.3578  0.0802
 4568SOL    HW116981   3.242  10.874   6.649 -1.2596  2.5783 -0.3631
 4568SOL    HW216982   3.367  10.883   6.566 -1.3163  0.7897 -0.6669
 4569SOL     OW16983   3.452   9.682   0.180 -0.5198 -0.6118 -0.1925
 4569SOL    HW116984   3.400   9.629   0.120 -1.1852 -0.8371  0.5601
 4569SOL    HW216985   3.456   9.630   0.260  0.5817 -0.4351 -0.1252
 4570SOL     OW16986   9.329   3.244   5.029  0.4916 -0.1461 -0.0796
 4570SOL    HW116987   9.334   3.312   4.961  0.7105 -0.5481 -0.4727
 4570SOL    HW216988   9.403   3.186   5.009 -0.1749 -0.9486 -0.2391
 4571SOL     OW16989   2.777   5.140  10.972  0.1921 -0.5440  0.9424
 4571SOL    HW116990   2.777   5.069  10.909 -1.1229  1.4987 -1.5306
 4571SOL    HW216991   2.853   5.193  10.949 -0.7008  0.6093  0.5548
 4572SOL     OW16992  10.278   7.590   8.347 -0.0543  0.0245 -0.1887
 4572SOL    HW116993  10.193   7.601   8.389 -0.6908 -2.7585 -0.6102
 4572SOL    HW216994  10.260   7.600   8.254  0.2084  0.0334 -0.2394
 4573SOL     OW16995   1.299   7.910   2.600  0.1620  0.5649  0.8758
 4573SOL    HW116996   1.303   8.003   2.626 -0.0302  0.7521  0.2552
 4573SOL    HW216997   1.273   7.912   2.508  1.9434 -0.0550  0.3253
 4574SOL     OW16998   4.882  11.268   4.683 -0.4099  0.5442  0.0382
 4574SOL    HW116999   4.923  11.353   4.692 -0.4258  0.8472 -2.3388
 4574SOL    HW217000   4.788  11.286   4.682 -0.4668  0.3423  0.6934
 4575SOL     OW17001   0.000   6.344   5.629  0.2639  0.1600 -0.3251
 4575SOL    HW117002   0.031   6.253   5.621  0.6731  0.2688 -0.0205
 4575SOL    HW217003   0.016   6.367   5.720 -1.5983 -0.0828  0.1064
 4576SOL     OW17004   3.482   4.584   1.830 -0.0553  0.1108 -0.0517
 4576SOL    HW117005   3.566   4.571   1.786 -0.8059 -0.7528 -1.2715
 4576SOL    HW217006   3.449   4.667   1.796 -0.2926 -0.1955 -0.5822
 4577SOL     OW17007   8.264   8.399   1.128  0.6058 -0.2274  0.3804
 4577SOL    HW117008   8.196   8.336   1.105  0.3824 -0.4651  1.6663
 4577SOL    HW217009   8.257   8.410   1.222  1.3543  0.9103  0.3265
 4578SOL     OW17010   1.533   3.589   1.667  0.0634  0.1197 -0.3067
 4578SOL    HW117011   1.500   3.509   1.708  0.5622  0.7228  1.3798
 4578SOL    HW217012   1.607   3.561   1.614 -0.2343 -0.6357 -0.3278
 4579SOL     OW17013   4.927   1.001   4.560  0.5890  0.2295  0.5059
 4579SOL    HW117014   4.865   0.966   4.497  1.2448 -0.8500  0.4219
 4579SOL    HW217015   4.913   0.948   4.639  2.4619 -1.1807 -0.0215
 4580SOL     OW17016   0.306  10.102   9.291 -0.3008  0.2253  0.3092
 4580SOL    HW117017   0.383  10.158   9.294  0.6974 -1.1515  1.5069
 4580SOL    HW217018   0.332  10.029   9.234 -0.0819 -1.0926  2.0285
 4581SOL     OW17019   5.133   1.099   6.346  0.1754  0.1249 -0.1884
 4581SOL    HW117020   5.160   1.099   6.254 -0.8404  0.0830 -0.4954
 4581SOL    HW217021   5.079   1.021   6.356 -1.8898  1.4774 -0.2314
 4582SOL     OW17022   1.846   9.704   1.171 -0.0868  0.3565 -0.2809
 4582SOL    HW117023   1.771   9.713   1.112  1.0984  1.0888 -1.7484
 4582SOL    HW217024   1.830   9.622   1.218 -3.4197  2.0244  1.9112
 4583SOL     OW17025   7.095   4.055   0.624  0.2921  0.1008 -0.3845
 4583SOL    HW117026   7.012   4.023   0.660 -0.8090  3.6910  0.6615
 4583SOL    HW217027   7.073   4.083   0.536  0.7410 -0.0874 -0.5592
 4584SOL     OW17028   5.879   0.837   2.186  0.6811  0.2929  0.3518
 4584SOL    HW117029   5.789   0.854   2.214  0.6018 -0.3232  0.4706
 4584SOL    HW217030   5.870   0.787   2.105  0.9054 -0.8113  0.9872
 4585SOL     OW17031   9.740   4.092  11.383  0.3065 -0.2161  0.5428
 4585SOL    HW117032   9.789   4.009  11.382 -0.3862 -0.6363 -0.6968
 4585SOL    HW217033   9.662   4.073  11.435 -0.2371 -0.6016 -0.3821
 4586SOL     OW17034   6.424  10.755   9.295  0.4689 -0.3658 -0.1428
 4586SOL    HW117035   6.495  10.740   9.233  0.6221  0.0522 -0.0690
 4586SOL    HW217036   6.371  10.824   9.256 -0.4897 -1.3835 -0.6923
 4587SOL     OW17037   8.874  10.452  11.276  0.2463  0.2088  0.3920
 4587SOL    HW117038   8.936  10.392  11.317 -0.2610 -0.0259  0.8226
 4587SOL    HW217039   8.877  10.531  11.331 -0.9823 -0.3774  1.3485
 4588SOL     OW17040   6.423   8.702   7.465 -0.0277 -0.1354  0.0242
 4588SOL    HW117041   6.357   8.651   7.511  0.4736  0.4096  1.3929
 4588SOL    HW217042   6.379   8.784   7.442  0.4250  0.6460  1.8313
 4589SOL     OW17043   5.993   1.496  10.326 -0.1495 -0.4803  0.5861
 4589SOL    HW117044   5.927   1.552  10.369  1.4557  0.5459  1.8807
 4589SOL    HW217045   6.027   1.550  10.255  1.0720  0.0806  1.5458
 4590SOL     OW17046  10.327   3.992   6.032  0.1319 -0.4589 -0.4895
 4590SOL    HW117047  10.363   4.059   6.091 -1.5002  1.8011 -1.8720
 4590SOL    HW217048  10.394   3.982   5.964 -0.3047  1.2060 -1.2345
 4591SOL     OW17049   8.321   5.879   9.160 -0.0025  0.2644  0.3795
 4591SOL    HW117050   8.241   5.924   9.189 -0.1232  2.1204 -2.4697
 4591SOL    HW217051   8.361   5.939   9.097  1.2357 -2.5030 -1.6998
 4592SOL     OW17052   5.390   0.015   7.725  0.0217  0.6011  0.4422
 4592SOL    HW117053   5.451   0.055   7.662 -0.7956  0.8511 -0.2227
 4592SOL    HW217054   5.350   0.090   7.769  0.0124  0.4467  0.6969
 4593SOL     OW17055   3.823   5.621   4.744  0.1497  0.2232 -0.1978
 4593SOL    HW117056   3.775   5.544   4.776 -0.2860  0.6599  0.2260
 4593SOL    HW217057   3.763   5.663   4.683  1.1076 -0.7885 -1.9142
 4594SOL     OW17058   9.759   3.641   7.401 -0.0240  0.0917  0.0405
 4594SOL    HW117059   9.852   3.620   7.410  0.2246  1.0379 -0.1825
 4594SOL    HW217060   9.716   3.591   7.470  0.3724 -2.0391 -1.1739
 4595SOL     OW17061   8.729   0.749   5.789 -0.1087 -0.3864 -0.1579
 4595SOL    HW117062   8.660   0.706   5.739 -0.1224 -0.0422 -0.4390
 4595SOL    HW217063   8.770   0.679   5.840  1.0514 -1.0814 -1.9609
 4596SOL     OW17064   7.915   9.764  11.308  0.0639  0.3405 -0.0480
 4596SOL    HW117065   8.002   9.725  11.314  0.3249  0.5532 -1.8680
 4596SOL    HW217066   7.863   9.699  11.261 -0.2096  1.0374 -0.7315
 4597SOL     OW17067  10.949   0.955   9.524  0.5375  0.2293  0.1415
 4597SOL    HW117068  10.881   0.940   9.459  1.1011  0.1100 -0.4231
 4597SOL    HW217069  10.921   0.903   9.600 -0.4825  0.9239  0.2605
 4598SOL     OW17070   9.038   4.224   4.236 -0.3696 -0.2241 -0.1585
 4598SOL    HW117071   9.084   4.306   4.216 -3.5425  1.2145 -2.5356
 4598SOL    HW217072   9.042   4.218   4.331 -0.4180  3.0499  0.1910
 4599SOL     OW17073   8.459   3.051   8.149  0.1674 -0.3053 -0.1622
 4599SOL    HW117074   8.443   3.033   8.057 -0.8873 -1.1400  0.1645
 4599SOL    HW217075   8.461   2.964   8.190 -0.6571  0.1060  0.7887
 4600SOL     OW17076   4.917   5.828   0.276  0.2236 -0.5422 -0.2501
 4600SOL    HW117077   5.013   5.834   0.269  0.2828 -2.0364 -1.3789
 4600SOL    HW217078   4.902   5.781   0.358  0.4319 -0.0519  0.0755
 4601SOL     OW17079   0.622   2.122   3.718 -0.0600 -0.3854  0.5230
 4601SOL    HW117080   0.588   2.053   3.661 -1.6418  0.6698  0.1190
 4601SOL    HW217081   0.552   2.138   3.781  0.6887  0.1847  1.2348
 4602SOL     OW17082   1.832   8.128  10.708  0.5920 -0.7420 -0.6132
 4602SOL    HW117083   1.829   8.191  10.636  1.7843  1.2627  0.9664
 4602SOL    HW217084   1.741   8.117  10.735  0.4455  1.5938  0.0552
 4603SOL     OW17085   5.886   8.906   2.024 -0.0922 -0.0218 -0.3795
 4603SOL    HW117086   5.842   8.992   2.025 -1.0232 -0.4858  0.0837
 4603SOL    HW217087   5.979   8.927   2.025 -0.2443  1.0313 -2.0860
 4604SOL     OW17088  10.123  10.427   8.056 -0.6792 -0.3147  0.1789
 4604SOL    HW117089  10.033  10.450   8.034  0.5144  4.2259 -1.0601
 4604SOL    HW217090  10.161  10.397   7.973 -0.5325 -0.3059  0.2423
 4605SOL     OW17091   9.213   6.001   2.517 -0.6033  0.3691 -0.1508
 4605SOL    HW117092   9.206   5.981   2.424 -1.0705  0.2124 -0.0850
 4605SOL    HW217093   9.202   6.096   2.522 -3.5116  0.1088 -0.0063
 4606SOL     OW17094   0.958   2.249   8.332 -0.2202 -0.2655  0.2716
 4606SOL    HW117095   1.012   2.306   8.277  0.0497 -0.8342 -0.0659
 4606SOL    HW217096   0.899   2.308   8.377  1.2370  0.4718  1.2949
 4607SOL     OW17097   7.213   5.982   4.800 -0.6626  0.1021 -0.5174
 4607SOL    HW117098   7.248   5.990   4.712  0.7259  0.9199  0.0700
 4607SOL    HW217099   7.288   6.000   4.857 -1.3997 -0.8887  0.8396
 4608SOL     OW17100   3.003   0.589   9.443  0.2421 -0.7851  0.1287
 4608SOL    HW117101   2.952   0.508   9.439  0.4013 -0.8708 -0.2167
 4608SOL    HW217102   3.085   0.563   9.485 -0.0548 -0.6135  0.8337
 4609SOL     OW17103   2.368  10.437   8.887  0.1394  0.5508  0.6445
 4609SOL    HW117104   2.413  10.423   8.971 -0.2274 -1.5185  0.5466
 4609SOL    HW217105   2.439  10.444   8.823  0.3905  0.3873  0.9004
 4610SOL     OW17106   8.672   9.695   6.250 -0.0087 -0.3880 -0.0866
 4610SOL    HW117107   8.612   9.770   6.240  0.4911 -0.0381 -0.5233
 4610SOL    HW217108   8.636   9.645   6.323  0.4774  1.0682  1.1855
 4611SOL     OW17109   6.232   6.210   3.395 -0.1076 -0.8242  0.1191
 4611SOL    HW117110   6.194   6.215   3.482  1.3427  0.9261  0.7183
 4611SOL    HW217111   6.273   6.124   3.392 -1.5445 -1.5676  0.5133
 4612SOL     OW17112  10.387   2.579   9.289 -0.5332  0.0738  0.0770
 4612SOL    HW117113  10.437   2.512   9.244  0.0249 -0.3052  1.2336
 4612SOL    HW217114  10.450   2.648   9.308 -1.3391  1.5043 -2.1448
 4613SOL     OW17115   1.305   8.254   0.675  0.3172 -0.2402  0.0883
 4613SOL    HW117116   1.325   8.170   0.633  0.5669 -0.7791  1.2379
 4613SOL    HW217117   1.315   8.319   0.605  1.0267 -1.0616 -0.5978
 4614SOL     OW17118  10.464  10.631   9.626 -0.4949 -1.0227 -0.7681
 4614SOL    HW117119  10.395  10.669   9.572 -2.1786  0.0741  1.9881
 4614SOL    HW217120  10.419  10.579   9.692  1.5383 -3.2390 -0.9619
 4615SOL     OW17121   9.543  11.396   9.283  0.4048 -0.3443  0.6713
 4615SOL    HW117122   9.562  11.389   9.189  1.6346 -0.7867  0.9340
 4615SOL    HW217123   9.574  11.483   9.307 -0.8090  0.1613  0.4931
 4616SOL     OW17124   4.663   6.154   5.413  1.0727 -0.2734 -0.3922
 4616SOL    HW117125   4.648   6.246   5.438 -1.6634 -0.9696  0.8934
 4616SOL    HW217126   4.617   6.143   5.330  0.0137 -0.8343  0.2495
 4617SOL     OW17127   1.618   4.159   6.609 -0.0893 -0.8064  0.0685
 4617SOL    HW117128   1.574   4.166   6.524 -1.5392 -1.6484  0.7180
 4617SOL    HW217129   1.589   4.236   6.657  2.2490  0.7237 -0.8055
 4618SOL     OW17130   3.882   1.444   7.784  0.2247  0.1281  0.0592
 4618SOL    HW117131   3.848   1.389   7.713  0.4816 -0.5130  0.4260
 4618SOL    HW217132   3.831   1.525   7.778 -0.6371 -0.4128 -0.0686
 4619SOL     OW17133   8.228  11.133   8.856 -0.2176 -0.3481 -0.4505
 4619SOL    HW117134   8.210  11.056   8.803  0.1203 -0.2112 -0.7724
 4619SOL    HW217135   8.324  11.136   8.861 -0.2460 -0.2621  0.0207
 4620SOL     OW17136   6.497   3.800   8.505  0.3016 -0.1125  0.1056
 4620SOL    HW117137   6.559   3.814   8.434 -0.3490 -0.4540 -0.5459
 4620SOL    HW217138   6.412   3.824   8.468  0.2516  2.4534  1.6325
 4621SOL     OW17139   0.887   4.009   6.556  0.1863  0.5994  0.8789
 4621SOL    HW117140   0.929   4.073   6.613  0.3526  0.7642  0.5710
 4621SOL    HW217141   0.794   4.016   6.578  0.1566  1.1988  0.6046
 4622SOL     OW17142   5.054   1.298  10.104  0.2087 -0.1792 -0.1068
 4622SOL    HW117143   5.013   1.364  10.048  1.4882  0.3201 -0.5018
 4622SOL    HW217144   5.019   1.215  10.073  0.3185  0.1507 -1.1594
 4623SOL     OW17145   8.278   0.018   2.770  0.0346 -0.0170  0.1639
 4623SOL    HW117146   8.208   0.004   2.833 -1.0280 -1.0368 -1.1524
 4623SOL    HW217147   8.330  -0.063   2.774 -0.5971 -0.5010 -0.8835
 4624SOL     OW17148   7.381   7.970   7.586 -0.1036 -0.2734  0.3897
 4624SOL    HW117149   7.314   7.926   7.534  0.3280 -1.5149  0.8529
 4624SOL    HW217150   7.458   7.972   7.529 -0.6355  1.6094 -0.3360
 4625SOL     OW17151   8.471   5.300   4.000  0.1575  0.1796  0.2189
 4625SOL    HW117152   8.449   5.298   4.093 -0.6607 -0.4594  0.0345
 4625SOL    HW217153   8.545   5.240   3.992 -0.6253 -0.8377  0.2831
 4626SOL     OW17154   6.546   1.182  10.786 -0.5039  0.2973  0.1951
 4626SOL    HW117155   6.459   1.215  10.765 -0.3548  0.6990  0.2002
 4626SOL    HW217156   6.559   1.206  10.878  0.0129  1.1440 -0.0834
 4627SOL     OW17157   3.673   8.906   3.307  0.7238 -0.1532 -0.5926
 4627SOL    HW117158   3.711   8.981   3.352  1.0379  1.0554 -2.7259
 4627SOL    HW217159   3.585   8.897   3.344  0.6829  1.2784 -0.2936
 4628SOL     OW17160  10.467   2.720   4.440  0.3258  0.1098  0.0966
 4628SOL    HW117161  10.546   2.670   4.459  0.0958 -1.0876 -1.7915
 4628SOL    HW217162  10.499   2.804   4.408  0.9108 -0.5868 -1.2527
 4629SOL     OW17163   8.348   9.166   9.380 -0.1162  0.3066 -0.0361
 4629SOL    HW117164   8.354   9.166   9.476 -1.3354  0.5424  0.0531
 4629SOL    HW217165   8.412   9.100   9.353 -1.2288 -1.3151  1.0590
 4630SOL     OW17166  11.170   3.125   1.032 -0.1576  0.1245 -0.0268
 4630SOL    HW117167  11.096   3.107   1.090  0.6133 -1.3192  0.5546
 4630SOL    HW217168  11.244   3.139   1.091  0.6699 -1.4885 -0.5995
 4631SOL     OW17169  10.238   5.738   3.045 -0.0743  0.0495 -0.4706
 4631SOL    HW117170  10.173   5.679   3.085 -0.2193 -0.8507 -1.9625
 4631SOL    HW217171  10.214   5.825   3.078 -2.0835 -0.2426 -0.9864
 4632SOL     OW17172   4.544   3.634   1.285 -0.3853 -0.0631  0.1649
 4632SOL    HW117173   4.630   3.595   1.272  0.4035  1.3382  0.9801
 4632SOL    HW217174   4.488   3.591   1.220  0.9380 -0.9344 -0.4344
 4633SOL     OW17175   0.788   1.081   9.041  0.3084 -0.2965 -0.3742
 4633SOL    HW117176   0.843   1.007   9.068  0.8455 -0.7173 -2.3895
 4633SOL    HW217177   0.701   1.043   9.027  0.6486 -0.6784 -1.6856
 4634SOL     OW17178   4.225   8.604   3.000  0.3310 -0.7677 -0.2978
 4634SOL    HW117179   4.180   8.520   3.011  1.0023 -1.3838 -1.9052
 4634SOL    HW217180   4.307   8.594   3.049  0.3729 -1.0242 -0.4156
 4635SOL     OW17181   7.846   4.411   1.578  0.5049 -0.5833 -0.5415
 4635SOL    HW117182   7.846   4.502   1.608  0.5009 -1.0091  0.8141
 4635SOL    HW217183   7.918   4.406   1.516 -0.7621  0.8246 -2.2094
 4636SOL     OW17184   6.618   3.141   9.754  0.1273  0.3549  0.0194
 4636SOL    HW117185   6.528   3.128   9.786 -0.0017  2.6662  0.7960
 4636SOL    HW217186   6.614   3.223   9.706  2.0035  0.9432  0.8113
 4637SOL     OW17187   2.332   2.708   4.087 -0.3558 -0.2936 -0.0743
 4637SOL    HW117188   2.334   2.614   4.066  1.7332 -0.4367  0.5862
 4637SOL    HW217189   2.419   2.740   4.065 -0.7199  1.3032  0.6304
 4638SOL     OW17190   2.764   8.547   7.201 -0.0610 -0.1710 -0.2441
 4638SOL    HW117191   2.824   8.543   7.275  2.6921  1.2216 -2.1920
 4638SOL    HW217192   2.735   8.457   7.188  1.3945 -0.8676  1.0127
 4639SOL     OW17193   7.918   5.714   2.602  0.2643 -0.0519  0.3866
 4639SOL    HW117194   7.924   5.715   2.697 -2.2318  0.2545  0.5874
 4639SOL    HW217195   7.883   5.627   2.581 -0.4058  0.3300 -0.1342
 4640SOL     OW17196   8.752   7.604   9.619  0.4271 -0.3519  1.1105
 4640SOL    HW117197   8.782   7.671   9.680  0.8994  0.1146  0.3829
 4640SOL    HW217198   8.656   7.610   9.622  0.4597  1.2355  0.1356
 4641SOL     OW17199   2.884   4.644   5.233  0.0851  0.2790 -0.3072
 4641SOL    HW117200   2.856   4.711   5.171  1.4718  0.6992 -0.5008
 4641SOL    HW217201   2.826   4.655   5.308 -0.6044  0.7686 -0.9020
 4642SOL     OW17202   6.467  10.533   7.203 -0.4183 -0.0098 -0.4921
 4642SOL    HW117203   6.473  10.463   7.138  0.9805  0.8447 -1.3306
 4642SOL    HW217204   6.518  10.501   7.277 -0.3236 -0.1560 -0.6192
 4643SOL     OW17205   4.149   8.255   1.251 -0.0000  0.2883 -0.1396
 4643SOL    HW117206   4.168   8.343   1.219 -0.1654  0.3066 -0.1880
 4643SOL    HW217207   4.125   8.205   1.172 -1.2230  0.5494  0.0462
 4644SOL     OW17208   6.330   5.775   1.673  0.6322  0.0760 -0.0916
 4644SOL    HW117209   6.241   5.807   1.655  1.3736  1.3342 -1.8064
 4644SOL    HW217210   6.348   5.804   1.762 -0.2980  0.7408 -0.1034
 4645SOL     OW17211   0.997   8.779   5.535  0.0734  0.5113  0.1606
 4645SOL    HW117212   1.063   8.846   5.519  2.7049 -1.5062  1.6018
 4645SOL    HW217213   0.984   8.780   5.630 -0.5494 -0.3795  0.1001
 4646SOL     OW17214   5.657   7.684   2.572  0.2804 -0.2179 -0.0694
 4646SOL    HW117215   5.637   7.743   2.645  0.8407 -0.4904  0.3091
 4646SOL    HW217216   5.736   7.638   2.599  2.4620  1.9774 -2.1543
 4647SOL     OW17217   7.021  10.998   6.857  0.6516 -0.4135 -0.0108
 4647SOL    HW117218   7.072  11.026   6.933  0.7507 -2.3185  0.6726
 4647SOL    HW217219   7.084  11.001   6.785  1.0012 -0.1772  0.2985
 4648SOL     OW17220   9.575  11.018   0.711 -0.1659 -0.3265 -0.0647
 4648SOL    HW117221   9.643  10.950   0.716  0.9403  0.6910 -0.5948
 4648SOL    HW217222   9.536  11.019   0.798  0.4270 -1.0171  0.2240
 4649SOL     OW17223   7.923  10.258   6.923  0.2951  0.0656 -0.4035
 4649SOL    HW117224   7.987  10.187   6.920  1.6069  1.2146 -0.8753
 4649SOL    HW217225   7.880  10.256   6.838 -1.1976 -1.4616  0.3396
 4650SOL     OW17226   0.770   0.958   4.070  0.1253 -0.7150  0.2941
 4650SOL    HW117227   0.746   0.870   4.098  1.9567 -2.2273 -2.3817
 4650SOL    HW217228   0.820   0.994   4.143 -0.2153 -2.1004  1.2459
 4651SOL     OW17229   1.946   8.517   5.155  0.0341  0.2380  0.0056
 4651SOL    HW117230   2.028   8.546   5.195  0.0788  1.8704 -1.1674
 4651SOL    HW217231   1.879   8.574   5.194 -0.6803 -1.4089  1.3295
 4652SOL     OW17232   3.802   9.255  10.968  0.3243 -0.2686  0.7195
 4652SOL    HW117233   3.841   9.248  10.881  1.7736 -0.4857  1.3597
 4652SOL    HW217234   3.719   9.300  10.953  0.9902  0.5841 -0.6565
 4653SOL     OW17235   6.410   3.872   9.048  0.3149 -0.1571 -0.0762
 4653SOL    HW117236   6.421   3.967   9.042  0.4140 -0.1512  0.1776
 4653SOL    HW217237   6.328   3.861   9.095 -0.0908 -0.2007 -0.7750
 4654SOL     OW17238  10.913   6.484  10.978 -0.1263 -0.2776 -0.5916
 4654SOL    HW117239  10.934   6.575  10.960 -0.0413 -0.0480  0.5949
 4654SOL    HW217240  10.898   6.445  10.892  0.4480  0.7002 -1.1479
 4655SOL     OW17241   7.654   8.903   0.799 -0.7064 -0.0391  0.2435
 4655SOL    HW117242   7.716   8.962   0.755 -0.5031 -0.1945  0.3161
 4655SOL    HW217243   7.614   8.853   0.729 -0.6584 -0.0250  0.2060
 4656SOL     OW17244   4.703   2.908   0.040  0.2592  0.1900  0.3697
 4656SOL    HW117245   4.655   2.858   0.107 -1.9050  1.6643  0.0402
 4656SOL    HW217246   4.680   2.999   0.058  0.2706  0.6857 -1.8996
 4657SOL     OW17247   1.570   7.486   8.917  0.0932 -0.3580 -0.3739
 4657SOL    HW117248   1.606   7.490   8.828  1.3835  0.2167  0.1417
 4657SOL    HW217249   1.559   7.393   8.935 -0.0422 -0.4815 -1.0833
 4658SOL     OW17250   8.428   0.427  11.343  0.6389 -0.6851  0.2653
 4658SOL    HW117251   8.485   0.354  11.369 -1.5024 -1.7991  2.0911
 4658SOL    HW217252   8.378   0.448  11.421 -1.2591  0.4555 -1.1745
 4659SOL     OW17253   0.282   7.397   8.994  0.3366 -0.3134 -0.3962
 4659SOL    HW117254   0.354   7.389   9.057  0.1208  0.8549  0.0286
 4659SOL    HW217255   0.323   7.431   8.915  0.2728  0.2834 -0.1773
 4660SOL     OW17256   4.512   8.776   7.535 -0.6755 -0.2923 -0.3425
 4660SOL    HW117257   4.491   8.867   7.516 -0.0412 -0.1807 -0.5532
 4660SOL    HW217258   4.555   8.745   7.455 -1.8558 -1.1027 -0.6877
 4661SOL     OW17259   1.550   7.028   8.109  0.0488  1.2058  0.2378
 4661SOL    HW117260   1.517   6.992   8.192  2.4064 -1.3645  0.1865
 4661SOL    HW217261   1.482   7.009   8.045 -1.2871  2.1877  1.2934
 4662SOL     OW17262   2.500   1.264   7.153 -0.1445  0.0823  0.8539
 4662SOL    HW117263   2.446   1.336   7.120 -0.4598  0.1333  1.4845
 4662SOL    HW217264   2.542   1.299   7.231  1.7031  0.4296 -0.2227
 4663SOL     OW17265   2.715   3.317   1.028  0.0226  0.2174 -0.1437
 4663SOL    HW117266   2.623   3.298   1.043  0.2676  0.2945  1.7759
 4663SOL    HW217267   2.760   3.236   1.049  0.5500  0.8922  1.5567
 4664SOL     OW17268   3.776   4.913   0.486  0.3351 -0.4696  0.5180
 4664SOL    HW117269   3.744   4.844   0.544  0.7791 -1.6306 -0.5569
 4664SOL    HW217270   3.696   4.958   0.457 -0.3533 -2.6226 -1.2583
 4665SOL     OW17271  10.312   7.013   6.976  0.1862 -0.0892  0.1408
 4665SOL    HW117272  10.318   7.093   7.029  2.0143  0.8688 -1.4138
 4665SOL    HW217273  10.392   6.965   6.996 -0.5041 -1.1474  0.4243
 4666SOL     OW17274  11.172   5.991   3.384  0.4481 -0.0690  0.3395
 4666SOL    HW117275  11.193   6.058   3.450 -0.6190 -0.3929  1.0425
 4666SOL    HW217276  11.250   5.986   3.329  1.0991  0.7232  1.1536
 4667SOL     OW17277   1.808   4.250   9.251 -0.3993 -0.6250 -0.1103
 4667SOL    HW117278   1.812   4.322   9.314 -0.7573 -0.4634 -0.2659
 4667SOL    HW217279   1.754   4.184   9.294  0.2668 -0.9690  0.1981
 4668SOL     OW17280   8.802   7.178  11.315  0.2408 -0.3630 -0.1663
 4668SOL    HW117281   8.856   7.222  11.381 -0.6508  0.8163 -0.1857
 4668SOL    HW217282   8.855   7.105  11.285  1.6750  0.5400  0.0862
 4669SOL     OW17283   1.081   1.256   1.541  0.6894 -0.2763  0.0466
 4669SOL    HW117284   1.159   1.227   1.496  1.1790 -1.3216  1.5044
 4669SOL    HW217285   1.094   1.350   1.553  1.2614 -0.2687 -0.5762
 4670SOL     OW17286   5.797   3.656   0.289 -0.1491 -0.0543  0.2298
 4670SOL    HW117287   5.853   3.593   0.335 -0.6404 -0.6941 -0.0308
 4670SOL    HW217288   5.856   3.702   0.230  0.8579  1.9710  2.6181
 4671SOL     OW17289   9.034  10.195   3.753 -0.8708  0.5560  0.4228
 4671SOL    HW117290   9.035  10.195   3.849 -3.2324 -0.2454  0.4964
 4671SOL    HW217291   8.947  10.226   3.729 -0.4415  0.4288 -1.4850
 4672SOL     OW17292   6.184   8.470  10.931 -0.0177  0.5993  0.2415
 4672SOL    HW117293   6.090   8.470  10.949 -0.2651  1.5148 -0.9672
 4672SOL    HW217294   6.192   8.504  10.842  1.5159  1.4097  0.6489
 4673SOL     OW17295  11.001   3.662   5.557  0.8314 -0.8172  0.2590
 4673SOL    HW117296  10.956   3.684   5.476  0.0974 -0.5245  0.7329
 4673SOL    HW217297  10.948   3.592   5.595 -0.5455  0.9982  1.9061
 4674SOL     OW17298   4.110   1.990   6.930  0.2258  0.4584  0.2948
 4674SOL    HW117299   4.133   1.914   6.984  0.8360 -1.1723 -2.0894
 4674SOL    HW217300   4.018   1.977   6.908  0.1092  0.8521  0.5497
 4675SOL     OW17301   2.121   8.700   2.668  0.6291 -0.8149  0.1792
 4675SOL    HW117302   2.146   8.746   2.748 -1.7556  1.3092 -0.1579
 4675SOL    HW217303   2.132   8.765   2.598  0.0978 -1.7319 -0.7938
 4676SOL     OW17304   8.857   9.182   5.223  0.2131  0.3922 -0.3711
 4676SOL    HW117305   8.853   9.227   5.139  1.2512  0.2763 -0.4988
 4676SOL    HW217306   8.912   9.239   5.277  0.4251 -0.0592 -0.1107
 4677SOL     OW17307   1.805   2.412   7.579  0.2292  0.0124 -0.1825
 4677SOL    HW117308   1.813   2.318   7.595  0.1285 -0.1833 -1.2153
 4677SOL    HW217309   1.858   2.452   7.648 -0.7892 -0.7340  1.0783
 4678SOL     OW17310  11.116   3.610   8.190 -0.5480 -0.2716  0.1056
 4678SOL    HW117311  11.092   3.523   8.222 -0.5904 -0.2450  0.1452
 4678SOL    HW217312  11.177   3.644   8.255 -0.3630 -0.3601 -0.0216
 4679SOL     OW17313  10.710   2.077   3.874  0.2465 -0.3533 -0.2400
 4679SOL    HW117314  10.700   1.984   3.896  0.2178 -0.7628 -1.8064
 4679SOL    HW217315  10.805   2.091   3.873  0.2876 -0.6267 -0.9146
 4680SOL     OW17316   0.301   7.667   4.594  0.1386 -0.0213  0.0181
 4680SOL    HW117317   0.289   7.640   4.503  1.7243  2.6121 -1.0722
 4680SOL    HW217318   0.396   7.664   4.608  0.0157  0.7881  1.1905
 4681SOL     OW17319   9.559   1.128   1.762 -0.3332 -0.1012  0.1374
 4681SOL    HW117320   9.472   1.104   1.791 -1.0100  3.0830  1.1036
 4681SOL    HW217321   9.613   1.125   1.841  0.4594 -1.7666 -0.4006
 4682SOL     OW17322   4.731   0.927   6.612 -0.8143  0.5523  0.3377
 4682SOL    HW117323   4.675   0.871   6.666 -0.8589  0.6120  0.3530
 4682SOL    HW217324   4.693   0.922   6.524 -0.5344  0.1760  0.2384
 4683SOL     OW17325   8.795   8.852   0.012  0.7190  0.1295 -0.1878
 4683SOL    HW117326   8.862   8.792   0.046 -1.3548 -2.1438  0.1046
 4683SOL    HW217327   8.753   8.803  -0.059 -1.3997  1.0143  0.3917
 4684SOL     OW17328   3.440   3.549   8.354 -0.3849 -0.8044  0.2158
 4684SOL    HW117329   3.432   3.518   8.444 -0.2199 -0.3140  0.4048
 4684SOL    HW217330   3.535   3.558   8.340 -0.4318 -0.2684  0.2102
 4685SOL     OW17331   7.307   8.601   1.483  0.3525 -0.3404 -0.1109
 4685SOL    HW117332   7.362   8.526   1.464  1.0066  0.4533 -1.5867
 4685SOL    HW217333   7.262   8.619   1.400  0.1001  0.7966  0.2476
 4686SOL     OW17334   2.677   6.983  10.273  0.0747  0.2588 -0.2589
 4686SOL    HW117335   2.751   6.971  10.214  0.2006 -1.7306  0.2357
 4686SOL    HW217336   2.716   6.990  10.360 -0.3094 -2.5563  0.2287
 4687SOL     OW17337   0.413  11.343   7.406  0.0647  0.0296 -0.0807
 4687SOL    HW117338   0.497  11.383   7.428 -0.5207  0.0109  2.5696
 4687SOL    HW217339   0.388  11.295   7.486 -2.5311  0.1935 -0.7102
 4688SOL     OW17340   3.708   8.329   9.893  0.0176 -0.0855  0.0160
 4688SOL    HW117341   3.617   8.329   9.862  0.3595  1.3910 -1.1174
 4688SOL    HW217342   3.746   8.250   9.856 -0.6797 -0.4872  0.1314
 4689SOL     OW17343   7.521  10.842   5.488  0.1788 -0.2414 -0.3765
 4689SOL    HW117344   7.440  10.880   5.522 -0.6495 -1.1699 -1.2505
 4689SOL    HW217345   7.570  10.817   5.567  0.1811  1.3924  0.1876
 4690SOL     OW17346   4.809   4.572   4.605  0.0723  0.4079 -0.0524
 4690SOL    HW117347   4.837   4.663   4.594 -2.1175  1.1870  0.4974
 4690SOL    HW217348   4.745   4.558   4.535  1.4394 -1.2418 -1.0806
 4691SOL     OW17349   6.748   4.182   8.830 -0.1485  0.0853 -0.1205
 4691SOL    HW117350   6.694   4.167   8.907 -0.9463 -1.1037 -0.8864
 4691SOL    HW217351   6.732   4.107   8.773  1.6314  0.1354 -0.7725
 4692SOL     OW17352   6.197   7.233   6.508 -0.4508 -0.2484  0.3509
 4692SOL    HW117353   6.154   7.252   6.424 -0.2551 -1.4902 -0.0505
 4692SOL    HW217354   6.129   7.250   6.573  0.0375  2.9064  0.1767
 4693SOL     OW17355   7.557   0.071   4.214  0.2393  0.3872  0.2174
 4693SOL    HW117356   7.542  -0.012   4.259  1.4488  0.4118  0.6939
 4693SOL    HW217357   7.496   0.070   4.141 -0.0926 -0.7123  0.5006
 4694SOL     OW17358   7.266  10.712   5.681 -0.5517 -0.0921  0.2949
 4694SOL    HW117359   7.267  10.800   5.645 -1.9754 -0.2291 -0.1571
 4694SOL    HW217360   7.312  10.719   5.765 -1.5190  1.3126  0.7398
 4695SOL     OW17361   4.928   2.937   8.508  0.4492 -0.0836  0.2330
 4695SOL    HW117362   4.833   2.927   8.506  0.4328  0.0876  0.1524
 4695SOL    HW217363   4.958   2.866   8.565  0.2954 -0.3137  0.0351
 4696SOL     OW17364  10.135   8.460  10.855  0.4010  0.4755 -0.0660
 4696SOL    HW117365  10.111   8.469  10.947  1.2566  2.0193  0.0488
 4696SOL    HW217366  10.169   8.371  10.847 -0.1815  0.1556  0.9893
 4697SOL     OW17367   4.362  10.113   3.907  0.6553  0.0537 -1.1903
 4697SOL    HW117368   4.383  10.163   3.828 -2.0623  1.2749 -1.2277
 4697SOL    HW217369   4.279  10.148   3.937  2.2356  0.7130  3.1421
 4698SOL     OW17370   8.677   6.096   4.471  0.2593 -0.1264  0.1286
 4698SOL    HW117371   8.594   6.125   4.433  1.4270  0.6524 -2.0609
 4698SOL    HW217372   8.680   6.002   4.453 -0.2194 -0.1946  0.3905
 4699SOL     OW17373  10.997   2.816   4.896  0.0994 -0.1618 -0.2165
 4699SOL    HW117374  11.021   2.741   4.951 -0.6950 -0.0512  0.2924
 4699SOL    HW217375  11.081   2.855   4.872  0.5258 -1.2570 -0.5530
 4700SOL     OW17376  11.288   9.384   5.711 -0.4734  0.1166  0.1818
 4700SOL    HW117377  11.272   9.450   5.644  1.5821  0.0841 -0.3897
 4700SOL    HW217378  11.358   9.421   5.765  0.2468 -1.3058  0.2547
 4701SOL     OW17379   4.662   9.063   9.277  0.1467 -0.2423  0.2328
 4701SOL    HW117380   4.742   9.064   9.329  2.5688  1.2188 -3.1228
 4701SOL    HW217381   4.623   9.149   9.290  0.2508 -0.2136  0.3545
 4702SOL     OW17382   8.862   9.905   2.782  0.4582 -0.0408 -0.4347
 4702SOL    HW117383   8.872   9.939   2.871  1.6976 -0.0168 -0.5647
 4702SOL    HW217384   8.950   9.877   2.757 -0.2053 -1.7016 -0.9995
 4703SOL     OW17385  11.375   5.791  11.104  0.0979 -0.0394  0.5295
 4703SOL    HW117386  11.306   5.725  11.105 -0.7988  0.7947 -1.2645
 4703SOL    HW217387  11.389   5.813  11.196  0.5445 -2.7854  1.1968
 4704SOL     OW17388   6.681   7.643   2.271  0.1932 -0.1608  0.2283
 4704SOL    HW117389   6.587   7.657   2.256  0.1386  0.2096  0.8679
 4704SOL    HW217390   6.713   7.603   2.190 -0.4365  0.0896 -0.1498
 4705SOL     OW17391   3.142   8.721   2.326  0.0477 -0.1523 -0.2902
 4705SOL    HW117392   3.169   8.787   2.390 -1.7278  1.2656 -0.8946
 4705SOL    HW217393   3.160   8.637   2.368  3.8492  0.5796 -0.0898
 4706SOL     OW17394   5.263  10.533  10.286 -0.2284  0.2239 -0.2145
 4706SOL    HW117395   5.259  10.532  10.190  0.2802  1.9012 -0.2898
 4706SOL    HW217396   5.356  10.536  10.306 -0.3098 -0.7451  0.3745
 4707SOL     OW17397   5.100  11.209   6.050  0.0345 -0.5756  0.2984
 4707SOL    HW117398   5.187  11.248   6.039 -1.0975  1.7537 -1.3994
 4707SOL    HW217399   5.069  11.195   5.961 -1.6820 -0.4447  0.8412
 4708SOL     OW17400   1.157   0.462   2.081  0.1981  0.2032  0.2485
 4708SOL    HW117401   1.075   0.472   2.032  1.0127 -1.0048 -1.4728
 4708SOL    HW217402   1.148   0.521   2.155 -2.0336  0.4505 -0.1487
 4709SOL     OW17403   4.177   8.145   0.920 -0.2521  0.2934  0.0496
 4709SOL    HW117404   4.189   8.124   0.828 -0.5830  1.7927 -0.3637
 4709SOL    HW217405   4.264   8.131   0.960 -0.2889 -1.0930 -0.3038
 4710SOL     OW17406   1.122   6.858   1.061 -0.3839 -0.0091 -0.2257
 4710SOL    HW117407   1.167   6.839   0.979 -0.5300  1.4944 -0.6788
 4710SOL    HW217408   1.122   6.774   1.108 -1.4799 -1.2495 -2.2897
 4711SOL     OW17409   7.546   6.779   6.910  0.1921 -0.1098  0.2739
 4711SOL    HW117410   7.533   6.758   7.002 -1.6937  1.9024  0.5552
 4711SOL    HW217411   7.551   6.694   6.866 -3.3195 -1.2505  1.7139
 4712SOL     OW17412   1.297   6.056   2.278 -0.1227 -0.5702 -0.3310
 4712SOL    HW117413   1.287   6.011   2.362  0.6499 -1.6904 -0.8176
 4712SOL    HW217414   1.322   6.145   2.301 -1.5257 -0.3857  0.6532
 4713SOL     OW17415   5.884   1.701   7.305 -0.9565  0.1160 -0.3209
 4713SOL    HW117416   5.906   1.619   7.261 -1.6375 -1.8136  2.6681
 4713SOL    HW217417   5.959   1.758   7.289  0.5046 -1.8286 -0.7628
 4714SOL     OW17418   7.139   8.064   6.112  0.1882 -0.4006 -0.1794
 4714SOL    HW117419   7.154   8.146   6.159  1.3550 -0.9146  0.3958
 4714SOL    HW217420   7.074   8.018   6.165 -1.0969  0.4750 -0.9437
 4715SOL     OW17421   3.484   3.560   1.091  0.6555 -0.1888 -0.0775
 4715SOL    HW117422   3.473   3.532   1.000  0.5022 -1.7764  0.4105
 4715SOL    HW217423   3.433   3.641   1.097 -1.7698 -1.5825 -0.6871
 4716SOL     OW17424   1.001  11.224   5.812  0.1760  0.1875  0.3398
 4716SOL    HW117425   1.080  11.242   5.760 -0.0066 -0.4083 -0.1576
 4716SOL    HW217426   0.981  11.307   5.854  0.2826  0.7151 -0.6114
 4717SOL     OW17427   3.149   7.465   7.634  0.2046  0.0546  0.3318
 4717SOL    HW117428   3.229   7.492   7.589  0.3709 -1.9339 -0.7209
 4717SOL    HW217429   3.170   7.469   7.727  1.6484 -0.6719  0.0608
 4718SOL     OW17430   1.000   1.789   6.675 -0.3006 -0.1580 -0.2776
 4718SOL    HW117431   1.076   1.818   6.725 -2.1496 -0.1491  2.7964
 4718SOL    HW217432   0.955   1.870   6.651 -1.6848 -0.1688  2.0067
 4719SOL     OW17433  10.750   2.618   6.447 -0.3426 -0.6765  0.7589
 4719SOL    HW117434  10.727   2.681   6.379 -0.2548 -0.8795  0.5430
 4719SOL    HW217435  10.846   2.622   6.452 -0.3404 -0.7630  0.7756
 4720SOL     OW17436   0.722   0.419   4.274 -0.2881 -0.2321  0.1334
 4720SOL    HW117437   0.692   0.418   4.365 -1.1409  0.6610 -0.1260
 4720SOL    HW217438   0.818   0.426   4.281 -0.3751  0.3122  0.9653
 4721SOL     OW17439   3.283   7.839   1.501  0.3283 -0.2824 -0.6024
 4721SOL    HW117440   3.287   7.869   1.592  1.4682 -0.9110 -0.4355
 4721SOL    HW217441   3.321   7.751   1.502 -0.3621 -0.6210 -1.5654
 4722SOL     OW17442   0.394   9.284   4.719 -0.2112 -0.2838  0.3337
 4722SOL    HW117443   0.455   9.235   4.775  0.3146 -1.3186 -1.0590
 4722SOL    HW217444   0.345   9.216   4.673  0.4144  0.4444 -1.5406
 4723SOL     OW17445   5.868   0.458   7.735  0.6397 -0.2694  0.2043
 4723SOL    HW117446   5.880   0.371   7.773 -1.7492 -1.0180 -0.5748
 4723SOL    HW217447   5.873   0.518   7.810 -0.5882 -1.3856  1.2280
 4724SOL     OW17448  11.347   2.575   3.233  0.3472 -0.1217 -0.8738
 4724SOL    HW117449  11.420   2.561   3.294  0.3598  0.7938 -0.6550
 4724SOL    HW217450  11.333   2.670   3.235 -1.2761 -0.3489 -0.4161
 4725SOL     OW17451   2.616   6.052   9.182  0.2918  0.4922 -0.6900
 4725SOL    HW117452   2.553   6.117   9.213 -2.6689 -1.3260 -2.4281
 4725SOL    HW217453   2.619   5.986   9.251  0.8519  0.8667 -0.3393
 4726SOL     OW17454   5.351   9.348   4.000  0.2651  0.1107 -0.0160
 4726SOL    HW117455   5.326   9.437   3.976  0.6695  0.4463  0.7738
 4726SOL    HW217456   5.445   9.353   4.017  0.2946 -0.4699  0.0138
 4727SOL     OW17457   3.471   4.558   9.749  0.2512  0.3990  0.3780
 4727SOL    HW117458   3.558   4.598   9.753  0.6135 -0.3553  0.1273
 4727SOL    HW217459   3.441   4.559   9.840  0.4234  0.8676  0.4344
 4728SOL     OW17460  11.068  10.731  10.251  0.3531  0.1617  0.0506
 4728SOL    HW117461  11.098  10.819  10.271 -0.2043  0.4430 -0.3479
 4728SOL    HW217462  11.008  10.709  10.322  0.3008  0.1983  0.0171
 4729SOL     OW17463   9.191  10.810   6.605  0.0009  0.7402 -0.3596
 4729SOL    HW117464   9.147  10.751   6.667  0.8201 -0.6926 -1.0933
 4729SOL    HW217465   9.247  10.865   6.661  1.7928 -1.4577  0.1536
 4730SOL     OW17466   0.252   8.845   0.689 -0.0973 -0.1240  0.5451
 4730SOL    HW117467   0.165   8.875   0.714 -0.9022 -1.3415 -0.6812
 4730SOL    HW217468   0.269   8.887   0.605  0.1267 -0.5663  0.3663
 4731SOL     OW17469   1.876   4.959   5.100 -0.4850 -0.4419 -0.1906
 4731SOL    HW117470   1.939   4.897   5.061  0.8218 -0.7852  2.2679
 4731SOL    HW217471   1.799   4.953   5.043  0.8889 -1.6473 -2.0754
 4732SOL     OW17472   0.257  10.147   7.062 -0.1190  0.1290 -0.4370
 4732SOL    HW117473   0.306  10.229   7.054  1.1228 -0.6365 -1.0409
 4732SOL    HW217474   0.290  10.107   7.143  0.6588 -0.6193 -1.0999
 4733SOL     OW17475   6.457   2.469   3.315  0.7039 -0.3828 -0.1056
 4733SOL    HW117476   6.505   2.550   3.297  0.5112 -0.2705 -0.1153
 4733SOL    HW217477   6.420   2.444   3.230 -0.3425  0.2343  0.1596
 4734SOL     OW17478   0.864   7.909  10.635  0.6641 -0.3532  0.7895
 4734SOL    HW117479   0.778   7.879  10.667  1.3263 -3.4779 -0.0652
 4734SOL    HW217480   0.927   7.861  10.688  1.8495 -0.4721 -0.6989
 4735SOL     OW17481   3.010   1.664  10.672  0.4428  0.8573 -0.7388
 4735SOL    HW117482   3.018   1.743  10.619  0.7236  0.9841 -0.5128
 4735SOL    HW217483   2.981   1.696  10.758 -0.0708  0.6485 -0.8307
 4736SOL     OW17484   2.247   7.305   7.111 -1.1259  0.7983 -0.7040
 4736SOL    HW117485   2.243   7.212   7.090 -1.6793  0.5056  0.5661
 4736SOL    HW217486   2.275   7.308   7.203 -1.2680  1.8693 -0.6797
 4737SOL     OW17487   8.163   5.745   6.730 -0.1671 -0.7564  0.5242
 4737SOL    HW117488   8.166   5.744   6.635  0.3512 -0.5693  0.5332
 4737SOL    HW217489   8.088   5.801   6.751 -0.5242 -1.1242  0.2292
 4738SOL     OW17490   7.334   4.564   9.695  0.6103  0.3845  0.1751
 4738SOL    HW117491   7.395   4.628   9.732  0.8332 -0.4724  1.3524
 4738SOL    HW217492   7.383   4.482   9.692  0.0555  0.0634 -0.4977
 4739SOL     OW17493  10.597   8.155   6.620 -0.4039 -0.8447 -0.3896
 4739SOL    HW117494  10.541   8.135   6.695  2.0872 -1.0390  1.5706
 4739SOL    HW217495  10.640   8.073   6.599  0.0109 -0.4654 -1.0618
 4740SOL     OW17496   4.956   9.270  10.531  0.0576  0.2383  0.2892
 4740SOL    HW117497   5.022   9.233  10.590  1.2336  0.9142 -0.5532
 4740SOL    HW217498   4.932   9.353  10.571  1.6889  1.2380 -0.6779
 4741SOL     OW17499   0.521   4.483   1.718  0.3749 -0.2187  0.4287
 4741SOL    HW117500   0.571   4.481   1.800  0.2426  2.1750  0.6434
 4741SOL    HW217501   0.447   4.426   1.733  0.9013 -0.6238  1.6002
 4742SOL     OW17502   9.462   8.039   1.530  0.4442  0.2214 -0.0049
 4742SOL    HW117503   9.378   8.079   1.508  1.5214  3.1202  0.6768
 4742SOL    HW217504   9.481   7.980   1.457 -1.0063  1.4412 -1.4442
 4743SOL     OW17505   8.141   2.731   7.255  0.0536  0.1360 -0.0092
 4743SOL    HW117506   8.083   2.772   7.190 -0.8473  0.3919  0.9366
 4743SOL    HW217507   8.213   2.794   7.265 -0.1179  0.3831 -0.2921
 4744SOL     OW17508   0.751   4.506   1.076 -0.5184 -0.2969  0.3373
 4744SOL    HW117509   0.673   4.452   1.088  0.5009 -1.7125  0.9174
 4744SOL    HW217510   0.739   4.548   0.991 -1.8111 -0.6323  0.3403
 4745SOL     OW17511   9.852   2.719   4.771  0.0870  0.6394 -0.2170
 4745SOL    HW117512   9.760   2.700   4.755  0.2962 -1.4551  0.6651
 4745SOL    HW217513   9.899   2.664   4.708  0.7439  0.1286  0.6996
 4746SOL     OW17514   9.429   2.678   6.896  0.5062 -0.4185  0.0190
 4746SOL    HW117515   9.478   2.652   6.819  2.4256 -1.2827  1.4463
 4746SOL    HW217516   9.437   2.603   6.956  0.2221  0.7353  1.5718
 4747SOL     OW17517  10.293   1.262   9.045  0.1259  0.0040 -0.3700
 4747SOL    HW117518  10.294   1.170   9.074 -1.4030 -0.6072 -2.0916
 4747SOL    HW217519  10.225   1.303   9.097  1.5677  0.5066  1.2132
 4748SOL     OW17520   7.974   6.306  10.984  0.3144 -0.1892 -0.0768
 4748SOL    HW117521   7.915   6.289  10.910 -2.0198  1.8268  1.1648
 4748SOL    HW217522   7.958   6.234  11.044  0.3140 -0.5018 -0.4456
 4749SOL     OW17523   1.890   2.255   1.362  0.0944 -0.1568 -0.3395
 4749SOL    HW117524   1.978   2.217   1.358  0.5612  0.7770  0.4594
 4749SOL    HW217525   1.831   2.180   1.360  0.9539 -0.8839  0.4832
 4750SOL     OW17526   7.243   9.869   4.270  0.4648 -0.2397 -0.2161
 4750SOL    HW117527   7.217   9.840   4.358 -1.6841  0.4402 -0.5901
 4750SOL    HW217528   7.298   9.798   4.237  1.2002 -0.5788  1.5914
 4751SOL     OW17529   7.487   4.604   6.139 -0.3330 -0.1345 -0.1417
 4751SOL    HW117530   7.439   4.683   6.113 -0.6159 -0.0528  0.5881
 4751SOL    HW217531   7.571   4.636   6.171 -0.8277 -0.0100  1.1093
 4752SOL     OW17532   4.992   7.351   0.059  0.2562 -0.1185  0.3538
 4752SOL    HW117533   4.924   7.417   0.042  0.5834  0.3015  0.6303
 4752SOL    HW217534   4.959   7.302   0.135  0.3573  0.2230  0.6207
 4753SOL     OW17535  10.638   8.045   7.521  0.3288  0.4368  0.5012
 4753SOL    HW117536  10.678   7.985   7.458 -0.8050 -0.5523  0.6790
 4753SOL    HW217537  10.696   8.121   7.523  2.6932 -1.2800  1.4246
 4754SOL     OW17538   3.991   4.467   2.927  0.1563  0.3405 -0.1044
 4754SOL    HW117539   3.944   4.388   2.897  1.1452 -0.2298 -0.2106
 4754SOL    HW217540   4.029   4.503   2.847 -0.6010  1.1649 -0.1152
 4755SOL     OW17541   6.533   2.975  10.416 -0.5398  0.6076  0.4167
 4755SOL    HW117542   6.498   2.886  10.406 -0.3492  0.7272 -1.7712
 4755SOL    HW217543   6.608   2.965  10.475  1.7269 -1.4197 -2.4747
 4756SOL     OW17544   6.967   6.719   8.916  0.0045  0.4916  0.0466
 4756SOL    HW117545   6.897   6.778   8.887 -0.0677 -0.3249 -1.5326
 4756SOL    HW217546   7.048   6.760   8.886 -0.1289 -0.8314 -2.3261
 4757SOL     OW17547   9.571   0.440   9.737 -0.3176  0.0569 -0.1166
 4757SOL    HW117548   9.627   0.491   9.679 -2.3588  3.7972  0.8788
 4757SOL    HW217549   9.511   0.395   9.678  2.7404 -3.1702 -1.1323
 4758SOL     OW17550   4.582   5.688   0.107  0.0131 -0.1596  0.0216
 4758SOL    HW117551   4.595   5.639   0.188  0.0222 -1.1701 -0.5651
 4758SOL    HW217552   4.671   5.710   0.077  0.1376 -1.6155 -0.7712
 4759SOL     OW17553   2.023   7.808   9.995 -0.0137 -0.0484 -0.5327
 4759SOL    HW117554   2.106   7.766   9.970  0.0943 -0.2364  0.1166
 4759SOL    HW217555   1.974   7.739  10.040 -0.3134  0.2054 -0.4686
 4760SOL     OW17556   2.399   9.827   8.196  0.1920 -0.0960  0.1275
 4760SOL    HW117557   2.476   9.771   8.210  0.5802  0.6444  1.1757
 4760SOL    HW217558   2.413   9.867   8.110 -0.6236 -2.3644 -1.1359
 4761SOL     OW17559   3.730   0.208   9.546  0.0941  0.2370  0.4690
 4761SOL    HW117560   3.750   0.168   9.461  0.5898  0.1644  0.6185
 4761SOL    HW217561   3.644   0.249   9.533  0.2210  0.3355 -0.1033
 4762SOL     OW17562   2.441   8.666  10.368  0.6875 -0.0609 -0.3645
 4762SOL    HW117563   2.441   8.571  10.377  0.9838  0.1216  2.3685
 4762SOL    HW217564   2.510   8.685  10.304  0.3989 -1.6605 -1.1874
 4763SOL     OW17565   4.136   2.656   6.138  0.2586  0.2025  0.0220
 4763SOL    HW117566   4.112   2.611   6.057 -0.2295 -0.6099  0.6009
 4763SOL    HW217567   4.229   2.640   6.148  0.6859  1.7266 -1.2335
 4764SOL     OW17568   7.575   9.535   6.073  0.0575 -0.3752 -0.4806
 4764SOL    HW117569   7.498   9.567   6.120  0.1202 -0.5564 -0.2535
 4764SOL    HW217570   7.614   9.471   6.132  0.6353  0.0388 -0.4056
 4765SOL     OW17571   2.771   5.517   6.292 -0.3497 -0.4606 -0.6498
 4765SOL    HW117572   2.832   5.453   6.257 -1.3607 -0.1696 -3.2092
 4765SOL    HW217573   2.686   5.473   6.290 -0.4596 -0.4462  1.6738
 4766SOL     OW17574   2.324   2.020   4.243 -0.5347 -0.2442 -0.0184
 4766SOL    HW117575   2.313   1.936   4.197 -1.7823 -0.8580  1.3252
 4766SOL    HW217576   2.262   2.078   4.200 -0.3507 -0.2806 -0.3361
 4767SOL     OW17577   4.068   4.775   6.308  0.1357  0.8407  0.1374
 4767SOL    HW117578   4.037   4.860   6.278  0.6041  0.7246 -0.7328
 4767SOL    HW217579   4.162   4.776   6.289  0.3537  0.5333  1.1174
 4768SOL     OW17580   0.928   5.179   3.107 -0.1857 -0.4134  0.0201
 4768SOL    HW117581   0.968   5.202   3.191 -1.1747 -0.9517  0.6617
 4768SOL    HW217582   0.859   5.244   3.095 -0.3607 -0.6257 -0.1300
 4769SOL     OW17583   7.751   9.209  10.833 -0.3701 -0.0953 -0.2195
 4769SOL    HW117584   7.699   9.130  10.821 -0.7124  0.1672 -0.5077
 4769SOL    HW217585   7.832   9.193  10.784 -0.6716 -0.0478 -0.7329
 4770SOL     OW17586   0.222   6.070   4.290  0.5705 -0.4238 -0.5058
 4770SOL    HW117587   0.292   6.094   4.350 -0.4504  1.7515 -0.1017
 4770SOL    HW217588   0.161   6.019   4.344 -0.0305  0.9822  0.1779
 4771SOL     OW17589   2.127   6.825  10.800 -0.1248  0.2446  0.3942
 4771SOL    HW117590   2.050   6.880  10.788 -0.9901 -0.2529  3.0407
 4771SOL    HW217591   2.188   6.880  10.851  1.2406  0.5411 -1.4425
 4772SOL     OW17592   9.747   9.407   8.604 -0.4997 -0.4732 -0.3361
 4772SOL    HW117593   9.662   9.447   8.589  0.3401  1.7836  0.4431
 4772SOL    HW217594   9.807   9.457   8.548  1.0326  1.3521  2.6687
 4773SOL     OW17595  11.086  10.994   8.328  0.2087 -0.0849  0.3190
 4773SOL    HW117596  11.081  11.086   8.352 -1.3690 -0.0515 -0.0132
 4773SOL    HW217597  11.009  10.954   8.368  0.0694 -0.9624 -0.7625
 4774SOL     OW17598   6.092   8.823   2.452 -0.3334 -0.1743 -0.3299
 4774SOL    HW117599   6.047   8.908   2.450  0.7046  0.4195  0.4873
 4774SOL    HW217600   6.151   8.826   2.376  0.1631  0.1072  0.0620
 4775SOL     OW17601   7.984   7.093   0.438  0.1295  0.4264  0.4161
 4775SOL    HW117602   7.991   7.185   0.414  0.5442  0.3984  0.4288
 4775SOL    HW217603   7.908   7.061   0.389 -0.4318  0.9385  0.9413
 4776SOL     OW17604   9.533   6.437   3.610 -0.3864 -0.1534 -0.2658
 4776SOL    HW117605   9.627   6.446   3.599 -0.3355  1.4452  0.9870
 4776SOL    HW217606   9.497   6.444   3.522  0.6965 -1.9806 -0.8954
 4777SOL     OW17607  10.062   2.885   9.256 -0.3781  0.3431  0.0689
 4777SOL    HW117608   9.974   2.912   9.281  0.5022  1.6426  2.0671
 4777SOL    HW217609  10.091   2.828   9.327  0.8766  1.1168  0.2255
 4778SOL     OW17610   4.263   7.085   4.946  0.4005 -0.9771  0.3164
 4778SOL    HW117611   4.349   7.122   4.968  0.6075 -1.0735 -0.3262
 4778SOL    HW217612   4.277   6.991   4.942  0.7477 -0.8910 -1.7550
 4779SOL     OW17613   3.226   3.196  10.252 -0.4913  0.7164 -0.0837
 4779SOL    HW117614   3.282   3.195  10.175 -1.6252 -3.3312 -1.1195
 4779SOL    HW217615   3.273   3.141  10.316 -1.5579  0.3585  0.4195
 4780SOL     OW17616  10.054   4.881   9.050 -0.1296  0.2028  0.1123
 4780SOL    HW117617  10.055   4.847   8.961  2.3086  0.8354 -0.1811
 4780SOL    HW217618   9.962   4.883   9.074 -0.7485 -1.2684 -1.8798
 4781SOL     OW17619   3.419  11.169   0.172 -0.1827 -0.0134 -0.1316
 4781SOL    HW117620   3.511  11.169   0.197  0.6391  0.4325 -2.8867
 4781SOL    HW217621   3.382  11.093   0.218  1.8364 -0.9225  0.1026
 4782SOL     OW17622   1.220   7.587   0.697  0.3978  0.5223  0.4666
 4782SOL    HW117623   1.219   7.510   0.640  1.0747  0.9106 -0.0832
 4782SOL    HW217624   1.128   7.613   0.703 -0.0699 -1.1662  1.8517
 4783SOL     OW17625   1.928   1.220   2.355  0.7922  0.0859  0.3282
 4783SOL    HW117626   1.852   1.163   2.345 -0.8359  2.0875  0.5792
 4783SOL    HW217627   1.967   1.223   2.268 -1.8495  2.1616 -0.9145
 4784SOL     OW17628   9.568   0.639   0.587 -0.3672  0.0348  0.6148
 4784SOL    HW117629   9.548   0.553   0.550 -0.4516  0.4495 -0.3181
 4784SOL    HW217630   9.563   0.626   0.682  0.6752 -1.2391  0.5207
 4785SOL     OW17631   5.912   1.378   7.219  0.2088  0.4925 -0.3973
 4785SOL    HW117632   5.989   1.411   7.172  0.5772 -0.2038 -0.3086
 4785SOL    HW217633   5.912   1.284   7.200 -0.0931  0.3323  0.3597
 4786SOL     OW17634   3.190   8.131  10.273  0.1276  0.5221 -0.4007
 4786SOL    HW117635   3.186   8.215  10.318  1.0385  1.2544 -1.6368
 4786SOL    HW217636   3.099   8.101  10.271 -0.1544  1.2566  0.4163
 4787SOL     OW17637   9.267   7.301   8.658 -0.0045 -0.5324 -0.2686
 4787SOL    HW117638   9.222   7.385   8.646  0.0098 -0.4742  0.0780
 4787SOL    HW217639   9.203   7.246   8.703 -0.0096 -0.7041 -0.4861
 4788SOL     OW17640   2.561   4.514   6.761 -0.0771 -0.2026 -0.2658
 4788SOL    HW117641   2.497   4.443   6.761  0.3384 -0.5817 -0.0501
 4788SOL    HW217642   2.520   4.583   6.814  0.0812 -0.8101  0.6884
 4789SOL     OW17643   5.978   3.319   3.704  0.9557  0.9766 -0.4164
 4789SOL    HW117644   6.036   3.372   3.759  3.1343  0.9246 -2.4644
 4789SOL    HW217645   6.032   3.245   3.678 -1.0271 -0.6404 -0.1455
 4790SOL     OW17646   7.292   8.256   9.032 -0.4607  0.1408 -0.0958
 4790SOL    HW117647   7.386   8.273   9.039 -0.5147  0.2406  0.4082
 4790SOL    HW217648   7.266   8.225   9.118 -0.6591 -1.0893 -0.5827
 4791SOL     OW17649   1.417   3.334   1.764  0.3828  0.3259  0.4472
 4791SOL    HW117650   1.362   3.277   1.818  0.0516  0.0600 -0.1531
 4791SOL    HW217651   1.383   3.323   1.675  0.0728  1.7528  0.3662
 4792SOL     OW17652   2.851   6.944   8.814  0.0613  0.0876 -0.3129
 4792SOL    HW117653   2.859   6.893   8.895 -0.8120  0.5332  0.0579
 4792SOL    HW217654   2.765   6.985   8.819  0.1055  0.3343 -1.3500
 4793SOL     OW17655   1.950   9.905   4.837  0.4073  0.2482  0.1642
 4793SOL    HW117656   2.016   9.867   4.779  0.3700  1.7404 -0.9052
 4793SOL    HW217657   1.889   9.950   4.779 -0.5799  0.3840  1.2572
 4794SOL     OW17658  10.823   0.185  10.278 -0.0711 -0.0198 -0.1096
 4794SOL    HW117659  10.761   0.256  10.292 -0.7359 -0.8955  1.6283
 4794SOL    HW217660  10.799   0.118  10.342  0.7429 -1.6916 -1.4455
 4795SOL     OW17661   5.654   5.732   5.887 -0.0425 -0.1925 -0.1280
 4795SOL    HW117662   5.735   5.712   5.842 -0.7481 -2.0337 -0.6519
 4795SOL    HW217663   5.588   5.677   5.845 -1.2112 -0.1028  1.4694
 4796SOL     OW17664  11.082   7.403   2.694 -0.2545 -0.7809  0.5708
 4796SOL    HW117665  11.157   7.353   2.662  0.6077  0.1536  1.0301
 4796SOL    HW217666  11.058   7.460   2.621  0.0703 -0.4472  0.7208
 4797SOL     OW17667   1.384   4.614   2.240 -0.4274  0.9150 -0.0308
 4797SOL    HW117668   1.466   4.641   2.280 -1.0224  2.0538  0.4629
 4797SOL    HW217669   1.408   4.594   2.149  1.0250 -2.1651  0.9053
 4798SOL     OW17670   4.050   6.736   2.660 -0.1040  0.5909 -0.1432
 4798SOL    HW117671   4.078   6.699   2.744  2.2464  0.5955 -0.8457
 4798SOL    HW217672   4.001   6.815   2.685 -0.7492 -0.2050  1.2410
 4799SOL     OW17673   8.003   3.786   8.790 -0.6293  0.5071 -0.1392
 4799SOL    HW117674   7.969   3.798   8.701  0.1102  1.4404 -0.3191
 4799SOL    HW217675   7.926   3.785   8.846 -1.0719  0.4736 -0.7375
 4800SOL     OW17676  10.237   0.497  10.563 -0.2556  0.1218 -0.2402
 4800SOL    HW117677  10.196   0.508  10.477  0.2778 -1.1833 -0.6871
 4800SOL    HW217678  10.277   0.410  10.560  1.3790  0.8008  0.6695
 4801SOL     OW17679   0.567   2.371   5.537 -0.0918 -0.1993  0.4676
 4801SOL    HW117680   0.626   2.390   5.464  0.1954  1.5003  1.1134
 4801SOL    HW217681   0.481   2.365   5.498  0.0619  0.6885 -0.0202
 4802SOL     OW17682   6.060   7.796   6.989  0.0793 -0.3720 -0.2769
 4802SOL    HW117683   6.075   7.863   7.055 -0.8521 -2.7925  2.6235
 4802SOL    HW217684   5.966   7.802   6.970  0.0350 -0.6950 -0.1670
 4803SOL     OW17685   4.369   2.719   4.378 -0.2489  0.1468 -0.0512
 4803SOL    HW117686   4.302   2.682   4.435  0.6593 -1.7760 -0.1693
 4803SOL    HW217687   4.394   2.801   4.421 -1.9875  0.4504  0.4713
 4804SOL     OW17688   2.495   7.989   3.538 -0.0588  0.9588 -0.0725
 4804SOL    HW117689   2.416   8.036   3.508  0.6058  0.6769 -2.4704
 4804SOL    HW217690   2.562   8.012   3.474  1.3705 -0.1431  0.9711
 4805SOL     OW17691   4.132   6.660   6.030 -0.2603 -0.2042  0.2445
 4805SOL    HW117692   4.089   6.611   6.100  0.0913 -0.2372  0.4383
 4805SOL    HW217693   4.177   6.594   5.978 -0.3728 -0.1606  0.0919
 4806SOL     OW17694   3.424   3.890   6.548 -0.4672 -0.2841  0.5483
 4806SOL    HW117695   3.511   3.929   6.563 -0.9082  1.4047 -0.9520
 4806SOL    HW217696   3.365   3.940   6.604 -0.4866 -1.6251  1.7923
 4807SOL     OW17697   2.872   2.053   6.412 -0.2649 -0.0102 -0.1258
 4807SOL    HW117698   2.895   2.142   6.383  0.9982 -0.2192  0.1704
 4807SOL    HW217699   2.832   2.066   6.498  1.1163  0.2053  0.5177
 4808SOL     OW17700   0.881   5.695   8.282 -0.0882 -0.5687  0.9273
 4808SOL    HW117701   0.843   5.657   8.362 -2.5632 -0.4554 -0.0903
 4808SOL    HW217702   0.849   5.640   8.211 -0.8326  1.2985 -0.2658
 4809SOL     OW17703   1.465  10.438   2.670  0.6135  0.3943 -0.5506
 4809SOL    HW117704   1.413  10.518   2.668 -0.3867 -0.1917  0.7422
 4809SOL    HW217705   1.553  10.467   2.693  0.4666  1.1955 -0.9640
 4810SOL     OW17706   5.720   7.912   4.407  0.3641  0.5374  0.1689
 4810SOL    HW117707   5.760   7.974   4.346  0.1771  0.4980  0.0066
 4810SOL    HW217708   5.789   7.847   4.424  1.0718  1.5843  1.4845
 4811SOL     OW17709   3.402   4.284   5.036 -0.4083  0.1916 -0.1183
 4811SOL    HW117710   3.372   4.252   4.950 -0.4771  0.8962 -0.3634
 4811SOL    HW217711   3.365   4.372   5.043  0.1181  0.3781  0.3650
 4812SOL     OW17712   8.960   7.889   3.223  0.2539 -0.0808  0.2481
 4812SOL    HW117713   8.964   7.920   3.314  1.7399  0.5687  0.0024
 4812SOL    HW217714   9.021   7.946   3.176 -3.4044  2.3312 -2.0687
 4813SOL     OW17715   1.023   1.988   4.747 -0.0678  0.3069 -0.4969
 4813SOL    HW117716   1.065   1.938   4.816 -1.4693  0.8250  0.8010
 4813SOL    HW217717   1.079   1.977   4.671  1.3222 -0.6036  0.6166
 4814SOL     OW17718  10.145   8.897   1.653  0.1059  0.1009 -0.6403
 4814SOL    HW117719  10.207   8.918   1.723  0.4135 -0.8783 -0.6027
 4814SOL    HW217720  10.180   8.817   1.614 -2.3432 -1.8124  0.8589
 4815SOL     OW17721   2.581   9.705   9.131  0.3220 -0.9763  0.0437
 4815SOL    HW117722   2.541   9.626   9.095  1.0731 -2.1543  1.6830
 4815SOL    HW217723   2.607   9.755   9.053 -0.6849 -2.0470 -1.0367
 4816SOL     OW17724   4.217   7.271   7.946 -0.5309 -0.1808  0.0538
 4816SOL    HW117725   4.308   7.243   7.934 -0.9961 -1.1993 -1.2835
 4816SOL    HW217726   4.174   7.196   7.987 -0.9427  0.0180 -0.0056
 4817SOL     OW17727   9.903   3.756   5.609 -0.1691  0.1242 -0.5472
 4817SOL    HW117728   9.859   3.767   5.693  0.1261 -0.9596 -0.2385
 4817SOL    HW217729   9.883   3.666   5.582 -0.1961  0.4264 -1.6041
 4818SOL     OW17730   0.246  10.977   0.838  0.4165 -0.0404 -0.5881
 4818SOL    HW117731   0.249  11.044   0.770 -0.3398  2.1717  1.3873
 4818SOL    HW217732   0.334  10.976   0.875 -0.0874  1.5540  0.7948
 4819SOL     OW17733   6.213   7.442   1.267 -0.4282  0.3253  0.3133
 4819SOL    HW117734   6.284   7.406   1.215  0.3908 -0.5255  1.9622
 4819SOL    HW217735   6.241   7.531   1.289 -0.1325  0.1919  0.4758
 4820SOL     OW17736   7.081   9.499   7.748 -0.2078 -0.6240  0.5213
 4820SOL    HW117737   7.073   9.412   7.708 -1.3764  0.1256 -0.9543
 4820SOL    HW217738   7.175   9.517   7.750  0.0379 -1.8283  0.6918
 4821SOL     OW17739   0.228   8.614   6.807  0.5830 -0.3643 -0.1270
 4821SOL    HW117740   0.182   8.642   6.887  0.2511  0.7505 -0.6871
 4821SOL    HW217741   0.320   8.631   6.825  0.2940  3.2765 -1.1675
 4822SOL     OW17742   6.833   4.200   9.467  0.1713 -0.0371  0.2220
 4822SOL    HW117743   6.871   4.131   9.413  1.0598 -0.7654  1.7064
 4822SOL    HW217744   6.745   4.214   9.431  0.9908  0.0689 -1.8584
 4823SOL     OW17745   3.036   6.416  10.262 -0.2388  0.0592 -0.3203
 4823SOL    HW117746   3.018   6.365  10.341  0.1506  0.4765  0.0462
 4823SOL    HW217747   3.086   6.492  10.294  0.3085  0.0018 -1.0191
 4824SOL     OW17748   0.105   3.737  11.104  0.2816 -0.5352 -0.3472
 4824SOL    HW117749   0.050   3.728  11.026  0.1320  0.8324 -0.4176
 4824SOL    HW217750   0.048   3.777  11.169  0.8684 -0.1463 -0.0628
 4825SOL     OW17751   8.472   6.496   3.269  0.7520  0.1743 -0.5594
 4825SOL    HW117752   8.510   6.492   3.181 -0.5743  0.0860 -1.1643
 4825SOL    HW217753   8.384   6.460   3.258  0.0494  1.4654  0.5132
 4826SOL     OW17754   2.532   0.793   9.934 -0.5956  0.0874  0.2794
 4826SOL    HW117755   2.542   0.729  10.004  0.0793 -0.6230 -0.4472
 4826SOL    HW217756   2.570   0.751   9.857 -0.2172  1.3312 -0.2369
 4827SOL     OW17757   4.755   1.389  10.430 -0.4167 -0.5228  0.3839
 4827SOL    HW117758   4.788   1.471  10.394 -0.9279 -1.0787 -1.4942
 4827SOL    HW217759   4.660   1.401  10.434 -0.7375 -1.6652 -1.9088
 4828SOL     OW17760   3.727   1.114   7.902 -0.1064  0.5649 -0.2111
 4828SOL    HW117761   3.691   1.075   7.822  1.8559  0.5471 -1.1521
 4828SOL    HW217762   3.769   1.041   7.947  2.2601  1.1866 -1.2234
 4829SOL     OW17763   3.486   5.086   3.726 -0.1038 -0.2005 -0.5411
 4829SOL    HW117764   3.424   5.152   3.757  0.6265  0.0787  0.3739
 4829SOL    HW217765   3.499   5.108   3.633 -0.5792  0.3613 -0.4849
 4830SOL     OW17766  10.233   7.426   5.132 -0.7323  0.1449  0.0975
 4830SOL    HW117767  10.154   7.456   5.087 -1.3900 -3.8907 -1.8616
 4830SOL    HW217768  10.285   7.384   5.064  0.8471 -1.4699  2.1768
 4831SOL     OW17769   0.681   0.143   6.051 -0.2094  0.3327 -0.3618
 4831SOL    HW117770   0.656   0.163   5.961 -0.7353 -0.0632 -0.3080
 4831SOL    HW217771   0.599   0.144   6.100 -0.1526 -1.0867 -0.1926
 4832SOL     OW17772   4.053   4.328   9.029  0.2907  0.8212 -0.2633
 4832SOL    HW117773   3.977   4.306   8.975  0.1761  0.2393  0.1263
 4832SOL    HW217774   4.119   4.262   9.007  0.1691  0.4527  0.4519
 4833SOL     OW17775   8.825   4.900   3.371 -0.3053  0.5067 -0.2213
 4833SOL    HW117776   8.899   4.844   3.348 -0.3957  0.1137  0.4139
 4833SOL    HW217777   8.864   4.985   3.388  0.2838 -0.1005  1.8236
 4834SOL     OW17778   9.216   4.302   9.810  0.4071  0.0208  0.0730
 4834SOL    HW117779   9.292   4.353   9.780  1.7199 -1.8124  0.0806
 4834SOL    HW217780   9.148   4.367   9.827  2.1536  1.8084  0.5937
 4835SOL     OW17781   5.798   8.747   9.392  0.3907 -0.7243  0.1960
 4835SOL    HW117782   5.723   8.752   9.333  0.2733 -2.4083  0.1562
 4835SOL    HW217783   5.833   8.659   9.379  2.2132 -0.0790  0.4277
 4836SOL     OW17784   6.453   0.649  10.705 -0.4430  0.1455  0.0807
 4836SOL    HW117785   6.476   0.708  10.776 -1.5590  0.8275 -0.0911
 4836SOL    HW217786   6.424   0.707  10.634  0.6508 -0.5144 -0.9476
 4837SOL     OW17787   2.243   4.427   0.961 -0.2509 -0.4575  0.3850
 4837SOL    HW117788   2.326   4.475   0.973 -0.2700 -0.3160 -0.0451
 4837SOL    HW217789   2.178   4.495   0.948 -0.1370 -0.6179 -1.1154
 4838SOL     OW17790   7.319  10.876   9.555  0.6174  0.0333  0.1207
 4838SOL    HW117791   7.326  10.784   9.578  0.2070 -0.2077 -0.6922
 4838SOL    HW217792   7.408  10.910   9.566  0.7208 -0.3962  0.6581
 4839SOL     OW17793   0.469   9.103   2.130  0.1583 -0.1924 -0.2762
 4839SOL    HW117794   0.470   9.140   2.042  0.4241  1.6384  0.4367
 4839SOL    HW217795   0.399   9.037   2.129 -0.1091  0.0930 -1.7270
 4840SOL     OW17796   1.955   5.569   8.019  0.2648  0.4861 -0.2005
 4840SOL    HW117797   1.939   5.560   8.113 -0.2814 -2.1654 -0.4773
 4840SOL    HW217798   2.041   5.531   8.005 -0.1183 -0.1547 -0.9041
 4841SOL     OW17799   9.596   8.503  10.634 -0.2245  0.2341  0.0783
 4841SOL    HW117800   9.592   8.488  10.728  2.6421 -1.5017  0.0405
 4841SOL    HW217801   9.546   8.432  10.595 -0.3524  0.2193  0.2721
 4842SOL     OW17802   1.817   5.505   8.501 -0.1421 -0.1557  0.0290
 4842SOL    HW117803   1.894   5.474   8.549 -0.2492 -0.8864 -0.2706
 4842SOL    HW217804   1.759   5.429   8.497 -0.2420 -0.0292 -1.0372
 4843SOL     OW17805   1.670   5.894  10.077  0.4384  0.3898  0.1509
 4843SOL    HW117806   1.718   5.811  10.070  0.8934  0.5846  0.8495
 4843SOL    HW217807   1.737   5.962  10.068  0.0500  0.7005 -0.5670
 4844SOL     OW17808   1.511   1.479   2.388  0.2843 -0.1468  0.0188
 4844SOL    HW117809   1.587   1.481   2.329  0.1532 -1.8654 -0.2580
 4844SOL    HW217810   1.540   1.426   2.463 -0.5798 -0.7107 -0.0301
 4845SOL     OW17811   2.398   5.411   6.655 -0.0076  0.2495 -0.4904
 4845SOL    HW117812   2.466   5.350   6.623  0.8004 -0.5082  2.3781
 4845SOL    HW217813   2.349   5.360   6.719 -1.0919  1.8294 -0.0238
 4846SOL     OW17814   5.206   1.825   6.066 -0.7090 -0.4955 -0.0109
 4846SOL    HW117815   5.268   1.848   5.997  0.1741 -0.2604  0.8536
 4846SOL    HW217816   5.182   1.908   6.106 -2.1570 -0.5055 -0.8029
 4847SOL     OW17817   1.777   8.840   3.268 -0.1395 -0.2177 -0.2155
 4847SOL    HW117818   1.723   8.845   3.348 -0.2220  1.4562 -0.3296
 4847SOL    HW217819   1.715   8.814   3.200 -0.0701 -1.6650  0.2329
 4848SOL     OW17820   0.061  11.077   3.210  0.1650  0.0473  0.4481
 4848SOL    HW117821   0.058  10.992   3.254 -2.2268 -0.2955 -0.2091
 4848SOL    HW217822  -0.029  11.109   3.213  0.5329  1.4604 -1.3930
 4849SOL     OW17823   4.425   3.362   6.946 -0.0899 -0.3033 -0.7675
 4849SOL    HW117824   4.507   3.351   6.993 -0.5933  1.3727  0.6067
 4849SOL    HW217825   4.369   3.290   6.978  0.9278 -1.7548 -2.0852
 4850SOL     OW17826   1.485   3.321   7.940 -0.1078  0.3836  0.0282
 4850SOL    HW117827   1.452   3.392   7.886  0.2201  0.2622 -0.3393
 4850SOL    HW217828   1.569   3.353   7.973  0.8518 -0.4491 -1.4870
 4851SOL     OW17829   7.722   7.874   4.450 -0.0371 -0.4702  0.1403
 4851SOL    HW117830   7.743   7.950   4.504  1.5585 -0.2039 -0.7870
 4851SOL    HW217831   7.628   7.882   4.433  0.3296  2.1710 -1.1417
 4852SOL     OW17832   8.176   5.550   9.736  0.3708 -0.1148  0.2411
 4852SOL    HW117833   8.270   5.553   9.753  0.4166  1.8129 -0.1620
 4852SOL    HW217834   8.142   5.634   9.769 -1.0014 -0.2436 -0.7265
 4853SOL     OW17835   7.540   9.114  10.246  0.0970 -0.4650 -0.1446
 4853SOL    HW117836   7.476   9.045  10.259 -1.7788  1.2587  0.2295
 4853SOL    HW217837   7.567   9.140  10.334 -1.2257  1.0094 -0.1243
 4854SOL     OW17838   5.961   0.093  10.880 -0.6908 -0.3949 -0.0401
 4854SOL    HW117839   5.971   0.134  10.795  2.0148  2.7514  1.5693
 4854SOL    HW217840   5.884   0.136  10.918 -1.6061 -1.4484 -0.6571
 4855SOL     OW17841   8.274   0.843   9.335 -0.4545  0.3337  0.3065
 4855SOL    HW117842   8.242   0.932   9.349 -1.4218  0.2728 -1.2033
 4855SOL    HW217843   8.195   0.791   9.321  0.1422 -0.5716  0.1994
 4856SOL     OW17844   8.866  10.741   7.867  0.0645  0.4674  0.3285
 4856SOL    HW117845   8.816  10.659   7.867 -1.8236  1.5167  2.3062
 4856SOL    HW217846   8.826  10.794   7.797 -0.3641  0.6099  0.6785
 4857SOL     OW17847   8.430   2.934   7.918  0.2258 -0.3665  0.8900
 4857SOL    HW117848   8.492   2.987   7.867  0.1376  0.0336  1.1902
 4857SOL    HW217849   8.445   2.844   7.889 -0.6801 -0.0252 -0.7436
 4858SOL     OW17850   3.897   9.538  10.272  0.0825 -0.2930  0.4611
 4858SOL    HW117851   3.899   9.627  10.236 -0.3533 -0.6255 -0.4120
 4858SOL    HW217852   3.862   9.484  10.201 -2.4704 -0.7073  1.8907
 4859SOL     OW17853  10.426   9.367   5.163  0.1782 -0.4206  0.5591
 4859SOL    HW117854  10.394   9.457   5.170  1.0749 -0.1261  0.9359
 4859SOL    HW217855  10.422   9.348   5.069  0.5274  0.2140  0.4124
 4860SOL     OW17856   8.079   1.115   7.086 -0.0251  0.2272 -0.0025
 4860SOL    HW117857   7.995   1.089   7.048  0.8372 -1.2390 -1.0199
 4860SOL    HW217858   8.107   1.038   7.136  0.9299  0.4929 -0.1116
 4861SOL     OW17859   5.450   5.841  10.882 -0.0237  0.1462  0.1422
 4861SOL    HW117860   5.488   5.757  10.908 -2.7785 -0.9583  0.9752
 4861SOL    HW217861   5.367   5.818  10.839  0.5601  2.3550 -2.4162
 4862SOL     OW17862   3.751   4.572  10.893  0.1189 -0.4859  0.4710
 4862SOL    HW117863   3.818   4.557  10.960 -2.4098  0.7379  3.5285
 4862SOL    HW217864   3.686   4.503  10.908 -1.3826  0.8905  0.5170
 4863SOL     OW17865  11.244   4.347  11.301  0.0395  0.6154 -0.0103
 4863SOL    HW117866  11.291   4.384  11.227  1.5621  1.1084  1.1392
 4863SOL    HW217867  11.296   4.271  11.328 -0.2248  0.7169  0.8211
 4864SOL     OW17868  10.975   5.538   2.756  0.6351 -0.0796  0.6590
 4864SOL    HW117869  10.977   5.443   2.764 -0.7657 -0.3427 -1.4988
 4864SOL    HW217870  11.005   5.556   2.667 -1.1971  1.3114  0.2585
 4865SOL     OW17871   8.407   9.071   6.652  0.4553  0.2253 -0.3413
 4865SOL    HW117872   8.478   9.009   6.662 -0.4026 -1.0553 -1.8098
 4865SOL    HW217873   8.436   9.131   6.584 -0.1468 -0.7711 -1.5059
 4866SOL     OW17874   0.135  10.910  10.783 -0.7159 -0.2465  0.4563
 4866SOL    HW117875   0.067  10.916  10.716  0.5093  1.0098 -0.7452
 4866SOL    HW217876   0.118  10.827  10.827 -1.7361 -0.9956 -1.2394
 4867SOL     OW17877  11.052   9.086  11.121 -0.3460 -0.1080 -0.2041
 4867SOL    HW117878  10.989   9.142  11.167 -1.8751 -0.4108 -1.8179
 4867SOL    HW217879  11.104   9.147  11.069 -0.0230  0.0519  0.3002
 4868SOL     OW17880   9.901   9.512   8.401  0.0395 -0.2858  0.2800
 4868SOL    HW117881   9.874   9.591   8.353  1.0467  0.9683  1.6653
 4868SOL    HW217882   9.985   9.537   8.441  0.6212 -2.2429  0.3742
 4869SOL     OW17883   6.174   5.779  10.493  0.1032 -0.6006 -0.0267
 4869SOL    HW117884   6.213   5.718  10.430  1.5034 -1.2578  1.3956
 4869SOL    HW217885   6.101   5.819  10.446  1.4460 -0.5925 -2.2724
 4870SOL     OW17886   9.633  11.131   6.102  0.0084 -0.2679  0.8309
 4870SOL    HW117887   9.657  11.053   6.052 -1.6142 -0.7612  0.7595
 4870SOL    HW217888   9.543  11.114   6.131  0.5686  0.3960  3.1433
 4871SOL     OW17889  10.777   7.968   5.229 -0.1418 -0.0117 -0.0262
 4871SOL    HW117890  10.727   7.903   5.179 -0.9380  0.9252 -0.4849
 4871SOL    HW217891  10.859   7.978   5.180 -0.5969  0.3317 -0.7370
 4872SOL     OW17892   1.426   6.928   7.674  0.4982 -0.5391 -0.1139
 4872SOL    HW117893   1.456   7.012   7.638 -0.4975 -0.0423  0.1939
 4872SOL    HW217894   1.337   6.918   7.641  0.9435 -1.9875 -0.9885
 4873SOL     OW17895   4.878   7.066   8.392  0.0051  0.3370 -0.1037
 4873SOL    HW117896   4.865   7.153   8.429  0.0618 -0.3023  1.4918
 4873SOL    HW217897   4.790   7.029   8.388  0.0679  0.1851 -0.0730
 4874SOL     OW17898   5.476   1.080   5.648  0.0657  0.2641 -0.1590
 4874SOL    HW117899   5.461   1.163   5.693 -0.0214  0.0689  0.1743
 4874SOL    HW217900   5.529   1.028   5.708  0.5798  0.2812 -0.5968
 4875SOL     OW17901   2.712   1.259   9.920 -0.5097 -0.0486  0.0340
 4875SOL    HW117902   2.694   1.241   9.828 -1.1221 -1.0213  0.3241
 4875SOL    HW217903   2.764   1.339   9.919 -0.7920  0.1456 -1.1364
 4876SOL     OW17904   6.435   1.808   6.807 -0.4360 -0.2294 -0.2239
 4876SOL    HW117905   6.415   1.835   6.717  1.2653  1.1889 -0.2247
 4876SOL    HW217906   6.473   1.886   6.848 -2.0723 -0.5332  2.0719
 4877SOL     OW17907   9.993  10.429   1.656 -0.0273  0.3954  0.0690
 4877SOL    HW117908   9.933  10.357   1.633 -1.4486  1.9790 -1.5699
 4877SOL    HW217909   9.940  10.488   1.710  0.9277  0.4960  0.9044
 4878SOL     OW17910   3.606   7.404   0.942 -0.0590 -0.0696  0.2492
 4878SOL    HW117911   3.585   7.343   1.013 -1.5402 -0.9797 -0.8949
 4878SOL    HW217912   3.647   7.348   0.875  0.2267  0.5431 -0.0923
 4879SOL     OW17913   0.524   6.817   5.446 -0.0323 -0.3435  0.0767
 4879SOL    HW117914   0.615   6.817   5.418 -0.3146 -2.0407 -0.9822
 4879SOL    HW217915   0.488   6.735   5.413 -1.9798  0.3121  0.3907
 4880SOL     OW17916   5.119   4.543   3.732 -0.2278 -0.3241 -0.5231
 4880SOL    HW117917   5.060   4.467   3.731 -1.0166  0.2112  1.0453
 4880SOL    HW217918   5.095   4.593   3.654 -2.4876  0.2882  0.4797
 4881SOL     OW17919   5.637   0.932   2.161  0.2198 -0.0375  0.2740
 4881SOL    HW117920   5.604   1.021   2.154 -1.0434 -0.5293 -0.4440
 4881SOL    HW217921   5.639   0.914   2.255 -1.2533  0.1531  0.3747
 4882SOL     OW17922   0.280   4.929   0.061 -0.4403 -0.1039 -0.5065
 4882SOL    HW117923   0.306   4.974   0.141 -0.0097  1.5867 -1.5323
 4882SOL    HW217924   0.190   4.901   0.078 -0.3842  0.2891  0.5340
 4883SOL     OW17925   2.780   7.909   7.884 -0.3365 -0.1686  0.2759
 4883SOL    HW117926   2.765   7.868   7.969 -0.8507  0.2640  0.4021
 4883SOL    HW217927   2.817   7.840   7.830  2.2498  0.1430  1.5074
 4884SOL     OW17928   3.875  10.182   7.360  0.7819 -0.0764 -0.0327
 4884SOL    HW117929   3.966  10.208   7.344  0.6640 -0.0336 -0.6814
 4884SOL    HW217930   3.877  10.134   7.443  1.4517 -0.3598 -0.2081
 4885SOL     OW17931  11.035   6.446   7.526 -0.1966 -0.0495 -0.1340
 4885SOL    HW117932  11.130   6.461   7.523 -0.4202  1.8704  0.8397
 4885SOL    HW217933  11.022   6.389   7.602  0.1521 -0.2672 -0.2323
 4886SOL     OW17934   2.927   7.293  10.876  0.3316 -0.2001 -0.2857
 4886SOL    HW117935   2.850   7.345  10.900  0.4054  0.0017 -0.4815
 4886SOL    HW217936   2.987   7.356  10.836  0.0362 -0.6048 -1.4023
 4887SOL     OW17937   1.951   7.490  11.259  0.3834 -0.2282  0.2994
 4887SOL    HW117938   1.915   7.529  11.338 -2.2674 -1.4565 -0.1838
 4887SOL    HW217939   2.046   7.496  11.270  0.2435 -2.1078  4.5328
 4888SOL     OW17940   2.710   9.948   4.487  0.5869  0.1921 -0.1130
 4888SOL    HW117941   2.758  10.012   4.434 -0.2108  0.9673  0.0765
 4888SOL    HW217942   2.627   9.935   4.439  0.9125 -1.0267 -0.3701
 4889SOL     OW17943   6.230   0.848   0.704 -0.8136 -0.4888 -0.3258
 4889SOL    HW117944   6.155   0.796   0.732  0.1474 -2.3153 -0.9903
 4889SOL    HW217945   6.296   0.834   0.773 -0.5762 -0.0799 -0.4664
 4890SOL     OW17946   7.020   8.362  11.366  0.4666 -0.1899  0.1170
 4890SOL    HW117947   7.001   8.438  11.312  1.8162  1.3307  1.6708
 4890SOL    HW217948   7.097   8.322  11.324 -0.0129 -0.5101 -0.4800
 4891SOL     OW17949   7.719   8.932  11.076  0.2494 -0.0485  0.1063
 4891SOL    HW117950   7.673   8.964  11.154 -0.3510  0.3261 -0.3897
 4891SOL    HW217951   7.653   8.935  11.007  0.2366 -2.1209 -0.0320
 4892SOL     OW17952   5.895   4.480   4.043 -0.8812  0.1098  0.2001
 4892SOL    HW117953   5.884   4.409   4.107 -0.8729  0.6326  0.7873
 4892SOL    HW217954   5.911   4.558   4.096  0.6832  0.2940 -0.4730
 4893SOL     OW17955   2.031   8.743   3.310  0.6379 -0.4079 -0.0285
 4893SOL    HW117956   2.020   8.648   3.317 -1.1710 -0.3111 -0.9104
 4893SOL    HW217957   1.946   8.774   3.281  1.6812  1.3109 -1.3994
 4894SOL     OW17958   6.909   5.201   3.014  0.1749  0.3943  0.1653
 4894SOL    HW117959   6.844   5.133   3.028  1.0804 -0.8831 -1.4349
 4894SOL    HW217960   6.993   5.155   3.022  0.7974  1.2402 -1.1331
 4895SOL     OW17961   8.781   5.121   9.186  0.8945  0.1801 -0.9572
 4895SOL    HW117962   8.731   5.060   9.240 -0.7148  1.1277 -1.3083
 4895SOL    HW217963   8.829   5.175   9.249 -0.6906  1.0433 -0.4430
 4896SOL     OW17964   7.395   8.371   2.826  0.1574  0.1982 -0.0600
 4896SOL    HW117965   7.404   8.424   2.905 -2.2928 -0.5480  0.8033
 4896SOL    HW217966   7.377   8.435   2.757 -0.6800  0.6851  0.5770
 4897SOL     OW17967   0.222   8.259   1.458  0.1113  0.1769 -0.3865
 4897SOL    HW117968   0.163   8.193   1.495  0.6640  0.7898  1.7322
 4897SOL    HW217969   0.286   8.208   1.407  0.0604 -0.8675  0.5465
 4898SOL     OW17970   5.135   5.973   8.284 -0.7281  0.5497 -0.1169
 4898SOL    HW117971   5.117   6.063   8.257 -0.5714  0.8726  0.7990
 4898SOL    HW217972   5.223   5.977   8.322 -0.1771 -0.2666 -1.2591
 4899SOL     OW17973   3.360   2.855   1.320  0.9573 -0.6259 -0.7144
 4899SOL    HW117974   3.357   2.950   1.330 -1.2605 -0.7469  0.6907
 4899SOL    HW217975   3.348   2.839   1.226 -0.4584  0.5081 -0.7637
 4900SOL     OW17976   9.903   9.087   6.818  0.3155  0.2839  0.1662
 4900SOL    HW117977   9.879   9.110   6.728 -1.3511  1.3573  0.8368
 4900SOL    HW217978   9.827   9.041   6.852  1.1157 -0.5137  0.9000
 4901SOL     OW17979   0.078   1.376   6.793  0.2601  0.2075 -0.3446
 4901SOL    HW117980   0.027   1.315   6.741  1.1765  0.2272 -1.3003
 4901SOL    HW217981   0.015   1.416   6.853 -0.2664 -2.0656  0.7032
 4902SOL     OW17982   9.427   6.366   4.859 -0.0679 -0.2077 -0.0438
 4902SOL    HW117983   9.425   6.271   4.850  0.5153 -0.4394  1.7803
 4902SOL    HW217984   9.340   6.389   4.889 -0.2664 -0.1375 -0.6681
 4903SOL     OW17985   7.151   6.334   5.448  0.9895  0.0100 -0.2172
 4903SOL    HW117986   7.066   6.329   5.492  0.7385  0.1751 -0.6815
 4903SOL    HW217987   7.130   6.329   5.355  1.3510  1.4743 -0.4107
 4904SOL     OW17988   1.174   3.455   6.561  0.3454 -0.4655  0.0943
 4904SOL    HW117989   1.217   3.512   6.497 -1.2656  0.8195  0.0782
 4904SOL    HW217990   1.161   3.372   6.515  1.9907 -0.6257 -0.1640
 4905SOL     OW17991   1.356   2.788   3.096  0.2170 -0.2905 -0.3728
 4905SOL    HW117992   1.367   2.696   3.120  0.8929 -0.4155 -1.1131
 4905SOL    HW217993   1.268   2.792   3.057 -0.2099 -0.4142  0.5641
 4906SOL     OW17994   7.020   2.703   7.420 -0.0343 -0.2036 -0.4370
 4906SOL    HW117995   6.998   2.783   7.469 -0.7304  0.3547 -1.6055
 4906SOL    HW217996   6.965   2.635   7.460 -2.2690  0.6936 -1.7701
 4907SOL     OW17997   1.534   0.620   3.806 -0.0767 -0.2160 -0.2500
 4907SOL    HW117998   1.557   0.586   3.893  0.8597 -0.1212 -0.4525
 4907SOL    HW217999   1.531   0.542   3.750 -3.0152 -0.6349  0.2818
 4908SOL     OW18000   0.590   0.811   0.326  0.2183 -0.3278  0.4949
 4908SOL    HW118001   0.652   0.739   0.335 -0.7281 -1.6082 -2.1271
 4908SOL    HW218002   0.642   0.890   0.345  2.2510 -1.4600 -0.0652
 4909SOL     OW18003   1.054   4.698   4.419 -0.4083  0.8956  0.0206
 4909SOL    HW118004   1.129   4.642   4.399  0.8626  2.0506  1.2741
 4909SOL    HW218005   0.986   4.670   4.359  1.6665  1.1706 -2.6618
 4910SOL     OW18006   1.991  10.215   8.567  0.0868  0.3001  0.0204
 4910SOL    HW118007   2.078  10.213   8.607  0.1537  2.5381  0.1079
 4910SOL    HW218008   1.950  10.294   8.601 -1.7098 -0.2962 -0.6260
 4911SOL     OW18009   0.335   9.167   8.165 -1.2432 -0.3575 -0.7170
 4911SOL    HW118010   0.398   9.100   8.137 -1.0044 -0.5028  0.1364
 4911SOL    HW218011   0.258   9.118   8.192  0.3495 -0.7634  3.9329
 4912SOL     OW18012   6.051   9.779   9.312  0.1906 -0.2818 -0.3267
 4912SOL    HW118013   6.030   9.851   9.253 -0.6036 -0.0730  0.2013
 4912SOL    HW218014   6.014   9.805   9.396  0.9210 -0.7794  0.1580
 4913SOL     OW18015   6.678   6.178   7.535  0.1062 -0.5123 -0.1759
 4913SOL    HW118016   6.751   6.126   7.500  0.1227 -0.6525  0.0584
 4913SOL    HW218017   6.720   6.245   7.589  0.0291 -1.4790  1.1455
 4914SOL     OW18018   2.339  10.950   0.691  0.4927  0.0295  0.2074
 4914SOL    HW118019   2.333  10.998   0.774  1.6465 -0.5912  0.6657
 4914SOL    HW218020   2.400  11.001   0.638  1.5336 -0.7603  0.6058
 4915SOL     OW18021  10.979   9.652   2.522  0.1574 -0.1142  0.6182
 4915SOL    HW118022  11.037   9.610   2.586 -0.6262 -0.9299  0.8066
 4915SOL    HW218023  11.038   9.702   2.466  1.0763 -1.2028  0.5864
 4916SOL     OW18024   8.112   6.209   1.405 -0.4130 -0.8042  0.3856
 4916SOL    HW118025   8.118   6.158   1.486 -2.7981 -1.4066  0.2445
 4916SOL    HW218026   8.119   6.145   1.335 -1.6466 -0.7220  0.1789
 4917SOL     OW18027   5.749  11.085   0.807 -0.0961  0.1817 -0.0088
 4917SOL    HW118028   5.747  11.155   0.742 -0.9013  2.1723  2.0030
 4917SOL    HW218029   5.831  11.099   0.855  0.3583 -1.0787 -0.3736
 4918SOL     OW18030   9.185   8.366   3.707 -0.6900 -0.0750 -0.5461
 4918SOL    HW118031   9.140   8.281   3.705 -0.6374 -0.0930 -0.9784
 4918SOL    HW218032   9.277   8.344   3.721 -0.9155  0.0016  1.3090
 4919SOL     OW18033   6.003   7.978  10.586 -0.5600 -0.4848  0.1127
 4919SOL    HW118034   6.028   7.989  10.494 -0.3240  2.5333  0.4300
 4919SOL    HW218035   6.085   7.990  10.635 -1.0912  0.6279  0.7832
 4920SOL     OW18036   2.283  10.554   5.719  0.0641  0.2063  0.3216
 4920SOL    HW118037   2.200  10.507   5.709 -1.9098  3.5752 -0.7928
 4920SOL    HW218038   2.293  10.601   5.637  2.9165  0.2683  0.6290
 4921SOL     OW18039   2.603   5.943   4.176  0.6332 -0.1095 -0.3387
 4921SOL    HW118040   2.528   5.885   4.173 -1.3176  2.1568  1.0517
 4921SOL    HW218041   2.679   5.886   4.165 -1.1343 -2.8425  0.8137
 4922SOL     OW18042   7.170   3.152   7.886 -0.3590  0.1951  0.0851
 4922SOL    HW118043   7.075   3.165   7.895 -0.6099 -0.0034 -1.7853
 4922SOL    HW218044   7.180   3.060   7.863  0.2858  0.2503  0.1240
 4923SOL     OW18045   8.736   6.485   6.535  0.3224 -0.2738 -0.1234
 4923SOL    HW118046   8.728   6.479   6.440  0.1068  0.9824 -0.2023
 4923SOL    HW218047   8.784   6.567   6.549 -0.8805  0.2936  0.8860
 4924SOL     OW18048   2.772  11.397   6.291  0.0341 -0.4807 -0.1667
 4924SOL    HW118049   2.786  11.437   6.377  0.6046 -2.6476  0.7905
 4924SOL    HW218050   2.740  11.470   6.237 -0.1637  0.9871  1.7959
 4925SOL     OW18051   5.232  10.932   0.807  0.0560 -0.2216 -0.5680
 4925SOL    HW118052   5.315  10.967   0.776 -0.8896  0.9994 -1.8339
 4925SOL    HW218053   5.165  10.983   0.761 -1.4058 -1.1557  0.4195
 4926SOL     OW18054   1.970   0.989   0.964 -0.0213 -0.0252  0.0145
 4926SOL    HW118055   1.973   1.070   0.914 -1.8927 -1.0959 -1.9822
 4926SOL    HW218056   2.061   0.976   0.993  0.6997  1.7879 -1.2233
 4927SOL     OW18057   9.883   8.810   3.672 -0.2155  0.0723 -0.2003
 4927SOL    HW118058   9.889   8.718   3.697 -0.8395  0.0185 -0.2297
 4927SOL    HW218059   9.973   8.841   3.672  0.0294 -0.6269 -0.5230
 4928SOL     OW18060   4.442   5.034   3.221 -0.5584  0.7997  0.2575
 4928SOL    HW118061   4.519   5.076   3.260 -1.1101 -1.0696  3.7484
 4928SOL    HW218062   4.472   4.948   3.194 -0.6733  1.3680 -1.9221
 4929SOL     OW18063   2.236   8.394   1.879  0.4121 -0.1470  0.1938
 4929SOL    HW118064   2.141   8.392   1.870  0.3096 -1.3471  1.1936
 4929SOL    HW218065   2.256   8.483   1.907 -0.2297  0.6094 -1.6341
 4930SOL     OW18066   3.310   3.651   4.794  1.0026 -0.4232  0.3883
 4930SOL    HW118067   3.261   3.645   4.876  1.6772  0.5621  0.8875
 4930SOL    HW218068   3.372   3.722   4.809  2.3220 -1.3682 -0.3564
 4931SOL     OW18069   1.611   4.460   3.139 -0.5864 -0.1361 -0.0437
 4931SOL    HW118070   1.675   4.405   3.184  0.1585 -0.3992 -1.3663
 4931SOL    HW218071   1.544   4.478   3.204  1.2174  0.7987  1.6581
 4932SOL     OW18072   5.865   6.264   7.325  0.4165 -0.0602 -0.1843
 4932SOL    HW118073   5.920   6.233   7.397  1.6086 -1.4310 -1.6227
 4932SOL    HW218074   5.926   6.305   7.264 -0.5673  0.9943 -0.5099
 4933SOL     OW18075   9.077   8.008   1.260 -0.2180 -0.5252  0.3131
 4933SOL    HW118076   8.990   8.019   1.299 -1.0735 -2.0858 -1.0195
 4933SOL    HW218077   9.094   7.914   1.264 -0.6444 -0.9250 -3.4063
 4934SOL     OW18078   3.338   0.595   6.537  0.2736 -0.2603 -0.0602
 4934SOL    HW118079   3.274   0.644   6.587  0.3597  0.2125 -0.4079
 4934SOL    HW218080   3.339   0.508   6.577  1.6042  0.5988  1.9014
 4935SOL     OW18081   5.710   4.645   0.283  0.5349  0.1087 -0.4231
 4935SOL    HW118082   5.631   4.645   0.336  0.6151 -0.5034 -0.2968
 4935SOL    HW218083   5.748   4.732   0.297  0.1432  0.2311 -0.1024
 4936SOL     OW18084   4.862  11.087   8.837 -0.0213 -0.2295  0.3041
 4936SOL    HW118085   4.825  11.166   8.876 -0.4748 -0.3857  0.2007
 4936SOL    HW218086   4.938  11.118   8.788 -0.4930  0.2166 -0.1597
 4937SOL     OW18087   2.184   2.535  10.697 -0.3942  0.2539 -0.2294
 4937SOL    HW118088   2.100   2.563  10.660 -0.8140  0.4947  0.8613
 4937SOL    HW218089   2.241   2.521  10.621 -0.6862  2.4038 -0.9100
 4938SOL     OW18090   7.321   1.133   6.502  0.5280  0.8546  1.0659
 4938SOL    HW118091   7.238   1.176   6.524 -0.9414 -0.7575 -0.8811
 4938SOL    HW218092   7.319   1.050   6.549  1.2352  0.9753  1.3192
 4939SOL     OW18093   8.926   1.904   9.615  0.3594 -0.1677 -0.5916
 4939SOL    HW118094   8.830   1.910   9.624  0.5016  2.0041  0.1508
 4939SOL    HW218095   8.945   1.811   9.622 -1.7004 -0.6501 -0.7339
 4940SOL     OW18096   4.662   3.340   8.499 -0.5049 -0.2448 -0.5829
 4940SOL    HW118097   4.663   3.308   8.408 -0.9579  0.0496 -0.6958
 4940SOL    HW218098   4.707   3.424   8.495 -0.5145 -0.2375 -0.5324
 4941SOL     OW18099  11.363   3.362   2.768  0.3414  0.3342  0.0857
 4941SOL    HW118100  11.338   3.453   2.749  3.6980  0.7431 -3.7476
 4941SOL    HW218101  11.289   3.310   2.739 -1.1310  1.7418  1.1354
 4942SOL     OW18102   2.188   7.900   2.932  0.5408 -0.4087 -0.3906
 4942SOL    HW118103   2.176   7.825   2.874 -0.2336 -1.2709  0.8440
 4942SOL    HW218104   2.103   7.945   2.930  0.5569 -0.3622 -0.0431
 4943SOL     OW18105   7.118   2.689   9.967  0.0835  0.1180  0.4331
 4943SOL    HW118106   7.029   2.653   9.971  0.9681 -3.0115 -2.8311
 4943SOL    HW218107   7.124   2.730   9.881  1.8082  0.2993  0.5960
 4944SOL     OW18108   4.653   5.279   5.962  0.6695 -0.1595 -0.0851
 4944SOL    HW118109   4.585   5.226   6.004  0.0610 -0.5754 -1.5266
 4944SOL    HW218110   4.693   5.219   5.899  1.5740  0.4364 -0.0872
 4945SOL     OW18111   1.149  10.034   1.812  0.1621  0.0584 -0.4386
 4945SOL    HW118112   1.173   9.946   1.786 -0.1850  0.5263 -2.4752
 4945SOL    HW218113   1.220  10.062   1.870 -0.4914 -2.0676  1.5560
 4946SOL     OW18114   0.240   4.026   4.271 -0.2235  0.4164  0.3470
 4946SOL    HW118115   0.199   4.053   4.354  0.0992  1.5392  0.1564
 4946SOL    HW218116   0.334   4.031   4.288 -0.1557  0.8168 -0.1472
 4947SOL     OW18117   7.935   1.234   8.146  0.0359 -0.1545 -0.5293
 4947SOL    HW118118   7.993   1.168   8.185 -0.6981 -1.3019 -1.2969
 4947SOL    HW218119   7.865   1.246   8.211  1.9093  2.5437  1.2131
 4948SOL     OW18120   2.622   3.896   1.405  0.0383 -0.2148 -0.1851
 4948SOL    HW118121   2.602   3.911   1.497  3.4975 -3.5376  1.3905
 4948SOL    HW218122   2.549   3.843   1.373 -0.1046 -1.0821  1.4507
 4949SOL     OW18123   9.213  10.722   1.805 -0.4734 -0.4506  0.1394
 4949SOL    HW118124   9.206  10.630   1.829  1.5997 -0.2937  1.5894
 4949SOL    HW218125   9.130  10.760   1.833 -1.7180 -1.9711 -1.2621
 4950SOL     OW18126   8.827  11.010   3.878 -0.3428 -0.4543 -0.3111
 4950SOL    HW118127   8.749  10.958   3.862  0.5032 -1.3933 -1.5925
 4950SOL    HW218128   8.802  11.099   3.856 -1.5290 -0.4505  0.9454
 4951SOL     OW18129   0.412   2.583   5.221  0.0938 -0.2785 -0.1142
 4951SOL    HW118130   0.504   2.608   5.232 -0.5666  2.2064  0.3008
 4951SOL    HW218131   0.365   2.666   5.212 -2.1508 -1.4707 -0.1690
 4952SOL     OW18132   1.017   2.993   0.669 -0.1130  0.3070  0.6507
 4952SOL    HW118133   0.973   3.054   0.610  1.5500  1.7886  0.8424
 4952SOL    HW218134   1.077   2.944   0.613 -2.5516 -2.4612  0.2014
 4953SOL     OW18135   2.361   9.158   0.876 -0.1568  0.5272  0.1960
 4953SOL    HW118136   2.422   9.119   0.939  1.4906  1.7630 -0.5696
 4953SOL    HW218137   2.278   9.161   0.923  0.7967  0.5409  1.9898
 4954SOL     OW18138   7.973   0.204   5.484 -0.3230 -0.5184  0.7014
 4954SOL    HW118139   7.940   0.202   5.394 -0.5670  2.4052  0.6314
 4954SOL    HW218140   7.902   0.166   5.536 -1.3115  0.1789 -0.0863
 4955SOL     OW18141   5.381   0.577   6.833 -0.0742  0.0645  0.1265
 4955SOL    HW118142   5.367   0.565   6.739  0.4206 -1.4551  0.2072
 4955SOL    HW218143   5.470   0.612   6.839 -0.8210  2.1166 -0.0277
 4956SOL     OW18144   5.836  10.738   4.293 -0.3095  0.1920  0.0846
 4956SOL    HW118145   5.884  10.732   4.211  1.2276  1.2497  0.8699
 4956SOL    HW218146   5.744  10.732   4.266  0.1431  0.6224 -1.7197
 4957SOL     OW18147   0.580   7.306   9.079  0.0715 -0.1563  0.3630
 4957SOL    HW118148   0.635   7.310   9.001  1.0996  2.1760  1.1013
 4957SOL    HW218149   0.633   7.257   9.142  1.1541  1.5868  0.8857
 4958SOL     OW18150   6.912   1.693   8.429  0.8415 -0.0345 -0.2804
 4958SOL    HW118151   6.912   1.784   8.458  0.7400  0.3407 -1.3895
 4958SOL    HW218152   6.829   1.657   8.461 -0.1185  0.8876 -1.5939
 4959SOL     OW18153   2.962   7.330   5.428 -0.0385  0.0112 -0.0435
 4959SOL    HW118154   2.984   7.342   5.336 -2.0094  2.1674 -0.3151
 4959SOL    HW218155   3.028   7.380   5.476 -0.2522  0.6565 -0.4187
 4960SOL     OW18156  10.624   7.809   6.870 -0.1426 -0.4462 -0.4299
 4960SOL    HW118157  10.684   7.883   6.857  0.7256 -0.9728  0.4537
 4960SOL    HW218158  10.675   7.745   6.920 -1.0503 -1.4332 -0.7373
 4961SOL     OW18159   6.287   7.333  11.378 -0.3504  0.2963 -0.7747
 4961SOL    HW118160   6.273   7.247  11.338 -1.7635  0.2979 -0.3565
 4961SOL    HW218161   6.370   7.326  11.424 -0.2695 -0.7327 -1.0608
 4962SOL     OW18162   4.956   7.923   7.827 -0.2788 -0.5156 -0.4708
 4962SOL    HW118163   5.046   7.902   7.803 -0.2399  0.4046 -1.1811
 4962SOL    HW218164   4.907   7.914   7.745 -0.9462 -1.5463  0.0209
 4963SOL     OW18165   6.506   2.700   3.568 -0.3554  0.2017 -0.2021
 4963SOL    HW118166   6.538   2.732   3.484  0.5246 -0.4716 -0.1360
 4963SOL    HW218167   6.585   2.692   3.622 -0.8321  0.0126  0.4784
 4964SOL     OW18168   8.447   0.949   7.329  0.0592  0.9890  0.6611
 4964SOL    HW118169   8.490   1.026   7.294 -0.7204  0.0367 -2.8337
 4964SOL    HW218170   8.502   0.876   7.300 -1.6907  0.0226 -0.4225
 4965SOL     OW18171   7.541   3.267   8.104 -0.3696  0.3876  0.1503
 4965SOL    HW118172   7.610   3.310   8.154  0.9299  0.1275 -1.3294
 4965SOL    HW218173   7.575   3.179   8.088 -1.4075 -0.0119  0.0673
 4966SOL     OW18174   6.505   7.119   7.299  0.0886 -0.9220  0.3577
 4966SOL    HW118175   6.433   7.073   7.344 -0.7566  2.2207  2.5670
 4966SOL    HW218176   6.584   7.082   7.336 -0.4404 -2.4340  0.0416
 4967SOL     OW18177   4.634   7.555   2.935  0.0480  0.7496 -0.1356
 4967SOL    HW118178   4.708   7.560   2.996  1.0076 -2.0160 -0.8915
 4967SOL    HW218179   4.557   7.560   2.991  0.8965 -1.0873  1.3351
 4968SOL     OW18180   1.740   4.260   1.891  0.2813 -0.3622 -0.3836
 4968SOL    HW118181   1.712   4.267   1.982  1.7967 -4.5590  0.6614
 4968SOL    HW218182   1.833   4.279   1.893  0.0121  1.2386 -1.4597
 4969SOL     OW18183   6.595   6.302   0.147  0.0308  0.0079 -0.2003
 4969SOL    HW118184   6.501   6.312   0.163  0.2754 -0.9113  2.2980
 4969SOL    HW218185   6.627   6.392   0.136 -0.4930  0.8361  3.6849
 4970SOL     OW18186   7.995  11.024   2.358  0.4834  0.4224 -0.3626
 4970SOL    HW118187   8.069  10.974   2.392  0.4404  1.0062  0.6389
 4970SOL    HW218188   8.008  11.024   2.263  0.0860 -2.0632 -0.4887
 4971SOL     OW18189   1.038   7.427   0.087 -0.0433  0.3052  0.4293
 4971SOL    HW118190   1.008   7.380   0.165 -0.0038  0.3328  0.4606
 4971SOL    HW218191   0.979   7.397   0.017 -0.3049  0.5458  0.5435
 4972SOL     OW18192   5.012   6.356   7.220 -0.0686  0.0339  0.6003
 4972SOL    HW118193   5.024   6.435   7.273 -0.9908  1.3591 -1.0495
 4972SOL    HW218194   4.923   6.364   7.184  0.8801 -0.1820 -2.0380
 4973SOL     OW18195   9.734   8.758   8.232  0.0124 -0.3292 -0.4565
 4973SOL    HW118196   9.809   8.748   8.173 -1.4160 -0.3119 -2.3491
 4973SOL    HW218197   9.683   8.830   8.194 -0.8841 -0.2109  0.9028
 4974SOL     OW18198   8.485   6.314   0.623 -0.5867 -0.0766 -0.1259
 4974SOL    HW118199   8.452   6.230   0.655 -1.6598  0.8494  1.2802
 4974SOL    HW218200   8.443   6.325   0.538  0.8420 -1.6856 -1.1130
 4975SOL     OW18201   3.842   8.835   5.970 -0.0147 -0.1047 -0.0977
 4975SOL    HW118202   3.899   8.763   5.995 -0.9239 -0.9161 -0.3067
 4975SOL    HW218203   3.756   8.795   5.961 -0.3459  0.8187 -1.1914
 4976SOL     OW18204   6.324  10.759   7.247  0.2619  0.0556  0.3181
 4976SOL    HW118205   6.370  10.679   7.222  0.1667  0.5936 -1.8017
 4976SOL    HW218206   6.231  10.735   7.248  0.2847 -0.0273  0.3995
 4977SOL     OW18207   0.387   4.103   3.977  0.5565 -0.5902 -0.0670
 4977SOL    HW118208   0.387   4.173   4.042  0.1929 -0.8913  0.2667
 4977SOL    HW218209   0.295   4.095   3.951  0.6657 -0.6359 -0.4387
 4978SOL     OW18210   3.115  10.805  10.691 -0.1644  0.2742  0.1221
 4978SOL    HW118211   3.047  10.771  10.632  0.1172 -0.1452  0.0313
 4978SOL    HW218212   3.067  10.841  10.765 -0.5707  1.5345 -0.7195
 4979SOL     OW18213   8.482   4.317   4.161  0.0220 -0.2289  0.7471
 4979SOL    HW118214   8.496   4.330   4.067  0.5803  1.1326  1.0034
 4979SOL    HW218215   8.565   4.340   4.201 -0.9712  1.8562  1.7779
 4980SOL     OW18216   3.694   5.322   1.439  0.1469  0.0502  0.0738
 4980SOL    HW118217   3.658   5.410   1.436  0.1403  0.0709  0.6527
 4980SOL    HW218218   3.678   5.292   1.529  0.1254 -0.5485 -0.1225
 4981SOL     OW18219   5.865  10.589   8.223 -0.1795  0.3486 -0.1317
 4981SOL    HW118220   5.907  10.531   8.160 -0.8092 -1.7878  1.2953
 4981SOL    HW218221   5.869  10.676   8.182  1.2229 -0.5825 -2.1602
 4982SOL     OW18222   2.333   4.606   7.182 -0.7662 -0.1335 -0.4796
 4982SOL    HW118223   2.417   4.594   7.227 -0.7115 -1.1522 -0.8223
 4982SOL    HW218224   2.352   4.668   7.112 -0.6907  0.9182  0.4454
 4983SOL     OW18225   0.285  10.362   0.052 -0.0025  0.1858 -0.2684
 4983SOL    HW118226   0.288  10.292   0.118  0.5564 -0.0236 -0.5146
 4983SOL    HW218227   0.191  10.382   0.044  0.0677  2.8324  3.3232
 4984SOL     OW18228  11.215   0.050   5.861 -0.2520 -0.5033 -0.2935
 4984SOL    HW118229  11.217   0.054   5.766  1.5440 -3.0793 -0.4658
 4984SOL    HW218230  11.122   0.040   5.883 -0.6809  0.0384 -1.7603
 4985SOL     OW18231   8.356   0.236   2.621  0.5218 -0.6718 -0.4059
 4985SOL    HW118232   8.319   0.214   2.536  0.6318 -0.0928 -0.6095
 4985SOL    HW218233   8.331   0.163   2.678  0.2333 -0.9405 -0.8701
 4986SOL     OW18234   0.121   1.549   6.550  0.1997 -0.4503 -0.3705
 4986SOL    HW118235   0.200   1.600   6.569  0.7835 -0.5197 -2.4002
 4986SOL    HW218236   0.111   1.491   6.626  0.7514  1.1383  0.9943
 4987SOL     OW18237   3.559   7.839  10.977 -0.0047  0.0618  0.2521
 4987SOL    HW118238   3.567   7.778  11.051  0.4406 -1.5888 -1.0978
 4987SOL    HW218239   3.465   7.847  10.962 -0.0582 -1.0333 -0.1052
 4988SOL     OW18240  11.159   3.857   4.872 -0.5828  0.3877  0.0137
 4988SOL    HW118241  11.156   3.882   4.780 -1.2619 -1.5428 -0.5393
 4988SOL    HW218242  11.162   3.940   4.920 -0.3770  1.4272 -1.7281
 4989SOL     OW18243  11.231   7.541   5.662 -0.5268 -0.5073 -0.4327
 4989SOL    HW118244  11.172   7.609   5.629 -0.8210 -0.8177 -0.5566
 4989SOL    HW218245  11.297   7.588   5.712 -0.0393 -0.0098 -1.5044
 4990SOL     OW18246   5.001   7.526   7.670  0.1160 -0.5681  0.5475
 4990SOL    HW118247   4.933   7.480   7.720 -0.3064  0.6198  1.0894
 4990SOL    HW218248   5.001   7.481   7.585 -0.4225 -1.4367  0.9864
 4991SOL     OW18249  11.132   2.869   2.798  0.1877  0.0525 -0.0432
 4991SOL    HW118250  11.069   2.904   2.861  0.8341  1.9244 -0.3736
 4991SOL    HW218251  11.089   2.880   2.713  1.0201  1.5969 -0.2953
 4992SOL     OW18252   8.837   5.242   4.025  0.0979 -0.5839  0.1575
 4992SOL    HW118253   8.912   5.184   4.040 -0.5433 -1.4257  0.1733
 4992SOL    HW218254   8.770   5.211   4.086 -0.5402 -0.3422 -0.4154
 4993SOL     OW18255   8.287   4.603   1.804  0.1376 -0.0170  0.3804
 4993SOL    HW118256   8.276   4.515   1.841  0.3505  0.2606  1.1338
 4993SOL    HW218257   8.345   4.647   1.866  0.2105  0.5844 -0.1105
 4994SOL     OW18258   6.768   7.350   1.866 -0.2196  0.2662  0.0790
 4994SOL    HW118259   6.746   7.323   1.956 -0.2980  0.3779  0.0937
 4994SOL    HW218260   6.686   7.384   1.831 -0.4695 -0.7927 -0.4126
 4995SOL     OW18261   9.900   5.026   4.594  0.0283  0.2125  0.0992
 4995SOL    HW118262   9.827   5.082   4.621 -0.3255 -0.5830  0.8164
 4995SOL    HW218263   9.922   4.976   4.673  2.1320  1.2724  0.2556
 4996SOL     OW18264   9.246   5.552   2.386  0.4129  0.7413 -0.3854
 4996SOL    HW118265   9.341   5.568   2.382  1.1779 -2.8538  0.4023
 4996SOL    HW218266   9.227   5.501   2.308 -0.1257 -1.4214  1.0621
 4997SOL     OW18267   8.941   8.370   7.889  0.2359 -0.5030 -0.6976
 4997SOL    HW118268   8.947   8.275   7.900 -0.9186 -0.6779 -1.4086
 4997SOL    HW218269   8.994   8.405   7.960 -2.4140 -1.6204  2.0570
 4998SOL     OW18270  11.323   7.253   8.860 -0.2959  0.7883 -0.3715
 4998SOL    HW118271  11.313   7.204   8.778 -1.4330  1.7736 -0.8435
 4998SOL    HW218272  11.362   7.190   8.920 -2.4779 -1.0010 -0.6868
 4999SOL     OW18273   4.540   8.709   7.779  0.2916 -0.2884  0.2258
 4999SOL    HW118274   4.537   8.728   7.685  3.2014  0.5644  0.2190
 4999SOL    HW218275   4.546   8.795   7.821  0.9022 -0.7232  1.0640
 5000SOL     OW18276   8.507   2.080   4.069  0.3413  0.3713 -0.4405
 5000SOL    HW118277   8.432   2.020   4.072  0.8385 -0.2778 -0.8773
 5000SOL    HW218278   8.468   2.167   4.058 -0.3191 -0.0220 -1.2533
 5001SOL     OW18279   4.423   1.280   6.915  0.0524  0.0475 -0.2122
 5001SOL    HW118280   4.390   1.281   7.004 -2.5618 -0.4952 -1.0924
 5001SOL    HW218281   4.397   1.364   6.878  1.4454  0.4246 -0.3858
 5002SOL     OW18282   7.552   8.733   8.726 -0.1963 -0.4361  0.0537
 5002SOL    HW118283   7.601   8.788   8.788  1.1413 -1.9983  0.4420
 5002SOL    HW218284   7.609   8.726   8.650 -0.7865 -0.4953 -0.3872
 5003SOL     OW18285   8.236   7.928  11.393  0.0555 -0.2466  0.4045
 5003SOL    HW118286   8.233   7.839  11.356  0.2166 -0.4167  0.7939
 5003SOL    HW218287   8.248   7.914  11.486 -0.0651  0.1878  0.4852
 5004SOL     OW18288  10.795   4.738   7.658  0.1055  0.7437 -0.2469
 5004SOL    HW118289  10.700   4.739   7.668  0.0745  0.7292 -0.5321
 5004SOL    HW218290  10.828   4.741   7.748 -0.1709  0.0612 -0.1143
 5005SOL     OW18291   0.695  10.843   1.614  0.2823  0.0850  0.4979
 5005SOL    HW118292   0.634  10.900   1.567  0.4094  0.6802  1.0430
 5005SOL    HW218293   0.744  10.798   1.545  1.7313  2.2900 -0.0008
 5006SOL     OW18294   0.102   5.544   9.693  0.1779 -0.0119 -0.3081
 5006SOL    HW118295   0.091   5.562   9.599 -0.5755 -0.7489 -0.3682
 5006SOL    HW218296   0.116   5.449   9.698 -1.2797 -0.2201  0.4310
 5007SOL     OW18297   3.679   1.590   9.759 -0.4904 -0.0263  0.2304
 5007SOL    HW118298   3.716   1.671   9.796  0.7823 -0.8080  0.7585
 5007SOL    HW218299   3.615   1.562   9.824 -0.5703  0.2930  0.2931
 5008SOL     OW18300  10.338   8.967   0.940 -0.0794 -0.6107  0.2358
 5008SOL    HW118301  10.362   8.876   0.955 -0.4691 -0.7241  0.1642
 5008SOL    HW218302  10.381   8.990   0.857  0.5082 -0.5483  0.5507
 5009SOL     OW18303   6.550  10.943   5.021 -0.6517 -0.3353 -0.2969
 5009SOL    HW118304   6.470  10.937   5.074 -0.2987  1.9051  0.6021
 5009SOL    HW218305   6.518  10.965   4.933 -1.1313 -2.2810 -0.6655
 5010SOL     OW18306   1.466   5.362   7.376  0.6465 -0.4118  0.4302
 5010SOL    HW118307   1.491   5.436   7.432 -1.3733  0.8035 -0.1502
 5010SOL    HW218308   1.482   5.285   7.430 -0.3032  0.6654  2.3577
 5011SOL     OW18309   2.013   5.275   5.917 -0.4069  0.3858 -0.5428
 5011SOL    HW118310   2.015   5.243   6.007  4.3045 -2.7778 -1.4526
 5011SOL    HW218311   2.065   5.355   5.919 -0.4719  0.4271 -0.4722
 5012SOL     OW18312   4.491   1.102   5.826 -0.4476 -0.3043 -0.3343
 5012SOL    HW118313   4.476   1.115   5.732  2.2245  1.8101 -0.5874
 5012SOL    HW218314   4.574   1.055   5.831 -1.2354 -1.6447  1.0257
 5013SOL     OW18315   0.706   8.654   6.989  0.2464 -0.3281  0.0777
 5013SOL    HW118316   0.690   8.668   6.895  1.5636 -3.3010 -0.7331
 5013SOL    HW218317   0.775   8.717   7.011  1.4975 -1.0396 -1.5849
 5014SOL     OW18318   6.610   7.837   5.478  0.3648  0.3757 -0.1832
 5014SOL    HW118319   6.564   7.768   5.525  2.2208  0.6000  2.1521
 5014SOL    HW218320   6.540   7.896   5.447 -1.0829 -1.2187 -0.0921
 5015SOL     OW18321   8.941   1.726   0.659 -0.2825 -0.0550  0.1763
 5015SOL    HW118322   8.982   1.812   0.652 -0.1604  0.0155  1.4857
 5015SOL    HW218323   8.910   1.707   0.571  2.6637 -0.1878 -0.9471
 5016SOL     OW18324   2.533   1.525  10.530 -0.2877  0.4014  0.0661
 5016SOL    HW118325   2.608   1.529  10.590 -0.1624 -2.4294  0.2807
 5016SOL    HW218326   2.467   1.476  10.579 -1.7415  1.5787 -0.6650
 5017SOL     OW18327   7.883   4.994   3.326 -0.1593  0.1123  0.7955
 5017SOL    HW118328   7.828   4.937   3.272  0.2754 -0.2938  0.7745
 5017SOL    HW218329   7.941   4.935   3.372  0.5613  0.5552  0.4808
 5018SOL     OW18330   0.486   0.263   0.586 -0.3172 -0.1954 -0.2490
 5018SOL    HW118331   0.518   0.318   0.657 -0.1211 -1.0126  0.3159
 5018SOL    HW218332   0.495   0.173   0.619  2.8266 -0.8745 -2.4372
 5019SOL     OW18333  11.276   1.635  10.772 -0.4225 -0.1845  0.3709
 5019SOL    HW118334  11.283   1.653  10.866 -0.4557  1.7996  0.0356
 5019SOL    HW218335  11.363   1.602  10.748 -0.6969 -1.6316  1.2456
 5020SOL     OW18336   5.759   7.926  11.275 -0.4827 -0.2478  0.5292
 5020SOL    HW118337   5.771   7.911  11.181 -0.1000 -0.9812  0.6846
 5020SOL    HW218338   5.774   7.840  11.314 -0.3041  0.1285  1.2926
 5021SOL     OW18339   5.300   6.566   5.625  0.0890 -0.3526 -0.0395
 5021SOL    HW118340   5.237   6.496   5.641 -0.2794  0.0178  0.1858
 5021SOL    HW218341   5.247   6.647   5.632  0.8000  0.0304  1.3940
 5022SOL     OW18342   9.740  10.709   7.442  0.3657 -0.3351  0.4053
 5022SOL    HW118343   9.756  10.743   7.530  1.9362 -0.7131  0.2959
 5022SOL    HW218344   9.679  10.637   7.454 -0.4507  0.4447  1.0179
 5023SOL     OW18345   4.493   7.658   8.338 -0.6169 -0.0324  0.5431
 5023SOL    HW118346   4.558   7.709   8.386  0.8417 -0.9960 -0.3427
 5023SOL    HW218347   4.504   7.685   8.247 -1.4755 -0.2109  0.3767
 5024SOL     OW18348   8.737   8.264   4.121  0.8979 -0.1008 -0.0230
 5024SOL    HW118349   8.798   8.338   4.119 -2.8860  3.5389  1.5296
 5024SOL    HW218350   8.702   8.259   4.032  0.4651  0.7707  0.0820
 5025SOL     OW18351   2.697   0.892   2.470 -0.4296  0.1950 -0.3022
 5025SOL    HW118352   2.717   0.978   2.433  0.1684  0.4902  0.6794
 5025SOL    HW218353   2.605   0.898   2.495  0.3436  1.6540  2.5608
 5026SOL     OW18354   2.396  11.216   9.775 -0.1046  0.9955  0.0544
 5026SOL    HW118355   2.491  11.231   9.773 -0.1601  1.3349 -0.1242
 5026SOL    HW218356   2.385  11.125   9.750  0.1073  1.2553 -1.0275
 5027SOL     OW18357  10.815  10.779   9.288 -0.4220  0.0310 -0.4670
 5027SOL    HW118358  10.838  10.745   9.201 -0.7352 -2.1105  0.2097
 5027SOL    HW218359  10.730  10.820   9.276 -0.3466 -0.0203 -1.2303
 5028SOL     OW18360   8.734   8.157   5.133 -0.3719 -0.6386 -0.3606
 5028SOL    HW118361   8.694   8.093   5.192 -0.0261  0.1051  0.7210
 5028SOL    HW218362   8.815   8.115   5.103  0.5162 -0.2586  1.3570
 5029SOL     OW18363   4.951   6.787   4.066 -0.2165  0.3030  0.1204
 5029SOL    HW118364   4.994   6.871   4.052  0.5410  0.4221  2.5695
 5029SOL    HW218365   5.016   6.722   4.038 -0.7029  0.4901 -1.5293
 5030SOL     OW18366   9.648   6.901   7.006  0.4814  0.1595 -0.4945
 5030SOL    HW118367   9.575   6.848   6.974 -0.8041  1.1603  0.6651
 5030SOL    HW218368   9.726   6.848   6.988 -0.7982 -3.0595  2.1964
 5031SOL     OW18369   0.943   0.554   2.504 -0.0538 -0.1332  0.1249
 5031SOL    HW118370   0.991   0.472   2.518  1.4721  0.9026  1.2294
 5031SOL    HW218371   0.946   0.598   2.589  0.6345  1.8187 -0.8507
 5032SOL     OW18372   2.795   1.150   7.502 -0.0887 -0.6849  0.1373
 5032SOL    HW118373   2.886   1.168   7.523  0.1198  0.6211 -1.6387
 5032SOL    HW218374   2.791   1.055   7.489  0.9441 -0.7922  0.5451
 5033SOL     OW18375   0.967   7.512   2.688 -0.2403  0.7823  0.3975
 5033SOL    HW118376   1.014   7.490   2.608  0.1652  1.1285  0.5346
 5033SOL    HW218377   0.955   7.607   2.683  0.4691  0.9149  1.1104
 5034SOL     OW18378   2.044   5.399  10.919  0.4753  0.1481  0.0376
 5034SOL    HW118379   2.042   5.315  10.965 -1.5708 -0.2578 -0.6933
 5034SOL    HW218380   2.030   5.464  10.988 -2.1715 -0.4267  0.1568
 5035SOL     OW18381   3.284   3.180   9.510 -0.2979  0.8338 -0.4909
 5035SOL    HW118382   3.353   3.212   9.568  1.5372  0.7296 -2.4944
 5035SOL    HW218383   3.253   3.100   9.552  0.6749  0.9878  0.5638
 5036SOL     OW18384   8.907   4.342   4.835  0.0743 -0.0549  0.0716
 5036SOL    HW118385   8.994   4.375   4.814 -0.3914  0.9271 -0.4080
 5036SOL    HW218386   8.896   4.264   4.781  0.3223  0.3290 -0.5432
 5037SOL     OW18387   4.635   7.541   2.464 -0.0435 -0.6051  0.3525
 5037SOL    HW118388   4.685   7.526   2.544  1.1728  0.5207 -0.1545
 5037SOL    HW218389   4.591   7.624   2.479  0.9925  0.1246 -0.5002
 5038SOL     OW18390   3.501  10.888   7.873  0.2391  0.0027  0.1583
 5038SOL    HW118391   3.523  10.813   7.817 -0.9271 -0.6170  0.4974
 5038SOL    HW218392   3.451  10.947   7.816 -0.3219 -0.2908  0.3371
 5039SOL     OW18393   4.998   4.988   3.721  0.0560 -0.0666  0.1630
 5039SOL    HW118394   5.073   5.022   3.672 -0.2147 -2.4051 -2.1067
 5039SOL    HW218395   4.926   5.047   3.700  0.3971  0.0282 -0.7908
 5040SOL     OW18396  10.950   8.123   0.559 -0.2825  0.1538 -0.8944
 5040SOL    HW118397  10.898   8.060   0.509  0.3904 -0.0712 -1.3328
 5040SOL    HW218398  10.981   8.074   0.635 -1.3266  0.5025 -0.2385
 5041SOL     OW18399   1.649   4.826  11.384 -0.7966  0.6132  0.1278
 5041SOL    HW118400   1.556   4.805  11.381 -0.5003 -0.6803 -0.9291
 5041SOL    HW218401   1.679   4.794  11.469 -0.7884 -1.4788 -0.6121
 5042SOL     OW18402   9.350   9.678   6.783  0.0502 -0.0216 -0.3786
 5042SOL    HW118403   9.284   9.628   6.832 -0.2697  1.2698  0.5636
 5042SOL    HW218404   9.322   9.769   6.792  3.0433  0.8470  1.8285
 5043SOL     OW18405   7.831   8.377   2.742 -0.2296 -0.1683  0.3860
 5043SOL    HW118406   7.772   8.452   2.747 -0.1932 -0.1018 -0.1432
 5043SOL    HW218407   7.822   8.345   2.652 -1.2126 -1.5793  0.9443
 5044SOL     OW18408   0.220   4.744   2.604 -0.1007  0.1413  0.0274
 5044SOL    HW118409   0.227   4.838   2.621  0.1112  0.2077 -0.4156
 5044SOL    HW218410   0.294   4.705   2.650  0.6772  0.3582 -1.0056
 5045SOL     OW18411  11.030  10.997   4.653 -0.1508 -1.1550 -0.8159
 5045SOL    HW118412  11.065  10.917   4.694 -1.5001 -0.8942  0.9720
 5045SOL    HW218413  11.106  11.055   4.646  0.2429 -1.4053  0.9244
 5046SOL     OW18414   3.199   5.582   5.788 -0.7439  0.2506 -0.2335
 5046SOL    HW118415   3.271   5.546   5.840  0.5469  0.7876 -1.5871
 5046SOL    HW218416   3.146   5.506   5.764  0.1297 -0.3324 -0.3570
 5047SOL     OW18417   7.379   6.706   0.406  0.2025  0.4540  0.3577
 5047SOL    HW118418   7.421   6.744   0.330 -1.0250  3.2805  0.9581
 5047SOL    HW218419   7.285   6.722   0.392 -0.6110 -3.4322  0.2002
 5048SOL     OW18420   2.528   4.856   9.835  0.1713  0.3338 -0.1493
 5048SOL    HW118421   2.604   4.900   9.798  1.3131 -1.7389 -0.4093
 5048SOL    HW218422   2.553   4.835   9.925 -0.4782  0.4696  0.0739
 5049SOL     OW18423   4.198   7.829   9.433  0.2664  0.1146 -0.0293
 5049SOL    HW118424   4.154   7.778   9.365  0.7574 -0.5075  0.1092
 5049SOL    HW218425   4.129   7.851   9.495 -0.0157 -0.1115 -0.2587
 5050SOL     OW18426   0.055   4.510   8.978  0.3881  0.2221 -0.6928
 5050SOL    HW118427   0.011   4.454   9.042  0.0524 -0.0933 -1.1954
 5050SOL    HW218428   0.017   4.597   8.991  0.3636  0.1702 -0.4245
 5051SOL     OW18429   2.203   2.927  10.391 -0.4957  0.7975 -0.2455
 5051SOL    HW118430   2.113   2.935  10.358 -0.7131  0.9988  0.3815
 5051SOL    HW218431   2.192   2.906  10.483  0.0994 -0.3084 -0.4043
 5052SOL     OW18432   6.212   9.661  10.862 -0.2990  0.1221  0.2585
 5052SOL    HW118433   6.133   9.608  10.855 -0.2632 -0.0653  1.2516
 5052SOL    HW218434   6.184   9.749  10.836 -0.7924  0.0179  0.4226
 5053SOL     OW18435   4.662   0.601   8.007  0.1553 -0.3712  0.5545
 5053SOL    HW118436   4.569   0.580   8.014  0.0869 -0.7600 -1.0343
 5053SOL    HW218437   4.664   0.695   7.989  0.1405 -0.1511  1.6493
 5054SOL     OW18438   5.486   4.372   9.417 -0.3528  0.3176  0.3987
 5054SOL    HW118439   5.457   4.313   9.485 -0.6831 -1.5447 -1.2733
 5054SOL    HW218440   5.485   4.320   9.337 -0.8125  2.6230 -1.2120
 5055SOL     OW18441   8.580   8.109   2.874 -0.0193 -0.5094 -0.2443
 5055SOL    HW118442   8.628   8.127   2.954 -0.0225 -2.4385  0.2366
 5055SOL    HW218443   8.488   8.120   2.897  0.0143 -0.2388 -0.2313
 5056SOL     OW18444   9.389   3.357   9.230 -0.6591  0.0697  0.7082
 5056SOL    HW118445   9.422   3.301   9.300  1.2026 -1.0250 -0.9545
 5056SOL    HW218446   9.382   3.299   9.154 -2.4021  1.2680 -0.1269
 5057SOL     OW18447   4.363   3.509  10.848 -1.0121 -0.6608  0.3964
 5057SOL    HW118448   4.451   3.472  10.841 -0.5901  0.4616 -0.5793
 5057SOL    HW218449   4.375   3.592  10.893 -1.6531 -0.7536  0.7439
 5058SOL     OW18450  10.223   0.604   3.608  0.0119  0.5339  0.2174
 5058SOL    HW118451  10.145   0.658   3.620  0.6709  1.5146  0.2031
 5058SOL    HW218452  10.208   0.558   3.525  0.2083  2.0568 -0.6930
 5059SOL     OW18453   3.197   3.570   5.067  0.2867 -0.0942  0.7321
 5059SOL    HW118454   3.215   3.510   5.139  0.9759 -0.4833  0.2535
 5059SOL    HW218455   3.147   3.518   5.004  2.2740 -0.7147 -0.4276
 5060SOL     OW18456   0.222   1.188   7.021 -0.0436  0.1392 -0.8253
 5060SOL    HW118457   0.150   1.168   7.080  0.1977  0.2760 -0.4796
 5060SOL    HW218458   0.180   1.231   6.946 -0.1344  2.1414  0.2959
 5061SOL     OW18459  10.246   2.498   9.735  0.2749 -1.0425 -0.3081
 5061SOL    HW118460  10.301   2.574   9.756 -0.1061 -0.5130 -1.1460
 5061SOL    HW218461  10.289   2.458   9.659  0.4359 -1.6396  0.0886
 5062SOL     OW18462   8.542   3.826   0.323 -0.0454  0.9878 -0.4510
 5062SOL    HW118463   8.511   3.896   0.267 -0.0641  1.5209  0.2024
 5062SOL    HW218464   8.636   3.820   0.305  0.1401  1.8360  0.1612
 5063SOL     OW18465   6.529   8.406   1.938  0.4813 -0.4222  0.0641
 5063SOL    HW118466   6.584   8.480   1.967 -2.4879  2.0838 -0.1502
 5063SOL    HW218467   6.555   8.392   1.847  1.0046  0.4695  0.0628
 5064SOL     OW18468   3.213  11.058   3.531  0.6400 -0.1471  0.6102
 5064SOL    HW118469   3.232  10.990   3.595  2.5292 -1.7274 -1.4656
 5064SOL    HW218470   3.298  11.078   3.491 -0.5041  0.3391 -1.7549
 5065SOL     OW18471   6.611   6.907   3.140 -0.7176 -0.2619  0.2805
 5065SOL    HW118472   6.687   6.923   3.084 -1.4720  0.4627 -0.5682
 5065SOL    HW218473   6.633   6.827   3.188  0.2119 -0.5503 -0.5909
 5066SOL     OW18474   7.441   7.331  10.811  0.3243 -0.1346 -0.5251
 5066SOL    HW118475   7.512   7.330  10.874 -1.1144  0.7066  1.2122
 5066SOL    HW218476   7.448   7.248  10.764  0.9990 -1.1436  1.2978
 5067SOL     OW18477   1.455   8.027   9.143  0.0848 -0.7236 -0.4548
 5067SOL    HW118478   1.490   7.953   9.193  1.3628 -0.2616 -0.6315
 5067SOL    HW218479   1.530   8.086   9.132 -0.7910  0.3556 -0.7640
 5068SOL     OW18480  10.031   6.978   9.661 -0.2920 -0.5190  0.2641
 5068SOL    HW118481   9.987   6.974   9.576 -0.3506  0.9361  0.1895
 5068SOL    HW218482  10.123   6.960   9.642 -0.5806 -2.0059  0.1820
 5069SOL     OW18483   5.856   6.265  11.310 -0.2560  0.2441  0.4755
 5069SOL    HW118484   5.801   6.186  11.306 -0.5189  0.4547 -0.2563
 5069SOL    HW218485   5.864   6.293  11.219  0.3805  0.6960  0.6637
 5070SOL     OW18486   5.694   6.799  10.624  0.6750 -0.2225  0.2010
 5070SOL    HW118487   5.707   6.824  10.716 -2.5580  0.5798  0.5753
 5070SOL    HW218488   5.748   6.861  10.575 -1.0969  2.5752  1.4786
 5071SOL     OW18489   9.995  10.507   1.223 -0.3423  0.6414  0.2896
 5071SOL    HW118490  10.013  10.472   1.310 -0.1351  0.6989  0.2689
 5071SOL    HW218491  10.019  10.600   1.229 -0.0982  0.5902  0.0993
 5072SOL     OW18492   5.701   6.076   1.800  0.2766  0.2356  0.6359
 5072SOL    HW118493   5.766   6.121   1.747 -0.1128 -0.5827 -0.5931
 5072SOL    HW218494   5.752   6.022   1.860  0.7283  0.6596  0.6331
 5073SOL     OW18495   2.720   0.146   2.039 -0.1006  0.2808 -0.2298
 5073SOL    HW118496   2.658   0.216   2.059 -0.3314 -0.1485  0.6330
 5073SOL    HW218497   2.666   0.067   2.037  0.2890  0.0137 -0.3472
 5074SOL     OW18498   9.065   9.897  10.861 -0.1051  0.6764 -0.1747
 5074SOL    HW118499   8.984   9.948  10.854  0.6895  2.5490  2.5372
 5074SOL    HW218500   9.052   9.843  10.939  0.9986  0.5024 -0.0938
 5075SOL     OW18501   4.980  10.460   9.429 -0.0936  0.6016 -0.0707
 5075SOL    HW118502   5.029  10.458   9.511 -0.2206  2.4129  0.0996
 5075SOL    HW218503   4.888  10.449   9.455  0.0486 -1.2658 -0.2420
 5076SOL     OW18504  10.395   7.110   5.899 -0.1284  0.2123  0.2033
 5076SOL    HW118505  10.479   7.068   5.916  0.1948  1.5441  2.0804
 5076SOL    HW218506  10.412   7.169   5.826 -0.0414 -1.1662 -0.9402
 5077SOL     OW18507   9.008  10.773  10.109 -0.6674 -0.1342  0.1967
 5077SOL    HW118508   8.983  10.804  10.196 -0.8932 -0.1836  0.1528
 5077SOL    HW218509   9.068  10.839  10.076 -1.3811  0.4297 -0.0171
 5078SOL     OW18510   4.243   4.352   2.408 -0.4040 -0.1668 -0.1837
 5078SOL    HW118511   4.192   4.284   2.362 -1.7245  1.2508 -0.9105
 5078SOL    HW218512   4.205   4.434   2.377  1.4106  0.9220  0.3907
 5079SOL     OW18513   1.701   8.735   9.429  0.4692 -0.5290 -0.2249
 5079SOL    HW118514   1.652   8.748   9.348 -0.2437  1.5787  0.4739
 5079SOL    HW218515   1.775   8.680   9.404  0.4836  0.3763 -2.3968
 5080SOL     OW18516   3.890   2.024  10.302 -0.5847 -0.5249  0.0469
 5080SOL    HW118517   3.916   1.961  10.369  0.7936 -0.6896 -0.6009
 5080SOL    HW218518   3.934   2.105  10.327  1.0044 -0.9165 -1.2976
 5081SOL     OW18519   6.062  10.040  11.306  0.0145  0.2016 -0.5248
 5081SOL    HW118520   6.025  10.103  11.244 -0.2713  0.5523 -0.0056
 5081SOL    HW218521   6.153  10.067  11.318 -0.3552  1.1084  0.4191
 5082SOL     OW18522   6.431  10.450   3.269 -0.4391 -0.4121 -0.1773
 5082SOL    HW118523   6.401  10.368   3.230 -1.3155  0.2631 -0.9716
 5082SOL    HW218524   6.376  10.517   3.228  2.0149  0.8875 -1.5894
 5083SOL     OW18525   6.153   9.110   6.383 -0.3086  0.4222 -0.1733
 5083SOL    HW118526   6.231   9.164   6.371 -0.5355  0.4710 -1.5594
 5083SOL    HW218527   6.093   9.138   6.314 -0.1369 -2.1145 -1.4651
 5084SOL     OW18528   0.499   8.980   4.333  0.6534 -0.3115 -0.0208
 5084SOL    HW118529   0.405   8.980   4.314  0.8286 -2.2320 -1.1208
 5084SOL    HW218530   0.536   9.041   4.270  0.2923 -0.6033 -0.5247
 5085SOL     OW18531   0.750   3.001   1.894 -0.0542 -0.1112 -1.0109
 5085SOL    HW118532   0.668   3.032   1.932  0.4827  0.3176 -0.1646
 5085SOL    HW218533   0.816   3.063   1.925  1.3248 -2.7350  1.9834
 5086SOL     OW18534   5.812   2.160   7.867 -0.0952  0.0948  0.2026
 5086SOL    HW118535   5.813   2.238   7.812 -0.3249  0.8692  1.2508
 5086SOL    HW218536   5.725   2.161   7.908 -0.6937 -1.5682 -0.9170
 5087SOL     OW18537   5.467   1.980   3.473  0.5403  0.0084 -0.2941
 5087SOL    HW118538   5.400   1.918   3.501  0.2046  0.4972 -0.0240
 5087SOL    HW218539   5.486   2.032   3.551 -0.1191  1.1196 -0.8537
 5088SOL     OW18540   7.971   4.252   7.248 -0.4118  0.4131  0.1916
 5088SOL    HW118541   7.918   4.178   7.219  0.3507 -0.0366 -0.0664
 5088SOL    HW218542   7.979   4.241   7.343  1.6975 -1.2033 -0.1028
 5089SOL     OW18543   4.086   3.857   9.173 -0.2992  0.6136  0.8011
 5089SOL    HW118544   4.045   3.790   9.227  0.5157  0.7824  1.6633
 5089SOL    HW218545   4.017   3.886   9.114 -0.3541 -1.8211 -0.4469
 5090SOL     OW18546   5.385   5.618   0.416 -0.0354  0.0655  0.2129
 5090SOL    HW118547   5.445   5.545   0.431  1.1253  0.3315 -2.4432
 5090SOL    HW218548   5.436   5.679   0.362 -1.2779  2.4207  1.5833
 5091SOL     OW18549   2.996   2.918   0.892  0.4052  0.0298  0.3280
 5091SOL    HW118550   3.065   2.878   0.945 -1.2192 -0.6890  1.9893
 5091SOL    HW218551   2.932   2.950   0.956 -0.9769  0.3662 -1.1690
 5092SOL     OW18552   0.136   7.719   9.787  0.3088 -0.4705 -0.1388
 5092SOL    HW118553   0.146   7.813   9.802  0.3687 -0.4006 -0.6028
 5092SOL    HW218554   0.201   7.698   9.720 -0.0316 -0.7518 -0.3848
 5093SOL     OW18555   5.974   8.617   4.857  0.2693  0.4373 -0.2646
 5093SOL    HW118556   6.001   8.563   4.932  1.2363 -0.3120 -1.1224
 5093SOL    HW218557   5.963   8.554   4.786 -1.3994  1.0444 -0.5769
 5094SOL     OW18558  10.777   0.224   8.739  0.6011 -0.2827  0.2697
 5094SOL    HW118559  10.849   0.273   8.699  0.3426 -1.2115 -1.4345
 5094SOL    HW218560  10.821   0.156   8.791  0.9730 -0.5768 -0.4153
 5095SOL     OW18561   0.278  10.123   1.263 -0.2719 -0.0878 -1.1242
 5095SOL    HW118562   0.215  10.096   1.330  2.3219 -2.1007  0.7311
 5095SOL    HW218563   0.266  10.217   1.255 -1.4173  0.0732  1.4385
 5096SOL     OW18564   2.905   8.955   2.856  0.4302  0.5119 -0.2859
 5096SOL    HW118565   2.979   9.000   2.896  0.3345  0.8358 -0.4689
 5096SOL    HW218566   2.942   8.913   2.778  0.7898 -0.7912  0.5523
 5097SOL     OW18567   3.102  10.120   7.862 -0.3209 -0.3907  0.0885
 5097SOL    HW118568   3.043  10.187   7.828  0.2393 -0.2603 -0.6678
 5097SOL    HW218569   3.114  10.060   7.788  0.9001 -0.1276  0.0545
 5098SOL     OW18570   1.285   3.064   5.840  0.3633 -0.3304 -0.0285
 5098SOL    HW118571   1.205   3.103   5.806  0.0967  1.6656  2.5514
 5098SOL    HW218572   1.283   2.974   5.808 -2.0182  0.1338 -1.4473
 5099SOL     OW18573   4.111   7.745   6.406 -0.0149  0.1335  0.1590
 5099SOL    HW118574   4.132   7.795   6.327  0.8901 -2.9022 -1.6900
 5099SOL    HW218575   4.046   7.681   6.377 -1.6030  0.5292  2.5596
 5100SOL     OW18576   6.837   9.152   5.244  0.0013  0.4071  0.5796
 5100SOL    HW118577   6.768   9.086   5.247 -1.7303  2.0093 -1.1870
 5100SOL    HW218578   6.918   9.101   5.251 -1.2517 -1.8604 -0.0926
 5101SOL     OW18579   8.754   3.294   1.385 -0.4832  0.1828 -0.3177
 5101SOL    HW118580   8.843   3.284   1.352  0.4697  2.2860  1.4346
 5101SOL    HW218581   8.724   3.377   1.349 -0.1959  1.4718  2.2214
 5102SOL     OW18582   4.576   0.141   3.452 -0.2148  0.7431 -0.0777
 5102SOL    HW118583   4.492   0.148   3.407  0.1522 -1.4678 -1.2719
 5102SOL    HW218584   4.568   0.061   3.504  1.2257  0.3125 -0.4796
 5103SOL     OW18585   0.030   5.146  10.673  0.3744  0.3718 -0.0742
 5103SOL    HW118586   0.122   5.156  10.696  0.7223 -1.2490 -0.6315
 5103SOL    HW218587  -0.011   5.110  10.751  0.3267  0.5549 -0.0144
 5104SOL     OW18588   0.370   0.105   7.896 -0.4158 -0.1642  0.2367
 5104SOL    HW118589   0.311   0.131   7.825 -0.5961  2.3097  1.2010
 5104SOL    HW218590   0.312   0.081   7.968 -0.2584  0.3369  0.5361
 5105SOL     OW18591   0.696   3.908   4.814  0.5527  0.2845 -0.3749
 5105SOL    HW118592   0.754   3.942   4.881  0.1625 -0.2590  0.2493
 5105SOL    HW218593   0.647   3.838   4.857  0.8496 -0.6148 -1.4275
 5106SOL     OW18594   5.960   4.744   9.296  0.1986 -0.4707  0.0131
 5106SOL    HW118595   5.979   4.711   9.208 -1.0678  0.7318 -0.7605
 5106SOL    HW218596   5.912   4.825   9.281  1.3879  0.6234  1.8360
 5107SOL     OW18597   2.236   7.888   0.834  0.0494  0.7153 -0.7059
 5107SOL    HW118598   2.235   7.983   0.837  0.2386  0.6852  0.8337
 5107SOL    HW218599   2.288   7.861   0.910 -1.0589 -0.6331 -0.3715
 5108SOL     OW18600   2.020   7.421   6.436  0.2416  0.0728 -0.2448
 5108SOL    HW118601   2.068   7.467   6.368  1.1805 -1.8583 -0.9748
 5108SOL    HW218602   2.088   7.393   6.498 -0.5724  1.6271  1.4280
 5109SOL     OW18603   1.966   0.630   9.670 -0.1847 -0.0937 -0.5028
 5109SOL    HW118604   1.911   0.650   9.746  0.7841  1.6935 -0.1894
 5109SOL    HW218605   1.935   0.689   9.602 -0.0122 -0.5521 -0.9857
 5110SOL     OW18606   0.290   3.586   9.512  0.2625 -0.3803  0.4416
 5110SOL    HW118607   0.292   3.603   9.418 -0.3078 -0.1012  0.4749
 5110SOL    HW218608   0.305   3.672   9.553  1.8417 -0.7092  0.6150
 5111SOL     OW18609   0.750   1.366   9.473  0.4880  0.6137  0.3754
 5111SOL    HW118610   0.689   1.364   9.399  1.5254 -0.3723 -0.5001
 5111SOL    HW218611   0.836   1.364   9.432  1.0838 -0.5862  1.6294
 5112SOL     OW18612   7.861   1.820   9.546  0.0053 -0.1060  0.2407
 5112SOL    HW118613   7.871   1.894   9.606  2.7562 -1.2172  1.3217
 5112SOL    HW218614   7.834   1.747   9.603 -2.1256 -0.1416 -0.7240
 5113SOL     OW18615   1.814  11.276   4.597  0.4881 -0.3672  0.0455
 5113SOL    HW118616   1.904  11.303   4.613 -0.2462  1.2040  1.8840
 5113SOL    HW218617   1.793  11.218   4.670 -0.4329  0.4683  0.4654
 5114SOL     OW18618   9.202   5.234   4.131  0.2840 -0.8514 -0.2006
 5114SOL    HW118619   9.128   5.179   4.103  0.0166 -0.2057 -0.7695
 5114SOL    HW218620   9.248   5.179   4.195 -3.2179  0.2476  3.8058
 5115SOL     OW18621   3.918   2.122   2.393 -0.0761  0.2766  0.4036
 5115SOL    HW118622   3.869   2.040   2.390 -0.1652  0.3740 -1.5446
 5115SOL    HW218623   4.010   2.095   2.399  0.0027 -0.0320 -1.6458
 5116SOL     OW18624   6.644   4.521   7.013 -0.2209  0.1477 -0.2303
 5116SOL    HW118625   6.698   4.591   6.977 -0.4411  0.6940  0.4978
 5116SOL    HW218626   6.707   4.456   7.043  0.1694  1.5743  2.2823
 5117SOL     OW18627   1.164   4.416   8.166  0.3097  0.1134  0.8220
 5117SOL    HW118628   1.166   4.495   8.112  2.0573  0.8744  1.9118
 5117SOL    HW218629   1.142   4.346   8.106  1.5338  1.0199 -0.7531
 5118SOL     OW18630   8.458  10.565   1.670 -0.2563 -0.0358 -0.3362
 5118SOL    HW118631   8.479  10.628   1.601 -1.4561  0.4900 -0.2428
 5118SOL    HW218632   8.536  10.510   1.677  1.0244  1.7371 -0.0794
 5119SOL     OW18633   2.886   9.084  11.048  0.0377 -0.4172 -0.1904
 5119SOL    HW118634   2.846   9.138  11.116  1.1153 -2.6086  2.3301
 5119SOL    HW218635   2.815   9.029  11.015 -0.1148 -0.6458  0.5150
 5120SOL     OW18636   4.728  11.383   1.607  0.1664 -0.4079  0.5990
 5120SOL    HW118637   4.814  11.340   1.605  0.3517 -0.0096 -0.7895
 5120SOL    HW218638   4.734  11.445   1.680  1.4083  0.2897 -0.0619
 5121SOL     OW18639   1.287  11.387   9.337 -0.4652 -0.1310 -0.0187
 5121SOL    HW118640   1.360  11.435   9.376 -0.3058  0.3037 -0.8367
 5121SOL    HW218641   1.310  11.380   9.244 -1.0812 -0.6972 -0.1312
 5122SOL     OW18642   3.763   1.930   7.140 -0.2334 -0.0824 -0.1807
 5122SOL    HW118643   3.758   1.838   7.115 -0.0723 -0.0761 -0.2401
 5122SOL    HW218644   3.843   1.937   7.192 -0.2890  0.0080 -0.1062
 5123SOL     OW18645   5.850   7.482   3.541 -0.0120  0.0564 -0.3435
 5123SOL    HW118646   5.891   7.511   3.459 -1.4326  2.2423 -0.3763
 5123SOL    HW218647   5.766   7.444   3.515  1.0576 -2.6507 -0.1273
 5124SOL     OW18648   2.334   9.197   2.207 -0.1306  0.0682  0.0356
 5124SOL    HW118649   2.280   9.259   2.256  1.1973 -0.2859  2.0650
 5124SOL    HW218650   2.292   9.112   2.221 -1.8328  0.3607 -2.5769
 5125SOL     OW18651  10.162  10.850   8.307 -0.4160 -1.0564 -0.0360
 5125SOL    HW118652  10.162  10.758   8.280 -2.8223 -1.4545  1.0380
 5125SOL    HW218653  10.139  10.898   8.227 -0.2973 -1.4830 -0.3325
 5126SOL     OW18654   6.592   2.012  10.545  0.1396  0.2556  0.2638
 5126SOL    HW118655   6.560   2.018  10.455 -1.5901  1.0989  0.8871
 5126SOL    HW218656   6.570   1.923  10.572  2.5461 -0.7227 -0.7632
 5127SOL     OW18657   5.035   9.478   3.997  0.4791 -0.0232  0.0433
 5127SOL    HW118658   5.095   9.534   3.947 -2.2197  1.2329 -2.0780
 5127SOL    HW218659   5.017   9.528   4.077  2.7494 -0.8154  1.1615
 5128SOL     OW18660   1.992   5.958   5.697 -0.3019 -0.0565 -0.1392
 5128SOL    HW118661   2.074   5.973   5.743 -0.0479 -0.3994 -0.4807
 5128SOL    HW218662   1.928   6.010   5.746  0.7119  3.1629 -1.9609
 5129SOL     OW18663   9.029   5.666   0.156  0.6642  0.1162  0.2184
 5129SOL    HW118664   8.956   5.702   0.207  1.8040 -0.0083  2.0641
 5129SOL    HW218665   9.048   5.733   0.090 -3.3582 -1.3670 -2.8239
 5130SOL     OW18666   2.898   9.831   2.695 -0.1223  0.0216 -0.3321
 5130SOL    HW118667   2.967   9.854   2.757 -1.3762  1.4643  0.6035
 5130SOL    HW218668   2.915   9.886   2.618 -1.1137  1.5915  0.5345
 5131SOL     OW18669   8.476   9.118   7.454 -0.1954 -0.3469 -0.4848
 5131SOL    HW118670   8.555   9.078   7.419 -0.4149 -1.4237  0.2055
 5131SOL    HW218671   8.462   9.075   7.538 -2.2252 -1.1461 -1.1632
 5132SOL     OW18672   9.505   4.814   0.908 -0.1161 -0.1437  0.2739
 5132SOL    HW118673   9.471   4.768   0.832  0.2329 -1.7369  1.0391
 5132SOL    HW218674   9.454   4.780   0.982 -0.5498  1.4709  0.7632
 5133SOL     OW18675  11.283  10.832   4.503  0.2585 -0.2115 -0.0524
 5133SOL    HW118676  11.347  10.763   4.486  1.0694  0.2187  1.1240
 5133SOL    HW218677  11.294  10.894   4.431 -0.2755 -1.1419 -0.9578
 5134SOL     OW18678  11.014   4.149  11.198 -0.5472 -0.1399 -0.5493
 5134SOL    HW118679  11.009   4.090  11.123  3.3220 -1.0815 -0.2786
 5134SOL    HW218680  11.078   4.216  11.172 -1.1771  1.1166  0.9403
 5135SOL     OW18681  10.049   3.004   2.022 -0.0099  0.5585 -0.5226
 5135SOL    HW118682   9.957   3.002   2.049 -0.1684 -0.9281 -1.1185
 5135SOL    HW218683  10.078   2.914   2.028  2.0078  1.2674  1.5469
 5136SOL     OW18684   0.831   5.945   8.207 -0.3338 -0.1908 -0.4150
 5136SOL    HW118685   0.824   5.850   8.192 -2.1659 -0.0283 -0.8087
 5136SOL    HW218686   0.924   5.959   8.224  0.0303 -2.0214 -0.6219
 5137SOL     OW18687   6.800   4.215   3.053 -0.5636 -0.4534 -0.9877
 5137SOL    HW118688   6.714   4.218   3.094  0.2926  0.8707  0.9004
 5137SOL    HW218689   6.829   4.125   3.064 -0.6329 -0.2920  0.8947
 5138SOL     OW18690   5.762   7.286   4.733  0.2634 -0.4188  0.2021
 5138SOL    HW118691   5.708   7.344   4.786 -0.8488 -0.3472 -0.9813
 5138SOL    HW218692   5.783   7.213   4.791  0.4495  0.4389  1.2442
 5139SOL     OW18693   8.532   8.283   4.661 -0.1355 -0.1577 -0.3570
 5139SOL    HW118694   8.559   8.274   4.569  1.3969  0.6728 -0.0241
 5139SOL    HW218695   8.614   8.297   4.709 -1.1184  2.2497  0.7908
 5140SOL     OW18696   6.027   7.013   1.488 -0.2053 -0.1902 -0.2884
 5140SOL    HW118697   6.074   6.969   1.417  0.8995  0.7963 -0.2119
 5140SOL    HW218698   5.955   7.058   1.444 -2.6666 -3.6258 -0.1341
 5141SOL     OW18699   2.526   8.755   9.482 -0.4305  0.5404  0.1746
 5141SOL    HW118700   2.579   8.678   9.461 -0.5126  1.1381 -2.6705
 5141SOL    HW218701   2.436   8.728   9.461 -0.6838  0.9191  0.7451
 5142SOL     OW18702  10.871   4.121   3.012 -0.1452 -0.6327  0.0274
 5142SOL    HW118703  10.917   4.064   3.072 -1.3215  2.1960  4.0155
 5142SOL    HW218704  10.783   4.082   3.004  0.0363 -1.0540  0.0516
 5143SOL     OW18705   2.285  10.448   7.076  0.1027  0.4078  0.0716
 5143SOL    HW118706   2.224  10.452   7.150  0.7133  0.9965  0.5654
 5143SOL    HW218707   2.349  10.516   7.096 -1.2773  2.6003 -2.4109
 5144SOL     OW18708   2.703   9.224   8.389 -0.1207 -0.1676 -0.9194
 5144SOL    HW118709   2.623   9.273   8.368  0.4592  2.2790  1.8579
 5144SOL    HW218710   2.772   9.290   8.387  1.0363 -1.2179  1.1943
 5145SOL     OW18711   9.935  10.866   8.471 -0.2509  0.4917 -0.0573
 5145SOL    HW118712   9.880  10.789   8.463 -1.1156  1.1317 -0.5181
 5145SOL    HW218713  10.006  10.852   8.407 -0.3134  0.0213 -0.0264
 5146SOL     OW18714   2.218   7.196  11.319 -0.1005  0.1157  0.1894
 5146SOL    HW118715   2.169   7.130  11.269  0.7097 -0.4091  0.0656
 5146SOL    HW218716   2.297   7.211  11.268 -0.7322  1.9811 -0.3183
 5147SOL     OW18717  10.871   2.363   2.763 -0.2374 -0.8716 -0.5143
 5147SOL    HW118718  10.786   2.332   2.730 -0.3221 -1.5507  0.3072
 5147SOL    HW218719  10.933   2.296   2.735  0.1518 -0.0603 -1.6596
 5148SOL     OW18720   8.189   2.025   4.249  0.0535  0.4544 -0.2265
 5148SOL    HW118721   8.228   1.971   4.181 -1.8569  0.5228 -1.4495
 5148SOL    HW218722   8.154   2.102   4.203 -0.1476  1.1436  1.0150
 5149SOL     OW18723   1.874   1.819   1.073 -0.3472  0.0127 -0.9728
 5149SOL    HW118724   1.930   1.840   1.148 -0.4797  1.5870 -1.2781
 5149SOL    HW218725   1.936   1.802   1.002 -0.2276 -1.1903 -0.6054
 5150SOL     OW18726   2.248   0.509   3.968 -0.2038  0.3194  0.2160
 5150SOL    HW118727   2.260   0.515   3.873 -0.6339 -0.2052  0.1263
 5150SOL    HW218728   2.335   0.489   4.002  0.1697  1.5467  0.0354
 5151SOL     OW18729   0.831   5.320   9.719  0.4503 -0.0306 -0.1897
 5151SOL    HW118730   0.774   5.397   9.714  0.2306 -0.2701 -1.9887
 5151SOL    HW218731   0.920   5.356   9.720  0.3432  0.2931  1.3811
 5152SOL     OW18732   2.526   5.169   1.767  0.5073 -0.0784 -0.1273
 5152SOL    HW118733   2.520   5.117   1.687  1.9366  0.3018 -0.5047
 5152SOL    HW218734   2.522   5.104   1.838 -0.4753 -0.4402 -0.4985
 5153SOL     OW18735   8.093   6.117   1.656 -0.3192  0.1710 -0.0908
 5153SOL    HW118736   8.071   6.147   1.744  1.5890 -0.0845  0.5333
 5153SOL    HW218737   8.058   6.028   1.650 -2.4417  0.9738 -0.4669
 5154SOL     OW18738  11.355   1.818   8.307 -0.1770 -0.3853  0.0841
 5154SOL    HW118739  11.319   1.787   8.224 -0.3200  0.4515 -0.1742
 5154SOL    HW218740  11.407   1.745   8.339 -0.6910 -0.9746 -0.3946
 5155SOL     OW18741   1.759   1.334   1.968 -0.0032  0.0300  0.2912
 5155SOL    HW118742   1.679   1.284   1.955  0.1111 -0.2934  0.7984
 5155SOL    HW218743   1.829   1.276   1.939  0.1248 -0.0852  0.8202
 5156SOL     OW18744   3.493  10.872   5.816 -0.2788 -0.3709 -0.5311
 5156SOL    HW118745   3.538  10.789   5.797 -0.1402 -0.3947 -0.0952
 5156SOL    HW218746   3.452  10.858   5.901  1.8996  0.8867  0.8085
 5157SOL     OW18747   1.904   2.305   0.160 -0.2887  0.3484  0.1736
 5157SOL    HW118748   1.873   2.392   0.186  1.1243  0.4716  1.5517
 5157SOL    HW218749   1.999   2.312   0.162 -0.0958 -0.4926 -2.3218
 5158SOL     OW18750  10.165   3.576   5.336 -0.0564  0.1149 -0.1579
 5158SOL    HW118751  10.136   3.567   5.245 -1.5868 -1.6407  0.4439
 5158SOL    HW218752  10.088   3.553   5.388  1.3750 -0.9791  1.5824
 5159SOL     OW18753   6.294   2.736   8.877 -0.2277 -0.0122  0.0207
 5159SOL    HW118754   6.276   2.649   8.912 -1.6605  0.2891  0.0920
 5159SOL    HW218755   6.388   2.737   8.863 -0.3624 -2.1005 -1.4101
 5160SOL     OW18756   8.467   5.989   8.948  0.0240  0.4052  0.1240
 5160SOL    HW118757   8.476   6.016   8.857 -1.2626 -0.9724 -0.4506
 5160SOL    HW218758   8.536   5.924   8.961 -1.1757 -1.0898 -0.6048
 5161SOL     OW18759  10.480   8.174   9.300  0.2305  0.5210  0.1460
 5161SOL    HW118760  10.458   8.080   9.299 -0.5188  0.5558  2.9965
 5161SOL    HW218761  10.515   8.191   9.213  0.9473 -2.5331 -0.2993
 5162SOL     OW18762   3.907   8.644  11.166  0.4146  0.0551 -0.0336
 5162SOL    HW118763   3.877   8.611  11.081 -0.7183  2.4468 -0.6575
 5162SOL    HW218764   3.999   8.666  11.153  0.9531 -1.9067  0.1549
 5163SOL     OW18765   8.889   5.321  10.774 -0.0062 -0.1819  0.0959
 5163SOL    HW118766   8.827   5.266  10.823  1.5141 -1.0643  1.1597
 5163SOL    HW218767   8.891   5.282  10.687  1.7571 -2.6059  1.0776
 5164SOL     OW18768   5.454  10.151   5.157  0.1789 -0.5974 -0.2685
 5164SOL    HW118769   5.522  10.097   5.198 -1.3844 -2.9271 -0.5610
 5164SOL    HW218770   5.501  10.227   5.122  2.1048 -0.3572  2.5092
 5165SOL     OW18771   8.212   2.601   0.974  0.4525  0.2976  0.1098
 5165SOL    HW118772   8.189   2.634   1.061  0.8443  0.4319  0.1675
 5165SOL    HW218773   8.266   2.670   0.936 -0.3785  0.5904 -0.5629
 5166SOL     OW18774   3.101   8.383   0.156 -0.1375  0.1931 -0.0414
 5166SOL    HW118775   3.116   8.347   0.069 -1.5318 -0.3227 -0.0935
 5166SOL    HW218776   3.007   8.401   0.158  0.0822  1.3399  0.9324
 5167SOL     OW18777  10.171  11.193   8.633 -0.4159 -0.3156 -0.3849
 5167SOL    HW118778  10.168  11.137   8.556  0.3080 -1.2258  0.2368
 5167SOL    HW218779  10.252  11.244   8.623 -2.1324  2.3423 -2.0779
 5168SOL     OW18780   3.634  10.843   4.297  0.1011  0.4269  0.1019
 5168SOL    HW118781   3.716  10.821   4.342 -0.0653  2.5819  1.6192
 5168SOL    HW218782   3.659  10.910   4.234 -0.2912  0.1534 -0.3431
 5169SOL     OW18783   3.354   3.162   9.790 -0.0997  0.7755 -0.1093
 5169SOL    HW118784   3.268   3.121   9.790  0.4772 -0.5248  1.3894
 5169SOL    HW218785   3.367   3.193   9.879  0.3908  2.3263 -0.6808
 5170SOL     OW18786   4.628  11.187   1.012  0.2140  0.1122  0.0867
 5170SOL    HW118787   4.561  11.253   1.025  0.3307 -0.2312  3.0175
 5170SOL    HW218788   4.689  11.200   1.085  0.6812 -2.6782  0.2903
 5171SOL     OW18789   9.026   3.825   7.969 -0.1488 -0.3566  0.5254
 5171SOL    HW118790   8.979   3.806   8.050 -1.0920 -2.1442 -0.3594
 5171SOL    HW218791   9.085   3.750   7.957 -0.0600 -0.1532 -0.4445
 5172SOL     OW18792   6.150   6.394   5.589  0.0767  0.0250  0.3371
 5172SOL    HW118793   6.235   6.413   5.548  0.0822 -0.8090 -0.0564
 5172SOL    HW218794   6.108   6.480   5.596 -0.2341  0.1708 -2.1567
 5173SOL     OW18795   1.267   3.911   4.363  0.1894  0.4917 -0.3136
 5173SOL    HW118796   1.361   3.927   4.375 -0.0618  2.3438 -0.4587
 5173SOL    HW218797   1.237   3.983   4.307 -0.8542 -1.5313 -2.5515
 5174SOL     OW18798   6.849   5.033   7.305  0.2414 -0.1607 -0.1367
 5174SOL    HW118799   6.788   5.104   7.286 -0.2170 -0.7049 -0.7436
 5174SOL    HW218800   6.935   5.075   7.307 -0.1885  0.7037  1.2501
 5175SOL     OW18801   9.605   1.764   7.014 -0.4835 -0.0553 -0.0073
 5175SOL    HW118802   9.564   1.721   6.939  0.0630 -0.9862  0.2025
 5175SOL    HW218803   9.590   1.857   7.000 -1.4417 -0.2906 -0.6430
 5176SOL     OW18804   0.348   8.195   7.159  0.6339  0.5331  0.2394
 5176SOL    HW118805   0.359   8.105   7.189 -1.3587  0.8372  2.1581
 5176SOL    HW218806   0.336   8.188   7.064  2.1351 -1.0271  0.1294
 5177SOL     OW18807   4.217   9.855   9.362 -0.2123  0.2546  0.2785
 5177SOL    HW118808   4.215   9.943   9.400 -1.1452  0.1569  0.4876
 5177SOL    HW218809   4.214   9.869   9.267 -1.9903  0.4503  0.3230
 5178SOL     OW18810   6.292   9.856   6.831 -0.4149 -0.4484 -0.0741
 5178SOL    HW118811   6.283   9.786   6.896  0.8733 -0.5003  0.0696
 5178SOL    HW218812   6.359   9.824   6.770 -1.2890 -0.2132 -1.1899
 5179SOL     OW18813   4.453   5.110   5.495 -0.1595  0.9233  0.1145
 5179SOL    HW118814   4.486   5.128   5.407 -0.7741  0.6284 -0.1833
 5179SOL    HW218815   4.514   5.154   5.554 -0.4898  2.2519 -0.5131
 5180SOL     OW18816   7.986   3.129   7.018  0.4498 -0.1044  0.0931
 5180SOL    HW118817   7.996   3.224   7.017 -0.8713  0.0531  0.1660
 5180SOL    HW218818   8.000   3.102   6.928  1.6972  0.0513  0.2319
 5181SOL     OW18819   1.258   0.297   7.099  0.0459  0.2106  0.0183
 5181SOL    HW118820   1.256   0.333   7.188 -0.6133 -3.0283  1.4521
 5181SOL    HW218821   1.198   0.353   7.049 -2.0150  0.2995  2.4144
 5182SOL     OW18822   2.027   5.821  10.065  0.1322 -0.7225  0.3490
 5182SOL    HW118823   1.954   5.768  10.033 -0.3025  0.5194 -0.8548
 5182SOL    HW218824   2.008   5.909  10.032  2.1108 -0.3353  0.1065
 5183SOL     OW18825  10.223  10.198   5.036 -0.2529  0.0201 -0.0261
 5183SOL    HW118826  10.200  10.193   5.129 -0.1388  1.6984  0.1209
 5183SOL    HW218827  10.196  10.113   5.000 -3.0572  0.4113  0.9263
 5184SOL     OW18828   9.150  10.390   9.265 -0.2224  0.1331  0.2221
 5184SOL    HW118829   9.128  10.481   9.284 -0.8404 -0.1907  1.1166
 5184SOL    HW218830   9.066  10.344   9.270 -0.2356 -0.2201 -2.0148
 5185SOL     OW18831   1.869   1.498   6.868  0.5399 -0.2670 -0.6129
 5185SOL    HW118832   1.779   1.469   6.881 -0.2597  0.4518 -3.7384
 5185SOL    HW218833   1.865   1.593   6.877  1.1892 -0.2885  0.0317
 5186SOL     OW18834   1.795   8.104   8.633 -0.6386  0.3124  0.2195
 5186SOL    HW118835   1.806   8.176   8.695  0.3961 -1.4875  2.2612
 5186SOL    HW218836   1.881   8.093   8.592 -1.0691  0.8711 -0.8860
 5187SOL     OW18837   3.021  10.538   1.173  0.4277  0.2074 -0.7930
 5187SOL    HW118838   2.926  10.528   1.160  0.1488  0.5377  0.7808
 5187SOL    HW218839   3.040  10.482   1.248  2.0910 -2.3983 -2.9696
 5188SOL     OW18840   4.094   4.293   7.454 -0.0712 -0.0686  0.6732
 5188SOL    HW118841   4.081   4.203   7.425  1.6355 -0.2821  0.4880
 5188SOL    HW218842   4.100   4.344   7.374  1.4339 -0.1821  0.6881
 5189SOL     OW18843   5.896   6.308   9.720  0.2391  0.5111 -0.0345
 5189SOL    HW118844   5.937   6.242   9.776  0.8899 -0.7719 -1.8916
 5189SOL    HW218845   5.969   6.348   9.673 -0.4136 -1.9817 -3.5711
 5190SOL     OW18846   2.136   0.512   8.717  0.3586  0.2994 -0.5724
 5190SOL    HW118847   2.047   0.544   8.702  0.5233  0.1278 -1.9605
 5190SOL    HW218848   2.190   0.591   8.721  0.2343  0.3720 -0.3027
 5191SOL     OW18849  10.055   1.305   9.276  0.1554 -0.0127  0.2875
 5191SOL    HW118850  10.088   1.225   9.316 -1.1171 -0.7928 -0.1684
 5191SOL    HW218851  10.002   1.347   9.344 -1.3426 -0.9292 -0.2627
 5192SOL     OW18852   1.998   6.177  10.320  0.1497 -0.1568 -0.4279
 5192SOL    HW118853   1.979   6.163  10.413 -0.2242  0.2200 -0.4416
 5192SOL    HW218854   2.010   6.272  10.313  2.3963 -0.3890 -0.3659
 5193SOL     OW18855   5.031  11.234  10.266 -0.1020  0.2107  0.3689
 5193SOL    HW118856   4.937  11.225  10.253  0.0499  1.7588 -2.4958
 5193SOL    HW218857   5.062  11.144  10.279 -1.7476 -0.4962 -0.3682
 5194SOL     OW18858   0.694   7.809   7.879 -0.2814  0.2753 -0.4173
 5194SOL    HW118859   0.751   7.801   7.803  1.6201  3.1379  0.5192
 5194SOL    HW218860   0.619   7.859   7.847 -0.6225 -0.5408 -0.9086
 5195SOL     OW18861   0.941   1.849   4.108  0.0698 -0.6089 -0.3384
 5195SOL    HW118862   0.882   1.843   4.034  0.2157 -1.7160 -0.3860
 5195SOL    HW218863   0.884   1.851   4.185 -0.0606 -0.4920 -0.4401
 5196SOL     OW18864   3.866   3.870   5.040 -0.2147  0.4542 -0.3764
 5196SOL    HW118865   3.923   3.884   4.964  1.8912  0.9251  1.1997
 5196SOL    HW218866   3.911   3.802   5.091 -1.5468  0.1996  0.5061
 5197SOL     OW18867   4.711   1.277  10.748 -0.3251 -0.1285 -0.4445
 5197SOL    HW118868   4.696   1.360  10.793  1.9411 -0.0460  0.3170
 5197SOL    HW218869   4.782   1.296  10.687  1.7915 -1.8907  1.2803
 5198SOL     OW18870   5.492   6.129   4.817  0.3153  0.0807 -0.0761
 5198SOL    HW118871   5.418   6.122   4.756 -0.2005 -1.0899  0.6613
 5198SOL    HW218872   5.567   6.095   4.767  0.2076  0.5221 -0.5499
 5199SOL     OW18873  10.095   6.689   3.795 -0.4420  0.1628 -0.2682
 5199SOL    HW118874  10.127   6.599   3.804 -2.2349 -0.4080  0.9958
 5199SOL    HW218875  10.001   6.683   3.810 -0.7081  2.1906 -0.7536
 5200SOL     OW18876  10.963   4.881   5.659  0.1683 -0.1570  0.4423
 5200SOL    HW118877  10.957   4.791   5.627  1.3668 -0.2673  0.4971
 5200SOL    HW218878  10.972   4.872   5.753  1.9560 -0.0805  0.3124
 5201SOL     OW18879   9.855   1.670   6.048 -0.2117  0.3447  0.7415
 5201SOL    HW118880   9.812   1.597   6.002 -1.5240  1.0666  0.7640
 5201SOL    HW218881   9.927   1.695   5.990 -0.7154  0.0489 -0.0372
 5202SOL     OW18882   3.135   3.147   1.619 -0.1479 -0.3248  0.1097
 5202SOL    HW118883   3.107   3.217   1.560 -1.6520 -1.5187 -0.6475
 5202SOL    HW218884   3.153   3.191   1.702 -0.3825  1.0380 -0.5404
 5203SOL     OW18885   4.407   6.388   6.925  0.5696 -0.4174  0.2083
 5203SOL    HW118886   4.471   6.395   6.854  0.6937 -2.0391  0.1285
 5203SOL    HW218887   4.322   6.391   6.880  0.6519 -1.8153 -0.0716
 5204SOL     OW18888   3.501   5.632   7.086  0.5633 -0.1066 -0.1152
 5204SOL    HW118889   3.469   5.722   7.096 -0.6444 -0.7175  2.2264
 5204SOL    HW218890   3.511   5.600   7.176  0.5134 -2.4670 -0.8771
 5205SOL     OW18891   4.383   6.461   2.302 -0.7993  0.4135 -0.1991
 5205SOL    HW118892   4.435   6.384   2.279 -0.4938  0.8143 -0.8668
 5205SOL    HW218893   4.446   6.522   2.340 -0.7656  0.8942 -0.9991
 5206SOL     OW18894   4.230   3.365   5.077 -0.2265  0.0635 -0.1913
 5206SOL    HW118895   4.229   3.342   5.170 -0.4781  0.6574 -0.0388
 5206SOL    HW218896   4.156   3.426   5.067 -0.8341 -0.7757 -0.9820
 5207SOL     OW18897   8.470   9.610   4.985  0.0430  0.2672 -0.1943
 5207SOL    HW118898   8.397   9.578   5.038 -0.8504 -2.0260 -2.6043
 5207SOL    HW218899   8.476   9.703   5.006 -1.9185 -0.0036  1.9380
 5208SOL     OW18900   3.635   4.616   2.753 -0.3171  0.3095  0.3630
 5208SOL    HW118901   3.608   4.613   2.661 -0.2484  1.3518  0.3020
 5208SOL    HW218902   3.618   4.527   2.785 -0.2404 -0.1011 -0.6788
 5209SOL     OW18903   5.493   3.693   4.762 -0.4981  0.2881 -0.3595
 5209SOL    HW118904   5.506   3.779   4.721  0.9996  0.8515  1.1932
 5209SOL    HW218905   5.530   3.631   4.699  2.4465  1.1973  0.3253
 5210SOL     OW18906   3.844   9.670   5.389 -0.4617 -0.1790 -0.1716
 5210SOL    HW118907   3.926   9.623   5.376  0.0466  0.6746 -0.1204
 5210SOL    HW218908   3.849   9.706   5.477 -0.5771  0.4570 -0.4123
 5211SOL     OW18909   3.831  10.278   3.885  0.8737 -0.0684  0.5370
 5211SOL    HW118910   3.840  10.331   3.805 -1.2750 -1.8614 -1.0095
 5211SOL    HW218911   3.803  10.341   3.952  1.8126  1.3194 -0.3132
 5212SOL     OW18912   4.142  10.945   7.222 -0.5549 -0.1072  0.1022
 5212SOL    HW118913   4.189  11.011   7.169 -2.0337  1.5485  0.7556
 5212SOL    HW218914   4.211  10.903   7.274  0.6985 -0.5111 -1.7550
 5213SOL     OW18915   4.753   7.663   8.579 -1.0292 -0.0807  0.3265
 5213SOL    HW118916   4.834   7.615   8.597 -0.9599 -0.2466 -0.3835
 5213SOL    HW218917   4.706   7.663   8.663 -1.0911 -1.5184  0.3299
 5214SOL     OW18918   2.168   3.132   8.350  0.3144  0.3643 -0.3395
 5214SOL    HW118919   2.157   3.223   8.323 -3.9486  0.4600  0.8892
 5214SOL    HW218920   2.147   3.081   8.272 -0.8537  0.5214 -0.1448
 5215SOL     OW18921   8.353   0.721   9.716  0.2202 -0.5654 -0.1571
 5215SOL    HW118922   8.366   0.756   9.804  0.2964 -1.3614  0.1571
 5215SOL    HW218923   8.407   0.777   9.660 -0.8986  0.8243  0.0890
 5216SOL     OW18924  10.076   2.931   8.953 -0.1244 -0.3551 -0.1823
 5216SOL    HW118925   9.997   2.918   9.006  0.0765  1.2533  0.5728
 5216SOL    HW218926  10.136   2.863   8.982 -0.7520 -0.7619  0.1920
 5217SOL     OW18927   8.273   8.130   2.340 -0.3639 -0.0817  0.2371
 5217SOL    HW118928   8.180   8.109   2.339 -0.5004  0.5322  0.1809
 5217SOL    HW218929   8.291   8.165   2.253  0.0348 -0.6638  0.0722
 5218SOL     OW18930   3.679   4.917   7.084 -0.1677 -0.1470  0.1963
 5218SOL    HW118931   3.601   4.969   7.064 -0.7820 -0.5925  1.3399
 5218SOL    HW218932   3.646   4.842   7.133  0.6725 -1.7393 -1.5435
 5219SOL     OW18933   6.725   0.729   0.181  0.3810  0.3623  0.5651
 5219SOL    HW118934   6.800   0.702   0.234  1.7321  1.1924 -0.8607
 5219SOL    HW218935   6.754   0.718   0.091 -1.9701 -1.3360 -0.0954
 5220SOL     OW18936   0.349   3.074   0.649  0.4211 -0.0111 -0.1055
 5220SOL    HW118937   0.265   3.120   0.641 -0.2902 -1.2122  0.1749
 5220SOL    HW218938   0.325   2.987   0.680  1.8210 -0.2319  0.4261
 5221SOL     OW18939   8.299   7.676  11.275  0.3697  0.1948  0.4526
 5221SOL    HW118940   8.325   7.587  11.253  0.0143  0.2940 -0.4022
 5221SOL    HW218941   8.380   7.727  11.269  0.0460  0.5099 -2.2320
 5222SOL     OW18942   4.190   0.592   1.766  0.1001 -0.2161 -0.2092
 5222SOL    HW118943   4.183   0.506   1.724 -2.5070 -0.2731  0.1547
 5222SOL    HW218944   4.157   0.653   1.700  1.4335  0.4757 -0.2699
 5223SOL     OW18945   4.562   0.850   2.715  0.0748  0.5945 -0.1147
 5223SOL    HW118946   4.504   0.790   2.668  1.1062 -0.0323 -0.6198
 5223SOL    HW218947   4.649   0.811   2.707  0.4152  0.9285  1.5946
 5224SOL     OW18948  10.806   7.181   3.960  0.4836 -0.4721  0.2927
 5224SOL    HW118949  10.829   7.133   4.039  0.8379 -0.4660  0.1967
 5224SOL    HW218950  10.814   7.273   3.984 -0.5829 -0.4397  0.5919
 5225SOL     OW18951   3.298   4.159   2.239  0.1854 -0.6808 -0.2020
 5225SOL    HW118952   3.312   4.103   2.315 -0.2278 -1.2098 -0.5130
 5225SOL    HW218953   3.302   4.100   2.164  1.1596 -0.0790 -0.6452
 5226SOL     OW18954   1.613   4.666   6.746 -0.0628  0.7153  0.0133
 5226SOL    HW118955   1.611   4.599   6.677  0.1002  0.4132  0.3004
 5226SOL    HW218956   1.589   4.747   6.701 -1.5667  0.2446 -0.0882
 5227SOL     OW18957   8.004   2.435   3.419  0.1383  0.2517 -0.7657
 5227SOL    HW118958   7.944   2.461   3.489  0.3432  1.0026 -0.8609
 5227SOL    HW218959   7.988   2.499   3.350 -0.6824 -0.9892 -1.7672
 5228SOL     OW18960   4.019   9.070   4.056  0.3578  0.4055  0.3748
 5228SOL    HW118961   4.062   9.119   4.126  0.8481 -1.1795  1.2373
 5228SOL    HW218962   4.090   9.020   4.015 -0.2437 -0.2353  0.0980
 5229SOL     OW18963  10.138   1.897   5.103  0.7450  0.1334  0.1558
 5229SOL    HW118964  10.187   1.815   5.100 -1.8996 -1.6563  1.7894
 5229SOL    HW218965  10.133   1.919   5.196 -0.3342  0.9996 -0.0805
 5230SOL     OW18966   1.528   6.724   1.546 -0.1502  0.0262 -0.0494
 5230SOL    HW118967   1.489   6.661   1.607 -0.7034  0.1612 -0.2582
 5230SOL    HW218968   1.614   6.687   1.526  0.0427 -0.0210  0.8120
 5231SOL     OW18969   7.008   5.794   4.200 -0.0595  0.0863 -0.0977
 5231SOL    HW118970   7.001   5.751   4.115  1.4661  1.0871 -0.7817
 5231SOL    HW218971   7.036   5.724   4.260 -3.1416 -1.0997  0.1038
 5232SOL     OW18972   9.266   9.073   7.868  0.2886 -0.8241 -0.2587
 5232SOL    HW118973   9.271   8.983   7.900  1.3935 -0.9736 -0.8065
 5232SOL    HW218974   9.353   9.110   7.884  0.2171 -0.2371 -1.1199
 5233SOL     OW18975   2.577   4.927  10.753  0.1017 -0.0927  0.2815
 5233SOL    HW118976   2.584   5.021  10.737  2.1700  0.0103  1.3131
 5233SOL    HW218977   2.520   4.920  10.830 -0.6759  0.2464 -0.2568
 5234SOL     OW18978   5.761   5.560   1.344 -0.3678 -0.4170  0.3185
 5234SOL    HW118979   5.827   5.605   1.396  2.2016 -1.2600 -2.0196
 5234SOL    HW218980   5.777   5.467   1.360 -2.1699 -0.6594  1.0102
 5235SOL     OW18981   6.657   4.245   4.357  0.3754 -0.1550  0.0257
 5235SOL    HW118982   6.712   4.194   4.416  1.0387  0.2482 -0.2354
 5235SOL    HW218983   6.569   4.237   4.395  0.6898 -0.3753  0.7423
 5236SOL     OW18984   9.301  10.033   5.646 -0.2735 -0.1104  0.3291
 5236SOL    HW118985   9.308  10.123   5.614  0.0696 -0.8119 -1.6738
 5236SOL    HW218986   9.214  10.005   5.619  0.5299 -1.1690 -1.3445
 5237SOL     OW18987   2.782   3.730   3.552  0.3708  0.7946 -1.0761
 5237SOL    HW118988   2.738   3.782   3.485 -0.7984 -0.4142 -1.2685
 5237SOL    HW218989   2.730   3.650   3.559 -0.5520  1.5425  2.4652
 5238SOL     OW18990   3.809   8.007   5.678 -0.1186  0.0825  0.2702
 5238SOL    HW118991   3.855   8.078   5.632 -1.2570  0.8549  0.3003
 5238SOL    HW218992   3.725   8.045   5.703 -0.3186 -0.9601  1.2326
 5239SOL     OW18993   9.491   3.343   8.806  0.0661 -0.4212 -0.1493
 5239SOL    HW118994   9.413   3.304   8.768  0.6790 -1.1515 -0.6978
 5239SOL    HW218995   9.548   3.361   8.731  0.3516  0.2685  0.2236
 5240SOL     OW18996   5.279   6.990   9.422 -0.3083 -0.3973  0.6150
 5240SOL    HW118997   5.186   6.974   9.439 -0.6654  1.7754  1.0676
 5240SOL    HW218998   5.288   6.982   9.328 -0.8597 -1.0872  0.6139
 5241SOL     OW18999   1.092   2.795   3.916  0.5170 -0.4008  0.1435
 5241SOL    HW119000   1.161   2.799   3.983 -0.9731  1.0977  1.6669
 5241SOL    HW219001   1.062   2.704   3.919  1.2293 -0.6326  0.7094
 5242SOL     OW19002   1.149  10.840   8.662  0.1814  0.4456  0.0699
 5242SOL    HW119003   1.164  10.868   8.753  0.2143 -0.8673  0.4918
 5242SOL    HW219004   1.175  10.748   8.661  0.1589  0.4356 -1.2780
 5243SOL     OW19005   0.051   0.856   6.182  0.0217 -0.2196  0.0758
 5243SOL    HW119006   0.054   0.930   6.242  0.5453  0.8722 -1.2530
 5243SOL    HW219007  -0.032   0.812   6.202 -0.3577  0.7950  0.7968
 5244SOL     OW19008   5.143   1.561   1.706  0.3094 -0.2356 -0.0168
 5244SOL    HW119009   5.165   1.633   1.647 -1.7744 -0.4784 -1.1515
 5244SOL    HW219010   5.050   1.571   1.724  0.2557 -1.8876  0.8660
 5245SOL     OW19011   5.953   0.036   8.108 -0.9056  0.0785 -0.0790
 5245SOL    HW119012   5.923  -0.039   8.058 -0.9438 -0.0223  0.0938
 5245SOL    HW219013   5.883   0.101   8.099  0.6818  1.5876 -3.3642
 5246SOL     OW19014   1.127   7.600   7.713  0.0665 -0.0234 -0.4738
 5246SOL    HW119015   1.220   7.617   7.725 -0.1969  0.4994  1.1030
 5246SOL    HW219016   1.117   7.582   7.620  1.7120  0.0675 -0.6882
 5247SOL     OW19017  10.142   8.454   0.342  0.3712 -0.2488  0.2900
 5247SOL    HW119018  10.110   8.540   0.318  1.2707  0.2445  0.8080
 5247SOL    HW219019  10.077   8.420   0.403 -0.5534 -0.4124 -0.7498
 5248SOL     OW19020   8.434   9.230   0.201  0.3987  0.0119 -0.2405
 5248SOL    HW119021   8.507   9.262   0.253 -0.0705 -0.3067  0.6377
 5248SOL    HW219022   8.456   9.138   0.183  0.0256 -0.2102  0.3953
 5249SOL     OW19023   5.692  10.406   4.273  0.0576  0.2607  0.1896
 5249SOL    HW119024   5.769  10.406   4.330 -0.3069  0.9095  0.7023
 5249SOL    HW219025   5.682  10.497   4.245  1.0911 -0.2887 -2.1417
 5250SOL     OW19026   2.437   3.353   5.016 -0.0732  0.0236  0.1407
 5250SOL    HW119027   2.465   3.320   5.102 -0.0468  1.3898  0.6745
 5250SOL    HW219028   2.375   3.423   5.035  0.2482  0.6374 -0.9425
 5251SOL     OW19029   0.153   8.037   8.538  0.5997  0.4822  0.7420
 5251SOL    HW119030   0.218   8.095   8.578  0.5848 -0.3218  1.9875
 5251SOL    HW219031   0.200   7.955   8.521  0.7455  0.9512 -1.4426
 5252SOL     OW19032  10.757  10.442   6.684 -0.0222 -0.3154 -0.7715
 5252SOL    HW119033  10.824  10.399   6.737 -1.3447 -2.4622 -0.7232
 5252SOL    HW219034  10.795  10.444   6.596  0.5862 -0.4323 -0.5200
 5253SOL     OW19035   9.567   2.071   0.527 -0.0177 -0.0812  0.1706
 5253SOL    HW119036   9.484   2.099   0.488 -0.7132 -1.0991  0.8633
 5253SOL    HW219037   9.595   1.998   0.472  0.9515  0.8838 -0.6564
 5254SOL     OW19038  10.834   6.299   4.700 -0.3964 -0.2528  0.0445
 5254SOL    HW119039  10.853   6.239   4.772 -0.4084 -0.3639 -0.0444
 5254SOL    HW219040  10.752   6.267   4.663 -0.5364 -0.0290  0.1567
 5255SOL     OW19041   8.182   2.209  11.124 -0.2001 -0.9592 -0.2412
 5255SOL    HW119042   8.174   2.152  11.201  2.4249 -2.9747 -1.2845
 5255SOL    HW219043   8.097   2.204  11.081 -1.3071 -0.8328  1.8081
 5256SOL     OW19044   1.561   0.360   8.928 -0.3940 -0.2800 -0.3822
 5256SOL    HW119045   1.622   0.351   8.855 -0.1750  0.5605 -0.3106
 5256SOL    HW219046   1.517   0.444   8.913 -0.6262 -0.2849  0.2430
 5257SOL     OW19047   8.594   4.291   8.735  0.8309 -0.4623 -0.7656
 5257SOL    HW119048   8.681   4.309   8.771  0.1410  1.1562  0.1412
 5257SOL    HW219049   8.585   4.352   8.662  0.1284 -0.0089 -0.3112
 5258SOL     OW19050   4.769   6.357   4.431 -0.5800  0.1214 -0.4481
 5258SOL    HW119051   4.783   6.425   4.366 -1.6386  0.4529 -0.3495
 5258SOL    HW219052   4.799   6.395   4.513 -0.2804  0.1158 -0.5553
 5259SOL     OW19053  10.933   6.802   7.721  0.5264  0.2078 -0.1873
 5259SOL    HW119054  10.981   6.857   7.659  1.5623 -1.5135 -0.9599
 5259SOL    HW219055  10.847   6.788   7.680  1.3985 -1.3935 -1.5742
 5260SOL     OW19056   4.154   8.565  10.338 -0.5301 -0.2193  0.0110
 5260SOL    HW119057   4.153   8.483  10.287 -3.1354 -0.3868  0.2125
 5260SOL    HW219058   4.088   8.552  10.406 -0.2032  1.6591  0.7504
 5261SOL     OW19059   1.065   4.254   8.797 -0.2152  0.2571 -0.5872
 5261SOL    HW119060   1.014   4.256   8.716 -2.4319 -0.2837  0.7259
 5261SOL    HW219061   1.068   4.161   8.821  2.6548  0.0594 -1.3059
 5262SOL     OW19062   7.224   7.822   1.394 -0.5719  0.2701 -0.0372
 5262SOL    HW119063   7.151   7.884   1.389 -0.2760  0.9960  2.8842
 5262SOL    HW219064   7.302   7.878   1.400 -0.0183 -0.4587 -0.2715
 5263SOL     OW19065   0.338   9.522   7.077  0.4004 -0.0129 -0.5562
 5263SOL    HW119066   0.414   9.466   7.062  0.8179  0.0695  1.0833
 5263SOL    HW219067   0.308   9.499   7.165  0.3130  1.9851 -0.0075
 5264SOL     OW19068   1.883   4.024   6.394 -0.2699 -0.3698 -0.0595
 5264SOL    HW119069   1.922   4.047   6.479 -0.4952 -0.9155  0.2006
 5264SOL    HW219070   1.788   4.030   6.409 -0.3229 -1.0371 -0.1021
 5265SOL     OW19071  10.277   2.410   6.005 -0.3233  0.1836  0.0910
 5265SOL    HW119072  10.275   2.343   6.073  0.2602 -0.3652 -0.4228
 5265SOL    HW219073  10.235   2.486   6.046 -1.5022 -0.6496  0.4967
 5266SOL     OW19074   6.209   7.661   8.085  0.1911 -0.5407  0.0842
 5266SOL    HW119075   6.235   7.609   8.008 -1.7577 -1.6443  0.1220
 5266SOL    HW219076   6.148   7.726   8.051 -0.6823 -1.0364  0.6849
 5267SOL     OW19077   0.374   4.883  11.218  0.8615 -0.0870 -0.1803
 5267SOL    HW119078   0.286   4.872  11.182  0.2533 -0.6057  1.3414
 5267SOL    HW219079   0.358   4.913  11.308  2.2134 -1.0347  0.4008
 5268SOL     OW19080  10.638   5.028   3.645  0.0218 -0.2284  0.2891
 5268SOL    HW119081  10.609   4.989   3.728  0.4390 -1.4986 -0.1348
 5268SOL    HW219082  10.590   4.978   3.579  1.9970 -1.3599 -0.3638
 5269SOL     OW19083   6.060   8.955  11.098 -0.0060  0.7652 -0.0346
 5269SOL    HW119084   6.030   9.029  11.151  1.1249  1.0458  0.2620
 5269SOL    HW219085   6.156   8.959  11.105  0.1039 -0.1093 -0.8669
 5270SOL     OW19086  10.062   5.581   3.176 -0.4012  0.4614 -0.2134
 5270SOL    HW119087   9.983   5.576   3.122 -1.1165  0.7665  0.7741
 5270SOL    HW219088  10.107   5.498   3.159  0.5879  1.4757 -2.9957
 5271SOL     OW19089   3.767   0.651   0.382 -0.0787  0.1846  0.3147
 5271SOL    HW119090   3.681   0.684   0.357  0.4510  1.0667 -0.4404
 5271SOL    HW219091   3.807   0.723   0.431  0.3453 -0.0963  0.3899
 5272SOL     OW19092   6.587   0.943  10.567  0.5014  0.5268 -0.0440
 5272SOL    HW119093   6.502   0.909  10.537 -0.3031  1.5671  0.9858
 5272SOL    HW219094   6.580   1.038  10.558  1.5084  0.6361  0.2029
 5273SOL     OW19095   5.654   0.836   1.578  0.3162 -0.0764  0.0315
 5273SOL    HW119096   5.649   0.753   1.531 -1.4411 -0.6446  1.0963
 5273SOL    HW219097   5.668   0.902   1.510 -1.6139 -0.9135 -1.2901
 5274SOL     OW19098   5.591   5.554   0.699 -0.1663  0.3719  0.4589
 5274SOL    HW119099   5.615   5.531   0.789 -0.8873  0.3403  0.6535
 5274SOL    HW219100   5.663   5.608   0.668  1.0675 -1.2804  0.3539
 5275SOL     OW19101   2.601  10.502  10.867  0.2158  0.1046 -0.3867
 5275SOL    HW119102   2.560  10.461  10.791  0.7539  0.8878 -1.1194
 5275SOL    HW219103   2.534  10.500  10.935  0.3271 -2.2678 -0.2814
 5276SOL     OW19104   6.426   0.908   7.082  0.3969 -0.2224  0.2496
 5276SOL    HW119105   6.365   0.928   7.153 -1.0921 -1.2297 -0.6804
 5276SOL    HW219106   6.387   0.949   7.005  0.8863 -0.9149 -0.3755
 5277SOL     OW19107   7.048   6.197   9.085 -0.6041 -0.3402  0.0392
 5277SOL    HW119108   7.016   6.265   9.144 -0.3888 -0.1577 -0.0525
 5277SOL    HW219109   7.130   6.232   9.050 -1.7358  0.4483 -1.9659
 5278SOL     OW19110   9.078   8.606   5.705 -0.4774 -0.5864 -0.0144
 5278SOL    HW119111   8.982   8.608   5.698 -0.7960  0.3809  2.9109
 5278SOL    HW219112   9.095   8.542   5.774  0.7812  0.9100  1.1206
 5279SOL     OW19113   0.824   5.201   0.118  0.2237 -0.3858 -0.2089
 5279SOL    HW119114   0.810   5.293   0.095 -1.0573 -0.8163 -1.3036
 5279SOL    HW219115   0.916   5.185   0.099  0.4544  0.6628 -0.0280
 5280SOL     OW19116   2.537  10.281   4.357  0.2087  0.1932 -0.0615
 5280SOL    HW119117   2.587  10.208   4.394 -0.5651 -0.2553  0.1320
 5280SOL    HW219118   2.584  10.305   4.278  0.4661 -0.5415 -0.1423
 5281SOL     OW19119   7.709  10.950   5.778  0.2750 -0.1943  0.2916
 5281SOL    HW119120   7.768  10.981   5.709 -1.2793  2.3244 -0.0137
 5281SOL    HW219121   7.685  10.861   5.751 -0.4717  0.7759 -2.5816
 5282SOL     OW19122  10.057   4.938   0.013 -0.0908 -0.3292  0.0680
 5282SOL    HW119123   9.978   4.989  -0.008  1.1013  1.5193 -0.0828
 5282SOL    HW219124  10.025   4.848   0.022 -1.7106 -0.2995 -3.5839
 5283SOL     OW19125   5.368   6.694   4.034  0.3215 -0.0623  0.2389
 5283SOL    HW119126   5.439   6.637   4.003  0.1729 -0.1214  0.0022
 5283SOL    HW219127   5.391   6.714   4.125  0.2556 -0.6832  0.3953
 5284SOL     OW19128   9.242   2.834   9.175 -0.3194 -0.0422  0.6149
 5284SOL    HW119129   9.321   2.783   9.159  0.0615  0.4742  0.8190
 5284SOL    HW219130   9.182   2.810   9.104  0.5495  0.6479 -0.3593
 5285SOL     OW19131   1.737   1.773   7.010 -0.1497 -0.0531  0.2579
 5285SOL    HW119132   1.688   1.851   6.984  1.8041  1.2208  0.2012
 5285SOL    HW219133   1.672   1.716   7.050 -2.3813 -0.0655 -3.0764
 5286SOL     OW19134   1.489   9.231   0.627 -0.3902  0.1253  0.3319
 5286SOL    HW119135   1.571   9.269   0.595  0.2603 -1.1083  0.4668
 5286SOL    HW219136   1.462   9.171   0.558  1.1700 -2.7815  2.0267
 5287SOL     OW19137   8.926   6.958   3.197 -0.3347 -0.1786  0.2294
 5287SOL    HW119138   8.895   6.877   3.236 -0.3227 -0.0684  0.4696
 5287SOL    HW219139   9.012   6.935   3.160 -0.3903 -0.3076  0.1799
 5288SOL     OW19140   7.304   1.909   6.122 -0.1345  0.8126  0.7757
 5288SOL    HW119141   7.353   1.855   6.059  0.8201  0.8911  1.4323
 5288SOL    HW219142   7.231   1.854   6.150  0.2801  0.2220  0.7118
 5289SOL     OW19143   1.327   8.472   5.970 -0.4912  0.2405 -0.4492
 5289SOL    HW119144   1.264   8.478   6.042  0.0352  0.7609 -0.0194
 5289SOL    HW219145   1.405   8.432   6.009  0.2108  1.5759 -0.4222
 5290SOL     OW19146   7.073   1.996   7.768  0.5107 -0.4503  0.1865
 5290SOL    HW119147   7.069   2.044   7.686  0.4838 -0.4770  0.1721
 5290SOL    HW219148   7.036   1.910   7.747  0.4512 -0.4377  0.2404
 5291SOL     OW19149  11.379  10.162   8.406  0.6597 -0.3180  0.2083
 5291SOL    HW119150  11.453  10.220   8.421  0.4972 -0.4465  1.6200
 5291SOL    HW219151  11.417  10.075   8.397  0.6689 -0.4466  1.3619
 5292SOL     OW19152  11.264   0.688   4.446 -0.1975  0.0065  0.0803
 5292SOL    HW119153  11.250   0.612   4.390 -0.3201  0.2188 -0.1800
 5292SOL    HW219154  11.230   0.762   4.396  1.0471  0.4162 -0.1937
 5293SOL     OW19155   5.710   6.528   0.893 -0.2191  0.0649 -0.6858
 5293SOL    HW119156   5.640   6.547   0.830 -1.0434 -0.0936  0.1608
 5293SOL    HW219157   5.721   6.433   0.889 -1.1750 -0.1079  0.3144
 5294SOL     OW19158   1.547  10.093   2.370  0.4304  0.0580  1.1648
 5294SOL    HW119159   1.642  10.105   2.361  0.1403  1.6643 -0.5604
 5294SOL    HW219160   1.523  10.039   2.295  0.0786 -1.1144  2.1018
 5295SOL     OW19161   9.275   7.272   5.636 -0.1882  0.9886  0.3321
 5295SOL    HW119162   9.349   7.290   5.577 -0.3997 -1.2705 -0.7621
 5295SOL    HW219163   9.197   7.284   5.581 -0.6363  2.5249  1.2463
 5296SOL     OW19164   6.755   6.531   0.111 -0.0688  0.4719 -0.5380
 5296SOL    HW119165   6.813   6.535   0.035  0.1680  0.2692 -0.3702
 5296SOL    HW219166   6.814   6.541   0.186  0.3900 -3.8223 -0.0874
 5297SOL     OW19167   8.728   1.138  10.763  0.2087 -0.6034  0.0785
 5297SOL    HW119168   8.701   1.111  10.851 -1.5404 -0.0715 -0.2617
 5297SOL    HW219169   8.657   1.110  10.706  1.4274 -1.1337 -1.2260
 5298SOL     OW19170   7.665   8.545   1.328 -0.0809 -0.2157  0.0819
 5298SOL    HW119171   7.740   8.546   1.388 -1.9905  0.7336  2.6214
 5298SOL    HW219172   7.659   8.635   1.296 -0.6372 -0.0862  0.5491
 5299SOL     OW19173   5.953   6.418   5.306 -0.3622 -0.3855 -0.0581
 5299SOL    HW119174   5.872   6.393   5.262  0.1708 -0.2364 -1.1604
 5299SOL    HW219175   5.938   6.397   5.399 -2.1346  0.8543 -0.0161
 5300SOL     OW19176   0.860   8.757   8.069  0.5447 -0.0122  0.2559
 5300SOL    HW119177   0.804   8.737   8.144 -0.0205  0.2844 -0.0785
 5300SOL    HW219178   0.908   8.675   8.052 -1.0594 -0.8434 -0.5223
 5301SOL     OW19179   3.076   2.645   7.721 -0.2859 -0.4107 -0.3976
 5301SOL    HW119180   3.013   2.691   7.666  0.2289  1.6158  0.6013
 5301SOL    HW219181   3.158   2.648   7.672 -0.1726  0.0795 -0.1860
 5302SOL     OW19182   6.722   5.661   9.011 -0.4905  0.2171 -0.0973
 5302SOL    HW119183   6.629   5.641   8.997 -1.0883  2.8856 -0.3953
 5302SOL    HW219184   6.748   5.707   8.931  0.5646  1.2099  0.8067
 5303SOL     OW19185   5.054   9.982   6.921 -0.1084  0.4902  0.3104
 5303SOL    HW119186   5.071  10.009   6.830  0.2367  2.0867  0.8082
 5303SOL    HW219187   4.981   9.921   6.915  0.7535 -0.4661 -1.1644
 5304SOL     OW19188   2.756  10.758   4.960 -0.2706 -0.0688  0.0343
 5304SOL    HW119189   2.699  10.834   4.971 -0.7133 -0.5129  1.0633
 5304SOL    HW219190   2.701  10.684   4.986  0.2255 -0.7118 -0.7121
 5305SOL     OW19191   6.701  11.173   9.394  0.3712 -0.0347 -0.3798
 5305SOL    HW119192   6.743  11.206   9.315  3.6097 -0.6586  0.9070
 5305SOL    HW219193   6.751  11.095   9.417 -0.2934  0.2389  2.3825
 5306SOL     OW19194   3.776   7.394   0.499  0.5375 -0.1198 -0.2173
 5306SOL    HW119195   3.785   7.342   0.578 -2.7748 -0.3160  0.1769
 5306SOL    HW219196   3.742   7.479   0.529  0.2161  0.1665 -1.3227
 5307SOL     OW19197   8.173   2.092  11.387 -0.4156  0.5098  0.1008
 5307SOL    HW119198   8.264   2.122  11.389  0.8424 -2.7728  3.0441
 5307SOL    HW219199   8.129   2.142  11.456  0.3445 -0.6949  1.5208
 5308SOL     OW19200   3.568   4.986   4.903 -0.1343 -0.0457 -0.5807
 5308SOL    HW119201   3.656   4.984   4.939 -0.5781 -2.6820  0.6322
 5308SOL    HW219202   3.578   5.024   4.816  2.6869 -2.6005 -1.5250
 5309SOL     OW19203   3.346   7.417   6.113 -0.4171  0.3919 -0.1730
 5309SOL    HW119204   3.269   7.409   6.057 -0.5247 -1.5691  0.1710
 5309SOL    HW219205   3.312   7.445   6.197 -1.1324 -2.3775  0.5718
 5310SOL     OW19206   8.131   5.531   6.908  0.3556  0.6396  0.2636
 5310SOL    HW119207   8.162   5.573   6.828  1.7578 -0.9062 -0.0593
 5310SOL    HW219208   8.120   5.603   6.970 -1.0676  1.9079 -1.3752
 5311SOL     OW19209   5.393   8.849   6.338 -0.1824 -0.1032 -0.0912
 5311SOL    HW119210   5.475   8.868   6.292 -1.3610  0.3536 -2.1168
 5311SOL    HW219211   5.333   8.820   6.269 -2.6466  2.4399  0.8133
 5312SOL     OW19212   9.185   3.285   0.045  0.0134 -0.2121  0.1852
 5312SOL    HW119213   9.186   3.376   0.019 -0.4639 -0.1320  0.4334
 5312SOL    HW219214   9.248   3.280   0.117  1.7761 -0.5516 -1.3055
 5313SOL     OW19215   5.487   3.733   1.291  0.3122 -0.1231  0.0014
 5313SOL    HW119216   5.526   3.798   1.351 -1.3431  0.8355  0.1130
 5313SOL    HW219217   5.532   3.748   1.208  2.2190 -1.0596  0.7901
 5314SOL     OW19218   1.508   5.490   3.708  0.4153  0.3780  0.2249
 5314SOL    HW119219   1.523   5.420   3.771 -0.9237  0.7679  1.0074
 5314SOL    HW219220   1.577   5.479   3.643 -2.0118 -4.3423 -2.0506
 5315SOL     OW19221   1.478   5.452   7.931 -0.4869 -0.4384 -0.3798
 5315SOL    HW119222   1.489   5.522   7.996 -1.0259 -0.6658 -0.0363
 5315SOL    HW219223   1.560   5.452   7.882 -0.0514 -0.2914  0.3294
 5316SOL     OW19224   0.494   4.283   8.393 -0.3636 -0.1521 -0.1772
 5316SOL    HW119225   0.416   4.338   8.396 -0.5736 -0.2733 -1.9140
 5316SOL    HW219226   0.530   4.298   8.305  1.2401 -0.5488  0.3752
 5317SOL     OW19227   1.081  10.700   5.501  0.0116  0.2778  0.0205
 5317SOL    HW119228   1.023  10.729   5.571  1.2228 -0.8406  1.5884
 5317SOL    HW219229   1.155  10.660   5.547  0.3663 -1.4955 -1.9156
 5318SOL     OW19230   2.033   7.702   8.670 -0.0763 -0.1197 -0.4819
 5318SOL    HW119231   1.977   7.647   8.725 -1.7355  1.3550 -0.6131
 5318SOL    HW219232   2.080   7.639   8.615 -0.9386 -1.4646  0.2486
 5319SOL     OW19233   4.667   6.489  11.021 -0.2532 -0.2130  0.1473
 5319SOL    HW119234   4.623   6.533  11.093 -0.9030 -0.1618 -0.2736
 5319SOL    HW219235   4.742   6.445  11.062 -0.3057  0.2516  0.7624
 5320SOL     OW19236   6.928  10.182   3.528 -0.4188 -0.4340  0.4813
 5320SOL    HW119237   6.898  10.267   3.498 -2.2902 -1.2750 -0.1619
 5320SOL    HW219238   6.948  10.134   3.447  3.9865  0.4201  0.8283
 5321SOL     OW19239   4.624   6.897   8.395 -0.0944 -0.3529  0.4905
 5321SOL    HW119240   4.678   6.820   8.378 -1.6703 -1.2512 -0.7839
 5321SOL    HW219241   4.557   6.895   8.326 -2.2141  0.2338  2.4095
 5322SOL     OW19242  11.214   9.420   8.157  0.3620 -0.2482 -0.3107
 5322SOL    HW119243  11.160   9.360   8.105  0.6505  1.0278 -2.2059
 5322SOL    HW219244  11.296   9.428   8.107  0.8488  0.6915  0.5978
 5323SOL     OW19245   0.096   6.931   0.541 -0.3056 -0.6229  0.5167
 5323SOL    HW119246   0.125   6.989   0.470  0.3692 -1.2294  0.2851
 5323SOL    HW219247   0.163   6.940   0.608 -0.2514 -1.0571  0.5192
 5324SOL     OW19248   2.149   7.124  10.381 -0.1548  0.4440 -0.0981
 5324SOL    HW119249   2.154   7.169  10.296 -0.4511  0.6400 -0.0146
 5324SOL    HW219250   2.075   7.064  10.372  1.0861 -1.0607 -0.6875
 5325SOL     OW19251   2.274   1.149  10.474  0.9870 -0.6633 -0.1682
 5325SOL    HW119252   2.186   1.180  10.450  1.1967 -1.2769 -1.8220
 5325SOL    HW219253   2.317   1.226  10.511 -0.4530 -0.5207  1.3167
 5326SOL     OW19254   2.052   8.625   1.927 -0.4966  0.0761 -0.1651
 5326SOL    HW119255   2.016   8.644   2.014 -1.3122 -0.2034 -0.4361
 5326SOL    HW219256   1.994   8.558   1.891  0.0442 -0.0652 -0.7902
 5327SOL     OW19257   5.512   5.549  11.347  0.3481 -0.1571  0.1548
 5327SOL    HW119258   5.470   5.473  11.308 -0.4807 -0.8300  2.2408
 5327SOL    HW219259   5.605   5.536  11.329 -0.0072 -0.1860 -1.9089
 5328SOL     OW19260   4.641   7.952   5.231 -0.1966 -0.7057 -0.2200
 5328SOL    HW119261   4.665   7.914   5.315 -1.6500  0.8069  0.9513
 5328SOL    HW219262   4.592   8.031   5.253 -0.9268 -0.4336 -2.4848
 5329SOL     OW19263   1.756  10.109   9.233 -0.0184 -0.2481  0.2321
 5329SOL    HW119264   1.680  10.168   9.236  0.1082 -0.0540 -0.2671
 5329SOL    HW219265   1.816  10.150   9.171  1.8302  1.1732  2.7789
 5330SOL     OW19266  10.290   5.099   0.646 -0.0321  0.3735  0.1993
 5330SOL    HW119267  10.315   5.128   0.558 -0.2115 -0.4892 -0.1427
 5330SOL    HW219268  10.334   5.161   0.705 -1.4901  2.1838 -0.5196
 5331SOL     OW19269   7.253   4.837   7.717  0.2580 -1.1558  0.4023
 5331SOL    HW119270   7.332   4.813   7.669  0.9523 -2.0221  1.8995
 5331SOL    HW219271   7.183   4.834   7.651  1.3908 -0.7383 -0.8682
 5332SOL     OW19272   1.843   8.511  10.303 -0.2181 -0.5002 -0.1815
 5332SOL    HW119273   1.842   8.437  10.243  0.0956 -0.6721  0.0219
 5332SOL    HW219274   1.880   8.583  10.252 -0.1377 -0.5935 -0.2569
 5333SOL     OW19275  10.224  10.769   5.825  0.5142  0.1533  0.0118
 5333SOL    HW119276  10.236  10.696   5.887 -1.9706 -0.6757 -0.3878
 5333SOL    HW219277  10.254  10.734   5.741 -0.1364 -0.2354 -0.0656
 5334SOL     OW19278   7.408   0.438   8.498 -0.4541 -1.1434  0.4200
 5334SOL    HW119279   7.473   0.371   8.519 -0.9109 -0.8793  3.1011
 5334SOL    HW219280   7.437   0.515   8.546 -2.3556 -0.8221  1.1457
 5335SOL     OW19281   5.924   3.685   8.831  0.6410 -0.4695 -0.4297
 5335SOL    HW119282   5.875   3.730   8.900 -1.5725 -2.4268 -0.5742
 5335SOL    HW219283   5.957   3.755   8.774  0.4468  1.0652  1.2643
 5336SOL     OW19284   6.941   1.656   0.252  0.3450 -0.3142  0.0509
 5336SOL    HW119285   6.888   1.725   0.213 -0.1153 -0.8122 -0.2262
 5336SOL    HW219286   6.934   1.583   0.191 -0.0385 -0.9570  0.8382
 5337SOL     OW19287   8.738   2.994   3.895  0.2445  0.4798  0.7415
 5337SOL    HW119288   8.648   3.026   3.901  0.0394  0.0801 -0.1634
 5337SOL    HW219289   8.734   2.906   3.933 -0.2490 -0.4754 -1.3950
 5338SOL     OW19290   1.563   2.472   2.808 -0.0690 -0.3947 -0.6760
 5338SOL    HW119291   1.471   2.445   2.800  0.1713 -1.9701  1.1283
 5338SOL    HW219292   1.607   2.396   2.846  1.7759  0.7165 -0.4867
 5339SOL     OW19293   2.354   2.540   8.903  0.0318 -0.2811 -0.4196
 5339SOL    HW119294   2.325   2.563   8.992  0.0923  1.8087 -0.8996
 5339SOL    HW219295   2.306   2.460   8.883 -1.4603  0.2460  0.7823
 5340SOL     OW19296   9.939   7.285   0.461 -0.1773 -0.7340 -0.2081
 5340SOL    HW119297   9.892   7.228   0.521 -0.9635 -0.0851 -0.1894
 5340SOL    HW219298  10.031   7.278   0.487 -0.6698  0.9537  2.3156
 5341SOL     OW19299   0.540   8.166   5.956 -0.1654  0.2889 -0.2096
 5341SOL    HW119300   0.536   8.158   5.861 -0.4871  0.1872 -0.1859
 5341SOL    HW219301   0.634   8.173   5.975 -0.1606  2.5313 -0.7200
 5342SOL     OW19302  10.546   8.324   7.742  0.1078  0.0004 -0.3061
 5342SOL    HW119303  10.571   8.232   7.741 -0.6736 -0.2441  0.6319
 5342SOL    HW219304  10.486   8.331   7.816  2.7566  1.9667  1.8412
 5343SOL     OW19305   5.667  10.656   3.908  0.3929 -0.4959  0.1295
 5343SOL    HW119306   5.754  10.695   3.905  1.0664 -1.9532 -2.0513
 5343SOL    HW219307   5.684  10.562   3.917 -0.7273 -1.1084 -2.7980
 5344SOL     OW19308   9.887   3.722  11.363 -0.1251  0.3435 -0.0974
 5344SOL    HW119309   9.824   3.693  11.296  0.8630 -2.3231  0.0007
 5344SOL    HW219310   9.958   3.763  11.314  1.5028 -3.2472 -1.0653
 5345SOL     OW19311   6.201   1.287   8.718  0.4430  0.0948 -0.3430
 5345SOL    HW119312   6.227   1.224   8.651  1.8751  0.2166  0.0655
 5345SOL    HW219313   6.283   1.329   8.745 -0.1112  0.1431  1.3994
 5346SOL     OW19314   7.672   7.283   0.195 -0.0920  0.8085  0.3812
 5346SOL    HW119315   7.602   7.236   0.149  0.2341  1.7907 -1.2137
 5346SOL    HW219316   7.652   7.272   0.288 -2.5683  1.3192 -0.0153
 5347SOL     OW19317   5.219   0.727   7.901  0.5937 -0.3281 -0.1052
 5347SOL    HW119318   5.236   0.726   7.996 -1.7785  0.2706  0.3844
 5347SOL    HW219319   5.268   0.803   7.869 -0.1956  0.7014  1.0194
 5348SOL     OW19320   9.876   5.265   7.440 -0.2295  0.2014  0.1781
 5348SOL    HW119321   9.927   5.185   7.456  1.4422  0.9257 -1.1205
 5348SOL    HW219322   9.808   5.238   7.379  2.1405  0.2432 -2.6980
 5349SOL     OW19323   7.306  10.125   2.469 -0.3890  0.4305  0.3104
 5349SOL    HW119324   7.375  10.155   2.528  0.4631  0.8669 -0.8770
 5349SOL    HW219325   7.277  10.042   2.507 -0.7309  1.2863  2.0076
 5350SOL     OW19326   1.554   6.664   7.128 -0.5271  0.0881 -0.1978
 5350SOL    HW119327   1.603   6.591   7.166 -1.4710 -0.3792  0.1416
 5350SOL    HW219328   1.545   6.640   7.035 -1.5824 -0.6651  0.0826
 5351SOL     OW19329  10.277   2.664   2.876 -0.3132 -0.0443 -0.2448
 5351SOL    HW119330  10.326   2.735   2.918  0.2051  0.4738 -1.6657
 5351SOL    HW219331  10.342   2.619   2.822 -0.6892 -1.4962  0.4611
 5352SOL     OW19332   4.428   8.788   4.104 -0.2886  0.4455  0.8845
 5352SOL    HW119333   4.493   8.813   4.170 -0.1039  3.3119 -0.1995
 5352SOL    HW219334   4.472   8.724   4.049 -0.3398 -1.7620  3.2279
 5353SOL     OW19335   9.476   8.062   5.938  0.7037 -0.2943  0.3645
 5353SOL    HW119336   9.535   8.010   5.884  1.3287 -0.3459  1.0724
 5353SOL    HW219337   9.447   8.002   6.007 -0.9227 -0.5381 -0.4929
 5354SOL     OW19338   2.238   1.790   4.991  0.3107  0.3184 -0.1577
 5354SOL    HW119339   2.302   1.793   4.920  1.0268  1.4358  0.4959
 5354SOL    HW219340   2.154   1.809   4.950  0.6610  0.5805 -0.7556
 5355SOL     OW19341   1.090   5.104   0.054 -0.7233  0.0566  0.6121
 5355SOL    HW119342   1.022   5.041   0.030 -1.4821  1.1344 -0.1731
 5355SOL    HW219343   1.112   5.082   0.144  0.1285 -2.2785 -0.0895
 5356SOL     OW19344  10.917   2.713   8.556  0.2726  0.0805  0.0387
 5356SOL    HW119345  10.925   2.620   8.537  0.4981 -0.0345  0.6438
 5356SOL    HW219346  10.835   2.740   8.516 -0.5957 -0.7388  1.1865
 5357SOL     OW19347   9.166   5.114   4.995 -0.1289 -0.3929 -0.0775
 5357SOL    HW119348   9.161   5.209   5.006 -2.1342  0.0445 -3.4817
 5357SOL    HW219349   9.075   5.085   4.997  0.0891 -1.5778 -3.0799
 5358SOL     OW19350   1.466   0.587   8.802  0.1396  0.2289 -0.0079
 5358SOL    HW119351   1.473   0.652   8.871  2.1452  0.7769 -0.6524
 5358SOL    HW219352   1.455   0.638   8.722  1.8707 -0.1757 -0.5396
 5359SOL     OW19353   6.388   4.215   4.465 -0.1957  0.5954  0.3575
 5359SOL    HW119354   6.356   4.302   4.490  0.5406  0.9478  0.0955
 5359SOL    HW219355   6.452   4.192   4.533 -0.7526  0.0340  0.7032
 5360SOL     OW19356   3.316  10.680   7.740  0.3936  0.1029 -0.4008
 5360SOL    HW119357   3.310  10.593   7.780 -0.0094  0.2099 -0.2295
 5360SOL    HW219358   3.406  10.684   7.706  0.2900 -0.5348 -0.7707
 5361SOL     OW19359   8.296   4.437   6.432 -0.9843 -0.3072  0.5045
 5361SOL    HW119360   8.297   4.353   6.480 -1.4332  0.0744  1.2050
 5361SOL    HW219361   8.229   4.488   6.477  0.1566  0.8987  0.8793
 5362SOL     OW19362  10.207   8.502   5.105  0.3296 -0.1408  0.2722
 5362SOL    HW119363  10.210   8.581   5.052 -0.0876 -1.5395 -1.9891
 5362SOL    HW219364  10.297   8.468   5.102 -0.2729 -1.7517 -2.1471
 5363SOL     OW19365   5.328   1.226   2.617 -0.4625  0.7112 -1.0800
 5363SOL    HW119366   5.280   1.188   2.544 -1.4400 -1.6406  0.6668
 5363SOL    HW219367   5.261   1.255   2.678  0.2907 -0.1362  0.1964
 5364SOL     OW19368   2.827   3.373  11.227  0.6268 -0.4210  0.3372
 5364SOL    HW119369   2.780   3.452  11.255  1.3218 -0.2329  0.9817
 5364SOL    HW219370   2.857   3.394  11.139 -1.1435 -0.8359 -0.4196
 5365SOL     OW19371   5.574   4.348   5.307 -0.2783  0.0212  0.0522
 5365SOL    HW119372   5.614   4.427   5.271 -0.0552 -0.4818 -0.8143
 5365SOL    HW219373   5.495   4.335   5.256 -1.1602  0.5554  1.2317
 5366SOL     OW19374   1.142   6.146   7.941 -0.1791  0.1537  0.2802
 5366SOL    HW119375   1.191   6.105   8.013 -0.0061 -0.8402 -0.3991
 5366SOL    HW219376   1.120   6.233   7.975  2.9180  1.0599  0.2698
 5367SOL     OW19377   0.892  11.398   7.757 -0.0120  0.1356 -0.4324
 5367SOL    HW119378   0.930  11.408   7.844 -0.0667  0.4793 -0.4494
 5367SOL    HW219379   0.811  11.448   7.759 -0.0319  0.1157 -0.6684
 5368SOL     OW19380   6.681   6.937   9.341  0.7489  0.7103  1.3240
 5368SOL    HW119381   6.597   6.909   9.305  1.0148 -0.8934  1.8697
 5368SOL    HW219382   6.674   7.032   9.348 -1.4947  0.5278  2.4599
 5369SOL     OW19383   8.377   8.635   2.245  0.3600 -0.2145 -0.3316
 5369SOL    HW119384   8.466   8.617   2.216  0.1564 -0.1398 -1.0139
 5369SOL    HW219385   8.368   8.730   2.237  0.8872  0.0487  1.6993
 5370SOL     OW19386  11.300   1.393   3.341 -0.8633 -0.0706  0.3594
 5370SOL    HW119387  11.363   1.462   3.362 -1.6244  0.6242  0.4132
 5370SOL    HW219388  11.224   1.413   3.397 -0.7448 -1.4903  1.0607
 5371SOL     OW19389   5.248   6.554   9.389 -0.2652 -0.0771 -0.6631
 5371SOL    HW119390   5.290   6.501   9.321  1.0867 -0.3147  0.3139
 5371SOL    HW219391   5.180   6.498   9.425  1.0368 -1.1396  0.2423
 5372SOL     OW19392   0.969   5.622   5.258  0.4798  0.0601  0.3825
 5372SOL    HW119393   0.975   5.558   5.188  0.2613  0.7948 -0.3257
 5372SOL    HW219394   0.901   5.683   5.229  0.8133  0.7156  0.9484
 5373SOL     OW19395  10.673   1.762   1.334 -0.3418  0.3757 -0.0292
 5373SOL    HW119396  10.762   1.749   1.365 -0.6487 -0.7335  0.4144
 5373SOL    HW219397  10.618   1.720   1.400 -1.1115 -0.2458 -1.0371
 5374SOL     OW19398   8.773   8.479  11.174 -0.2690 -0.1266 -0.2869
 5374SOL    HW119399   8.812   8.499  11.089  0.8176 -1.2822 -0.0929
 5374SOL    HW219400   8.836   8.513  11.237 -0.4094 -0.4820  0.0455
 5375SOL     OW19401   0.537  11.134   8.316  0.2550  0.9063  0.3972
 5375SOL    HW119402   0.586  11.053   8.326 -0.8303 -0.0216 -1.2932
 5375SOL    HW219403   0.533  11.171   8.405  2.0924 -0.0641  0.9263
 5376SOL     OW19404   2.503   3.883   1.682 -0.1455 -0.0090  0.6040
 5376SOL    HW119405   2.497   3.805   1.737 -0.4758  0.1211  0.7494
 5376SOL    HW219406   2.413   3.906   1.661 -0.0314  0.0521  0.1603
 5377SOL     OW19407   0.679   5.990   3.314 -0.3797  0.2907 -0.2118
 5377SOL    HW119408   0.651   5.984   3.405  0.9781 -0.0580  0.2165
 5377SOL    HW219409   0.764   6.033   3.318  0.7582 -1.7068 -1.0544
 5378SOL     OW19410   2.367  11.066   0.930 -0.3074  0.1018  1.1835
 5378SOL    HW119411   2.404  11.104   1.010 -0.9442 -0.2995  1.6815
 5378SOL    HW219412   2.276  11.047   0.953 -0.4565 -0.1588  0.4055
 5379SOL     OW19413   6.143   7.198   4.615  0.5087 -0.4335 -0.1333
 5379SOL    HW119414   6.066   7.146   4.591  0.5214 -0.3748 -0.3068
 5379SOL    HW219415   6.215   7.156   4.568  0.9233 -1.6253  1.4584
 5380SOL     OW19416   5.948   6.703   0.764  0.2426 -0.2556  0.1285
 5380SOL    HW119417   5.870   6.749   0.796 -0.1368  0.1458 -1.3079
 5380SOL    HW219418   5.956   6.627   0.822 -1.7522 -0.7978 -0.2251
 5381SOL     OW19419   8.218   0.572   0.486 -0.1801 -0.0707  0.2256
 5381SOL    HW119420   8.214   0.666   0.465  0.8295 -0.0122  0.2556
 5381SOL    HW219421   8.284   0.537   0.426  1.1821 -0.3016  1.7958
 5382SOL     OW19422   0.227   1.031  10.215  0.1622  0.6052  0.0279
 5382SOL    HW119423   0.200   0.971  10.285 -0.2071 -0.8552 -1.3038
 5382SOL    HW219424   0.205   0.985  10.134  1.4906  1.8037 -1.0772
 5383SOL     OW19425   0.273   0.952   2.078 -0.3249 -0.1879 -0.4571
 5383SOL    HW119426   0.269   0.857   2.080  0.3421 -0.2150  1.6414
 5383SOL    HW219427   0.183   0.980   2.059 -0.8797 -1.2255  0.5657
 5384SOL     OW19428   8.128   3.106  10.635  0.3380  0.3765 -0.0301
 5384SOL    HW119429   8.070   3.033  10.613  1.8262 -1.1804  0.9549
 5384SOL    HW219430   8.141   3.099  10.729  2.2610  0.5157 -0.2325
 5385SOL     OW19431  11.213   5.797   7.201 -0.1535 -0.3078 -0.6295
 5385SOL    HW119432  11.139   5.786   7.142 -2.0513 -2.1017  1.8691
 5385SOL    HW219433  11.191   5.873   7.255 -0.2275 -0.8639  0.1404
 5386SOL     OW19434   2.870   1.154   5.635 -0.3329  0.1485  0.2703
 5386SOL    HW119435   2.785   1.172   5.594 -0.6283 -0.2285  0.7014
 5386SOL    HW219436   2.906   1.080   5.586 -0.8645 -0.5596  0.9258
 5387SOL     OW19437   0.067   0.532   5.499  0.0534  0.0029 -0.0822
 5387SOL    HW119438   0.009   0.605   5.523  1.0408  0.8868 -0.3316
 5387SOL    HW219439   0.010   0.455   5.501 -1.0563  0.8013 -0.0048
 5388SOL     OW19440   8.404   9.844   5.780  0.3298 -0.3484  0.0920
 5388SOL    HW119441   8.359   9.778   5.832  0.6891 -0.8926 -0.2815
 5388SOL    HW219442   8.440   9.905   5.845  1.0212 -1.1731  0.5061
 5389SOL     OW19443  10.334  11.033   5.806  0.0050 -0.4550 -0.2158
 5389SOL    HW119444  10.296  10.951   5.837 -0.1946 -0.6229 -0.8922
 5389SOL    HW219445  10.380  11.010   5.726  1.2834 -0.1900  0.4111
 5390SOL     OW19446   6.342   7.412   0.300  0.0370  0.5419  0.4459
 5390SOL    HW119447   6.394   7.410   0.380 -0.9013  0.6089  1.0699
 5390SOL    HW219448   6.373   7.489   0.253 -0.3739  1.3055  1.4088
 5391SOL     OW19449   7.852   0.617   8.790 -0.4237  0.4828 -0.2034
 5391SOL    HW119450   7.896   0.556   8.849  0.2098  1.3234  0.2267
 5391SOL    HW219451   7.923   0.664   8.746 -0.8286  2.1126  0.7647
 5392SOL     OW19452   8.534   7.738   3.301 -0.2396  0.1565 -0.2036
 5392SOL    HW119453   8.448   7.734   3.343 -1.2037 -0.7837 -2.0948
 5392SOL    HW219454   8.566   7.648   3.303  0.4398  0.4019 -0.0029
 5393SOL     OW19455   1.095  10.891  11.119 -0.3925 -0.1374  0.4619
 5393SOL    HW119456   1.189  10.908  11.124 -0.6002  2.1659 -1.6582
 5393SOL    HW219457   1.056  10.955  11.178 -0.7221  0.3520 -0.2790
 5394SOL     OW19458   9.684   9.557   0.042 -0.1462 -0.1572  0.3185
 5394SOL    HW119459   9.604   9.600   0.071  0.0261 -0.3591  1.1010
 5394SOL    HW219460   9.751   9.583   0.105  0.1029 -1.0632  0.4413
 5395SOL     OW19461   8.722   9.474   2.435  0.6349  0.4594  0.0701
 5395SOL    HW119462   8.701   9.383   2.416  0.2300  0.5770 -0.0566
 5395SOL    HW219463   8.791   9.469   2.501 -0.6741  0.0505  1.4693
 5396SOL     OW19464   0.548   9.446   1.429  0.1946 -0.3229  0.2567
 5396SOL    HW119465   0.559   9.400   1.346  1.2112 -1.1900  0.8484
 5396SOL    HW219466   0.515   9.532   1.404 -1.6953 -1.3060 -0.8871
 5397SOL     OW19467   5.996   1.454   4.891  0.7731  0.6310 -1.1903
 5397SOL    HW119468   5.960   1.416   4.811 -0.5229  0.8116 -0.7174
 5397SOL    HW219469   6.049   1.383   4.928 -0.8700 -0.4652 -0.8001
 5398SOL     OW19470   0.714   8.057   6.647 -0.2480 -0.0279  0.0928
 5398SOL    HW119471   0.772   7.981   6.648 -0.9005 -0.5768  2.8188
 5398SOL    HW219472   0.678   8.062   6.736 -0.7439  3.0860 -0.1703
 5399SOL     OW19473   9.581   5.982   1.926  0.5472 -0.1206  0.5488
 5399SOL    HW119474   9.515   6.044   1.895 -0.7528 -0.8229  1.8141
 5399SOL    HW219475   9.609   5.936   1.846 -2.0023 -1.2162  0.1660
 5400SOL     OW19476   0.876   9.782   5.641 -0.8395 -0.3375 -0.8853
 5400SOL    HW119477   0.806   9.774   5.577 -0.5933 -0.7423 -1.1112
 5400SOL    HW219478   0.884   9.694   5.679 -1.8410  0.1752  0.6240
 5401SOL     OW19479  10.464   7.859   4.018 -0.2701  0.1416  0.2200
 5401SOL    HW119480  10.391   7.862   4.080 -0.2852  2.6562  0.1728
 5401SOL    HW219481  10.542   7.848   4.073 -0.3860  1.2476  0.6315
 5402SOL     OW19482   4.608  10.897   1.679  0.0897  0.1285  0.3676
 5402SOL    HW119483   4.638  10.920   1.591 -1.4998 -0.2111 -0.3067
 5402SOL    HW219484   4.673  10.834   1.711  2.4832  2.6325  0.7875
 5403SOL     OW19485  11.285   4.835  10.683 -0.2916 -0.4911  0.2785
 5403SOL    HW119486  11.220   4.800  10.744 -0.3184 -0.7549  0.0967
 5403SOL    HW219487  11.359   4.859  10.739 -0.7436  0.3150  0.5551
 5404SOL     OW19488   4.656   1.994   0.826 -0.1626  0.4967 -0.0603
 5404SOL    HW119489   4.673   1.921   0.766  0.2624 -0.0457  0.7042
 5404SOL    HW219490   4.561   1.997   0.835 -0.1495 -0.4619  0.5012
 5405SOL     OW19491   4.947  10.423   2.498 -0.1450  0.0531  0.3861
 5405SOL    HW119492   4.942  10.498   2.439 -0.5373  1.3477  1.9787
 5405SOL    HW219493   4.867  10.374   2.481 -1.0024  1.2344  0.8467
 5406SOL     OW19494  10.563   7.788  10.571 -0.3270  0.1414  0.1983
 5406SOL    HW119495  10.484   7.840  10.558 -0.3690 -0.1164 -0.6661
 5406SOL    HW219496  10.604   7.784  10.484  1.2449  1.2324  0.8512
 5407SOL     OW19497   5.433   4.574   0.016 -0.3685 -0.0440  0.3847
 5407SOL    HW119498   5.374   4.641  -0.018 -0.4108  0.6337  1.7239
 5407SOL    HW219499   5.521   4.611   0.004 -0.3857  0.2158  1.0206
 5408SOL     OW19500   3.880   1.584   0.189  0.2206 -0.2283  0.2017
 5408SOL    HW119501   3.820   1.655   0.211 -0.9243 -1.1802  0.2668
 5408SOL    HW219502   3.958   1.628   0.156 -0.3913  1.0567  0.3981
 5409SOL     OW19503   2.303   7.463   7.738 -0.2026  0.1372 -0.3494
 5409SOL    HW119504   2.279   7.445   7.829  1.2496 -0.1328 -0.0044
 5409SOL    HW219505   2.339   7.380   7.706  0.7442  0.6726 -0.6902
 5410SOL     OW19506   8.560  10.866   1.700  0.1941  0.3508 -0.1123
 5410SOL    HW119507   8.520  10.820   1.774  2.1430  0.5472  1.1342
 5410SOL    HW219508   8.578  10.797   1.636 -1.1486  0.1226 -0.2915
 5411SOL     OW19509   7.311   5.054   9.417  0.4022  0.2515 -0.4838
 5411SOL    HW119510   7.253   4.979   9.402  1.0788 -0.4121  0.1350
 5411SOL    HW219511   7.277   5.095   9.497 -0.7837  1.4267 -1.5478
 5412SOL     OW19512   0.266   7.479   5.018  0.6139 -0.2205  0.5540
 5412SOL    HW119513   0.306   7.394   5.004  2.0524  0.2962  1.2788
 5412SOL    HW219514   0.240   7.479   5.110 -0.1438 -0.1765  0.3447
 5413SOL     OW19515   7.997   7.039   4.280 -0.9351  0.1111  0.0126
 5413SOL    HW119516   7.936   7.015   4.210 -0.3978  1.6346 -1.0393
 5413SOL    HW219517   8.081   7.051   4.236 -0.2208 -0.4041  1.1885
 5414SOL     OW19518  10.262   8.627   4.660 -0.2859 -0.3552 -0.1783
 5414SOL    HW119519  10.315   8.618   4.581 -1.2621 -0.8225 -0.7947
 5414SOL    HW219520  10.240   8.538   4.685  0.0010 -0.2112  0.6326
 5415SOL     OW19521  10.576   4.848   4.828  0.4568 -0.5648 -0.1253
 5415SOL    HW119522  10.646   4.887   4.880 -0.3016  0.3044  0.2881
 5415SOL    HW219523  10.584   4.889   4.742  1.9997 -2.3439 -0.8967
 5416SOL     OW19524   5.801   5.004   6.784 -0.1513  0.4115  0.0942
 5416SOL    HW119525   5.713   4.988   6.749 -1.1102 -0.1227  2.4862
 5416SOL    HW219526   5.843   5.061   6.720 -2.3197  0.8565 -1.0272
 5417SOL     OW19527   6.187   0.493   0.376 -0.7031  0.3997  0.1836
 5417SOL    HW119528   6.175   0.558   0.445  0.7097 -0.1699  1.0318
 5417SOL    HW219529   6.187   0.543   0.295  0.4381  1.4924  0.8228
 5418SOL     OW19530   2.149   4.052   6.713  0.5572  0.2460  0.0423
 5418SOL    HW119531   2.065   4.094   6.697  1.2664  1.2642 -1.1576
 5418SOL    HW219532   2.158   4.052   6.808 -1.1733 -0.6875  0.2573
 5419SOL     OW19533   5.775  10.847   4.606 -0.4121 -0.2935 -0.4592
 5419SOL    HW119534   5.839  10.822   4.539 -0.8534  1.4903 -1.6317
 5419SOL    HW219535   5.714  10.774   4.609  1.0410 -1.5416 -0.1156
 5420SOL     OW19536   6.851   4.986   9.109  0.1016  0.3312  0.1433
 5420SOL    HW119537   6.763   4.968   9.140  0.5663 -1.5022  0.4805
 5420SOL    HW219538   6.865   4.923   9.039  0.9470  0.9918 -0.3001
 5421SOL     OW19539  10.411   3.773   5.093  0.0218 -0.2441  0.6824
 5421SOL    HW119540  10.439   3.808   5.177  0.0525 -0.4460  0.7562
 5421SOL    HW219541  10.393   3.850   5.040  0.0643 -0.1158  0.8531
 5422SOL     OW19542   3.372   2.843   4.018 -0.0749  0.1105  0.4594
 5422SOL    HW119543   3.385   2.937   4.034 -0.0407  0.5707 -1.8199
 5422SOL    HW219544   3.457   2.804   4.034  0.5821  0.9029 -0.8541
 5423SOL     OW19545   6.475   2.565   5.336 -0.0225 -0.0129  0.6601
 5423SOL    HW119546   6.551   2.518   5.303 -0.3008  0.3754 -0.5722
 5423SOL    HW219547   6.400   2.518   5.299 -0.2963  2.0016 -1.5320
 5424SOL     OW19548  10.337   7.337   4.858  0.2397  0.1192  0.2572
 5424SOL    HW119549  10.330   7.379   4.772 -1.3008 -1.9852 -0.7378
 5424SOL    HW219550  10.429   7.316   4.867  0.3559 -0.0852 -1.1480
 5425SOL     OW19551   4.036   9.499   5.724  0.5487 -0.0063 -0.2890
 5425SOL    HW119552   3.966   9.516   5.786  0.3876  2.4986 -1.0478
 5425SOL    HW219553   4.115   9.492   5.777  0.2077  0.6648  0.3181
 5426SOL     OW19554   8.710   9.551   8.325  0.6241 -0.3627 -0.3034
 5426SOL    HW119555   8.618   9.573   8.314 -0.1631 -1.1342  3.2482
 5426SOL    HW219556   8.711   9.455   8.333  2.3263 -0.7822 -3.7470
 5427SOL     OW19557   8.883  10.763  11.375 -0.0213  0.4423 -0.3719
 5427SOL    HW119558   8.864  10.856  11.382  0.2054  0.5431 -0.9772
 5427SOL    HW219559   8.979  10.758  11.373  0.0233  0.4743 -3.0666
 5428SOL     OW19560   4.472   6.751   3.157  0.0739 -0.3289  0.2842
 5428SOL    HW119561   4.529   6.762   3.233  0.9052 -0.9882 -0.2235
 5428SOL    HW219562   4.400   6.813   3.172  1.4138  1.2705  0.4584
 5429SOL     OW19563   2.324   1.486   7.400  0.1110  0.2644  0.1071
 5429SOL    HW119564   2.286   1.400   7.420  1.7993 -0.6759 -0.5274
 5429SOL    HW219565   2.385   1.502   7.472  0.2967  0.6227 -0.1315
 5430SOL     OW19566  11.212   2.116   8.764 -0.1739 -0.7329  0.6933
 5430SOL    HW119567  11.307   2.122   8.750 -0.3134 -1.2345 -0.6402
 5430SOL    HW219568  11.198   2.026   8.792 -0.2396 -0.6337  0.9728
 5431SOL     OW19569   7.541  10.681   0.327 -0.1574  0.0673 -0.1190
 5431SOL    HW119570   7.534  10.676   0.232 -0.1482  0.3097 -0.1327
 5431SOL    HW219571   7.458  10.719   0.356 -0.3985 -0.5510  0.0196
 5432SOL     OW19572  10.938   7.489   7.962 -0.8735 -0.3422 -0.0452
 5432SOL    HW119573  10.923   7.518   8.052  1.7061  1.9103 -0.1977
 5432SOL    HW219574  11.033   7.474   7.958 -1.1270 -1.7588 -2.0622
 5433SOL     OW19575   4.557   5.051   7.657 -0.3963  0.3854  0.1908
 5433SOL    HW119576   4.642   5.007   7.658 -0.0713  0.9950  2.1551
 5433SOL    HW219577   4.498   4.992   7.704 -0.5795  0.8509  0.5589
 5434SOL     OW19578   5.553   3.044   6.929  0.2536 -0.1036 -0.3631
 5434SOL    HW119579   5.554   3.064   7.023 -2.8585 -1.6017  0.0984
 5434SOL    HW219580   5.461   3.049   6.904  0.8454 -1.0578 -3.0753
 5435SOL     OW19581   6.459   0.119   5.981  0.0739  0.7631  0.0231
 5435SOL    HW119582   6.460   0.213   5.995  2.2259  0.9653 -1.1252
 5435SOL    HW219583   6.473   0.109   5.887  0.7577 -0.7050  0.2556
 5436SOL     OW19584   1.742   6.358  10.503 -0.2785  0.2699  0.7360
 5436SOL    HW119585   1.792   6.392  10.429  1.3605 -1.6813  0.8538
 5436SOL    HW219586   1.697   6.435  10.539  1.2607  1.8090 -0.4415
 5437SOL     OW19587  10.657   2.357   5.793  0.2347  0.1559  0.0157
 5437SOL    HW119588  10.578   2.313   5.760 -0.6828  0.3114  1.8972
 5437SOL    HW219589  10.726   2.327   5.735 -0.4649 -3.2680  0.7341
 5438SOL     OW19590   9.372   1.297   9.588  0.4215 -0.1646 -0.3034
 5438SOL    HW119591   9.438   1.267   9.650 -0.4594 -0.2076  0.6363
 5438SOL    HW219592   9.350   1.220   9.536  1.7328  0.0516 -1.2383
 5439SOL     OW19593   5.608   6.657   2.108 -0.5721 -0.2945  0.2230
 5439SOL    HW119594   5.527   6.703   2.085 -2.0886 -1.8156  2.0643
 5439SOL    HW219595   5.616   6.671   2.203  0.1219 -1.9146  0.4290
 5440SOL     OW19596   5.070   6.933   0.052 -0.6690 -0.0607  1.1824
 5440SOL    HW119597   5.103   7.004   0.108  0.6871  0.0373  0.2982
 5440SOL    HW219598   5.064   6.973  -0.035  0.6787 -1.1605  0.5538
 5441SOL     OW19599   5.399   1.899   0.921  0.1473  0.0620  0.3680
 5441SOL    HW119600   5.429   1.878   0.832  0.5107  0.1359  0.4723
 5441SOL    HW219601   5.341   1.827   0.945 -1.0703  0.7279 -0.4672
 5442SOL     OW19602   8.655   6.690   2.088 -0.0672 -0.1284 -0.0808
 5442SOL    HW119603   8.614   6.656   2.168  0.0184 -0.7626 -0.2995
 5442SOL    HW219604   8.736   6.730   2.118  0.5418 -1.4010  0.0295
 5443SOL     OW19605   8.997   9.789   1.772  0.0504  0.4781 -0.2349
 5443SOL    HW119606   9.058   9.722   1.741 -1.2510 -0.1749 -1.4620
 5443SOL    HW219607   9.025   9.805   1.863 -0.9816 -3.4649  0.9935
 5444SOL     OW19608   0.616   6.060   3.596  0.1864 -1.3908 -0.3058
 5444SOL    HW119609   0.681   6.049   3.665  0.0160 -0.1008  0.0798
 5444SOL    HW219610   0.534   6.029   3.634  0.0503 -0.4795  0.1575
 5445SOL     OW19611   1.676   2.924   8.504  0.0320 -0.2786 -0.0835
 5445SOL    HW119612   1.638   2.895   8.422 -0.5522 -3.2147  1.1266
 5445SOL    HW219613   1.623   2.883   8.572  1.4202  0.8180  1.7727
 5446SOL     OW19614   4.800   2.479   8.843 -0.3385 -0.2393  0.1992
 5446SOL    HW119615   4.713   2.445   8.825 -0.0773 -0.7794 -0.0519
 5446SOL    HW219616   4.795   2.513   8.932 -1.5741  2.2206 -0.7173
 5447SOL     OW19617   5.150   4.039   0.039  0.4803  0.0428 -0.3421
 5447SOL    HW119618   5.173   3.947   0.034 -0.2083 -0.0913 -1.3989
 5447SOL    HW219619   5.137   4.066  -0.052  0.2377  1.0613 -0.0229
 5448SOL     OW19620   6.400   3.189   3.396  0.9525 -0.5955 -0.5036
 5448SOL    HW119621   6.337   3.175   3.325  1.0148  0.3192 -0.7549
 5448SOL    HW219622   6.463   3.252   3.361 -0.4700  1.9427  1.1849
 5449SOL     OW19623   6.195   2.847   6.419 -0.3114 -0.0045 -0.1278
 5449SOL    HW119624   6.267   2.803   6.373  0.2730  0.4220  0.3550
 5449SOL    HW219625   6.176   2.924   6.366  0.0377  0.2313  0.0843
 5450SOL     OW19626   9.746   6.599   8.356  0.1378 -0.0121 -0.6099
 5450SOL    HW119627   9.796   6.632   8.430 -0.4114 -0.2657 -0.1121
 5450SOL    HW219628   9.793   6.629   8.279 -0.0023  1.3990 -0.1682
 5451SOL     OW19629   3.476   8.007   5.054 -0.1463 -0.9131  0.0291
 5451SOL    HW119630   3.529   8.081   5.022  0.7887 -0.7018  1.9315
 5451SOL    HW219631   3.403   8.048   5.100  0.8663 -1.0910  1.8936
 5452SOL     OW19632   2.909   8.696   0.082  0.2389  0.3812  0.2249
 5452SOL    HW119633   2.879   8.640   0.010 -0.5086  1.1525 -0.0861
 5452SOL    HW219634   2.951   8.636   0.143 -1.1113 -0.6253  0.2187
 5453SOL     OW19635   7.162   4.610   2.447 -0.0566 -0.1772 -0.1656
 5453SOL    HW119636   7.164   4.537   2.385 -0.9053  0.0702 -0.4915
 5453SOL    HW219637   7.111   4.678   2.403 -0.6463  0.0163  0.7876
 5454SOL     OW19638   9.420   7.273   0.307  0.6373  0.1311 -0.1422
 5454SOL    HW119639   9.477   7.314   0.242  1.6906  0.9015  1.2196
 5454SOL    HW219640   9.387   7.346   0.360 -1.2525 -0.3447 -0.5792
 5455SOL     OW19641   6.085   7.099   7.915  0.0743  0.3398 -0.2905
 5455SOL    HW119642   6.037   7.020   7.941 -2.5496  2.0640  0.5231
 5455SOL    HW219643   6.161   7.101   7.973 -0.8090 -0.6517  0.9799
 5456SOL     OW19644   1.811   5.414   1.917  0.1857 -0.2203 -0.3832
 5456SOL    HW119645   1.772   5.468   1.848  0.3893 -2.5760 -2.4933
 5456SOL    HW219646   1.769   5.329   1.908 -0.0994 -0.5316  2.7817
 5457SOL     OW19647   8.862   5.447   0.663  0.3295  0.0282 -0.4881
 5457SOL    HW119648   8.799   5.375   0.650  0.7029 -0.4622  0.3222
 5457SOL    HW219649   8.931   5.408   0.717  0.5412  1.0027 -0.0459
 5458SOL     OW19650   8.563  10.673   3.124  0.3883 -0.0982 -0.8378
 5458SOL    HW119651   8.590  10.725   3.049 -1.8213  0.8233 -1.0861
 5458SOL    HW219652   8.494  10.616   3.089  0.4624 -0.8213  0.1551
 5459SOL     OW19653   3.608   9.799  10.382  0.5184 -0.5544 -0.9373
 5459SOL    HW119654   3.701   9.780  10.388  0.4515 -0.4955  1.4143
 5459SOL    HW219655   3.603   9.895  10.386  0.3544 -0.5706 -0.7199
 5460SOL     OW19656   7.414   9.308   5.832 -0.5184  0.3449 -0.3255
 5460SOL    HW119657   7.345   9.303   5.765 -0.4416 -1.0857 -0.3208
 5460SOL    HW219658   7.373   9.274   5.911 -0.1081  0.4619 -0.0620
 5461SOL     OW19659  10.667   7.096   7.569  0.1192 -0.3031  0.0506
 5461SOL    HW119660  10.613   7.167   7.533 -0.2558 -0.5794  0.0572
 5461SOL    HW219661  10.616   7.063   7.643  0.5363 -0.2406  0.3700
 5462SOL     OW19662   0.037  10.227   8.093 -0.5745  0.5493  0.0299
 5462SOL    HW119663   0.025  10.157   8.156 -1.8665  1.0113  0.3212
 5462SOL    HW219664  -0.036  10.219   8.033  0.8192 -0.1076 -1.6780
 5463SOL     OW19665   1.453   0.048   6.260  0.4821  0.4726  0.1857
 5463SOL    HW119666   1.528  -0.008   6.277  1.1444  0.7542 -1.6045
 5463SOL    HW219667   1.452   0.110   6.333  1.7904  0.2583  0.4065
 5464SOL     OW19668   2.451   6.349   7.836  0.1678 -0.1964  0.2109
 5464SOL    HW119669   2.392   6.290   7.883  1.8455 -1.0394  1.3389
 5464SOL    HW219670   2.509   6.291   7.788  0.9299  0.5797  0.1810
 5465SOL     OW19671   0.360   0.197   7.265  0.3211 -0.0071  0.3981
 5465SOL    HW119672   0.328   0.114   7.301  0.0790 -0.0635  0.0624
 5465SOL    HW219673   0.424   0.171   7.199  1.1846  0.1109  1.1673
 5466SOL     OW19674   8.240   0.237   6.658 -0.2804 -0.6298  0.2505
 5466SOL    HW119675   8.205   0.165   6.607  1.1488 -0.9098 -0.3702
 5466SOL    HW219676   8.311   0.272   6.605  0.2340  0.0703  1.3607
 5467SOL     OW19677   0.865   2.516  10.349  0.5903 -0.1919  0.8995
 5467SOL    HW119678   0.802   2.472  10.292 -0.5796  0.2376  1.8285
 5467SOL    HW219679   0.845   2.609  10.340  0.5132 -0.1027  1.8412
 5468SOL     OW19680   3.009   5.699  10.086 -0.3219  0.3496 -0.3361
 5468SOL    HW119681   3.091   5.708  10.037 -0.6584  0.1234 -0.9584
 5468SOL    HW219682   3.036   5.671  10.173  0.2151 -0.5744 -0.7825
 5469SOL     OW19683   3.115   0.371   2.825  0.0837  0.5043  0.0602
 5469SOL    HW119684   3.123   0.289   2.776  2.8658  0.4399  0.4670
 5469SOL    HW219685   3.120   0.344   2.917 -0.8016  1.0039  0.2641
 5470SOL     OW19686  10.944   6.743   9.017 -0.1612  0.0455 -0.3371
 5470SOL    HW119687  10.913   6.806   8.952  0.6710 -0.3175 -1.1253
 5470SOL    HW219688  10.911   6.775   9.100 -1.9093  0.1171 -1.0138
 5471SOL     OW19689   4.834   9.900   2.972  0.2532  0.2664 -0.3840
 5471SOL    HW119690   4.757   9.905   2.915 -0.4082 -0.6114  0.4160
 5471SOL    HW219691   4.883   9.980   2.952 -0.7269  0.7139 -1.0914
 5472SOL     OW19692   8.106   3.756   1.628 -0.2669 -0.4888 -0.1613
 5472SOL    HW119693   8.164   3.823   1.663 -1.3965 -0.5439  1.9681
 5472SOL    HW219694   8.165   3.692   1.588  1.2123 -0.6588  2.1153
 5473SOL     OW19695  10.666   8.305   0.846  0.2223  0.3055 -0.5008
 5473SOL    HW119696  10.656   8.395   0.875 -1.3511  0.7325 -2.2599
 5473SOL    HW219697  10.618   8.299   0.764 -0.4398 -2.3458 -0.0360
 5474SOL     OW19698   5.988  10.003   9.137  0.0550  0.7662  0.3819
 5474SOL    HW119699   5.914  10.063   9.136  0.1492  0.8817  0.3187
 5474SOL    HW219700   6.065  10.059   9.144  0.1712  0.6820 -0.1841
 5475SOL     OW19701   0.184   3.195   2.743  0.3175 -0.0472  0.1213
 5475SOL    HW119702   0.148   3.141   2.672 -0.4918  1.0938 -0.3763
 5475SOL    HW219703   0.114   3.258   2.761  0.3716 -0.5313  2.1958
 5476SOL     OW19704  10.462   9.027   1.716 -0.4296 -0.4105  0.1971
 5476SOL    HW119705  10.554   9.017   1.694 -0.3789 -0.8131  0.5632
 5476SOL    HW219706  10.423   9.068   1.639  0.1136  0.0554  0.1669
 5477SOL     OW19707  11.193   3.094   6.730 -0.1146  0.3737  0.0081
 5477SOL    HW119708  11.181   3.185   6.702  0.5835  0.4347 -0.1178
 5477SOL    HW219709  11.108   3.068   6.767  0.1614  1.6394  1.6426
 5478SOL     OW19710  10.581   3.333   2.001 -0.8776  0.5994  0.1800
 5478SOL    HW119711  10.624   3.412   2.033  0.2364 -0.1175  0.5184
 5478SOL    HW219712  10.634   3.261   2.036 -0.6903 -0.2674 -1.7870
 5479SOL     OW19713   3.180   8.678   0.329  0.5326  0.0814  0.1410
 5479SOL    HW119714   3.208   8.593   0.362  0.6703  0.4448  1.0032
 5479SOL    HW219715   3.253   8.737   0.351  1.1758  0.1317 -1.9027
 5480SOL     OW19716   7.190   2.346   7.449 -0.5782  0.2880  0.0411
 5480SOL    HW119717   7.177   2.257   7.482 -1.8925  1.5476  3.3579
 5480SOL    HW219718   7.274   2.373   7.487  0.1448  0.2868 -1.5067
 5481SOL     OW19719  10.712   0.617   8.261  0.0332 -0.1525  0.5486
 5481SOL    HW119720  10.669   0.654   8.183 -0.1887  0.2428  0.8524
 5481SOL    HW219721  10.784   0.565   8.226 -0.5167 -0.5939  0.0436
 5482SOL     OW19722   1.553   3.245  10.456  0.2055 -0.0003 -0.2720
 5482SOL    HW119723   1.515   3.318  10.408 -1.1427 -0.1367  0.5452
 5482SOL    HW219724   1.647   3.262  10.456  0.0159  1.1103 -1.0947
 5483SOL     OW19725   2.049   8.052  11.391 -0.3276 -0.5843  0.8170
 5483SOL    HW119726   2.067   8.100  11.472  3.2506  0.7408 -0.5395
 5483SOL    HW219727   2.110   7.979  11.392  2.0820  1.1763 -1.8643
 5484SOL     OW19728   5.031   4.570   9.906  0.4002  0.0085  0.2472
 5484SOL    HW119729   5.088   4.577   9.983  1.8907  1.0217 -0.8932
 5484SOL    HW219730   5.064   4.494   9.858 -1.0356 -1.1137  0.9574
 5485SOL     OW19731   7.145   4.560   8.173  0.5603  0.0730 -0.3927
 5485SOL    HW119732   7.193   4.597   8.246  0.8709 -0.7921 -0.1396
 5485SOL    HW219733   7.079   4.625   8.151  0.4987  0.3659  0.6277
 5486SOL     OW19734   1.317  10.444   7.726  0.2676  0.1077  0.0329
 5486SOL    HW119735   1.330  10.470   7.817  1.3787 -0.6317  0.1068
 5486SOL    HW219736   1.340  10.521   7.676 -1.1432  0.7901  0.3818
 5487SOL     OW19737  10.605   7.802   5.036 -0.2081  0.2083 -0.1182
 5487SOL    HW119738  10.538   7.854   4.991 -2.0672 -1.0956  1.0099
 5487SOL    HW219739  10.661   7.769   4.966  0.0252  2.2781 -1.0011
 5488SOL     OW19740   7.185   9.872   8.333 -0.0727  0.2599 -0.4829
 5488SOL    HW119741   7.147   9.944   8.282  0.1722 -0.2513 -1.4176
 5488SOL    HW219742   7.154   9.793   8.288  2.1643 -0.1917 -1.3704
 5489SOL     OW19743   4.418   5.055   1.579  0.1571 -0.1456 -0.3479
 5489SOL    HW119744   4.348   5.003   1.540  1.9436 -2.9632 -0.0793
 5489SOL    HW219745   4.492   5.045   1.519  1.0945  0.6253  0.6365
 5490SOL     OW19746   2.515   2.495   4.699 -0.7448  0.6591 -0.3276
 5490SOL    HW119747   2.451   2.553   4.742 -0.4809  0.2310  0.6736
 5490SOL    HW219748   2.599   2.540   4.711 -0.6124  0.3291 -0.0199
 5491SOL     OW19749   0.956   4.168   2.991 -0.4591 -0.1471  0.0631
 5491SOL    HW119750   0.931   4.254   3.024 -0.2177  0.3707 -1.0435
 5491SOL    HW219751   0.876   4.133   2.953 -0.5938 -0.4855  0.6470
 5492SOL     OW19752   9.617   2.098   1.183  0.0807  0.2919 -0.0262
 5492SOL    HW119753   9.704   2.109   1.145 -0.4861  0.3862 -1.3441
 5492SOL    HW219754   9.627   2.127   1.274  1.2633  0.9545 -0.3463
 5493SOL     OW19755  10.594  11.190  10.657 -0.2418 -0.8691 -0.9056
 5493SOL    HW119756  10.561  11.198  10.747 -0.7497  0.3072 -1.1698
 5493SOL    HW219757  10.685  11.164  10.667  0.0694  0.4490  0.0095
 5494SOL     OW19758   7.373   9.687   2.675 -0.2705  0.2616  0.2316
 5494SOL    HW119759   7.411   9.609   2.634 -0.7151  0.4881 -0.6384
 5494SOL    HW219760   7.324   9.730   2.604  0.9023  1.9454  0.3750
 5495SOL     OW19761   9.811   0.784   4.482 -0.3440 -0.1911 -0.2002
 5495SOL    HW119762   9.897   0.815   4.454 -0.0897 -1.6561 -1.1698
 5495SOL    HW219763   9.824   0.754   4.572 -0.2209  0.9841  0.1848
 5496SOL     OW19764   0.690   9.444   9.877  0.2025 -0.1404  0.2306
 5496SOL    HW119765   0.668   9.472   9.966  1.8319  0.0020  0.6289
 5496SOL    HW219766   0.650   9.358   9.867 -1.0114  0.3604  0.6537
 5497SOL     OW19767   9.909   2.252   3.765  0.3098  0.1086  0.4199
 5497SOL    HW119768   9.920   2.305   3.844 -0.3644  2.4763 -0.9560
 5497SOL    HW219769   9.992   2.259   3.720  0.1520  0.1992  0.1393
 5498SOL     OW19770  10.056   1.465   8.193  0.0955 -0.0714  0.1204
 5498SOL    HW119771  10.048   1.433   8.103  0.9794  0.2812 -0.0925
 5498SOL    HW219772  10.050   1.560   8.186  1.8379  0.0682  0.2155
 5499SOL     OW19773   5.302   5.028   3.225 -0.1149  0.2579  0.3276
 5499SOL    HW119774   5.219   5.072   3.240  0.5123  1.8204 -0.5739
 5499SOL    HW219775   5.340   5.073   3.149  1.8579  0.0467  1.1343
 5500SOL     OW19776   0.448   6.606   0.834  0.2260  0.2263 -0.0520
 5500SOL    HW119777   0.465   6.533   0.893 -1.8272  0.5757  1.0538
 5500SOL    HW219778   0.519   6.668   0.851  1.1911 -0.8769  0.0190
 5501SOL     OW19779   2.648  11.032   7.119 -0.3483 -0.3884  0.5154
 5501SOL    HW119780   2.677  10.941   7.124  0.4377 -0.1293  0.8335
 5501SOL    HW219781   2.687  11.066   7.038  1.3695  0.3224  1.5788
 5502SOL     OW19782   2.231   8.514   1.011  0.2668  0.3014  0.4183
 5502SOL    HW119783   2.312   8.467   1.030 -0.4368 -0.9693  0.3689
 5502SOL    HW219784   2.188   8.523   1.096 -0.7284 -1.3317  0.1372
 5503SOL     OW19785   9.979  10.572   3.537 -0.1340 -0.1467 -0.5249
 5503SOL    HW119786   9.998  10.479   3.523  0.2134 -0.5364  2.1064
 5503SOL    HW219787   9.984  10.584   3.631 -1.2991  2.3388 -0.6948
 5504SOL     OW19788   5.323   6.831  11.340  0.3059  0.1760  0.2887
 5504SOL    HW119789   5.227   6.833  11.340  0.2732  1.2008 -1.3756
 5504SOL    HW219790   5.348   6.897  11.405 -0.1434  0.2693  0.3705
 5505SOL     OW19791   7.738   4.762   4.129  0.0749  0.0061  0.2987
 5505SOL    HW119792   7.776   4.844   4.160  3.4073 -0.5150 -1.9618
 5505SOL    HW219793   7.810   4.715   4.088 -2.0328 -3.4037  0.0370
 5506SOL     OW19794   4.623   5.008   5.266  0.5046  0.5966 -0.0740
 5506SOL    HW119795   4.606   4.956   5.344 -0.5874  1.8036  0.5432
 5506SOL    HW219796   4.572   4.966   5.197  1.0723 -0.1787 -0.0302
 5507SOL     OW19797   0.798   0.116  10.847 -0.6838 -0.7756  0.2534
 5507SOL    HW119798   0.847   0.035  10.835  1.7745  0.2743  2.2374
 5507SOL    HW219799   0.826   0.172  10.774 -0.9295 -1.0681 -0.0642
 5508SOL     OW19800  11.030   1.768   7.707  0.0378 -0.1934 -0.1410
 5508SOL    HW119801  11.109   1.819   7.686  0.5588 -0.1173  1.7900
 5508SOL    HW219802  11.026   1.701   7.639  0.8233  0.8127 -1.2257
 5509SOL     OW19803   2.367   5.378   9.982 -0.2343 -0.2839  0.0317
 5509SOL    HW119804   2.439   5.379   9.920 -0.3518 -0.6741 -0.1154
 5509SOL    HW219805   2.359   5.469  10.012 -0.8675  0.1425 -1.3318
 5510SOL     OW19806   0.495   6.000   1.690  0.0253 -0.3136  0.5657
 5510SOL    HW119807   0.423   6.057   1.718 -1.7187 -2.1675  0.1316
 5510SOL    HW219808   0.513   5.945   1.767  1.2503  0.3536  0.7805
 5511SOL     OW19809   5.045   7.660   4.588 -0.5186  0.1756 -0.2248
 5511SOL    HW119810   5.068   7.591   4.650 -2.7631 -0.0364  0.4430
 5511SOL    HW219811   5.083   7.631   4.505  0.2396 -0.8691  0.4650
 5512SOL     OW19812   9.873   4.311   2.142  0.3992 -0.3396  0.4739
 5512SOL    HW119813   9.857   4.260   2.222  0.2508  0.7301  1.1465
 5512SOL    HW219814   9.963   4.290   2.117  1.0249  0.5504  1.8693
 5513SOL     OW19815   2.877   3.829  10.211  0.0207  0.3643 -0.8005
 5513SOL    HW119816   2.905   3.881  10.136  1.4890  0.1921 -0.4068
 5513SOL    HW219817   2.784   3.849  10.221  0.4975  2.8619 -0.7178
 5514SOL     OW19818   8.810   6.259   0.994  0.0716 -0.6665  0.1315
 5514SOL    HW119819   8.768   6.214   0.921 -0.0599 -0.4326  0.0646
 5514SOL    HW219820   8.738   6.282   1.053 -0.1346  1.3005 -0.8096
 5515SOL     OW19821   3.093  10.889  10.364  0.7490 -0.1034 -0.2862
 5515SOL    HW119822   3.148  10.913  10.439  2.1354 -0.4309 -1.1567
 5515SOL    HW219823   3.138  10.927  10.288 -1.5618  1.7721 -0.8280
 5516SOL     OW19824   3.299   6.913  11.239  0.6765  0.3213  0.0927
 5516SOL    HW119825   3.379   6.883  11.197 -0.0070  0.1196 -1.1043
 5516SOL    HW219826   3.273   6.840  11.296  0.5097 -0.2610 -0.7084
 5517SOL     OW19827   2.664   2.977   5.192  0.1847 -0.1348 -0.2234
 5517SOL    HW119828   2.593   2.922   5.225 -1.3369  0.5429 -2.1497
 5517SOL    HW219829   2.693   2.934   5.112  1.5302 -0.0362  0.1802
 5518SOL     OW19830   4.831   4.985   1.007  0.6317 -0.0782 -0.8215
 5518SOL    HW119831   4.806   4.940   0.926 -1.9973 -2.7779  1.2581
 5518SOL    HW219832   4.764   5.052   1.019  0.9567  0.2476 -0.8131
 5519SOL     OW19833   1.800  10.885   6.449  0.1986  0.0102 -0.0210
 5519SOL    HW119834   1.843  10.849   6.372  0.1240  2.2803 -1.1823
 5519SOL    HW219835   1.741  10.952   6.415 -3.2634 -1.9036  1.5959
 5520SOL     OW19836  10.017   2.714  10.128 -0.5679  0.4475 -0.6082
 5520SOL    HW119837  10.077   2.772  10.174 -1.1089  0.6897 -0.2026
 5520SOL    HW219838  10.075   2.653  10.081  0.0052 -0.4986  1.2457
 5521SOL     OW19839   4.551   8.429   5.594 -0.4025 -0.4211  0.0171
 5521SOL    HW119840   4.586   8.388   5.673 -0.7170 -0.1729  0.2903
 5521SOL    HW219841   4.474   8.378   5.572 -0.3701 -0.4311 -0.0728
 5522SOL     OW19842   1.729   4.172   0.330  0.5607 -0.4386 -0.1932
 5522SOL    HW119843   1.736   4.265   0.307 -1.8084  0.6561  2.8639
 5522SOL    HW219844   1.645   4.164   0.374  1.9522 -3.4128  2.3290
 5523SOL     OW19845   9.422   0.957   6.319  0.0675 -0.3602  0.7746
 5523SOL    HW119846   9.515   0.973   6.338 -0.2068 -0.0657  1.9840
 5523SOL    HW219847   9.401   1.020   6.250  0.8982 -0.8076  0.0952
 5524SOL     OW19848  10.143   7.850   7.717 -0.2454 -0.0542  0.8555
 5524SOL    HW119849  10.080   7.799   7.768 -0.1450 -1.9337 -0.7629
 5524SOL    HW219850  10.100   7.864   7.633  0.1487  1.7286  0.9043
 5525SOL     OW19851   3.753   7.366   1.645 -0.0849 -0.9602  0.6030
 5525SOL    HW119852   3.724   7.406   1.728 -1.3441 -0.4075 -0.0728
 5525SOL    HW219853   3.846   7.386   1.641 -0.2800  0.2192  1.2508
 5526SOL     OW19854   0.722   6.704   9.082 -0.1654  0.2975 -0.1297
 5526SOL    HW119855   0.711   6.611   9.099  1.7626  0.1112  0.3277
 5526SOL    HW219856   0.815   6.715   9.067 -0.2332  2.2623  0.5268
 5527SOL     OW19857   0.027   1.402   1.614  0.2844  0.1983  0.1422
 5527SOL    HW119858   0.024   1.372   1.523 -1.7214  2.1253 -0.5200
 5527SOL    HW219859   0.120   1.421   1.629  0.9389 -1.8780 -0.8368
 5528SOL     OW19860   8.227   0.746  10.576 -0.0924 -0.1632  0.2170
 5528SOL    HW119861   8.310   0.753  10.529  0.4184 -0.8048  1.0020
 5528SOL    HW219862   8.165   0.796  10.523  0.0101 -2.3890 -2.2110
 5529SOL     OW19863   5.865   1.589   6.685  0.2281 -0.1411 -0.4473
 5529SOL    HW119864   5.785   1.546   6.656  0.0862 -0.5807  0.5513
 5529SOL    HW219865   5.842   1.630   6.769  1.2641 -1.0144  0.2926
 5530SOL     OW19866   6.525   6.892   0.893  0.0442  0.2445  0.0677
 5530SOL    HW119867   6.489   6.918   0.808  0.3105  0.5641  0.0476
 5530SOL    HW219868   6.527   6.797   0.890 -0.3052  0.2428 -0.1355
 5531SOL     OW19869   2.901   4.135   6.538  0.0205 -0.3191  0.0616
 5531SOL    HW119870   2.895   4.219   6.491 -0.5992 -1.2671 -1.6255
 5531SOL    HW219871   2.874   4.156   6.627  0.3461  1.3810 -0.2077
 5532SOL     OW19872   2.019   0.561   0.142 -0.1505  0.1973 -0.3823
 5532SOL    HW119873   2.027   0.657   0.150  0.3478  0.0914  0.4927
 5532SOL    HW219874   2.052   0.527   0.225 -2.2332 -0.6739  0.1470
 5533SOL     OW19875   6.628   5.342   2.704  0.0068  0.5488  0.0590
 5533SOL    HW119876   6.655   5.266   2.756 -0.9711  0.3716  0.3173
 5533SOL    HW219877   6.693   5.410   2.725  0.5386 -0.0245  0.2814
 5534SOL     OW19878  10.040  11.234   6.877 -0.2160  0.4395  0.4265
 5534SOL    HW119879  10.075  11.321   6.858  0.8515 -0.4039 -1.8780
 5534SOL    HW219880  10.113  11.187   6.918  0.5116 -0.4175 -1.6945
 5535SOL     OW19881   9.492   9.161   8.496  0.2948 -0.4087  0.4182
 5535SOL    HW119882   9.556   9.099   8.529  0.1726 -0.7030  0.1148
 5535SOL    HW219883   9.410   9.111   8.490  0.3098 -0.3613 -0.2948
 5536SOL     OW19884   0.816   3.877   5.077 -0.1947 -0.1012  0.2822
 5536SOL    HW119885   0.818   3.963   5.117 -0.6344 -0.1966  0.5179
 5536SOL    HW219886   0.905   3.842   5.089  0.7000  1.2426 -1.8899
 5537SOL     OW19887   3.959   2.446   8.094  0.0827  0.1997 -0.0692
 5537SOL    HW119888   3.897   2.501   8.144 -0.7223  0.8208 -1.6692
 5537SOL    HW219889   4.009   2.509   8.042 -0.3213 -0.5143 -1.3582
 5538SOL     OW19890  11.081   1.188   8.745  0.4928  0.3452 -0.0296
 5538SOL    HW119891  11.138   1.229   8.810  1.3445  0.7399 -1.0100
 5538SOL    HW219892  11.113   1.098   8.737  1.5245  0.7974 -1.1754
 5539SOL     OW19893   4.915   8.176   7.898 -0.2015 -0.2300  0.2733
 5539SOL    HW119894   4.902   8.202   7.806  1.2655 -1.7705 -0.4438
 5539SOL    HW219895   4.918   8.081   7.895  2.2170 -0.2676  1.5196
 5540SOL     OW19896   3.988   0.066   0.782 -0.4282 -0.4087 -0.3878
 5540SOL    HW119897   3.995   0.074   0.877  0.5714  0.8017 -0.5435
 5540SOL    HW219898   4.036  -0.015   0.761  0.2748 -0.1154  0.0499
 5541SOL     OW19899   8.936   8.465   2.226  0.0531  0.0324 -0.3541
 5541SOL    HW119900   8.969   8.377   2.248  1.2901  1.0720  2.4366
 5541SOL    HW219901   9.012   8.522   2.239 -0.9335  1.6239 -1.3578
 5542SOL     OW19902   9.390   9.929  10.054  0.1620  0.0225  0.4528
 5542SOL    HW119903   9.387  10.014  10.010 -0.8311 -0.0230  0.4052
 5542SOL    HW219904   9.298   9.908  10.072  0.2407 -1.7051 -0.8222
 5543SOL     OW19905   0.882   3.074   8.317 -0.2111  0.2022 -0.2368
 5543SOL    HW119906   0.930   3.156   8.327  0.3733 -0.0377 -0.9515
 5543SOL    HW219907   0.891   3.053   8.224 -0.9475 -0.3155 -0.1967
 5544SOL     OW19908   8.269  10.608   0.128  0.1060  0.1840 -0.6749
 5544SOL    HW119909   8.252  10.571   0.215  0.7371  0.4370 -0.4352
 5544SOL    HW219910   8.254  10.536   0.068  2.0663 -0.7192 -0.1622
 5545SOL     OW19911   8.477   3.357   2.733 -0.1976  0.3360 -0.0672
 5545SOL    HW119912   8.468   3.287   2.797  0.1778 -0.8131 -1.2143
 5545SOL    HW219913   8.565   3.345   2.697 -0.1305  1.4092 -0.2920
 5546SOL     OW19914   3.608   7.958   2.452 -0.0894  0.6995 -0.2849
 5546SOL    HW119915   3.624   7.998   2.538 -2.1574 -1.9944  1.5186
 5546SOL    HW219916   3.521   7.988   2.427 -0.2999 -0.0656 -0.4949
 5547SOL     OW19917   6.662   0.329  10.889  0.0136 -0.3268  0.0303
 5547SOL    HW119918   6.751   0.356  10.867 -0.8608  1.8073 -1.2020
 5547SOL    HW219919   6.638   0.266  10.822  0.6642 -1.1529  0.5499
 5548SOL     OW19920   7.153   4.926   7.442  0.7711 -0.3750 -0.1542
 5548SOL    HW119921   7.112   5.007   7.412  0.5605  0.0161  1.1279
 5548SOL    HW219922   7.227   4.913   7.383  0.1510  0.1446 -1.0643
 5549SOL     OW19923   3.951   9.490   9.926  0.2491  0.9380 -0.0625
 5549SOL    HW119924   3.895   9.426   9.970 -0.3112  1.2462 -0.3224
 5549SOL    HW219925   3.973   9.449   9.842  1.2191  0.4011  0.4382
 5550SOL     OW19926   3.198   6.054   1.383 -0.0757  0.0881 -0.9687
 5550SOL    HW119927   3.220   6.141   1.351  0.4070  0.0448 -0.7655
 5550SOL    HW219928   3.163   6.008   1.306  1.0762 -0.0181 -1.4478
 5551SOL     OW19929   8.099   5.966   9.610 -0.2047  0.0727  0.0814
 5551SOL    HW119930   8.135   6.055   9.617  0.3984  0.0396 -2.0323
 5551SOL    HW219931   8.011   5.979   9.573 -0.3503 -0.1745  0.3386
 5552SOL     OW19932   0.957   1.150   4.871 -0.1734  0.2415  0.1510
 5552SOL    HW119933   1.004   1.154   4.954  0.6299  0.5541 -0.3053
 5552SOL    HW219934   0.928   1.059   4.864  3.0634 -0.8543 -0.9609
 5553SOL     OW19935   2.704   6.205  10.691  0.0303 -0.0380  0.7667
 5553SOL    HW119936   2.642   6.258  10.641  1.7909  1.3584 -0.0444
 5553SOL    HW219937   2.723   6.130  10.634  0.1462  0.2566  0.4143
 5554SOL     OW19938   6.260   5.372   7.884  0.1488 -0.5247  0.6551
 5554SOL    HW119939   6.246   5.327   7.967  0.9566 -1.6144  0.2334
 5554SOL    HW219940   6.355   5.379   7.876  0.1546 -1.5733 -0.7171
 5555SOL     OW19941   7.186  10.128   4.334 -0.3919  0.3971  0.5632
 5555SOL    HW119942   7.185  10.035   4.310 -0.3887  0.4090  0.5133
 5555SOL    HW219943   7.128  10.170   4.269  1.4437  0.7954 -0.9145
 5556SOL     OW19944   6.405   5.498   7.418  0.1856  0.2935 -0.1130
 5556SOL    HW119945   6.359   5.430   7.467  0.3977  0.1565 -0.1020
 5556SOL    HW219946   6.353   5.577   7.432  0.4515  0.3423  0.6358
 5557SOL     OW19947   7.763   7.007   5.078 -0.1981 -0.2891  0.3621
 5557SOL    HW119948   7.766   6.971   4.989  0.5790 -0.4962  0.4582
 5557SOL    HW219949   7.842   7.061   5.084 -1.8094  2.2684 -0.0897
 5558SOL     OW19950   2.576   2.820   7.810  0.0206  0.0556 -0.0358
 5558SOL    HW119951   2.594   2.865   7.728 -0.4379  1.0223  0.3797
 5558SOL    HW219952   2.539   2.735   7.784 -0.7717  0.6284 -0.8233
 5559SOL     OW19953   1.349   9.509   1.016 -0.2459 -0.7046 -0.1564
 5559SOL    HW119954   1.264   9.480   1.049  0.1996 -0.9616  0.8037
 5559SOL    HW219955   1.349   9.486   0.924 -0.9154 -1.4075  0.0154
 5560SOL     OW19956  10.731   3.337  10.361  0.6168  0.4764 -0.4221
 5560SOL    HW119957  10.704   3.401  10.427 -0.0261  1.3950 -1.5275
 5560SOL    HW219958  10.770   3.266  10.411 -0.3675  0.8769  0.9887
 5561SOL     OW19959   8.159   9.168  10.260  0.2167  0.2258  0.0465
 5561SOL    HW119960   8.184   9.087  10.304  0.7808  0.1094 -0.4694
 5561SOL    HW219961   8.216   9.234  10.297 -1.9777  0.9612  2.3895
 5562SOL     OW19962  10.762  10.281  10.530 -0.2900  0.1767 -0.7413
 5562SOL    HW119963  10.816  10.263  10.606 -0.8882  0.5425 -0.2212
 5562SOL    HW219964  10.701  10.208  10.526  0.4433 -0.4103 -1.5241
 5563SOL     OW19965   7.415   8.666   7.189 -0.0723  0.6902 -0.3283
 5563SOL    HW119966   7.395   8.692   7.279  1.1774  0.0810  0.1521
 5563SOL    HW219967   7.394   8.572   7.186 -0.1847  0.7261 -0.6928
 5564SOL     OW19968   2.218   4.502   1.835 -0.3934 -0.2628 -0.2076
 5564SOL    HW119969   2.310   4.527   1.823 -1.0067  2.6664  0.3929
 5564SOL    HW219970   2.207   4.425   1.779  2.4173 -0.7898 -0.2200
 5565SOL     OW19971   5.606   0.586   2.413 -0.2222  0.1068  0.0326
 5565SOL    HW119972   5.671   0.529   2.372  1.3500 -0.1726  2.7106
 5565SOL    HW219973   5.625   0.673   2.376 -0.4621 -0.4767 -1.5660
 5566SOL     OW19974   6.487   1.356   5.714 -0.3589 -0.2778 -0.3659
 5566SOL    HW119975   6.454   1.379   5.801 -0.1355  0.9406 -0.5844
 5566SOL    HW219976   6.412   1.370   5.655 -0.1916  0.0053 -0.5159
 5567SOL     OW19977   6.212  10.433   4.919  0.4623 -0.2847  0.0888
 5567SOL    HW119978   6.231  10.371   4.989  0.9687  0.1917  0.3772
 5567SOL    HW219979   6.193  10.515   4.964  0.6901 -0.0026 -0.3254
 5568SOL     OW19980   8.165   3.839   4.303 -0.5035 -0.3111  0.5131
 5568SOL    HW119981   8.096   3.845   4.369 -0.6266 -0.5161  0.4037
 5568SOL    HW219982   8.166   3.747   4.277 -0.8491 -0.1193 -0.1879
 5569SOL     OW19983   3.501   3.040   5.068 -0.6352  0.1128 -0.4558
 5569SOL    HW119984   3.412   3.072   5.075 -1.9408 -2.6711 -2.4511
 5569SOL    HW219985   3.505   2.999   4.981  1.6776 -2.3587  0.6694
 5570SOL     OW19986   7.034   7.379   0.137 -0.2348  0.2515 -0.2576
 5570SOL    HW119987   6.980   7.304   0.115  0.8795 -0.3766 -0.9559
 5570SOL    HW219988   7.027   7.436   0.060 -0.1011  0.2938 -0.2378
 5571SOL     OW19989   4.929   7.612   0.990  0.6613  0.0115  0.5094
 5571SOL    HW119990   4.885   7.623   1.074 -0.2333 -0.2341  0.0840
 5571SOL    HW219991   4.916   7.695   0.945  0.8627  0.0286  0.4815
 5572SOL     OW19992   6.652   2.837   5.405  0.3625  0.7064 -0.4032
 5572SOL    HW119993   6.712   2.904   5.438  0.6571  1.1717 -1.8026
 5572SOL    HW219994   6.705   2.787   5.343 -0.3084  0.2024 -0.5765
 5573SOL     OW19995   2.673   4.459   0.864 -0.1265  0.4699  0.0580
 5573SOL    HW119996   2.618   4.531   0.895  0.7516  1.8584 -1.4838
 5573SOL    HW219997   2.739   4.501   0.808  0.0126 -1.5908 -1.4257
 5574SOL     OW19998   2.839   8.689   1.167  0.5457  0.1960  0.1218
 5574SOL    HW119999   2.922   8.645   1.188  1.4111  3.1206  3.9130
 5574SOL    HW220000   2.777   8.655   1.232  0.3322  1.9258  0.8826
 5575SOL     OW20001   2.496  10.345   6.760  0.0608  0.1467  0.3604
 5575SOL    HW120002   2.440  10.422   6.751  1.6122  1.2291 -0.4490
 5575SOL    HW220003   2.458  10.297   6.834 -1.2220  1.4190  0.5860
 5576SOL     OW20004   2.691  10.402   2.899  0.4298 -0.2045  0.1250
 5576SOL    HW120005   2.727  10.316   2.920  0.5143 -0.2855 -0.3490
 5576SOL    HW220006   2.661  10.395   2.809  0.9970  0.4431 -0.1252
 5577SOL     OW20007   3.115   3.904   7.050  0.3243 -0.0730  0.2475
 5577SOL    HW120008   3.056   3.954   6.992 -1.4193  0.4793  2.3602
 5577SOL    HW220009   3.170   3.971   7.090  0.5298 -0.2795  0.3077
 5578SOL     OW20010   7.828   9.534   3.039  0.1185 -0.6733 -0.2681
 5578SOL    HW120011   7.820   9.628   3.051  0.1354 -0.7278  0.1613
 5578SOL    HW220012   7.738   9.504   3.023  0.3464 -0.2656 -2.8249
 5579SOL     OW20013   0.612   0.463   1.912 -0.3951 -0.1248 -0.2828
 5579SOL    HW120014   0.676   0.396   1.938  0.4824  1.4235  1.9444
 5579SOL    HW220015   0.663   0.526   1.861 -0.7095 -0.0866 -0.5482
 5580SOL     OW20016  10.242   6.568   8.967  0.5008 -0.9800 -0.7902
 5580SOL    HW120017  10.278   6.627   8.901 -0.0619  0.8735  0.4995
 5580SOL    HW220018  10.307   6.567   9.037  0.4168 -1.7886 -0.7055
 5581SOL     OW20019   1.480   7.793   5.241  0.7086 -0.2975 -0.0192
 5581SOL    HW120020   1.413   7.836   5.189 -0.5399 -0.9583  0.9627
 5581SOL    HW220021   1.528   7.738   5.179  1.1926  1.1404 -0.9609
 5582SOL     OW20022   3.460   5.866   9.357  0.0711 -0.4915  0.1190
 5582SOL    HW120023   3.422   5.841   9.441  1.1222  1.2768  1.1870
 5582SOL    HW220024   3.435   5.958   9.346 -0.1329 -0.7157 -1.5708
 5583SOL     OW20025   8.006   3.847  10.247 -0.5605 -0.4410 -0.1692
 5583SOL    HW120026   7.973   3.931  10.279  2.2754  0.2292  1.3522
 5583SOL    HW220027   7.994   3.787  10.320  1.3641 -0.1678  0.4465
 5584SOL     OW20028   1.360   3.190  11.329 -0.4568  0.2204  0.4508
 5584SOL    HW120029   1.337   3.111  11.378  1.7439 -0.7171  0.0914
 5584SOL    HW220030   1.277   3.234  11.314 -1.8321 -2.3037  0.1830
 5585SOL     OW20031   3.344   6.101   9.327  0.2100  0.2833 -0.1219
 5585SOL    HW120032   3.255   6.067   9.323  0.5270 -0.4773 -2.3054
 5585SOL    HW220033   3.369   6.111   9.235  1.4788  2.9323  0.4068
 5586SOL     OW20034   5.590   1.955   6.374  0.6990 -0.3590 -0.5985
 5586SOL    HW120035   5.601   1.940   6.468 -0.9473 -1.0715 -0.4732
 5586SOL    HW220036   5.529   2.029   6.368  1.0775 -0.0808 -1.1119
 5587SOL     OW20037  11.316   0.801   3.419  0.1919 -0.4321  0.3614
 5587SOL    HW120038  11.328   0.894   3.396 -0.0200 -0.7513 -1.1877
 5587SOL    HW220039  11.241   0.800   3.478 -0.9492  0.2549 -0.9923
 5588SOL     OW20040   3.002   2.117  10.722 -0.5796  0.4943 -0.3412
 5588SOL    HW120041   2.948   2.042  10.701  0.3605 -0.5984  0.9865
 5588SOL    HW220042   3.054   2.133  10.643 -0.6919 -0.3321 -0.5854
 5589SOL     OW20043   0.712   7.830   8.164 -0.6083  0.4198 -0.5706
 5589SOL    HW120044   0.677   7.836   8.076 -0.6498  0.5631 -0.5453
 5589SOL    HW220045   0.701   7.739   8.189  0.0543  0.2197 -0.9807
 5590SOL     OW20046  10.100   0.830   5.489 -0.8283  0.3370 -0.2283
 5590SOL    HW120047  10.180   0.867   5.527  0.6070 -2.0294 -0.7495
 5590SOL    HW220048  10.054   0.906   5.453  1.4350  1.7415 -0.3813
 5591SOL     OW20049   0.607   5.957  10.194 -0.6012 -0.5656  0.5029
 5591SOL    HW120050   0.545   5.925  10.259 -1.8368  0.5664 -0.0565
 5591SOL    HW220051   0.629   5.881  10.141 -0.1247 -1.3499  1.7914
 5592SOL     OW20052   5.253   0.783   7.156 -0.2901 -0.0437  0.5226
 5592SOL    HW120053   5.242   0.763   7.063 -0.6775  0.1716  0.5209
 5592SOL    HW220054   5.289   0.872   7.158 -1.3443  0.3864  0.6059
 5593SOL     OW20055   5.719   3.551   0.938  0.6805 -0.1285  0.0054
 5593SOL    HW120056   5.778   3.593   0.875  0.7775 -0.7157 -0.3088
 5593SOL    HW220057   5.638   3.537   0.888 -0.5781  2.6749  1.0414
 5594SOL     OW20058   7.140   3.700   6.867  0.3118  0.4088  0.3556
 5594SOL    HW120059   7.207   3.684   6.801  0.0944  0.4772  0.1168
 5594SOL    HW220060   7.144   3.794   6.883 -0.4019  0.5726 -0.3898
 5595SOL     OW20061   0.100   3.160   0.637 -0.1414 -0.5544 -0.0822
 5595SOL    HW120062   0.065   3.190   0.553  0.4478  0.3516 -0.0205
 5595SOL    HW220063   0.040   3.196   0.703  2.0473  3.0738  0.1991
 5596SOL     OW20064   2.216  10.481   6.354 -0.6913  0.2203 -0.1136
 5596SOL    HW120065   2.293  10.427   6.337  0.0816  1.4084 -0.5643
 5596SOL    HW220066   2.252  10.568   6.373 -1.7908  0.1795  2.5752
 5597SOL     OW20067  10.377   0.253   8.546  0.6441 -0.4759  0.3836
 5597SOL    HW120068  10.382   0.336   8.498 -3.2258 -1.1043 -1.4717
 5597SOL    HW220069  10.414   0.274   8.632  2.1282  2.4513 -0.8144
 5598SOL     OW20070   8.615   1.113   8.762 -0.3098  0.0894  0.0826
 5598SOL    HW120071   8.562   1.039   8.792 -0.0334 -0.3787 -0.5502
 5598SOL    HW220072   8.662   1.079   8.685 -1.4104  1.4006 -1.2377
 5599SOL     OW20073   3.586  10.527   9.225 -0.5278 -0.1789 -0.2115
 5599SOL    HW120074   3.535  10.569   9.295  0.0800  0.6240 -0.2388
 5599SOL    HW220075   3.602  10.597   9.162  2.0122  0.0345  0.5743
 5600SOL     OW20076   0.012   9.434   4.778 -0.0219  0.1500 -0.1475
 5600SOL    HW120077   0.052   9.350   4.802  0.0377  0.5475  1.2369
 5600SOL    HW220078  -0.075   9.432   4.818 -0.1946  0.5621 -0.4903
 5601SOL     OW20079   6.070   6.992   5.154 -0.4392 -0.4755  0.0265
 5601SOL    HW120080   6.144   7.002   5.214  0.4087 -0.7961 -0.9480
 5601SOL    HW220081   6.032   6.907   5.176  0.6676 -1.1902 -0.7323
 5602SOL     OW20082   1.426   2.925   6.430 -0.3683  0.0152 -0.4020
 5602SOL    HW120083   1.365   2.934   6.357  0.7244  2.4098 -1.1141
 5602SOL    HW220084   1.462   3.012   6.442  0.0262 -0.4463  2.5792
 5603SOL     OW20085   6.372   1.258   3.855  0.4103 -0.2890 -0.2513
 5603SOL    HW120086   6.374   1.199   3.781 -1.6697 -1.3191  0.4165
 5603SOL    HW220087   6.359   1.345   3.817  0.7030 -0.6224 -1.1215
 5604SOL     OW20088  11.014   0.261   7.363  0.1378 -0.0455 -0.5681
 5604SOL    HW120089  10.984   0.281   7.451 -2.2805  1.9699 -1.7273
 5604SOL    HW220090  11.079   0.329   7.343  1.1382 -0.8595 -0.1744
 5605SOL     OW20091  10.939   7.474   6.114 -0.1508  0.2334 -0.2746
 5605SOL    HW120092  10.859   7.431   6.142  0.0847 -1.1611 -1.5831
 5605SOL    HW220093  10.924   7.567   6.129 -0.5105 -0.2623  3.0864
 5606SOL     OW20094  10.725   2.547   4.099  0.0845  0.0953 -0.3499
 5606SOL    HW120095  10.748   2.634   4.131  0.5499  0.3216 -1.2741
 5606SOL    HW220096  10.786   2.488   4.143 -1.2269  0.0171  1.4804
 5607SOL     OW20097   9.152   6.369   6.628 -0.3405 -0.2967 -0.0253
 5607SOL    HW120098   9.156   6.365   6.533  0.7028  1.0253 -0.0635
 5607SOL    HW220099   9.130   6.461   6.647 -1.6550 -0.7853  0.9932
 5608SOL     OW20100   6.454  11.335   7.715  0.0281  0.3106 -0.4093
 5608SOL    HW120101   6.430  11.427   7.727  0.8256  0.3675  1.0390
 5608SOL    HW220102   6.372  11.287   7.727 -0.3129  0.8020 -0.7264
 5609SOL     OW20103   7.053   1.876   4.771 -0.2448  0.1498  0.0395
 5609SOL    HW120104   7.088   1.880   4.860 -0.6872 -1.0654  0.2847
 5609SOL    HW220105   7.124   1.837   4.719 -1.3107 -2.9465  0.6608
 5610SOL     OW20106   0.085   0.696  10.164 -0.5819  0.1794  0.2056
 5610SOL    HW120107  -0.004   0.707  10.197 -1.4025  0.7563 -2.0180
 5610SOL    HW220108   0.104   0.778  10.117  0.9273 -0.1409  0.1878
 5611SOL     OW20109   1.370   0.829   9.761 -0.6739 -0.1164 -0.0254
 5611SOL    HW120110   1.457   0.865   9.777 -1.1938  0.9277  0.5198
 5611SOL    HW220111   1.330   0.821   9.847 -1.1960 -0.3982 -0.2840
 5612SOL     OW20112   8.021   4.669   7.135 -0.1964  0.3901  0.6366
 5612SOL    HW120113   8.055   4.671   7.225  0.1217 -2.0927  0.6400
 5612SOL    HW220114   7.935   4.630   7.143 -0.0853 -0.0274 -0.1667
 5613SOL     OW20115  11.095   8.891   7.609 -0.6556 -0.1422 -0.0193
 5613SOL    HW120116  11.025   8.829   7.628  0.4089 -1.3967  0.0114
 5613SOL    HW220117  11.171   8.835   7.588  0.2378  1.1591 -0.3773
 5614SOL     OW20118  11.057  10.426   0.009  0.0674  0.2951  0.2042
 5614SOL    HW120119  11.061  10.427   0.105  0.4186  1.2425  0.1922
 5614SOL    HW220120  10.991  10.493  -0.012  1.1918  1.2980 -0.2417
 5615SOL     OW20121   9.810   1.003  10.689  0.2013  0.0829 -0.1843
 5615SOL    HW120122   9.773   1.055  10.760  0.5501  0.0423  0.0347
 5615SOL    HW220123   9.891   0.967  10.727  0.0802 -0.4276 -0.4051
 5616SOL     OW20124   7.534   5.282  10.961  0.7566 -0.0702  0.4422
 5616SOL    HW120125   7.538   5.261  11.054  0.5524  0.4174  0.5637
 5616SOL    HW220126   7.496   5.370  10.958  0.4930 -0.1976 -0.1153
 5617SOL     OW20127   2.968  11.223   3.145 -0.0752  0.2934  0.1524
 5617SOL    HW120128   3.059  11.201   3.166  0.4194  1.5299 -0.6174
 5617SOL    HW220129   2.936  11.147   3.096  0.1101 -0.7222  1.5295
 5618SOL     OW20130  10.699   4.554   2.866  0.5800  0.3977 -0.1099
 5618SOL    HW120131  10.728   4.521   2.780  1.7796 -1.9808  1.0965
 5618SOL    HW220132  10.764   4.621   2.888  0.0863  1.2566 -1.1413
 5619SOL     OW20133   0.621  11.216   2.624  0.0206 -0.2653  0.2729
 5619SOL    HW120134   0.668  11.134   2.609  0.1534 -0.1266 -0.0627
 5619SOL    HW220135   0.529  11.190   2.636  0.1437 -0.5115  0.6925
 5620SOL     OW20136   0.118   4.853   8.179  0.2964  0.0716 -0.2250
 5620SOL    HW120137   0.088   4.943   8.167 -3.7424 -0.8361  1.2778
 5620SOL    HW220138   0.152   4.852   8.268  0.5674  0.1397 -0.3264
 5621SOL     OW20139   4.365   0.667   8.699 -0.2673 -0.2863 -0.7320
 5621SOL    HW120140   4.272   0.681   8.720 -0.1209 -0.9322  0.4483
 5621SOL    HW220141   4.365   0.593   8.639 -0.5614  0.2545 -1.4138
 5622SOL     OW20142   8.834   8.630   4.428 -0.3705 -0.5900 -0.5706
 5622SOL    HW120143   8.903   8.572   4.395  2.8040  1.2519  2.2801
 5622SOL    HW220144   8.782   8.575   4.487  1.4626 -1.0466  0.6858
 5623SOL     OW20145   3.826   4.368   1.669  0.0186 -0.0028  0.2758
 5623SOL    HW120146   3.739   4.340   1.695  0.7741 -1.4440  1.4507
 5623SOL    HW220147   3.850   4.308   1.598 -0.4628  1.3010 -1.0241
 5624SOL     OW20148   7.927   2.424   0.429 -0.6276  0.2241 -0.0840
 5624SOL    HW120149   7.836   2.434   0.401 -0.8143 -2.0719 -0.4612
 5624SOL    HW220150   7.978   2.428   0.349 -0.3044  1.8479  0.1580
 5625SOL     OW20151   1.841   8.594   3.563  0.1512  0.1861 -0.0595
 5625SOL    HW120152   1.785   8.578   3.639  1.1636 -0.6315  0.5468
 5625SOL    HW220153   1.824   8.521   3.504 -0.0339  0.3808 -0.2463
 5626SOL     OW20154  11.189  11.099   3.230  0.0284  0.5625  0.3140
 5626SOL    HW120155  11.178  11.192   3.207 -2.4512  0.0691 -0.9328
 5626SOL    HW220156  11.109  11.077   3.279  0.6470 -0.8822  0.7244
 5627SOL     OW20157   7.018   7.965   4.238 -0.0578 -0.2210 -0.0485
 5627SOL    HW120158   7.068   7.919   4.171 -0.0476 -1.2334  0.6325
 5627SOL    HW220159   6.964   7.897   4.279  0.3329  0.2604  1.3399
 5628SOL     OW20160   8.691   1.584   4.933  0.4748 -0.1912  0.4634
 5628SOL    HW120161   8.669   1.610   5.023 -0.6514 -2.5267  0.9624
 5628SOL    HW220162   8.738   1.658   4.897  0.1780  1.1809  2.6988
 5629SOL     OW20163  10.061   3.143   1.293 -0.0792  0.5103  0.4572
 5629SOL    HW120164  10.127   3.183   1.350 -0.3458  1.2690  0.2393
 5629SOL    HW220165  10.065   3.049   1.315  0.2935  0.6965  1.2367
 5630SOL     OW20166   9.070   0.085   6.681  0.7449  0.4622 -0.3223
 5630SOL    HW120167   9.118   0.006   6.657 -1.8599 -2.0548  1.9209
 5630SOL    HW220168   9.022   0.110   6.602  0.1310 -1.4324 -0.5854
 5631SOL     OW20169   6.326   8.730   0.908 -0.3835 -0.5198  0.1901
 5631SOL    HW120170   6.259   8.733   0.840 -0.6040 -1.2600  0.3726
 5631SOL    HW220171   6.401   8.689   0.866 -0.5835 -1.1495  0.4472
 5632SOL     OW20172  11.106  11.345   5.358  0.7853 -0.2555 -0.4855
 5632SOL    HW120173  11.064  11.431   5.363  2.7182  0.8441 -1.7116
 5632SOL    HW220174  11.065  11.302   5.283 -1.7128 -1.3897  1.3768
 5633SOL     OW20175   7.925   8.073   9.201 -0.2642 -0.8370  0.4975
 5633SOL    HW120176   7.859   8.007   9.222  1.3614 -2.4593  0.6737
 5633SOL    HW220177   8.001   8.023   9.171  0.3541  1.0395 -1.3367
 5634SOL     OW20178   8.821  11.391  10.493 -0.8294  0.5978 -0.5797
 5634SOL    HW120179   8.826  11.473  10.543 -1.5285 -0.2262  0.9272
 5634SOL    HW220180   8.805  11.324  10.560 -0.9669 -0.6788 -1.8535
 5635SOL     OW20181   7.182   2.805   4.663 -0.3520  0.1152 -0.2672
 5635SOL    HW120182   7.207   2.882   4.612  3.4692 -0.2899  0.6362
 5635SOL    HW220183   7.184   2.835   4.754 -3.1763 -0.1084 -0.0605
 5636SOL     OW20184   1.755   8.904   3.631  0.1735 -0.1015 -0.0781
 5636SOL    HW120185   1.757   8.809   3.640 -0.8144 -0.2057 -0.8345
 5636SOL    HW220186   1.728   8.935   3.718  0.8998 -0.4760  0.2917
 5637SOL     OW20187   4.036   2.878   4.020 -0.1762  0.2627  0.4415
 5637SOL    HW120188   4.129   2.867   4.039 -0.2632  0.2348  0.8766
 5637SOL    HW220189   3.993   2.814   4.077 -0.4931  0.6400  0.6300
 5638SOL     OW20190   8.323  10.097   4.681  0.3738 -0.3414 -0.3280
 5638SOL    HW120191   8.286  10.062   4.762  2.6062  0.7224  1.2418
 5638SOL    HW220192   8.373  10.025   4.644 -0.5456 -0.7901 -0.7319
 5639SOL     OW20193   0.355   9.820   1.577  0.0701  0.1679 -0.3822
 5639SOL    HW120194   0.404   9.853   1.502 -0.4870  0.6375 -0.5380
 5639SOL    HW220195   0.320   9.897   1.620  0.8227 -0.0526  0.6835
 5640SOL     OW20196   6.948   7.467   5.874  0.1691  0.0797  0.2630
 5640SOL    HW120197   6.956   7.514   5.791 -0.2323 -0.4563 -0.0823
 5640SOL    HW220198   6.994   7.523   5.937 -0.1261  0.8355 -0.1761
 5641SOL     OW20199   4.953  11.171   2.710 -0.2006 -0.2649  0.4611
 5641SOL    HW120200   4.910  11.124   2.782  1.7442  0.6267  2.3001
 5641SOL    HW220201   4.929  11.121   2.632 -1.8380 -1.6820  1.7727
 5642SOL     OW20202   4.599   6.542   3.667 -0.5076  0.6959 -0.1987
 5642SOL    HW120203   4.544   6.500   3.733  0.5902 -0.6282 -0.0791
 5642SOL    HW220204   4.664   6.475   3.644 -0.1008  1.5653 -1.7041
 5643SOL     OW20205   0.690  11.134   9.907  0.5389 -0.5276 -0.3736
 5643SOL    HW120206   0.778  11.173   9.902  0.1743  0.5619  0.9890
 5643SOL    HW220207   0.652  11.173   9.986 -1.1618 -1.0032 -0.9358
 5644SOL     OW20208   6.415   2.778   5.016 -0.5075 -0.3149  0.0146
 5644SOL    HW120209   6.396   2.688   4.988  0.2049 -0.2633 -0.6743
 5644SOL    HW220210   6.350   2.831   4.970  0.3596 -0.2805 -1.2046
 5645SOL     OW20211   7.894   4.349  10.354  0.4498 -0.3803 -0.8072
 5645SOL    HW120212   7.842   4.428  10.366 -1.1789 -1.5652  0.3962
 5645SOL    HW220213   7.867   4.315  10.268  2.4969  1.2398 -2.1974
 5646SOL     OW20214  11.072  10.770   7.802 -0.1696 -0.2285 -0.0071
 5646SOL    HW120215  11.131  10.738   7.870 -0.4292  0.3543  0.5000
 5646SOL    HW220216  11.108  10.735   7.720  3.2771  3.2740 -0.2782
 5647SOL     OW20217   5.154   3.923   4.977 -0.1114 -0.3506  0.4361
 5647SOL    HW120218   5.102   3.946   5.054  0.4213  0.1870  0.6443
 5647SOL    HW220219   5.217   3.859   5.010  0.2148 -0.0078  0.4895
 5648SOL     OW20220   3.729   3.009   2.199 -0.7422 -0.2169 -0.0736
 5648SOL    HW120221   3.762   2.927   2.161 -2.3296  0.0984 -2.3536
 5648SOL    HW220222   3.728   3.070   2.126  0.0668  1.7947  1.5086
 5649SOL     OW20223   4.739   6.177   7.061  0.1495  0.2980 -0.4074
 5649SOL    HW120224   4.764   6.117   7.131 -2.0979 -0.5137 -0.2182
 5649SOL    HW220225   4.798   6.155   6.989  1.1267 -0.2956  0.5483
 5650SOL     OW20226  10.684   7.334   6.866  0.6822  0.3067 -0.2338
 5650SOL    HW120227  10.766   7.291   6.842  0.5639 -0.2832  0.3990
 5650SOL    HW220228  10.650   7.283   6.939  0.3041  1.2039  0.2425
 5651SOL     OW20229   6.155   5.388  10.399  0.4171  0.7326 -0.0151
 5651SOL    HW120230   6.118   5.312  10.354  1.5047  0.6151 -0.7705
 5651SOL    HW220231   6.131   5.376  10.491 -1.2450  0.5995 -0.4320
 5652SOL     OW20232   2.352   7.709   4.816 -0.0772 -0.0584 -0.3764
 5652SOL    HW120233   2.293   7.637   4.795 -2.8988  1.6690  0.9731
 5652SOL    HW220234   2.426   7.697   4.757 -0.7569 -3.5709 -0.7261
 5653SOL     OW20235   6.160   8.199  10.871  0.1712  0.0196  0.1244
 5653SOL    HW120236   6.117   8.206  10.786 -1.2339  2.1537  0.9373
 5653SOL    HW220237   6.192   8.287  10.890  0.9880 -0.5442  1.5261
 5654SOL     OW20238   7.759   9.459   4.987 -0.0512 -0.0537 -0.0937
 5654SOL    HW120239   7.695   9.424   5.050 -0.5349  0.0109 -0.5396
 5654SOL    HW220240   7.800   9.381   4.950 -0.6325 -0.1357 -0.5781
 5655SOL     OW20241   6.414   5.928   1.912  0.4755  0.1612 -0.3964
 5655SOL    HW120242   6.394   6.014   1.874  0.9479  0.2009 -0.5513
 5655SOL    HW220243   6.479   5.946   1.980 -2.1582  0.4644  2.2454
 5656SOL     OW20244   2.447   7.778   5.074  0.1076 -0.0869  0.1462
 5656SOL    HW120245   2.376   7.776   5.137  0.2190  1.5857  0.3517
 5656SOL    HW220246   2.404   7.785   4.989  0.0061 -0.0583  0.2002
 5657SOL     OW20247   2.114   5.426  10.341 -0.3344 -0.3723 -0.5707
 5657SOL    HW120248   2.069   5.434  10.257  0.4951  0.4491 -0.9408
 5657SOL    HW220249   2.055   5.468  10.404  0.9989  3.1508 -1.4525
 5658SOL     OW20250   7.400  10.080  11.071  0.2328  0.0124 -0.1084
 5658SOL    HW120251   7.345  10.058  10.996 -0.5323 -0.9896  0.7231
 5658SOL    HW220252   7.442   9.997  11.096 -0.2237  0.1231  1.1173
 5659SOL     OW20253  10.455   8.564   1.294  0.8506 -0.5784 -0.9176
 5659SOL    HW120254  10.545   8.561   1.326  0.0366 -0.6241  1.5774
 5659SOL    HW220255  10.421   8.648   1.322 -0.3465 -1.1955 -0.4257
 5660SOL     OW20256   0.516   8.622   6.509  0.4252 -0.3376  0.0894
 5660SOL    HW120257   0.499   8.678   6.433  0.3648 -0.6058 -0.0957
 5660SOL    HW220258   0.538   8.537   6.471  2.1428 -0.0295  0.3140
 5661SOL     OW20259   1.360  10.256   2.471  0.2869 -0.5648 -0.1467
 5661SOL    HW120260   1.404  10.331   2.511 -0.0112 -0.8401  0.7303
 5661SOL    HW220261   1.427  10.189   2.463  0.6003 -0.1584 -1.1071
 5662SOL     OW20262  10.209   9.096  10.765  0.2556 -0.8966  0.4011
 5662SOL    HW120263  10.162   9.046  10.831 -1.6151  0.4187  0.1551
 5662SOL    HW220264  10.143   9.114  10.697  1.0028  1.2444  0.1525
 5663SOL     OW20265   6.969   7.501   4.880  0.4633 -0.3435  0.0045
 5663SOL    HW120266   6.924   7.419   4.855  0.5499  0.1073 -1.8012
 5663SOL    HW220267   6.981   7.494   4.975  0.4432 -2.4116 -0.0959
 5664SOL     OW20268   0.206   9.928   6.844 -0.5161 -0.0655  0.0593
 5664SOL    HW120269   0.277   9.864   6.839  0.9727  1.5897 -1.4605
 5664SOL    HW220270   0.246  10.006   6.883 -1.1752  1.2066 -1.6524
 5665SOL     OW20271   2.879   9.410   8.266  0.3577 -0.3658  0.4168
 5665SOL    HW120272   2.868   9.475   8.335 -0.4995 -0.7567  0.6630
 5665SOL    HW220273   2.876   9.460   8.185 -1.6453 -0.2146  0.5383
 5666SOL     OW20274   0.052   7.159   4.338 -0.0624  0.0463  0.0745
 5666SOL    HW120275   0.056   7.188   4.429 -0.8453  0.8270 -0.1228
 5666SOL    HW220276  -0.042   7.161   4.317 -0.1217 -2.1259 -0.1312
 5667SOL     OW20277   1.431   2.011   2.243  0.6988 -0.0084 -0.6065
 5667SOL    HW120278   1.477   1.934   2.276  0.5506 -0.6179 -1.8044
 5667SOL    HW220279   1.409   1.990   2.153 -1.9592  0.2575 -0.1020
 5668SOL     OW20280   1.119   1.264   7.116 -0.1806  0.9890  0.2225
 5668SOL    HW120281   1.065   1.275   7.194 -1.4839  0.2123 -0.5381
 5668SOL    HW220282   1.142   1.353   7.090  0.7298  1.2389  1.7726
 5669SOL     OW20283   2.721   2.071   4.942  0.0782  0.0548 -0.3769
 5669SOL    HW120284   2.705   2.116   4.859 -2.7363 -0.8266 -0.4231
 5669SOL    HW220285   2.762   1.988   4.917  0.6564  0.4326 -0.7179
 5670SOL     OW20286   8.757   6.424   1.997  0.3996  0.1399 -0.0117
 5670SOL    HW120287   8.696   6.487   2.036  2.5868  0.6754  2.8560
 5670SOL    HW220288   8.844   6.460   2.013  1.7530 -3.2243  1.2095
 5671SOL     OW20289   3.659   6.105   4.476 -0.1095  0.3342 -0.1760
 5671SOL    HW120290   3.695   6.071   4.558 -0.2667  0.1803 -0.1718
 5671SOL    HW220291   3.719   6.175   4.451 -0.3411  0.7173  0.3332
 5672SOL     OW20292   9.342  11.132   5.532 -0.1222  0.3117  0.2325
 5672SOL    HW120293   9.267  11.154   5.587  0.4260 -0.6715  1.4082
 5672SOL    HW220294   9.413  11.111   5.594  0.7778  0.0616 -0.8426
 5673SOL     OW20295   3.798   8.803  10.338 -0.6034  0.3612  0.1837
 5673SOL    HW120296   3.764   8.736  10.279 -0.1801  0.8547 -0.6404
 5673SOL    HW220297   3.893   8.792  10.334 -0.6049 -1.0066  2.4606
 5674SOL     OW20298   4.217   6.901   7.229  0.2355  0.5696 -0.7679
 5674SOL    HW120299   4.125   6.920   7.211 -0.0216 -0.5581 -0.7010
 5674SOL    HW220300   4.260   6.910   7.144  0.1775  1.6199 -0.7056
 5675SOL     OW20301   5.244   4.985   9.506  0.4704  0.0708  0.4680
 5675SOL    HW120302   5.247   4.986   9.601 -1.8062 -0.4330  0.5966
 5675SOL    HW220303   5.229   4.893   9.483 -1.3597  0.4999 -0.2262
 5676SOL     OW20304   4.683   4.978  10.375 -0.1622 -0.6415  0.4308
 5676SOL    HW120305   4.774   5.005  10.385 -0.0929 -0.3796 -0.6981
 5676SOL    HW220306   4.642   5.048  10.324 -0.7340 -1.2333  0.0504
 5677SOL     OW20307   5.461   7.782   6.829 -0.9265 -0.1067 -0.4335
 5677SOL    HW120308   5.508   7.769   6.911 -0.6950  1.2376 -0.3371
 5677SOL    HW220309   5.394   7.713   6.829 -2.8682  1.5752  2.3197
 5678SOL     OW20310   4.862   6.258   3.240 -0.8618  0.4993 -0.2147
 5678SOL    HW120311   4.821   6.337   3.204 -1.8640  1.1648  2.1777
 5678SOL    HW220312   4.829   6.187   3.186 -2.5249  1.4157 -0.4653
 5679SOL     OW20313   8.470   5.279  10.341  0.7311  0.0990 -0.1634
 5679SOL    HW120314   8.525   5.275  10.263 -0.2287 -0.4662 -0.8321
 5679SOL    HW220315   8.447   5.372  10.349 -1.6198 -0.1887 -2.3599
 5680SOL     OW20316   5.864   3.887   6.008  0.4925 -1.1151  0.4016
 5680SOL    HW120317   5.938   3.898   5.948 -0.5555 -2.4831 -1.2371
 5680SOL    HW220318   5.828   3.975   6.017 -0.4057 -1.0790 -2.5162
 5681SOL     OW20319   1.623   8.404  11.202 -0.1434 -0.4789 -0.1603
 5681SOL    HW120320   1.686   8.336  11.225 -0.2091 -0.9516 -1.3185
 5681SOL    HW220321   1.560   8.360  11.145 -1.0588  0.1910  0.2908
 5682SOL     OW20322   9.058   4.178   1.242 -0.5326 -0.1924 -0.0221
 5682SOL    HW120323   9.042   4.160   1.335  0.3668 -1.5663 -0.0934
 5682SOL    HW220324   8.987   4.132   1.197  0.5294 -1.8415 -0.1018
 5683SOL     OW20325   1.961   6.479  10.643  0.4492  0.3223  0.6188
 5683SOL    HW120326   1.982   6.514  10.557  0.1087  0.1296  0.4562
 5683SOL    HW220327   1.881   6.428  10.630  0.6217 -0.0489  0.9625
 5684SOL     OW20328   6.888   9.312   5.455 -0.0204 -0.3682  0.3522
 5684SOL    HW120329   6.878   9.271   5.369 -0.3093  2.3220 -0.9943
 5684SOL    HW220330   6.975   9.353   5.452 -0.6574  1.0507  0.7279
 5685SOL     OW20331   2.753   1.961   1.212 -0.1409 -0.2686  0.0490
 5685SOL    HW120332   2.847   1.947   1.217 -0.0667 -0.1991 -0.9861
 5685SOL    HW220333   2.718   1.915   1.289  0.7320 -0.2718  0.4548
 5686SOL     OW20334   7.721   4.231   3.668 -0.0882 -0.0260 -0.3125
 5686SOL    HW120335   7.642   4.225   3.722  0.4830  1.1719  0.6884
 5686SOL    HW220336   7.745   4.140   3.652 -1.7814 -0.4306 -0.8317
 5687SOL     OW20337   9.528   6.939   4.002 -0.4251 -0.2454 -0.1592
 5687SOL    HW120338   9.524   6.879   4.077 -1.3780  1.1734  0.9894
 5687SOL    HW220339   9.608   6.914   3.956  0.4314 -0.8793  1.5814
 5688SOL     OW20340   2.598   8.640   0.992 -0.0205 -0.3799 -0.4868
 5688SOL    HW120341   2.687   8.656   1.023 -0.7854  0.1600  1.5643
 5688SOL    HW220342   2.577   8.717   0.939 -0.0468  0.5781  0.8854
 5689SOL     OW20343   5.852   7.772   8.529  0.1204  0.2332  0.2554
 5689SOL    HW120344   5.927   7.828   8.513  0.8495 -1.1323 -1.4245
 5689SOL    HW220345   5.889   7.690   8.562 -0.7473  0.0351  0.7718
 5690SOL     OW20346   7.430   8.429   9.625  0.0238  0.0217 -0.0397
 5690SOL    HW120347   7.355   8.420   9.685 -0.2976  1.5567 -0.1821
 5690SOL    HW220348   7.506   8.414   9.680 -0.3119  0.3834  0.5357
 5691SOL     OW20349   3.065  10.386   1.399  0.5874  0.1312 -0.5468
 5691SOL    HW120350   3.072  10.304   1.350 -1.6516 -0.6631  0.2979
 5691SOL    HW220351   3.110  10.368   1.482 -0.1308 -0.3841 -0.2523
 5692SOL     OW20352   2.125  10.732  10.231  0.7274  0.0960 -0.0697
 5692SOL    HW120353   2.031  10.745  10.217  0.5681 -1.6642 -0.9299
 5692SOL    HW220354   2.145  10.782  10.310 -1.2209 -0.6167  0.9417
 5693SOL     OW20355  11.316  11.389   9.230  0.4046  0.0412 -0.5620
 5693SOL    HW120356  11.406  11.415   9.250  1.0533 -0.7599 -2.2028
 5693SOL    HW220357  11.267  11.471   9.230  1.6525  0.8462 -1.9974
 5694SOL     OW20358   0.520  10.087   9.509 -0.0223  0.3261 -0.5794
 5694SOL    HW120359   0.479  10.167   9.540  0.8657  0.0528  1.4809
 5694SOL    HW220360   0.454  10.019   9.523  0.0403  0.3544 -0.1257
 5695SOL     OW20361   2.075   9.607   3.545 -0.1817  0.4102  0.1877
 5695SOL    HW120362   2.038   9.523   3.518 -0.8768  0.8691 -0.3328
 5695SOL    HW220363   2.142   9.584   3.609 -0.9693 -0.4854  0.7235
 5696SOL     OW20364   2.759   4.960   2.180 -0.2833 -0.0356 -0.5815
 5696SOL    HW120365   2.685   4.903   2.201 -1.1910  0.8978 -1.1589
 5696SOL    HW220366   2.795   4.924   2.099  1.1864 -1.6905  0.7353
 5697SOL     OW20367   9.384   5.123   5.958 -0.3792  0.4671  0.6673
 5697SOL    HW120368   9.356   5.044   5.912  0.6970  0.9349 -0.9126
 5697SOL    HW220369   9.367   5.105   6.050 -2.2566 -0.6979  0.1551
 5698SOL     OW20370   5.802   9.592   3.402  0.0125 -0.4112  0.6494
 5698SOL    HW120371   5.716   9.635   3.407 -0.3180 -0.9524 -0.1323
 5698SOL    HW220372   5.821   9.565   3.491 -0.6552 -0.3228  0.8262
 5699SOL     OW20373   5.376   0.162   4.479 -0.1622  0.9941  0.4211
 5699SOL    HW120374   5.389   0.256   4.489 -2.6028  1.4963 -0.4749
 5699SOL    HW220375   5.343   0.151   4.390 -2.1507 -0.3886  1.2525
 5700SOL     OW20376  10.095   5.367   7.261 -0.3175 -0.4816  0.0279
 5700SOL    HW120377  10.157   5.428   7.222  0.2058  0.0154  1.5946
 5700SOL    HW220378  10.135   5.281   7.249  0.6329 -0.1761  0.9285
 5701SOL     OW20379   4.465   3.402   3.687 -0.2422  0.7394  0.0808
 5701SOL    HW120380   4.409   3.361   3.753 -1.1172 -0.1834 -1.1706
 5701SOL    HW220381   4.522   3.332   3.657  1.9189  1.7545  1.5947
 5702SOL     OW20382   9.128   5.473   6.833  0.0462 -0.2378 -0.3340
 5702SOL    HW120383   9.188   5.401   6.815 -0.3683 -0.8394  0.6115
 5702SOL    HW220384   9.184   5.543   6.867  0.1929 -0.8647  0.7383
 5703SOL     OW20385  10.280   0.463   6.610  0.4331  0.0008  0.5363
 5703SOL    HW120386  10.292   0.544   6.561  2.0142  0.6383  1.8615
 5703SOL    HW220387  10.187   0.443   6.603  0.3069  1.0477 -1.1499
 5704SOL     OW20388   8.803   4.943  10.230 -0.1221  0.4719 -0.3240
 5704SOL    HW120389   8.746   4.891  10.174 -1.4891  0.2832  1.1645
 5704SOL    HW220390   8.853   4.879  10.280  0.6466  0.6364 -0.8591
 5705SOL     OW20391   6.901   8.796   2.254  0.3821  0.2975 -0.6648
 5705SOL    HW120392   6.952   8.876   2.260  0.3638  0.2579  0.1154
 5705SOL    HW220393   6.942   8.736   2.316  0.0310 -0.0945 -0.8038
 5706SOL     OW20394   7.761   9.839   3.025  0.5466  0.3535  0.2374
 5706SOL    HW120395   7.722   9.881   2.948 -0.2124 -2.9954 -1.4005
 5706SOL    HW220396   7.688   9.829   3.086  0.5157  0.5210  0.2292
 5707SOL     OW20397   6.382   7.973   4.661  0.4025  0.3225  0.2689
 5707SOL    HW120398   6.387   7.886   4.701 -0.0729  0.9340  1.7207
 5707SOL    HW220399   6.335   8.026   4.725  2.5074  2.1981  0.3627
 5708SOL     OW20400  11.312  10.713   9.336 -0.1678 -0.1584  0.2766
 5708SOL    HW120401  11.271  10.775   9.396 -0.4393  0.3341 -0.4010
 5708SOL    HW220402  11.369  10.766   9.282  0.5027 -0.6800  0.4610
 5709SOL     OW20403  10.360   8.716   1.601 -0.4565  0.5596  0.1037
 5709SOL    HW120404  10.417   8.747   1.530  0.6366 -2.0001 -0.2341
 5709SOL    HW220405  10.405   8.743   1.681  1.1446 -1.1155 -0.1662
 5710SOL     OW20406   9.798   9.194  10.776 -0.1317  0.2945 -0.8433
 5710SOL    HW120407   9.878   9.234  10.743  0.5234 -0.6361 -0.4351
 5710SOL    HW220408   9.804   9.102  10.749 -1.3584  0.3422 -1.3353
 5711SOL     OW20409   1.563   0.470   2.247  0.2489 -0.7120 -0.0142
 5711SOL    HW120410   1.487   0.424   2.213  0.3641 -1.8655  1.1943
 5711SOL    HW220411   1.635   0.444   2.189 -0.0084 -0.7048 -0.3385
 5712SOL     OW20412   5.441   7.009  10.185 -0.2146  0.3242  0.4382
 5712SOL    HW120413   5.520   6.956  10.180 -1.4102 -1.7814  2.0273
 5712SOL    HW220414   5.403   6.988  10.270 -1.7987  2.2869  0.2952
 5713SOL     OW20415   6.739   9.544   1.323 -0.4326 -0.0147 -0.5364
 5713SOL    HW120416   6.679   9.609   1.359 -1.4659 -0.2568 -1.7505
 5713SOL    HW220417   6.683   9.469   1.302  0.7551 -1.4429  1.0693
 5714SOL     OW20418   1.524   1.417   6.400 -0.1449  0.7929 -0.5159
 5714SOL    HW120419   1.524   1.488   6.464 -1.3598  0.0724  0.3308
 5714SOL    HW220420   1.463   1.446   6.332 -1.7331  0.0030  0.5261
 5715SOL     OW20421   1.014   2.717   0.076 -0.4910 -0.5252 -0.3925
 5715SOL    HW120422   0.958   2.711  -0.002  0.1406  1.2218 -1.0355
 5715SOL    HW220423   1.007   2.808   0.103  1.3667 -0.4776  0.0278
 5716SOL     OW20424   6.444   1.587  10.905  0.2219 -0.2965  0.3738
 5716SOL    HW120425   6.376   1.557  10.966 -1.0069  1.4767 -0.0593
 5716SOL    HW220426   6.407   1.665  10.865  2.0007 -0.0587 -0.8882
 5717SOL     OW20427   4.206   2.352   2.498 -0.0920  0.0433 -0.4469
 5717SOL    HW120428   4.258   2.415   2.448  0.2676 -1.4812 -2.1068
 5717SOL    HW220429   4.122   2.397   2.512  0.9717  1.7987  0.5965
 5718SOL     OW20430  10.136   2.819   6.406 -0.7382 -0.5805 -0.0549
 5718SOL    HW120431  10.211   2.767   6.435  0.4150  0.5915 -0.8237
 5718SOL    HW220432  10.173   2.883   6.344 -2.5337 -0.6353 -1.2690
 5719SOL     OW20433   2.941   6.308   9.831 -0.4609 -0.7677  0.4002
 5719SOL    HW120434   2.845   6.306   9.830 -0.5747 -0.0169  2.7193
 5719SOL    HW220435   2.967   6.218   9.851 -0.6115 -1.1173 -0.8713
 5720SOL     OW20436  11.176  10.948   8.921 -0.1075 -0.0249  0.3647
 5720SOL    HW120437  11.132  11.023   8.962 -0.7423  0.7824 -1.6326
 5720SOL    HW220438  11.104  10.898   8.881  0.5404 -0.1628 -0.6635
 5721SOL     OW20439   4.178   6.370   6.767  0.1138  0.1438  0.1433
 5721SOL    HW120440   4.186   6.414   6.682  0.5714  0.0537  0.1380
 5721SOL    HW220441   4.159   6.279   6.745 -1.8643  0.5100  0.1603
 5722SOL     OW20442   4.288   0.796   4.688  0.5503 -0.2433 -0.2455
 5722SOL    HW120443   4.268   0.792   4.781  0.7480  0.3060 -0.1744
 5722SOL    HW220444   4.382   0.777   4.683  0.2107 -2.0714 -0.5079
 5723SOL     OW20445   7.338  10.103   0.274 -0.1226  0.1676  0.1563
 5723SOL    HW120446   7.342  10.175   0.212  0.8825 -0.1277 -0.1418
 5723SOL    HW220447   7.328  10.144   0.359 -2.0254  0.5620 -0.2275
 5724SOL     OW20448   4.088   6.063   0.610  0.0990  0.1889  0.7311
 5724SOL    HW120449   4.060   6.097   0.526 -0.2581  3.0084  1.8823
 5724SOL    HW220450   4.023   6.095   0.672  0.8580 -1.0147  2.2294
 5725SOL     OW20451   1.593   5.199  11.044  0.1627 -0.3069  0.5436
 5725SOL    HW120452   1.634   5.156  11.119 -0.8997  0.0812  1.3751
 5725SOL    HW220453   1.543   5.130  11.002 -2.5519  0.2322  2.5904
 5726SOL     OW20454   2.863   5.882   0.016 -0.6279  0.2220  0.0281
 5726SOL    HW120455   2.907   5.834  -0.054  0.9084  1.6095 -0.0262
 5726SOL    HW220456   2.791   5.926  -0.028 -0.4727  0.0343 -0.4273
 5727SOL     OW20457  10.920   4.471  10.574  0.0986 -0.3181  0.4071
 5727SOL    HW120458  10.965   4.504  10.496 -0.5846  0.2769  0.2503
 5727SOL    HW220459  10.985   4.477  10.644  0.1680  0.8672  0.2575
 5728SOL     OW20460   3.146   7.512   1.890 -0.1015 -0.0066  0.0773
 5728SOL    HW120461   3.215   7.446   1.882 -1.7687 -2.2047  2.3104
 5728SOL    HW220462   3.065   7.462   1.888 -1.4229  1.7914  2.9007
 5729SOL     OW20463   4.398   3.297   7.816 -0.3896  0.0321 -0.2991
 5729SOL    HW120464   4.324   3.282   7.758  0.3268  0.6831 -1.4111
 5729SOL    HW220465   4.381   3.384   7.854  0.3971  0.7552 -1.5283
 5730SOL     OW20466   1.895   7.874   3.893 -0.2366  0.2109 -0.3111
 5730SOL    HW120467   1.981   7.833   3.900 -1.1709 -2.3331 -2.3099
 5730SOL    HW220468   1.833   7.801   3.885 -2.3163  1.9580 -1.4241
 5731SOL     OW20469   3.100   5.729   1.842  0.4854  0.2806  0.2084
 5731SOL    HW120470   3.192   5.707   1.858  0.1635 -1.3871 -0.0871
 5731SOL    HW220471   3.103   5.790   1.768  1.3348  0.0618  0.0478
 5732SOL     OW20472   2.160   6.013   5.074 -0.5640 -0.0040  0.3636
 5732SOL    HW120473   2.132   6.079   5.011 -1.5880 -1.0619 -0.3381
 5732SOL    HW220474   2.173   6.062   5.156  0.4613  1.3307 -0.5635
 5733SOL     OW20475   9.326   7.590  11.344 -0.2742  0.5425  0.4339
 5733SOL    HW120476   9.249   7.628  11.301 -0.3741  0.9546  0.9659
 5733SOL    HW220477   9.302   7.499  11.359  0.1685  0.0884 -1.3431
 5734SOL     OW20478   9.789   5.286   2.212  0.0717 -0.1088 -0.0847
 5734SOL    HW120479   9.861   5.223   2.205  0.2568  0.1680 -0.7410
 5734SOL    HW220480   9.814   5.342   2.285  0.7482  0.2574 -0.5803
 5735SOL     OW20481   9.934   3.204   6.855 -0.0272  0.2964  0.0387
 5735SOL    HW120482  10.017   3.161   6.873 -0.3113 -0.7645 -1.0735
 5735SOL    HW220483   9.957   3.284   6.809  0.3406 -0.5731 -1.3237
 5736SOL     OW20484   3.488   8.381   2.207  0.3105 -0.2201  0.0506
 5736SOL    HW120485   3.575   8.407   2.176  0.7908 -1.3038  0.4421
 5736SOL    HW220486   3.497   8.375   2.302 -0.8482  1.9418  0.3544
 5737SOL     OW20487   2.822   9.327   0.575 -0.0558  0.0308 -0.1494
 5737SOL    HW120488   2.763   9.258   0.606  1.4417 -1.4201 -0.3795
 5737SOL    HW220489   2.806   9.400   0.634 -0.2499 -1.2173  1.4093
 5738SOL     OW20490   8.040   4.987   5.614  0.0216  0.0316  0.2574
 5738SOL    HW120491   8.038   4.925   5.541 -0.0143 -1.3840  1.4263
 5738SOL    HW220492   8.105   4.951   5.674 -0.2061  0.9893  1.1011
 5739SOL     OW20493  10.793   0.212  11.263  0.2197 -0.1850 -0.3604
 5739SOL    HW120494  10.773   0.233  11.172 -1.0083 -0.6930 -0.2351
 5739SOL    HW220495  10.880   0.172  11.261  0.8715  1.2335 -1.0955
 5740SOL     OW20496   5.661   8.698   7.940  0.5598  0.3423  0.0677
 5740SOL    HW120497   5.642   8.609   7.970 -0.9636  1.3003  2.2349
 5740SOL    HW220498   5.577   8.729   7.906  0.7716  1.3016  0.3978
 5741SOL     OW20499   5.210  10.576   4.368 -0.5052 -0.0092  0.2593
 5741SOL    HW120500   5.185  10.607   4.455 -0.3521 -0.2404  0.3884
 5741SOL    HW220501   5.287  10.520   4.384  0.6119  1.3323 -0.2027
 5742SOL     OW20502   0.072   2.524   2.980 -0.2662 -0.5691 -0.3183
 5742SOL    HW120503   0.043   2.547   3.068  0.1428  0.1709 -0.3605
 5742SOL    HW220504   0.020   2.581   2.922 -0.2411 -0.7557 -0.5256
 5743SOL     OW20505   8.626   5.117   4.149 -0.0262  0.4571  0.5385
 5743SOL    HW120506   8.564   5.051   4.118  1.0047 -0.1743 -0.2345
 5743SOL    HW220507   8.628   5.105   4.244 -0.1953 -0.3232  0.4517
 5744SOL     OW20508   4.951  11.142   5.838 -0.2529  0.5287  0.8881
 5744SOL    HW120509   4.910  11.121   5.754  0.4826  1.9412  0.1383
 5744SOL    HW220510   4.925  11.070   5.896 -2.4088  0.5247  0.0149
 5745SOL     OW20511  11.254  10.861   8.509 -0.6466  0.1853 -0.0874
 5745SOL    HW120512  11.197  10.913   8.452 -0.8177 -0.3626 -0.4242
 5745SOL    HW220513  11.300  10.926   8.563 -0.9413  0.6763 -0.4215
 5746SOL     OW20514   6.955   8.141   7.910 -0.1247 -0.2936 -0.3007
 5746SOL    HW120515   6.869   8.183   7.912  0.3974  0.7912  0.4173
 5746SOL    HW220516   6.950   8.081   7.836 -0.9694  0.9132 -1.2848
 5747SOL     OW20517   2.414   6.937   8.046  0.3862  0.4467 -0.1157
 5747SOL    HW120518   2.488   6.877   8.054 -0.5691 -0.6267  1.1755
 5747SOL    HW220519   2.347   6.886   7.999 -0.6610  0.2426  1.5402
 5748SOL     OW20520  11.382   3.390   1.002 -0.3291 -0.4448 -0.0348
 5748SOL    HW120521  11.401   3.300   1.025 -0.4065 -0.1085  1.4042
 5748SOL    HW220522  11.286   3.395   1.000 -0.3277 -0.3169  0.1989
 5749SOL     OW20523   0.125   1.735   6.031 -0.1245 -0.4910  0.2629
 5749SOL    HW120524   0.189   1.708   5.965  1.0046  2.8157 -0.2012
 5749SOL    HW220525   0.162   1.703   6.113  0.1075 -1.9245 -0.3736
 5750SOL     OW20526   0.306   7.007   3.169  0.0452  0.5340  0.6978
 5750SOL    HW120527   0.341   7.085   3.211  1.3512  0.7949 -0.7370
 5750SOL    HW220528   0.384   6.958   3.141 -0.6397  0.9859 -2.4127
 5751SOL     OW20529   6.334   5.666   0.196  0.0276  0.5248 -0.5067
 5751SOL    HW120530   6.334   5.762   0.189  0.4896  0.5970  0.4163
 5751SOL    HW220531   6.349   5.649   0.289  1.6176 -0.4585 -0.9110
 5752SOL     OW20532   8.435   0.018   6.819  0.2882 -0.3891  0.3106
 5752SOL    HW120533   8.403  -0.020   6.736 -0.5242 -1.0883  0.9257
 5752SOL    HW220534   8.513  -0.034   6.840 -0.3305 -1.1825  0.7078
 5753SOL     OW20535   9.442  10.597   8.062  0.9310 -0.5052  0.1705
 5753SOL    HW120536   9.491  10.519   8.088  0.4291 -0.2471  2.0604
 5753SOL    HW220537   9.351  10.574   8.079  0.1451 -1.3074 -4.1339
 5754SOL     OW20538   6.348   7.654   7.162 -0.0671  0.0223  0.0369
 5754SOL    HW120539   6.321   7.562   7.159 -1.8001  0.5217 -0.6116
 5754SOL    HW220540   6.268   7.703   7.181  0.7013  1.4540 -0.2402
 5755SOL     OW20541  10.024   4.597   3.688  0.0529 -0.0254 -0.6491
 5755SOL    HW120542  10.042   4.625   3.598 -0.0190  0.6354 -0.4645
 5755SOL    HW220543  10.028   4.678   3.739 -0.9978 -0.2199 -0.2310
 5756SOL     OW20544   6.208   6.035   2.353 -0.4642 -0.1352 -0.3279
 5756SOL    HW120545   6.243   6.097   2.289 -0.0618  0.3464  0.3374
 5756SOL    HW220546   6.243   6.066   2.437 -0.2944 -1.2434  0.0241
 5757SOL     OW20547   8.858   8.490   5.236  0.4147  0.0019 -0.4778
 5757SOL    HW120548   8.836   8.418   5.177  0.0849 -0.5576  0.3118
 5757SOL    HW220549   8.925   8.540   5.189 -1.0247  0.5581 -2.0626
 5758SOL     OW20550   8.424   6.167   4.320  0.4417 -0.8798  0.0774
 5758SOL    HW120551   8.394   6.250   4.281 -0.8331 -1.0038  0.7318
 5758SOL    HW220552   8.486   6.132   4.256  0.7224  0.3941 -0.3852
 5759SOL     OW20553   5.186   3.028   0.835 -0.5248  0.0913  0.4071
 5759SOL    HW120554   5.109   3.004   0.783  0.0710 -0.1631 -0.3870
 5759SOL    HW220555   5.206   2.950   0.887 -1.4818  0.5487  1.4953
 5760SOL     OW20556   7.662   4.281   4.305  0.3191  0.0515  0.0601
 5760SOL    HW120557   7.698   4.237   4.228 -1.4847 -0.3291 -0.6043
 5760SOL    HW220558   7.625   4.363   4.270  0.7838  0.5660  0.7650
 5761SOL     OW20559   6.130   1.039   9.348  0.2913  0.0149  0.3722
 5761SOL    HW120560   6.061   0.973   9.360 -0.1513  0.0869 -1.4204
 5761SOL    HW220561   6.091   1.103   9.288  0.9995  1.5034  1.4312
 5762SOL     OW20562   6.640   8.441   5.678 -0.2181  0.0765  0.8219
 5762SOL    HW120563   6.725   8.478   5.703 -0.6923  3.5346 -1.8092
 5762SOL    HW220564   6.576   8.495   5.723 -1.0297 -0.3916  0.2512
 5763SOL     OW20565   1.905   0.643  10.472  0.1056  0.5616 -0.0868
 5763SOL    HW120566   1.997   0.636  10.494  0.1269  2.1803  0.4419
 5763SOL    HW220567   1.870   0.555  10.488  1.2270  0.3178  1.2134
 5764SOL     OW20568   4.285   3.093   6.618  0.1238 -0.8109 -0.6612
 5764SOL    HW120569   4.346   3.103   6.545  0.7456 -0.7436 -0.1375
 5764SOL    HW220570   4.336   3.050   6.687 -0.0622  0.3625  0.2268
 5765SOL     OW20571   3.230   0.819   0.154 -0.3596 -0.3443 -0.0783
 5765SOL    HW120572   3.298   0.883   0.133 -1.8394  0.8064 -1.5773
 5765SOL    HW220573   3.228   0.760   0.079 -1.0152 -0.3813 -0.0359
 5766SOL     OW20574   9.131   7.363   2.770 -0.6874  0.4771 -0.0319
 5766SOL    HW120575   9.130   7.429   2.701 -0.5423  0.7092  0.1893
 5766SOL    HW220576   9.221   7.364   2.803 -0.7885  0.4525  0.2445
 5767SOL     OW20577   8.431   9.893  10.230 -0.5298 -0.2695  0.7382
 5767SOL    HW120578   8.500   9.866  10.289 -0.9772 -0.5903  1.1190
 5767SOL    HW220579   8.448   9.845  10.149 -1.0034 -1.2967  1.2257
 5768SOL     OW20580   8.910   6.250   8.154 -0.3925 -0.2403  0.2964
 5768SOL    HW120581   8.877   6.185   8.216 -1.0269  0.5856  0.8415
 5768SOL    HW220582   8.832   6.298   8.126  0.3299  2.4354  2.3704
 5769SOL     OW20583   2.769   8.557   2.399 -0.3662 -0.1740  0.4238
 5769SOL    HW120584   2.780   8.603   2.482 -1.1603 -0.1630  0.5360
 5769SOL    HW220585   2.818   8.475   2.410 -0.0774  0.0386  0.7256
 5770SOL     OW20586  10.182   1.836   4.809  0.2260 -0.0053  0.0135
 5770SOL    HW120587  10.114   1.903   4.801 -1.9185 -1.9649  0.6739
 5770SOL    HW220588  10.231   1.861   4.887 -1.1601  0.3395  0.8206
 5771SOL     OW20589   3.855   3.392   9.535  0.4906  0.1506 -0.5553
 5771SOL    HW120590   3.771   3.383   9.490  0.4761  1.0371 -0.7358
 5771SOL    HW220591   3.833   3.391   9.628  0.2948  0.2128 -0.5997
 5772SOL     OW20592   0.594   9.756   4.654  0.3563 -0.5700  0.3516
 5772SOL    HW120593   0.539   9.687   4.692 -0.7355 -0.4729 -0.9885
 5772SOL    HW220594   0.660   9.708   4.603  0.5114 -0.6531  0.6281
 5773SOL     OW20595   3.660  11.143   1.474 -0.1557  0.2280 -0.1293
 5773SOL    HW120596   3.666  11.205   1.546 -0.8420  1.5717 -1.1986
 5773SOL    HW220597   3.639  11.196   1.398  1.6651 -0.9804 -1.5791
 5774SOL     OW20598   2.697   3.931   3.894 -0.2625  0.6594  0.3004
 5774SOL    HW120599   2.658   3.878   3.964  1.8183 -3.0570 -1.0165
 5774SOL    HW220600   2.635   3.924   3.821  0.4680 -1.0988 -0.2188
 5775SOL     OW20601   5.004   6.289   6.251  0.2819  0.2523 -0.2045
 5775SOL    HW120602   4.996   6.377   6.214 -1.8783 -0.2763 -1.1646
 5775SOL    HW220603   4.966   6.232   6.184 -0.4475 -1.1421  1.3277
 5776SOL     OW20604   0.550   0.743   3.928  0.5151  0.2291  0.0549
 5776SOL    HW120605   0.482   0.690   3.888  1.4473  0.4600 -1.9636
 5776SOL    HW220606   0.527   0.834   3.907  1.6439  0.2855 -1.0551
 5777SOL     OW20607   3.856   2.087   1.186 -0.5422  0.1006 -0.3475
 5777SOL    HW120608   3.791   2.047   1.128 -0.9878 -0.9403  0.8142
 5777SOL    HW220609   3.870   2.021   1.255  0.6787  0.9013  0.1963
 5778SOL     OW20610   4.263   8.594   3.589 -0.2273 -0.1005  0.1669
 5778SOL    HW120611   4.304   8.645   3.520 -0.1224 -0.3475  0.0450
 5778SOL    HW220612   4.280   8.503   3.565  0.2746 -0.1792  0.7949
 5779SOL     OW20613   7.410   5.536   4.212  0.0160  0.3948 -0.2692
 5779SOL    HW120614   7.474   5.507   4.147  0.6318  0.7152  0.1843
 5779SOL    HW220615   7.428   5.629   4.225  0.2745  0.2182  0.7672
 5780SOL     OW20616  10.374   9.490   8.189 -0.2792 -0.3911  0.3262
 5780SOL    HW120617  10.393   9.518   8.279  1.0020  0.5787 -0.2070
 5780SOL    HW220618  10.379   9.395   8.192  0.0734 -0.3590  1.2192
 5781SOL     OW20619   5.074   4.385   9.255 -0.5427 -0.3261 -0.6717
 5781SOL    HW120620   5.004   4.443   9.284 -0.4780  0.3442 -1.8051
 5781SOL    HW220621   5.141   4.391   9.324 -0.3904  1.2094 -0.9375
 5782SOL     OW20622   2.454   6.053   2.128 -0.1685  0.4522 -0.4452
 5782SOL    HW120623   2.526   6.039   2.189  0.4330  2.2886 -0.6906
 5782SOL    HW220624   2.388   5.988   2.153  1.1948 -0.6770  0.3420
 5783SOL     OW20625   0.179   1.972   0.934 -0.1989 -0.2355  0.2643
 5783SOL    HW120626   0.118   2.046   0.940 -0.1158 -0.2036  0.7034
 5783SOL    HW220627   0.253   2.006   0.884  0.0228  0.1009  0.8158
 5784SOL     OW20628   5.203  11.138  10.689  0.8995  0.0421  0.4753
 5784SOL    HW120629   5.211  11.162  10.596  0.8789 -0.9006  0.2098
 5784SOL    HW220630   5.243  11.210  10.736  0.7524  0.6242 -0.2602
 5785SOL     OW20631   8.445  10.073   5.356  0.5364 -0.3571 -0.2357
 5785SOL    HW120632   8.437  10.001   5.294 -0.2937 -0.5781  0.1201
 5785SOL    HW220633   8.483  10.033   5.435 -3.5720 -1.3947  1.4791
 5786SOL     OW20634   7.186   7.864   4.017 -0.2565 -0.0899  0.2453
 5786SOL    HW120635   7.223   7.781   3.986 -3.5370 -1.6167  0.0433
 5786SOL    HW220636   7.156   7.908   3.937 -0.0258  0.5368  0.4967
 5787SOL     OW20637   2.856   0.425   7.934  0.0140 -0.0609 -0.4215
 5787SOL    HW120638   2.890   0.346   7.891 -0.6539  0.2312 -1.5210
 5787SOL    HW220639   2.825   0.394   8.019  0.9147 -0.7425 -0.3298
 5788SOL     OW20640   3.682   6.724   4.213 -0.5909 -0.6630  0.0192
 5788SOL    HW120641   3.634   6.761   4.287 -1.4482 -1.3677 -0.1685
 5788SOL    HW220642   3.686   6.630   4.231 -1.0728 -0.8910 -0.9517
 5789SOL     OW20643   2.782   7.675   9.934  0.1055 -0.0170  0.1875
 5789SOL    HW120644   2.845   7.640   9.871 -2.2765  0.4794 -2.6684
 5789SOL    HW220645   2.738   7.597   9.969  1.6533 -0.3162  1.6663
 5790SOL     OW20646   4.272   0.334   6.594 -0.2038 -0.1300 -0.1206
 5790SOL    HW120647   4.313   0.363   6.675 -2.5226 -0.4149  1.2640
 5790SOL    HW220648   4.216   0.407   6.569  0.0721 -0.2704 -1.1685
 5791SOL     OW20649   9.722   5.609   6.330 -0.5668 -0.2629  0.0723
 5791SOL    HW120650   9.775   5.645   6.401 -0.5766 -2.0848  1.0494
 5791SOL    HW220651   9.672   5.684   6.297 -0.1545  0.7315  1.6102
 5792SOL     OW20652   3.968  10.346   2.695 -0.3223 -0.5200 -0.5025
 5792SOL    HW120653   4.050  10.346   2.646  0.0807  0.7157  0.1174
 5792SOL    HW220654   3.900  10.349   2.628  0.1284 -1.4590 -1.0211
 5793SOL     OW20655   1.136  10.097   9.533 -0.0602  0.2267  0.2060
 5793SOL    HW120656   1.092  10.181   9.537 -0.6631 -0.0879  0.2981
 5793SOL    HW220657   1.229  10.118   9.546  0.0017  1.0452 -1.3867
 5794SOL     OW20658  10.507  10.843   1.246 -0.3898 -0.2517 -0.2543
 5794SOL    HW120659  10.420  10.827   1.283  0.2585  1.4269  2.2592
 5794SOL    HW220660  10.499  10.929   1.203  0.4481  0.9972  1.8972
 5795SOL     OW20661   1.844   1.403   7.810 -0.0544  0.2349  0.1515
 5795SOL    HW120662   1.881   1.406   7.898 -1.2103 -0.5082  0.6924
 5795SOL    HW220663   1.798   1.486   7.800 -2.2688 -0.7585  1.3721
 5796SOL     OW20664   2.821   3.266   7.496  0.4125  0.1698 -0.2770
 5796SOL    HW120665   2.767   3.201   7.541  0.3322  1.4549  1.5853
 5796SOL    HW220666   2.845   3.224   7.413 -0.5418 -1.7805  0.3752
 5797SOL     OW20667   2.278   6.196   2.436 -0.4902  0.1070 -0.2172
 5797SOL    HW120668   2.310   6.106   2.450  0.0139  0.1971 -0.7133
 5797SOL    HW220669   2.300   6.242   2.517 -1.2149 -0.3433  0.2379
 5798SOL     OW20670   8.583   4.597   2.401 -0.1815  0.2096  0.3590
 5798SOL    HW120671   8.624   4.682   2.415 -0.0711  0.6824 -2.4030
 5798SOL    HW220672   8.501   4.616   2.356 -0.7757 -1.0804  0.8435
 5799SOL     OW20673   0.178   8.885   1.162  0.0558 -0.1746 -0.0389
 5799SOL    HW120674   0.149   8.880   1.071  1.6761  0.4719 -0.6278
 5799SOL    HW220675   0.248   8.821   1.168 -0.6765 -0.9029  1.0382
 5800SOL     OW20676   2.015   4.866   0.668 -0.3153 -0.4930 -0.0496
 5800SOL    HW120677   2.041   4.801   0.603 -0.2214 -0.0454 -0.4682
 5800SOL    HW220678   1.975   4.936   0.617  1.8886  0.9711  0.0817
 5801SOL     OW20679   7.156  11.380   1.729 -0.1823 -0.3119 -0.0143
 5801SOL    HW120680   7.114  11.322   1.792 -0.0677  0.0884  0.4332
 5801SOL    HW220681   7.248  11.383   1.757  0.0268 -0.7140 -0.6331
 5802SOL     OW20682   6.049   5.472   5.712 -0.0546  0.2863  0.3921
 5802SOL    HW120683   6.128   5.511   5.673 -0.7872  0.8575 -0.5578
 5802SOL    HW220684   6.011   5.420   5.641 -1.4979  1.4722  0.2562
 5803SOL     OW20685   2.679   6.522  10.216  0.4779 -0.1960 -0.1981
 5803SOL    HW120686   2.694   6.560  10.302  1.3663 -1.9827  0.4648
 5803SOL    HW220687   2.766   6.504  10.182  0.1147 -0.0819 -1.2231
 5804SOL     OW20688   5.472  10.856   1.017 -0.5032 -0.3958  0.3384
 5804SOL    HW120689   5.446  10.947   1.005  0.7456 -0.3028 -2.4705
 5804SOL    HW220690   5.430  10.809   0.944 -0.8537 -2.0235  1.5369
 5805SOL     OW20691   7.798   1.251   9.306  0.6164 -0.2266  0.8215
 5805SOL    HW120692   7.710   1.228   9.276  1.6429 -2.0869 -1.0755
 5805SOL    HW220693   7.854   1.234   9.230  2.4482  2.5474  1.4012
 5806SOL     OW20694   7.001   4.106   3.389 -0.0393 -0.1926  0.4316
 5806SOL    HW120695   6.926   4.142   3.436  0.7425 -0.5209  1.9900
 5806SOL    HW220696   6.964   4.039   3.331 -0.9633 -0.2172  1.0438
 5807SOL     OW20697   1.069   6.946   9.622  0.7226  0.1162  0.3647
 5807SOL    HW120698   1.106   6.947   9.711 -0.7104 -1.0394  1.0079
 5807SOL    HW220699   1.141   6.914   9.567  2.1560  2.3631  0.7934
 5808SOL     OW20700   5.230   3.737   1.375  0.7162  0.3054  0.1305
 5808SOL    HW120701   5.318   3.740   1.338  0.7698 -0.6178  0.1583
 5808SOL    HW220702   5.235   3.792   1.454  1.0959  0.7581 -0.2046
 5809SOL     OW20703   7.748   6.696  10.081  0.0560 -0.2597 -0.0365
 5809SOL    HW120704   7.694   6.622  10.112 -1.3052  1.1623  1.1951
 5809SOL    HW220705   7.801   6.659  10.010  0.3245 -2.7098  1.3104
 5810SOL     OW20706   3.497   9.033   7.933  0.3081 -0.6872  0.4905
 5810SOL    HW120707   3.593   9.027   7.928  0.4040  0.5920  0.4166
 5810SOL    HW220708   3.468   9.010   7.844  0.5934 -0.4554  0.3327
 5811SOL     OW20709   8.211   1.084   7.451  0.0869 -0.5388  0.7716
 5811SOL    HW120710   8.209   1.008   7.394  0.3355 -1.0653  1.4588
 5811SOL    HW220711   8.304   1.107   7.458 -0.0772  0.7144 -0.5727
 5812SOL     OW20712   7.509   6.313  10.947  0.0377 -0.2689 -0.4792
 5812SOL    HW120713   7.604   6.327  10.942 -0.0180 -0.2309 -1.9103
 5812SOL    HW220714   7.500   6.219  10.963  0.3077  0.0376  1.8921
 5813SOL     OW20715   9.264   1.416   9.143  0.0146  0.2507 -0.1366
 5813SOL    HW120716   9.284   1.506   9.119  0.2400  0.8030  1.8977
 5813SOL    HW220717   9.314   1.363   9.081  0.7334  1.5341 -0.7012
 5814SOL     OW20718   0.645   4.657  10.882  0.2402  0.4411  0.1534
 5814SOL    HW120719   0.560   4.650  10.839  0.9425  0.3283 -1.2789
 5814SOL    HW220720   0.708   4.667  10.810  1.8559 -3.1150  0.8409
 5815SOL     OW20721   7.728   7.475   1.667 -0.3592  0.4437  0.0589
 5815SOL    HW120722   7.669   7.549   1.682 -1.0117 -0.2045  0.7889
 5815SOL    HW220723   7.743   7.475   1.573 -2.9092 -0.3804 -0.4139
 5816SOL     OW20724   5.615   3.643   7.411 -0.1882  0.1485  0.4505
 5816SOL    HW120725   5.633   3.704   7.339  0.4502 -1.5102 -0.8806
 5816SOL    HW220726   5.605   3.698   7.488 -2.3569  2.1444 -1.1324
 5817SOL     OW20727   6.475   0.425   6.630 -0.3175 -0.1760  0.0595
 5817SOL    HW120728   6.526   0.503   6.652  1.5330 -1.3637  0.1841
 5817SOL    HW220729   6.464   0.379   6.713  0.8098 -1.2765 -0.3638
 5818SOL     OW20730   3.745   2.361   4.868 -0.4759  0.2110 -0.3184
 5818SOL    HW120731   3.695   2.391   4.943  0.8145  2.4541 -0.2828
 5818SOL    HW220732   3.834   2.350   4.900 -0.4835 -1.9395 -0.8204
 5819SOL     OW20733   4.267   2.266   9.318  0.4768  0.1572 -0.3263
 5819SOL    HW120734   4.223   2.243   9.236 -2.2254  1.8038  0.5413
 5819SOL    HW220735   4.283   2.360   9.312  3.1367 -0.1908 -0.1543
 5820SOL     OW20736   7.313  10.133   1.759  0.3370 -0.1861  0.0415
 5820SOL    HW120737   7.405  10.127   1.785  0.0320  0.4369  1.3075
 5820SOL    HW220738   7.264  10.103   1.835 -0.5584  0.9550 -0.0591
 5821SOL     OW20739   8.845   1.052   5.340  0.2569 -0.1796 -0.6907
 5821SOL    HW120740   8.756   1.087   5.350 -0.1210 -0.6218 -2.2851
 5821SOL    HW220741   8.897   1.127   5.311  0.4419  0.0927  0.2954
 5822SOL     OW20742   0.576   2.868  10.406  0.5456  0.2918 -0.3384
 5822SOL    HW120743   0.502   2.812  10.382 -1.4990  2.2613  0.9878
 5822SOL    HW220744   0.595   2.846  10.497  0.1943  1.1817 -0.0314
 5823SOL     OW20745   4.042   7.593   5.878  0.5181 -0.0833  0.2817
 5823SOL    HW120746   3.988   7.671   5.867 -0.4533 -0.9280 -1.2122
 5823SOL    HW220747   4.130   7.627   5.894 -0.1566  1.3038  1.1971
 5824SOL     OW20748   0.411  10.420   5.218 -0.2746 -0.0894  0.0559
 5824SOL    HW120749   0.421  10.389   5.128 -1.9663  2.0002 -0.9442
 5824SOL    HW220750   0.372  10.507   5.209  1.2852  1.0154  2.7597
 5825SOL     OW20751   4.845   3.542   3.093 -0.3474  0.5821 -0.7969
 5825SOL    HW120752   4.789   3.571   3.021 -2.1199  0.2529  0.3936
 5825SOL    HW220753   4.803   3.575   3.172  0.4247 -0.7654  0.2286
 5826SOL     OW20754   1.476  10.360   7.998  0.4253  1.0414 -0.1006
 5826SOL    HW120755   1.532  10.416   8.052 -1.2352  1.6104  1.1386
 5826SOL    HW220756   1.480  10.275   8.042 -0.6626  1.4198  0.7978
 5827SOL     OW20757   6.688   8.405   3.172  0.8505 -0.0895 -0.8978
 5827SOL    HW120758   6.637   8.328   3.145  0.6342 -0.5015  0.5708
 5827SOL    HW220759   6.762   8.406   3.112 -0.2483 -0.1794 -2.3129
 5828SOL     OW20760   3.712   5.341   6.460 -0.4689  0.2770  0.0213
 5828SOL    HW120761   3.678   5.310   6.545 -0.2112  2.6701  1.0799
 5828SOL    HW220762   3.800   5.372   6.480 -0.6484  1.4841 -0.9640
 5829SOL     OW20763   4.562   3.394   2.644 -0.2505  0.5996  0.0307
 5829SOL    HW120764   4.534   3.326   2.583  2.3852  0.0141 -0.6536
 5829SOL    HW220765   4.516   3.473   2.615 -1.1415 -0.2633 -0.9689
 5830SOL     OW20766   0.742   8.619   4.516 -0.1105 -0.6137 -0.3387
 5830SOL    HW120767   0.714   8.704   4.482 -1.4333 -0.3566  1.2603
 5830SOL    HW220768   0.674   8.594   4.579  0.1064 -3.0021 -0.9426
 5831SOL     OW20769   3.292   4.357   6.613  0.5032  0.3455  0.3528
 5831SOL    HW120770   3.377   4.391   6.642  1.2862 -0.1888 -1.1693
 5831SOL    HW220771   3.279   4.397   6.527 -0.9194  0.6030  0.6735
 5832SOL     OW20772   0.570  10.252  11.159 -0.3251 -0.7206 -0.0096
 5832SOL    HW120773   0.558  10.177  11.101 -2.1748 -0.5601  0.0935
 5832SOL    HW220774   0.603  10.322  11.102 -0.5452 -1.0325 -0.5235
 5833SOL     OW20775   7.694   9.147   0.362  0.0524 -0.1629 -0.3709
 5833SOL    HW120776   7.624   9.136   0.426  0.8151  0.5971  0.6174
 5833SOL    HW220777   7.684   9.237   0.331  0.2432 -0.2398 -0.6602
 5834SOL     OW20778   2.604   2.451   0.130  0.0572 -0.2596 -0.2042
 5834SOL    HW120779   2.630   2.505   0.205  2.8193 -1.3623 -0.2412
 5834SOL    HW220780   2.578   2.367   0.169 -2.5662  0.4408 -0.2700
 5835SOL     OW20781   2.705   9.440   9.592 -0.1001 -0.3585 -0.1666
 5835SOL    HW120782   2.692   9.417   9.500  1.3308 -1.0377 -0.2307
 5835SOL    HW220783   2.785   9.492   9.592 -0.1886 -0.2112  0.6756
 5836SOL     OW20784   3.414   2.778   6.965  0.6279  0.7326 -0.3194
 5836SOL    HW120785   3.473   2.790   6.891  0.5180 -2.1971 -1.0067
 5836SOL    HW220786   3.330   2.810   6.934  1.0810  1.7895 -0.5310
 5837SOL     OW20787   7.794   3.283   7.803  0.1992 -0.4027  0.0047
 5837SOL    HW120788   7.785   3.204   7.856 -0.6943 -0.9857 -0.9584
 5837SOL    HW220789   7.703   3.307   7.782  0.5102  0.2199 -0.6531
 5838SOL     OW20790   7.487   6.065   0.064  0.1041 -0.3395 -0.0610
 5838SOL    HW120791   7.511   5.997   0.127  1.9700 -0.1146 -0.4749
 5838SOL    HW220792   7.566   6.118   0.054 -0.2406 -0.1271 -2.2665
 5839SOL     OW20793   4.232  10.123   6.280  0.2776  0.0961  0.2350
 5839SOL    HW120794   4.190  10.186   6.222 -1.1731  0.5397  1.6817
 5839SOL    HW220795   4.236  10.167   6.365 -0.2246 -1.5230  1.1488
 5840SOL     OW20796   7.163   6.058   3.389  0.4487  0.2273  0.3625
 5840SOL    HW120797   7.118   6.124   3.442  0.6278  0.1385  0.6271
 5840SOL    HW220798   7.167   5.981   3.446  0.3048  0.0094  0.0811
 5841SOL     OW20799   5.888   2.108   0.928 -0.6171 -0.4245 -0.4198
 5841SOL    HW120800   5.879   2.153   0.844  0.2249  0.0216 -0.2821
 5841SOL    HW220801   5.964   2.051   0.916 -0.4528 -0.3118  0.0550
 5842SOL     OW20802   6.499   7.937   3.510 -0.0799  0.2760  0.3652
 5842SOL    HW120803   6.534   7.851   3.489  2.8830  1.8319 -1.8090
 5842SOL    HW220804   6.543   7.962   3.591  1.7090  0.9961 -0.7676
 5843SOL     OW20805   4.050   6.819   9.017 -0.5463 -0.0176 -0.7000
 5843SOL    HW120806   4.077   6.727   9.017 -0.4547  0.0069 -1.0480
 5843SOL    HW220807   3.954   6.815   9.022 -0.5074 -0.1119  0.1170
 5844SOL     OW20808   7.495   8.142   0.674 -0.1825 -0.2561  0.0735
 5844SOL    HW120809   7.542   8.180   0.748  0.8022 -1.0133 -0.1331
 5844SOL    HW220810   7.528   8.189   0.598  0.9734 -1.4185 -0.1728
 5845SOL     OW20811   7.046   9.971   7.998  0.0726  0.2459 -0.4327
 5845SOL    HW120812   7.055  10.028   8.075  0.3136  0.0627 -0.3258
 5845SOL    HW220813   6.954   9.944   8.000 -0.2428  1.2361 -0.9133
 5846SOL     OW20814   7.761   3.706   7.618 -0.1872  0.0303 -0.2183
 5846SOL    HW120815   7.696   3.649   7.575 -0.5469 -0.3175  0.7580
 5846SOL    HW220816   7.730   3.714   7.708  1.0998 -0.1101  0.2660
 5847SOL     OW20817   4.434   3.254   8.934  0.3532  0.2361 -0.4518
 5847SOL    HW120818   4.344   3.243   8.965  0.8867  0.3882  1.2443
 5847SOL    HW220819   4.486   3.199   8.991  1.5100  1.2780 -0.4501
 5848SOL     OW20820   1.673   5.343   2.516 -0.0074  0.0437 -0.6107
 5848SOL    HW120821   1.697   5.429   2.481 -1.7574  1.5096  1.4449
 5848SOL    HW220822   1.635   5.297   2.441 -1.0671  1.9566 -1.3477
 5849SOL     OW20823   5.231   3.584   2.504 -0.1783  0.3998 -0.3693
 5849SOL    HW120824   5.274   3.620   2.427 -0.5881  0.0066 -0.7964
 5849SOL    HW220825   5.137   3.598   2.489 -0.2294  0.9081  0.3668
 5850SOL     OW20826  10.368   3.492   1.924  0.8108 -0.0683 -0.3500
 5850SOL    HW120827  10.368   3.586   1.939 -0.4282 -0.2185  0.7533
 5850SOL    HW220828  10.442   3.459   1.974 -1.2808 -0.1425  3.0217
 5851SOL     OW20829   6.446  10.044  11.149  0.4659 -0.5080  1.0367
 5851SOL    HW120830   6.408  10.087  11.072  3.7692 -1.5914 -1.3783
 5851SOL    HW220831   6.510  10.107  11.182 -0.6983 -0.1847  2.8519
 5852SOL     OW20832   6.092   3.650   5.632 -0.0726 -0.1094 -0.0062
 5852SOL    HW120833   6.036   3.727   5.621  1.3134  0.9532  0.1576
 5852SOL    HW220834   6.126   3.633   5.544  1.0045  0.5634  0.2674
 5853SOL     OW20835   5.761  10.564   9.541 -0.6911 -0.4323  0.0000
 5853SOL    HW120836   5.703  10.629   9.581  0.6458  0.5874  0.3762
 5853SOL    HW220837   5.707  10.485   9.534 -2.3017  0.6336 -0.2585
 5854SOL     OW20838  11.273   5.386   0.584  0.1376 -0.5393 -0.0140
 5854SOL    HW120839  11.325   5.427   0.653  0.5294 -2.6869  1.0449
 5854SOL    HW220840  11.183   5.387   0.617  0.2581 -1.1593  0.3482
 5855SOL     OW20841   7.414   3.070   8.436  0.1740  0.0119  0.1131
 5855SOL    HW120842   7.382   2.990   8.396 -0.0665  0.1926 -0.0566
 5855SOL    HW220843   7.498   3.046   8.475  1.4031  0.2709 -2.1959
 5856SOL     OW20844   2.025   1.632  10.647 -0.0496 -0.2959 -0.0590
 5856SOL    HW120845   1.977   1.559  10.607  2.1657 -0.8987 -1.8803
 5856SOL    HW220846   2.063   1.594  10.727 -0.3632 -0.6239 -0.0632
 5857SOL     OW20847   2.029   3.419  10.625 -0.0255 -0.2131  0.4826
 5857SOL    HW120848   2.055   3.374  10.706 -0.7740  1.7356  1.8961
 5857SOL    HW220849   2.080   3.500  10.626  0.0245 -0.2128 -1.0820
 5858SOL     OW20850   7.976   8.991   2.797  0.0080  0.3211  0.0087
 5858SOL    HW120851   7.901   8.975   2.853 -0.0927  0.7003 -0.0144
 5858SOL    HW220852   8.024   8.908   2.796  0.6405  0.6422  1.5992
 5859SOL     OW20853  10.394   8.013   7.391  0.0282 -0.4861 -0.0146
 5859SOL    HW120854  10.352   7.948   7.446  0.5508 -1.9619 -1.2837
 5859SOL    HW220855  10.474   8.036   7.438 -0.8973  0.4262  1.1762
 5860SOL     OW20856   0.143   1.653   1.889  0.2714  0.0752 -0.4924
 5860SOL    HW120857   0.229   1.626   1.858 -0.7956 -1.1702 -2.5639
 5860SOL    HW220858   0.093   1.571   1.897 -1.5984  0.9489 -2.2898
 5861SOL     OW20859   0.818   4.786   6.361 -0.1574  0.3601  0.1192
 5861SOL    HW120860   0.834   4.715   6.299 -2.6202 -0.5848  0.4925
 5861SOL    HW220861   0.732   4.821   6.337 -0.4432  1.0534  1.9692
 5862SOL     OW20862   4.861   9.898   9.299 -0.2615 -0.4611  0.9087
 5862SOL    HW120863   4.951   9.910   9.268 -0.3577 -0.0087  0.7952
 5862SOL    HW220864   4.820   9.842   9.233 -0.3286  0.1039  0.4565
 5863SOL     OW20865   7.583   7.080   5.544 -0.4214  0.1043  0.1033
 5863SOL    HW120866   7.633   7.159   5.568 -0.7910  1.0441 -2.0139
 5863SOL    HW220867   7.649   7.011   5.541  0.2509  0.7192  0.1966
 5864SOL     OW20868   4.464   2.980   6.799  0.4152 -0.3574  0.5635
 5864SOL    HW120869   4.457   2.989   6.894  0.3190 -0.5287  0.5729
 5864SOL    HW220870   4.496   2.891   6.785  1.3201 -0.0283  0.4708
 5865SOL     OW20871   7.313   6.038   9.237  0.2165  0.0315 -0.2454
 5865SOL    HW120872   7.328   6.108   9.173  0.6515  0.9619  0.8296
 5865SOL    HW220873   7.244   6.074   9.294 -0.3901 -0.9118 -0.3669
 5866SOL     OW20874   9.635   7.531   4.607  0.3114 -0.4395 -0.6043
 5866SOL    HW120875   9.591   7.456   4.647 -0.8477  0.3741 -0.2966
 5866SOL    HW220876   9.577   7.557   4.535  0.5291  0.3566 -0.4996
 5867SOL     OW20877   1.959   3.203   6.320 -0.6215 -0.0202 -0.3506
 5867SOL    HW120878   2.025   3.138   6.345  0.2293  1.1388  0.5242
 5867SOL    HW220879   1.901   3.209   6.396  0.0955  1.1921  0.1321
 5868SOL     OW20880  10.485   1.698   1.536 -0.2025 -0.3134 -0.3210
 5868SOL    HW120881  10.423   1.643   1.584  0.4376 -1.1811 -0.4672
 5868SOL    HW220882  10.431   1.767   1.498 -0.7681  0.2501  1.4034
 5869SOL     OW20883   1.750   0.814   0.002  0.0905 -0.0625 -0.3272
 5869SOL    HW120884   1.765   0.761  -0.076 -0.3014  0.4109 -0.7313
 5869SOL    HW220885   1.835   0.851   0.023  0.1006  0.1990 -0.8192
 5870SOL     OW20886   4.214  10.854   9.761  0.2981  0.2897 -0.2112
 5870SOL    HW120887   4.275  10.904   9.706 -1.3130  0.8886 -1.5349
 5870SOL    HW220888   4.154  10.921   9.796  0.7405 -0.2060  1.5689
 5871SOL     OW20889   5.143   2.133   5.485 -0.4237 -0.3280 -0.0932
 5871SOL    HW120890   5.145   2.175   5.399 -0.9397  0.6210  0.3478
 5871SOL    HW220891   5.209   2.064   5.479 -0.4556 -0.2796 -1.2480
 5872SOL     OW20892   8.329   6.301   5.580  0.3890 -0.0898 -0.0241
 5872SOL    HW120893   8.296   6.241   5.513 -0.1911  1.2761 -0.9966
 5872SOL    HW220894   8.331   6.248   5.660 -0.7708 -1.2058 -0.6988
 5873SOL     OW20895   0.368   2.516   3.724 -0.2008  0.2954 -0.4145
 5873SOL    HW120896   0.371   2.425   3.692 -1.0330  0.1797 -0.1710
 5873SOL    HW220897   0.282   2.548   3.698 -0.2480  0.7386  0.2726
 5874SOL     OW20898   6.311   0.880   8.492  0.6104  0.3801  0.4234
 5874SOL    HW120899   6.293   0.967   8.458 -1.1408  0.3117  1.0411
 5874SOL    HW220900   6.266   0.879   8.577 -2.0755 -2.0639 -0.8419
 5875SOL     OW20901   4.831   8.132   9.056 -0.3604 -0.3846  0.3783
 5875SOL    HW120902   4.874   8.197   9.000  0.9983 -0.4254  1.3231
 5875SOL    HW220903   4.749   8.174   9.082  0.6529  1.1577  1.2733
 5876SOL     OW20904   6.239  10.296   5.169 -0.1688  0.3827  0.0192
 5876SOL    HW120905   6.263  10.336   5.252  3.2355 -0.6093 -0.3371
 5876SOL    HW220906   6.152  10.258   5.184 -0.7003  2.2802  2.2961
 5877SOL     OW20907  11.357   7.962   6.138 -0.0009  0.0134 -0.0787
 5877SOL    HW120908  11.344   7.890   6.076  0.6740  0.9287 -1.3239
 5877SOL    HW220909  11.281   8.019   6.126  0.6312  0.7228 -0.8454
 5878SOL     OW20910   3.652   9.185   4.291 -0.5786 -0.0932 -0.6339
 5878SOL    HW120911   3.647   9.095   4.258  1.6194 -0.3477 -0.4035
 5878SOL    HW220912   3.569   9.199   4.336 -1.0434 -1.9310 -0.8609
 5879SOL     OW20913   5.667   1.570   0.143 -0.2709 -0.6281 -0.3416
 5879SOL    HW120914   5.702   1.498   0.195 -2.2523 -0.6623  1.0707
 5879SOL    HW220915   5.624   1.528   0.069  0.4858 -0.7427 -0.7178
 5880SOL     OW20916   3.797   3.977  10.740  0.0554  0.2178 -0.0356
 5880SOL    HW120917   3.872   3.945  10.789  0.8237  0.7901 -0.8111
 5880SOL    HW220918   3.731   3.909  10.749  0.5773 -0.1801  0.8567
 5881SOL     OW20919   6.601   9.080   3.954 -0.2420 -0.7679  0.8544
 5881SOL    HW120920   6.680   9.135   3.946 -0.2212 -0.7703  1.0412
 5881SOL    HW220921   6.619   9.005   3.898 -0.1920 -0.6743  0.7439
 5882SOL     OW20922   7.753   3.052   3.218  0.2944 -0.2415 -0.2863
 5882SOL    HW120923   7.727   2.964   3.189 -1.4641  0.4203 -0.8132
 5882SOL    HW220924   7.803   3.088   3.144 -0.8372 -0.0124 -0.9583
 5883SOL     OW20925   2.775   3.080   9.474 -0.3642 -0.5106 -0.3032
 5883SOL    HW120926   2.843   3.109   9.534 -2.0884  1.2112  0.9627
 5883SOL    HW220927   2.760   2.988   9.498 -0.4162 -0.1101  1.3659
 5884SOL     OW20928  10.548   7.806   2.656 -0.3191 -0.2991  0.0935
 5884SOL    HW120929  10.474   7.865   2.642  0.0629  0.3703  0.8324
 5884SOL    HW220930  10.592   7.840   2.735  1.3101 -0.1203 -0.8433
 5885SOL     OW20931  10.660   8.929   5.895 -0.0247  0.0332 -0.0714
 5885SOL    HW120932  10.604   8.852   5.906 -0.2070  0.3975  1.7652
 5885SOL    HW220933  10.613   8.984   5.832 -1.3724 -0.0165  0.8586
 5886SOL     OW20934   0.544   1.047   3.938  0.1873 -0.4894  0.1530
 5886SOL    HW120935   0.616   0.994   3.972  1.3950 -0.5339 -2.2400
 5886SOL    HW220936   0.578   1.136   3.936 -0.3282 -0.2857  0.2936
 5887SOL     OW20937  10.448   3.106   0.447 -0.0640  0.5978 -0.7099
 5887SOL    HW120938  10.461   3.179   0.386  1.6709  1.0755  0.1375
 5887SOL    HW220939  10.365   3.067   0.421 -0.0077  1.5694 -2.5440
 5888SOL     OW20940   8.794   8.600   8.732 -0.1791  0.1467 -0.0677
 5888SOL    HW120941   8.889   8.591   8.739 -0.0686  1.4212  0.4942
 5888SOL    HW220942   8.760   8.515   8.756  0.8221 -0.3197 -0.2286
 5889SOL     OW20943  10.030   6.410   1.721  0.2675 -0.4671  0.4886
 5889SOL    HW120944  10.055   6.332   1.671  2.3192  0.1179  0.5156
 5889SOL    HW220945  10.046   6.386   1.813 -0.5325 -0.5075  0.6215
 5890SOL     OW20946   5.968   6.652   3.612  0.3074  0.1931 -0.0874
 5890SOL    HW120947   5.981   6.704   3.533  0.9221 -0.0910 -0.1830
 5890SOL    HW220948   6.039   6.679   3.670  0.4989 -0.3673 -0.0497
 5891SOL     OW20949   0.309   4.247   5.784  0.0895 -0.5610 -0.2885
 5891SOL    HW120950   0.338   4.332   5.751  0.8063 -1.3147 -1.7025
 5891SOL    HW220951   0.291   4.196   5.705 -3.2215 -0.8311  0.5065
 5892SOL     OW20952   4.955   8.229   4.217 -0.2815 -0.2225  0.8130
 5892SOL    HW120953   5.013   8.208   4.144 -0.5904 -3.4580  1.3234
 5892SOL    HW220954   4.867   8.209   4.184 -0.4579 -1.3658  1.8762
 5893SOL     OW20955   6.006   4.779   4.140  0.0003 -0.4607 -0.1340
 5893SOL    HW120956   6.048   4.798   4.056 -1.4713 -0.8469 -0.9829
 5893SOL    HW220957   5.977   4.864   4.172  1.3475 -0.1939  0.4441
 5894SOL     OW20958   3.403   7.883   2.251 -0.2494  0.3382 -0.3019
 5894SOL    HW120959   3.475   7.880   2.187 -0.0664 -0.0766 -0.0844
 5894SOL    HW220960   3.394   7.792   2.280  0.8189  0.7832  1.5483
 5895SOL     OW20961   1.226   4.154  10.488 -0.1758  0.3594 -0.5267
 5895SOL    HW120962   1.233   4.174  10.582 -0.3808 -0.3186 -0.3601
 5895SOL    HW220963   1.314   4.167  10.454 -0.0688  0.4773 -0.2109
 5896SOL     OW20964   3.362   8.037   7.143 -0.1807  0.2247 -0.5655
 5896SOL    HW120965   3.454   8.028   7.116 -0.5901 -0.7896 -1.7401
 5896SOL    HW220966   3.352   8.129   7.165  0.2982  1.1181 -3.6762
 5897SOL     OW20967   0.089   8.866   9.667 -0.2652  0.0078  0.0343
 5897SOL    HW120968   0.087   8.774   9.694  1.4851 -0.0445  0.0866
 5897SOL    HW220969   0.140   8.910   9.735  0.3819  0.6965 -0.8694
 5898SOL     OW20970   9.317   9.907   8.955 -0.4295  0.0861  0.0089
 5898SOL    HW120971   9.366   9.837   8.911 -1.8486  1.3068 -4.0078
 5898SOL    HW220972   9.323   9.981   8.894 -2.6852  2.0146  1.9597
 5899SOL     OW20973   0.089   4.999   5.170 -0.3274 -0.0074  0.3047
 5899SOL    HW120974   0.022   4.937   5.140 -0.0040 -0.1210 -0.1910
 5899SOL    HW220975   0.097   4.982   5.264 -2.1576  1.1218  0.7114
 5900SOL     OW20976   6.740   6.755   5.972 -0.6763 -0.6774  0.1657
 5900SOL    HW120977   6.791   6.699   5.914 -1.0970  0.8741 -1.8011
 5900SOL    HW220978   6.786   6.839   5.972 -1.1664 -0.3780  1.4211
 5901SOL     OW20979   7.156   8.634   8.059  0.0263 -0.3332  0.1909
 5901SOL    HW120980   7.162   8.639   8.155 -2.6188 -0.5330  0.4575
 5901SOL    HW220981   7.214   8.703   8.027  0.3441  0.2810  1.9671
 5902SOL     OW20982   3.313   9.185   8.602  0.4127 -0.3502  0.1627
 5902SOL    HW120983   3.254   9.204   8.529  1.0152  0.4087 -0.1389
 5902SOL    HW220984   3.296   9.255   8.666 -0.1680 -1.0512  0.8042
 5903SOL     OW20985   5.967   7.317   6.664 -0.7858 -0.0841  0.0101
 5903SOL    HW120986   6.021   7.369   6.725  1.3109 -2.4457  0.3110
 5903SOL    HW220987   5.897   7.283   6.719 -1.4819  1.3490  0.0705
 5904SOL     OW20988   6.867   8.131   7.523 -0.4489 -0.4081  0.0453
 5904SOL    HW120989   6.846   8.219   7.554 -1.6752 -0.9876  0.9719
 5904SOL    HW220990   6.859   8.136   7.428 -0.5607  0.4578  0.0942
 5905SOL     OW20991   1.389   7.287   6.728  0.3485  0.1482 -0.1721
 5905SOL    HW120992   1.390   7.347   6.802 -0.9044 -0.1714  0.1403
 5905SOL    HW220993   1.480   7.282   6.699  1.0983 -0.6214  2.0827
 5906SOL     OW20994   9.961   6.765   0.846 -0.3152 -0.6030 -0.1175
 5906SOL    HW120995  10.006   6.830   0.791  0.5801 -1.8642 -0.9110
 5906SOL    HW220996   9.876   6.805   0.864  0.0572  0.6271 -0.9146
 5907SOL     OW20997   8.887  11.167   9.374  0.0794  0.4194  0.5474
 5907SOL    HW120998   8.977  11.200   9.375  0.1333  0.2723  0.6950
 5907SOL    HW220999   8.883  11.114   9.294  0.4871 -0.5511  1.1492
 5908SOL     OW21000   8.549  11.002   6.193 -0.3464 -0.0769 -0.0275
 5908SOL    HW121001   8.638  11.027   6.220 -0.7814  0.8287  0.6281
 5908SOL    HW221002   8.541  10.911   6.220  0.7292 -0.4805 -1.0017
 5909SOL     OW21003   2.504   6.783  10.871  0.0526  0.1960  0.2210
 5909SOL    HW121004   2.432   6.824  10.920  1.9783  3.6613  0.5213
 5909SOL    HW221005   2.502   6.828  10.786  1.0458 -0.6018 -0.2353
 5910SOL     OW21006   8.256   6.454   1.401 -0.4012 -0.1203 -0.1188
 5910SOL    HW121007   8.180   6.405   1.432  0.2175  0.0901  1.8078
 5910SOL    HW221008   8.320   6.387   1.378 -0.5350 -0.2512 -0.1088
 5911SOL     OW21009   5.045   3.460   1.285 -0.0684  0.1989 -0.4885
 5911SOL    HW121010   5.132   3.451   1.324 -0.6006  0.3740  0.7763
 5911SOL    HW221011   5.050   3.408   1.205  0.9013 -0.6231  0.0765
 5912SOL     OW21012   5.374   3.066   7.300 -0.2597 -0.3288 -0.5264
 5912SOL    HW121013   5.279   3.072   7.292 -0.4429 -1.4249  0.4273
 5912SOL    HW221014   5.394   2.975   7.279  0.5545 -0.1495 -0.5569
 5913SOL     OW21015   8.023   3.543   9.620  0.5365  0.4325 -0.2470
 5913SOL    HW121016   8.114   3.566   9.640  0.1960  1.0791  0.5905
 5913SOL    HW221017   7.982   3.528   9.705  0.1151 -0.9218 -0.6584
 5914SOL     OW21018   7.523   9.222   1.703 -0.3803  0.1976  0.0534
 5914SOL    HW121019   7.586   9.168   1.656 -0.6718 -0.9931  1.0006
 5914SOL    HW221020   7.570   9.303   1.721  0.2775  0.0239 -0.8031
 5915SOL     OW21021   9.522   9.387   9.260  0.0338  0.1562 -0.1563
 5915SOL    HW121022   9.475   9.354   9.337  1.5094 -2.3131 -0.1844
 5915SOL    HW221023   9.567   9.465   9.290  0.7576 -0.8859  1.6178
 5916SOL     OW21024  10.652   8.481   5.764 -0.0797 -0.0921  0.2568
 5916SOL    HW121025  10.660   8.407   5.824  0.0598  0.4109  0.8662
 5916SOL    HW221026  10.647   8.441   5.677 -1.3720 -0.8889  0.6716
 5917SOL     OW21027   4.114   8.365   6.432 -0.5723  0.2183 -0.3827
 5917SOL    HW121028   4.023   8.336   6.420 -0.3202 -0.6937 -0.1986
 5917SOL    HW221029   4.145   8.316   6.508 -0.1075  0.9920 -0.0602
 5918SOL     OW21030   5.995   6.776  10.590 -0.3127  0.0792 -0.2536
 5918SOL    HW121031   5.956   6.862  10.608  1.0035  0.3911  1.3067
 5918SOL    HW221032   5.947   6.716  10.646  0.2586  0.1840  0.3620
 5919SOL     OW21033   3.242   0.455   1.712  0.0785  0.4166  0.7544
 5919SOL    HW121034   3.263   0.483   1.801 -1.1622 -0.4488  1.3533
 5919SOL    HW221035   3.249   0.359   1.715  2.2247  0.4550 -0.6968
 5920SOL     OW21036   3.997   1.856  10.513 -0.1587  1.0236 -0.0531
 5920SOL    HW121037   3.965   1.765  10.517 -0.1473  1.0275  0.1364
 5920SOL    HW221038   3.973   1.893  10.598 -0.8802  1.4416 -0.4265
 5921SOL     OW21039   2.558   8.769   0.594 -0.0474  0.1481  0.6863
 5921SOL    HW121040   2.614   8.721   0.534  1.0413  2.7185 -0.4918
 5921SOL    HW221041   2.497   8.816   0.537 -0.0730  1.3427  1.6606
 5922SOL     OW21042   3.960   0.898   1.356 -0.1206 -0.2613 -0.0339
 5922SOL    HW121043   3.996   0.810   1.369  0.0250 -0.2039 -0.0485
 5922SOL    HW221044   3.928   0.898   1.266 -1.6675 -0.8524  0.4802
 5923SOL     OW21045   6.418  10.952   9.098  0.2365  0.1590  0.6356
 5923SOL    HW121046   6.372  11.035   9.105  3.1078  2.0714 -1.0238
 5923SOL    HW221047   6.393  10.917   9.012 -1.8814 -1.4207  1.8033
 5924SOL     OW21048   3.639   4.044   8.280 -0.0093  0.1236 -0.1275
 5924SOL    HW121049   3.569   3.985   8.307 -1.0340  0.3828 -2.0607
 5924SOL    HW221050   3.656   4.097   8.358 -2.2884  0.3445  0.2982
 5925SOL     OW21051   7.355   7.386   6.749 -0.3094  0.4027 -0.3319
 5925SOL    HW121052   7.348   7.468   6.700 -0.8136  0.5443 -0.0300
 5925SOL    HW221053   7.444   7.355   6.731  0.1170  1.3480  0.0773
 5926SOL     OW21054   3.917   4.637  11.094  0.1812  0.0345  0.4105
 5926SOL    HW121055   3.921   4.732  11.080 -1.5199 -0.0063 -0.5218
 5926SOL    HW221056   3.889   4.628  11.185  2.1547  0.3714  1.1033
 5927SOL     OW21057   7.319   7.029   3.648 -0.4302 -0.6716 -0.2226
 5927SOL    HW121058   7.241   7.066   3.606 -0.9044 -2.1934 -0.7787
 5927SOL    HW221059   7.381   7.101   3.652 -1.4656  0.2869 -0.8137
 5928SOL     OW21060   5.367   4.055   7.145 -0.4791 -0.3105 -0.0106
 5928SOL    HW121061   5.299   4.123   7.141  1.9180  2.2193 -0.4418
 5928SOL    HW221062   5.389   4.049   7.238  0.9853  1.3815 -0.2013
 5929SOL     OW21063   4.970   7.534   8.678 -1.0638 -0.1333 -0.3394
 5929SOL    HW121064   5.040   7.496   8.624 -1.1630  0.8960 -1.2151
 5929SOL    HW221065   5.016   7.569   8.755 -0.6894  0.0614 -0.6496
 5930SOL     OW21066   7.025   7.939   4.604  0.1664 -0.3040 -0.1465
 5930SOL    HW121067   6.971   7.869   4.567  0.0032 -0.8813  1.1211
 5930SOL    HW221068   7.010   8.014   4.547 -0.8673 -0.8648 -0.6362
 5931SOL     OW21069   7.896   4.671   2.095  0.5147  0.0694 -0.2566
 5931SOL    HW121070   7.816   4.697   2.141  0.5812  0.7297 -0.5058
 5931SOL    HW221071   7.930   4.752   2.058  0.6804 -0.3936 -1.1397
 5932SOL     OW21072   9.918   5.719   6.504  0.4644 -0.1515 -0.5939
 5932SOL    HW121073   9.955   5.801   6.472  0.3359  0.3992  0.5977
 5932SOL    HW221074   9.977   5.651   6.471  2.1552  0.6415  0.6424
 5933SOL     OW21075   2.061  11.311   4.718 -0.4620 -0.0063  0.0308
 5933SOL    HW121076   2.027  11.308   4.807 -2.0514  2.1422 -0.4292
 5933SOL    HW221077   2.155  11.329   4.730 -0.7528  0.8693  1.2918
 5934SOL     OW21078   7.950  10.450   8.150 -0.0496 -0.1057  0.1529
 5934SOL    HW121079   7.937  10.355   8.153  2.0633 -0.5806 -2.0742
 5934SOL    HW221080   7.931  10.480   8.238  0.0663 -2.7476  1.1659
 5935SOL     OW21081   8.584   6.751   0.935 -0.1298  0.0376 -0.0785
 5935SOL    HW121082   8.598   6.657   0.939  0.2107  0.1158  0.6466
 5935SOL    HW221083   8.492   6.763   0.958 -1.5666 -0.4554 -4.5589
 5936SOL     OW21084  11.376   7.164  10.861  0.1261  0.2770  0.9197
 5936SOL    HW121085  11.319   7.198  10.792 -0.9126 -1.7183  0.7146
 5936SOL    HW221086  11.456   7.217  10.855  0.3033 -0.1617 -2.2133
 5937SOL     OW21087  10.604   1.167  10.449  0.2752  0.1397 -0.2518
 5937SOL    HW121088  10.600   1.111  10.371 -0.2438 -0.0008 -0.1281
 5937SOL    HW221089  10.578   1.253  10.418 -0.4194 -0.0203 -0.1483
 5938SOL     OW21090   7.721   7.547   6.591  0.0067 -0.7524  0.1903
 5938SOL    HW121091   7.679   7.531   6.675 -0.8115  0.4688  0.0377
 5938SOL    HW221092   7.815   7.547   6.610 -0.1775 -0.3232  1.1407
 5939SOL     OW21093   2.765   6.482   0.869 -0.4532  0.0690 -0.2664
 5939SOL    HW121094   2.845   6.486   0.921 -0.1614 -0.3507 -0.6815
 5939SOL    HW221095   2.713   6.556   0.900  0.6703  1.1900 -0.9263
 5940SOL     OW21096   7.264   7.817   0.021  0.6741 -0.4486  0.3837
 5940SOL    HW121097   7.292   7.771   0.101 -0.2198  0.6948  1.3978
 5940SOL    HW221098   7.245   7.906   0.051  0.3131 -0.0010 -1.1297
 5941SOL     OW21099   7.425   4.108  10.332 -0.3693  0.3322  0.3138
 5941SOL    HW121100   7.373   4.061  10.266 -0.2802 -0.4701  0.8058
 5941SOL    HW221101   7.508   4.061  10.336 -1.0977 -0.9300  2.4380
 5942SOL     OW21102   5.413   2.720   9.933  0.0300 -0.3496 -0.2445
 5942SOL    HW121103   5.411   2.792   9.870 -2.2289  1.5930  1.8364
 5942SOL    HW221104   5.465   2.752  10.006  0.4162 -1.5144  0.0142
 5943SOL     OW21105  10.515   3.032   7.480  0.2257 -0.0297 -0.7044
 5943SOL    HW121106  10.607   3.010   7.466 -0.4143 -1.1778 -4.1924
 5943SOL    HW221107  10.467   2.964   7.434 -2.4630  0.3144  1.3365
 5944SOL     OW21108   9.916   0.136   8.919  0.1824  0.4370  0.0215
 5944SOL    HW121109   9.968   0.069   8.875 -1.0802 -1.6666  1.5740
 5944SOL    HW221110   9.932   0.122   9.012  0.7621  3.0997  0.4057
 5945SOL     OW21111   0.170   3.129   5.972 -0.3713 -0.0617  0.3037
 5945SOL    HW121112   0.102   3.109   6.036 -0.3496 -0.2096  0.2805
 5945SOL    HW221113   0.204   3.044   5.945 -0.2795  0.0054  0.2041
 5946SOL     OW21114   7.746   9.618  10.301 -0.5528  0.2377  0.4726
 5946SOL    HW121115   7.802   9.615  10.223  0.0586 -0.1429  0.9142
 5946SOL    HW221116   7.658   9.631  10.267 -0.5457 -1.6795 -0.4164
 5947SOL     OW21117   7.279   7.561   0.183 -0.3659  0.9031 -0.1500
 5947SOL    HW121118   7.321   7.484   0.144 -2.1595 -1.4332  2.1607
 5947SOL    HW221119   7.189   7.558   0.149  0.0488  3.2834 -1.6564
 5948SOL     OW21120   7.704  11.223   2.774  0.4778 -0.5308  0.8531
 5948SOL    HW121121   7.722  11.316   2.765 -0.6928 -0.1746  1.9196
 5948SOL    HW221122   7.646  11.202   2.700 -0.4952 -0.0444  1.4555
 5949SOL     OW21123   9.892   6.554   0.624  0.0650  0.0093 -0.1630
 5949SOL    HW121124   9.835   6.479   0.644 -0.9035  0.4432 -1.2111
 5949SOL    HW221125   9.885   6.610   0.702 -1.5485  0.4046 -0.5583
 5950SOL     OW21126   1.539   9.699   6.510  0.1327  0.0760  0.2934
 5950SOL    HW121127   1.561   9.725   6.420  1.3069 -2.4576 -0.2654
 5950SOL    HW221128   1.448   9.725   6.521 -0.0247  0.5249 -1.6334
 5951SOL     OW21129   2.267  11.103  10.936 -0.6495 -0.7125 -0.3905
 5951SOL    HW121130   2.182  11.085  10.896 -1.0566 -0.6409  0.4219
 5951SOL    HW221131   2.258  11.076  11.027  0.6323 -1.9538 -0.5962
 5952SOL     OW21132   3.867   9.828   2.056  0.7059  0.3124  0.0117
 5952SOL    HW121133   3.879   9.733   2.056  3.1219  0.4689  2.7248
 5952SOL    HW221134   3.811   9.845   1.980  0.3460 -3.2127 -0.7088
 5953SOL     OW21135   4.588  11.208   7.165 -0.5235  0.1551  0.4090
 5953SOL    HW121136   4.526  11.205   7.238 -0.6161  1.3541  0.4040
 5953SOL    HW221137   4.594  11.301   7.143 -1.4521 -0.2837 -1.9246
 5954SOL     OW21138   9.810   6.156   5.322 -0.1667  0.3135  0.7873
 5954SOL    HW121139   9.787   6.065   5.301  0.4078  0.5766 -1.1705
 5954SOL    HW221140   9.904   6.162   5.305 -0.2924  1.3989  0.3650
 5955SOL     OW21141  10.048   0.715   0.536 -0.1910  0.1547  0.4753
 5955SOL    HW121142  10.050   0.701   0.630 -1.0314 -3.5733  0.0980
 5955SOL    HW221143   9.959   0.747   0.519 -0.2822  0.1234  0.8751
 5956SOL     OW21144  10.946   0.593   5.927 -0.4027  0.3875  0.4351
 5956SOL    HW121145  10.989   0.583   6.012  1.2883 -2.6150 -0.6407
 5956SOL    HW221146  10.855   0.615   5.948  0.3128  1.2916  2.9218
 5957SOL     OW21147   8.438   4.337  10.833  0.3839 -0.2942 -0.1366
 5957SOL    HW121148   8.401   4.360  10.748 -1.3405 -1.7846  0.1425
 5957SOL    HW221149   8.467   4.246  10.823 -0.9399 -0.9053  1.1378
 5958SOL     OW21150   6.476   8.866  10.202  0.6574 -0.5546  0.4504
 5958SOL    HW121151   6.463   8.899  10.291 -0.2745 -0.5215  0.3047
 5958SOL    HW221152   6.568   8.839  10.200  1.1185  0.8900  0.9541
 5959SOL     OW21153  10.260   5.482   5.643 -0.2179 -0.1092  0.2187
 5959SOL    HW121154  10.215   5.525   5.570  0.6178  1.9430  0.8272
 5959SOL    HW221155  10.296   5.402   5.605  1.2392  1.4570 -2.0324
 5960SOL     OW21156   6.094   6.951   8.515 -0.0947  0.0586  0.2129
 5960SOL    HW121157   6.182   6.958   8.552 -0.1766 -0.2599  0.4771
 5960SOL    HW221158   6.066   7.042   8.501 -0.2287  0.2111  1.3541
 5961SOL     OW21159  10.908  10.630   1.337  0.1838 -0.3924  0.0530
 5961SOL    HW121160  10.966  10.647   1.411 -0.4792  1.0178  0.2792
 5961SOL    HW221161  10.967  10.617   1.262  0.8139  1.0374  0.2700
 5962SOL     OW21162   8.498   5.272   2.041 -0.3165  0.2514  0.1356
 5962SOL    HW121163   8.514   5.319   1.960  0.9767 -0.1666  0.1307
 5962SOL    HW221164   8.536   5.327   2.110  0.5072 -0.3830  0.2102
 5963SOL     OW21165   7.201   6.833   2.558 -0.1404  0.1658 -0.6986
 5963SOL    HW121166   7.187   6.927   2.559 -2.8587 -0.1561 -0.0209
 5963SOL    HW221167   7.199   6.809   2.465 -1.4254  0.5727 -0.7894
 5964SOL     OW21168   9.851   8.833  10.868  0.3885 -0.3585  0.1621
 5964SOL    HW121169   9.915   8.903  10.864  0.5241 -0.5080 -0.2890
 5964SOL    HW221170   9.788   8.852  10.798 -1.0736  0.7585  1.6957
 5965SOL     OW21171   7.486   5.204  10.059  0.0184  0.1473  0.2590
 5965SOL    HW121172   7.402   5.216  10.103  0.2279 -1.5350  1.1561
 5965SOL    HW221173   7.546   5.175  10.127  1.1121  0.4364 -0.5512
 5966SOL     OW21174   9.058   4.905   4.552 -0.2171  0.1430  0.7064
 5966SOL    HW121175   9.009   4.951   4.620  0.7291 -0.8274  2.0985
 5966SOL    HW221176   9.143   4.950   4.549 -0.7056  1.0363 -0.8203
 5967SOL     OW21177   8.846  10.229   9.222  0.0332  0.3491  0.1966
 5967SOL    HW121178   8.843  10.145   9.269  0.1454  0.4648  0.4104
 5967SOL    HW221179   8.886  10.207   9.137  0.2907  0.2302  0.3479
 5968SOL     OW21180  10.086   5.914   5.449 -0.1987 -0.0341 -0.3681
 5968SOL    HW121181  10.000   5.870   5.450 -0.4314  0.3923  1.3173
 5968SOL    HW221182  10.105   5.927   5.356 -0.6389 -2.6636 -0.9008
 5969SOL     OW21183   9.883   9.646   4.475  0.2476  0.3463  0.4540
 5969SOL    HW121184   9.813   9.660   4.539 -1.4191 -2.1283 -0.6932
 5969SOL    HW221185   9.863   9.706   4.404 -0.9040 -0.4881  0.0397
 5970SOL     OW21186   2.816   5.150   6.420 -0.3580 -0.1737  0.6299
 5970SOL    HW121187   2.903   5.119   6.396 -1.3569 -0.9733 -2.6290
 5970SOL    HW221188   2.823   5.245   6.424  0.1622  0.0488 -2.7701
 5971SOL     OW21189   7.775   4.258   9.461  1.1265 -0.0916 -0.4826
 5971SOL    HW121190   7.766   4.307   9.380  0.9609  1.3949  0.3951
 5971SOL    HW221191   7.701   4.286   9.515  3.0307  1.5920  1.4631
 5972SOL     OW21192   9.310   9.363   2.404  0.1468  0.1696  0.2818
 5972SOL    HW121193   9.405   9.373   2.402  0.1333  0.4941  0.9647
 5972SOL    HW221194   9.293   9.311   2.482 -0.1457 -1.0936 -0.6055
 5973SOL     OW21195   7.601   7.482   6.267 -0.0526 -0.2302 -0.1199
 5973SOL    HW121196   7.572   7.412   6.325  2.5442 -1.9745 -0.7304
 5973SOL    HW221197   7.615   7.439   6.183  2.1376  0.8497 -0.3760
 5974SOL     OW21198   0.592   0.424   6.918 -0.3840 -0.5895 -0.1538
 5974SOL    HW121199   0.595   0.492   6.984  0.4694 -0.2004 -0.5755
 5974SOL    HW221200   0.520   0.450   6.859  0.8452  0.7436 -1.1288
 5975SOL     OW21201   5.591   8.978   5.123  0.3937 -0.2050 -0.2658
 5975SOL    HW121202   5.662   9.037   5.096  0.5680  0.2458  1.0807
 5975SOL    HW221203   5.632   8.892   5.128  1.6181  0.4062  2.9411
 5976SOL     OW21204   0.677   4.145   5.357  0.3914 -0.2359 -0.0932
 5976SOL    HW121205   0.626   4.163   5.278  0.9842 -1.8040 -0.8743
 5976SOL    HW221206   0.764   4.181   5.338  0.9146 -1.7666 -0.7233
 5977SOL     OW21207   5.851   8.841   4.936 -0.0357 -0.4724 -0.6806
 5977SOL    HW121208   5.917   8.781   4.901  0.1941 -0.7027  0.1190
 5977SOL    HW221209   5.810   8.879   4.859  1.1181 -0.2269 -1.2063
 5978SOL     OW21210  10.515   7.574   5.204  0.9801  0.1202  0.1159
 5978SOL    HW121211  10.522   7.661   5.164  1.0787  0.4940  0.9421
 5978SOL    HW221212  10.592   7.566   5.260 -0.4069  0.6301  2.2135
 5979SOL     OW21213   2.785   6.317   3.878 -0.2387 -0.4606 -0.4427
 5979SOL    HW121214   2.693   6.344   3.879 -0.0711  0.3521  2.3842
 5979SOL    HW221215   2.831   6.387   3.925  1.3289 -2.2485  0.8384
 5980SOL     OW21216   2.072   1.940   7.226 -0.1647  0.1637 -0.0725
 5980SOL    HW121217   2.123   1.867   7.261 -0.5323 -0.3576 -0.5923
 5980SOL    HW221218   2.129   2.016   7.237  0.0598 -0.1241  0.8615
 5981SOL     OW21219   6.053   7.361   7.759  0.1875  0.2650 -0.0014
 5981SOL    HW121220   6.055   7.270   7.787 -1.2625  0.0141 -0.5800
 5981SOL    HW221221   6.082   7.359   7.667 -0.4440  0.2858 -0.2070
 5982SOL     OW21222   8.326   8.242   5.591 -0.5983  0.0106 -0.5195
 5982SOL    HW121223   8.318   8.282   5.677 -0.0235  1.1302 -0.9579
 5982SOL    HW221224   8.352   8.314   5.533 -0.2776 -0.8514 -1.4957
 5983SOL     OW21225   3.539   5.919   7.112 -0.2960  0.5967  0.8586
 5983SOL    HW121226   3.514   5.978   7.040  1.2430  0.5661  0.2697
 5983SOL    HW221227   3.634   5.914   7.106 -0.0687  1.1006  3.3198
 5984SOL     OW21228   3.104   0.520   6.117  0.0199  0.1729 -0.1946
 5984SOL    HW121229   3.050   0.598   6.132  0.4150  0.2873  0.7330
 5984SOL    HW221230   3.146   0.505   6.202 -0.3298 -1.2610 -0.2548
 5985SOL     OW21231   2.618   6.299   6.122  0.2739  0.0236 -0.5392
 5985SOL    HW121232   2.672   6.313   6.044  1.9714  1.0522  0.7342
 5985SOL    HW221233   2.618   6.384   6.166 -1.9497 -0.1119 -0.1718
 5986SOL     OW21234  11.360  10.683   0.511 -0.3441 -0.7295  0.7055
 5986SOL    HW121235  11.436  10.700   0.455  0.7782 -1.0813  2.0364
 5986SOL    HW221236  11.288  10.731   0.471  1.0495  1.2637  0.4557
 5987SOL     OW21237   8.554   5.816   0.766  0.1165  0.3941  0.2412
 5987SOL    HW121238   8.513   5.894   0.802  0.7530  0.9566 -0.2224
 5987SOL    HW221239   8.641   5.846   0.737  0.2683 -0.4216 -0.1739
 5988SOL     OW21240   2.390   2.792   2.343 -0.2765 -0.2058 -0.1541
 5988SOL    HW121241   2.439   2.864   2.383  0.7757 -0.3510 -1.1215
 5988SOL    HW221242   2.328   2.835   2.285 -0.9758 -0.0353  0.6986
 5989SOL     OW21243   2.615   2.651   5.501 -0.4374  0.6755  0.4092
 5989SOL    HW121244   2.662   2.681   5.579 -0.6520  0.8628  0.4703
 5989SOL    HW221245   2.523   2.657   5.526 -0.4895  0.1648  0.3448
 5990SOL     OW21246   0.249   2.817   9.634  0.3139 -0.1611  0.1453
 5990SOL    HW121247   0.204   2.757   9.694  0.2892 -2.3209 -1.8926
 5990SOL    HW221248   0.195   2.818   9.555  0.3704  2.5677  0.0661
 5991SOL     OW21249   4.132  10.371   7.704 -0.3112 -0.1478  0.2220
 5991SOL    HW121250   4.173  10.322   7.775 -1.2933 -0.1547  0.8073
 5991SOL    HW221251   4.118  10.458   7.740 -1.2470 -0.2840  0.2028
 5992SOL     OW21252   5.603   8.566   1.980 -0.2893 -0.2492  0.0371
 5992SOL    HW121253   5.641   8.636   2.032 -1.0286 -0.2510  0.5997
 5992SOL    HW221254   5.627   8.586   1.890 -0.6323  0.8210  0.1764
 5993SOL     OW21255   2.761   1.506   4.300 -0.4408  0.2864  0.3272
 5993SOL    HW121256   2.808   1.557   4.234  0.1133 -1.9949 -1.1590
 5993SOL    HW221257   2.694   1.458   4.251 -1.3572  0.0510  1.7445
 5994SOL     OW21258   3.299   6.651   8.061 -0.4735  0.4910 -0.0942
 5994SOL    HW121259   3.305   6.672   8.154  0.2073 -0.4337  0.0838
 5994SOL    HW221260   3.388   6.626   8.036 -0.8487 -0.2413 -0.7557
 5995SOL     OW21261   7.414   0.713   0.283  0.7392  0.0054  0.0614
 5995SOL    HW121262   7.438   0.799   0.246  0.3444 -0.1417 -0.5465
 5995SOL    HW221263   7.408   0.655   0.207  2.4343 -0.9306  0.5759
 5996SOL     OW21264   4.928   9.767   7.639 -0.1906  0.3955 -0.2964
 5996SOL    HW121265   4.992   9.832   7.609  0.2153  1.4940  2.5851
 5996SOL    HW221266   4.976   9.684   7.640  0.5729  0.8315 -0.1489
 5997SOL     OW21267   2.952  10.144   2.756 -0.3564  0.1848  0.2361
 5997SOL    HW121268   3.038  10.165   2.792  0.4704 -0.6074 -1.2090
 5997SOL    HW221269   2.898  10.125   2.833  0.0322  3.0159  1.3521
 5998SOL     OW21270   4.413   2.599   6.129  0.7496 -1.2920  0.6689
 5998SOL    HW121271   4.414   2.518   6.079  1.0273 -0.6343 -0.4255
 5998SOL    HW221272   4.432   2.667   6.065  0.6593 -0.3706  1.5908
 5999SOL     OW21273   7.140   5.081   3.170 -0.1475  0.4558 -0.5100
 5999SOL    HW121274   7.225   5.105   3.133  1.3901 -2.1928  0.9728
 5999SOL    HW221275   7.104   5.017   3.108 -1.3802  1.9289 -1.3899
 6000SOL     OW21276   6.307   2.847   2.159  0.5293  0.3747  0.3135
 6000SOL    HW121277   6.303   2.898   2.078  0.4896  0.1757  0.1899
 6000SOL    HW221278   6.230   2.791   2.157 -0.4016  1.5647  1.3065
 6001SOL     OW21279   4.313   6.532  11.089  0.0398 -0.2057  0.2680
 6001SOL    HW121280   4.262   6.592  11.144  1.4444 -0.7369  2.2693
 6001SOL    HW221281   4.269   6.447  11.100  0.0681 -0.2278  0.2082
 6002SOL     OW21282  11.297  10.949   9.204 -0.7465  0.0544 -0.2192
 6002SOL    HW121283  11.257  10.965   9.118 -1.6428  0.3546  0.2372
 6002SOL    HW221284  11.262  11.019   9.260  0.4189  0.3133  0.2138
 6003SOL     OW21285   1.736   4.220   8.521  0.3092  0.3725  0.0781
 6003SOL    HW121286   1.704   4.304   8.555 -0.9162  0.0533 -0.2243
 6003SOL    HW221287   1.769   4.241   8.433  0.4450  0.6184  0.1861
 6004SOL     OW21288   4.277   0.081   1.525 -0.3832 -0.6125 -0.1196
 6004SOL    HW121289   4.327   0.158   1.551 -0.1680 -0.8436  0.1516
 6004SOL    HW221290   4.248   0.042   1.608 -0.2021 -1.0160 -0.2465
 6005SOL     OW21291   2.328   4.471  10.088 -0.2739 -0.3341  0.2887
 6005SOL    HW121292   2.365   4.404  10.031  0.4426  0.3296 -0.0408
 6005SOL    HW221293   2.277   4.527  10.030  1.0596  0.7783  0.1392
 6006SOL     OW21294   1.753   0.450   9.636  0.0287  0.0061  0.0727
 6006SOL    HW121295   1.781   0.365   9.668 -0.7011 -0.7903 -1.3064
 6006SOL    HW221296   1.834   0.497   9.618  0.4350 -0.3801  0.8418
 6007SOL     OW21297   8.207   6.713   0.787 -0.2207  0.0547 -0.2882
 6007SOL    HW121298   8.268   6.675   0.724  2.0343  2.1192  0.4715
 6007SOL    HW221299   8.153   6.773   0.736 -0.2473 -0.2625 -0.6423
 6008SOL     OW21300   6.984   3.068   9.375  0.6092 -0.5533  0.4186
 6008SOL    HW121301   6.961   3.023   9.456 -1.6972  1.3100  0.9131
 6008SOL    HW221302   6.949   3.013   9.305 -0.1093 -0.6871  0.8776
 6009SOL     OW21303   9.919   0.554   4.043 -0.1937  0.5516  0.2283
 6009SOL    HW121304   9.963   0.525   4.123  0.2573  0.9811  0.1452
 6009SOL    HW221305   9.841   0.499   4.036  0.1539  0.0150  0.5670
 6010SOL     OW21306   8.644  11.340   8.588  0.3959 -0.1404 -0.1574
 6010SOL    HW121307   8.715  11.311   8.531  0.2813 -1.7926  0.4736
 6010SOL    HW221308   8.688  11.369   8.668  0.4476  0.4906 -0.4078
 6011SOL     OW21309   6.076   6.160   2.025  0.1830  0.1124 -0.7869
 6011SOL    HW121310   6.017   6.095   2.063 -0.0148  1.4426  1.3788
 6011SOL    HW221311   6.027   6.242   2.030  1.9488  1.1582  0.5030
 6012SOL     OW21312   3.902   5.216   3.387  0.1842 -0.6249 -0.1765
 6012SOL    HW121313   3.812   5.224   3.356  0.0483 -0.6428  0.2079
 6012SOL    HW221314   3.945   5.295   3.356  0.2896 -1.0594 -1.1920
 6013SOL     OW21315   7.872   8.701   6.199  0.2909 -0.0388  0.0426
 6013SOL    HW121316   7.926   8.760   6.253  0.4772 -0.7026  0.5932
 6013SOL    HW221317   7.889   8.614   6.235  1.2731 -0.6535 -1.7716
 6014SOL     OW21318   3.202   1.900   5.390 -0.2161  0.8486  0.1496
 6014SOL    HW121319   3.161   1.843   5.455  0.4081  1.5634  1.2021
 6014SOL    HW221320   3.242   1.840   5.327 -2.9624  0.1097 -1.0430
 6015SOL     OW21321   0.406   7.904   0.750 -0.5762 -0.0836  0.4973
 6015SOL    HW121322   0.462   7.915   0.672 -0.4069  0.4010  0.6836
 6015SOL    HW221323   0.457   7.943   0.821 -1.3146  0.7100  0.6033
 6016SOL     OW21324   3.632   0.828   0.067  0.0930  0.1133  0.0001
 6016SOL    HW121325   3.694   0.823  -0.006  0.4405 -0.9986  0.3463
 6016SOL    HW221326   3.562   0.767   0.043  0.8217 -1.2232  1.1292
 6017SOL     OW21327  10.859   2.702   7.900 -0.0233 -0.2856 -0.1063
 6017SOL    HW121328  10.769   2.693   7.870  0.1887 -1.2803 -0.4758
 6017SOL    HW221329  10.908   2.729   7.822  0.0116  0.2004  0.0808
 6018SOL     OW21330   1.401   1.776   4.395 -0.3324  0.5489  0.3721
 6018SOL    HW121331   1.417   1.682   4.383  2.4516  1.2745 -2.9024
 6018SOL    HW221332   1.462   1.802   4.464  1.2200  0.4031 -0.8832
 6019SOL     OW21333  11.078   5.113   4.151 -0.6853  0.0673  0.1877
 6019SOL    HW121334  10.994   5.074   4.177 -1.7291  1.1987 -1.3298
 6019SOL    HW221335  11.072   5.121   4.056  1.2704 -0.0533  0.0124
 6020SOL     OW21336   1.810   6.440   0.998 -0.2308 -0.4634  0.0642
 6020SOL    HW121337   1.795   6.530   0.968  1.1317 -0.4199 -0.5358
 6020SOL    HW221338   1.782   6.385   0.925 -1.5766 -0.5804  0.6324
 6021SOL     OW21339   4.880   6.590   9.769 -0.2025 -0.2767  0.0001
 6021SOL    HW121340   4.910   6.633   9.849 -1.2481 -0.4961  0.5319
 6021SOL    HW221341   4.927   6.507   9.767  0.6312  0.1859 -0.1915
 6022SOL     OW21342   5.749   0.232   9.172 -0.2906 -0.2959 -0.5853
 6022SOL    HW121343   5.771   0.170   9.103 -0.1130  0.4379 -1.2060
 6022SOL    HW221344   5.734   0.178   9.250 -0.5854 -1.1419 -1.2176
 6023SOL     OW21345   5.013   8.896   4.195  0.0555  0.3417  0.2010
 6023SOL    HW121346   4.978   8.940   4.273  0.0259  0.3470  0.1848
 6023SOL    HW221347   4.984   8.805   4.205  0.8489  0.1355  0.6635
 6024SOL     OW21348  11.082   2.549   4.951 -0.1189 -0.4085 -0.3773
 6024SOL    HW121349  10.994   2.511   4.959 -0.0176 -0.8161 -1.1523
 6024SOL    HW221350  11.122   2.501   4.879  0.0571  1.1026 -1.3183
 6025SOL     OW21351   2.252   6.357   5.769 -0.8195 -0.5433  0.1959
 6025SOL    HW121352   2.223   6.394   5.685 -0.9712  1.8712  1.2151
 6025SOL    HW221353   2.177   6.306   5.800 -1.5970  0.3368 -0.1688
 6026SOL     OW21354   0.356   9.989   5.175 -0.2271  0.1768 -0.0539
 6026SOL    HW121355   0.387  10.019   5.260  0.1108 -2.7021  0.9347
 6026SOL    HW221356   0.263  10.013   5.173 -0.4709 -0.5443  1.5557
 6027SOL     OW21357   2.596   8.117   3.895 -0.0590  0.1032  0.7144
 6027SOL    HW121358   2.579   8.038   3.844  1.5652  0.2689 -0.1399
 6027SOL    HW221359   2.590   8.188   3.831  2.5531  0.2688  0.5426
 6028SOL     OW21360   6.317   5.445   1.206 -0.0009  0.0986 -0.1338
 6028SOL    HW121361   6.314   5.349   1.209  1.1284  0.0631  0.6198
 6028SOL    HW221362   6.258   5.473   1.276 -1.4707  0.0097 -1.2913
 6029SOL     OW21363   2.166   5.814   3.576 -0.1261  0.0832 -0.1509
 6029SOL    HW121364   2.089   5.789   3.525  0.5603  0.9855 -1.6970
 6029SOL    HW221365   2.137   5.888   3.629 -0.8181 -0.7981  0.7320
 6030SOL     OW21366   0.633   6.783   1.395  0.5605 -0.0034  0.3509
 6030SOL    HW121367   0.645   6.722   1.322 -1.1991  1.8264 -1.5878
 6030SOL    HW221368   0.572   6.738   1.454 -0.2635 -0.3908 -0.7583
 6031SOL     OW21369   9.005   3.594   1.224 -0.5517 -0.2876  1.4269
 6031SOL    HW121370   9.099   3.578   1.208 -0.5985  0.4857  0.2347
 6031SOL    HW221371   8.994   3.687   1.205 -1.7730 -0.6145  0.4326
 6032SOL     OW21372   3.497   7.495   0.335 -0.0525 -0.2008 -0.6289
 6032SOL    HW121373   3.465   7.420   0.386  1.5735 -1.4111 -1.3038
 6032SOL    HW221374   3.592   7.485   0.334  0.0218 -0.3369 -3.9964
 6033SOL     OW21375   5.385   9.838  11.172  0.0740 -0.2415 -0.3008
 6033SOL    HW121376   5.446   9.852  11.244  0.3373  2.8645 -0.9810
 6033SOL    HW221377   5.327   9.914  11.175  0.3405  0.2196 -3.5532
 6034SOL     OW21378   5.208  10.176   7.126 -0.2064  0.6455 -0.5784
 6034SOL    HW121379   5.229  10.269   7.115 -0.5909  0.8742  0.4622
 6034SOL    HW221380   5.119  10.168   7.092 -0.6850  0.9534  0.5682
 6035SOL     OW21381   7.722   8.988   8.074 -0.2227  0.0320 -0.3158
 6035SOL    HW121382   7.710   9.066   8.020 -0.3686 -0.0766 -0.4399
 6035SOL    HW221383   7.665   8.922   8.035  0.5142 -0.3863 -0.7139
 6036SOL     OW21384   0.562   2.531   3.341  0.3387  0.2106 -0.0819
 6036SOL    HW121385   0.557   2.481   3.259  2.0937  0.0252 -0.1068
 6036SOL    HW221386   0.569   2.464   3.409  0.7752  0.3868  0.0498
 6037SOL     OW21387   3.956   0.650   0.079 -0.6011 -0.0641 -0.3329
 6037SOL    HW121388   3.911   0.673   0.160 -2.2281 -0.6987 -1.0266
 6037SOL    HW221389   3.925   0.714   0.015  0.6391  0.4025 -0.4928
 6038SOL     OW21390  10.451   0.154   8.036 -0.4554 -0.0654 -0.3117
 6038SOL    HW121391  10.365   0.173   7.999 -0.0921  0.6428 -0.8091
 6038SOL    HW221392  10.458   0.212   8.111 -0.2010  0.2477 -0.5777
 6039SOL     OW21393   9.206   1.698   8.959  0.1781 -0.6824  0.1975
 6039SOL    HW121394   9.301   1.698   8.949  0.0567 -0.8793 -1.2115
 6039SOL    HW221395   9.188   1.769   9.020  1.1688  0.1071 -0.3909
 6040SOL     OW21396   8.145   1.174   8.492 -0.4710  0.5882 -0.2263
 6040SOL    HW121397   8.155   1.083   8.467 -0.5204 -0.2933  2.5721
 6040SOL    HW221398   8.225   1.194   8.542 -0.9782  1.6806  0.1956
 6041SOL     OW21399   3.225   3.295   4.115 -0.1188  0.1043 -0.2538
 6041SOL    HW121400   3.231   3.391   4.118 -1.5900  0.2300 -0.8686
 6041SOL    HW221401   3.205   3.270   4.205  1.5109  0.2415  0.1889
 6042SOL     OW21402   8.409   6.654   1.511 -0.2785  0.3630  0.6541
 6042SOL    HW121403   8.404   6.740   1.471 -2.2562  1.0440  2.1939
 6042SOL    HW221404   8.359   6.597   1.452  0.9361  0.2582 -0.3074
 6043SOL     OW21405   1.599   9.705   4.785 -0.2911  0.1378 -0.0591
 6043SOL    HW121406   1.648   9.786   4.782  0.7169 -0.3952  0.9981
 6043SOL    HW221407   1.663   9.637   4.765 -0.9194 -0.4610 -0.0837
 6044SOL     OW21408   3.836   2.753   7.173  0.0305  0.4311 -1.0764
 6044SOL    HW121409   3.791   2.686   7.121 -0.2749 -0.2103 -0.0257
 6044SOL    HW221410   3.927   2.749   7.143  0.7444 -2.6324  0.9502
 6045SOL     OW21411   4.110   9.025   6.604 -0.1378 -0.2382 -0.1007
 6045SOL    HW121412   4.143   9.039   6.515  0.8004 -1.5800  0.0135
 6045SOL    HW221413   4.185   9.041   6.661  0.2668 -2.7897  0.1955
 6046SOL     OW21414   9.032   3.810   7.488  0.0251  0.0648  0.2071
 6046SOL    HW121415   9.035   3.750   7.563  1.2345  0.6159  0.6295
 6046SOL    HW221416   9.118   3.852   7.488 -0.1809  0.5307 -1.1308
 6047SOL     OW21417  10.591   0.431   9.976 -0.3283  0.1526  0.1581
 6047SOL    HW121418  10.567   0.338   9.981 -2.1217  0.3723 -2.3935
 6047SOL    HW221419  10.559   0.468  10.059 -0.3248 -1.3313  0.8589
 6048SOL     OW21420   3.857   8.534   8.924 -0.0122 -0.3600  0.5597
 6048SOL    HW121421   3.889   8.579   9.003  0.1099 -2.2829  1.6786
 6048SOL    HW221422   3.779   8.488   8.953  0.6540 -1.9959 -0.1361
 6049SOL     OW21423   9.168   0.261   0.813  0.7666  0.0425 -0.5164
 6049SOL    HW121424   9.175   0.167   0.830 -1.1158  0.0800  0.8504
 6049SOL    HW221425   9.128   0.267   0.726 -0.6364 -0.4937  0.0661
 6050SOL     OW21426   4.785  10.476   7.230 -0.1986  0.1492 -0.0615
 6050SOL    HW121427   4.743  10.557   7.259  2.3974  1.8242 -0.6517
 6050SOL    HW221428   4.820  10.438   7.310 -1.6948 -0.6187  0.2626
 6051SOL     OW21429  10.823   5.692   0.124  0.4549 -0.6195 -0.2986
 6051SOL    HW121430  10.816   5.776   0.170  0.2036 -1.1460  0.6598
 6051SOL    HW221431  10.808   5.713   0.032  4.5304  1.1005 -0.7885
 6052SOL     OW21432   0.269   0.888   5.988  0.3541  0.6451  0.6913
 6052SOL    HW121433   0.296   0.972   6.025 -0.3898  0.8407  0.7992
 6052SOL    HW221434   0.194   0.862   6.040 -0.8349  1.0108 -0.7596
 6053SOL     OW21435   9.271  10.294   5.532 -0.1647 -0.4076 -0.6523
 6053SOL    HW121436   9.294  10.376   5.574  0.6154 -0.7317 -0.4235
 6053SOL    HW221437   9.176  10.296   5.524 -0.1132  0.7356 -1.1148
 6054SOL     OW21438   5.354   4.729   0.796  0.7001 -0.0193  0.5315
 6054SOL    HW121439   5.287   4.661   0.795  1.0917 -0.4134  0.3773
 6054SOL    HW221440   5.324   4.795   0.734 -0.1005  0.3662  1.3114
 6055SOL     OW21441  11.116   1.716   7.417  0.0613 -0.0200 -0.3968
 6055SOL    HW121442  11.103   1.625   7.444 -1.1686  0.0082 -0.8289
 6055SOL    HW221443  11.207   1.719   7.388  0.4292 -0.8473  0.6013
 6056SOL     OW21444   6.183   5.220   5.890 -0.0243  0.4312 -0.4185
 6056SOL    HW121445   6.111   5.178   5.842 -0.1141  0.3558 -0.2177
 6056SOL    HW221446   6.261   5.200   5.838  0.0048 -0.4009 -0.0668
 6057SOL     OW21447   0.332   8.852   2.424  0.0934  0.6315 -0.0061
 6057SOL    HW121448   0.238   8.859   2.442  0.1370  0.6578  0.2089
 6057SOL    HW221449   0.365   8.942   2.433  0.2313  0.5368  0.4235
 6058SOL     OW21450   6.648   2.741   6.960  0.2510  0.1564 -0.0880
 6058SOL    HW121451   6.660   2.812   7.023  1.3020  0.1750 -0.2882
 6058SOL    HW221452   6.652   2.661   7.013  0.4183  0.1956 -0.0420
 6059SOL     OW21453   2.829   7.242   9.563 -0.3845 -0.2351  0.1754
 6059SOL    HW121454   2.881   7.176   9.516  0.5186 -0.0499  0.8937
 6059SOL    HW221455   2.840   7.322   9.511 -1.4331 -0.6186 -0.6642
 6060SOL     OW21456  10.079   3.132   9.450 -0.0160  0.3169 -0.0420
 6060SOL    HW121457   9.996   3.085   9.461  0.2256 -0.1465 -0.1774
 6060SOL    HW221458  10.129   3.080   9.388  1.6709 -1.1886  2.3702
 6061SOL     OW21459   9.596   6.098   8.831 -0.3636  0.5408  0.3605
 6061SOL    HW121460   9.675   6.061   8.792  0.4728  1.8889  0.7284
 6061SOL    HW221461   9.586   6.050   8.914 -0.6355 -0.4615 -0.2326
 6062SOL     OW21462  11.041  10.656  11.106 -0.0681  0.0009 -0.0019
 6062SOL    HW121463  11.123  10.664  11.057  0.0569  0.5723  0.2965
 6062SOL    HW221464  11.000  10.576  11.071  1.1582 -0.9406  0.6496
 6063SOL     OW21465   1.542  11.112   1.331 -0.1460  0.5297 -0.9420
 6063SOL    HW121466   1.603  11.106   1.404 -0.3062 -0.6315 -0.8930
 6063SOL    HW221467   1.495  11.029   1.331 -0.3811  0.6396 -2.1649
 6064SOL     OW21468  10.488   2.194   1.370 -0.4183 -0.7872  0.1035
 6064SOL    HW121469  10.478   2.136   1.446 -1.3544 -1.6625 -0.6507
 6064SOL    HW221470  10.534   2.140   1.305  2.0679  0.5468  0.6263
 6065SOL     OW21471   5.732   9.246   3.952 -0.0458 -0.1060 -0.2220
 6065SOL    HW121472   5.715   9.307   4.024  0.7980  0.7430 -0.7201
 6065SOL    HW221473   5.796   9.291   3.897  0.5795 -1.4280 -0.6229
 6066SOL     OW21474  10.832   5.332   2.447  0.2654  0.1323  0.1507
 6066SOL    HW121475  10.762   5.386   2.481  0.0612  0.6845 -1.0923
 6066SOL    HW221476  10.792   5.246   2.433  0.1400  0.1318  0.5201
 6067SOL     OW21477   0.398  10.019   8.355 -0.1588  0.0631  0.5858
 6067SOL    HW121478   0.466   9.964   8.317 -0.3792 -0.3796  0.8260
 6067SOL    HW221479   0.389  10.092   8.294  0.3292 -0.0237  0.4067
 6068SOL     OW21480  10.910   5.146   8.264 -0.0108 -0.1623  0.4751
 6068SOL    HW121481  10.934   5.060   8.296 -0.6750 -0.8221 -0.7297
 6068SOL    HW221482  10.969   5.161   8.189 -1.0546 -0.3460 -0.4057
 6069SOL     OW21483  10.624   0.860  10.500  0.0550 -0.3049  0.2079
 6069SOL    HW121484  10.623   0.890  10.409 -1.7173  2.5483  1.0588
 6069SOL    HW221485  10.576   0.777  10.498  2.9835 -2.1220 -1.8750
 6070SOL     OW21486   9.127   9.183   5.387 -0.1789 -0.2764 -0.1775
 6070SOL    HW121487   9.086   9.269   5.384  0.2981 -0.0348  0.0807
 6070SOL    HW221488   9.191   9.184   5.315 -0.9983 -0.8549 -0.9373
 6071SOL     OW21489   6.009   4.133   1.054  0.5912 -0.4197 -0.1732
 6071SOL    HW121490   6.013   4.046   1.013  2.2801 -1.3168  1.7260
 6071SOL    HW221491   5.976   4.116   1.142 -0.8240  1.1653 -0.3512
 6072SOL     OW21492   8.853   7.092  10.120 -0.4875  0.2416  0.1119
 6072SOL    HW121493   8.943   7.079  10.150 -0.5989  2.0866  1.4410
 6072SOL    HW221494   8.811   7.007  10.132  0.5247 -0.0903  1.5993
 6073SOL     OW21495   9.251   9.419  10.428  0.2600 -0.1882  0.1255
 6073SOL    HW121496   9.199   9.480  10.479  1.2140 -0.0489  0.9594
 6073SOL    HW221497   9.207   9.335  10.439 -0.5800  0.1746 -0.3448
 6074SOL     OW21498   9.357  11.015   6.227 -0.6084  0.5731  0.0255
 6074SOL    HW121499   9.329  11.069   6.153  1.1157  1.3977 -0.0732
 6074SOL    HW221500   9.314  10.931   6.213 -0.1690  0.6447 -2.0424
 6075SOL     OW21501   0.354   0.240  10.361  0.0313 -0.2724 -0.0878
 6075SOL    HW121502   0.430   0.289  10.392 -1.2918  3.6962 -2.3919
 6075SOL    HW221503   0.360   0.245  10.266 -1.6497 -2.4383 -0.3879
 6076SOL     OW21504   1.137   2.773   9.319 -0.0605  0.0131  0.2296
 6076SOL    HW121505   1.107   2.845   9.263 -1.9912 -0.8830  0.0457
 6076SOL    HW221506   1.126   2.806   9.408 -0.1370  0.2515  0.1329
 6077SOL     OW21507   2.278   6.772   6.775  0.0230 -0.0463 -0.4141
 6077SOL    HW121508   2.260   6.791   6.867  3.3810 -1.2207  0.6316
 6077SOL    HW221509   2.257   6.679   6.765 -0.2718  0.0621 -0.8240
 6078SOL     OW21510  10.358   2.297   6.466  0.4833  0.2533  0.1919
 6078SOL    HW121511  10.425   2.327   6.527  1.2084  0.8386 -0.8510
 6078SOL    HW221512  10.317   2.222   6.509  1.1964  0.4427  1.2329
 6079SOL     OW21513   6.096   0.410   7.554 -0.5968 -0.2112  0.2910
 6079SOL    HW121514   6.006   0.430   7.579 -0.7924  1.2332 -1.3636
 6079SOL    HW221515   6.098   0.421   7.459  1.4498  0.3718  0.3512
 6080SOL     OW21516   4.610  10.446   1.107  0.1744  0.1826 -0.4861
 6080SOL    HW121517   4.544  10.444   1.038  0.6106 -1.2734 -0.8949
 6080SOL    HW221518   4.559  10.449   1.189 -0.3605  0.5482 -0.8264
 6081SOL     OW21519   1.741   8.647   5.276 -0.3546 -0.0658 -0.1222
 6081SOL    HW121520   1.724   8.701   5.353 -0.4652  0.3481 -0.4334
 6081SOL    HW221521   1.675   8.578   5.280 -1.4944  0.9494 -0.7783
 6082SOL     OW21522  10.096   1.246   0.138 -0.2400  0.4654  0.4282
 6082SOL    HW121523  10.077   1.284   0.052 -1.4021  0.1785  0.5368
 6082SOL    HW221524  10.091   1.320   0.199  0.8484  0.7185  0.2384
 6083SOL     OW21525   5.418   5.474   6.962 -0.0910  0.1240  0.1012
 6083SOL    HW121526   5.332   5.451   6.997 -0.2182 -4.5460 -2.4308
 6083SOL    HW221527   5.481   5.428   7.018  0.1976 -1.3130 -1.3098
 6084SOL     OW21528   5.350   7.472   8.338 -0.1083  0.5219 -0.2087
 6084SOL    HW121529   5.429   7.520   8.362 -0.1335  1.0752 -1.1611
 6084SOL    HW221530   5.382   7.389   8.303 -0.0013  0.3578  0.2728
 6085SOL     OW21531   8.351   9.208   4.137  0.2805 -0.0359  0.1402
 6085SOL    HW121532   8.406   9.131   4.149 -0.1268 -0.1429  1.5075
 6085SOL    HW221533   8.412   9.280   4.122  0.7371 -0.3890  0.2921
 6086SOL     OW21534   4.152   3.972   0.402 -0.6417  0.0713  0.0863
 6086SOL    HW121535   4.221   4.023   0.359 -1.8390  1.1261 -0.6600
 6086SOL    HW221536   4.137   3.898   0.343 -0.6287  0.2210 -0.1062
 6087SOL     OW21537   2.382  11.320   6.477  0.8052  0.1187 -0.1068
 6087SOL    HW121538   2.430  11.402   6.488  2.6390 -0.7248 -1.3148
 6087SOL    HW221539   2.382  11.304   6.382  1.4477 -1.7804  0.1568
 6088SOL     OW21540   3.869   4.681  11.369  0.0912 -0.1259  0.1419
 6088SOL    HW121541   3.804   4.622  11.407  0.7633 -0.2307  1.1767
 6088SOL    HW221542   3.941   4.681  11.432  1.3300 -0.4273 -1.2144
 6089SOL     OW21543   7.271   0.033   5.566 -0.6281  0.2003 -0.0169
 6089SOL    HW121544   7.339  -0.025   5.531 -1.0485 -0.6019  0.4622
 6089SOL    HW221545   7.280   0.024   5.661 -1.9219 -0.5472  0.0518
 6090SOL     OW21546   7.599   7.650   5.987 -0.0921 -0.1971  0.0003
 6090SOL    HW121547   7.592   7.734   6.034  2.0218  0.0146  0.0455
 6090SOL    HW221548   7.655   7.596   6.044 -1.4503 -1.6824 -0.0145
 6091SOL     OW21549   9.461   2.934   7.750 -0.5005  0.6284 -0.1595
 6091SOL    HW121550   9.516   2.863   7.784 -1.5186 -0.0707  0.0690
 6091SOL    HW221551   9.490   3.012   7.797  1.1809  0.5539 -0.9748
 6092SOL     OW21552   4.757   1.848   7.183  0.0047 -0.1298 -0.0974
 6092SOL    HW121553   4.682   1.841   7.124  0.5191  0.3524 -0.8349
 6092SOL    HW221554   4.808   1.921   7.147  0.6299 -0.2118  0.6110
 6093SOL     OW21555   8.767   6.800   8.313 -0.3278 -0.0603 -0.6689
 6093SOL    HW121556   8.716   6.819   8.234 -0.6083  0.8405 -0.2894
 6093SOL    HW221557   8.852   6.840   8.296 -0.0477 -0.7462 -0.9180
 6094SOL     OW21558   6.247   9.169   0.654  0.0099 -0.1949  0.3059
 6094SOL    HW121559   6.231   9.227   0.579  0.7720 -0.2587  0.0847
 6094SOL    HW221560   6.194   9.091   0.636 -0.4408  0.1243  0.2369
 6095SOL     OW21561   1.355   0.080   9.845  0.4916  0.3850 -0.6125
 6095SOL    HW121562   1.297   0.105   9.772  0.1759  2.2787  0.2356
 6095SOL    HW221563   1.439   0.119   9.823  0.1716  1.7353  0.3990
 6096SOL     OW21564   2.702   4.450   9.693 -0.3914  0.7185 -0.4289
 6096SOL    HW121565   2.630   4.415   9.640 -0.8909 -1.1014  1.3236
 6096SOL    HW221566   2.778   4.397   9.668 -0.5097  0.2111  0.2519
 6097SOL     OW21567   2.826   0.734   7.176  0.0976 -0.3034 -0.2830
 6097SOL    HW121568   2.830   0.671   7.248  2.2764 -0.0151 -0.0722
 6097SOL    HW221569   2.842   0.819   7.218  0.4231 -0.0153 -0.9813
 6098SOL     OW21570   1.721   1.342   8.529  0.1500  0.1635 -0.0480
 6098SOL    HW121571   1.714   1.417   8.589  0.6312  1.0125 -1.0304
 6098SOL    HW221572   1.657   1.279   8.563  0.2063  0.7282  1.1907
 6099SOL     OW21573   7.487   0.155   7.054  1.1316  0.0773 -0.1786
 6099SOL    HW121574   7.399   0.142   7.089  0.0557 -1.0817 -3.0109
 6099SOL    HW221575   7.511   0.243   7.083 -1.2142  0.6823  0.1944
 6100SOL     OW21576   1.148  10.964   8.221 -0.2490  0.3805  0.0646
 6100SOL    HW121577   1.093  10.970   8.143 -1.0897 -0.9776  0.4969
 6100SOL    HW221578   1.088  10.936   8.290  0.6103  0.8761  1.0419
 6101SOL     OW21579  10.250   1.884   9.037  0.1404  0.0666  0.4129
 6101SOL    HW121580  10.305   1.936   9.096  0.7206  1.5913 -1.3791
 6101SOL    HW221581  10.187   1.947   9.002 -1.0239 -1.0891  0.3460
 6102SOL     OW21582   9.317   3.183   6.293 -0.3094 -0.0780 -0.2229
 6102SOL    HW121583   9.385   3.251   6.303 -0.7595  0.3489 -0.0050
 6102SOL    HW221584   9.274   3.205   6.211 -0.6953  0.1191  0.0307
 6103SOL     OW21585   5.602   4.917   9.811  0.5026 -0.4134  0.2470
 6103SOL    HW121586   5.511   4.912   9.842  0.5749  2.8667  1.3102
 6103SOL    HW221587   5.596   4.899   9.718 -1.5649  1.5224 -0.0739
 6104SOL     OW21588   1.782   5.135   4.033 -0.3876 -0.2092 -0.5220
 6104SOL    HW121589   1.853   5.093   3.986 -0.3898  0.6683 -1.3458
 6104SOL    HW221590   1.792   5.106   4.123 -0.3025 -1.8344 -1.0196
 6105SOL     OW21591   6.052   1.487   8.585 -0.0126 -0.1041 -0.1255
 6105SOL    HW121592   5.985   1.424   8.562 -0.7464  0.0411  1.4677
 6105SOL    HW221593   6.116   1.437   8.636 -0.5911  0.3744  1.1321
 6106SOL     OW21594   7.268   8.044   8.272 -0.1334  0.4093  1.0605
 6106SOL    HW121595   7.346   8.096   8.289  1.3255 -1.0092 -0.8681
 6106SOL    HW221596   7.236   8.074   8.187 -1.1552  0.3358  1.4041
 6107SOL     OW21597  11.159   8.067   1.363  0.6642  0.3767 -0.3854
 6107SOL    HW121598  11.159   7.984   1.315  1.0147  0.2775 -0.2236
 6107SOL    HW221599  11.078   8.111   1.337  0.1424 -0.3161  0.0413
 6108SOL     OW21600   1.010   3.786   6.396  0.0130 -0.1209 -0.1027
 6108SOL    HW121601   0.984   3.867   6.439 -1.6867 -0.4350 -0.4680
 6108SOL    HW221602   0.968   3.717   6.447  0.7773 -0.7334 -0.2719
 6109SOL     OW21603   2.613  10.599   1.638 -0.2777  0.2481  0.1391
 6109SOL    HW121604   2.688  10.543   1.618  0.2386  0.5621  1.1433
 6109SOL    HW221605   2.619  10.614   1.732 -2.8772 -1.5841  0.7177
 6110SOL     OW21606   8.525   8.285   7.667 -0.3396  0.5318 -0.1985
 6110SOL    HW121607   8.432   8.269   7.678 -0.4823  1.5832  0.2724
 6110SOL    HW221608   8.569   8.215   7.715 -0.8578 -0.5628 -1.2741
 6111SOL     OW21609  10.493   4.955   3.871  0.2933  0.1185  0.7753
 6111SOL    HW121610  10.477   4.864   3.898 -0.2510 -0.1194 -0.2985
 6111SOL    HW221611  10.408   4.998   3.881  0.4669  0.4239  0.9487
 6112SOL     OW21612   1.968   9.606   9.412 -0.6582 -0.0105 -0.3484
 6112SOL    HW121613   2.046   9.646   9.372  0.3991 -1.9022 -0.2674
 6112SOL    HW221614   1.943   9.668   9.481  0.9018  0.5532 -0.2453
 6113SOL     OW21615   9.385   9.221   5.184  0.2448 -0.2057  0.3236
 6113SOL    HW121616   9.466   9.180   5.215  0.2662 -2.6392 -2.4885
 6113SOL    HW221617   9.318   9.154   5.195 -1.3043  1.4452  1.7254
 6114SOL     OW21618  10.268   0.476   7.517  0.9117 -0.2044  0.5155
 6114SOL    HW121619  10.231   0.389   7.502 -0.3069 -0.2948  3.3340
 6114SOL    HW221620  10.197   0.536   7.499  1.5701  0.1945 -0.8361
 6115SOL     OW21621   2.096   3.781   0.612 -0.3086 -0.0044  0.1338
 6115SOL    HW121622   2.060   3.750   0.695 -0.4576 -0.1867  0.0018
 6115SOL    HW221623   2.020   3.795   0.557 -0.1725 -0.4951 -0.1815
 6116SOL     OW21624   6.267  10.379   5.424 -0.6476 -0.2687 -0.1588
 6116SOL    HW121625   6.267  10.332   5.507  0.1745 -0.4373 -0.2514
 6116SOL    HW221626   6.197  10.444   5.434 -0.9152 -0.6430  0.4565
 6117SOL     OW21627   2.196   8.463   4.673  0.3914  0.0100  0.1131
 6117SOL    HW121628   2.277   8.431   4.634 -0.3679 -0.1123 -1.4544
 6117SOL    HW221629   2.162   8.525   4.609 -1.6028 -1.2101 -0.0984
 6118SOL     OW21630   6.051   0.814   7.747 -0.4014 -0.4167 -0.0190
 6118SOL    HW121631   6.106   0.739   7.768  0.0493  0.2714  1.4731
 6118SOL    HW221632   5.974   0.777   7.705 -0.1253 -1.7098  0.5596
 6119SOL     OW21633   3.708   1.289   9.826 -0.0794 -0.2502 -0.0225
 6119SOL    HW121634   3.791   1.321   9.863  0.1917 -0.3674 -0.5190
 6119SOL    HW221635   3.650   1.365   9.830  0.8043  0.5995 -1.9418
 6120SOL     OW21636   9.541   9.458   3.511 -0.2394  0.1043 -0.3486
 6120SOL    HW121637   9.465   9.404   3.530  0.6003 -1.0704 -0.2530
 6120SOL    HW221638   9.573   9.485   3.596  0.3371 -0.6661 -0.3153
 6121SOL     OW21639   6.847  10.017   0.354 -0.7705 -0.3499  0.4613
 6121SOL    HW121640   6.887  10.102   0.372 -0.4623 -0.3754 -0.0719
 6121SOL    HW221641   6.820   9.984   0.440  0.8802 -0.5922  0.9065
 6122SOL     OW21642   7.442   0.567   5.636 -0.2262 -0.0163 -0.1353
 6122SOL    HW121643   7.413   0.513   5.709  0.2290  1.1039  0.8959
 6122SOL    HW221644   7.382   0.642   5.636  1.4001  1.3606  0.8332
 6123SOL     OW21645   4.006  10.835   2.176 -0.2157 -0.0560  0.3982
 6123SOL    HW121646   3.983  10.773   2.107 -3.2386  0.3389  0.9118
 6123SOL    HW221647   4.045  10.909   2.130  2.3795 -1.7379 -0.3337
 6124SOL     OW21648   0.069   1.485   4.366 -0.0841 -0.9216 -0.0176
 6124SOL    HW121649   0.090   1.574   4.396 -0.3561 -0.0156 -2.2883
 6124SOL    HW221650   0.077   1.431   4.444  2.2232  0.7378  1.0296
 6125SOL     OW21651   8.863   5.524   1.436 -0.1172 -0.2941  0.7256
 6125SOL    HW121652   8.777   5.498   1.401  0.7470 -2.7289  0.2183
 6125SOL    HW221653   8.851   5.523   1.531 -0.4367 -1.6163  0.6991
 6126SOL     OW21654   3.861   9.878   8.072 -0.1653  0.1476 -0.3771
 6126SOL    HW121655   3.940   9.931   8.084 -1.3085  2.2862 -1.8580
 6126SOL    HW221656   3.797   9.937   8.034 -2.6171 -1.4608  0.9806
 6127SOL     OW21657   7.633   5.069   6.069 -0.3006 -0.0627  0.2505
 6127SOL    HW121658   7.673   5.049   5.984 -0.7841  0.1203 -0.0242
 6127SOL    HW221659   7.702   5.051   6.132 -0.5520 -2.2440  0.0128
 6128SOL     OW21660  11.289   9.818  10.294  0.5382 -0.2622  1.0004
 6128SOL    HW121661  11.298   9.849  10.204  0.8437 -1.0846  0.7386
 6128SOL    HW221662  11.298   9.723  10.288 -3.2999 -0.7886  1.3818
 6129SOL     OW21663  10.652  10.374  10.178  0.1652 -0.3706 -0.0404
 6129SOL    HW121664  10.632  10.421  10.097 -0.4553 -2.9181 -1.4537
 6129SOL    HW221665  10.645  10.281  10.155  1.0996 -1.2096  2.6646
 6130SOL     OW21666   2.934   5.181   0.247 -0.3457  0.0587 -0.3296
 6130SOL    HW121667   2.950   5.167   0.153 -2.0281  0.9418 -0.7912
 6130SOL    HW221668   2.889   5.265   0.252 -0.5704 -0.1194  1.2506
 6131SOL     OW21669  11.155  10.789   8.109 -0.3528  0.4798 -0.0737
 6131SOL    HW121670  11.101  10.715   8.134  0.4629  0.2145  0.9731
 6131SOL    HW221671  11.142  10.854   8.177 -0.4379  0.9844 -0.5586
 6132SOL     OW21672   6.936   7.347   7.847  0.1326 -0.0983  0.0131
 6132SOL    HW121673   6.884   7.345   7.767  3.4522  1.1473 -2.4194
 6132SOL    HW221674   6.967   7.438   7.853  1.7544 -0.6980  1.4357
 6133SOL     OW21675  11.061   1.415   7.276 -0.0027  0.0138  0.2405
 6133SOL    HW121676  11.142   1.449   7.238  0.7025 -2.7229 -0.9297
 6133SOL    HW221677  11.078   1.322   7.291 -3.0552 -0.7786 -0.5045
 6134SOL     OW21678   9.537   7.463   0.155 -0.4335 -0.1493  0.0923
 6134SOL    HW121679   9.500   7.550   0.140  3.1278  1.2757 -1.6406
 6134SOL    HW221680   9.533   7.421   0.069  0.0441 -0.7824  0.3766
 6135SOL     OW21681   2.957   2.494   8.966 -0.0806  0.1012  0.3057
 6135SOL    HW121682   2.988   2.468   9.053 -1.3593 -2.1172  0.1690
 6135SOL    HW221683   2.878   2.442   8.952  1.2034 -1.2493 -3.0426
 6136SOL     OW21684  11.058   0.807   3.263  0.2240  0.0479 -0.0756
 6136SOL    HW121685  11.019   0.722   3.245  1.4396 -0.3358 -1.0270
 6136SOL    HW221686  11.143   0.786   3.303  0.9082  0.7659 -1.0853
 6137SOL     OW21687   4.313   0.424  10.098  0.2923  0.2153 -0.4491
 6137SOL    HW121688   4.338   0.501  10.048  0.6198  0.3025 -0.1580
 6137SOL    HW221689   4.395   0.392  10.136  0.1301 -0.1607 -0.4053
 6138SOL     OW21690   0.142   9.837   5.740 -0.7477 -0.0838  0.5118
 6138SOL    HW121691   0.141   9.741   5.740 -1.3011 -0.0821  0.3360
 6138SOL    HW221692   0.232   9.860   5.765 -0.9580 -0.6394  1.8553
 6139SOL     OW21693   3.055   0.101   9.393 -0.5108 -0.1335 -0.3950
 6139SOL    HW121694   2.991   0.046   9.439  0.2032 -1.5708 -1.0622
 6139SOL    HW221695   3.124   0.117   9.457 -0.9225  0.3621 -0.0672
 6140SOL     OW21696   8.274   2.195  10.074  0.1391  0.3144  0.2896
 6140SOL    HW121697   8.355   2.246  10.065  0.0693  0.3244 -0.3409
 6140SOL    HW221698   8.284   2.124  10.011 -0.7421  0.8484 -0.4814
 6141SOL     OW21699   7.777   3.212  10.937 -0.3909 -0.1667  0.3640
 6141SOL    HW121700   7.775   3.217  11.033 -2.1786  0.2510  0.3397
 6141SOL    HW221701   7.777   3.303  10.908 -0.5101 -0.2910 -0.0361
 6142SOL     OW21702   2.517   3.730   6.815 -0.0237 -0.6773  0.1583
 6142SOL    HW121703   2.469   3.663   6.863 -0.9023  0.7032  1.2995
 6142SOL    HW221704   2.605   3.694   6.805 -0.2985 -1.7347  1.2899
 6143SOL     OW21705   4.440  11.360   2.108 -0.3248  0.9947 -0.0164
 6143SOL    HW121706   4.530  11.380   2.135  0.0329  0.0682 -0.4887
 6143SOL    HW221707   4.394  11.342   2.190  0.5023 -0.7866  0.1036
 6144SOL     OW21708   9.057   4.120   8.776 -0.3893  0.3365 -0.8385
 6144SOL    HW121709   9.112   4.055   8.733 -0.8859 -0.1582 -0.7341
 6144SOL    HW221710   9.003   4.157   8.706  0.4944  1.2787 -1.0579
 6145SOL     OW21711   7.649   9.450   1.756 -0.1556 -0.6543 -0.5528
 6145SOL    HW121712   7.622   9.520   1.696 -1.7403  0.5224  1.3915
 6145SOL    HW221713   7.723   9.487   1.803  0.0054 -0.9098 -0.6055
 6146SOL     OW21714   7.817   4.508   0.758 -0.3767 -0.2233  0.4566
 6146SOL    HW121715   7.815   4.466   0.672 -3.8518 -0.7092  0.6047
 6146SOL    HW221716   7.785   4.597   0.742  2.0124  0.7849  0.8789
 6147SOL     OW21717   6.242  10.644   5.079 -0.2019 -0.3944  0.0470
 6147SOL    HW121718   6.318  10.696   5.103 -0.7741  0.5958 -0.2586
 6147SOL    HW221719   6.168  10.688   5.121 -0.6566 -1.1295  0.0322
 6148SOL     OW21720  10.333   8.296   7.037 -0.4457  0.4021 -0.6178
 6148SOL    HW121721  10.239   8.311   7.027 -0.7687 -0.9746  0.0167
 6148SOL    HW221722  10.345   8.287   7.132  0.2674  0.2692 -0.7179
 6149SOL     OW21723   1.001   4.852   0.977  0.0237  0.0355 -0.1781
 6149SOL    HW121724   0.937   4.918   1.002  0.4887  0.1763  0.7018
 6149SOL    HW221725   0.948   4.775   0.954 -0.4811  0.3837 -0.1977
 6150SOL     OW21726  10.902   4.696   4.016  0.2207 -0.1837  0.8520
 6150SOL    HW121727  10.855   4.705   4.100  1.4571  0.9479  1.4564
 6150SOL    HW221728  10.994   4.704   4.039  0.5684  0.5342 -0.6734
 6151SOL     OW21729   9.040   8.387   9.730 -0.2828  0.3379 -0.3768
 6151SOL    HW121730   9.078   8.317   9.676 -2.2653  0.5565 -2.1823
 6151SOL    HW221731   9.102   8.460   9.722 -0.2993  0.2011 -1.9898
 6152SOL     OW21732  11.387   1.013   8.076 -0.1714 -0.1739 -0.5186
 6152SOL    HW121733  11.321   0.951   8.106 -0.2973 -0.7408 -1.8807
 6152SOL    HW221734  11.336   1.084   8.037 -0.0391  0.9629  1.2625
 6153SOL     OW21735   3.446   6.145   8.725 -0.3093 -0.3919 -0.1263
 6153SOL    HW121736   3.416   6.202   8.654 -3.2071 -2.0429 -0.3498
 6153SOL    HW221737   3.417   6.057   8.700  1.8081 -1.6270  1.4090
 6154SOL     OW21738   1.029   2.261   0.558 -0.0734  0.2574 -0.9342
 6154SOL    HW121739   1.100   2.283   0.618 -0.2444  1.5570 -1.1738
 6154SOL    HW221740   0.969   2.207   0.610 -0.1587  1.2650  0.0481
 6155SOL     OW21741   7.949   4.841   8.994  0.0560 -0.7482 -0.4357
 6155SOL    HW121742   7.980   4.771   8.936  0.2758 -0.3983 -0.7402
 6155SOL    HW221743   7.895   4.896   8.938  1.5591  0.5038 -0.7293
 6156SOL     OW21744   0.808   8.938   0.020 -0.3970  0.1814  0.3817
 6156SOL    HW121745   0.832   8.850  -0.009  0.1835  0.5933 -0.4494
 6156SOL    HW221746   0.725   8.927   0.066 -1.5228 -0.4896 -1.6854
 6157SOL     OW21747   3.961   5.650   2.802  0.0378  0.3058 -0.6803
 6157SOL    HW121748   4.039   5.598   2.784  1.2788  1.7471  0.2776
 6157SOL    HW221749   3.888   5.589   2.790  1.3375 -1.2668 -0.9125
 6158SOL     OW21750   8.020   1.754   9.882 -0.7305  0.0158 -0.8478
 6158SOL    HW121751   8.083   1.760   9.954 -0.9781 -0.6774 -0.5587
 6158SOL    HW221752   8.015   1.842   9.846  0.9464 -0.0604 -1.3345
 6159SOL     OW21753   3.841   1.256   0.477  0.2727 -0.5398 -0.0365
 6159SOL    HW121754   3.877   1.344   0.474 -0.3954 -0.2880 -1.9302
 6159SOL    HW221755   3.906   1.205   0.525  1.5358  0.5934 -0.4844
 6160SOL     OW21756   9.070   1.815   5.666  0.0051 -0.0185 -0.1479
 6160SOL    HW121757   8.987   1.782   5.632 -0.0295 -0.0194 -0.0616
 6160SOL    HW221758   9.134   1.749   5.641  0.3320  0.9410 -2.0293
 6161SOL     OW21759   6.579   5.704   9.414 -0.0337 -0.3008  1.0229
 6161SOL    HW121760   6.611   5.789   9.444 -2.1985  0.6604  0.8034
 6161SOL    HW221761   6.501   5.725   9.362  0.2443 -2.3351 -0.2968
 6162SOL     OW21762   1.778   9.439   5.937 -0.1697  0.3636  0.5648
 6162SOL    HW121763   1.743   9.528   5.929  1.4845  1.0525  0.5254
 6162SOL    HW221764   1.714   9.393   5.990 -1.6546  1.2322 -0.3876
 6163SOL     OW21765  10.553   1.234   3.594  0.4127  0.2154 -0.0914
 6163SOL    HW121766  10.643   1.224   3.563  0.5693  0.9037  0.1330
 6163SOL    HW221767  10.499   1.225   3.515  0.4024 -3.4508  0.1454
 6164SOL     OW21768   9.585  10.150   7.032  0.1537 -0.3738 -0.0203
 6164SOL    HW121769   9.537  10.072   7.058 -2.1648  1.0685  0.3288
 6164SOL    HW221770   9.534  10.187   6.961  0.1900  1.7363  0.9738
 6165SOL     OW21771   8.926   5.398  10.267  0.4691  0.0136 -0.0276
 6165SOL    HW121772   9.018   5.387  10.242  0.2308  1.3126 -1.6076
 6165SOL    HW221773   8.878   5.400  10.184 -0.3644  4.7417  0.2665
 6166SOL     OW21774   8.122   1.390  11.075  0.0267 -0.5002  0.0172
 6166SOL    HW121775   8.158   1.368  10.989 -0.7257 -1.2184 -0.1314
 6166SOL    HW221776   8.148   1.480  11.090 -1.5185  0.3337 -1.8856
 6167SOL     OW21777   4.417   7.859   1.737 -0.0863 -0.6621 -0.0425
 6167SOL    HW121778   4.369   7.806   1.672  0.6761  0.5220 -1.6310
 6167SOL    HW221779   4.493   7.806   1.759  0.1471 -0.6773 -0.8531
 6168SOL     OW21780   9.574   7.309   0.756 -0.2466 -0.0346 -0.9870
 6168SOL    HW121781   9.590   7.401   0.739 -0.0989  0.1613  0.1188
 6168SOL    HW221782   9.545   7.306   0.847 -1.1057 -0.9854 -1.2676
 6169SOL     OW21783   5.011   7.920   8.841  0.3395  0.5756 -0.0929
 6169SOL    HW121784   5.080   7.891   8.902  0.1681  0.8595  0.2382
 6169SOL    HW221785   4.930   7.903   8.888  0.1125 -0.8846 -0.9474
 6170SOL     OW21786   6.115  11.081   5.476 -0.1240 -0.0811  0.5869
 6170SOL    HW121787   6.101  11.116   5.388  2.4518  1.8256  0.8057
 6170SOL    HW221788   6.102  11.157   5.533 -2.1467 -1.3767  1.9625
 6171SOL     OW21789   8.551   8.855   2.447 -0.0089 -0.0595  0.2088
 6171SOL    HW121790   8.575   8.897   2.529 -2.9308 -0.4386  1.3814
 6171SOL    HW221791   8.535   8.763   2.470 -0.4477 -0.2696 -0.8687
 6172SOL     OW21792  10.031   5.831   9.979 -0.2966  0.2031 -0.5203
 6172SOL    HW121793  10.044   5.778  10.058  0.1971  0.2171 -0.5945
 6172SOL    HW221794  10.007   5.918  10.013 -0.7782  0.0292 -0.3978
 6173SOL     OW21795   0.708  11.006   9.201 -0.1463  0.5418 -0.2207
 6173SOL    HW121796   0.640  11.073   9.214  1.2520  1.7041  1.6146
 6173SOL    HW221797   0.683  10.936   9.261 -0.2038  0.5712 -0.2093
 6174SOL     OW21798   0.333   5.305   2.398  0.5376  0.4142  0.5020
 6174SOL    HW121799   0.379   5.386   2.376  1.6750 -0.3636 -0.0867
 6174SOL    HW221800   0.363   5.283   2.486  1.6163 -0.2741 -0.0117
 6175SOL     OW21801   6.019   8.336   0.936 -0.1005  0.1316  0.2710
 6175SOL    HW121802   6.021   8.363   0.844 -0.1728 -0.3865  0.1159
 6175SOL    HW221803   5.929   8.349   0.963 -0.7400 -2.2041 -0.4983
 6176SOL     OW21804   7.415   0.980   7.749 -0.1258  0.1756  0.1292
 6176SOL    HW121805   7.387   1.050   7.808 -0.3581  0.9267 -0.8529
 6176SOL    HW221806   7.510   0.981   7.753 -0.1206 -1.5281  2.4845
 6177SOL     OW21807   6.166   2.761   9.477  0.0290 -0.0764 -0.4569
 6177SOL    HW121808   6.200   2.686   9.525  1.4083  0.7139 -0.1365
 6177SOL    HW221809   6.207   2.837   9.519 -2.1126  0.9568 -0.0978
 6178SOL     OW21810   0.857   9.318   8.584 -0.0007 -0.0711  0.4784
 6178SOL    HW121811   0.877   9.315   8.677  1.2513  1.1336  0.2821
 6178SOL    HW221812   0.854   9.226   8.557  0.3897 -0.4148  1.5507
 6179SOL     OW21813   6.990   7.152   6.473 -0.6365  0.1813 -1.1604
 6179SOL    HW121814   6.982   7.150   6.568 -0.4521  2.7188 -1.0195
 6179SOL    HW221815   7.037   7.072   6.451 -2.1593 -1.3049  0.6863
 6180SOL     OW21816   5.236   7.031   6.884  0.2935  0.4033  0.6095
 6180SOL    HW121817   5.204   6.942   6.899  1.7318 -0.9396 -3.0643
 6180SOL    HW221818   5.162   7.077   6.844  0.8478 -0.7373 -1.9276
 6181SOL     OW21819   7.475   2.304  11.155 -0.0915  0.3036  0.1353
 6181SOL    HW121820   7.507   2.326  11.068 -1.7313  1.3581 -0.2485
 6181SOL    HW221821   7.381   2.287  11.142 -0.6070  1.5992  1.8664
 6182SOL     OW21822   3.082   5.668   6.704 -0.1132  0.2911 -0.1137
 6182SOL    HW121823   2.999   5.630   6.733  0.1221  0.9239  1.4926
 6182SOL    HW221824   3.096   5.742   6.762  1.0497  0.8547 -1.0780
 6183SOL     OW21825   5.355   0.007   9.749 -0.2115 -0.3715 -0.0080
 6183SOL    HW121826   5.320   0.038   9.833  0.4662  1.7066 -0.4167
 6183SOL    HW221827   5.280  -0.031   9.704 -0.3316 -2.7269  1.9979
 6184SOL     OW21828   2.944   7.613   0.928  0.6252 -0.4957 -0.2228
 6184SOL    HW121829   2.920   7.568   0.847 -1.8041 -0.2719  0.2923
 6184SOL    HW221830   3.028   7.576   0.953  0.9389 -1.3018 -2.2975
 6185SOL     OW21831  10.780   0.893   5.857  0.5004 -0.5068 -0.5826
 6185SOL    HW121832  10.757   0.834   5.928  0.7676 -0.2202 -0.2532
 6185SOL    HW221833  10.786   0.837   5.780 -2.2210 -0.4891 -0.9079
 6186SOL     OW21834   7.638   2.957   6.480 -0.5374 -0.3512 -0.1166
 6186SOL    HW121835   7.553   2.983   6.445  0.0620  1.1716 -0.5452
 6186SOL    HW221836   7.701   2.993   6.418  0.4419 -0.9151  0.5260
 6187SOL     OW21837   3.673   3.383   0.857 -0.5741 -0.3154  0.3968
 6187SOL    HW121838   3.588   3.427   0.863 -0.6637 -0.6465  1.9758
 6187SOL    HW221839   3.662   3.321   0.785 -0.4783  2.0581 -1.7988
 6188SOL     OW21840  10.129  10.538   6.360 -0.1164 -0.0969 -0.0212
 6188SOL    HW121841  10.143  10.532   6.265 -0.3493  0.4108 -0.0923
 6188SOL    HW221842  10.038  10.565   6.368  0.3123  1.3717  0.2979
 6189SOL     OW21843   9.906   2.770   5.054 -0.1769 -0.8682 -0.0449
 6189SOL    HW121844   9.921   2.689   5.101 -0.9897 -0.9080  0.1661
 6189SOL    HW221845   9.908   2.745   4.961 -1.5454 -1.3640  0.0295
 6190SOL     OW21846   5.288   8.385   9.138  0.5223  0.2472 -0.1408
 6190SOL    HW121847   5.236   8.453   9.181 -2.9103 -1.0836 -1.7643
 6190SOL    HW221848   5.259   8.387   9.047  1.9311 -1.9239 -0.7153
 6191SOL     OW21849   9.179   5.445   0.149  0.4085  0.1157  0.3146
 6191SOL    HW121850   9.159   5.420   0.059 -1.3312  0.7490  0.4828
 6191SOL    HW221851   9.121   5.519   0.167  0.0809 -0.5416  2.2109
 6192SOL     OW21852  10.167   5.231   8.897 -0.2317 -0.0584 -0.1901
 6192SOL    HW121853  10.127   5.307   8.939 -0.3534  0.1286 -0.6397
 6192SOL    HW221854  10.096   5.193   8.846  0.4788  1.0708 -2.1158
 6193SOL     OW21855   9.515   2.042   8.871  0.4691  0.1675 -0.3929
 6193SOL    HW121856   9.561   2.121   8.899  0.6767 -0.0318 -0.1716
 6193SOL    HW221857   9.493   2.058   8.779 -0.3818  0.8989 -0.0787
 6194SOL     OW21858   7.594  11.056   5.997  0.1500 -0.1132  0.1823
 6194SOL    HW121859   7.632  11.011   5.921  1.2112  1.4317 -0.2330
 6194SOL    HW221860   7.662  11.053   6.063 -0.3308 -0.3873  0.6712
 6195SOL     OW21861  10.800   9.087  10.791  0.0584 -0.0138  0.1944
 6195SOL    HW121862  10.734   9.107  10.857  0.7144  1.4810  0.4428
 6195SOL    HW221863  10.848   9.169  10.779  0.9313 -0.6608 -1.0431
 6196SOL     OW21864   4.392   3.585   8.476  0.3299 -0.3079  0.4902
 6196SOL    HW121865   4.319   3.625   8.428  1.6774 -0.0743 -1.5184
 6196SOL    HW221866   4.361   3.498   8.500 -0.9048  0.1092  0.4447
 6197SOL     OW21867   1.369   8.817   4.360  0.1502 -0.1869 -0.0868
 6197SOL    HW121868   1.413   8.795   4.442  2.3605 -1.9829 -1.6177
 6197SOL    HW221869   1.429   8.876   4.316 -0.1054 -0.7152 -1.1779
 6198SOL     OW21870   1.496   4.007   6.413 -0.2763  0.0460 -0.1313
 6198SOL    HW121871   1.475   3.923   6.454  1.5417 -0.3643  0.0192
 6198SOL    HW221872   1.428   4.066   6.445  0.2421 -0.5916  2.3827
 6199SOL     OW21873   2.364   5.952   6.187 -0.1646 -0.1378  0.1854
 6199SOL    HW121874   2.346   5.912   6.101 -0.1754  2.1553 -0.9478
 6199SOL    HW221875   2.425   5.891   6.228 -0.2171 -1.3610 -1.4112
 6200SOL     OW21876   3.966   5.489   8.644  0.5029  0.2654  0.2314
 6200SOL    HW121877   4.009   5.461   8.725  2.8538  0.2505 -0.9520
 6200SOL    HW221878   3.974   5.585   8.645  0.7849  0.2468 -0.1045
 6201SOL     OW21879   4.715   5.247   1.762 -0.2780  0.4454  0.6447
 6201SOL    HW121880   4.706   5.187   1.835 -0.6831  0.6565  0.7666
 6201SOL    HW221881   4.714   5.334   1.802 -1.8431  0.6173  0.2679
 6202SOL     OW21882   0.092  11.291   9.515  0.1335  0.4720  0.0881
 6202SOL    HW121883   0.099  11.366   9.456 -2.2801  1.1664  0.5895
 6202SOL    HW221884   0.172  11.295   9.567  0.5145  2.1504 -0.5405
 6203SOL     OW21885   9.854   4.000   3.722  0.2773 -0.0863  0.2935
 6203SOL    HW121886   9.919   4.012   3.653  0.0291 -3.4765 -0.7374
 6203SOL    HW221887   9.770   4.003   3.676 -0.0310 -0.1184  0.8453
 6204SOL     OW21888   8.984   1.788   8.801 -0.1313  0.1759  0.4236
 6204SOL    HW121889   8.930   1.830   8.867  0.3745  2.2622 -0.4031
 6204SOL    HW221890   9.062   1.759   8.848  1.1007  3.3053  0.5736
 6205SOL     OW21891   9.451  10.839  10.540 -0.5580  0.4254  0.2898
 6205SOL    HW121892   9.410  10.898  10.477  0.4433 -0.8964 -1.7155
 6205SOL    HW221893   9.425  10.751  10.511  1.6241 -0.3188  0.3809
 6206SOL     OW21894   1.716   0.514   4.620  0.3499 -0.0083  0.3306
 6206SOL    HW121895   1.664   0.434   4.619 -0.2476  0.3466  1.3288
 6206SOL    HW221896   1.799   0.489   4.661  0.3504 -0.2219  0.1985
 6207SOL     OW21897   5.150   2.797  10.331 -0.3407  0.5857 -0.1561
 6207SOL    HW121898   5.127   2.730  10.396  1.6524 -0.3229 -0.3104
 6207SOL    HW221899   5.145   2.751  10.247  0.2083  0.8531 -0.3389
 6208SOL     OW21900   7.471   4.789   5.230 -0.5807 -0.2526  0.4230
 6208SOL    HW121901   7.543   4.852   5.220  0.3099 -0.6580  3.2952
 6208SOL    HW221902   7.430   4.814   5.313 -0.3561 -3.2236  1.5271
 6209SOL     OW21903   1.545   6.187   6.263 -0.3202  0.0930  0.3606
 6209SOL    HW121904   1.469   6.130   6.255 -1.0008  1.0774 -0.4851
 6209SOL    HW221905   1.514   6.273   6.234  0.4283  1.1372  2.4473
 6210SOL     OW21906   3.718   2.330   9.330 -0.4911 -0.4598  0.6811
 6210SOL    HW121907   3.788   2.387   9.363 -1.0321  0.5183  0.2075
 6210SOL    HW221908   3.755   2.288   9.253 -0.2284 -0.4093  0.7798
 6211SOL     OW21909   0.148   0.586   2.978  0.1889 -0.4126  0.5621
 6211SOL    HW121910   0.099   0.629   3.048 -1.3781 -1.0090 -0.1015
 6211SOL    HW221911   0.080   0.546   2.923  1.3145  0.5849 -1.6767
 6212SOL     OW21912   2.109   6.369   5.532 -0.3641 -0.1860 -0.4549
 6212SOL    HW121913   2.038   6.431   5.521  1.1616  1.7353  0.0055
 6212SOL    HW221914   2.067   6.283   5.525 -2.4881  0.8579 -1.4387
 6213SOL     OW21915   9.516   6.279  11.012  0.5777 -0.1026 -0.3260
 6213SOL    HW121916   9.581   6.347  11.031  1.0059 -0.8507  0.9803
 6213SOL    HW221917   9.506   6.231  11.094 -1.0425 -0.5233 -0.7232
 6214SOL     OW21918   6.703   7.682   0.228  0.2606  0.0064  0.2839
 6214SOL    HW121919   6.617   7.725   0.227  0.0515 -0.4036 -0.4886
 6214SOL    HW221920   6.756   7.735   0.286  0.3066  1.8937 -1.3649
 6215SOL     OW21921   8.115   8.868   8.315  0.2593  0.2501  0.2115
 6215SOL    HW121922   8.159   8.934   8.369 -1.3212  1.2688  0.3119
 6215SOL    HW221923   8.133   8.895   8.225  0.0679  0.4948  0.2482
 6216SOL     OW21924   1.544   5.552   4.678 -0.4705 -0.2142  0.6148
 6216SOL    HW121925   1.493   5.557   4.598  1.2177  2.1947 -0.4486
 6216SOL    HW221926   1.594   5.471   4.670  0.4451  0.4921 -1.3307
 6217SOL     OW21927   6.783   0.553   4.376 -0.4408  0.6858  0.2611
 6217SOL    HW121928   6.821   0.519   4.294 -1.1773  0.9792 -0.2160
 6217SOL    HW221929   6.780   0.477   4.434 -2.2385 -0.1630 -0.8569
 6218SOL     OW21930   4.568   9.181   0.727  0.1158 -0.1762 -0.1907
 6218SOL    HW121931   4.498   9.163   0.790  0.3878 -0.9565 -0.1081
 6218SOL    HW221932   4.649   9.177   0.779  0.3883 -1.3274 -0.6656
 6219SOL     OW21933   0.924   1.301   6.647 -0.8423 -0.5292 -0.6999
 6219SOL    HW121934   0.873   1.328   6.571  0.0978  2.2392 -0.4689
 6219SOL    HW221935   0.865   1.311   6.722 -0.8296 -0.1810 -0.7373
 6220SOL     OW21936   8.644   9.258   8.164 -0.1863  0.5575  0.4951
 6220SOL    HW121937   8.579   9.321   8.193 -1.4105 -0.9141  1.0952
 6220SOL    HW221938   8.680   9.221   8.245  0.0750  0.0655  0.1614
 6221SOL     OW21939   9.222  10.605   0.539 -0.0246  0.7861  0.4179
 6221SOL    HW121940   9.240  10.513   0.518 -0.8223  0.9899 -1.2613
 6221SOL    HW221941   9.303  10.635   0.581  0.2189 -0.6889  1.0775
 6222SOL     OW21942   6.072   4.778   2.279  0.2450  0.3237  0.4379
 6222SOL    HW121943   5.999   4.716   2.273 -0.1290  0.8408 -0.9479
 6222SOL    HW221944   6.122   4.763   2.198  2.2466 -0.6646  1.7680
 6223SOL     OW21945   1.721   1.521   5.828  0.6569  0.4573 -0.4005
 6223SOL    HW121946   1.724   1.606   5.871 -0.5329  0.9932 -1.3459
 6223SOL    HW221947   1.709   1.459   5.900 -2.8764  1.4622  0.0356
 6224SOL     OW21948   8.885   8.628   9.831 -0.2767 -0.4593 -0.6795
 6224SOL    HW121949   8.802   8.580   9.824 -0.3446 -0.1038 -3.2920
 6224SOL    HW221950   8.951   8.560   9.841 -0.6068 -0.9682 -1.8073
 6225SOL     OW21951   4.067   6.898   8.435 -0.0488  0.5623  0.5158
 6225SOL    HW121952   4.068   6.974   8.378  2.3862  0.8935  0.8785
 6225SOL    HW221953   4.070   6.823   8.376 -1.0233  0.7797  0.1812
 6226SOL     OW21954   0.140   6.951   1.238 -0.4312 -0.4769 -0.7661
 6226SOL    HW121955   0.120   6.946   1.144 -1.0469 -1.2786 -0.6087
 6226SOL    HW221956   0.061   6.920   1.281 -0.4740  0.7312  0.0665
 6227SOL     OW21957   1.928  11.005   1.174  0.2053  0.2407  0.3728
 6227SOL    HW121958   1.884  10.927   1.141  0.6047  0.0122  0.3646
 6227SOL    HW221959   1.872  11.077   1.147  0.4578  0.0532 -0.7113
 6228SOL     OW21960   5.847   7.666   1.008  0.4141  0.6941  0.1637
 6228SOL    HW121961   5.823   7.749   0.967  0.1682  0.1575 -0.8129
 6228SOL    HW221962   5.912   7.628   0.949  0.3377  0.0799  0.4684
 6229SOL     OW21963   1.858   2.768   7.319  0.0665  0.2220  0.4566
 6229SOL    HW121964   1.819   2.795   7.402 -0.6228  1.4582 -0.2521
 6229SOL    HW221965   1.820   2.827   7.254  1.1941 -0.2141 -0.6286
 6230SOL     OW21966   8.303   7.365   3.757 -0.6022 -0.3923 -0.6895
 6230SOL    HW121967   8.231   7.336   3.813 -0.5468  1.3047  0.3264
 6230SOL    HW221968   8.259   7.401   3.680 -1.0002  1.7762  0.4559
 6231SOL     OW21969  10.734   3.081   6.776 -0.4211  0.2171 -0.1626
 6231SOL    HW121970  10.806   3.065   6.716  0.2489  0.9880  0.4181
 6231SOL    HW221971  10.657   3.044   6.731  0.2907 -0.4732 -0.8517
 6232SOL     OW21972  10.994   9.709  10.095 -0.4850 -0.5138  0.3348
 6232SOL    HW121973  11.078   9.755  10.087  0.5976 -2.2329  1.1995
 6232SOL    HW221974  10.947   9.730  10.015  0.4370  1.1264  0.1827
 6233SOL     OW21975   1.733   9.895   7.471 -0.4327 -0.4308  0.2651
 6233SOL    HW121976   1.772   9.956   7.408 -1.3987 -0.9827 -0.8938
 6233SOL    HW221977   1.777   9.812   7.454  0.4567 -0.2284  1.4418
 6234SOL     OW21978   3.004   8.836   4.415  0.0213 -0.1911 -0.3135
 6234SOL    HW121979   2.909   8.841   4.417 -0.0308 -0.9752 -0.8921
 6234SOL    HW221980   3.028   8.854   4.324  0.5808  2.2929  0.2334
 6235SOL     OW21981   9.286   1.697   7.194 -0.2139  0.0174  0.3750
 6235SOL    HW121982   9.213   1.734   7.244 -0.5884 -2.1061  1.5142
 6235SOL    HW221983   9.247   1.624   7.146  1.1809 -1.4450  1.3610
 6236SOL     OW21984   7.286   4.917   5.018 -0.1882 -0.3282 -0.7670
 6236SOL    HW121985   7.200   4.889   4.988 -1.0358  1.5282 -0.2337
 6236SOL    HW221986   7.328   4.837   5.050 -1.7214 -1.2591 -0.9964
 6237SOL     OW21987   5.801   2.512   2.969  0.4328 -0.1172 -0.2710
 6237SOL    HW121988   5.712   2.515   2.935  0.7053  1.3256 -0.9425
 6237SOL    HW221989   5.847   2.452   2.911  0.0297 -0.4459 -0.2502
 6238SOL     OW21990   7.139  10.160   8.923  0.1551 -0.1421 -0.2014
 6238SOL    HW121991   7.229  10.129   8.911  0.5522  1.1268 -0.6377
 6238SOL    HW221992   7.116  10.129   9.011  1.1543 -0.1599  0.0739
 6239SOL     OW21993   2.434   4.952  11.011  0.3092 -0.0430 -0.1759
 6239SOL    HW121994   2.496   4.953  11.084 -0.1843 -0.4628  0.2542
 6239SOL    HW221995   2.434   5.042  10.979  1.2900 -0.0784 -0.3166
 6240SOL     OW21996   8.924   0.053   7.233  0.2422  0.6472  0.3981
 6240SOL    HW121997   8.963   0.119   7.291 -0.1944 -1.1398  2.8899
 6240SOL    HW221998   8.865   0.003   7.290  0.2197 -1.6085 -1.4545
 6241SOL     OW21999   4.409   3.328  10.622  0.2179 -0.0533 -0.2236
 6241SOL    HW122000   4.378   3.372  10.701  0.1053 -1.1233  0.3419
 6241SOL    HW222001   4.504   3.333  10.627  0.2169 -0.3996  0.1426
 6242SOL     OW22002   0.316   5.249  10.804 -1.1195 -0.0254  0.0278
 6242SOL    HW122003   0.377   5.315  10.837  1.2506 -2.1253  0.1619
 6242SOL    HW222004   0.268   5.220  10.882 -3.4441  2.5718 -0.2753
 6243SOL     OW22005   0.815   1.986   4.909  0.0857 -0.3783  0.4313
 6243SOL    HW122006   0.887   2.013   4.852  0.7517 -0.1747  1.3536
 6243SOL    HW222007   0.854   1.924   4.970 -0.6328 -0.6419  0.6311
 6244SOL     OW22008   1.665   9.635   3.519 -0.3422 -0.3565 -0.6014
 6244SOL    HW122009   1.755   9.626   3.487  0.3067  1.2324  0.6420
 6244SOL    HW222010   1.626   9.701   3.461 -0.1157  0.2949 -0.0243
 6245SOL     OW22011   0.964   8.295   7.072 -0.1017  0.0975 -0.0042
 6245SOL    HW122012   0.943   8.309   6.980  0.8139 -1.4656 -0.4709
 6245SOL    HW222013   0.884   8.259   7.110 -0.8310  1.7245  0.0925
 6246SOL     OW22014   3.185   4.774   2.045 -0.0789 -0.0600  0.3564
 6246SOL    HW122015   3.165   4.846   2.105 -2.0346  0.0502 -0.3767
 6246SOL    HW222016   3.182   4.696   2.100  1.8335  0.3360  1.1102
 6247SOL     OW22017   1.940   6.580   9.503 -0.0100 -0.2028 -0.1879
 6247SOL    HW122018   1.988   6.511   9.549  1.4834 -0.1777 -1.6010
 6247SOL    HW222019   1.891   6.625   9.571  0.0542 -1.7904  0.9721
 6248SOL     OW22020   8.516   5.905   7.584 -0.4159 -0.8864  0.4242
 6248SOL    HW122021   8.524   5.990   7.627  0.9066 -0.7418 -0.0526
 6248SOL    HW222022   8.528   5.925   7.491 -1.7428 -1.3898  0.1251
 6249SOL     OW22023   8.347   7.132   5.067  0.4225 -0.3671 -0.2820
 6249SOL    HW122024   8.376   7.223   5.073  1.1600 -0.6543  0.9008
 6249SOL    HW222025   8.371   7.093   5.151 -3.8591 -0.5650  1.0918
 6250SOL     OW22026   7.603   9.741  10.855  0.1232  0.4862 -0.0837
 6250SOL    HW122027   7.607   9.803  10.781  0.2859  0.1184 -0.3841
 6250SOL    HW222028   7.535   9.679  10.829  0.2209  0.3242  0.0520
 6251SOL     OW22029   5.043   6.369   9.459  0.0291 -0.1620  0.1850
 6251SOL    HW122030   4.983   6.366   9.533  0.4069  2.7558  0.7362
 6251SOL    HW222031   5.116   6.314   9.485 -0.4676 -0.2633  1.4068
 6252SOL     OW22032   3.158  11.319   7.964 -0.3004  0.2916 -0.0480
 6252SOL    HW122033   3.182  11.411   7.958  1.4403 -0.1198 -0.0082
 6252SOL    HW222034   3.203  11.278   7.890  0.3177 -0.7587  0.8802
 6253SOL     OW22035   0.067   7.077  10.535  0.1655 -0.0014 -0.4707
 6253SOL    HW122036   0.062   7.171  10.517 -0.2349 -0.0352 -0.5711
 6253SOL    HW222037   0.149   7.065  10.581 -0.0498  0.4845  0.0566
 6254SOL     OW22038  10.373   9.114   1.471 -0.2789  0.4921  0.6365
 6254SOL    HW122039  10.293   9.077   1.435 -0.1084  0.5826  0.1630
 6254SOL    HW222040  10.407   9.171   1.402  1.1404 -0.9035  0.1096
 6255SOL     OW22041   4.394   1.623   7.024  0.1235 -0.5644 -0.1432
 6255SOL    HW122042   4.440   1.560   7.080 -1.6642 -2.0926 -0.3210
 6255SOL    HW222043   4.383   1.578   6.941 -0.6451  0.2366 -0.4888
 6256SOL     OW22044   3.570   4.779   0.641 -0.4989  0.7564 -0.5688
 6256SOL    HW122045   3.482   4.816   0.640 -0.7745  0.1020 -1.0321
 6256SOL    HW222046   3.610   4.815   0.720 -0.0665  3.5966 -1.9633
 6257SOL     OW22047   9.394   5.175   7.903 -0.8672 -0.6605  0.7858
 6257SOL    HW122048   9.388   5.080   7.911 -0.7032 -0.6903  0.5557
 6257SOL    HW222049   9.487   5.192   7.886 -1.0348 -0.5325 -0.0796
 6258SOL     OW22050   1.712   6.494   7.279  0.4865  0.0277 -0.2892
 6258SOL    HW122051   1.792   6.539   7.306  1.0396 -1.5493  0.8311
 6258SOL    HW222052   1.740   6.406   7.256 -0.8361 -0.3726 -0.4725
 6259SOL     OW22053   5.474   4.625   8.006 -0.5250  0.2103  0.1394
 6259SOL    HW122054   5.469   4.720   7.992  0.1151  0.0944 -1.0132
 6259SOL    HW222055   5.400   4.590   7.956  0.2310 -0.0038 -0.8812
 6260SOL     OW22056   8.910   7.630   7.320  0.7246 -0.3467 -0.3674
 6260SOL    HW122057   8.898   7.686   7.243  0.4293  0.6742  0.3953
 6260SOL    HW222058   8.947   7.689   7.386 -0.7795 -0.7415  0.8624
 6261SOL     OW22059   4.669   8.148   1.624  0.3120 -0.0801 -0.6778
 6261SOL    HW122060   4.689   8.067   1.671  0.2142  0.4715  0.3234
 6261SOL    HW222061   4.577   8.165   1.643  0.4402  0.4871 -0.5545
 6262SOL     OW22062   3.885   1.725  11.002  0.3749  0.2447 -0.3990
 6262SOL    HW122063   3.878   1.759  11.092 -1.8161  0.2903 -0.5393
 6262SOL    HW222064   3.879   1.802  10.947 -0.1514  0.0510 -0.6174
 6263SOL     OW22065   0.442   8.972   7.031 -0.0074 -0.0457 -0.3139
 6263SOL    HW122066   0.494   8.919   7.091  0.6528 -1.1320 -1.7769
 6263SOL    HW222067   0.394   8.909   6.978 -0.7291  0.8875 -0.8129
 6264SOL     OW22068   0.703   6.381   6.190  0.3974 -0.3413  0.7817
 6264SOL    HW122069   0.691   6.286   6.197 -0.5020 -0.2463  0.6629
 6264SOL    HW222070   0.793   6.396   6.221  0.3971 -1.1788  1.2279
 6265SOL     OW22071  11.280  10.368  11.284  0.3688 -0.3065  0.3873
 6265SOL    HW122072  11.198  10.385  11.330  1.1185  0.0933  1.6062
 6265SOL    HW222073  11.297  10.449  11.235 -0.5031 -0.7872 -0.7730
 6266SOL     OW22074  10.104   6.108   2.841 -0.1626 -0.4000 -0.1125
 6266SOL    HW122075  10.146   6.194   2.835 -1.6332  0.3331 -0.4239
 6266SOL    HW222076  10.012   6.128   2.858 -0.6520 -1.9030 -0.8595
 6267SOL     OW22077   0.113   0.776   1.047 -0.8838 -0.0804 -0.0212
 6267SOL    HW122078   0.056   0.709   1.009 -0.6525 -0.2624 -0.0455
 6267SOL    HW222079   0.135   0.742   1.134  0.5232 -0.7924 -0.6300
 6268SOL     OW22080   7.359   3.251   5.603  0.9422  0.2867  0.0524
 6268SOL    HW122081   7.417   3.302   5.660  0.2176  0.3633  0.7347
 6268SOL    HW222082   7.391   3.270   5.514  3.7017 -1.8091  0.4588
 6269SOL     OW22083   8.889   5.346   3.541 -0.0431  0.0253 -0.1434
 6269SOL    HW122084   8.925   5.435   3.545  0.1821 -0.0719  0.0201
 6269SOL    HW222085   8.838   5.337   3.622  1.5023 -0.6595  0.7981
 6270SOL     OW22086   0.196   0.800   4.211 -0.0467  0.0358 -0.0172
 6270SOL    HW122087   0.127   0.738   4.185 -0.3295  0.4490 -0.2558
 6270SOL    HW222088   0.220   0.845   4.131  0.3560  0.0472  0.1071
 6271SOL     OW22089   0.736   6.978   3.907  0.0662 -0.1780 -0.6494
 6271SOL    HW122090   0.818   6.947   3.945 -0.5400 -1.5925 -0.4337
 6271SOL    HW222091   0.668   6.939   3.963 -0.8356 -1.9054 -2.8026
 6272SOL     OW22092   0.204  11.325   8.022  0.0371 -0.1374  0.3861
 6272SOL    HW122093   0.244  11.301   8.106 -1.9232  0.2515  1.4886
 6272SOL    HW222094   0.188  11.241   7.978 -0.3736 -0.4552  1.1193
 6273SOL     OW22095   5.810   2.338   4.690 -0.0199 -0.1651 -0.1334
 6273SOL    HW122096   5.892   2.348   4.738  0.1736 -0.8140 -0.3240
 6273SOL    HW222097   5.827   2.378   4.605 -0.5128  1.4201  0.4738
 6274SOL     OW22098  11.297   1.161   0.220  0.3130  0.3540 -0.5508
 6274SOL    HW122099  11.261   1.194   0.138 -1.2047  0.7905  0.2425
 6274SOL    HW222100  11.302   1.238   0.277 -0.9487 -0.3084  0.5211
 6275SOL     OW22101   3.285   1.312   0.033  0.1838 -0.1376  0.5607
 6275SOL    HW122102   3.331   1.392   0.061 -1.9543  1.3377  0.1060
 6275SOL    HW222103   3.283   1.318  -0.062 -0.1895 -0.6265  0.5380
 6276SOL     OW22104   3.001   1.245  11.037  0.0973  0.3757 -0.2231
 6276SOL    HW122105   2.968   1.295  11.112 -2.6804 -0.1427 -1.0050
 6276SOL    HW222106   3.044   1.310  10.982  0.8049  1.0245  1.0380
 6277SOL     OW22107   4.799  10.169   2.295  0.4390 -0.3618 -0.2024
 6277SOL    HW122108   4.811  10.244   2.236  0.3060 -0.1847 -0.0050
 6277SOL    HW222109   4.829  10.094   2.244 -1.1978 -0.4393 -1.1208
 6278SOL     OW22110   7.102   1.084   1.050  0.0956 -0.1717 -0.7596
 6278SOL    HW122111   7.173   1.020   1.052  0.6724  0.4523  0.7758
 6278SOL    HW222112   7.032   1.041   1.002 -0.1364 -2.6306  1.5491
 6279SOL     OW22113   6.603   8.578   6.584 -0.0631 -0.2670 -0.3820
 6279SOL    HW122114   6.580   8.525   6.508  1.1085 -1.0841 -0.1939
 6279SOL    HW222115   6.614   8.515   6.655  0.1063  0.3544  0.1552
 6280SOL     OW22116   1.861   3.952   6.118  0.3554  0.1089 -0.1588
 6280SOL    HW122117   1.881   3.977   6.208  0.4419 -0.4600 -0.0106
 6280SOL    HW222118   1.940   3.975   6.069  0.2693  0.5146 -0.1102
 6281SOL     OW22119   0.543   7.140  10.440 -1.0758 -0.3597  0.1107
 6281SOL    HW122120   0.609   7.183  10.494 -1.9726  0.6175  0.4585
 6281SOL    HW222121   0.536   7.194  10.362 -2.7556  0.6043  0.8866
 6282SOL     OW22122   6.166   2.149   5.452  0.3302  0.0842  0.0435
 6282SOL    HW122123   6.099   2.209   5.485  0.5748  0.1820  0.3610
 6282SOL    HW222124   6.249   2.184   5.485  0.6519  0.5227 -1.1483
 6283SOL     OW22125   6.036   3.604   9.914 -0.5916  0.6905 -0.3952
 6283SOL    HW122126   5.999   3.662   9.981 -1.6318 -0.8418  0.4372
 6283SOL    HW222127   6.090   3.542   9.964  0.6412  1.0472 -1.2734
 6284SOL     OW22128   5.733   0.544   5.036  0.0673 -0.1525  0.5459
 6284SOL    HW122129   5.764   0.583   4.954  1.3184  1.2689  1.6300
 6284SOL    HW222130   5.811   0.506   5.076 -1.0912 -3.9800 -0.4476
 6285SOL     OW22131  10.104   4.519   5.439 -0.2716  0.1409 -0.1199
 6285SOL    HW122132  10.135   4.439   5.481  2.5478  1.5761  0.8102
 6285SOL    HW222133  10.149   4.520   5.354 -0.0758  0.8563 -0.0141
 6286SOL     OW22134   2.393   0.015   7.052  0.6796 -0.1211  0.1406
 6286SOL    HW122135   2.418  -0.077   7.063  1.3339  0.2196  1.6619
 6286SOL    HW222136   2.309   0.012   7.006  1.0142 -1.4524 -0.4180
 6287SOL     OW22137   0.441   8.225   1.042 -0.0767 -0.3568 -0.3164
 6287SOL    HW122138   0.482   8.302   1.002  0.9570  0.5263  2.2136
 6287SOL    HW222139   0.363   8.208   0.989  0.7418  1.1932 -2.1208
 6288SOL     OW22140   6.775   6.304   0.785  0.1249 -0.5275  0.3974
 6288SOL    HW122141   6.769   6.391   0.745 -3.9655 -1.1814 -0.8760
 6288SOL    HW222142   6.774   6.321   0.880 -0.1636  0.8209  0.1738
 6289SOL     OW22143   1.197   2.012   6.024 -0.2415  0.5942 -0.3237
 6289SOL    HW122144   1.142   2.089   6.038 -0.7196  0.1235  0.4404
 6289SOL    HW222145   1.285   2.042   6.046 -0.2849  1.1504 -0.8623
 6290SOL     OW22146   8.345   8.994   3.863 -0.0757  0.8152 -0.1544
 6290SOL    HW122147   8.341   8.899   3.854  1.0037  0.5749  1.5252
 6290SOL    HW222148   8.282   9.027   3.798  0.1759 -0.9837 -1.3815
 6291SOL     OW22149   8.078   0.764   9.748 -0.0827 -0.0942  0.2354
 6291SOL    HW122150   8.113   0.854   9.748 -0.6827  0.1592 -1.2628
 6291SOL    HW222151   8.156   0.709   9.741  0.2164  0.3642 -0.1585
 6292SOL     OW22152   5.490   8.802   5.985 -0.3322 -0.0155 -0.3649
 6292SOL    HW122153   5.427   8.873   5.998 -0.4199 -0.1650  0.0266
 6292SOL    HW222154   5.527   8.786   6.072 -1.4325 -1.5018 -0.1315
 6293SOL     OW22155   3.117   6.355   6.759 -0.2010  0.6081 -0.4283
 6293SOL    HW122156   3.103   6.262   6.777  0.7905  0.4811 -0.2311
 6293SOL    HW222157   3.188   6.357   6.695 -0.3467  1.2279 -0.5807
 6294SOL     OW22158   3.671   0.811   3.006  0.0215  0.0810 -0.1156
 6294SOL    HW122159   3.754   0.848   2.973  0.1987 -0.3908 -0.1997
 6294SOL    HW222160   3.677   0.718   2.986 -0.4063 -0.0014  0.1462
 6295SOL     OW22161   9.604   0.082   9.780  0.3183  0.5194  0.0218
 6295SOL    HW122162   9.627   0.157   9.836 -1.4504  0.8672  0.3650
 6295SOL    HW222163   9.543   0.118   9.716 -0.7474 -0.6490  0.3329
 6296SOL     OW22164   8.252   6.705   1.729 -0.0243 -0.7165 -0.3415
 6296SOL    HW122165   8.298   6.682   1.648 -1.1032  0.5522 -1.3634
 6296SOL    HW222166   8.311   6.679   1.799  1.1849 -1.3247 -1.5466
 6297SOL     OW22167   7.240   1.924   0.849 -0.1656  0.1191 -0.3835
 6297SOL    HW122168   7.285   1.926   0.765 -0.6151 -0.7995 -0.6507
 6297SOL    HW222169   7.230   1.831   0.869  0.7183  0.3166  1.1099
 6298SOL     OW22170   7.201   1.762   0.410  0.1429  0.2965  0.0182
 6298SOL    HW122171   7.186   1.685   0.355 -1.8211  1.4487 -1.1954
 6298SOL    HW222172   7.218   1.727   0.497 -3.0240 -1.5582  0.0426
 6299SOL     OW22173   6.878  10.355   5.931  0.2745  0.1115  0.0462
 6299SOL    HW122174   6.939  10.429   5.922 -2.2355  2.5930  2.0269
 6299SOL    HW222175   6.815  10.367   5.860 -1.7226  1.6373  1.9428
 6300SOL     OW22176   2.502   2.412   3.729  0.0035  0.0302  0.3973
 6300SOL    HW122177   2.558   2.414   3.807  0.0378 -0.0005  0.3733
 6300SOL    HW222178   2.559   2.439   3.657  0.2662 -1.0329  0.1942
 6301SOL     OW22179  10.457   3.605   3.408 -0.0640 -0.1795  0.0187
 6301SOL    HW122180  10.432   3.516   3.432  1.8245 -0.8959 -0.4809
 6301SOL    HW222181  10.488   3.598   3.318  1.4239  0.6860  0.4219
 6302SOL     OW22182  10.394   5.661   5.272 -0.2118 -0.1745  0.2603
 6302SOL    HW122183  10.313   5.612   5.259  0.2745 -0.7348 -0.7440
 6302SOL    HW222184  10.463   5.595   5.264  0.3193  0.1164  2.0565
 6303SOL     OW22185   1.480   0.640   2.645  0.4882 -0.2779 -0.3166
 6303SOL    HW122186   1.444   0.720   2.683  1.9624 -0.7238  2.2178
 6303SOL    HW222187   1.494   0.662   2.553 -2.0717  1.2991 -0.4333
 6304SOL     OW22188   0.960   6.462   6.702 -0.2834 -0.2727 -0.2560
 6304SOL    HW122189   0.993   6.486   6.616  0.0209 -1.4515 -0.4768
 6304SOL    HW222190   0.890   6.526   6.719 -0.0178  0.2733 -1.1491
 6305SOL     OW22191   3.197  11.105   3.243 -0.4690  0.3722  1.3137
 6305SOL    HW122192   3.153  11.021   3.230 -0.5574  0.0609  3.2734
 6305SOL    HW222193   3.242  11.095   3.327 -0.3943  2.2422  1.5333
 6306SOL     OW22194   2.226   5.941   4.146 -0.4194 -0.5424 -0.0808
 6306SOL    HW122195   2.276   5.860   4.149  0.0612 -0.2291  0.4636
 6306SOL    HW222196   2.174   5.934   4.066  0.0959 -1.1015 -0.3706
 6307SOL     OW22197   5.594   8.128   8.053  0.0278  1.1849  0.3425
 6307SOL    HW122198   5.508   8.102   8.021 -0.8253  3.7959  0.2737
 6307SOL    HW222199   5.638   8.163   7.975  0.3733  1.7212  0.7761
 6308SOL     OW22200   4.623   0.118   9.401 -0.3892 -0.2617 -0.0431
 6308SOL    HW122201   4.590   0.159   9.481 -0.4838 -1.8468  0.7624
 6308SOL    HW222202   4.675   0.187   9.358 -0.9198  0.8264  1.0110
 6309SOL     OW22203   7.020   0.902   8.954  0.0054 -0.3831  0.3720
 6309SOL    HW122204   6.958   0.907   8.882 -0.3729  2.1013  0.8008
 6309SOL    HW222205   7.106   0.906   8.912 -0.1961  0.2028  0.0079
 6310SOL     OW22206   6.605   6.028   2.135 -0.1638  0.0418  0.2059
 6310SOL    HW122207   6.594   5.945   2.182 -2.0670 -0.2947 -0.7192
 6310SOL    HW222208   6.693   6.023   2.099  0.2508 -0.9759  1.2863
 6311SOL     OW22209   9.682   1.632  10.373  0.0014  0.0253 -0.5040
 6311SOL    HW122210   9.763   1.678  10.353  0.1580  0.0394  0.1274
 6311SOL    HW222211   9.677   1.562  10.308  0.9916 -0.5295 -0.0078
 6312SOL     OW22212   8.753   2.958   3.365  0.0436  0.1733  0.3264
 6312SOL    HW122213   8.723   3.001   3.445  1.8208  0.1270  1.0607
 6312SOL    HW222214   8.682   2.972   3.303 -1.6882 -0.3706  2.0923
 6313SOL     OW22215   8.073   0.624   8.597 -0.8473 -0.4967  0.2414
 6313SOL    HW122216   8.160   0.661   8.610 -1.1306 -0.1356  1.1811
 6313SOL    HW222217   8.088   0.530   8.584 -0.4387 -0.7670  2.3558
 6314SOL     OW22218   4.430   8.139   7.513  0.2705 -0.1953  0.1018
 6314SOL    HW122219   4.348   8.089   7.519  0.5283 -0.4574  3.2749
 6314SOL    HW222220   4.408   8.225   7.548  0.9522  0.3588 -0.7974
 6315SOL     OW22221   3.341   3.018  10.475  0.0906  0.2177  0.5127
 6315SOL    HW122222   3.425   3.012  10.521 -0.3613 -1.3361  1.1897
 6315SOL    HW222223   3.275   3.002  10.543 -0.8211  2.0588  0.1291
 6316SOL     OW22224   9.541   5.864   7.927 -0.5541 -0.0453  0.4463
 6316SOL    HW122225   9.627   5.824   7.915  0.1978  1.2656  1.1426
 6316SOL    HW222226   9.544   5.900   8.016 -1.3198  1.1815  0.0013
 6317SOL     OW22227   7.239   8.610   0.374 -0.4817 -0.1913 -0.4184
 6317SOL    HW122228   7.235   8.704   0.388  0.6568  0.1507 -2.1383
 6317SOL    HW222229   7.244   8.573   0.463 -0.8460  1.3459  0.2798
 6318SOL     OW22230   6.649   1.332   8.828 -0.1978 -0.0633  0.1115
 6318SOL    HW122231   6.678   1.285   8.907  1.8067  0.3123 -0.3505
 6318SOL    HW222232   6.718   1.396   8.812 -1.0917  0.5598 -1.3659
 6319SOL     OW22233   4.303   2.866   1.807  0.6840  0.3157  0.7718
 6319SOL    HW122234   4.365   2.825   1.747 -0.2840 -1.2348  0.7688
 6319SOL    HW222235   4.234   2.901   1.751  0.2825 -0.2461  0.9044
 6320SOL     OW22236   4.195   2.480   7.166 -0.5284 -0.2541  0.7313
 6320SOL    HW122237   4.163   2.402   7.120  0.3278  0.3059 -0.9250
 6320SOL    HW222238   4.280   2.498   7.125  0.0532  0.6002  2.2290
 6321SOL     OW22239   1.679   8.241  10.156 -0.4840 -0.2486 -0.0592
 6321SOL    HW122240   1.609   8.198  10.108  0.2574 -1.8001  0.1916
 6321SOL    HW222241   1.741   8.270  10.089 -0.1580 -1.1157 -0.1413
 6322SOL     OW22242   0.846   4.859   5.828 -0.7393 -0.5145  0.0288
 6322SOL    HW122243   0.829   4.949   5.856  0.1531 -0.8386  1.7184
 6322SOL    HW222244   0.761   4.827   5.798 -2.3986 -0.7620  4.2727
 6323SOL     OW22245   0.443   9.113   1.546 -0.1838  0.2220 -0.5378
 6323SOL    HW122246   0.461   9.037   1.601  3.0277  0.5674 -0.9195
 6323SOL    HW222247   0.442   9.078   1.456 -1.8345  0.2059 -0.5384
 6324SOL     OW22248   4.550   4.098   6.463 -0.0103 -0.7582 -0.7923
 6324SOL    HW122249   4.619   4.151   6.422 -1.5214  0.8838 -1.3669
 6324SOL    HW222250   4.595   4.018   6.491  2.1160  0.2333 -1.1145
 6325SOL     OW22251   6.127   4.013   3.343 -0.0555  0.5141  0.5002
 6325SOL    HW122252   6.167   3.935   3.382 -2.8675 -1.3472 -0.0167
 6325SOL    HW222253   6.046   4.025   3.392 -1.8202  0.3989 -2.1656
 6326SOL     OW22254  10.239   8.008   0.209 -0.1453  0.9884 -0.0487
 6326SOL    HW122255  10.297   8.047   0.144 -0.9060  2.1992 -0.0346
 6326SOL    HW222256  10.264   8.048   0.291 -0.9768  1.5105 -0.0403
 6327SOL     OW22257   9.392   1.525  10.094  0.1712  0.1447  0.3541
 6327SOL    HW122258   9.410   1.502  10.185  0.6342  0.3739  0.3228
 6327SOL    HW222259   9.476   1.515  10.050 -0.2021 -0.6794 -0.1998
 6328SOL     OW22260   3.095   5.406   4.730  0.1508 -0.2027  0.0812
 6328SOL    HW122261   3.157   5.349   4.776 -2.0580 -3.2794 -0.4412
 6328SOL    HW222262   3.009   5.374   4.757 -1.2585  2.6352 -0.6849
 6329SOL     OW22263   7.881   6.734   7.001  0.8570 -0.3252  0.2631
 6329SOL    HW122264   7.939   6.801   6.966 -0.8130  0.7083 -0.6467
 6329SOL    HW222265   7.870   6.672   6.929  0.3977 -0.2212  0.2420
 6330SOL     OW22266   1.884   3.528  10.935  0.2048 -0.1269 -0.2862
 6330SOL    HW122267   1.921   3.603  10.888 -1.5139  0.4491 -0.7952
 6330SOL    HW222268   1.858   3.563  11.020  3.0472 -1.1038  1.0854
 6331SOL     OW22269   7.874   2.751   5.232  0.2362 -0.7102 -0.6921
 6331SOL    HW122270   7.838   2.662   5.237 -1.5527  0.0330  0.9135
 6331SOL    HW222271   7.819   2.796   5.169 -1.5454  0.3174  1.4617
 6332SOL     OW22272   6.954   2.099   9.867 -0.4099  0.4400 -0.0126
 6332SOL    HW122273   7.046   2.081   9.887 -0.3190  1.3311  0.4213
 6332SOL    HW222274   6.923   2.020   9.823  0.0920 -0.5707  1.3632
 6333SOL     OW22275   2.408   7.496   8.230 -0.1967  0.0532  0.0830
 6333SOL    HW122276   2.454   7.435   8.172  0.2385 -0.2777  0.7664
 6333SOL    HW222277   2.316   7.472   8.223 -0.3755  1.0309 -1.6823
 6334SOL     OW22278   2.881   1.186   0.940 -0.1960 -0.4835  0.1246
 6334SOL    HW122279   2.914   1.114   0.887 -0.4268 -0.4420 -0.0758
 6334SOL    HW222280   2.950   1.252   0.937  0.4055 -1.0468  1.0369
 6335SOL     OW22281   1.894   4.977   1.055  0.3513  0.7011  0.1132
 6335SOL    HW122282   1.848   5.055   1.085 -1.1429 -0.1250  0.0502
 6335SOL    HW222283   1.940   5.005   0.976 -0.0121  1.5557  0.1892
 6336SOL     OW22284   8.530  10.773   7.840 -0.0490  0.5854  0.2141
 6336SOL    HW122285   8.460  10.774   7.907  0.7308  0.7667  1.0479
 6336SOL    HW222286   8.560  10.682   7.838  1.4504  0.9855  1.7812
 6337SOL     OW22287   0.023   8.414  10.623 -0.2143  0.2811 -0.3584
 6337SOL    HW122288   0.067   8.348  10.569  0.4943  1.8328 -1.7444
 6337SOL    HW222289  -0.026   8.467  10.561  0.4489  1.9804  0.5185
 6338SOL     OW22290   8.717   8.251   1.254 -0.3630  0.3451 -0.4118
 6338SOL    HW122291   8.686   8.302   1.329  0.7363 -1.5029  1.4426
 6338SOL    HW222292   8.654   8.180   1.246  0.4032 -0.3860 -0.1334
 6339SOL     OW22293   5.533   2.326   9.478  0.3248 -0.2077  0.6651
 6339SOL    HW122294   5.500   2.254   9.531  0.6641  0.2704  1.5525
 6339SOL    HW222295   5.569   2.389   9.542 -0.7273  1.1412 -0.0168
 6340SOL     OW22296   3.910   4.648  10.077  0.0749 -0.1336  0.0149
 6340SOL    HW122297   3.988   4.704  10.076 -1.1853  1.7374 -0.5091
 6340SOL    HW222298   3.928   4.582  10.143  2.4672 -0.3349 -0.7480
 6341SOL     OW22299   2.972   7.317   9.034  0.3340  0.5328 -0.1384
 6341SOL    HW122300   3.059   7.286   9.060 -0.4169 -0.6441  1.0650
 6341SOL    HW222301   2.990   7.383   8.967  2.1708  0.6481  0.4083
 6342SOL     OW22302   3.734   7.532   0.034  0.1807 -0.1138  0.1217
 6342SOL    HW122303   3.741   7.619  -0.003  1.6086 -0.0979  0.3885
 6342SOL    HW222304   3.644   7.505   0.015 -0.0681  1.1330 -0.5550
 6343SOL     OW22305   5.526   6.251   0.935 -0.6651  0.0157 -0.2753
 6343SOL    HW122306   5.431   6.257   0.926 -0.7418  0.5645  0.7392
 6343SOL    HW222307   5.551   6.178   0.879 -2.1978 -2.9727  2.6542
 6344SOL     OW22308   0.451   2.049  11.220  0.1623 -0.0011 -0.7426
 6344SOL    HW122309   0.471   2.143  11.213  0.8945  0.3039  3.0421
 6344SOL    HW222310   0.357   2.045  11.233  0.1924  0.3173 -0.3875
 6345SOL     OW22311   0.546   4.950   8.187  0.2426 -0.2076 -0.3480
 6345SOL    HW122312   0.487   4.927   8.115 -0.0389 -1.0467  0.1504
 6345SOL    HW222313   0.612   5.007   8.146  0.1641 -0.7824 -1.2984
 6346SOL     OW22314   6.402   2.506   4.014 -0.0153 -0.0025 -0.3164
 6346SOL    HW122315   6.337   2.530   4.079  1.5837  1.5663  0.7995
 6346SOL    HW222316   6.370   2.544   3.932 -1.3745 -0.8402 -0.2010
 6347SOL     OW22317   4.531   0.413   2.261  0.5816  0.5719 -0.4569
 6347SOL    HW122318   4.625   0.428   2.252  1.1267 -0.4280  2.3507
 6347SOL    HW222319   4.525   0.328   2.305 -1.6339  0.7343 -0.3558
 6348SOL     OW22320   3.606   9.134   9.293  0.0281  0.0865 -0.1121
 6348SOL    HW122321   3.640   9.222   9.277 -0.2100  0.3717  0.8415
 6348SOL    HW222322   3.519   9.134   9.253 -0.1726  0.4593  0.3136
 6349SOL     OW22323   5.785   2.184   3.565 -0.0823 -0.2863  0.6277
 6349SOL    HW122324   5.724   2.169   3.637 -0.3870 -0.9434  0.2476
 6349SOL    HW222325   5.764   2.115   3.501  0.3416  0.1354  0.0193
 6350SOL     OW22326   1.717   3.176   0.413 -0.1549 -0.0343 -0.8612
 6350SOL    HW122327   1.736   3.091   0.374  0.3959 -1.0047  1.3639
 6350SOL    HW222328   1.622   3.178   0.423 -0.1713 -0.3552 -0.9517
 6351SOL     OW22329   5.664   5.725   4.542  0.2280  0.8204  0.3488
 6351SOL    HW122330   5.687   5.729   4.449  1.5232  1.6201  0.6757
 6351SOL    HW222331   5.568   5.724   4.543  0.1535 -1.9993 -1.0613
 6352SOL     OW22332   8.907   5.609  10.818  0.2960  0.2595 -0.3733
 6352SOL    HW122333   8.868   5.531  10.778  0.0172  0.7821 -1.1446
 6352SOL    HW222334   8.994   5.615  10.778  1.0501 -0.6758  1.0492
 6353SOL     OW22335   8.567   5.617   0.573 -0.1634 -0.2462 -0.2235
 6353SOL    HW122336   8.611   5.685   0.523 -1.9635  0.2533 -1.2120
 6353SOL    HW222337   8.576   5.645   0.664 -0.1661  0.8885 -0.5549
 6354SOL     OW22338   6.358   0.386   4.895 -0.1030  1.0256 -0.0685
 6354SOL    HW122339   6.450   0.363   4.881  0.2188  0.3322  2.6487
 6354SOL    HW222340   6.336   0.349   4.980 -2.8159  1.5380 -0.4361
 6355SOL     OW22341  11.142   1.861   1.862 -0.2063  0.0691  0.1697
 6355SOL    HW122342  11.182   1.897   1.942 -2.3723  0.8423  0.9977
 6355SOL    HW222343  11.215   1.824   1.813  1.8383  3.1948  0.5632
 6356SOL     OW22344   3.651   1.246   4.985 -0.1715  0.4110  0.6752
 6356SOL    HW122345   3.614   1.331   4.962 -1.5230  0.5438  3.0925
 6356SOL    HW222346   3.742   1.265   5.009 -1.0447  1.6221  3.3568
 6357SOL     OW22347   3.126   7.868  11.234 -0.0345 -0.7894 -0.1641
 6357SOL    HW122348   3.136   7.936  11.168 -0.2803 -1.4007 -0.8336
 6357SOL    HW222349   3.033   7.867  11.255 -0.0278 -0.9095 -0.1377
 6358SOL     OW22350   8.957   4.047   9.034 -0.3215 -0.2495  0.4436
 6358SOL    HW122351   9.032   3.988   9.043 -1.7476 -2.4026 -0.8652
 6358SOL    HW222352   8.979   4.102   8.958  0.5627  0.2379  1.0280
 6359SOL     OW22353   5.577   7.861  10.030 -0.2922  0.2914  0.1976
 6359SOL    HW122354   5.487   7.856  10.062 -0.0081  2.1819  1.5061
 6359SOL    HW222355   5.604   7.951  10.050  1.9418 -0.2771 -0.0018
 6360SOL     OW22356   3.639   3.664   9.298 -0.3864  0.2768 -0.2940
 6360SOL    HW122357   3.631   3.714   9.379  0.5815  0.0690 -0.0534
 6360SOL    HW222358   3.552   3.626   9.285 -0.2236 -0.8013  1.3879
 6361SOL     OW22359   7.914   2.738   6.218 -0.0589 -0.2985  0.3637
 6361SOL    HW122360   7.940   2.772   6.133  0.1175  2.0200  1.2858
 6361SOL    HW222361   7.967   2.787   6.281 -1.2460 -0.9018  1.8890
 6362SOL     OW22362  10.576   3.323   7.495 -0.2845 -0.4895  0.1300
 6362SOL    HW122363  10.536   3.368   7.420 -1.5502 -0.4428  0.8028
 6362SOL    HW222364  10.547   3.232   7.487 -0.6406 -0.4309  0.6873
 6363SOL     OW22365   5.181  10.029   8.188 -0.3346 -0.3750 -0.0228
 6363SOL    HW122366   5.095  10.060   8.159  0.1464 -0.5170 -1.7060
 6363SOL    HW222367   5.161   9.959   8.250 -1.4450 -0.6909 -0.6993
 6364SOL     OW22368   9.766   9.331  11.315  0.0497  0.0794 -0.0552
 6364SOL    HW122369   9.726   9.410  11.352 -1.2908  0.1453 -1.5551
 6364SOL    HW222370   9.737   9.260  11.372 -1.2722  0.2944 -0.4233
 6365SOL     OW22371   4.864   4.342  10.754 -0.5483 -0.0930 -0.0097
 6365SOL    HW122372   4.879   4.365  10.845 -1.0160 -0.4154  0.1513
 6365SOL    HW222373   4.828   4.422  10.715  0.9839  0.5074 -0.2666
 6366SOL     OW22374   4.136  10.663   2.598  0.2962 -0.2106 -0.6738
 6366SOL    HW122375   4.156  10.655   2.504 -0.3592  1.5413 -0.9973
 6366SOL    HW222376   4.219  10.682   2.639  0.5384 -0.6837 -0.9304
 6367SOL     OW22377   2.442   5.338   0.931 -0.1855 -0.2700 -0.6671
 6367SOL    HW122378   2.467   5.401   0.864 -0.2007  0.1760 -0.2646
 6367SOL    HW222379   2.379   5.280   0.888 -0.6671  0.3891 -0.8709
 6368SOL     OW22380   7.784   3.199   4.774 -0.0192  0.0670 -0.3966
 6368SOL    HW122381   7.708   3.257   4.776  0.9725  1.6549 -3.2553
 6368SOL    HW222382   7.757   3.127   4.717  1.1285  1.6815 -3.1848
 6369SOL     OW22383   6.217   9.310   5.184 -0.5048 -1.0201  0.2526
 6369SOL    HW122384   6.213   9.262   5.266  1.7831 -1.7347  0.0235
 6369SOL    HW222385   6.269   9.254   5.126 -1.0482  0.0086 -1.3038
 6370SOL     OW22386   8.356   1.247   0.447 -0.0837  0.1849  0.3946
 6370SOL    HW122387   8.305   1.327   0.438 -0.3312 -0.1632 -1.6206
 6370SOL    HW222388   8.419   1.249   0.375  2.8597  0.5823  2.7525
 6371SOL     OW22389   2.538   5.248   5.398  0.7949 -0.1098 -0.0524
 6371SOL    HW122390   2.545   5.200   5.481  3.5550 -1.0520 -0.7409
 6371SOL    HW222391   2.578   5.333   5.416  0.2445  0.1607 -0.0985
 6372SOL     OW22392   9.361   0.218   9.104  0.1160 -0.7861  0.1691
 6372SOL    HW122393   9.447   0.243   9.072 -1.3229  1.1027 -2.6394
 6372SOL    HW222394   9.324   0.163   9.035 -1.5254 -0.1793  0.5065
 6373SOL     OW22395   7.208   9.428   6.575 -0.1540 -0.0015  0.1425
 6373SOL    HW122396   7.148   9.502   6.584  0.7563  0.9328 -0.9936
 6373SOL    HW222397   7.163   9.367   6.516 -1.5028 -1.0596  2.1808
 6374SOL     OW22398   0.932   1.636   0.273  0.0946 -0.8445  0.0212
 6374SOL    HW122399   0.971   1.586   0.201  2.2784 -0.2852  0.7280
 6374SOL    HW222400   0.926   1.726   0.239  2.4902 -0.2599  0.8899
 6375SOL     OW22401   8.644   5.767   8.961 -0.2998  0.2190 -0.2545
 6375SOL    HW122402   8.660   5.673   8.972  0.1691  0.2561 -0.6123
 6375SOL    HW222403   8.731   5.806   8.953 -0.5157  0.4279 -2.1013
 6376SOL     OW22404   2.590   6.005   4.565 -0.2805  0.2046 -0.3081
 6376SOL    HW122405   2.664   6.066   4.559 -0.6569  0.8259  1.1021
 6376SOL    HW222406   2.626   5.927   4.608  0.3343 -0.8649 -2.5745
 6377SOL     OW22407   8.737   5.454   0.140  0.6289 -0.4606 -0.0087
 6377SOL    HW122408   8.711   5.411   0.221 -1.2759  1.5111  0.5282
 6377SOL    HW222409   8.820   5.496   0.161 -0.0391  0.3561  1.0783
 6378SOL     OW22410   1.681   2.242   4.623  0.2820 -0.0748 -0.5062
 6378SOL    HW122411   1.674   2.236   4.718  0.6712 -0.3736 -0.4953
 6378SOL    HW222412   1.774   2.259   4.607 -0.0283  1.5426 -0.7601
 6379SOL     OW22413   1.294   8.697   3.035  0.3780  0.3022 -0.4513
 6379SOL    HW122414   1.310   8.741   2.951 -0.2230 -1.8945 -1.7942
 6379SOL    HW222415   1.209   8.655   3.024  0.5702 -0.5430  1.0339
 6380SOL     OW22416   1.961   0.503   3.627  0.1710 -0.4880  0.4012
 6380SOL    HW122417   2.005   0.421   3.647 -0.4233 -0.6315  1.2067
 6380SOL    HW222418   1.883   0.477   3.578  0.3106 -0.3457  0.0997
 6381SOL     OW22419   1.575   9.471   5.648 -0.1801  0.5118 -0.4407
 6381SOL    HW122420   1.589   9.546   5.590  0.3929  1.3826  0.7582
 6381SOL    HW222421   1.663   9.441   5.671 -0.4051 -0.3102 -0.6205
 6382SOL     OW22422   7.287   3.864   0.672  0.5400  0.4643 -0.0479
 6382SOL    HW122423   7.233   3.812   0.732  0.0884 -1.1667 -1.7530
 6382SOL    HW222424   7.228   3.931   0.639  0.5333  0.8051  0.6587
 6383SOL     OW22425   4.653   9.915   6.740  0.0481  0.2458  0.1146
 6383SOL    HW122426   4.710   9.991   6.742 -1.1852  1.2207 -0.5485
 6383SOL    HW222427   4.573   9.946   6.698 -0.4554 -1.4418 -0.2410
 6384SOL     OW22428   9.165   5.536   5.859 -0.0687 -0.2395  0.4546
 6384SOL    HW122429   9.126   5.591   5.792 -2.8898 -1.7382  0.7414
 6384SOL    HW222430   9.207   5.465   5.811  0.4842  0.2479  0.2077
 6385SOL     OW22431  10.374   5.760   2.070  0.4265  0.1053  0.5067
 6385SOL    HW122432  10.468   5.773   2.080  0.4460  1.5664 -1.1022
 6385SOL    HW222433  10.338   5.848   2.058 -1.0516 -0.4766  0.3387
 6386SOL     OW22434   7.822   5.223   4.868  0.0807  0.1829 -0.0334
 6386SOL    HW122435   7.880   5.280   4.818  0.9055  0.3018  1.0280
 6386SOL    HW222436   7.734   5.244   4.836  0.6499 -0.7257 -2.3933
 6387SOL     OW22437   8.631  10.703   4.923 -0.3651 -0.0823 -0.0406
 6387SOL    HW122438   8.658  10.669   5.008 -1.1919  0.0544  0.2817
 6387SOL    HW222439   8.571  10.637   4.888  0.2265 -0.3038 -0.6808
 6388SOL     OW22440   6.545   3.783  10.357  0.2594  0.4963  0.5983
 6388SOL    HW122441   6.545   3.791  10.262 -1.5542  1.1292  0.6245
 6388SOL    HW222442   6.634   3.808  10.383  0.0938  2.7150 -0.7572
 6389SOL     OW22443   6.956   0.018   5.367  0.4788  0.0373 -0.0232
 6389SOL    HW122444   7.006   0.099   5.379  0.4179  0.2757 -1.2923
 6389SOL    HW222445   6.961  -0.001   5.274 -0.8354 -0.5633 -0.0026
 6390SOL     OW22446   0.886  10.215  11.140  0.4044  0.3424  0.5855
 6390SOL    HW122447   0.916  10.296  11.180 -1.4477  0.8271  1.1012
 6390SOL    HW222448   0.793  10.229  11.124  0.9113  0.1748 -3.8650
 6391SOL     OW22449   3.057   3.008   7.242  0.8352 -0.2468 -0.1579
 6391SOL    HW122450   2.973   3.012   7.286  0.7770  1.5341 -0.3528
 6391SOL    HW222451   3.093   2.923   7.266 -1.8002 -1.9130 -1.5756
 6392SOL     OW22452  10.441   0.677   6.356 -0.2005 -0.3698 -0.2070
 6392SOL    HW122453  10.453   0.597   6.306 -0.5633 -2.4835  2.8081
 6392SOL    HW222454  10.376   0.727   6.307 -0.8733 -2.4735 -1.5737
 6393SOL     OW22455   3.127   2.615  11.140 -0.4339  0.2159  0.0919
 6393SOL    HW122456   3.198   2.677  11.125  0.2703 -0.7165 -0.5791
 6393SOL    HW222457   3.051   2.669  11.160 -0.0752  1.3270 -1.4108
 6394SOL     OW22458   9.899  10.627   9.163  0.8287 -0.2811 -0.3692
 6394SOL    HW122459   9.924  10.619   9.071  1.2347  0.6284 -0.3419
 6394SOL    HW222460   9.835  10.698   9.164  0.5175 -0.5622 -0.0008
 6395SOL     OW22461   9.987   7.337   6.751 -0.1710  0.0384 -0.1736
 6395SOL    HW122462  10.054   7.277   6.717 -1.1762 -0.9092 -0.5399
 6395SOL    HW222463   9.950   7.290   6.826 -1.2027  0.0413 -0.6682
 6396SOL     OW22464   7.062   0.787   5.349 -0.2233 -0.6003 -0.6628
 6396SOL    HW122465   7.155   0.809   5.342 -0.1833 -0.9615 -1.3216
 6396SOL    HW222466   7.054   0.747   5.436  0.4724 -1.6130 -1.0414
 6397SOL     OW22467   1.603  11.163   8.461 -0.2340 -0.2354 -0.6555
 6397SOL    HW122468   1.554  11.232   8.506 -0.4464 -0.6298 -0.2784
 6397SOL    HW222469   1.536  11.101   8.432  0.1371 -1.7347  1.4678
 6398SOL     OW22470   9.550   9.892  11.169 -0.2419 -0.6187 -0.0056
 6398SOL    HW122471   9.600   9.810  11.170  1.0669  0.1466  0.9949
 6398SOL    HW222472   9.571   9.932  11.085  0.4764 -0.5305  0.2093
 6399SOL     OW22473   9.120   2.550   3.649  0.5113  0.2712  0.6833
 6399SOL    HW122474   9.078   2.464   3.651  0.8824  0.1036  1.1400
 6399SOL    HW222475   9.145   2.568   3.740  0.4111  0.8752  0.6003
 6400SOL     OW22476   5.818   0.670   9.845  0.5123 -0.2864  0.8074
 6400SOL    HW122477   5.757   0.636   9.911  1.0105 -2.1207  0.3750
 6400SOL    HW222478   5.831   0.597   9.784  1.9986  0.5441  0.0692
 6401SOL     OW22479   7.946   0.506   7.486 -0.0929  0.0809  0.1159
 6401SOL    HW122480   7.925   0.511   7.579 -0.7855 -0.3649 -0.0038
 6401SOL    HW222481   7.863   0.482   7.445  0.8259 -2.7096 -0.2964
 6402SOL     OW22482   2.164   3.458   9.597 -0.0865 -0.1470  0.1769
 6402SOL    HW122483   2.254   3.430   9.614  0.4885  1.3535 -0.2919
 6402SOL    HW222484   2.125   3.468   9.684 -0.3153 -2.2707  0.3772
 6403SOL     OW22485   8.611   1.876   6.780 -0.1275 -0.0875 -0.5677
 6403SOL    HW122486   8.670   1.811   6.741  0.4799 -1.3893  2.2945
 6403SOL    HW222487   8.524   1.844   6.761  0.1505 -2.4268  1.6293
 6404SOL     OW22488   7.362   1.410   9.037 -0.2213  0.0625  0.0740
 6404SOL    HW122489   7.326   1.357   9.108  1.0597 -1.4150 -0.3419
 6404SOL    HW222490   7.330   1.368   8.957  1.9230 -0.9793 -0.2959
 6405SOL     OW22491  10.106   8.288   2.462 -0.5625  0.0268  0.3288
 6405SOL    HW122492  10.101   8.195   2.441 -1.9642  0.2130 -0.2783
 6405SOL    HW222493  10.083   8.293   2.555  3.1974 -0.5483  1.4582
 6406SOL     OW22494   2.647   1.187   5.159  0.4056 -0.1560  0.0701
 6406SOL    HW122495   2.559   1.194   5.196 -1.1568 -3.2481 -2.4654
 6406SOL    HW222496   2.634   1.136   5.079  4.4057  0.2532 -1.0256
 6407SOL     OW22497   3.224   3.961  10.895 -0.6051  0.0624 -0.2415
 6407SOL    HW122498   3.305   3.986  10.850  0.5830 -0.1077  1.7060
 6407SOL    HW222499   3.170   4.040  10.891  0.5146  0.8858  0.2277
 6408SOL     OW22500   1.690   5.739   5.132 -0.0473 -0.5422  0.0122
 6408SOL    HW122501   1.666   5.715   5.043 -1.1946 -0.4995  0.2899
 6408SOL    HW222502   1.779   5.773   5.125  0.5174 -2.1034 -0.8440
 6409SOL     OW22503   7.932   5.499   6.026  0.3183 -0.4896 -0.5814
 6409SOL    HW122504   8.010   5.442   6.021  0.7520  0.1235 -0.9407
 6409SOL    HW222505   7.966   5.582   6.060 -0.3425 -0.4940  0.0980
 6410SOL     OW22506  11.251   3.858  10.988 -0.3449 -0.1875 -0.0860
 6410SOL    HW122507  11.173   3.842  11.041 -1.2008  1.5167 -0.7502
 6410SOL    HW222508  11.218   3.866  10.899  0.8071 -0.9436 -0.6021
 6411SOL     OW22509   0.699   6.105   5.732 -0.2719 -0.5191 -0.0783
 6411SOL    HW122510   0.713   6.167   5.803  2.6981  0.3852 -1.3106
 6411SOL    HW222511   0.607   6.118   5.707 -0.9820  0.1740  2.5496
 6412SOL     OW22512  10.044   5.144  10.016  0.1330  0.0894  0.0943
 6412SOL    HW122513  10.000   5.228  10.008  2.0649  1.2932  1.3262
 6412SOL    HW222514  10.128   5.156   9.971  0.9292 -0.7828  1.2766
 6413SOL     OW22515   3.364   7.057   9.767  0.1740 -0.2019 -0.3686
 6413SOL    HW122516   3.366   6.995   9.694 -3.5760 -0.3476 -0.5184
 6413SOL    HW222517   3.340   7.004   9.843  2.6978  0.1856  0.8203
 6414SOL     OW22518   2.328   6.007   8.644  0.2939 -0.3349  0.6387
 6414SOL    HW122519   2.329   5.983   8.737 -0.3127  0.2019  0.7978
 6414SOL    HW222520   2.266   6.080   8.640  0.2871 -0.3820 -0.1967
 6415SOL     OW22521   9.542   4.690   5.944 -0.3346  0.2180  0.4455
 6415SOL    HW122522   9.616   4.714   5.887 -0.7275  0.7573  0.1482
 6415SOL    HW222523   9.583   4.662   6.026  0.2050  0.4999  0.2805
 6416SOL     OW22524   4.542   9.982   2.090  0.1657 -0.6281  0.2333
 6416SOL    HW122525   4.468   9.996   2.150 -1.1282 -0.8398 -1.2479
 6416SOL    HW222526   4.604   9.930   2.140 -0.4700 -0.0593  1.6787
 6417SOL     OW22527  10.162   3.536   5.672 -0.1579  0.8688 -0.2653
 6417SOL    HW122528  10.193   3.588   5.598  2.3059 -1.2763 -0.8739
 6417SOL    HW222529  10.223   3.463   5.678 -2.6470 -1.2705  1.3715
 6418SOL     OW22530   1.887   3.667   0.458 -0.1479  0.2900 -0.9076
 6418SOL    HW122531   1.801   3.698   0.486 -0.3873 -0.5116 -0.7035
 6418SOL    HW222532   1.906   3.594   0.517  1.0278  0.9431 -0.4355
 6419SOL     OW22533   3.370  11.100  11.113 -0.2868 -0.2853 -0.6605
 6419SOL    HW122534   3.454  11.063  11.086  0.9662  2.1946 -0.4406
 6419SOL    HW222535   3.390  11.154  11.189 -1.4582  2.6480 -2.2724
 6420SOL     OW22536   4.248   7.988   8.984  0.5481 -0.0693  0.3317
 6420SOL    HW122537   4.277   8.028   9.066 -1.0761  0.0482  0.8680
 6420SOL    HW222538   4.280   8.047   8.916 -0.4267  1.3023  1.0336
 6421SOL     OW22539   6.527   8.272   9.835 -0.2466 -0.1096  0.5874
 6421SOL    HW122540   6.583   8.200   9.862  1.2028  1.1762  1.1311
 6421SOL    HW222541   6.529   8.269   9.739 -0.5930 -1.0605  0.5969
 6422SOL     OW22542  10.691   9.921   2.760 -0.1883 -0.2269 -0.5633
 6422SOL    HW122543  10.680  10.008   2.797  0.2608 -0.5907  0.4678
 6422SOL    HW222544  10.784   9.900   2.775 -0.5613 -1.3626  0.3237
 6423SOL     OW22545  11.095   2.560   6.416 -0.2976  0.6618 -0.1830
 6423SOL    HW122546  11.172   2.618   6.417  0.4056 -0.2511 -0.0847
 6423SOL    HW222547  11.108   2.504   6.340 -0.9324  0.5620 -0.2249
 6424SOL     OW22548  10.425   4.118   4.194 -0.3959 -0.4657  0.1365
 6424SOL    HW122549  10.438   4.033   4.153 -2.1321 -0.8961  0.3928
 6424SOL    HW222550  10.366   4.165   4.134  0.9457  0.7821 -0.2686
 6425SOL     OW22551   2.432   0.175   7.920 -0.3151  0.4617  0.4098
 6425SOL    HW122552   2.513   0.125   7.925 -0.8127 -0.6064 -1.1546
 6425SOL    HW222553   2.458   0.261   7.889  0.0387 -0.7027 -2.9103
 6426SOL     OW22554  10.773   0.116  10.606  0.4490 -0.3283 -0.5120
 6426SOL    HW122555  10.831   0.191  10.591  0.7276 -0.6118 -0.8818
 6426SOL    HW222556  10.824   0.058  10.662  0.9065 -1.0160 -1.6173
 6427SOL     OW22557   7.585   7.035  10.681 -0.5073  0.4278 -0.2104
 6427SOL    HW122558   7.558   6.973  10.748 -0.1744  0.6316  0.1178
 6427SOL    HW222559   7.503   7.064  10.640 -0.7517  0.6340  0.4111
 6428SOL     OW22560   1.651   9.623  10.798 -0.2823 -0.0117 -0.0343
 6428SOL    HW122561   1.590   9.550  10.805  1.0040 -0.9374  2.7915
 6428SOL    HW222562   1.604   9.688  10.746 -1.2640 -2.9445 -3.2516
 6429SOL     OW22563   7.936   2.475   9.786 -0.0708 -0.2475 -0.0183
 6429SOL    HW122564   7.873   2.518   9.729 -0.8540 -0.9456  0.3047
 6429SOL    HW222565   8.001   2.437   9.726 -0.4796 -0.3359 -0.4104
 6430SOL     OW22566   2.095   2.993   2.075  0.2308  0.2963 -0.3230
 6430SOL    HW122567   2.166   3.006   2.013 -0.9858  1.3272 -1.5588
 6430SOL    HW222568   2.018   2.978   2.020 -0.5401 -0.7404  0.9751
 6431SOL     OW22569   7.149   3.938  11.374  0.2340 -0.0851  0.6077
 6431SOL    HW122570   7.150   3.877  11.301  1.9313 -0.3915  0.8497
 6431SOL    HW222571   7.145   3.883  11.452 -1.2629  0.2318  0.7901
 6432SOL     OW22572   6.774   3.328   3.039  0.5629  0.1637  0.2002
 6432SOL    HW122573   6.768   3.285   2.954 -0.1871  0.2162  0.2196
 6432SOL    HW222574   6.858   3.374   3.037  0.1781  0.8674 -0.8495
 6433SOL     OW22575   3.219   9.545   3.171  0.1323  0.4521 -0.3707
 6433SOL    HW122576   3.249   9.634   3.151 -1.0184  1.1873  0.9635
 6433SOL    HW222577   3.204   9.545   3.265 -0.2848 -1.0476 -0.4050
 6434SOL     OW22578   6.077   5.606  10.684 -0.6056 -0.0469  0.1164
 6434SOL    HW122579   6.150   5.655  10.646 -0.4402 -0.2453  0.1774
 6434SOL    HW222580   6.001   5.663  10.673 -0.0247  1.2531  2.2453
 6435SOL     OW22581   0.409   5.429   7.489  0.9570  0.1991 -0.6140
 6435SOL    HW122582   0.321   5.427   7.450  0.6594 -0.0489  0.0526
 6435SOL    HW222583   0.399   5.382   7.572  1.6654  0.3892 -0.4178
 6436SOL     OW22584  10.037   4.177   3.574 -0.8348  0.0196 -0.2095
 6436SOL    HW122585  10.040   4.200   3.481  0.3349 -0.2272 -0.2509
 6436SOL    HW222586  10.111   4.117   3.585 -1.5005 -0.6405  0.6980
 6437SOL     OW22587   8.639   9.389   2.116  0.2069  0.1810 -0.3621
 6437SOL    HW122588   8.731   9.411   2.108  0.0628  0.9313 -0.0372
 6437SOL    HW222589   8.636   9.294   2.112  0.9950  0.1531 -0.3376
 6438SOL     OW22590  10.002   1.415  11.328  0.0751  0.1869  0.0094
 6438SOL    HW122591   9.995   1.505  11.360 -0.6130 -0.5228  1.9782
 6438SOL    HW222592   9.917   1.397  11.286 -0.5253 -0.1362  1.3165
 6439SOL     OW22593   8.010   7.075   1.595  0.3776 -0.6824  0.4452
 6439SOL    HW122594   7.957   7.154   1.604  1.4696  0.0322  0.8010
 6439SOL    HW222595   7.991   7.043   1.507  0.7455  0.6129 -0.1341
 6440SOL     OW22596   6.515   0.195  10.658  0.4064  0.3733  0.4052
 6440SOL    HW122597   6.441   0.253  10.673  0.5359  0.8999 -0.8699
 6440SOL    HW222598   6.499   0.158  10.571  1.3355  0.0400  0.3652
 6441SOL     OW22599   9.505   0.669   5.739 -0.3747  0.2602  0.1019
 6441SOL    HW122600   9.449   0.675   5.661  0.2515 -2.0163 -0.5970
 6441SOL    HW222601   9.512   0.575   5.756  0.9611  0.6336  1.8643
 6442SOL     OW22602  10.320   2.321   4.319  0.4599  0.0318  0.0704
 6442SOL    HW122603  10.368   2.402   4.301 -0.2762  0.4230 -0.2116
 6442SOL    HW222604  10.240   2.351   4.363  0.0862 -0.5283 -0.2179
 6443SOL     OW22605   2.134   5.465   0.717 -0.2680 -0.0147 -0.5130
 6443SOL    HW122606   2.205   5.529   0.709  1.2405 -1.5066  0.3168
 6443SOL    HW222607   2.172   5.384   0.684 -2.1381 -0.5160 -1.5401
 6444SOL     OW22608   2.001   0.358   9.407  0.7357 -0.0418 -0.3993
 6444SOL    HW122609   2.074   0.315   9.452  0.8100  1.5728  1.1376
 6444SOL    HW222610   2.032   0.448   9.392 -0.7451  0.5428 -0.1246
 6445SOL     OW22611   3.539   1.976  11.181  0.2639  0.1950 -0.4465
 6445SOL    HW122612   3.573   1.996  11.094  1.8175 -0.1711  0.0504
 6445SOL    HW222613   3.577   2.043  11.237  1.6128 -1.2184  0.4097
 6446SOL     OW22614   0.395   7.028   9.073  0.5932  0.6458 -0.0350
 6446SOL    HW122615   0.335   6.997   9.141 -1.0501 -0.3478 -1.8567
 6446SOL    HW222616   0.458   7.082   9.121 -1.4138  1.3145  2.0549
 6447SOL     OW22617  10.112   9.910   3.013  0.4902 -0.2642 -0.3938
 6447SOL    HW122618  10.096   9.910   3.107 -0.5867 -0.1936 -0.5681
 6447SOL    HW222619  10.126   9.818   2.991 -0.1545 -0.3829 -0.3101
 6448SOL     OW22620   3.993  10.805   5.982 -0.3235  0.5540  0.1049
 6448SOL    HW122621   3.992  10.712   5.961 -0.2652  0.5014  0.3286
 6448SOL    HW222622   4.065  10.842   5.930 -0.8561  0.6237 -0.6024
 6449SOL     OW22623   4.528   4.458   3.494  0.4268 -0.0675  0.2334
 6449SOL    HW122624   4.440   4.485   3.466  0.1536 -0.9050  0.2534
 6449SOL    HW222625   4.554   4.392   3.429  0.5839 -0.6196  0.8473
 6450SOL     OW22626   3.704  10.799  10.891  0.0515 -0.1859  0.2440
 6450SOL    HW122627   3.776  10.740  10.865 -0.2991 -0.8045  0.6383
 6450SOL    HW222628   3.666  10.828  10.809  0.2074 -0.5510  0.0380
 6451SOL     OW22629   9.677   1.007   8.462  0.1920 -0.2690  0.5130
 6451SOL    HW122630   9.611   0.938   8.460  1.5385 -1.6075 -1.2046
 6451SOL    HW222631   9.674   1.041   8.551 -1.7155 -1.3351  0.9092
 6452SOL     OW22632   4.902   7.027   4.247  0.1906 -0.5623 -0.4165
 6452SOL    HW122633   4.965   6.994   4.311 -1.1419  0.0115  1.2754
 6452SOL    HW222634   4.953   7.081   4.188  1.5290 -1.4031 -0.0651
 6453SOL     OW22635   0.630   1.327   8.993 -0.5079  0.3668  0.1287
 6453SOL    HW122636   0.584   1.244   9.006  0.3741 -0.6363 -2.5334
 6453SOL    HW222637   0.631   1.339   8.898  1.3603  2.3119  0.3288
 6454SOL     OW22638   9.302   8.604   8.883  0.3476 -0.3095 -0.0765
 6454SOL    HW122639   9.359   8.601   8.960 -1.5798 -2.0065  1.4136
 6454SOL    HW222640   9.305   8.516   8.847 -0.9216 -0.3028 -0.2464
 6455SOL     OW22641   0.080  10.384   7.667 -0.3153  0.1670 -0.5224
 6455SOL    HW122642   0.060  10.466   7.622 -0.9597  0.8890  0.9794
 6455SOL    HW222643   0.080  10.408   7.760  0.2055 -1.3959 -0.0915
 6456SOL     OW22644   4.147   6.407   2.452  0.2342  0.3146 -0.7950
 6456SOL    HW122645   4.082   6.414   2.383  0.6307 -2.9039 -1.6824
 6456SOL    HW222646   4.231   6.420   2.408  0.4795 -1.5891 -0.9795
 6457SOL     OW22647   6.271   7.409   3.230  0.0365 -0.5884 -0.4452
 6457SOL    HW122648   6.275   7.436   3.138 -1.4917 -0.3119 -0.4598
 6457SOL    HW222649   6.179   7.423   3.255  0.2246 -1.5051  0.8632
 6458SOL     OW22650  10.148   2.544   7.110  0.4931 -1.2241  0.2954
 6458SOL    HW122651  10.242   2.524   7.112  1.5294  2.8903  0.5818
 6458SOL    HW222652  10.124   2.558   7.201  0.4149  0.6264  0.0314
 6459SOL     OW22653   4.825  11.157   5.434  0.0196  0.0671 -0.1197
 6459SOL    HW122654   4.793  11.080   5.387  0.4554  0.4330 -1.0568
 6459SOL    HW222655   4.917  11.165   5.407 -0.5254  2.0691 -1.7168
 6460SOL     OW22656   5.276   0.705   4.345 -0.8607 -0.0559 -0.9186
 6460SOL    HW122657   5.187   0.685   4.316 -1.4875 -0.6456  1.2230
 6460SOL    HW222658   5.293   0.642   4.415 -0.0241  2.0921  0.9623
 6461SOL     OW22659   8.772   4.352   5.781 -0.0116 -0.2879 -0.7804
 6461SOL    HW122660   8.681   4.323   5.782 -0.1983  0.2722 -0.9792
 6461SOL    HW222661   8.780   4.408   5.858  0.1173 -0.2105 -0.8493
 6462SOL     OW22662   7.719   7.012   0.762  0.2752 -0.2595  0.8508
 6462SOL    HW122663   7.663   6.935   0.755  0.4288 -0.3533  0.6157
 6462SOL    HW222664   7.658   7.086   0.773  0.0154 -0.1835 -0.8054
 6463SOL     OW22665   6.875   5.530   2.739  0.8640 -0.7065  0.0791
 6463SOL    HW122666   6.879   5.519   2.834  4.1766 -0.9454  0.0405
 6463SOL    HW222667   6.853   5.622   2.726  3.1582  0.0983  1.2507
 6464SOL     OW22668   5.100   3.188   5.021 -0.1964 -0.2024 -0.3402
 6464SOL    HW122669   5.117   3.101   4.985 -0.2177  0.1224 -1.1604
 6464SOL    HW222670   5.181   3.211   5.066 -0.7273 -1.2804  1.2434
 6465SOL     OW22671   6.462   2.713   6.602  0.1452  0.3523  0.3863
 6465SOL    HW122672   6.404   2.690   6.530  1.5333 -0.3868 -0.5296
 6465SOL    HW222673   6.413   2.778   6.652 -1.4759 -0.2563 -0.3261
 6466SOL     OW22674  11.025   3.259  10.376 -0.4031 -0.3000  0.0425
 6466SOL    HW122675  11.093   3.282  10.440  0.3257 -0.1739 -0.7525
 6466SOL    HW222676  11.036   3.323  10.306  1.2452 -2.5321 -1.9141
 6467SOL     OW22677   2.649   0.998   4.588  0.2541  0.5623 -0.1378
 6467SOL    HW122678   2.637   1.041   4.504 -0.6219  1.9946  0.6869
 6467SOL    HW222679   2.566   0.954   4.604  0.6106 -0.1789 -0.2507
 6468SOL     OW22680   6.553   8.545   0.328 -0.2303  0.1042 -0.3419
 6468SOL    HW122681   6.560   8.507   0.241 -0.6142  0.9438 -0.7494
 6468SOL    HW222682   6.461   8.535   0.352 -0.1755  0.0885 -0.1310
 6469SOL     OW22683   4.015   9.429   1.894  0.0583 -0.4837  0.7340
 6469SOL    HW122684   4.110   9.423   1.898  0.0018 -0.9728  1.4245
 6469SOL    HW222685   3.999   9.510   1.845  0.8236 -0.5818  0.3037
 6470SOL     OW22686   6.279   9.177   7.361 -1.0673  0.2121 -0.6421
 6470SOL    HW122687   6.305   9.240   7.428 -1.3069  0.3991 -0.7267
 6470SOL    HW222688   6.356   9.170   7.304 -0.6161 -0.4422  0.0181
 6471SOL     OW22689   2.771  11.192   8.093  0.2264  0.0604  0.1585
 6471SOL    HW122690   2.858  11.159   8.115  0.8136  1.0233 -0.6275
 6471SOL    HW222691   2.770  11.197   7.997 -0.5467  0.4438  0.1727
 6472SOL     OW22692   1.458   8.615  11.096  0.5782 -0.2572 -0.4127
 6472SOL    HW122693   1.399   8.548  11.063 -0.9334  0.5752  0.4626
 6472SOL    HW222694   1.521   8.568  11.151 -0.0504 -1.0354 -0.3457
 6473SOL     OW22695   4.861  10.524   9.089 -0.2167 -0.0099 -0.4122
 6473SOL    HW122696   4.796  10.465   9.052  0.3668 -0.5019 -0.6712
 6473SOL    HW222697   4.844  10.523   9.184 -0.2604 -0.5241 -0.4264
 6474SOL     OW22698   8.440   3.546   8.626  0.2970 -0.1091 -0.2237
 6474SOL    HW122699   8.512   3.541   8.689 -0.2931 -1.0692  0.4003
 6474SOL    HW222700   8.381   3.611   8.663  0.7757  0.5896 -0.6736
 6475SOL     OW22701   5.459   3.350  10.981 -0.4925  0.0071  0.2658
 6475SOL    HW122702   5.465   3.313  10.893  1.6815  0.2747  0.2500
 6475SOL    HW222703   5.549   3.352  11.012 -1.3746 -2.0922  3.3688
 6476SOL     OW22704   7.860  11.057   5.556 -0.0736  0.2392  0.0554
 6476SOL    HW122705   7.913  11.119   5.507 -0.3951  1.5642  1.3175
 6476SOL    HW222706   7.770  11.073   5.527 -0.0221 -0.6390 -0.6415
 6477SOL     OW22707  10.615  11.243   4.942  0.2175 -0.1121  0.0960
 6477SOL    HW122708  10.683  11.179   4.922  1.8358  0.8901  2.0791
 6477SOL    HW222709  10.562  11.201   5.010 -1.7683 -1.2148 -1.9837
 6478SOL     OW22710   6.364   1.148   8.536 -0.7441 -0.3357 -0.1887
 6478SOL    HW122711   6.381   1.169   8.444  0.0661  1.5627  0.3293
 6478SOL    HW222712   6.451   1.131   8.573 -1.0696 -1.1275  0.2275
 6479SOL     OW22713   6.167   5.609  11.229 -0.2863  0.1377 -0.5873
 6479SOL    HW122714   6.231   5.675  11.202  1.3125 -0.8058  0.7276
 6479SOL    HW222715   6.121   5.586  11.148  1.1180  0.7615 -1.6005
 6480SOL     OW22716   3.755   7.729   6.263 -0.1214  0.4241  0.3145
 6480SOL    HW122717   3.835   7.676   6.261  0.6922  1.6066 -1.5208
 6480SOL    HW222718   3.685   7.666   6.277  0.8676 -1.0880 -1.1205
 6481SOL     OW22719   1.275   7.512  10.447 -0.2518  0.1343 -0.1755
 6481SOL    HW122720   1.319   7.468  10.519  0.4753  0.7040 -0.2513
 6481SOL    HW222721   1.342   7.571  10.412 -1.0713  0.9948 -0.3219
 6482SOL     OW22722   8.401   2.606   4.148  0.0029  0.0231  0.4376
 6482SOL    HW122723   8.425   2.615   4.240 -0.4171  0.4632  0.5092
 6482SOL    HW222724   8.378   2.695   4.120 -3.5539 -0.5749  0.9555
 6483SOL     OW22725   6.001   6.821   9.765 -0.3556  0.3564  0.1542
 6483SOL    HW122726   6.088   6.802   9.800 -0.4309  0.7699  0.5723
 6483SOL    HW222727   5.961   6.734   9.752  1.2041 -0.0633 -2.9585
 6484SOL     OW22728   9.844   8.824   8.777 -0.2618 -0.0086  0.5453
 6484SOL    HW122729   9.842   8.859   8.866 -3.6599 -2.4387  1.6122
 6484SOL    HW222730   9.874   8.734   8.787 -0.8419 -0.3672 -0.7428
 6485SOL     OW22731   4.757   4.233   4.349 -0.3133  0.5737 -0.2270
 6485SOL    HW122732   4.805   4.179   4.287 -0.5345 -0.9871  0.8935
 6485SOL    HW222733   4.802   4.219   4.433 -1.1559  1.1061  0.3251
 6486SOL     OW22734   3.833   9.281   7.102 -0.2592  0.1534 -0.0167
 6486SOL    HW122735   3.928   9.274   7.106 -0.0186  1.6052 -1.8911
 6486SOL    HW222736   3.803   9.195   7.073  0.4407 -0.3386  0.6681
 6487SOL     OW22737   9.411  10.908   9.170 -0.1112 -0.5777 -0.0615
 6487SOL    HW122738   9.468  10.985   9.174 -0.6275 -0.1275 -1.0479
 6487SOL    HW222739   9.378  10.907   9.080 -0.6757 -1.5496  0.1422
 6488SOL     OW22740   3.931   8.011   7.116 -0.3417  0.3037 -0.2298
 6488SOL    HW122741   3.949   7.917   7.107  0.0474  0.2533  0.9027
 6488SOL    HW222742   3.996   8.042   7.180 -1.0289  1.1630  0.0688
 6489SOL     OW22743   5.067   0.689   0.285 -0.2754 -0.3573 -0.0196
 6489SOL    HW122744   4.979   0.717   0.261 -1.6226 -1.7346  2.8543
 6489SOL    HW222745   5.090   0.622   0.221 -0.8026  0.7856 -1.4549
 6490SOL     OW22746   6.614   9.844   6.670 -0.2443 -0.0945  0.1282
 6490SOL    HW122747   6.568   9.870   6.589  0.6571 -1.3692 -0.8276
 6490SOL    HW222748   6.605   9.920   6.727 -1.9812  0.3838 -0.6914
 6491SOL     OW22749   9.944   6.048   7.199  0.0809  0.4960  0.3456
 6491SOL    HW122750  10.013   6.094   7.246  0.6058 -0.3528  0.4327
 6491SOL    HW222751   9.946   6.084   7.111  1.6041 -0.4821 -0.0627
 6492SOL     OW22752   3.911   5.511  10.155  0.2879 -0.9834 -0.1008
 6492SOL    HW122753   3.882   5.597  10.126  3.5478  1.4498  2.9917
 6492SOL    HW222754   3.846   5.485  10.221  0.8521  0.7214  1.2080
 6493SOL     OW22755   3.937   2.647   7.803 -0.0889  0.0347  0.3239
 6493SOL    HW122756   4.020   2.656   7.756 -1.1182  2.2459 -1.2414
 6493SOL    HW222757   3.954   2.687   7.889  0.3118  1.0845 -0.2264
 6494SOL     OW22758  10.759   0.514   5.204 -0.3026  0.0187  0.7312
 6494SOL    HW122759  10.819   0.440   5.202  0.4678  0.6214  1.0296
 6494SOL    HW222760  10.797   0.579   5.144 -2.0692 -0.6140 -1.1748
 6495SOL     OW22761  10.912   2.781   7.641  0.6603 -0.2216 -0.0894
 6495SOL    HW122762  10.825   2.761   7.608  1.2366 -1.0913 -1.1508
 6495SOL    HW222763  10.968   2.783   7.563  1.7710 -0.7034  0.6674
 6496SOL     OW22764   6.454   3.236   4.854 -0.0640  0.4132 -0.1398
 6496SOL    HW122765   6.446   3.263   4.763  1.8965 -1.6572 -1.0338
 6496SOL    HW222766   6.548   3.234   4.870 -0.3725  1.0786  2.0856
 6497SOL     OW22767   5.141   7.077  10.717 -0.3796  0.0688  0.2215
 6497SOL    HW122768   5.196   7.004  10.688 -0.0368  0.4227 -0.0171
 6497SOL    HW222769   5.052   7.049  10.696 -0.1613  0.2216 -0.9692
 6498SOL     OW22770  11.335   2.689  11.385 -0.0978 -0.2062  0.2295
 6498SOL    HW122771  11.383   2.607  11.379  2.4740  1.1885  0.1726
 6498SOL    HW222772  11.303   2.692  11.475  3.3145  0.4372  1.5611
 6499SOL     OW22773   7.721   3.340   3.511 -0.5292  0.3111  0.0705
 6499SOL    HW122774   7.711   3.246   3.502  2.5132 -0.0869 -0.3197
 6499SOL    HW222775   7.665   3.364   3.586  0.7511 -2.2926  2.0052
 6500SOL     OW22776   8.307   6.264  10.243  0.0059  0.2605  0.1476
 6500SOL    HW122777   8.399   6.240  10.233  0.1141  1.0459 -0.9452
 6500SOL    HW222778   8.299   6.287  10.336  0.4656 -1.5099  0.6609
 6501SOL     OW22779   1.010   0.602   9.935  0.5906  0.1584 -0.7385
 6501SOL    HW122780   1.082   0.662   9.955 -0.0993  0.4766  1.0360
 6501SOL    HW222781   1.041   0.517   9.968  0.8298 -0.0737 -1.5526
 6502SOL     OW22782  10.892   9.044   5.995 -0.0069 -0.5094 -0.1526
 6502SOL    HW122783  10.904   9.001   6.080  0.9449 -0.6142 -0.3278
 6502SOL    HW222784  10.814   9.003   5.958 -0.6564 -0.1918  0.8340
 6503SOL     OW22785   2.300   2.979   8.979  0.0040  0.9845 -0.4009
 6503SOL    HW122786   2.261   2.933   8.905 -1.5365  0.7825  0.4853
 6503SOL    HW222787   2.394   2.964   8.970 -0.3826 -2.1645 -0.3169
 6504SOL     OW22788   0.332   6.751   7.676  0.3649  0.0101  0.3788
 6504SOL    HW122789   0.365   6.663   7.658  0.7543  0.0986  0.6562
 6504SOL    HW222790   0.401   6.793   7.728 -0.3730  0.0256  1.3954
 6505SOL     OW22791   5.065   4.802   8.089  0.4524  0.4813 -0.1342
 6505SOL    HW122792   4.988   4.815   8.033  1.5624 -0.7328 -2.0390
 6505SOL    HW222793   5.098   4.891   8.103 -0.7095  0.9383 -0.1252
 6506SOL     OW22794   4.709   3.568   6.088  0.1642 -0.0758 -0.2634
 6506SOL    HW122795   4.747   3.494   6.041  1.1110  0.5772 -0.5650
 6506SOL    HW222796   4.769   3.582   6.162  0.6421  1.0679 -0.8337
 6507SOL     OW22797   1.114   7.305   9.732 -0.5322  0.3939 -0.1866
 6507SOL    HW122798   1.055   7.264   9.668 -0.2201  1.2258 -1.0358
 6507SOL    HW222799   1.189   7.334   9.679  1.2849 -1.7417  1.0160
 6508SOL     OW22800   1.674   9.722  11.376 -0.3444  0.6744 -0.0416
 6508SOL    HW122801   1.595   9.696  11.329  0.0483 -1.0777  0.2089
 6508SOL    HW222802   1.710   9.795  11.324  0.2245 -1.3323 -2.6785
 6509SOL     OW22803   3.090   3.514   7.787 -1.2338  0.1897 -0.3539
 6509SOL    HW122804   3.152   3.460   7.738 -0.5588  0.7184 -0.1008
 6509SOL    HW222805   3.040   3.561   7.720 -0.2675  0.9629 -0.5652
 6510SOL     OW22806   7.366  10.271   7.315 -0.4797 -0.3205 -0.3010
 6510SOL    HW122807   7.330  10.359   7.323  1.0814  0.2602  0.7710
 6510SOL    HW222808   7.430  10.264   7.386 -0.8511 -2.4715 -0.1042
 6511SOL     OW22809   9.631   5.010   1.513  0.3332 -0.3715 -0.4926
 6511SOL    HW122810   9.576   4.954   1.568  0.1596  0.5780  0.3205
 6511SOL    HW222811   9.717   4.970   1.516  1.0200  1.0367  2.6574
 6512SOL     OW22812   7.860   5.510   1.951  0.0615 -0.1461 -0.5123
 6512SOL    HW122813   7.839   5.474   2.037 -0.0278  0.4342 -0.2843
 6512SOL    HW222814   7.775   5.531   1.912  0.1137  2.9248  0.7239
 6513SOL     OW22815   9.380   5.088   6.583 -0.2940 -0.2041  0.1474
 6513SOL    HW122816   9.327   5.035   6.524  0.1842  1.0072 -1.4301
 6513SOL    HW222817   9.449   5.123   6.528 -2.2386  4.5312  0.2737
 6514SOL     OW22818  11.074   2.925   1.508  0.0994  0.1028 -0.2144
 6514SOL    HW122819  11.100   3.006   1.464  2.8783 -1.1905 -1.1570
 6514SOL    HW222820  11.090   2.857   1.443 -1.3639 -1.3435  0.8530
 6515SOL     OW22821  10.925   6.832   6.052 -0.3636 -0.6807 -0.3586
 6515SOL    HW122822  10.984   6.904   6.074 -1.6151 -0.3727  2.5051
 6515SOL    HW222823  10.970   6.754   6.085 -1.4158 -0.4565  1.7364
 6516SOL     OW22824   0.212   5.891   7.926 -0.0924 -0.5247  0.0180
 6516SOL    HW122825   0.300   5.921   7.950  0.0248 -2.2538  2.0238
 6516SOL    HW222826   0.153   5.944   7.980 -0.4211  1.2091 -1.9142
 6517SOL     OW22827   2.956   4.979   6.231 -0.3484 -0.4332 -1.1111
 6517SOL    HW122828   2.962   4.894   6.274  1.7908  0.3516  0.3076
 6517SOL    HW222829   3.017   4.973   6.157  0.0888 -0.0155 -0.7861
 6518SOL     OW22830   2.505   3.895   8.728 -0.0883  0.3085  0.0377
 6518SOL    HW122831   2.428   3.938   8.690  0.0917  0.2812 -0.3570
 6518SOL    HW222832   2.524   3.947   8.807 -0.0828  0.7438 -0.2463
 6519SOL     OW22833   7.141   1.255   6.001 -0.3832 -0.7093  0.4478
 6519SOL    HW122834   7.067   1.286   6.054 -0.6308  1.1063 -0.8780
 6519SOL    HW222835   7.218   1.283   6.050 -0.6096  1.2556 -0.2559
 6520SOL     OW22836  10.957   8.258   4.581  0.4653 -0.2850  0.0188
 6520SOL    HW122837  10.932   8.330   4.522 -0.4813  1.4179  2.3495
 6520SOL    HW222838  11.015   8.299   4.645 -0.5833 -1.4369  1.7798
 6521SOL     OW22839   2.808   6.156   6.380  0.0928 -0.4998 -0.1432
 6521SOL    HW122840   2.825   6.125   6.469 -1.0963 -3.6658 -0.8630
 6521SOL    HW222841   2.894   6.157   6.338  0.7248  1.4302  1.0612
 6522SOL     OW22842   4.747   8.263   6.654  0.1063 -0.3125 -0.0507
 6522SOL    HW122843   4.830   8.308   6.668 -0.5991  0.6481  1.2067
 6522SOL    HW222844   4.772   8.171   6.640  1.3057 -0.3495  1.9731
 6523SOL     OW22845   7.996   7.844  10.230 -0.2425  0.0139 -0.2378
 6523SOL    HW122846   8.024   7.776  10.291  1.6646  0.7219 -0.2698
 6523SOL    HW222847   7.968   7.796  10.152 -1.2435 -0.8179  0.5888
 6524SOL     OW22848   2.599   3.528   5.339  0.6215 -0.0492  0.2086
 6524SOL    HW122849   2.671   3.577   5.380  1.0817 -1.2873  0.9123
 6524SOL    HW222850   2.525   3.541   5.398  0.3285  0.9709 -0.3574
 6525SOL     OW22851   9.173  10.791   1.305 -0.2448  0.0937  0.1294
 6525SOL    HW122852   9.141  10.752   1.387  1.6798 -0.7097  0.5519
 6525SOL    HW222853   9.095  10.800   1.251 -1.4571 -0.0554  1.7649
 6526SOL     OW22854   5.997   2.977   8.128 -0.1417 -0.3397 -0.1391
 6526SOL    HW122855   6.040   3.046   8.078  1.1705 -2.4249 -2.1089
 6526SOL    HW222856   5.957   2.921   8.061  0.1132 -2.2669  1.2487
 6527SOL     OW22857   5.776  10.756   5.258  0.3138  0.6818 -0.0905
 6527SOL    HW122858   5.699  10.776   5.204 -0.2978  3.7502  1.6450
 6527SOL    HW222859   5.745  10.689   5.319  0.0108 -0.3965 -1.3940
 6528SOL     OW22860   6.221   3.469   5.437 -0.2299  0.2645 -0.7570
 6528SOL    HW122861   6.221   3.378   5.465  1.3463  0.1256 -1.1592
 6528SOL    HW222862   6.194   3.466   5.345 -1.2146  0.3303 -0.4887
 6529SOL     OW22863   6.425   9.580   7.226 -0.3242  0.0365 -0.4249
 6529SOL    HW122864   6.342   9.550   7.261 -0.0878 -1.2436 -0.8764
 6529SOL    HW222865   6.491   9.542   7.284 -0.0366  1.2412  0.0782
 6530SOL     OW22866   2.822   5.432  11.156 -0.4730 -0.2415 -0.0300
 6530SOL    HW122867   2.729   5.449  11.169 -0.4901  0.0854 -0.5704
 6530SOL    HW222868   2.862   5.456  11.240 -0.8746 -0.4228  0.2158
 6531SOL     OW22869   6.385   4.573   5.049 -0.3016 -0.1534  0.4353
 6531SOL    HW122870   6.369   4.554   4.957  0.9147  0.8654 -0.0127
 6531SOL    HW222871   6.347   4.659   5.063 -1.5170 -0.7839  1.2173
 6532SOL     OW22872  10.410   8.429   9.419  0.0493 -0.0052 -0.6107
 6532SOL    HW122873  10.441   8.355   9.368  0.6315  0.2571 -0.6415
 6532SOL    HW222874  10.422   8.402   9.510  2.8822  1.0781 -0.5705
 6533SOL     OW22875   6.703   1.277   3.167  0.2046 -0.1128  0.1914
 6533SOL    HW122876   6.712   1.337   3.093  0.3928  0.1226  0.4070
 6533SOL    HW222877   6.642   1.321   3.226  0.1865 -0.2254  0.2562
 6534SOL     OW22878   2.484   2.643   7.188 -0.4205 -0.2245 -0.4256
 6534SOL    HW122879   2.537   2.616   7.113 -0.9501 -0.9045 -0.5618
 6534SOL    HW222880   2.506   2.735   7.201  1.5737 -0.7233  0.1521
 6535SOL     OW22881   2.522   4.678   0.927  0.0475  0.1512  0.1506
 6535SOL    HW122882   2.566   4.753   0.966  0.6017 -0.0072 -0.1647
 6535SOL    HW222883   2.458   4.717   0.867  0.0691  0.3784  0.2741
 6536SOL     OW22884   5.722  11.062   7.787 -0.1381  0.6356 -0.6156
 6536SOL    HW122885   5.633  11.065   7.820  0.7110  0.3685  1.9368
 6536SOL    HW222886   5.746  10.969   7.790  0.5452  0.8146 -0.2962
 6537SOL     OW22887   1.589   9.716   9.925  0.6477 -0.7602  0.5691
 6537SOL    HW122888   1.539   9.770   9.986 -0.2357 -0.2245 -0.5807
 6537SOL    HW222889   1.598   9.631   9.968  0.5388 -0.2224  1.6698
 6538SOL     OW22890   3.100   4.650   0.763 -0.1698  0.2630  0.4210
 6538SOL    HW122891   3.060   4.678   0.681 -0.9562 -1.2768  0.2257
 6538SOL    HW222892   3.034   4.592   0.802 -0.6028  2.3133  3.0359
 6539SOL     OW22893   7.862   0.440   9.957 -0.2734  0.5507 -0.3180
 6539SOL    HW122894   7.870   0.535   9.964  0.7217  0.5149 -0.8178
 6539SOL    HW222895   7.812   0.426   9.876 -4.4967  0.7287  2.0029
 6540SOL     OW22896   2.116   8.631   6.200 -0.2197  0.1725  0.6057
 6540SOL    HW122897   2.149   8.710   6.242  0.7578 -0.6095  1.3467
 6540SOL    HW222898   2.044   8.603   6.257  0.3667 -0.2523  1.1587
 6541SOL     OW22899   1.581   4.317   5.814  0.3976  0.1726 -0.3271
 6541SOL    HW122900   1.621   4.360   5.738  0.7614  1.5452  0.6034
 6541SOL    HW222901   1.620   4.229   5.814  0.2162  0.0601 -1.8397
 6542SOL     OW22902  11.310   3.709   2.040  0.0966 -0.3950 -0.3323
 6542SOL    HW122903  11.275   3.742   2.123  0.8181 -1.1295  0.2894
 6542SOL    HW222904  11.405   3.718   2.049  0.1853 -0.5098 -1.0749
 6543SOL     OW22905   8.621   1.312   2.385 -0.2938 -0.6987 -0.0650
 6543SOL    HW122906   8.571   1.246   2.338 -0.4586 -0.2498 -0.5281
 6543SOL    HW222907   8.601   1.395   2.340  0.4645 -0.4378  0.0504
 6544SOL     OW22908   0.765   4.636   9.004 -0.1476 -0.1200 -0.3111
 6544SOL    HW122909   0.721   4.668   9.083 -1.3446  0.0021 -1.0070
 6544SOL    HW222910   0.724   4.685   8.933  0.0339 -1.1207 -1.1206
 6545SOL     OW22911   5.756   4.202   8.820  0.1152 -0.3575 -0.2162
 6545SOL    HW122912   5.837   4.226   8.776 -0.7716  0.5957 -1.3876
 6545SOL    HW222913   5.688   4.216   8.755 -1.3919  2.1237  1.7149
 6546SOL     OW22914   1.534  10.716   5.961  0.0731  0.2693 -0.3364
 6546SOL    HW122915   1.554  10.761   6.043  2.4113  0.3117 -0.8417
 6546SOL    HW222916   1.524  10.786   5.897  1.1903  0.2023 -0.6189
 6547SOL     OW22917   7.141   1.056   3.774 -0.8452  0.3444  0.0657
 6547SOL    HW122918   7.164   1.089   3.687 -0.4935 -0.8849 -0.3343
 6547SOL    HW222919   7.177   1.121   3.834 -0.7642  1.0225 -0.6924
 6548SOL     OW22920   4.932   4.678   6.781  0.7164  0.2440  0.0395
 6548SOL    HW122921   4.877   4.663   6.858  0.5734  0.3969 -0.0331
 6548SOL    HW222922   4.986   4.599   6.774  0.5229  0.1045  0.1234
 6549SOL     OW22923  10.263   2.200   9.963  0.1772  0.5901 -0.1280
 6549SOL    HW122924  10.306   2.251  10.031 -0.1201  1.3904 -0.5172
 6549SOL    HW222925  10.324   2.202   9.889  0.2566  0.2006 -0.0722
 6550SOL     OW22926  10.205   8.874   9.087 -0.2869 -0.3469  0.0464
 6550SOL    HW122927  10.276   8.886   9.151 -0.6099  0.4380  0.2702
 6550SOL    HW222928  10.212   8.949   9.029 -0.0459 -1.0195 -0.8201
 6551SOL     OW22929   5.816  10.915  10.204  0.6594  0.1996  0.0323
 6551SOL    HW122930   5.910  10.911  10.188  0.3047 -3.3420 -2.0163
 6551SOL    HW222931   5.780  10.963  10.130  0.7254  0.7220  0.3308
 6552SOL     OW22932   2.395   5.737   4.118 -0.1692  0.0648  0.1651
 6552SOL    HW122933   2.362   5.732   4.028  1.5025  0.4717 -0.5076
 6552SOL    HW222934   2.440   5.654   4.132 -0.3429  0.0436  0.5924
 6553SOL     OW22935   5.981   8.841   7.122 -0.6364  0.3998  0.1138
 6553SOL    HW122936   5.908   8.787   7.091  0.2209 -0.4298 -0.5033
 6553SOL    HW222937   5.985   8.823   7.216 -1.6542  0.9942  0.2867
 6554SOL     OW22938   4.021   1.685   4.175  0.3151 -0.3743  0.5649
 6554SOL    HW122939   4.070   1.767   4.168 -3.1066  1.7231 -1.6010
 6554SOL    HW222940   4.010   1.671   4.269  3.1891  0.0853  1.0683
 6555SOL     OW22941   6.910   8.275   5.310  0.4391  0.7185 -0.5427
 6555SOL    HW122942   6.982   8.253   5.370 -0.0500 -1.4017 -0.6560
 6555SOL    HW222943   6.865   8.347   5.353 -1.0972 -1.9220  2.7729
 6556SOL     OW22944   3.019   9.850   1.165 -0.2934  0.1595  0.5470
 6556SOL    HW122945   3.084   9.885   1.227  0.0222 -0.0664  0.3493
 6556SOL    HW222946   2.942   9.833   1.218 -0.1719  0.3790  0.7995
 6557SOL     OW22947   7.407   3.982   6.914  0.4051  0.1701  0.2716
 6557SOL    HW122948   7.388   3.953   7.003  1.0896 -0.0281  0.3620
 6557SOL    HW222949   7.482   4.041   6.924  0.4072  0.2445 -0.1582
 6558SOL     OW22950   7.662   4.592   8.661 -0.0434 -0.6828 -0.4574
 6558SOL    HW122951   7.727   4.555   8.720 -0.3965 -0.7783 -0.1214
 6558SOL    HW222952   7.673   4.543   8.580 -0.6858 -1.7294  0.0646
 6559SOL     OW22953   2.232   3.866  10.242 -0.5089 -0.5908  0.0664
 6559SOL    HW122954   2.171   3.914  10.187  1.6507  1.7525 -0.4899
 6559SOL    HW222955   2.265   3.795  10.186 -0.5870 -0.0960 -0.6173
 6560SOL     OW22956   7.465   0.771   9.455  0.0075  0.1335  0.5526
 6560SOL    HW122957   7.554   0.798   9.430  0.4343 -0.5294  1.3173
 6560SOL    HW222958   7.432   0.845   9.507 -0.8701  1.5020 -1.8088
 6561SOL     OW22959   4.640   0.272   7.494 -0.8181 -0.1388  0.2560
 6561SOL    HW122960   4.706   0.297   7.429 -1.0775  0.5385  0.2413
 6561SOL    HW222961   4.671   0.189   7.529 -0.2275 -0.0851 -0.1198
 6562SOL     OW22962  10.520   4.154   1.056 -0.7490 -0.2837 -0.1155
 6562SOL    HW122963  10.449   4.155   1.120  0.1119 -1.8002  0.9458
 6562SOL    HW222964  10.546   4.062   1.050  1.0579  0.2033 -0.5147
 6563SOL     OW22965  10.444   3.699   3.908  0.3669  0.2906 -0.3362
 6563SOL    HW122966  10.385   3.768   3.938  1.1359  2.0767 -2.5954
 6563SOL    HW222967  10.526   3.744   3.890  1.0014 -1.2721 -1.6153
 6564SOL     OW22968   9.093  11.041   9.604  0.2338  0.3320  0.2183
 6564SOL    HW122969   9.145  11.004   9.675  0.4402  1.3931  0.6454
 6564SOL    HW222970   9.152  11.040   9.528  0.2536 -0.1546  0.2399
 6565SOL     OW22971   1.730   5.562   1.704 -0.4640  0.9273 -0.0589
 6565SOL    HW122972   1.758   5.643   1.745 -0.5716  0.2509  1.4301
 6565SOL    HW222973   1.635   5.572   1.694 -0.3140  1.4728 -1.0603
 6566SOL     OW22974   9.981  10.549   2.424  0.2785 -0.3245 -0.0304
 6566SOL    HW122975   9.944  10.468   2.458 -1.1539 -0.2628 -1.3582
 6566SOL    HW222976   9.944  10.618   2.480  0.4455 -0.4640  0.2552
 6567SOL     OW22977   8.559   7.135  10.184 -0.2118 -0.7258 -0.6730
 6567SOL    HW122978   8.575   7.146  10.278 -1.8487  2.9241 -0.6697
 6567SOL    HW222979   8.638   7.172  10.143 -0.7288  0.4310 -0.6700
 6568SOL     OW22980   2.076   5.888   4.691  0.3091  0.3591 -0.1161
 6568SOL    HW122981   2.099   5.980   4.677  0.3909  0.3883  0.2136
 6568SOL    HW222982   2.132   5.859   4.762  0.7012 -0.1155 -0.6127
 6569SOL     OW22983   2.639   1.953   8.069  0.1236  0.1670  0.0037
 6569SOL    HW122984   2.567   1.890   8.076 -0.1225  0.2295 -1.6010
 6569SOL    HW222985   2.625   2.014   8.142 -0.4747 -0.7840  0.7015
 6570SOL     OW22986   9.588   7.132   3.119 -0.3475 -0.2605  0.2054
 6570SOL    HW122987   9.557   7.223   3.116 -1.1156 -0.5321 -0.3948
 6570SOL    HW222988   9.555   7.093   3.039 -1.1365 -1.4264  1.0616
 6571SOL     OW22989   6.977   1.294   1.208  0.0339 -0.6895  0.0937
 6571SOL    HW122990   6.998   1.209   1.171 -0.0939 -0.3125 -0.8865
 6571SOL    HW222991   7.054   1.319   1.258  0.8005 -0.5927 -1.0977
 6572SOL     OW22992   0.414   0.287   1.916 -0.3599 -0.1995  0.5940
 6572SOL    HW122993   0.456   0.226   1.856 -1.5268  0.7176 -1.2146
 6572SOL    HW222994   0.475   0.361   1.921 -0.4262 -0.1246  0.2786
 6573SOL     OW22995   8.118   3.403   6.950  0.4006 -0.7869  0.0735
 6573SOL    HW122996   8.135   3.492   6.981 -0.9033 -0.7493  0.7501
 6573SOL    HW222997   8.187   3.386   6.885  1.7118  0.0577  1.1935
 6574SOL     OW22998   6.723   3.638   6.974 -0.0236 -0.0112  0.3203
 6574SOL    HW122999   6.702   3.732   6.974 -1.1846 -0.2576 -0.6228
 6574SOL    HW223000   6.682   3.605   7.054  0.6157  0.3230  0.7952
 6575SOL     OW23001   5.471   8.265   4.236  0.1209 -0.2806  0.2534
 6575SOL    HW123002   5.504   8.242   4.150  0.3110 -1.4788  0.6267
 6575SOL    HW223003   5.549   8.289   4.287 -0.0782  1.3454 -0.1461
 6576SOL     OW23004   3.323   3.998   4.393 -0.6667  0.0812  0.4069
 6576SOL    HW123005   3.409   3.973   4.359 -1.2392 -0.4853 -0.6584
 6576SOL    HW223006   3.309   4.087   4.360  0.1771  0.8191  1.9164
 6577SOL     OW23007  11.143   4.601   1.955  0.3576 -0.1484 -0.5567
 6577SOL    HW123008  11.196   4.567   2.027 -1.1431 -0.1833  0.5538
 6577SOL    HW223009  11.147   4.696   1.965  1.0944 -0.0982 -1.1585
 6578SOL     OW23010   5.082  11.382   8.569 -0.9095 -0.0913  0.1260
 6578SOL    HW123011   5.026  11.411   8.641 -3.1086 -1.5200 -0.9137
 6578SOL    HW223012   5.044  11.299   8.540  0.9247 -0.4162 -1.5983
 6579SOL     OW23013   6.714   8.711   2.508 -0.1146  0.1550  0.3233
 6579SOL    HW123014   6.755   8.630   2.475  2.2125  1.0871  0.7173
 6579SOL    HW223015   6.784   8.754   2.558 -2.1107  1.0917  2.4719
 6580SOL     OW23016   5.239  10.773   8.434 -0.0378  0.0250  0.1116
 6580SOL    HW123017   5.321  10.781   8.385 -0.2656 -0.3176 -0.3387
 6580SOL    HW223018   5.193  10.855   8.418 -0.4126 -0.3544 -0.8267
 6581SOL     OW23019   9.533   7.246   1.280 -0.1096 -0.5101  0.1082
 6581SOL    HW123020   9.491   7.298   1.349  2.0991  0.3675  0.8685
 6581SOL    HW223021   9.623   7.233   1.311  0.1227 -2.6311 -1.2702
 6582SOL     OW23022   0.486   5.466  10.856 -0.7670  0.2776  0.1064
 6582SOL    HW123023   0.562   5.515  10.887  0.8107 -2.5279  1.0386
 6582SOL    HW223024   0.426   5.533  10.821  1.7047  2.6727  0.1619
 6583SOL     OW23025   9.429   8.853   2.358 -0.8578 -0.3095 -0.3908
 6583SOL    HW123026   9.508   8.901   2.383  0.6040 -2.0114 -1.4932
 6583SOL    HW223027   9.428   8.777   2.416 -1.3184 -0.6523 -0.8424
 6584SOL     OW23028   8.915   5.868   8.946  0.2866  0.0008 -0.5454
 6584SOL    HW123029   8.970   5.821   8.883 -0.0106 -3.3292  1.4248
 6584SOL    HW223030   8.966   5.868   9.027 -0.6260  1.3242  0.0742
 6585SOL     OW23031   3.866   9.083   2.173  0.5622 -0.4587  0.3122
 6585SOL    HW123032   3.890   9.100   2.264  0.9016 -0.3284  0.2002
 6585SOL    HW223033   3.905   8.997   2.154  0.5818 -0.4375  0.2580
 6586SOL     OW23034   6.909  10.726   9.365 -0.2077 -0.5620 -0.1212
 6586SOL    HW123035   6.827  10.690   9.330 -0.1573  1.2626 -2.3208
 6586SOL    HW223036   6.977  10.681   9.315 -0.0895  1.2619 -1.6815
 6587SOL     OW23037   2.272   8.142   3.722  0.0032 -0.2391  0.5389
 6587SOL    HW123038   2.293   8.068   3.779  2.9267 -0.7804 -1.0844
 6587SOL    HW223039   2.238   8.101   3.642 -1.2516  0.3814  0.7278
 6588SOL     OW23040   2.076   3.362  11.034  0.9950  0.2599  0.2267
 6588SOL    HW123041   1.999   3.412  11.007  1.0744 -0.7652 -2.1840
 6588SOL    HW223042   2.104   3.402  11.115 -1.2388  1.5762  0.4176
 6589SOL     OW23043   1.813   2.286  10.044 -1.3767 -0.2418 -0.7234
 6589SOL    HW123044   1.900   2.312  10.012 -0.7849 -0.2930  0.7350
 6589SOL    HW223045   1.820   2.191  10.057 -0.7738  0.0359  1.6674
 6590SOL     OW23046   6.496   8.765   7.111  0.5608  0.7237 -0.0414
 6590SOL    HW123047   6.405   8.793   7.110  0.4895  0.8008  2.4994
 6590SOL    HW223048   6.493   8.673   7.134  1.1362  0.7999  0.3648
 6591SOL     OW23049   5.344   0.984   8.169 -0.6405 -0.2501 -0.2366
 6591SOL    HW123050   5.348   1.028   8.253  1.6689  1.5059 -1.1755
 6591SOL    HW223051   5.409   0.914   8.175  1.8137  1.7715 -1.4526
 6592SOL     OW23052   7.771   7.162   6.404 -0.7357  0.5108  0.2699
 6592SOL    HW123053   7.681   7.195   6.405  0.2625  3.5970  1.4853
 6592SOL    HW223054   7.797   7.160   6.496  0.5228 -0.1608 -0.0708
 6593SOL     OW23055  10.797   2.921   1.298  0.0099  0.3181 -0.3503
 6593SOL    HW123056  10.874   2.866   1.291  0.8250  1.3789 -0.0424
 6593SOL    HW223057  10.740   2.876   1.360  0.5379 -0.3024 -0.3107
 6594SOL     OW23058   7.374   3.624   2.924  0.1769  0.1411 -0.6979
 6594SOL    HW123059   7.323   3.624   2.843 -0.4848 -1.1370 -0.3223
 6594SOL    HW223060   7.324   3.681   2.983  0.1820  0.3720 -0.9162
 6595SOL     OW23061   2.380  10.512  11.027  0.4242 -0.2212 -0.9957
 6595SOL    HW123062   2.287  10.508  11.008  0.0239 -3.3839  0.9184
 6595SOL    HW223063   2.385  10.548  11.115  0.8989 -0.8111 -0.7682
 6596SOL     OW23064   6.683   9.677   9.203  0.5082 -0.0818  0.1495
 6596SOL    HW123065   6.611   9.707   9.258 -1.2267  0.7385 -2.4138
 6596SOL    HW223066   6.755   9.662   9.264 -0.6727  2.6401  2.4350
 6597SOL     OW23067   3.178   6.060   6.772 -0.1018  0.6204 -0.0968
 6597SOL    HW123068   3.244   6.060   6.703 -0.5038 -1.9744 -0.5968
 6597SOL    HW223069   3.226   6.030   6.850 -0.2122  1.0088  0.1235
 6598SOL     OW23070   6.422   7.665   4.654  0.1297 -0.3995 -0.4953
 6598SOL    HW123071   6.340   7.671   4.704 -0.8200 -1.3982 -1.8578
 6598SOL    HW223072   6.450   7.574   4.664  1.5764  0.1386  0.6647
 6599SOL     OW23073   3.199   0.008   4.402 -0.2746 -0.3163 -0.0209
 6599SOL    HW123074   3.172   0.065   4.329 -1.7722 -1.7070 -0.6151
 6599SOL    HW223075   3.287  -0.022   4.377 -0.5724 -0.3933 -1.0430
 6600SOL     OW23076   4.286   6.798   5.043  0.3042  0.4566  0.3993
 6600SOL    HW123077   4.285   6.734   4.972  0.3069  0.8013  0.0878
 6600SOL    HW223078   4.264   6.747   5.121  0.3392  0.0695  0.1602
 6601SOL     OW23079  10.108   6.703   4.994  0.5351 -0.1998  0.3934
 6601SOL    HW123080  10.044   6.746   4.936  1.5771  0.7261 -0.1240
 6601SOL    HW223081  10.061   6.630   5.032 -0.8871  0.5549  0.1590
 6602SOL     OW23082   6.398   3.353   7.093  0.2028  0.3423 -0.0584
 6602SOL    HW123083   6.377   3.296   7.019  1.2396  1.4518 -1.2591
 6602SOL    HW223084   6.494   3.347   7.101  0.3058  1.6813 -0.0479
 6603SOL     OW23085   0.331   3.232   4.263 -0.4389  0.7023 -0.4467
 6603SOL    HW123086   0.364   3.207   4.349  2.0911  0.8851 -1.2962
 6603SOL    HW223087   0.369   3.318   4.247 -1.4068  0.9565 -1.5014
 6604SOL     OW23088   1.709   7.122   5.511 -0.2024  0.0328  0.1352
 6604SOL    HW123089   1.701   7.217   5.508 -0.8062 -0.0134  0.1222
 6604SOL    HW223090   1.646   7.091   5.446  0.1293 -0.3701  0.0002
 6605SOL     OW23091   4.282   5.642   8.907 -0.1630 -0.0526  0.0778
 6605SOL    HW123092   4.284   5.626   9.002 -0.6135  0.4254  0.1755
 6605SOL    HW223093   4.374   5.655   8.883  0.4734 -4.1092 -0.2999
 6606SOL     OW23094   9.842   9.826   7.634 -0.7260 -0.4773 -0.0819
 6606SOL    HW123095   9.773   9.804   7.571 -2.0662 -1.6446  1.7064
 6606SOL    HW223096   9.808   9.902   7.682 -0.2872 -0.3878  0.0973
 6607SOL     OW23097   4.397  10.508   4.242  0.2108  0.3655  0.5135
 6607SOL    HW123098   4.367  10.552   4.163 -0.8512  0.8868  1.1928
 6607SOL    HW223099   4.389  10.415   4.223  2.8734  0.3586 -1.0982
 6608SOL     OW23100   4.034   7.310   3.429  0.0082  0.1950  1.1530
 6608SOL    HW123101   4.120   7.304   3.388 -0.6104 -1.8381  0.0007
 6608SOL    HW223102   4.049   7.289   3.521  1.0323  2.2134  1.5132
 6609SOL     OW23103   6.719   7.526   2.921  0.4604 -0.3037 -0.0829
 6609SOL    HW123104   6.643   7.533   2.863  0.9146  0.6462 -0.5863
 6609SOL    HW223105   6.682   7.512   3.007 -0.3733  1.3486 -0.1190
 6610SOL     OW23106   1.777   1.128   6.366  0.7971 -0.1954 -0.1703
 6610SOL    HW123107   1.846   1.194   6.357  1.4444 -0.8144  0.2209
 6610SOL    HW223108   1.816   1.048   6.333  0.1296 -0.4679 -0.3085
 6611SOL     OW23109   5.434  10.755   0.125 -0.3341 -0.1113 -1.1321
 6611SOL    HW123110   5.390  10.823   0.074  2.5794  2.6607 -0.2402
 6611SOL    HW223111   5.494  10.803   0.182  0.8176 -3.4099  0.6653
 6612SOL     OW23112   9.149   0.548   6.944  0.4615  0.2510 -0.5101
 6612SOL    HW123113   9.177   0.474   6.891  1.8747  0.5773 -0.2804
 6612SOL    HW223114   9.158   0.518   7.035  1.1825  0.7317 -0.4137
 6613SOL     OW23115  10.536  10.427  10.796  0.2060  0.3210  0.0712
 6613SOL    HW123116  10.472  10.388  10.856  0.0550  0.3552 -0.0683
 6613SOL    HW223117  10.489  10.439  10.714  0.6408 -0.4706 -0.3043
 6614SOL     OW23118   2.373   2.800   5.871  0.5956  0.2727 -0.0079
 6614SOL    HW123119   2.419   2.881   5.891 -1.2757  1.1998  0.8340
 6614SOL    HW223120   2.323   2.780   5.950  0.7405 -1.5215 -0.3220
 6615SOL     OW23121   9.304   1.256  10.139 -0.2772 -0.0126  0.0382
 6615SOL    HW123122   9.325   1.338  10.096 -0.7250  1.7224  2.8873
 6615SOL    HW223123   9.386   1.229  10.181  0.5457 -2.4296 -2.8153
 6616SOL     OW23124   6.079   6.994   2.462 -0.2495  0.0380  0.0442
 6616SOL    HW123125   6.036   6.910   2.447  0.8851 -0.9066  1.7496
 6616SOL    HW223126   6.040   7.027   2.543 -0.6511  1.1721 -0.5821
 6617SOL     OW23127   7.123   3.990   0.921 -0.3563  0.1255 -0.1144
 6617SOL    HW123128   7.035   3.962   0.897 -1.2491  1.6837  1.1650
 6617SOL    HW223129   7.166   4.009   0.837 -1.8179  0.9885 -0.7038
 6618SOL     OW23130   7.861   7.826   0.202  0.3505  0.3079 -0.0735
 6618SOL    HW123131   7.822   7.848   0.117  1.3545 -0.5462 -0.7867
 6618SOL    HW223132   7.812   7.749   0.232 -1.4872  1.9100  1.2208
 6619SOL     OW23133   4.116   3.286   7.944  0.2076 -0.0896  0.0620
 6619SOL    HW123134   4.201   3.243   7.951  0.1011 -0.2809  0.2009
 6619SOL    HW223135   4.071   3.238   7.874 -0.3233 -0.9209  0.9485
 6620SOL     OW23136   5.766  11.006  10.462  0.2372 -0.4122  0.0132
 6620SOL    HW123137   5.790  10.925  10.507  1.1587 -0.3166 -0.2695
 6620SOL    HW223138   5.773  10.984  10.369 -0.6882 -0.3338 -0.0864
 6621SOL     OW23139   0.123   9.595   3.785  0.2190  0.6290 -0.4958
 6621SOL    HW123140   0.168   9.666   3.738  1.3223 -1.2046 -2.3714
 6621SOL    HW223141   0.179   9.519   3.773 -1.4202 -0.8296  0.5892
 6622SOL     OW23142   5.146  11.175   6.541  0.5724  0.0382  0.0402
 6622SOL    HW123143   5.151  11.087   6.503 -0.0623  0.4799 -1.1145
 6622SOL    HW223144   5.220  11.179   6.602 -0.2214 -1.7964  1.2330
 6623SOL     OW23145   6.590   3.511   9.817  0.4489 -0.2942  0.4088
 6623SOL    HW123146   6.560   3.506   9.727 -0.4154  0.9883  0.6034
 6623SOL    HW223147   6.523   3.465   9.868  0.5411 -0.3459  0.4845
 6624SOL     OW23148   9.206   3.340   1.178 -0.2089 -0.2404  0.0713
 6624SOL    HW123149   9.258   3.296   1.246 -0.0924  0.8614  0.7133
 6624SOL    HW223150   9.257   3.329   1.098  0.5015 -0.0791  0.4958
 6625SOL     OW23151   8.469   8.603   5.457 -0.2913 -0.8123 -0.2854
 6625SOL    HW123152   8.534   8.668   5.428 -1.3276  0.6462  0.5259
 6625SOL    HW223153   8.521   8.526   5.480  0.7667 -1.3251 -3.8264
 6626SOL     OW23154   8.486   8.372   7.372  0.6665 -0.0896 -0.5640
 6626SOL    HW123155   8.517   8.294   7.416  0.8978 -0.3543 -1.1857
 6626SOL    HW223156   8.538   8.443   7.408 -1.3504  0.2334  2.0149
 6627SOL     OW23157   0.138   7.777   4.349 -0.3786 -0.1491 -0.0572
 6627SOL    HW123158   0.142   7.862   4.305 -0.8402 -0.1661 -0.1443
 6627SOL    HW223159   0.213   7.728   4.315  0.1781  0.4003  0.3774
 6628SOL     OW23160   7.848   5.814   0.279 -0.0902  0.2113 -0.1286
 6628SOL    HW123161   7.777   5.867   0.314  0.1414  0.0135  0.6687
 6628SOL    HW223162   7.829   5.725   0.309 -0.4676 -0.1757 -1.4345
 6629SOL     OW23163   3.416   5.324  10.993 -0.2700 -0.4944 -0.0565
 6629SOL    HW123164   3.508   5.299  10.999 -0.1951 -0.5432 -1.2007
 6629SOL    HW223165   3.402   5.381  11.069  1.0626  0.6118 -0.5929
 6630SOL     OW23166   2.652   4.413   4.830 -0.3407  0.6840 -0.5243
 6630SOL    HW123167   2.573   4.407   4.777 -1.3166  0.2109  0.9340
 6630SOL    HW223168   2.621   4.423   4.920  1.1819 -1.7761  0.3913
 6631SOL     OW23169   8.096   3.983   7.178 -0.5014 -0.1335  0.0321
 6631SOL    HW123170   8.097   3.955   7.269 -0.7367 -0.3611 -0.0354
 6631SOL    HW223171   8.009   3.961   7.147 -0.6293  0.5007 -0.0733
 6632SOL     OW23172   6.642   5.995  10.399 -0.5248  0.2675 -0.4254
 6632SOL    HW123173   6.715   5.988  10.460  1.2695  0.7341 -2.4094
 6632SOL    HW223174   6.566   5.963  10.448  1.1767 -1.2276  1.3743
 6633SOL     OW23175   3.126   3.928   8.910  0.4756  0.3923  0.4543
 6633SOL    HW123176   3.204   3.930   8.854  0.3584 -1.6588  0.1497
 6633SOL    HW223177   3.153   3.881   8.988 -0.5123 -0.6458  0.2054
 6634SOL     OW23178   4.129   5.001   5.677 -0.2422  0.4335  0.5026
 6634SOL    HW123179   4.154   4.921   5.631 -0.5365  0.4782  0.2671
 6634SOL    HW223180   4.146   4.982   5.769  3.3002  1.3824  0.1877
 6635SOL     OW23181  11.308   2.882   5.477 -0.0367  0.2297 -0.2807
 6635SOL    HW123182  11.297   2.814   5.543  0.3060  0.2095 -0.2449
 6635SOL    HW223183  11.276   2.843   5.396  1.9857 -0.6866 -0.6907
 6636SOL     OW23184   3.478   7.741   3.238  0.1384  0.0680  0.2526
 6636SOL    HW123185   3.472   7.709   3.328  0.1144  0.8910  0.5528
 6636SOL    HW223186   3.558   7.794   3.237  1.2669 -1.5595 -0.7407
 6637SOL     OW23187   2.182   9.693  10.530 -0.2833 -0.4425 -0.1687
 6637SOL    HW123188   2.131   9.745  10.468 -2.4524 -0.6340  1.3396
 6637SOL    HW223189   2.137   9.705  10.614  0.5508 -2.8432  0.7067
 6638SOL     OW23190   2.252   7.615   2.312  0.5573 -0.1784 -0.1266
 6638SOL    HW123191   2.344   7.636   2.300  0.3117  0.0127 -2.2225
 6638SOL    HW223192   2.213   7.694   2.349  1.1037  0.0435 -0.0285
 6639SOL     OW23193   3.207   4.538   2.258 -0.4590 -0.1152 -0.0586
 6639SOL    HW123194   3.128   4.488   2.276 -1.0539  0.3715 -1.2130
 6639SOL    HW223195   3.258   4.482   2.199  0.4918 -0.7954  1.3394
 6640SOL     OW23196   7.241  10.412   4.365  0.1166 -0.1165  0.5042
 6640SOL    HW123197   7.258  10.326   4.327 -0.8959 -0.4642  0.8285
 6640SOL    HW223198   7.325  10.458   4.357  0.3294 -0.6848 -0.8240
 6641SOL     OW23199   7.070   9.049   3.232  0.4301  0.2530  0.5503
 6641SOL    HW123200   7.150   9.011   3.195  0.3637  1.3784 -0.8037
 6641SOL    HW223201   7.090   9.142   3.242 -1.0382  0.7565 -0.8081
 6642SOL     OW23202   3.182   3.559   8.579  0.2447  0.0890 -0.0022
 6642SOL    HW123203   3.147   3.622   8.516 -0.9703  0.3478  0.8944
 6642SOL    HW223204   3.125   3.567   8.656  0.4714 -1.6274  0.3933
 6643SOL     OW23205   1.865  10.431   6.816 -0.6378  0.0666  0.6725
 6643SOL    HW123206   1.877  10.369   6.888  0.8964  1.1738  1.4364
 6643SOL    HW223207   1.809  10.386   6.754 -0.5202 -1.6196  1.7423
 6644SOL     OW23208   8.346   3.789   7.313 -0.3869  0.2649 -0.1371
 6644SOL    HW123209   8.335   3.751   7.400 -2.2497 -1.1757 -0.9379
 6644SOL    HW223210   8.281   3.859   7.308 -3.2664 -2.2852 -1.6737
 6645SOL     OW23211   2.903  11.272   0.346  0.0509  0.0666 -0.1419
 6645SOL    HW123212   2.810  11.257   0.331  0.2449  0.7036 -2.2698
 6645SOL    HW223213   2.907  11.362   0.377 -0.1245 -0.4169  1.3790
 6646SOL     OW23214   2.907  11.209   7.584  0.1646 -0.0949 -0.2069
 6646SOL    HW123215   2.992  11.197   7.540  0.5707  0.5077  0.3981
 6646SOL    HW223216   2.844  11.211   7.512  0.8670  1.3648 -0.8384
 6647SOL     OW23217   5.593   2.622   8.670 -0.4665 -0.4059 -0.1073
 6647SOL    HW123218   5.686   2.641   8.656 -0.3818  1.0961  1.9230
 6647SOL    HW223219   5.548   2.662   8.596  0.5521 -2.3763 -1.8716
 6648SOL     OW23220   8.794   6.796   7.920  0.3785 -0.0003 -0.1190
 6648SOL    HW123221   8.738   6.718   7.925  2.3841 -1.4968  0.2004
 6648SOL    HW223222   8.797   6.817   7.826  0.2200 -0.6094 -0.2673
 6649SOL     OW23223   7.863   3.682  10.089  0.1153 -0.1695 -0.2412
 6649SOL    HW123224   7.879   3.714  10.000  0.5720  0.3255  0.0176
 6649SOL    HW223225   7.912   3.741  10.145  1.4165 -1.6099  0.2138
 6650SOL     OW23226   1.080   5.515   2.882  0.1588  0.4165 -0.2318
 6650SOL    HW123227   1.009   5.462   2.847  0.3038  0.9825 -1.4538
 6650SOL    HW223228   1.063   5.520   2.976 -0.8414 -0.2949 -0.3634
 6651SOL     OW23229  11.255   7.557  10.377  0.3562  0.2043  0.3054
 6651SOL    HW123230  11.317   7.507  10.429 -0.3591 -0.9451  0.0878
 6651SOL    HW223231  11.222   7.494  10.313  0.5100  1.3371 -0.9295
 6652SOL     OW23232   9.301   8.526   7.297 -0.5321 -0.6219 -0.1139
 6652SOL    HW123233   9.318   8.594   7.232 -2.4665 -0.7053 -0.7707
 6652SOL    HW223234   9.225   8.479   7.263 -0.4738 -1.8278  1.3335
 6653SOL     OW23235   4.688   2.339   5.803 -0.3461  0.3193  0.4266
 6653SOL    HW123236   4.745   2.266   5.777 -0.2562  0.2213  0.8854
 6653SOL    HW223237   4.642   2.363   5.723  1.4832  1.4484 -0.3360
 6654SOL     OW23238  10.048   3.206   7.864 -0.2671 -0.0666  0.2037
 6654SOL    HW123239  10.016   3.197   7.775 -0.8877  1.0922  0.2997
 6654SOL    HW223240  10.129   3.257   7.855  0.2161 -0.8051  0.2212
 6655SOL     OW23241   6.614   9.126   7.938 -0.3979 -0.1980 -0.3339
 6655SOL    HW123242   6.532   9.097   7.900 -0.6938 -0.1712  0.2802
 6655SOL    HW223243   6.589   9.190   8.004  0.0952 -0.3839  0.0429
 6656SOL     OW23244   4.711   7.789   4.730  0.5346 -0.4184  0.2365
 6656SOL    HW123245   4.719   7.698   4.760 -2.5066 -0.3289  1.8030
 6656SOL    HW223246   4.745   7.788   4.641  1.3872 -2.9068  0.5107
 6657SOL     OW23247   3.952   0.980   6.183 -0.2355  0.3049 -0.0766
 6657SOL    HW123248   4.037   1.009   6.150  1.1637 -3.0340  0.2016
 6657SOL    HW223249   3.891   1.000   6.112  1.2823  0.4536 -1.4099
 6658SOL     OW23250   1.612   5.549   4.111 -0.2788 -0.0878  0.1823
 6658SOL    HW123251   1.621   5.509   4.198  0.3513 -0.4678 -0.0482
 6658SOL    HW223252   1.611   5.474   4.051  0.4478  0.2291 -0.2254
 6659SOL     OW23253   1.099   9.898   6.752 -0.4693  0.1456 -0.2232
 6659SOL    HW123254   1.066   9.975   6.705  0.8434  0.3331 -0.9099
 6659SOL    HW223255   1.076   9.914   6.843 -0.6035  1.1540 -0.4213
 6660SOL     OW23256   6.926   8.375   3.010  0.1220 -0.3955 -0.4444
 6660SOL    HW123257   6.982   8.362   3.087  0.9190  2.6399 -0.4029
 6660SOL    HW223258   6.962   8.316   2.944  0.6089 -1.6630  0.8970
 6661SOL     OW23259   5.305   7.215   0.492  0.2693  0.2250  0.1020
 6661SOL    HW123260   5.361   7.221   0.569  0.8406 -2.6981  0.0245
 6661SOL    HW223261   5.217   7.232   0.525  0.5455 -0.6820  1.3731
 6662SOL     OW23262   4.247   8.015   6.534 -0.2163 -0.3029 -0.0044
 6662SOL    HW123263   4.205   8.004   6.619  0.0535  1.2448  0.3686
 6662SOL    HW223264   4.219   7.940   6.483 -2.2469 -0.0872  0.7055
 6663SOL     OW23265   8.198  10.676   3.691 -0.1877  0.1052  0.3336
 6663SOL    HW123266   8.240  10.761   3.706 -1.3668  0.5432  1.3749
 6663SOL    HW223267   8.228  10.621   3.764  1.8139 -0.9215 -1.1735
 6664SOL     OW23268   0.659   5.524   9.111  0.4180  0.3618 -0.3327
 6664SOL    HW123269   0.593   5.481   9.056  1.7958 -2.1055 -0.2059
 6664SOL    HW223270   0.653   5.479   9.195  0.6052  1.8403  0.5128
 6665SOL     OW23271   7.759   7.275   9.601 -0.2510  0.0709  0.8627
 6665SOL    HW123272   7.768   7.265   9.506 -1.0498 -2.3054  0.9654
 6665SOL    HW223273   7.704   7.352   9.612  1.0330  1.2365 -0.5158
 6666SOL     OW23274   7.859   8.523   1.537 -0.2358 -0.3562 -0.0428
 6666SOL    HW123275   7.924   8.530   1.607 -1.2290  0.5282  0.8182
 6666SOL    HW223276   7.784   8.480   1.577 -0.7495 -0.0004 -0.5984
 6667SOL     OW23277   4.972   6.673  10.770 -0.4312 -0.7160 -0.0592
 6667SOL    HW123278   4.879   6.689  10.788  0.1835  2.5204  0.8600
 6667SOL    HW223279   5.017   6.706  10.848  1.5939 -0.6686 -1.1913
 6668SOL     OW23280   9.969   8.817   5.890  0.8413 -0.1730 -0.4585
 6668SOL    HW123281   9.966   8.913   5.899 -1.2641 -0.1171 -1.1335
 6668SOL    HW223282  10.040   8.790   5.947  0.4873  1.6839  0.9628
 6669SOL     OW23283   2.054   6.546   2.633 -0.2122  0.2091 -0.4821
 6669SOL    HW123284   2.127   6.604   2.610 -0.9737  1.6800  0.6419
 6669SOL    HW223285   2.016   6.521   2.549 -0.6857  2.4683 -1.0212
 6670SOL     OW23286   7.165   9.132   8.232 -0.2051 -0.4910  0.5804
 6670SOL    HW123287   7.230   9.170   8.291  0.4322  0.7689 -0.8402
 6670SOL    HW223288   7.217   9.087   8.165 -0.6862  1.0556 -0.9262
 6671SOL     OW23289   3.830   0.211   3.329 -0.0132  0.2730 -0.4624
 6671SOL    HW123290   3.802   0.284   3.384 -0.0518 -0.5165  0.6117
 6671SOL    HW223291   3.819   0.242   3.239  1.6502  2.2390 -0.0709
 6672SOL     OW23292   1.019   8.942   9.235  0.3937 -0.3075  0.0730
 6672SOL    HW123293   1.072   8.956   9.314  1.3887 -0.1664 -0.6049
 6672SOL    HW223294   1.074   8.887   9.179  0.1205  0.4258 -0.9384
 6673SOL     OW23295   5.306   1.306   8.144  0.1441  0.4821 -0.0394
 6673SOL    HW123296   5.278   1.221   8.109  2.5360 -0.8929  1.2181
 6673SOL    HW223297   5.374   1.335   8.083  0.2562  0.8863  0.2791
 6674SOL     OW23298   0.318   8.685  10.592  0.0157 -0.7434 -0.2696
 6674SOL    HW123299   0.285   8.659  10.506  0.3529  0.2061 -0.6995
 6674SOL    HW223300   0.406   8.718  10.575 -0.8866  2.0762 -0.0322
 6675SOL     OW23301   4.906   9.268   3.220  1.0300 -0.0359  0.3485
 6675SOL    HW123302   4.915   9.281   3.315 -0.9959 -2.1601  0.9246
 6675SOL    HW223303   4.973   9.202   3.199  1.9365  0.9226  0.1125
 6676SOL     OW23304   0.491   6.818   2.777  0.1720  0.2474  0.1117
 6676SOL    HW123305   0.460   6.846   2.692 -0.7289  0.6622  0.5652
 6676SOL    HW223306   0.557   6.884   2.802  1.3395 -0.5498 -0.7822
 6677SOL     OW23307   6.443   3.000   5.579  0.0870 -0.1452  0.2202
 6677SOL    HW123308   6.478   2.983   5.492  2.1949 -1.5805  1.2559
 6677SOL    HW223309   6.446   2.915   5.623 -2.1421  0.2830  1.3183
 6678SOL     OW23310   5.317   1.630   5.491 -0.2082 -0.5975  0.1543
 6678SOL    HW123311   5.284   1.664   5.407 -0.7436 -1.4375  0.0140
 6678SOL    HW223312   5.275   1.684   5.557  0.5852  0.3871 -0.1221
 6679SOL     OW23313   7.657   4.784   2.202 -0.2224 -0.1572 -0.0858
 6679SOL    HW123314   7.575   4.776   2.154 -0.7407  0.0251  0.7507
 6679SOL    HW223315   7.632   4.776   2.294  0.5148  1.2118  0.2639
 6680SOL     OW23316   9.568   9.192   3.891 -0.0392  0.1457  0.4673
 6680SOL    HW123317   9.636   9.127   3.907 -0.3883 -1.3516 -3.1922
 6680SOL    HW223318   9.616   9.275   3.885  0.7592 -0.1030  2.5441
 6681SOL     OW23319  10.197   3.884   0.945  0.0003 -0.1273  0.3508
 6681SOL    HW123320  10.187   3.879   0.850 -1.7657 -0.7472  0.5357
 6681SOL    HW223321  10.166   3.799   0.976 -0.0416  0.3097  1.5236
 6682SOL     OW23322   1.475   0.747   0.316 -0.1580 -0.2692  0.1793
 6682SOL    HW123323   1.486   0.814   0.384 -1.1277 -0.2034  0.2809
 6682SOL    HW223324   1.480   0.664   0.364 -1.0095 -0.2194  0.3658
 6683SOL     OW23325   9.928  10.139   0.221 -0.3564 -0.0956  0.2665
 6683SOL    HW123326   9.972  10.099   0.146  1.2315  0.9530  0.6020
 6683SOL    HW223327   9.959  10.089   0.296  0.3508  0.6835  0.5095
 6684SOL     OW23328   6.963  10.554   2.169 -0.7152 -0.2231  0.4448
 6684SOL    HW123329   7.029  10.592   2.227 -0.8728  0.8891 -0.0817
 6684SOL    HW223330   6.899  10.623   2.157 -2.3736 -1.5011  1.4793
 6685SOL     OW23331   2.254   3.620  10.125 -0.0059 -0.7506  0.1145
 6685SOL    HW123332   2.172   3.583  10.159 -0.2583 -0.1244  0.1940
 6685SOL    HW223333   2.317   3.548  10.131 -0.4711 -1.1444  0.3439
 6686SOL     OW23334   8.228   2.473   6.672  0.3868  0.7397 -0.5573
 6686SOL    HW123335   8.190   2.480   6.585  0.8169  0.7355 -0.7426
 6686SOL    HW223336   8.161   2.428   6.724  0.6899 -0.5167 -1.2240
 6687SOL     OW23337   3.683   1.374   0.285 -0.1120 -0.7068 -0.9298
 6687SOL    HW123338   3.728   1.456   0.306 -0.9077  0.1830 -2.4457
 6687SOL    HW223339   3.725   1.308   0.339  2.0935  0.2984 -1.3122
 6688SOL     OW23340  10.898   0.547   6.807  0.2107 -0.4589  0.3220
 6688SOL    HW123341  10.804   0.551   6.788  0.1014 -1.4269  0.6232
 6688SOL    HW223342  10.927   0.463   6.771  1.2794  0.4446 -1.0558
 6689SOL     OW23343   5.688   6.864   5.094  0.5278  0.2086 -0.4177
 6689SOL    HW123344   5.601   6.835   5.121  0.5420  1.0670  0.6207
 6689SOL    HW223345   5.672   6.948   5.050  0.9845  1.5062  1.7361
 6690SOL     OW23346   5.811   1.318   6.420 -0.0839 -0.1990  0.0049
 6690SOL    HW123347   5.741   1.283   6.365  0.5551 -2.9299  0.7604
 6690SOL    HW223348   5.766   1.349   6.498 -0.7049  0.9569 -0.7834
 6691SOL     OW23349  10.185   8.617   9.001  0.6829  0.3440 -0.1041
 6691SOL    HW123350  10.256   8.555   9.017  0.6346  0.4501  0.5338
 6691SOL    HW223351  10.211   8.696   9.047  0.0448  0.3061  0.3440
 6692SOL     OW23352   6.103   3.468  11.180  0.2478  0.3195 -0.1656
 6692SOL    HW123353   6.062   3.387  11.211  0.7167  0.1881  0.1158
 6692SOL    HW223354   6.074   3.535  11.242  1.3625  0.0165  0.7054
 6693SOL     OW23355   1.658   3.845   9.004 -0.1537 -0.1769  0.0735
 6693SOL    HW123356   1.674   3.751   9.015  1.5916  0.0840  0.0656
 6693SOL    HW223357   1.705   3.868   8.925  0.0815  0.8521  0.4983
 6694SOL     OW23358   3.683   6.083   8.170  0.5378  0.3530 -0.5385
 6694SOL    HW123359   3.691   5.990   8.148 -0.5570  0.0911  0.0862
 6694SOL    HW223360   3.669   6.083   8.265 -3.0185  0.8917 -0.9385
 6695SOL     OW23361   6.106   1.077   6.956 -0.0597 -0.5155  0.3382
 6695SOL    HW123362   6.090   0.988   6.922  0.8995 -1.0953  1.3353
 6695SOL    HW223363   6.159   1.119   6.889  0.1248 -0.9613  0.1991
 6696SOL     OW23364   7.392   4.476   1.732 -0.6276  0.2054  0.2912
 6696SOL    HW123365   7.428   4.421   1.663 -1.5660 -0.0585 -0.0134
 6696SOL    HW223366   7.441   4.558   1.726 -0.2320 -0.0609 -0.2369
 6697SOL     OW23367  11.339   5.937   2.356  0.8489 -0.7407 -0.1912
 6697SOL    HW123368  11.379   6.022   2.340 -0.6054  0.4544  2.0275
 6697SOL    HW223369  11.384   5.903   2.433 -0.2362 -0.7834  0.4543
 6698SOL     OW23370   8.148  11.200   7.149 -0.1139 -0.1479 -0.3126
 6698SOL    HW123371   8.190  11.120   7.182 -1.4338 -1.6976 -2.1567
 6698SOL    HW223372   8.149  11.260   7.223  0.3427 -2.1116  1.3648
 6699SOL     OW23373   8.898   3.930   2.540 -0.7303 -0.5197  0.1347
 6699SOL    HW123374   8.959   3.964   2.606 -1.1268 -1.4115  0.9806
 6699SOL    HW223375   8.828   3.889   2.590 -0.0958 -2.9045 -0.8093
 6700SOL     OW23376   4.107  10.351   5.889  0.1030 -0.4581 -0.3679
 6700SOL    HW123377   4.186  10.406   5.898 -1.3185  1.9060 -1.3292
 6700SOL    HW223378   4.038  10.413   5.868 -1.8642 -2.5821 -0.4783
 6701SOL     OW23379  10.205  10.474   0.420  0.5542 -0.1244  0.2637
 6701SOL    HW123380  10.188  10.423   0.340  2.1756 -1.2033  0.5685
 6701SOL    HW223381  10.240  10.558   0.388 -1.0500  0.3936 -0.2044
 6702SOL     OW23382   8.288  11.280   2.456 -0.8730 -0.1295  0.0168
 6702SOL    HW123383   8.199  11.268   2.490 -1.1746 -1.9262 -1.2786
 6702SOL    HW223384   8.344  11.243   2.524 -1.1986 -0.0659  0.3242
 6703SOL     OW23385   2.792   4.825   0.785 -0.0379 -0.1354  0.3394
 6703SOL    HW123386   2.821   4.784   0.867  0.8827 -1.0564 -0.4166
 6703SOL    HW223387   2.851   4.790   0.719 -0.0852  1.4153 -0.5690
 6704SOL     OW23388   6.276  11.328   0.343 -0.2488  0.1934  0.2958
 6704SOL    HW123389   6.243  11.311   0.255 -0.1237  2.8322 -0.3519
 6704SOL    HW223390   6.341  11.259   0.358 -2.6856 -2.3909 -0.2067
 6705SOL     OW23391   0.209   9.288   1.445  0.4423  0.0287  0.1055
 6705SOL    HW123392   0.283   9.242   1.482  0.1171  0.0461  0.7918
 6705SOL    HW223393   0.209   9.264   1.353  1.1956 -0.1011  0.1342
 6706SOL     OW23394   6.670  10.664   9.210 -0.6165 -0.1979  0.3244
 6706SOL    HW123395   6.739  10.647   9.147 -1.8449  2.4232 -1.9375
 6706SOL    HW223396   6.643  10.578   9.241  0.4168 -1.5669 -2.3379
 6707SOL     OW23397   6.656   6.979  10.907  0.0330 -0.1751  0.1226
 6707SOL    HW123398   6.574   6.983  10.957 -0.4062  0.6140 -0.6337
 6707SOL    HW223399   6.705   7.055  10.938  0.2004 -0.2735  0.0950
 6708SOL     OW23400   1.776   0.380   0.794 -0.1597 -0.0906 -0.7049
 6708SOL    HW123401   1.817   0.396   0.879  0.1677 -1.5982 -0.5469
 6708SOL    HW223402   1.692   0.339   0.815 -1.6907  2.5903 -1.0398
 6709SOL     OW23403   0.528   7.644   2.164  0.1231 -0.1840  0.1374
 6709SOL    HW123404   0.568   7.693   2.235  0.8438  0.2710 -0.5595
 6709SOL    HW223405   0.435   7.664   2.169 -0.0693 -1.2654  1.8026
 6710SOL     OW23406   0.205   9.324   1.918  0.4190 -0.8312  0.1236
 6710SOL    HW123407   0.185   9.375   1.839 -0.2795 -1.1963  0.0652
 6710SOL    HW223408   0.148   9.361   1.986  2.3697  0.7994  0.9940
 6711SOL     OW23409   3.064   3.458   4.852 -0.1821 -0.0594 -0.4280
 6711SOL    HW123410   3.003   3.523   4.886 -0.1074  0.4765 -1.2783
 6711SOL    HW223411   3.008   3.387   4.820 -0.3000 -0.0771 -0.1863
 6712SOL     OW23412   6.849   1.124   4.969  0.3608  0.3384  0.2457
 6712SOL    HW123413   6.872   1.065   5.041  1.7719 -0.3618 -0.7286
 6712SOL    HW223414   6.895   1.205   4.989 -0.7666  0.8098  1.0639
 6713SOL     OW23415   4.331   1.513   6.325 -0.1362  0.6021  0.6611
 6713SOL    HW123416   4.342   1.440   6.386 -0.8913 -1.0307 -1.0721
 6713SOL    HW223417   4.238   1.510   6.300  0.2660  0.8422 -0.9863
 6714SOL     OW23418   5.965   8.073   0.222  0.0849 -0.4838 -0.8904
 6714SOL    HW123419   6.052   8.107   0.200 -0.1664 -0.5628 -2.0831
 6714SOL    HW223420   5.978   7.979   0.237  0.3826 -0.3006  0.0662
 6715SOL     OW23421   1.762  11.388   0.962  0.2325 -0.3673  0.0823
 6715SOL    HW123422   1.850  11.423   0.947  0.0745 -0.1910 -0.4559
 6715SOL    HW223423   1.712  11.463   0.995 -0.1145 -0.0505 -1.1020
 6716SOL     OW23424   4.641   8.702   1.562  0.5834 -0.1930  0.2597
 6716SOL    HW123425   4.591   8.706   1.480  1.5648 -0.1872 -0.3520
 6716SOL    HW223426   4.582   8.738   1.628 -0.9210 -1.8769 -0.0829
 6717SOL     OW23427   5.122   6.632   8.120 -0.6473 -0.4211  0.2088
 6717SOL    HW123428   5.187   6.670   8.060  0.5151 -3.0486 -0.3315
 6717SOL    HW223429   5.054   6.699   8.126  0.8900  1.4001 -1.2285
 6718SOL     OW23430   1.944   8.994   4.893 -0.0823  0.3153  0.3847
 6718SOL    HW123431   1.995   8.916   4.870 -0.8746 -0.0413 -0.2189
 6718SOL    HW223432   1.944   8.995   4.989 -0.2341 -0.5479  0.4065
 6719SOL     OW23433  11.180   5.803   5.462  0.1141 -0.1725  0.0879
 6719SOL    HW123434  11.205   5.881   5.511  1.3746  0.6462 -1.7442
 6719SOL    HW223435  11.088   5.789   5.485  0.2969  0.8759  1.6762
 6720SOL     OW23436   1.733   5.558   2.379 -0.6781 -0.0440 -0.0046
 6720SOL    HW123437   1.682   5.636   2.401  0.8254  0.8811  0.3340
 6720SOL    HW223438   1.742   5.562   2.283 -0.0829  0.5613  0.0664
 6721SOL     OW23439   7.161   5.119   5.345  0.3387  0.0412 -0.0769
 6721SOL    HW123440   7.212   5.117   5.264  0.3707 -0.1888 -0.0498
 6721SOL    HW223441   7.183   5.038   5.390  1.9433  1.0833  1.1539
 6722SOL     OW23442   2.809  10.421   1.538 -0.2179  0.6050  0.0477
 6722SOL    HW123443   2.888  10.430   1.484 -0.8913 -1.1145 -1.3204
 6722SOL    HW223444   2.818  10.336   1.581 -1.2358  0.4607  0.0041
 6723SOL     OW23445   5.723   0.157  11.251  0.3708 -0.1149 -0.0072
 6723SOL    HW123446   5.743   0.184  11.162 -1.0703 -1.2691 -0.7241
 6723SOL    HW223447   5.750   0.065  11.255  0.5490 -0.0374  0.7871
 6724SOL     OW23448   8.893   6.349   0.150  0.2382 -0.0575  0.2644
 6724SOL    HW123449   8.869   6.273   0.203 -0.3960 -2.2026 -2.7881
 6724SOL    HW223450   8.886   6.423   0.209 -1.2750 -2.1172  2.8915
 6725SOL     OW23451   7.314   3.061   9.674 -0.4592  0.1095 -0.0026
 6725SOL    HW123452   7.360   2.977   9.684  0.2583  0.5132  0.1638
 6725SOL    HW223453   7.288   3.063   9.582 -1.8359 -0.9719  0.3248
 6726SOL     OW23454   3.087   1.093  10.326 -0.4580 -0.3887  0.0104
 6726SOL    HW123455   3.140   1.023  10.290 -0.3687 -1.3281  1.8622
 6726SOL    HW223456   3.014   1.102  10.265 -0.2112 -1.7593 -0.5088
 6727SOL     OW23457   5.980   5.322   4.002  0.8357 -0.3677 -0.2201
 6727SOL    HW123458   5.895   5.323   3.958  1.4551  1.4491 -1.4570
 6727SOL    HW223459   5.960   5.338   4.094 -0.2190 -0.9553 -0.3349
 6728SOL     OW23460  11.381   2.670   0.993 -0.1373 -0.3262 -0.5127
 6728SOL    HW123461  11.448   2.619   0.947 -0.4998 -0.7418 -0.5910
 6728SOL    HW223462  11.421   2.756   1.006 -0.2975  0.0878 -2.3506
 6729SOL     OW23463   4.326   2.425   7.698 -0.8806  0.0771 -0.3727
 6729SOL    HW123464   4.405   2.480   7.695 -0.3216 -0.7216 -0.4996
 6729SOL    HW223465   4.330   2.373   7.618 -0.5195 -1.3566  0.5453
 6730SOL     OW23466   5.935   8.312   1.535  0.0876  0.0329 -0.0405
 6730SOL    HW123467   5.875   8.347   1.601 -1.8414 -1.2839 -0.9948
 6730SOL    HW223468   5.973   8.389   1.494 -0.2389  0.8957  1.2257
 6731SOL     OW23469  10.214   1.205   5.208 -0.2961  0.0706 -0.6088
 6731SOL    HW123470  10.229   1.111   5.216  0.0809  0.2593  1.4471
 6731SOL    HW223471  10.216   1.238   5.298  3.4012  2.6174 -1.3645
 6732SOL     OW23472   3.845   6.813   9.257 -0.0672 -0.6449  0.2422
 6732SOL    HW123473   3.750   6.823   9.258 -0.5914 -4.2478  0.2883
 6732SOL    HW223474   3.873   6.846   9.343 -1.2293  0.6878  0.1286
 6733SOL     OW23475   9.346   0.756   7.913  0.1913  0.3810 -0.4132
 6733SOL    HW123476   9.329   0.803   7.831 -0.3459 -1.3032 -1.3308
 6733SOL    HW223477   9.325   0.664   7.892 -0.5478 -0.0100  1.7870
 6734SOL     OW23478   1.958   3.407   1.158  0.2760  0.0162 -0.1277
 6734SOL    HW123479   1.912   3.328   1.187  1.0322 -1.0373 -1.6420
 6734SOL    HW223480   1.923   3.423   1.070  0.8356  0.8069 -0.2136
 6735SOL     OW23481   7.316   5.028   4.336  0.0327  0.2809 -0.7719
 6735SOL    HW123482   7.291   4.945   4.377 -0.0128  0.8393  0.3668
 6735SOL    HW223483   7.236   5.082   4.341 -0.1144  0.2140 -2.0185
 6736SOL     OW23484  10.224   9.036   4.028  0.1607  0.4817  0.3945
 6736SOL    HW123485  10.294   9.100   4.038  0.4391  0.2013  0.2666
 6736SOL    HW223486  10.150   9.073   4.076  0.3290  0.8816  0.3430
 6737SOL     OW23487  10.679   9.117   8.602 -0.2631 -0.2606  0.2259
 6737SOL    HW123488  10.756   9.142   8.551 -0.4232 -1.5952 -0.7101
 6737SOL    HW223489  10.611   9.102   8.536 -1.5644  1.5574  1.0653
 6738SOL     OW23490   6.645   2.628   7.749 -0.2484  0.0718 -0.0519
 6738SOL    HW123491   6.706   2.701   7.755 -0.9908  0.6316  1.1327
 6738SOL    HW223492   6.694   2.553   7.783 -0.2498  0.5659  1.1048
 6739SOL     OW23493   6.128   1.048   4.811 -0.7821 -0.1379 -0.1338
 6739SOL    HW123494   6.210   1.091   4.837 -0.6311  0.4457 -1.4712
 6739SOL    HW223495   6.060   1.092   4.862 -0.4085  0.3965 -0.0866
 6740SOL     OW23496   1.545   8.101   8.817 -0.6027  0.0691  0.6925
 6740SOL    HW123497   1.614   8.064   8.871 -0.7615 -2.0911 -0.4639
 6740SOL    HW223498   1.588   8.123   8.734 -0.7960  1.2994  0.8921
 6741SOL     OW23499   8.945   7.843   0.151  0.1985 -0.4487  0.3533
 6741SOL    HW123500   8.888   7.889   0.212  0.9235 -2.5896  2.8814
 6741SOL    HW223501   9.027   7.893   0.151 -0.2225  0.2423  0.1525
 6742SOL     OW23502   1.819   1.444   9.178 -0.1133  0.4493  0.0638
 6742SOL    HW123503   1.803   1.538   9.167 -0.6786  0.4758  0.9560
 6742SOL    HW223504   1.897   1.440   9.233  0.7468  0.3659 -1.1329
 6743SOL     OW23505   3.366   2.027   7.267 -0.2537  0.4216 -0.1989
 6743SOL    HW123506   3.438   2.090   7.267  0.0878  0.0328 -0.7859
 6743SOL    HW223507   3.325   2.036   7.182 -0.3875  0.0603 -0.1769
 6744SOL     OW23508   7.020   4.964   1.824 -0.3237 -0.0775  0.4817
 6744SOL    HW123509   7.019   4.901   1.896 -0.0335 -0.7469 -0.0884
 6744SOL    HW223510   6.961   5.034   1.852  1.0959  0.5263  2.1172
 6745SOL     OW23511  10.224   7.435   7.441  0.7766 -0.1469 -0.9629
 6745SOL    HW123512  10.135   7.417   7.468  1.0466 -0.8513 -0.5401
 6745SOL    HW223513  10.215   7.478   7.355  0.0652 -0.7726 -1.2029
 6746SOL     OW23514   0.575  10.038   6.712  0.1811 -0.6630 -0.3228
 6746SOL    HW123515   0.528   9.967   6.669 -1.5154  0.3084 -0.1354
 6746SOL    HW223516   0.549  10.034   6.804  1.2488 -0.7108 -0.0060
 6747SOL     OW23517   9.579   9.831   3.838 -0.0275 -0.4460  0.1504
 6747SOL    HW123518   9.539   9.752   3.875 -0.7144 -0.3678 -0.3944
 6747SOL    HW223519   9.534   9.843   3.754  1.1593 -0.3593 -0.4906
 6748SOL     OW23520   0.222   7.692   7.549 -0.5637 -0.1927 -0.3942
 6748SOL    HW123521   0.289   7.738   7.600 -1.0108 -0.1231  0.1305
 6748SOL    HW223522   0.157   7.664   7.613 -1.0542 -0.2375 -0.9043
 6749SOL     OW23523   5.399   2.280   4.997  0.2920 -0.7407  1.0733
 6749SOL    HW123524   5.403   2.202   5.051  1.2456 -1.3337  0.1805
 6749SOL    HW223525   5.460   2.263   4.925 -1.1579 -0.1224 -0.3776
 6750SOL     OW23526   2.296   1.227   7.504  0.5496 -0.5909  1.1280
 6750SOL    HW123527   2.354   1.205   7.577 -0.3929 -0.1539  2.0313
 6750SOL    HW223528   2.211   1.242   7.545  0.4726  1.8301  0.2215
 6751SOL     OW23529   0.447   1.754  11.187  0.1043  0.8870 -0.4639
 6751SOL    HW123530   0.508   1.825  11.209  0.3907  0.2345  0.9718
 6751SOL    HW223531   0.491   1.706  11.117  0.5215  1.3185 -0.5067
 6752SOL     OW23532   5.351   5.962   7.163  0.0231 -0.1942  0.0334
 6752SOL    HW123533   5.275   5.980   7.219  0.6035  0.0625  0.7486
 6752SOL    HW223534   5.405   6.041   7.171  0.7237 -0.6767  0.1223
 6753SOL     OW23535   2.644   3.308   2.517 -0.5459  0.1602 -0.0459
 6753SOL    HW123536   2.650   3.281   2.425  2.5497 -0.1628  0.1354
 6753SOL    HW223537   2.668   3.400   2.516 -0.6587  0.1940  0.4071
 6754SOL     OW23538   4.046   5.999   4.964  0.5851 -0.5825  0.0624
 6754SOL    HW123539   3.992   5.990   5.042  1.8988  2.6837  1.5314
 6754SOL    HW223540   4.119   5.939   4.978  1.1580  0.4387  1.7825
 6755SOL     OW23541   1.934   6.829   7.484  0.2593 -0.9571  0.0481
 6755SOL    HW123542   1.939   6.751   7.429  0.6163  0.2092 -1.6469
 6755SOL    HW223543   1.841   6.842   7.498  0.1172 -0.8451 -0.9336
 6756SOL     OW23544   4.436   6.760   6.766  0.5128 -0.4413 -0.3824
 6756SOL    HW123545   4.372   6.726   6.703  0.0992  0.4460 -0.4558
 6756SOL    HW223546   4.519   6.721   6.739  0.0922 -1.2360 -0.5759
 6757SOL     OW23547   4.758   3.940   1.663  0.0561 -0.4144 -0.3252
 6757SOL    HW123548   4.678   3.889   1.652 -0.4556 -0.1447  1.6929
 6757SOL    HW223549   4.828   3.882   1.635 -0.6240 -1.7618  0.6532
 6758SOL     OW23550   4.356   2.542   8.570  0.2733  0.3323  0.3259
 6758SOL    HW123551   4.432   2.558   8.514  1.3839  1.2390  2.0176
 6758SOL    HW223552   4.281   2.558   8.513  1.2963 -1.1145 -1.5399
 6759SOL     OW23553   0.173   8.723   8.306  0.6105  0.0043  0.2432
 6759SOL    HW123554   0.096   8.666   8.297 -0.8990  2.2388 -3.1175
 6759SOL    HW223555   0.244   8.672   8.267  0.2403 -1.0773  0.9345
 6760SOL     OW23556   8.044  11.121  11.050 -0.4598  0.2218 -0.2905
 6760SOL    HW123557   8.046  11.029  11.076 -3.1539  0.0724 -0.3845
 6760SOL    HW223558   8.053  11.169  11.132 -4.3325 -0.2370  0.5829
 6761SOL     OW23559   7.869   9.524  10.051  0.0747  0.3428 -0.4313
 6761SOL    HW123560   7.842   9.611  10.023  3.1958  1.4680 -0.2838
 6761SOL    HW223561   7.900   9.481   9.970  1.2625  0.4960 -0.0799
 6762SOL     OW23562  10.749   8.045  10.014 -0.2664 -0.5722  0.7842
 6762SOL    HW123563  10.661   8.017   9.991 -0.7887  1.4497  0.1886
 6762SOL    HW223564  10.739   8.134  10.046  1.8320  0.6415 -1.6137
 6763SOL     OW23565   9.883   7.041   9.397  0.7059  0.1063 -0.1993
 6763SOL    HW123566   9.795   7.006   9.409  0.4650  0.3637 -1.1293
 6763SOL    HW223567   9.880   7.129   9.435  0.5122  0.1862 -0.4025
 6764SOL     OW23568   8.675  10.558   2.828 -0.0567  0.1427  0.3050
 6764SOL    HW123569   8.659  10.633   2.885 -0.6378  0.4427 -0.2474
 6764SOL    HW223570   8.753  10.516   2.865  0.2776  1.0171  0.6108
 6765SOL     OW23571   1.940  11.119   6.852  0.0931 -0.1752 -0.0046
 6765SOL    HW123572   2.012  11.059   6.872  0.0318  0.3558  2.0252
 6765SOL    HW223573   1.979  11.206   6.859 -0.3415  0.0829 -0.6781
 6766SOL     OW23574   4.542   7.144   0.632 -0.8074  0.2665 -0.4563
 6766SOL    HW123575   4.564   7.170   0.543 -1.0371  0.0447 -0.5802
 6766SOL    HW223576   4.471   7.081   0.621 -1.6976  1.1612 -0.0609
 6767SOL     OW23577   8.827   9.305   1.755 -0.1279  0.7409  0.3480
 6767SOL    HW123578   8.920   9.292   1.734  0.7324  2.6628  2.4843
 6767SOL    HW223579   8.820   9.399   1.772 -2.6141  0.7289 -0.2731
 6768SOL     OW23580   2.424   9.812   6.555  0.1987 -0.1057  0.5814
 6768SOL    HW123581   2.467   9.781   6.634  0.4337 -0.2442  0.4018
 6768SOL    HW223582   2.373   9.888   6.583  0.3434 -0.1067  0.8492
 6769SOL     OW23583   5.077   4.895   7.737  0.1207 -0.1443  0.1329
 6769SOL    HW123584   5.171   4.910   7.723  0.0842 -0.7736 -0.8800
 6769SOL    HW223585   5.071   4.807   7.772 -0.2041 -0.9337 -1.7840
 6770SOL     OW23586   1.490   8.770   3.421 -0.1475 -0.3414 -0.1832
 6770SOL    HW123587   1.396   8.786   3.434  0.0750  1.0972 -0.0965
 6770SOL    HW223588   1.528   8.858   3.416  1.9230 -0.5477  4.9980
 6771SOL     OW23589   1.890   4.918   5.774  0.3127  0.2345 -0.2068
 6771SOL    HW123590   1.822   4.975   5.809  1.1059  1.5416 -0.7234
 6771SOL    HW223591   1.904   4.852   5.843 -1.6854 -0.2762 -0.2407
 6772SOL     OW23592   9.091   7.034   4.081 -0.6085 -0.0074 -0.4792
 6772SOL    HW123593   9.128   6.976   4.148 -0.7947 -3.3943 -3.0175
 6772SOL    HW223594   9.164   7.091   4.056  0.5339 -1.1222  0.1481
 6773SOL     OW23595  11.196   1.047   5.547 -0.4417  0.1500  0.6305
 6773SOL    HW123596  11.197   1.025   5.640  1.9423 -0.3919  0.5449
 6773SOL    HW223597  11.141   0.979   5.507  0.9186 -1.4270  1.3095
 6774SOL     OW23598   5.038   5.678   6.158  0.0822  0.1052  0.2521
 6774SOL    HW123599   4.972   5.648   6.097  0.2993 -1.2492  0.6463
 6774SOL    HW223600   4.995   5.747   6.208 -0.3113  0.7561 -0.9455
 6775SOL     OW23601   3.068   1.119   3.371  0.1320  0.2018 -0.4754
 6775SOL    HW123602   2.978   1.102   3.343 -0.3654  2.7435 -0.6726
 6775SOL    HW223603   3.060   1.186   3.439  1.9488  2.1763 -2.0673
 6776SOL     OW23604   8.688   4.637   4.682 -0.2611 -0.2936  0.0091
 6776SOL    HW123605   8.760   4.697   4.658 -0.7857  0.2194 -0.3012
 6776SOL    HW223606   8.732   4.564   4.726  0.4471  0.0560 -0.0974
 6777SOL     OW23607   5.596   4.926   5.205  0.5063 -0.4110 -0.0671
 6777SOL    HW123608   5.558   4.862   5.146  2.5355 -2.3049  0.5308
 6777SOL    HW223609   5.593   4.884   5.291  1.6159  0.3917  0.3930
 6778SOL     OW23610  10.916   6.051   0.225 -0.1364  0.5456 -0.0638
 6778SOL    HW123611  10.863   6.089   0.156 -2.8039 -3.0099 -0.2395
 6778SOL    HW223612  10.860   6.052   0.303 -0.8891 -3.5999 -0.3252
 6779SOL     OW23613  10.617   2.093   6.582 -0.0789  0.8791  0.0400
 6779SOL    HW123614  10.540   2.107   6.637 -0.6676 -0.4407 -0.4082
 6779SOL    HW223615  10.691   2.097   6.643 -0.6142  0.8191  0.7072
 6780SOL     OW23616   1.988   5.347   4.241  0.0724  0.0018 -0.3245
 6780SOL    HW123617   2.000   5.260   4.278 -0.4214 -0.0984 -0.3922
 6780SOL    HW223618   2.052   5.402   4.287  1.8791 -0.7867 -1.7655
 6781SOL     OW23619  10.115   6.313   6.871 -0.8941 -0.1828 -0.0865
 6781SOL    HW123620  10.150   6.397   6.902  0.7343 -1.3532  1.3796
 6781SOL    HW223621  10.126   6.317   6.776  1.2127  0.4110  0.1345
 6782SOL     OW23622   8.294   9.597   9.163  1.0470  0.5238 -0.6566
 6782SOL    HW123623   8.222   9.573   9.104  1.3423  0.1928 -0.8894
 6782SOL    HW223624   8.281   9.690   9.181 -0.7414 -0.0010  1.1175
 6783SOL     OW23625   2.259  10.559   7.317  0.6779  0.0540 -0.0704
 6783SOL    HW123626   2.270  10.489   7.381  2.0511  0.3329  0.0436
 6783SOL    HW223627   2.336  10.615   7.331 -0.8779  2.1591  0.5409
 6784SOL     OW23628   3.412   0.671  10.427 -0.1121 -0.2300 -0.4342
 6784SOL    HW123629   3.345   0.603  10.423 -0.3945 -0.0658  0.9453
 6784SOL    HW223630   3.377   0.735  10.490  0.7715  0.4823 -0.6499
 6785SOL     OW23631   7.438   7.886   4.153 -0.2447  0.1043  0.3859
 6785SOL    HW123632   7.347   7.858   4.149 -0.0437 -0.6560  0.9593
 6785SOL    HW223633   7.453   7.906   4.246 -0.0583  1.0231  0.1653
 6786SOL     OW23634   0.832   4.163   8.177 -0.1592 -0.4445  0.2657
 6786SOL    HW123635   0.918   4.184   8.139 -0.9611 -0.9445 -2.0169
 6786SOL    HW223636   0.817   4.071   8.153 -1.0650 -0.5502  1.1719
 6787SOL     OW23637  10.402   5.311   6.658 -0.3760 -0.0847 -0.0015
 6787SOL    HW123638  10.351   5.253   6.601 -1.0798  0.3776  0.1365
 6787SOL    HW223639  10.488   5.271   6.663 -0.0195  0.2777 -2.0821
 6788SOL     OW23640   9.429  10.710   0.682 -0.0372 -0.2017 -0.3802
 6788SOL    HW123641   9.437  10.783   0.620  0.0417  0.9631  0.9427
 6788SOL    HW223642   9.518  10.674   0.687  0.0819  0.0685 -0.5017
 6789SOL     OW23643   2.572   6.522   4.624  0.2360  0.3702 -0.3375
 6789SOL    HW123644   2.658   6.508   4.586  0.5107 -1.6609  0.8608
 6789SOL    HW223645   2.589   6.552   4.713 -0.1536 -2.0900  0.6547
 6790SOL     OW23646   2.821   5.105   8.967 -0.0094  0.3201  0.3293
 6790SOL    HW123647   2.832   5.064   8.881  0.8098  2.2065 -0.5386
 6790SOL    HW223648   2.779   5.039   9.020  1.1190 -1.5758 -1.0037
 6791SOL     OW23649   3.596   7.472  10.814 -0.2441 -0.3003 -0.8526
 6791SOL    HW123650   3.602   7.497  10.722  0.1466 -2.4091 -1.4784
 6791SOL    HW223651   3.505   7.444  10.826 -0.3953  0.3487 -0.4890
 6792SOL     OW23652   8.943   0.143   6.454  0.3127 -0.2841  0.0250
 6792SOL    HW123653   8.880   0.212   6.433 -0.5998 -0.3939  2.0883
 6792SOL    HW223654   8.898   0.062   6.433 -0.2879 -0.3624  1.4905
 6793SOL     OW23655   0.736   5.124   0.361 -0.0427 -0.1948  0.1566
 6793SOL    HW123656   0.770   5.155   0.277  0.4530 -0.9133  0.0892
 6793SOL    HW223657   0.687   5.199   0.395  1.0941  0.6708 -0.0282
 6794SOL     OW23658   1.332   4.103   4.748  0.1171 -0.3338 -0.8869
 6794SOL    HW123659   1.299   4.150   4.671  0.6678 -0.4593 -1.2018
 6794SOL    HW223660   1.257   4.051   4.778 -0.7446  1.2913 -0.0789
 6795SOL     OW23661   7.619   7.362   4.534  0.8837 -0.9016  0.1756
 6795SOL    HW123662   7.549   7.313   4.490  1.3690 -0.8077 -0.7351
 6795SOL    HW223663   7.684   7.296   4.556  1.1802 -0.7935 -0.3436
 6796SOL     OW23664   0.551   6.744   4.398  0.5867 -0.6447  0.0263
 6796SOL    HW123665   0.582   6.813   4.339 -1.4772  1.6491  1.4257
 6796SOL    HW223666   0.580   6.771   4.485 -2.0111 -0.2935  0.8868
 6797SOL     OW23667   6.393   2.232   4.003  0.3367 -0.1846  0.3608
 6797SOL    HW123668   6.393   2.326   4.020 -1.5362  0.2881 -1.8561
 6797SOL    HW223669   6.468   2.218   3.945  1.5869 -0.4034  1.9393
 6798SOL     OW23670   3.665   6.123   8.447  0.0471 -0.3713 -0.3937
 6798SOL    HW123671   3.573   6.099   8.458  0.2868 -1.0545  0.1894
 6798SOL    HW223672   3.675   6.202   8.499  0.2379 -1.4020  1.2264
 6799SOL     OW23673   6.538   0.893  11.296  0.2372 -0.2386  0.1316
 6799SOL    HW123674   6.574   0.954  11.232 -1.2187  0.2756 -0.2419
 6799SOL    HW223675   6.517   0.946  11.372 -0.6813 -0.3259 -0.0493
 6800SOL     OW23676   4.040   8.553   9.649  0.2816  0.0742  0.0400
 6800SOL    HW123677   4.097   8.608   9.595  0.3934  1.7316  1.7402
 6800SOL    HW223678   4.082   8.467   9.649  0.9489  0.3664 -1.4400
 6801SOL     OW23679   4.134  11.025   9.408  0.1077  0.2474 -0.2308
 6801SOL    HW123680   4.124  11.118   9.430 -0.2429  0.5484 -1.5966
 6801SOL    HW223681   4.214  10.999   9.453  0.1666  1.1791  0.2506
 6802SOL     OW23682   0.202   5.391   1.022  0.5714  0.1899  0.4477
 6802SOL    HW123683   0.215   5.434   1.106  1.0145  0.9972 -0.0155
 6802SOL    HW223684   0.191   5.463   0.960 -1.9293 -0.3813  0.1210
 6803SOL     OW23685   7.738   7.826   8.342  0.6683 -0.2689 -0.2843
 6803SOL    HW123686   7.747   7.897   8.405 -0.1848 -2.0445  1.9700
 6803SOL    HW223687   7.804   7.844   8.276  0.6896  2.4102  0.3572
 6804SOL     OW23688   7.367   9.242   5.245  0.2044  0.0346  0.0728
 6804SOL    HW123689   7.338   9.162   5.200  2.1932 -0.2747 -0.7484
 6804SOL    HW223690   7.408   9.211   5.326  0.8307  0.2197 -0.1672
 6805SOL     OW23691   0.986   2.567   7.920  0.3868 -0.3337  0.0700
 6805SOL    HW123692   1.069   2.614   7.924  0.2009 -0.0894  2.3227
 6805SOL    HW223693   0.996   2.495   7.983 -0.8179 -0.8111 -0.2540
 6806SOL     OW23694   0.005   2.531   5.128  0.3028  0.1592  0.3968
 6806SOL    HW123695  -0.017   2.450   5.082 -1.6284  0.7573  0.1821
 6806SOL    HW223696   0.017   2.596   5.059  1.3554  0.1885  0.5890
 6807SOL     OW23697   5.710   8.244   4.353  0.1427 -0.0546 -0.2879
 6807SOL    HW123698   5.744   8.221   4.439 -1.4755 -2.5283 -0.2050
 6807SOL    HW223699   5.771   8.205   4.291  1.1933  1.5510 -0.3362
 6808SOL     OW23700   7.398  10.699  10.266  0.0928 -0.3734  0.3128
 6808SOL    HW123701   7.477  10.646  10.262  0.5353  0.2726  0.2165
 6808SOL    HW223702   7.427  10.781  10.308 -0.0581  0.6419 -1.4817
 6809SOL     OW23703   1.279   0.558   1.332 -0.2375  0.1487 -0.1644
 6809SOL    HW123704   1.328   0.636   1.307  1.0199 -1.1030 -1.8726
 6809SOL    HW223705   1.194   0.568   1.289  0.2067  0.2419 -1.0516
 6810SOL     OW23706   0.020   0.928   7.391  0.1362 -0.0732  0.2497
 6810SOL    HW123707   0.036   0.840   7.427  0.1340  0.9096  2.8520
 6810SOL    HW223708  -0.042   0.967   7.451 -0.2154  1.5928 -1.1336
 6811SOL     OW23709   8.247   6.170   8.984  0.1505 -0.6500 -0.3826
 6811SOL    HW123710   8.307   6.101   8.957 -1.2631 -1.1728 -2.4643
 6811SOL    HW223711   8.163   6.125   8.995  0.0191  0.0616  2.3689
 6812SOL     OW23712   2.939   5.856   2.585  0.5595 -0.0692 -0.0894
 6812SOL    HW123713   2.968   5.932   2.636 -2.2040  1.4266 -0.5488
 6812SOL    HW223714   2.925   5.787   2.650  1.9604  0.1599  0.4863
 6813SOL     OW23715   7.107  11.372  10.628 -0.2481  0.7151  0.5719
 6813SOL    HW123716   7.098  11.403  10.539  1.5446  1.4558  0.6189
 6813SOL    HW223717   7.143  11.283  10.619  1.4518  1.3610  0.5286
 6814SOL     OW23718   3.269  10.965   9.226  0.4601  0.4023 -0.1478
 6814SOL    HW123719   3.364  10.978   9.231  0.5943 -0.7582  0.9546
 6814SOL    HW223720   3.232  11.049   9.251  1.1870  1.0326 -1.1232
 6815SOL     OW23721   5.231   4.284   6.243 -0.3444  0.6787 -0.2995
 6815SOL    HW123722   5.235   4.202   6.292  1.1694  1.5799  1.1834
 6815SOL    HW223723   5.303   4.278   6.180 -1.2553  0.2234 -1.3405
 6816SOL     OW23724   6.577  10.441   2.738  0.0545  0.0315 -0.7605
 6816SOL    HW123725   6.649  10.465   2.680 -0.5944 -0.3935 -1.7775
 6816SOL    HW223726   6.505  10.498   2.711 -1.0120 -1.8484 -2.0983
 6817SOL     OW23727   9.905   2.283   8.437 -0.0670  0.6742 -0.0942
 6817SOL    HW123728   9.985   2.308   8.392  0.6972 -0.7563  0.4294
 6817SOL    HW223729   9.838   2.285   8.369  0.3449  2.0676 -0.4975
 6818SOL     OW23730   9.505   2.240  10.202  0.2316  0.1065 -0.1908
 6818SOL    HW123731   9.588   2.229  10.155 -0.9482 -0.5540 -2.2688
 6818SOL    HW223732   9.471   2.325  10.172  0.3421  0.6109  1.0301
 6819SOL     OW23733   7.681   4.583  10.846  0.0680 -0.5410 -0.2445
 6819SOL    HW123734   7.713   4.503  10.888  0.9157 -0.2324 -0.2735
 6819SOL    HW223735   7.598   4.601  10.889  0.1698 -1.0999  0.2003
 6820SOL     OW23736   8.873   3.059   2.717  1.0903 -0.8093 -0.1457
 6820SOL    HW123737   8.956   3.105   2.713  1.0286 -0.5437  1.2322
 6820SOL    HW223738   8.891   2.975   2.674  2.2346 -0.9902  0.6443
 6821SOL     OW23739  10.851   4.335   3.941  0.5790 -0.8098 -0.1929
 6821SOL    HW123740  10.839   4.371   4.029  0.3805  0.6082 -0.7694
 6821SOL    HW223741  10.946   4.324   3.933  0.9153  1.7402 -0.7450
 6822SOL     OW23742   4.238   1.977  10.894  0.0702  0.0273  0.6786
 6822SOL    HW123743   4.190   2.036  10.952  0.3460  0.1194  0.8162
 6822SOL    HW223744   4.213   1.889  10.921  0.4291  0.0621  1.1413
 6823SOL     OW23745   6.112   6.010   4.762 -0.2386 -0.3244  0.2919
 6823SOL    HW123746   6.171   6.031   4.834  0.0851  0.2637 -0.1322
 6823SOL    HW223747   6.123   5.916   4.748  2.5513  0.1359 -1.4163
 6824SOL     OW23748   0.926   1.609  11.179 -0.0078  0.3282 -0.4628
 6824SOL    HW123749   0.881   1.682  11.136 -2.4545 -1.4122 -1.0867
 6824SOL    HW223750   1.009   1.601  11.131 -0.0282  2.1890 -0.8769
 6825SOL     OW23751  10.041   7.798   4.810  0.2367  0.0856  0.4756
 6825SOL    HW123752  10.005   7.747   4.737 -0.6436  0.7483  0.4278
 6825SOL    HW223753   9.966   7.813   4.868  0.5887  0.9054  0.7272
 6826SOL     OW23754  10.823   2.988  10.815 -0.1221 -0.3414  0.3803
 6826SOL    HW123755  10.778   2.904  10.804  1.7779 -1.3682 -0.1251
 6826SOL    HW223756  10.840   3.017  10.725 -0.6800  0.5515  0.5577
 6827SOL     OW23757   3.799   9.184   2.968  0.4854 -0.5165 -0.1945
 6827SOL    HW123758   3.716   9.155   3.006  1.1734  0.5588  2.3661
 6827SOL    HW223759   3.823   9.115   2.906 -1.8211 -1.3152 -0.2977
 6828SOL     OW23760  10.175   4.666   6.759  0.0214  0.0947 -0.2648
 6828SOL    HW123761  10.149   4.756   6.736 -2.1329 -0.7662 -1.5165
 6828SOL    HW223762  10.229   4.638   6.686  1.3876  0.5952  0.5144
 6829SOL     OW23763   1.997   6.510   2.059  0.1195  0.0162 -0.4603
 6829SOL    HW123764   2.013   6.501   1.965  2.0883 -1.7154 -0.0296
 6829SOL    HW223765   1.966   6.600   2.070 -1.4024 -0.1153 -2.8781
 6830SOL     OW23766   1.592   6.015   5.198 -0.0264  0.0511 -0.2136
 6830SOL    HW123767   1.608   5.925   5.168 -1.5268 -0.8005  1.3663
 6830SOL    HW223768   1.499   6.029   5.183  0.1576  1.3029 -0.2801
 6831SOL     OW23769   3.535  11.310   2.946 -0.0325 -0.0981 -0.2227
 6831SOL    HW123770   3.526  11.370   3.020  2.9218  0.7194 -0.4039
 6831SOL    HW223771   3.511  11.363   2.869 -0.8652 -0.2556 -0.0805
 6832SOL     OW23772   7.353   3.836   2.330  0.2899 -0.3667  0.3725
 6832SOL    HW123773   7.391   3.795   2.407  0.9440 -0.6147 -0.0774
 6832SOL    HW223774   7.376   3.928   2.338  2.5708 -0.7806 -0.7905
 6833SOL     OW23775   4.353   7.614   5.302 -0.3505 -0.0383 -0.3228
 6833SOL    HW123776   4.406   7.590   5.226  0.0481 -0.9321  0.2267
 6833SOL    HW223777   4.369   7.545   5.366 -1.6190  0.0631  0.1363
 6834SOL     OW23778   0.044   4.869   3.874 -0.1976  0.5968 -0.5510
 6834SOL    HW123779   0.098   4.944   3.897 -0.6136  0.5202  0.7968
 6834SOL    HW223780  -0.040   4.887   3.917 -0.3022 -0.6234 -0.2103
 6835SOL     OW23781   4.068   5.766   7.270 -0.3635 -0.2368 -0.3656
 6835SOL    HW123782   4.040   5.779   7.361 -0.7870 -0.4866 -0.4613
 6835SOL    HW223783   4.157   5.733   7.277 -0.3980 -0.2621 -0.0393
 6836SOL     OW23784   5.870   5.395   4.256 -0.5994 -0.0333 -0.0191
 6836SOL    HW123785   5.893   5.349   4.336 -0.1841  1.0319  0.4779
 6836SOL    HW223786   5.898   5.485   4.269  1.1717 -0.2005 -2.0614
 6837SOL     OW23787   4.603   3.812   6.050  0.1365  0.2364  0.2826
 6837SOL    HW123788   4.639   3.724   6.045  1.2645  0.7234 -0.4789
 6837SOL    HW223789   4.538   3.816   5.980  0.5134  0.1960 -0.0711
 6838SOL     OW23790  10.377   2.404   7.282 -0.6860 -0.5232  0.1042
 6838SOL    HW123791  10.410   2.331   7.334  0.4359 -0.0170  0.1294
 6838SOL    HW223792  10.328   2.457   7.345  1.2619  0.4653  0.8854
 6839SOL     OW23793   8.559   3.244   5.892  1.1005 -0.5920 -0.2548
 6839SOL    HW123794   8.550   3.163   5.843  2.4483 -1.2480  0.5223
 6839SOL    HW223795   8.550   3.218   5.984  0.6393  0.2819 -0.0418
 6840SOL     OW23796   8.438   6.686   6.069 -0.1278  0.0280  0.1787
 6840SOL    HW123797   8.473   6.700   5.981 -0.1379 -1.7038 -0.1327
 6840SOL    HW223798   8.495   6.739   6.125 -0.3576  1.4732 -0.8787
 6841SOL     OW23799   4.231   8.666   6.177 -0.1653  0.4112  0.8158
 6841SOL    HW123800   4.234   8.673   6.082 -1.3993 -2.1846  0.5138
 6841SOL    HW223801   4.138   8.658   6.197  0.0921  0.7278  2.2515
 6842SOL     OW23802   0.175   3.835   4.865  0.8225  0.7381  0.3726
 6842SOL    HW123803   0.205   3.915   4.821 -0.1566  0.8274 -0.1785
 6842SOL    HW223804   0.087   3.821   4.830  0.5641  0.0166  1.2821
 6843SOL     OW23805   6.572   4.560   7.653  0.3331  0.1502  0.8502
 6843SOL    HW123806   6.541   4.561   7.563  0.7179  1.1606  0.7172
 6843SOL    HW223807   6.661   4.524   7.648  1.2467  2.2614  0.4815
 6844SOL     OW23808   1.025  11.298  11.339 -0.3314 -0.0013 -0.4552
 6844SOL    HW123809   1.068  11.328  11.259 -1.0801  1.1970 -0.4319
 6844SOL    HW223810   0.987  11.377  11.377  0.5809 -0.4030  1.4530
 6845SOL     OW23811   7.175   4.657   2.966 -0.0161  0.1843  0.0124
 6845SOL    HW123812   7.201   4.579   3.015 -1.7897 -1.5210 -1.6070
 6845SOL    HW223813   7.173   4.628   2.875 -1.8339  1.7980 -0.5112
 6846SOL     OW23814   5.657  10.442   7.507  0.1497  0.0511 -0.5983
 6846SOL    HW123815   5.641  10.390   7.429 -1.7231 -0.6467  0.2044
 6846SOL    HW223816   5.577  10.434   7.559 -0.7709  4.5705 -0.8738
 6847SOL     OW23817   8.674   5.726   7.725 -0.1067  0.4837  0.5403
 6847SOL    HW123818   8.736   5.797   7.737  0.8399 -0.2744  0.2447
 6847SOL    HW223819   8.600   5.766   7.678  1.0994  0.9532 -1.0632
 6848SOL     OW23820   5.402   1.625   9.919 -0.4226  0.1502 -0.0590
 6848SOL    HW123821   5.451   1.693   9.874 -0.9584 -1.1522 -2.8253
 6848SOL    HW223822   5.468   1.568   9.958  0.2265 -0.2609 -1.6972
 6849SOL     OW23823   2.308   3.116   4.396 -0.2439  0.2369  0.6939
 6849SOL    HW123824   2.326   3.163   4.315 -1.1543 -1.0978 -0.3474
 6849SOL    HW223825   2.212   3.116   4.402 -0.1955  2.7151  3.3008
 6850SOL     OW23826   2.845   3.886   7.822  0.8330 -0.2870 -0.5042
 6850SOL    HW123827   2.783   3.820   7.851  1.4699 -0.4181  0.6042
 6850SOL    HW223828   2.857   3.868   7.728  1.1493 -1.8848 -0.1763
 6851SOL     OW23829   3.585   5.783   3.692  0.2891 -0.6719 -0.5393
 6851SOL    HW123830   3.529   5.705   3.695  0.5792 -0.8646 -0.0471
 6851SOL    HW223831   3.593   5.802   3.598  0.0922 -1.1476 -0.6587
 6852SOL     OW23832   2.749   3.829   4.739 -0.3418  0.1902  0.5076
 6852SOL    HW123833   2.711   3.848   4.824 -1.1197 -2.2953  0.8042
 6852SOL    HW223834   2.844   3.826   4.754 -0.3426  1.5583  0.8573
 6853SOL     OW23835   7.881   3.985   7.819  0.2608  0.1746  0.0281
 6853SOL    HW123836   7.923   3.903   7.844  0.4293  0.8098  1.9582
 6853SOL    HW223837   7.953   4.049   7.816 -0.2148  0.7683  1.0109
 6854SOL     OW23838   6.202   3.446   3.871  0.5873 -0.7257 -0.4413
 6854SOL    HW123839   6.202   3.394   3.951 -0.7473 -0.5917 -0.3310
 6854SOL    HW223840   6.144   3.520   3.891  0.4650 -0.5436 -1.4403
 6855SOL     OW23841   5.761   8.338   1.294 -0.2115  0.3503 -0.1408
 6855SOL    HW123842   5.856   8.331   1.292 -0.1570  1.0048 -0.2140
 6855SOL    HW223843   5.743   8.399   1.366 -0.5980 -0.0595  0.1198
 6856SOL     OW23844   7.211   0.348  10.304 -0.4563  0.0976  0.2652
 6856SOL    HW123845   7.176   0.423  10.255 -1.8456 -0.2863  0.6344
 6856SOL    HW223846   7.240   0.385  10.387  4.1376  1.2086 -1.5354
 6857SOL     OW23847   3.717  11.322   0.838 -0.4094  0.4313 -0.5535
 6857SOL    HW123848   3.709  11.236   0.797  0.9590  0.5277 -1.0910
 6857SOL    HW223849   3.775  11.372   0.779  0.0024  1.2277  0.4833
 6858SOL     OW23850   9.686   6.403   1.683  0.2119 -0.0051 -0.5259
 6858SOL    HW123851   9.772   6.365   1.665  0.0475 -0.5522 -0.1522
 6858SOL    HW223852   9.661   6.368   1.768 -0.3026  0.2979 -0.5496
 6859SOL     OW23853   2.442   3.335   9.204 -0.9555 -0.7308  0.0821
 6859SOL    HW123854   2.504   3.272   9.241 -0.3037  0.1116  0.4672
 6859SOL    HW223855   2.467   3.342   9.112 -0.2301 -0.1333  0.3140
 6860SOL     OW23856   9.348   4.776   0.026 -0.2430 -0.0863 -0.2264
 6860SOL    HW123857   9.275   4.830   0.054 -1.0402 -1.4035  0.3519
 6860SOL    HW223858   9.330   4.690   0.064  1.9329 -0.2985  0.5016
 6861SOL     OW23859   1.737   7.131   0.268 -0.4988 -0.3365 -0.4911
 6861SOL    HW123860   1.791   7.174   0.203  0.7687 -0.3479  0.5200
 6861SOL    HW223861   1.789   7.056   0.298 -0.7728  0.0220  0.9613
 6862SOL     OW23862  10.835  10.449   7.174 -0.0778  0.2846 -0.0335
 6862SOL    HW123863  10.796  10.484   7.094  0.1806  2.4296  0.7342
 6862SOL    HW223864  10.910  10.505   7.192  0.4730 -0.7745  1.1865
 6863SOL     OW23865   2.845   5.549   6.809  0.0271 -0.1270 -0.2089
 6863SOL    HW123866   2.852   5.462   6.770 -0.8811 -0.2178 -0.1868
 6863SOL    HW223867   2.751   5.567   6.811  0.1920  0.7411  0.0390
 6864SOL     OW23868   2.620   1.313   0.004  0.0785  0.1223 -0.1012
 6864SOL    HW123869   2.535   1.293  -0.035 -0.8958  2.2700  0.7488
 6864SOL    HW223870   2.599   1.346   0.092  2.0624 -2.7285  1.5978
 6865SOL     OW23871   7.060   6.727   7.581  0.1340 -0.4790  0.2255
 6865SOL    HW123872   6.983   6.753   7.530 -0.0397 -0.9689  0.2402
 6865SOL    HW223873   7.128   6.715   7.516  0.0683 -0.5309  0.1666
 6866SOL     OW23874   9.217   7.846  10.707  0.2365  0.6513 -0.2110
 6866SOL    HW123875   9.198   7.759  10.742  3.5208 -0.4609 -0.8165
 6866SOL    HW223876   9.182   7.907  10.772  0.3824 -1.1951  1.7055
 6867SOL     OW23877   1.195   1.074  10.723 -0.4497  0.2956 -0.8113
 6867SOL    HW123878   1.150   1.013  10.666  2.1421 -0.0007 -2.7109
 6867SOL    HW223879   1.198   1.156  10.673 -0.8168  0.9786  0.2421
 6868SOL     OW23880   4.061   5.243   3.777 -0.3113 -0.6562  0.9074
 6868SOL    HW123881   4.004   5.193   3.719  1.5986 -1.9420  0.0416
 6868SOL    HW223882   4.063   5.192   3.859 -0.4933 -0.5524  0.9761
 6869SOL     OW23883   8.908   7.349   5.625  0.1282  0.3067  0.0005
 6869SOL    HW123884   8.860   7.430   5.610  1.0058  0.7173 -0.6541
 6869SOL    HW223885   8.974   7.346   5.555  0.3035 -0.8213  0.1859
 6870SOL     OW23886   4.132   1.765   4.893 -0.0493  0.1842  0.6302
 6870SOL    HW123887   4.126   1.671   4.912 -1.5089  0.2368  0.5147
 6870SOL    HW223888   4.226   1.781   4.883  0.2509 -1.1825  1.0415
 6871SOL     OW23889   9.911   0.445   6.954 -0.5640 -0.3492  0.1732
 6871SOL    HW123890   9.986   0.391   6.931 -0.1081  0.5949 -0.6546
 6871SOL    HW223891   9.839   0.412   6.900 -0.8153 -1.3717  1.0994
 6872SOL     OW23892   4.052   2.589   2.958 -0.0014  0.4610 -0.0259
 6872SOL    HW123893   4.100   2.550   2.885 -0.6430 -1.4869  0.5135
 6872SOL    HW223894   3.965   2.549   2.953  0.0398 -0.0093  1.9862
 6873SOL     OW23895   3.860  11.214   6.368 -0.3096 -0.3521  0.9105
 6873SOL    HW123896   3.902  11.284   6.319  0.2979 -0.5067  1.1988
 6873SOL    HW223897   3.863  11.245   6.459  0.6579 -1.0884  1.1373
 6874SOL     OW23898   5.415   2.311   1.841  0.0284  0.3964 -0.1223
 6874SOL    HW123899   5.505   2.331   1.813 -0.0729  1.2133  0.1080
 6874SOL    HW223900   5.392   2.232   1.792 -0.1374  1.7451 -2.3979
 6875SOL     OW23901   7.901   4.059  10.389 -0.1169 -0.4729 -0.1568
 6875SOL    HW123902   7.979   4.040  10.441  0.8474  1.9191 -0.6198
 6875SOL    HW223903   7.906   4.152  10.370 -3.0967 -0.2178 -0.2502
 6876SOL     OW23904  10.912   7.965   3.720 -0.2133  0.1955 -0.6516
 6876SOL    HW123905  10.889   7.901   3.787 -1.1229 -0.1667 -1.2999
 6876SOL    HW223906  11.008   7.969   3.723 -0.2540  1.1202  1.5203
 6877SOL     OW23907   4.889   7.609   5.169  0.1665 -0.0239 -0.0559
 6877SOL    HW123908   4.813   7.657   5.137  0.6459  0.3055 -0.7029
 6877SOL    HW223909   4.961   7.636   5.113  0.8831  0.0647  0.8786
 6878SOL     OW23910   2.057   7.902   4.776  0.2727  0.2455  0.1418
 6878SOL    HW123911   2.147   7.872   4.790  0.8082  1.3000 -0.8982
 6878SOL    HW223912   2.024   7.847   4.705  1.1339  1.7557 -1.5173
 6879SOL     OW23913   5.335   7.744  10.589  0.2415 -0.0880  0.4659
 6879SOL    HW123914   5.245   7.747  10.621 -0.3712 -0.4016 -1.1343
 6879SOL    HW223915   5.385   7.793  10.654 -1.3984  1.8195  0.3947
 6880SOL     OW23916   0.760  10.554   7.528  0.1123  0.4081  0.2084
 6880SOL    HW123917   0.840  10.563   7.579 -0.5880 -1.1536  1.6717
 6880SOL    HW223918   0.690  10.572   7.590 -0.7360 -0.0155 -0.5972
 6881SOL     OW23919   4.691   3.265   6.995  0.1434  0.8969 -0.4094
 6881SOL    HW123920   4.680   3.173   6.970 -1.2676  0.0095  2.8086
 6881SOL    HW223921   4.784   3.275   7.012  0.0705 -0.6886  1.2828
 6882SOL     OW23922   1.930   9.628   1.492  0.5596 -0.1586 -0.1812
 6882SOL    HW123923   1.905   9.720   1.480  0.7410 -0.2615 -1.5693
 6882SOL    HW223924   1.904   9.586   1.410 -1.9220 -1.9263  1.4091
 6883SOL     OW23925   3.206   2.795   9.354  0.1363  0.3097 -0.3991
 6883SOL    HW123926   3.121   2.835   9.337  0.8403  1.3433 -1.5923
 6883SOL    HW223927   3.209   2.787   9.450 -0.8187  1.3471 -0.2587
 6884SOL     OW23928   8.553   1.845   1.317 -0.2264  0.5786  0.2478
 6884SOL    HW123929   8.458   1.843   1.330 -0.1278 -0.4841  0.9825
 6884SOL    HW223930   8.589   1.848   1.406  0.4270  0.3082 -0.0048
 6885SOL     OW23931   1.187   4.395   0.527  0.0714  0.2661  0.9603
 6885SOL    HW123932   1.195   4.305   0.558  1.9029  0.4173  1.0096
 6885SOL    HW223933   1.274   4.433   0.541  0.2307  1.1402 -1.9334
 6886SOL     OW23934   2.065   0.407   4.154 -0.0820 -0.6347  0.0324
 6886SOL    HW123935   2.038   0.319   4.129 -0.5059 -0.7193  0.7581
 6886SOL    HW223936   2.132   0.431   4.090 -0.4703 -1.2056 -0.5923
 6887SOL     OW23937   8.903   7.699   8.054  0.0241  0.8987  0.0043
 6887SOL    HW123938   8.954   7.636   8.105  0.4873  2.2368  1.2647
 6887SOL    HW223939   8.960   7.721   7.980 -0.4068 -0.6052 -0.8113
 6888SOL     OW23940  10.910   6.993   9.861  0.1542 -0.2303  0.3536
 6888SOL    HW123941  10.912   6.937   9.939 -1.5072  1.6614  1.8589
 6888SOL    HW223942  10.915   7.082   9.896  2.7615  0.6492 -1.9612
 6889SOL     OW23943   4.796   4.903   6.226 -0.1525  0.3757 -0.3580
 6889SOL    HW123944   4.805   4.914   6.321  0.3178  2.4214 -0.6095
 6889SOL    HW223945   4.881   4.925   6.190 -0.6438  0.7154 -1.3507
 6890SOL     OW23946   7.436   8.453   0.003 -0.8590 -0.2368 -0.3350
 6890SOL    HW123947   7.370   8.392  -0.029 -0.3582 -0.5816 -0.7402
 6890SOL    HW223948   7.387   8.531   0.029 -1.3917 -0.3841 -0.8775
 6891SOL     OW23949   0.869   4.991   3.526  0.0755  0.2768  0.7178
 6891SOL    HW123950   0.826   4.913   3.563  1.4652  0.1717  2.1978
 6891SOL    HW223951   0.930   5.019   3.593  0.2104  2.1826 -0.1402
 6892SOL     OW23952   7.729   7.773   4.752  0.8207  0.7855 -0.0595
 6892SOL    HW123953   7.665   7.842   4.773  0.0650  0.1907 -0.3455
 6892SOL    HW223954   7.691   7.729   4.676 -0.4074 -2.0444  2.0268
 6893SOL     OW23955   9.852   7.651   0.576  0.2265  0.3590  0.4828
 6893SOL    HW123956   9.773   7.619   0.620  0.4977 -2.2880 -0.7346
 6893SOL    HW223957   9.841   7.623   0.485  2.4100  0.2060  0.2172
 6894SOL     OW23958  10.678   4.922  10.156  0.1871  0.3122  0.5134
 6894SOL    HW123959  10.596   4.967  10.174 -0.7431 -0.2035 -2.0103
 6894SOL    HW223960  10.687   4.926  10.061  1.4573 -2.4037  0.4168
 6895SOL     OW23961   7.825   1.023   6.474  0.4596  0.1685 -0.4797
 6895SOL    HW123962   7.760   1.045   6.407  0.1269  1.0692  0.1284
 6895SOL    HW223963   7.781   0.962   6.532  0.6181 -0.2937 -0.8305
 6896SOL     OW23964   2.508   6.415   5.853  0.3821  0.3360  0.2645
 6896SOL    HW123965   2.471   6.399   5.940 -1.0426 -0.0462 -0.3708
 6896SOL    HW223966   2.439   6.386   5.792  1.9141 -0.8150 -1.0048
 6897SOL     OW23967   6.729   9.594   5.909 -0.5609 -0.4306 -0.0644
 6897SOL    HW123968   6.765   9.559   5.991 -0.4709  0.1608  0.1484
 6897SOL    HW223969   6.797   9.578   5.844 -1.4967 -3.0033 -0.5654
 6898SOL     OW23970   4.193   1.680  11.081 -0.2095  0.1201 -0.2936
 6898SOL    HW123971   4.132   1.694  11.008  0.3981  1.2181 -0.6120
 6898SOL    HW223972   4.141   1.698  11.159 -0.0845  1.9678 -0.5970
 6899SOL     OW23973   6.258   9.355   4.557  0.0327 -0.4116 -0.0567
 6899SOL    HW123974   6.271   9.450   4.558 -1.2855 -0.1783  2.6706
 6899SOL    HW223975   6.163   9.343   4.556  0.1647 -1.7741 -1.3218
 6900SOL     OW23976   1.832   2.025   4.793 -0.5136  0.2723  0.5257
 6900SOL    HW123977   1.832   1.996   4.702 -0.8574 -0.9676  0.9055
 6900SOL    HW223978   1.775   1.963   4.838  0.3197  0.3701  1.7439
 6901SOL     OW23979   3.383   9.686   4.258  0.2208  0.0721  0.3602
 6901SOL    HW123980   3.308   9.734   4.293 -1.1234 -1.0229 -0.8930
 6901SOL    HW223981   3.424   9.647   4.336  0.8327  2.4499  1.2964
 6902SOL     OW23982   4.931   1.968  11.390  0.0290 -0.1699  0.2254
 6902SOL    HW123983   4.854   1.967  11.333  0.5809  1.8871 -0.6792
 6902SOL    HW223984   5.004   1.954  11.330  0.5473  0.9287  0.5851
 6903SOL     OW23985   7.295  10.152   2.104  0.1419  0.7553 -0.4748
 6903SOL    HW123986   7.360  10.096   2.148  1.1128  1.0472 -1.4989
 6903SOL    HW223987   7.343  10.232   2.082 -1.1111  1.8286  0.5500
 6904SOL     OW23988   9.029   9.121   4.025  0.5912 -0.3690  0.1596
 6904SOL    HW123989   9.065   9.196   3.978  0.2429 -0.3492 -0.0805
 6904SOL    HW223990   9.105   9.068   4.047  0.9663  0.6524  1.4182
 6905SOL     OW23991   6.153   8.266   7.817 -0.3936  0.3425 -0.0123
 6905SOL    HW123992   6.063   8.296   7.833 -0.3936  1.0105 -1.1790
 6905SOL    HW223993   6.203   8.299   7.891 -1.0650  0.1369  0.5425
 6906SOL     OW23994   0.379  10.141   2.784  0.2802  0.3276  0.4004
 6906SOL    HW123995   0.364  10.055   2.824 -0.8349 -1.4940 -3.5104
 6906SOL    HW223996   0.469  10.138   2.753  0.1125  0.4144 -0.0974
 6907SOL     OW23997   2.236   7.280   5.407 -0.1222 -0.0851  0.8129
 6907SOL    HW123998   2.263   7.189   5.420 -1.5680 -0.5235  0.9159
 6907SOL    HW223999   2.316   7.324   5.378  0.9403 -1.0787  2.0869
 6908SOL     OW24000   9.215  10.304   8.253  0.3674  0.2892 -0.2353
 6908SOL    HW124001   9.279  10.344   8.312 -1.9037  0.9170  1.9938
 6908SOL    HW224002   9.244  10.214   8.242  1.2470  0.3560  1.3080
 6909SOL     OW24003   6.032  10.780   5.167 -0.3283 -0.1556 -0.3016
 6909SOL    HW124004   5.945  10.772   5.207 -0.4410  0.2063 -0.4685
 6909SOL    HW224005   6.063  10.866   5.195  0.0001 -0.3060 -0.2014
 6910SOL     OW24006  11.227   5.191  10.871 -0.6621  0.4760  0.0585
 6910SOL    HW124007  11.145   5.144  10.889 -0.5882 -0.1575 -1.1584
 6910SOL    HW224008  11.212   5.233  10.786 -0.3993  1.9366  0.7142
 6911SOL     OW24009  10.616  10.871   5.802  0.7333  0.5032  0.0709
 6911SOL    HW124010  10.620  10.853   5.708  0.6270  0.2827  0.1084
 6911SOL    HW224011  10.685  10.817   5.840  0.6629  0.4619  0.1401
 6912SOL     OW24012   7.897   6.775   5.258  0.0088 -0.2820  0.9495
 6912SOL    HW124013   7.912   6.867   5.239 -1.1876 -0.2694 -0.1013
 6912SOL    HW224014   7.984   6.738   5.270  0.6364  0.5752 -0.6664
 6913SOL     OW24015  10.745   1.746   5.586 -0.2045  0.4131  0.3891
 6913SOL    HW124016  10.839   1.747   5.600  0.5030 -0.8780 -3.1558
 6913SOL    HW224017  10.712   1.677   5.643  1.2918 -0.4135  0.2889
 6914SOL     OW24018  11.082   1.187   4.878  1.3153  0.3514 -0.0431
 6914SOL    HW124019  11.114   1.234   4.955 -0.6801  0.1166  0.9770
 6914SOL    HW224020  11.015   1.245   4.841 -1.0899 -1.4985  1.1428
 6915SOL     OW24021   4.063   8.828  10.329  0.0573 -0.2607  0.0751
 6915SOL    HW124022   4.137   8.888  10.320 -0.6450  0.5747 -0.3364
 6915SOL    HW224023   4.100   8.741  10.316  0.9634  0.1443 -0.1095
 6916SOL     OW24024   6.172  10.400   8.243 -0.3304  0.3441 -0.4167
 6916SOL    HW124025   6.180  10.392   8.148 -1.1257  0.5576 -0.5017
 6916SOL    HW224026   6.193  10.313   8.276  1.1638  0.5578 -0.6955
 6917SOL     OW24027   9.454   8.643   3.699  0.5508 -0.2303 -0.5754
 6917SOL    HW124028   9.482   8.660   3.789  1.2391  3.1201 -1.2895
 6917SOL    HW224029   9.360   8.629   3.705  0.9369 -3.1022  0.8866
 6918SOL     OW24030   0.579   1.570   7.313 -0.2448  0.3708  0.0944
 6918SOL    HW124031   0.621   1.624   7.247 -0.0979  0.2745  0.1073
 6918SOL    HW224032   0.580   1.482   7.276  0.5266  0.1793  0.5376
 6919SOL     OW24033   4.135   9.832   0.261  0.2028 -0.3211  0.1208
 6919SOL    HW124034   4.066   9.769   0.283  0.8168 -0.7963  0.7374
 6919SOL    HW224035   4.095   9.917   0.277 -0.6691 -0.5361 -0.8196
 6920SOL     OW24036   7.189   2.840   7.018  0.1291  0.9799  0.2741
 6920SOL    HW124037   7.252   2.896   7.063 -0.2274  0.6898  1.1577
 6920SOL    HW224038   7.228   2.753   7.021 -0.7246  0.6191  1.6756
 6921SOL     OW24039   0.070   6.642   5.645 -0.1045 -0.4716 -0.7527
 6921SOL    HW124040   0.010   6.703   5.688 -1.7961 -0.1279 -3.3573
 6921SOL    HW224041   0.065   6.562   5.696 -1.5400  0.0906  0.0326
 6922SOL     OW24042   2.861   2.231   0.754 -0.3004  0.1910 -0.0836
 6922SOL    HW124043   2.847   2.173   0.829 -0.8394  1.4338  0.7985
 6922SOL    HW224044   2.794   2.204   0.690  0.0118 -0.7110 -0.0558
 6923SOL     OW24045   8.747   6.691   0.248 -0.2966  0.5352 -0.0507
 6923SOL    HW124046   8.736   6.786   0.259  0.6198  0.5944  0.4657
 6923SOL    HW224047   8.688   6.668   0.175  0.7754  1.7948 -1.3727
 6924SOL     OW24048   9.887   9.580   7.714 -0.0531 -0.4876 -0.3114
 6924SOL    HW124049   9.871   9.670   7.684  0.9964 -0.4829 -0.8781
 6924SOL    HW224050   9.943   9.590   7.791 -1.4447 -0.5881  0.7774
 6925SOL     OW24051   5.512   0.603   1.777  0.1573 -0.2713 -0.0782
 6925SOL    HW124052   5.586   0.552   1.810 -0.9451 -1.5886  0.5027
 6925SOL    HW224053   5.523   0.604   1.682  1.0209 -0.2673  0.0171
 6926SOL     OW24054   8.843   5.883   5.774  0.1009  0.2618 -0.5553
 6926SOL    HW124055   8.840   5.954   5.838  2.1240  0.4079 -0.5692
 6926SOL    HW224056   8.850   5.928   5.689  0.5756  0.0448 -0.6301
 6927SOL     OW24057   6.248   6.357   4.818  0.0272  0.3477  0.6276
 6927SOL    HW124058   6.302   6.325   4.746 -0.3536  0.5010  0.2649
 6927SOL    HW224059   6.307   6.363   4.892 -0.2970 -3.5627  1.4530
 6928SOL     OW24060   1.196   4.860  10.017 -0.4083  0.4850  0.1297
 6928SOL    HW124061   1.213   4.856  10.111 -1.6183 -0.5554  0.3327
 6928SOL    HW224062   1.281   4.877   9.977  0.4139 -0.7829  1.2946
 6929SOL     OW24063   2.153   0.830   8.017  0.2115 -0.2470  0.1518
 6929SOL    HW124064   2.187   0.788   7.937  2.9559  0.0576  1.0657
 6929SOL    HW224065   2.078   0.775   8.042  0.6270 -1.6369 -1.4229
 6930SOL     OW24066   6.661   0.935   4.913 -0.3004  0.1886  0.1943
 6930SOL    HW124067   6.732   0.874   4.929  0.4110  1.2870  1.3590
 6930SOL    HW224068   6.704   1.019   4.896 -1.1500  0.0641 -3.3405
 6931SOL     OW24069   5.589   7.849   2.796  0.5113 -0.1840  0.0206
 6931SOL    HW124070   5.497   7.821   2.789  0.5815 -1.3647  2.5557
 6931SOL    HW224071   5.585   7.944   2.796 -0.4171 -0.1521 -2.3830
 6932SOL     OW24072   5.206   7.549   5.767 -0.2597  0.9530  0.1978
 6932SOL    HW124073   5.172   7.484   5.705  0.6216  0.1269  0.5547
 6932SOL    HW224074   5.295   7.519   5.786 -1.3528 -0.4130  4.0152
 6933SOL     OW24075   0.089   5.376   7.585  0.1766 -0.4322 -0.2831
 6933SOL    HW124076   0.060   5.345   7.500 -1.2193  0.2605 -0.0815
 6933SOL    HW224077   0.011   5.370   7.641  0.3612  1.5607  0.2601
 6934SOL     OW24078   8.236   5.990   6.276  0.0955 -0.4314  0.1212
 6934SOL    HW124079   8.329   5.996   6.253  0.6201 -0.9198  1.9603
 6934SOL    HW224080   8.209   6.081   6.289  0.4710 -0.3128  0.0878
 6935SOL     OW24081   4.601   2.275   6.884  1.0603  0.3851 -0.6412
 6935SOL    HW124082   4.628   2.286   6.793  0.2230  0.1720 -0.9268
 6935SOL    HW224083   4.506   2.262   6.879  1.2440 -1.5773  0.0931
 6936SOL     OW24084   6.267   6.318   9.279 -0.1959 -0.3959 -0.2776
 6936SOL    HW124085   6.190   6.280   9.235  0.3068  0.0717 -1.6312
 6936SOL    HW224086   6.233   6.398   9.320 -0.5917 -0.6013 -0.1955
 6937SOL     OW24087   5.141   6.152  10.367 -0.3378 -0.1054  0.0002
 6937SOL    HW124088   5.099   6.161  10.282 -0.2491 -2.4629 -0.3672
 6937SOL    HW224089   5.124   6.061  10.393  3.3061 -0.8594  0.4253
 6938SOL     OW24090   0.616   3.707   2.637  0.0027 -0.1171 -1.1394
 6938SOL    HW124091   0.668   3.768   2.690 -1.1690 -0.3947  0.4013
 6938SOL    HW224092   0.673   3.686   2.563  1.2620  1.1882 -0.6009
 6939SOL     OW24093   3.957   4.397  11.336  0.0443  0.2416  0.0720
 6939SOL    HW124094   3.874   4.401  11.288  1.2065  3.2305 -1.9703
 6939SOL    HW224095   3.934   4.419  11.426 -1.6999 -1.8598  0.2196
 6940SOL     OW24096   4.577   8.268   5.045  0.4249  0.1435  0.7253
 6940SOL    HW124097   4.522   8.341   5.074  2.2227  2.2239 -0.7404
 6940SOL    HW224098   4.586   8.213   5.122 -1.1287  1.3901  1.8741
 6941SOL     OW24099   4.676   0.029   3.126  0.1053  0.1195 -0.6635
 6941SOL    HW124100   4.732  -0.042   3.157  1.3474  0.0586 -2.8415
 6941SOL    HW224101   4.661   0.083   3.203 -0.4238 -2.1635  0.9316
 6942SOL     OW24102   4.459  10.710   5.700  0.3333 -0.3257 -0.3625
 6942SOL    HW124103   4.467  10.776   5.631  0.0954 -0.5262 -0.5899
 6942SOL    HW224104   4.458  10.759   5.782 -0.7743  0.0375 -0.5705
 6943SOL     OW24105   1.621   2.222   3.830  0.3284 -0.2002 -0.0597
 6943SOL    HW124106   1.650   2.182   3.912 -1.5018  0.8931  1.2009
 6943SOL    HW224107   1.527   2.206   3.828  0.0692  1.2921 -1.0899
 6944SOL     OW24108   0.477   4.333  10.092  0.5809 -0.3075 -0.3722
 6944SOL    HW124109   0.433   4.414  10.065 -0.7338 -1.0201 -0.4548
 6944SOL    HW224110   0.435   4.309  10.174  1.8763 -0.2337  0.3422
 6945SOL     OW24111   2.304   1.348   7.839  0.7271 -0.1088  0.2681
 6945SOL    HW124112   2.386   1.337   7.790  1.1045  0.3618  0.7812
 6945SOL    HW224113   2.300   1.273   7.897  0.7662 -0.1573  0.2084
 6946SOL     OW24114   1.041  10.109   5.377  0.1733 -0.6383  0.6375
 6946SOL    HW124115   1.055  10.014   5.374 -1.3413 -0.8653 -0.6653
 6946SOL    HW224116   1.008  10.131   5.290  1.1787  1.2320  0.6697
 6947SOL     OW24117  10.227   6.214   6.021  0.9134  0.1924  0.0794
 6947SOL    HW124118  10.186   6.295   6.051  2.3248  0.8759  0.2484
 6947SOL    HW224119  10.181   6.192   5.940 -0.8731  0.0071  1.0844
 6948SOL     OW24120   3.926   9.765   9.519  0.3239  0.0384  0.2857
 6948SOL    HW124121   3.893   9.829   9.456 -0.7288  1.1490  1.8860
 6948SOL    HW224122   4.004   9.806   9.555  0.1156  0.0505  0.7206
 6949SOL     OW24123   9.712   8.422   3.117  0.0030  0.4774  0.4635
 6949SOL    HW124124   9.680   8.494   3.063 -0.4953  0.3687  0.6079
 6949SOL    HW224125   9.638   8.401   3.175  0.1502 -0.1316  0.4367
 6950SOL     OW24126   5.816   2.753   0.187 -0.1437 -0.3225  0.1459
 6950SOL    HW124127   5.760   2.702   0.245  2.4719 -1.8768  1.5208
 6950SOL    HW224128   5.838   2.692   0.116  1.8629 -0.7371  1.0495
 6951SOL     OW24129   8.689   1.662   5.210 -0.6614 -0.0637  0.1196
 6951SOL    HW124130   8.721   1.746   5.175  1.4683 -0.6324  0.6141
 6951SOL    HW224131   8.755   1.635   5.274 -1.1082 -2.3012 -0.2805
 6952SOL     OW24132   6.722   4.848   1.945 -0.6500 -0.1208  0.1061
 6952SOL    HW124133   6.627   4.861   1.940 -0.9615 -1.2617  2.0366
 6952SOL    HW224134   6.732   4.768   1.996  1.3816  0.7798  1.2240
 6953SOL     OW24135   1.054   2.252   6.773  0.2511  0.1462  0.3851
 6953SOL    HW124136   1.114   2.287   6.708 -1.0839  0.4529 -0.7329
 6953SOL    HW224137   1.096   2.269   6.857  1.0946  1.5390 -0.2947
 6954SOL     OW24138   5.828   0.041   8.985  0.0535  0.3965 -0.8859
 6954SOL    HW124139   5.905   0.070   8.936 -0.2633  1.3322 -0.8636
 6954SOL    HW224140   5.787  -0.025   8.929  1.0289 -0.3309 -0.7592
 6955SOL     OW24141   8.552   8.741   1.603 -0.4130 -0.2667  0.3326
 6955SOL    HW124142   8.468   8.786   1.592  0.5165  1.3218 -0.7155
 6955SOL    HW224143   8.563   8.692   1.522 -0.2422 -0.3274  0.3934
 6956SOL     OW24144   4.851   1.508   3.231  0.4409 -0.7968  0.4826
 6956SOL    HW124145   4.932   1.461   3.251 -0.2795 -1.4188  2.1861
 6956SOL    HW224146   4.867   1.597   3.261  0.1703 -1.1779  1.8623
 6957SOL     OW24147   6.232   2.726   1.059  0.0205  0.1822 -0.8669
 6957SOL    HW124148   6.289   2.793   1.021  2.1108 -2.0432 -1.9284
 6957SOL    HW224149   6.272   2.706   1.144 -0.4079  0.0369 -0.6960
 6958SOL     OW24150  10.877   2.257   1.658  0.2290  0.0869 -0.8091
 6958SOL    HW124151  10.916   2.255   1.571 -0.3695 -1.0842 -1.0598
 6958SOL    HW224152  10.893   2.170   1.694 -1.2786 -0.0919 -0.5372
 6959SOL     OW24153   6.208   7.207   9.210  0.3303  0.2763  0.6738
 6959SOL    HW124154   6.192   7.113   9.199  0.0735  0.4148 -0.2700
 6959SOL    HW224155   6.278   7.212   9.275 -0.9031 -0.4850  2.1311
 6960SOL     OW24156   6.477  11.047   2.310  0.0609 -0.2524  0.4239
 6960SOL    HW124157   6.460  11.105   2.384 -0.1330 -0.7911  0.8051
 6960SOL    HW224158   6.565  11.072   2.279 -0.4405  0.9605 -0.0889
 6961SOL     OW24159   7.690   5.766   4.649  0.2372 -0.2880 -0.5326
 6961SOL    HW124160   7.668   5.847   4.695  0.8414 -0.4014 -0.0377
 6961SOL    HW224161   7.690   5.699   4.717 -2.9822 -1.2533 -1.3450
 6962SOL     OW24162   3.145  10.451   8.579 -0.5437 -0.3846 -0.6978
 6962SOL    HW124163   3.189  10.366   8.573  0.4945  0.1666 -1.1029
 6962SOL    HW224164   3.091  10.445   8.659  1.9564 -0.3242  1.1081
 6963SOL     OW24165   5.787   6.227  10.279 -0.1151 -0.6804 -0.2102
 6963SOL    HW124166   5.846   6.247  10.206  1.6746  1.0668  1.6008
 6963SOL    HW224167   5.804   6.135  10.299  1.7741 -0.3114  0.0414
 6964SOL     OW24168   2.109  10.766   1.487  0.8213 -0.5443  0.1060
 6964SOL    HW124169   2.025  10.720   1.481 -0.0946  1.0594 -0.0959
 6964SOL    HW224170   2.174  10.702   1.460 -0.3960 -1.6550 -0.3039
 6965SOL     OW24171   7.161   5.247   8.928  0.0834 -0.1249 -0.9393
 6965SOL    HW124172   7.083   5.209   8.968  0.6033  1.2347  1.5400
 6965SOL    HW224173   7.144   5.341   8.927  1.8873  0.2543  0.1609
 6966SOL     OW24174   9.486   6.514   9.028  0.0658 -0.6775 -0.1493
 6966SOL    HW124175   9.553   6.481   9.088 -1.5753  0.6863  2.6733
 6966SOL    HW224176   9.412   6.454   9.039 -0.6574  0.2345  0.0997
 6967SOL     OW24177   8.097   0.010   0.950 -0.2623  0.5199  0.2490
 6967SOL    HW124178   8.006   0.002   0.978 -0.3543  2.6973  0.7156
 6967SOL    HW224179   8.094  -0.011   0.856 -0.9079 -1.1725  0.6074
 6968SOL     OW24180   5.096   4.855  10.629 -0.3242  0.1424  0.3818
 6968SOL    HW124181   5.080   4.763  10.609  0.7666 -0.0786  0.4875
 6968SOL    HW224182   5.112   4.857  10.724 -0.6215  0.4830  0.4274
 6969SOL     OW24183   7.728   2.185   9.715 -0.1099  0.1928 -0.3135
 6969SOL    HW124184   7.708   2.198   9.623  0.8971 -0.3538 -0.6343
 6969SOL    HW224185   7.794   2.252   9.736 -0.9944  0.9048  0.2657
 6970SOL     OW24186   5.477   0.212  10.755 -0.1007  0.7855  0.3793
 6970SOL    HW124187   5.482   0.237  10.663 -2.9655  0.7307  0.1423
 6970SOL    HW224188   5.477   0.296  10.803 -2.8380  1.0847  0.0008
 6971SOL     OW24189   2.113  10.882  10.463 -0.4352 -0.1210 -0.0297
 6971SOL    HW124190   2.066  10.832  10.530  1.3726 -2.1955 -0.1926
 6971SOL    HW224191   2.194  10.910  10.507 -0.8321  1.6069 -0.3390
 6972SOL     OW24192   1.277  10.545   2.083  0.0261 -0.4155  0.0612
 6972SOL    HW124193   1.183  10.539   2.063 -0.2466  1.1496  0.6793
 6972SOL    HW224194   1.287  10.631   2.123  1.5976 -0.9053  0.8066
 6973SOL     OW24195   5.963   9.290   4.471 -0.1809 -0.2013  0.9305
 6973SOL    HW124196   5.969   9.384   4.460 -0.3648  0.0073  2.3371
 6973SOL    HW224197   5.900   9.278   4.543  0.7481 -1.3281  1.5962
 6974SOL     OW24198   6.524   9.867   0.012  0.0869  0.5215  0.2143
 6974SOL    HW124199   6.465   9.820   0.072  0.6139  0.2617  0.5355
 6974SOL    HW224200   6.469   9.889  -0.063 -0.2748 -0.2353  0.2496
 6975SOL     OW24201  10.626   4.914   4.588  0.2321 -0.7780  0.1602
 6975SOL    HW124202  10.549   4.920   4.531 -0.2027  1.9335  0.8676
 6975SOL    HW224203  10.700   4.936   4.531 -0.1492  1.4855  0.4580
 6976SOL     OW24204   8.177   2.882   8.477  0.6409  0.3141  0.1709
 6976SOL    HW124205   8.138   2.881   8.565  0.8466  1.4368  0.3011
 6976SOL    HW224206   8.105   2.907   8.420  0.4883 -0.4986 -0.0016
 6977SOL     OW24207  10.696   2.130   2.739  1.0092 -0.0780  0.1794
 6977SOL    HW124208  10.665   2.197   2.679  2.7547  0.2187 -0.4586
 6977SOL    HW224209  10.761   2.081   2.688 -0.7623 -2.8421  0.3264
 6978SOL     OW24210   2.033   1.177   0.775  0.3862  0.1216 -0.6897
 6978SOL    HW124211   1.961   1.239   0.765  0.3630  0.1465 -0.3660
 6978SOL    HW224212   2.110   1.231   0.788  0.2903  0.0757  0.0882
 6979SOL     OW24213   2.991   5.584   3.471  0.1670 -0.0727  0.4978
 6979SOL    HW124214   2.976   5.652   3.406  0.5886  0.1151  0.5933
 6979SOL    HW224215   2.937   5.609   3.545 -1.1483 -0.8486 -0.1577
 6980SOL     OW24216   8.163  11.166   1.688 -0.2352  0.6095  0.7000
 6980SOL    HW124217   8.236  11.227   1.695  1.5854 -1.1518 -1.3605
 6980SOL    HW224218   8.094  11.216   1.645  1.4552  1.1273 -1.6007
 6981SOL     OW24219   1.454   1.971   0.528  0.7123 -0.3925 -0.0801
 6981SOL    HW124220   1.449   2.058   0.489 -0.2204  0.6983  2.3398
 6981SOL    HW224221   1.526   1.977   0.591  0.9325 -1.5428 -0.1909
 6982SOL     OW24222   4.284   2.518   1.807  0.1862  0.5982 -0.0917
 6982SOL    HW124223   4.276   2.423   1.817 -1.9965  0.4133 -2.6551
 6982SOL    HW224224   4.379   2.534   1.808  0.5940 -1.4935  0.8933
 6983SOL     OW24225   1.650  10.090   8.024 -0.3458  0.4735  0.2180
 6983SOL    HW124226   1.656  10.112   7.931  1.9636  0.1201  0.2092
 6983SOL    HW224227   1.646   9.995   8.026 -1.7272  0.5219  0.4719
 6984SOL     OW24228   5.221   4.713   9.472  0.1120 -0.0403 -0.0485
 6984SOL    HW124229   5.154   4.644   9.476  0.1440 -0.0246  0.8620
 6984SOL    HW224230   5.303   4.668   9.497  0.4225 -0.0250 -1.0031
 6985SOL     OW24231   0.593   2.535   0.137  0.1387  0.3815  0.2449
 6985SOL    HW124232   0.526   2.553   0.072  1.1779  2.8487 -0.2533
 6985SOL    HW224233   0.663   2.491   0.089 -0.3305 -0.5174  0.3700
 6986SOL     OW24234   4.763   1.522   8.228  0.0302  0.7538  0.2490
 6986SOL    HW124235   4.719   1.593   8.182 -0.4573  1.0245  1.1224
 6986SOL    HW224236   4.697   1.486   8.287  0.5291  0.1495  0.4529
 6987SOL     OW24237   7.875   9.414   5.910  0.2304 -0.0796  0.6311
 6987SOL    HW124238   7.935   9.343   5.887  0.4226 -0.0333  0.9864
 6987SOL    HW224239   7.896   9.484   5.849 -0.6986 -0.7069 -0.4598
 6988SOL     OW24240   5.450   6.589   5.371 -0.4078  0.6918  0.4310
 6988SOL    HW124241   5.373   6.589   5.429 -0.0777 -2.2117  0.9913
 6988SOL    HW224242   5.525   6.585   5.430  0.2063  2.5974 -0.1435
 6989SOL     OW24243   3.068   8.030  10.683  0.2246 -0.3323 -0.2474
 6989SOL    HW124244   3.033   8.048  10.596 -0.3150 -2.4730 -0.5235
 6989SOL    HW224245   3.130   8.101  10.699 -2.2805  2.1516 -0.8299
 6990SOL     OW24246   0.600   3.177   8.891 -0.0428  0.3882  0.4237
 6990SOL    HW124247   0.550   3.249   8.853  0.0971  1.2531  1.8397
 6990SOL    HW224248   0.626   3.208   8.977  1.8982 -0.5207  0.2111
 6991SOL     OW24249   7.110   8.591   4.239  0.2317  0.3740 -0.0186
 6991SOL    HW124250   7.018   8.597   4.266 -0.1841  0.9646 -1.4628
 6991SOL    HW224251   7.112   8.519   4.176  0.6147  0.7719 -0.4766
 6992SOL     OW24252   8.119   2.698   8.888  0.3785  0.5160 -0.3940
 6992SOL    HW124253   8.065   2.619   8.887  0.0634  0.7283 -0.4762
 6992SOL    HW224254   8.202   2.671   8.928 -0.3822  0.5693  1.2812
 6993SOL     OW24255   0.406   8.542   6.185  0.1445  0.3879 -0.3303
 6993SOL    HW124256   0.486   8.562   6.137  1.0921  1.4210  1.5243
 6993SOL    HW224257   0.339   8.531   6.118  1.0599  3.1616 -1.8836
 6994SOL     OW24258   3.153   0.693   5.741 -0.0067 -0.1206  0.0364
 6994SOL    HW124259   3.173   0.764   5.803  1.0514  0.9128 -1.4081
 6994SOL    HW224260   3.201   0.717   5.662 -3.0200 -0.2263 -1.9708
 6995SOL     OW24261   0.860   6.270   8.168  0.4190  0.2123  0.4514
 6995SOL    HW124262   0.857   6.175   8.160  1.7988  0.0837  1.0745
 6995SOL    HW224263   0.901   6.286   8.253 -0.2541  1.3725  0.5808
 6996SOL     OW24264   6.646   1.705   3.451 -0.2160 -0.2161  0.4277
 6996SOL    HW124265   6.731   1.690   3.408  0.4422 -0.5956  1.8061
 6996SOL    HW224266   6.644   1.799   3.467 -1.2612  0.2499 -1.9488
 6997SOL     OW24267   0.004   1.163   2.657  0.3555  0.3445 -0.0095
 6997SOL    HW124268  -0.076   1.119   2.629  0.6884 -0.3149  0.0481
 6997SOL    HW224269   0.070   1.137   2.592  0.6285  0.5054  0.1990
 6998SOL     OW24270   9.349   6.149  10.103 -0.3824  0.1883  0.0677
 6998SOL    HW124271   9.354   6.177  10.012  0.6926 -1.6120 -0.4910
 6998SOL    HW224272   9.292   6.072  10.101 -1.5990  1.0308  1.1861
 6999SOL     OW24273   8.565  11.081   0.853 -0.2525  0.0501 -0.3785
 6999SOL    HW124274   8.623  11.123   0.917 -2.2195  0.1871  1.4046
 6999SOL    HW224275   8.582  11.128   0.771  1.6278  0.5273  0.2362
 7000SOL     OW24276  11.399   7.820   9.430 -0.0064 -0.1265 -0.3761
 7000SOL    HW124277  11.427   7.734   9.461  2.1536  0.7478  0.2853
 7000SOL    HW224278  11.431   7.826   9.340 -2.1990 -0.8484 -1.2807
 7001SOL     OW24279   5.242   7.570   7.365 -0.0042 -0.5850 -0.1455
 7001SOL    HW124280   5.314   7.520   7.404  0.7006 -0.4533 -1.2308
 7001SOL    HW224281   5.242   7.544   7.273 -1.5037 -0.7454 -0.1273
 7002SOL     OW24282   7.393   6.302   9.751  0.1254 -0.6295  0.4172
 7002SOL    HW124283   7.482   6.283   9.778  0.3730 -0.9137 -0.5479
 7002SOL    HW224284   7.359   6.360   9.818  0.5580 -1.6405  1.5506
 7003SOL     OW24285   7.942   1.789   3.011  0.5446 -0.4056  0.3268
 7003SOL    HW124286   7.976   1.878   2.998 -1.4343  0.1741 -1.3378
 7003SOL    HW224287   7.899   1.792   3.096 -2.1921  1.2260 -0.9918
 7004SOL     OW24288   7.858   5.372   4.007 -0.3666  0.3241 -0.3842
 7004SOL    HW124289   7.859   5.450   3.951  1.6765  0.3139 -0.4518
 7004SOL    HW224290   7.935   5.322   3.978  0.8077  0.3432  2.4394
 7005SOL     OW24291   2.388   1.612  11.157 -0.6379 -0.0778 -0.1947
 7005SOL    HW124292   2.454   1.641  11.219  0.6654 -0.9403 -1.1401
 7005SOL    HW224293   2.338   1.545  11.205  0.0354 -0.3776  0.0990
 7006SOL     OW24294   7.231  11.307   0.464 -0.0461 -0.2730  0.6822
 7006SOL    HW124295   7.190  11.371   0.521 -0.5350 -0.4167  0.4925
 7006SOL    HW224296   7.231  11.226   0.514 -0.9922 -0.5396  0.2726
 7007SOL     OW24297   0.366   2.047   2.283 -0.0714  0.1195  0.3442
 7007SOL    HW124298   0.449   2.015   2.317  0.0986 -0.6960 -0.7939
 7007SOL    HW224299   0.305   1.974   2.295 -0.1769  0.0685 -0.4239
 7008SOL     OW24300   1.835   8.277   2.804  0.5799  0.5666  0.6853
 7008SOL    HW124301   1.764   8.251   2.862 -0.3612 -0.6750 -0.9368
 7008SOL    HW224302   1.800   8.352   2.756  0.8474  0.7522  0.7797
 7009SOL     OW24303   6.284   1.685   9.064  0.9299 -0.0749 -0.0593
 7009SOL    HW124304   6.344   1.612   9.081  1.2487  0.3123  0.5075
 7009SOL    HW224305   6.312   1.720   8.980  0.4075 -0.9643 -0.6254
 7010SOL     OW24306   4.111   8.926   3.340 -0.0571 -0.2747  0.5411
 7010SOL    HW124307   4.060   8.990   3.390 -0.3857  1.0389 -1.3512
 7010SOL    HW224308   4.164   8.980   3.281 -0.8102 -1.7279 -1.5778
 7011SOL     OW24309   5.499   7.442   0.426 -0.1481 -0.1065 -0.5090
 7011SOL    HW124310   5.415   7.398   0.442 -0.1288  0.0171 -0.0566
 7011SOL    HW224311   5.518   7.487   0.508  0.7136 -0.7162 -0.3602
 7012SOL     OW24312  11.103  10.194   3.751 -0.4407 -0.2487 -0.6707
 7012SOL    HW124313  11.164  10.226   3.817  0.0508 -0.7890 -0.8447
 7012SOL    HW224314  11.140  10.225   3.668  0.4822 -1.8764 -0.9098
 7013SOL     OW24315   0.311   7.269   5.606 -0.2050 -0.3495  0.7169
 7013SOL    HW124316   0.340   7.344   5.555 -1.6050 -0.4374 -0.2618
 7013SOL    HW224317   0.379   7.202   5.593  0.1495  0.1231  0.1312
 7014SOL     OW24318   7.015   6.792  11.040  0.0701  0.0145  0.0226
 7014SOL    HW124319   7.074   6.717  11.031 -2.1160 -1.6391 -1.5331
 7014SOL    HW224320   7.002   6.801  11.134  0.6287 -1.3493  0.2526
 7015SOL     OW24321  11.342  10.438  10.952  0.1419  0.9706  0.0186
 7015SOL    HW124322  11.418  10.456  11.008 -1.0001  1.9763  1.3173
 7015SOL    HW224323  11.295  10.521  10.949 -2.2819 -0.2402  1.4065
 7016SOL     OW24324  10.829   6.557   2.084 -0.6492 -0.0149  0.4244
 7016SOL    HW124325  10.834   6.470   2.044  1.6318 -0.6176  1.8399
 7016SOL    HW224326  10.749   6.595   2.047 -0.8643 -2.0600 -1.4827
 7017SOL     OW24327   4.784   7.653   6.821 -0.1706  0.6048  0.8461
 7017SOL    HW124328   4.800   7.699   6.904 -0.7370  0.4031  1.0705
 7017SOL    HW224329   4.689   7.654   6.811 -0.1090  0.5557  0.2370
 7018SOL     OW24330   3.362   7.763   2.534  0.0130  0.1771  0.4230
 7018SOL    HW124331   3.404   7.749   2.619 -1.4623  0.5154  1.2319
 7018SOL    HW224332   3.403   7.698   2.477 -0.7750 -1.8614  2.0183
 7019SOL     OW24333   0.231   4.067   0.964  0.3065  0.1168 -0.2794
 7019SOL    HW124334   0.198   3.992   1.013  0.2539 -0.5807 -1.3559
 7019SOL    HW224335   0.190   4.143   1.007  1.1125 -0.3624  1.4282
 7020SOL     OW24336   0.560   1.018   3.587  0.0866  0.3966  0.0301
 7020SOL    HW124337   0.483   1.008   3.644 -0.5850  2.0043 -0.5491
 7020SOL    HW224338   0.589   1.108   3.601  0.9945  0.2514 -0.8363
 7021SOL     OW24339   0.994   5.519   3.831 -0.1820 -0.3073 -0.5129
 7021SOL    HW124340   0.963   5.567   3.754 -1.1139  0.5092  0.3518
 7021SOL    HW224341   1.080   5.556   3.851 -0.6040  0.5361 -0.2534
 7022SOL     OW24342   1.637   1.723   1.153 -0.0255  0.1363 -0.3654
 7022SOL    HW124343   1.589   1.700   1.074 -0.8280 -1.3136  0.4909
 7022SOL    HW224344   1.724   1.747   1.122  0.0209 -1.4597 -1.6353
 7023SOL     OW24345  10.308   1.701   9.707  0.2937  0.8628  0.2282
 7023SOL    HW124346  10.278   1.791   9.715 -0.2844  0.5960  1.1698
 7023SOL    HW224347  10.342   1.679   9.793  1.9804  0.7083 -0.4432
 7024SOL     OW24348   1.909  11.089   5.227  0.5596  0.6951  0.3048
 7024SOL    HW124349   1.821  11.087   5.263  0.7742  2.1209  0.9765
 7024SOL    HW224350   1.965  11.055   5.297  0.6786  0.9949  0.3580
 7025SOL     OW24351   9.730   1.816  10.104  0.5481  0.0742 -0.7989
 7025SOL    HW124352   9.718   1.722  10.119  2.2942  0.2612  2.4383
 7025SOL    HW224353   9.644   1.845  10.071 -0.9232 -2.1799  0.7412
 7026SOL     OW24354  10.595   7.527   9.069 -0.7049 -0.1630  0.3030
 7026SOL    HW124355  10.513   7.573   9.049 -0.5993 -0.2447 -0.3331
 7026SOL    HW224356  10.627   7.498   8.984  0.0543 -0.0258  0.5402
 7027SOL     OW24357   4.154   1.329   9.255  0.0236  0.1986  0.0144
 7027SOL    HW124358   4.246   1.344   9.238  0.0324  2.1094  1.3809
 7027SOL    HW224359   4.152   1.278   9.337 -0.1371 -0.0895 -0.1658
 7028SOL     OW24360   9.026   2.289   3.859 -0.3949 -0.4017  0.1152
 7028SOL    HW124361   9.019   2.197   3.886 -0.0508 -0.3895  0.2527
 7028SOL    HW224362   9.092   2.326   3.917 -0.0973 -0.2173 -0.3365
 7029SOL     OW24363   0.661   3.933   7.374  0.1174 -0.5632 -0.0273
 7029SOL    HW124364   0.632   3.872   7.442  0.1572  0.1712  0.6578
 7029SOL    HW224365   0.627   3.896   7.292 -1.7263 -0.3672  0.6168
 7030SOL     OW24366   6.027   5.665   0.280 -0.6625  0.8368  0.0855
 7030SOL    HW124367   6.046   5.580   0.320 -1.6046  1.1589  1.3075
 7030SOL    HW224368   6.111   5.710   0.277 -0.0881 -0.2522 -0.9090
 7031SOL     OW24369   1.435   4.476  10.227 -0.6873 -0.0740  0.2974
 7031SOL    HW124370   1.451   4.467  10.133 -0.1051 -0.6263  0.4413
 7031SOL    HW224371   1.517   4.448  10.268 -0.5933  1.0941  0.9433
 7032SOL     OW24372  10.930  10.919  10.897 -0.2551 -0.2348  0.1401
 7032SOL    HW124373  11.023  10.911  10.875 -0.4563 -2.5619 -0.1021
 7032SOL    HW224374  10.929  10.932  10.992  0.3148 -2.3447  0.4866
 7033SOL     OW24375   4.476   0.020   8.999  0.0135 -0.5231  0.0023
 7033SOL    HW124376   4.472   0.089   9.065 -0.7425 -1.1780  0.6655
 7033SOL    HW224377   4.400  -0.035   9.017 -0.6591 -0.3073 -1.9095
 7034SOL     OW24378  11.332   6.681  10.104 -0.4569 -0.5053  0.0561
 7034SOL    HW124379  11.286   6.718  10.028 -0.6500 -0.3479  0.2452
 7034SOL    HW224380  11.411   6.735  10.112 -0.7724 -0.0766  0.3734
 7035SOL     OW24381   7.410   4.417   4.954  0.3869 -0.0455 -0.0727
 7035SOL    HW124382   7.436   4.327   4.972 -1.7367 -1.4084 -3.1509
 7035SOL    HW224383   7.458   4.440   4.875  0.8049  1.5515  0.6034
 7036SOL     OW24384   5.209   2.401   8.143  0.2312  0.0709  0.1792
 7036SOL    HW124385   5.276   2.332   8.142  1.0955  0.8147  1.7539
 7036SOL    HW224386   5.208   2.434   8.053  2.1627  0.1825  0.1498
 7037SOL     OW24387   9.502   3.128   9.411  0.0210  0.1356 -0.1696
 7037SOL    HW124388   9.578   3.144   9.355  0.4797  0.8449  0.6382
 7037SOL    HW224389   9.527   3.052   9.464  1.2971  1.9210  1.9693
 7038SOL     OW24390   8.501   8.623   0.952 -0.3976 -0.2499  0.0430
 7038SOL    HW124391   8.579   8.591   0.997 -0.0897 -0.8860 -0.9063
 7038SOL    HW224392   8.533   8.649   0.865 -0.5387  3.0142  0.8299
 7039SOL     OW24393   0.804   2.825   4.536 -0.2620  0.2710  0.0852
 7039SOL    HW124394   0.896   2.850   4.546 -0.3011  2.7909 -3.6595
 7039SOL    HW224395   0.758   2.908   4.522 -2.6722 -1.0882 -0.6796
 7040SOL     OW24396   0.650   2.701   5.254 -0.1949 -0.0114 -0.1439
 7040SOL    HW124397   0.724   2.654   5.293 -1.1326  0.0671  1.8436
 7040SOL    HW224398   0.684   2.735   5.171  1.8972 -0.2360  0.5675
 7041SOL     OW24399  10.783   0.678   5.702  0.0721 -0.3680 -0.2130
 7041SOL    HW124400  10.786   0.667   5.607  1.3469  0.3368 -0.2823
 7041SOL    HW224401  10.731   0.603   5.733 -0.5591 -0.4793 -1.4667
 7042SOL     OW24402   5.099   3.810   1.851  0.2269 -0.2825  0.0545
 7042SOL    HW124403   5.034   3.877   1.872 -0.6282 -0.8899 -0.5980
 7042SOL    HW224404   5.049   3.729   1.843  0.8335 -0.5175 -1.8679
 7043SOL     OW24405   2.613   1.959   3.445  0.3586 -0.2326 -0.5835
 7043SOL    HW124406   2.581   2.044   3.476  1.3283 -1.3218  4.1001
 7043SOL    HW224407   2.533   1.910   3.422 -1.2334 -0.6814  4.6364
 7044SOL     OW24408   3.309   4.509   8.367  0.3917 -0.1184 -0.0103
 7044SOL    HW124409   3.282   4.421   8.393 -0.6628 -0.5042 -2.1950
 7044SOL    HW224410   3.337   4.500   8.276  0.2194  1.8173 -0.3100
 7045SOL     OW24411   8.707  10.501   7.843  0.2724 -0.0568 -0.1696
 7045SOL    HW124412   8.626  10.469   7.883  0.5145 -0.6999 -0.1711
 7045SOL    HW224413   8.692  10.495   7.749  0.5213 -0.7199 -0.1715
 7046SOL     OW24414   1.603   7.093   8.598  0.0325  0.4063 -0.5258
 7046SOL    HW124415   1.594   7.015   8.543 -1.1507 -0.6585  1.0716
 7046SOL    HW224416   1.688   7.129   8.574 -0.8160  0.6016 -3.7284
 7047SOL     OW24417   3.268   2.562   0.330 -0.3046  0.0539  0.0338
 7047SOL    HW124418   3.188   2.518   0.303 -0.4772  0.7114 -0.5438
 7047SOL    HW224419   3.273   2.640   0.275 -0.1950  0.9623  1.3033
 7048SOL     OW24420   3.764   0.690   4.586 -0.1023 -0.1982 -0.1053
 7048SOL    HW124421   3.767   0.682   4.682  0.6295 -1.1181 -0.1973
 7048SOL    HW224422   3.761   0.600   4.554 -0.2612  0.1006 -0.9591
 7049SOL     OW24423  11.343   1.457   9.299  0.7828 -0.1127 -0.2604
 7049SOL    HW124424  11.331   1.544   9.261 -0.4460 -0.2203 -0.1783
 7049SOL    HW224425  11.344   1.397   9.224  1.9202 -0.0079 -0.3355
 7050SOL     OW24426   0.305  11.125   3.316  0.3636 -0.2136  0.1145
 7050SOL    HW124427   0.226  11.101   3.268  0.1569 -2.2700  1.3721
 7050SOL    HW224428   0.275  11.186   3.383 -0.0385 -0.4276  0.1328
 7051SOL     OW24429   5.682   4.606   2.848  0.1588 -0.7059 -0.0905
 7051SOL    HW124430   5.772   4.599   2.880 -0.0659 -1.6810  0.3704
 7051SOL    HW224431   5.685   4.573   2.758  0.9194  2.6587 -1.4447
 7052SOL     OW24432   2.564   0.553   4.945  0.0470  1.0330 -0.5995
 7052SOL    HW124433   2.616   0.605   4.884  0.0870  0.0579 -1.4196
 7052SOL    HW224434   2.473   0.573   4.921  0.0634  0.4119 -1.1976
 7053SOL     OW24435   9.135   6.095   1.311  0.3241 -0.0608  0.2733
 7053SOL    HW124436   9.143   6.152   1.235  0.4674  0.4725  0.6811
 7053SOL    HW224437   9.052   6.048   1.298  0.9170 -0.8555 -0.7886
 7054SOL     OW24438   1.407   4.937   0.824  0.5287 -0.5861  0.1798
 7054SOL    HW124439   1.486   4.986   0.846  1.0164 -0.4250 -1.8105
 7054SOL    HW224440   1.424   4.848   0.856  1.6501 -0.6253 -0.4719
 7055SOL     OW24441   6.518   8.585   7.850  0.0661 -0.0707 -0.4153
 7055SOL    HW124442   6.597   8.586   7.796  0.7597  0.9778  0.5784
 7055SOL    HW224443   6.446   8.590   7.787  0.6892 -2.3368 -1.4233
 7056SOL     OW24444   1.210   1.817   7.924  0.3189 -0.0643  0.2773
 7056SOL    HW124445   1.139   1.774   7.971  1.4986 -1.2239  1.1014
 7056SOL    HW224446   1.197   1.794   7.832 -0.5640  0.0590  0.3652
 7057SOL     OW24447   8.912   8.431   9.035 -0.0037 -0.0872 -0.5747
 7057SOL    HW124448   8.847   8.436   8.965 -0.5768 -0.9514 -0.1239
 7057SOL    HW224449   8.909   8.340   9.064  0.4371  0.1826  0.3754
 7058SOL     OW24450  10.392  11.191   5.172 -0.0584  0.2800  0.0148
 7058SOL    HW124451  10.328  11.139   5.123  1.0651  0.1209 -1.3408
 7058SOL    HW224452  10.383  11.280   5.137  0.3543  0.2820 -0.0944
 7059SOL     OW24453   6.340   4.654   4.785 -0.2034 -0.1699 -0.1355
 7059SOL    HW124454   6.314   4.746   4.787 -0.7987 -0.2664 -1.8333
 7059SOL    HW224455   6.417   4.652   4.728 -0.6942 -0.8221 -0.7928
 7060SOL     OW24456   0.950   5.776   3.287  0.5867  0.4594  0.4981
 7060SOL    HW124457   0.898   5.848   3.322 -0.2942 -0.4983  1.2250
 7060SOL    HW224458   1.028   5.818   3.250 -0.4464  1.8889 -0.1517
 7061SOL     OW24459   9.338   3.339   0.943  0.0831 -0.0695 -0.0692
 7061SOL    HW124460   9.321   3.286   0.866 -0.7612  0.1235 -0.0203
 7061SOL    HW224461   9.434   3.342   0.949  0.2459 -3.6940  1.3801
 7062SOL     OW24462   9.603   3.366   1.010 -0.1907  0.3679  0.1175
 7062SOL    HW124463   9.634   3.275   1.012  1.1622  0.8058  0.3418
 7062SOL    HW224464   9.648   3.408   1.083  0.2515  1.5166 -0.7856
 7063SOL     OW24465   6.406   7.078   1.306 -0.3095 -0.1545 -0.0621
 7063SOL    HW124466   6.373   7.149   1.251 -0.1945 -0.2022 -0.1936
 7063SOL    HW224467   6.456   7.023   1.245 -0.8213 -0.6205 -0.0678
 7064SOL     OW24468   2.738   8.338   1.376 -0.1496 -0.4245 -0.2426
 7064SOL    HW124469   2.788   8.404   1.424 -0.7027  0.6095 -1.0390
 7064SOL    HW224470   2.681   8.299   1.442  0.3146 -0.2363  0.2788
 7065SOL     OW24471   8.434   6.180   6.516  0.1695 -0.1089  0.2618
 7065SOL    HW124472   8.445   6.105   6.574 -2.3412 -0.0809  0.8725
 7065SOL    HW224473   8.444   6.144   6.428 -0.7951 -1.1519  0.5551
 7066SOL     OW24474   6.093   2.871   1.717 -0.5493 -0.3832 -0.2425
 7066SOL    HW124475   6.106   2.793   1.771  1.0746 -0.1471 -0.2602
 7066SOL    HW224476   6.065   2.837   1.632 -0.9960 -0.8725  0.0965
 7067SOL     OW24477   1.809   4.042   3.894 -0.1506 -0.5755  0.2473
 7067SOL    HW124478   1.877   3.977   3.913  0.2235 -0.1881  0.2551
 7067SOL    HW224479   1.811   4.051   3.799  0.5203  0.1839  0.3248
 7068SOL     OW24480   7.977   6.636   8.198 -0.1154 -0.2494  0.0650
 7068SOL    HW124481   7.939   6.567   8.144 -1.6310  0.5711  0.0354
 7068SOL    HW224482   7.943   6.717   8.160  4.3254  0.9073 -2.1953
 7069SOL     OW24483   0.145   9.985  10.290 -0.2866  0.2899  0.0449
 7069SOL    HW124484   0.185  10.055  10.238 -0.7852  0.7539  0.2719
 7069SOL    HW224485   0.052  10.007  10.293 -0.5784 -0.8082 -0.5193
 7070SOL     OW24486   2.873   6.752  10.353  0.1036 -0.3637 -0.6711
 7070SOL    HW124487   2.957   6.766  10.397 -0.6671 -0.8230  1.0189
 7070SOL    HW224488   2.883   6.794  10.268  2.0199 -0.3655 -0.4776
 7071SOL     OW24489   1.940   5.074   6.899 -0.3262  0.2396 -0.3287
 7071SOL    HW124490   1.868   5.012   6.903  0.3785 -0.5630  0.7686
 7071SOL    HW224491   2.019   5.020   6.904  0.3386  1.1294 -0.8418
 7072SOL     OW24492   0.620  10.659   8.925 -0.3822 -0.4706  0.0950
 7072SOL    HW124493   0.548  10.722   8.921  1.4127  1.7433  0.8145
 7072SOL    HW224494   0.636  10.635   8.834 -0.6094  0.7445 -0.2874
 7073SOL     OW24495   3.159   1.025   7.677  0.0563  0.5424 -0.3458
 7073SOL    HW124496   3.098   0.993   7.744 -3.4499  2.8896 -2.0597
 7073SOL    HW224497   3.150   0.963   7.604  0.9315  0.0732 -0.0661
 7074SOL     OW24498   8.772   5.531  11.072  0.3777  0.1598  0.2225
 7074SOL    HW124499   8.745   5.491  11.155 -1.5417  0.3661 -0.2635
 7074SOL    HW224500   8.794   5.457  11.016 -0.0936 -0.0621  0.3288
 7075SOL     OW24501   2.041   3.128   4.361 -0.3478 -0.5427 -0.3271
 7075SOL    HW124502   1.986   3.140   4.439  0.0995 -0.0876 -0.0699
 7075SOL    HW224503   2.020   3.201   4.304  0.2241 -0.1734 -0.0785
 7076SOL     OW24504   1.847   5.016   6.203 -0.4855  0.1769  0.3545
 7076SOL    HW124505   1.764   4.988   6.240 -0.5442  0.9981  0.8819
 7076SOL    HW224506   1.873   5.091   6.257  1.2578 -0.8749  1.0441
 7077SOL     OW24507   9.578   0.894   9.860 -0.1463 -0.4900  0.0725
 7077SOL    HW124508   9.505   0.836   9.839  1.7324 -3.0515  0.1186
 7077SOL    HW224509   9.642   0.838   9.904  2.3049  1.3437 -0.8856
 7078SOL     OW24510   2.607   7.472   7.025 -0.0761 -0.4274  0.3069
 7078SOL    HW124511   2.674   7.406   7.042 -0.2033 -0.4430  0.7442
 7078SOL    HW224512   2.524   7.429   7.044 -0.1714 -0.2025  0.4103
 7079SOL     OW24513   3.521   0.939   2.669  0.1572 -0.5066  0.5248
 7079SOL    HW124514   3.614   0.918   2.675  0.6861  1.7507  1.1426
 7079SOL    HW224515   3.489   0.936   2.759 -0.1890 -0.5232  0.4044
 7080SOL     OW24516   5.291   7.249   7.040 -0.0800  0.3450  0.2006
 7080SOL    HW124517   5.280   7.174   6.981  3.2246  0.5747 -0.8994
 7080SOL    HW224518   5.350   7.217   7.108  3.1218  2.3137 -1.4010
 7081SOL     OW24519   6.512   3.244   1.474 -0.4162 -0.1336  0.6419
 7081SOL    HW124520   6.489   3.309   1.541 -0.9678 -1.0927  1.4035
 7081SOL    HW224521   6.495   3.159   1.515  2.3011 -0.8756  0.4582
 7082SOL     OW24522   8.331   8.669   6.546 -0.1489 -0.8827 -0.0719
 7082SOL    HW124523   8.345   8.697   6.455  1.3596 -0.6834  0.2008
 7082SOL    HW224524   8.246   8.625   6.544 -1.1867  1.0229 -1.1349
 7083SOL     OW24525   0.507   7.129   2.755  0.3918  0.0807  0.5655
 7083SOL    HW124526   0.596   7.159   2.773  0.3612 -0.1972  1.1824
 7083SOL    HW224527   0.451   7.183   2.812  0.1797  0.1242  0.3196
 7084SOL     OW24528   7.628   3.198   6.622  0.3603 -0.1596 -0.0274
 7084SOL    HW124529   7.627   3.122   6.564  1.5169  0.8302 -1.4110
 7084SOL    HW224530   7.655   3.163   6.707 -0.2477 -1.4541 -0.3398
 7085SOL     OW24531   2.919   8.847   2.278  0.3682  0.1240 -0.4730
 7085SOL    HW124532   3.000   8.796   2.281  0.1331 -0.2844 -0.9139
 7085SOL    HW224533   2.853   8.786   2.247 -0.4484  0.0296  1.3145
 7086SOL     OW24534   1.416   2.526  10.336 -0.0245  0.1759 -0.2954
 7086SOL    HW124535   1.396   2.602  10.281 -0.5763  0.3889  0.1904
 7086SOL    HW224536   1.459   2.465  10.277  1.3192  1.2477 -0.4784
 7087SOL     OW24537   2.605   7.633   4.413 -0.6719 -0.1375  0.0154
 7087SOL    HW124538   2.696   7.609   4.398 -0.5825  0.1354  0.1195
 7087SOL    HW224539   2.565   7.628   4.326 -0.2976  0.8214 -0.2194
 7088SOL     OW24540   2.293   8.866  10.456  0.3074  0.6966  0.1951
 7088SOL    HW124541   2.202   8.837  10.467 -0.2027  1.7613 -1.0197
 7088SOL    HW224542   2.342   8.785  10.442 -0.3296  0.0504  1.5408
 7089SOL     OW24543   2.902   9.313   0.001  0.4472  0.2152  0.4932
 7089SOL    HW124544   2.938   9.402   0.010 -0.6647  0.6203  1.1662
 7089SOL    HW224545   2.871   9.291   0.088  1.9871 -1.4355  0.6645
 7090SOL     OW24546   0.290   8.056   7.618  0.0734 -0.6284 -0.1886
 7090SOL    HW124547   0.368   8.102   7.648  0.3238 -0.8343 -0.5139
 7090SOL    HW224548   0.254   8.111   7.549 -0.0178 -0.5803 -0.1035
 7091SOL     OW24549   5.576   8.437   9.114  0.0494  0.1174 -0.3490
 7091SOL    HW124550   5.494   8.402   9.147 -0.2356 -0.1346 -1.3097
 7091SOL    HW224551   5.601   8.378   9.043  0.6327  0.6722 -0.6179
 7092SOL     OW24552   1.699   7.283   3.949 -0.1046  0.0663  0.2968
 7092SOL    HW124553   1.687   7.208   3.891  0.2921  1.7566 -2.1077
 7092SOL    HW224554   1.781   7.265   3.995  0.3736 -0.6365 -0.8051
 7093SOL     OW24555   9.053   8.101   7.960  0.7822  0.6241 -0.6911
 7093SOL    HW124556   9.103   8.136   8.034 -0.2362  0.6444  0.0004
 7093SOL    HW224557   8.998   8.033   7.998  0.0202  0.8458 -1.3744
 7094SOL     OW24558   3.195  10.105   3.549  0.1068 -0.1989 -0.5434
 7094SOL    HW124559   3.240  10.021   3.547  1.2855  0.4077 -0.6782
 7094SOL    HW224560   3.261  10.167   3.582 -1.2921  0.3472  1.4123
 7095SOL     OW24561   5.610   3.267   0.887 -0.1969  0.5042  0.0221
 7095SOL    HW124562   5.525   3.301   0.859 -0.4521 -0.2490 -0.1227
 7095SOL    HW224563   5.640   3.331   0.952 -1.5504  0.0331  1.1733
 7096SOL     OW24564   7.614   0.132   1.485 -0.6440 -0.2515 -0.0434
 7096SOL    HW124565   7.565   0.183   1.550 -0.8115 -1.4706  0.8369
 7096SOL    HW224566   7.574   0.045   1.489  0.0957 -0.6452 -0.9815
 7097SOL     OW24567   9.039   6.806   8.893 -0.0575  0.1509  0.3914
 7097SOL    HW124568   9.118   6.787   8.842  0.2970  0.5663  0.7624
 7097SOL    HW224569   8.977   6.737   8.870 -0.5233  1.2383 -1.8467
 7098SOL     OW24570   5.894   5.618   3.883 -0.5169 -0.1313  0.2696
 7098SOL    HW124571   5.890   5.672   3.962  1.0679  1.1528 -0.4682
 7098SOL    HW224572   5.987   5.603   3.869 -0.8202 -1.1368 -0.8461
 7099SOL     OW24573   6.928   7.059  11.105  0.0265  0.5611  0.6729
 7099SOL    HW124574   6.899   7.102  11.024 -1.2735  1.0290  1.3621
 7099SOL    HW224575   6.954   6.971  11.076 -0.0460  0.8434 -0.3134
 7100SOL     OW24576   0.268   3.162   8.047 -0.6386  0.0296  0.3404
 7100SOL    HW124577   0.342   3.161   7.987 -0.5877  0.0837  0.4026
 7100SOL    HW224578   0.305   3.132   8.130 -1.4139 -3.7607 -0.4799
 7101SOL     OW24579   9.376   5.351   6.239 -0.0080 -0.3344  0.0888
 7101SOL    HW124580   9.462   5.382   6.211 -0.7408  2.2738  0.4473
 7101SOL    HW224581   9.376   5.361   6.334 -0.4585 -1.0440  0.1719
 7102SOL     OW24582   6.113   7.912   8.798 -0.4089 -0.6651 -0.6249
 7102SOL    HW124583   6.121   7.932   8.705 -1.0636 -0.1700 -0.5821
 7102SOL    HW224584   6.187   7.854   8.817  0.2249 -0.0720 -1.2550
 7103SOL     OW24585   6.479   5.004   5.311 -0.1022  0.6118  0.4102
 7103SOL    HW124586   6.570   5.019   5.287  0.0891 -1.9717 -0.7197
 7103SOL    HW224587   6.431   5.074   5.265  1.2649  2.1618  1.2289
 7104SOL     OW24588   1.215   7.696   4.715  0.0041  0.2476  1.1267
 7104SOL    HW124589   1.216   7.777   4.664  2.0456 -0.2484  0.2635
 7104SOL    HW224590   1.259   7.632   4.659  3.5812  0.0011  3.8241
 7105SOL     OW24591   5.742   0.324   5.572  0.1099 -0.1911  0.0702
 7105SOL    HW124592   5.651   0.345   5.594 -0.3508 -0.4041 -1.5069
 7105SOL    HW224593   5.767   0.391   5.509  0.0933 -1.7393 -1.6410
 7106SOL     OW24594   6.716   0.293   6.599  0.0148  0.3773 -0.7632
 7106SOL    HW124595   6.630   0.336   6.595  0.0091  0.6327  1.0521
 7106SOL    HW224596   6.697   0.203   6.626  0.2529  0.0896 -1.5205
 7107SOL     OW24597   7.273   3.694   1.539  0.0880  0.0131  0.1950
 7107SOL    HW124598   7.323   3.773   1.557  0.1003 -0.1044  0.6965
 7107SOL    HW224599   7.183   3.715   1.564 -0.1780  0.3192 -0.9833
 7108SOL     OW24600   0.600   3.340   1.352 -0.4517 -0.0977 -0.0240
 7108SOL    HW124601   0.610   3.428   1.388 -2.7517 -0.3977  1.6226
 7108SOL    HW224602   0.505   3.328   1.346 -0.1770 -1.9418 -1.6276
 7109SOL     OW24603   5.173   4.778   1.057  0.0396 -0.2008 -0.2648
 7109SOL    HW124604   5.124   4.842   1.005 -0.3797 -0.1021  0.2389
 7109SOL    HW224605   5.168   4.697   1.007  0.2865  0.0801 -0.7435
 7110SOL     OW24606   8.348   3.462   1.239  0.0873 -0.6751  0.0166
 7110SOL    HW124607   8.270   3.432   1.192  1.0937 -0.4216 -1.9152
 7110SOL    HW224608   8.410   3.486   1.170  0.6801  2.3698  1.4602
 7111SOL     OW24609   6.858   1.375  11.303  0.0744  0.5255 -0.0419
 7111SOL    HW124610   6.795   1.358  11.232  3.1524 -3.3426 -2.2617
 7111SOL    HW224611   6.915   1.443  11.268  0.9702 -0.6534 -0.9623
 7112SOL     OW24612   2.213   5.449   6.439 -0.5024  0.2897  0.4573
 7112SOL    HW124613   2.220   5.359   6.407 -1.0885  0.1767  0.6269
 7112SOL    HW224614   2.279   5.456   6.508 -0.1077  0.1480  0.0976
 7113SOL     OW24615   2.797   2.968   9.821  0.3294  0.1507  0.1460
 7113SOL    HW124616   2.797   2.915   9.901 -0.1710  1.5534  1.1155
 7113SOL    HW224617   2.707   2.962   9.789  0.3042  0.3013  0.1881
 7114SOL     OW24618   0.193   8.302   9.693  0.3583 -0.1786 -0.1170
 7114SOL    HW124619   0.271   8.262   9.732  0.2632 -0.2896 -0.0413
 7114SOL    HW224620   0.217   8.313   9.601  0.6086  0.1486 -0.0165
 7115SOL     OW24621   0.203   8.146   4.951 -0.1909  0.1189  0.3367
 7115SOL    HW124622   0.190   8.142   4.856 -2.0955  1.4151  0.4793
 7115SOL    HW224623   0.275   8.208   4.963 -0.8971  1.1044 -0.2739
 7116SOL     OW24624  11.108   7.738   1.764 -0.0046 -0.1060 -0.4355
 7116SOL    HW124625  11.176   7.804   1.774  1.0969 -1.0503 -1.3436
 7116SOL    HW224626  11.156   7.656   1.749 -1.2476 -1.4735  2.2965
 7117SOL     OW24627   1.851   4.280   1.298 -0.0482  0.1602  0.0933
 7117SOL    HW124628   1.778   4.292   1.237 -0.7798 -0.5013  0.8007
 7117SOL    HW224629   1.824   4.326   1.377  1.8415  2.9287 -0.7109
 7118SOL     OW24630  11.265  10.250   9.524 -0.1647  0.0447 -0.3381
 7118SOL    HW124631  11.358  10.243   9.504  0.0677  0.5623  0.5072
 7118SOL    HW224632  11.248  10.344   9.525 -0.5570 -0.0291  0.1129
 7119SOL     OW24633  10.524   5.746   9.350 -0.2352 -0.6051 -0.0889
 7119SOL    HW124634  10.552   5.687   9.280  0.4354 -0.4899  0.0761
 7119SOL    HW224635  10.482   5.689   9.414  0.6489 -0.9464  0.1965
 7120SOL     OW24636   5.636   7.184   5.719 -0.1168  0.5060  0.1727
 7120SOL    HW124637   5.666   7.263   5.673  1.4680 -0.0877  0.1107
 7120SOL    HW224638   5.612   7.215   5.806 -0.5368  1.2100 -0.1758
 7121SOL     OW24639   9.413  11.154   7.983  0.1802  0.4486  0.4296
 7121SOL    HW124640   9.487  11.107   8.020 -0.6921 -1.3151  0.0186
 7121SOL    HW224641   9.361  11.180   8.059  0.3354  0.1888  0.6265
 7122SOL     OW24642   6.950   9.176   9.196  0.3973 -0.2116 -0.5084
 7122SOL    HW124643   6.970   9.255   9.247 -1.1127  0.2386 -0.5355
 7122SOL    HW224644   6.991   9.190   9.111 -0.8948  1.1689 -0.9514
 7123SOL     OW24645   5.358   0.269   8.467  0.2720 -0.0528  0.3363
 7123SOL    HW124646   5.442   0.272   8.423  0.0018  2.2683 -0.1457
 7123SOL    HW224647   5.333   0.176   8.466  1.5158 -0.4233 -1.9736
 7124SOL     OW24648  11.040   8.691   3.243 -0.3689 -0.0492 -0.1604
 7124SOL    HW124649  11.029   8.622   3.308 -0.2856 -0.0379 -0.1347
 7124SOL    HW224650  11.046   8.771   3.295  0.7690 -0.1492 -0.1213
 7125SOL     OW24651   4.723  11.157   3.592  0.5141  0.2501  0.0257
 7125SOL    HW124652   4.674  11.095   3.646  1.0918 -0.8771 -0.6856
 7125SOL    HW224653   4.815  11.136   3.609  0.7304  1.2040  0.0863
 7126SOL     OW24654   1.313   3.806  10.972  0.7508  0.0879  0.3064
 7126SOL    HW124655   1.313   3.729  11.029  0.5401  0.0818  0.3002
 7126SOL    HW224656   1.221   3.831  10.966  0.7946  0.2119  0.1359
 7127SOL     OW24657   7.136   8.311   7.346 -0.2700 -0.2170 -0.6341
 7127SOL    HW124658   7.073   8.309   7.418 -1.8061 -1.4136 -1.9502
 7127SOL    HW224659   7.202   8.245   7.369  0.4079  0.8479  0.6173
 7128SOL     OW24660   8.284  10.543   8.765  0.4784  0.3741 -0.3206
 7128SOL    HW124661   8.375  10.563   8.744  0.4808  0.4183 -0.2676
 7128SOL    HW224662   8.269  10.584   8.850 -0.0078  1.5970 -0.9752
 7129SOL     OW24663   9.155   7.113   0.549  0.1464  0.0951  0.0229
 7129SOL    HW124664   9.240   7.120   0.593  0.8165 -2.5537 -0.6409
 7129SOL    HW224665   9.091   7.108   0.620  0.9027 -1.0297  0.6594
 7130SOL     OW24666   2.418  10.461   4.847 -0.0769 -0.0854 -0.0080
 7130SOL    HW124667   2.425  10.475   4.752  0.5229  1.4207  0.2318
 7130SOL    HW224668   2.346  10.518   4.874 -0.0453 -0.2797  0.4892
 7131SOL     OW24669   2.484  10.197   3.176  0.2816 -0.0696 -0.2555
 7131SOL    HW124670   2.438  10.280   3.192  1.6374  0.9035 -1.1084
 7131SOL    HW224671   2.483  10.188   3.080  0.7026 -0.7144 -0.2059
 7132SOL     OW24672   5.184   1.721   9.439 -0.1211 -0.4714 -0.3835
 7132SOL    HW124673   5.103   1.710   9.488 -0.5838 -3.0181 -1.5488
 7132SOL    HW224674   5.156   1.728   9.347  0.8298  2.2146 -0.5484
 7133SOL     OW24675   1.060   5.917   0.582 -0.1679 -0.1431  0.4280
 7133SOL    HW124676   0.983   5.864   0.603 -0.7010  0.7750  0.8781
 7133SOL    HW224677   1.058   5.988   0.646  1.0196 -0.0532  0.3972
 7134SOL     OW24678  10.783   2.350   7.627  0.5834 -0.2521 -0.0884
 7134SOL    HW124679  10.728   2.274   7.608  2.0615 -1.1685 -0.9367
 7134SOL    HW224680  10.867   2.329   7.587  1.7598  0.8295  1.6823
 7135SOL     OW24681  11.053   4.846   5.916 -0.5612 -0.0155 -0.4427
 7135SOL    HW124682  10.966   4.844   5.956  0.0601 -1.8044  0.9500
 7135SOL    HW224683  11.094   4.764   5.943  1.0136  0.0708 -2.3523
 7136SOL     OW24684   0.497   1.269   7.043 -0.4820  0.0127  0.3916
 7136SOL    HW124685   0.409   1.232   7.042  0.7551 -3.3058  0.5214
 7136SOL    HW224686   0.528   1.255   7.133  0.8621 -0.9149 -0.1696
 7137SOL     OW24687   5.248   1.771   0.173 -0.1906 -0.0053 -0.1395
 7137SOL    HW124688   5.295   1.833   0.228  0.5151 -1.0341  0.4639
 7137SOL    HW224689   5.286   1.782   0.086  0.0808  0.2491  0.0097
 7138SOL     OW24690   1.692   5.148   1.137  0.3069  0.3609 -0.5195
 7138SOL    HW124691   1.619   5.106   1.183  0.4071 -0.3141 -0.9637
 7138SOL    HW224692   1.678   5.242   1.151  0.1475  0.1872  0.6017
 7139SOL     OW24693   8.574   7.597   0.506 -0.0676  0.2307  0.1168
 7139SOL    HW124694   8.514   7.591   0.431 -0.6190  1.8149  0.3911
 7139SOL    HW224695   8.577   7.508   0.541  1.1813 -0.8833 -2.5006
 7140SOL     OW24696   3.782   1.117  10.592 -0.0586 -0.3002 -0.7389
 7140SOL    HW124697   3.839   1.121  10.668 -0.7378 -0.0360 -0.2248
 7140SOL    HW224698   3.733   1.036  10.603 -1.4387  0.6014  0.0782
 7141SOL     OW24699   5.891   5.906   0.449 -0.3344 -0.7204  0.5958
 7141SOL    HW124700   5.971   5.896   0.398 -0.6990 -1.1585  0.1029
 7141SOL    HW224701   5.836   5.965   0.396 -1.9550 -3.5371 -1.0763
 7142SOL     OW24702   8.106   5.258   6.818  0.1317  0.5281 -0.4393
 7142SOL    HW124703   8.031   5.298   6.774  1.2981  2.6869 -0.6241
 7142SOL    HW224704   8.102   5.292   6.908  0.7647  0.5070 -0.3981
 7143SOL     OW24705   1.601   7.291  11.357  0.6948  0.2740 -0.4409
 7143SOL    HW124706   1.527   7.347  11.334 -0.3004 -0.4969  0.7392
 7143SOL    HW224707   1.636   7.262  11.272 -1.4505 -0.7256 -1.0678
 7144SOL     OW24708   4.996   6.687   0.968  0.2032 -0.3014 -0.1736
 7144SOL    HW124709   5.059   6.657   1.034  0.5601  0.4822 -0.1463
 7144SOL    HW224710   5.022   6.642   0.888  0.0643 -0.8868  0.1011
 7145SOL     OW24711  10.659   4.499   1.730 -0.2356  0.2095 -0.4607
 7145SOL    HW124712  10.692   4.496   1.819  0.4634 -0.6062 -0.7331
 7145SOL    HW224713  10.614   4.416   1.718  1.0444 -0.3854 -1.3613
 7146SOL     OW24714   8.602   9.904   2.116  0.5535  0.4021 -0.2084
 7146SOL    HW124715   8.530   9.859   2.072 -0.1148  1.1695  0.0735
 7146SOL    HW224716   8.648   9.834   2.163 -0.1713 -0.0629 -0.1671
 7147SOL     OW24717   8.761   9.422   7.930 -0.7952 -0.3509 -0.5867
 7147SOL    HW124718   8.704   9.351   7.963 -0.5621 -0.2153  0.1292
 7147SOL    HW224719   8.701   9.496   7.917 -0.9600 -0.5310 -0.8586
 7148SOL     OW24720   4.368   4.532   5.496  0.2336  0.2767  0.0225
 7148SOL    HW124721   4.391   4.453   5.447  0.7476  0.7003 -0.4301
 7148SOL    HW224722   4.272   4.532   5.498  0.2332 -0.7290  0.6441
 7149SOL     OW24723  10.633   3.367   1.631 -0.4080  0.0334 -0.3611
 7149SOL    HW124724  10.658   3.285   1.588 -0.4117 -0.9246  1.4031
 7149SOL    HW224725  10.544   3.350   1.663  0.6929 -0.4295  2.6923
 7150SOL     OW24726   0.408   7.903   7.981 -0.2286 -0.0932  0.4553
 7150SOL    HW124727   0.352   7.980   7.972 -1.0183 -0.7730 -0.7612
 7150SOL    HW224728   0.407   7.883   8.075 -0.1574  1.2480  0.7596
 7151SOL     OW24729   0.255   6.460   5.475 -0.5070  0.4769 -0.5310
 7151SOL    HW124730   0.200   6.388   5.444 -1.4522  0.7505  0.4524
 7151SOL    HW224731   0.219   6.538   5.433 -2.0008  0.8977  1.3628
 7152SOL     OW24732   1.436  10.232   8.713 -0.1751 -0.3297  0.4263
 7152SOL    HW124733   1.397  10.238   8.626  1.7257  0.6856 -0.4157
 7152SOL    HW224734   1.373  10.275   8.770 -2.1089 -2.2187 -0.1532
 7153SOL     OW24735   7.105   8.187   8.855 -0.0659  0.2995 -0.2344
 7153SOL    HW124736   7.072   8.272   8.827  0.1029  1.0795  1.7764
 7153SOL    HW224737   7.175   8.207   8.917 -0.0274 -1.3070  0.3038
 7154SOL     OW24738   4.962   7.460   0.547 -0.3182  0.2183  0.4688
 7154SOL    HW124739   5.044   7.478   0.594  0.0943  0.2237 -0.2377
 7154SOL    HW224740   4.912   7.404   0.607 -0.3212  1.2025  1.4228
 7155SOL     OW24741   0.338   4.183   7.539  0.0356  0.0870 -0.0999
 7155SOL    HW124742   0.362   4.248   7.605  0.8718  0.5682 -0.8555
 7155SOL    HW224743   0.293   4.114   7.589 -1.6845  1.6222  0.6063
 7156SOL     OW24744   6.786   8.884   1.088  0.2442  0.5793  0.1763
 7156SOL    HW124745   6.877   8.913   1.091  0.2326  0.5328  1.5842
 7156SOL    HW224746   6.742   8.950   1.034  1.5053 -0.6784 -2.5810
 7157SOL     OW24747   8.475   4.051  10.124 -0.5395 -0.1942  0.1723
 7157SOL    HW124748   8.399   3.997  10.103 -1.5090  2.1549 -3.1192
 7157SOL    HW224749   8.537   4.034  10.053 -0.2597  1.7896 -0.1138
 7158SOL     OW24750   8.514  10.727   9.142  0.4636  0.1379  0.0968
 7158SOL    HW124751   8.527  10.644   9.097  1.3151 -0.2869  1.1035
 7158SOL    HW224752   8.419  10.742   9.136  0.4001 -0.5151 -0.7455
 7159SOL     OW24753   7.935   9.467   0.726 -0.9314  0.1202  0.3139
 7159SOL    HW124754   8.023   9.504   0.737 -0.0696 -1.7478 -0.0118
 7159SOL    HW224755   7.911   9.436   0.813 -2.3562  2.7314  0.9849
 7160SOL     OW24756  10.806   6.567   4.013 -0.3982  1.0093  0.7801
 7160SOL    HW124757  10.769   6.630   3.951 -0.4686  0.0262 -0.2025
 7160SOL    HW224758  10.897   6.595   4.023  0.3308 -0.1529 -1.6571
 7161SOL     OW24759   7.967   8.861  11.048  0.0899  0.0902 -0.3146
 7161SOL    HW124760   7.980   8.781  11.098 -2.2866 -0.3749 -0.3668
 7161SOL    HW224761   7.881   8.893  11.075  0.0677  1.4741 -1.8711
 7162SOL     OW24762   7.544   7.938  11.029  0.0345  0.4231 -0.1013
 7162SOL    HW124763   7.528   7.852  11.067 -0.1699 -0.4171 -2.0016
 7162SOL    HW224764   7.580   7.920  10.942  0.5044  2.2633 -0.3350
 7163SOL     OW24765   0.264   5.149   7.657  0.6249 -0.0337 -0.6368
 7163SOL    HW124766   0.220   5.112   7.581 -0.9657  0.4504  0.0109
 7163SOL    HW224767   0.252   5.243   7.649 -0.1653 -0.0055  0.5294
 7164SOL     OW24768   8.645  10.041   6.392 -0.1503 -0.9043 -0.5331
 7164SOL    HW124769   8.732  10.001   6.384  0.8702  1.0721  0.1189
 7164SOL    HW224770   8.603   9.993   6.463  1.6308  0.1234  1.3031
 7165SOL     OW24771   2.013   5.389   0.227 -0.0284 -0.4808  0.2546
 7165SOL    HW124772   1.990   5.359   0.315 -0.1237 -3.5913 -0.6881
 7165SOL    HW224773   1.929   5.395   0.181  0.0535  0.7134  0.2419
 7166SOL     OW24774   1.703   8.980   1.549 -0.2877  0.0849  0.3636
 7166SOL    HW124775   1.788   8.939   1.558 -0.3662  0.3436  3.0699
 7166SOL    HW224776   1.719   9.073   1.564 -0.8775  0.3355 -0.4432
 7167SOL     OW24777   2.736   5.592   7.523  0.1677 -0.2456 -0.0066
 7167SOL    HW124778   2.771   5.503   7.513 -0.0901 -0.3622  0.1175
 7167SOL    HW224779   2.797   5.647   7.475 -0.9807 -0.7621 -2.1989
 7168SOL     OW24780   2.017   9.879   8.258  0.3874  0.2255 -0.0335
 7168SOL    HW124781   1.951   9.935   8.298  0.2901 -0.2321  0.4651
 7168SOL    HW224782   1.987   9.865   8.169  0.8799  1.6992 -0.4556
 7169SOL     OW24783   5.593   7.942   0.730  0.3102  0.0610 -0.1217
 7169SOL    HW124784   5.661   7.933   0.664  1.6162  0.4711  1.1181
 7169SOL    HW224785   5.512   7.919   0.684  1.3602 -1.2671 -1.4201
 7170SOL     OW24786   1.323   1.946   1.959 -0.1827  0.3099  0.1917
 7170SOL    HW124787   1.236   1.985   1.953 -0.2959 -0.1031 -2.4579
 7170SOL    HW224788   1.308   1.858   1.992 -1.0530 -0.2730 -1.5933
 7171SOL     OW24789   0.414   5.673  11.117 -0.6089  0.0414  0.1961
 7171SOL    HW124790   0.394   5.765  11.103 -1.4791 -0.2022 -0.2079
 7171SOL    HW224791   0.334   5.626  11.092  0.2751 -0.9196 -0.9240
 7172SOL     OW24792   5.222   3.081   9.538  0.3980 -0.3159  0.3812
 7172SOL    HW124793   5.273   3.143   9.591  2.4435 -2.9000  1.6510
 7172SOL    HW224794   5.219   3.122   9.452  0.6145  2.0889  1.4204
 7173SOL     OW24795   7.291  10.611   9.614  0.3721  0.1159 -0.0020
 7173SOL    HW124796   7.277  10.541   9.550 -1.0421  0.8762 -0.5639
 7173SOL    HW224797   7.275  10.569   9.699 -2.1998  0.1040 -0.4232
 7174SOL     OW24798   9.275   5.247   6.765  0.2239  0.2167  0.1620
 7174SOL    HW124799   9.270   5.178   6.831 -0.9772  0.4856  0.3814
 7174SOL    HW224800   9.332   5.211   6.697 -1.0882 -1.3772 -0.1590
 7175SOL     OW24801   0.636   4.082   6.640 -0.6738  0.3940  0.2938
 7175SOL    HW124802   0.630   4.082   6.736 -1.7435  0.0251  0.2365
 7175SOL    HW224803   0.561   4.031   6.611  1.5538 -2.6176 -0.6442
 7176SOL     OW24804   3.952  11.069   9.627  0.1281 -0.1658 -0.4052
 7176SOL    HW124805   3.870  11.056   9.580  0.4345  1.2703 -1.3945
 7176SOL    HW224806   4.020  11.040   9.566  0.3692 -3.1587  1.0779
 7177SOL     OW24807   5.361   2.527   6.702  0.3510  0.3270 -0.2042
 7177SOL    HW124808   5.317   2.454   6.658 -1.6956  0.6201  1.2256
 7177SOL    HW224809   5.329   2.605   6.657  0.7274  0.4774 -0.2197
 7178SOL     OW24810   5.319   8.580   6.019  0.1832  0.0883  0.4448
 7178SOL    HW124811   5.245   8.631   6.055  1.2265  1.1452  1.1857
 7178SOL    HW224812   5.384   8.647   5.996  0.7819 -0.8054 -0.5209
 7179SOL     OW24813   3.090   4.509   0.401  0.1281 -0.3086 -0.1717
 7179SOL    HW124814   3.135   4.550   0.328  1.7836  0.4376  1.1856
 7179SOL    HW224815   3.054   4.427   0.365 -0.7087  0.8885 -2.2096
 7180SOL     OW24816   8.929   4.935   4.318  0.5087  0.0840 -0.0450
 7180SOL    HW124817   8.869   4.862   4.302  1.1347 -0.1648 -1.3754
 7180SOL    HW224818   8.953   4.927   4.410 -3.3858  1.6376  1.3213
 7181SOL     OW24819   8.811   6.157   3.999  0.0233 -0.3007 -0.7897
 7181SOL    HW124820   8.864   6.235   4.017 -1.7392  1.1325 -1.4885
 7181SOL    HW224821   8.874   6.089   3.975  1.6625  0.6844  0.5410
 7182SOL     OW24822  11.219   1.097   3.834 -0.1068 -0.4422  0.2319
 7182SOL    HW124823  11.137   1.141   3.813 -0.1804 -0.6638  0.0561
 7182SOL    HW224824  11.193   1.025   3.892  0.0185 -0.2344  0.5501
 7183SOL     OW24825   1.154   8.884   8.288  0.3080  0.1370  0.4434
 7183SOL    HW124826   1.191   8.877   8.376  2.3130  3.0208 -0.0482
 7183SOL    HW224827   1.102   8.964   8.290 -0.9474 -0.6016 -0.6334
 7184SOL     OW24828   0.575   7.917   3.343 -0.0971 -0.4576  0.0192
 7184SOL    HW124829   0.568   7.853   3.414  1.0362 -0.3944  0.2084
 7184SOL    HW224830   0.668   7.918   3.321 -0.3937 -0.3021 -1.3112
 7185SOL     OW24831   0.276  11.356   1.677 -0.2110 -0.3395 -0.0195
 7185SOL    HW124832   0.212  11.360   1.605 -0.4360 -0.2793  0.1819
 7185SOL    HW224833   0.345  11.298   1.644  1.3583  2.2043 -1.5773
 7186SOL     OW24834   4.052   1.503   5.009 -0.5821  0.2787 -0.0788
 7186SOL    HW124835   4.016   1.414   5.013 -0.4529  0.1247 -1.7948
 7186SOL    HW224836   4.120   1.504   5.076 -0.5297 -0.9374 -0.0850
 7187SOL     OW24837   4.651   5.162   9.553  0.1374 -0.6498 -0.8682
 7187SOL    HW124838   4.672   5.164   9.460 -1.4869 -2.2995 -1.3433
 7187SOL    HW224839   4.569   5.211   9.560  0.3575 -0.3618 -0.2796
 7188SOL     OW24840   0.308   4.443   8.098  0.1978 -0.4066  0.0012
 7188SOL    HW124841   0.396   4.406   8.106 -0.4469 -2.1254 -0.3907
 7188SOL    HW224842   0.251   4.382   8.145 -0.8258  0.5778  0.1001
 7189SOL     OW24843   6.709  10.666   5.918 -0.2459 -0.5249 -0.0664
 7189SOL    HW124844   6.625  10.637   5.954 -1.5427  0.1332 -2.3330
 7189SOL    HW224845   6.712  10.626   5.830  0.6879  1.3648 -0.9445
 7190SOL     OW24846   9.346   0.908   8.880 -0.3222  0.6712  0.0843
 7190SOL    HW124847   9.375   0.819   8.863  0.7839  1.1560 -0.6697
 7190SOL    HW224848   9.323   0.909   8.973  2.0012  0.1959  0.7315
 7191SOL     OW24849   4.180   2.316   4.615  0.2546  0.1277 -0.1799
 7191SOL    HW124850   4.255   2.350   4.567  1.3087 -0.3953  1.0588
 7191SOL    HW224851   4.194   2.221   4.619 -1.0956 -0.1361 -0.9620
 7192SOL     OW24852   4.974   5.581   5.625  0.3941  0.4182 -0.5125
 7192SOL    HW124853   4.951   5.642   5.555 -1.5107  0.5063  0.1233
 7192SOL    HW224854   4.904   5.591   5.690  1.3695 -0.6433  0.7802
 7193SOL     OW24855   4.041   0.530   3.102 -0.6238 -0.2779 -0.0221
 7193SOL    HW124856   4.031   0.604   3.161 -1.5521 -0.2713 -0.1748
 7193SOL    HW224857   3.959   0.481   3.110 -1.1485  0.1769 -1.9117
 7194SOL     OW24858   4.047   5.446   3.339 -0.2996  0.5506 -0.3733
 7194SOL    HW124859   4.141   5.432   3.332  0.1229  2.7049  0.2255
 7194SOL    HW224860   4.025   5.499   3.262 -0.9012  0.5228 -0.2247
 7195SOL     OW24861   8.863   2.321   3.653  0.0158  0.1702  0.3669
 7195SOL    HW124862   8.834   2.411   3.666 -0.5569  0.2705 -1.3474
 7195SOL    HW224863   8.926   2.305   3.723  1.5796  2.5338 -0.4266
 7196SOL     OW24864  11.032   3.075   8.946  0.1801  0.2086 -0.0693
 7196SOL    HW124865  11.001   3.148   8.892  1.4903  0.9643  0.1252
 7196SOL    HW224866  11.078   3.017   8.885 -0.2374 -0.0763 -0.1114
 7197SOL     OW24867   1.907   8.609   6.359 -0.0156  0.0328  0.4818
 7197SOL    HW124868   1.856   8.528   6.355  0.2837 -0.1386  0.0429
 7197SOL    HW224869   1.846   8.674   6.394  0.0233 -0.5938  1.7822
 7198SOL     OW24870   3.646   9.623   2.457 -0.2530 -0.4593 -0.2621
 7198SOL    HW124871   3.564   9.652   2.497 -0.3391 -1.0929  0.0434
 7198SOL    HW224872   3.621   9.594   2.369 -0.2389 -0.0248 -0.4122
 7199SOL     OW24873  11.049  10.599   6.678  0.2715  0.6131 -0.0629
 7199SOL    HW124874  11.050  10.602   6.774  0.0926  0.5206 -0.0587
 7199SOL    HW224875  11.085  10.513   6.656 -0.0143  0.4928 -0.0695
 7200SOL     OW24876   4.449   1.934  10.468 -0.6724 -0.0368 -0.3755
 7200SOL    HW124877   4.423   1.986  10.544 -1.5789 -0.0513 -0.6676
 7200SOL    HW224878   4.370   1.885  10.444  0.0438 -1.2493 -0.3556
 7201SOL     OW24879   8.613   6.152   2.806 -0.5004  0.4237  0.0547
 7201SOL    HW124880   8.577   6.194   2.728 -0.5520 -0.1618 -0.2466
 7201SOL    HW224881   8.675   6.087   2.772 -0.5827  0.1054  0.5011
 7202SOL     OW24882   6.124   8.676   6.029 -0.6559 -0.7544  0.2495
 7202SOL    HW124883   6.052   8.736   6.009  0.4599  0.4150 -0.4904
 7202SOL    HW224884   6.181   8.727   6.087 -0.5760 -1.7778  1.0945
 7203SOL     OW24885   0.990   2.845   8.439  0.5444 -0.4267  0.2272
 7203SOL    HW124886   1.040   2.784   8.385 -1.2103 -0.0282 -2.0344
 7203SOL    HW224887   0.982   2.924   8.384 -0.9904  0.1574  1.2231
 7204SOL     OW24888   1.454   3.063   3.406 -0.7330 -0.1491  0.0711
 7204SOL    HW124889   1.517   3.040   3.338 -0.8430  2.2960 -0.9551
 7204SOL    HW224890   1.369   3.042   3.369 -0.8342  1.7238 -0.8655
 7205SOL     OW24891   9.202   8.425   8.528  0.8837 -0.0095  0.0461
 7205SOL    HW124892   9.114   8.417   8.490 -0.5514 -0.8373  3.1601
 7205SOL    HW224893   9.253   8.472   8.462 -2.2539  1.7037 -1.3870
 7206SOL     OW24894   9.529   6.184   6.437  0.5842  0.2439 -0.0864
 7206SOL    HW124895   9.486   6.189   6.523 -0.9803 -0.0056 -0.8102
 7206SOL    HW224896   9.588   6.109   6.445 -1.4555 -1.4660  0.0214
 7207SOL     OW24897   3.413   3.256  10.051 -0.1181  0.0172  0.1865
 7207SOL    HW124898   3.466   3.205  10.111  0.8098  0.7911  0.0562
 7207SOL    HW224899   3.466   3.334  10.032 -1.3627  0.8962  0.1671
 7208SOL     OW24900   2.860   7.115   7.177  0.2026 -0.0743  0.1495
 7208SOL    HW124901   2.920   7.110   7.103 -0.2313  1.0522 -0.2993
 7208SOL    HW224902   2.902   7.063   7.246  0.6240 -1.1265 -0.8626
 7209SOL     OW24903   2.354   8.965   7.640 -0.4511 -0.2231  0.2807
 7209SOL    HW124904   2.361   8.874   7.669  0.9070  0.4023  2.0990
 7209SOL    HW224905   2.411   9.013   7.699 -1.3086  1.8627 -0.5002
 7210SOL     OW24906   3.681   5.230   0.150  0.0074  0.3526 -0.1088
 7210SOL    HW124907   3.589   5.252   0.136  0.1540  1.0503 -0.0433
 7210SOL    HW224908   3.682   5.180   0.232 -0.4427 -0.6892 -0.7294
 7211SOL     OW24909   4.224   0.662   3.703  0.0635  0.0318  0.1796
 7211SOL    HW124910   4.199   0.651   3.611  0.3957 -2.1810  0.2848
 7211SOL    HW224911   4.303   0.717   3.700  0.1209 -0.0901 -0.8713
 7212SOL     OW24912   1.072   7.083   1.662 -0.0475 -0.4858  0.0464
 7212SOL    HW124913   1.072   7.060   1.569 -1.9270  0.3000 -0.1995
 7212SOL    HW224914   1.095   7.001   1.707  0.2618 -1.0352 -1.0666
 7213SOL     OW24915   3.655   3.224   4.007  0.0039 -0.3484 -0.2038
 7213SOL    HW124916   3.706   3.291   4.053 -2.8438  2.1099 -0.2848
 7213SOL    HW224917   3.703   3.211   3.925  1.2391  0.8177  0.2866
 7214SOL     OW24918   4.440   5.716   9.902  0.4659  0.2571  0.7892
 7214SOL    HW124919   4.369   5.652   9.906 -1.0668  1.8595  0.8754
 7214SOL    HW224920   4.469   5.714   9.811  1.3883 -1.4745  1.0827
 7215SOL     OW24921  11.301   6.203   3.177 -0.5172  0.2188 -0.6497
 7215SOL    HW124922  11.234   6.271   3.171 -0.9133  0.0275  1.0910
 7215SOL    HW224923  11.362   6.235   3.243 -1.2323 -1.4981  0.9373
 7216SOL     OW24924   8.013   7.594   0.444 -0.4362 -0.3502 -0.2098
 7216SOL    HW124925   7.923   7.623   0.429 -1.2721 -2.7520 -0.3485
 7216SOL    HW224926   8.034   7.626   0.531 -1.6000 -0.1166  0.0065
 7217SOL     OW24927   1.961   4.416   7.432 -0.3711  0.0088 -0.3229
 7217SOL    HW124928   2.027   4.474   7.394 -0.5496  1.0347  0.8978
 7217SOL    HW224929   1.968   4.429   7.526 -1.3993 -0.8986 -0.0996
 7218SOL     OW24930   8.526   8.022   3.942 -0.0739 -0.0613  0.8079
 7218SOL    HW124931   8.551   8.104   3.900 -0.6247 -0.1684  0.2518
 7218SOL    HW224932   8.474   8.049   4.018  0.1504  0.1135  0.8996
 7219SOL     OW24933   9.481   4.281   4.735 -0.6629 -0.5076  0.7929
 7219SOL    HW124934   9.445   4.193   4.726  0.3777 -0.8242 -0.7844
 7219SOL    HW224935   9.543   4.289   4.662 -1.1941  1.7675  0.5092
 7220SOL     OW24936   4.827   5.956   8.381 -0.4837 -0.1377  0.5387
 7220SOL    HW124937   4.839   6.022   8.448 -1.5096  0.1657  0.4334
 7220SOL    HW224938   4.763   5.993   8.321 -1.4618 -1.4173  0.7452
 7221SOL     OW24939   1.472   4.213   9.258  0.1910 -0.5308  0.3272
 7221SOL    HW124940   1.437   4.206   9.347 -0.5844 -0.5754  0.0317
 7221SOL    HW224941   1.440   4.297   9.226 -1.2608 -1.3824 -0.6045
 7222SOL     OW24942   9.196  10.493  10.431  0.4749 -0.3133  0.0657
 7222SOL    HW124943   9.184  10.403  10.402  2.6462 -0.4050 -0.7237
 7222SOL    HW224944   9.109  10.533  10.424 -0.0683 -1.7137 -1.8265
 7223SOL     OW24945   7.412   8.587   9.210 -0.0070  0.2435 -0.4771
 7223SOL    HW124946   7.339   8.601   9.270  1.0231  0.6321  0.7336
 7223SOL    HW224947   7.457   8.510   9.244  1.3844  1.2661  0.0917
 7224SOL     OW24948   0.931   6.583   3.956  0.2985 -0.1833  0.1610
 7224SOL    HW124949   0.927   6.519   3.885 -2.1687 -0.1472  0.1864
 7224SOL    HW224950   1.002   6.642   3.931 -0.3335 -0.3144 -2.1777
 7225SOL     OW24951   1.194   1.269   6.692  0.0489 -0.0818 -0.3007
 7225SOL    HW124952   1.106   1.305   6.705  0.0867 -0.8503  3.1358
 7225SOL    HW224953   1.252   1.345   6.696 -0.3579  0.4072 -2.4103
 7226SOL     OW24954  10.197   8.647   2.549  0.0984 -0.6481  0.0922
 7226SOL    HW124955  10.244   8.565   2.533  0.9918  0.0064 -0.8146
 7226SOL    HW224956  10.193   8.689   2.463 -1.5969 -0.3728  0.2711
 7227SOL     OW24957   4.968   5.309   3.209 -0.4469  0.5094  0.1011
 7227SOL    HW124958   4.922   5.348   3.283 -1.1136  0.0516 -0.0719
 7227SOL    HW224959   5.002   5.384   3.160 -1.2689  0.8609  0.0591
 7228SOL     OW24960   2.611   3.315   6.242  0.5456 -0.4656 -0.4540
 7228SOL    HW124961   2.657   3.398   6.239 -1.1364  0.5208 -0.1633
 7228SOL    HW224962   2.641   3.268   6.164  0.2357  1.1468 -1.6000
 7229SOL     OW24963   6.349   4.894   1.097 -0.5856  0.0793  0.5670
 7229SOL    HW124964   6.397   4.952   1.155 -1.7579  1.4555  0.2045
 7229SOL    HW224965   6.360   4.807   1.135  1.2771  0.5029  1.0639
 7230SOL     OW24966   7.586   5.082   1.297  0.2867  0.5082  0.0280
 7230SOL    HW124967   7.491   5.069   1.304 -0.0074  1.8883 -0.9381
 7230SOL    HW224968   7.600   5.173   1.324  1.4231  0.1560  0.6987
 7231SOL     OW24969   7.456   6.749   2.666 -0.2002 -0.1071 -0.3378
 7231SOL    HW124970   7.386   6.749   2.602 -1.6882 -2.7339  1.1287
 7231SOL    HW224971   7.481   6.657   2.675  3.3705  0.6844 -0.6496
 7232SOL     OW24972   7.111   4.141   5.317  0.2309 -0.3736  0.3609
 7232SOL    HW124973   7.117   4.218   5.373 -0.5579  1.6080 -2.1177
 7232SOL    HW224974   7.050   4.083   5.363 -0.2761  1.0758  1.5926
 7233SOL     OW24975   2.329   0.842   3.415  0.4237  0.2185 -0.1205
 7233SOL    HW124976   2.394   0.815   3.480 -0.3615  0.0050  0.5844
 7233SOL    HW224977   2.368   0.918   3.372  0.7826  0.6123  0.8796
 7234SOL     OW24978   9.905   3.452   4.600  0.1170 -0.4878  0.1663
 7234SOL    HW124979   9.904   3.525   4.538  1.8788 -0.2492  0.3651
 7234SOL    HW224980   9.856   3.382   4.557  0.1400  0.1337 -0.8937
 7235SOL     OW24981   1.750   0.289  11.065  0.1697 -0.1393 -0.2384
 7235SOL    HW124982   1.715   0.292  11.154  0.6177 -1.8613  0.0437
 7235SOL    HW224983   1.814   0.359  11.062 -1.0225  1.0169  0.2423
 7236SOL     OW24984   3.326   3.331   3.164  0.3988  0.4989 -0.4245
 7236SOL    HW124985   3.396   3.320   3.228 -0.2458 -0.8678  0.0959
 7236SOL    HW224986   3.369   3.367   3.087  1.4760  0.6801  0.2411
 7237SOL     OW24987   2.495   4.181   0.374  0.1343  0.0691 -0.5774
 7237SOL    HW124988   2.432   4.144   0.312  2.3513  0.4452 -3.2182
 7237SOL    HW224989   2.481   4.131   0.455 -2.5659 -0.7520 -1.4418
 7238SOL     OW24990   2.617  11.176   0.016  1.2123 -0.5253  0.3878
 7238SOL    HW124991   2.655  11.253  -0.025  1.5151 -0.9777 -0.1970
 7238SOL    HW224992   2.592  11.205   0.104 -0.5822  0.8028 -0.5030
 7239SOL     OW24993   3.891   3.374  10.775 -0.3771 -0.1697  0.3649
 7239SOL    HW124994   3.966   3.376  10.835 -0.0141  4.5908  0.0788
 7239SOL    HW224995   3.840   3.452  10.797 -1.9411  0.1084 -3.4672
 7240SOL     OW24996   2.189   1.531   6.218  0.0417  0.3847 -0.7069
 7240SOL    HW124997   2.168   1.438   6.211  0.4567  0.2322 -0.0733
 7240SOL    HW224998   2.281   1.536   6.194 -0.2167  0.7683 -1.6280
 7241SOL     OW24999   9.285   4.036   5.849 -0.0625  0.1865 -0.8425
 7241SOL    HW125000   9.328   4.072   5.771  1.1832  0.6393  0.0315
 7241SOL    HW225001   9.262   3.946   5.824 -0.9564  0.7496 -2.1932
 7242SOL     OW25002   3.071   5.315   2.830 -0.2921 -0.1605  0.0199
 7242SOL    HW125003   3.066   5.225   2.863 -0.5092 -0.1714 -0.0428
 7242SOL    HW225004   2.984   5.352   2.847  0.2949  0.5856  1.6050
 7243SOL     OW25005   1.380   4.444   1.750  0.1777 -0.0801 -0.0614
 7243SOL    HW125006   1.324   4.452   1.673 -1.0151 -0.6075  0.7253
 7243SOL    HW225007   1.452   4.505   1.734 -0.7943  0.8702 -0.9461
 7244SOL     OW25008   1.147   3.644   3.236  0.2343 -0.0584  0.5026
 7244SOL    HW125009   1.079   3.596   3.282 -1.6103 -1.1863 -3.0749
 7244SOL    HW225010   1.207   3.577   3.205 -0.3362  0.2604 -1.3997
 7245SOL     OW25011   0.875   1.314   3.910 -0.0617  0.0525  0.4360
 7245SOL    HW125012   0.893   1.233   3.863  2.1888  0.6478  0.1528
 7245SOL    HW225013   0.932   1.311   3.987 -0.9081  0.7990  1.1229
 7246SOL     OW25014   4.714   5.738   0.493  0.3744 -0.0373  0.5597
 7246SOL    HW125015   4.678   5.709   0.577 -1.8646 -1.0889 -0.6594
 7246SOL    HW225016   4.653   5.805   0.462  1.4689  0.7279 -0.0010
 7247SOL     OW25017   4.306   5.806  11.100 -0.9556  0.8361 -0.2362
 7247SOL    HW125018   4.270   5.767  11.180 -1.0216  1.3306 -0.0213
 7247SOL    HW225019   4.399   5.816  11.118 -0.9971  1.0904 -0.1611
 7248SOL     OW25020   3.551   8.088   5.695 -0.5202  0.7792 -0.3178
 7248SOL    HW125021   3.573   8.000   5.665  0.3083  1.4924 -1.9473
 7248SOL    HW225022   3.471   8.077   5.746 -0.3852 -0.9143 -0.4108
 7249SOL     OW25023   0.558   0.685   4.654 -0.2157  0.3687 -0.0869
 7249SOL    HW125024   0.530   0.771   4.683  0.1791  1.1059 -1.7823
 7249SOL    HW225025   0.517   0.673   4.569  0.0624 -0.9549 -0.0640
 7250SOL     OW25026   7.160   8.222   5.432 -0.1421  0.1630 -1.5497
 7250SOL    HW125027   7.154   8.144   5.487  0.3143  1.3117  0.2027
 7250SOL    HW225028   7.213   8.195   5.357  0.7000 -0.9889 -0.5654
 7251SOL     OW25029   1.123   2.689   9.642 -0.3254  0.2702  0.0146
 7251SOL    HW125030   1.214   2.662   9.625  0.0574  0.4440  1.6856
 7251SOL    HW225031   1.124   2.784   9.627  0.3119  0.6272  2.0860
 7252SOL     OW25032   7.890   9.312   8.946  0.0488 -0.1313  0.2444
 7252SOL    HW125033   7.859   9.318   8.856  1.1949  2.6179 -0.0693
 7252SOL    HW225034   7.940   9.231   8.949  1.8562  0.7658 -2.2682
 7253SOL     OW25035   3.751   7.217   0.318  0.0375  0.2761  0.5132
 7253SOL    HW125036   3.754   7.281   0.389  1.7349  0.2863  0.4627
 7253SOL    HW225037   3.736   7.270   0.240  0.1212  0.4703  0.6284
 7254SOL     OW25038   0.030   9.841   3.497 -0.0154 -0.1412 -0.0515
 7254SOL    HW125039   0.018   9.841   3.402 -0.4727  0.8846 -0.0026
 7254SOL    HW225040  -0.028   9.771   3.527 -0.0830 -0.2878 -0.5064
 7255SOL     OW25041   6.988   6.159   6.943  0.9013 -0.4762  0.2568
 7255SOL    HW125042   7.071   6.202   6.922  0.5400  1.0225  1.6482
 7255SOL    HW225043   6.975   6.175   7.036 -0.4502 -1.5980  0.3065
 7256SOL     OW25044  10.962   9.421   8.302  0.1955 -0.2799  0.3188
 7256SOL    HW125045  10.956   9.514   8.322 -1.9354 -0.5482  1.2855
 7256SOL    HW225046  11.039   9.413   8.246 -0.1798  2.2012 -0.6742
 7257SOL     OW25047   3.750   6.733   1.188  0.4911 -0.1570 -0.0959
 7257SOL    HW125048   3.743   6.796   1.117  0.5462 -0.4608 -0.3741
 7257SOL    HW225049   3.736   6.784   1.268 -4.0472 -0.4224 -0.4525
 7258SOL     OW25050   2.282   8.900   8.888 -0.3664  0.3912 -0.0810
 7258SOL    HW125051   2.208   8.922   8.831 -3.1480 -1.2460  2.5459
 7258SOL    HW225052   2.269   8.955   8.965  0.5433 -0.6614  0.8568
 7259SOL     OW25053   0.466   9.856   6.560  0.2892 -0.3377 -0.3247
 7259SOL    HW125054   0.381   9.812   6.559  0.5149 -0.8599  1.0999
 7259SOL    HW225055   0.530   9.785   6.554  0.6494 -0.1885  1.4443
 7260SOL     OW25056   6.319   2.124   0.559 -0.4104  0.2212  0.0720
 7260SOL    HW125057   6.297   2.207   0.603  0.0224  1.1423 -1.3758
 7260SOL    HW225058   6.342   2.150   0.470  0.8692 -1.3407 -0.0956
 7261SOL     OW25059   0.038   2.598   9.075 -0.0400  0.0062  0.2878
 7261SOL    HW125060  -0.018   2.664   9.034 -2.7404 -1.7319  0.8942
 7261SOL    HW225061   0.126   2.635   9.072 -0.9677  2.3001 -2.0492
 7262SOL     OW25062  10.800  10.677   0.730  0.3991  0.0653 -0.0302
 7262SOL    HW125063  10.774  10.667   0.638 -0.7331 -0.3193  0.3214
 7262SOL    HW225064  10.734  10.629   0.779  1.0837  0.1394  0.9859
 7263SOL     OW25065   0.120   8.508   9.478 -0.2938  0.1914 -0.5222
 7263SOL    HW125066   0.205   8.551   9.474 -0.5421  0.6882 -0.4964
 7263SOL    HW225067   0.120   8.449   9.403 -0.0514  0.4197 -0.7039
 7264SOL     OW25068   1.457   3.177   0.191  0.6341 -0.3794  0.0753
 7264SOL    HW125069   1.442   3.226   0.271  1.5796  0.6647 -0.3689
 7264SOL    HW225070   1.498   3.239   0.131 -1.3726 -0.7062 -1.7542
 7265SOL     OW25071   8.435   3.673   2.176  0.2794  0.7380  0.0969
 7265SOL    HW125072   8.530   3.683   2.179  0.0922  3.0394  0.3035
 7265SOL    HW225073   8.413   3.679   2.083  0.4532 -2.0807 -0.2155
 7266SOL     OW25074   5.853   8.246   3.789 -0.5000  0.6721  0.3360
 7266SOL    HW125075   5.873   8.261   3.881  1.3463  0.6025 -0.0193
 7266SOL    HW225076   5.813   8.328   3.760 -0.9223  0.7618  1.1293
 7267SOL     OW25077   0.477   3.613   9.967  0.7020 -0.3258  0.6661
 7267SOL    HW125078   0.455   3.686  10.025  2.3663  1.9459 -1.3843
 7267SOL    HW225079   0.563   3.585   9.996  2.4634  2.1410 -1.7122
 7268SOL     OW25080  10.753   9.765   6.669 -0.6209 -0.1428 -0.8611
 7268SOL    HW125081  10.791   9.681   6.641  0.0386 -0.4664  0.8891
 7268SOL    HW225082  10.786   9.778   6.758 -1.6187  1.4406 -0.6835
 7269SOL     OW25083   1.108   8.839   4.420 -0.0165  0.2263 -0.3624
 7269SOL    HW125084   1.049   8.793   4.361 -0.2626  1.9848 -1.5717
 7269SOL    HW225085   1.195   8.807   4.398 -0.1715  0.4001 -1.2551
 7270SOL     OW25086   7.966   9.162   6.113  0.1835 -0.4456  0.3508
 7270SOL    HW125087   7.926   9.077   6.095 -2.5436  1.1756 -2.1203
 7270SOL    HW225088   7.994   9.194   6.028 -3.8737  3.2918  0.0683
 7271SOL     OW25089   2.020  11.059   3.641  0.3217  0.4195  0.1183
 7271SOL    HW125090   1.925  11.066   3.641 -0.0967 -3.4008  0.1565
 7271SOL    HW225091   2.044  11.048   3.549  0.4833 -0.4940  0.2591
 7272SOL     OW25092   2.686  11.203  10.963 -0.4549 -0.0204 -0.0028
 7272SOL    HW125093   2.620  11.215  11.031 -1.7456  1.1615 -1.3950
 7272SOL    HW225094   2.681  11.109  10.941 -0.9139 -0.1518  0.6436
 7273SOL     OW25095   1.329   2.176   3.814  0.1383  1.0835  0.4111
 7273SOL    HW125096   1.267   2.146   3.880  0.0575  1.5893  0.5668
 7273SOL    HW225097   1.334   2.104   3.751  1.0130  0.1613  1.5054
 7274SOL     OW25098   0.340   9.546  11.034 -0.2550 -0.4595  0.2541
 7274SOL    HW125099   0.270   9.611  11.037 -1.2385 -1.5405  2.2053
 7274SOL    HW225100   0.350   9.527  10.940  0.9528  3.3209 -0.5671
 7275SOL     OW25101   9.139   5.369  10.654  0.1562  0.1007  0.6457
 7275SOL    HW125102   9.184   5.287  10.669  0.7736  0.4218  0.5749
 7275SOL    HW225103   9.073   5.374  10.724  0.2673 -0.3431  0.7787
 7276SOL     OW25104   5.756   8.527   8.249  0.2234  0.3219 -0.1314
 7276SOL    HW125105   5.735   8.517   8.156  0.7764 -0.4062 -0.1912
 7276SOL    HW225106   5.673   8.514   8.294 -0.1347  1.1111 -0.5438
 7277SOL     OW25107   5.212  11.330   1.414  0.1344 -0.1407  0.1135
 7277SOL    HW125108   5.255  11.413   1.392 -0.1018  0.2908  1.1994
 7277SOL    HW225109   5.284  11.275   1.446  0.4726 -0.7596 -1.6438
 7278SOL     OW25110   3.300   7.545   3.616  0.0479  0.0028  0.4436
 7278SOL    HW125111   3.246   7.614   3.655 -1.3373 -0.2177 -0.9717
 7278SOL    HW225112   3.243   7.468   3.616  1.4862 -1.1080  1.7664
 7279SOL     OW25113   0.401   7.423   7.610 -0.1492  0.1219 -0.1529
 7279SOL    HW125114   0.427   7.432   7.702  1.6067 -1.0834 -0.4752
 7279SOL    HW225115   0.434   7.502   7.568 -1.5468  1.0025  0.3289
 7280SOL     OW25116  10.441   4.431   4.297 -0.0858  0.5103 -0.1604
 7280SOL    HW125117  10.444   4.349   4.249 -0.9763 -2.1839  3.8640
 7280SOL    HW225118  10.370   4.481   4.256 -0.4066 -1.2839 -1.9048
 7281SOL     OW25119   7.155   6.574  11.017 -0.3319 -0.3859 -0.1309
 7281SOL    HW125120   7.250   6.580  11.029 -0.4968  0.4840  0.8658
 7281SOL    HW225121   7.133   6.484  11.040  0.4423 -1.1016 -1.9753
 7282SOL     OW25122   7.089   9.962   6.156  0.0191 -0.2135 -0.1804
 7282SOL    HW125123   7.087   9.964   6.061 -1.8214 -0.6523 -0.1909
 7282SOL    HW225124   7.049   9.878   6.179 -1.1255  0.6131  0.9810
 7283SOL     OW25125   3.779   2.776  10.423  0.2570 -0.2003  0.6811
 7283SOL    HW125126   3.705   2.732  10.463  0.5091  0.0586  1.4444
 7283SOL    HW225127   3.817   2.828  10.493  0.6704  0.3103  0.0911
 7284SOL     OW25128   9.859   4.639   2.445 -0.0575  0.6002 -0.0242
 7284SOL    HW125129   9.839   4.546   2.435  0.6589  0.5288 -0.8584
 7284SOL    HW225130   9.828   4.679   2.364  0.7857  0.8850 -0.2082
 7285SOL     OW25131   3.985   3.126   0.730  0.5137  0.6418  0.0607
 7285SOL    HW125132   3.989   3.037   0.697  1.2202  0.5179  0.4593
 7285SOL    HW225133   3.954   3.117   0.820  1.5980  0.6884  0.4584
 7286SOL     OW25134   6.517   8.435   6.341  0.0640  0.2330 -0.1588
 7286SOL    HW125135   6.431   8.435   6.299 -0.1494 -0.4104  0.2773
 7286SOL    HW225136   6.578   8.448   6.268 -0.3842  0.5305 -0.4916
 7287SOL     OW25137   4.308   1.515   0.896  0.0319  0.3010 -0.7794
 7287SOL    HW125138   4.217   1.500   0.870  0.1309 -1.0558 -0.4158
 7287SOL    HW225139   4.309   1.495   0.990  1.1864 -2.1289 -1.2464
 7288SOL     OW25140   2.514   1.863   9.869 -0.4323  0.3136  0.3005
 7288SOL    HW125141   2.422   1.842   9.853 -0.2603  0.5381 -1.1052
 7288SOL    HW225142   2.560   1.780   9.859 -0.1357  0.6871 -2.1600
 7289SOL     OW25143   3.122   8.206   6.927  0.0104  0.1897  0.1807
 7289SOL    HW125144   3.210   8.224   6.896  1.3174 -1.9107  2.3072
 7289SOL    HW225145   3.093   8.130   6.875  0.1052 -0.0948  0.5380
 7290SOL     OW25146   8.127   1.488   0.699 -0.2404  0.2546 -0.1096
 7290SOL    HW125147   8.165   1.464   0.784  1.5900 -0.4320 -1.0579
 7290SOL    HW225148   8.127   1.584   0.700 -1.6344  0.2799  1.2111
 7291SOL     OW25149   3.501   8.298   1.743  0.6685  0.2512  0.2056
 7291SOL    HW125150   3.576   8.241   1.726 -0.6437 -1.6257  0.4456
 7291SOL    HW225151   3.453   8.299   1.660 -0.7258 -1.2141  0.9553
 7292SOL     OW25152   6.294   1.523   7.703  0.2633 -0.4109 -0.2642
 7292SOL    HW125153   6.356   1.534   7.631  1.5588 -0.7557  0.7635
 7292SOL    HW225154   6.269   1.612   7.727  1.6369 -0.1649  0.3594
 7293SOL     OW25155   7.950   6.473   5.157  0.2067  0.1555 -0.6425
 7293SOL    HW125156   7.925   6.565   5.154  0.5911  0.4319  2.1407
 7293SOL    HW225157   7.869   6.427   5.181 -0.0071 -0.2903 -2.1153
 7294SOL     OW25158   5.665   8.408   7.339  0.0636 -0.2932 -1.0196
 7294SOL    HW125159   5.586   8.453   7.309 -0.0524 -0.7389 -1.3836
 7294SOL    HW225160   5.690   8.455   7.419 -0.2639  0.1889 -1.1963
 7295SOL     OW25161   5.080   6.531   0.703  0.1942 -0.3577 -0.1494
 7295SOL    HW125162   5.052   6.597   0.640 -0.3201  0.3687  0.8118
 7295SOL    HW225163   5.170   6.554   0.724 -0.5807  1.3077  1.6807
 7296SOL     OW25164   8.604   7.322   1.645  0.2130  0.4386 -0.7086
 7296SOL    HW125165   8.598   7.335   1.739 -1.6588  1.4353 -0.8994
 7296SOL    HW225166   8.667   7.387   1.615 -0.7062  1.5462 -0.3331
 7297SOL     OW25167   1.099   9.436  10.221 -0.0952  0.0737  0.3090
 7297SOL    HW125168   1.061   9.471  10.140  0.5316  1.7834  0.6981
 7297SOL    HW225169   1.155   9.364  10.191 -0.5634  0.0926 -0.6773
 7298SOL     OW25170   8.412   3.268   6.730 -0.3215  0.0843  0.5234
 7298SOL    HW125171   8.471   3.197   6.756  0.1319  0.0935 -0.4263
 7298SOL    HW225172   8.470   3.340   6.706 -0.6747 -0.0532 -0.8447
 7299SOL     OW25173   4.253   7.338   5.627  0.2746 -0.0669 -0.1132
 7299SOL    HW125174   4.221   7.294   5.549  0.4097  0.0034 -0.2073
 7299SOL    HW225175   4.174   7.356   5.678  0.0736  0.8133 -0.7115
 7300SOL     OW25176   0.959   1.248  10.709 -0.5685  0.0777 -0.5488
 7300SOL    HW125177   1.032   1.214  10.761 -0.8576  0.9743  0.4831
 7300SOL    HW225178   0.954   1.189  10.633  0.9081 -0.2883 -0.4012
 7301SOL     OW25179   2.814   1.585   3.090  0.1885 -0.1082 -0.1335
 7301SOL    HW125180   2.807   1.670   3.135 -0.9099  0.1910 -0.8416
 7301SOL    HW225181   2.895   1.592   3.039 -0.0951  0.6636 -0.4885
 7302SOL     OW25182   6.652   2.414   0.613  1.1535 -0.3705 -0.2257
 7302SOL    HW125183   6.655   2.371   0.527 -0.3372  0.9283 -0.9800
 7302SOL    HW225184   6.628   2.344   0.674  2.2962 -1.3330 -0.8212
 7303SOL     OW25185   8.783   9.871   6.734  0.2161  0.4372  0.0033
 7303SOL    HW125186   8.800   9.807   6.803  2.0674  1.1972  0.3202
 7303SOL    HW225187   8.816   9.830   6.654 -0.1989  0.3087 -0.1040
 7304SOL     OW25188   8.040   8.341   0.314 -0.2422 -0.1176 -0.1608
 7304SOL    HW125189   8.012   8.255   0.285  2.0355 -0.7208 -0.8046
 7304SOL    HW225190   8.136   8.334   0.320 -0.1986  1.5809  2.3820
 7305SOL     OW25191   7.399   5.905  11.227 -0.0675  0.1441 -0.8798
 7305SOL    HW125192   7.423   5.984  11.275 -0.9240  0.3056 -0.7081
 7305SOL    HW225193   7.443   5.834  11.274  3.2053  0.7215 -2.7095
 7306SOL     OW25194   7.570   7.779  10.487 -0.2601 -0.2031  0.3127
 7306SOL    HW125195   7.551   7.822  10.404  0.8665 -0.6185 -0.1755
 7306SOL    HW225196   7.490   7.788  10.538 -0.4484  1.4356 -0.2209
 7307SOL     OW25197   3.366   2.657   5.270 -0.3611 -0.1006  0.2785
 7307SOL    HW125198   3.343   2.701   5.188 -0.1087  0.6432  0.5978
 7307SOL    HW225199   3.404   2.574   5.243  0.0633  0.2967 -0.3724
 7308SOL     OW25200   2.595   4.372   1.104 -0.5408  0.2965 -0.2063
 7308SOL    HW125201   2.641   4.376   1.021 -0.1506  0.4973  0.0183
 7308SOL    HW225202   2.537   4.296   1.096 -0.9434  0.6723 -0.8821
 7309SOL     OW25203   4.959   5.566   1.879 -0.5109 -0.0817  0.1150
 7309SOL    HW125204   5.026   5.575   1.947 -1.8390 -2.2783  1.8405
 7309SOL    HW225205   5.006   5.530   1.804  0.6737  0.7928  0.4014
 7310SOL     OW25206   4.495   0.625   4.064  0.1994 -0.0619  0.0792
 7310SOL    HW125207   4.529   0.550   4.014  0.7619  1.6059 -2.1980
 7310SOL    HW225208   4.558   0.695   4.048  1.2209  0.2856  4.4070
 7311SOL     OW25209   8.405   4.027   4.245 -0.0824 -0.1714 -0.5569
 7311SOL    HW125210   8.340   4.027   4.314 -0.2304  1.1396 -0.6689
 7311SOL    HW225211   8.456   4.107   4.259 -0.8431  0.7510 -2.6061
 7312SOL     OW25212   8.854   5.941   5.165 -0.0310  0.2747  0.0972
 7312SOL    HW125213   8.835   5.903   5.250  3.0457 -0.4327  0.5760
 7312SOL    HW225214   8.779   5.916   5.110 -0.8709 -1.4152  1.8999
 7313SOL     OW25215   7.697   5.580  11.029  0.1365  0.3129  0.2925
 7313SOL    HW125216   7.718   5.661  11.077  0.2230 -0.7554  2.1641
 7313SOL    HW225217   7.603   5.584  11.014 -0.1368  0.0870  1.7806
 7314SOL     OW25218   5.844   0.930   4.305  0.2864 -0.3541 -0.2730
 7314SOL    HW125219   5.847   0.935   4.401  1.9308  2.6683 -0.3455
 7314SOL    HW225220   5.936   0.920   4.279  0.2487  1.9233 -1.5205
 7315SOL     OW25221   5.744  11.036   9.276 -0.1318 -0.2443 -0.3585
 7315SOL    HW125222   5.838  11.053   9.280  0.6168 -3.5917 -0.6865
 7315SOL    HW225223   5.733  10.950   9.315 -3.0027 -0.2128 -0.8592
 7316SOL     OW25224   4.336   9.094   6.710 -0.2178 -0.2466  0.5208
 7316SOL    HW125225   4.382   9.147   6.644 -0.2424 -0.9920 -0.1151
 7316SOL    HW225226   4.291   9.158   6.765 -0.3681  0.3874 -0.3198
 7317SOL     OW25227  10.464   7.520   1.372 -0.1755 -0.2495 -0.1576
 7317SOL    HW125228  10.494   7.483   1.289 -0.5630  0.6292 -0.7107
 7317SOL    HW225229  10.479   7.614   1.362 -1.4612  0.0187  0.2441
 7318SOL     OW25230   5.102   0.642   1.032 -0.2304  0.2794  0.1967
 7318SOL    HW125231   5.134   0.670   1.118 -0.2538 -1.0462  0.6554
 7318SOL    HW225232   5.007   0.652   1.038 -0.1066  2.4386 -0.5253
 7319SOL     OW25233   1.643   6.095   0.180 -0.3193  0.0672  0.0104
 7319SOL    HW125234   1.625   6.004   0.154 -1.5598  0.1447  0.5448
 7319SOL    HW225235   1.665   6.139   0.098 -0.8797 -0.4498 -0.4268
 7320SOL     OW25236  11.235   1.555  10.191  0.6998 -0.4443 -0.0063
 7320SOL    HW125237  11.316   1.598  10.163 -0.6957  1.6591 -0.9953
 7320SOL    HW225238  11.196   1.522  10.110 -0.6965  0.8905  0.0922
 7321SOL     OW25239   3.208   2.305   5.927 -0.6233 -0.1864 -0.2168
 7321SOL    HW125240   3.137   2.283   5.867  0.4506 -1.4405 -1.0913
 7321SOL    HW225241   3.278   2.243   5.906  0.0371 -0.2613  1.9056
 7322SOL     OW25242  10.700   2.091   1.198  0.6323 -0.4404 -0.4973
 7322SOL    HW125243  10.765   2.101   1.267  1.2411 -0.3539 -1.0671
 7322SOL    HW225244  10.698   2.176   1.154  0.1410 -0.4472 -0.4945
 7323SOL     OW25245   6.005   3.218  10.251  0.0082 -1.0593 -0.5260
 7323SOL    HW125246   6.013   3.129  10.284  0.9963 -1.2182 -1.1547
 7323SOL    HW225247   5.969   3.208  10.162 -1.6013 -0.7026  0.0509
 7324SOL     OW25248   8.457   3.580   0.281 -0.5882 -0.3019 -0.6693
 7324SOL    HW125249   8.488   3.669   0.293 -0.7887 -0.2636 -0.4311
 7324SOL    HW225250   8.528   3.536   0.235  0.5509 -0.6539  1.2944
 7325SOL     OW25251   5.397   7.708   2.466  0.5081  0.2774 -0.4497
 7325SOL    HW125252   5.491   7.694   2.466  0.6028  0.6431 -2.0873
 7325SOL    HW225253   5.371   7.704   2.558  1.8043 -1.8578 -0.1155
 7326SOL     OW25254   5.067   6.138  10.686 -0.4503 -0.6030  0.3923
 7326SOL    HW125255   4.994   6.097  10.732 -0.2436 -1.6268 -0.1640
 7326SOL    HW225256   5.027   6.206  10.632 -1.0388 -1.3440 -0.1219
 7327SOL     OW25257   7.804   6.132   8.344  0.2866  0.3448  0.4119
 7327SOL    HW125258   7.895   6.160   8.359 -0.3923  2.0041  1.8299
 7327SOL    HW225259   7.756   6.169   8.418 -1.9111  1.3021 -1.3915
 7328SOL     OW25260  10.867   3.033   4.365 -0.5868 -0.3362  0.1064
 7328SOL    HW125261  10.839   2.977   4.293  0.4437 -0.1046 -0.4977
 7328SOL    HW225262  10.954   3.065   4.339 -1.6010  2.5239 -0.1680
 7329SOL     OW25263   7.875   0.895   8.079  0.2679  0.0245  0.1762
 7329SOL    HW125264   7.814   0.913   8.152  0.2968  0.5423  0.0800
 7329SOL    HW225265   7.851   0.959   8.012 -0.3061 -0.9823 -0.6139
 7330SOL     OW25266   0.741   5.372   1.281  0.1335 -0.2682  0.3637
 7330SOL    HW125267   0.689   5.340   1.355  0.3996 -1.1913  0.1601
 7330SOL    HW225268   0.696   5.337   1.204 -0.0337  0.5303  0.0868
 7331SOL     OW25269  10.635   4.206   8.134 -0.0275 -0.5628 -0.6079
 7331SOL    HW125270  10.541   4.220   8.141  0.1230  0.1434  0.1464
 7331SOL    HW225271  10.657   4.153   8.211  0.3451  0.1744 -0.1900
 7332SOL     OW25272   1.456  10.530  10.934 -0.2601 -0.2059  0.0031
 7332SOL    HW125273   1.489  10.620  10.938 -1.2667  0.1605  2.7899
 7332SOL    HW225274   1.365  10.539  10.905 -0.0853 -0.4217 -0.6101
 7333SOL     OW25275   9.023   2.678   8.548 -0.1223 -0.0264  0.3287
 7333SOL    HW125276   8.960   2.723   8.604  0.3601  1.1722 -0.0649
 7333SOL    HW225277   8.993   2.696   8.459 -1.0131 -2.0989  0.1337
 7334SOL     OW25278   8.771   2.236  10.634 -0.0516 -0.0855  0.1712
 7334SOL    HW125279   8.799   2.154  10.594  0.6756  0.7490 -1.0826
 7334SOL    HW225280   8.750   2.294  10.561  0.1308  1.0888  1.0079
 7335SOL     OW25281   6.367   9.521   2.553 -0.2946 -0.1236  0.6834
 7335SOL    HW125282   6.401   9.576   2.482  0.0957  1.3379  1.9351
 7335SOL    HW225283   6.438   9.461   2.573  0.2844  0.6400  0.9882
 7336SOL     OW25284   3.820   7.676   7.360  0.0840 -0.8192 -0.1398
 7336SOL    HW125285   3.753   7.704   7.422  0.8929  0.3678  0.2303
 7336SOL    HW225286   3.892   7.739   7.372  0.8391 -1.4366 -1.2572
 7337SOL     OW25287  11.247   9.779   8.384 -0.2960 -0.1866 -0.1437
 7337SOL    HW125288  11.181   9.772   8.453 -1.1733 -0.8189 -1.0276
 7337SOL    HW225289  11.331   9.768   8.430 -0.9252 -2.2203  0.6104
 7338SOL     OW25290   7.686   0.442   9.352 -0.0617 -0.7004 -0.3684
 7338SOL    HW125291   7.736   0.478   9.425  1.0139  2.0113 -2.2852
 7338SOL    HW225292   7.709   0.349   9.351 -0.0977 -0.8519  2.6370
 7339SOL     OW25293  10.764   2.539   4.884  0.8796 -0.0014  0.1964
 7339SOL    HW125294  10.762   2.545   4.980  0.3186  0.7870  0.1463
 7339SOL    HW225295  10.821   2.612   4.857  2.5344 -1.3147 -0.0065
 7340SOL     OW25296   3.869   4.086   3.820 -0.6708  0.1008 -0.2635
 7340SOL    HW125297   3.800   4.109   3.758  2.2442  0.8660 -3.5306
 7340SOL    HW225298   3.918   4.167   3.832  0.1308 -0.5871  1.3396
 7341SOL     OW25299   3.783  10.835   8.336  0.4042 -0.3280  0.5686
 7341SOL    HW125300   3.750  10.807   8.251 -0.2065  1.5234  0.1467
 7341SOL    HW225301   3.708  10.827   8.396  0.2996  0.1308  0.5028
 7342SOL     OW25302   2.803   3.925   8.889  0.0676  0.4011  0.3773
 7342SOL    HW125303   2.858   3.907   8.966  2.8970  0.0290 -1.6059
 7342SOL    HW225304   2.762   4.010   8.909 -1.2399 -0.7443  3.2484
 7343SOL     OW25305   5.093   4.627   2.443  0.4576  0.1153 -0.3725
 7343SOL    HW125306   5.026   4.558   2.444 -0.0965  0.6552 -0.1467
 7343SOL    HW225307   5.137   4.615   2.359 -0.6360  0.4274 -1.0107
 7344SOL     OW25308   6.084   6.934   0.554  0.3117  0.4072  0.2196
 7344SOL    HW125309   6.111   6.895   0.637  1.5693  0.4096 -0.1795
 7344SOL    HW225310   6.019   7.000   0.578 -1.4039 -1.4577  0.9684
 7345SOL     OW25311   0.986   0.188   1.574  0.2490  0.1499 -0.4861
 7345SOL    HW125312   1.028   0.208   1.658  0.0940 -0.8327 -0.1678
 7345SOL    HW225313   1.023   0.104   1.548 -0.4092 -0.0071 -0.9432
 7346SOL     OW25314   8.000  11.048   1.196  0.1174  0.0386  0.2796
 7346SOL    HW125315   7.927  11.097   1.235  0.1589  0.0486  0.3454
 7346SOL    HW225316   8.078  11.095   1.224  0.1179  0.3772 -0.2951
 7347SOL     OW25317   2.909   3.647   5.966 -0.8192 -0.1418 -0.1882
 7347SOL    HW125318   2.958   3.722   6.000  1.3681 -0.7679 -1.7150
 7347SOL    HW225319   2.840   3.686   5.912  1.0023  0.8709 -1.9199
 7348SOL     OW25320   5.753   8.661   0.225 -0.1687 -0.1617 -0.3790
 7348SOL    HW125321   5.692   8.594   0.255 -0.2145 -0.2795 -0.7297
 7348SOL    HW225322   5.766   8.717   0.301 -2.5758  1.2852 -0.9236
 7349SOL     OW25323   1.242   2.847   5.456  0.1903 -0.1172 -0.6102
 7349SOL    HW125324   1.198   2.811   5.533 -1.0190 -2.2262 -2.1639
 7349SOL    HW225325   1.210   2.937   5.450 -0.9856 -0.4347  0.4076
 7350SOL     OW25326  10.273   8.898   8.209  0.3030  0.2317 -0.1680
 7350SOL    HW125327  10.226   8.838   8.151 -2.4472  2.0089  0.0173
 7350SOL    HW225328  10.347   8.929   8.156 -0.1433 -0.7812 -1.4420
 7351SOL     OW25329  11.335   0.131   0.568 -0.0444  0.0252  0.3799
 7351SOL    HW125330  11.304   0.197   0.630  0.4974 -1.1567  1.9718
 7351SOL    HW225331  11.405   0.085   0.614 -1.5413 -2.8008  0.0660
 7352SOL     OW25332   6.283   5.718   2.613 -0.0033  0.1321  0.1329
 7352SOL    HW125333   6.308   5.638   2.661 -0.3162 -1.5871 -2.3867
 7352SOL    HW225334   6.201   5.746   2.654  0.9966  0.2428  2.2047
 7353SOL     OW25335   1.079   5.420  11.288 -0.4522 -0.5195  0.1669
 7353SOL    HW125336   1.122   5.502  11.266 -1.3496  0.4769  1.8973
 7353SOL    HW225337   1.090   5.365  11.210 -0.1883  1.3772 -1.2024
 7354SOL     OW25338   3.752  10.877   6.165 -0.1794  0.7936 -0.6186
 7354SOL    HW125339   3.746  10.807   6.230 -0.5992 -0.2791 -1.7593
 7354SOL    HW225340   3.834  10.860   6.119 -0.2072  1.1403 -0.7994
 7355SOL     OW25341   6.453   4.524   0.581 -0.5227 -0.6895  0.3204
 7355SOL    HW125342   6.482   4.543   0.491  0.4422 -2.9706  0.0625
 7355SOL    HW225343   6.526   4.475   0.619 -0.7783  0.5108  2.5022
 7356SOL     OW25344   2.070   2.401   5.496 -0.8806  0.1223 -0.5118
 7356SOL    HW125345   2.045   2.310   5.479  1.1193 -0.4348 -0.7320
 7356SOL    HW225346   2.158   2.395   5.535 -1.5801  1.8712  1.5159
 7357SOL     OW25347   4.171  10.602   1.823 -0.1514 -0.1084 -0.5996
 7357SOL    HW125348   4.259  10.640   1.825 -0.4276  0.5327  0.6107
 7357SOL    HW225349   4.179  10.522   1.876 -0.5341  0.5325  0.4450
 7358SOL     OW25350   8.268   1.274   5.251  0.3971 -0.2407 -0.4539
 7358SOL    HW125351   8.195   1.298   5.307  0.0039 -1.9804 -0.1654
 7358SOL    HW225352   8.334   1.342   5.266  0.0452 -0.3135  1.6354
 7359SOL     OW25353   7.879   8.246   5.908 -0.2439  0.4672 -0.0754
 7359SOL    HW125354   7.894   8.190   5.831  2.0401 -1.0174  1.2939
 7359SOL    HW225355   7.793   8.220   5.941  0.1713 -1.3090 -0.2813
 7360SOL     OW25356   6.241   9.992   7.599  0.2033 -0.0611 -0.4538
 7360SOL    HW125357   6.261   9.943   7.680  2.9540 -0.8537 -1.4760
 7360SOL    HW225358   6.146   9.998   7.597  0.0122 -0.5979  2.5012
 7361SOL     OW25359   8.108   5.014   6.661  0.3204 -1.0262 -0.9907
 7361SOL    HW125360   8.138   5.085   6.718 -1.4051 -1.4220  0.5171
 7361SOL    HW225361   8.050   4.962   6.717  1.8713 -3.9315 -1.9058
 7362SOL     OW25362   3.834  10.915   3.515  0.4344  0.5712  0.6752
 7362SOL    HW125363   3.825  10.970   3.592 -0.1916  2.2814 -0.5565
 7362SOL    HW225364   3.774  10.953   3.451  0.0965 -1.4659 -0.3079
 7363SOL     OW25365   6.913   0.297  10.589  0.3089 -0.3947 -0.2869
 7363SOL    HW125366   6.862   0.334  10.517 -1.2894 -0.8518  0.5781
 7363SOL    HW225367   6.865   0.219  10.616  0.0620  0.4991  2.1665
 7364SOL     OW25368   8.462   0.454   1.428 -0.2381 -0.2064  0.2062
 7364SOL    HW125369   8.436   0.529   1.374  0.5808 -0.9290 -1.2602
 7364SOL    HW225370   8.449   0.379   1.371 -0.7498 -1.1701  1.5503
 7365SOL     OW25371   4.575   9.123   3.739  0.0178  0.2155  0.1609
 7365SOL    HW125372   4.579   9.092   3.829 -0.5604  1.0868  0.5067
 7365SOL    HW225373   4.562   9.218   3.747 -0.4655  0.2523 -0.8272
 7366SOL     OW25374   5.848   3.060  10.980  0.0972 -0.0386  0.4117
 7366SOL    HW125375   5.888   2.974  10.966  0.5885 -0.0910  1.8700
 7366SOL    HW225376   5.754   3.046  10.966  0.2149 -0.7341  0.2871
 7367SOL     OW25377   5.462   3.421   2.541  0.4851 -0.1915  0.1016
 7367SOL    HW125378   5.380   3.469   2.546  0.0676 -1.0004  1.2338
 7367SOL    HW225379   5.447   3.355   2.472 -0.3645 -1.3153  1.3182
 7368SOL     OW25380   4.610   5.706   4.022 -0.5328  0.9013  0.0046
 7368SOL    HW125381   4.563   5.733   4.101 -0.4045  0.1506  0.3496
 7368SOL    HW225382   4.584   5.615   4.010  0.0904  0.7694 -0.3547
 7369SOL     OW25383   5.366   5.580  10.516  0.5587 -0.3132 -0.4644
 7369SOL    HW125384   5.325   5.632  10.447 -0.0089 -0.3798 -0.1796
 7369SOL    HW225385   5.307   5.586  10.590  2.0295  1.2418  0.6451
 7370SOL     OW25386   4.450   7.918   7.758  0.1466 -0.5430 -0.5695
 7370SOL    HW125387   4.513   7.985   7.730  0.4366  0.2147  1.6689
 7370SOL    HW225388   4.372   7.936   7.706  0.7155  0.5979 -1.0823
 7371SOL     OW25389   3.246   8.428   8.543  0.1543  0.1140  0.1569
 7371SOL    HW125390   3.292   8.348   8.568  1.3654  1.2473  1.8035
 7371SOL    HW225391   3.314   8.496   8.545 -1.1208  1.4344  0.2956
 7372SOL     OW25392  11.333   2.060   1.630  0.1352 -0.5883 -0.4913
 7372SOL    HW125393  11.313   2.148   1.597  1.2408  0.5724  1.7380
 7372SOL    HW225394  11.428   2.055   1.630  0.0999 -1.4892  0.1593
 7373SOL     OW25395   0.362   2.901  10.214  0.1614  0.5806  0.1547
 7373SOL    HW125396   0.307   2.956  10.157 -0.2091  0.0855  0.0282
 7373SOL    HW225397   0.300   2.862  10.276  0.3585 -0.0247 -0.0220
 7374SOL     OW25398   7.883   5.875   6.373 -0.0322 -0.4246 -0.0544
 7374SOL    HW125399   7.881   5.943   6.306  0.7742  1.0071  1.3114
 7374SOL    HW225400   7.857   5.919   6.454 -1.1997 -2.1448  0.5738
 7375SOL     OW25401   2.428   9.138   4.547 -0.0056 -0.2292 -1.0135
 7375SOL    HW125402   2.488   9.159   4.476  0.2841 -0.3752 -0.8099
 7375SOL    HW225403   2.442   9.045   4.564  1.4007  0.2441  0.6101
 7376SOL     OW25404   7.807   3.240   1.104 -0.3869 -0.3431  0.1636
 7376SOL    HW125405   7.808   3.279   1.192  0.2499 -2.0688  0.9804
 7376SOL    HW225406   7.810   3.314   1.044 -0.2772  0.8660  1.6073
 7377SOL     OW25407   9.446   7.910  10.053 -0.2647 -0.2084 -0.1825
 7377SOL    HW125408   9.513   7.941   9.992 -0.3668 -0.9484 -0.6997
 7377SOL    HW225409   9.400   7.989  10.081  0.8554  0.3183  0.2323
 7378SOL     OW25410  11.285   6.155   1.391 -0.2711  0.0121  0.1960
 7378SOL    HW125411  11.226   6.168   1.316  0.3347 -0.6867 -0.4180
 7378SOL    HW225412  11.246   6.083   1.440 -0.4278  0.1687  0.3002
 7379SOL     OW25413   5.675   0.207   8.374 -0.1317 -0.3416  0.1402
 7379SOL    HW125414   5.671   0.192   8.468 -1.6985  0.2891  0.1975
 7379SOL    HW225415   5.618   0.139   8.336  0.6148 -0.6938 -0.3834
 7380SOL     OW25416  10.628   8.900   4.425  0.6908 -0.1195 -0.1282
 7380SOL    HW125417  10.543   8.920   4.387  0.3834 -1.4634 -0.1982
 7380SOL    HW225418  10.676   8.983   4.423  0.2570  0.1143 -2.3200
 7381SOL     OW25419   7.613  10.256   5.829 -0.3476 -0.2421  0.3685
 7381SOL    HW125420   7.630  10.202   5.752  1.7990 -0.8916  1.2460
 7381SOL    HW225421   7.561  10.330   5.795  2.3597  0.6796 -2.1798
 7382SOL     OW25422   4.472   7.567   1.094 -0.4209 -0.1912  0.7740
 7382SOL    HW125423   4.506   7.609   1.015 -2.2965  0.7906  0.4587
 7382SOL    HW225424   4.398   7.515   1.064 -1.3526  0.4396  1.9081
 7383SOL     OW25425   9.856   2.330   9.141 -0.6909  0.3207  0.2021
 7383SOL    HW125426   9.862   2.425   9.154 -1.2394  0.5743 -1.1932
 7383SOL    HW225427   9.941   2.305   9.107  0.0746 -0.0221  2.2254
 7384SOL     OW25428   0.775   6.155   9.907  0.1602  0.1671  0.2657
 7384SOL    HW125429   0.823   6.218   9.854 -0.7738  1.0079  0.3975
 7384SOL    HW225430   0.694   6.200   9.931  1.1500  0.4265  3.6642
 7385SOL     OW25431   9.079   5.592   1.253  0.8342 -0.2647 -0.3600
 7385SOL    HW125432   9.012   5.589   1.322 -1.4804 -0.4780 -2.4647
 7385SOL    HW225433   9.099   5.685   1.244 -2.2968  0.3615 -2.3515
 7386SOL     OW25434   8.900   1.532   7.900  0.0976  0.7080 -0.3495
 7386SOL    HW125435   8.891   1.500   7.810 -0.4760 -0.5774  0.1320
 7386SOL    HW225436   8.987   1.572   7.903  0.6233 -0.3264 -1.1530
 7387SOL     OW25437   1.541   3.149   0.701 -0.5091  0.1591  0.7783
 7387SOL    HW125438   1.496   3.234   0.706  0.3398  0.6279  0.5159
 7387SOL    HW225439   1.634   3.171   0.698 -0.3244 -0.5512 -3.1684
 7388SOL     OW25440   7.479   0.803   6.495 -0.8074 -0.2531 -0.6872
 7388SOL    HW125441   7.469   0.812   6.400  0.3349  0.3639 -0.7745
 7388SOL    HW225442   7.394   0.827   6.531 -1.2877 -0.6076 -1.5610
 7389SOL     OW25443  10.817   9.428  11.395 -0.2399 -0.6221 -0.0836
 7389SOL    HW125444  10.813   9.403  11.488 -0.7237 -1.6301 -0.3636
 7389SOL    HW225445  10.878   9.365  11.356  0.1492 -0.0459 -0.4054
 7390SOL     OW25446   5.210   3.283   7.126 -0.1858  0.3862 -0.6009
 7390SOL    HW125447   5.288   3.329   7.158  0.9322 -1.6484 -0.2650
 7390SOL    HW225448   5.244   3.204   7.084 -1.8807  0.9534 -3.2617
 7391SOL     OW25449   3.132   3.585   9.319  0.0960  0.6234  0.3607
 7391SOL    HW125450   3.047   3.546   9.297  1.4472 -1.2813 -1.9514
 7391SOL    HW225451   3.139   3.574   9.414 -1.0039 -1.9586  0.2376
 7392SOL     OW25452   5.435   9.196   0.197 -0.2247 -0.3061 -0.1388
 7392SOL    HW125453   5.416   9.123   0.138 -0.0140 -1.2607  0.9210
 7392SOL    HW225454   5.488   9.256   0.146 -1.5425 -0.2214 -1.4645
 7393SOL     OW25455   3.253   5.098   6.657 -0.2298 -0.1329 -0.4758
 7393SOL    HW125456   3.163   5.102   6.623 -0.4167  0.7835  0.1103
 7393SOL    HW225457   3.307   5.089   6.578 -0.8103 -0.4641 -0.8512
 7394SOL     OW25458  10.925   8.595   0.916 -0.1643 -0.5518 -0.1745
 7394SOL    HW125459  10.941   8.527   0.850 -2.2906  0.1237 -1.5135
 7394SOL    HW225460  10.832   8.584   0.938 -0.4430  1.5941 -0.0916
 7395SOL     OW25461   7.138   3.826   7.166 -0.6803 -0.1133  0.6638
 7395SOL    HW125462   7.151   3.819   7.261  2.2184  2.1585  0.5666
 7395SOL    HW225463   7.226   3.821   7.130 -1.7288 -0.9124 -1.9810
 7396SOL     OW25464   3.402   9.152   8.305  0.0757 -0.0197 -0.1545
 7396SOL    HW125465   3.371   9.157   8.215  1.4897 -1.2025 -0.7354
 7396SOL    HW225466   3.344   9.087   8.346  0.3129 -0.5384 -0.6165
 7397SOL     OW25467   7.345   3.721   6.162 -0.4010  0.4492  0.3162
 7397SOL    HW125468   7.399   3.663   6.215  0.3086  0.7006 -0.1191
 7397SOL    HW225469   7.275   3.749   6.221 -0.9674 -1.1053  0.4345
 7398SOL     OW25470   2.701   8.291   8.613  0.1533  0.2904  0.7179
 7398SOL    HW125471   2.646   8.369   8.626  0.5194  0.9224 -1.1350
 7398SOL    HW225472   2.786   8.327   8.587  0.5729 -0.7329  0.6423
 7399SOL     OW25473   1.680   3.420   1.911 -0.3977 -0.1269 -0.4429
 7399SOL    HW125474   1.728   3.337   1.910  0.7248  0.4865  0.4722
 7399SOL    HW225475   1.616   3.411   1.840  2.5050 -0.1359 -3.3178
 7400SOL     OW25476   3.825   6.389  10.320  0.1561 -0.0118 -0.2594
 7400SOL    HW125477   3.807   6.479  10.346 -0.3660 -0.6101  1.5968
 7400SOL    HW225478   3.909   6.369  10.361  0.6220 -0.1687 -1.2554
 7401SOL     OW25479   6.176   8.847   5.719  0.3859  0.3289  0.5279
 7401SOL    HW125480   6.157   8.855   5.625  0.1388  1.6648  0.6801
 7401SOL    HW225481   6.127   8.918   5.759  0.8348  0.0233  1.6350
 7402SOL     OW25482   8.983   8.069   6.489 -0.2413 -0.5424 -0.1430
 7402SOL    HW125483   9.034   8.040   6.564 -0.1548  0.9530  0.4159
 7402SOL    HW225484   9.028   8.148   6.458 -1.7538  0.3867 -0.0988
 7403SOL     OW25485   1.947   4.965   2.641  0.0738 -0.2695 -0.1482
 7403SOL    HW125486   2.023   4.920   2.604 -0.8138  0.3550 -3.0140
 7403SOL    HW225487   1.949   5.052   2.600  0.3059  1.5159  3.2655
 7404SOL     OW25488   6.835   1.466   3.982 -0.4502 -0.1487 -0.2050
 7404SOL    HW125489   6.910   1.494   4.035  0.5414 -2.1162 -0.4944
 7404SOL    HW225490   6.789   1.403   4.037  0.7456 -2.4411 -1.6603
 7405SOL     OW25491   1.047   6.749  10.563 -0.1068 -0.5893  0.7942
 7405SOL    HW125492   1.062   6.682  10.496  1.2900  0.3955  0.0831
 7405SOL    HW225493   1.030   6.699  10.643  1.4484 -1.8191  0.4192
 7406SOL     OW25494   7.139   4.506  10.184  0.7020 -0.7060 -0.1853
 7406SOL    HW125495   7.138   4.410  10.181 -0.4625 -0.6956 -0.9512
 7406SOL    HW225496   7.171   4.527  10.272  1.5375 -1.7802 -0.2076
 7407SOL     OW25497   3.689   8.385   6.884 -0.4293 -0.3684  0.0769
 7407SOL    HW125498   3.719   8.428   6.805 -0.3162  0.1382  0.3883
 7407SOL    HW225499   3.704   8.450   6.954  0.8182 -1.3269  0.7416
 7408SOL     OW25500   1.729   7.783   9.443  0.0860 -0.3726  0.6209
 7408SOL    HW125501   1.657   7.812   9.388  1.6568  1.9707 -0.3220
 7408SOL    HW225502   1.703   7.808   9.532  0.2459  1.6127  0.1380
 7409SOL     OW25503   0.333   4.518   8.872 -0.3045  0.5976 -0.0496
 7409SOL    HW125504   0.362   4.457   8.939 -0.9944 -0.1184 -0.3896
 7409SOL    HW225505   0.238   4.517   8.877 -0.3982  0.0372 -1.4543
 7410SOL     OW25506   5.391  10.051  11.382  0.0263  0.2956 -0.3133
 7410SOL    HW125507   5.360  10.039  11.472  1.0650  0.4941  0.0816
 7410SOL    HW225508   5.311  10.061  11.331 -0.5752  0.6731  0.6589
 7411SOL     OW25509   8.627   6.692   2.599  0.2820  0.5160  0.3990
 7411SOL    HW125510   8.534   6.676   2.581  0.0528  1.7828  0.3798
 7411SOL    HW225511   8.627   6.768   2.658  1.2870  0.2561  0.7483
 7412SOL     OW25512   2.952   6.865   6.375  0.3598  0.0445 -0.3497
 7412SOL    HW125513   2.898   6.897   6.447 -0.7315  0.5927 -1.3657
 7412SOL    HW225514   3.042   6.871   6.407 -0.1042  0.2551  0.9562
 7413SOL     OW25515   0.110   3.485   7.413 -0.3913 -0.1717  0.4102
 7413SOL    HW125516   0.178   3.475   7.479  1.9219 -0.8252 -1.8767
 7413SOL    HW225517   0.145   3.550   7.352 -2.2363  0.1353 -0.3873
 7414SOL     OW25518   4.327   6.957   8.781  0.6487 -0.6359  0.1246
 7414SOL    HW125519   4.351   6.985   8.692  0.0380 -1.9570 -0.4801
 7414SOL    HW225520   4.384   6.883   8.799 -0.2339 -1.3185  0.2191
 7415SOL     OW25521   8.251   7.862   4.068  0.2023 -0.2073 -0.6925
 7415SOL    HW125522   8.344   7.860   4.045  0.5475 -1.8614  0.6092
 7415SOL    HW225523   8.250   7.880   4.162 -0.8163  0.1433 -0.7610
 7416SOL     OW25524   2.108   3.556  10.348  0.4895 -0.8825 -0.4440
 7416SOL    HW125525   2.048   3.481  10.351 -0.4356 -0.3302 -2.7719
 7416SOL    HW225526   2.059   3.628  10.385  0.5993 -0.9548 -0.1561
 7417SOL     OW25527   2.783  10.802  11.229 -0.3349  0.3162  0.2072
 7417SOL    HW125528   2.815  10.820  11.317  1.0053  0.7765 -0.3331
 7417SOL    HW225529   2.721  10.872  11.211  0.6541  1.2236  0.1883
 7418SOL     OW25530   2.886   8.102   1.759 -0.1607 -0.5804 -0.3213
 7418SOL    HW125531   2.971   8.128   1.723  0.2001 -0.1371  0.7816
 7418SOL    HW225532   2.862   8.173   1.818 -1.5366 -0.4874 -0.9565
 7419SOL     OW25533   1.306   9.243   3.790  0.1937  0.2443  0.1824
 7419SOL    HW125534   1.251   9.284   3.856  0.0586  1.0061 -0.3777
 7419SOL    HW225535   1.245   9.207   3.726  0.3277  0.9589 -0.3626
 7420SOL     OW25536   2.930   9.808   6.448  0.2237 -0.4175  0.2493
 7420SOL    HW125537   2.855   9.751   6.467 -0.5531 -0.0161 -1.4640
 7420SOL    HW225538   2.906   9.892   6.487  0.6303 -0.7740  1.3103
 7421SOL     OW25539   2.273  10.370   0.497 -0.8157  0.0870  0.2776
 7421SOL    HW125540   2.181  10.348   0.511 -1.0557  0.8256 -0.0903
 7421SOL    HW225541   2.302  10.406   0.581 -0.8870 -0.0599  0.3656
 7422SOL     OW25542   1.216   6.346   9.871  0.9796  0.0624 -0.4973
 7422SOL    HW125543   1.155   6.298   9.927  2.7394 -1.1129  0.4707
 7422SOL    HW225544   1.248   6.418   9.925  1.1871  0.1161 -0.6898
 7423SOL     OW25545   0.668  11.253   4.161  0.4943  0.1830  0.6888
 7423SOL    HW125546   0.658  11.207   4.244  0.8929 -0.2510  0.4993
 7423SOL    HW225547   0.762  11.263   4.149  0.4483  0.0813  0.2019
 7424SOL     OW25548   0.215   9.180   1.207 -0.5438  0.2880 -0.1399
 7424SOL    HW125549   0.155   9.111   1.178 -0.7593  0.2722  0.3293
 7424SOL    HW225550   0.302   9.139   1.205 -0.8234 -0.4642  1.4994
 7425SOL     OW25551   8.518   9.891   6.148  0.4110 -0.2223  0.0187
 7425SOL    HW125552   8.550   9.978   6.171 -0.3295 -0.1865  0.9473
 7425SOL    HW225553   8.425   9.903   6.130  0.5160 -0.6444 -0.9003
 7426SOL     OW25554  11.159   0.067   3.681 -0.0282 -0.3952 -0.1004
 7426SOL    HW125555  11.237   0.045   3.630 -1.0504 -1.3543 -1.3250
 7426SOL    HW225556  11.104  -0.012   3.677 -0.6362 -0.1069  1.5957
 7427SOL     OW25557   8.382  10.451   9.175 -0.6576 -0.0634 -0.0678
 7427SOL    HW125558   8.366  10.524   9.115  0.1564 -0.3112 -0.6074
 7427SOL    HW225559   8.477  10.450   9.186 -0.6578 -1.0581 -0.0871
 7428SOL     OW25560   0.604  10.882   0.538  0.8396 -0.0376  0.0622
 7428SOL    HW125561   0.643  10.829   0.469  1.4393 -0.3337  0.6147
 7428SOL    HW225562   0.641  10.848   0.619  0.8244  0.8713  0.4742
 7429SOL     OW25563   9.422   7.788   3.852 -0.0796 -0.2793 -0.0744
 7429SOL    HW125564   9.478   7.755   3.923 -0.3128 -0.8004 -0.1245
 7429SOL    HW225565   9.467   7.865   3.820  0.8771 -0.9736 -0.4449
 7430SOL     OW25566   0.303   9.435   2.641 -0.0203 -0.1518  0.3555
 7430SOL    HW125567   0.324   9.342   2.646  0.5211  0.0235  1.9409
 7430SOL    HW225568   0.257   9.445   2.558  0.9717 -1.6113 -0.4095
 7431SOL     OW25569   0.492  10.263   9.734  0.1451 -0.3340 -0.4757
 7431SOL    HW125570   0.583  10.290   9.723 -0.3365  2.1730  0.9974
 7431SOL    HW225571   0.441  10.342   9.717 -1.5837 -0.9997  1.2459
 7432SOL     OW25572   9.411   5.554   9.190 -0.2833  0.1089 -0.4743
 7432SOL    HW125573   9.350   5.519   9.255  0.4208  1.7801  1.1770
 7432SOL    HW225574   9.355   5.595   9.125 -1.0374  2.0674  1.2767
 7433SOL     OW25575  10.861  11.087   5.792 -0.5122 -0.2135  0.3029
 7433SOL    HW125576  10.872  11.134   5.709 -1.0702 -0.3739  0.1327
 7433SOL    HW225577  10.865  10.994   5.767 -1.1593 -0.2667  0.3800
 7434SOL     OW25578  10.746   4.281   5.995 -0.1075 -0.2205  0.1989
 7434SOL    HW125579  10.777   4.211   5.938  0.6062  1.3603 -1.4585
 7434SOL    HW225580  10.676   4.323   5.945 -0.1691  0.5639  0.9245
 7435SOL     OW25581   0.493   4.820   7.244 -0.3884 -0.6746 -0.4616
 7435SOL    HW125582   0.430   4.831   7.316 -1.4961 -0.0134 -1.4873
 7435SOL    HW225583   0.578   4.837   7.284 -1.0836  0.8194  0.4680
 7436SOL     OW25584   9.242   6.095   9.428  0.0138 -0.5717  0.4868
 7436SOL    HW125585   9.152   6.080   9.459  0.0202  0.5783  1.1405
 7436SOL    HW225586   9.268   6.176   9.472  0.7264  0.0890 -1.1104
 7437SOL     OW25587   5.855   4.852   2.050 -0.6447 -0.1033  0.3239
 7437SOL    HW125588   5.766   4.884   2.037 -1.2223 -1.0478  1.7135
 7437SOL    HW225589   5.892   4.911   2.116  0.0252  0.7032 -0.7343
 7438SOL     OW25590   0.977  11.393   3.521  0.0114 -0.3136  0.0300
 7438SOL    HW125591   0.928  11.315   3.496 -0.5537  0.4478 -1.3750
 7438SOL    HW225592   0.913  11.464   3.519  0.9601  0.5682 -1.0486
 7439SOL     OW25593   4.104   5.268   3.023  0.1980 -0.4842  0.0910
 7439SOL    HW125594   4.087   5.186   2.978  0.4832 -0.4122 -0.1512
 7439SOL    HW225595   4.020   5.315   3.021  0.6759  0.3947 -2.1645
 7440SOL     OW25596  10.207   9.548   4.479  0.1674  0.2800 -0.7218
 7440SOL    HW125597  10.115   9.543   4.506  0.2869  0.4904 -0.2694
 7440SOL    HW225598  10.224   9.642   4.471  0.7902  0.3236  0.7815
 7441SOL     OW25599   2.456   2.584  11.030  0.0992 -0.0550 -0.2040
 7441SOL    HW125600   2.402   2.621  11.100 -1.3595 -0.3923 -1.1175
 7441SOL    HW225601   2.394   2.536  10.975  1.7561 -3.3013  0.5076
 7442SOL     OW25602  10.736   3.161   3.198  0.2077  0.5561 -0.4018
 7442SOL    HW125603  10.756   3.142   3.290 -1.2781  0.8226  0.0007
 7442SOL    HW225604  10.778   3.245   3.181 -0.1987  0.9145  0.3027
 7443SOL     OW25605   8.910  10.935   3.608  0.4608 -0.2401 -0.5500
 7443SOL    HW125606   8.896  10.907   3.699 -1.2178  2.9243  0.3045
 7443SOL    HW225607   8.825  10.922   3.566  0.4372  0.8622 -0.8719
 7444SOL     OW25608   0.785   4.004   1.922 -0.1598 -0.1524 -0.0321
 7444SOL    HW125609   0.773   3.909   1.923 -0.8803 -0.0656  0.6672
 7444SOL    HW225610   0.874   4.017   1.956  0.1655 -0.6018 -0.7096
 7445SOL     OW25611   0.423   6.202   3.918  0.6778 -0.1291  0.0035
 7445SOL    HW125612   0.433   6.190   4.012  2.4040 -0.3820 -0.1818
 7445SOL    HW225613   0.391   6.118   3.886  1.3222 -0.4528  0.2069
 7446SOL     OW25614   6.310   4.911   3.006 -0.4086 -0.2850 -0.2351
 7446SOL    HW125615   6.355   4.835   3.043  0.8974  1.1581  1.3235
 7446SOL    HW225616   6.379   4.977   2.997 -1.5503  0.8099 -1.3410
 7447SOL     OW25617   5.996  10.002   6.445 -0.4572 -0.0016 -0.2582
 7447SOL    HW125618   5.995   9.918   6.399  0.2968 -0.7171  0.9727
 7447SOL    HW225619   6.004  10.068   6.375 -1.7814 -0.8881 -1.2828
 7448SOL     OW25620   2.784   3.123   6.916  0.0309 -0.6140  0.1020
 7448SOL    HW125621   2.727   3.162   6.982  0.0021 -0.0387 -0.2522
 7448SOL    HW225622   2.729   3.114   6.838  0.1486 -1.0035  0.0593
 7449SOL     OW25623   2.819   0.945   0.360  0.1315  0.1648 -0.1359
 7449SOL    HW125624   2.780   0.978   0.279  0.7833  0.6357 -0.2666
 7449SOL    HW225625   2.885   0.882   0.332  0.3071  0.2740  0.0283
 7450SOL     OW25626   0.508  11.062   5.292  0.3482 -0.5403  0.1722
 7450SOL    HW125627   0.525  10.984   5.345  0.1147 -0.0772  0.9378
 7450SOL    HW225628   0.426  11.043   5.247  1.2195 -1.4940 -1.1005
 7451SOL     OW25629   1.428   8.598   0.967  0.2772 -0.4466 -0.9747
 7451SOL    HW125630   1.363   8.569   0.904 -1.3826 -1.1804  0.9539
 7451SOL    HW225631   1.410   8.691   0.979 -0.7425 -0.7360 -0.1396
 7452SOL     OW25632  11.281   2.031   7.958 -0.1763  0.2831 -0.2622
 7452SOL    HW125633  11.336   2.066   7.888 -1.2253 -0.3534 -1.4312
 7452SOL    HW225634  11.218   2.101   7.976  0.5051  0.7119  0.5484
 7453SOL     OW25635   2.887   5.416   8.928 -0.2978 -0.1696  0.2993
 7453SOL    HW125636   2.795   5.419   8.903 -0.3487 -0.7577  0.4147
 7453SOL    HW225637   2.905   5.324   8.946  0.4338 -0.1302 -0.1786
 7454SOL     OW25638   8.955   9.152   8.485  0.2158  0.8693  0.1861
 7454SOL    HW125639   9.031   9.201   8.518 -0.9701  0.6958  3.6068
 7454SOL    HW225640   8.984   9.061   8.482  1.3429  1.2386 -2.7262
 7455SOL     OW25641   5.906  11.189   8.648 -0.1679 -0.2241  0.4020
 7455SOL    HW125642   5.958  11.179   8.568 -2.5716  1.4944 -1.5827
 7455SOL    HW225643   5.926  11.277   8.679 -0.8779 -0.0506  0.3805
 7456SOL     OW25644   1.842   3.875   3.380 -0.3550  0.1546 -0.0149
 7456SOL    HW125645   1.828   3.819   3.456 -1.1449 -0.2439 -0.4465
 7456SOL    HW225646   1.914   3.834   3.332 -0.2291  0.1024  0.2177
 7457SOL     OW25647   9.801   3.937   2.525  0.1683  0.2041  0.2165
 7457SOL    HW125648   9.871   3.870   2.528 -1.1037 -1.3531 -1.9130
 7457SOL    HW225649   9.738   3.908   2.591  0.8651  0.8867  1.2195
 7458SOL     OW25650  11.362   1.706   2.377  0.2180 -0.0827 -0.3933
 7458SOL    HW125651  11.368   1.670   2.466  0.3802 -1.0085 -0.7599
 7458SOL    HW225652  11.282   1.758   2.378 -0.0440 -0.4780  0.1622
 7459SOL     OW25653   9.750  10.375   5.994  0.2890  0.2633  0.2954
 7459SOL    HW125654   9.675  10.375   5.935  1.4142 -0.4373 -1.1931
 7459SOL    HW225655   9.800  10.452   5.969  1.3715 -0.6661 -0.5148
 7460SOL     OW25656   0.397   5.047   9.052  0.3965 -0.4719  0.3004
 7460SOL    HW125657   0.394   4.953   9.072  1.7804 -0.5625  0.2401
 7460SOL    HW225658   0.468   5.054   8.988 -1.8459  0.2092 -2.2704
 7461SOL     OW25659   8.755   3.802   6.982 -0.2062  0.4929 -0.3969
 7461SOL    HW125660   8.738   3.850   7.063 -0.3508 -0.7797  0.3601
 7461SOL    HW225661   8.718   3.715   6.998  0.0281  0.1279 -1.7281
 7462SOL     OW25662   9.944   8.562   1.782  0.5194  0.3617  0.4392
 7462SOL    HW125663   9.878   8.493   1.792 -0.7071  1.3201 -0.6086
 7462SOL    HW225664   9.983   8.546   1.696  1.4086  0.0254  0.8918
 7463SOL     OW25665   1.600   9.623   2.495  0.4684 -0.0886  0.2598
 7463SOL    HW125666   1.656   9.560   2.449  0.9964  0.2405  0.4423
 7463SOL    HW225667   1.546   9.569   2.552 -0.2276 -0.5095 -0.7721
 7464SOL     OW25668   4.401   9.492   6.391  0.1815 -0.4878  0.1939
 7464SOL    HW125669   4.437   9.518   6.476 -0.2804 -1.8067  0.8294
 7464SOL    HW225670   4.319   9.542   6.384  0.4912  0.0402  0.2543
 7465SOL     OW25671   8.045   0.304   9.191 -0.6366  0.1275  0.2658
 7465SOL    HW125672   8.055   0.399   9.190 -0.9908  0.1670  0.3095
 7465SOL    HW225673   8.135   0.270   9.195 -0.5320  0.4686  0.9974
 7466SOL     OW25674   5.494   5.141   6.870 -0.0083  0.2445  0.1315
 7466SOL    HW125675   5.403   5.157   6.842  0.1552  0.3456 -0.3532
 7466SOL    HW225676   5.541   5.122   6.788  0.2872 -0.3943  0.4475
 7467SOL     OW25677   6.443   7.280   9.950  0.3908 -0.0588  0.1275
 7467SOL    HW125678   6.368   7.335   9.973  1.1297  0.9153  0.2843
 7467SOL    HW225679   6.429   7.256   9.859 -1.2547 -1.7903  0.7939
 7468SOL     OW25680   3.971   0.336   6.603 -0.3728  0.4050  0.1525
 7468SOL    HW125681   3.965   0.402   6.534 -2.9055 -1.9207 -2.0936
 7468SOL    HW225682   4.004   0.258   6.558 -0.5119 -0.7489  1.9668
 7469SOL     OW25683   8.214   7.493   4.510 -0.2598 -0.4330 -0.2872
 7469SOL    HW125684   8.132   7.463   4.471 -0.4024 -0.7069  0.2275
 7469SOL    HW225685   8.193   7.577   4.550 -0.2606 -0.4521 -0.2478
 7470SOL     OW25686   7.373  10.524   9.019  0.0680 -0.0824  0.3239
 7470SOL    HW125687   7.372  10.597   8.957  2.8511  0.3250  0.6231
 7470SOL    HW225688   7.444  10.468   8.988 -1.0945 -1.9817  0.9256
 7471SOL     OW25689   7.448   5.466   5.699 -0.4691  0.0646  0.3961
 7471SOL    HW125690   7.540   5.455   5.723  0.3609  1.2832 -1.9079
 7471SOL    HW225691   7.433   5.560   5.708 -1.4374 -0.0985  0.5611
 7472SOL     OW25692   8.018   5.441   5.412  0.2796 -0.1421 -0.8092
 7472SOL    HW125693   7.942   5.494   5.392  0.6069  1.8489  2.5369
 7472SOL    HW225694   7.983   5.365   5.459  0.2661  0.4423  0.1476
 7473SOL     OW25695  10.303   4.906   4.199  0.0690 -0.5494 -0.5249
 7473SOL    HW125696  10.290   4.813   4.217  0.5159 -0.7623 -1.2511
 7473SOL    HW225697  10.344   4.940   4.278  2.2429 -1.5127 -1.1655
 7474SOL     OW25698   0.297   6.750   9.703 -0.5275  0.0072 -0.1017
 7474SOL    HW125699   0.257   6.665   9.684 -0.3151  0.0549 -0.8202
 7474SOL    HW225700   0.319   6.785   9.616  2.7534 -0.8007  0.2677
 7475SOL     OW25701   2.126   6.596  11.391 -0.1262 -0.8398  0.1212
 7475SOL    HW125702   2.209   6.613  11.436 -0.5377 -0.7718  0.8781
 7475SOL    HW225703   2.137   6.636  11.305  0.4396 -0.3794  0.3983
 7476SOL     OW25704   3.669   7.797   6.006 -0.3256  0.2252 -0.2071
 7476SOL    HW125705   3.702   7.808   6.095  2.5928 -1.4265 -0.9478
 7476SOL    HW225706   3.630   7.710   6.005  0.5455 -0.1737 -0.7496
 7477SOL     OW25707   1.606   2.421   1.944 -0.1296 -0.4239 -0.4399
 7477SOL    HW125708   1.593   2.329   1.967 -1.5262  0.4224  2.7161
 7477SOL    HW225709   1.518   2.454   1.926  0.0714  0.7276  0.5582
 7478SOL     OW25710   8.104   3.910   9.564  0.0917  0.0980 -0.0468
 7478SOL    HW125711   8.146   3.982   9.610  0.1267 -0.7995  1.3814
 7478SOL    HW225712   8.123   3.926   9.472  3.4224 -0.1522  0.4754
 7479SOL     OW25713  10.850   7.664   0.284 -0.1052 -0.4333  0.3635
 7479SOL    HW125714  10.821   7.742   0.238 -1.8545 -1.1450  0.1960
 7479SOL    HW225715  10.929   7.691   0.330  0.5697  0.8309 -1.4348
 7480SOL     OW25716   4.035   4.416   0.482  0.2624 -0.2249  0.3586
 7480SOL    HW125717   4.102   4.448   0.542  0.4596 -0.5667  0.3238
 7480SOL    HW225718   3.981   4.493   0.462  1.0065  0.1950 -0.0836
 7481SOL     OW25719  10.003   5.807   9.339 -0.3344 -0.6829 -0.1106
 7481SOL    HW125720  10.038   5.723   9.310  1.2059  0.4626 -1.8002
 7481SOL    HW225721   9.966   5.846   9.259  1.2235  1.2723  0.0360
 7482SOL     OW25722   1.911   1.015   1.523 -0.3519 -0.1303  0.4653
 7482SOL    HW125723   1.948   0.947   1.466 -0.5998 -0.2761  0.4756
 7482SOL    HW225724   1.959   1.006   1.605  0.1145  0.1847  0.2265
 7483SOL     OW25725   8.353   8.430   5.773  0.6289 -0.4570 -0.2789
 7483SOL    HW125726   8.421   8.387   5.826  1.0444 -0.3786 -0.7448
 7483SOL    HW225727   8.333   8.510   5.821  1.9869  0.3008 -0.9268
 7484SOL     OW25728   3.256   9.743   9.498  0.4420  0.7231  0.0575
 7484SOL    HW125729   3.284   9.652   9.503  2.3319  1.3138  2.2034
 7484SOL    HW225730   3.196   9.754   9.572  1.3296  1.5137  0.6848
 7485SOL     OW25731  10.079   4.132   1.477 -0.3750  1.0841  0.9139
 7485SOL    HW125732  10.104   4.058   1.422 -1.6260 -1.1452  3.1363
 7485SOL    HW225733  10.061   4.203   1.415 -3.1501 -1.6427 -1.7560
 7486SOL     OW25734   2.556  11.275   7.473  0.3863 -0.0196 -0.1902
 7486SOL    HW125735   2.499  11.320   7.410  1.2380 -0.5941 -1.4290
 7486SOL    HW225736   2.632  11.247   7.420  0.1827 -2.3406  0.6433
 7487SOL     OW25737   5.585   9.073   8.451  0.5209  0.8481 -0.2532
 7487SOL    HW125738   5.562   9.147   8.508  1.3202  1.4379 -0.6676
 7487SOL    HW225739   5.678   9.086   8.432  0.5856 -0.0887 -0.6093
 7488SOL     OW25740   6.770   0.183   5.982  0.6040 -0.5035 -0.1479
 7488SOL    HW125741   6.707   0.254   5.972  2.0549  0.6402 -1.9687
 7488SOL    HW225742   6.843   0.222   6.031  0.3792 -1.4909  1.0138
 7489SOL     OW25743   8.277   4.754   3.340 -0.0778  0.5886 -0.2868
 7489SOL    HW125744   8.229   4.677   3.370 -1.0580  0.9296 -0.9434
 7489SOL    HW225745   8.346   4.719   3.283  0.7646  0.0675  0.9865
 7490SOL     OW25746   6.444   1.547  10.209  0.0038  0.3148  0.6986
 7490SOL    HW125747   6.515   1.556  10.145 -1.4055  1.2651 -0.8109
 7490SOL    HW225748   6.403   1.633  10.212 -0.8948 -0.1219  1.7992
 7491SOL     OW25749   9.038   4.472   3.888  0.0566  0.3206  0.1772
 7491SOL    HW125750   8.992   4.501   3.810  0.3717 -0.3371 -0.2686
 7491SOL    HW225751   9.014   4.379   3.897 -1.2338  0.7633  1.7688
 7492SOL     OW25752   5.615   7.588   0.699 -0.2948 -0.2136  0.0746
 7492SOL    HW125753   5.600   7.522   0.767 -1.1319 -0.2262 -0.1144
 7492SOL    HW225754   5.577   7.668   0.734 -1.2337 -0.3477 -0.5973
 7493SOL     OW25755   0.627  10.483   3.947  0.5048 -0.4151  0.5198
 7493SOL    HW125756   0.540  10.490   3.908  0.9101  0.9897 -0.1967
 7493SOL    HW225757   0.638  10.389   3.965 -0.6999 -0.7589 -0.4102
 7494SOL     OW25758   4.176   8.196   8.793 -0.4410 -0.4483  0.5679
 7494SOL    HW125759   4.098   8.142   8.812 -1.6290 -0.2358 -2.9983
 7494SOL    HW225760   4.150   8.284   8.819 -1.8665 -0.2071 -1.4438
 7495SOL     OW25761   1.752   5.027   8.171 -0.1541 -0.2751  0.0912
 7495SOL    HW125762   1.842   5.053   8.154  1.2626 -2.9044  2.6214
 7495SOL    HW225763   1.725   4.981   8.091  1.0385 -0.1445 -0.4083
 7496SOL     OW25764   1.754   1.130  11.029  0.2477  0.3644  0.1295
 7496SOL    HW125765   1.806   1.084  11.095 -0.7238 -0.6604  0.1951
 7496SOL    HW225766   1.731   1.063  10.965 -1.6038  0.6081  0.4848
 7497SOL     OW25767   5.725   8.124  10.155  0.6046 -0.6835 -0.2888
 7497SOL    HW125768   5.691   8.208  10.185  0.8695 -0.2180 -1.2553
 7497SOL    HW225769   5.726   8.069  10.233 -0.5675 -0.1207  0.1406
 7498SOL     OW25770   8.186   5.466   5.211  0.2574  0.3389 -0.5433
 7498SOL    HW125771   8.148   5.514   5.137  1.8731  0.2388 -1.5020
 7498SOL    HW225772   8.117   5.463   5.276 -1.0271  0.9695 -1.8174
 7499SOL     OW25773   5.368   5.491   4.464  0.5971  0.1309 -0.1303
 7499SOL    HW125774   5.444   5.440   4.493  0.6032  0.9654  1.4597
 7499SOL    HW225775   5.401   5.580   4.456 -0.4765  0.8114  2.0931
 7500SOL     OW25776  11.239  10.016   9.682  0.1739 -0.1847  0.0838
 7500SOL    HW125777  11.240  10.033   9.776  0.0363 -2.8013  0.6260
 7500SOL    HW225778  11.226  10.102   9.642  1.4881  1.1807  2.3787
 7501SOL     OW25779  10.468   8.068   1.292  0.7217  0.2385  0.0822
 7501SOL    HW125780  10.438   8.150   1.331 -1.0286 -0.1734 -0.3258
 7501SOL    HW225781  10.464   8.085   1.197  0.0403 -0.3973 -0.0136
 7502SOL     OW25782   0.544   6.157   9.058 -0.6074 -0.3798  0.0464
 7502SOL    HW125783   0.570   6.170   8.967 -0.8696 -0.4297 -0.0338
 7502SOL    HW225784   0.621   6.117   9.099 -0.1386  0.5270  0.0733
 7503SOL     OW25785  10.312   3.369   7.901  0.4089  0.1047  0.1248
 7503SOL    HW125786  10.328   3.446   7.955 -3.0007  2.3116 -1.6901
 7503SOL    HW225787  10.340   3.394   7.813  0.6780 -1.3310 -0.2339
 7504SOL     OW25788   1.697   3.419   3.288 -0.2915  0.0406 -0.3199
 7504SOL    HW125789   1.656   3.504   3.307 -1.5521 -0.5129 -0.4672
 7504SOL    HW225790   1.659   3.393   3.204  0.5009 -0.4321 -0.5440
 7505SOL     OW25791   2.209   8.211   6.887 -0.4725 -0.0443 -0.3431
 7505SOL    HW125792   2.243   8.297   6.914 -0.2170  0.1098 -1.1242
 7505SOL    HW225793   2.212   8.158   6.967 -0.9815  0.7791  0.2331
 7506SOL     OW25794   6.712  11.014  10.753 -0.1252 -0.1292 -0.1765
 7506SOL    HW125795   6.734  11.069  10.828  0.1698  0.1645 -0.4761
 7506SOL    HW225796   6.658  10.944  10.790 -0.9715  0.6584  0.1272
 7507SOL     OW25797   3.205   3.806   9.901 -0.5384 -0.2508  0.1553
 7507SOL    HW125798   3.140   3.746   9.865 -1.9030 -0.5060  2.7504
 7507SOL    HW225799   3.153   3.879   9.935  0.8942  1.3263 -0.8555
 7508SOL     OW25800   1.481   7.644   0.163 -0.5717  0.1616 -0.5386
 7508SOL    HW125801   1.471   7.685   0.077  0.7175 -2.4356 -2.0687
 7508SOL    HW225802   1.438   7.559   0.154  0.3193 -0.5249  1.1158
 7509SOL     OW25803   2.732   5.213   9.561 -0.0089 -0.6822  0.1740
 7509SOL    HW125804   2.764   5.302   9.575 -1.0005 -0.1228 -0.9063
 7509SOL    HW225805   2.733   5.174   9.648  1.9105 -0.1491  0.4471
 7510SOL     OW25806   3.642   3.212   0.606  0.2575  0.2618  0.8514
 7510SOL    HW125807   3.566   3.195   0.550  0.6705 -0.8202  0.5951
 7510SOL    HW225808   3.691   3.279   0.560  0.7831 -0.8808 -0.2988
 7511SOL     OW25809   3.214   4.812  10.123  0.1958  0.3026 -0.7483
 7511SOL    HW125810   3.290   4.869  10.138 -0.1237  0.4426  0.3873
 7511SOL    HW225811   3.145   4.848  10.178 -0.3062 -0.6061 -0.7616
 7512SOL     OW25812   3.582   2.818   4.290 -0.1083 -0.4122  0.0484
 7512SOL    HW125813   3.612   2.752   4.352 -0.5536  0.1561  0.8793
 7512SOL    HW225814   3.632   2.799   4.210  0.4455 -1.1727  0.5546
 7513SOL     OW25815   1.943   2.384   2.287  0.0871  0.7951 -0.1568
 7513SOL    HW125816   1.946   2.413   2.196  0.2104 -0.6166 -0.6223
 7513SOL    HW225817   1.984   2.456   2.336  2.6589  0.3823 -1.5391
 7514SOL     OW25818   0.022   0.994   3.099 -0.8774  0.1774  0.5888
 7514SOL    HW125819  -0.031   1.061   3.055 -2.0435 -0.6966  0.6192
 7514SOL    HW225820  -0.001   1.003   3.192 -0.8523 -0.0961  0.6223
 7515SOL     OW25821   6.276   6.960   2.724  0.3236 -0.1923 -0.2968
 7515SOL    HW125822   6.271   6.997   2.812  0.6184 -1.7904  0.4193
 7515SOL    HW225823   6.193   6.983   2.683  0.8836  2.1467 -0.2888
 7516SOL     OW25824  11.370   9.885   2.512  0.0747 -0.1983 -0.7994
 7516SOL    HW125825  11.414   9.802   2.497  0.4023 -0.3219  0.7161
 7516SOL    HW225826  11.429   9.951   2.475  0.7778 -0.4937 -0.2254
 7517SOL     OW25827   1.657   0.592   7.708  0.2132 -0.4403 -0.0064
 7517SOL    HW125828   1.660   0.598   7.612  1.7632 -0.4898  0.0133
 7517SOL    HW225829   1.686   0.503   7.727  1.8403  0.1882  0.5641
 7518SOL     OW25830   8.918   6.183   5.239 -0.3066  0.3213 -0.7262
 7518SOL    HW125831   8.902   6.093   5.209 -0.4286  0.8747 -2.4229
 7518SOL    HW225832   8.831   6.223   5.242 -0.4762 -0.0724  1.7729
 7519SOL     OW25833   9.141  10.998  11.076  0.0038  0.1529 -0.5080
 7519SOL    HW125834   9.196  11.057  11.025  2.5448 -1.8670 -0.2929
 7519SOL    HW225835   9.115  10.930  11.014  0.0765 -0.3976  0.0596
 7520SOL     OW25836   5.961   2.079   4.086 -0.0335 -0.2443 -0.3428
 7520SOL    HW125837   5.912   2.149   4.042  0.4804  0.6312  0.4351
 7520SOL    HW225838   5.979   2.114   4.174  0.8391 -1.0680 -0.1784
 7521SOL     OW25839   3.100   9.442   9.443  0.6606 -0.0238  0.5517
 7521SOL    HW125840   3.064   9.360   9.411  0.1836  0.2338  0.4188
 7521SOL    HW225841   3.084   9.504   9.372  2.2441 -0.1209  0.0769
 7522SOL     OW25842   0.371   4.204   5.470 -0.1444 -0.8060 -0.2848
 7522SOL    HW125843   0.455   4.169   5.500 -0.0285  0.2719  0.7544
 7522SOL    HW225844   0.394   4.267   5.402 -0.1915 -1.1866 -0.6572
 7523SOL     OW25845   2.231   0.968   1.034  0.6606  0.4907 -0.2831
 7523SOL    HW125846   2.277   0.901   1.085 -0.5181 -0.6774 -0.6657
 7523SOL    HW225847   2.287   0.984   0.959  0.8102 -0.3612 -0.3705
 7524SOL     OW25848   9.812   0.767   6.053 -0.5710  0.5035 -0.3173
 7524SOL    HW125849   9.758   0.693   6.083  1.1122 -1.8812 -2.6727
 7524SOL    HW225850   9.751   0.822   6.004 -1.6634  0.1268  0.5549
 7525SOL     OW25851   2.449   8.834   4.587  0.2786 -0.3412 -0.0275
 7525SOL    HW125852   2.499   8.753   4.593  1.4218  0.3392 -0.0613
 7525SOL    HW225853   2.411   8.832   4.499  0.0022 -0.9878  0.0958
 7526SOL     OW25854   2.662  10.180  11.059 -0.5798  0.3744 -0.5499
 7526SOL    HW125855   2.715  10.220  10.991 -0.7926  1.1445 -0.2710
 7526SOL    HW225856   2.620  10.105  11.016  1.0976 -0.5633 -0.6534
 7527SOL     OW25857   1.280   6.908   6.457  0.6508  0.3134 -0.5727
 7527SOL    HW125858   1.235   6.848   6.516  3.0204 -1.0515 -0.0059
 7527SOL    HW225859   1.285   6.991   6.506  1.2486 -0.3595  0.5553
 7528SOL     OW25860   8.861  10.376   1.001  0.1182  0.0229  0.3485
 7528SOL    HW125861   8.861  10.323   1.081  1.9464  0.5510  0.7365
 7528SOL    HW225862   8.770  10.403   0.990 -0.1799 -0.1357  2.2096
 7529SOL     OW25863   7.836   6.709   4.325 -0.2777 -0.0646  0.1170
 7529SOL    HW125864   7.879   6.660   4.396 -0.5270  0.8521  0.9080
 7529SOL    HW225865   7.784   6.643   4.279  0.1413 -0.7319  0.5770
 7530SOL     OW25866   8.383   1.357   9.353 -0.3614 -0.3969 -0.4020
 7530SOL    HW125867   8.407   1.412   9.428  1.9165  1.5899 -2.4453
 7530SOL    HW225868   8.307   1.401   9.315  0.9679  0.9750 -1.5632
 7531SOL     OW25869   0.300   9.273   8.925  0.4634  0.3328  0.2978
 7531SOL    HW125870   0.257   9.343   8.973  1.0389 -0.2168  1.6891
 7531SOL    HW225871   0.229   9.219   8.890 -0.0002  2.0618 -1.5601
 7532SOL     OW25872  10.515   3.627   0.216  0.1895 -0.1760  0.5428
 7532SOL    HW125873  10.567   3.706   0.233  0.6411 -0.4028  0.2129
 7532SOL    HW225874  10.576   3.565   0.177 -0.3679 -0.3760 -0.0321
 7533SOL     OW25875   6.433   5.919  10.528 -0.9296  0.1627 -0.1936
 7533SOL    HW125876   6.343   5.917  10.496 -0.4912  0.7427 -1.5244
 7533SOL    HW225877   6.442   5.839  10.580 -1.7750 -0.6611 -1.2770
 7534SOL     OW25878   9.541   8.274   5.668 -0.5806  0.2863 -0.5460
 7534SOL    HW125879   9.628   8.255   5.704 -0.3088  0.4604 -1.0972
 7534SOL    HW225880   9.528   8.367   5.684 -0.6354  0.2771 -0.5325
 7535SOL     OW25881   4.573   1.686   0.979 -0.0354 -0.2834 -0.6609
 7535SOL    HW125882   4.629   1.759   1.004  0.5765 -0.5783 -1.1566
 7535SOL    HW225883   4.505   1.683   1.047  0.5895  0.0259 -0.0184
 7536SOL     OW25884   3.708   3.551   7.632  0.4967  0.0569 -0.5995
 7536SOL    HW125885   3.759   3.591   7.703  0.5201 -1.7163  0.4362
 7536SOL    HW225886   3.640   3.501   7.677  0.0691 -0.5364 -1.8686
 7537SOL     OW25887   0.754   7.330   2.785  0.5029  0.1492  0.6685
 7537SOL    HW125888   0.832   7.374   2.751  1.2339 -1.8398 -0.3519
 7537SOL    HW225889   0.764   7.335   2.881  1.8427  0.0079  0.5535
 7538SOL     OW25890   1.003   6.526   4.451  0.1950  0.2276  0.2896
 7538SOL    HW125891   0.970   6.511   4.362  0.3459 -1.6711  0.5198
 7538SOL    HW225892   1.038   6.615   4.448  0.2161  0.2072 -1.5707
 7539SOL     OW25893   8.743   6.315   9.211  0.0738  0.9755  0.3064
 7539SOL    HW125894   8.797   6.324   9.289 -0.2862  0.2982  0.6421
 7539SOL    HW225895   8.654   6.327   9.242 -0.0923  0.4189  0.0578
 7540SOL     OW25896   4.773   1.608   1.327  0.7850  0.0671  0.1224
 7540SOL    HW125897   4.718   1.574   1.257  0.8396 -0.7211  0.4418
 7540SOL    HW225898   4.725   1.683   1.362  0.9040  0.6476 -0.9480
 7541SOL     OW25899  10.113   6.421   3.890 -0.0525 -0.0220  0.4710
 7541SOL    HW125900  10.134   6.328   3.883  0.6600  0.1897 -0.4631
 7541SOL    HW225901  10.137   6.444   3.980  1.1562 -0.4325  0.2785
 7542SOL     OW25902   6.437   4.784  11.290 -0.5356 -0.0034 -0.3196
 7542SOL    HW125903   6.363   4.735  11.255 -1.3647  1.8724 -1.3131
 7542SOL    HW225904   6.484   4.720  11.344 -2.8332 -1.2698  0.3347
 7543SOL     OW25905   3.052   8.372   4.266  0.0788  0.4180 -0.7582
 7543SOL    HW125906   3.139   8.389   4.230  0.5223 -0.1791  0.0294
 7543SOL    HW225907   3.037   8.444   4.328  1.2646 -1.0506  1.3251
 7544SOL     OW25908   4.096   2.737   9.440  0.6622  0.2748 -0.3551
 7544SOL    HW125909   4.130   2.741   9.529  2.9259 -1.4179 -1.0400
 7544SOL    HW225910   4.170   2.766   9.385 -0.3124  0.2168 -1.7548
 7545SOL     OW25911   5.904   2.445   8.444  0.0129  0.3154 -0.3515
 7545SOL    HW125912   5.976   2.477   8.389  0.3988  0.9800  0.5269
 7545SOL    HW225913   5.907   2.499   8.523 -0.1561 -1.0043  0.5938
 7546SOL     OW25914   0.016   9.270   6.017  0.6880  0.2834 -0.1834
 7546SOL    HW125915   0.084   9.206   6.037  0.6622  0.9391  2.3642
 7546SOL    HW225916   0.059   9.334   5.960  2.2653  0.6376  1.3035
 7547SOL     OW25917   9.747   8.762   0.255  0.5491  0.6833  1.1438
 7547SOL    HW125918   9.781   8.803   0.176 -0.8436  0.4310  0.3971
 7547SOL    HW225919   9.664   8.807   0.273  1.4408  1.6613  3.2466
 7548SOL     OW25920  10.396   3.700   9.415  0.3891  0.6461 -0.2521
 7548SOL    HW125921  10.351   3.659   9.341 -0.4613  2.3338 -0.7283
 7548SOL    HW225922  10.478   3.733   9.379  0.9028 -0.2833  0.0450
 7549SOL     OW25923  10.631   2.585   3.137 -0.4868  0.2835  0.3506
 7549SOL    HW125924  10.693   2.543   3.078 -0.6851  1.0484 -0.4161
 7549SOL    HW225925  10.631   2.677   3.111 -4.0339 -0.1054 -1.6491
 7550SOL     OW25926   6.196   0.857   1.693 -0.4924  0.4473  0.2560
 7550SOL    HW125927   6.219   0.766   1.678  2.5068  0.6687  2.5222
 7550SOL    HW225928   6.230   0.904   1.617  2.4229  0.1134  1.2113
 7551SOL     OW25929   8.245   8.047   0.504 -0.0530  0.4298 -0.0675
 7551SOL    HW125930   8.245   8.137   0.471 -0.5303  0.8198  0.9675
 7551SOL    HW225931   8.219   7.994   0.429 -1.0709  1.2964 -0.3414
 7552SOL     OW25932   1.657   7.717   5.457  0.3311  0.5243  0.1958
 7552SOL    HW125933   1.603   7.756   5.525 -1.4377 -1.0268 -0.2601
 7552SOL    HW225934   1.616   7.743   5.375  1.8647  1.5480 -0.2889
 7553SOL     OW25935  11.163   6.855   5.136  0.1588 -0.1643 -0.5867
 7553SOL    HW125936  11.163   6.791   5.207 -0.1637 -1.2626 -1.5311
 7553SOL    HW225937  11.130   6.935   5.176  0.8199 -0.4947  0.6959
 7554SOL     OW25938   2.577   0.568   2.928 -0.0227 -0.6319  0.2932
 7554SOL    HW125939   2.607   0.579   2.838  0.4241  1.5975  0.6423
 7554SOL    HW225940   2.624   0.491   2.960  1.1357 -0.4344 -0.8567
 7555SOL     OW25941   2.840   6.365   2.364  0.4162  0.0788  0.7469
 7555SOL    HW125942   2.904   6.399   2.426  2.0198 -0.0711 -0.7483
 7555SOL    HW225943   2.884   6.370   2.279 -0.2253 -3.2827  0.0801
 7556SOL     OW25944   5.430  10.699   2.802  0.3367  0.0918  0.1788
 7556SOL    HW125945   5.388  10.618   2.772  0.6616 -0.6432  1.6042
 7556SOL    HW225946   5.462  10.678   2.890 -2.4702  2.7712  2.0247
 7557SOL     OW25947   3.901   4.403   7.007 -0.5733  0.1549 -0.1396
 7557SOL    HW125948   3.899   4.498   7.023  0.5393  0.2078 -0.1939
 7557SOL    HW225949   3.964   4.393   6.935 -0.0513 -0.6880  0.4207
 7558SOL     OW25950   7.379   8.174  10.326  0.2785 -0.0816  0.0792
 7558SOL    HW125951   7.377   8.229  10.404 -1.0657 -0.0298  0.0441
 7558SOL    HW225952   7.287   8.168  10.299  0.6792 -0.2987 -1.3522
 7559SOL     OW25953   9.131   8.486   5.976  0.0362  0.3019 -0.0346
 7559SOL    HW125954   9.141   8.581   5.978 -0.6018  0.3641  0.6863
 7559SOL    HW225955   9.200   8.453   6.034 -0.3642  0.3910  0.5004
 7560SOL     OW25956   4.723   7.465   0.067  0.2413  0.1345 -0.4228
 7560SOL    HW125957   4.669   7.492  -0.007  1.7499  0.8344 -1.3095
 7560SOL    HW225958   4.687   7.514   0.141 -1.1311 -0.3939 -0.7087
 7561SOL     OW25959   4.737   8.293   1.878 -0.2701  0.3280 -0.2138
 7561SOL    HW125960   4.805   8.357   1.857  0.3224  0.2850  1.4087
 7561SOL    HW225961   4.722   8.246   1.796  1.8503  0.1682 -0.5738
 7562SOL     OW25962   6.074   3.883   8.653 -0.0833  0.0618 -0.0406
 7562SOL    HW125963   6.153   3.891   8.706 -0.0338  1.1636 -0.2706
 7562SOL    HW225964   6.032   3.969   8.658 -1.2967 -0.5185  0.1129
 7563SOL     OW25965   1.785   9.034   4.415 -0.5165 -0.0275 -0.5112
 7563SOL    HW125966   1.706   9.085   4.435  0.1660  0.5576  0.8308
 7563SOL    HW225967   1.796   8.977   4.491  1.0880  0.8604 -0.0348
 7564SOL     OW25968   3.475   8.470   3.675  0.6121  0.1649  1.0312
 7564SOL    HW125969   3.559   8.443   3.638 -0.5826 -2.0517 -0.3090
 7564SOL    HW225970   3.457   8.555   3.634  1.8425  0.3245  0.7824
 7565SOL     OW25971  11.042   3.960   6.272  0.1830  0.5772  0.5134
 7565SOL    HW125972  11.095   3.892   6.231 -1.6363 -1.3625  1.1975
 7565SOL    HW225973  10.997   4.004   6.200  0.5393  0.3261  0.1407
 7566SOL     OW25974   3.927   9.148   0.827  0.2312  0.1966 -0.0046
 7566SOL    HW125975   3.958   9.163   0.738 -0.8264 -3.4895 -1.2011
 7566SOL    HW225976   3.832   9.159   0.821 -0.0383 -1.6930  0.1473
 7567SOL     OW25977   9.459  10.001   0.977 -0.0891 -0.3622 -0.6426
 7567SOL    HW125978   9.501   9.934   1.031 -0.9752  0.1400  0.7199
 7567SOL    HW225979   9.391  10.038   1.033  0.3940  1.7029 -1.3567
 7568SOL     OW25980  10.692   4.663   3.829 -0.5356  0.4734  0.0585
 7568SOL    HW125981  10.720   4.574   3.806  0.6324  1.4465 -2.7558
 7568SOL    HW225982  10.760   4.694   3.889  0.0002  0.0572 -0.3248
 7569SOL     OW25983   1.835  10.060   8.812  0.1752  0.3589 -0.4225
 7569SOL    HW125984   1.785   9.983   8.839 -1.0237  0.4549 -2.1914
 7569SOL    HW225985   1.923  10.044   8.844 -0.6712 -0.4327  1.6717
 7570SOL     OW25986   8.034   4.452   2.062 -0.0967 -0.1272  0.2377
 7570SOL    HW125987   8.037   4.429   1.969  0.7046  1.1671 -0.0779
 7570SOL    HW225988   7.970   4.524   2.067  0.1233  0.0419  0.6345
 7571SOL     OW25989   7.879   2.043  11.194 -0.1417  0.1739 -0.8289
 7571SOL    HW125990   7.903   1.954  11.169 -1.1720 -0.6340  0.9284
 7571SOL    HW225991   7.788   2.052  11.168 -1.0845 -0.5055  1.9253
 7572SOL     OW25992   2.405  11.324   6.194 -0.3575  0.5717  0.1819
 7572SOL    HW125993   2.486  11.311   6.145 -1.0966  1.6522 -1.4434
 7572SOL    HW225994   2.374  11.410   6.164 -2.7915 -0.4087 -0.2901
 7573SOL     OW25995   1.949   2.383   5.146  0.4765  0.1686 -0.4566
 7573SOL    HW125996   1.909   2.430   5.219  1.8269 -0.9778  1.0961
 7573SOL    HW225997   2.034   2.427   5.134 -0.1365  1.0048 -2.0758
 7574SOL     OW25998   7.242   1.146   6.795 -0.2032 -0.2543  0.0540
 7574SOL    HW125999   7.157   1.185   6.817  0.2848  2.9950 -3.0108
 7574SOL    HW226000   7.300   1.220   6.782  2.6596 -2.3262  0.1114
 7575SOL     OW26001   3.249   8.955   5.812 -0.3588  0.0339 -0.3474
 7575SOL    HW126002   3.248   9.034   5.758  0.0926  0.5198  0.3315
 7575SOL    HW226003   3.314   8.974   5.880 -1.1900 -0.3967  0.5969
 7576SOL     OW26004   1.577   5.803   7.020 -0.1448 -0.7796  0.6152
 7576SOL    HW126005   1.535   5.839   6.942 -0.6784 -1.9113  0.3505
 7576SOL    HW226006   1.662   5.773   6.990  0.1199 -0.1712  0.7380
 7577SOL     OW26007   8.231   3.198   8.276 -0.0228  0.0246  0.3318
 7577SOL    HW126008   8.251   3.292   8.277  0.3258  0.0466  3.9048
 7577SOL    HW226009   8.316   3.155   8.272 -0.1074 -0.1156  0.0386
 7578SOL     OW26010   2.038  10.849   7.898  0.2453 -0.5046 -0.2318
 7578SOL    HW126011   2.037  10.944   7.896 -0.1773 -0.5108 -0.9782
 7578SOL    HW226012   1.973  10.826   7.964  1.3400 -0.2802  0.9607
 7579SOL     OW26013   7.166  11.306   1.136  0.2734  0.2278  0.5187
 7579SOL    HW126014   7.111  11.348   1.070 -0.8871 -0.2277  1.1681
 7579SOL    HW226015   7.256  11.330   1.112 -0.1489  0.2758 -1.0592
 7580SOL     OW26016   5.264   7.169   5.794 -0.5007  0.4551  0.1454
 7580SOL    HW126017   5.348   7.211   5.813  0.0723 -0.3051 -0.5933
 7580SOL    HW226018   5.220   7.228   5.734  0.4089 -0.0961 -1.0932
 7581SOL     OW26019   5.503   8.190   0.236 -0.3368 -0.3371  0.0354
 7581SOL    HW126020   5.527   8.282   0.227  0.2560 -0.5212 -0.3326
 7581SOL    HW226021   5.568   8.143   0.183 -0.1336 -1.0261  0.8664
 7582SOL     OW26022   4.339   5.652   1.651  0.2291 -0.7393  0.6880
 7582SOL    HW126023   4.412   5.646   1.590 -0.3294 -1.9926  0.1062
 7582SOL    HW226024   4.374   5.617   1.733  0.7002  0.0566  0.8369
 7583SOL     OW26025   2.922  10.697   9.064 -0.1801 -0.5688  0.0848
 7583SOL    HW126026   2.852  10.632   9.066 -0.0975 -0.6434  0.6057
 7583SOL    HW226027   2.921  10.730   8.974 -0.4145 -1.0810 -0.1060
 7584SOL     OW26028   2.469   7.296   0.706  0.3679  0.3391 -0.0855
 7584SOL    HW126029   2.380   7.262   0.696  0.4016  0.5538 -1.1554
 7584SOL    HW226030   2.521   7.247   0.643  0.4416  2.2370 -1.5820
 7585SOL     OW26031   0.288  11.180   0.350  0.5141  0.4939 -0.1725
 7585SOL    HW126032   0.339  11.219   0.279 -2.2613  0.5419 -2.2945
 7585SOL    HW226033   0.239  11.109   0.308 -0.6340 -0.0168  1.8910
 7586SOL     OW26034   0.163   8.038   9.528  0.4335 -0.1571  0.0503
 7586SOL    HW126035   0.109   7.979   9.475 -1.1469  1.1720  0.1132
 7586SOL    HW226036   0.126   8.033   9.616 -0.0833  1.3263 -0.0677
 7587SOL     OW26037  10.830   1.304  11.010  0.0685  0.2132  0.5080
 7587SOL    HW126038  10.901   1.270  10.956 -0.0762  1.2596 -0.3929
 7587SOL    HW226039  10.870   1.323  11.095  0.2203 -1.8171  0.9374
 7588SOL     OW26040  11.266   4.073   1.891  0.2222  0.3623  0.3693
 7588SOL    HW126041  11.259   4.113   1.805 -0.4364  0.2445  0.3612
 7588SOL    HW226042  11.190   4.106   1.940  0.4070  0.1740  0.7913
 7589SOL     OW26043   1.527   9.505   1.862  0.4613  0.4345 -0.3323
 7589SOL    HW126044   1.516   9.588   1.909 -1.1127  0.7245 -1.1298
 7589SOL    HW226045   1.516   9.529   1.770 -0.1058 -0.6595 -0.5607
 7590SOL     OW26046   0.286   4.005   0.264 -0.6050  0.2415  0.3719
 7590SOL    HW126047   0.211   3.945   0.267  0.6522 -1.5423 -1.2798
 7590SOL    HW226048   0.302   4.017   0.170 -0.2314  2.4705  0.6862
 7591SOL     OW26049   0.126   8.364   8.482 -0.3516 -0.1043 -0.4061
 7591SOL    HW126050   0.179   8.288   8.508  0.6216  0.3853 -0.9179
 7591SOL    HW226051   0.052   8.326   8.436  0.2686 -0.7497 -0.8984
 7592SOL     OW26052   4.993   5.936   3.943 -0.2717  0.0783  0.4556
 7592SOL    HW126053   4.948   5.957   4.025  0.9723  0.8896  0.9457
 7592SOL    HW226054   5.060   6.003   3.934  1.4430 -1.5875  0.1951
 7593SOL     OW26055   0.453   5.489   5.908 -0.2031  0.4976 -0.0301
 7593SOL    HW126056   0.441   5.510   5.815 -0.2797  0.7785  0.0436
 7593SOL    HW226057   0.546   5.500   5.924 -0.0234 -0.4946 -0.3058
 7594SOL     OW26058   4.568   6.876  11.093 -0.1835 -0.4683 -0.0653
 7594SOL    HW126059   4.645   6.873  11.148 -0.7244 -1.5626  0.6686
 7594SOL    HW226060   4.495   6.852  11.151 -0.7883 -1.4911 -1.1925
 7595SOL     OW26061   6.529  10.497   7.886 -0.9549 -0.0488  0.2771
 7595SOL    HW126062   6.585  10.567   7.854 -1.7798  0.0026 -1.1600
 7595SOL    HW226063   6.566  10.473   7.971  1.9264 -0.8081 -1.0657
 7596SOL     OW26064   7.575   4.244   0.444 -0.2997  0.6513  0.0939
 7596SOL    HW126065   7.516   4.284   0.507 -0.4147  2.9535 -1.3427
 7596SOL    HW226066   7.533   4.161   0.420 -1.2121  0.6636  1.5722
 7597SOL     OW26067   5.136   2.379   8.405 -0.3431  0.1936  0.0054
 7597SOL    HW126068   5.149   2.462   8.451  0.3283  0.0672  0.0553
 7597SOL    HW226069   5.153   2.400   8.313  1.2463 -0.1804  0.1879
 7598SOL     OW26070   5.580   5.858   0.210 -0.2018  0.3409  0.0247
 7598SOL    HW126071   5.591   5.881   0.303 -0.2051  1.9906 -0.3540
 7598SOL    HW226072   5.656   5.803   0.190 -1.5899 -2.3948  1.6608
 7599SOL     OW26073   1.074   7.859   3.409 -0.5779  0.3482  0.5320
 7599SOL    HW126074   1.067   7.765   3.425 -1.7430  0.4545  0.7324
 7599SOL    HW226075   1.141   7.867   3.342 -2.9774 -0.9829 -2.2775
 7600SOL     OW26076   3.110   1.763  10.306  0.1122  0.1385 -0.6461
 7600SOL    HW126077   3.145   1.844  10.344  1.3752 -0.8675  0.4302
 7600SOL    HW226078   3.017   1.781  10.293 -0.2933  0.7666  2.4298
 7601SOL     OW26079   7.446   3.536   6.371  0.3178  0.8736 -0.0591
 7601SOL    HW126080   7.533   3.499   6.361  1.0965  2.5852  0.0446
 7601SOL    HW226081   7.393   3.464   6.405  1.7713 -0.0950  0.2381
 7602SOL     OW26082   8.006   3.510   4.567  0.2263 -0.1397 -0.0469
 7602SOL    HW126083   8.069   3.550   4.628  0.0185 -1.2926  0.9634
 7602SOL    HW226084   8.013   3.416   4.584 -0.7059 -0.3975 -0.9925
 7603SOL     OW26085   2.956  10.145   0.520 -0.1806 -0.1061  0.6081
 7603SOL    HW126086   3.030  10.086   0.506  0.5115  0.9729 -0.4790
 7603SOL    HW226087   2.881  10.100   0.481  0.6939  0.4784 -1.9317
 7604SOL     OW26088  10.720   8.153   9.476 -0.8515  0.2958 -0.0670
 7604SOL    HW126089  10.721   8.215   9.549 -0.2296 -0.5356  0.6435
 7604SOL    HW226090  10.637   8.171   9.430 -0.6897  1.6142  0.1402
 7605SOL     OW26091   6.500   0.039   5.734  0.0138  0.5609 -0.3965
 7605SOL    HW126092   6.462  -0.045   5.708  1.7314 -0.3519 -0.1330
 7605SOL    HW226093   6.587   0.039   5.693  0.3732  1.8151  0.3325
 7606SOL     OW26094   5.915   3.237   6.338  0.0337  0.3122  0.7559
 7606SOL    HW126095   5.990   3.177   6.331  0.4424  0.8664  0.2474
 7606SOL    HW226096   5.921   3.291   6.259 -0.6101  0.7057  0.9718
 7607SOL     OW26097   1.545   6.245   8.056 -0.1590 -0.3068 -0.4388
 7607SOL    HW126098   1.634   6.221   8.031 -0.3731 -0.6709 -0.8735
 7607SOL    HW226099   1.522   6.317   7.998  0.5015  1.0403  0.9010
 7608SOL     OW26100   1.894  10.038   2.410  0.2607 -0.1296  0.2520
 7608SOL    HW126101   1.936  10.042   2.324  2.3423 -0.1937  1.2082
 7608SOL    HW226102   1.879   9.945   2.425 -0.0045 -0.1263  0.0247
 7609SOL     OW26103  10.714   5.469   8.332  0.3045 -0.0489  0.3684
 7609SOL    HW126104  10.669   5.442   8.412  0.2278  0.0979  0.3764
 7609SOL    HW226105  10.766   5.393   8.307 -1.4450 -0.9458 -0.7234
 7610SOL     OW26106   3.027  10.813   8.247  0.0010 -0.7717  0.0608
 7610SOL    HW126107   3.117  10.842   8.235  0.0569 -0.4638  1.0888
 7610SOL    HW226108   3.034  10.734   8.301 -0.2483 -1.8271 -1.4007
 7611SOL     OW26109   5.931   0.359   2.697 -0.4845 -0.8223 -0.1043
 7611SOL    HW126110   5.999   0.295   2.676  0.7838 -0.1574  1.7049
 7611SOL    HW226111   5.939   0.372   2.792 -1.1954  1.4498 -0.3044
 7612SOL     OW26112   4.355  10.984   1.065 -0.5217 -0.0059 -0.0063
 7612SOL    HW126113   4.392  11.030   1.140 -0.6418 -2.3197  1.5657
 7612SOL    HW226114   4.333  10.897   1.099  0.2968 -1.4757 -2.9716
 7613SOL     OW26115   9.172   0.345   6.319  0.2229 -0.3388 -0.0597
 7613SOL    HW126116   9.083   0.326   6.350  0.7059 -1.4681  0.7227
 7613SOL    HW226117   9.207   0.407   6.383 -0.1577  0.4868 -0.6411
 7614SOL     OW26118  10.557   5.733   5.933  0.2237  0.0253  0.2902
 7614SOL    HW126119  10.478   5.788   5.931 -1.8590 -2.6089  2.0582
 7614SOL    HW226120  10.565   5.700   5.844  0.2335  1.4244 -0.2602
 7615SOL     OW26121   0.576   7.939   0.970 -0.9446  0.0570 -0.2226
 7615SOL    HW126122   0.553   8.027   1.000  1.4202  0.3150  1.1000
 7615SOL    HW226123   0.570   7.884   1.049 -1.4501 -0.7744 -0.8237
 7616SOL     OW26124   9.727   8.632   7.916  0.3523 -0.7758 -0.2747
 7616SOL    HW126125   9.792   8.632   7.846  0.2355 -0.4732 -0.3834
 7616SOL    HW226126   9.658   8.691   7.885  1.2573  1.0395  0.9771
 7617SOL     OW26127   0.045   9.027   3.050 -0.0028 -0.5280  0.5614
 7617SOL    HW126128   0.140   9.038   3.047  0.0277 -0.1561  2.0167
 7617SOL    HW226129   0.013   9.063   2.968  1.2338 -2.0822 -0.6578
 7618SOL     OW26130   7.301   0.236   6.145  0.2397 -0.7190 -0.3821
 7618SOL    HW126131   7.294   0.326   6.177  0.8685 -0.4448 -0.9890
 7618SOL    HW226132   7.223   0.192   6.180 -0.9734  0.4868 -1.4549
 7619SOL     OW26133   8.676   9.972   0.661  0.0614  0.2248  0.0538
 7619SOL    HW126134   8.729   9.907   0.707 -0.4698  0.5404  1.1318
 7619SOL    HW226135   8.721  10.055   0.676 -0.2217  0.3571  0.1809
 7620SOL     OW26136   3.957   9.634   2.941 -0.1899 -0.0987 -0.1794
 7620SOL    HW126137   4.013   9.606   2.869 -1.7793 -1.1312 -1.0666
 7620SOL    HW226138   3.870   9.603   2.917 -0.7673 -0.4690  2.1970
 7621SOL     OW26139   0.581   5.688   8.711  0.7372 -0.1770 -0.0859
 7621SOL    HW126140   0.594   5.622   8.779  2.3243 -0.4955 -0.6537
 7621SOL    HW226141   0.505   5.738   8.740  2.0831  0.5275  2.6158
 7622SOL     OW26142   6.011   4.523   3.804 -0.1570  0.2768 -0.1195
 7622SOL    HW126143   5.969   4.495   3.885  0.9705 -1.0453  0.0484
 7622SOL    HW226144   6.020   4.443   3.752  1.1886  0.6886 -0.5754
 7623SOL     OW26145  10.722   3.037   3.721  0.0174 -0.1319  0.2030
 7623SOL    HW126146  10.652   3.091   3.758 -0.8627 -1.0952  0.0038
 7623SOL    HW226147  10.697   3.026   3.629 -0.6943 -2.1573  0.5890
 7624SOL     OW26148   3.588  10.741  11.120  0.2958 -0.1744  0.4996
 7624SOL    HW126149   3.632  10.761  11.038  0.0464 -0.5169  0.2819
 7624SOL    HW226150   3.590  10.824  11.169  2.0273 -0.3991  0.8991
 7625SOL     OW26151   6.506   5.571   5.256  0.2928  0.2031  0.0792
 7625SOL    HW126152   6.461   5.634   5.200  0.2786 -0.4901 -0.7140
 7625SOL    HW226153   6.440   5.505   5.275  0.5039  0.0578  0.3064
 7626SOL     OW26154   8.631   0.249   0.075  0.1682 -0.3341  0.0737
 7626SOL    HW126155   8.612   0.265   0.167  1.4141 -2.7161  0.8253
 7626SOL    HW226156   8.701   0.310   0.054 -0.0786  0.1823  0.7085
 7627SOL     OW26157   0.563  10.618   6.773 -0.3632 -0.1403 -0.6401
 7627SOL    HW126158   0.577  10.632   6.866  2.6235 -0.7516 -0.8888
 7627SOL    HW226159   0.569  10.523   6.762 -0.8827 -0.0868 -1.4144
 7628SOL     OW26160   9.024   7.521   6.977 -0.2537  0.6305  0.1725
 7628SOL    HW126161   9.020   7.607   7.020 -0.3491  0.4665  0.4986
 7628SOL    HW226162   8.949   7.519   6.918  0.0463  0.9766 -0.2296
 7629SOL     OW26163   7.884   8.887  10.009  0.5760 -0.0147  0.2476
 7629SOL    HW126164   7.808   8.835   9.982  0.3935  0.2671  0.2081
 7629SOL    HW226165   7.957   8.851   9.959  0.1603  0.7778 -0.9663
 7630SOL     OW26166   6.667  11.397   0.658 -0.0235 -0.5033 -0.5891
 7630SOL    HW126167   6.723  11.421   0.583  0.1673 -0.9488 -0.5968
 7630SOL    HW226168   6.586  11.446   0.644  0.5723  0.6094 -0.2695
 7631SOL     OW26169   4.597   7.191  11.021 -0.0225  0.1192 -0.0181
 7631SOL    HW126170   4.653   7.184  10.943 -0.9714  0.4108 -0.7432
 7631SOL    HW226171   4.588   7.286  11.034 -1.9747  0.1177 -1.1221
 7632SOL     OW26172   8.409   0.903   1.596  0.3616 -0.2650  0.4726
 7632SOL    HW126173   8.376   0.853   1.670  1.2048 -2.5360 -0.6203
 7632SOL    HW226174   8.405   0.843   1.522  1.2285  1.3557 -0.9624
 7633SOL     OW26175   1.376  11.092   9.768 -0.5675  0.9526  0.6244
 7633SOL    HW126176   1.417  11.142   9.839  0.2194 -1.1869  1.7661
 7633SOL    HW226177   1.448  11.042   9.730 -1.4986 -0.1561  0.2718
 7634SOL     OW26178   6.381  11.060   5.375 -0.3744 -0.2481  0.1233
 7634SOL    HW126179   6.459  11.105   5.406  1.1906 -2.2579 -0.6832
 7634SOL    HW226180   6.310  11.098   5.427  1.3983  0.1991  2.4054
 7635SOL     OW26181   5.540   0.206   4.838 -0.0252  0.0068  0.4597
 7635SOL    HW126182   5.621   0.155   4.840  0.3242  0.5716  0.7189
 7635SOL    HW226183   5.539   0.246   4.751 -0.3822 -0.5631  0.1939
 7636SOL     OW26184   1.431   1.395   9.450  0.1954  0.0208  0.0514
 7636SOL    HW126185   1.422   1.487   9.425 -1.6780 -0.0858  0.1318
 7636SOL    HW226186   1.498   1.394   9.518 -0.1600  1.4223  0.4450
 7637SOL     OW26187   7.883   5.384   1.220 -0.0535  0.1363 -0.1366
 7637SOL    HW126188   7.966   5.391   1.174 -0.7579  0.4883 -1.4021
 7637SOL    HW226189   7.817   5.407   1.155 -1.0900  0.7771  1.0872
 7638SOL     OW26190   6.515   2.246   7.676  0.0704  0.1138 -0.5515
 7638SOL    HW126191   6.548   2.311   7.613  1.4561  0.0513  0.0869
 7638SOL    HW226192   6.483   2.298   7.749  1.1000  0.1009 -0.0782
 7639SOL     OW26193   9.350   6.928   4.527 -0.0676  0.0176 -0.1271
 7639SOL    HW126194   9.426   6.939   4.583  0.7347 -0.7112 -1.0455
 7639SOL    HW226195   9.328   7.017   4.499  0.3403  0.2488  0.2772
 7640SOL     OW26196   9.199   6.125   8.442 -0.3430 -0.4341 -0.0398
 7640SOL    HW126197   9.243   6.121   8.357 -2.1743 -0.9140 -1.0036
 7640SOL    HW226198   9.166   6.215   8.447  1.5959  0.2707  1.1783
 7641SOL     OW26199   1.733   3.374   9.659 -0.0540 -0.5451  0.1547
 7641SOL    HW126200   1.641   3.393   9.677  0.1846 -0.5815  1.5171
 7641SOL    HW226201   1.780   3.450   9.692  0.3316  0.1315 -1.8408
 7642SOL     OW26202   0.092   1.728  10.224 -0.0168 -0.0235  0.8689
 7642SOL    HW126203   0.154   1.658  10.203 -1.1147 -0.8433  0.2881
 7642SOL    HW226204   0.077   1.773  10.141 -1.2670 -0.7176  0.7021
 7643SOL     OW26205   2.690   0.204   4.641 -0.4001  0.2087  0.0547
 7643SOL    HW126206   2.692   0.155   4.723  1.3437 -2.6313 -1.4993
 7643SOL    HW226207   2.641   0.148   4.581  1.3375  0.4803 -1.7278
 7644SOL     OW26208   2.901   8.463   5.943 -0.3460 -0.4835  0.0003
 7644SOL    HW126209   2.884   8.498   6.030 -2.6681 -1.3472 -0.0448
 7644SOL    HW226210   2.870   8.530   5.883 -1.9719 -1.2917 -0.1025
 7645SOL     OW26211   1.470   4.055   9.010  0.2313  0.1656 -0.1415
 7645SOL    HW126212   1.527   3.979   9.017  1.0735  0.7826 -0.1623
 7645SOL    HW226213   1.485   4.105   9.090 -0.9515 -0.1045  0.2721
 7646SOL     OW26214   7.739   4.591   7.154 -0.1734 -0.0209 -0.5233
 7646SOL    HW126215   7.668   4.642   7.116  0.6439  1.6633  0.1321
 7646SOL    HW226216   7.715   4.500   7.136 -1.8081  0.5587 -1.4816
 7647SOL     OW26217  11.250   0.767   5.032 -0.2829 -0.2866  0.3358
 7647SOL    HW126218  11.241   0.796   4.941 -1.6153  1.2044  0.8971
 7647SOL    HW226219  11.242   0.847   5.084  4.1182 -0.4655  1.7146
 7648SOL     OW26220   6.330   8.069   5.580  0.3296  0.6791 -0.4676
 7648SOL    HW126221   6.289   8.094   5.663  0.0303 -0.7577 -0.1689
 7648SOL    HW226222   6.421   8.095   5.591  0.0058  1.7815 -0.2410
 7649SOL     OW26223   2.497   9.725   3.547 -0.1694  0.0130 -0.2774
 7649SOL    HW126224   2.569   9.736   3.609 -0.5103  1.1904 -0.0734
 7649SOL    HW226225   2.496   9.631   3.528  2.1575  0.1095 -1.1885
 7650SOL     OW26226  10.416  11.047   2.849 -0.1045  0.4733 -0.0379
 7650SOL    HW126227  10.477  10.974   2.848  0.5833  1.0348 -1.3632
 7650SOL    HW226228  10.430  11.089   2.933 -1.0484 -1.3334  1.0768
 7651SOL     OW26229   1.395   0.400   7.647  0.2402  0.0590 -0.1373
 7651SOL    HW126230   1.333   0.465   7.678 -0.9857 -0.7623 -0.7788
 7651SOL    HW226231   1.449   0.446   7.583 -1.2310  0.2514 -1.3057
 7652SOL     OW26232   2.578   8.106   9.814 -0.2585  0.1704 -0.1728
 7652SOL    HW126233   2.638   8.178   9.833 -0.4632  0.0585  0.9396
 7652SOL    HW226234   2.614   8.032   9.862  0.4884 -0.7609 -2.0507
 7653SOL     OW26235   1.915   8.928   5.180 -0.2369 -0.0537 -0.5991
 7653SOL    HW126236   1.931   8.882   5.263 -0.6617 -2.6670 -1.8545
 7653SOL    HW226237   1.829   8.896   5.151 -1.5936  3.2304 -0.6019
 7654SOL     OW26238   6.347   6.317   6.199  0.4222  0.2673  0.3432
 7654SOL    HW126239   6.384   6.277   6.278 -2.6652 -1.9786  0.8024
 7654SOL    HW226240   6.424   6.344   6.148  2.7018 -3.2411  1.5709
 7655SOL     OW26241   8.216   2.279   8.305  0.0983 -0.4128 -0.2162
 7655SOL    HW126242   8.301   2.284   8.261  0.4293 -0.9823  0.3236
 7655SOL    HW226243   8.234   2.226   8.384 -0.1755  1.6425  1.3057
 7656SOL     OW26244   8.649   6.491   9.817 -0.2903 -0.0981 -0.1129
 7656SOL    HW126245   8.721   6.525   9.869 -1.4988  1.2182  0.7868
 7656SOL    HW226246   8.648   6.545   9.738 -1.9500  1.8485  1.1296
 7657SOL     OW26247   6.058   5.134   6.328 -0.2580 -0.1950 -0.0741
 7657SOL    HW126248   6.080   5.217   6.287 -0.1470 -0.0129  0.3485
 7657SOL    HW226249   6.018   5.082   6.258  1.9338 -0.7242 -1.0089
 7658SOL     OW26250   0.256   2.147   1.670  0.2877  0.2062 -0.1826
 7658SOL    HW126251   0.288   2.081   1.731 -1.4247 -1.4592 -0.9820
 7658SOL    HW226252   0.216   2.214   1.726 -0.2488 -0.7301  0.5762
 7659SOL     OW26253   2.272   5.243   0.614 -0.1663  0.1201  0.4814
 7659SOL    HW126254   2.288   5.148   0.614  0.9432  0.2984 -0.3941
 7659SOL    HW226255   2.359   5.282   0.622 -0.6781  1.0808  1.7805
 7660SOL     OW26256  10.399   7.902   6.738 -0.1010 -0.1685  0.4204
 7660SOL    HW126257  10.457   7.838   6.777 -1.2497 -0.7936  1.1538
 7660SOL    HW226258  10.414   7.982   6.789  0.0561 -0.3462  0.6562
 7661SOL     OW26259   9.033   3.345  10.362  0.4169  0.2410  0.7706
 7661SOL    HW126260   9.009   3.437  10.366 -0.1409  0.2180 -1.0860
 7661SOL    HW226261   9.128   3.345  10.370  0.4428  0.9966  0.5546
 7662SOL     OW26262   7.396   9.133   9.245 -0.2793  0.6423  0.1892
 7662SOL    HW126263   7.431   9.048   9.275 -3.6634 -1.3665 -1.0557
 7662SOL    HW226264   7.471   9.177   9.205  1.7021 -1.5538  1.2442
 7663SOL     OW26265   3.505   5.555  10.157 -0.1531 -0.0779  0.2901
 7663SOL    HW126266   3.451   5.511  10.092  0.9619 -0.3687 -0.4595
 7663SOL    HW226267   3.452   5.630  10.185 -1.2287 -0.7583  0.1066
 7664SOL     OW26268   3.119   8.882   1.503  0.2513  0.1457  0.6286
 7664SOL    HW126269   3.160   8.886   1.590 -1.2611  1.2083  1.3414
 7664SOL    HW226270   3.030   8.853   1.520 -0.1489  0.6528 -0.5377
 7665SOL     OW26271   7.073   4.684   5.147  0.1116  0.3317 -0.2598
 7665SOL    HW126272   7.159   4.643   5.156  1.5322  3.1569  0.0178
 7665SOL    HW226273   7.012   4.611   5.146  2.4199 -1.7395  0.4770
 7666SOL     OW26274   7.924  11.197   6.988  0.3749 -0.0073 -0.0165
 7666SOL    HW126275   7.985  11.203   7.061 -0.7556 -0.1658  0.9712
 7666SOL    HW226276   7.887  11.285   6.980 -0.7848 -0.3881  0.7809
 7667SOL     OW26277   7.464   8.198   3.900 -0.3485 -0.1014  0.7178
 7667SOL    HW126278   7.546   8.161   3.934 -1.0855 -2.2491  0.2858
 7667SOL    HW226279   7.491   8.247   3.822  0.4246 -1.8604 -0.1836
 7668SOL     OW26280   8.931   7.162   0.697 -0.1878 -0.1973  0.7589
 7668SOL    HW126281   8.866   7.218   0.739  0.5803  0.5541  0.9748
 7668SOL    HW226282   8.919   7.175   0.603 -0.3365 -0.0484  0.7999
 7669SOL     OW26283   3.652   3.905   3.868  1.0483  0.0964 -0.4197
 7669SOL    HW126284   3.636   3.982   3.923  1.2142 -1.9236  2.6767
 7669SOL    HW226285   3.745   3.910   3.846  1.3190  0.2341  0.7129
 7670SOL     OW26286   0.262   8.878   6.180 -0.0560 -0.4668  0.1601
 7670SOL    HW126287   0.253   8.829   6.098  0.4961 -0.0286 -0.1705
 7670SOL    HW226288   0.355   8.898   6.186 -0.3252  0.9292  0.0420
 7671SOL     OW26289   0.384   1.144   6.071  0.1790 -0.0464 -0.1717
 7671SOL    HW126290   0.372   1.166   6.163 -2.3274 -1.1563 -0.1641
 7671SOL    HW226291   0.349   1.220   6.023 -0.6506 -0.4122 -0.1679
 7672SOL     OW26292  10.714   8.544   7.691 -0.5666  0.0564 -0.1061
 7672SOL    HW126293  10.649   8.475   7.702 -1.4163  0.6359 -1.3388
 7672SOL    HW226294  10.703   8.575   7.601  1.7450 -0.1473 -0.5373
 7673SOL     OW26295   6.167   0.656   8.326 -0.7309 -0.0652  0.5288
 7673SOL    HW126296   6.243   0.674   8.272 -3.2352  0.2067 -3.2794
 7673SOL    HW226297   6.181   0.708   8.405  0.3378  5.0911 -2.5715
 7674SOL     OW26298   1.738   6.165  11.262 -0.2663 -0.3285  0.3249
 7674SOL    HW126299   1.765   6.253  11.289 -0.5514 -0.1399  0.0064
 7674SOL    HW226300   1.692   6.178  11.179 -1.4886 -0.6118  0.9350
 7675SOL     OW26301   3.126  10.829   5.212 -0.0287  0.4310  0.1765
 7675SOL    HW126302   3.220  10.845   5.224 -0.2447  0.1908  2.4726
 7675SOL    HW226303   3.115  10.737   5.232 -0.5996  0.1040 -1.4489
 7676SOL     OW26304   9.607   3.143   7.154  0.6274 -0.3043 -0.6012
 7676SOL    HW126305   9.611   3.177   7.064  1.0915  0.6279 -0.2388
 7676SOL    HW226306   9.621   3.049   7.144  4.0460  0.1478 -1.2426
 7677SOL     OW26307  11.317   8.597   5.682  0.1348 -0.6763 -0.1788
 7677SOL    HW126308  11.368   8.517   5.672  1.5206  0.1709 -0.1184
 7677SOL    HW226309  11.282   8.592   5.771  0.3146 -1.1517 -0.1315
 7678SOL     OW26310   9.962   9.291  11.097 -0.3215  0.5857  0.0426
 7678SOL    HW126311   9.896   9.241  11.144  0.0525 -0.9705 -1.0115
 7678SOL    HW226312   9.912   9.356  11.047 -0.8890  0.6769  0.7183
 7679SOL     OW26313   6.849   7.158   8.002 -1.0141 -0.3800  0.5214
 7679SOL    HW126314   6.753   7.155   7.997 -0.9545 -0.3548 -1.5794
 7679SOL    HW226315   6.873   7.234   7.948  0.2581 -1.7818 -0.9739
 7680SOL     OW26316   9.209   8.688  10.661  0.5206  0.9298  0.4349
 7680SOL    HW126317   9.265   8.658  10.732  0.3136  0.5452  0.4361
 7680SOL    HW226318   9.176   8.773  10.690  2.2408  1.8620 -0.1750
 7681SOL     OW26319   3.264   5.784   9.997 -0.4451 -0.1698  0.6782
 7681SOL    HW126320   3.319   5.735   9.936 -1.1675  0.3970 -0.4479
 7681SOL    HW226321   3.319   5.795  10.075  0.2857 -1.3887  0.3625
 7682SOL     OW26322   9.165   9.529   8.545  0.0878  0.3523  0.5730
 7682SOL    HW126323   9.133   9.473   8.475  2.4559  0.8171 -0.9901
 7682SOL    HW226324   9.194   9.469   8.613 -0.6398 -0.1625  0.4423
 7683SOL     OW26325   8.828   2.459   7.188 -0.1336 -0.1473 -0.6514
 7683SOL    HW126326   8.836   2.483   7.096 -0.7661  3.4444  0.0912
 7683SOL    HW226327   8.734   2.465   7.207  0.0108 -0.6099  0.2905
 7684SOL     OW26328   4.691   3.869   6.535  0.8265 -0.2719 -0.2989
 7684SOL    HW126329   4.650   3.787   6.562  0.2684  0.4702  1.1984
 7684SOL    HW226330   4.731   3.849   6.450  0.3508 -1.9651 -0.1538
 7685SOL     OW26331   6.703   8.050   9.869  0.0490 -0.4245 -0.1090
 7685SOL    HW126332   6.745   8.114   9.926  0.3515 -1.2016  0.5597
 7685SOL    HW226333   6.639   8.006   9.924  0.9643 -1.8056 -0.0860
 7686SOL     OW26334   7.393  10.455  11.187  0.6173  0.6263  0.0933
 7686SOL    HW126335   7.427  10.368  11.209 -0.6385  0.5679  2.0716
 7686SOL    HW226336   7.468  10.514  11.202  0.6463  0.2093  1.8934
 7687SOL     OW26337   0.553   3.604   2.867 -0.8332  0.1594 -0.1327
 7687SOL    HW126338   0.552   3.659   2.789 -1.5225  1.1751  0.5747
 7687SOL    HW226339   0.464   3.608   2.900 -0.2267  0.8881  1.4975
 7688SOL     OW26340   4.723   2.229   2.420  0.5225  0.2855  0.2419
 7688SOL    HW126341   4.663   2.289   2.463 -0.4701 -0.1722 -0.4758
 7688SOL    HW226342   4.795   2.284   2.389 -0.0945  1.0214  0.0957
 7689SOL     OW26343   4.676   2.847   3.222  0.0784 -0.6097 -0.4717
 7689SOL    HW126344   4.654   2.807   3.137  1.4224 -1.1129 -0.6105
 7689SOL    HW226345   4.747   2.792   3.256  1.8827  1.5377 -0.5841
 7690SOL     OW26346  11.235   1.777   8.055 -0.2326  0.7704  0.4669
 7690SOL    HW126347  11.318   1.750   8.016 -1.6714 -1.5106 -1.2330
 7690SOL    HW226348  11.229   1.871   8.036  1.6417  0.8410  0.0778
 7691SOL     OW26349   6.799   0.423   9.584 -0.2143 -0.3768 -0.1875
 7691SOL    HW126350   6.803   0.327   9.588  0.1715 -0.3313  0.9234
 7691SOL    HW226351   6.708   0.442   9.561 -0.7850 -1.0045  1.3752
 7692SOL     OW26352  10.717   4.223   1.997  0.2264 -0.4514 -0.0346
 7692SOL    HW126353  10.647   4.247   1.937  1.3434  1.0291 -0.8026
 7692SOL    HW226354  10.754   4.306   2.026  2.4102 -1.1691 -0.5636
 7693SOL     OW26355  10.007   9.949   6.111 -0.5686  0.2522 -0.3494
 7693SOL    HW126356  10.038   9.986   6.194 -1.3784 -1.1496  0.6368
 7693SOL    HW226357   9.930  10.001   6.089 -0.6902  0.2717  0.1019
 7694SOL     OW26358   6.213   3.260  10.416  0.1777 -0.4177 -0.4281
 7694SOL    HW126359   6.148   3.271  10.346  0.5610 -1.6425 -1.0068
 7694SOL    HW226360   6.177   3.310  10.489  0.3335  1.8949 -1.8227
 7695SOL     OW26361   0.474   7.655   0.502 -0.0237  0.3368 -0.2806
 7695SOL    HW126362   0.427   7.692   0.427  0.6716  0.2274 -0.7722
 7695SOL    HW226363   0.444   7.707   0.576  0.4031  1.4272 -0.8583
 7696SOL     OW26364   3.461   2.521   8.778  0.0390 -0.1952  0.2101
 7696SOL    HW126365   3.410   2.493   8.702  0.3296  0.2611 -0.1589
 7696SOL    HW226366   3.407   2.496   8.853 -0.3521 -0.4551 -0.1504
 7697SOL     OW26367   0.680   1.967   5.990  0.0521 -0.3341  0.8652
 7697SOL    HW126368   0.715   1.927   6.069 -0.7770 -1.4569  0.6831
 7697SOL    HW226369   0.587   1.947   5.992 -0.0752  0.1071 -0.1121
 7698SOL     OW26370   0.908   9.425   7.816  0.4927 -0.1894  0.5808
 7698SOL    HW126371   0.856   9.352   7.849 -0.1243  0.7756  1.7994
 7698SOL    HW226372   0.928   9.477   7.894  1.5627  0.5478 -0.1642
 7699SOL     OW26373   1.050   8.653   7.640  0.1915  0.2323 -0.6510
 7699SOL    HW126374   1.028   8.725   7.699 -0.0599 -0.4657  0.1288
 7699SOL    HW226375   1.136   8.622   7.671  0.3913  0.3203 -1.1074
 7700SOL     OW26376   9.823   6.412   2.497  0.0732 -0.6800  0.2544
 7700SOL    HW126377   9.780   6.497   2.503  0.7423 -0.2845 -0.3830
 7700SOL    HW226378   9.771   6.355   2.553 -1.1718 -0.1768 -0.3320
 7701SOL     OW26379   2.435   3.924   4.400  0.1651 -0.0736  0.0951
 7701SOL    HW126380   2.512   3.947   4.452 -0.0585  0.0646  0.3690
 7701SOL    HW226381   2.362   3.969   4.443 -0.2308 -1.0103  0.4324
 7702SOL     OW26382   6.841   0.293   5.163 -0.6772  0.2107 -0.1498
 7702SOL    HW126383   6.816   0.363   5.223 -0.9568 -0.1779  0.1977
 7702SOL    HW226384   6.867   0.338   5.083  1.1543  0.8363  0.7412
 7703SOL     OW26385   6.658  10.128   4.191  0.1860  0.4026  0.0607
 7703SOL    HW126386   6.665  10.190   4.263  0.7234 -0.3427  0.6697
 7703SOL    HW226387   6.626  10.047   4.232  0.4870 -0.0223 -0.5279
 7704SOL     OW26388   5.231   0.828   4.857 -0.0615 -0.4446 -0.0879
 7704SOL    HW126389   5.190   0.826   4.943  1.9843  2.5261  1.1109
 7704SOL    HW226390   5.191   0.903   4.813  0.2402 -0.8025 -1.0030
 7705SOL     OW26391   3.037   6.845   7.774 -0.4119  0.0300  0.7545
 7705SOL    HW126392   3.074   6.845   7.862 -1.5611  0.5381  1.2693
 7705SOL    HW226393   3.067   6.763   7.735  1.1585  0.3863  1.1480
 7706SOL     OW26394   8.576   6.680   4.940 -0.4182 -0.0233  0.0300
 7706SOL    HW126395   8.605   6.594   4.911  1.5337  0.5377  0.1806
 7706SOL    HW226396   8.494   6.694   4.894  0.2150 -1.1484 -1.5235
 7707SOL     OW26397   2.036  11.352   7.862  0.7490  0.3139 -0.6437
 7707SOL    HW126398   2.090  11.364   7.940  0.6640 -1.3626 -0.2748
 7707SOL    HW226399   2.096  11.316   7.796  0.6912  1.1778 -1.1904
 7708SOL     OW26400   8.587   5.374   8.436 -0.0913  0.1402  0.5597
 7708SOL    HW126401   8.499   5.336   8.445 -0.0557  0.1759  1.0954
 7708SOL    HW226402   8.644   5.298   8.420 -0.2255  0.1229  0.1593
 7709SOL     OW26403   2.140   4.093   3.745  0.1673  0.0474  0.0940
 7709SOL    HW126404   2.206   4.042   3.697  0.2757  0.2989 -0.0329
 7709SOL    HW226405   2.148   4.181   3.707  1.1802  0.5861  1.4895
 7710SOL     OW26406   1.009   7.009   5.552  0.0750 -0.3636 -0.4897
 7710SOL    HW126407   1.052   6.986   5.469  0.1714 -1.0105 -0.2640
 7710SOL    HW226408   1.001   7.105   5.549 -0.5428 -0.4315 -1.5446
 7711SOL     OW26409   4.628   1.489   3.995 -0.0993 -0.6965 -0.0260
 7711SOL    HW126410   4.676   1.510   3.915  1.4227  1.6900  1.3741
 7711SOL    HW226411   4.676   1.416   4.034  0.8658 -0.0513  0.0401
 7712SOL     OW26412   5.393   2.983  11.368 -0.0593  0.4146 -0.1766
 7712SOL    HW126413   5.312   3.029  11.348 -0.0428  0.2218 -0.7093
 7712SOL    HW226414   5.375   2.934  11.448  0.1158  1.8292  0.7659
 7713SOL     OW26415  11.095   9.701   3.098  0.1761 -0.2055 -0.6478
 7713SOL    HW126416  11.084   9.715   3.192 -0.8169  0.1309 -0.8139
 7713SOL    HW226417  11.016   9.736   3.058  0.6282 -0.2640 -1.6269
 7714SOL     OW26418  11.269   2.724   1.955  0.1553  0.4645  0.9809
 7714SOL    HW126419  11.200   2.702   1.893  0.8936  0.0030  0.3000
 7714SOL    HW226420  11.223   2.745   2.036 -0.8548  1.5680  0.1497
 7715SOL     OW26421  11.087   9.534   2.218 -0.1382  0.6859 -0.1240
 7715SOL    HW126422  11.129   9.514   2.301 -0.4939  0.5952  0.0334
 7715SOL    HW226423  11.141   9.490   2.152 -1.3109 -1.4201  0.2632
 7716SOL     OW26424   9.301   2.075  10.347 -0.8738 -0.0261 -0.1409
 7716SOL    HW126425   9.309   2.018  10.270  1.7075 -1.3765  1.0286
 7716SOL    HW226426   9.361   2.147  10.329 -1.1717  0.2764  0.0848
 7717SOL     OW26427   7.562   3.731   5.101  0.0377  0.2716 -0.2507
 7717SOL    HW126428   7.477   3.745   5.059 -0.3628  1.1278  0.8070
 7717SOL    HW226429   7.548   3.757   5.192  0.2788 -3.4500  1.0229
 7718SOL     OW26430   4.644   7.998   9.507  0.2435  0.1702  0.3307
 7718SOL    HW126431   4.596   8.077   9.486  1.5678  1.1261  0.7447
 7718SOL    HW226432   4.727   8.029   9.544  0.1933 -1.4022  1.9081
 7719SOL     OW26433   3.983   8.775   2.933  0.0141  0.1539  0.0078
 7719SOL    HW126434   3.962   8.763   3.026 -0.2054  0.8949  0.0642
 7719SOL    HW226435   4.035   8.699   2.910 -1.5258 -1.0200  0.2458
 7720SOL     OW26436   7.121   3.758   2.136  0.2732 -0.3510  0.2156
 7720SOL    HW126437   7.198   3.814   2.126  1.1132 -1.5241  0.0318
 7720SOL    HW226438   7.111   3.715   2.052 -1.0051  0.2848  0.0125
 7721SOL     OW26439   9.514   3.564   2.071 -0.0859 -0.0221 -0.2679
 7721SOL    HW126440   9.426   3.600   2.082  1.2469  2.9017  2.6182
 7721SOL    HW226441   9.571   3.641   2.070  2.6391 -1.8771  0.7391
 7722SOL     OW26442   5.912   3.750  10.347  0.5491 -0.1208  0.0173
 7722SOL    HW126443   5.906   3.845  10.350  0.3402 -0.0828 -1.2895
 7722SOL    HW226444   5.925   3.729  10.255  1.7114 -1.3010  0.4164
 7723SOL     OW26445   9.485   2.746   8.807  0.0774 -0.1772  0.1356
 7723SOL    HW126446   9.526   2.832   8.806 -0.3194  0.0289  0.9665
 7723SOL    HW226447   9.427   2.745   8.731  1.2809 -0.3210 -0.8198
 7724SOL     OW26448   2.847   8.604   8.476  0.9537  0.4493 -0.5740
 7724SOL    HW126449   2.902   8.682   8.466  1.2502  0.2414 -0.5927
 7724SOL    HW226450   2.780   8.630   8.539  1.0115  0.7397 -0.6304
 7725SOL     OW26451   1.553   8.157  10.747 -0.7292  0.1841 -0.1628
 7725SOL    HW126452   1.536   8.196  10.661  1.5194 -0.3837 -0.9144
 7725SOL    HW226453   1.480   8.096  10.760 -1.2734  0.5116 -1.5173
 7726SOL     OW26454   5.220   8.848   5.040  0.2267  0.1769  0.0687
 7726SOL    HW126455   5.267   8.849   5.124 -0.5806 -0.7058  0.5437
 7726SOL    HW226456   5.137   8.891   5.059 -0.2386 -0.6389 -0.1074
 7727SOL     OW26457   2.144   4.135   0.433  0.4261 -0.4213  0.0979
 7727SOL    HW126458   2.227   4.136   0.480 -0.0526  1.7491  1.0152
 7727SOL    HW226459   2.086   4.083   0.489  0.9702 -1.4314 -0.2473
 7728SOL     OW26460   0.497   0.595   7.100  0.4248  0.0356 -0.3776
 7728SOL    HW126461   0.466   0.538   7.171  1.2425  0.5824  0.4403
 7728SOL    HW226462   0.424   0.656   7.085  1.2963  1.8424  2.1013
 7729SOL     OW26463   2.207  11.000   0.234 -0.7224  0.7685  0.3597
 7729SOL    HW126464   2.254  10.918   0.221 -0.0517  1.4347 -1.8450
 7729SOL    HW226465   2.247  11.038   0.313 -1.0432 -0.9615  1.4118
 7730SOL     OW26466   3.807   3.002   7.293 -0.2314 -0.2872 -0.1186
 7730SOL    HW126467   3.799   2.908   7.281 -1.4062 -0.2411  0.1271
 7730SOL    HW226468   3.813   3.038   7.205 -1.3761 -0.4841 -0.2885
 7731SOL     OW26469   1.514   5.199   5.244  0.4716 -0.2089  0.0718
 7731SOL    HW126470   1.429   5.228   5.211  0.3943 -0.1050  0.3587
 7731SOL    HW226471   1.578   5.249   5.194  0.3380  0.4801  0.5828
 7732SOL     OW26472   9.027   4.813   3.904  0.0587 -0.3238  0.5911
 7732SOL    HW126473   9.002   4.790   3.815 -0.8857  0.3050  0.6765
 7732SOL    HW226474   9.120   4.836   3.898 -0.0638 -0.0049 -0.2896
 7733SOL     OW26475   4.852   1.741  11.157  0.3455  0.0193 -0.0049
 7733SOL    HW126476   4.940   1.779  11.158 -0.4586  2.0282  0.7425
 7733SOL    HW226477   4.833   1.726  11.065  1.1104  0.4922 -0.2492
 7734SOL     OW26478   6.903   4.148   8.130  0.3306 -0.3011 -0.1499
 7734SOL    HW126479   6.926   4.190   8.046 -0.6135  1.0911  0.2571
 7734SOL    HW226480   6.988   4.125   8.168  0.9185  1.3636 -0.3553
 7735SOL     OW26481   3.391   1.652   0.385  0.2168 -0.0839  0.3328
 7735SOL    HW126482   3.401   1.594   0.309  0.8366  1.5352 -0.9049
 7735SOL    HW226483   3.425   1.603   0.459  0.3747 -1.4130 -0.6013
 7736SOL     OW26484  10.447   4.530   0.395  0.1787 -0.1559 -0.6597
 7736SOL    HW126485  10.414   4.493   0.313 -2.9370 -1.3465  0.9793
 7736SOL    HW226486  10.425   4.623   0.391 -0.4411 -0.3129 -0.9438
 7737SOL     OW26487   1.489   1.599   0.955 -1.0623 -0.3490 -0.3569
 7737SOL    HW126488   1.447   1.656   0.891  0.9753  0.0352 -1.4491
 7737SOL    HW226489   1.465   1.511   0.928 -1.9741 -0.1079 -0.3423
 7738SOL     OW26490   3.932   1.688   3.323  0.8220 -0.5853  0.3719
 7738SOL    HW126491   3.854   1.700   3.377 -1.0986 -1.8140 -1.9189
 7738SOL    HW226492   3.975   1.611   3.360 -0.0448 -0.9505  0.6512
 7739SOL     OW26493   6.383   3.121   4.423  0.0505  0.2928 -0.2495
 7739SOL    HW126494   6.390   3.184   4.494  1.6858 -0.7491  0.5684
 7739SOL    HW226495   6.422   3.166   4.348  0.6796  0.4582  0.1739
 7740SOL     OW26496  10.744   0.172   7.898 -0.0046 -0.3464 -0.5467
 7740SOL    HW126497  10.661   0.194   7.941  0.3139 -1.2399  0.5618
 7740SOL    HW226498  10.719   0.115   7.826 -0.4729  0.5366 -1.1069
 7741SOL     OW26499   3.576   6.428   2.870  0.5625  0.4534 -0.3227
 7741SOL    HW126500   3.589   6.348   2.921 -1.5634  0.4518  0.3215
 7741SOL    HW226501   3.570   6.398   2.780 -0.3451 -0.1836 -0.0732
 7742SOL     OW26502   1.151   8.503   4.555  0.0952  0.0748 -0.0047
 7742SOL    HW126503   1.139   8.502   4.460  0.5814  3.2602 -0.2168
 7742SOL    HW226504   1.080   8.449   4.589  0.5229 -2.0012 -2.1711
 7743SOL     OW26505   9.419  10.193   8.925  0.2268 -0.0186 -0.1001
 7743SOL    HW126506   9.428  10.220   8.834 -1.0573 -0.2711 -0.3242
 7743SOL    HW226507   9.386  10.271   8.970  0.1414 -0.1148  0.0049
 7744SOL     OW26508   5.485  10.904   6.062 -0.3454 -0.2231  0.0432
 7744SOL    HW126509   5.515  10.931   5.975 -1.3320  0.0425 -0.2274
 7744SOL    HW226510   5.409  10.960   6.079  0.3287  0.3236  1.4433
 7745SOL     OW26511   0.338   6.861   2.384  0.0694  0.3877  0.0301
 7745SOL    HW126512   0.302   6.934   2.333 -1.0794  0.6239  1.1350
 7745SOL    HW226513   0.299   6.871   2.471  0.5626 -1.0564  0.4399
 7746SOL     OW26514  10.181  11.141   3.216 -0.2677  0.1389 -0.2888
 7746SOL    HW126515  10.200  11.183   3.132 -0.8779 -1.1318 -1.0996
 7746SOL    HW226516  10.264  11.144   3.264 -0.1376  1.6621 -0.5754
 7747SOL     OW26517   8.270   9.921   9.567 -0.0034  0.3124 -0.0129
 7747SOL    HW126518   8.211   9.845   9.566  0.3775 -0.0219  1.3023
 7747SOL    HW226519   8.215   9.993   9.600 -0.4277  0.6882 -1.4782
 7748SOL     OW26520   6.954  10.100  11.341 -0.0251  0.1748  0.0489
 7748SOL    HW126521   6.933  10.193  11.333 -2.0620 -0.2173  0.2830
 7748SOL    HW226522   7.048  10.096  11.325  0.3828  2.4285  1.2901
 7749SOL     OW26523   5.343   0.443   2.950  0.2983 -0.4136  0.3960
 7749SOL    HW126524   5.301   0.412   2.870  0.9313 -1.4700  0.4597
 7749SOL    HW226525   5.274   0.491   2.996 -0.0375  0.3343 -0.8336
 7750SOL     OW26526   5.402  11.001   2.559  0.0308 -0.5220  0.4771
 7750SOL    HW126527   5.477  10.947   2.534 -1.6632 -3.2673  0.8923
 7750SOL    HW226528   5.342  10.941   2.602 -1.9632  1.7860  1.1753
 7751SOL     OW26529   7.801  11.308  10.362  0.0963  0.1538 -0.7620
 7751SOL    HW126530   7.755  11.289  10.444 -1.0090 -1.3310 -1.6776
 7751SOL    HW226531   7.760  11.389  10.331  1.2680  1.3472  0.6352
 7752SOL     OW26532  11.245   0.284  10.182  0.5541 -0.1859  0.2052
 7752SOL    HW126533  11.315   0.331  10.137 -0.1356 -0.2299 -0.9489
 7752SOL    HW226534  11.227   0.336  10.260  0.1502  1.2201 -0.7950
 7753SOL     OW26535   2.513   3.864   3.690 -0.1474 -0.6286 -0.2944
 7753SOL    HW126536   2.532   3.771   3.702 -0.0958 -0.5067  0.6640
 7753SOL    HW226537   2.438   3.866   3.631 -0.0188 -1.2661 -0.4879
 7754SOL     OW26538   1.552   0.470   4.956  0.7140 -0.0794 -0.5325
 7754SOL    HW126539   1.560   0.565   4.961  1.7358 -0.1671 -0.2740
 7754SOL    HW226540   1.603   0.445   4.879  0.4091 -0.4119 -0.6312
 7755SOL     OW26541   1.794   0.791   5.451  0.5875 -0.5218 -0.3487
 7755SOL    HW126542   1.815   0.881   5.425 -1.0084 -0.2358 -0.7133
 7755SOL    HW226543   1.836   0.737   5.383  3.7343 -0.2808  1.2105
 7756SOL     OW26544   3.196   3.939   8.523 -0.0323 -0.0720  0.3839
 7756SOL    HW126545   3.134   3.940   8.596  0.7303 -1.0084  1.0643
 7756SOL    HW226546   3.160   3.875   8.462 -0.2454  0.1176  0.3074
 7757SOL     OW26547   7.001   7.043   3.328 -0.4160  0.4210  0.2885
 7757SOL    HW126548   6.977   7.128   3.364  3.1234  1.5597  0.3985
 7757SOL    HW226549   7.033   6.993   3.403  2.5759  1.0866 -0.4079
 7758SOL     OW26550  11.112   2.105   5.843 -0.1950  0.0933 -0.3259
 7758SOL    HW126551  11.168   2.127   5.769  2.5610 -0.1424  1.5631
 7758SOL    HW226552  11.148   2.024   5.878 -0.6888  0.7725  1.9403
 7759SOL     OW26553   2.088   2.166   3.982 -0.0512 -0.5131  0.5523
 7759SOL    HW126554   2.139   2.102   3.931 -0.2199  1.1002 -1.7897
 7759SOL    HW226555   2.140   2.246   3.977 -1.9639  0.7149 -0.4157
 7760SOL     OW26556   1.365   9.733   0.114 -0.7001 -0.2886 -0.0144
 7760SOL    HW126557   1.325   9.646   0.105 -0.6292 -0.2959 -0.2869
 7760SOL    HW226558   1.458   9.715   0.129 -0.3377 -0.2550 -1.9178
 7761SOL     OW26559   0.224   5.466   0.163  0.1945  0.5371 -0.1282
 7761SOL    HW126560   0.181   5.494   0.243  0.5414 -1.2810  0.7404
 7761SOL    HW226561   0.292   5.405   0.192 -0.7317 -1.4480 -1.9029
 7762SOL     OW26562   1.029   2.190   1.617 -0.5983 -0.1258 -0.3628
 7762SOL    HW126563   1.115   2.225   1.594  0.2316 -1.4471  0.5514
 7762SOL    HW226564   1.015   2.118   1.555 -0.7651 -0.3004 -0.1253
 7763SOL     OW26565   4.301   9.686   5.366  0.1691 -0.0182 -0.2769
 7763SOL    HW126566   4.269   9.774   5.384  1.8963  0.4973  0.4229
 7763SOL    HW226567   4.352   9.694   5.286  0.4707 -0.3504 -0.1224
 7764SOL     OW26568   4.633   8.093   4.230 -0.6435  0.2627  0.4982
 7764SOL    HW126569   4.555   8.041   4.248 -0.2140 -0.1874  1.0902
 7764SOL    HW226570   4.693   8.072   4.301  1.0629 -1.4577 -1.3330
 7765SOL     OW26571   7.900   3.757   8.554  0.0430  0.1915 -0.5450
 7765SOL    HW126572   7.851   3.687   8.511 -0.6247  0.8646 -0.9016
 7765SOL    HW226573   7.978   3.768   8.500 -0.4882  0.6017 -1.2526
 7766SOL     OW26574  10.846   2.741   6.926 -0.3118 -0.0394  0.4628
 7766SOL    HW126575  10.784   2.785   6.867 -1.1624 -2.0645 -0.2194
 7766SOL    HW226576  10.866   2.658   6.882  0.0023 -1.0660  2.4509
 7767SOL     OW26577   4.330   2.373   6.033  0.0041  0.3078  0.0370
 7767SOL    HW126578   4.285   2.316   5.970  1.6016  0.0983 -0.9648
 7767SOL    HW226579   4.407   2.324   6.059 -1.3470 -0.2574  3.4118
 7768SOL     OW26580   2.976   7.973  10.963  0.2070  0.1707  0.2741
 7768SOL    HW126581   2.941   7.884  10.972  1.2621 -0.2752  0.0691
 7768SOL    HW226582   2.988   7.984  10.869  0.6199  0.3145  0.3431
 7769SOL     OW26583   9.243   1.597   8.222 -0.2550  0.2088 -0.1409
 7769SOL    HW126584   9.212   1.546   8.147  0.6359  0.5965 -0.8021
 7769SOL    HW226585   9.338   1.586   8.221 -0.2691 -0.2540  1.2993
 7770SOL     OW26586  10.876   3.466   1.889 -0.3160 -0.0891 -0.2610
 7770SOL    HW126587  10.877   3.562   1.883  1.1553  0.0205  1.0699
 7770SOL    HW226588  10.816   3.439   1.820 -0.5917  1.7797 -0.8271
 7771SOL     OW26589   8.810   1.646   8.432  0.0224 -0.2804 -0.6794
 7771SOL    HW126590   8.768   1.563   8.453  2.0445 -1.0713  0.5316
 7771SOL    HW226591   8.738   1.705   8.410 -1.6781 -1.6220  1.0059
 7772SOL     OW26592   2.047  11.119   3.324  0.2537 -0.2456  0.2909
 7772SOL    HW126593   2.067  11.070   3.244 -0.4181  1.5013 -0.9874
 7772SOL    HW226594   1.960  11.157   3.308  0.6982  1.2528  1.2947
 7773SOL     OW26595   4.888   9.687  11.155  0.3911 -0.0002 -0.0173
 7773SOL    HW126596   4.915   9.706  11.245 -1.0510 -1.7373  0.8548
 7773SOL    HW226597   4.797   9.716  11.150 -0.5292 -2.6180  0.0968
 7774SOL     OW26598   1.314   0.021   1.376  0.0338  0.0011 -0.3615
 7774SOL    HW126599   1.307   0.012   1.471  0.7675  2.4715 -0.0058
 7774SOL    HW226600   1.228   0.052   1.349 -0.1433 -0.6039 -0.5017
 7775SOL     OW26601   7.784   5.386   2.183  0.2290  0.7597 -0.0638
 7775SOL    HW126602   7.770   5.330   2.259 -1.0181  1.6711  0.4075
 7775SOL    HW226603   7.698   5.393   2.142  0.4612  1.9193 -0.3901
 7776SOL     OW26604   8.122   1.766   7.118  0.8597  0.0178  0.6546
 7776SOL    HW126605   8.028   1.750   7.106  0.8308  1.0778 -0.7450
 7776SOL    HW226606   8.156   1.682   7.148  0.0547 -1.5645 -2.4291
 7777SOL     OW26607   8.708   3.634   2.060 -0.2654 -0.1751  0.4836
 7777SOL    HW126608   8.693   3.687   1.982 -1.2087  1.0075  1.4274
 7777SOL    HW226609   8.771   3.568   2.033 -0.1077  0.5945 -1.1027
 7778SOL     OW26610   7.098   8.732   7.201 -0.1011  0.0301 -0.6045
 7778SOL    HW126611   7.115   8.667   7.269 -0.0338 -0.4323 -1.0523
 7778SOL    HW226612   7.036   8.793   7.240  2.6844  1.9323  1.1884
 7779SOL     OW26613   9.637   5.347   4.053 -0.1954 -0.2149  0.0224
 7779SOL    HW126614   9.725   5.383   4.067 -0.5103  0.4498  0.3419
 7779SOL    HW226615   9.652   5.264   4.008  0.6090 -0.2054  0.2495
 7780SOL     OW26616   8.723   3.908   3.273  0.2808  0.0506 -0.0874
 7780SOL    HW126617   8.726   3.967   3.199 -1.3727 -0.3731 -0.5451
 7780SOL    HW226618   8.641   3.929   3.318 -0.2000 -1.6367 -0.0764
 7781SOL     OW26619   6.702   1.471   2.977  0.6953  0.1511  0.0579
 7781SOL    HW126620   6.743   1.454   2.892  1.3167  1.7054  0.0029
 7781SOL    HW226621   6.618   1.510   2.955 -0.5051 -2.2222  0.1788
 7782SOL     OW26622   3.615   3.873   8.062  0.3300  0.1751 -0.2359
 7782SOL    HW126623   3.637   3.940   8.126  1.8553  0.1831 -0.7148
 7782SOL    HW226624   3.560   3.918   7.998  3.9669  2.0693 -2.3822
 7783SOL     OW26625   3.554   1.510  10.459 -0.5776  0.4306 -0.1287
 7783SOL    HW126626   3.494   1.482  10.529  0.4608 -2.4807 -0.2469
 7783SOL    HW226627   3.502   1.566  10.403 -1.8858  1.6029  2.1349
 7784SOL     OW26628   5.214  11.308   1.812 -0.5191  0.6402 -0.3641
 7784SOL    HW126629   5.208  11.400   1.837  0.7911  0.8304 -0.6863
 7784SOL    HW226630   5.307  11.288   1.816 -0.7799 -0.6505 -0.3934
 7785SOL     OW26631   4.885   7.765   2.883 -0.3475 -0.1226  0.1199
 7785SOL    HW126632   4.864   7.722   2.966  0.7782  0.6680  0.8434
 7785SOL    HW226633   4.980   7.767   2.880 -0.3394  2.2432  0.1037
 7786SOL     OW26634   9.809  11.057   9.866  0.1597 -0.0831 -0.3143
 7786SOL    HW126635   9.744  10.994   9.834  1.7391 -2.4507  0.8105
 7786SOL    HW226636   9.806  11.049   9.961  2.4572 -0.7747 -0.2303
 7787SOL     OW26637   3.128   9.632   9.943  0.1982  0.3876  0.0549
 7787SOL    HW126638   3.135   9.709   9.999  0.3381  0.7681 -0.4779
 7787SOL    HW226639   3.136   9.558  10.003  0.1855  0.7862  0.5563
 7788SOL     OW26640   0.512   9.681   9.734 -0.3131 -0.5819 -0.4590
 7788SOL    HW126641   0.598   9.639   9.730 -0.8035 -1.5387 -1.9533
 7788SOL    HW226642   0.459   9.634   9.669 -0.9775  2.1931 -2.1267
 7789SOL     OW26643   4.583   1.492  10.882  0.4677 -0.0192 -0.4182
 7789SOL    HW126644   4.500   1.485  10.835  0.4621  3.4992 -1.2225
 7789SOL    HW226645   4.559   1.502  10.974 -0.0384  0.7800 -0.6242
 7790SOL     OW26646  10.102   5.122  10.289 -0.0077 -0.0993 -0.1108
 7790SOL    HW126647  10.069   5.128  10.199  0.5905 -1.7673 -0.4898
 7790SOL    HW226648  10.031   5.156  10.343 -1.0596 -0.6099 -1.1152
 7791SOL     OW26649   1.921   5.181  11.050  0.1548 -0.3249  0.3341
 7791SOL    HW126650   1.906   5.131  11.130  2.2245 -0.0686  0.9673
 7791SOL    HW226651   1.835   5.213  11.024 -0.5316 -0.0784  2.6955
 7792SOL     OW26652   3.355   9.309   1.788  0.4832 -0.3947 -0.0251
 7792SOL    HW126653   3.434   9.256   1.784  0.7456 -0.0187  0.0924
 7792SOL    HW226654   3.294   9.257   1.841  0.7273 -0.5893  0.0710
 7793SOL     OW26655   2.724  10.921   0.972 -0.4451 -0.5914 -0.0776
 7793SOL    HW126656   2.773  10.862   0.914  1.0743  0.4450  0.0908
 7793SOL    HW226657   2.751  10.895   1.060 -0.6253 -0.3799  0.0392
 7794SOL     OW26658  10.210   2.198   1.258  0.2987  0.2486 -0.1848
 7794SOL    HW126659  10.291   2.243   1.280  0.5244 -0.1251 -0.2510
 7794SOL    HW226660  10.216   2.181   1.165  0.6921 -0.8659  0.0336
 7795SOL     OW26661   9.168   4.377   1.098 -0.2365 -0.4166  0.3684
 7795SOL    HW126662   9.125   4.311   1.153  3.6249 -3.0787  0.5590
 7795SOL    HW226663   9.229   4.421   1.156  1.6712 -1.0995 -1.0204
 7796SOL     OW26664   7.287   4.212   9.378 -0.3813 -0.3903 -0.2842
 7796SOL    HW126665   7.292   4.276   9.307  0.6671 -1.2938 -1.0779
 7796SOL    HW226666   7.354   4.147   9.356 -2.2942 -2.5128 -0.2703
 7797SOL     OW26667   9.016   5.792   2.979 -0.2048 -0.0247  0.0256
 7797SOL    HW126668   9.063   5.868   2.944  0.4243  0.6595  2.1830
 7797SOL    HW226669   8.924   5.814   2.969 -0.1077 -0.2819 -1.9658
 7798SOL     OW26670   7.437   1.964   9.266  0.3275 -0.0328 -0.1883
 7798SOL    HW126671   7.518   1.951   9.315  0.6095 -2.1394 -1.1200
 7798SOL    HW226672   7.462   1.955   9.174 -0.6720  1.1189 -0.6150
 7799SOL     OW26673  10.225   6.471   1.501 -0.1416 -0.2727 -0.6184
 7799SOL    HW126674  10.236   6.412   1.576  2.7082  1.9630  0.9261
 7799SOL    HW226675  10.132   6.466   1.480 -0.8126 -2.0019  2.1964
 7800SOL     OW26676   1.955   4.575   2.085 -0.2946  0.3881  0.0377
 7800SOL    HW126677   2.044   4.544   2.067  0.7881  3.3416 -0.2604
 7800SOL    HW226678   1.926   4.522   2.160  1.2708 -1.3479 -0.4998
 7801SOL     OW26679   9.994   3.449   2.198 -0.7017  0.3642  0.1526
 7801SOL    HW126680   9.989   3.537   2.161 -2.8480 -0.2944 -1.3656
 7801SOL    HW226681   9.937   3.396   2.141 -0.0593 -1.8509  1.4397
 7802SOL     OW26682   5.899   3.834   7.461  0.7733 -0.0716 -0.0538
 7802SOL    HW126683   5.930   3.917   7.423 -0.7374  1.0186  0.9460
 7802SOL    HW226684   5.862   3.786   7.386 -0.4791  1.2297 -0.3313
 7803SOL     OW26685   8.256   9.300   2.937  0.1647 -0.2527 -0.2485
 7803SOL    HW126686   8.215   9.376   2.979 -0.4385 -1.1100  0.7799
 7803SOL    HW226687   8.229   9.225   2.991  3.4858 -0.8555  0.8390
 7804SOL     OW26688   9.575   6.713   8.599  0.2910 -0.1403  0.4273
 7804SOL    HW126689   9.670   6.720   8.603  0.1914  2.0805  0.0110
 7804SOL    HW226690   9.545   6.734   8.687  0.1267  1.3993  0.0311
 7805SOL     OW26691   5.359   5.075   3.881  0.5608 -0.7674 -0.0560
 7805SOL    HW126692   5.317   4.991   3.866  0.3449 -0.8399  0.8778
 7805SOL    HW226693   5.295   5.140   3.855  0.6216 -0.8916 -0.5139
 7806SOL     OW26694   0.894  10.787   8.061  0.4232 -0.3120 -0.2882
 7806SOL    HW126695   0.899  10.882   8.057  2.0186 -0.3604  0.0727
 7806SOL    HW226696   0.813  10.766   8.015  0.6041  1.1463 -1.3418
 7807SOL     OW26697   5.994   6.614   0.511  0.1644 -0.2962 -0.2787
 7807SOL    HW126698   6.085   6.643   0.498  0.3794 -0.2904  1.1577
 7807SOL    HW226699   5.977   6.627   0.604 -0.8186 -1.6886 -0.2245
 7808SOL     OW26700   0.270   3.453   7.954  0.2010 -0.0972 -0.2577
 7808SOL    HW126701   0.257   3.403   7.873  1.8258 -2.0699  0.6075
 7808SOL    HW226702   0.211   3.412   8.017 -0.9239  1.3177 -0.3553
 7809SOL     OW26703   0.583   2.632   9.057  0.3571  0.3910 -0.0240
 7809SOL    HW126704   0.620   2.677   8.980  1.6184  0.1858  0.4437
 7809SOL    HW226705   0.639   2.659   9.130  2.1744 -3.0489  0.0617
 7810SOL     OW26706   9.416  10.583   4.412  0.4731 -0.0714  0.3857
 7810SOL    HW126707   9.378  10.553   4.329 -0.6152  1.3390  0.3553
 7810SOL    HW226708   9.496  10.629   4.386 -0.7732  1.9183 -0.0855
 7811SOL     OW26709   5.342   6.685   6.683  0.1629  0.4511  0.0557
 7811SOL    HW126710   5.339   6.598   6.722 -1.6196  0.3156 -0.3295
 7811SOL    HW226711   5.430   6.717   6.704  0.5470 -1.0850  0.9419
 7812SOL     OW26712   2.357  10.191   5.587  0.1975  0.0987 -0.2074
 7812SOL    HW126713   2.325  10.271   5.545  0.3863  0.0116 -0.5166
 7812SOL    HW226714   2.396  10.140   5.516 -0.4467 -0.5347 -0.1117
 7813SOL     OW26715   8.052   2.785   2.729 -0.6858 -0.4329  0.2335
 7813SOL    HW126716   8.143   2.774   2.702 -0.2029 -0.2846  1.7113
 7813SOL    HW226717   8.018   2.695   2.735 -0.9049 -0.4526 -1.1493
 7814SOL     OW26718   7.522   1.378   5.431  0.3867 -0.4177 -0.4182
 7814SOL    HW126719   7.438   1.345   5.464 -0.4051  0.2457 -1.6700
 7814SOL    HW226720   7.506   1.394   5.338  1.5321  0.9232 -0.4076
 7815SOL     OW26721   2.610   5.757   0.716  0.0942  0.3270  0.0869
 7815SOL    HW126722   2.545   5.713   0.771  0.0349  1.3316  0.8514
 7815SOL    HW226723   2.636   5.834   0.767 -0.4969  1.6943 -1.6079
 7816SOL     OW26724   4.364   6.077   6.621 -0.4379  0.1783  0.0063
 7816SOL    HW126725   4.274   6.111   6.619 -0.4379  0.1301 -1.0056
 7816SOL    HW226726   4.364   6.016   6.695 -1.6154 -0.8265 -0.7912
 7817SOL     OW26727   2.447   2.969  10.240  0.2360  0.5482  0.0532
 7817SOL    HW126728   2.395   2.951  10.161  2.1944  0.2890 -1.2562
 7817SOL    HW226729   2.382   2.978  10.310 -1.5529  0.3179 -1.4869
 7818SOL     OW26730  11.327   9.383   8.423 -0.2856  0.1872  0.5681
 7818SOL    HW126731  11.322   9.386   8.328  0.6482 -0.3908  0.4904
 7818SOL    HW226732  11.278   9.305   8.448  1.7517 -1.2262  0.3432
 7819SOL     OW26733   9.552   6.724   6.597  0.8637 -0.7449  0.3524
 7819SOL    HW126734   9.510   6.809   6.585  0.9272 -0.8400 -0.6946
 7819SOL    HW226735   9.483   6.669   6.635  1.1858  0.0701  2.1987
 7820SOL     OW26736   2.147   5.858   7.823 -0.6212  0.2248 -0.2644
 7820SOL    HW126737   2.065   5.867   7.871 -0.2372 -0.4889  0.5617
 7820SOL    HW226738   2.207   5.817   7.886  0.4052  0.8445 -0.8070
 7821SOL     OW26739   6.034  10.280   4.813 -0.0273  0.6431 -0.5644
 7821SOL    HW126740   6.058  10.258   4.722  1.3030 -0.9722  0.1249
 7821SOL    HW226741   6.104  10.339   4.842 -0.5901  1.3624 -0.6572
 7822SOL     OW26742   2.692   7.195   3.692 -0.0192  0.5259 -0.0017
 7822SOL    HW126743   2.681   7.255   3.618  0.5937  0.7784  0.1050
 7822SOL    HW226744   2.665   7.110   3.658 -1.3640  0.9281 -0.0198
 7823SOL     OW26745   7.109   0.648   6.927  0.2094  0.4124 -0.1991
 7823SOL    HW126746   7.172   0.674   6.860  1.0495 -0.6922  0.1239
 7823SOL    HW226747   7.028   0.695   6.905  1.4290  2.7749  0.0125
 7824SOL     OW26748   0.867   8.793   8.434 -0.2941 -0.7367 -0.0487
 7824SOL    HW126749   0.909   8.736   8.370  0.2984 -0.0385 -0.2967
 7824SOL    HW226750   0.872   8.744   8.517  0.6764 -0.8362 -0.1472
 7825SOL     OW26751   2.521   8.412   6.692  0.0309 -0.1143 -0.4407
 7825SOL    HW126752   2.552   8.333   6.736 -0.5215  0.9995  2.1625
 7825SOL    HW226753   2.426   8.409   6.702  0.0134  0.9275 -0.1965
 7826SOL     OW26754   3.826  10.708  11.276  0.4336  0.3866 -0.0607
 7826SOL    HW126755   3.781  10.720  11.193 -0.1012  1.7563  0.4030
 7826SOL    HW226756   3.910  10.668  11.253  1.1063  2.4734 -1.4758
 7827SOL     OW26757  11.102   6.751   2.949  0.0544 -0.6334 -0.6133
 7827SOL    HW126758  11.059   6.682   2.899 -1.1334  0.5968 -1.3635
 7827SOL    HW226759  11.064   6.746   3.036  0.3773 -1.2638 -0.5041
 7828SOL     OW26760   6.237   4.157   2.872 -0.7711 -0.4859  0.3181
 7828SOL    HW126761   6.275   4.149   2.960 -2.0189  0.1515  0.9366
 7828SOL    HW226762   6.269   4.080   2.825  2.1254  0.5234  0.4547
 7829SOL     OW26763  10.196   8.225  11.327 -0.3249  0.3464  0.3792
 7829SOL    HW126764  10.195   8.129  11.320  1.1438  0.3725 -0.6720
 7829SOL    HW226765  10.108   8.252  11.299 -0.1148 -0.6114 -1.3628
 7830SOL     OW26766  10.899   6.812   6.571 -0.4637  0.8792 -0.3902
 7830SOL    HW126767  10.965   6.827   6.504 -1.0977  2.7503 -0.6666
 7830SOL    HW226768  10.927   6.867   6.645 -0.6080  0.0629  0.2804
 7831SOL     OW26769   9.303   6.830   8.220 -0.2337  0.2824  0.1833
 7831SOL    HW126770   9.334   6.916   8.249 -1.3571  0.9654 -0.5596
 7831SOL    HW226771   9.371   6.799   8.161  0.8161  0.0528  1.4734
 7832SOL     OW26772   7.346   3.864   4.659 -0.2774 -0.3982  0.3112
 7832SOL    HW126773   7.313   3.781   4.626 -0.7083 -0.2890  0.4530
 7832SOL    HW226774   7.305   3.930   4.602  0.4304 -0.3010 -0.1040
 7833SOL     OW26775   8.857   9.862   9.899  0.2690 -0.3500 -0.2324
 7833SOL    HW126776   8.937   9.810   9.904  1.1663  0.8486 -1.5024
 7833SOL    HW226777   8.807   9.820   9.828 -0.4073 -1.2853  0.7635
 7834SOL     OW26778   3.344   2.724   4.588  0.0039  0.0597 -0.1859
 7834SOL    HW126779   3.259   2.680   4.595  0.1415  0.0881  3.2288
 7834SOL    HW226780   3.408   2.652   4.582 -0.0825 -0.0670  0.3753
 7835SOL     OW26781  10.983   8.832   8.321 -0.2301 -0.1913 -0.0354
 7835SOL    HW126782  10.896   8.798   8.344 -0.2419 -0.3753 -0.3561
 7835SOL    HW226783  10.983   8.837   8.226 -0.0094  0.1350 -0.0207
 7836SOL     OW26784   1.286   6.360   3.211  0.5320 -0.4659 -0.1019
 7836SOL    HW126785   1.269   6.269   3.186  0.2488 -0.7308  0.9974
 7836SOL    HW226786   1.313   6.403   3.130 -2.4045 -0.7458 -1.3270
 7837SOL     OW26787   0.271   5.401  10.115 -0.0840  0.0583 -0.3216
 7837SOL    HW126788   0.319   5.473  10.157  0.6756 -0.7776  0.2775
 7837SOL    HW226789   0.235   5.440  10.035  0.5375  1.0379 -0.1457
 7838SOL     OW26790  10.607  11.046   3.672 -0.0279 -0.4859 -0.0118
 7838SOL    HW126791  10.607  11.079   3.762 -0.1129  0.0457 -0.1999
 7838SOL    HW226792  10.597  10.952   3.681 -1.0306 -0.3478  0.5065
 7839SOL     OW26793   2.495   2.090   0.146 -0.0362 -0.1725  0.1222
 7839SOL    HW126794   2.497   2.044   0.062 -1.2349 -0.8278  0.4286
 7839SOL    HW226795   2.587   2.093   0.173  0.3140 -0.4104 -0.9576
 7840SOL     OW26796   7.871   8.250   1.317  0.0242 -0.4011 -0.1696
 7840SOL    HW126797   7.781   8.257   1.349 -0.2562  0.2987 -1.0803
 7840SOL    HW226798   7.893   8.158   1.331  0.0379 -0.1065  2.2769
 7841SOL     OW26799   3.092  10.862   3.148  0.2488 -0.0276  0.4141
 7841SOL    HW126800   3.138  10.778   3.146  1.0370  0.3767  1.0801
 7841SOL    HW226801   3.020  10.849   3.210  0.1779 -0.3048  0.2729
 7842SOL     OW26802  10.533  10.619  10.336 -0.3824 -0.6548  0.4481
 7842SOL    HW126803  10.523  10.524  10.347  0.0075 -0.6505  0.8337
 7842SOL    HW226804  10.543  10.631  10.241 -2.1817 -0.8290  0.2045
 7843SOL     OW26805  10.343   8.745   6.775 -0.4578 -0.0609 -0.0937
 7843SOL    HW126806  10.339   8.682   6.847  0.1901  0.8113  0.7329
 7843SOL    HW226807  10.262   8.796   6.783 -0.2338  0.2464  0.2157
 7844SOL     OW26808   1.754   9.221   9.614  0.7103 -0.1743  0.5603
 7844SOL    HW126809   1.801   9.224   9.697 -1.1961  0.9030  1.6763
 7844SOL    HW226810   1.668   9.186   9.636 -0.0850  0.8192 -0.8206
 7845SOL     OW26811   8.221   2.709   4.416  0.0102 -0.5040 -0.2187
 7845SOL    HW126812   8.304   2.664   4.431  1.6229  2.2788 -0.0889
 7845SOL    HW226813   8.241   2.774   4.348 -1.8480  0.7706  0.3735
 7846SOL     OW26814   9.729   5.517  11.206 -0.6728 -0.3335 -0.6204
 7846SOL    HW126815   9.726   5.612  11.197 -0.8138 -0.3800 -1.0798
 7846SOL    HW226816   9.650   5.486  11.163 -1.6249 -0.5511  1.1698
 7847SOL     OW26817   7.277   2.066   6.637 -0.1080  0.2657  0.0577
 7847SOL    HW126818   7.259   1.974   6.659  0.6452 -0.5797 -2.5635
 7847SOL    HW226819   7.212   2.087   6.570  1.5744  0.6713 -1.5012
 7848SOL     OW26820   3.899  10.995   5.512  0.2384 -0.3925 -0.0978
 7848SOL    HW126821   3.893  10.961   5.601  0.9953  0.7658  0.4220
 7848SOL    HW226822   3.984  10.963   5.481  1.4588  1.7832  0.7801
 7849SOL     OW26823   6.331   2.948   0.873  0.6831 -0.1395 -0.0025
 7849SOL    HW126824   6.383   2.870   0.856 -0.1997 -1.1891  1.8382
 7849SOL    HW226825   6.246   2.929   0.834  1.2526  1.1300 -2.0483
 7850SOL     OW26826   1.746   4.251  11.231  0.0727  0.6870 -0.4028
 7850SOL    HW126827   1.799   4.180  11.268  0.1724  1.3543  0.7828
 7850SOL    HW226828   1.810   4.314  11.199  0.1113 -1.1243 -4.5404
 7851SOL     OW26829   8.065   2.054   1.358 -0.1917  0.3048  0.1597
 7851SOL    HW126830   8.127   1.989   1.326  1.6993  2.1909 -0.2388
 7851SOL    HW226831   7.985   2.038   1.308  0.5171 -1.1114 -0.5694
 7852SOL     OW26832   6.712   0.025   5.502 -0.0123  0.2592 -0.1181
 7852SOL    HW126833   6.718   0.118   5.523 -3.0479  1.0990 -2.2598
 7852SOL    HW226834   6.776   0.012   5.431  0.1408  0.7974 -0.0800
 7853SOL     OW26835   8.688   2.105  10.010  0.2190 -0.2576 -0.6145
 7853SOL    HW126836   8.776   2.124  10.044  0.2202 -2.1511  0.5667
 7853SOL    HW226837   8.685   2.151   9.926  2.8514 -1.1952 -1.3106
 7854SOL     OW26838   3.733  11.357   9.926  0.5106  0.0899 -0.5199
 7854SOL    HW126839   3.663  11.308   9.883  0.5131  0.3130 -0.7821
 7854SOL    HW226840   3.812  11.307   9.907  0.6295  0.5909 -1.4519
 7855SOL     OW26841   3.139   6.431   2.549 -0.0715 -0.0868 -0.1890
 7855SOL    HW126842   3.210   6.441   2.613 -0.3247 -0.8076  0.2208
 7855SOL    HW226843   3.062   6.411   2.603  0.1660 -3.0560 -0.8157
 7856SOL     OW26844   4.926   2.046   7.440 -0.3650  0.0024 -0.0655
 7856SOL    HW126845   4.894   1.995   7.514  0.2560 -1.1303 -0.5562
 7856SOL    HW226846   4.942   2.133   7.476 -1.9574  0.0307  0.6717
 7857SOL     OW26847   6.360   5.732   5.024  0.0409  0.0960 -0.6789
 7857SOL    HW126848   6.288   5.690   4.977 -0.8350 -1.6110  1.9542
 7857SOL    HW226849   6.320   5.772   5.100  1.5706  1.4706 -0.5450
 7858SOL     OW26850  10.735   2.362   1.993  0.5689  0.0976 -0.1214
 7858SOL    HW126851  10.738   2.414   1.913 -0.5319 -2.0935 -1.6813
 7858SOL    HW226852  10.641   2.347   2.008  0.8236 -0.6310  0.8360
 7859SOL     OW26853   6.208   0.380   7.931  0.2199  0.5506 -0.2328
 7859SOL    HW126854   6.224   0.459   7.878 -1.7744  0.9357 -0.3146
 7859SOL    HW226855   6.271   0.316   7.897  0.8591  1.6336 -1.1875
 7860SOL     OW26856   7.066   6.530   9.091  0.1575  0.0663  0.2939
 7860SOL    HW126857   7.093   6.580   9.168 -1.8558  1.6516  0.0630
 7860SOL    HW226858   7.026   6.595   9.033 -1.6643 -1.6407 -0.4868
 7861SOL     OW26859  10.847   7.543   3.093 -0.2193  0.2837  0.0511
 7861SOL    HW126860  10.877   7.538   3.002  0.5600  3.0160  0.0655
 7861SOL    HW226861  10.829   7.452   3.117  0.1385 -0.5936 -2.6183
 7862SOL     OW26862  10.333   8.263   7.301 -0.8612 -0.5610 -0.3865
 7862SOL    HW126863  10.238   8.269   7.307 -0.9043 -0.3932 -1.1384
 7862SOL    HW226864  10.352   8.170   7.311 -1.1541 -0.6671 -0.7742
 7863SOL     OW26865   7.301   4.501   6.469 -0.1679 -0.4923 -0.4403
 7863SOL    HW126866   7.218   4.519   6.512 -0.9234  0.6566 -2.2759
 7863SOL    HW226867   7.344   4.437   6.526 -0.8453  1.3164  2.2361
 7864SOL     OW26868  11.332   1.530   5.484 -0.1916  0.0389 -0.1392
 7864SOL    HW126869  11.373   1.606   5.442 -0.7198 -0.0304 -0.7935
 7864SOL    HW226870  11.241   1.535   5.457 -0.2140 -0.8787 -0.2579
 7865SOL     OW26871  11.270   4.929   5.354  0.0640  0.2339 -0.1454
 7865SOL    HW126872  11.209   4.858   5.333  0.2408 -1.0670  3.1302
 7865SOL    HW226873  11.216   4.994   5.400  0.5582  0.6159 -0.0986
 7866SOL     OW26874   0.139  10.218   3.280 -0.1267 -0.2758 -0.0084
 7866SOL    HW126875   0.180  10.160   3.215  2.1585  0.2156  0.8948
 7866SOL    HW226876   0.158  10.176   3.364  0.0474  0.8799  0.5433
 7867SOL     OW26877   2.622   7.972   2.857 -0.2235  0.3243  0.1247
 7867SOL    HW126878   2.679   7.927   2.795 -0.8725 -0.0875 -0.1840
 7867SOL    HW226879   2.681   8.001   2.927  0.0235 -2.6490  1.3180
 7868SOL     OW26880   6.956   3.470   6.536  0.2203 -0.2203  0.2860
 7868SOL    HW126881   6.892   3.510   6.596  0.1425  0.3566 -0.1701
 7868SOL    HW226882   6.904   3.436   6.464  0.1841 -2.0648  1.1282
 7869SOL     OW26883   5.125   9.943   7.294 -0.1550  0.3504  0.4226
 7869SOL    HW126884   5.175   9.932   7.213  0.0789  0.6986  0.5170
 7869SOL    HW226885   5.034   9.927   7.268 -0.1015  0.6241  0.0542
 7870SOL     OW26886   1.752  10.751   8.600  0.1662 -0.1972 -0.1570
 7870SOL    HW126887   1.682  10.816   8.603  0.2774 -0.1131  1.6835
 7870SOL    HW226888   1.714  10.676   8.554 -0.9657  0.0355  0.3755
 7871SOL     OW26889   8.918   6.523   3.832 -0.4585  0.0068 -0.9262
 7871SOL    HW126890   8.949   6.435   3.811  0.3699  0.9152 -4.0130
 7871SOL    HW226891   8.822   6.515   3.833 -0.3849 -1.0142 -0.5969
 7872SOL     OW26892   5.349  11.376   0.067  0.8138 -0.2992 -0.3569
 7872SOL    HW126893   5.432  11.331   0.079  0.7436 -0.0756  1.0627
 7872SOL    HW226894   5.294  11.313   0.022  1.3982 -0.8480 -0.3113
 7873SOL     OW26895   9.351   3.004   0.404  0.0681  0.5164  0.3390
 7873SOL    HW126896   9.342   2.968   0.492  1.4127  1.9330  1.0966
 7873SOL    HW226897   9.275   2.970   0.356 -1.0083  0.1832  2.1953
 7874SOL     OW26898   2.833  10.736   3.921  0.1334 -0.8033 -0.0901
 7874SOL    HW126899   2.787  10.779   3.849 -0.3530  2.1645  1.7922
 7874SOL    HW226900   2.784  10.655   3.935 -1.2183 -0.2968 -1.5624
 7875SOL     OW26901   5.112   0.594   8.697  0.4547 -0.6929  0.1287
 7875SOL    HW126902   5.055   0.554   8.631  1.1143 -0.7512 -0.4228
 7875SOL    HW226903   5.068   0.675   8.721  0.6052 -0.2513 -1.0147
 7876SOL     OW26904   9.246   9.273   0.453  0.3794  0.1441 -0.3726
 7876SOL    HW126905   9.327   9.279   0.403  0.2684 -0.8351 -0.6985
 7876SOL    HW226906   9.223   9.180   0.450 -0.1552  0.2264  0.6739
 7877SOL     OW26907   8.922   5.589  10.058 -0.0757 -0.0302  0.3346
 7877SOL    HW126908   8.954   5.643  10.130  0.3260 -0.8521  0.7990
 7877SOL    HW226909   8.853   5.640  10.018  0.1950  0.7601  0.8470
 7878SOL     OW26910   6.096   3.698  10.897  0.4803 -0.1502 -0.2010
 7878SOL    HW126911   6.066   3.630  10.957  1.3476 -1.4560 -1.2051
 7878SOL    HW226912   6.155   3.653  10.836 -0.9727  0.9209 -2.5463
 7879SOL     OW26913   1.140  10.460   9.153  0.4427  0.3160  0.5073
 7879SOL    HW126914   1.149  10.366   9.167 -2.7032  0.0973  1.8491
 7879SOL    HW226915   1.085  10.467   9.074 -0.7928  0.9157  1.3820
 7880SOL     OW26916  10.101   7.219   4.921  0.1980 -0.0286  0.1061
 7880SOL    HW126917  10.040   7.291   4.936  0.6890  0.2012  1.0387
 7880SOL    HW226918  10.185   7.262   4.904  0.5999 -0.3696  1.1486
 7881SOL     OW26919  11.089   6.636   1.844 -0.4307  0.8431 -0.2209
 7881SOL    HW126920  11.015   6.583   1.813 -0.2097 -0.6021  1.5763
 7881SOL    HW226921  11.079   6.638   1.939  0.5104  2.6986 -0.1225
 7882SOL     OW26922   9.329   1.905   4.439  0.9045 -0.1270 -0.3930
 7882SOL    HW126923   9.401   1.842   4.438  0.3853 -0.8253  1.1176
 7882SOL    HW226924   9.342   1.954   4.520  0.2300  0.3995 -0.5980
 7883SOL     OW26925   0.873   8.445   3.463  0.2182  0.0723  0.3735
 7883SOL    HW126926   0.859   8.351   3.448  2.1717 -0.2263  0.2246
 7883SOL    HW226927   0.785   8.479   3.481 -0.5947 -1.6983  0.0142
 7884SOL     OW26928   9.808   0.429   4.356 -0.0854  0.4395 -0.5618
 7884SOL    HW126929   9.789   0.523   4.357 -2.0859  0.0954  1.1014
 7884SOL    HW226930   9.834   0.410   4.446  0.1725 -0.6151 -0.8565
 7885SOL     OW26931   0.269   7.520   2.854  0.4763 -0.3376 -0.2598
 7885SOL    HW126932   0.261   7.488   2.764  0.7451 -0.4186 -0.2544
 7885SOL    HW226933   0.277   7.615   2.844  0.0968 -0.3077 -0.2983
 7886SOL     OW26934  11.123   7.262   1.222 -0.3569 -0.4908  0.3856
 7886SOL    HW126935  11.153   7.233   1.309  0.8202  0.0255  0.1754
 7886SOL    HW226936  11.117   7.181   1.171 -1.4736 -0.8531  1.0516
 7887SOL     OW26937  11.343   3.407   7.187  0.9710  0.2082  0.4023
 7887SOL    HW126938  11.403   3.364   7.126  0.7539 -0.1761  0.4566
 7887SOL    HW226939  11.398   3.430   7.262  1.0670 -0.0716  0.4192
 7888SOL     OW26940   9.977   2.145   6.465  0.0076  0.2637  0.0685
 7888SOL    HW126941   9.934   2.176   6.385  0.2280 -0.9348 -0.5340
 7888SOL    HW226942  10.000   2.054   6.447  0.9161  0.2472  1.1530
 7889SOL     OW26943   5.503   6.193   7.213  0.8396 -0.1425  0.1831
 7889SOL    HW126944   5.452   6.164   7.289 -0.9583  2.0429 -0.1022
 7889SOL    HW226945   5.594   6.192   7.244  0.4776 -2.0689  1.3984
 7890SOL     OW26946   7.579   8.215   7.873 -0.7736  0.2323  0.4671
 7890SOL    HW126947   7.595   8.136   7.926 -1.6621 -0.1972  0.1004
 7890SOL    HW226948   7.512   8.263   7.922 -1.2957  0.0372 -0.0560
 7891SOL     OW26949   6.031   5.121   5.664  0.5825  0.8738 -0.3085
 7891SOL    HW126950   6.059   5.198   5.616 -0.6166  0.8588 -1.0814
 7891SOL    HW226951   5.936   5.133   5.676  0.5108 -0.1088  0.2269
 7892SOL     OW26952   8.572   2.432   3.129  0.7203  0.5739  0.1643
 7892SOL    HW126953   8.665   2.445   3.143  1.4076  1.0344 -3.8756
 7892SOL    HW226954   8.563   2.339   3.105  0.3938  0.8796 -0.9465
 7893SOL     OW26955   8.472   6.456   8.788  0.0414 -0.7519 -0.1293
 7893SOL    HW126956   8.533   6.413   8.847 -0.0457 -1.7553 -0.7453
 7893SOL    HW226957   8.507   6.545   8.777  0.2021 -0.6397  1.1937
 7894SOL     OW26958   7.096  10.098   0.943  0.6155 -0.1578 -0.2071
 7894SOL    HW126959   7.066  10.045   0.869  1.4728 -0.6409 -0.2293
 7894SOL    HW226960   7.034  10.079   1.013 -0.1933  0.2881 -0.7802
 7895SOL     OW26961   1.467   5.901  10.968 -0.1792 -0.2312  0.2031
 7895SOL    HW126962   1.520   5.888  10.890 -0.4550  0.8902 -0.1857
 7895SOL    HW226963   1.379   5.916  10.936 -0.3381  0.0169  0.7403
 7896SOL     OW26964   1.091   3.497   4.062  0.0699  0.0027 -0.0847
 7896SOL    HW126965   1.000   3.500   4.032 -0.0407 -1.3121  0.0622
 7896SOL    HW226966   1.095   3.420   4.118  1.1718  0.3166  0.2840
 7897SOL     OW26967  11.223   1.017   2.490 -0.2120  0.0944  0.1787
 7897SOL    HW126968  11.188   0.934   2.459 -1.0884  0.5898 -0.2061
 7897SOL    HW226969  11.214   1.076   2.414  1.4744  0.2491  0.0521
 7898SOL     OW26970   5.491   3.775   2.634  0.4370 -0.7384 -0.0335
 7898SOL    HW126971   5.551   3.736   2.697 -0.1457 -3.0395 -0.7901
 7898SOL    HW226972   5.411   3.723   2.641 -1.1737  1.6372  0.2669
 7899SOL     OW26973   3.031   2.904   4.576  0.0623 -0.0414  0.1842
 7899SOL    HW126974   2.955   2.934   4.525 -0.5683 -0.3627  0.9251
 7899SOL    HW226975   3.046   2.815   4.545 -0.7661 -0.4940  1.0456
 7900SOL     OW26976   9.619   4.335   3.547 -0.9545  0.0741  0.5502
 7900SOL    HW126977   9.674   4.385   3.486 -2.3133 -0.1094 -0.9025
 7900SOL    HW226978   9.559   4.400   3.584 -0.1802  0.1719  1.6857
 7901SOL     OW26979   4.608   1.563   0.335  0.3948 -0.5699 -0.4486
 7901SOL    HW126980   4.559   1.637   0.299  0.2253  0.7718  2.2867
 7901SOL    HW226981   4.697   1.576   0.303  0.1263  0.1795 -0.9303
 7902SOL     OW26982   7.184   7.745   1.810  0.3890  0.1728  0.2287
 7902SOL    HW126983   7.220   7.697   1.736  0.4476 -1.2122  1.1145
 7902SOL    HW226984   7.095   7.710   1.820  0.7569 -0.4530  1.4693
 7903SOL     OW26985   3.189   5.650   7.135  0.5187  0.0712 -0.3777
 7903SOL    HW126986   3.130   5.592   7.087  1.5565  0.1325 -1.7548
 7903SOL    HW226987   3.277   5.618   7.114  1.0550 -0.9089  2.7242
 7904SOL     OW26988   0.092   2.830   5.719 -0.0031 -0.2826  0.3734
 7904SOL    HW126989   0.012   2.804   5.767 -0.1733 -0.0636  0.2076
 7904SOL    HW226990   0.163   2.812   5.781 -0.0241 -1.9716 -0.0329
 7905SOL     OW26991   4.645  10.906  11.392  0.2360 -0.1261 -0.1832
 7905SOL    HW126992   4.720  10.953  11.355 -0.1788  0.1652 -0.6698
 7905SOL    HW226993   4.683  10.828  11.431  0.7703 -0.1144 -0.6528
 7906SOL     OW26994   1.165   9.828   7.952  0.0156 -0.4505 -0.4731
 7906SOL    HW126995   1.234   9.812   8.016 -0.2240 -1.7395 -0.5013
 7906SOL    HW226996   1.212   9.851   7.872  0.3829 -0.6474 -0.3167
 7907SOL     OW26997  10.346   1.749   2.154 -0.1106  0.2271  0.2733
 7907SOL    HW126998  10.361   1.669   2.103  0.5902  0.9844 -0.7399
 7907SOL    HW226999  10.322   1.717   2.241 -0.8276 -1.0955 -0.3708
 7908SOL     OW27000   3.484   7.403   2.693 -0.3935 -0.0853 -0.2070
 7908SOL    HW127001   3.527   7.393   2.778 -2.4566  1.1704  1.0725
 7908SOL    HW227002   3.516   7.487   2.659  0.6810 -0.7390 -0.8739
 7909SOL     OW27003   6.321   8.793   9.860 -0.1456 -0.0296 -0.2219
 7909SOL    HW127004   6.394   8.821   9.915 -1.3474  3.0058  0.0267
 7909SOL    HW227005   6.348   8.708   9.825  2.0292 -0.5884  2.4804
 7910SOL     OW27006  10.637   2.410  11.223  0.1469 -0.0607 -0.3113
 7910SOL    HW127007  10.651   2.319  11.246  1.0499  0.3140  0.6887
 7910SOL    HW227008  10.724   2.446  11.209 -0.1758  0.7243 -0.4031
 7911SOL     OW27009   7.626  10.716   6.685  0.6531  0.5013 -0.0291
 7911SOL    HW127010   7.691  10.647   6.695  0.8236  0.8844  1.7382
 7911SOL    HW227011   7.562  10.701   6.755 -0.4793  0.8849 -0.9380
 7912SOL     OW27012   2.546   9.087   1.076 -0.3758 -0.0860  0.1162
 7912SOL    HW127013   2.473   9.036   1.111 -0.1009 -0.7223 -0.2105
 7912SOL    HW227014   2.622   9.028   1.085 -0.3861 -0.4766 -2.0168
 7913SOL     OW27015   0.332   5.655  10.761 -0.9655 -0.1163 -0.5762
 7913SOL    HW127016   0.372   5.651  10.674  0.0506  0.6910 -0.1649
 7913SOL    HW227017   0.251   5.705  10.747 -1.0340 -0.3702 -1.1293
 7914SOL     OW27018   3.646   2.959   6.412 -0.1780 -0.2389 -0.4939
 7914SOL    HW127019   3.689   3.022   6.354  0.2246 -1.1571 -1.2199
 7914SOL    HW227020   3.625   2.884   6.355  0.7314 -1.4094  0.6425
 7915SOL     OW27021  10.967  10.820   0.471  0.0660 -0.2596 -0.0122
 7915SOL    HW127022  10.877  10.847   0.456  0.7697  1.7353 -1.0174
 7915SOL    HW227023  10.981  10.834   0.564 -1.0424 -1.9520  0.4474
 7916SOL     OW27024   0.113  10.958   4.779 -0.3686 -0.2722  0.0848
 7916SOL    HW127025   0.130  11.036   4.832 -0.2030  1.0536 -1.8257
 7916SOL    HW227026   0.137  10.885   4.836  0.8087  1.1161  1.4645
 7917SOL     OW27027   5.666   1.837   7.743  0.5990 -0.0762 -0.2877
 7917SOL    HW127028   5.677   1.748   7.708  1.0051  0.2693 -1.0864
 7917SOL    HW227029   5.688   1.894   7.669 -0.4280  0.6931 -0.0217
 7918SOL     OW27030   1.108  11.244   8.063 -0.3742  0.2088  0.1990
 7918SOL    HW127031   1.200  11.216   8.063 -0.2612  0.5688  0.0090
 7918SOL    HW227032   1.059  11.167   8.034 -0.2850 -0.4631  1.7199
 7919SOL     OW27033   5.289   3.009   2.559 -0.0010  0.0399 -0.5935
 7919SOL    HW127034   5.220   3.004   2.494 -1.9957 -2.6184  1.4961
 7919SOL    HW227035   5.331   2.923   2.557  0.6208  0.2752  0.8309
 7920SOL     OW27036   4.160   2.191  10.705  0.3214  0.7318  0.2124
 7920SOL    HW127037   4.182   2.127  10.772 -0.1627  0.8191  0.4566
 7920SOL    HW227038   4.244   2.212  10.663  0.8187  1.5575  1.5643
 7921SOL     OW27039   6.678   2.653   9.232 -0.0179  0.0480  0.2254
 7921SOL    HW127040   6.613   2.601   9.280 -0.4331 -1.1886 -1.5603
 7921SOL    HW227041   6.760   2.604   9.242  0.9072  1.9199  2.9885
 7922SOL     OW27042  11.276   1.954   8.508  0.0699 -0.0287 -0.0560
 7922SOL    HW127043  11.310   1.919   8.426  0.2567  1.7381 -0.7781
 7922SOL    HW227044  11.346   1.938   8.572  0.7076  0.2503 -0.6737
 7923SOL     OW27045   6.572  10.524   8.306  0.4660  0.1511 -0.1392
 7923SOL    HW127046   6.547  10.554   8.393  1.9547  1.7139 -0.1883
 7923SOL    HW227047   6.534  10.589   8.246  0.4936 -0.2271 -0.5793
 7924SOL     OW27048   9.004   5.109   8.768 -0.4134  0.2063  0.0297
 7924SOL    HW127049   8.968   5.048   8.833 -0.1559  0.0038 -0.0165
 7924SOL    HW227050   9.098   5.110   8.785 -0.5691  1.7374  0.9968
 7925SOL     OW27051   3.656   0.521   5.261 -0.6404  0.0997 -0.0805
 7925SOL    HW127052   3.608   0.604   5.264  1.9266  1.7133 -0.9943
 7925SOL    HW227053   3.619   0.475   5.186 -0.6852  1.3682 -0.8623
 7926SOL     OW27054   8.675   4.585   6.234  0.3575 -0.2079  0.3221
 7926SOL    HW127055   8.677   4.680   6.235 -1.8302 -0.1259  1.2708
 7926SOL    HW227056   8.699   4.559   6.323 -0.8275 -0.4567  0.5841
 7927SOL     OW27057   5.053   5.102   5.849 -0.2249 -0.3596  0.4713
 7927SOL    HW127058   5.103   5.181   5.870  1.5892 -1.0217 -1.0187
 7927SOL    HW227059   5.107   5.056   5.784 -1.2277 -2.8102  1.2559
 7928SOL     OW27060  10.189   9.891   8.304 -0.5791  0.3688 -1.2869
 7928SOL    HW127061  10.197   9.959   8.370  0.8645 -2.3281  1.6179
 7928SOL    HW227062  10.268   9.900   8.250  0.7718 -0.2954  0.5025
 7929SOL     OW27063  10.287   1.847   1.410  0.4061  0.1240 -0.6150
 7929SOL    HW127064  10.327   1.916   1.357  1.0194 -0.4933 -0.9768
 7929SOL    HW227065  10.195   1.847   1.384 -0.0578  2.0956  0.7933
 7930SOL     OW27066   5.157   3.612   5.311  0.2103  0.4347 -0.1992
 7930SOL    HW127067   5.093   3.564   5.363  1.1680 -0.0947  0.5421
 7930SOL    HW227068   5.107   3.682   5.269 -1.1324 -0.9089 -0.9229
 7931SOL     OW27069   3.710   7.101   9.272 -0.0533 -0.4638  0.2419
 7931SOL    HW127070   3.752   7.048   9.340 -0.7252  0.4561  1.4040
 7931SOL    HW227071   3.713   7.190   9.306  1.9499  0.4693 -2.0971
 7932SOL     OW27072  10.569   6.896   4.916 -0.0024  0.8256  0.1011
 7932SOL    HW127073  10.474   6.901   4.905  0.2198  0.5817 -2.6004
 7932SOL    HW227074  10.599   6.840   4.844  2.1154  0.0206  1.4981
 7933SOL     OW27075   1.204   6.119   3.630 -0.3841  0.0511 -0.5530
 7933SOL    HW127076   1.188   6.213   3.638 -2.6975 -0.3286  0.1019
 7933SOL    HW227077   1.223   6.091   3.719 -2.6821 -0.4971 -0.1581
 7934SOL     OW27078  10.534  10.728   5.297  0.2477  0.2933 -0.2178
 7934SOL    HW127079  10.559  10.746   5.388 -2.2388  0.1017  0.5855
 7934SOL    HW227080  10.585  10.650   5.273  2.0126  1.1809  0.4644
 7935SOL     OW27081   2.857   1.552   3.597 -0.8279 -0.0674 -0.5893
 7935SOL    HW127082   2.770   1.524   3.568 -1.1468 -0.3385  0.5785
 7935SOL    HW227083   2.862   1.644   3.572 -2.0289  0.3523  0.5671
 7936SOL     OW27084  10.951  11.211   1.405 -0.5209 -0.5524 -0.2665
 7936SOL    HW127085  10.921  11.278   1.468 -1.0070 -2.7399  2.0061
 7936SOL    HW227086  10.899  11.134   1.427 -2.0776 -1.0096 -4.7025
 7937SOL     OW27087   2.254   2.918  10.053  0.2309  0.0124 -0.1273
 7937SOL    HW127088   2.194   2.948   9.985  0.2365  0.4805  0.0735
 7937SOL    HW227089   2.255   2.823  10.044 -0.4532  0.0110 -0.2061
 7938SOL     OW27090   0.131   3.784   6.091 -0.2498 -0.0307  0.2287
 7938SOL    HW127091   0.212   3.771   6.142  0.4001  2.3613 -0.0497
 7938SOL    HW227092   0.140   3.724   6.017  0.9228 -0.3283  0.5778
 7939SOL     OW27093   5.606   7.696   4.593 -0.2261 -0.1664 -0.4800
 7939SOL    HW127094   5.637   7.674   4.505 -1.1165  0.4107 -0.9619
 7939SOL    HW227095   5.527   7.749   4.577 -0.8049 -0.6619  0.6741
 7940SOL     OW27096   5.832   4.370   1.943 -0.7595 -0.1194 -0.0327
 7940SOL    HW127097   5.796   4.291   1.903 -1.1616  0.0574 -0.0233
 7940SOL    HW227098   5.826   4.354   2.038 -0.0973 -0.4068 -0.0303
 7941SOL     OW27099   5.303  10.512  11.059  0.0902  0.0094 -0.8975
 7941SOL    HW127100   5.259  10.463  11.129 -0.2349  0.9612 -0.4207
 7941SOL    HW227101   5.388  10.469  11.050  0.2995  0.1076  0.3559
 7942SOL     OW27102   1.637  10.260   2.144 -0.2910  0.4033 -0.0791
 7942SOL    HW127103   1.543  10.257   2.160 -0.4841 -1.3850 -1.2070
 7942SOL    HW227104   1.660  10.170   2.120  1.9131  0.5572  1.1917
 7943SOL     OW27105   6.794   4.365   0.095 -0.0891  0.4708 -0.1228
 7943SOL    HW127106   6.748   4.359   0.011  0.1831  1.0932 -0.3211
 7943SOL    HW227107   6.859   4.433   0.082 -1.2580  1.9031  1.1599
 7944SOL     OW27108  10.841   2.422   7.149 -0.5776 -0.0353 -0.0487
 7944SOL    HW127109  10.800   2.348   7.193 -2.0936  1.1979  0.6928
 7944SOL    HW227110  10.922   2.438   7.198 -1.2250  0.0281  1.0150
 7945SOL     OW27111   7.183   8.570   1.991  0.7973 -0.2746 -0.4360
 7945SOL    HW127112   7.166   8.595   1.900 -0.9654  0.4294  0.0289
 7945SOL    HW227113   7.242   8.637   2.024  0.4445  0.1828 -0.7197
 7946SOL     OW27114   1.168   6.275   9.469 -1.1913 -0.0556 -0.0827
 7946SOL    HW127115   1.084   6.270   9.423 -0.7501 -1.8557 -0.8101
 7946SOL    HW227116   1.220   6.205   9.429  0.5268  0.7751  0.6193
 7947SOL     OW27117   3.055   2.892   1.347 -0.1299 -0.2482  0.5876
 7947SOL    HW127118   2.991   2.850   1.290  0.1888 -0.3669  0.3145
 7947SOL    HW227119   3.139   2.852   1.324  0.5121  1.8667 -1.0579
 7948SOL     OW27120   2.991   6.101   4.069  0.1787 -0.2567  0.0252
 7948SOL    HW127121   3.062   6.043   4.095 -1.0763 -2.0133 -0.2288
 7948SOL    HW227122   3.026   6.151   3.996  1.0420 -1.3504 -0.3392
 7949SOL     OW27123   4.933   3.346   2.933 -0.8622 -0.3065  0.1522
 7949SOL    HW127124   4.914   3.374   2.844 -0.5211 -0.0051  0.1708
 7949SOL    HW227125   4.891   3.410   2.989 -0.1806  0.1190  0.1953
 7950SOL     OW27126  10.139   3.173   0.672  0.7551  0.0674 -0.0274
 7950SOL    HW127127  10.050   3.150   0.646  0.2067 -1.0146  2.5163
 7950SOL    HW227128  10.163   3.246   0.615 -1.4448 -0.1243 -1.2885
 7951SOL     OW27129   8.023   4.674   8.530  0.1715 -0.3089  0.5359
 7951SOL    HW127130   8.091   4.625   8.576 -0.6575 -0.8406  1.2483
 7951SOL    HW227131   7.973   4.607   8.484 -0.5975 -0.0754  1.0115
 7952SOL     OW27132   9.850   7.589   6.793 -0.3592  0.0035  0.0529
 7952SOL    HW127133   9.873   7.496   6.791 -1.9551 -0.4294  0.2615
 7952SOL    HW227134   9.891   7.625   6.715 -2.2381 -1.5475 -1.7634
 7953SOL     OW27135   8.832   5.168   6.778 -0.3334  0.6025 -0.1730
 7953SOL    HW127136   8.817   5.238   6.715  2.9283  0.3546 -1.4026
 7953SOL    HW227137   8.902   5.116   6.740 -0.5850 -1.5883  2.1122
 7954SOL     OW27138   8.304   7.265   7.692 -0.0504 -0.1356  0.3778
 7954SOL    HW127139   8.342   7.179   7.674  1.9801  0.7166  0.4099
 7954SOL    HW227140   8.376   7.327   7.681 -1.5645  1.6402 -0.1042
 7955SOL     OW27141   6.767   6.067   0.057  0.2265  0.2806 -0.1875
 7955SOL    HW127142   6.757   6.075  -0.038  0.3131  2.3479 -0.0770
 7955SOL    HW227143   6.745   6.154   0.090  1.6159  0.0071  1.5638
 7956SOL     OW27144   5.144  11.152   4.667  0.1839 -0.1074 -0.1100
 7956SOL    HW127145   5.230  11.190   4.688  0.0423 -0.8057  1.9707
 7956SOL    HW227146   5.085  11.189   4.732 -0.4178 -2.0416  0.5201
 7957SOL     OW27147   9.290   3.603   2.751 -0.1447 -0.2028 -0.0142
 7957SOL    HW127148   9.296   3.698   2.754 -0.8013 -0.1647  0.3104
 7957SOL    HW227149   9.263   3.578   2.840  0.0471 -0.6914 -0.0895
 7958SOL     OW27150   9.146   3.655   3.510 -0.1984 -0.0060  0.3129
 7958SOL    HW127151   9.125   3.562   3.517  0.6145 -0.4758 -2.2479
 7958SOL    HW227152   9.076   3.691   3.456  0.5555  0.3881 -0.4316
 7959SOL     OW27153   5.961   8.438   8.566 -0.0479 -0.3789 -0.2358
 7959SOL    HW127154   5.994   8.485   8.642 -0.5392 -1.8773  0.9581
 7959SOL    HW227155   5.866   8.449   8.570  0.0100  0.7789 -1.5117
 7960SOL     OW27156   6.294   9.088   0.340 -0.5654  0.0551  0.0566
 7960SOL    HW127157   6.258   9.018   0.286  0.3845 -0.1295 -0.3525
 7960SOL    HW227158   6.381   9.057   0.365 -0.9077  0.2190  1.5339
 7961SOL     OW27159   9.520  11.187   1.197  0.1443  0.3200 -0.2826
 7961SOL    HW127160   9.586  11.176   1.265 -0.5584  1.5489  0.6421
 7961SOL    HW227161   9.442  11.144   1.232 -0.4190  1.5445  0.0243
 7962SOL     OW27162   0.902   5.213   8.756  0.5511 -0.1466  0.0544
 7962SOL    HW127163   0.923   5.230   8.848  0.1839  0.5515  0.0106
 7962SOL    HW227164   0.824   5.266   8.738  0.0886 -0.9567 -0.4178
 7963SOL     OW27165   1.839  10.812  11.014 -0.3499  0.7156  0.1061
 7963SOL    HW127166   1.930  10.830  11.035  0.3271  1.2317 -2.8738
 7963SOL    HW227167   1.791  10.830  11.095  2.1643  0.3642  1.7631
 7964SOL     OW27168   1.913   5.375   4.946  0.4059 -0.0433  0.5195
 7964SOL    HW127169   1.982   5.309   4.957 -0.0799 -0.6923 -0.1766
 7964SOL    HW227170   1.909   5.389   4.851 -2.5399 -2.3938  0.1543
 7965SOL     OW27171   0.656   1.319   0.546  0.1218 -0.2954 -0.3240
 7965SOL    HW127172   0.740   1.362   0.563  0.4397 -0.8297 -0.5245
 7965SOL    HW227173   0.637   1.338   0.454 -0.3099  0.3852 -0.1019
 7966SOL     OW27174   7.384   4.252   5.788 -0.0756 -0.3117 -0.0865
 7966SOL    HW127175   7.428   4.276   5.869 -1.8127 -1.7133  1.3470
 7966SOL    HW227176   7.455   4.229   5.728  1.1914 -1.3763  1.7516
 7967SOL     OW27177   8.141  10.188   8.362  0.6927  0.0517 -0.1884
 7967SOL    HW127178   8.194  10.193   8.442  1.6841 -0.6735 -0.7719
 7967SOL    HW227179   8.062  10.141   8.388  0.2659  1.1976  0.7126
 7968SOL     OW27180   3.755   5.651   8.832  0.6485 -0.5818  0.0327
 7968SOL    HW127181   3.668   5.627   8.864  0.4033 -0.1272 -0.2865
 7968SOL    HW227182   3.753   5.747   8.824  1.5615 -0.4449  1.1428
 7969SOL     OW27183   6.420   7.290   4.925 -0.0131  0.3236  0.2112
 7969SOL    HW127184   6.392   7.202   4.902 -1.6440  1.2376 -1.6655
 7969SOL    HW227185   6.406   7.297   5.019 -1.9890 -0.7263  0.0281
 7970SOL     OW27186  10.857   4.030   7.164  0.2010 -0.6894 -0.2355
 7970SOL    HW127187  10.773   4.065   7.193 -0.5375 -0.9376 -1.9818
 7970SOL    HW227188  10.884   3.971   7.235 -0.3414  0.5173  1.0275
 7971SOL     OW27189   8.836   3.736   9.331  0.5850  0.8503  0.6839
 7971SOL    HW127190   8.921   3.693   9.346 -0.0113 -0.4149  0.5877
 7971SOL    HW227191   8.775   3.663   9.319 -0.2351  1.7463 -0.8418
 7972SOL     OW27192   3.321   9.360   5.890 -0.0052  0.3389  0.1849
 7972SOL    HW127193   3.266   9.403   5.825  0.2814 -0.5466 -0.6735
 7972SOL    HW227194   3.267   9.359   5.969 -0.4573  1.2128 -0.0957
 7973SOL     OW27195   3.627   2.796   2.826  0.2419 -0.1455  0.3253
 7973SOL    HW127196   3.670   2.776   2.910  0.5041  0.8765  0.4412
 7973SOL    HW227197   3.698   2.794   2.762  0.1243 -0.4075  0.1981
 7974SOL     OW27198   0.610  10.598   4.967  0.0017  0.2941  0.0292
 7974SOL    HW127199   0.600  10.686   5.003 -0.7066 -0.2328  1.2017
 7974SOL    HW227200   0.568  10.541   5.032 -0.7783 -0.7729 -1.3556
 7975SOL     OW27201   4.998   0.730   9.159  0.2313 -0.6698  0.3500
 7975SOL    HW127202   4.944   0.651   9.149 -1.4543  0.3322  1.1116
 7975SOL    HW227203   4.970   0.787   9.088  0.0996 -0.0441  0.8941
 7976SOL     OW27204   2.388   2.642   3.507 -0.4149  0.2129 -0.0459
 7976SOL    HW127205   2.323   2.584   3.468 -1.0532  1.2217 -0.5414
 7976SOL    HW227206   2.395   2.716   3.446  1.9576 -0.3201 -0.5073
 7977SOL     OW27207   1.478   5.477   1.159  0.4646  0.1416  0.0206
 7977SOL    HW127208   1.434   5.561   1.146  0.6055  0.4915  1.5461
 7977SOL    HW227209   1.465   5.430   1.077 -1.2692  0.9137 -0.2046
 7978SOL     OW27210   5.927   1.103   6.275  0.3617  0.6392 -0.0082
 7978SOL    HW127211   5.947   1.195   6.258  0.8208 -0.0425 -4.1484
 7978SOL    HW227212   5.841   1.089   6.236  0.4429 -0.7774  0.2646
 7979SOL     OW27213   1.334   4.686   6.516 -0.4186  0.3735 -0.5092
 7979SOL    HW127214   1.364   4.605   6.558  2.8545  0.9865 -1.3884
 7979SOL    HW227215   1.258   4.659   6.463  1.0476 -2.3346 -1.4093
 7980SOL     OW27216   3.673   4.291   9.491  0.2076 -0.6637  0.4205
 7980SOL    HW127217   3.652   4.384   9.495 -0.6067 -0.7702 -0.8838
 7980SOL    HW227218   3.601   4.252   9.442  1.1276 -1.7919 -0.0838
 7981SOL     OW27219  10.839   0.852   8.059  0.1452  0.1845 -0.2473
 7981SOL    HW127220  10.775   0.919   8.034 -2.0243 -1.2502  1.0531
 7981SOL    HW227221  10.838   0.789   7.988  0.9203  0.6615 -0.6950
 7982SOL     OW27222   8.462   9.021   0.709  0.3692 -0.0142 -0.0283
 7982SOL    HW127223   8.393   9.012   0.774 -1.2888  1.3511 -1.5195
 7982SOL    HW227224   8.417   9.023   0.625  2.4815 -2.4498 -1.3722
 7983SOL     OW27225   6.270   6.184   6.730  0.2002  0.0239 -0.3392
 7983SOL    HW127226   6.176   6.166   6.722 -0.0311  1.0917 -0.3102
 7983SOL    HW227227   6.276   6.280   6.723  0.9619  0.2916  2.5425
 7984SOL     OW27228  10.084   7.700  11.381  0.3696  0.2090  0.2529
 7984SOL    HW127229  10.128   7.627  11.425  0.7520  0.8981  1.0419
 7984SOL    HW227230   9.991   7.688  11.401  0.4871  0.2221  0.8107
 7985SOL     OW27231   9.979   5.225   4.144 -0.4589  0.2940 -0.0731
 7985SOL    HW127232  10.031   5.259   4.216 -0.7184 -0.7372  0.6169
 7985SOL    HW227233   9.948   5.139   4.174 -0.1573 -0.3920 -1.5982
 7986SOL     OW27234   7.244   4.430   5.639  0.2561  0.6559  0.1500
 7986SOL    HW127235   7.292   4.357   5.678  0.0929  0.0091 -0.8077
 7986SOL    HW227236   7.223   4.488   5.712  1.5253  0.3973  0.7432
 7987SOL     OW27237  10.448   9.900   3.495 -0.3618 -0.1165 -0.4956
 7987SOL    HW127238  10.508   9.867   3.428 -0.3313  0.5290 -0.7900
 7987SOL    HW227239  10.498   9.898   3.576  0.3402  1.1520 -0.8675
 7988SOL     OW27240  10.450   9.612   2.305 -0.6113  0.1919 -0.2558
 7988SOL    HW127241  10.533   9.567   2.318 -0.5451  0.1527 -0.7663
 7988SOL    HW227242  10.402   9.600   2.387 -0.3340 -0.2518 -0.1576
 7989SOL     OW27243   8.461   6.221   2.337  0.5654  0.2853  0.1192
 7989SOL    HW127244   8.384   6.190   2.386  0.5576 -1.4190 -0.8782
 7989SOL    HW227245   8.425   6.249   2.253  0.8188  1.3315  0.3507
 7990SOL     OW27246  10.510   8.678   8.927  0.6367  0.0569  0.4493
 7990SOL    HW127247  10.590   8.637   8.894  0.9511  0.3046  0.9027
 7990SOL    HW227248  10.468   8.715   8.849  0.2018 -1.3475 -0.0299
 7991SOL     OW27249   3.403   1.224  10.821  0.1042 -0.4021 -0.0628
 7991SOL    HW127250   3.486   1.271  10.832 -0.2164 -0.3987  3.2969
 7991SOL    HW227251   3.336   1.283  10.855 -1.1511 -1.0007 -1.3443
 7992SOL     OW27252  10.967   6.268   5.682  0.3802  0.5034 -0.3526
 7992SOL    HW127253  10.948   6.361   5.694  2.4000  0.8357  0.5745
 7992SOL    HW227254  10.967   6.232   5.770  2.7898  0.3127 -0.3835
 7993SOL     OW27255   3.665   7.789  10.571 -0.2395 -0.4154  0.1527
 7993SOL    HW127256   3.597   7.856  10.577 -0.7332 -0.9715  1.0224
 7993SOL    HW227257   3.689   7.771  10.662  1.6170  0.2915 -0.1452
 7994SOL     OW27258   4.960   4.883   9.923  0.1117  0.0923 -0.7658
 7994SOL    HW127259   5.051   4.886   9.951 -0.3129  0.6830  0.6368
 7994SOL    HW227260   4.942   4.971   9.890 -0.4845  0.6027  0.8323
 7995SOL     OW27261   9.292   1.029   7.301 -0.2140 -0.0094 -0.1009
 7995SOL    HW127262   9.245   1.111   7.286  0.1927 -0.0456 -1.7681
 7995SOL    HW227263   9.365   1.032   7.239  0.1817 -1.3389  0.2758
 7996SOL     OW27264   4.428   0.975   9.097 -0.1672 -0.3336  0.4748
 7996SOL    HW127265   4.419   1.068   9.118 -2.0222 -0.3580 -0.0610
 7996SOL    HW227266   4.517   0.967   9.064  0.6682  0.8842  2.2431
 7997SOL     OW27267   1.250   2.795   5.185  1.0216 -0.4405  0.0833
 7997SOL    HW127268   1.268   2.886   5.159  1.0695 -0.5299 -0.1947
 7997SOL    HW227269   1.270   2.793   5.279 -0.6451  0.2839  0.5034
 7998SOL     OW27270   5.972   9.919   7.166  0.9588  0.1308  0.1990
 7998SOL    HW127271   5.893   9.899   7.217  0.4441  0.1807 -0.5733
 7998SOL    HW227272   5.988  10.012   7.183  1.3356 -0.0668  1.0046
 7999SOL     OW27273  11.072   2.395   7.681  0.0160 -0.1682 -0.1929
 7999SOL    HW127274  11.141   2.404   7.616 -0.9881  2.5793 -1.0296
 7999SOL    HW227275  11.083   2.470   7.739 -1.9774  0.1042 -0.0994
 8000SOL     OW27276   7.915  11.349   8.353  1.2863 -0.2034  0.1501
 8000SOL    HW127277   7.880  11.351   8.442  1.0109 -0.2103  0.0407
 8000SOL    HW227278   7.890  11.262   8.319  0.0037  0.3899 -0.4963
 8001SOL     OW27279   7.731   8.946   2.632  0.2813  0.2782  0.4893
 8001SOL    HW127280   7.824   8.942   2.611  0.6160 -0.7949  2.0765
 8001SOL    HW227281   7.724   9.013   2.700  0.0095 -0.1648  0.9040
 8002SOL     OW27282  10.766   3.646   1.421  0.0990  0.1953 -0.1824
 8002SOL    HW127283  10.739   3.642   1.513 -0.0162  2.3319 -0.0777
 8002SOL    HW227284  10.861   3.650   1.424  0.1503 -0.6696 -0.2351
 8003SOL     OW27285   8.785   4.729   4.284  0.9183  0.5372  0.0946
 8003SOL    HW127286   8.694   4.702   4.273  0.8832  0.6036  0.2171
 8003SOL    HW227287   8.825   4.658   4.335  1.1318  0.1305 -0.6099
 8004SOL     OW27288   9.272   2.987  11.104  0.2803 -0.0753 -0.4557
 8004SOL    HW127289   9.302   3.018  11.019 -1.6593 -1.0063 -1.5549
 8004SOL    HW227290   9.176   2.995  11.100 -0.0066 -2.1701  0.7770
 8005SOL     OW27291   9.399   7.042   4.921  0.7463  0.0525  0.0279
 8005SOL    HW127292   9.427   7.082   5.003  0.5949 -0.9046  0.5577
 8005SOL    HW227293   9.304   7.034   4.929  0.7304 -0.0413 -0.2463
 8006SOL     OW27294  11.039   8.941   3.037 -0.4014 -0.3356  0.2847
 8006SOL    HW127295  10.951   8.927   3.072 -0.6929 -4.3031 -1.4605
 8006SOL    HW227296  11.072   8.853   3.020  2.1026  1.0605 -3.3406
 8007SOL     OW27297   4.483   2.421   8.804 -0.0049 -0.0648  0.1564
 8007SOL    HW127298   4.470   2.471   8.884 -0.9217 -2.4518  1.6142
 8007SOL    HW227299   4.424   2.460   8.740  0.5405  1.7126  0.6819
 8008SOL     OW27300   2.811   6.013   0.599 -0.0716 -0.1781  1.0912
 8008SOL    HW127301   2.814   6.108   0.593 -0.7985 -0.2005  0.1536
 8008SOL    HW227302   2.722   5.993   0.628  0.0761 -0.5800  1.2862
 8009SOL     OW27303   5.708   2.998   6.330  0.0802 -0.0114 -0.7077
 8009SOL    HW127304   5.706   3.070   6.392  1.9039  0.4014 -1.0653
 8009SOL    HW227305   5.778   3.021   6.269 -0.0249 -1.5712 -1.4672
 8010SOL     OW27306   8.066   9.062   5.701  0.0252 -0.0216  0.1255
 8010SOL    HW127307   8.021   8.978   5.707  1.8593 -1.0675  0.2553
 8010SOL    HW227308   8.037   9.100   5.618 -1.7099 -0.1995  0.6087
 8011SOL     OW27309   4.112   4.428   7.232  0.2205 -0.0391 -0.1630
 8011SOL    HW127310   4.051   4.427   7.158 -0.3640 -2.0725  0.2861
 8011SOL    HW227311   4.195   4.399   7.195  0.9692  2.6153 -0.7501
 8012SOL     OW27312  10.171   3.462   2.378  0.2325 -0.0455 -0.6785
 8012SOL    HW127313  10.106   3.452   2.309 -2.5572  0.6138  1.6575
 8012SOL    HW227314  10.233   3.391   2.363  0.1477  0.4437 -4.1363
 8013SOL     OW27315   0.697   3.063   4.500  0.2112  0.0161 -0.4213
 8013SOL    HW127316   0.605   3.090   4.503  0.1975 -0.0685 -0.1097
 8013SOL    HW227317   0.742   3.139   4.461 -0.1118 -0.2863 -1.4102
 8014SOL     OW27318   5.917   4.761   6.781  0.2024  0.4431 -0.1709
 8014SOL    HW127319   5.872   4.843   6.800 -2.8353 -0.5303 -2.4441
 8014SOL    HW227320   5.892   4.702   6.853 -0.9544  0.3723 -0.6134
 8015SOL     OW27321  10.310   7.111   1.371  0.1202 -0.2981 -0.6895
 8015SOL    HW127322  10.222   7.138   1.344 -0.6901 -1.2478  0.8349
 8015SOL    HW227323  10.309   7.015   1.363  1.5274 -0.2540 -2.0039
 8016SOL     OW27324   5.029   3.188   6.745 -0.6245 -0.7336 -0.2781
 8016SOL    HW127325   4.964   3.141   6.692 -1.0029 -0.3014 -0.2071
 8016SOL    HW227326   5.094   3.218   6.681 -0.9833 -0.3738 -0.4801
 8017SOL     OW27327   6.833   1.791   1.195 -0.1084  0.3525  0.6829
 8017SOL    HW127328   6.885   1.831   1.126  1.5503 -0.0009  1.6428
 8017SOL    HW227329   6.776   1.860   1.227 -0.0008  0.8558 -0.2006
 8018SOL     OW27330   6.878   7.316   7.588 -0.2442  0.0215  0.1297
 8018SOL    HW127331   6.939   7.242   7.582 -0.3089 -0.0010 -0.3159
 8018SOL    HW227332   6.858   7.337   7.497  0.8677  1.4944  0.1834
 8019SOL     OW27333   6.628   2.750   7.332 -0.5611  0.2357  0.7829
 8019SOL    HW127334   6.622   2.682   7.265  0.7195 -0.4405  1.3146
 8019SOL    HW227335   6.716   2.785   7.322  0.6578 -1.6047  3.6625
 8020SOL     OW27336   5.036   7.531   3.437 -0.5582  0.3781  0.3217
 8020SOL    HW127337   4.993   7.490   3.513  0.3851  2.2104  1.9553
 8020SOL    HW227338   5.004   7.481   3.362  0.1849 -3.0363  2.0574
 8021SOL     OW27339   8.525   4.650   4.164 -0.4851  0.1887  0.4821
 8021SOL    HW127340   8.448   4.703   4.145 -0.4592 -0.2726 -1.0768
 8021SOL    HW227341   8.535   4.593   4.087  1.8778  0.7956  0.2430
 8022SOL     OW27342   4.523  10.116   1.482  0.1059  0.3657  0.0056
 8022SOL    HW127343   4.448  10.145   1.430 -0.6650 -1.1649  0.2134
 8022SOL    HW227344   4.594  10.105   1.418 -0.1468  0.8026 -0.3525
 8023SOL     OW27345   6.941   6.187   0.278  0.0466  0.2144  0.4688
 8023SOL    HW127346   6.998   6.118   0.247  0.3545  0.3540  0.7193
 8023SOL    HW227347   6.968   6.265   0.229 -2.7251 -0.5392 -2.6378
 8024SOL     OW27348   2.766   1.234   6.813  0.4865 -0.0425  0.0273
 8024SOL    HW127349   2.809   1.319   6.821  2.9239 -0.8438 -2.8363
 8024SOL    HW227350   2.686   1.251   6.765  0.1196  0.7995  0.9053
 8025SOL     OW27351   2.299   4.319   4.404 -0.0441  0.0142 -0.1218
 8025SOL    HW127352   2.366   4.364   4.351 -3.1067  1.2033 -3.3592
 8025SOL    HW227353   2.248   4.269   4.340 -1.3029 -2.1847  2.4358
 8026SOL     OW27354  10.671   5.327  11.243  0.0391 -0.0391 -0.3050
 8026SOL    HW127355  10.594   5.276  11.216  0.4230  0.7557 -3.1740
 8026SOL    HW227356  10.745   5.271  11.222  0.3579 -0.6743  2.1767
 8027SOL     OW27357   9.133   8.696   6.687 -0.6297 -0.4520 -0.4404
 8027SOL    HW127358   9.063   8.680   6.624 -0.0585  0.3322 -1.2938
 8027SOL    HW227359   9.198   8.629   6.668 -1.5898 -1.8718  1.0700
 8028SOL     OW27360   1.371   3.338   5.719  0.6368  0.1106  0.3290
 8028SOL    HW127361   1.367   3.283   5.641 -1.8732 -0.5521  0.8215
 8028SOL    HW227362   1.424   3.289   5.781  0.1040 -0.8056  0.0702
 8029SOL     OW27363   8.021   9.650   6.940  0.1724 -0.6228  0.2008
 8029SOL    HW127364   8.005   9.685   6.852 -1.0001 -2.3413 -0.3074
 8029SOL    HW227365   8.116   9.646   6.947  0.2812 -0.6250 -1.0596
 8030SOL     OW27366   0.150   0.906   9.971  0.1029 -0.5554  0.1338
 8030SOL    HW127367   0.093   0.900   9.894 -1.1544 -1.1961  1.0864
 8030SOL    HW227368   0.239   0.912   9.934 -0.5940  1.4072 -1.4121
 8031SOL     OW27369   5.530   1.205   4.162 -0.3370 -0.1752 -0.4115
 8031SOL    HW127370   5.575   1.121   4.167 -0.3439 -0.1438  0.3048
 8031SOL    HW227371   5.438   1.185   4.181 -0.4881 -0.1182 -1.0470
 8032SOL     OW27372   1.041   7.537   2.959 -0.4119  0.5962 -0.5809
 8032SOL    HW127373   0.985   7.600   3.005 -0.5359  0.1605 -0.1261
 8032SOL    HW227374   1.027   7.556   2.867  0.9327  2.4546 -0.4688
 8033SOL     OW27375   9.355   4.613   1.728 -0.0033 -0.2044  0.2463
 8033SOL    HW127376   9.391   4.525   1.725  1.2793  0.2949  0.1929
 8033SOL    HW227377   9.299   4.614   1.805 -0.7014 -1.3003 -0.2350
 8034SOL     OW27378   6.195   6.755   0.133  0.7583  0.1876 -0.7756
 8034SOL    HW127379   6.255   6.829   0.115 -0.4907  1.0134 -1.7211
 8034SOL    HW227380   6.127   6.793   0.188 -0.2427 -0.0635 -1.7974
 8035SOL     OW27381   8.200   3.919   8.420 -0.5641 -0.1437 -0.0161
 8035SOL    HW127382   8.135   3.956   8.480 -1.1992 -0.0982 -0.7148
 8035SOL    HW227383   8.250   3.995   8.390 -1.5902  0.1410 -1.1174
 8036SOL     OW27384   1.941   0.656   5.631  0.2441  0.6947 -0.3381
 8036SOL    HW127385   2.010   0.718   5.604 -0.7254  1.3882 -1.3450
 8036SOL    HW227386   1.861   0.693   5.594 -0.7707  0.2093  1.2892
 8037SOL     OW27387   6.750   7.703   8.905  0.3534  0.4571 -0.5851
 8037SOL    HW127388   6.807   7.662   8.840  0.3075 -0.0762 -0.2894
 8037SOL    HW227389   6.678   7.641   8.916 -0.7039  1.4538 -1.5207
 8038SOL     OW27390   5.159   2.802   3.179  0.1745  0.2357  0.3402
 8038SOL    HW127391   5.121   2.873   3.230 -0.4051 -0.5933  1.1091
 8038SOL    HW227392   5.091   2.781   3.114  0.5452  0.7046 -0.2008
 8039SOL     OW27393   7.402   3.535  10.751  0.0666 -0.1018 -0.5822
 8039SOL    HW127394   7.320   3.577  10.727 -0.3563 -0.5807 -0.0272
 8039SOL    HW227395   7.393   3.517  10.845  1.1118  0.5188 -0.3509
 8040SOL     OW27396   3.599  10.401   1.003 -0.1117 -0.0524  0.3389
 8040SOL    HW127397   3.627  10.375   0.915 -1.8815  0.6942 -0.4782
 8040SOL    HW227398   3.625  10.493   1.011 -0.2534 -0.0234  0.4679
 8041SOL     OW27399   2.506   2.424   6.717  0.0037 -0.2375 -0.1715
 8041SOL    HW127400   2.462   2.365   6.655 -1.2194  0.4853 -0.0432
 8041SOL    HW227401   2.537   2.367   6.787 -1.7905 -0.7008  0.3140
 8042SOL     OW27402   6.105   6.327   0.645 -0.2075  0.2007 -0.1853
 8042SOL    HW127403   6.029   6.325   0.587  0.2210  0.5751 -0.7577
 8042SOL    HW227404   6.149   6.409   0.625 -0.5368  0.7756  1.2899
 8043SOL     OW27405   3.182   6.250   1.042 -0.3894 -0.8958 -0.2153
 8043SOL    HW127406   3.214   6.280   1.127 -1.8254  0.6511 -0.1647
 8043SOL    HW227407   3.207   6.320   0.982 -1.3982 -0.8912 -0.6333
 8044SOL     OW27408   7.211   8.611   6.687 -0.4269  0.1605 -0.0488
 8044SOL    HW127409   7.192   8.570   6.771 -0.9728  2.1491  0.8674
 8044SOL    HW227410   7.141   8.676   6.676  0.3573  0.8135 -1.4059
 8045SOL     OW27411   7.758   4.452   3.828  0.4179 -0.1113  0.4688
 8045SOL    HW127412   7.836   4.490   3.868 -0.0898 -0.9050  2.3513
 8045SOL    HW227413   7.785   4.366   3.798  0.6695  0.2829 -0.4728
 8046SOL     OW27414   3.583   5.365   0.484  0.0986 -0.6271  0.1708
 8046SOL    HW127415   3.583   5.416   0.565  0.7793 -0.8480  0.3244
 8046SOL    HW227416   3.599   5.429   0.415 -0.3868 -0.4509  0.2214
 8047SOL     OW27417   3.973   5.069   0.613 -0.2938 -0.3392  0.6448
 8047SOL    HW127418   4.025   5.095   0.537  0.4134 -0.8779  0.9409
 8047SOL    HW227419   3.913   5.002   0.578  0.5079 -1.1000  0.6993
 8048SOL     OW27420  10.210  11.381   3.565  0.3906  0.6849  0.3676
 8048SOL    HW127421  10.292  11.332   3.554  0.2646  0.6190 -0.2688
 8048SOL    HW227422  10.232  11.449   3.628  1.0090  0.8264  0.0079
 8049SOL     OW27423   7.563  10.696   4.157  0.0274 -0.9812  0.3403
 8049SOL    HW127424   7.639  10.747   4.128 -2.3902  1.7467 -1.7540
 8049SOL    HW227425   7.564  10.704   4.252  0.9617  1.2450  0.2045
 8050SOL     OW27426   3.846   7.182   8.406 -0.2510  0.1791 -0.5614
 8050SOL    HW127427   3.803   7.160   8.323 -0.4543 -3.0603  0.2815
 8050SOL    HW227428   3.939   7.174   8.387 -0.2226  1.2424 -0.9047
 8051SOL     OW27429   6.669   4.422   1.397  0.1114 -0.1745  0.2674
 8051SOL    HW127430   6.687   4.409   1.490  0.3983 -2.8288 -0.0640
 8051SOL    HW227431   6.574   4.410   1.389 -0.2485  2.0662  0.4157
 8052SOL     OW27432   4.829   0.514   0.659  0.2070  0.2304  0.9329
 8052SOL    HW127433   4.917   0.548   0.638 -0.6374  1.9648 -0.0256
 8052SOL    HW227434   4.845   0.443   0.721  2.2638  0.8671  1.2148
 8053SOL     OW27435   0.632  10.618   7.042 -0.0104 -0.1143 -0.2030
 8053SOL    HW127436   0.692  10.670   7.095  0.6519 -0.2241 -0.8321
 8053SOL    HW227437   0.554  10.609   7.096  1.5877 -2.5388  1.9538
 8054SOL     OW27438   4.261   0.535   7.328 -0.1029  0.2049  0.3008
 8054SOL    HW127439   4.330   0.592   7.363  2.0381 -1.9616 -0.1174
 8054SOL    HW227440   4.305   0.482   7.262 -1.7867 -2.3544  1.0933
 8055SOL     OW27441   0.371   9.977  11.292  0.2604 -0.0371 -0.5813
 8055SOL    HW127442   0.417   9.930  11.223  0.8317 -1.6966  0.8739
 8055SOL    HW227443   0.436   9.992  11.360 -1.0106 -1.5098  1.0671
 8056SOL     OW27444   2.451   2.122   8.770  0.4759  0.8795  0.4539
 8056SOL    HW127445   2.432   2.083   8.685 -0.4572 -0.4459  1.2354
 8056SOL    HW227446   2.379   2.183   8.785 -1.3350 -1.4481  1.7847
 8057SOL     OW27447  10.667   2.927   1.788 -0.6572  0.0197  0.5055
 8057SOL    HW127448  10.661   2.862   1.718  1.3457  0.7610 -0.4250
 8057SOL    HW227449  10.580   2.967   1.791 -0.6210  0.4540 -2.0495
 8058SOL     OW27450   5.393  10.514   7.225 -0.0395 -0.9030  0.4079
 8058SOL    HW127451   5.442  10.518   7.143 -0.1621 -1.3464  0.3093
 8058SOL    HW227452   5.433  10.581   7.280 -0.0225 -0.5344 -0.0467
 8059SOL     OW27453   3.704   6.119   9.596 -0.3244 -0.3939 -0.0218
 8059SOL    HW127454   3.778   6.114   9.657  0.5249 -1.7485 -1.0866
 8059SOL    HW227455   3.656   6.038   9.611 -1.0206  0.0078 -0.0630
 8060SOL     OW27456  10.866   7.403   2.036 -0.1107  0.1292 -0.3862
 8060SOL    HW127457  10.945   7.358   2.006 -0.8788 -1.8299  0.3684
 8060SOL    HW227458  10.869   7.488   1.991  2.1693 -0.0474 -0.7226
 8061SOL     OW27459   2.297   4.729   3.509 -0.1569  0.5429  0.7503
 8061SOL    HW127460   2.314   4.815   3.471  0.2126  0.1911  0.0941
 8061SOL    HW227461   2.202   4.722   3.515 -0.1792  1.0767  0.9968
 8062SOL     OW27462   9.967   7.046   6.597 -0.0233  0.2574  0.0058
 8062SOL    HW127463   9.935   6.956   6.606 -3.1732  1.0776 -1.6100
 8062SOL    HW227464  10.029   7.042   6.524 -0.2257 -0.6155 -0.1309
 8063SOL     OW27465   9.589  10.514   0.815  0.5216  0.0791  0.3811
 8063SOL    HW127466   9.575  10.433   0.765  0.5619  0.7107 -0.6715
 8063SOL    HW227467   9.658  10.492   0.877  1.5815 -0.2999 -0.8802
 8064SOL     OW27468   1.613   3.481   0.969  0.4143  0.1540 -0.3877
 8064SOL    HW127469   1.542   3.465   1.031  0.2104  1.8572 -0.1388
 8064SOL    HW227470   1.667   3.548   1.011 -0.0237  1.7519 -2.2409
 8065SOL     OW27471   8.423   6.332   4.794 -0.0393  0.4439  0.5502
 8065SOL    HW127472   8.376   6.316   4.712 -1.5557  0.8638  1.3083
 8065SOL    HW227473   8.375   6.282   4.860 -0.0074  1.6294  1.5062
 8066SOL     OW27474   2.087   6.969   0.249  0.3650  0.5278  0.4727
 8066SOL    HW127475   2.180   6.951   0.262  0.4418  0.3854 -0.2241
 8066SOL    HW227476   2.084   7.061   0.223  0.3322  0.4895  0.3362
 8067SOL     OW27477   3.346   9.245   6.959  0.2904  0.3621  0.1156
 8067SOL    HW127478   3.273   9.193   6.990 -0.2203  1.7404  1.3555
 8067SOL    HW227479   3.420   9.220   7.015  0.6590 -0.6495 -0.7933
 8068SOL     OW27480   3.154   5.653   1.488 -0.2335 -0.7952  0.3638
 8068SOL    HW127481   3.074   5.698   1.462 -1.8043 -3.3846  0.4352
 8068SOL    HW227482   3.222   5.720   1.482 -1.6469  0.5618 -3.6149
 8069SOL     OW27483   5.062   4.673   3.502 -0.1544 -0.1478  0.5229
 8069SOL    HW127484   5.017   4.668   3.417  1.5118 -0.2779 -0.3964
 8069SOL    HW227485   5.121   4.747   3.494  0.4001 -0.4797  1.3826
 8070SOL     OW27486   0.709   7.342   0.080  0.3101 -0.1938 -0.3325
 8070SOL    HW127487   0.675   7.263   0.121  0.3272 -0.0810 -0.0989
 8070SOL    HW227488   0.695   7.411   0.145  1.1495 -0.1804 -0.1520
 8071SOL     OW27489   8.527   7.418   7.185 -0.5276  0.0507 -0.1245
 8071SOL    HW127490   8.573   7.358   7.126 -0.4315  1.1897 -1.2580
 8071SOL    HW227491   8.437   7.422   7.150 -1.0046 -0.7454  0.9739
 8072SOL     OW27492  11.314   2.355  10.082 -0.2748 -0.4450 -0.0461
 8072SOL    HW127493  11.235   2.300  10.084 -1.7126  1.5212  1.7970
 8072SOL    HW227494  11.281   2.444  10.077  1.9582  0.3851 -1.5294
 8073SOL     OW27495   5.631   1.930   4.505  0.4094  0.8513  0.6210
 8073SOL    HW127496   5.667   1.889   4.427 -0.3615 -0.6226  1.0095
 8073SOL    HW227497   5.701   1.925   4.570  0.1225 -0.4063  0.8444
 8074SOL     OW27498   3.860   7.855  10.013  0.2540 -0.1368 -0.3788
 8074SOL    HW127499   3.799   7.839   9.942  0.5830  3.3973 -1.6401
 8074SOL    HW227500   3.806   7.886  10.085  0.3344  4.2421 -1.8962
 8075SOL     OW27501   3.117   0.636   0.758  0.6233 -0.2916  0.5450
 8075SOL    HW127502   3.167   0.688   0.695 -0.0293  0.9451  1.0300
 8075SOL    HW227503   3.145   0.669   0.843  0.7632 -1.2759  0.8958
 8076SOL     OW27504   3.560   7.791   5.609 -0.7487 -0.4458  0.2764
 8076SOL    HW127505   3.613   7.730   5.660  1.4653  2.3141  1.4945
 8076SOL    HW227506   3.579   7.769   5.518 -1.3378 -2.5855  0.6093
 8077SOL     OW27507   9.134   6.715   1.409  0.0670  0.2311 -0.6344
 8077SOL    HW127508   9.133   6.639   1.350  1.4072 -0.0553 -0.3181
 8077SOL    HW227509   9.153   6.789   1.352  1.0870 -0.0088 -0.6283
 8078SOL     OW27510   1.897   2.152   1.776  0.0383 -0.0691  0.2842
 8078SOL    HW127511   1.853   2.213   1.718  0.4309  0.3019  0.3746
 8078SOL    HW227512   1.825   2.108   1.823 -0.3848 -1.7028 -1.7656
 8079SOL     OW27513   4.776   7.564   0.760 -0.1832  0.2987 -0.2840
 8079SOL    HW127514   4.694   7.584   0.806 -0.4402  0.4261 -0.7982
 8079SOL    HW227515   4.831   7.523   0.827  0.4166  2.7961  0.8486
 8080SOL     OW27516   6.028   5.982   7.190  0.4326 -0.0103  0.2933
 8080SOL    HW127517   6.098   6.039   7.218 -0.5981  1.0936  0.7060
 8080SOL    HW227518   6.021   5.916   7.259  1.6389 -0.6825 -0.1965
 8081SOL     OW27519   8.422   4.733   0.862  0.4272  0.1190  0.6557
 8081SOL    HW127520   8.353   4.677   0.899  0.3600 -0.7540 -0.7321
 8081SOL    HW227521   8.458   4.682   0.790 -0.2281  2.2123 -1.2569
 8082SOL     OW27522   5.103   7.204   9.454 -0.2060  0.1581  0.0030
 8082SOL    HW127523   5.069   7.116   9.472  1.6755 -0.5516  0.4084
 8082SOL    HW227524   5.082   7.254   9.533 -1.2298  0.0800 -0.2016
 8083SOL     OW27525   3.810   5.926   9.958 -0.1747  0.2401  0.2006
 8083SOL    HW127526   3.726   5.964   9.936  0.1981  1.1742  0.3614
 8083SOL    HW227527   3.839   5.973  10.036 -0.5861 -1.6974  1.5882
 8084SOL     OW27528   5.970   3.097   4.943 -0.1972  0.5158 -1.3719
 8084SOL    HW127529   5.969   3.006   4.972 -1.0418  0.3821 -1.7791
 8084SOL    HW227530   5.901   3.139   4.995 -0.5507  0.6632 -1.9425
 8085SOL     OW27531   3.631   2.401  10.345 -0.5725  0.1568  0.4879
 8085SOL    HW127532   3.663   2.468  10.285 -1.4856  0.1529 -0.0317
 8085SOL    HW227533   3.567   2.352  10.293  0.5355 -1.5277  0.6415
 8086SOL     OW27534   0.536   2.545   4.224  0.0161 -0.0546  0.0642
 8086SOL    HW127535   0.497   2.569   4.140  0.5738 -0.8384 -0.4386
 8086SOL    HW227536   0.606   2.609   4.237 -1.7152  1.6926  1.2345
 8087SOL     OW27537   2.329   5.853   6.738  0.4242 -0.4557  0.8028
 8087SOL    HW127538   2.321   5.841   6.833 -0.0381  1.1110  0.9914
 8087SOL    HW227539   2.253   5.807   6.702  1.0093 -1.7132  1.1016
 8088SOL     OW27540   5.516   8.285   0.637 -0.0650  0.1305  0.5005
 8088SOL    HW127541   5.577   8.235   0.691  1.2802  0.8413 -0.3006
 8088SOL    HW227542   5.466   8.219   0.589 -0.4463 -0.4750  1.6944
 8089SOL     OW27543  10.582   3.999   3.686  0.0800 -0.3388 -0.5022
 8089SOL    HW127544  10.487   3.995   3.670  0.1638 -0.8901 -0.8926
 8089SOL    HW227545  10.619   4.035   3.606 -0.1130  3.6587  0.9682
 8090SOL     OW27546   7.903   0.033   8.096 -0.2898  0.1003 -0.1838
 8090SOL    HW127547   7.884   0.004   8.185 -0.1424  0.0150 -0.1806
 8090SOL    HW227548   7.954  -0.038   8.058  1.1028  0.8637  0.2150
 8091SOL     OW27549   7.184   8.361   3.505 -0.0301  0.5128  0.4809
 8091SOL    HW127550   7.138   8.307   3.441  0.0015 -0.3708  1.1847
 8091SOL    HW227551   7.115   8.417   3.542  0.2299  2.2179 -1.4571
 8092SOL     OW27552   7.384  10.333   8.700 -0.3869  0.1639  0.2228
 8092SOL    HW127553   7.441  10.311   8.774 -0.4682 -1.0373 -0.0404
 8092SOL    HW227554   7.354  10.248   8.667  0.4480  0.5906 -1.8063
 8093SOL     OW27555   1.386   6.123   5.051 -0.5753  0.3238  0.4631
 8093SOL    HW127556   1.292   6.134   5.061 -1.0423 -0.9490 -1.8244
 8093SOL    HW227557   1.419   6.212   5.038 -1.6784  0.6839  0.0029
 8094SOL     OW27558   1.110   7.600   1.089  0.4398 -0.0205  0.1159
 8094SOL    HW127559   1.190   7.613   1.037 -0.4773  0.0002 -1.3281
 8094SOL    HW227560   1.102   7.505   1.097  0.5202 -0.0264  0.1327
 8095SOL     OW27561   3.326   0.812   9.751 -0.3284 -0.4309 -0.0769
 8095SOL    HW127562   3.409   0.768   9.765 -0.1666  0.1116  0.7586
 8095SOL    HW227563   3.343   0.875   9.681 -0.0310 -0.3066  0.1085
 8096SOL     OW27564   9.142   8.053   3.119 -0.0609  0.0700  0.1525
 8096SOL    HW127565   9.235   8.032   3.118 -0.0758  0.0161 -0.7349
 8096SOL    HW227566   9.122   8.081   3.029 -1.0566 -0.6580  0.1302
 8097SOL     OW27567   0.795   6.298   4.115  0.3958 -0.1888 -0.1527
 8097SOL    HW127568   0.703   6.276   4.102  0.2296  0.0847  0.5194
 8097SOL    HW227569   0.835   6.287   4.029 -0.1955 -0.6347 -0.3763
 8098SOL     OW27570   5.230   4.281   1.332  0.0633  0.4146 -0.1894
 8098SOL    HW127571   5.312   4.271   1.380 -0.6833  1.2031  1.3162
 8098SOL    HW227572   5.203   4.192   1.312 -0.3264 -0.0576  2.1881
 8099SOL     OW27573   1.855   9.789   9.601  0.3114  0.0472 -0.1141
 8099SOL    HW127574   1.902   9.816   9.680 -0.0213  0.5435 -0.0758
 8099SOL    HW227575   1.833   9.871   9.557 -0.4478 -0.1701 -0.1634
 8100SOL     OW27576   3.499   9.867   6.666  0.4677 -0.5162 -0.5833
 8100SOL    HW127577   3.543   9.810   6.729 -0.5799  0.7690  1.4105
 8100SOL    HW227578   3.447   9.807   6.612 -0.7908 -1.5263  1.6044
 8101SOL     OW27579   8.567   4.857   8.184  0.2779 -0.3295 -0.6377
 8101SOL    HW127580   8.659   4.840   8.167  0.6716 -0.3784  1.3311
 8101SOL    HW227581   8.538   4.781   8.235 -1.0350 -0.6287 -1.7639
 8102SOL     OW27582   3.310   7.644   6.434  0.1025 -0.6193 -0.0097
 8102SOL    HW127583   3.302   7.634   6.529  0.9808  0.9110  0.2574
 8102SOL    HW227584   3.264   7.568   6.398 -1.0981 -0.7033  1.6138
 8103SOL     OW27585   3.215  10.893   0.054 -0.4215 -0.0047 -0.4137
 8103SOL    HW127586   3.264  10.829   0.105 -2.2583  0.4037  2.1048
 8103SOL    HW227587   3.177  10.844  -0.018 -0.0230 -1.2780  0.2227
 8104SOL     OW27588   6.384   7.121   0.268 -0.0928 -0.1909  0.2686
 8104SOL    HW127589   6.362   7.213   0.261 -2.5248 -0.7597 -0.5918
 8104SOL    HW227590   6.471   7.119   0.309  0.3145  2.4556 -0.3423
 8105SOL     OW27591  10.815  11.079   4.844 -0.4466 -0.2079 -0.1338
 8105SOL    HW127592  10.897  11.039   4.817 -0.9645 -1.2096 -0.2706
 8105SOL    HW227593  10.795  11.144   4.777  1.6135  2.0729  1.2953
 8106SOL     OW27594   8.524   6.210   7.101  0.2629 -0.0814  0.0229
 8106SOL    HW127595   8.579   6.207   7.179 -0.9224 -2.4456  0.8480
 8106SOL    HW227596   8.510   6.304   7.086  4.2084  0.6886 -0.1112
 8107SOL     OW27597   7.606  10.678   8.389 -0.0537  0.2861 -0.3897
 8107SOL    HW127598   7.587  10.611   8.323  1.6316 -0.9749  0.3384
 8107SOL    HW227599   7.609  10.631   8.472 -0.5992  1.5892  0.4094
 8108SOL     OW27600   7.384   4.477   8.784  0.4411 -0.7265  0.2914
 8108SOL    HW127601   7.472   4.482   8.748  0.8913 -0.0300  1.4200
 8108SOL    HW227602   7.391   4.520   8.870 -0.9146 -0.9684  0.5452
 8109SOL     OW27603   4.870   8.120   9.597 -0.1145  0.0608 -0.4633
 8109SOL    HW127604   4.891   8.213   9.589 -0.5031  0.3511  1.4042
 8109SOL    HW227605   4.938   8.076   9.546  0.5142  1.3278 -0.7679
 8110SOL     OW27606  10.449   5.279   2.715  0.3807  0.3465 -0.3011
 8110SOL    HW127607  10.425   5.286   2.807  1.3622  0.5089 -0.0501
 8110SOL    HW227608  10.515   5.209   2.712  0.7032  0.6668 -0.8069
 8111SOL     OW27609   0.322   3.435   5.461  0.7565 -0.2240 -0.5348
 8111SOL    HW127610   0.324   3.342   5.436  0.8045  0.0637 -1.6382
 8111SOL    HW227611   0.378   3.478   5.396 -1.4563  0.9780 -1.7738
 8112SOL     OW27612   3.746   9.237   6.517  0.0026 -0.4613  0.2101
 8112SOL    HW127613   3.772   9.198   6.601  1.5357  1.1359  0.5493
 8112SOL    HW227614   3.800   9.192   6.452 -0.8827 -1.4044  0.0995
 8113SOL     OW27615  11.020   7.547   6.392  0.1864 -0.4916 -0.0999
 8113SOL    HW127616  10.950   7.583   6.447  0.3693 -0.0962 -0.1234
 8113SOL    HW227617  10.987   7.557   6.303  1.4765  2.4862 -0.3652
 8114SOL     OW27618  10.451   5.660  10.545  0.4528 -0.0151 -0.9063
 8114SOL    HW127619  10.408   5.584  10.507 -0.1669 -1.0714  1.6718
 8114SOL    HW227620  10.443   5.647  10.639  1.3641  2.6910 -0.3677
 8115SOL     OW27621   9.517   2.513  10.932 -0.3926  0.2466  0.4302
 8115SOL    HW127622   9.588   2.453  10.911 -0.9044 -0.5436  0.9303
 8115SOL    HW227623   9.463   2.466  10.996 -0.8217  1.2169  0.8056
 8116SOL     OW27624   6.472   4.161   6.060 -0.0649 -0.4303 -0.4370
 8116SOL    HW127625   6.550   4.135   6.012 -0.7889 -1.6314 -1.0173
 8116SOL    HW227626   6.505   4.216   6.132  1.2522 -0.5767 -0.9030
 8117SOL     OW27627   1.824   6.026   2.798 -0.0013 -0.0837 -0.0995
 8117SOL    HW127628   1.882   6.038   2.873 -0.6042  1.4182  0.1531
 8117SOL    HW227629   1.839   5.935   2.771  1.7222 -0.0398  0.5643
 8118SOL     OW27630   0.995   1.315   7.353  0.3301 -0.0712  0.1800
 8118SOL    HW127631   1.057   1.321   7.426  0.3274  0.9961  0.1126
 8118SOL    HW227632   0.913   1.349   7.389  0.1884 -0.0414 -0.1721
 8119SOL     OW27633   8.324   6.843   3.973 -0.3032 -0.0275  0.0946
 8119SOL    HW127634   8.347   6.778   3.907 -0.0036 -1.3158  1.4198
 8119SOL    HW227635   8.394   6.837   4.038 -1.3693  0.1259  1.2974
 8120SOL     OW27636   6.496   8.886   2.573 -0.6168 -0.0501 -0.5125
 8120SOL    HW127637   6.579   8.854   2.537 -1.4011 -0.4428 -2.0575
 8120SOL    HW227638   6.448   8.807   2.598 -0.0589  0.2127  1.5854
 8121SOL     OW27639   6.675   0.130   8.222 -0.0550  0.3649  0.0295
 8121SOL    HW127640   6.768   0.133   8.244  0.1150  0.4703 -0.6611
 8121SOL    HW227641   6.634   0.191   8.284  0.1342 -0.6540  1.1968
 8122SOL     OW27642   7.675   6.670   9.213 -0.2157  0.0043  0.2575
 8122SOL    HW127643   7.652   6.658   9.305 -0.1834 -0.0232  0.2619
 8122SOL    HW227644   7.633   6.752   9.189 -0.5852 -0.2086  0.1754
 8123SOL     OW27645   1.036   1.293   2.698 -0.0841 -0.1260  0.8915
 8123SOL    HW127646   0.994   1.236   2.762 -1.2087 -0.4120 -0.0704
 8123SOL    HW227647   1.096   1.348   2.750 -2.1508  0.7925  2.4440
 8124SOL     OW27648   0.813   1.518   4.611 -0.5690  0.2654 -0.2921
 8124SOL    HW127649   0.739   1.518   4.550  0.0607  0.6075 -1.0666
 8124SOL    HW227650   0.890   1.500   4.557 -0.1344 -0.6264  0.5813
 8125SOL     OW27651   7.543  10.448   1.283  0.6866 -0.2413 -0.6472
 8125SOL    HW127652   7.572  10.364   1.320  1.3352 -0.0245 -0.6505
 8125SOL    HW227653   7.448  10.447   1.295  0.6897 -0.9534 -0.5991
 8126SOL     OW27654   2.128   4.626   2.874 -0.1179  0.3757  0.4401
 8126SOL    HW127655   2.221   4.605   2.886 -0.3414 -1.1808 -0.3167
 8126SOL    HW227656   2.084   4.541   2.874 -1.4008  1.0098 -0.4566
 8127SOL     OW27657   9.322   3.557   9.408 -0.1735  0.3778 -0.1728
 8127SOL    HW127658   9.377   3.529   9.480  1.6098  0.4624 -1.4333
 8127SOL    HW227659   9.338   3.493   9.339 -3.6781 -1.1278  0.2062
 8128SOL     OW27660   2.617   4.994   2.653 -0.5645 -0.0537 -0.4768
 8128SOL    HW127661   2.652   5.038   2.575 -0.5888 -1.3957 -1.2705
 8128SOL    HW227662   2.530   4.964   2.627 -0.7853 -0.0694  0.2479
 8129SOL     OW27663   1.468   3.078   9.129 -0.3518  0.1336  0.4655
 8129SOL    HW127664   1.482   3.010   9.195 -0.8367  0.1808  0.6231
 8129SOL    HW227665   1.403   3.136   9.169 -0.6140  0.1865 -0.0374
 8130SOL     OW27666   2.861   6.938   1.052 -0.2831  0.1454  0.0313
 8130SOL    HW127667   2.855   7.033   1.045  1.0189  0.1388 -1.9479
 8130SOL    HW227668   2.943   6.922   1.099 -1.5756 -0.0433  2.3909
 8131SOL     OW27669  10.490   4.332   8.428 -0.4907 -0.0783  0.0617
 8131SOL    HW127670  10.458   4.275   8.359  0.1221 -0.1885 -0.1407
 8131SOL    HW227671  10.474   4.421   8.395 -2.4589 -0.0927  0.8524
 8132SOL     OW27672   8.307  10.119   1.829 -0.0264  0.5163 -0.2550
 8132SOL    HW127673   8.237  10.141   1.890 -0.5968  1.0236 -1.0684
 8132SOL    HW227674   8.292  10.027   1.807  0.1096  0.3674  0.2771
 8133SOL     OW27675   9.451   7.286   1.757 -0.2052  0.1688  0.3138
 8133SOL    HW127676   9.522   7.332   1.802 -1.2807  0.7215  1.4792
 8133SOL    HW227677   9.375   7.296   1.814 -1.3698  0.0180 -1.1506
 8134SOL     OW27678   1.428   8.863   1.115 -0.4593  0.1907 -0.0165
 8134SOL    HW127679   1.455   8.944   1.072  0.2726 -0.5044 -0.9011
 8134SOL    HW227680   1.360   8.890   1.177 -0.3775  1.4426 -0.4514
 8135SOL     OW27681   9.849   3.736   1.753  0.1915  0.5026  0.0789
 8135SOL    HW127682   9.929   3.789   1.748 -0.1783  1.0966  0.3125
 8135SOL    HW227683   9.876   3.654   1.794  0.5654  0.9360  0.7049
 8136SOL     OW27684  10.100   7.901  10.421 -0.4408  0.5433  0.1110
 8136SOL    HW127685  10.062   7.836  10.362  0.9818 -0.1430 -0.0809
 8136SOL    HW227686  10.086   7.865  10.509  0.0266  0.1424  0.0243
 8137SOL     OW27687   2.993   7.853   9.410  0.5370 -0.0672 -0.0808
 8137SOL    HW127688   3.031   7.820   9.328  1.4201  0.7505 -0.0132
 8137SOL    HW227689   2.999   7.779   9.471  0.3420 -0.5165 -0.6006
 8138SOL     OW27690   8.178   9.096   3.114  0.1576 -0.1304  0.1748
 8138SOL    HW127691   8.223   9.011   3.106  1.1472  0.0022  3.1566
 8138SOL    HW227692   8.095   9.075   3.157 -1.0443  0.0943 -1.9324
 8139SOL     OW27693   7.509   9.353   9.732  0.1510  0.5525 -0.1883
 8139SOL    HW127694   7.593   9.358   9.779  0.1737  1.3606 -0.3123
 8139SOL    HW227695   7.502   9.260   9.708  1.8111  0.7479 -1.6243
 8140SOL     OW27696   8.529   4.670   5.475 -0.2294 -0.2616  0.7066
 8140SOL    HW127697   8.563   4.585   5.447  1.4749  0.8984 -1.0302
 8140SOL    HW227698   8.538   4.669   5.571  1.6639 -1.3032  0.5726
 8141SOL     OW27699   4.256   3.310   1.575  0.4965 -0.1455  0.6361
 8141SOL    HW127700   4.212   3.267   1.502  1.0905 -0.5381  0.4943
 8141SOL    HW227701   4.325   3.363   1.534  2.6075 -2.4367  0.9757
 8142SOL     OW27702   0.441   9.779   5.573  0.0324 -0.5969  0.0500
 8142SOL    HW127703   0.435   9.711   5.641  3.6626  0.3757  1.5823
 8142SOL    HW227704   0.432   9.861   5.620  1.8201  0.0776 -0.6679
 8143SOL     OW27705   4.842   7.559   5.687  0.0556  0.5263 -0.3934
 8143SOL    HW127706   4.825   7.473   5.647  0.8678  1.7093 -3.6264
 8143SOL    HW227707   4.875   7.538   5.774 -1.1209 -2.3671 -0.5082
 8144SOL     OW27708   0.810   9.040   8.542 -0.2103 -0.1039  0.2724
 8144SOL    HW127709   0.828   8.964   8.487  1.7611 -0.4293  1.2689
 8144SOL    HW227710   0.826   9.009   8.631  0.3392  1.3951  0.7224
 8145SOL     OW27711   2.757   2.146   2.782 -0.7919 -0.7474  0.2506
 8145SOL    HW127712   2.798   2.184   2.704 -1.5064 -1.0377 -0.2762
 8145SOL    HW227713   2.830   2.132   2.843 -0.1116 -1.1753 -0.6391
 8146SOL     OW27714   5.739   1.051   6.732 -0.1873 -0.1590 -0.7779
 8146SOL    HW127715   5.786   0.976   6.770 -0.5629  0.6644  1.5031
 8146SOL    HW227716   5.681   1.012   6.667 -0.3682 -1.8856  0.3405
 8147SOL     OW27717   1.964   2.929   1.764  0.0958 -0.1316 -0.2436
 8147SOL    HW127718   2.052   2.891   1.758  0.6648  1.1001  0.0627
 8147SOL    HW227719   1.918   2.874   1.827 -0.0126 -1.9852 -1.8353
 8148SOL     OW27720   6.440   7.346   1.143 -0.1110  0.3804  0.5813
 8148SOL    HW127721   6.512   7.401   1.172  0.4789 -0.6240  1.0711
 8148SOL    HW227722   6.482   7.269   1.105 -0.9115  0.5637 -0.7145
 8149SOL     OW27723  11.064   9.333   4.078  0.5766 -0.5099  0.4063
 8149SOL    HW127724  11.121   9.259   4.057 -0.2277 -0.8345 -0.7284
 8149SOL    HW227725  11.106   9.408   4.036 -1.1494 -1.1938 -2.9050
 8150SOL     OW27726   8.456   5.139   2.870  0.5183 -0.9149  0.1880
 8150SOL    HW127727   8.500   5.190   2.939  2.6248 -2.4988  0.1075
 8150SOL    HW227728   8.404   5.074   2.918 -0.4932 -0.0653  0.2708
 8151SOL     OW27729   8.058   4.530   9.662  0.2182  0.1824 -0.5425
 8151SOL    HW127730   8.099   4.445   9.651 -0.4135 -0.2147  0.1485
 8151SOL    HW227731   7.971   4.511   9.696  0.0114  1.0931 -0.5395
 8152SOL     OW27732   5.108   9.816   8.409  0.6359  0.5211  0.2087
 8152SOL    HW127733   5.059   9.810   8.491  1.0159 -1.8565  0.3419
 8152SOL    HW227734   5.047   9.783   8.343  1.0284  0.4965 -0.1400
 8153SOL     OW27735   5.016   5.098   0.122  0.1178 -0.1988  0.0089
 8153SOL    HW127736   4.974   5.065   0.202 -0.7708  0.7155 -0.0526
 8153SOL    HW227737   4.943   5.111   0.062  0.5335  1.0663 -0.2409
 8154SOL     OW27738   0.809   7.814   8.560  0.4404  0.3617 -0.5400
 8154SOL    HW127739   0.774   7.885   8.506  2.1956 -0.0003 -2.2888
 8154SOL    HW227740   0.743   7.744   8.554 -0.8792  1.4633  0.4736
 8155SOL     OW27741   6.029   6.333   0.340  0.4460 -0.7491 -0.1181
 8155SOL    HW127742   6.031   6.352   0.246  2.4497 -1.5430 -0.2719
 8155SOL    HW227743   6.118   6.350   0.370  0.1155 -1.5720  1.4272
 8156SOL     OW27744   9.854   9.114   9.117  0.3906  0.2278 -0.1953
 8156SOL    HW127745   9.933   9.164   9.097  0.8150  0.9581  2.7631
 8156SOL    HW227746   9.875   9.067   9.197 -1.9560 -0.0318  0.3526
 8157SOL     OW27747   9.958   2.386   1.045 -0.1041 -0.5011  0.6282
 8157SOL    HW127748   9.897   2.448   1.004  0.9411  0.0078 -0.2072
 8157SOL    HW227749  10.044   2.416   1.018  0.4388 -2.3530  0.1834
 8158SOL     OW27750   7.449   9.180   8.083 -0.3776 -0.5847 -0.0064
 8158SOL    HW127751   7.399   9.099   8.088  1.1863 -1.5381  1.5656
 8158SOL    HW227752   7.486   9.182   7.995  0.1538 -1.9916  0.1652
 8159SOL     OW27753   5.798   3.498   9.315  0.5090 -0.0007 -0.0987
 8159SOL    HW127754   5.764   3.414   9.285  3.9105 -1.0977 -1.3700
 8159SOL    HW227755   5.782   3.497   9.410  0.8500 -2.3248  0.0012
 8160SOL     OW27756   3.832   7.014   5.453 -0.8795 -0.1329  0.2013
 8160SOL    HW127757   3.909   7.002   5.508 -0.6612 -1.0586 -0.2855
 8160SOL    HW227758   3.779   6.935   5.469 -2.6456  1.3056  1.9477
 8161SOL     OW27759   8.977  10.175   8.953  0.0726  0.2280 -0.0617
 8161SOL    HW127760   8.931  10.104   8.909  1.3984 -0.3543 -0.5605
 8161SOL    HW227761   9.053  10.133   8.993  2.4315  1.6624 -2.6361
 8162SOL     OW27762   1.826   9.194   0.366 -0.4737 -0.0248  0.4496
 8162SOL    HW127763   1.896   9.237   0.317  0.7890 -0.8583  1.4578
 8162SOL    HW227764   1.789   9.265   0.420 -1.0108  0.6083 -0.7147
 8163SOL     OW27765   4.457   3.979   7.795  0.2262  0.2870 -0.5244
 8163SOL    HW127766   4.475   4.022   7.878  0.3426 -0.0338 -0.3795
 8163SOL    HW227767   4.542   3.975   7.751  0.7205 -1.8959  0.4800
 8164SOL     OW27768   1.494   6.180   1.329  0.0018 -0.5656  0.0159
 8164SOL    HW127769   1.533   6.093   1.322  1.5366 -0.0353  1.3767
 8164SOL    HW227770   1.474   6.191   1.422 -0.7742  0.2929 -0.2311
 8165SOL     OW27771  10.081   4.837   2.809 -0.6467  0.5858  0.3114
 8165SOL    HW127772  10.152   4.874   2.861 -1.0319  0.7458  0.7319
 8165SOL    HW227773  10.100   4.743   2.807  0.2794  0.7858 -0.6801
 8166SOL     OW27774   6.478   9.745  10.172  0.1807  0.1133  0.4265
 8166SOL    HW127775   6.568   9.772  10.154 -0.3343  0.9168 -1.0428
 8166SOL    HW227776   6.438   9.822  10.212  0.2384 -0.3878  1.4950
 8167SOL     OW27777   4.802   5.793   9.931 -0.3178  0.3990 -0.1577
 8167SOL    HW127778   4.823   5.771   9.840  0.4273  0.0899  0.0781
 8167SOL    HW227779   4.772   5.711   9.969 -0.1452  0.4092  0.0027
 8168SOL     OW27780   2.729   0.939   5.769 -0.4744 -0.0783 -0.3508
 8168SOL    HW127781   2.740   0.907   5.679 -0.9324 -0.1659 -0.3763
 8168SOL    HW227782   2.774   1.024   5.769  0.7145 -0.6849 -0.2910
 8169SOL     OW27783   5.456   3.693   1.920  0.0308  0.0884 -0.0957
 8169SOL    HW127784   5.475   3.613   1.968 -0.2823 -0.1753 -0.4033
 8169SOL    HW227785   5.497   3.763   1.971  1.3653 -0.4021 -0.4547
 8170SOL     OW27786   7.904   3.635   3.615  0.3538  0.2787 -0.6716
 8170SOL    HW127787   7.825   3.653   3.667  0.3576 -0.2590 -0.4739
 8170SOL    HW227788   7.942   3.557   3.655  2.3206  1.8609  0.7547
 8171SOL     OW27789   1.311   0.074   4.673  0.6265  0.0581 -0.3385
 8171SOL    HW127790   1.273  -0.009   4.647  1.1075  0.1278 -1.3015
 8171SOL    HW227791   1.406   0.058   4.675  0.7000  0.4827 -0.1603
 8172SOL     OW27792   2.271   1.287   0.919  0.3893  0.4252  0.2172
 8172SOL    HW127793   2.214   1.265   0.993  0.7714 -1.4916  0.0048
 8172SOL    HW227794   2.277   1.382   0.920 -2.8474  0.7226  0.1889
 8173SOL     OW27795   7.204   6.899   9.436 -0.0528  0.3826  0.2001
 8173SOL    HW127796   7.131   6.847   9.469  0.2384  0.3341  0.7789
 8173SOL    HW227797   7.226   6.957   9.508 -0.4207  1.3698 -0.4621
 8174SOL     OW27798   2.951   4.756   9.231  0.0144 -0.3445  0.1106
 8174SOL    HW127799   2.972   4.761   9.138 -0.2923  1.1463  0.0973
 8174SOL    HW227800   3.002   4.826   9.271  0.7934 -1.5052  1.2170
 8175SOL     OW27801   6.110   3.952  11.331  0.1639 -0.3269 -0.0521
 8175SOL    HW127802   6.028   3.967  11.284  1.0706  0.7815 -1.3642
 8175SOL    HW227803   6.161   4.031  11.315  0.6022  0.0491  2.7119
 8176SOL     OW27804   4.275   3.159   7.053 -0.2341  0.3086 -0.3204
 8176SOL    HW127805   4.242   3.079   7.012  1.0274 -0.0490 -0.7054
 8176SOL    HW227806   4.199   3.199   7.095 -0.9507 -0.9227 -0.4132
 8177SOL     OW27807   1.981   1.096  10.026 -0.5411  0.2911 -0.1140
 8177SOL    HW127808   1.913   1.154   9.991  0.4646  2.2840  1.0858
 8177SOL    HW227809   1.990   1.121  10.118 -0.4099 -2.1679  0.6139
 8178SOL     OW27810   1.474   1.955   6.717  0.1592  0.5253 -0.2954
 8178SOL    HW127811   1.552   1.962   6.772 -0.0513  0.2703  0.0405
 8178SOL    HW227812   1.401   1.982   6.774 -0.1302 -0.2808 -0.2663
 8179SOL     OW27813   1.699   0.183   1.139 -0.4291 -0.0406 -0.6601
 8179SOL    HW127814   1.647   0.118   1.186 -0.8638  0.4232 -0.4883
 8179SOL    HW227815   1.654   0.266   1.156  1.8808  0.8495  1.8683
 8180SOL     OW27816   1.998   9.261   9.480 -0.4425 -0.2265  0.2513
 8180SOL    HW127817   2.005   9.356   9.469 -1.8241 -0.0785  0.4489
 8180SOL    HW227818   1.913   9.248   9.522 -0.4020 -1.5784 -0.0307
 8181SOL     OW27819   9.681   2.719   9.235 -0.2233  0.5094 -0.0733
 8181SOL    HW127820   9.715   2.807   9.246 -1.9903  1.2869 -0.4729
 8181SOL    HW227821   9.757   2.667   9.208  0.6175  2.1681 -1.0769
 8182SOL     OW27822  11.175   4.868   3.940 -0.5100  0.0368 -0.1795
 8182SOL    HW127823  11.198   4.808   4.011  0.2569  0.5683  0.0344
 8182SOL    HW227824  11.197   4.820   3.860  0.5227  0.1759 -0.0016
 8183SOL     OW27825   4.088  10.804   4.548 -0.1668 -0.0325  0.0081
 8183SOL    HW127826   4.153  10.873   4.536  0.1334 -0.2477  0.3919
 8183SOL    HW227827   4.135  10.723   4.525 -0.5674 -0.0983 -0.6181
 8184SOL     OW27828   6.526  10.304   3.782  0.2563 -0.0400 -0.4343
 8184SOL    HW127829   6.492  10.243   3.717  0.8499 -2.4579  1.3482
 8184SOL    HW227830   6.621  10.292   3.780  0.3612  0.5916  0.1570
 8185SOL     OW27831   5.842  10.291   6.214  0.6342 -0.4153  0.4451
 8185SOL    HW127832   5.759  10.244   6.202  0.2660  0.2533  0.2744
 8185SOL    HW227833   5.816  10.383   6.217  1.4981 -0.1032 -0.8284
 8186SOL     OW27834   8.538   7.647   5.952 -0.3402  0.0526 -0.6956
 8186SOL    HW127835   8.611   7.657   6.014  0.0661 -0.4423 -1.0877
 8186SOL    HW227836   8.481   7.583   5.993 -1.8043  2.1252  0.7519
 8187SOL     OW27837   8.635   1.687  11.078 -0.0759 -0.0778  0.5041
 8187SOL    HW127838   8.718   1.650  11.108 -0.0690  1.0466  1.9398
 8187SOL    HW227839   8.592   1.719  11.157 -1.0020  1.1419 -0.4514
 8188SOL     OW27840   2.396   6.673   2.972 -0.6297 -0.4249 -0.7439
 8188SOL    HW127841   2.408   6.649   3.064  3.2074 -2.1403 -1.5000
 8188SOL    HW227842   2.301   6.674   2.960 -1.3674  1.2014  3.4683
 8189SOL     OW27843   3.086   8.151   6.532  0.7145 -0.2698  0.0749
 8189SOL    HW127844   3.021   8.140   6.601 -0.3949 -1.0633 -1.0603
 8189SOL    HW227845   3.150   8.212   6.569 -0.3144  0.0081  1.4709
 8190SOL     OW27846  11.337   1.714  11.028  0.0565  0.1105 -0.3098
 8190SOL    HW127847  11.258   1.687  11.074  0.4859  0.7247  0.8492
 8190SOL    HW227848  11.368   1.790  11.077  2.0161 -0.8267  0.0361
 8191SOL     OW27849   7.625   5.585   1.161 -0.0133 -0.0298  0.1974
 8191SOL    HW127850   7.679   5.610   1.087 -0.5323 -0.6394 -0.4056
 8191SOL    HW227851   7.640   5.653   1.226  1.2260 -0.0225 -0.0715
 8192SOL     OW27852   4.029   3.591   2.392 -0.2657 -0.0393  0.1415
 8192SOL    HW127853   4.044   3.551   2.477  1.6800  0.3492  0.0200
 8192SOL    HW227854   4.064   3.528   2.329 -1.1475 -0.0598 -0.3488
 8193SOL     OW27855   4.074   5.795   9.135  0.2422  0.0351 -0.0882
 8193SOL    HW127856   4.052   5.845   9.056  2.5239  0.6823 -0.3843
 8193SOL    HW227857   4.041   5.848   9.207  1.7813  1.5790 -0.4534
 8194SOL     OW27858   4.852   9.483   4.833 -0.4543 -0.2643 -0.6529
 8194SOL    HW127859   4.837   9.577   4.837 -1.0834 -0.3888  0.4420
 8194SOL    HW227860   4.932   9.473   4.781 -0.6334  0.8378 -1.1541
 8195SOL     OW27861   0.656  10.129   1.569  0.6808  0.0373  0.0935
 8195SOL    HW127862   0.700  10.213   1.562  1.1535 -0.2844 -1.1361
 8195SOL    HW227863   0.726  10.065   1.578  0.3648 -0.2872  0.2907
 8196SOL     OW27864   4.397   6.736   7.693 -0.2966 -0.2040  0.1401
 8196SOL    HW127865   4.369   6.805   7.633 -1.5230  0.0037  0.9233
 8196SOL    HW227866   4.464   6.688   7.645 -1.3076 -0.1025 -1.4267
 8197SOL     OW27867  10.424   0.667   6.973 -0.0136  0.0885 -0.6796
 8197SOL    HW127868  10.348   0.717   6.943  0.1610  0.6857 -0.1608
 8197SOL    HW227869  10.497   0.728   6.963  0.2444 -0.1522 -0.2742
 8198SOL     OW27870  10.785  11.138   9.188  0.5024 -0.2510 -0.7150
 8198SOL    HW127871  10.735  11.134   9.269  1.5464 -1.4427 -0.0978
 8198SOL    HW227872  10.789  11.231   9.166  1.6312  0.3004  1.5147
 8199SOL     OW27873  10.312   8.221   4.782 -0.2419  0.0104  0.7987
 8199SOL    HW127874  10.303   8.143   4.726  0.8564  0.3545  0.1135
 8199SOL    HW227875  10.357   8.188   4.860 -0.0031 -0.0950  0.6193
 8200SOL     OW27876   8.527   5.984   4.701 -0.1302 -0.6849 -0.3839
 8200SOL    HW127877   8.504   5.979   4.793 -1.2464 -2.2987 -0.7127
 8200SOL    HW227878   8.612   6.028   4.700 -0.5027  0.1645  1.3208
 8201SOL     OW27879   6.014  10.969   1.115 -0.2009 -0.0599  0.7014
 8201SOL    HW127880   6.050  10.881   1.116 -5.2805 -2.5258  0.3166
 8201SOL    HW227881   5.984  10.983   1.205  0.7344  1.4597  0.8143
 8202SOL     OW27882  11.254   3.065   9.982 -0.0342  0.5594  0.2271
 8202SOL    HW127883  11.269   3.158  10.003  1.0043  0.5119 -0.2893
 8202SOL    HW227884  11.302   3.017  10.049 -0.5708  0.3836  0.4928
 8203SOL     OW27885   3.870   3.318   3.477  0.2317  0.0049  0.0628
 8203SOL    HW127886   3.940   3.360   3.526  0.5660 -0.4823  0.0051
 8203SOL    HW227887   3.807   3.292   3.544 -0.3086  1.1872  0.0443
 8204SOL     OW27888   3.130   5.895   7.230  0.1647  1.1029 -0.6261
 8204SOL    HW127889   3.169   5.814   7.196  1.3139  1.5942 -0.5224
 8204SOL    HW227890   3.097   5.940   7.153 -0.8141  0.3824 -0.6502
 8205SOL     OW27891   4.139   6.436   7.439 -0.4600 -0.6559 -0.0748
 8205SOL    HW127892   4.193   6.512   7.417 -1.7773  0.4115  0.2472
 8205SOL    HW227893   4.179   6.400   7.518 -0.2552  0.1777  0.2172
 8206SOL     OW27894   8.030   7.927   2.540  0.0800  0.2067  0.0904
 8206SOL    HW127895   8.102   7.864   2.539  0.1606  0.2973 -1.3192
 8206SOL    HW227896   8.026   7.956   2.632  1.9322  0.3053  0.1880
 8207SOL     OW27897  11.091   3.884   3.651  0.0528 -0.5907 -0.0555
 8207SOL    HW127898  11.042   3.806   3.679  0.6935 -0.9535  0.0727
 8207SOL    HW227899  11.174   3.849   3.619 -0.0392 -0.0398 -0.9165
 8208SOL     OW27900  10.026   1.068   3.685  0.0477 -0.4906  0.2408
 8208SOL    HW127901  10.037   0.976   3.660  2.6801 -0.0835 -0.3482
 8208SOL    HW227902  10.036   1.116   3.603 -0.1216  0.3862  0.7282
 8209SOL     OW27903   7.406   2.191   9.433 -0.3167 -0.1791  0.7576
 8209SOL    HW127904   7.414   2.105   9.393 -1.2514  0.1531 -0.1950
 8209SOL    HW227905   7.494   2.213   9.461  0.0302 -1.2060  0.4980
 8210SOL     OW27906  11.365   2.727   2.819  0.1837  0.8517  0.1071
 8210SOL    HW127907  11.276   2.751   2.793  0.0093  0.2300  0.1184
 8210SOL    HW227908  11.420   2.754   2.745 -0.3055 -0.9040 -0.9483
 8211SOL     OW27909   3.871   3.627   0.436  0.0479 -0.3947  0.1199
 8211SOL    HW127910   3.956   3.589   0.457 -0.3606 -1.6807 -0.4215
 8211SOL    HW227911   3.830   3.642   0.521  1.0346  0.8086  0.4036
 8212SOL     OW27912   3.883   9.648   9.123 -0.0702  0.2110 -0.1345
 8212SOL    HW127913   3.914   9.719   9.068  1.5702 -0.4367 -0.1032
 8212SOL    HW227914   3.788   9.661   9.129 -0.0354  1.3119 -1.6243
 8213SOL     OW27915   1.013   6.304   5.332 -0.2705 -0.5138 -0.3402
 8213SOL    HW127916   0.924   6.315   5.297 -0.7386  0.7616  1.1595
 8213SOL    HW227917   1.057   6.386   5.310 -0.1099 -0.3083  0.7168
 8214SOL     OW27918   7.682  10.185   9.914  0.2175 -0.0820  0.4822
 8214SOL    HW127919   7.775  10.204   9.921  0.1583 -0.0473  1.3386
 8214SOL    HW227920   7.660  10.204   9.823  1.1485 -0.5820  0.1487
 8215SOL     OW27921   1.421   1.146   9.700  0.1686  0.0781  0.3273
 8215SOL    HW127922   1.351   1.204   9.729  1.3653  1.6444  0.2522
 8215SOL    HW227923   1.498   1.173   9.751  0.8394 -1.2560  0.0741
 8216SOL     OW27924   6.235   9.489   5.526 -0.6023  0.3924 -0.2689
 8216SOL    HW127925   6.213   9.582   5.531  1.4304  1.0836 -2.5757
 8216SOL    HW227926   6.303   9.483   5.460 -1.4319 -2.9199 -1.0248
 8217SOL     OW27927  10.258   1.936   7.410 -0.1008  0.2308 -0.0807
 8217SOL    HW127928  10.304   1.972   7.486 -1.7605 -0.0634  1.0940
 8217SOL    HW227929  10.326   1.930   7.342  1.5111  0.1440  1.4725
 8218SOL     OW27930   0.649   5.524   7.142 -0.2300  0.5058  0.3305
 8218SOL    HW127931   0.621   5.540   7.052  0.3209 -0.4101 -0.0209
 8218SOL    HW227932   0.737   5.561   7.148 -0.0410  0.0750  0.3143
 8219SOL     OW27933   4.035   9.366   7.375 -0.3936 -0.2184  0.3946
 8219SOL    HW127934   4.071   9.283   7.343 -1.1278 -0.8358  1.1386
 8219SOL    HW227935   3.962   9.385   7.316 -1.7330 -1.3451  1.6259
 8220SOL     OW27936   9.816   4.847  10.489  0.7622 -0.0459  0.1443
 8220SOL    HW127937   9.806   4.814  10.400  1.3127  1.9852 -0.7320
 8220SOL    HW227938   9.910   4.865  10.497  0.4829  1.3786  0.5006
 8221SOL     OW27939  10.591   0.932   4.735  0.1522  0.1113 -0.0181
 8221SOL    HW127940  10.530   0.858   4.740 -0.2625  0.4856  0.5768
 8221SOL    HW227941  10.567   0.987   4.809 -0.7360  1.7869 -1.4970
 8222SOL     OW27942   6.726   0.206  11.131 -0.3421  0.3265  0.0097
 8222SOL    HW127943   6.807   0.163  11.105 -0.5144 -0.9397  1.3862
 8222SOL    HW227944   6.696   0.251  11.053  1.9329  1.2636 -0.3958
 8223SOL     OW27945   2.732   1.902   1.845  0.1389 -0.2411 -0.4957
 8223SOL    HW127946   2.805   1.944   1.892 -0.1207 -1.0369  0.6745
 8223SOL    HW227947   2.734   1.941   1.758  1.6396  0.1443 -0.3218
 8224SOL     OW27948   7.035  11.356   4.895  0.5314 -0.4764  0.3706
 8224SOL    HW127949   7.082  11.425   4.943 -0.4857  0.0149  0.7180
 8224SOL    HW227950   7.063  11.366   4.804 -1.2350  1.9226 -0.0201
 8225SOL     OW27951   3.685   9.836   3.412  0.5660  0.1102  0.2388
 8225SOL    HW127952   3.685   9.826   3.317  0.7471  0.4110  0.2043
 8225SOL    HW227953   3.624   9.770   3.444  1.4404 -0.8217  0.0072
 8226SOL     OW27954   3.211   2.621   9.658 -0.4886 -0.0975 -0.1507
 8226SOL    HW127955   3.237   2.538   9.618  0.2268  0.1710 -0.2690
 8226SOL    HW227956   3.118   2.611   9.677 -0.9732 -0.0900 -2.2483
 8227SOL     OW27957   4.948   6.218   0.960  0.0302 -0.2826 -0.5091
 8227SOL    HW127958   4.924   6.276   1.032 -1.7905 -3.2503  1.4816
 8227SOL    HW227959   4.977   6.137   1.002  2.4282 -0.9669 -3.1271
 8228SOL     OW27960   3.302   1.995   3.093  0.7282 -0.2669 -0.2743
 8228SOL    HW127961   3.210   2.003   3.067  1.0687  1.4416 -1.1273
 8228SOL    HW227962   3.304   2.029   3.182  0.2639 -2.0858  0.4769
 8229SOL     OW27963  11.143   2.635   3.897 -0.1720  0.3324  0.7406
 8229SOL    HW127964  11.182   2.551   3.921  0.3875  1.1766  2.9690
 8229SOL    HW227965  11.052   2.629   3.925  0.3320  1.0979  2.6837
 8230SOL     OW27966  11.160   4.646   4.118  0.2811  0.1663  0.4172
 8230SOL    HW127967  11.222   4.651   4.191 -0.9205  0.5121  1.4409
 8230SOL    HW227968  11.181   4.563   4.074  1.3974  0.2356  0.7895
 8231SOL     OW27969   7.985   3.859   2.251  0.0677 -0.0522 -0.0702
 8231SOL    HW127970   8.017   3.892   2.167 -1.2436 -1.3000 -1.0988
 8231SOL    HW227971   8.058   3.808   2.286  0.5432  0.2845 -0.5416
 8232SOL     OW27972   4.531   0.063   5.235 -0.1406 -0.0807  0.1406
 8232SOL    HW127973   4.511   0.154   5.257 -1.6851 -0.2234 -0.5538
 8232SOL    HW227974   4.626   0.063   5.220 -0.2343  1.6162 -0.7178
 8233SOL     OW27975   5.116   1.519   0.929  0.8623 -0.5365 -0.3108
 8233SOL    HW127976   5.103   1.502   0.836  0.5688  0.6121 -0.4950
 8233SOL    HW227977   5.065   1.597   0.946  2.2053  0.2119  0.4567
 8234SOL     OW27978   3.486   8.238   0.156  0.0185  0.4210 -0.3954
 8234SOL    HW127979   3.482   8.218   0.062  0.9706 -0.0988 -0.3299
 8234SOL    HW227980   3.398   8.218   0.188 -0.2954  0.5379 -1.1593
 8235SOL     OW27981   8.736   8.156   2.253 -0.9388 -0.0978 -0.9282
 8235SOL    HW127982   8.719   8.211   2.329  0.0800 -0.9894  0.0007
 8235SOL    HW227983   8.762   8.217   2.184  0.9954  0.5838  0.3114
 8236SOL     OW27984   3.474   9.201   1.025 -0.4738  0.5825  0.1095
 8236SOL    HW127985   3.535   9.233   0.959 -0.8011  0.6644 -0.1541
 8236SOL    HW227986   3.431   9.126   0.983 -1.3693  1.2143 -0.1270
 8237SOL     OW27987   9.266   8.988   4.102 -0.4978  0.5761 -0.0074
 8237SOL    HW127988   9.306   8.944   4.027 -0.8323 -0.5809  0.4685
 8237SOL    HW227989   9.301   8.942   4.179 -1.2050  0.8433  0.4870
 8238SOL     OW27990   7.068   6.697   9.939  0.1255  0.5727  0.0266
 8238SOL    HW127991   7.011   6.763   9.981 -0.2111  0.3292 -0.0451
 8238SOL    HW227992   7.007   6.630   9.908  0.5471 -0.2788  1.0105
 8239SOL     OW27993   2.901   4.826  11.135 -0.0064 -0.1997  0.0649
 8239SOL    HW127994   2.922   4.747  11.085 -1.6635 -0.2294 -0.6218
 8239SOL    HW227995   2.829   4.800  11.192  0.1167  0.5553  0.5779
 8240SOL     OW27996   3.227   1.325   6.923  0.6716  0.1541  0.8241
 8240SOL    HW127997   3.164   1.261   6.956  0.4502 -0.4331 -0.6552
 8240SOL    HW227998   3.173   1.399   6.895  0.3658 -1.0359 -2.0637
 8241SOL     OW27999   5.457  10.477   8.466  0.1612 -0.4968 -0.5210
 8241SOL    HW128000   5.483  10.470   8.557 -0.2830 -1.1843 -0.4486
 8241SOL    HW228001   5.534  10.448   8.417  0.3756 -0.1937 -0.3701
 8242SOL     OW28002   9.899   7.477  10.291  0.1506  0.8839 -0.2500
 8242SOL    HW128003   9.807   7.470  10.264  0.4302 -1.6036 -0.8052
 8242SOL    HW228004   9.943   7.404  10.247  1.7013 -0.0875  2.5975
 8243SOL     OW28005   8.134   8.535   5.083  0.4284  0.1769 -0.0968
 8243SOL    HW128006   8.150   8.570   5.170 -0.7115 -1.2291  0.7147
 8243SOL    HW228007   8.212   8.560   5.033  1.1946  0.8316  1.3611
 8244SOL     OW28008   9.994   6.874  11.252 -0.2690 -0.2105 -0.3615
 8244SOL    HW128009  10.040   6.923  11.321  0.4991  1.5663 -2.0610
 8244SOL    HW228010   9.902   6.876  11.279 -0.0166  0.6433  0.5008
 8245SOL     OW28011   8.929   0.105   0.410 -0.0539  0.1271  0.0549
 8245SOL    HW128012   9.005   0.048   0.399 -1.2267 -1.3802 -0.5741
 8245SOL    HW228013   8.911   0.140   0.323  1.2565  2.3616  0.5941
 8246SOL     OW28014   1.845  10.103   3.242 -0.2118 -0.1973 -0.4867
 8246SOL    HW128015   1.891  10.049   3.306 -1.6557 -0.0669  0.7105
 8246SOL    HW228016   1.875  10.192   3.261  0.7888 -0.3453 -1.2692
 8247SOL     OW28017   2.471   3.525   1.071  0.5201 -0.2245 -0.2888
 8247SOL    HW128018   2.484   3.442   1.027  0.6318 -0.7063  0.6246
 8247SOL    HW228019   2.552   3.574   1.055  0.4800 -0.3122 -0.7680
 8248SOL     OW28020   0.116   5.672   1.734 -0.1902  0.6804  0.0881
 8248SOL    HW128021   0.143   5.634   1.818  1.3760  1.3632 -0.0638
 8248SOL    HW228022   0.038   5.722   1.754 -0.9242 -0.6689  0.7534
 8249SOL     OW28023   8.605   9.088   3.789  0.4062 -0.0779  0.0827
 8249SOL    HW128024   8.511   9.096   3.809  0.1834  0.5596 -1.1183
 8249SOL    HW228025   8.610   9.098   3.694  1.8682  1.5863  0.2957
 8250SOL     OW28026   3.031  10.021   2.547  0.0552  0.3801 -0.2208
 8250SOL    HW128027   3.002  10.079   2.477 -2.8804 -0.7575 -0.0703
 8250SOL    HW228028   3.016  10.070   2.627  0.0075  0.3702 -0.2233
 8251SOL     OW28029   7.448  10.206   3.408  0.1103 -0.1658  0.3151
 8251SOL    HW128030   7.381  10.153   3.452 -1.2839 -1.0183 -2.5913
 8251SOL    HW228031   7.409  10.294   3.404  0.8095  0.2418  1.8385
 8252SOL     OW28032   6.018   4.187   6.713  0.5253  0.2658 -0.3380
 8252SOL    HW128033   6.033   4.257   6.776 -0.4554  0.5681 -0.4261
 8252SOL    HW228034   5.928   4.159   6.729  1.2256 -1.7423  0.4458
 8253SOL     OW28035   1.948   7.820   7.779  0.1685  0.0298 -0.2241
 8253SOL    HW128036   1.931   7.905   7.820  0.3769 -0.9372  1.9507
 8253SOL    HW228037   2.022   7.785   7.826 -1.7212 -2.6582  0.9703
 8254SOL     OW28038   2.369   0.926   1.843 -0.5441  0.3618  0.4844
 8254SOL    HW128039   2.407   1.005   1.804  0.0788 -0.4461 -0.5844
 8254SOL    HW228040   2.430   0.856   1.820 -0.2529 -0.2163  2.7369
 8255SOL     OW28041   4.320   5.840   0.263  0.5331 -0.4541 -0.4544
 8255SOL    HW128042   4.265   5.893   0.205  0.5926 -1.3115 -1.3194
 8255SOL    HW228043   4.390   5.808   0.207  0.4144 -1.5762  0.0113
 8256SOL     OW28044  10.531  10.784   9.839  0.2315  0.0348 -0.1834
 8256SOL    HW128045  10.459  10.845   9.822  1.3251  0.9625 -1.7005
 8256SOL    HW228046  10.548  10.744   9.754 -0.6082 -2.6372  0.7927
 8257SOL     OW28047   5.036   1.228   0.548  0.1759  0.2179  0.7468
 8257SOL    HW128048   5.093   1.208   0.474 -0.4178  0.1070  0.3122
 8257SOL    HW228049   4.968   1.285   0.512 -0.3711 -0.1929  1.1013
 8258SOL     OW28050   2.912   9.097   4.703 -0.1628 -0.2977  0.5222
 8258SOL    HW128051   2.857   9.127   4.776 -0.4929 -1.0929  0.6113
 8258SOL    HW228052   2.886   9.006   4.690  0.9311 -0.5925  0.3578
 8259SOL     OW28053   5.348   4.332   4.455 -0.1940 -0.2149  0.3302
 8259SOL    HW128054   5.272   4.339   4.397 -0.4346  0.4345  0.7131
 8259SOL    HW228055   5.314   4.353   4.542  0.6077  1.1166  0.3553
 8260SOL     OW28056   9.680   5.581   3.786 -0.1708 -0.8687  0.5133
 8260SOL    HW128057   9.745   5.570   3.717 -0.4099 -1.3751  0.3591
 8260SOL    HW228058   9.605   5.620   3.741 -0.0383 -0.4551  0.6529
 8261SOL     OW28059   8.627   8.700   0.600 -0.1295 -0.0617  0.5253
 8261SOL    HW128060   8.561   8.768   0.618 -1.1914 -0.9351  0.0658
 8261SOL    HW228061   8.678   8.735   0.527  1.1759  1.4440  2.0523
 8262SOL     OW28062  10.131  11.220   0.551  1.0026  0.3440 -0.1805
 8262SOL    HW128063  10.137  11.284   0.480 -0.1203  0.2753 -0.3595
 8262SOL    HW228064  10.133  11.135   0.508 -2.0274  0.2822 -0.4508
 8263SOL     OW28065   0.615   5.313   2.877  0.0536 -0.0729  0.1085
 8263SOL    HW128066   0.571   5.386   2.921  2.1677  1.8273 -0.7277
 8263SOL    HW228067   0.629   5.248   2.946 -1.3569  0.5382  1.0197
 8264SOL     OW28068  10.080   7.872  10.714  0.0583  0.2884  0.3903
 8264SOL    HW128069  10.055   7.958  10.681  0.7206  0.8686  1.3326
 8264SOL    HW228070  10.132   7.890  10.793  0.5816 -0.9550  0.3681
 8265SOL     OW28071   2.200   9.500   7.208  0.1126 -0.9452  0.0535
 8265SOL    HW128072   2.276   9.487   7.150  1.8900  1.7171  1.5482
 8265SOL    HW228073   2.170   9.589   7.187 -1.2711 -1.1797  0.9715
 8266SOL     OW28074   6.480   6.956   7.898 -0.0069  0.2261 -0.4603
 8266SOL    HW128075   6.554   6.901   7.874  2.1680  2.8736 -0.2685
 8266SOL    HW228076   6.419   6.897   7.942  1.2115 -2.3674 -2.0178
 8267SOL     OW28077  10.730   7.994   3.534  0.1036 -0.1177 -0.0985
 8267SOL    HW128078  10.646   7.965   3.572  0.6774 -0.5551  0.8827
 8267SOL    HW228079  10.792   7.988   3.607  0.4728  2.7838 -0.0553
 8268SOL     OW28080   9.106  10.514   7.701  0.4814  0.2813  0.3167
 8268SOL    HW128081   9.142  10.594   7.738 -0.8987  2.1250 -2.0218
 8268SOL    HW228082   9.078  10.462   7.777  2.6148  1.3585  1.9272
 8269SOL     OW28083   4.714   0.744   2.249  0.4308 -0.2581  0.4941
 8269SOL    HW128084   4.707   0.838   2.234 -0.3626 -0.3769  0.0521
 8269SOL    HW228085   4.641   0.724   2.308 -0.6794 -0.9113 -1.0324
 8270SOL     OW28086   9.648   2.622   0.966  0.4102 -0.2718  0.8543
 8270SOL    HW128087   9.618   2.535   0.940 -0.2181  0.0541  0.4579
 8270SOL    HW228088   9.743   2.617   0.961  0.3628 -0.7867  0.3208
 8271SOL     OW28089  11.039   0.630   9.290 -0.5243  0.3839 -0.6670
 8271SOL    HW128090  11.125   0.588   9.300  0.2193  1.6788 -1.3208
 8271SOL    HW228091  11.027   0.637   9.195 -1.0772  0.7534 -0.5725
 8272SOL     OW28092   2.563  10.557   1.924  0.3940  0.3273  0.2048
 8272SOL    HW128093   2.608  10.474   1.907  1.2282  0.6608  0.6988
 8272SOL    HW228094   2.497  10.535   1.990 -0.5255 -0.2703 -0.8923
 8273SOL     OW28095  10.338   9.906   6.702 -0.0389  0.3585  0.3646
 8273SOL    HW128096  10.341  10.002   6.711  1.3471  0.5372 -1.4016
 8273SOL    HW228097  10.289   9.892   6.621  1.3776 -0.2976 -0.4189
 8274SOL     OW28098   1.568   0.372   1.301  0.2770 -0.4055  0.1194
 8274SOL    HW128099   1.502   0.371   1.370  0.5156 -1.6938  0.3539
 8274SOL    HW228100   1.646   0.409   1.343  1.2027 -3.5091  1.3580
 8275SOL     OW28101   9.488  10.105   6.003  0.2565 -0.5840  0.1324
 8275SOL    HW128102   9.539  10.158   6.064 -0.1403 -0.3549  0.2696
 8275SOL    HW228103   9.552  10.077   5.937  0.2121  1.4286 -0.8584
 8276SOL     OW28104   2.254   8.369   4.308  0.3952  0.1937  0.5921
 8276SOL    HW128105   2.320   8.323   4.257 -2.0067 -2.0215 -0.7590
 8276SOL    HW228106   2.221   8.304   4.370 -0.5842  1.1941  1.1727
 8277SOL     OW28107   6.613   1.094   6.521  0.1702  0.1104 -0.0521
 8277SOL    HW128108   6.554   1.125   6.453 -0.5709 -0.1374  0.4689
 8277SOL    HW228109   6.633   1.171   6.574  2.5100  0.8120 -1.7828
 8278SOL     OW28110   0.289   0.473   4.955  0.1096  0.9648 -0.1425
 8278SOL    HW128111   0.286   0.509   5.044 -0.8740  1.5744 -0.4195
 8278SOL    HW228112   0.225   0.524   4.906 -0.4307 -0.3567 -0.8453
 8279SOL     OW28113  11.000   7.943   5.059 -0.0910  0.0923 -0.0327
 8279SOL    HW128114  10.972   8.002   4.989  0.4698 -0.7225 -0.9696
 8279SOL    HW228115  11.000   7.857   5.019  0.7026 -0.3319  0.8392
 8280SOL     OW28116   2.778   3.296   5.467 -0.2034  0.1423  0.1988
 8280SOL    HW128117   2.809   3.355   5.398  0.4218 -0.3693  0.0371
 8280SOL    HW228118   2.856   3.247   5.493 -0.2493  0.8767  1.8228
 8281SOL     OW28119   2.274   1.865   1.077 -0.3206  0.4271  0.2139
 8281SOL    HW128120   2.218   1.890   1.004 -0.6561 -2.0257 -0.4704
 8281SOL    HW228121   2.363   1.889   1.050 -0.3605 -0.9986 -1.3406
 8282SOL     OW28122   9.881   3.347   3.544 -0.5276 -0.1355  0.2982
 8282SOL    HW128123   9.913   3.433   3.516  0.9690  0.5156  3.5075
 8282SOL    HW228124   9.949   3.315   3.604 -3.0486 -1.5443  2.6269
 8283SOL     OW28125   9.472   7.223   9.030 -0.2176  0.1367  0.3159
 8283SOL    HW128126   9.452   7.244   9.121  1.1719 -1.1737  0.9689
 8283SOL    HW228127   9.538   7.154   9.035 -1.2063 -1.0452 -1.6932
 8284SOL     OW28128   2.463   2.900   0.513 -0.1825  0.3297 -0.4882
 8284SOL    HW128129   2.520   2.961   0.560 -0.1815 -1.1665  1.6354
 8284SOL    HW228130   2.396   2.955   0.473  0.0516  1.7749  0.9916
 8285SOL     OW28131   9.234   0.560   0.830 -0.2978  0.0175  0.2990
 8285SOL    HW128132   9.165   0.493   0.829 -1.5643  1.2406 -1.5549
 8285SOL    HW228133   9.242   0.587   0.738 -0.2441  2.7757  1.0209
 8286SOL     OW28134   8.949   8.510  10.631 -0.1341  0.0664 -0.2582
 8286SOL    HW128135   8.933   8.580  10.567  1.4252  0.3765 -0.3481
 8286SOL    HW228136   9.010   8.451  10.587  0.9065  0.2434  0.8894
 8287SOL     OW28137   3.562  10.965  11.295  0.3556  0.3556 -0.0816
 8287SOL    HW128138   3.608  10.973  11.379 -1.1666  0.2176  0.8125
 8287SOL    HW228139   3.477  11.006  11.311  0.3420  1.1007 -1.8410
 8288SOL     OW28140   8.594   7.088   6.218 -0.4247 -0.4299  0.2392
 8288SOL    HW128141   8.669   7.030   6.209 -0.1975 -0.4307  1.8212
 8288SOL    HW228142   8.618   7.167   6.168  0.5713 -0.4847  0.6042
 8289SOL     OW28143   2.556   8.520   1.948 -0.0751 -0.4968 -0.1799
 8289SOL    HW128144   2.609   8.532   2.027 -0.1771 -0.0537 -0.1792
 8289SOL    HW228145   2.472   8.560   1.969  0.0995  0.1885 -0.7296
 8290SOL     OW28146   7.327   0.854   5.281 -0.1333  0.0771  0.8251
 8290SOL    HW128147   7.316   0.922   5.214 -0.7870 -0.1562  0.6852
 8290SOL    HW228148   7.419   0.859   5.306  0.1702  0.0193 -0.2451
 8291SOL     OW28149   3.581   8.594  11.174  0.1140 -0.1768  0.0053
 8291SOL    HW128150   3.487   8.614  11.177  0.2214  1.1911 -2.6984
 8291SOL    HW228151   3.623   8.672  11.212  0.2046  0.8921 -2.1282
 8292SOL     OW28152   3.243   1.050   3.684  0.2424  0.1082  0.4486
 8292SOL    HW128153   3.195   1.051   3.767 -1.4778  0.0035 -0.5144
 8292SOL    HW228154   3.227   1.136   3.646 -0.6067 -0.5112 -0.6502
 8293SOL     OW28155   4.841   3.206   5.988  0.6693  0.2987 -0.2120
 8293SOL    HW128156   4.867   3.259   5.913  2.0449 -1.2613 -0.8934
 8293SOL    HW228157   4.780   3.141   5.952  1.3208 -0.4432  0.0014
 8294SOL     OW28158   9.128   7.977  11.286  0.6528 -0.9831 -0.2645
 8294SOL    HW128159   9.133   8.072  11.276  1.8160 -0.7885  1.7377
 8294SOL    HW228160   9.051   7.951  11.234  0.6955  0.9426 -1.3647
 8295SOL     OW28161   7.748   7.622   0.340  0.0402  0.2124 -0.5642
 8295SOL    HW128162   7.724   7.567   0.415  1.5826 -0.2806 -0.4050
 8295SOL    HW228163   7.664   7.656   0.308 -0.8088 -0.9649  0.3034
 8296SOL     OW28164   1.767  11.343   3.036  0.5742  0.1681 -0.5796
 8296SOL    HW128165   1.836  11.302   2.984 -0.7040 -1.7132 -0.9118
 8296SOL    HW228166   1.691  11.345   2.977  0.1258  1.5192  0.0085
 8297SOL     OW28167   3.153   1.591   6.886 -0.0736  0.0386  0.3250
 8297SOL    HW128168   3.108   1.647   6.822  0.6578 -1.5381 -1.6927
 8297SOL    HW228169   3.238   1.633   6.898 -0.4090  0.6252  0.6888
 8298SOL     OW28170   0.746   3.883   1.475 -0.4012  0.4088 -0.1578
 8298SOL    HW128171   0.706   3.871   1.561  1.0986  2.2445  0.8375
 8298SOL    HW228172   0.671   3.895   1.416 -1.4194  0.1602  1.0324
 8299SOL     OW28173  11.368   5.990   0.378  0.1787  0.0439 -0.2432
 8299SOL    HW128174  11.411   6.071   0.404 -0.6038  0.7309 -1.0221
 8299SOL    HW228175  11.380   5.985   0.283 -1.3345  0.2165 -0.4797
 8300SOL     OW28176   9.818   1.580   4.342 -0.3094  0.1156  0.1105
 8300SOL    HW128177   9.734   1.596   4.300  0.1923  1.0977 -0.5802
 8300SOL    HW228178   9.882   1.622   4.284  0.4897  0.8172  1.4459
 8301SOL     OW28179   3.394   0.545   1.469 -0.5630  0.3665  0.0462
 8301SOL    HW128180   3.359   0.557   1.557  0.0311  2.0016  0.0868
 8301SOL    HW228181   3.443   0.463   1.475 -1.2356  0.0096  0.9936
 8302SOL     OW28182  10.486   9.537   0.645 -0.5636 -0.4607  0.2115
 8302SOL    HW128183  10.501   9.565   0.555 -0.8614 -1.2267 -0.0822
 8302SOL    HW228184  10.573   9.521   0.681 -0.2503  2.2654  0.8793
 8303SOL     OW28185   2.585   3.996   6.623  0.2432 -0.1929 -0.0533
 8303SOL    HW128186   2.501   3.957   6.600 -0.3425  1.4880 -0.9258
 8303SOL    HW228187   2.650   3.931   6.597 -0.7308 -1.1392 -0.1948
 8304SOL     OW28188   3.179  11.231  10.996  0.5188  0.9546 -0.1303
 8304SOL    HW128189   3.121  11.171  11.042  0.9502  1.7181  1.4977
 8304SOL    HW228190   3.267  11.197  11.013  0.6518  0.5064 -1.5414
 8305SOL     OW28191   9.342   1.505   9.404 -0.1836  0.0006  0.4222
 8305SOL    HW128192   9.335   1.441   9.475  0.2530  0.4451  0.8767
 8305SOL    HW228193   9.349   1.452   9.325  0.8085 -0.5372  0.8507
 8306SOL     OW28194   6.864   2.021   9.415 -0.0417  0.2382  0.1817
 8306SOL    HW128195   6.926   1.971   9.468  0.4008  0.4819 -0.0965
 8306SOL    HW228196   6.780   2.012   9.460  0.5480  1.3897  1.5455
 8307SOL     OW28197   3.780   7.523   2.521  0.3337  0.4626  0.1198
 8307SOL    HW128198   3.735   7.491   2.443 -1.0255  0.1914  0.9677
 8307SOL    HW228199   3.793   7.617   2.504  3.0199 -0.1495 -1.7537
 8308SOL     OW28200  10.651   9.967   0.795 -0.3614 -0.3685 -0.2420
 8308SOL    HW128201  10.574   9.910   0.802 -0.5236 -0.2057 -0.6967
 8308SOL    HW228202  10.699   9.952   0.876 -0.9333 -0.3883  0.1007
 8309SOL     OW28203  10.337   5.447  10.455 -0.4428 -0.2963  0.4444
 8309SOL    HW128204  10.304   5.390  10.385 -2.1933  1.6215 -0.4521
 8309SOL    HW228205  10.286   5.422  10.532 -3.1930  1.6179 -0.5689
 8310SOL     OW28206   4.312   5.853   2.574 -0.2570 -0.0163  0.0574
 8310SOL    HW128207   4.311   5.772   2.523 -0.2986  0.6818 -1.1061
 8310SOL    HW228208   4.400   5.858   2.610 -0.9685 -1.8080  2.2675
 8311SOL     OW28209   8.790  10.624   9.984  0.2380  0.5084  0.1533
 8311SOL    HW128210   8.721  10.641  10.048  0.1240  2.2467 -0.3836
 8311SOL    HW228211   8.858  10.688  10.005  0.9421 -0.0255 -0.4306
 8312SOL     OW28212   2.769   9.602   4.965 -0.1649  0.9944 -0.4139
 8312SOL    HW128213   2.684   9.593   4.921 -0.0503 -0.1002 -0.4319
 8312SOL    HW228214   2.805   9.514   4.966 -0.3594  0.8545  2.2718
 8313SOL     OW28215   2.829   1.837   3.577  0.1750  0.3373 -0.0575
 8313SOL    HW128216   2.758   1.898   3.558  0.5424  1.0359  0.7771
 8313SOL    HW228217   2.845   1.846   3.671  0.8926 -0.3314 -0.1040
 8314SOL     OW28218   6.569   8.002  10.760  0.4107  0.0494 -0.6999
 8314SOL    HW128219   6.491   7.983  10.812  1.8590 -3.0976  0.5570
 8314SOL    HW228220   6.569   7.935  10.692  1.8504  0.1784 -0.8571
 8315SOL     OW28221   5.189   2.636   2.935  0.3234 -0.2580 -0.3905
 8315SOL    HW128222   5.257   2.694   2.900  0.6118  0.7651  1.6969
 8315SOL    HW228223   5.235   2.555   2.955  0.6107 -0.0900 -0.3595
 8316SOL     OW28224   6.465  11.390   8.446 -0.1697 -0.2186 -0.3802
 8316SOL    HW128225   6.481  11.473   8.401 -0.5459 -0.0214 -0.1548
 8316SOL    HW228226   6.523  11.393   8.522 -1.2644  0.5107  0.4537
 8317SOL     OW28227   8.683   7.636   1.377  0.4325  0.1078  0.2402
 8317SOL    HW128228   8.606   7.582   1.363  0.8457 -0.2760 -0.6522
 8317SOL    HW228229   8.688   7.692   1.300  1.7627 -0.7901 -0.3705
 8318SOL     OW28230   9.954   3.116   2.925 -0.2314 -0.1676 -0.1101
 8318SOL    HW128231   9.862   3.142   2.917  0.0474  0.5253 -1.1619
 8318SOL    HW228232   9.958   3.028   2.888 -0.6382 -0.6129  0.8497
 8319SOL     OW28233   0.422   5.397   7.781 -0.0719 -0.5014  0.3267
 8319SOL    HW128234   0.463   5.458   7.843  0.1778 -0.3277  0.0008
 8319SOL    HW228235   0.346   5.362   7.827 -1.9151  2.1686 -0.4121
 8320SOL     OW28236   9.877   5.509   4.349  0.9526 -0.9167  0.6768
 8320SOL    HW128237   9.958   5.461   4.333  0.2104 -1.5265 -1.6712
 8320SOL    HW228238   9.870   5.570   4.275 -0.8082 -1.0089  0.7227
 8321SOL     OW28239  10.328   6.174   1.768  0.1192 -0.5918  0.2940
 8321SOL    HW128240  10.373   6.160   1.685  3.1595  1.1903  1.5186
 8321SOL    HW228241  10.329   6.268   1.782 -0.8898 -0.7857  2.0993
 8322SOL     OW28242   8.536  10.643   8.297 -0.4222  0.1961  0.5123
 8322SOL    HW128243   8.535  10.731   8.259  1.1412  0.0569  0.1132
 8322SOL    HW228244   8.444  10.627   8.321 -1.0891  1.1379 -1.2150
 8323SOL     OW28245   0.645  10.522   0.206  0.3150 -0.4966 -0.1665
 8323SOL    HW128246   0.639  10.453   0.140 -0.6052  0.1895 -0.8463
 8323SOL    HW228247   0.554  10.537   0.232  0.3681  1.1102 -0.7631
 8324SOL     OW28248   7.789   0.729   9.042  0.5642  0.2698 -0.5913
 8324SOL    HW128249   7.806   0.710   8.950  1.2682 -1.8527 -0.0903
 8324SOL    HW228250   7.718   0.670   9.065  0.4271  0.7513  0.2299
 8325SOL     OW28251   8.302  11.061   3.002 -0.0309 -0.1737 -0.1047
 8325SOL    HW128252   8.349  11.091   2.924 -0.9508 -0.3524 -0.7375
 8325SOL    HW228253   8.287  11.141   3.053 -0.3072  0.0863 -0.5942
 8326SOL     OW28254  10.483   4.561   0.673 -0.0572  0.2484  0.0891
 8326SOL    HW128255  10.414   4.526   0.730 -1.2961  2.0455 -0.2243
 8326SOL    HW228256  10.459   4.533   0.585 -0.0201  0.3166  0.0571
 8327SOL     OW28257   0.122  10.680  11.000  0.0752  0.4619  0.1545
 8327SOL    HW128258   0.173  10.619  10.948  0.0561  1.6896 -1.3850
 8327SOL    HW228259   0.163  10.679  11.086  0.2387 -1.4686  0.0894
 8328SOL     OW28260   4.468   3.111   7.259  0.2844 -0.8385 -0.1135
 8328SOL    HW128261   4.412   3.092   7.183  0.0735 -0.8775  0.0528
 8328SOL    HW228262   4.516   3.190   7.233 -2.1379  1.1191  0.9453
 8329SOL     OW28263   0.667   6.486   8.370  0.0923 -0.3199  0.4238
 8329SOL    HW128264   0.573   6.492   8.387 -0.1476  2.0965 -1.1869
 8329SOL    HW228265   0.672   6.456   8.279  0.7776  1.2338 -0.0803
 8330SOL     OW28266   2.433   7.029   7.138  0.4222  0.5191  0.1786
 8330SOL    HW128267   2.355   7.006   7.187  1.1125 -0.8648  0.6853
 8330SOL    HW228268   2.492   7.069   7.202  0.5949  0.4502  0.0661
 8331SOL     OW28269   9.037  10.790   2.043 -0.3115  0.3323  0.1070
 8331SOL    HW128270   8.966  10.768   1.983 -0.6406  0.5736  0.4027
 8331SOL    HW228271   8.993  10.815   2.125  0.1692 -0.9473  0.7735
 8332SOL     OW28272   4.309  10.164   2.225  0.7585  0.2530  0.4638
 8332SOL    HW128273   4.234  10.198   2.275  1.4217 -0.5209  2.0508
 8332SOL    HW228274   4.340  10.090   2.276  0.1054 -2.0762 -2.2547
 8333SOL     OW28275   3.184   4.189   0.804  0.5228  0.0747 -0.2326
 8333SOL    HW128276   3.267   4.231   0.779  0.7293 -0.7962 -1.0386
 8333SOL    HW228277   3.193   4.098   0.778 -0.0799 -0.4227  1.1490
 8334SOL     OW28278   6.066   4.864   0.052  0.2651  0.2215 -0.4520
 8334SOL    HW128279   6.045   4.911   0.132 -0.9237 -0.0695 -0.5636
 8334SOL    HW228280   6.109   4.928  -0.004  0.4725  0.6128  0.1514
 8335SOL     OW28281  10.170   3.935  10.322  0.2266 -0.6036  0.1858
 8335SOL    HW128282  10.244   3.891  10.281 -0.5729 -0.5033 -1.4327
 8335SOL    HW228283  10.180   3.916  10.416  2.7315  0.0728  0.1398
 8336SOL     OW28284   8.165   7.244   6.905 -0.1208 -0.2706  0.3353
 8336SOL    HW128285   8.180   7.242   6.811  1.6341  0.3129  0.5608
 8336SOL    HW228286   8.080   7.202   6.917  0.3301 -1.7749 -1.3545
 8337SOL     OW28287   6.917   6.071   3.630  0.1383 -0.2962 -0.3624
 8337SOL    HW128288   6.943   6.161   3.610 -1.6921  0.4275  0.2700
 8337SOL    HW228289   6.843   6.054   3.573  0.7467 -1.5936 -0.8011
 8338SOL     OW28290   8.713   9.463   6.683 -0.3523  0.1136  0.5552
 8338SOL    HW128291   8.673   9.414   6.755 -0.6024 -3.2269 -1.5992
 8338SOL    HW228292   8.803   9.429   6.678 -0.9786 -1.4393 -1.9393
 8339SOL     OW28293   1.151   3.025   8.780 -0.5427 -0.1533  0.2770
 8339SOL    HW128294   1.124   3.096   8.838 -1.7832 -0.4828  0.1256
 8339SOL    HW228295   1.171   3.068   8.697  0.3941  0.2141  0.6837
 8340SOL     OW28296   0.381  10.566   5.636 -0.7789 -0.7901  0.1465
 8340SOL    HW128297   0.427  10.523   5.707 -0.3615  1.2762  1.2060
 8340SOL    HW228298   0.338  10.641   5.677 -0.1892  0.7132 -1.8182
 8341SOL     OW28299   5.618   2.360  10.218 -0.3572 -0.4391 -0.3465
 8341SOL    HW128300   5.639   2.323  10.132  1.5986  0.8871 -0.4970
 8341SOL    HW228301   5.661   2.301  10.280  0.5902  0.1137 -0.4550
 8342SOL     OW28302   1.316   3.949   3.526  0.6853  0.1834 -0.0759
 8342SOL    HW128303   1.253   4.018   3.503 -2.5164 -1.4181  2.9711
 8342SOL    HW228304   1.321   3.894   3.448 -1.2355  0.7169 -0.6213
 8343SOL     OW28305  10.230   4.560   3.091 -0.6760 -0.1728  0.2645
 8343SOL    HW128306  10.244   4.572   3.185 -0.3753  1.5250  0.0355
 8343SOL    HW228307  10.303   4.505   3.062 -1.3072 -1.5190  1.1718
 8344SOL     OW28308   4.308   2.923   2.759 -0.3026 -0.2466  0.5016
 8344SOL    HW128309   4.401   2.939   2.742 -0.3594 -0.8700 -0.4873
 8344SOL    HW228310   4.285   2.986   2.827  0.9355 -0.3321  1.0378
 8345SOL     OW28311   2.168   7.990   8.267  0.6004  0.6569  0.5045
 8345SOL    HW128312   2.255   7.994   8.227  0.8562  0.7266  1.0503
 8345SOL    HW228313   2.173   8.051   8.341  0.3387  0.0810  1.0051
 8346SOL     OW28314   3.014   8.572   4.474 -0.1959 -0.1693  0.3358
 8346SOL    HW128315   3.007   8.661   4.438  0.1891 -0.6131 -0.8770
 8346SOL    HW228316   3.106   8.549   4.463 -0.4626 -1.0379 -0.1694
 8347SOL     OW28317   3.176   0.164   9.152 -0.4146 -0.2044 -0.4154
 8347SOL    HW128318   3.097   0.197   9.109  0.5721  1.9218 -0.7684
 8347SOL    HW228319   3.149   0.145   9.241 -1.6370 -0.9512 -0.9205
 8348SOL     OW28320   8.850   8.051   1.391 -0.0374 -0.1721 -0.1150
 8348SOL    HW128321   8.782   8.032   1.455 -0.6186  1.8736 -0.0289
 8348SOL    HW228322   8.809   8.115   1.332  2.0308  1.8130  0.4496
 8349SOL     OW28323   6.807   0.756  11.346 -0.0254  0.0994 -0.1971
 8349SOL    HW128324   6.715   0.780  11.344  0.3259  1.6669  0.7763
 8349SOL    HW228325   6.849   0.819  11.286  0.1393 -2.1902 -2.6898
 8350SOL     OW28326  10.485   6.053   2.559 -0.4383 -0.3055  0.3873
 8350SOL    HW128327  10.432   5.987   2.604  0.5266 -0.3044  1.5717
 8350SOL    HW228328  10.443   6.137   2.582 -0.6467 -0.3798  0.2867
 8351SOL     OW28329   1.385   1.656   1.242 -0.5033 -0.6012 -0.5682
 8351SOL    HW128330   1.401   1.722   1.309 -2.0306 -0.9633  0.1919
 8351SOL    HW228331   1.469   1.647   1.197  1.0660 -1.4366  2.2590
 8352SOL     OW28332   2.271  10.379   1.557 -0.2913 -0.1757  0.0618
 8352SOL    HW128333   2.357  10.355   1.522 -1.7022 -2.0720 -2.4183
 8352SOL    HW228334   2.274  10.475   1.564  1.9904 -0.1991  0.0364
 8353SOL     OW28335   8.429  10.146   5.929  0.2207  0.1502  0.2461
 8353SOL    HW128336   8.446  10.148   6.023  0.0778  0.2365  0.2701
 8353SOL    HW228337   8.354  10.204   5.917  1.6817  2.0215 -0.2380
 8354SOL     OW28338   4.231  10.134   1.334 -0.6562 -0.0265  0.4913
 8354SOL    HW128339   4.166  10.202   1.316 -1.8905 -1.6350 -1.5857
 8354SOL    HW228340   4.191  10.080   1.402 -1.8652 -1.3577 -1.1965
 8355SOL     OW28341   9.800   4.280   8.518 -0.3519 -0.5165 -0.1679
 8355SOL    HW128342   9.878   4.242   8.478 -0.5686 -0.7569 -0.3625
 8355SOL    HW228343   9.817   4.278   8.612  0.7216  1.2486 -0.2818
 8356SOL     OW28344   7.154   7.599   5.989 -0.2071 -0.3536 -0.4103
 8356SOL    HW128345   7.222   7.626   5.927  0.1042  0.5157  0.2784
 8356SOL    HW228346   7.202   7.558   6.061 -0.2898  1.1752  0.5542
 8357SOL     OW28347   1.396   9.214   9.554  0.1185  0.6504  0.5187
 8357SOL    HW128348   1.452   9.290   9.540  1.0833 -0.0147  0.6114
 8357SOL    HW228349   1.413   9.189   9.645  1.0359 -0.5950  0.0468
 8358SOL     OW28350   2.272   0.671   2.355  0.0848  0.2790 -0.3774
 8358SOL    HW128351   2.366   0.665   2.338  0.0267 -1.1289 -0.3331
 8358SOL    HW228352   2.263   0.657   2.449  0.0423  3.6044  0.2249
 8359SOL     OW28353  10.466  10.260   2.254 -0.3732 -1.2124 -0.4049
 8359SOL    HW128354  10.462  10.263   2.158 -0.7781 -1.6427 -0.4045
 8359SOL    HW228355  10.531  10.326   2.277 -1.6234  0.2409 -0.8798
 8360SOL     OW28356   4.102   2.981   9.029 -0.5636  0.2498  0.0910
 8360SOL    HW128357   4.124   2.975   8.936  0.2436  2.3554  0.1055
 8360SOL    HW228358   4.184   2.963   9.074 -0.8410 -0.2726  0.3911
 8361SOL     OW28359   6.441   2.746   9.572  0.1733 -0.8428  0.0170
 8361SOL    HW128360   6.496   2.719   9.646  0.0758 -2.1321 -0.3470
 8361SOL    HW228361   6.379   2.673   9.561  0.6577 -1.0353 -1.7954
 8362SOL     OW28362   2.712   5.363   0.247  0.0897  0.1963  0.3090
 8362SOL    HW128363   2.691   5.415   0.169  1.4119  0.1944 -0.0656
 8362SOL    HW228364   2.732   5.427   0.314 -1.8083  0.2222  0.9191
 8363SOL     OW28365  11.020   0.662   7.541  0.4671  0.0308  0.3144
 8363SOL    HW128366  11.045   0.572   7.560 -0.9092 -0.4196  0.0506
 8363SOL    HW228367  10.962   0.656   7.465  1.5317  1.2841 -0.6744
 8364SOL     OW28368   7.806  11.127   6.150  0.0490 -0.3020 -0.4584
 8364SOL    HW128369   7.855  11.165   6.077  0.2652  0.0657 -0.1308
 8364SOL    HW228370   7.864  11.060   6.186  1.0706  1.2471  0.9684
 8365SOL     OW28371   1.666   3.632   6.502 -0.0570  0.5638  0.3919
 8365SOL    HW128372   1.708   3.668   6.424  0.2504 -0.4673  0.0681
 8365SOL    HW228373   1.584   3.680   6.510 -0.1067  0.6528 -0.5847
 8366SOL     OW28374   9.400   4.671   0.710 -0.4653 -0.0921 -1.0175
 8366SOL    HW128375   9.430   4.660   0.620 -1.4202  0.7537 -1.4638
 8366SOL    HW228376   9.365   4.585   0.735  1.0913 -0.7360 -0.9257
 8367SOL     OW28377   7.921   1.274   6.390  0.9547 -0.4892  0.4234
 8367SOL    HW128378   7.892   1.194   6.435  0.0774 -0.0594  0.6494
 8367SOL    HW228379   7.943   1.246   6.302  1.9855 -1.2167  0.8904
 8368SOL     OW28380   1.105   3.307  11.307 -0.2077 -0.1022 -0.1746
 8368SOL    HW128381   1.062   3.381  11.265 -0.5098 -0.0496  0.2170
 8368SOL    HW228382   1.039   3.237  11.305 -0.4601  0.0978  0.7822
 8369SOL     OW28383   7.666   9.198   5.222 -0.3722  0.2786  0.1879
 8369SOL    HW128384   7.623   9.282   5.210  0.5338  0.6800 -0.3164
 8369SOL    HW228385   7.705   9.204   5.309  2.0083  1.4765 -0.8774
 8370SOL     OW28386  10.672   2.641   3.681 -0.0759 -0.0963  0.6860
 8370SOL    HW128387  10.643   2.702   3.749 -5.3320 -0.8476 -0.4665
 8370SOL    HW228388  10.604   2.574   3.677 -0.1551 -0.2106 -5.1733
 8371SOL     OW28389   7.237   0.750   0.467  0.4344  0.0810  0.1615
 8371SOL    HW128390   7.286   0.746   0.386 -0.3001  0.5077 -0.3169
 8371SOL    HW228391   7.303   0.753   0.536  1.0666  0.3160 -0.4515
 8372SOL     OW28392   8.847   0.731  11.000  0.5320 -0.1508 -0.2510
 8372SOL    HW128393   8.792   0.718  11.077  2.1597 -0.8252  0.8543
 8372SOL    HW228394   8.866   0.825  11.000 -0.9771  0.1820 -0.9365
 8373SOL     OW28395   1.159   9.256   0.395 -0.7033 -0.3105  0.3442
 8373SOL    HW128396   1.098   9.182   0.389  0.4964 -1.5695  2.3576
 8373SOL    HW228397   1.245   9.216   0.401  0.2005  1.3777 -0.8195
 8374SOL     OW28398   9.003   6.536   9.542 -0.2943 -0.3113 -0.2931
 8374SOL    HW128399   8.916   6.502   9.562 -1.0149  1.9033  0.6764
 8374SOL    HW228400   8.986   6.622   9.503  1.4405 -0.3277 -1.1721
 8375SOL     OW28401   9.589   9.395   2.411 -0.2207  0.3145 -0.2979
 8375SOL    HW128402   9.673   9.362   2.441  0.3035  0.1666 -1.8156
 8375SOL    HW228403   9.598   9.490   2.413 -0.0096  0.2983 -0.4638
 8376SOL     OW28404  10.237   0.478   4.777  0.2491 -0.4595 -0.0895
 8376SOL    HW128405  10.287   0.417   4.831 -0.1917 -2.6401 -1.9866
 8376SOL    HW228406  10.224   0.431   4.695 -1.6460  1.5372 -1.0096
 8377SOL     OW28407   2.038   5.226   9.602  0.0377  0.2231 -0.1981
 8377SOL    HW128408   1.959   5.240   9.549  0.5347 -0.5718 -1.1726
 8377SOL    HW228409   2.004   5.208   9.690 -1.0116 -1.8249 -0.9367
 8378SOL     OW28410   9.289   4.711   4.622 -0.3452 -0.6988  0.1601
 8378SOL    HW128411   9.347   4.733   4.549  0.5077 -2.4268  0.2856
 8378SOL    HW228412   9.341   4.730   4.700 -0.7536 -0.1838  0.3115
 8379SOL     OW28413   2.055   5.228   6.197  0.3563 -0.0583  0.2469
 8379SOL    HW128414   2.105   5.182   6.265  0.7778  2.0058  1.3954
 8379SOL    HW228415   1.996   5.285   6.245  1.0392  1.8661 -1.0628
 8380SOL     OW28416   9.419   8.947   2.993 -0.6381 -0.8844 -0.6000
 8380SOL    HW128417   9.338   8.989   3.022 -0.7351 -1.5842  0.1902
 8380SOL    HW228418   9.458   8.912   3.073  1.5131  1.1784 -0.6504
 8381SOL     OW28419  10.688   7.312   7.946 -0.1542 -0.0667 -0.3293
 8381SOL    HW128420  10.757   7.364   7.987 -0.5523 -0.8306  1.3949
 8381SOL    HW228421  10.732   7.231   7.919 -0.3822 -0.6592  0.9948
 8382SOL     OW28422   3.470   4.891   3.934 -0.4401  0.6313  0.2638
 8382SOL    HW128423   3.411   4.830   3.891 -1.5422  1.3804  0.6730
 8382SOL    HW228424   3.480   4.964   3.873 -2.1879  1.8037  1.2736
 8383SOL     OW28425   1.117   8.256   3.245  0.2174 -0.7927 -0.3543
 8383SOL    HW128426   1.133   8.344   3.279  0.1568 -1.0964  0.4734
 8383SOL    HW228427   1.069   8.270   3.163 -3.9841 -0.1143  1.9396
 8384SOL     OW28428   1.121   9.308   2.597 -0.2733 -0.0507  0.8033
 8384SOL    HW128429   1.125   9.224   2.552  2.2386 -0.5363  1.7679
 8384SOL    HW228430   1.136   9.373   2.529 -0.6225 -0.4928  0.2981
 8385SOL     OW28431   1.565   2.716   2.690 -0.6442  0.6682 -0.1189
 8385SOL    HW128432   1.570   2.625   2.718 -1.2072  0.4904 -0.5736
 8385SOL    HW228433   1.513   2.759   2.757 -0.0312  0.7516  0.3131
 8386SOL     OW28434   4.176   8.166   4.317  0.4160  0.2299 -0.2114
 8386SOL    HW128435   4.222   8.239   4.358 -1.0897  0.9153  0.3107
 8386SOL    HW228436   4.246   8.104   4.294  1.5881  1.2220  0.5370
 8387SOL     OW28437   8.931   3.247  10.942  0.0983 -0.2070 -0.4892
 8387SOL    HW128438   8.846   3.236  10.900 -0.3901  2.7237 -0.5216
 8387SOL    HW228439   8.988   3.280  10.872  1.3442 -2.2278 -0.4953
 8388SOL     OW28440   8.964   7.683   2.040  0.7323  0.0793  0.0790
 8388SOL    HW128441   8.912   7.603   2.038  0.0044  0.5262  0.4595
 8388SOL    HW228442   8.983   7.703   1.948 -0.4294  0.3135 -0.1233
 8389SOL     OW28443   6.019   3.535   2.708  0.1470 -0.1387 -0.5368
 8389SOL    HW128444   5.984   3.532   2.797  1.7887 -0.2481  0.1347
 8389SOL    HW228445   6.022   3.628   2.686 -1.1583 -0.1558 -0.8767
 8390SOL     OW28446   5.042   2.489   0.941 -0.0398  0.6987  0.0838
 8390SOL    HW128447   5.033   2.406   0.988 -2.0138  0.7854 -0.0408
 8390SOL    HW228448   5.120   2.530   0.978 -0.1538 -0.3409  1.5439
 8391SOL     OW28449   9.076   4.553   9.848 -0.8526 -0.0296 -0.1807
 8391SOL    HW128450   9.086   4.630   9.904 -3.8658 -0.8444  1.7572
 8391SOL    HW228451   9.064   4.588   9.760 -0.6054  1.6163  0.4050
 8392SOL     OW28452  11.290   8.378   3.735 -0.1843 -0.0056 -0.1889
 8392SOL    HW128453  11.281   8.463   3.692 -2.3859 -1.1538 -2.2364
 8392SOL    HW228454  11.201   8.342   3.735  0.8123 -2.6732 -0.1862
 8393SOL     OW28455   6.531   9.912   7.862 -0.1191  0.0548 -0.4279
 8393SOL    HW128456   6.573   9.992   7.893 -0.0649  0.4212 -1.4009
 8393SOL    HW228457   6.522   9.925   7.767  1.8985 -1.9755 -0.9970
 8394SOL     OW28458   7.909   2.897  11.346 -0.6376  0.1036  0.1957
 8394SOL    HW128459   7.980   2.883  11.408 -0.7414  0.8931  0.4979
 8394SOL    HW228460   7.917   2.989  11.320  0.0313 -0.4392 -1.7365
 8395SOL     OW28461   7.826   4.876   8.589 -0.1969  0.1004 -0.5739
 8395SOL    HW128462   7.824   4.939   8.517 -1.2848 -2.4720 -3.0071
 8395SOL    HW228463   7.897   4.816   8.567 -0.6245 -0.8173  0.4435
 8396SOL     OW28464   8.641   5.711   3.871 -0.4380  0.0053  0.2146
 8396SOL    HW128465   8.648   5.802   3.842  1.7901  0.4542  1.8969
 8396SOL    HW228466   8.660   5.660   3.792 -0.5738  1.0060 -0.4921
 8397SOL     OW28467   4.822   3.832  10.337  0.2287  0.0972  0.0403
 8397SOL    HW128468   4.786   3.921  10.333 -0.0352 -0.0264 -0.6721
 8397SOL    HW228469   4.773   3.784  10.269 -0.5803 -0.9458  1.3137
 8398SOL     OW28470   3.315   2.008   6.990 -0.3845 -0.1001 -0.0259
 8398SOL    HW128471   3.295   2.039   6.902  0.8933  0.1226 -0.2623
 8398SOL    HW228472   3.409   2.022   6.999 -0.6126  0.5205  1.6376
 8399SOL     OW28473   8.011   7.367   1.625  0.3677  0.1376  0.1005
 8399SOL    HW128474   8.032   7.440   1.567 -0.7713  0.2873 -0.1476
 8399SOL    HW228475   7.971   7.409   1.702  0.0707 -0.2000  0.1294
 8400SOL     OW28476   0.729  10.570   2.902  0.6790  0.0545  0.3020
 8400SOL    HW128477   0.703  10.589   2.812  2.4240 -0.0520 -0.2607
 8400SOL    HW228478   0.686  10.487   2.923 -0.2892  0.4219 -0.1753
 8401SOL     OW28479  10.037   6.402   4.739  0.6162  0.4668 -0.5079
 8401SOL    HW128480  10.046   6.369   4.649 -0.6237 -0.3738 -0.3373
 8401SOL    HW228481  10.069   6.331   4.794  2.1375  1.2812 -0.2708
 8402SOL     OW28482   8.462   6.224   6.053 -0.2417 -0.0608 -0.0272
 8402SOL    HW128483   8.398   6.226   5.981  0.6065  1.8473 -0.7894
 8402SOL    HW228484   8.448   6.306   6.099  0.6386 -0.3337  0.7392
 8403SOL     OW28485   2.251   2.526   7.227 -0.4423  0.1619 -0.1979
 8403SOL    HW128486   2.270   2.483   7.311  0.5747 -0.0174 -0.5028
 8403SOL    HW228487   2.337   2.555   7.196 -0.7634 -0.0576 -1.3317
 8404SOL     OW28488   2.970   9.018   5.673 -0.1507  0.3815  0.1810
 8404SOL    HW128489   2.944   9.001   5.583  1.2042  0.8955 -0.3338
 8404SOL    HW228490   3.049   9.072   5.666 -0.1641  0.6564  1.6773
 8405SOL     OW28491   6.178   1.660   2.986 -0.6170 -0.0839 -0.4592
 8405SOL    HW128492   6.093   1.636   3.022 -0.3288  0.4639  0.6424
 8405SOL    HW228493   6.215   1.721   3.050  1.7704 -2.3689  0.5546
 8406SOL     OW28494  11.328   9.251   4.475 -0.4776 -0.2519  0.2075
 8406SOL    HW128495  11.393   9.191   4.438 -0.7414  0.0282 -0.7633
 8406SOL    HW228496  11.334   9.330   4.420 -0.7695  0.2576  0.8883
 8407SOL     OW28497  10.044   0.952   4.427  0.2291  0.3097  0.0348
 8407SOL    HW128498  10.031   0.972   4.334 -0.0227  0.0790  0.0181
 8407SOL    HW228499  10.070   1.035   4.466  0.1017  0.4612 -0.1975
 8408SOL     OW28500   3.735   7.865   3.241 -0.0511 -0.2898  0.5421
 8408SOL    HW128501   3.769   7.841   3.327 -0.0011  0.9808  0.8994
 8408SOL    HW228502   3.711   7.958   3.249  0.5283  0.0295 -0.9910
 8409SOL     OW28503   3.911   0.380   9.646  0.0937  0.5949  0.7309
 8409SOL    HW128504   3.855   0.425   9.710  1.0006  2.4194  0.3154
 8409SOL    HW228505   3.859   0.305   9.618 -1.0869  0.7899  2.2361
 8410SOL     OW28506   7.000   7.837   9.892  0.4110  0.3271  0.4553
 8410SOL    HW128507   7.061   7.800   9.827  0.1872 -1.9695  1.4409
 8410SOL    HW228508   6.958   7.909   9.847  1.0813 -0.4711 -1.5816
 8411SOL     OW28509   8.755   4.204   2.650  0.2507  0.5480 -0.4985
 8411SOL    HW128510   8.748   4.262   2.574 -0.5315 -0.8506 -1.5353
 8411SOL    HW228511   8.700   4.129   2.628  0.4884 -0.1645  1.2096
 8412SOL     OW28512  10.124   8.056   5.020 -0.0580 -0.0393 -0.0487
 8412SOL    HW128513  10.045   8.085   5.066 -0.6971  0.1252 -1.2129
 8412SOL    HW228514  10.101   7.969   4.986  0.0147  0.2823 -0.9456
 8413SOL     OW28515   8.470   2.538   7.582  0.2301 -0.1245 -0.2250
 8413SOL    HW128516   8.490   2.584   7.501  0.5143  0.5712  0.2327
 8413SOL    HW228517   8.374   2.533   7.584  0.2031  0.3026 -0.3558
 8414SOL     OW28518   4.352   9.862   3.932  0.0311 -0.0857 -0.1978
 8414SOL    HW128519   4.370   9.865   4.026 -1.2415  1.2836  0.0390
 8414SOL    HW228520   4.366   9.951   3.902  0.0349 -0.4233 -1.2367
 8415SOL     OW28521   2.475   6.255   1.181  0.1694  0.6529 -0.4112
 8415SOL    HW128522   2.406   6.249   1.116  0.5073  1.5092 -0.8777
 8415SOL    HW228523   2.489   6.349   1.192  0.9730  0.4989 -0.0254
 8416SOL     OW28524   6.479   6.117   5.733  0.3929  0.0044  0.2212
 8416SOL    HW128525   6.505   6.154   5.818  1.8907 -1.0767  0.2708
 8416SOL    HW228526   6.384   6.110   5.738  0.1666  2.4202  0.7668
 8417SOL     OW28527   1.517   3.438  10.044 -0.3084 -0.7283 -0.7522
 8417SOL    HW128528   1.507   3.352  10.002 -2.3167 -1.4801  1.1075
 8417SOL    HW228529   1.440   3.487  10.016  0.9090  0.6052 -1.9326
 8418SOL     OW28530   2.922   6.141   5.754  0.2544  0.4608 -0.0969
 8418SOL    HW128531   2.946   6.203   5.685  2.3117  0.5854  0.6559
 8418SOL    HW228532   3.004   6.122   5.799 -0.6001 -1.5767  0.7388
 8419SOL     OW28533   9.622   4.150   6.396  0.3261 -0.1695  0.1308
 8419SOL    HW128534   9.569   4.228   6.377  0.4490  0.7471  3.0789
 8419SOL    HW228535   9.712   4.178   6.380  0.2155 -0.7102 -1.6937
 8420SOL     OW28536   5.705   8.276   7.814  0.0165 -0.4202  0.3094
 8420SOL    HW128537   5.675   8.278   7.723  0.6859  0.4101  0.0980
 8420SOL    HW228538   5.753   8.193   7.822 -2.1046 -1.7107  0.6108
 8421SOL     OW28539   8.625   3.434   3.797  0.0733  0.1259 -0.3166
 8421SOL    HW128540   8.572   3.391   3.864  1.8163 -2.1383 -0.2916
 8421SOL    HW228541   8.710   3.447   3.838  1.1663 -1.2613 -2.0155
 8422SOL     OW28542   8.938   6.726   1.619  0.5811 -0.1359  0.6480
 8422SOL    HW128543   8.858   6.726   1.565  1.2448  2.5459 -0.4947
 8422SOL    HW228544   9.010   6.728   1.556  1.5097 -0.5570  1.6617
 8423SOL     OW28545   5.556   3.047   8.764  0.4358  0.5522  0.0287
 8423SOL    HW128546   5.510   3.016   8.841  1.9613 -0.2135  0.6687
 8423SOL    HW228547   5.511   3.005   8.690  0.0841 -0.1227  0.6186
 8424SOL     OW28548   1.971   8.846   5.716 -0.8185  0.0971 -0.4313
 8424SOL    HW128549   1.956   8.923   5.662 -0.8340 -0.5379 -1.3595
 8424SOL    HW228550   2.066   8.833   5.714 -0.3936  1.8279  2.2334
 8425SOL     OW28551   0.104   5.141   9.024 -0.7005  0.4242 -0.4305
 8425SOL    HW128552   0.180   5.083   9.033  0.6154  2.2458  1.4094
 8425SOL    HW228553   0.029   5.085   9.044  0.2441 -1.1725 -1.1337
 8426SOL     OW28554   3.260   0.262   4.494 -0.3839  0.5924  0.6063
 8426SOL    HW128555   3.238   0.186   4.439 -0.0966  0.2961  0.8949
 8426SOL    HW228556   3.180   0.280   4.542 -0.7105  0.9966 -0.0698
 8427SOL     OW28557   4.970   6.230   7.641  0.1215  0.6499 -0.2885
 8427SOL    HW128558   4.920   6.252   7.562 -0.7883  1.6069  0.5199
 8427SOL    HW228559   4.917   6.164   7.686  0.6133  0.1414 -0.4370
 8428SOL     OW28560   5.810   9.689   7.831 -0.0401 -0.6030 -0.2837
 8428SOL    HW128561   5.775   9.711   7.917 -3.3433 -1.1289 -1.3734
 8428SOL    HW228562   5.856   9.606   7.844 -0.3517 -0.5898  1.0018
 8429SOL     OW28563   7.845   0.179   5.244 -0.4253 -0.6258  0.0768
 8429SOL    HW128564   7.777   0.246   5.254 -1.5024 -1.7313  0.5035
 8429SOL    HW228565   7.800   0.105   5.203  1.3006 -0.2664 -2.7507
 8430SOL     OW28566   6.552   0.096   9.114  0.6037 -0.2715  0.1746
 8430SOL    HW128567   6.497   0.112   9.190  1.9048 -0.2408  1.1353
 8430SOL    HW228568   6.618   0.034   9.144  1.2206 -0.1607 -0.8887
 8431SOL     OW28569   9.216   1.745   5.991 -0.4642  0.1487 -0.0113
 8431SOL    HW128570   9.235   1.652   5.977 -0.3825  0.1477  0.1099
 8431SOL    HW228571   9.148   1.746   6.058 -0.2625  0.1879  0.1914
 8432SOL     OW28572  10.038   4.458  11.214  0.2477 -0.3037 -0.0429
 8432SOL    HW128573  10.018   4.424  11.301 -0.4255  1.4808  0.5437
 8432SOL    HW228574  10.054   4.380  11.161 -2.5983 -1.6384  0.8524
 8433SOL     OW28575   4.504   6.055   4.947 -0.5746  0.3376  0.4041
 8433SOL    HW128576   4.599   6.043   4.945 -0.6113 -0.1230  1.0099
 8433SOL    HW228577   4.487   6.125   4.884 -0.0625 -1.0688 -1.3874
 8434SOL     OW28578   9.343   9.784   6.469  0.4406 -0.0424 -0.1124
 8434SOL    HW128579   9.302   9.789   6.383 -0.7806  1.6011  0.5021
 8434SOL    HW228580   9.278   9.822   6.528  1.2117 -1.2319  1.5575
 8435SOL     OW28581   3.395   0.390   4.997 -0.0287 -0.0618  0.0295
 8435SOL    HW128582   3.305   0.361   4.982 -1.1997  2.7439  1.0887
 8435SOL    HW228583   3.408   0.380   5.091  0.3294  0.6772  0.0635
 8436SOL     OW28584  11.073   1.174   8.208  0.2322  0.1755 -0.0239
 8436SOL    HW128585  11.129   1.144   8.280 -2.6469 -1.4484  1.7365
 8436SOL    HW228586  11.008   1.231   8.250 -2.4298 -1.9684 -0.9144
 8437SOL     OW28587   2.308  10.637   5.487  0.7075  0.6064 -0.0013
 8437SOL    HW128588   2.329  10.728   5.467  0.0413  0.3915 -1.8960
 8437SOL    HW228589   2.347  10.587   5.415 -0.1744 -0.4501  0.2303
 8438SOL     OW28590   6.386   4.493   1.662  0.1528 -0.4304  0.4346
 8438SOL    HW128591   6.345   4.448   1.736  0.4723 -1.8839 -0.2338
 8438SOL    HW228592   6.440   4.561   1.702 -0.8931 -0.1567  1.4448
 8439SOL     OW28593   0.336   4.896   3.650 -1.3087 -0.5578  0.1018
 8439SOL    HW128594   0.315   4.987   3.670 -0.4583 -0.3604  0.1064
 8439SOL    HW228595   0.346   4.893   3.555 -1.1067 -0.5961  0.1236
 8440SOL     OW28596   6.472   7.498   4.418 -0.3072 -0.0384  0.2764
 8440SOL    HW128597   6.438   7.585   4.436 -0.4886 -0.1024  0.2471
 8440SOL    HW228598   6.464   7.452   4.502 -1.6426 -0.5008 -0.0673
 8441SOL     OW28599   5.452   0.216   0.882 -0.2409  0.5250 -0.4328
 8441SOL    HW128600   5.514   0.281   0.848  0.2864  0.2424 -0.0385
 8441SOL    HW228601   5.399   0.264   0.945  0.7044  0.4101  0.4919
 8442SOL     OW28602   4.297   2.885   7.630  0.3015 -0.1560  0.0405
 8442SOL    HW128603   4.387   2.876   7.601  0.5330 -1.1075  1.0019
 8442SOL    HW228604   4.303   2.917   7.720 -0.3627  1.0668 -0.3316
 8443SOL     OW28605   5.822  11.086   5.296  0.0007 -0.5669  0.0992
 8443SOL    HW128606   5.830  10.997   5.332  1.9478  0.6267  2.9609
 8443SOL    HW228607   5.768  11.132   5.360 -0.6998  0.4245 -1.1781
 8444SOL     OW28608   0.105   5.200  10.001 -0.3999  0.1749  0.2528
 8444SOL    HW128609   0.173   5.232  10.060  0.0515 -0.1625 -0.0791
 8444SOL    HW228610   0.023   5.230  10.041  0.0151  2.5471 -0.5395
 8445SOL     OW28611   9.777   4.111   4.016  0.0641  0.6336 -0.1053
 8445SOL    HW128612   9.809   4.097   3.927 -0.5313  2.3341 -0.6354
 8445SOL    HW228613   9.684   4.090   4.012  0.5523 -2.1122  0.8848
 8446SOL     OW28614   8.913  11.159  10.790 -0.4412 -0.1541 -0.2153
 8446SOL    HW128615   8.825  11.198  10.794 -0.6624 -0.7380  1.9599
 8446SOL    HW228616   8.898  11.071  10.756 -0.5747  0.0224 -0.6222
 8447SOL     OW28617   6.218   6.749  10.117 -0.3096 -0.1734  0.2559
 8447SOL    HW128618   6.155   6.683  10.143  0.7801 -1.3054  0.1272
 8447SOL    HW228619   6.303   6.705  10.124  0.3020  0.5787 -1.7620
 8448SOL     OW28620   2.309   4.268   6.569  0.2254 -0.0821  0.0704
 8448SOL    HW128621   2.398   4.242   6.544 -0.5353 -0.4176 -2.6345
 8448SOL    HW228622   2.265   4.186   6.592  0.0693 -0.1963 -0.6056
 8449SOL     OW28623   0.080   9.181   9.260 -0.4424 -0.0887  0.1330
 8449SOL    HW128624   0.034   9.216   9.336 -3.0879 -0.2961 -1.2752
 8449SOL    HW228625   0.077   9.252   9.196  0.6386 -0.3723 -0.2511
 8450SOL     OW28626  11.282   4.157   0.587 -0.2308 -0.6865 -0.1636
 8450SOL    HW128627  11.336   4.186   0.514 -2.0099 -0.8003 -1.6067
 8450SOL    HW228628  11.195   4.193   0.568 -0.8564 -1.1442  1.6438
 8451SOL     OW28629   3.131  10.625   7.351 -0.8002  0.6361 -0.6436
 8451SOL    HW128630   3.091  10.613   7.437 -1.4081 -1.7860 -1.1902
 8451SOL    HW228631   3.224  10.608   7.366 -0.8086  0.8074 -0.3733
 8452SOL     OW28632   6.955   7.381   2.192 -0.1533 -0.5279 -0.2041
 8452SOL    HW128633   6.995   7.304   2.231  1.1343 -1.3046 -2.8157
 8452SOL    HW228634   7.027   7.426   2.147 -1.4922  0.1786 -1.7737
 8453SOL     OW28635   3.431   8.482   0.585  0.1314  0.2024 -0.1121
 8453SOL    HW128636   3.350   8.457   0.541  0.6385 -0.3187 -0.7672
 8453SOL    HW228637   3.463   8.559   0.537 -0.7277  1.3421  1.0689
 8454SOL     OW28638   1.354   3.793  10.569  0.1745 -0.2449 -0.4040
 8454SOL    HW128639   1.447   3.774  10.578 -0.0742 -1.4132 -0.0465
 8454SOL    HW228640   1.334   3.850  10.643  0.5379 -0.2550 -0.2939
 8455SOL     OW28641   6.548   4.081   0.355 -0.2885 -0.5452  0.6599
 8455SOL    HW128642   6.470   4.025   0.356 -1.5624  1.1542  0.2940
 8455SOL    HW228643   6.548   4.119   0.267  1.3715 -1.0338  0.4184
 8456SOL     OW28644   8.441   2.180   1.254 -0.1662  0.8652  0.0295
 8456SOL    HW128645   8.516   2.189   1.313 -0.4614 -3.8780  1.5280
 8456SOL    HW228646   8.365   2.175   1.311 -0.8988 -0.2520 -0.9840
 8457SOL     OW28647   8.346   8.092   1.142  0.4165 -0.7304 -0.0456
 8457SOL    HW128648   8.428   8.046   1.155  0.4175 -1.3591 -1.9335
 8457SOL    HW228649   8.372   8.178   1.106  0.3417  0.2029  2.0081
 8458SOL     OW28650   9.698   7.397   5.458  0.0732 -0.1198  0.1523
 8458SOL    HW128651   9.693   7.331   5.527  2.4139 -2.2819 -1.5298
 8458SOL    HW228652   9.749   7.469   5.496 -1.7731  0.4200  1.7349
 8459SOL     OW28653   1.489   6.391   3.423  0.0327 -0.2862 -0.0863
 8459SOL    HW128654   1.415   6.369   3.367  0.3082 -0.2990 -0.4514
 8459SOL    HW228655   1.566   6.380   3.366  0.1356  3.3734 -0.9153
 8460SOL     OW28656  10.565   2.999   9.271  0.4024  0.7807 -0.2273
 8460SOL    HW128657  10.659   2.993   9.256  0.2102  0.1554 -1.2452
 8460SOL    HW228658  10.527   3.011   9.184 -0.7047 -2.1124 -0.2423
 8461SOL     OW28659   0.731   5.433   4.825  0.2859 -0.3097  0.1154
 8461SOL    HW128660   0.759   5.524   4.840 -0.4825  0.3099 -1.9026
 8461SOL    HW228661   0.773   5.409   4.743  0.0865 -1.6341  0.3839
 8462SOL     OW28662   7.865   9.744   5.509  0.3865  0.1142 -0.3714
 8462SOL    HW128663   7.913   9.776   5.433 -0.3465 -0.0379 -0.9073
 8462SOL    HW228664   7.774   9.737   5.479  0.3846 -1.7816 -0.0847
 8463SOL     OW28665   4.811   8.146   4.445  0.6078  0.0408 -0.0678
 8463SOL    HW128666   4.889   8.165   4.393  0.6163 -0.4402 -0.2393
 8463SOL    HW228667   4.811   8.212   4.514 -0.2356  1.6623 -1.5611
 8464SOL     OW28668   2.300   3.575  10.936  0.2968 -0.0008  0.5235
 8464SOL    HW128669   2.354   3.507  10.975 -0.5915 -1.0144  0.0639
 8464SOL    HW228670   2.210   3.550  10.958 -0.0038  1.7618  1.4698
 8465SOL     OW28671   9.046   4.046   5.030 -0.1242  0.0450 -0.2804
 8465SOL    HW128672   9.107   3.972   5.025 -1.8632 -1.4211 -1.0026
 8465SOL    HW228673   8.960   4.007   5.017 -1.6037  1.5702  3.4862
 8466SOL     OW28674   4.482   3.580   4.521  0.7837  0.1528 -0.0733
 8466SOL    HW128675   4.467   3.496   4.478 -0.6415 -2.3419  4.5736
 8466SOL    HW228676   4.577   3.586   4.529  0.9590 -0.3969 -1.4749
 8467SOL     OW28677   9.078   1.526   4.401  0.1919  0.3603 -0.1524
 8467SOL    HW128678   9.089   1.609   4.446  3.3162 -0.2491  0.4961
 8467SOL    HW228679   9.062   1.463   4.472  0.8733  0.0198 -0.2877
 8468SOL     OW28680   2.768   3.648   1.986  0.2239 -0.7798 -0.6791
 8468SOL    HW128681   2.811   3.571   1.948 -0.1650 -0.6290 -1.4421
 8468SOL    HW228682   2.692   3.663   1.930 -0.9154 -1.1118  0.7170
 8469SOL     OW28683   7.321   8.491  10.425 -0.1898  0.2376 -0.3333
 8469SOL    HW128684   7.235   8.449  10.432  0.0751 -0.2409  0.1055
 8469SOL    HW228685   7.381   8.430  10.468  0.3847  0.5276 -0.7099
 8470SOL     OW28686   1.061  10.919  10.715 -0.1406  0.0547  0.1884
 8470SOL    HW128687   1.147  10.884  10.740 -0.8334 -0.9478  1.2617
 8470SOL    HW228688   1.031  10.965  10.794  0.0317  1.7212 -0.6620
 8471SOL     OW28689   7.744   7.183  11.268  0.3698 -0.0909 -0.1361
 8471SOL    HW128690   7.713   7.262  11.313 -0.3052 -1.3572  1.7714
 8471SOL    HW228691   7.839   7.193  11.265  0.4825 -0.0296  1.8848
 8472SOL     OW28692   8.612   5.044   7.376  0.0994 -0.3063 -0.4258
 8472SOL    HW128693   8.661   5.113   7.332 -0.0040 -0.3014 -0.5315
 8472SOL    HW228694   8.532   5.087   7.407  0.7566  0.0146  0.9165
 8473SOL     OW28695   8.499   7.127   7.519  0.5559 -0.1393 -0.6074
 8473SOL    HW128696   8.515   7.101   7.429 -1.0598  0.0035 -0.9485
 8473SOL    HW228697   8.470   7.047   7.563 -0.4760  0.1830 -0.6802
 8474SOL     OW28698   2.129   0.300   0.587  0.3481 -0.0322 -0.5727
 8474SOL    HW128699   2.122   0.339   0.674 -1.9525 -0.1584 -0.6206
 8474SOL    HW228700   2.056   0.237   0.583 -1.2423  1.7399 -3.4001
 8475SOL     OW28701   9.915   1.894   0.760 -0.1586 -0.2379 -0.1064
 8475SOL    HW128702   9.998   1.928   0.792 -1.1389  1.2653  1.0054
 8475SOL    HW228703   9.863   1.973   0.742 -0.9502 -1.1122 -1.9210
 8476SOL     OW28704   7.076   9.021   5.277  0.4463  0.3528  0.2353
 8476SOL    HW128705   7.097   8.961   5.349  0.3072  1.2420  1.0399
 8476SOL    HW228706   7.155   9.024   5.224  0.0831 -1.4075 -0.4679
 8477SOL     OW28707   2.198   3.004   6.383 -0.2669 -0.4009 -0.1757
 8477SOL    HW128708   2.144   2.932   6.350 -1.1115  0.8751 -1.8128
 8477SOL    HW228709   2.226   2.977   6.470 -1.1625 -2.3619 -0.4552
 8478SOL     OW28710   3.252   2.477   9.412  0.3806 -0.4735 -0.6483
 8478SOL    HW128711   3.239   2.570   9.393  0.4035 -1.0316 -3.9328
 8478SOL    HW228712   3.347   2.464   9.402  0.5209 -0.7122  0.7788
 8479SOL     OW28713   6.951  10.599   8.076 -0.2101 -0.1662  0.3137
 8479SOL    HW128714   6.951  10.656   8.153  0.6547  0.6064 -0.2341
 8479SOL    HW228715   6.992  10.651   8.007 -3.1464  0.1020 -1.4169
 8480SOL     OW28716   8.834   2.818   0.334  0.0752  0.5220 -0.3369
 8480SOL    HW128717   8.806   2.884   0.271 -0.9274  2.4616  1.9963
 8480SOL    HW228718   8.767   2.819   0.403  0.5500 -2.2589  0.3085
 8481SOL     OW28719   6.809   5.248   4.446 -0.0821 -0.3528  0.5167
 8481SOL    HW128720   6.738   5.210   4.394  0.8933  1.1159 -2.0074
 8481SOL    HW228721   6.773   5.330   4.480 -0.3093 -0.7200  1.1922
 8482SOL     OW28722   8.325   1.125   1.997  0.3005 -0.6937 -0.3096
 8482SOL    HW128723   8.292   1.090   2.080  2.7832 -1.9380  0.2305
 8482SOL    HW228724   8.328   1.220   2.011 -0.3437 -0.7895  0.6029
 8483SOL     OW28725  10.822   4.825   8.924  0.7034 -0.5745  0.0825
 8483SOL    HW128726  10.819   4.834   9.019  3.8166 -2.2558  0.4745
 8483SOL    HW228727  10.802   4.913   8.891 -0.7605 -0.0328  2.2229
 8484SOL     OW28728   8.150   9.244  10.950  0.4843  0.0316  0.2041
 8484SOL    HW128729   8.234   9.203  10.932 -0.1175 -1.2128  0.1343
 8484SOL    HW228730   8.136   9.229  11.043 -0.1338 -0.7048  0.0020
 8485SOL     OW28731   8.310  10.549  10.640  0.7566 -0.1127 -0.6710
 8485SOL    HW128732   8.251  10.512  10.705  1.2095 -0.2502 -0.3355
 8485SOL    HW228733   8.398  10.533  10.675  0.9680  1.3054 -0.4968
 8486SOL     OW28734   3.614   3.613   8.973  0.1835 -0.3402  0.1664
 8486SOL    HW128735   3.614   3.681   9.041  1.5686  0.2105 -0.3619
 8486SOL    HW228736   3.526   3.618   8.935 -0.4831 -0.3975  1.6386
 8487SOL     OW28737   5.139   1.719   9.993 -0.3084 -0.2364 -0.3779
 8487SOL    HW128738   5.229   1.743   9.971  0.2497  0.4841  2.2293
 8487SOL    HW228739   5.139   1.624   9.997 -0.1862 -0.3368 -2.2033
 8488SOL     OW28740   0.338   1.633   8.287  0.1122 -0.3001  0.4556
 8488SOL    HW128741   0.335   1.540   8.265 -1.1774 -0.1319 -0.1652
 8488SOL    HW228742   0.263   1.647   8.345 -2.3553  1.0810 -2.7099
 8489SOL     OW28743   2.583   9.324   4.064 -0.3067  1.1912  0.3031
 8489SOL    HW128744   2.516   9.386   4.092 -0.5084  1.0070  0.2370
 8489SOL    HW228745   2.538   9.239   4.064 -0.0019  1.0285  0.5048
 8490SOL     OW28746   4.036   2.241   7.636 -0.5978  0.0963 -0.6096
 8490SOL    HW128747   3.970   2.308   7.656 -0.8536 -0.6437  1.3503
 8490SOL    HW228748   4.119   2.288   7.637 -0.6948  0.3299  1.5187
 8491SOL     OW28749   5.865   9.833  10.367  0.3291  0.7081  0.0775
 8491SOL    HW128750   5.879   9.761  10.305  0.9427  1.2980 -0.4813
 8491SOL    HW228751   5.790   9.805  10.419 -0.1618  0.1798 -0.8901
 8492SOL     OW28752   1.292   2.458  11.221  0.4419 -0.3560  0.0964
 8492SOL    HW128753   1.242   2.378  11.239  0.1305 -0.0220  0.7521
 8492SOL    HW228754   1.300   2.460  11.126 -1.7938  0.1806 -0.1286
 8493SOL     OW28755   6.221   5.042   2.127 -0.4215 -0.3370 -0.3390
 8493SOL    HW128756   6.207   5.097   2.204 -1.4018  0.8083 -1.3006
 8493SOL    HW228757   6.289   4.980   2.154 -1.6204 -0.8107  1.8770
 8494SOL     OW28758   6.710   3.947   4.715 -0.1939  0.2059 -0.3282
 8494SOL    HW128759   6.682   3.856   4.728  2.2424 -0.5166  0.2978
 8494SOL    HW228760   6.804   3.946   4.734  0.6807  2.1426 -3.8178
 8495SOL     OW28761   2.404   3.327   7.346  0.0922  0.4998  0.4531
 8495SOL    HW128762   2.330   3.368   7.390 -0.4975 -0.9065  0.8526
 8495SOL    HW228763   2.481   3.361   7.391 -0.4230  0.4065  1.4442
 8496SOL     OW28764   2.874   6.824   9.065  0.4035 -0.5770 -0.2748
 8496SOL    HW128765   2.796   6.866   9.101  1.9901 -0.1365  3.0237
 8496SOL    HW228766   2.865   6.732   9.088  0.7780 -0.5463  0.0080
 8497SOL     OW28767   7.999   1.222   6.729 -0.0233 -0.0623  0.0351
 8497SOL    HW128768   7.941   1.206   6.804  0.5025  0.3719  0.5476
 8497SOL    HW228769   7.964   1.301   6.688 -0.8688 -0.8245 -0.7460
 8498SOL     OW28770   5.633   5.012   2.447 -0.8704 -0.0089  0.4818
 8498SOL    HW128771   5.660   4.924   2.473 -1.1253 -1.0277 -2.3518
 8498SOL    HW228772   5.555   4.998   2.392 -0.8581  1.9630 -0.1229
 8499SOL     OW28773   5.402   7.851   4.506 -0.4535  0.0953  0.4373
 8499SOL    HW128774   5.423   7.909   4.433  0.1232 -0.0314  0.4926
 8499SOL    HW228775   5.329   7.797   4.475  0.0111 -0.1933 -0.1729
 8500SOL     OW28776   4.855   4.194   3.990  0.3806  0.0003  0.7811
 8500SOL    HW128777   4.902   4.133   4.047  0.0167  0.1101  1.2061
 8500SOL    HW228778   4.783   4.142   3.955 -0.5203  0.4320  1.9219
 8501SOL     OW28779   3.408   3.533   3.414 -0.3398  0.0013  0.0118
 8501SOL    HW128780   3.404   3.611   3.470 -0.7820  1.0666 -1.4353
 8501SOL    HW228781   3.502   3.517   3.403 -0.2457  0.1965  0.4998
 8502SOL     OW28782   3.931   2.970   9.493 -0.4394 -0.2737 -0.5120
 8502SOL    HW128783   3.969   2.995   9.578 -3.3108 -2.3935  1.5956
 8502SOL    HW228784   3.991   2.905   9.458  0.6893  0.4771 -0.0289
 8503SOL     OW28785  11.395   8.166   1.067  0.2109 -0.0696 -0.1246
 8503SOL    HW128786  11.394   8.105   1.141  0.9256 -1.7986 -1.4694
 8503SOL    HW228787  11.311   8.152   1.023  0.2340  0.1648 -0.2459
 8504SOL     OW28788   2.962   2.882   9.294 -0.7372 -0.0561  0.0407
 8504SOL    HW128789   2.929   2.844   9.212  0.5471 -1.2159  0.0131
 8504SOL    HW228790   2.899   2.855   9.360 -1.1210 -0.2063 -0.3821
 8505SOL     OW28791  11.310   6.505   9.645 -0.1441 -0.5218 -0.1790
 8505SOL    HW128792  11.282   6.516   9.554 -0.5728 -1.3441 -0.1585
 8505SOL    HW228793  11.230   6.479   9.691  0.2640 -1.0335  0.2496
 8506SOL     OW28794   0.494   6.659   1.600  0.6269  1.0760  0.2341
 8506SOL    HW128795   0.473   6.639   1.691  1.1411 -1.1695 -0.0762
 8506SOL    HW228796   0.415   6.638   1.551  1.3814 -1.0314 -0.1786
 8507SOL     OW28797   5.783   5.775   4.805 -0.4958  0.0297  0.3057
 8507SOL    HW128798   5.794   5.870   4.807 -1.2588  0.1202  2.1465
 8507SOL    HW228799   5.778   5.754   4.712 -0.2730  1.7845 -0.1475
 8508SOL     OW28800   3.605   1.304   6.136 -0.0964  0.1154 -0.1063
 8508SOL    HW128801   3.700   1.313   6.135 -0.0071 -0.2922 -2.7222
 8508SOL    HW228802   3.572   1.393   6.122  0.0174 -0.0543 -1.6114
 8509SOL     OW28803   4.865   3.399   1.001 -0.4064  0.0595 -0.1685
 8509SOL    HW128804   4.857   3.310   0.965  0.2708  0.1734 -0.6374
 8509SOL    HW228805   4.784   3.413   1.050 -1.1299 -0.3118 -1.2153
 8510SOL     OW28806  10.392   8.198   4.190  0.8885  0.3790 -0.6650
 8510SOL    HW128807  10.324   8.265   4.198  0.4146  0.0407 -1.7281
 8510SOL    HW228808  10.465   8.233   4.241 -0.0169  0.8066  0.4075
 8511SOL     OW28809  10.173   7.557   8.090  0.1885 -0.5029 -0.3817
 8511SOL    HW128810  10.214   7.550   8.003 -0.8749 -1.7047 -0.8087
 8511SOL    HW228811  10.173   7.468   8.124  0.9061  0.0049  1.0315
 8512SOL     OW28812   7.731   4.265   8.277 -0.2289  0.7934  0.2110
 8512SOL    HW128813   7.766   4.181   8.248  2.0246  1.0126  2.0041
 8512SOL    HW228814   7.639   4.264   8.251 -0.6547 -2.8238  1.3675
 8513SOL     OW28815   5.128   5.872   8.687  0.2598 -0.3557 -0.1982
 8513SOL    HW128816   5.043   5.834   8.709  0.4441 -1.2159 -0.9020
 8513SOL    HW228817   5.106   5.959   8.652 -0.4356 -0.9873 -1.3961
 8514SOL     OW28818   0.378   8.965  10.375  0.4306  0.5577 -0.1617
 8514SOL    HW128819   0.465   8.956  10.337  0.3807  1.3906 -0.4894
 8514SOL    HW228820   0.318   8.961  10.301  0.0062 -2.0558  0.2260
 8515SOL     OW28821  10.176   5.687   1.323 -0.0614  0.1402 -0.1115
 8515SOL    HW128822  10.093   5.682   1.276 -0.4255 -0.7073  0.5919
 8515SOL    HW228823  10.156   5.735   1.404  0.2771  0.4791 -0.2251
 8516SOL     OW28824   7.631   5.024   5.180  0.2861 -0.0152  0.2539
 8516SOL    HW128825   7.576   5.031   5.103  1.6414  1.5336 -0.6341
 8516SOL    HW228826   7.611   5.103   5.231 -0.5448 -0.9819  1.5060
 8517SOL     OW28827   2.788   6.118   8.687 -0.0741  0.0039  0.4205
 8517SOL    HW128828   2.766   6.137   8.596  0.7171  0.3851  0.3020
 8517SOL    HW228829   2.703   6.116   8.732 -0.4210  0.5214 -0.1925
 8518SOL     OW28830   9.744   8.440   4.143 -0.2475  0.6875  0.1174
 8518SOL    HW128831   9.822   8.385   4.147 -1.0596 -0.5734 -0.5558
 8518SOL    HW228832   9.774   8.527   4.170  1.6485  0.5346 -1.3036
 8519SOL     OW28833   3.828   3.892   9.446 -0.2956  0.4410 -0.6120
 8519SOL    HW128834   3.859   3.857   9.362  0.3670 -1.0796  0.2231
 8519SOL    HW228835   3.757   3.834   9.472  0.7558 -0.2780  0.7654
 8520SOL     OW28836   8.897   9.961   9.244  0.3004  0.0315 -0.3293
 8520SOL    HW128837   8.825   9.902   9.218 -0.0254 -0.7993  2.1002
 8520SOL    HW228838   8.976   9.918   9.212 -0.1435 -0.1135 -1.2603
 8521SOL     OW28839   3.108   1.749   0.456 -0.5446 -0.2350  0.0088
 8521SOL    HW128840   3.123   1.812   0.385  0.7790  0.4795  0.8881
 8521SOL    HW228841   3.194   1.708   0.470 -0.4483  0.5343  2.0090
 8522SOL     OW28842   3.703  10.492   8.384 -0.2109  0.9314 -0.2936
 8522SOL    HW128843   3.717  10.482   8.478 -1.4482  0.6353 -0.1218
 8522SOL    HW228844   3.617  10.532   8.377  0.1251  1.5166 -1.2991
 8523SOL     OW28845   1.197  10.765   7.717  0.3088 -0.0454  0.1578
 8523SOL    HW128846   1.258  10.720   7.659 -0.0096  1.1388 -1.1477
 8523SOL    HW228847   1.138  10.695   7.748  1.0367 -0.8456 -0.2154
 8524SOL     OW28848   2.974   7.425   3.687  0.1839  0.4357  0.3773
 8524SOL    HW128849   3.016   7.376   3.617  0.9098  1.1741  0.2757
 8524SOL    HW228850   2.937   7.502   3.644 -0.7502  0.1045  0.5649
 8525SOL     OW28851  10.943   4.337   9.027  0.3541 -0.1275 -0.0781
 8525SOL    HW128852  10.891   4.335   9.107  1.3826 -0.4098  0.5964
 8525SOL    HW228853  10.994   4.257   9.029  0.1047 -0.3297 -1.2276
 8526SOL     OW28854   2.568   5.146   3.871  0.1195 -0.4690  0.3798
 8526SOL    HW128855   2.642   5.187   3.916 -1.0002  0.8648  1.0812
 8526SOL    HW228856   2.554   5.200   3.793 -0.5671 -0.2775  0.6327
 8527SOL     OW28857   3.235   9.915   7.661 -0.3115 -0.7382  0.5083
 8527SOL    HW128858   3.153   9.918   7.610  0.7928  1.4801 -1.3248
 8527SOL    HW228859   3.272   9.829   7.642 -0.5840 -0.4632 -1.4428
 8528SOL     OW28860   8.500   6.961   4.438 -0.0848  0.6218  0.0756
 8528SOL    HW128861   8.518   6.918   4.522  0.2562 -0.9299 -0.7600
 8528SOL    HW228862   8.405   6.972   4.436 -0.1200  0.4075  0.5331
 8529SOL     OW28863   8.408   4.608   7.820  0.3385  0.3567 -0.1229
 8529SOL    HW128864   8.489   4.563   7.844 -0.1898 -0.0262  1.0019
 8529SOL    HW228865   8.361   4.545   7.766  0.8421  0.6313 -0.8934
 8530SOL     OW28866   4.246   2.832   0.541  0.1306  0.4382  0.0323
 8530SOL    HW128867   4.152   2.834   0.561 -0.0499 -2.6036 -0.0376
 8530SOL    HW228868   4.250   2.819   0.447  0.5010 -1.5434  0.2795
 8531SOL     OW28869   7.549   7.605   4.098  0.5869 -0.3192 -0.3567
 8531SOL    HW128870   7.562   7.587   4.192 -0.3844 -0.1752 -0.1878
 8531SOL    HW228871   7.555   7.700   4.091 -1.0260 -0.1768 -0.1503
 8532SOL     OW28872   4.956   8.329  10.106  0.0512 -0.3721  0.4146
 8532SOL    HW128873   4.978   8.282  10.026  0.7134  0.3068  0.1886
 8532SOL    HW228874   4.892   8.394  10.079  0.8017  0.3261  0.2917
 8533SOL     OW28875   8.122   8.858  11.330  0.2659 -0.6180 -0.2507
 8533SOL    HW128876   8.062   8.784  11.328  0.4763 -0.7736 -1.1667
 8533SOL    HW228877   8.068   8.934  11.308 -0.1365 -0.3342  1.5230
 8534SOL     OW28878   8.559   7.677   6.898  0.4631  0.8510 -0.1388
 8534SOL    HW128879   8.564   7.661   6.992 -2.3180  1.2134  0.1715
 8534SOL    HW228880   8.533   7.769   6.891 -1.6863  0.2247 -1.1158
 8535SOL     OW28881   9.555   3.846  10.785  0.3833  0.1209  0.6803
 8535SOL    HW128882   9.496   3.868  10.713  1.0048 -0.8611 -0.1608
 8535SOL    HW228883   9.503   3.788  10.841 -0.1066  0.9000  1.0445
 8536SOL     OW28884   8.209  10.946   9.199  0.1758 -0.2368 -0.0225
 8536SOL    HW128885   8.145  11.000   9.153 -0.7527 -0.0250  1.4223
 8536SOL    HW228886   8.215  10.865   9.148 -1.5705 -0.4237  0.0082
 8537SOL     OW28887   0.885   7.298   3.778 -0.1278  0.0081 -0.0959
 8537SOL    HW128888   0.926   7.234   3.837  1.5932  0.7710 -0.4136
 8537SOL    HW228889   0.925   7.382   3.803 -1.2633  0.7339 -0.6689
 8538SOL     OW28890  10.421   8.842  10.126  0.1956  0.1433  0.2673
 8538SOL    HW128891  10.358   8.875  10.190  0.6665  1.2767  0.1659
 8538SOL    HW228892  10.406   8.896  10.049 -0.6285 -1.4492 -0.7529
 8539SOL     OW28893   9.789   7.114   0.658 -0.4815 -0.0295 -0.1132
 8539SOL    HW128894   9.755   7.085   0.574 -0.3844 -0.6323  0.0524
 8539SOL    HW228895   9.723   7.174   0.692 -2.3664 -2.6020  1.0776
 8540SOL     OW28896   2.149   3.778   8.923 -0.0167 -0.5591 -0.6159
 8540SOL    HW128897   2.191   3.727   8.991 -1.0552  0.1184  0.5731
 8540SOL    HW228898   2.135   3.864   8.962 -1.8675 -0.5586 -1.1905
 8541SOL     OW28899   1.195   9.271   8.615 -0.1514  0.1464 -0.0932
 8541SOL    HW128900   1.255   9.346   8.616  0.7160 -0.5289  0.0606
 8541SOL    HW228901   1.175   9.258   8.522 -0.5683  0.7642 -0.0952
 8542SOL     OW28902   3.256   5.832  11.016 -0.4029 -0.0555 -0.1650
 8542SOL    HW128903   3.246   5.820  10.922  0.1478 -0.8892 -0.1265
 8542SOL    HW228904   3.331   5.889  11.025  0.7620 -1.5239 -0.2006
 8543SOL     OW28905   4.689   8.422   6.431  0.8179 -0.2491  0.7808
 8543SOL    HW128906   4.625   8.351   6.425  1.7305 -0.9842 -0.9997
 8543SOL    HW228907   4.762   8.384   6.480  2.4453 -1.5557 -2.4006
 8544SOL     OW28908  10.969   3.287   8.788 -0.0535 -0.5632 -0.3951
 8544SOL    HW128909  10.894   3.300   8.729  0.0001 -1.5235 -0.6830
 8544SOL    HW228910  11.043   3.323   8.740 -0.2957  0.2887 -0.1574
 8545SOL     OW28911   9.377   7.046   6.133  0.0010  0.7615 -0.1513
 8545SOL    HW128912   9.383   7.040   6.038  2.0367 -0.6952  0.0001
 8545SOL    HW228913   9.373   6.956   6.163  1.7499  1.0661  1.1969
 8546SOL     OW28914  11.238  11.289   1.396  0.2151  0.0571  0.5103
 8546SOL    HW128915  11.275  11.248   1.474 -1.3720 -1.2444  0.6180
 8546SOL    HW228916  11.144  11.272   1.402 -0.1925  1.6600 -0.6876
 8547SOL     OW28917   6.587   8.949   1.445 -0.6729 -0.0130 -0.0633
 8547SOL    HW128918   6.637   8.868   1.456  0.8076  1.0379  1.7313
 8547SOL    HW228919   6.651   9.018   1.463 -2.3825  1.4709  0.6249
 8548SOL     OW28920   3.944   1.952   4.575 -0.2169  0.1310  0.4069
 8548SOL    HW128921   3.974   2.013   4.507 -0.9879  0.6855  0.5429
 8548SOL    HW228922   3.850   1.941   4.557 -0.0725 -1.0812  0.3460
 8549SOL     OW28923   2.082   5.645  11.076  0.2903 -0.5471 -0.5647
 8549SOL    HW128924   2.040   5.669  10.994 -0.7291  0.4367  0.2158
 8549SOL    HW228925   2.151   5.710  11.087 -1.5212  1.2602  0.8135
 8550SOL     OW28926   9.492   3.419   8.358 -0.0667  0.4024  0.0943
 8550SOL    HW128927   9.428   3.350   8.376 -0.8130  0.9829 -0.2698
 8550SOL    HW228928   9.534   3.393   8.276  0.1762  0.0166  0.3367
 8551SOL     OW28929   4.164   5.661  10.922  0.2520 -0.1563  0.1853
 8551SOL    HW128930   4.180   5.581  10.972 -0.9285 -1.0597 -0.8305
 8551SOL    HW228931   4.221   5.726  10.964 -0.3760 -0.9538  2.4658
 8552SOL     OW28932   7.132   5.336   7.483  0.2717  0.1181 -0.0543
 8552SOL    HW128933   7.084   5.339   7.566  0.2579  0.8545 -0.0859
 8552SOL    HW228934   7.071   5.372   7.419  0.0221 -1.0890 -0.5225
 8553SOL     OW28935  11.271  10.772   7.562 -0.0322 -0.0001  0.3298
 8553SOL    HW128936  11.263  10.707   7.493  2.6678 -0.7103  0.5861
 8553SOL    HW228937  11.298  10.852   7.518  0.6124 -0.1580  0.4319
 8554SOL     OW28938   1.146   5.189   9.527  0.3046 -0.2832  0.1766
 8554SOL    HW128939   1.102   5.271   9.506  1.0618  0.0922  0.0307
 8554SOL    HW228940   1.213   5.213   9.590  0.5129 -0.7952  0.1555
 8555SOL     OW28941   5.801   8.918   5.555 -0.2081 -0.1579 -0.4343
 8555SOL    HW128942   5.744   8.865   5.499 -2.3704  0.5680  0.9583
 8555SOL    HW228943   5.760   8.913   5.642  3.3502 -1.7790  1.3462
 8556SOL     OW28944   6.831   5.526   0.562 -0.7699  0.5300 -0.1327
 8556SOL    HW128945   6.834   5.538   0.467  0.3978  1.6728  0.0170
 8556SOL    HW228946   6.920   5.497   0.584 -1.4532 -1.2459  0.4500
 8557SOL     OW28947   8.172   4.982   0.085 -0.5718 -0.1199 -0.1031
 8557SOL    HW128948   8.135   4.915   0.142 -0.6839 -0.1513 -0.2102
 8557SOL    HW228949   8.217   4.933   0.016  1.0587 -0.0851  0.8942
 8558SOL     OW28950   8.945   7.486   1.335 -0.0720  0.3048 -0.0186
 8558SOL    HW128951   8.998   7.546   1.283  0.2405  1.0483  1.1325
 8558SOL    HW228952   8.895   7.543   1.394 -2.2807 -0.3372 -1.1237
 8559SOL     OW28953  10.312   4.801   4.702 -0.8541  0.5559  0.6062
 8559SOL    HW128954  10.387   4.746   4.678 -0.2420  1.4029  0.5291
 8559SOL    HW228955  10.236   4.748   4.681 -0.3010 -1.1771  2.6499
 8560SOL     OW28956   5.410   4.613   1.900  0.4656 -0.1969  0.1542
 8560SOL    HW128957   5.419   4.599   1.806  1.1468  0.8238  0.0561
 8560SOL    HW228958   5.377   4.702   1.909 -1.7182 -0.9979  0.8383
 8561SOL     OW28959   0.533   2.419   7.575  0.4528 -0.0127 -0.0300
 8561SOL    HW128960   0.616   2.405   7.622  0.5269  0.8546  0.1119
 8561SOL    HW228961   0.486   2.482   7.629  0.0165  0.0704 -0.5070
 8562SOL     OW28962  11.368   1.419   2.244  0.1976 -0.5696 -0.0974
 8562SOL    HW128963  11.335   1.410   2.333  1.8821 -1.9658  0.4126
 8562SOL    HW228964  11.349   1.510   2.221 -1.1339 -0.4575  1.3019
 8563SOL     OW28965   3.993   5.677   2.125 -0.0906  0.3035  0.6086
 8563SOL    HW128966   4.016   5.769   2.132 -0.3314  0.4802 -0.7461
 8563SOL    HW228967   3.915   5.667   2.180 -1.5847  1.4819 -1.1749
 8564SOL     OW28968   5.420   4.168   1.912  0.2295 -0.1105  0.1320
 8564SOL    HW128969   5.499   4.220   1.919 -0.4708  1.2355 -1.3047
 8564SOL    HW228970   5.385   4.164   2.001  1.4026  0.0660  0.6132
 8565SOL     OW28971   2.030   6.218   7.943 -0.5004  0.2254  0.1400
 8565SOL    HW128972   2.033   6.180   7.855 -1.2646  0.3739  0.0423
 8565SOL    HW228973   2.009   6.310   7.929 -1.9302 -0.0166  0.5238
 8566SOL     OW28974   3.884   9.781   3.849  0.7334  0.6733 -0.2327
 8566SOL    HW128975   3.842   9.854   3.803 -0.2788  0.3180  0.0964
 8566SOL    HW228976   3.824   9.708   3.838  0.7103  0.4402  1.2021
 8567SOL     OW28977   5.140   6.153  10.050  0.6388 -0.5690 -0.5791
 8567SOL    HW128978   5.163   6.228   9.995  2.5016  0.3137  1.2515
 8567SOL    HW228979   5.206   6.087  10.029  1.8397  0.0507  1.0169
 8568SOL     OW28980  10.959   0.699   3.603 -0.2499 -0.6371 -0.3376
 8568SOL    HW128981  10.890   0.765   3.595  0.5688  0.2039 -0.6332
 8568SOL    HW228982  10.920   0.619   3.567 -0.6631  0.1330 -1.6982
 8569SOL     OW28983   6.862   5.913   4.390 -0.2589 -0.3283  0.0006
 8569SOL    HW128984   6.922   5.896   4.317 -0.0273 -0.2293  0.1645
 8569SOL    HW228985   6.778   5.878   4.361 -0.3097  0.2256 -0.5483
 8570SOL     OW28986   3.024   8.068   7.781  0.7180  0.1798 -0.2185
 8570SOL    HW128987   2.993   8.145   7.733  2.9294  0.8950 -0.6467
 8570SOL    HW228988   2.947   8.012   7.790 -0.6307  1.7874 -1.1798
 8571SOL     OW28989  11.313   6.180   1.012 -0.0315 -0.1625  0.0638
 8571SOL    HW128990  11.259   6.169   1.090 -0.5467  1.2046 -0.0733
 8571SOL    HW228991  11.345   6.270   1.017  0.4018 -0.2433 -1.0000
 8572SOL     OW28992   0.563   0.223   7.546  0.6052  0.4516  0.8892
 8572SOL    HW128993   0.471   0.247   7.545  0.3817 -0.3354  1.2857
 8572SOL    HW228994   0.610   0.306   7.547 -0.0659  0.8833 -0.3969
 8573SOL     OW28995  10.461  10.559   6.219  0.6784  0.3632 -0.5827
 8573SOL    HW128996  10.472  10.629   6.283 -1.4821 -0.7616  1.1577
 8573SOL    HW228997  10.549  10.521   6.209  1.5392  2.1561 -0.2684
 8574SOL     OW28998   2.718   8.655   6.123  0.1929  0.2669 -0.0880
 8574SOL    HW128999   2.624   8.640   6.129 -0.1479  0.9462 -2.4812
 8574SOL    HW229000   2.726   8.738   6.075  1.9725 -1.0020 -2.1644
 8575SOL     OW29001   3.635   7.961  10.159  0.1613  0.6168  0.5667
 8575SOL    HW129002   3.576   8.024  10.116 -1.0150 -0.4353  0.5933
 8575SOL    HW229003   3.688   8.015  10.219 -0.0399  1.7259 -0.2270
 8576SOL     OW29004   0.466   5.651   8.420  0.3209  0.4547 -0.2622
 8576SOL    HW129005   0.387   5.704   8.419  0.4424  0.6581 -2.0488
 8576SOL    HW229006   0.508   5.671   8.504 -0.1760  2.3646 -0.4431
 8577SOL     OW29007   9.595   0.856   5.918 -0.0004 -0.1511  0.0583
 8577SOL    HW129008   9.546   0.922   5.869  0.0332 -0.5179 -0.4757
 8577SOL    HW229009   9.569   0.773   5.878  0.1054 -0.4471  0.6009
 8578SOL     OW29010   1.790   9.644   7.592 -0.1238  0.5891  0.3347
 8578SOL    HW129011   1.871   9.666   7.638 -0.6669 -0.1166  1.6688
 8578SOL    HW229012   1.806   9.557   7.555 -0.2646  0.4352  0.6270
 8579SOL     OW29013   9.848   4.212   6.301 -0.7097  0.3317  0.2450
 8579SOL    HW129014   9.857   4.280   6.234 -0.4356  0.5265  0.4769
 8579SOL    HW229015   9.936   4.203   6.337 -1.0380  0.8612  1.2046
 8580SOL     OW29016   2.351   6.641   8.603 -0.6160 -0.2692 -0.3719
 8580SOL    HW129017   2.280   6.630   8.666 -1.8924  1.2671 -1.4368
 8580SOL    HW229018   2.313   6.615   8.519  0.6592 -1.1091 -0.7122
 8581SOL     OW29019   2.810   5.850   8.478  0.8512 -0.3580  0.3999
 8581SOL    HW129020   2.851   5.878   8.560  1.5504 -0.2436  0.0107
 8581SOL    HW229021   2.720   5.829   8.503  0.1073  2.6736  0.6437
 8582SOL     OW29022  10.800   9.671   0.897  0.5656 -0.3062 -0.3836
 8582SOL    HW129023  10.888   9.676   0.933  0.1257 -0.8134  0.8390
 8582SOL    HW229024  10.744   9.655   0.974 -0.6927  0.9210 -0.9882
 8583SOL     OW29025   9.262   2.142   1.104 -0.4513 -0.4205 -0.0869
 8583SOL    HW129026   9.338   2.182   1.060 -1.5947 -0.4541 -2.2237
 8583SOL    HW229027   9.271   2.168   1.195  2.7081 -1.3193 -0.0160
 8584SOL     OW29028   8.607   8.071   6.228 -0.7881  0.2858  0.1079
 8584SOL    HW129029   8.609   8.138   6.159  1.3903 -1.7850 -2.0325
 8584SOL    HW229030   8.673   8.100   6.291  0.3716  0.0837 -0.9624
 8585SOL     OW29031  11.176   6.214   9.892  0.1491  0.2158  0.0408
 8585SOL    HW129032  11.209   6.259   9.970 -1.1486  2.6825 -0.6958
 8585SOL    HW229033  11.252   6.205   9.836  0.7981 -0.1545  0.9666
 8586SOL     OW29034   2.049   7.632   0.450  0.1459  0.4919 -0.4428
 8586SOL    HW129035   2.051   7.631   0.354  0.4016 -1.8920 -0.4752
 8586SOL    HW229036   2.134   7.669   0.475 -0.2340  1.8688 -1.0913
 8587SOL     OW29037   8.217   6.327   6.532  0.4308  0.0477  0.4021
 8587SOL    HW129038   8.167   6.263   6.583  1.3162 -0.5492  0.5290
 8587SOL    HW229039   8.304   6.289   6.523  0.7259  0.8449 -0.2596
 8588SOL     OW29040   6.086  10.603   1.424 -0.2352 -0.4745 -0.5486
 8588SOL    HW129041   6.026  10.556   1.483 -0.1973  0.7281  0.4784
 8588SOL    HW229042   6.169  10.554   1.431 -0.1890 -0.2595  0.5242
 8589SOL     OW29043   4.370   6.076  10.876  0.1405  0.2609  0.2927
 8589SOL    HW129044   4.430   6.087  10.950 -1.1802 -0.4894  1.5208
 8589SOL    HW229045   4.422   6.030  10.810  1.3178  0.8712  0.7674
 8590SOL     OW29046   2.362   0.566   0.312  0.2655 -0.1290  0.5908
 8590SOL    HW129047   2.337   0.632   0.376  1.5966  0.7754  0.2344
 8590SOL    HW229048   2.458   0.565   0.315  0.3983  0.1966 -1.6073
 8591SOL     OW29049   8.649   4.784  10.080 -0.3483 -0.1431  0.0635
 8591SOL    HW129050   8.612   4.817   9.999  0.5572 -0.9937 -0.7250
 8591SOL    HW229051   8.626   4.691  10.081  0.8305 -0.4481  0.0746
 8592SOL     OW29052   3.337   5.214   9.067 -0.4390 -0.2365  0.2821
 8592SOL    HW129053   3.373   5.203   8.979 -0.0590  1.3563  0.2163
 8592SOL    HW229054   3.253   5.170   9.064  0.4945 -2.0981 -0.2204
 8593SOL     OW29055   3.030  10.985   2.107 -0.5383  0.5898 -0.0298
 8593SOL    HW129056   3.087  10.998   2.032  0.2776 -2.3551 -0.0511
 8593SOL    HW229057   3.079  11.020   2.182  0.2289  0.2794 -0.3855
 8594SOL     OW29058   7.840  10.954   0.183 -0.6518 -0.2267 -0.2933
 8594SOL    HW129059   7.797  10.984   0.263 -1.4698  0.4315 -0.9558
 8594SOL    HW229060   7.882  10.872   0.208  2.5054  1.8247  1.8516
 8595SOL     OW29061   9.396   8.240   6.286  0.0721  0.2779 -0.1527
 8595SOL    HW129062   9.406   8.157   6.334  1.4000 -0.3866 -1.5186
 8595SOL    HW229063   9.316   8.228   6.235  1.3129 -1.0506 -1.9234
 8596SOL     OW29064   7.090  10.536   5.884  0.9619 -0.5931 -0.6898
 8596SOL    HW129065   7.119  10.559   5.796  1.3179  0.7305 -0.2532
 8596SOL    HW229066   7.168  10.501   5.926  1.3219  0.6111 -0.3081
 8597SOL     OW29067   2.227   8.570   2.995 -0.2831  0.2799 -0.1010
 8597SOL    HW129068   2.295   8.504   2.994 -2.5474 -2.2188 -0.8001
 8597SOL    HW229069   2.266   8.644   3.042  2.1771 -1.7323  1.2969
 8598SOL     OW29070   7.428   3.193   1.893  0.1147 -0.1589 -0.2260
 8598SOL    HW129071   7.508   3.146   1.917  0.1844  0.2345  0.3341
 8598SOL    HW229072   7.369   3.125   1.861  0.6697 -0.4571 -0.6485
 8599SOL     OW29073   5.663   4.377   5.920 -0.4544 -0.0963  0.6009
 8599SOL    HW129074   5.617   4.460   5.909  1.3759  1.1698  1.9831
 8599SOL    HW229075   5.731   4.378   5.853  1.4337  0.9338  2.4448
 8600SOL     OW29076   4.605   1.663   3.213 -0.1483 -0.1096  0.2293
 8600SOL    HW129077   4.637   1.745   3.174 -0.6691  0.2230  0.4872
 8600SOL    HW229078   4.683   1.609   3.223 -0.0206 -0.3218 -1.5474
 8601SOL     OW29079   3.030   5.062   7.835  0.1688 -0.4845  0.5514
 8601SOL    HW129080   3.040   5.019   7.919  0.8473  1.5070  1.5551
 8601SOL    HW229081   2.982   5.143   7.855 -1.4449 -0.9063 -1.2989
 8602SOL     OW29082   2.544  10.811   7.913  0.5799  0.1901 -0.0478
 8602SOL    HW129083   2.629  10.845   7.885  0.4151 -0.1152 -0.9444
 8602SOL    HW229084   2.497  10.794   7.832  0.1880 -1.0039  0.4119
 8603SOL     OW29085   0.483   7.591   9.171  0.2160  0.1301  0.0491
 8603SOL    HW129086   0.440   7.584   9.256  1.0117  0.9587  0.5425
 8603SOL    HW229087   0.510   7.502   9.150 -0.1981 -0.1164  0.5405
 8604SOL     OW29088  11.188  10.505   3.848 -0.3534 -0.2701  0.2597
 8604SOL    HW129089  11.221  10.520   3.760 -1.0136 -1.5224 -0.2349
 8604SOL    HW229090  11.233  10.569   3.902 -0.4236  0.9641 -1.0865
 8605SOL     OW29091  10.927   9.512   4.208 -0.0486 -1.0243 -0.6577
 8605SOL    HW129092  10.970   9.433   4.175 -0.0113 -1.3937  0.2630
 8605SOL    HW229093  10.995   9.558   4.257 -0.5874 -1.4299  0.4938
 8606SOL     OW29094  11.101   9.315   5.450 -0.3868 -0.6188 -0.5496
 8606SOL    HW129095  11.131   9.301   5.540  0.0874 -0.9944 -0.7610
 8606SOL    HW229096  11.039   9.387   5.457 -0.7591 -0.9891  0.1619
 8607SOL     OW29097   4.871   9.777   6.883 -0.0088  0.0515  0.1036
 8607SOL    HW129098   4.902   9.704   6.829  1.2647  0.8457 -0.2867
 8607SOL    HW229099   4.788   9.803   6.842 -0.1318 -0.7186 -0.1655
 8608SOL     OW29100   8.721   8.548   7.991 -0.3082  0.4696  0.3191
 8608SOL    HW129101   8.709   8.480   8.057 -2.3844 -0.2649 -0.7074
 8608SOL    HW229102   8.785   8.512   7.930 -1.2140 -0.5129 -0.0869
 8609SOL     OW29103   4.774   6.975   2.913 -0.7574 -0.5734 -0.2112
 8609SOL    HW129104   4.762   7.065   2.943 -1.0395 -1.0980  1.3415
 8609SOL    HW229105   4.782   6.923   2.994 -2.1746 -2.1577 -1.0227
 8610SOL     OW29106   8.927   6.571  10.426 -0.0520 -0.5515  0.2149
 8610SOL    HW129107   8.952   6.481  10.404  2.1674 -0.1075  0.6978
 8610SOL    HW229108   9.010   6.619  10.432 -1.0473  1.1360  1.7076
 8611SOL     OW29109  10.227   7.749   2.774  0.0657  0.3142 -0.5115
 8611SOL    HW129110  10.142   7.744   2.817 -0.2115  0.6489 -1.0175
 8611SOL    HW229111  10.290   7.731   2.844 -0.2848  2.5668  0.4759
 8612SOL     OW29112   4.002   7.222   9.570  0.1957  0.0144  0.1814
 8612SOL    HW129113   3.998   7.129   9.549 -0.8479  0.0213  0.2758
 8612SOL    HW229114   4.093   7.238   9.595  0.0502 -1.3207  1.7284
 8613SOL     OW29115   4.970   3.916   3.799 -0.1003  0.4942  0.7248
 8613SOL    HW129116   4.891   3.935   3.849 -0.1397  0.5229  0.6524
 8613SOL    HW229117   4.942   3.855   3.731  0.0159  0.2198  0.9217
 8614SOL     OW29118   1.486   4.298   2.387  0.1406 -0.4552  0.4829
 8614SOL    HW129119   1.543   4.288   2.463 -2.2504 -2.1624  2.1863
 8614SOL    HW229120   1.497   4.217   2.338 -0.1973 -0.4456  0.3894
 8615SOL     OW29121   0.224   3.791   3.927  0.9604  0.8817 -0.5358
 8615SOL    HW129122   0.178   3.736   3.864  1.9260 -0.6674  0.0428
 8615SOL    HW229123   0.313   3.754   3.931  0.4581 -0.3259  3.0243
 8616SOL     OW29124   6.378   4.369   9.934 -0.3028 -0.1153  0.0647
 8616SOL    HW129125   6.378   4.284   9.889 -0.7607  0.0162 -0.1926
 8616SOL    HW229126   6.291   4.405   9.915 -1.6315 -1.2486  3.3253
 8617SOL     OW29127   8.262   5.272  10.608  0.1164 -0.0275 -0.6227
 8617SOL    HW129128   8.304   5.192  10.574 -1.2173 -2.4687  2.8592
 8617SOL    HW229129   8.172   5.266  10.578 -0.4045 -0.8055  0.9996
 8618SOL     OW29130   7.669   4.582   9.660 -0.5678  0.2623 -0.4559
 8618SOL    HW129131   7.614   4.659   9.671 -0.5402  0.1132  0.8954
 8618SOL    HW229132   7.717   4.598   9.579 -2.6963  0.3272 -1.7928
 8619SOL     OW29133   3.768   1.686   3.550 -0.6270  0.4186 -0.2182
 8619SOL    HW129134   3.825   1.662   3.624 -0.3589 -0.0973 -0.5910
 8619SOL    HW229135   3.691   1.726   3.592 -1.0660 -1.0372  0.4269
 8620SOL     OW29136   0.505   7.824   3.729  0.7420  0.7794  0.2985
 8620SOL    HW129137   0.557   7.773   3.792  1.1254  0.6521 -0.1118
 8620SOL    HW229138   0.459   7.889   3.782 -1.4835 -1.3506  1.1377
 8621SOL     OW29139   9.580   1.636   3.887 -0.2315 -0.3147 -0.7635
 8621SOL    HW129140   9.519   1.708   3.873  0.6187  1.1812  2.3547
 8621SOL    HW229141   9.540   1.561   3.843 -3.9433  0.7589  0.4650
 8622SOL     OW29142   2.693  10.965  10.829  1.0550  0.3488 -0.1757
 8622SOL    HW129143   2.637  10.932  10.759  0.9443  0.1919 -0.0163
 8622SOL    HW229144   2.717  10.886  10.879 -0.4416  0.6583  1.1165
 8623SOL     OW29145   8.325   5.104   7.090  0.3388  0.4632 -0.0109
 8623SOL    HW129146   8.371   5.026   7.058 -0.1070 -0.1634  0.8249
 8623SOL    HW229147   8.246   5.069   7.133  0.8236  1.2446  1.6209
 8624SOL     OW29148   8.855   5.747   6.824  0.5587  0.1072  0.4968
 8624SOL    HW129149   8.928   5.796   6.860  0.0788  1.2463 -0.0265
 8624SOL    HW229150   8.790   5.814   6.802  0.5290 -0.6013 -1.7684
 8625SOL     OW29151   2.994   1.554   8.464 -0.4082  0.0248  0.2445
 8625SOL    HW129152   3.014   1.560   8.370 -0.2896  1.3577  0.3394
 8625SOL    HW229153   2.900   1.535   8.466 -0.4562  0.1938 -0.1517
 8626SOL     OW29154   0.120   8.219  10.467 -0.2932 -0.1039  0.1445
 8626SOL    HW129155   0.144   8.126  10.474 -1.1398 -0.4187 -0.8458
 8626SOL    HW229156   0.042   8.219  10.413 -1.5185  1.0316  1.8251
 8627SOL     OW29157   2.088   4.328   5.640  0.0951  0.0808  0.2076
 8627SOL    HW129158   2.006   4.283   5.617  1.1064 -1.0422 -1.3662
 8627SOL    HW229159   2.071   4.420   5.622 -0.6980 -0.1930 -0.5040
 8628SOL     OW29160   3.041   2.430  10.724 -0.5609 -0.2102 -0.3860
 8628SOL    HW129161   3.049   2.336  10.706  1.3227 -0.4050  1.1639
 8628SOL    HW229162   3.114   2.450  10.783 -1.0158  2.2075 -0.5287
 8629SOL     OW29163   5.722   6.979   2.585 -0.0868  0.2580 -0.0646
 8629SOL    HW129164   5.771   7.050   2.544  1.0661 -0.9186 -0.8036
 8629SOL    HW229165   5.635   6.984   2.546 -0.0635  1.3264 -0.0041
 8630SOL     OW29166   3.682   0.297   5.093 -0.3738  0.3245  0.3943
 8630SOL    HW129167   3.662   0.204   5.085  0.6363 -0.0117  1.5534
 8630SOL    HW229168   3.653   0.335   5.010  0.3983 -1.2293 -0.6233
 8631SOL     OW29169  10.052   8.106   5.437  0.2579 -0.0262  0.2442
 8631SOL    HW129170   9.994   8.135   5.366 -0.7183 -1.1757  0.5379
 8631SOL    HW229171  10.099   8.185   5.463  0.2023  0.5477 -1.2777
 8632SOL     OW29172   6.899   6.234  10.027  0.5522  0.0835 -0.1927
 8632SOL    HW129173   6.991   6.236  10.002  0.5505 -1.7287 -0.4316
 8632SOL    HW229174   6.901   6.231  10.123  0.7944 -1.4017 -0.2336
 8633SOL     OW29175   4.975   1.992   9.977  0.0275 -0.1604  0.3163
 8633SOL    HW129176   5.026   1.925   9.932 -1.1631 -1.2530  0.5420
 8633SOL    HW229177   4.929   2.038   9.907  0.4770  0.1080  0.1958
 8634SOL     OW29178  11.091   9.099   1.022  0.2307 -0.0601 -0.4805
 8634SOL    HW129179  11.169   9.137   1.063  1.2987 -1.4996 -1.1082
 8634SOL    HW229180  11.055   9.041   1.090  0.7650 -0.7940 -0.8168
 8635SOL     OW29181   9.758   5.159   8.508  0.5770  0.2030 -0.3869
 8635SOL    HW129182   9.768   5.231   8.446  1.5449 -0.6023 -1.1978
 8635SOL    HW229183   9.777   5.081   8.457  0.5877 -0.5470  0.7329
 8636SOL     OW29184   0.152   5.531  11.154 -0.3086 -0.0320  0.2159
 8636SOL    HW129185   0.080   5.483  11.114  0.0696 -1.1636  0.8541
 8636SOL    HW229186   0.126   5.623  11.148 -1.4575 -0.3733 -0.2243
 8637SOL     OW29187   8.540   7.213   3.055 -0.0041  0.3018 -0.7492
 8637SOL    HW129188   8.461   7.239   3.007 -0.1014  1.2876 -0.1035
 8637SOL    HW229189   8.613   7.246   3.003 -0.0665  0.3934 -0.7779
 8638SOL     OW29190   7.504   2.017  10.156  0.3884 -0.1483  0.2378
 8638SOL    HW129191   7.432   2.070  10.122 -0.6834 -0.4566  1.8844
 8638SOL    HW229192   7.582   2.071  10.143 -0.8416  2.7844  3.4625
 8639SOL     OW29193   8.465   7.496   2.579  0.0669 -0.0017  0.3047
 8639SOL    HW129194   8.535   7.562   2.578  0.3295 -0.2737  0.3582
 8639SOL    HW229195   8.512   7.412   2.578 -0.1739 -0.2251  2.2711
 8640SOL     OW29196   4.040  11.007   7.884 -0.4580  0.1531  0.1491
 8640SOL    HW129197   4.136  11.006   7.884 -0.4526  0.6014  0.2057
 8640SOL    HW229198   4.016  10.958   7.963 -0.2515  1.3994  1.0070
 8641SOL     OW29199   1.548   1.911   2.807 -0.9152 -0.0129  0.3838
 8641SOL    HW129200   1.610   1.971   2.766 -1.1560 -0.0579 -0.0581
 8641SOL    HW229201   1.524   1.851   2.737 -0.1989 -1.0187  0.9872
 8642SOL     OW29202   5.971   6.739   2.098 -0.3352  0.4112  0.0982
 8642SOL    HW129203   5.914   6.779   2.033 -0.2158  0.3212 -0.0625
 8642SOL    HW229204   6.009   6.813   2.145  1.4203  0.5941 -1.4957
 8643SOL     OW29205   7.984   7.890  11.103  0.8369  0.1886  0.2087
 8643SOL    HW129206   7.916   7.895  11.035 -1.2383 -0.7234  2.1085
 8643SOL    HW229207   8.065   7.871  11.054 -0.8273 -2.1428 -1.9073
 8644SOL     OW29208   9.208   2.218   3.095 -0.2689  0.3025 -0.5054
 8644SOL    HW129209   9.301   2.200   3.081  0.3307  2.6334  0.0959
 8644SOL    HW229210   9.194   2.205   3.188 -0.4053  0.5065 -0.4949
 8645SOL     OW29211   6.581   9.342   1.186  0.0889  0.5383 -0.2017
 8645SOL    HW129212   6.511   9.367   1.126  0.9361  1.6720 -0.7496
 8645SOL    HW229213   6.640   9.288   1.134 -1.1196 -1.7723  0.6684
 8646SOL     OW29214  11.001   3.673   0.913  0.7209  0.4466  0.3513
 8646SOL    HW129215  10.913   3.643   0.937  0.2768  2.0927  0.9183
 8646SOL    HW229216  11.000   3.673   0.817  0.2540  0.0329  0.3479
 8647SOL     OW29217   7.932   4.318   5.635  0.2409  0.0576 -0.1702
 8647SOL    HW129218   7.863   4.271   5.588  0.0214  0.6495 -0.4494
 8647SOL    HW229219   8.009   4.312   5.579  0.1821  0.1325 -0.2575
 8648SOL     OW29220   3.473  10.935   8.651  0.5945 -0.3984  0.3697
 8648SOL    HW129221   3.465  10.969   8.562 -0.5636 -0.7657  0.3231
 8648SOL    HW229222   3.384  10.934   8.685  0.6777 -2.4970  0.6737
 8649SOL     OW29223   3.152   1.325   7.594 -0.1429 -0.1434  0.1076
 8649SOL    HW129224   3.172   1.351   7.504 -2.0558 -0.4589 -0.4787
 8649SOL    HW229225   3.175   1.232   7.597  1.3166  0.2137  0.4254
 8650SOL     OW29226   4.401   4.311  11.282 -0.1638  0.3263  0.3208
 8650SOL    HW129227   4.442   4.364  11.213  0.7716  0.8108  1.2177
 8650SOL    HW229228   4.424   4.356  11.363 -0.5923 -0.6610  1.0077
 8651SOL     OW29229   2.192   1.593   8.947 -0.5520  0.3008  0.5400
 8651SOL    HW129230   2.104   1.627   8.932 -0.1436  2.4165  2.3291
 8651SOL    HW229231   2.241   1.618   8.869 -1.7051 -1.9321 -1.0190
 8652SOL     OW29232   5.980   5.978   2.880 -0.6934 -0.1518 -0.0014
 8652SOL    HW129233   6.028   5.919   2.938  3.3773  0.3810 -2.4091
 8652SOL    HW229234   6.003   6.066   2.910 -1.5255  0.1566 -0.2395
 8653SOL     OW29235  10.600   1.972   9.579  0.1014  0.1331 -0.1683
 8653SOL    HW129236  10.540   1.901   9.603 -0.0168  0.5521  0.8310
 8653SOL    HW229237  10.687   1.935   9.593  0.0387  0.3801  1.0445
 8654SOL     OW29238   2.124   4.812   2.130  0.3386 -0.1927 -1.0464
 8654SOL    HW129239   2.056   4.744   2.134  1.4234 -1.2416  1.6600
 8654SOL    HW229240   2.198   4.769   2.087  0.5739 -0.3451 -0.5060
 8655SOL     OW29241   6.916   2.025   0.668  0.2709 -0.3229  0.4525
 8655SOL    HW129242   6.830   1.992   0.694 -0.3550  0.6162 -0.3334
 8655SOL    HW229243   6.930   1.991   0.580 -0.9538  2.3593 -0.8943
 8656SOL     OW29244  10.430   8.516   4.179  0.0641  0.4532 -0.1830
 8656SOL    HW129245  10.512   8.537   4.134  0.6519 -0.8013  0.2610
 8656SOL    HW229246  10.363   8.528   4.113  0.7182  0.4612 -0.8597
 8657SOL     OW29247   3.485  10.370   4.670 -0.0308  0.1413 -0.4683
 8657SOL    HW129248   3.413  10.404   4.617 -1.1972  1.8725  2.0593
 8657SOL    HW229249   3.451  10.370   4.759  1.7704 -2.8294  0.3607
 8658SOL     OW29250   7.245   2.950   9.022 -0.1825  0.2750  0.1718
 8658SOL    HW129251   7.180   3.009   8.986 -1.3027 -0.7606  0.4336
 8658SOL    HW229252   7.195   2.876   9.056  1.2350 -1.7662 -1.8573
 8659SOL     OW29253   7.669   6.233   8.084 -0.0626 -0.3525 -0.8215
 8659SOL    HW129254   7.575   6.237   8.100 -0.0808 -1.5070 -0.5677
 8659SOL    HW229255   7.706   6.201   8.167  0.4439 -0.9279 -1.2679
 8660SOL     OW29256   0.875   0.139  11.248 -0.2498  0.1733 -0.1886
 8660SOL    HW129257   0.789   0.164  11.215 -0.2894 -0.1601 -0.3387
 8660SOL    HW229258   0.909   0.078  11.184  0.5917  1.1724 -0.7232
 8661SOL     OW29259  10.579   6.249   9.417  0.0616 -0.0388 -0.0907
 8661SOL    HW129260  10.538   6.253   9.330 -0.6774 -0.8527  0.2059
 8661SOL    HW229261  10.669   6.279   9.402 -0.2333  0.4450 -1.0144
 8662SOL     OW29262   4.859   6.769   6.856 -0.4863  0.7886  0.3556
 8662SOL    HW129263   4.855   6.864   6.866  0.1428  0.7582  1.0087
 8662SOL    HW229264   4.952   6.748   6.862 -0.7176  0.0015  1.7798
 8663SOL     OW29265   3.874   6.583   0.843  0.4296  0.0395 -0.5868
 8663SOL    HW129266   3.787   6.555   0.871  0.2410 -1.8232 -2.7212
 8663SOL    HW229267   3.934   6.536   0.901  0.0272  0.1795 -0.0514
 8664SOL     OW29268   3.430   5.595   9.220  0.2704  0.0291  0.0948
 8664SOL    HW129269   3.514   5.549   9.223 -0.2534 -0.9157  1.3368
 8664SOL    HW229270   3.444   5.672   9.276  0.6521  0.5110 -0.6516
 8665SOL     OW29271  11.187   2.957   0.208 -0.1434 -0.3159  0.1153
 8665SOL    HW129272  11.156   2.879   0.160  2.4170  0.0123 -2.3593
 8665SOL    HW229273  11.194   2.927   0.298 -1.2803 -2.2871 -0.3627
 8666SOL     OW29274   0.701  11.052   8.703 -0.6134 -0.3192  0.9003
 8666SOL    HW129275   0.761  10.988   8.742 -0.1195  0.2958  1.1737
 8666SOL    HW229276   0.657  11.093   8.778 -1.0213 -0.4333  0.7220
 8667SOL     OW29277   9.012   3.002   3.327 -0.1550  0.4054 -0.0274
 8667SOL    HW129278   8.919   2.980   3.333 -0.2702  0.7523 -0.5131
 8667SOL    HW229279   9.020   3.054   3.247  0.3465  0.9291  0.3514
 8668SOL     OW29280   9.106   7.282   5.422  0.1414  0.2080  0.1821
 8668SOL    HW129281   9.095   7.350   5.356 -0.9353 -0.6297 -0.5295
 8668SOL    HW229282   9.110   7.200   5.372  1.7550 -0.2648  0.9909
 8669SOL     OW29283   3.601   2.369   9.772  0.1336  0.7596 -0.4510
 8669SOL    HW129284   3.590   2.441   9.835  0.7347 -0.9375  1.7298
 8669SOL    HW229285   3.517   2.365   9.726 -1.1731  0.7356  1.7954
 8670SOL     OW29286   1.508   5.105   0.150  0.1460 -0.4243  0.0257
 8670SOL    HW129287   1.531   5.175   0.212 -0.1586 -0.7435  0.5033
 8670SOL    HW229288   1.495   5.028   0.204 -2.3934 -0.2043 -0.1368
 8671SOL     OW29289  10.108   1.069   9.440  0.0217  0.1256  0.5417
 8671SOL    HW129290  10.013   1.069   9.434  0.1233  0.0951 -1.4552
 8671SOL    HW229291  10.129   0.983   9.478 -0.6893 -0.3762 -0.1732
 8672SOL     OW29292   8.027  11.310   9.772  0.3165  0.0119  0.0957
 8672SOL    HW129293   8.074  11.267   9.701 -0.5217  0.8101 -0.9992
 8672SOL    HW229294   7.972  11.241   9.810  2.0600 -0.8430  1.1692
 8673SOL     OW29295   0.567   3.105  11.099  0.4680  0.4904  0.0028
 8673SOL    HW129296   0.490   3.151  11.065  0.2022  0.3750  0.4465
 8673SOL    HW229297   0.590   3.153  11.179  0.1903 -0.1533  0.4699
 8674SOL     OW29298   9.671   2.919   8.456 -0.2965  0.5944 -0.0226
 8674SOL    HW129299   9.641   2.839   8.414  0.1339  0.7297 -0.5981
 8674SOL    HW229300   9.671   2.985   8.386  1.3559  0.5901 -0.0669
 8675SOL     OW29301   1.181   4.249   3.994  0.4292 -0.4123  0.8223
 8675SOL    HW129302   1.106   4.292   3.953 -0.8030 -1.1487  2.2432
 8675SOL    HW229303   1.254   4.267   3.933 -1.2632 -1.3825 -1.6587
 8676SOL     OW29304   7.377   9.854  10.243 -0.0081 -0.2762  0.0223
 8676SOL    HW129305   7.312   9.924  10.254  1.3381  0.8291  1.4240
 8676SOL    HW229306   7.448   9.895  10.193  0.8782 -0.5282  1.0250
 8677SOL     OW29307   0.128   6.188   5.959  0.6718 -0.0571  0.6152
 8677SOL    HW129308   0.116   6.104   6.004 -0.3395  1.5167  3.5742
 8677SOL    HW229309   0.196   6.233   6.010 -0.3478  1.7551  0.4484
 8678SOL     OW29310   3.469   9.619  10.592  0.1077 -0.1569 -0.0718
 8678SOL    HW129311   3.458   9.684  10.523 -0.4466  0.0774  0.2315
 8678SOL    HW229312   3.545   9.567  10.564  0.6866  0.7487 -0.2175
 8679SOL     OW29313   2.939   4.662   4.925 -0.1999 -0.0927 -0.4701
 8679SOL    HW129314   3.016   4.711   4.895  0.1944 -0.6190 -0.3366
 8679SOL    HW229315   2.869   4.727   4.927  0.8618  1.1143  2.0992
 8680SOL     OW29316   1.538   5.186   9.798 -0.3362  0.2321  0.3034
 8680SOL    HW129317   1.488   5.113   9.761 -0.8049  0.1685  1.0425
 8680SOL    HW229318   1.471   5.247   9.829  0.0119 -0.0825  1.7633
 8681SOL     OW29319   4.818   3.676   7.760  0.0780 -0.5426 -0.0360
 8681SOL    HW129320   4.775   3.601   7.801 -1.2645  0.0963 -0.2371
 8681SOL    HW229321   4.795   3.669   7.667 -1.5247  1.0306  0.1929
 8682SOL     OW29322   6.279   4.669   6.197  0.1776  0.7593  0.4943
 8682SOL    HW129323   6.248   4.693   6.285 -0.0176 -0.3984  0.7614
 8682SOL    HW229324   6.374   4.660   6.207  0.3513  2.0478  0.2217
 8683SOL     OW29325   4.469   2.152   6.419 -0.2098 -0.3110 -0.4579
 8683SOL    HW129326   4.531   2.137   6.490  0.1972  0.7312 -0.5767
 8683SOL    HW229327   4.457   2.247   6.417 -1.7442 -0.4898 -0.5029
 8684SOL     OW29328   9.475   4.608   2.646 -0.7798 -0.6221  0.1659
 8684SOL    HW129329   9.552   4.662   2.628  0.2473 -2.1891 -0.3366
 8684SOL    HW229330   9.401   4.667   2.635  0.3404  0.9285  0.6463
 8685SOL     OW29331   0.446  10.990   2.285 -0.2721 -0.2133  0.1986
 8685SOL    HW129332   0.397  10.922   2.239  0.4733  0.5847 -1.8565
 8685SOL    HW229333   0.380  11.035   2.339 -1.2971 -0.7773 -0.5515
 8686SOL     OW29334   8.502   7.194   3.785 -0.0152 -0.0278 -0.1809
 8686SOL    HW129335   8.473   7.172   3.874  2.1228 -0.7979  0.3965
 8686SOL    HW229336   8.455   7.275   3.764 -1.9038 -0.7762  0.9266
 8687SOL     OW29337   5.812   6.923  11.390  0.3382 -0.9332  0.0586
 8687SOL    HW129338   5.859   6.989  11.441 -0.1472  1.1638 -2.0507
 8687SOL    HW229339   5.730   6.909  11.438  0.0548  0.7004  0.1074
 8688SOL     OW29340  11.061   3.621   2.803 -0.0203 -0.1336  0.0275
 8688SOL    HW129341  11.012   3.666   2.872  1.9624  1.8436  0.2576
 8688SOL    HW229342  10.993   3.584   2.747 -1.7104 -0.9603  2.4492
 8689SOL     OW29343   5.492   9.401   2.875 -0.4366 -0.7063 -0.1534
 8689SOL    HW129344   5.556   9.368   2.813 -0.1353  0.0269 -0.2404
 8689SOL    HW229345   5.438   9.324   2.897  0.3077 -1.2691 -0.2641
 8690SOL     OW29346   7.232   1.612  10.428 -0.4750  0.5683 -0.0523
 8690SOL    HW129347   7.270   1.691  10.390 -0.8541  0.7980  0.0321
 8690SOL    HW229348   7.269   1.608  10.516  1.2413 -0.5598 -0.7930
 8691SOL     OW29349   9.926   1.394   9.792  0.2762  0.2133 -0.3307
 8691SOL    HW129350   9.950   1.374   9.702 -0.7563 -0.0673 -0.5492
 8691SOL    HW229351   9.941   1.488   9.801  1.2579  0.0878 -0.5075
 8692SOL     OW29352  10.367   7.540   3.809 -0.1460  0.5444  0.2275
 8692SOL    HW129353  10.367   7.495   3.894  1.5541  1.2155  0.6206
 8692SOL    HW229354  10.380   7.470   3.745 -0.8145  0.1043  0.5655
 8693SOL     OW29355   4.477   6.375  10.846 -0.3938 -0.1552 -0.1559
 8693SOL    HW129356   4.455   6.335  10.930  1.6226  0.9143  0.9660
 8693SOL    HW229357   4.546   6.438  10.867 -0.7374  1.0888 -2.4341
 8694SOL     OW29358  10.881  10.945   8.039 -0.0707  0.1359  0.1797
 8694SOL    HW129359  10.847  11.015   7.982  0.1057  0.6007  0.6370
 8694SOL    HW229360  10.970  10.973   8.059 -0.3639  0.3235  1.2458
 8695SOL     OW29361   6.978   5.807  11.364 -0.0752  0.2284 -0.1953
 8695SOL    HW129362   7.051   5.771  11.313 -0.1396 -1.3596  0.7806
 8695SOL    HW229363   7.003   5.898  11.380  1.5792 -0.2022 -0.1181
 8696SOL     OW29364   5.320   8.677   2.439 -0.4192  0.1702  0.3104
 8696SOL    HW129365   5.310   8.590   2.479  1.2445  0.4376  1.4301
 8696SOL    HW229366   5.234   8.696   2.400 -0.7341 -2.0720 -0.2003
 8697SOL     OW29367  11.183   2.100   7.358 -0.0649  0.3991 -0.4789
 8697SOL    HW129368  11.254   2.099   7.294 -0.0681  1.7152 -0.5248
 8697SOL    HW229369  11.104   2.104   7.305 -0.2092 -1.1956 -0.4310
 8698SOL     OW29370   5.596   0.497   5.915 -0.7479 -0.6230  0.4731
 8698SOL    HW129371   5.565   0.565   5.856  0.2569  0.7243  1.4219
 8698SOL    HW229372   5.523   0.481   5.974 -0.9917 -0.3514  0.2480
 8699SOL     OW29373  11.112   9.914   2.457  0.4062 -0.2702 -0.5393
 8699SOL    HW129374  11.208   9.912   2.457  0.4534  0.6789  0.7515
 8699SOL    HW229375  11.089   9.924   2.550 -0.8920  1.1435 -0.9802
 8700SOL     OW29376   2.638   9.867   2.959 -0.0734  0.5816 -0.8191
 8700SOL    HW129377   2.595   9.878   3.043 -1.0374  1.7902 -1.4354
 8700SOL    HW229378   2.638   9.772   2.944  1.2293  0.2363  1.0628
 8701SOL     OW29379   4.898   8.389   0.149  0.3919 -0.1230 -0.0064
 8701SOL    HW129380   4.968   8.453   0.142  2.2341 -1.9896  0.3932
 8701SOL    HW229381   4.933   8.320   0.205 -1.1152 -1.9346 -1.1305
 8702SOL     OW29382   5.669   5.232   3.858 -0.2105 -0.8122 -0.0473
 8702SOL    HW129383   5.644   5.320   3.889  0.2467  0.8882 -3.9011
 8702SOL    HW229384   5.588   5.194   3.825  0.2258  0.2882 -2.7181
 8703SOL     OW29385   5.840   4.755   7.213 -0.3935  0.0665 -0.0366
 8703SOL    HW129386   5.819   4.839   7.172 -1.1444 -0.1744 -0.1538
 8703SOL    HW229387   5.823   4.690   7.145  1.0221 -0.1349 -0.2356
 8704SOL     OW29388   5.671   8.285   2.033 -0.4009  0.1588  0.3956
 8704SOL    HW129389   5.610   8.245   2.096 -0.8896  1.6495  0.9088
 8704SOL    HW229390   5.635   8.372   2.016  0.4805  0.2981 -0.9045
 8705SOL     OW29391   6.289   9.906   8.475  0.3434 -0.3677  0.2047
 8705SOL    HW129392   6.236   9.853   8.415 -1.2118 -0.1193  1.3128
 8705SOL    HW229393   6.288   9.857   8.557  0.5072  0.4402  0.6984
 8706SOL     OW29394   9.253   9.552   3.862  0.2781 -0.2504 -0.0888
 8706SOL    HW129395   9.256   9.458   3.845  1.5087 -0.0813 -0.8856
 8706SOL    HW229396   9.184   9.562   3.928  0.3873 -1.7387  0.2787
 8707SOL     OW29397   8.869   5.622   2.259  0.2198  0.0295 -0.4716
 8707SOL    HW129398   8.905   5.697   2.212 -1.5223  1.6945  0.7331
 8707SOL    HW229399   8.825   5.570   2.191  1.0492  0.3032 -1.2467
 8708SOL     OW29400   6.524   1.923   3.684 -0.1279  0.3769  0.3481
 8708SOL    HW129401   6.474   2.002   3.663  1.1620  0.9122 -0.7986
 8708SOL    HW229402   6.612   1.940   3.651  0.5104 -1.0419  1.2224
 8709SOL     OW29403   5.956   1.958   9.566 -0.2012  0.1813  0.4627
 8709SOL    HW129404   5.916   1.990   9.485  0.5312  0.0157  0.0243
 8709SOL    HW229405   5.975   1.866   9.548 -0.1616  0.1091  0.8732
 8710SOL     OW29406   5.407   5.011   0.898 -0.1849  0.2106  0.2854
 8710SOL    HW129407   5.361   5.043   0.821  1.8034 -0.4112 -1.2518
 8710SOL    HW229408   5.404   4.915   0.889  0.3170  0.1414  0.8243
 8711SOL     OW29409   7.265   1.368   7.530  0.4177 -0.0827 -0.0862
 8711SOL    HW129410   7.271   1.395   7.622 -0.8928 -0.0830  0.0182
 8711SOL    HW229411   7.354   1.343   7.507  0.8094  0.1094  1.1288
 8712SOL     OW29412   4.106   7.960   0.255  0.1369 -0.0543 -0.0390
 8712SOL    HW129413   4.201   7.954   0.266  0.1901  0.0716 -0.4312
 8712SOL    HW229414   4.087   7.907   0.177  0.1789  1.8489 -1.4089
 8713SOL     OW29415   3.956   7.815   1.942 -0.0614  0.5827  0.0150
 8713SOL    HW129416   3.952   7.898   1.894  1.3779  0.6920  0.0321
 8713SOL    HW229417   3.992   7.753   1.878  1.6442  0.6721  0.8303
 8714SOL     OW29418   8.532   7.523  11.124  0.3428 -0.0069  0.1744
 8714SOL    HW129419   8.601   7.507  11.059  0.3428  1.9530 -0.3891
 8714SOL    HW229420   8.495   7.437  11.142  1.4434 -0.8130 -1.2098
 8715SOL     OW29421   3.295   7.702   5.687  0.2861 -0.5245  0.4888
 8715SOL    HW129422   3.237   7.768   5.649  0.5755 -0.4834  0.1069
 8715SOL    HW229423   3.383   7.738   5.675  0.3192  0.4277  3.0022
 8716SOL     OW29424   5.551   0.443   4.276  0.1070 -0.1582  0.1667
 8716SOL    HW129425   5.610   0.397   4.216  1.6484  0.5239  1.1012
 8716SOL    HW229426   5.474   0.463   4.223  1.1372 -0.1748 -1.4029
 8717SOL     OW29427   3.495   5.514   8.025  0.8768 -0.0836 -0.4994
 8717SOL    HW129428   3.483   5.419   8.023  0.0408  0.0262 -1.6114
 8717SOL    HW229429   3.577   5.528   7.977  0.7618 -0.2242 -0.7414
 8718SOL     OW29430  10.919   6.175   2.781 -0.3644 -0.1838 -0.2064
 8718SOL    HW129431  10.994   6.149   2.835 -0.1614  0.4831 -0.1595
 8718SOL    HW229432  10.934   6.133   2.696 -0.0195 -0.1879 -0.1437
 8719SOL     OW29433   1.133   1.613   0.871  0.1526 -0.3543 -0.1208
 8719SOL    HW129434   1.210   1.634   0.819  0.4263 -1.2707 -0.1034
 8719SOL    HW229435   1.124   1.518   0.864  0.2673 -0.5268  1.5877
 8720SOL     OW29436   5.801   4.482   7.587 -0.0212 -0.4438  0.7727
 8720SOL    HW129437   5.888   4.446   7.601  0.6548  0.2868 -1.2511
 8720SOL    HW229438   5.762   4.485   7.675  1.7532 -1.3060  1.6410
 8721SOL     OW29439   7.120  10.152   8.636  0.0718  0.2723  0.2768
 8721SOL    HW129440   7.139  10.243   8.614  0.4745  0.2270  0.4241
 8721SOL    HW229441   7.144  10.144   8.729  0.4393 -0.0866  0.1562
 8722SOL     OW29442   9.228   4.115  11.130 -0.0239  0.3024  0.1546
 8722SOL    HW129443   9.323   4.122  11.117  0.0682  1.5964  1.2690
 8722SOL    HW229444   9.216   4.124  11.225 -1.2442 -0.2105  0.0698
 8723SOL     OW29445   1.657   4.457   8.652 -0.5743 -0.1707  0.1303
 8723SOL    HW129446   1.690   4.460   8.742 -0.4941  0.6490  0.0837
 8723SOL    HW229447   1.652   4.549   8.625  3.5061 -0.3787 -2.2114
 8724SOL     OW29448   9.712   4.827   9.843  0.2574  0.3009  0.3444
 8724SOL    HW129449   9.632   4.876   9.827 -0.2182 -0.5531 -0.0038
 8724SOL    HW229450   9.711   4.757   9.777 -0.2812 -1.6009  2.2507
 8725SOL     OW29451   3.638   8.663   4.273  0.2669  0.4190  0.1459
 8725SOL    HW129452   3.720   8.706   4.299 -0.5394  0.9755  1.9060
 8725SOL    HW229453   3.577   8.735   4.257 -0.2552 -0.0100  0.1671
 8726SOL     OW29454   1.072   4.717   5.733 -0.0267 -0.1248 -0.3020
 8726SOL    HW129455   1.002   4.774   5.766  0.6094  1.2736 -1.2418
 8726SOL    HW229456   1.125   4.774   5.677  1.3908 -1.3487 -0.2867
 8727SOL     OW29457   1.326   5.102  11.334 -0.1007 -0.0258  0.3057
 8727SOL    HW129458   1.241   5.100  11.378  0.4469 -1.3777  1.3722
 8727SOL    HW229459   1.389   5.123  11.403  0.5841 -0.4452 -0.1783
 8728SOL     OW29460   3.866   7.725   2.772  0.5455 -0.3766  0.2856
 8728SOL    HW129461   3.857   7.713   2.678  0.4580 -1.6172  0.4326
 8728SOL    HW229462   3.948   7.773   2.783  1.9366 -2.4564 -0.3278
 8729SOL     OW29463   2.189   3.432   6.017  0.4265 -0.1438 -0.2022
 8729SOL    HW129464   2.250   3.485   6.068 -0.5468  0.0478  0.7950
 8729SOL    HW229465   2.118   3.412   6.077 -0.7102 -0.0116 -1.4511
 8730SOL     OW29466   1.110  11.209   6.229  0.2139 -0.2031  0.0224
 8730SOL    HW129467   1.079  11.142   6.290 -0.5756 -0.7590 -0.9638
 8730SOL    HW229468   1.038  11.272   6.224  0.2263 -0.2186 -0.4068
 8731SOL     OW29469   9.801  11.347  11.229 -0.0791  0.1927  0.0514
 8731SOL    HW129470   9.830  11.400  11.303  0.2033 -0.5899  0.5188
 8731SOL    HW229471   9.720  11.306  11.258  0.7236 -1.1821  0.4676
 8732SOL     OW29472   3.688  10.582   5.981 -0.1200  0.2840 -0.1121
 8732SOL    HW129473   3.693  10.487   5.980  0.7655  0.3296 -1.4562
 8732SOL    HW229474   3.667  10.604   6.072 -2.6952 -1.2750 -0.2265
 8733SOL     OW29475   8.520  10.476   2.613  0.2074 -0.0882 -0.5077
 8733SOL    HW129476   8.514  10.381   2.600 -1.6922 -0.0924  0.0509
 8733SOL    HW229477   8.578  10.487   2.688  0.4777 -0.7917 -0.6007
 8734SOL     OW29478   4.914   5.365   6.963  0.3212  0.3684 -0.4127
 8734SOL    HW129479   4.868   5.308   7.025 -0.8173  0.6621 -0.9731
 8734SOL    HW229480   4.847   5.391   6.900  1.1789  1.1114 -1.0337
 8735SOL     OW29481  10.592   8.462   3.778 -0.0648  0.1956  0.5257
 8735SOL    HW129482  10.662   8.476   3.715 -1.6454  0.1241 -1.3207
 8735SOL    HW229483  10.593   8.367   3.794  0.2229  0.1853  0.4457
 8736SOL     OW29484   2.962   0.749   1.147 -0.0245 -0.3582 -0.5755
 8736SOL    HW129485   3.013   0.676   1.114  0.2085 -0.6721  0.4293
 8736SOL    HW229486   3.025   0.805   1.192 -0.3204  0.0652 -0.6767
 8737SOL     OW29487   0.739   8.917   0.388 -0.1730 -0.0825 -0.2537
 8737SOL    HW129488   0.823   8.958   0.406  0.4170 -0.6176 -1.6471
 8737SOL    HW229489   0.751   8.826   0.415 -0.4302 -0.0667 -0.0868
 8738SOL     OW29490  10.592   6.631   0.546 -0.2651  0.6370  0.2047
 8738SOL    HW129491  10.542   6.691   0.492 -1.0848 -0.5170 -0.3708
 8738SOL    HW229492  10.535   6.613   0.621 -1.5354 -1.9400 -1.2364
 8739SOL     OW29493   5.451   6.778   3.293  0.5896 -0.4246 -0.0734
 8739SOL    HW129494   5.382   6.746   3.235  0.0298 -1.1138  0.9382
 8739SOL    HW229495   5.422   6.866   3.318  0.1006 -0.6851  0.2929
 8740SOL     OW29496  10.455   2.816   6.807  0.1475  0.0283  0.5152
 8740SOL    HW129497  10.484   2.891   6.755  0.3922 -0.2654  0.2252
 8740SOL    HW229498  10.424   2.752   6.743 -0.4340  0.0348  0.7845
 8741SOL     OW29499   1.940   3.242   4.962 -0.2073  0.0492 -0.3668
 8741SOL    HW129500   2.002   3.302   4.920 -0.8786 -0.8981 -2.9181
 8741SOL    HW229501   1.994   3.187   5.018  1.2237 -0.3532 -2.0507
 8742SOL     OW29502   5.542   1.207   5.953  0.7120  0.5405  0.1228
 8742SOL    HW129503   5.494   1.259   6.018  0.0175  0.1278 -0.0540
 8742SOL    HW229504   5.520   1.246   5.869 -1.4912 -1.2727 -0.2196
 8743SOL     OW29505   8.254   1.572   2.664 -0.3820 -0.1634  0.4796
 8743SOL    HW129506   8.187   1.593   2.598 -0.4149 -3.2817 -0.6876
 8743SOL    HW229507   8.205   1.545   2.741 -0.3681  1.1612  0.9754
 8744SOL     OW29508   5.631   6.470  10.532  0.4294 -0.2503 -0.2871
 8744SOL    HW129509   5.616   6.456  10.439 -0.2006  0.5707 -0.3200
 8744SOL    HW229510   5.607   6.561  10.547 -0.2290 -0.5844  0.8294
 8745SOL     OW29511   0.396   9.836   7.202 -0.0677 -0.2940 -0.2191
 8745SOL    HW129512   0.421   9.796   7.119 -1.1003 -1.8018  0.1412
 8745SOL    HW229513   0.392   9.762   7.263 -2.5110  0.2460  0.3803
 8746SOL     OW29514   2.969   5.064   1.994  0.2239 -0.0879  0.3270
 8746SOL    HW129515   3.043   5.010   2.021 -0.6978 -1.5454  0.0907
 8746SOL    HW229516   2.995   5.154   2.014  1.5767 -0.6690  1.3045
 8747SOL     OW29517   0.789   3.840   2.796 -0.2612  0.1883 -0.0560
 8747SOL    HW129518   0.884   3.837   2.808 -0.4428 -2.3968  1.3626
 8747SOL    HW229519   0.765   3.930   2.819  1.5211  0.0451  2.8939
 8748SOL     OW29520   7.801   9.404   2.326  0.4292  0.2479 -0.2325
 8748SOL    HW129521   7.887   9.391   2.365  1.0240  1.0383 -1.2490
 8748SOL    HW229522   7.772   9.316   2.300  0.0369 -0.3014  1.8684
 8749SOL     OW29523   3.818   8.080   0.706 -0.4431 -0.2754  0.0140
 8749SOL    HW129524   3.750   8.053   0.644 -0.3808 -0.1779 -0.0982
 8749SOL    HW229525   3.891   8.021   0.687  0.2321  0.9114 -1.2487
 8750SOL     OW29526  10.982   3.786   6.830  0.4214  0.2511 -0.1809
 8750SOL    HW129527  11.001   3.823   6.743 -0.1283 -0.5914 -0.6824
 8750SOL    HW229528  11.031   3.704   6.832  2.0880  1.2438  1.1474
 8751SOL     OW29529   0.607  10.241   1.259  0.0759  0.5764 -0.4950
 8751SOL    HW129530   0.650  10.210   1.179  1.0789 -1.4272  0.7557
 8751SOL    HW229531   0.534  10.181   1.272  0.6782  0.0809  0.7405
 8752SOL     OW29532   1.246   5.681  10.815 -0.0667 -0.5586  0.2221
 8752SOL    HW129533   1.241   5.597  10.770  1.9764 -0.5477 -0.1291
 8752SOL    HW229534   1.322   5.673  10.873 -0.7933  0.5111  1.3781
 8753SOL     OW29535   1.740   6.715   3.320  0.2492  0.6373  0.1335
 8753SOL    HW129536   1.684   6.703   3.397  1.8538  1.0823  1.4271
 8753SOL    HW229537   1.685   6.688   3.246 -1.4972  0.6100  1.3679
 8754SOL     OW29538  10.624  11.269   0.431  0.2106  0.1070  0.3531
 8754SOL    HW129539  10.651  11.357   0.403  1.3275  0.5742  2.6665
 8754SOL    HW229540  10.568  11.284   0.507 -1.8264 -1.1346 -0.8191
 8755SOL     OW29541  11.334   6.533   1.488  0.0137 -0.2005  0.1166
 8755SOL    HW129542  11.422   6.509   1.518  0.3332 -2.6014 -2.3556
 8755SOL    HW229543  11.275   6.484   1.545  0.5049 -2.2195 -1.0024
 8756SOL     OW29544   2.457   8.364   6.398  0.1530 -0.1422  0.4858
 8756SOL    HW129545   2.466   8.419   6.476  0.4923  2.4891 -1.2735
 8756SOL    HW229546   2.374   8.319   6.409 -0.8816  1.8683  1.4388
 8757SOL     OW29547   4.277   9.935   9.083 -0.3944  0.0440 -1.1409
 8757SOL    HW129548   4.312   9.864   9.030  0.3629  0.4971 -1.2576
 8757SOL    HW229549   4.325  10.013   9.055 -0.4657  0.4182 -0.2751
 8758SOL     OW29550   0.938   1.900   2.274 -0.3808  0.1469 -0.3015
 8758SOL    HW129551   1.017   1.955   2.272 -0.3814  0.1489 -1.6055
 8758SOL    HW229552   0.940   1.854   2.190 -3.8595  3.1472 -2.2914
 8759SOL     OW29553   6.445   6.305   7.544  0.3087  0.5092 -0.1450
 8759SOL    HW129554   6.530   6.267   7.523  0.0648  0.8086 -1.8445
 8759SOL    HW229555   6.435   6.377   7.481 -2.2015 -1.0143 -1.6884
 8760SOL     OW29556   8.867   3.723   8.165  0.0395  0.5920 -0.0781
 8760SOL    HW129557   8.773   3.738   8.164  0.1775  1.5368 -1.3230
 8760SOL    HW229558   8.877   3.632   8.135 -0.5847 -0.7373  3.2919
 8761SOL     OW29559   3.574   1.364   1.131  0.1208  0.3498  0.1608
 8761SOL    HW129560   3.568   1.441   1.188  1.8147  0.3997  0.3239
 8761SOL    HW229561   3.632   1.391   1.060 -0.7219 -0.2194 -0.7750
 8762SOL     OW29562   2.261   5.078   4.767  0.2177  0.0612 -0.9263
 8762SOL    HW129563   2.298   5.120   4.844 -0.4562 -1.4612  0.2585
 8762SOL    HW229564   2.333   5.076   4.703  1.9740 -1.9865  0.9646
 8763SOL     OW29565   7.367   0.243   3.896 -0.0237  0.8531  0.3867
 8763SOL    HW129566   7.402   0.157   3.916 -1.6760 -0.5907 -2.2607
 8763SOL    HW229567   7.275   0.239   3.923 -0.3096  1.5011 -0.4371
 8764SOL     OW29568   7.827   1.116   3.105  0.1289  0.2411  0.1476
 8764SOL    HW129569   7.766   1.106   3.032  0.2426 -0.5083  0.1461
 8764SOL    HW229570   7.790   1.186   3.159  0.1221  0.9151 -0.6998
 8765SOL     OW29571   8.712   3.028   9.670 -0.5786 -0.0085  0.6880
 8765SOL    HW129572   8.724   3.101   9.609  1.0489 -0.4001  0.4936
 8765SOL    HW229573   8.646   3.058   9.732 -1.1682  0.9689 -0.3923
 8766SOL     OW29574   7.274   1.547   8.740  0.3355  0.2215 -0.2290
 8766SOL    HW129575   7.287   1.454   8.758 -0.3751 -0.2580 -1.9818
 8766SOL    HW229576   7.233   1.581   8.820 -0.9274 -1.3343 -0.1656
 8767SOL     OW29577   5.169  10.941   6.182 -0.1274 -0.1691  0.3647
 8767SOL    HW129578   5.128  10.934   6.268 -1.6609  0.6401 -0.2653
 8767SOL    HW229579   5.164  11.034   6.160 -0.4699 -0.4647 -0.9213
 8768SOL     OW29580   3.681   1.896   3.380 -0.4583 -0.1153  0.2479
 8768SOL    HW129581   3.593   1.886   3.415 -0.2380  1.1730  1.2405
 8768SOL    HW229582   3.733   1.829   3.424 -0.8549 -0.6588 -0.0943
 8769SOL     OW29583   1.321  11.267   6.753  0.2066 -0.1098 -0.2977
 8769SOL    HW129584   1.299  11.265   6.660 -0.0248 -1.4079 -0.2385
 8769SOL    HW229585   1.416  11.260   6.756  0.2361  0.2105 -0.4354
 8770SOL     OW29586   9.547   5.228   4.996 -0.2885  0.1366  0.1180
 8770SOL    HW129587   9.498   5.165   5.049  1.6818 -1.1129  0.5511
 8770SOL    HW229588   9.595   5.281   5.059 -2.6021  2.8230 -0.1778
 8771SOL     OW29589   1.232   9.703   3.840  0.2438 -0.2987 -0.1299
 8771SOL    HW129590   1.318   9.663   3.828  0.7512  0.4728  0.8230
 8771SOL    HW229591   1.245   9.767   3.909 -0.8676  0.5507 -0.6833
 8772SOL     OW29592   6.581   6.826   6.215 -0.5621 -0.1815  0.2064
 8772SOL    HW129593   6.634   6.833   6.135  0.1387 -1.9225  0.4670
 8772SOL    HW229594   6.517   6.896   6.208 -1.5866 -1.2724 -2.6970
 8773SOL     OW29595   0.641   3.734   6.813  0.0231 -0.0330 -0.2238
 8773SOL    HW129596   0.559   3.749   6.858  0.1074  0.7621 -0.3245
 8773SOL    HW229597   0.616   3.718   6.722 -0.2758 -3.1434  0.2927
 8774SOL     OW29598  10.173   3.214   8.143  0.3131  0.1572  0.0047
 8774SOL    HW129599  10.165   3.268   8.064  3.8686 -0.2346 -0.8340
 8774SOL    HW229600  10.190   3.126   8.109 -2.0824 -0.8977  1.3362
 8775SOL     OW29601  11.036  10.529   6.956 -0.6538  0.0937 -0.2770
 8775SOL    HW129602  11.078  10.496   7.036 -1.7861  1.5030  0.9845
 8775SOL    HW229603  11.022  10.622   6.974  0.7821  0.9057 -2.9435
 8776SOL     OW29604  11.204  10.553   4.411 -0.6797  0.2052 -0.7842
 8776SOL    HW129605  11.119  10.591   4.431 -1.8212 -1.6791 -1.7237
 8776SOL    HW229606  11.194  10.460   4.433  1.0291 -0.1057 -1.2132
 8777SOL     OW29607   3.612   0.907   4.249 -0.0010 -0.6899 -0.3308
 8777SOL    HW129608   3.555   0.850   4.198 -1.4717  0.0695  0.4016
 8777SOL    HW229609   3.560   0.931   4.326  1.6915 -0.8087  0.9136
 8778SOL     OW29610   0.118   5.805  10.702  0.5429 -0.6680 -0.0954
 8778SOL    HW129611   0.105   5.899  10.690  1.1611 -0.6040 -0.2922
 8778SOL    HW229612   0.052   5.780  10.766  0.5179 -0.0591  0.1245
 8779SOL     OW29613   6.840   7.984   2.130  0.0483 -0.5197  0.2263
 8779SOL    HW129614   6.767   8.031   2.089  0.7095  1.0858  0.7863
 8779SOL    HW229615   6.880   7.936   2.058 -0.1481  0.4911 -0.5930
 8780SOL     OW29616   5.080  11.245   4.388 -0.2259 -0.6064  0.0932
 8780SOL    HW129617   5.135  11.230   4.465  0.4709 -0.6052 -0.3973
 8780SOL    HW229618   5.007  11.184   4.400 -1.0593  0.6114  1.6196
 8781SOL     OW29619   0.536   9.124   7.835 -0.1974 -0.1031 -0.0916
 8781SOL    HW129620   0.575   9.132   7.748 -1.5772 -0.9062 -0.8148
 8781SOL    HW229621   0.472   9.195   7.839  0.6822  0.6767  0.7560
 8782SOL     OW29622   3.547   4.189   1.965 -0.1138  0.3001  0.4698
 8782SOL    HW129623   3.573   4.158   1.878  0.4929  1.3154  0.2784
 8782SOL    HW229624   3.598   4.268   1.979 -0.3299  0.2410  1.6931
 8783SOL     OW29625   8.668   8.621   2.231  0.3372  0.4018 -0.1116
 8783SOL    HW129626   8.720   8.546   2.259 -1.2255 -0.1210  1.5339
 8783SOL    HW229627   8.693   8.691   2.291  0.4637  0.6847 -0.4901
 8784SOL     OW29628   3.234   6.846   2.556  0.4802 -0.2678  0.1425
 8784SOL    HW129629   3.198   6.770   2.512  1.4416 -0.5186 -0.2363
 8784SOL    HW229630   3.306   6.811   2.610  0.0806  0.1925  1.0011
 8785SOL     OW29631   7.471   7.475   0.674 -0.0858 -0.0772  0.1372
 8785SOL    HW129632   7.480   7.542   0.741  1.8667 -0.0705 -0.0837
 8785SOL    HW229633   7.396   7.503   0.621  0.0297  1.3348  0.6961
 8786SOL     OW29634  11.144   2.619   1.457  0.1717 -0.3846  0.2220
 8786SOL    HW129635  11.215   2.594   1.398  0.4765  0.5148  0.1809
 8786SOL    HW229636  11.065   2.617   1.404  0.3193 -0.4304  0.0048
 8787SOL     OW29637   6.798   3.575   0.686  0.1255  0.4164  0.1741
 8787SOL    HW129638   6.806   3.625   0.605 -0.5960 -0.8511 -0.7117
 8787SOL    HW229639   6.713   3.531   0.680 -0.4380  1.0983  2.1137
 8788SOL     OW29640  10.927   7.152   5.921  0.2326 -0.6458  0.3252
 8788SOL    HW129641  10.958   7.114   6.003  0.2034 -2.2793 -0.3818
 8788SOL    HW229642  10.966   7.240   5.919  0.3262 -0.6071  2.0002
 8789SOL     OW29643   9.302   7.589  10.022  0.1129 -0.0836 -0.1181
 8789SOL    HW129644   9.381   7.626   9.983 -0.9897  1.5360 -0.9247
 8789SOL    HW229645   9.258   7.545   9.950 -1.0726  1.4326 -0.3798
 8790SOL     OW29646   2.574   6.679   0.352 -0.2127 -0.6187  0.0130
 8790SOL    HW129647   2.623   6.702   0.273 -0.7816  0.0550 -0.1483
 8790SOL    HW229648   2.631   6.708   0.424 -0.2100 -0.1748 -0.1664
 8791SOL     OW29649   9.482   3.715   4.914 -0.0107 -0.1871  0.1243
 8791SOL    HW129650   9.493   3.798   4.868  0.3149  0.5544  1.4684
 8791SOL    HW229651   9.567   3.672   4.909 -0.2130 -0.5089 -0.6751
 8792SOL     OW29652   9.534   3.035   0.806 -0.1941 -1.0570 -0.2543
 8792SOL    HW129653   9.590   3.056   0.732  0.4554 -1.3474  0.1452
 8792SOL    HW229654   9.586   3.058   0.883 -0.4643 -1.7044  0.1344
 8793SOL     OW29655  11.389   8.134   8.737  0.1018 -0.0496  0.5514
 8793SOL    HW129656  11.426   8.099   8.656 -0.5208  0.0817  0.2015
 8793SOL    HW229657  11.321   8.195   8.708 -1.4424 -1.3893  1.1597
 8794SOL     OW29658   2.098   3.538   9.898 -0.2519 -0.3328 -0.0645
 8794SOL    HW129659   2.165   3.585   9.947 -0.3649  0.6292 -0.7894
 8794SOL    HW229660   2.062   3.475   9.960 -1.9303  2.2924  1.8887
 8795SOL     OW29661   1.476   5.292   6.931  0.4137  0.1944 -0.1729
 8795SOL    HW129662   1.384   5.302   6.909  0.4126 -2.4532 -1.7660
 8795SOL    HW229663   1.501   5.377   6.967 -2.4078  1.2580 -0.4651
 8796SOL     OW29664   8.863  10.925   2.209  0.0090 -0.4384 -0.1760
 8796SOL    HW129665   8.867  10.991   2.140 -1.3197  0.7145  0.7838
 8796SOL    HW229666   8.789  10.952   2.263 -1.1070 -3.1805 -0.1864
 8797SOL     OW29667  11.330  11.259  10.661 -0.1830  0.3020 -0.2536
 8797SOL    HW129668  11.263  11.197  10.634 -1.5263  0.1585  3.0307
 8797SOL    HW229669  11.393  11.207  10.712  1.4345  0.8033 -1.6308
 8798SOL     OW29670   3.614   4.762   4.670  0.3793 -0.1472 -0.3719
 8798SOL    HW129671   3.653   4.744   4.755 -2.2048 -1.1653  0.7120
 8798SOL    HW229672   3.610   4.676   4.628 -3.8600 -0.9485  1.1275
 8799SOL     OW29673   5.997   5.512   2.644 -0.3392 -0.2127 -0.0153
 8799SOL    HW129674   5.948   5.561   2.711  0.5640  0.5509  0.1047
 8799SOL    HW229675   5.929   5.477   2.586 -1.0016  1.5048 -0.3255
 8800SOL     OW29676   6.069   2.187   1.314  0.1831  0.3470 -0.4694
 8800SOL    HW129677   5.992   2.211   1.264 -0.1511  1.3090  0.4726
 8800SOL    HW229678   6.109   2.115   1.265 -1.6494 -0.6118 -0.6334
 8801SOL     OW29679   2.654   8.182   6.826  0.4397 -0.2756  0.4951
 8801SOL    HW129680   2.625   8.117   6.762 -0.8392  1.0466 -0.3348
 8801SOL    HW229681   2.676   8.131   6.904 -0.3311 -1.7236 -0.1938
 8802SOL     OW29682  10.132   6.370   5.530  0.1164  0.1677 -0.2451
 8802SOL    HW129683  10.123   6.281   5.566  2.0537  0.5591  1.4092
 8802SOL    HW229684  10.225   6.378   5.509  0.0051  1.8571 -0.2059
 8803SOL     OW29685   7.514   5.179   9.601 -0.0384 -0.1848  0.5422
 8803SOL    HW129686   7.526   5.274   9.594  0.3990 -0.1863  1.1640
 8803SOL    HW229687   7.429   5.170   9.646 -0.4437 -0.1067 -0.1953
 8804SOL     OW29688   4.246   3.624   8.959 -0.3072  0.0971 -0.7141
 8804SOL    HW129689   4.223   3.609   8.868 -1.9737  0.7641 -0.4301
 8804SOL    HW229690   4.313   3.693   8.956  0.8693 -1.0218 -1.4877
 8805SOL     OW29691   7.156   1.343   4.067 -0.3974 -0.6283 -0.2589
 8805SOL    HW129692   7.172   1.331   4.160  0.3944 -1.7061 -0.5129
 8805SOL    HW229693   7.217   1.283   4.024 -1.4810 -0.9265 -1.4457
 8806SOL     OW29694   2.755   1.838   4.556 -0.2596  0.0064 -0.1481
 8806SOL    HW129695   2.820   1.899   4.592 -1.4690  0.0036  2.2232
 8806SOL    HW229696   2.748   1.862   4.464  1.7472  1.2139 -0.0438
 8807SOL     OW29697  11.299  10.998   1.503  0.3007 -0.0874 -0.2030
 8807SOL    HW129698  11.346  10.931   1.453 -0.3002 -0.8263  0.2008
 8807SOL    HW229699  11.208  10.989   1.477  0.4122  1.7773 -1.4744
 8808SOL     OW29700   8.797   5.717   2.728  0.0408 -1.0284 -0.1397
 8808SOL    HW129701   8.780   5.734   2.821  1.4824  0.1365 -0.0583
 8808SOL    HW229702   8.749   5.637   2.710 -0.1868 -1.3425  1.6404
 8809SOL     OW29703   0.814   5.401   3.467 -0.2170  0.2578 -1.0134
 8809SOL    HW129704   0.874   5.356   3.408 -0.0864  0.0405 -0.7193
 8809SOL    HW229705   0.799   5.486   3.427 -1.2203 -0.3928 -2.0841
 8810SOL     OW29706  10.943   4.956   8.675 -1.0349  0.5201 -0.5518
 8810SOL    HW129707  10.860   4.908   8.679  0.3821 -2.0286  0.6930
 8810SOL    HW229708  10.972   4.946   8.585 -1.6048  0.5538 -0.7423
 8811SOL     OW29709   1.407   1.899   5.861  0.1791  0.2357  0.0433
 8811SOL    HW129710   1.327   1.946   5.886  0.0010  0.6184 -1.1662
 8811SOL    HW229711   1.474   1.933   5.921 -0.0519  1.7307 -0.4889
 8812SOL     OW29712   4.486   8.992   9.073 -0.1639 -0.1047  0.0155
 8812SOL    HW129713   4.542   8.991   9.151  1.0186 -0.7649 -0.7963
 8812SOL    HW229714   4.495   8.904   9.037  0.4494  0.5829 -1.6129
 8813SOL     OW29715   9.027   5.889   9.630 -0.1803  0.0926  0.2421
 8813SOL    HW129716   9.003   5.969   9.584 -0.1705 -1.0926 -1.9810
 8813SOL    HW229717   9.013   5.819   9.565  2.4674 -1.4246  1.1673
 8814SOL     OW29718   4.463   9.657  10.620 -0.0666 -0.0573  0.0493
 8814SOL    HW129719   4.385   9.712  10.613  0.8565  1.0275 -2.4871
 8814SOL    HW229720   4.522   9.706  10.677  0.1687  0.9130 -0.9992
 8815SOL     OW29721  10.678   3.495   0.687  0.6521 -0.2279 -0.6440
 8815SOL    HW129722  10.668   3.401   0.673  0.6743 -0.2115 -0.7806
 8815SOL    HW229723  10.770   3.513   0.666  0.8817 -0.3185  0.2499
 8816SOL     OW29724   6.433   7.736   8.375 -0.2667  0.1435  0.0784
 8816SOL    HW129725   6.443   7.758   8.283 -1.6119  1.5665  0.2415
 8816SOL    HW229726   6.489   7.659   8.387  0.4496  0.3257 -1.7530
 8817SOL     OW29727   0.941   3.400   2.277  0.1280 -0.3899 -0.4952
 8817SOL    HW129728   0.995   3.323   2.290 -1.1251 -1.2359 -0.1437
 8817SOL    HW229729   1.003   3.469   2.252  1.8777 -0.3580  3.3044
 8818SOL     OW29730   9.164   5.439  11.274 -0.1705  0.4961 -0.1059
 8818SOL    HW129731   9.147   5.485  11.192 -0.4424 -0.1226 -0.3979
 8818SOL    HW229732   9.095   5.373  11.280  0.7702 -0.5190 -0.1617
 8819SOL     OW29733   0.030   9.842   0.523 -0.2411 -0.2213 -0.2428
 8819SOL    HW129734  -0.027   9.899   0.471 -0.0948 -0.3086 -0.4981
 8819SOL    HW229735   0.108   9.895   0.540 -1.0827  0.5311  1.5674
 8820SOL     OW29736  10.710   5.098   0.968  0.4974  0.3758 -0.2254
 8820SOL    HW129737  10.670   5.080   1.053 -0.6486 -1.1208 -1.0269
 8820SOL    HW229738  10.660   5.171   0.933 -0.3861 -0.3215 -0.4508
 8821SOL     OW29739   0.551   7.999   2.892  0.0442  0.2540 -0.2669
 8821SOL    HW129740   0.501   8.014   2.812  0.6458  1.6968 -0.4018
 8821SOL    HW229741   0.516   8.062   2.955  2.4142  2.1794 -0.7268
 8822SOL     OW29742   9.315   5.184   9.578 -0.0266  0.3399 -0.0456
 8822SOL    HW129743   9.390   5.205   9.632  0.7737  1.4549 -1.5192
 8822SOL    HW229744   9.255   5.258   9.589 -0.1636  0.2488 -0.1626
 8823SOL     OW29745   1.161   1.701   4.589 -0.1124 -0.7819 -0.0585
 8823SOL    HW129746   1.139   1.676   4.678 -1.3985 -3.3358 -0.9711
 8823SOL    HW229747   1.183   1.618   4.546  1.4724  0.4953 -1.8765
 8824SOL     OW29748   1.017   4.772   2.727 -0.5136  0.1629  0.2056
 8824SOL    HW129749   1.025   4.866   2.743 -1.0916 -0.2122  3.0885
 8824SOL    HW229750   1.007   4.766   2.632 -3.4207  3.2709  0.0888
 8825SOL     OW29751   2.380   5.344   5.817  0.2894  0.1862 -0.2234
 8825SOL    HW129752   2.368   5.249   5.828  0.7156  0.1236 -0.2600
 8825SOL    HW229753   2.467   5.361   5.853  0.0609  0.6276  0.1201
 8826SOL     OW29754   0.044   1.751   5.369 -0.3723 -0.1801  0.1100
 8826SOL    HW129755   0.004   1.827   5.412  0.0971  0.8856 -1.2927
 8826SOL    HW229756   0.019   1.759   5.277  1.5240 -0.5078 -0.4636
 8827SOL     OW29757  10.873   3.172   3.974 -0.5643 -0.5225  0.2215
 8827SOL    HW129758  10.962   3.203   3.991 -0.2932 -0.9167 -0.4228
 8827SOL    HW229759  10.874   3.147   3.882 -1.2503 -0.8422  0.2959
 8828SOL     OW29760   3.022   1.640   6.044  0.6499 -0.0196 -0.0708
 8828SOL    HW129761   2.993   1.731   6.055  2.8140  0.5206  2.1676
 8828SOL    HW229762   3.059   1.637   5.956 -0.9874  0.7771 -0.8099
 8829SOL     OW29763  11.249  11.149   5.101  0.2091  0.2455  0.3517
 8829SOL    HW129764  11.210  11.145   5.014 -1.3769  0.5922  1.0088
 8829SOL    HW229765  11.222  11.068   5.144 -1.0866  1.1612  1.3207
 8830SOL     OW29766  10.190  10.579   8.271 -0.2263  0.3439  0.1683
 8830SOL    HW129767  10.259  10.551   8.332  2.1302 -1.2838 -2.9502
 8830SOL    HW229768  10.183  10.507   8.208 -0.2029  3.1085 -3.2814
 8831SOL     OW29769   0.437   2.641   7.712  0.0553 -0.0779  0.1069
 8831SOL    HW129770   0.373   2.667   7.778 -0.9658 -1.3949 -0.3449
 8831SOL    HW229771   0.512   2.699   7.729 -1.0590  1.1983  0.9142
 8832SOL     OW29772   5.210   3.467   9.326 -0.5798  0.2133 -0.0701
 8832SOL    HW129773   5.122   3.429   9.321 -0.5467 -0.2217  1.8521
 8832SOL    HW229774   5.218   3.496   9.416  0.3134  2.6650 -0.8557
 8833SOL     OW29775   8.582   6.832   5.297  0.7285 -0.0598  0.3896
 8833SOL    HW129776   8.593   6.879   5.215 -1.1980  1.1651  0.7930
 8833SOL    HW229777   8.671   6.804   5.320  1.5602  1.1886 -1.1368
 8834SOL     OW29778   6.964   3.810   8.385  0.3829 -0.1140 -0.0204
 8834SOL    HW129779   7.025   3.737   8.382 -0.7192 -1.0470 -1.1202
 8834SOL    HW229780   6.923   3.804   8.472  1.7269  0.4669  0.6879
 8835SOL     OW29781   8.625   6.459   3.998  0.4760  0.0060  0.2530
 8835SOL    HW129782   8.656   6.370   4.016  1.4776 -0.0064 -1.2720
 8835SOL    HW229783   8.665   6.513   4.066 -0.1943 -0.7135  1.2271
 8836SOL     OW29784   6.322   1.813  10.817 -0.2194  0.4402  0.1419
 8836SOL    HW129785   6.233   1.801  10.848 -2.0921  0.9621 -4.3130
 8836SOL    HW229786   6.337   1.907  10.819 -0.7442  0.5796 -1.2192
 8837SOL     OW29787   7.767  10.124  10.927  0.0777 -0.0860  0.3596
 8837SOL    HW129788   7.703  10.194  10.941 -1.1698 -1.1887  0.4650
 8837SOL    HW229789   7.778  10.084  11.013  0.9883  0.1381  0.3571
 8838SOL     OW29790   4.454   4.261   2.747 -0.3749 -0.3717  0.1827
 8838SOL    HW129791   4.388   4.192   2.743 -1.6270  0.8035 -0.3760
 8838SOL    HW229792   4.537   4.215   2.752 -1.2459 -1.9062  1.2721
 8839SOL     OW29793  11.100   3.111   7.456  0.3816 -0.1633 -0.1961
 8839SOL    HW129794  11.138   3.135   7.372 -0.6724  0.5472 -0.4821
 8839SOL    HW229795  11.154   3.037   7.486  0.5869 -0.6255 -1.6223
 8840SOL     OW29796   8.447   6.733   5.599 -0.0786 -0.5389  0.1865
 8840SOL    HW129797   8.431   6.652   5.550 -2.1464  0.6094 -1.1920
 8840SOL    HW229798   8.487   6.792   5.536  0.3927 -0.1168  0.8647
 8841SOL     OW29799   5.121   7.073   7.720  0.0993 -0.1098  1.0617
 8841SOL    HW129800   5.190   7.052   7.657 -2.5420 -4.1616 -0.8687
 8841SOL    HW229801   5.108   7.167   7.711  2.0709  0.0037 -2.0196
 8842SOL     OW29802   8.200  11.209   1.342 -0.6997 -0.3834 -0.3787
 8842SOL    HW129803   8.271  11.158   1.382 -0.5800 -1.1302 -1.5147
 8842SOL    HW229804   8.153  11.247   1.417 -0.3632 -1.5664  0.4574
 8843SOL     OW29805   2.426   4.203   8.892 -0.0754  0.1345 -0.4480
 8843SOL    HW129806   2.519   4.223   8.902  0.3328 -1.2079 -1.2785
 8843SOL    HW229807   2.391   4.279   8.845  0.5532  0.7379  0.0289
 8844SOL     OW29808   8.144   7.838   0.326 -0.1580 -0.1611 -0.2402
 8844SOL    HW129809   8.055   7.839   0.291  0.1581 -1.6065 -1.1885
 8844SOL    HW229810   8.146   7.763   0.385  0.0212  0.7810  0.9781
 8845SOL     OW29811   4.763   9.449   2.738 -0.1619 -0.3205 -0.7842
 8845SOL    HW129812   4.776   9.355   2.752 -0.8805 -0.3393 -0.2069
 8845SOL    HW229813   4.837   9.490   2.784 -0.4024 -0.5588 -0.1828
 8846SOL     OW29814   9.619   4.813   8.176  0.3908  0.1800 -0.1726
 8846SOL    HW129815   9.591   4.768   8.096 -0.8442 -0.4190  0.5668
 8846SOL    HW229816   9.613   4.906   8.154  0.5079  0.0197 -0.9179
 8847SOL     OW29817   3.061   4.702   8.973 -0.0832  0.8603  0.6571
 8847SOL    HW129818   3.056   4.654   8.890 -2.0041  1.5787  0.3108
 8847SOL    HW229819   3.126   4.653   9.025 -0.2275 -0.6983 -0.5552
 8848SOL     OW29820  11.020   1.674   8.179  0.1219  0.5486 -0.3865
 8848SOL    HW129821  11.093   1.713   8.131  0.4284 -0.2531 -0.5836
 8848SOL    HW229822  11.061   1.616   8.243 -0.2831  1.6536  0.9013
 8849SOL     OW29823   3.092  10.130   7.220  0.0050 -0.0652  0.4447
 8849SOL    HW129824   3.124  10.106   7.133 -0.0888 -0.5558  0.5473
 8849SOL    HW229825   3.146  10.080   7.281 -1.7367 -1.9184  0.6019
 8850SOL     OW29826   1.241   7.322   3.616  0.3718  0.4066 -0.6855
 8850SOL    HW129827   1.331   7.318   3.583  0.9004  0.2338  0.7143
 8850SOL    HW229828   1.227   7.415   3.635  0.3918  0.3884 -0.5771
 8851SOL     OW29829   4.872   0.407   2.671 -0.1753 -0.4509  0.6361
 8851SOL    HW129830   4.866   0.325   2.622  0.4300 -0.3450  0.3587
 8851SOL    HW229831   4.790   0.453   2.652 -0.4431 -0.9157  0.6581
 8852SOL     OW29832   2.427   5.137   6.112 -0.3837  0.0315 -0.1884
 8852SOL    HW129833   2.521   5.139   6.131 -0.5966  0.7298  0.9018
 8852SOL    HW229834   2.398   5.052   6.143 -0.1013 -0.2268 -0.6192
 8853SOL     OW29835   0.140   0.187   5.125 -0.1561  0.7705 -0.2142
 8853SOL    HW129836   0.137   0.273   5.084  0.1441 -0.1209 -2.2504
 8853SOL    HW229837   0.057   0.145   5.100 -0.3769  0.5233  0.8979
 8854SOL     OW29838   7.518  10.554   7.890  0.1263  0.4718 -0.3585
 8854SOL    HW129839   7.609  10.576   7.910  0.7730  0.2137 -2.6357
 8854SOL    HW229840   7.524  10.502   7.809 -2.0514  0.5009 -0.5943
 8855SOL     OW29841   4.995   9.637   4.502 -0.3450 -0.3263 -0.1402
 8855SOL    HW129842   4.946   9.706   4.547  0.6814 -0.5434  1.4073
 8855SOL    HW229843   4.940   9.612   4.428 -0.1845  3.0882 -1.5952
 8856SOL     OW29844   5.511   2.966   0.420  0.4239 -0.6837  0.0502
 8856SOL    HW129845   5.467   3.032   0.473  1.5282  1.1218 -1.1570
 8856SOL    HW229846   5.599   2.958   0.458  1.6610  1.5316 -2.0620
 8857SOL     OW29847  10.326   1.073   6.004 -0.3583  0.1481  0.2333
 8857SOL    HW129848  10.404   1.021   6.024  0.4843  1.2779 -0.0091
 8857SOL    HW229849  10.281   1.022   5.936  0.9865  0.2166 -0.7484
 8858SOL     OW29850   6.319   3.663  10.738 -0.1387 -0.0321  0.4426
 8858SOL    HW129851   6.403   3.709  10.739 -0.8465  1.4615 -1.8066
 8858SOL    HW229852   6.283   3.680  10.651 -2.5532 -1.0769  1.1532
 8859SOL     OW29853   5.463   9.265   8.610  0.1256 -0.1945  0.2826
 8859SOL    HW129854   5.469   9.360   8.612 -1.1300 -0.1136  0.6643
 8859SOL    HW229855   5.397   9.246   8.543 -1.0283 -0.7052  1.5282
 8860SOL     OW29856  11.059   7.515   4.209  0.4449 -0.0164  0.2529
 8860SOL    HW129857  11.152   7.537   4.221  1.3679 -2.3731 -1.7071
 8860SOL    HW229858  11.049   7.429   4.250 -0.4465 -0.5095 -0.9387
 8861SOL     OW29859   9.778   9.660   2.641  0.0718  0.4127  0.4285
 8861SOL    HW129860   9.726   9.665   2.561  1.5816  0.4306 -0.5903
 8861SOL    HW229861   9.757   9.741   2.688  1.0023  1.6228 -1.1409
 8862SOL     OW29862   3.674   0.490   0.131  0.5028 -0.1976 -0.6623
 8862SOL    HW129863   3.690   0.534   0.214  1.6425 -0.7499 -0.5684
 8862SOL    HW229864   3.655   0.399   0.155 -2.1246  0.2280 -0.8323
 8863SOL     OW29865   0.734   1.914  10.283 -0.0152  0.0155 -0.2945
 8863SOL    HW129866   0.738   1.922  10.188 -0.5234 -2.1651 -0.5680
 8863SOL    HW229867   0.714   1.821  10.298 -0.7583  0.4653  1.9132
 8864SOL     OW29868   0.801   7.306   1.310  0.0823  0.1584 -0.2906
 8864SOL    HW129869   0.787   7.263   1.395 -0.2767  1.4785  0.3485
 8864SOL    HW229870   0.715   7.308   1.269  0.3391 -0.9062 -0.9233
 8865SOL     OW29871   3.364   5.838   4.878 -0.2232  0.2386  0.2883
 8865SOL    HW129872   3.442   5.847   4.823  0.7696  0.4254  1.6701
 8865SOL    HW229873   3.294   5.819   4.816  0.5141  2.0686 -1.2080
 8866SOL     OW29874   9.954   2.903  10.619  0.0662  0.1177 -0.4480
 8866SOL    HW129875   9.917   2.988  10.598  0.9344  0.8531  0.8637
 8866SOL    HW229876   9.878   2.845  10.628 -0.8461  1.5324  2.0126
 8867SOL     OW29877   0.069   0.617   9.869  0.4660 -0.1097  0.1392
 8867SOL    HW129878  -0.003   0.635   9.930  0.7057  0.8981  0.1480
 8867SOL    HW229879   0.131   0.689   9.884  0.5892  0.0799 -1.1843
 8868SOL     OW29880   8.155   5.136   3.678 -0.7891 -0.0236  0.1931
 8868SOL    HW129881   8.188   5.046   3.690 -1.0824 -0.0575  0.7783
 8868SOL    HW229882   8.233   5.188   3.659 -0.1478  0.1569  2.9494
 8869SOL     OW29883   3.372   4.286   9.960 -0.4009  0.3243  0.0286
 8869SOL    HW129884   3.373   4.201  10.004  0.6173 -0.5955 -1.6580
 8869SOL    HW229885   3.442   4.335  10.003  0.4768 -0.5041 -0.3960
 8870SOL     OW29886   9.368   4.403   5.634 -0.5722  0.0508  0.4122
 8870SOL    HW129887   9.387   4.418   5.542  0.6427  1.5892  0.8732
 8870SOL    HW229888   9.300   4.467   5.656 -2.5557 -1.8176  0.0965
 8871SOL     OW29889   4.768   9.162   7.833 -0.1740  0.1999 -0.5145
 8871SOL    HW129890   4.726   9.241   7.866 -1.4339  0.3758 -2.3926
 8871SOL    HW229891   4.795   9.184   7.744  0.9816 -0.9718 -0.4886
 8872SOL     OW29892   1.865   3.477   4.582  0.0996 -0.4341  0.1148
 8872SOL    HW129893   1.897   3.387   4.576 -0.3647 -0.6374  0.6436
 8872SOL    HW229894   1.782   3.470   4.629 -0.0080  0.2561  0.0327
 8873SOL     OW29895   1.250   6.166   0.357  0.0242  0.0152  0.1158
 8873SOL    HW129896   1.191   6.122   0.295 -0.7916 -1.1471  1.6403
 8873SOL    HW229897   1.338   6.137   0.332 -0.3537 -0.9566 -0.1134
 8874SOL     OW29898   4.238   7.482   8.264  0.3579 -0.1113 -0.2437
 8874SOL    HW129899   4.249   7.390   8.241  1.1291 -0.5149  1.5354
 8874SOL    HW229900   4.320   7.507   8.306 -0.4728  0.8697  0.8995
 8875SOL     OW29901   5.211   4.550  10.116  0.0457  0.0060  0.8404
 8875SOL    HW129902   5.252   4.560  10.202  2.5422 -0.4380 -0.2107
 8875SOL    HW229903   5.285   4.538  10.056 -1.6553 -0.3911 -1.2737
 8876SOL     OW29904  10.517   8.645   2.840  0.2515  0.0964  0.3352
 8876SOL    HW129905  10.482   8.656   2.751 -1.1880 -0.5827  0.7831
 8876SOL    HW229906  10.487   8.558   2.866  0.0342  0.5759  1.7596
 8877SOL     OW29907   4.876   5.945   4.203 -0.0803  0.2508 -0.8453
 8877SOL    HW129908   4.789   5.927   4.241 -0.4720  1.6520 -1.0203
 8877SOL    HW229909   4.916   5.859   4.194 -2.0010 -0.5942 -2.0737
 8878SOL     OW29910   1.150  11.302   0.881  0.4539  0.0322 -0.5217
 8878SOL    HW129911   1.203  11.261   0.813  1.3785 -0.5833  0.5452
 8878SOL    HW229912   1.200  11.380   0.906  0.1514  0.2175 -0.4871
 8879SOL     OW29913   1.406   2.502   9.351  0.1753 -0.2853  0.1534
 8879SOL    HW129914   1.389   2.408   9.347  0.4915 -0.3132 -0.7981
 8879SOL    HW229915   1.372   2.529   9.437 -1.8727 -0.8687 -0.4130
 8880SOL     OW29916   3.110   3.702   1.607 -0.5379  0.2711 -0.2482
 8880SOL    HW129917   3.073   3.784   1.638  1.5589  0.6529  1.4455
 8880SOL    HW229918   3.085   3.637   1.672  0.9951  0.3810  0.4996
 8881SOL     OW29919   2.573   7.085   6.649  0.1576 -0.1649  0.1288
 8881SOL    HW129920   2.550   7.103   6.740 -0.6549  0.2852 -0.1610
 8881SOL    HW229921   2.535   6.999   6.632 -0.8636  0.3274 -0.1746
 8882SOL     OW29922   6.467   6.981  11.087 -0.3487  0.3077  0.1062
 8882SOL    HW129923   6.506   6.937  11.162 -1.1611  0.2347  0.5037
 8882SOL    HW229924   6.383   6.936  11.075  0.6943 -1.2033 -2.2665
 8883SOL     OW29925   9.318   1.585   4.742 -0.5517  0.1368  0.4287
 8883SOL    HW129926   9.264   1.643   4.688  0.1301  1.3444  0.9978
 8883SOL    HW229927   9.339   1.511   4.685 -1.5671  0.3710 -0.2733
 8884SOL     OW29928   4.291   2.701   1.241 -0.4306  0.1980  0.1118
 8884SOL    HW129929   4.343   2.773   1.278 -1.3406  1.0191 -0.1500
 8884SOL    HW229930   4.279   2.726   1.149  1.4797 -1.6231 -0.7275
 8885SOL     OW29931   4.523   8.185   5.299 -0.0412  0.0649 -0.1238
 8885SOL    HW129932   4.567   8.258   5.344  0.8366 -1.1498  1.0726
 8885SOL    HW229933   4.441   8.174   5.346  1.2641 -1.7871  1.9312
 8886SOL     OW29934  11.057   4.706   6.995 -0.5160  0.7985 -0.1647
 8886SOL    HW129935  11.085   4.792   6.963 -0.5666  0.6105 -0.7256
 8886SOL    HW229936  10.993   4.726   7.062 -0.7119  1.2020 -0.4635
 8887SOL     OW29937  10.633   6.763   3.127 -0.3034 -0.0151 -0.0658
 8887SOL    HW129938  10.648   6.752   3.221  0.5831 -1.8120 -0.3768
 8887SOL    HW229939  10.697   6.830   3.100  0.4163 -0.5148  0.3706
 8888SOL     OW29940   9.647   2.870   3.324 -0.3065  0.6020 -0.1441
 8888SOL    HW129941   9.710   2.933   3.289  0.8111 -0.1910  0.3723
 8888SOL    HW229942   9.701   2.802   3.364 -1.4418 -1.0940 -1.3613
 8889SOL     OW29943  11.345   5.792   1.397 -0.0739  0.5551  0.0848
 8889SOL    HW129944  11.256   5.826   1.392 -0.3417 -0.0660  0.5235
 8889SOL    HW229945  11.389   5.849   1.461 -0.0344  1.1013 -0.4158
 8890SOL     OW29946  10.664   4.082   0.021  0.3635 -0.2446 -0.0015
 8890SOL    HW129947  10.664   4.158  -0.037  1.2525 -0.3854 -0.1961
 8890SOL    HW229948  10.751   4.081   0.059  0.3890 -1.2110 -0.0635
 8891SOL     OW29949   5.234   4.172   0.270  0.1458  0.2658 -0.7154
 8891SOL    HW129950   5.224   4.119   0.191  1.3450  0.0957 -0.7792
 8891SOL    HW229951   5.277   4.252   0.239 -2.1106  1.5684 -0.7123
 8892SOL     OW29952   0.452   6.086  11.158 -0.9126  0.7973  0.1820
 8892SOL    HW129953   0.382   6.144  11.130 -2.2495  0.1558  1.9962
 8892SOL    HW229954   0.427   6.059  11.247  1.0805 -0.3225  0.4646
 8893SOL     OW29955   9.601   9.990   5.579 -0.0614  0.2500  0.4395
 8893SOL    HW129956   9.515   9.988   5.622 -1.0935 -1.6190 -1.4855
 8893SOL    HW229957   9.661   9.954   5.643 -0.5729  2.0028  1.9958
 8894SOL     OW29958   2.802   2.077   9.285 -0.4818  0.1915 -0.1688
 8894SOL    HW129959   2.767   2.018   9.218  0.7364 -0.5494 -0.1919
 8894SOL    HW229960   2.818   2.020   9.360  0.6421  0.5009 -0.1631
 8895SOL     OW29961  10.451  10.977   5.568 -0.8759  0.8097 -0.4046
 8895SOL    HW129962  10.507  10.900   5.573 -0.2073  1.1137 -2.3508
 8895SOL    HW229963  10.372  10.947   5.523 -0.4589  1.3153 -1.5008
 8896SOL     OW29964   0.761   5.538   8.488 -0.2017  0.0106  0.1056
 8896SOL    HW129965   0.729   5.524   8.577 -1.8581  0.7696 -0.3240
 8896SOL    HW229966   0.744   5.456   8.443  0.2277 -0.2271  0.3785
 8897SOL     OW29967   4.434  10.938   2.114  0.7273 -0.6755  0.1111
 8897SOL    HW129968   4.381  10.994   2.058  0.4713 -1.2992 -0.2830
 8897SOL    HW229969   4.524  10.965   2.097  0.6617 -0.9351 -0.6924
 8898SOL     OW29970   1.787   9.192  10.420  0.2466 -0.2240  0.5590
 8898SOL    HW129971   1.788   9.097  10.406 -0.2699 -0.1230 -0.2650
 8898SOL    HW229972   1.724   9.205  10.491 -0.1730 -0.4570  0.2351
 8899SOL     OW29973   5.305   0.912   1.161 -0.4167  0.5308 -0.6028
 8899SOL    HW129974   5.267   0.840   1.211 -0.7311  0.5241 -0.8443
 8899SOL    HW229975   5.367   0.954   1.221 -1.5408  1.1672  0.1507
 8900SOL     OW29976   9.654   2.451   6.083 -0.1955 -0.6150 -0.0567
 8900SOL    HW129977   9.591   2.391   6.041 -0.0195 -0.0807 -1.1119
 8900SOL    HW229978   9.662   2.524   6.021 -0.0628  0.2890  1.0057
 8901SOL     OW29979   2.949   0.910  10.494  0.4815  0.0378 -0.1490
 8901SOL    HW129980   3.037   0.945  10.481  0.3382  0.3578 -0.2637
 8901SOL    HW229981   2.919   0.885  10.407  0.4797 -0.1164 -0.1035
 8902SOL     OW29982   1.700   6.404   4.075 -0.3878  0.3260  0.8927
 8902SOL    HW129983   1.703   6.472   4.142 -0.7909  0.2877  0.9525
 8902SOL    HW229984   1.788   6.367   4.074  0.0552  1.3564  0.3213
 8903SOL     OW29985   1.259   5.767   8.821 -0.4704  0.3805  0.3775
 8903SOL    HW129986   1.240   5.793   8.731  3.6312 -1.1058 -1.1515
 8903SOL    HW229987   1.190   5.706   8.844 -2.1966  1.5703 -1.3090
 8904SOL     OW29988   6.284   2.452   5.785 -0.3504 -0.1863 -0.5471
 8904SOL    HW129989   6.376   2.479   5.795 -0.5841 -0.0532  1.6686
 8904SOL    HW229990   6.279   2.367   5.829 -1.3588 -0.0329 -0.3396
 8905SOL     OW29991   0.855   2.936   8.892  0.1325 -0.3831 -0.3093
 8905SOL    HW129992   0.915   2.881   8.843 -1.2074 -1.2607 -1.0113
 8905SOL    HW229993   0.803   2.875   8.944  0.0193  0.3797  0.4997
 8906SOL     OW29994   4.535  11.085   3.363 -0.5285 -0.1457 -0.2956
 8906SOL    HW129995   4.594  11.021   3.322 -1.1254 -0.5254 -0.5807
 8906SOL    HW229996   4.583  11.167   3.360 -0.7092 -0.0541 -2.1970
 8907SOL     OW29997   3.265   0.845   6.122 -0.1271 -0.4172 -0.4633
 8907SOL    HW129998   3.325   0.801   6.183 -0.2251 -0.2403 -0.2405
 8907SOL    HW229999   3.282   0.938   6.133 -0.4206 -0.3666 -0.4215
 8908SOL     OW30000   6.154   1.500   0.049 -0.2090  0.2498 -0.2093
 8908SOL    HW130001   6.116   1.478  -0.036 -0.1850 -0.1935 -0.1061
 8908SOL    HW230002   6.083   1.489   0.111 -0.0764  0.0099 -0.0977
 8909SOL     OW30003   9.402   1.129   7.569  0.5798  0.2912 -0.3008
 8909SOL    HW130004   9.370   1.119   7.480  1.1766 -0.8228 -0.4057
 8909SOL    HW230005   9.337   1.185   7.612 -0.1529  0.1469 -1.1929
 8910SOL     OW30006   7.573   4.305   3.072  0.1932 -0.1043  0.8164
 8910SOL    HW130007   7.625   4.341   3.000  0.2914 -1.2662  0.2692
 8910SOL    HW230008   7.612   4.342   3.151 -0.0509  1.3724  0.2801
 8911SOL     OW30009   6.929  10.836   6.300  0.5047 -0.1453  0.1416
 8911SOL    HW130010   6.898  10.767   6.242 -0.1848  1.0081 -0.9135
 8911SOL    HW230011   7.001  10.877   6.253  0.9362 -0.1471  0.7787
 8912SOL     OW30012   4.038   8.472   5.064  0.3721  0.1701 -0.2445
 8912SOL    HW130013   4.006   8.519   5.141  0.4601 -2.6001  1.6189
 8912SOL    HW230014   3.965   8.474   5.002 -1.4824 -1.2838  1.7302
 8913SOL     OW30015   0.428   1.696   6.971  0.3340 -0.3028  0.2702
 8913SOL    HW130016   0.362   1.677   7.038  1.2447  1.9268  1.9427
 8913SOL    HW230017   0.512   1.687   7.017  0.9698  1.8426 -0.3183
 8914SOL     OW30018   7.928   8.455   4.112 -0.5621 -0.5809  0.4239
 8914SOL    HW130019   7.853   8.398   4.125 -0.9375  0.0569  1.2076
 8914SOL    HW230020   7.921   8.519   4.184 -0.1837  0.4589 -0.4419
 8915SOL     OW30021  10.939   3.121   0.102  0.2792  0.1166 -0.5828
 8915SOL    HW130022  11.018   3.070   0.083  1.3217  1.8983 -1.2166
 8915SOL    HW230023  10.875   3.055   0.131  1.3664 -1.6191 -1.9188
 8916SOL     OW30024  11.097   9.614  11.043  0.5178 -0.0260  0.0248
 8916SOL    HW130025  11.030   9.658  10.991  1.4649  0.9468 -0.4017
 8916SOL    HW230026  11.109   9.671  11.119  2.1861  0.8212 -0.8272
 8917SOL     OW30027   5.943   8.953   3.474 -0.7835 -0.3234  0.6553
 8917SOL    HW130028   6.024   8.969   3.425 -0.5125 -0.8913  0.9067
 8917SOL    HW230029   5.929   8.858   3.465 -0.4888 -0.5196  2.0404
 8918SOL     OW30030   8.574   6.959   7.314 -0.4707  0.6843 -0.0744
 8918SOL    HW130031   8.561   6.866   7.331 -1.0589  0.4237 -1.7410
 8918SOL    HW230032   8.668   6.969   7.302 -0.4253  0.2772 -0.0639
 8919SOL     OW30033   7.596   0.087  10.825 -0.2507 -0.1512 -0.3198
 8919SOL    HW130034   7.501   0.099  10.825  0.0031  2.3638 -0.2674
 8919SOL    HW230035   7.614   0.043  10.908 -1.2795  0.5613  0.3149
 8920SOL     OW30036  11.096   9.173   5.228  0.4569 -0.5004 -0.2355
 8920SOL    HW130037  11.155   9.100   5.243  2.1494  0.5554 -1.3873
 8920SOL    HW230038  11.106   9.228   5.306  1.7596  0.1310 -0.8129
 8921SOL     OW30039   9.585   5.908   9.018  0.0719 -0.0590  0.3004
 8921SOL    HW130040   9.620   5.827   9.054  3.2407  0.4461 -1.3297
 8921SOL    HW230041   9.564   5.961   9.095  0.5972 -1.3837  1.3885
 8922SOL     OW30042   1.104   8.327   7.917 -0.4321  0.3655  0.7054
 8922SOL    HW130043   1.111   8.343   7.823 -2.6836  1.5498  0.6662
 8922SOL    HW230044   1.146   8.242   7.930  0.1486  0.2930 -1.3184
 8923SOL     OW30045  10.622   9.385   9.165 -0.8906  0.4813  0.1475
 8923SOL    HW130046  10.586   9.436   9.092  0.4426 -0.6129 -1.3392
 8923SOL    HW230047  10.717   9.391   9.155 -0.6712 -0.0519  1.5693
 8924SOL     OW30048   1.966   0.044   9.616 -0.1671  0.3572 -0.6380
 8924SOL    HW130049   2.044   0.036   9.670 -0.8852 -1.8904  0.1676
 8924SOL    HW230050   2.000   0.059   9.527  1.0875  1.3987 -0.0100
 8925SOL     OW30051   3.323  10.894   3.748 -0.1379  0.4788  0.0862
 8925SOL    HW130052   3.398  10.855   3.703  1.4117  2.4947  0.7835
 8925SOL    HW230053   3.346  10.890   3.841 -1.7386 -0.4982  0.4794
 8926SOL     OW30054   4.029   9.635   8.549  0.1199  0.5229  0.1965
 8926SOL    HW130055   3.936   9.659   8.554 -0.2221 -0.8971  1.2623
 8926SOL    HW230056   4.029   9.550   8.506  0.8595  0.1360  0.9469
 8927SOL     OW30057   8.175  10.690   1.101 -0.4048  0.0938  0.4752
 8927SOL    HW130058   8.270  10.683   1.100 -0.3171  1.0674  0.9250
 8927SOL    HW230059   8.155  10.758   1.037 -0.7556  0.2754  0.7733
 8928SOL     OW30060   6.471  11.200   0.025  0.4614 -0.1168 -0.0898
 8928SOL    HW130061   6.493  11.266  -0.042  0.0745  1.0252  0.8769
 8928SOL    HW230062   6.555  11.167   0.054  0.6306 -1.4710 -1.9038
 8929SOL     OW30063   1.637   5.938   7.690 -0.0582  0.5425  0.0560
 8929SOL    HW130064   1.584   5.969   7.763 -0.1440 -1.7057  1.0249
 8929SOL    HW230065   1.574   5.920   7.620 -0.2078  0.8368  0.1174
 8930SOL     OW30066   0.519   6.166   9.681  0.2602 -0.3847 -0.2100
 8930SOL    HW130067   0.499   6.229   9.750 -1.7928 -0.2408 -0.8864
 8930SOL    HW230068   0.488   6.082   9.716  0.2567 -0.5071 -0.5050
 8931SOL     OW30069   6.505  10.277   7.457 -0.2209  0.0672  0.7463
 8931SOL    HW130070   6.486  10.274   7.551 -0.3715  0.3938  0.7249
 8931SOL    HW230071   6.425  10.246   7.416 -0.4255  0.6562  0.6935
 8932SOL     OW30072   1.573   8.305   0.783  0.1172 -0.0741  0.2227
 8932SOL    HW130073   1.652   8.349   0.814  1.3783 -1.8315 -0.2965
 8932SOL    HW230074   1.513   8.309   0.857  1.2905 -0.0444  1.2134
 8933SOL     OW30075   5.959   6.844   1.764  0.4810  0.0426 -0.1709
 8933SOL    HW130076   5.944   6.854   1.670  0.5362  0.8023 -0.1086
 8933SOL    HW230077   5.886   6.790   1.794 -1.6940  2.8066 -0.0594
 8934SOL     OW30078   5.983   8.054   0.612  0.1263 -0.1434  0.8729
 8934SOL    HW130079   6.061   8.104   0.587 -1.0851  1.4612  0.1322
 8934SOL    HW230080   5.981   8.061   0.708  1.2539 -0.7869  0.9556
 8935SOL     OW30081  10.350   5.926   9.374 -0.8881  0.3767 -0.2480
 8935SOL    HW130082  10.421   5.864   9.357  0.4383  1.7248  0.1730
 8935SOL    HW230083  10.271   5.872   9.379  0.2555 -1.2998  0.4047
 8936SOL     OW30084   5.696   0.724   2.002  0.2318 -0.4142  0.3944
 8936SOL    HW130085   5.667   0.806   2.040  0.0034 -0.7006  0.8482
 8936SOL    HW230086   5.639   0.711   1.926  1.4047  0.6998 -0.7127
 8937SOL     OW30087   8.922   0.886   8.340 -0.2803 -0.0248  0.5227
 8937SOL    HW130088   8.846   0.935   8.309 -0.5670 -0.9996 -0.4101
 8937SOL    HW230089   8.984   0.889   8.268 -0.2827 -0.9537  0.4594
 8938SOL     OW30090   0.567   9.504   0.903  0.1830 -0.5106  0.3173
 8938SOL    HW130091   0.531   9.438   0.844 -1.6815  1.3239 -0.7367
 8938SOL    HW230092   0.628   9.555   0.850 -0.6158  0.4077  0.2351
 8939SOL     OW30093   0.960   0.840  11.399  0.1730 -0.8030 -0.1601
 8939SOL    HW130094   1.029   0.841  11.465 -0.2575 -0.2861  0.2928
 8939SOL    HW230095   0.960   0.928  11.362 -0.2146 -0.8082 -0.1787
 8940SOL     OW30096   5.027   1.041   8.217  0.8591  0.2764  0.0422
 8940SOL    HW130097   4.968   0.994   8.275  0.3900  0.5006 -0.2510
 8940SOL    HW230098   5.066   1.109   8.271  0.8389  0.1348  0.2343
 8941SOL     OW30099   7.257   0.815  11.378  0.0131  0.3696  0.0605
 8941SOL    HW130100   7.239   0.892  11.325  1.2392  0.3051 -0.4716
 8941SOL    HW230101   7.241   0.843  11.468 -0.0259  1.0978 -0.1706
 8942SOL     OW30102   2.934   3.773   5.266  0.3138 -0.0546  0.5547
 8942SOL    HW130103   2.963   3.718   5.340  1.7788  0.4065  0.3620
 8942SOL    HW230104   3.009   3.829   5.248 -0.0120 -0.1811 -1.3165
 8943SOL     OW30105   2.372   0.544   6.410  0.4637  0.4691 -0.2727
 8943SOL    HW130106   2.406   0.633   6.404  0.2423  0.5219 -0.7983
 8943SOL    HW230107   2.419   0.505   6.484  0.0371  1.2477  0.4243
 8944SOL     OW30108   2.851   9.913   8.432 -0.3655  0.3999  0.0408
 8944SOL    HW130109   2.918   9.982   8.434  0.1947 -0.1339  2.2567
 8944SOL    HW230110   2.791   9.940   8.362  1.5816  1.4351 -1.3201
 8945SOL     OW30111   7.401   5.559   9.133 -0.0478  0.5967  0.4727
 8945SOL    HW130112   7.386   5.645   9.172  1.5210  1.1693 -0.0943
 8945SOL    HW230113   7.337   5.501   9.175 -0.5984  1.8718  1.4386
 8946SOL     OW30114   8.098   0.535   5.694 -0.9131 -0.0136 -0.4654
 8946SOL    HW130115   8.124   0.616   5.649 -0.7010 -0.5236 -1.2812
 8946SOL    HW230116   8.154   0.532   5.771  0.4293 -0.3119 -1.4068
 8947SOL     OW30117   0.299   8.272   5.570  0.1132  0.2991 -0.2161
 8947SOL    HW130118   0.294   8.357   5.615  2.1377  0.5522 -0.3999
 8947SOL    HW230119   0.265   8.289   5.483  2.4580  1.5214 -0.9754
 8948SOL     OW30120   5.835   6.270  10.543  0.1587  0.0040 -0.4716
 8948SOL    HW130121   5.768   6.337  10.559  1.7410  1.5441  0.1248
 8948SOL    HW230122   5.823   6.245  10.452 -0.6165  0.9642 -0.6538
 8949SOL     OW30123   0.788   2.384  11.388 -0.7264 -0.1860 -0.1240
 8949SOL    HW130124   0.796   2.288  11.389 -1.0629 -0.2105  0.3311
 8949SOL    HW230125   0.856   2.413  11.327  0.0628 -0.6554  0.5250
 8950SOL     OW30126   8.048   3.038   6.779  0.2459 -0.0118  0.0834
 8950SOL    HW130127   8.094   3.114   6.743  1.2176 -1.1306 -1.1569
 8950SOL    HW230128   8.082   2.964   6.729  0.4112 -1.4712  2.2415
 8951SOL     OW30129   1.748   7.697   6.891 -0.4575  0.0953  0.4613
 8951SOL    HW130130   1.688   7.624   6.907 -0.5686  0.0735 -0.0461
 8951SOL    HW230131   1.797   7.706   6.973  1.1208 -2.0037 -0.1424
 8952SOL     OW30132   8.868   9.802   2.481 -0.9072  0.4435 -0.5669
 8952SOL    HW130133   8.810   9.846   2.543  1.3094  1.3245  1.0123
 8952SOL    HW230134   8.904   9.728   2.530 -0.7644 -0.1554 -1.5415
 8953SOL     OW30135  10.159   3.583   6.275 -0.5004  0.0788  0.4201
 8953SOL    HW130136  10.096   3.632   6.329 -0.0540  1.3987 -0.2033
 8953SOL    HW230137  10.116   3.499   6.258 -1.2054  0.1589  1.7137
 8954SOL     OW30138   9.708   9.357   5.012  0.4323 -0.2860 -0.2579
 8954SOL    HW130139   9.753   9.273   5.005  1.4589  0.3407 -2.0511
 8954SOL    HW230140   9.763   9.418   4.962  1.0560  2.0651  2.9614
 8955SOL     OW30141   9.669   0.963   6.941  0.3165  0.3778 -0.2539
 8955SOL    HW130142   9.704   0.897   7.001 -0.3582 -1.2458 -1.5642
 8955SOL    HW230143   9.741   1.025   6.930  1.0198 -0.1814  0.9435
 8956SOL     OW30144   6.040   1.765   1.562  0.8445  0.2354 -0.2387
 8956SOL    HW130145   6.013   1.850   1.597 -0.7138 -0.2383 -0.2285
 8956SOL    HW230146   6.032   1.705   1.636  1.7244  0.0231 -0.3052
 8957SOL     OW30147   0.534   0.997   8.046  0.6088 -0.2633 -0.2116
 8957SOL    HW130148   0.614   0.965   8.004 -0.0948 -1.1071 -0.9435
 8957SOL    HW230149   0.476   0.922   8.047 -0.3443  0.4617 -0.0999
 8958SOL     OW30150  11.201   1.570   6.771 -0.9376  0.0599 -1.0077
 8958SOL    HW130151  11.127   1.517   6.741 -0.8347  0.2898 -1.6791
 8958SOL    HW230152  11.245   1.597   6.691 -0.9668  1.1436 -0.6754
 8959SOL     OW30153   5.913   6.766   1.166 -0.2859 -0.9255  0.3474
 8959SOL    HW130154   5.999   6.724   1.171 -0.0934 -0.3788  3.4365
 8959SOL    HW230155   5.855   6.709   1.217 -1.5972 -0.7971 -0.9197
 8960SOL     OW30156   6.903   5.363   7.643 -0.3521 -0.5531  0.0093
 8960SOL    HW130157   6.882   5.270   7.642 -1.0406 -0.4247 -1.6271
 8960SOL    HW230158   6.841   5.402   7.581  1.5564  0.5916 -1.3032
 8961SOL     OW30159   9.989   2.757  11.229  0.2461 -0.6124  0.2716
 8961SOL    HW130160  10.081   2.783  11.222  0.0756  0.1012  0.6312
 8961SOL    HW230161   9.943   2.837  11.253 -0.6499 -0.6811 -1.1203
 8962SOL     OW30162   9.658   2.381  11.279 -0.2886 -0.2617  0.1423
 8962SOL    HW130163   9.744   2.389  11.321 -0.3524 -1.5278  0.5467
 8962SOL    HW230164   9.609   2.457  11.310  1.2539  1.5984 -1.5793
 8963SOL     OW30165   2.068   6.253   1.915  0.0911 -0.2753  0.1634
 8963SOL    HW130166   2.134   6.260   1.846  0.0378  0.0409  0.1448
 8963SOL    HW230167   2.101   6.184   1.973  0.4949 -0.0410  0.2142
 8964SOL     OW30168   6.843   1.304   9.428 -0.3683  0.0787  0.3119
 8964SOL    HW130169   6.823   1.224   9.476  0.7207 -0.4923 -0.1387
 8964SOL    HW230170   6.780   1.305   9.356 -0.7323 -0.0848  0.6225
 8965SOL     OW30171   6.875   5.426   9.791 -0.1046 -0.0163  0.1327
 8965SOL    HW130172   6.803   5.469   9.745 -0.5165  0.1316  0.9025
 8965SOL    HW230173   6.872   5.461   9.880  1.4786  0.6609 -0.0457
 8966SOL     OW30174   3.165   3.419   3.659 -0.1809 -0.0822 -0.4733
 8966SOL    HW130175   3.202   3.445   3.744 -2.1480  0.5711  0.2302
 8966SOL    HW230176   3.199   3.331   3.645  2.0549  0.6418 -0.1614
 8967SOL     OW30177   3.519   7.212   2.495  0.3023  0.0666 -1.0427
 8967SOL    HW130178   3.516   7.276   2.567  1.0175  0.1431 -1.0663
 8967SOL    HW230179   3.435   7.167   2.500  0.9994 -1.1637  1.0068
 8968SOL     OW30180   2.679   3.572   7.189  0.2448  0.2452 -0.7081
 8968SOL    HW130181   2.703   3.602   7.101  0.2220  0.8832 -0.5083
 8968SOL    HW230182   2.693   3.478   7.187  0.5393  0.2930 -1.3038
 8969SOL     OW30183  10.416   0.611   0.736  0.2694 -0.2516  0.3064
 8969SOL    HW130184  10.435   0.595   0.828  2.0610 -0.5852 -0.0966
 8969SOL    HW230185  10.441   0.702   0.721  0.6579 -0.4111 -0.0171
 8970SOL     OW30186   4.580   9.367   6.170 -0.2932  0.3361  0.1993
 8970SOL    HW130187   4.487   9.349   6.183  0.1055 -0.3749  2.6482
 8970SOL    HW230188   4.587   9.463   6.175 -0.5816  0.2959  3.4581
 8971SOL     OW30189   3.637  10.745   9.024  0.2395  0.5407  0.0861
 8971SOL    HW130190   3.543  10.740   9.044 -0.1228  1.3118 -1.3173
 8971SOL    HW230191   3.645  10.712   8.935  1.2578  0.7770  0.0771
 8972SOL     OW30192   7.395   8.626   5.410 -0.4659  0.3126  0.0261
 8972SOL    HW130193   7.332   8.558   5.433 -0.2874  0.5045  1.1604
 8972SOL    HW230194   7.456   8.628   5.484 -0.5710  1.8297  0.1018
 8973SOL     OW30195   4.120   6.375   7.837 -0.5754  0.1286  0.4389
 8973SOL    HW130196   4.031   6.340   7.822 -0.8033  0.7418  0.3414
 8973SOL    HW230197   4.118   6.463   7.799  0.3848 -0.2179 -0.4778
 8974SOL     OW30198   9.067   3.670  10.303 -0.5215  0.0122  0.1226
 8974SOL    HW130199   9.162   3.679  10.296 -0.6376  0.6985 -0.9095
 8974SOL    HW230200   9.048   3.677  10.396  0.7052 -3.1162  0.7230
 8975SOL     OW30201   6.161   6.504   9.417 -0.2558 -0.1474 -0.2368
 8975SOL    HW130202   6.078   6.505   9.369 -0.4274 -0.4610  0.0524
 8975SOL    HW230203   6.138   6.469   9.503 -0.0196  0.7257  0.1944
 8976SOL     OW30204   5.933   0.235   9.434  0.1809 -0.2361 -0.3760
 8976SOL    HW130205   5.977   0.174   9.374  1.3654 -0.1431  0.3800
 8976SOL    HW230206   5.843   0.202   9.438  0.2689 -0.7053 -1.5849
 8977SOL     OW30207  10.254   7.804   3.734  0.1534  0.4802  0.0369
 8977SOL    HW130208  10.162   7.784   3.717  0.4132 -1.2901  0.5328
 8977SOL    HW230209  10.290   7.723   3.770  1.5592  1.5921  1.2533
 8978SOL     OW30210   0.113   1.550   3.358 -0.0623 -0.6484 -0.0494
 8978SOL    HW130211   0.068   1.630   3.385  0.6152 -0.4738  0.5833
 8978SOL    HW230212   0.205   1.574   3.353  0.3573 -1.7680  1.6618
 8979SOL     OW30213   3.028   3.070   9.061 -0.3458  0.3235 -0.1111
 8979SOL    HW130214   3.108   3.120   9.072 -0.0191 -0.2196  0.0081
 8979SOL    HW230215   3.032   3.002   9.129 -1.5387  1.0950  0.7603
 8980SOL     OW30216   3.031   4.590   8.421  0.2698 -0.6444  0.4526
 8980SOL    HW130217   3.125   4.579   8.437  0.5461  0.0254 -0.6474
 8980SOL    HW230218   2.990   4.519   8.472  1.4096 -1.4021  0.3535
 8981SOL     OW30219   8.170   5.242  10.257 -0.2969  0.1448  0.5662
 8981SOL    HW130220   8.101   5.227  10.322 -0.5259 -0.1359  0.2597
 8981SOL    HW230221   8.252   5.228  10.305 -0.4185 -4.5273 -0.1627
 8982SOL     OW30222   5.364  11.142   3.393 -0.0083 -0.1338  0.6694
 8982SOL    HW130223   5.395  11.164   3.481  1.1890  0.3987  0.1343
 8982SOL    HW230224   5.361  11.226   3.347 -2.0888 -0.1894  0.6171
 8983SOL     OW30225   2.434   3.222   1.416 -0.1792 -0.5048 -0.3015
 8983SOL    HW130226   2.374   3.286   1.377  2.9288  1.7668 -1.7746
 8983SOL    HW230227   2.398   3.137   1.391 -2.4584  0.7448 -1.5617
 8984SOL     OW30228   1.586   6.721   9.392  0.2057  0.5983 -0.3756
 8984SOL    HW130229   1.653   6.677   9.340  1.0626  0.8886  0.4433
 8984SOL    HW230230   1.576   6.806   9.351  1.0106  0.8952  0.0200
 8985SOL     OW30231   1.321   5.343   5.112 -0.2644  0.1674  0.4524
 8985SOL    HW130232   1.363   5.428   5.099 -0.3852  0.1628  0.0263
 8985SOL    HW230233   1.235   5.363   5.149 -0.4094  0.2478  0.0752
 8986SOL     OW30234   7.540   3.419   2.471  0.5094 -0.4109 -0.1985
 8986SOL    HW130235   7.623   3.466   2.457  1.8830 -2.9084 -1.0217
 8986SOL    HW230236   7.499   3.417   2.385  0.0371 -0.0101  0.0116
 8987SOL     OW30237   2.295   0.346   2.455  0.0366  0.0080  0.1406
 8987SOL    HW130238   2.262   0.419   2.507 -2.3304 -0.7851 -0.1333
 8987SOL    HW230239   2.390   0.352   2.464 -0.0723  2.9208  0.3524
 8988SOL     OW30240   8.117   5.505   0.832 -0.3468 -0.0371 -0.3037
 8988SOL    HW130241   8.046   5.459   0.787 -0.8254  0.1275  0.2639
 8988SOL    HW230242   8.092   5.598   0.825 -0.0608  0.0396 -0.3060
 8989SOL     OW30243   9.772   6.696   9.819 -0.3897 -0.3623 -0.4947
 8989SOL    HW130244   9.790   6.626   9.882  0.0702 -0.3304 -0.5897
 8989SOL    HW230245   9.780   6.654   9.733 -0.9987 -0.4008 -0.5357
 8990SOL     OW30246   4.380   7.937   8.288  0.0774 -0.1790 -0.1890
 8990SOL    HW130247   4.413   7.852   8.318  1.6420  1.0601  1.8170
 8990SOL    HW230248   4.369   7.926   8.193  0.4012 -2.5418 -0.0054
 8991SOL     OW30249   7.713   2.408   0.937 -0.0913  0.3858  0.7185
 8991SOL    HW130250   7.642   2.457   0.897  0.0606 -0.0364 -0.0913
 8991SOL    HW230251   7.679   2.380   1.022 -0.6405  0.7633  0.6244
 8992SOL     OW30252   6.682   1.505   0.813  0.2328 -0.4894  0.5541
 8992SOL    HW130253   6.710   1.527   0.724 -2.6136 -0.1180 -0.3702
 8992SOL    HW230254   6.696   1.411   0.820  1.2591 -0.3921  0.0468
 8993SOL     OW30255   2.651   6.881   9.511 -0.0399  0.3363 -0.1907
 8993SOL    HW130256   2.594   6.843   9.579  1.4460 -0.0336  0.9104
 8993SOL    HW230257   2.740   6.858   9.539  0.7049  1.5102 -1.4689
 8994SOL     OW30258   1.811   6.987   9.248 -0.5519  0.3554  0.2061
 8994SOL    HW130259   1.768   6.999   9.333  0.4744 -1.6527  1.0801
 8994SOL    HW230260   1.902   7.009   9.264 -0.5930  1.3433 -0.7793
 8995SOL     OW30261   1.305   3.072   5.096 -0.6367  0.0802  0.0280
 8995SOL    HW130262   1.263   3.065   5.011  0.4134  0.3314 -0.5321
 8995SOL    HW230263   1.281   3.159   5.128 -0.5771  0.2065 -0.2701
 8996SOL     OW30264   8.946   5.311   4.660  0.4455  0.2482 -0.0349
 8996SOL    HW130265   8.861   5.355   4.672  0.8493  0.7490  1.1769
 8996SOL    HW230266   9.004   5.354   4.722  1.7976  0.3843 -1.3407
 8997SOL     OW30267   9.470   6.114   4.534 -0.2985 -0.1934  0.5610
 8997SOL    HW130268   9.523   6.183   4.573  0.4111 -0.1125 -0.5006
 8997SOL    HW230269   9.452   6.145   4.445  0.3672 -1.5225 -0.0689
 8998SOL     OW30270   0.067   7.343   4.548  0.3308 -0.3974 -0.2494
 8998SOL    HW130271  -0.021   7.373   4.573 -0.0369 -1.2501 -0.4945
 8998SOL    HW230272   0.123   7.367   4.622 -0.4867 -1.6644  0.8052
 8999SOL     OW30273   4.500   9.468   5.197 -0.0108  0.1955  0.4000
 8999SOL    HW130274   4.482   9.547   5.146  0.5258 -1.0887 -1.9107
 8999SOL    HW230275   4.593   9.474   5.218  0.3728 -0.4178 -0.9837
 9000SOL     OW30276   6.455  10.282   7.721  0.2997 -0.4297 -0.1281
 9000SOL    HW130277   6.482  10.346   7.787  1.0957 -1.0828  0.2083
 9000SOL    HW230278   6.360  10.284   7.722  0.3097  0.8736 -0.2562
 9001SOL     OW30279   8.430  11.157   5.608 -0.1591 -0.5253  0.2218
 9001SOL    HW130280   8.376  11.216   5.556 -0.4878  1.3553  2.5365
 9001SOL    HW230281   8.520  11.174   5.578 -0.3400  0.4847  0.2191
 9002SOL     OW30282   7.525   6.354   6.102  0.3580  0.2971  0.6766
 9002SOL    HW130283   7.478   6.274   6.125  0.3608 -0.5010 -1.8090
 9002SOL    HW230284   7.614   6.339   6.132  0.8705 -1.5859 -1.4989
 9003SOL     OW30285   0.689   3.357   8.543  0.1752  0.1195  0.0176
 9003SOL    HW130286   0.729   3.283   8.589 -1.1636  0.3947  1.7241
 9003SOL    HW230287   0.757   3.424   8.542  0.0952  0.3193  2.1938
 9004SOL     OW30288   2.571   8.585   4.572 -0.1594  0.2494 -0.0254
 9004SOL    HW130289   2.520   8.518   4.616  1.6099 -2.2928 -1.5834
 9004SOL    HW230290   2.661   8.570   4.602  0.3684  1.5654 -0.8493
 9005SOL     OW30291   5.305   1.077   6.125  0.3496  0.1298 -0.0239
 9005SOL    HW130292   5.288   1.169   6.104 -3.2278 -0.3161  0.2325
 9005SOL    HW230293   5.282   1.029   6.046  0.0407 -0.6736  0.5353
 9006SOL     OW30294  10.490   1.456  10.755 -0.2979 -0.2401  0.0261
 9006SOL    HW130295  10.563   1.457  10.693 -0.3064 -1.5501 -0.0362
 9006SOL    HW230296  10.412   1.445  10.700 -0.6510  1.9100  0.0266
 9007SOL     OW30297   3.159   0.382   6.376  0.0164  0.5723  0.3948
 9007SOL    HW130298   3.179   0.297   6.415 -0.2135  0.8418  1.1048
 9007SOL    HW230299   3.090   0.419   6.431  1.4041  2.0312  1.2306
 9008SOL     OW30300   4.507   0.120   7.735 -0.0615  0.0191  0.0955
 9008SOL    HW130301   4.534   0.200   7.781 -0.6569 -0.1821  0.8245
 9008SOL    HW230302   4.586   0.090   7.691  0.1548  1.0478 -0.2529
 9009SOL     OW30303   5.722   5.403   1.903 -0.6877  0.0837 -1.0641
 9009SOL    HW130304   5.634   5.401   1.867 -0.8166 -1.1282 -0.6992
 9009SOL    HW230305   5.718   5.466   1.975 -0.6855  1.7259 -2.4255
 9010SOL     OW30306   1.632   4.949  10.621 -0.4339  0.0506 -0.2568
 9010SOL    HW130307   1.633   4.860  10.658  0.2766  0.6765  1.3104
 9010SOL    HW230308   1.540   4.972  10.617 -0.5768 -0.3682  0.3625
 9011SOL     OW30309   1.394   7.939   1.639 -0.7570 -0.6233 -0.0140
 9011SOL    HW130310   1.379   7.957   1.546 -0.5222 -0.3448  0.0013
 9011SOL    HW230311   1.338   8.001   1.685  0.3352  0.3735  0.0432
 9012SOL     OW30312   4.921   9.718   6.467  0.0482  0.2744  0.3562
 9012SOL    HW130313   4.877   9.690   6.548 -0.5669 -1.2626 -0.4549
 9012SOL    HW230314   4.912   9.642   6.409  0.6373  1.2838 -1.0847
 9013SOL     OW30315   6.658   9.692   2.377  0.2980 -0.6263  0.3163
 9013SOL    HW130316   6.741   9.654   2.346  0.3985  0.9586 -1.5114
 9013SOL    HW230317   6.592   9.655   2.320 -0.0132 -0.4037  0.5319
 9014SOL     OW30318   4.208   5.979   5.349 -0.0297 -0.0048  0.3365
 9014SOL    HW130319   4.259   5.980   5.268  1.3327  3.1682  1.0917
 9014SOL    HW230320   4.262   5.929   5.410  1.4379  1.7763  0.5997
 9015SOL     OW30321  11.287   7.143   6.807 -0.0995  0.2910 -0.0389
 9015SOL    HW130322  11.368   7.150   6.856  2.1314 -2.0757 -3.0539
 9015SOL    HW230323  11.274   7.231   6.770  1.3861  0.5812  0.0700
 9016SOL     OW30324   9.925   0.907   0.150  0.5181 -0.4043  0.2868
 9016SOL    HW130325   9.944   0.995   0.118  0.7006 -0.8931 -1.0002
 9016SOL    HW230326   9.850   0.919   0.208  1.5769  0.8277  1.4812
 9017SOL     OW30327   6.084   0.533   4.881 -0.4744 -0.3088 -0.1948
 9017SOL    HW130328   6.136   0.479   4.821 -0.8715 -1.0660  0.1285
 9017SOL    HW230329   6.097   0.622   4.850  1.3075 -0.4307  0.0865
 9018SOL     OW30330   9.394   5.457   4.915 -0.1978 -0.0643  0.4870
 9018SOL    HW130331   9.431   5.375   4.948  1.6185  1.0574  1.3643
 9018SOL    HW230332   9.465   5.497   4.865 -0.3465  1.9044  1.7415
 9019SOL     OW30333   7.233   3.605   0.865 -0.0984  0.0646  0.3354
 9019SOL    HW130334   7.277   3.578   0.785 -0.3704 -0.6216  0.4062
 9019SOL    HW230335   7.301   3.603   0.933  0.2139  0.9957  0.0636
 9020SOL     OW30336   4.233   3.452  10.426 -0.0371 -0.1301  0.6029
 9020SOL    HW130337   4.141   3.453  10.452 -0.1927  1.7504  0.1594
 9020SOL    HW230338   4.277   3.403  10.495 -1.3185 -0.7745  0.9900
 9021SOL     OW30339   7.558   9.448   5.195  0.3779 -0.0807  0.3308
 9021SOL    HW130340   7.539   9.540   5.211 -0.8541 -0.5636  1.9594
 9021SOL    HW230341   7.476   9.411   5.164  0.9637 -0.5738 -0.6975
 9022SOL     OW30342   6.359  10.951  10.860 -0.4005  0.3703  0.0204
 9022SOL    HW130343   6.274  10.924  10.825 -0.4251  0.2911  0.1399
 9022SOL    HW230344   6.375  11.036  10.820 -1.3186  1.1733  1.2763
 9023SOL     OW30345   8.862   9.926   9.505  0.3018  0.7277 -0.5970
 9023SOL    HW130346   8.893   9.922   9.414  2.5019  2.3409  0.0265
 9023SOL    HW230347   8.911   9.997   9.545 -0.2386 -0.2513  2.0298
 9024SOL     OW30348   5.924   1.647   8.855  0.6035  0.2582  0.0076
 9024SOL    HW130349   5.877   1.566   8.833 -1.1061  0.8289  1.3499
 9024SOL    HW230350   5.978   1.623   8.930  1.1925  0.0296 -0.4790
 9025SOL     OW30351  10.503   8.576   2.067  0.0444  0.6528  0.2144
 9025SOL    HW130352  10.483   8.574   2.161 -1.9023 -0.1101 -0.1824
 9025SOL    HW230353  10.494   8.485   2.039  1.4645  0.7269 -0.5821
 9026SOL     OW30354   6.546   4.522  10.085  0.3148  0.1289 -0.3253
 9026SOL    HW130355   6.628   4.474  10.097  0.7778  0.5451 -1.6799
 9026SOL    HW230356   6.490   4.464  10.034 -0.0432  0.0727  0.1164
 9027SOL     OW30357   9.675  10.104   1.215 -0.7075 -0.4827 -0.2944
 9027SOL    HW130358   9.653  10.194   1.239 -0.2912 -1.0315  2.4817
 9027SOL    HW230359   9.601  10.074   1.162 -1.1813  1.2326 -0.6621
 9028SOL     OW30360   3.838   2.223   8.244 -0.3755 -0.3457 -0.5836
 9028SOL    HW130361   3.932   2.206   8.249 -0.1234  0.7286 -1.2884
 9028SOL    HW230362   3.811   2.184   8.161  0.1468  2.1978 -2.0570
 9029SOL     OW30363   5.747   3.558   6.438  0.1250 -0.2538 -0.2765
 9029SOL    HW130364   5.671   3.508   6.409  0.8363 -1.1073 -0.6860
 9029SOL    HW230365   5.729   3.577   6.531 -1.5538  1.3787 -0.8654
 9030SOL     OW30366   3.418   2.621   2.014 -0.1056  0.5196  0.4510
 9030SOL    HW130367   3.385   2.532   2.028  1.1850 -0.1838 -0.7622
 9030SOL    HW230368   3.360   2.658   1.947  1.4775 -0.7565 -1.7708
 9031SOL     OW30369   2.702   7.704   3.548 -0.5194 -0.4248  0.2412
 9031SOL    HW130370   2.672   7.700   3.457 -0.4739  1.3794  0.1070
 9031SOL    HW230371   2.788   7.662   3.546  0.2328  1.0773 -0.9229
 9032SOL     OW30372   2.111   6.550   3.530  0.2402 -0.2135  0.2874
 9032SOL    HW130373   2.039   6.489   3.545 -0.1788  0.1740 -0.1235
 9032SOL    HW230374   2.093   6.587   3.444 -1.5389  3.2142  1.9237
 9033SOL     OW30375   0.664   0.878  11.294  0.2377 -0.2144 -0.1773
 9033SOL    HW130376   0.729   0.834  11.349  0.5089  0.2519 -0.1208
 9033SOL    HW230377   0.668   0.970  11.322  0.7970  0.1428 -1.3828
 9034SOL     OW30378   5.240   4.312   3.351 -0.0447  0.1130 -0.2951
 9034SOL    HW130379   5.261   4.236   3.297  1.8171  0.0289  0.4420
 9034SOL    HW230380   5.316   4.321   3.409 -1.4719  0.8304  1.5749
 9035SOL     OW30381   7.915   6.236   1.109 -0.0888  0.2216  0.0529
 9035SOL    HW130382   7.857   6.211   1.038 -1.1844  2.8194 -0.0773
 9035SOL    HW230383   7.892   6.178   1.182  0.9136 -2.3411 -1.5301
 9036SOL     OW30384   6.021   6.490   8.294 -0.3701 -0.0505 -0.0053
 9036SOL    HW130385   6.006   6.472   8.387  1.3507 -3.3988 -0.2243
 9036SOL    HW230386   6.019   6.404   8.252 -2.1476  1.4092 -3.3419
 9037SOL     OW30387   3.530   0.295   3.237 -0.0044 -0.1482  0.2061
 9037SOL    HW130388   3.478   0.312   3.316  0.7353 -1.4786  1.0345
 9037SOL    HW230389   3.603   0.356   3.243  0.1359 -0.3515  0.6564
 9038SOL     OW30390   1.347   8.749   6.729  0.3165 -0.3002  0.9699
 9038SOL    HW130391   1.307   8.762   6.815 -0.4127  0.3070  0.5577
 9038SOL    HW230392   1.410   8.820   6.721 -0.2986  0.2205  0.6287
 9039SOL     OW30393   9.746   4.045  10.718  0.8919 -0.2735  0.0813
 9039SOL    HW130394   9.741   4.096  10.798  0.8200  0.5776 -0.4557
 9039SOL    HW230395   9.703   3.962  10.740  0.9126 -0.0680  0.9292
 9040SOL     OW30396   1.112   4.098   6.970  0.0611  0.5302  0.3728
 9040SOL    HW130397   1.019   4.115   6.983 -0.3216 -1.2107  0.1961
 9040SOL    HW230398   1.117   4.004   6.952  1.7418  0.7961 -0.7958
 9041SOL     OW30399  10.798   7.013   3.007 -0.2557  0.4125  0.1443
 9041SOL    HW130400  10.831   7.100   2.985  1.2068 -0.1498 -0.0041
 9041SOL    HW230401  10.867   6.974   3.060 -1.4137 -0.2343  1.2387
 9042SOL     OW30402   7.771  11.367  11.320 -0.4989  0.4518  0.1483
 9042SOL    HW130403   7.832  11.362  11.247  0.4821 -0.3328  0.9818
 9042SOL    HW230404   7.699  11.309  11.295 -1.1974  1.8027 -1.0811
 9043SOL     OW30405  10.419   9.261   4.896 -0.0676  0.2812  0.5507
 9043SOL    HW130406  10.386   9.320   4.829 -0.5976 -0.7112 -0.0807
 9043SOL    HW230407  10.348   9.198   4.910 -0.1602  0.7242  2.3776
 9044SOL     OW30408   8.433  10.099   7.783 -0.2884 -0.0519 -0.3918
 9044SOL    HW130409   8.492  10.153   7.730  0.2281  0.3509  0.5693
 9044SOL    HW230410   8.345  10.130   7.760  0.0218  2.8207  1.7004
 9045SOL     OW30411   7.189   6.963   1.414  0.3206 -0.0105 -0.0048
 9045SOL    HW130412   7.103   6.998   1.439 -0.2219 -0.1815 -1.5081
 9045SOL    HW230413   7.197   6.983   1.321  2.0876  0.3124  0.1818
 9046SOL     OW30414   0.493   5.695   7.591 -0.7227  0.1322 -0.3924
 9046SOL    HW130415   0.468   5.701   7.683  0.3805  0.3520 -0.0895
 9046SOL    HW230416   0.446   5.618   7.558 -1.1289  0.0558  0.3552
 9047SOL     OW30417   6.357   0.169   8.116  0.2871  0.4437  0.2574
 9047SOL    HW130418   6.289   0.203   8.175  0.9622 -1.8550  2.5837
 9047SOL    HW230419   6.319   0.088   8.080  0.7700  0.6035 -0.6423
 9048SOL     OW30420   1.569   7.018   4.885  0.3628  0.2533  0.0251
 9048SOL    HW130421   1.541   7.077   4.955 -0.1555 -0.2522  0.2576
 9048SOL    HW230422   1.572   6.932   4.928  0.3453 -0.0084 -0.4985
 9049SOL     OW30423   4.851   1.037   0.097  0.0837  0.0334  0.0094
 9049SOL    HW130424   4.775   1.061   0.043 -1.3569 -2.4384  0.7485
 9049SOL    HW230425   4.851   1.101   0.168  1.1353  2.4530 -2.0382
 9050SOL     OW30426   6.265   3.666   4.146 -0.1692 -0.2746 -0.6283
 9050SOL    HW130427   6.183   3.639   4.103 -0.7895  1.0105 -0.2904
 9050SOL    HW230428   6.288   3.748   4.104  1.4164 -1.0142 -1.2819
 9051SOL     OW30429   7.880   4.983   0.487 -0.3604 -0.1709 -0.8749
 9051SOL    HW130430   7.849   5.054   0.431  0.9780  0.8000 -0.4335
 9051SOL    HW230431   7.841   5.001   0.573 -0.7194 -0.4684 -0.9738
 9052SOL     OW30432  11.169   0.018   4.339 -0.3779  0.5822 -0.4177
 9052SOL    HW130433  11.119   0.085   4.293 -0.8618 -0.3186 -1.2466
 9052SOL    HW230434  11.256   0.022   4.300 -0.9466 -0.5762 -1.8935
 9053SOL     OW30435   6.266  10.226   5.633  0.0211  0.2189  0.0754
 9053SOL    HW130436   6.349  10.182   5.614 -1.0631 -0.7103 -3.2305
 9053SOL    HW230437   6.201  10.155   5.635 -0.9374  1.0761  1.1450
 9054SOL     OW30438   9.362   9.673   2.026 -0.5492 -0.2129  0.0482
 9054SOL    HW130439   9.435   9.613   2.035 -1.5405 -1.6350 -0.8697
 9054SOL    HW230440   9.383   9.725   1.948  0.9102  1.6032  1.5598
 9055SOL     OW30441  10.765   2.798   5.303  0.7090  0.3882  0.1019
 9055SOL    HW130442  10.769   2.894   5.303 -1.0459  0.4912  0.2987
 9055SOL    HW230443  10.851   2.770   5.333  0.8680  1.9296  1.1582
 9056SOL     OW30444   9.083   0.504   8.534  0.7957 -0.1513  0.1246
 9056SOL    HW130445   9.104   0.421   8.492 -2.1507 -0.7858 -0.3019
 9056SOL    HW230446   8.993   0.522   8.508  1.0248  2.7212  0.9858
 9057SOL     OW30447   9.289   0.359   8.852  0.2864  0.2694  0.4646
 9057SOL    HW130448   9.247   0.293   8.908  2.5071 -0.4853  1.3467
 9057SOL    HW230449   9.346   0.407   8.911  0.2349  1.6596 -0.5878
 9058SOL     OW30450   5.864   8.405  10.127  0.4560 -0.4722 -0.1408
 9058SOL    HW130451   5.866   8.403  10.223 -0.9886 -3.7122 -0.0355
 9058SOL    HW230452   5.778   8.440  10.105  0.9611  0.7036 -0.3031
 9059SOL     OW30453   9.629   2.626   8.388 -0.1655  0.2438 -0.1446
 9059SOL    HW130454   9.552   2.614   8.442 -0.6750  1.3410 -0.5917
 9059SOL    HW230455   9.650   2.538   8.356 -1.3864 -0.0400 -0.2211
 9060SOL     OW30456   9.058   9.473   5.974  0.2175 -0.3461 -0.6757
 9060SOL    HW130457   9.016   9.511   6.051  1.4492 -0.4038  0.0430
 9060SOL    HW230458   9.136   9.526   5.960  0.8748 -1.3308 -0.8930
 9061SOL     OW30459   5.905   9.625  10.183 -0.5676  0.1823 -0.2523
 9061SOL    HW130460   5.901   9.543  10.133 -1.5388  0.1339 -0.1043
 9061SOL    HW230461   5.986   9.667  10.153  0.6447 -1.4306  0.6153
 9062SOL     OW30462   5.605   9.336   4.860  0.0142  0.0118  0.3168
 9062SOL    HW130463   5.523   9.299   4.893 -0.4265 -1.4600 -2.1724
 9062SOL    HW230464   5.580   9.386   4.783  1.3394  0.6193  0.2404
 9063SOL     OW30465   9.708   7.387   9.823  0.0075 -0.0863  0.2165
 9063SOL    HW130466   9.711   7.469   9.871 -0.2026 -0.5496  1.0517
 9063SOL    HW230467   9.796   7.350   9.834 -0.3488 -0.7009  1.2017
 9064SOL     OW30468   8.813   9.536   5.204  0.6562  0.7013 -0.1339
 9064SOL    HW130469   8.728   9.566   5.235  1.5001  2.8553  0.2959
 9064SOL    HW230470   8.814   9.559   5.111  0.8769  0.9790 -0.0647
 9065SOL     OW30471   9.129   4.235   8.412  0.1207  0.4976  0.3550
 9065SOL    HW130472   9.054   4.199   8.460 -1.2645 -0.6923 -2.4909
 9065SOL    HW230473   9.130   4.327   8.437 -1.8221  0.3895  1.0706
 9066SOL     OW30474   2.847   8.781   6.587  0.5145  1.2684 -0.1758
 9066SOL    HW130475   2.852   8.747   6.498  3.5600  0.2051  0.2854
 9066SOL    HW230476   2.828   8.705   6.641  0.1385  1.6469  0.2297
 9067SOL     OW30477  11.322   6.747   1.784  0.1932  0.5145 -0.1525
 9067SOL    HW130478  11.246   6.700   1.816  1.4154 -1.4353  0.0649
 9067SOL    HW230479  11.310   6.837   1.814 -2.4608  0.5096 -0.9756
 9068SOL     OW30480   9.517   8.398  10.105  0.2787 -0.2421  0.2472
 9068SOL    HW130481   9.511   8.360  10.017  0.1348 -0.9519  0.5552
 9068SOL    HW230482   9.451   8.467  10.106 -0.4410 -0.9125  0.1236
 9069SOL     OW30483   5.603   0.156   0.194 -0.1981  0.3487 -0.0063
 9069SOL    HW130484   5.681   0.142   0.140 -0.7557  0.4398 -0.8573
 9069SOL    HW230485   5.552   0.220   0.145 -0.8467  0.2244  0.5020
 9070SOL     OW30486   3.307   8.311   7.117  0.6041  0.0088  0.9483
 9070SOL    HW130487   3.215   8.290   7.101  0.5555 -0.3051  1.5935
 9070SOL    HW230488   3.330   8.373   7.048 -0.3532  0.7955  1.3217
 9071SOL     OW30489  11.363   8.564   2.349  0.4528  0.4673  0.0243
 9071SOL    HW130490  11.388   8.643   2.397  0.9277  0.3835 -0.0780
 9071SOL    HW230491  11.445   8.517   2.336  0.1661 -0.0728  0.1309
 9072SOL     OW30492   2.041   0.724   6.036 -0.3357 -0.8373  0.1501
 9072SOL    HW130493   2.115   0.685   6.083  0.5314 -0.1391 -0.5965
 9072SOL    HW230494   1.998   0.650   5.993  1.2312 -1.0180 -1.1796
 9073SOL     OW30495   9.049   1.519   6.346  0.1516  0.3836 -0.5883
 9073SOL    HW130496   9.064   1.446   6.286  0.0445  0.2696 -0.4776
 9073SOL    HW230497   9.059   1.481   6.433  0.0229  0.4837 -0.5285
 9074SOL     OW30498   0.294   2.183   9.334  0.2922 -0.1440  0.2033
 9074SOL    HW130499   0.214   2.187   9.282  0.7243 -0.1168 -0.4736
 9074SOL    HW230500   0.314   2.089   9.341  1.9505 -0.1082 -2.4292
 9075SOL     OW30501   8.563   5.690  10.902  0.2111  0.2516  0.0874
 9075SOL    HW130502   8.614   5.701  10.822  0.3838  1.8361  0.3887
 9075SOL    HW230503   8.613   5.627  10.954  2.1647  2.0815  0.5686
 9076SOL     OW30504   7.481   7.361   1.219 -0.6785  0.4119  0.2345
 9076SOL    HW130505   7.558   7.309   1.196  0.1230  1.2106  1.0663
 9076SOL    HW230506   7.442   7.384   1.135 -0.0355 -0.0279 -0.1913
 9077SOL     OW30507   7.400  11.086   4.653  0.1843  0.3665  0.1579
 9077SOL    HW130508   7.397  11.150   4.724 -0.9068  0.9921 -0.4344
 9077SOL    HW230509   7.355  11.009   4.687  1.1164  0.0376  0.7128
 9078SOL     OW30510   3.701   5.462   9.194 -0.6037 -0.0473  0.2304
 9078SOL    HW130511   3.792   5.491   9.189 -0.5427 -0.4524 -2.3710
 9078SOL    HW230512   3.702   5.390   9.257  0.9987 -0.3908 -0.1495
 9079SOL     OW30513   7.821   3.317   5.886 -0.3750 -0.1488 -0.5645
 9079SOL    HW130514   7.870   3.237   5.868  0.8900  0.4312  0.1575
 9079SOL    HW230515   7.851   3.380   5.820 -1.3069 -0.2356 -1.0831
 9080SOL     OW30516   4.667   1.566   2.763 -0.2508  0.0026 -0.2103
 9080SOL    HW130517   4.647   1.641   2.818  0.4753  0.2759 -0.3156
 9080SOL    HW230518   4.697   1.499   2.824  3.0740  1.1362 -0.4372
 9081SOL     OW30519   6.850   9.096   5.611  0.1000  0.2962 -0.0418
 9081SOL    HW130520   6.924   9.145   5.647  0.9844 -0.2446 -1.0581
 9081SOL    HW230521   6.858   9.107   5.516 -0.8454 -0.1754 -0.1889
 9082SOL     OW30522   9.995   5.346   8.038  0.0646 -0.2594  0.6840
 9082SOL    HW130523   9.972   5.410   8.105  1.8400 -0.2190  1.2920
 9082SOL    HW230524   9.933   5.363   7.967 -0.7539  0.8242  1.6097
 9083SOL     OW30525   3.033   6.312   5.559  0.3197 -0.2258 -0.0642
 9083SOL    HW130526   3.100   6.356   5.506 -0.1766  0.4616 -0.1442
 9083SOL    HW230527   2.963   6.293   5.497  0.6479 -1.4232 -0.0889
 9084SOL     OW30528   3.653   7.122   9.792  0.0232 -1.1430  0.4158
 9084SOL    HW130529   3.566   7.084   9.782  0.5940 -2.7348  1.1298
 9084SOL    HW230530   3.704   7.054   9.836  1.4355  0.0322  0.6820
 9085SOL     OW30531   0.450   3.766   4.306 -0.5717 -0.3917  0.0015
 9085SOL    HW130532   0.364   3.752   4.267 -0.7972  1.3223 -0.1919
 9085SOL    HW230533   0.434   3.822   4.381  0.5341  1.7022 -1.2209
 9086SOL     OW30534   6.021   0.834   6.812 -0.2665 -0.3059 -0.4604
 9086SOL    HW130535   5.958   0.801   6.748 -0.3666 -2.4280  0.6340
 9086SOL    HW230536   6.106   0.804   6.778 -0.3070 -1.3121  0.2809
 9087SOL     OW30537   1.267   7.957   0.954  0.3743 -0.0737 -0.6038
 9087SOL    HW130538   1.208   7.937   0.881 -0.7738  0.3932  0.1633
 9087SOL    HW230539   1.214   7.943   1.032  1.5887 -0.5692  0.1609
 9088SOL     OW30540   5.996   3.205   2.214 -0.4356 -0.5930  0.2314
 9088SOL    HW130541   5.966   3.233   2.127 -2.0405 -2.2941  0.1927
 9088SOL    HW230542   5.988   3.110   2.214 -1.0023 -0.6051  2.4419
 9089SOL     OW30543   5.784   9.952   1.301 -0.0789 -0.1229 -0.4690
 9089SOL    HW130544   5.706   9.938   1.355 -0.2120 -2.6327 -1.1965
 9089SOL    HW230545   5.776   9.888   1.231  1.8929  0.6252 -1.4384
 9090SOL     OW30546   9.094   9.790   0.086  0.0132  0.3353  0.1289
 9090SOL    HW130547   9.103   9.706   0.042  0.5674  1.4949 -2.1329
 9090SOL    HW230548   9.013   9.783   0.136  0.3546 -1.7098  0.4746
 9091SOL     OW30549   1.428   3.782   6.136 -0.1781 -0.6429 -0.2092
 9091SOL    HW130550   1.490   3.742   6.074  0.5541 -1.1253  0.7962
 9091SOL    HW230551   1.452   3.875   6.136 -0.3977 -0.5839 -0.8888
 9092SOL     OW30552  11.252   1.267   5.404 -0.0201  0.1623 -0.0981
 9092SOL    HW130553  11.299   1.318   5.469 -1.0576 -0.8664  1.5192
 9092SOL    HW230554  11.217   1.192   5.452  0.4384 -1.4597 -2.1277
 9093SOL     OW30555   5.976   4.319   5.475 -0.2354  0.0296  0.1356
 9093SOL    HW130556   5.910   4.368   5.425  0.2463  0.9578  0.3926
 9093SOL    HW230557   6.038   4.386   5.504  0.2816 -0.7046  0.7389
 9094SOL     OW30558   0.202  10.868   8.516  0.0732  0.0793 -0.4900
 9094SOL    HW130559   0.140  10.918   8.569  1.5398  1.8606 -0.3473
 9094SOL    HW230560   0.156  10.854   8.433 -0.9514  0.2823  0.0235
 9095SOL     OW30561   8.935   0.116   8.430  0.5318 -0.1619  0.1183
 9095SOL    HW130562   8.998   0.158   8.371  1.3049  0.1050  1.1149
 9095SOL    HW230563   8.852   0.157   8.408  0.4945 -1.2040 -1.8815
 9096SOL     OW30564   6.460   2.972   0.163  0.1263 -0.3894  0.1234
 9096SOL    HW130565   6.381   3.027   0.162 -0.3563 -1.0804 -0.6098
 9096SOL    HW230566   6.465   2.940   0.252  0.5533  1.0316  0.6390
 9097SOL     OW30567   6.016   0.124   2.085  0.5902  0.1361 -0.7582
 9097SOL    HW130568   5.986   0.034   2.072  2.5514 -0.8324  0.9889
 9097SOL    HW230569   6.072   0.142   2.009 -0.4846  0.2337 -1.5502
 9098SOL     OW30570   4.446   2.777   1.597  0.0474 -0.6368  0.1909
 9098SOL    HW130571   4.535   2.742   1.598 -0.1375 -1.1122  0.2584
 9098SOL    HW230572   4.440   2.826   1.515  0.6138  0.0481  0.5484
 9099SOL     OW30573   7.390   1.893   9.889  0.0755 -0.7007  0.2749
 9099SOL    HW130574   7.469   1.865   9.936  1.0390  0.8247 -0.3864
 9099SOL    HW230575   7.340   1.944   9.954 -0.5818 -1.9557  0.7985
 9100SOL     OW30576   1.254   4.317   6.937  0.0944 -0.2057 -0.8683
 9100SOL    HW130577   1.312   4.328   7.012 -1.1671  0.3852  0.0648
 9100SOL    HW230578   1.209   4.234   6.954  0.3025 -0.4213 -1.3439
 9101SOL     OW30579   5.919   2.808   6.912  0.3777  0.1828  0.3652
 9101SOL    HW130580   5.921   2.780   6.820  0.0988 -0.1467  0.4568
 9101SOL    HW230581   5.826   2.808   6.935  0.4149  0.6896  0.5201
 9102SOL     OW30582   8.398   1.097   6.472  0.5340 -0.0930  0.1599
 9102SOL    HW130583   8.339   1.163   6.510  2.1226  0.6930  1.4003
 9102SOL    HW230584   8.352   1.066   6.394 -1.5298  0.4237  1.0899
 9103SOL     OW30585   7.659   9.595   4.153 -0.2865  0.1065 -0.1192
 9103SOL    HW130586   7.633   9.523   4.096  0.9564  1.1040 -2.0518
 9103SOL    HW230587   7.646   9.561   4.242  1.7034 -3.0752 -0.8887
 9104SOL     OW30588   2.744   6.740   2.478 -0.0551 -0.4420 -0.1095
 9104SOL    HW130589   2.796   6.770   2.403 -0.6950 -1.0980 -0.8359
 9104SOL    HW230590   2.654   6.766   2.457  0.0933  1.9276  1.7690
 9105SOL     OW30591   1.489   6.233   9.632 -0.6910  0.4114 -0.0454
 9105SOL    HW130592   1.480   6.202   9.722  1.5030 -0.8873 -0.1868
 9105SOL    HW230593   1.426   6.304   9.624 -2.5474 -0.9109  1.8101
 9106SOL     OW30594  11.127  10.088   6.973 -0.9380  0.2553 -0.0866
 9106SOL    HW130595  11.112   9.994   6.981  0.4210  0.0185 -0.0825
 9106SOL    HW230596  11.040  10.127   6.977 -1.3511 -0.7705  2.9053
 9107SOL     OW30597  10.833   6.260   6.740 -0.1331  0.0717  0.3056
 9107SOL    HW130598  10.784   6.285   6.819  0.6966 -0.8807  1.1332
 9107SOL    HW230599  10.818   6.166   6.730  0.6551 -0.0256 -0.0489
 9108SOL     OW30600   0.385   9.902   3.441 -0.1168 -0.5559 -0.2492
 9108SOL    HW130601   0.456   9.880   3.502 -0.1546 -0.0984 -0.0400
 9108SOL    HW230602   0.431   9.933   3.362 -0.0876  0.0393  0.0003
 9109SOL     OW30603   7.015   6.808  11.351  0.9680  0.1972  0.0085
 9109SOL    HW130604   7.001   6.714  11.339 -1.6012  0.5860 -0.6666
 9109SOL    HW230605   7.010   6.820  11.446  1.4839 -0.3316  0.1174
 9110SOL     OW30606   7.154   0.459   6.676 -0.5110 -0.4924  0.2817
 9110SOL    HW130607   7.080   0.439   6.734 -0.0195 -1.6400  0.5576
 9110SOL    HW230608   7.201   0.529   6.721 -0.2607 -1.2204  1.1750
 9111SOL     OW30609   0.109   4.067   6.062 -0.1275  0.4336 -0.4327
 9111SOL    HW130610   0.051   4.064   5.986 -0.9048 -1.2205  0.1795
 9111SOL    HW230611   0.142   3.977   6.071 -1.8139 -0.0259  2.4682
 9112SOL     OW30612   7.857   1.406   7.527 -0.1078  0.0787 -0.3663
 9112SOL    HW130613   7.948   1.377   7.516 -0.5106 -1.2606 -0.3643
 9112SOL    HW230614   7.864   1.493   7.567  1.1670 -0.1905  0.0307
 9113SOL     OW30615   8.005   8.183   3.061 -0.4290  0.4657 -0.4917
 9113SOL    HW130616   8.033   8.215   3.147 -1.5002  0.0697  0.0283
 9113SOL    HW230617   7.922   8.228   3.045  0.2694  1.3267 -1.8066
 9114SOL     OW30618   7.231   3.623   9.638  0.2226 -0.1949  0.5314
 9114SOL    HW130619   7.241   3.707   9.683  0.1400 -0.4945  1.1210
 9114SOL    HW230620   7.241   3.644   9.545 -3.1412  1.0728  0.2944
 9115SOL     OW30621   2.808  11.101   3.888 -0.1681 -0.4170  0.0099
 9115SOL    HW130622   2.795  11.021   3.839 -0.4824 -0.2014 -0.2600
 9115SOL    HW230623   2.832  11.166   3.822 -0.7225 -0.0950  0.1188
 9116SOL     OW30624   3.779   6.967   4.098  0.6137 -0.0114 -0.1661
 9116SOL    HW130625   3.697   7.007   4.069  0.5893  0.9095  1.0799
 9116SOL    HW230626   3.761   6.874   4.102 -0.1316  0.1044 -0.6692
 9117SOL     OW30627   9.714   7.447   4.971  0.0980 -0.0229  0.2819
 9117SOL    HW130628   9.754   7.360   4.969  0.1234 -0.0167 -2.0900
 9117SOL    HW230629   9.650   7.442   5.042  0.6216 -1.7213  0.6860
 9118SOL     OW30630   0.609  10.582   2.068 -0.2558 -0.5390 -0.4302
 9118SOL    HW130631   0.588  10.553   1.979 -2.1806 -0.6238  0.0258
 9118SOL    HW230632   0.696  10.622   2.059  0.8324 -2.9691 -1.8086
 9119SOL     OW30633   8.294   0.397   7.622 -0.3865 -0.0969  0.3935
 9119SOL    HW130634   8.214   0.344   7.630 -0.5905  0.2692  0.8330
 9119SOL    HW230635   8.361   0.335   7.591 -1.7140  0.3399 -4.1753
 9120SOL     OW30636  10.849   6.547   1.265  0.5024 -0.7840 -0.4033
 9120SOL    HW130637  10.876   6.611   1.331  1.2931 -0.6657 -0.8364
 9120SOL    HW230638  10.818   6.599   1.192 -0.5597 -0.9173 -0.0626
 9121SOL     OW30639   7.360   1.069   7.495  0.8659  0.3046  0.0560
 9121SOL    HW130640   7.268   1.077   7.472  0.8128 -0.3990  0.0149
 9121SOL    HW230641   7.360   1.045   7.587  0.9970 -0.0698 -0.0409
 9122SOL     OW30642   4.141   5.882   6.618 -0.3551  0.0532  0.2825
 9122SOL    HW130643   4.146   5.867   6.712  0.4804 -1.2365  0.0604
 9122SOL    HW230644   4.139   5.795   6.580 -1.8905  0.5425 -0.8647
 9123SOL     OW30645   0.512   2.669   8.463  0.4570  0.2838 -0.2246
 9123SOL    HW130646   0.602   2.668   8.496 -0.0847 -0.7289  1.3670
 9123SOL    HW230647   0.479   2.581   8.482 -0.9449  0.7161 -0.5517
 9124SOL     OW30648   1.639   5.055   0.888  0.2009 -0.1343 -0.0948
 9124SOL    HW130649   1.682   5.089   0.966  0.1446  2.0565 -0.9532
 9124SOL    HW230650   1.695   4.984   0.858  1.4038  0.4524  0.7084
 9125SOL     OW30651   4.686   5.269   5.296 -0.2233 -0.4828 -0.3076
 9125SOL    HW130652   4.611   5.323   5.271 -0.2857 -0.0579  0.7397
 9125SOL    HW230653   4.668   5.184   5.257 -1.0645 -0.2794 -0.3938
 9126SOL     OW30654   3.695  11.112   4.992  0.1464  0.0503  0.1265
 9126SOL    HW130655   3.624  11.071   4.942  0.0623 -0.8333  0.9404
 9126SOL    HW230656   3.767  11.120   4.929 -0.8733  1.6322 -0.9232
 9127SOL     OW30657   2.502   0.874   7.838 -0.1212 -0.7183 -0.5110
 9127SOL    HW130658   2.527   0.863   7.746 -0.2740  1.4235 -0.8510
 9127SOL    HW230659   2.574   0.924   7.877 -0.0913 -1.5470  0.5381
 9128SOL     OW30660   6.258   0.012  10.620  0.0637 -0.0463  0.2857
 9128SOL    HW130661   6.262   0.066  10.541 -1.0757  0.7184  0.7268
 9128SOL    HW230662   6.212  -0.067  10.593  1.3597 -0.6420 -0.2591
 9129SOL     OW30663   3.954   2.317  10.607 -0.3971 -0.2768  0.5036
 9129SOL    HW130664   4.033   2.266  10.627 -0.8095 -0.9939  0.3350
 9129SOL    HW230665   3.954   2.325  10.512 -0.8155 -0.7647  0.4572
 9130SOL     OW30666   4.493   1.463   7.206 -0.5435 -0.3261  0.0310
 9130SOL    HW130667   4.496   1.517   7.285  0.6482 -0.7969  0.3282
 9130SOL    HW230668   4.482   1.374   7.238 -0.1014 -0.5154 -0.3414
 9131SOL     OW30669   8.880   3.427   1.945 -0.1038 -0.2693 -0.3744
 9131SOL    HW130670   8.856   3.461   1.859 -2.1085 -0.3296  0.1099
 9131SOL    HW230671   8.911   3.338   1.928  0.4418  0.0489 -1.1130
 9132SOL     OW30672   7.703   2.898   4.766  0.0469  0.7493  0.3647
 9132SOL    HW130673   7.735   2.901   4.676 -0.9300 -0.2868 -0.0415
 9132SOL    HW230674   7.691   2.805   4.783 -1.7667  1.0439  0.8393
 9133SOL     OW30675   3.678   0.950   8.364 -0.6300 -0.2245 -0.3331
 9133SOL    HW130676   3.610   1.007   8.401 -2.1470 -0.2265 -2.8869
 9133SOL    HW230677   3.739   1.011   8.323  0.1550 -0.3074  0.6544
 9134SOL     OW30678   0.245   4.589  10.584  0.0016  0.0651 -0.5947
 9134SOL    HW130679   0.326   4.616  10.627  0.4228 -2.2024  0.1656
 9134SOL    HW230680   0.181   4.585  10.655 -0.6967  1.3349 -1.1079
 9135SOL     OW30681   7.079   7.842   8.104 -0.1861 -0.0464  1.2214
 9135SOL    HW130682   7.122   7.901   8.043  1.0865 -1.7318  0.3995
 9135SOL    HW230683   7.036   7.900   8.167 -0.4301  1.7261 -0.4951
 9136SOL     OW30684  10.108   3.156   1.749 -0.4239 -0.0587  0.1598
 9136SOL    HW130685  10.036   3.095   1.766 -0.9374  0.7399  0.9060
 9136SOL    HW230686  10.123   3.200   1.833  0.5515  0.1999 -0.1349
 9137SOL     OW30687   2.533   9.630   1.625 -0.4775  0.1466 -0.5111
 9137SOL    HW130688   2.578   9.565   1.570 -1.4604  0.1863 -1.3977
 9137SOL    HW230689   2.441   9.604   1.622 -0.6860  0.7729  0.2731
 9138SOL     OW30690  10.359   7.311   3.323 -0.4492 -0.1457  0.4562
 9138SOL    HW130691  10.267   7.335   3.313 -0.4411 -0.0519  0.5977
 9138SOL    HW230692  10.363   7.266   3.408 -0.6263 -1.4305 -0.1838
 9139SOL     OW30693   1.588   1.826   4.573 -0.4395 -0.4818  0.0454
 9139SOL    HW130694   1.561   1.844   4.663 -1.6471 -1.0144 -0.1818
 9139SOL    HW230695   1.635   1.904   4.545  0.5616 -0.5847  1.3545
 9140SOL     OW30696   3.675   1.305  10.875 -0.4085  0.0610 -0.6360
 9140SOL    HW130697   3.757   1.354  10.878 -0.9655  0.9839 -0.0368
 9140SOL    HW230698   3.663   1.273  10.964 -1.2912  0.9609 -0.4125
 9141SOL     OW30699   2.443  10.752  10.783 -0.0798  0.0047  0.0337
 9141SOL    HW130700   2.365  10.752  10.839  0.3069 -1.6213  0.6216
 9141SOL    HW230701   2.487  10.670  10.804  3.9376  2.4962  2.7206
 9142SOL     OW30702   0.505   5.625   1.639 -0.1845  0.4689 -0.0028
 9142SOL    HW130703   0.461   5.649   1.720  0.2300  0.4986  0.2149
 9142SOL    HW230704   0.596   5.655   1.651  0.3779 -1.2719  0.3079
 9143SOL     OW30705   0.822   6.491   7.350 -0.3368  0.2636 -0.0172
 9143SOL    HW130706   0.799   6.440   7.428  0.1565 -0.4216 -0.3058
 9143SOL    HW230707   0.910   6.524   7.368 -0.6593  1.0360  0.1718
 9144SOL     OW30708   5.469   3.468   6.416 -0.7869  0.4975  0.0635
 9144SOL    HW130709   5.451   3.402   6.349 -0.9107  0.1471  0.4317
 9144SOL    HW230710   5.408   3.446   6.487 -0.9711  1.1332  0.1094
 9145SOL     OW30711   1.197   8.095   9.010  0.0830 -0.3274 -0.3014
 9145SOL    HW130712   1.131   8.027   8.993 -0.6684  0.4169 -0.4275
 9145SOL    HW230713   1.265   8.050   9.060  0.2875 -1.5202 -1.5862
 9146SOL     OW30714   5.810  10.254   0.675  0.2107 -0.0868  0.1632
 9146SOL    HW130715   5.716  10.271   0.682 -0.0515 -1.2633 -0.2108
 9146SOL    HW230716   5.819  10.207   0.592  0.7962 -2.0738  1.3016
 9147SOL     OW30717   6.442  10.726  10.645 -0.3038  0.2545  0.0788
 9147SOL    HW130718   6.384  10.652  10.664  1.0531 -1.5988 -2.4891
 9147SOL    HW230719   6.513  10.717  10.709 -0.3703 -0.4253  0.0706
 9148SOL     OW30720   4.746   4.225   6.303 -0.3227 -0.4145  0.1193
 9148SOL    HW130721   4.832   4.247   6.341  0.5166  0.9289 -2.3355
 9148SOL    HW230722   4.758   4.137   6.268  0.7274  0.4317 -1.8031
 9149SOL     OW30723   6.212   1.473   8.323  0.0188  0.1009 -0.3475
 9149SOL    HW130724   6.183   1.479   8.414 -0.1864 -0.9605 -0.3284
 9149SOL    HW230725   6.305   1.452   8.328  0.3794  1.5758 -0.4047
 9150SOL     OW30726   2.112   0.234   8.668  0.6934 -0.5323 -0.0739
 9150SOL    HW130727   2.114   0.321   8.709  0.5471 -1.0851  1.1577
 9150SOL    HW230728   2.101   0.252   8.575 -1.6800  0.7403  0.3663
 9151SOL     OW30729   5.824   8.785   3.784  0.3826 -0.0332 -0.2809
 9151SOL    HW130730   5.760   8.796   3.855  0.4554 -1.4409  0.0256
 9151SOL    HW230731   5.833   8.873   3.747 -1.2927  0.3099  0.0403
 9152SOL     OW30732   1.092  10.820  10.272  0.1161 -0.3911  0.1974
 9152SOL    HW130733   1.031  10.819  10.345 -1.1839 -1.3010 -0.8415
 9152SOL    HW230734   1.176  10.843  10.310 -0.2477 -2.0969  2.1905
 9153SOL     OW30735   0.526   6.285  10.014  0.5057  0.3394 -0.5870
 9153SOL    HW130736   0.461   6.353   9.999 -1.0024 -1.0875 -0.8384
 9153SOL    HW230737   0.566   6.308  10.098 -0.8889  0.8496 -0.0352
 9154SOL     OW30738   9.666   2.274   8.915  0.6062 -0.3595 -0.1032
 9154SOL    HW130739   9.684   2.343   8.851 -1.3133 -0.1696 -0.5058
 9154SOL    HW230740   9.723   2.295   8.989 -0.9275  2.5871  0.3848
 9155SOL     OW30741   1.264   5.770   2.453  0.1232  0.0480  0.2924
 9155SOL    HW130742   1.206   5.764   2.377  0.3501  0.8309  0.0487
 9155SOL    HW230743   1.219   5.720   2.521 -0.5724  0.1710 -0.0657
 9156SOL     OW30744   2.071   1.558   9.927  0.8649  0.5946 -0.0673
 9156SOL    HW130745   2.048   1.524   9.841  0.3065  0.5435  0.0968
 9156SOL    HW230746   2.148   1.613   9.911  1.1787  0.0474 -0.4868
 9157SOL     OW30747   8.281   9.064   7.664 -0.0068  0.0533  0.2385
 9157SOL    HW130748   8.236   9.010   7.599 -0.2396 -1.7462  1.8062
 9157SOL    HW230749   8.353   9.009   7.695  1.5339  1.7693 -0.1194
 9158SOL     OW30750   9.144   2.454   2.953  0.1875 -0.4254  0.4734
 9158SOL    HW130751   9.210   2.483   2.889 -1.2720 -0.8236 -1.3139
 9158SOL    HW230752   9.164   2.361   2.967 -0.6795 -0.8755 -1.0387
 9159SOL     OW30753   2.593   4.378   3.355  0.2992 -0.0109 -0.1178
 9159SOL    HW130754   2.683   4.383   3.325 -0.2619  0.6447 -1.8661
 9159SOL    HW230755   2.595   4.404   3.447  2.0122 -1.1160  0.1879
 9160SOL     OW30756   9.614   1.394   4.865  0.8046 -0.6641  0.2449
 9160SOL    HW130757   9.546   1.451   4.902 -0.4785 -3.1404  1.9960
 9160SOL    HW230758   9.659   1.359   4.942  4.4820  1.1575 -0.8336
 9161SOL     OW30759  11.097   9.112   4.461 -0.2797  0.2127  0.0154
 9161SOL    HW130760  11.127   9.036   4.411  1.2025  0.5780  0.3026
 9161SOL    HW230761  11.177   9.159   4.484 -1.1706  2.0253 -0.3934
 9162SOL     OW30762   7.765   6.100   6.215 -0.3932  0.4534 -0.0104
 9162SOL    HW130763   7.676   6.101   6.250 -0.7190 -2.8260 -0.3853
 9162SOL    HW230764   7.753   6.101   6.120 -0.1843 -1.3279 -0.0926
 9163SOL     OW30765   7.256   1.991   3.903  0.1711 -0.1083 -0.3740
 9163SOL    HW130766   7.170   2.032   3.913 -0.0691 -0.6520 -0.1911
 9163SOL    HW230767   7.298   2.004   3.988  0.7001  1.1092 -0.7960
 9164SOL     OW30768   7.428   0.702  10.364 -0.5517  0.1339 -0.2815
 9164SOL    HW130769   7.515   0.728  10.332  0.3467 -0.1114  1.7755
 9164SOL    HW230770   7.386   0.784  10.389  0.3880  0.0928  1.6676
 9165SOL     OW30771   5.063  10.807   9.182 -0.1561  0.0641  0.1684
 9165SOL    HW130772   5.155  10.785   9.196 -0.0159 -0.7293 -1.7336
 9165SOL    HW230773   5.065  10.891   9.136 -0.2876 -0.7923 -1.4414
 9166SOL     OW30774   6.405   6.484   5.477  0.2018  0.6069 -0.4602
 9166SOL    HW130775   6.445   6.541   5.542  0.2166  1.3769 -1.1252
 9166SOL    HW230776   6.458   6.496   5.398  0.9022 -1.2089 -0.3146
 9167SOL     OW30777   3.620   3.579   7.356  0.1307 -0.3811  0.4205
 9167SOL    HW130778   3.683   3.536   7.415  0.0396  1.1248  1.6858
 9167SOL    HW230779   3.550   3.515   7.345 -0.7311 -0.1362  3.4589
 9168SOL     OW30780   9.667   1.162  10.881  0.3140 -0.5033  0.4017
 9168SOL    HW130781   9.572   1.155  10.871  0.2095  0.0529  0.9511
 9168SOL    HW230782   9.684   1.125  10.968  0.5166  0.0194  0.5870
 9169SOL     OW30783   1.704  10.107   1.665  0.0609 -0.7174  0.3428
 9169SOL    HW130784   1.648  10.137   1.593 -1.0277  2.2667  2.2935
 9169SOL    HW230785   1.656  10.034   1.704  0.1627 -1.6681 -1.2041
 9170SOL     OW30786   4.902   0.956   3.565 -0.5870  0.6476 -0.3494
 9170SOL    HW130787   4.986   0.957   3.521 -1.4278  0.6073 -2.0247
 9170SOL    HW230788   4.911   1.020   3.636  0.2947  1.9360 -1.5705
 9171SOL     OW30789  10.877   7.551   2.821  0.1600 -0.0358  0.0673
 9171SOL    HW130790  10.963   7.508   2.812 -0.4356 -1.4143  0.6656
 9171SOL    HW230791  10.814   7.481   2.804 -0.8527  0.3601  1.9911
 9172SOL     OW30792   3.441   3.500   1.594 -0.0572  0.6935 -1.1791
 9172SOL    HW130793   3.454   3.509   1.688  1.5933  1.4506 -1.4402
 9172SOL    HW230794   3.347   3.487   1.584 -0.4327  1.7574  0.4890
 9173SOL     OW30795   2.202   9.175   0.200 -0.8413  0.5200  0.2229
 9173SOL    HW130796   2.231   9.204   0.287 -1.7756  1.2522  0.3052
 9173SOL    HW230797   2.215   9.251   0.144 -0.7423  0.2195 -0.1621
 9174SOL     OW30798   3.647  10.626   7.241 -0.3728 -0.1351 -0.2508
 9174SOL    HW130799   3.664  10.532   7.252 -0.0039 -0.2063 -1.3512
 9174SOL    HW230800   3.696  10.667   7.312  0.3775 -0.6950 -0.4372
 9175SOL     OW30801   5.741   9.521   2.594  0.1377  0.3461 -0.2592
 9175SOL    HW130802   5.793   9.493   2.519  1.0974  0.0187  0.5129
 9175SOL    HW230803   5.804   9.565   2.652 -0.6842  1.0569  0.1195
 9176SOL     OW30804   1.746   0.185   2.795  0.1805 -0.1812  0.2234
 9176SOL    HW130805   1.759   0.280   2.798 -0.7775  0.0556 -1.5568
 9176SOL    HW230806   1.669   0.169   2.850 -0.0638  0.1726 -0.0108
 9177SOL     OW30807  10.842   2.762   1.936  0.5422  0.0555  0.1206
 9177SOL    HW130808  10.776   2.830   1.953 -0.5793 -1.1286  0.6875
 9177SOL    HW230809  10.857   2.767   1.842 -0.2159  0.4718  0.0125
 9178SOL     OW30810   8.759   2.566   4.874  0.2764 -0.1973  0.6626
 9178SOL    HW130811   8.740   2.513   4.797  1.3273  1.1369 -0.5685
 9178SOL    HW230812   8.834   2.522   4.915  0.9197  0.1121 -0.1514
 9179SOL     OW30813   7.890   8.131   0.919 -0.0365  0.1785  0.2525
 9179SOL    HW130814   7.859   8.062   0.976 -2.0325 -0.4400 -1.4330
 9179SOL    HW230815   7.942   8.087   0.852 -1.5909  0.1879 -1.0204
 9180SOL     OW30816   1.165   3.644   9.638  0.1548  0.0113 -0.6746
 9180SOL    HW130817   1.169   3.712   9.571 -1.5420  0.6271 -0.1950
 9180SOL    HW230818   1.149   3.564   9.590  0.3353  0.2318 -1.1067
 9181SOL     OW30819   1.058  10.461   2.265 -0.1906  0.5444 -0.6550
 9181SOL    HW130820   0.990  10.528   2.270  2.8848  3.8591  1.3580
 9181SOL    HW230821   1.045  10.408   2.344  0.4040  2.1362  0.5551
 9182SOL     OW30822  10.291   4.507   3.757 -0.1469 -0.0114  0.4431
 9182SOL    HW130823  10.241   4.553   3.689  1.6675  1.5305  0.0789
 9182SOL    HW230824  10.328   4.431   3.712 -1.8886 -1.0492  0.6643
 9183SOL     OW30825   7.604   2.510   6.748  0.1683  0.2362  0.6439
 9183SOL    HW130826   7.642   2.574   6.688  1.3359 -1.8431 -0.9807
 9183SOL    HW230827   7.680   2.464   6.785 -0.6461 -1.1410  0.6576
 9184SOL     OW30828  10.432  11.053   1.085  0.0786  0.2545  0.1360
 9184SOL    HW130829  10.470  11.055   0.997 -2.0514  2.0704 -0.8575
 9184SOL    HW230830  10.442  11.143   1.117 -2.3649  0.5554  0.2136
 9185SOL     OW30831   2.656  11.332   9.016 -0.1933  0.1817  0.1656
 9185SOL    HW130832   2.713  11.255   9.005  0.4967  0.6591  0.3874
 9185SOL    HW230833   2.589  11.320   8.948  1.9771  1.2378 -2.3585
 9186SOL     OW30834   9.667   1.383   9.514  0.0293  0.5558  0.0152
 9186SOL    HW130835   9.630   1.312   9.461 -0.1431  0.6394  0.0228
 9186SOL    HW230836   9.630   1.370   9.601 -2.0052  2.0902 -0.5317
 9187SOL     OW30837  11.252   5.352   0.932  0.1244 -0.4672 -0.7034
 9187SOL    HW130838  11.336   5.377   0.970  0.3353 -3.3107  1.0612
 9187SOL    HW230839  11.188   5.370   1.002 -0.5327  0.2450 -1.4625
 9188SOL     OW30840   5.160   9.434   0.789  0.2385 -0.1542  0.2227
 9188SOL    HW130841   5.135   9.415   0.699 -1.1893 -1.0742  0.7767
 9188SOL    HW230842   5.134   9.525   0.803  0.3469 -0.0499 -0.2382
 9189SOL     OW30843  11.075   7.894   0.204 -0.5009 -0.5776  0.1825
 9189SOL    HW130844  11.112   7.983   0.199 -0.6771 -0.5268 -0.3257
 9189SOL    HW230845  11.124   7.852   0.274 -1.4767  0.4068  1.5174
 9190SOL     OW30846   9.829   3.668   4.445  0.0480 -0.1475 -0.0685
 9190SOL    HW130847   9.734   3.658   4.457 -0.1213  0.8592 -0.4830
 9190SOL    HW230848   9.845   3.633   4.357  0.2786 -1.5189  0.4966
 9191SOL     OW30849   1.027  11.123   1.779  0.2789 -0.2793  0.3045
 9191SOL    HW130850   1.064  11.045   1.820  1.9002 -0.6293 -1.6610
 9191SOL    HW230851   0.934  11.102   1.766  0.6158 -1.7537  0.1298
 9192SOL     OW30852   6.716   8.784   4.119  0.6688  0.4299  0.0980
 9192SOL    HW130853   6.633   8.789   4.072  0.7330  1.7862  0.0882
 9192SOL    HW230854   6.762   8.864   4.097  1.8850 -0.1719  0.3235
 9193SOL     OW30855   2.588   7.472  10.355 -0.2592 -0.1423 -0.0561
 9193SOL    HW130856   2.564   7.386  10.390 -0.1983  0.0411  0.4434
 9193SOL    HW230857   2.594   7.458  10.260  0.0604 -0.7628  0.0468
 9194SOL     OW30858   2.876   8.960   9.635  0.1638 -0.1599 -0.1226
 9194SOL    HW130859   2.860   8.956   9.541 -2.8882  0.9183  0.2454
 9194SOL    HW230860   2.791   8.943   9.675  1.2133  0.1388  2.4453
 9195SOL     OW30861   1.874   7.621   5.755 -0.0386  0.1336 -0.0620
 9195SOL    HW130862   1.882   7.539   5.802 -1.0866  0.4815  0.7535
 9195SOL    HW230863   1.786   7.653   5.775  0.1556  1.2020 -0.7766
 9196SOL     OW30864   8.623   9.578   0.569  0.1980  0.8689  0.0817
 9196SOL    HW130865   8.699   9.613   0.524  1.1785 -0.5714  0.5630
 9196SOL    HW230866   8.653   9.561   0.659  0.2522 -2.4291 -0.4297
 9197SOL     OW30867   9.415   4.850   7.410  0.4965 -0.2818 -0.0556
 9197SOL    HW130868   9.393   4.921   7.471 -0.3000 -1.4672  1.1015
 9197SOL    HW230869   9.336   4.795   7.408  0.8797 -0.8249 -1.3895
 9198SOL     OW30870   8.228   1.111   0.167  0.4993  0.5303  0.6049
 9198SOL    HW130871   8.196   1.100   0.256  1.7374 -0.4210  0.9455
 9198SOL    HW230872   8.267   1.199   0.166 -0.1224  0.8172  0.7853
 9199SOL     OW30873   6.231   2.068   9.684  0.3405 -0.0580  0.0741
 9199SOL    HW130874   6.261   1.988   9.728  0.4905  0.6588  1.3182
 9199SOL    HW230875   6.141   2.048   9.657  1.3843 -1.7699 -2.5582
 9200SOL     OW30876   3.970   2.400   8.609  0.2836 -0.0825  0.9380
 9200SOL    HW130877   4.016   2.420   8.528  2.0128  0.1057  1.9214
 9200SOL    HW230878   3.878   2.391   8.583  0.7158  0.5094 -0.9312
 9201SOL     OW30879   1.195  10.308   6.746  0.1779 -0.1648 -0.6178
 9201SOL    HW130880   1.105  10.275   6.745 -0.3703  0.9666  1.9220
 9201SOL    HW230881   1.248  10.234   6.776 -0.1437 -0.4155 -0.6696
 9202SOL     OW30882   3.830   0.804   9.111  0.2864 -0.1014 -0.2985
 9202SOL    HW130883   3.892   0.741   9.073  1.0341  0.4871 -0.0777
 9202SOL    HW230884   3.745   0.776   9.078  0.5636 -1.3896 -0.0060
 9203SOL     OW30885  10.999   9.795  11.278 -0.2856  0.6194 -0.2752
 9203SOL    HW130886  10.907   9.770  11.284 -0.5395  1.5712  0.0555
 9203SOL    HW230887  11.044   9.734  11.337 -0.9548  1.2359  0.9166
 9204SOL     OW30888   9.665   3.492   3.275  0.4864  0.3704 -1.0973
 9204SOL    HW130889   9.716   3.447   3.208  0.9114  0.7613 -1.0380
 9204SOL    HW230890   9.581   3.446   3.275  0.6414  0.0733 -1.5772
 9205SOL     OW30891   8.578   5.557   4.356 -0.3555  0.5048 -0.0628
 9205SOL    HW130892   8.517   5.612   4.405 -1.0355  0.4650 -0.8402
 9205SOL    HW230893   8.663   5.598   4.367 -0.1865 -0.3306  2.4256
 9206SOL     OW30894   7.404   0.708   5.075  0.2583  0.0757  0.1127
 9206SOL    HW130895   7.350   0.740   5.148 -0.7864 -1.4019  0.0325
 9206SOL    HW230896   7.341   0.667   5.016  0.8126  2.7673 -2.5619
 9207SOL     OW30897  10.090   5.546   9.204  0.0647 -0.0809  0.0533
 9207SOL    HW130898  10.160   5.496   9.246  0.1594  1.9733  2.5776
 9207SOL    HW230899  10.010   5.501   9.230  0.2104  0.4014  1.4531
 9208SOL     OW30900   6.369   9.727   9.638  0.4319  0.0375  0.0518
 9208SOL    HW130901   6.306   9.798   9.655 -0.7995 -0.9789 -0.0930
 9208SOL    HW230902   6.324   9.648   9.667  1.9492 -0.6618  0.6117
 9209SOL     OW30903   6.184  11.188   6.150  0.3983 -0.2373  0.0582
 9209SOL    HW130904   6.214  11.265   6.101  2.2536 -1.7023 -1.2449
 9209SOL    HW230905   6.172  11.220   6.239  2.3132  1.3180 -0.1726
 9210SOL     OW30906   2.753  11.241   4.358 -0.0445 -0.7397  0.1608
 9210SOL    HW130907   2.708  11.173   4.307  0.9146 -0.0503 -1.6956
 9210SOL    HW230908   2.840  11.247   4.319 -0.3145  2.0251 -0.2053
 9211SOL     OW30909   4.484   3.501   9.053 -0.1836 -0.5786 -0.0649
 9211SOL    HW130910   4.389   3.497   9.055 -0.2084  0.1876  0.9600
 9211SOL    HW230911   4.512   3.422   9.099 -0.3457 -0.2860  0.5454
 9212SOL     OW30912   3.861   9.755   5.652 -0.1100  0.1180  0.0039
 9212SOL    HW130913   3.891   9.666   5.671  1.3919  0.6085  0.0448
 9212SOL    HW230914   3.766   9.752   5.666  0.0001 -1.3147  0.5979
 9213SOL     OW30915   0.711   7.775   5.406  0.0129 -0.1718  0.5637
 9213SOL    HW130916   0.774   7.723   5.356  1.5479  1.5766  0.5725
 9213SOL    HW230917   0.763   7.814   5.476 -1.0813  1.3087  0.6005
 9214SOL     OW30918   4.981   1.003  10.532 -0.5289 -0.0550 -0.2602
 9214SOL    HW130919   4.990   1.098  10.527 -0.7420 -0.0417 -0.3806
 9214SOL    HW230920   4.907   0.988  10.590 -3.0592 -0.0558 -3.2131
 9215SOL     OW30921  10.111  10.489   4.431 -0.7250 -0.6309  0.6871
 9215SOL    HW130922  10.091  10.557   4.366 -0.8713  0.8279  2.2056
 9215SOL    HW230923  10.027  10.446   4.446 -0.6255 -1.2124 -0.2999
 9216SOL     OW30924  10.139   4.523   7.140 -0.0226 -0.0379  0.1687
 9216SOL    HW130925  10.057   4.479   7.165  0.1766 -0.0991  0.7372
 9216SOL    HW230926  10.158   4.491   7.052  0.1930 -1.2250  0.6297
 9217SOL     OW30927  10.106   9.850   9.814 -0.1576 -0.0908  0.4084
 9217SOL    HW130928  10.121   9.857   9.908  0.9010  1.8334  0.1521
 9217SOL    HW230929  10.140   9.764   9.791 -0.3396 -0.5504  1.7457
 9218SOL     OW30930   6.475   3.713   1.210 -0.1507  0.2361  0.0221
 9218SOL    HW130931   6.474   3.622   1.241  0.2580  0.3950  0.5037
 9218SOL    HW230932   6.542   3.713   1.142 -1.2214 -0.1700 -1.0701
 9219SOL     OW30933   0.263   0.969   2.997 -0.6976 -0.8519  0.3955
 9219SOL    HW130934   0.286   0.887   3.040 -2.4387 -1.6907 -0.1921
 9219SOL    HW230935   0.168   0.973   3.001 -0.6713  1.1146  0.3196
 9220SOL     OW30936   2.812   3.863  10.470 -0.0542  0.5968 -0.2772
 9220SOL    HW130937   2.872   3.847  10.398 -1.5827  0.4421 -1.5740
 9220SOL    HW230938   2.742   3.799  10.458 -1.6770  2.2714 -0.2222
 9221SOL     OW30939  11.117   3.807  10.742  0.3169 -0.3883  0.1865
 9221SOL    HW130940  11.152   3.813  10.653 -2.3457 -2.1444 -1.1056
 9221SOL    HW230941  11.129   3.715  10.766 -0.4060 -0.2771  1.0132
 9222SOL     OW30942   1.329   7.828   1.365 -0.2073  0.3824  0.2856
 9222SOL    HW130943   1.274   7.899   1.330 -0.3560  1.2059  2.0775
 9222SOL    HW230944   1.270   7.753   1.371 -0.2536  0.2994 -0.8764
 9223SOL     OW30945   3.107   6.326   0.686 -0.1218 -0.4808  0.2087
 9223SOL    HW130946   3.086   6.262   0.753 -1.3172 -0.7616 -0.4122
 9223SOL    HW230947   3.124   6.274   0.607  0.9105 -0.1361  0.1809
 9224SOL     OW30948   0.605   3.979  11.028  0.1476 -0.2563 -0.5122
 9224SOL    HW130949   0.523   3.932  11.041 -0.0979  0.4351  0.6181
 9224SOL    HW230950   0.646   3.980  11.115  0.1433  1.5421 -0.4797
 9225SOL     OW30951   5.968   7.117   1.811  0.2350 -0.2410 -0.0974
 9225SOL    HW130952   5.965   7.021   1.808  0.8236 -0.2636 -0.1355
 9225SOL    HW230953   6.040   7.140   1.752  1.6815  0.0985  1.6984
 9226SOL     OW30954   2.411   7.084  10.818 -0.2054 -0.0355 -0.0096
 9226SOL    HW130955   2.480   7.109  10.756 -1.2491  0.1512 -1.1484
 9226SOL    HW230956   2.436   7.126  10.900 -0.3868  2.3893 -1.0973
 9227SOL     OW30957   2.544   3.432   8.939  0.2888  0.0054  0.8605
 9227SOL    HW130958   2.560   3.351   8.892 -2.3734 -0.2541  0.2213
 9227SOL    HW230959   2.553   3.501   8.872  1.2659  0.1368  1.1122
 9228SOL     OW30960   6.276   1.552   5.111 -1.2711  0.6169 -0.0389
 9228SOL    HW130961   6.183   1.533   5.120 -1.4890  1.1886 -0.9462
 9228SOL    HW230962   6.297   1.606   5.187 -1.1717 -1.2146  1.3154
 9229SOL     OW30963   3.854   1.280  10.109  0.2336  0.1112 -0.2714
 9229SOL    HW130964   3.920   1.349  10.106  0.9631 -0.5769 -0.4330
 9229SOL    HW230965   3.839   1.265  10.202  1.0685 -0.4250 -0.2118
 9230SOL     OW30966   3.807  10.011  11.224 -0.1079 -0.1512 -0.1324
 9230SOL    HW130967   3.791   9.941  11.160  0.8821 -0.9610  0.4717
 9230SOL    HW230968   3.863   9.971  11.290  2.3175  1.7798 -0.8588
 9231SOL     OW30969   4.573   7.376   8.488 -0.0224 -0.2288  0.0154
 9231SOL    HW130970   4.510   7.342   8.552 -1.2027 -0.7015 -1.3470
 9231SOL    HW230971   4.531   7.454   8.452  0.5945 -0.0109 -0.2503
 9232SOL     OW30972   1.369   6.406   7.927 -0.1023 -0.4067 -0.3873
 9232SOL    HW130973   1.287   6.382   7.971  0.1375 -0.4651  0.0251
 9232SOL    HW230974   1.344   6.415   7.835 -0.0500 -3.2148 -0.7639
 9233SOL     OW30975   1.106   5.453   0.727  0.6983  0.3390 -0.6904
 9233SOL    HW130976   1.056   5.519   0.678  0.7921  0.4378 -0.6526
 9233SOL    HW230977   1.158   5.503   0.789 -0.1524  0.1512  0.1866
 9234SOL     OW30978   7.399   0.017   6.580 -0.0015  0.1639  0.4451
 9234SOL    HW130979   7.378   0.096   6.630 -4.3519 -0.5468  0.1244
 9234SOL    HW230980   7.392  -0.054   6.644  0.2356 -0.2892 -0.0227
 9235SOL     OW30981   3.243  10.976   1.855 -0.4439  0.2368  0.8532
 9235SOL    HW130982   3.207  11.060   1.829 -2.6436 -0.5318  1.2401
 9235SOL    HW230983   3.234  10.920   1.778  1.3907  0.4090  0.4590
 9236SOL     OW30984   2.527   5.167   6.539  0.0570 -0.4698  0.2341
 9236SOL    HW130985   2.622   5.167   6.553  0.1492 -0.2635 -0.3822
 9236SOL    HW230986   2.512   5.096   6.477  0.2865  1.9045 -2.7414
 9237SOL     OW30987   6.659   9.565   9.942 -0.5533 -0.2612  0.4187
 9237SOL    HW130988   6.653   9.469   9.951  1.4177 -0.7243 -2.0751
 9237SOL    HW230989   6.722   9.591  10.009 -1.6422 -0.5710  1.6000
 9238SOL     OW30990   3.257   3.377   7.117  0.5603 -0.2954 -0.3695
 9238SOL    HW130991   3.252   3.330   7.200 -0.0005 -0.7439 -0.6502
 9238SOL    HW230992   3.241   3.469   7.140  0.1960 -0.4448 -0.0128
 9239SOL     OW30993   1.727   3.755   5.338  0.2766 -0.5815  0.2474
 9239SOL    HW130994   1.643   3.793   5.313  1.1380  0.4380 -1.2411
 9239SOL    HW230995   1.711   3.661   5.340 -1.1269 -0.3545  0.9478
 9240SOL     OW30996   1.562   3.539   4.693 -0.2484  0.5003  0.4279
 9240SOL    HW130997   1.523   3.454   4.715  0.6061  0.0838  0.3864
 9240SOL    HW230998   1.580   3.580   4.777  1.2722 -0.2781  0.5134
 9241SOL     OW30999   0.793   4.242   0.831  0.5828  0.5296  0.3695
 9241SOL    HW131000   0.830   4.270   0.914 -2.5482 -1.3515  2.6178
 9241SOL    HW231001   0.819   4.150   0.823 -1.2187 -0.0528  0.6742
 9242SOL     OW31002   0.391   1.123   0.722 -0.0675 -0.4021 -0.5058
 9242SOL    HW131003   0.465   1.177   0.752  0.5977 -0.5139 -1.8671
 9242SOL    HW231004   0.359   1.080   0.801  1.3013 -0.3102  0.1275
 9243SOL     OW31005   7.164   8.563   6.225  0.3404 -0.0120  0.5666
 9243SOL    HW131006   7.142   8.628   6.291 -1.9917 -1.0854  0.9553
 9243SOL    HW231007   7.176   8.482   6.275  4.1547  0.1565  0.2118
 9244SOL     OW31008   8.503   3.408   9.671  0.2003  0.0092 -0.3221
 9244SOL    HW131009   8.477   3.495   9.701 -2.1556 -1.1068  1.1844
 9244SOL    HW231010   8.427   3.376   9.622  0.9340 -1.2716 -0.6847
 9245SOL     OW31011  10.949  11.037   3.811 -0.2822 -0.1810 -0.4010
 9245SOL    HW131012  10.988  11.002   3.891 -0.9553 -0.4269 -0.1765
 9245SOL    HW231013  10.893  10.967   3.779  0.9175 -0.5600 -1.7657
 9246SOL     OW31014   6.926   8.542   1.640 -0.6313 -0.1279  0.1149
 9246SOL    HW131015   6.912   8.457   1.598 -3.6286  1.0742 -1.6786
 9246SOL    HW231016   6.916   8.524   1.733 -2.0018 -1.6688 -0.2745
 9247SOL     OW31017   9.282   0.551   6.500  0.5212 -0.2063  0.3358
 9247SOL    HW131018   9.375   0.534   6.516  0.2359 -0.8605  1.4255
 9247SOL    HW231019   9.241   0.542   6.586 -0.5156  0.3502 -0.0829
 9248SOL     OW31020   5.362   4.131   6.500 -0.6013  0.2106 -0.4044
 9248SOL    HW131021   5.416   4.199   6.460  0.1334 -0.1476 -0.0343
 9248SOL    HW231022   5.355   4.157   6.592 -1.5225  0.5417 -0.5520
 9249SOL     OW31023   1.698   5.745   7.463  0.5306  0.0979 -0.1211
 9249SOL    HW131024   1.759   5.761   7.392 -0.3009  2.4176 -0.4112
 9249SOL    HW231025   1.730   5.799   7.535  0.6092 -1.1836  0.8345
 9250SOL     OW31026   9.671   1.081   8.739 -0.2053 -0.2745 -0.0629
 9250SOL    HW131027   9.709   1.035   8.813 -0.1587 -0.4157 -0.1753
 9250SOL    HW231028   9.733   1.152   8.720  1.0987 -1.7336 -1.5705
 9251SOL     OW31029   6.066   7.080   9.778  0.4966  0.0825  0.3772
 9251SOL    HW131030   6.117   7.093   9.858 -0.6450 -0.2977  1.1871
 9251SOL    HW231031   6.050   6.986   9.775  0.2237  0.1409 -0.1201
 9252SOL     OW31032   0.710   5.026   5.169 -0.3379 -0.2237  0.1450
 9252SOL    HW131033   0.626   4.994   5.203 -1.0019  0.8055 -0.4277
 9252SOL    HW231034   0.688   5.111   5.130  1.2668  0.8153  1.3890
 9253SOL     OW31035   3.860  10.907   8.754 -0.1026  0.0699 -0.1344
 9253SOL    HW131036   3.896  10.992   8.729  1.3700 -0.4588  0.1064
 9253SOL    HW231037   3.925  10.870   8.814 -0.1842 -1.6973 -1.0750
 9254SOL     OW31038  10.280   4.218   9.042  0.8822  0.4756 -0.6600
 9254SOL    HW131039  10.238   4.158   9.103 -1.0659  0.2616 -2.1064
 9254SOL    HW231040  10.369   4.184   9.033  0.2614 -1.3716 -0.3607
 9255SOL     OW31041   3.485   9.940   6.043  0.1242  0.0944 -0.3318
 9255SOL    HW131042   3.540   9.990   5.983  0.3325 -1.8835 -1.9100
 9255SOL    HW231043   3.399   9.936   6.000 -0.4050  0.5755  0.6400
 9256SOL     OW31044   4.611   5.889   4.295 -0.0291  0.2090  0.2631
 9256SOL    HW131045   4.551   5.951   4.338  0.0590 -1.2799  2.6851
 9256SOL    HW231046   4.557   5.812   4.277  1.0956 -1.2395  2.6738
 9257SOL     OW31047   8.182   9.460   5.444  0.3334  0.3319  0.0987
 9257SOL    HW131048   8.152   9.537   5.395  0.0109 -0.8059 -1.5552
 9257SOL    HW231049   8.259   9.430   5.397 -1.4127 -2.2789 -1.3634
 9258SOL     OW31050   8.388   6.009   1.126  0.3709 -0.6479 -0.9841
 9258SOL    HW131051   8.470   6.044   1.161 -0.1641  3.4604 -3.2455
 9258SOL    HW231052   8.329   6.008   1.201  1.1480  1.2325 -0.2885
 9259SOL     OW31053   1.661   0.414   5.887  0.5863 -0.6200 -0.1277
 9259SOL    HW131054   1.656   0.349   5.817  1.3079 -0.8248  0.0064
 9259SOL    HW231055   1.622   0.370   5.962  1.6342 -1.1350  0.1289
 9260SOL     OW31056   0.297   6.339   4.610  0.6482 -0.0643 -0.2005
 9260SOL    HW131057   0.324   6.255   4.648 -1.0157  0.2565  1.8890
 9260SOL    HW231058   0.345   6.405   4.659 -2.1190  0.3984  2.2038
 9261SOL     OW31059   7.511   8.548   6.350  0.2735 -0.2730  0.1974
 9261SOL    HW131060   7.443   8.537   6.416 -1.0405 -0.1226 -1.0751
 9261SOL    HW231061   7.588   8.577   6.399 -0.1177 -1.8998  1.8690
 9262SOL     OW31062  11.283   6.187   8.244  0.3245  0.1278  0.0724
 9262SOL    HW131063  11.200   6.224   8.216  0.3121 -0.4760 -0.7188
 9262SOL    HW231064  11.291   6.213   8.336 -1.2498 -0.6935  0.4722
 9263SOL     OW31065   0.612   5.419   9.354  0.8017  0.0250  0.1285
 9263SOL    HW131066   0.607   5.481   9.426  0.4317 -0.3477  0.4253
 9263SOL    HW231067   0.565   5.342   9.384 -0.5399  0.3578 -1.0150
 9264SOL     OW31068   7.097   0.213   6.967  0.6613  0.4559 -0.0007
 9264SOL    HW131069   7.140   0.160   7.033  0.9069 -0.9267 -1.2418
 9264SOL    HW231070   7.008   0.177   6.960  1.0538 -0.3290 -1.3715
 9265SOL     OW31071   0.777   5.637   1.709  0.2712  0.0550  0.2530
 9265SOL    HW131072   0.854   5.676   1.749  0.3936 -0.4745  0.5341
 9265SOL    HW231073   0.810   5.561   1.661  0.0440  0.3320 -0.3525
 9266SOL     OW31074   9.546   1.417   5.195  0.4831 -0.4189 -0.1198
 9266SOL    HW131075   9.610   1.353   5.166 -1.0742 -1.7867 -0.7048
 9266SOL    HW231076   9.480   1.419   5.125 -0.3161  0.6446  0.6230
 9267SOL     OW31077   0.703   0.350   0.376 -0.1349 -0.3987 -0.4349
 9267SOL    HW131078   0.619   0.343   0.331 -0.1965 -1.0147 -0.2289
 9267SOL    HW231079   0.703   0.279   0.440  0.3672 -0.1467 -0.1406
 9268SOL     OW31080  10.082   0.038   0.392  0.2094 -0.1596  0.0181
 9268SOL    HW131081  10.084   0.041   0.297 -0.1152 -2.4219 -0.1097
 9268SOL    HW231082  10.000   0.081   0.416 -0.4315 -0.8700 -0.8346
 9269SOL     OW31083   5.945   2.082   6.938 -0.5747 -0.4000  0.4061
 9269SOL    HW131084   5.962   2.098   7.031 -1.0632 -0.3723  0.4895
 9269SOL    HW231085   5.866   2.132   6.919 -1.6173 -1.9671  0.4553
 9270SOL     OW31086   7.773   8.764   7.737  0.4243 -0.3325  0.6114
 9270SOL    HW131087   7.701   8.823   7.713  0.3519 -0.5855  0.1834
 9270SOL    HW231088   7.840   8.820   7.775  0.5452  0.0911 -0.2103
 9271SOL     OW31089  10.260   4.978  10.782  0.0691  0.3843 -0.3814
 9271SOL    HW131090  10.296   4.889  10.784 -1.9792 -0.5061  1.1720
 9271SOL    HW231091  10.199   4.977  10.708  0.3626  0.6507 -0.6285
 9272SOL     OW31092   1.689   9.330   2.034  0.3596  0.1992  0.0079
 9272SOL    HW131093   1.779   9.361   2.030  0.8054 -0.8912  0.9627
 9272SOL    HW231094   1.638   9.397   1.988  1.4500  1.6034  0.7820
 9273SOL     OW31095   4.858   8.015   5.054 -0.1388 -0.3656  0.0451
 9273SOL    HW131096   4.926   8.024   5.121  0.2117  2.1945 -0.5260
 9273SOL    HW231097   4.776   8.017   5.103  0.1465 -0.0124  0.5292
 9274SOL     OW31098   8.892   6.098   1.689 -0.4493  0.5418  0.4894
 9274SOL    HW131099   8.802   6.129   1.697 -0.9599  0.5130 -3.4538
 9274SOL    HW231100   8.941   6.173   1.654  0.5277 -0.1465  0.3223
 9275SOL     OW31101   7.854  10.757   9.617  0.3206  0.5090 -0.3674
 9275SOL    HW131102   7.880  10.804   9.697  1.5206  0.0061 -0.4377
 9275SOL    HW231103   7.935  10.749   9.567 -0.1134 -0.5254 -0.9380
 9276SOL     OW31104   7.374   0.753   9.960  0.3591 -0.0693 -0.0818
 9276SOL    HW131105   7.289   0.743   9.917 -0.4947 -1.6661  1.8110
 9276SOL    HW231106   7.375   0.844   9.990 -0.9470 -0.1959  0.3874
 9277SOL     OW31107   9.009   6.342   1.162  0.2287 -0.0107 -0.2356
 9277SOL    HW131108   8.954   6.301   1.096  1.7070 -1.1815 -0.7848
 9277SOL    HW231109   8.947   6.374   1.228 -1.1014 -1.2229 -0.8521
 9278SOL     OW31110   1.851   2.151   8.761  0.2220  0.0522  0.2389
 9278SOL    HW131111   1.941   2.184   8.763  0.0767  0.4135  1.1737
 9278SOL    HW231112   1.802   2.211   8.818 -0.5004 -0.4494  0.1550
 9279SOL     OW31113   9.015  10.414   4.090 -0.6142  0.6235 -0.4785
 9279SOL    HW131114   8.972  10.352   4.031 -0.1310 -0.9995  0.8043
 9279SOL    HW231115   8.987  10.387   4.177  0.8468  1.2202  0.2045
 9280SOL     OW31116   0.955   8.927   4.640 -0.3830  0.5955 -1.3168
 9280SOL    HW131117   1.016   8.890   4.576  1.2437 -1.2970  1.0947
 9280SOL    HW231118   0.991   9.013   4.661  2.8083 -1.1614  1.3852
 9281SOL     OW31119   4.627   6.672   2.798 -0.7221 -0.4662 -0.2545
 9281SOL    HW131120   4.559   6.672   2.731 -0.6553 -2.8797 -0.4067
 9281SOL    HW231121   4.677   6.753   2.782 -2.0229  0.1000 -1.6951
 9282SOL     OW31122   8.608   4.808   2.942  0.3224 -0.2038  0.4826
 9282SOL    HW131123   8.603   4.865   2.865 -0.6701  1.2289  1.5446
 9282SOL    HW231124   8.518   4.805   2.975  0.4443 -2.0478  0.7305
 9283SOL     OW31125   2.254   2.539   0.418 -0.7442 -0.1659  0.0308
 9283SOL    HW131126   2.239   2.445   0.419  1.1726 -0.5454 -1.2674
 9283SOL    HW231127   2.281   2.558   0.328  0.2356  1.3771  0.6025
 9284SOL     OW31128   4.549   9.278   7.494  0.1478 -0.2990 -0.1645
 9284SOL    HW131129   4.592   9.348   7.544 -0.0489  0.1999 -0.6763
 9284SOL    HW231130   4.607   9.264   7.419 -0.2681 -0.0530 -0.5350
 9285SOL     OW31131   7.864   7.566   8.592 -0.1014  0.1730 -0.2214
 9285SOL    HW131132   7.934   7.501   8.579  0.6451  1.1263 -1.1608
 9285SOL    HW231133   7.797   7.543   8.528  0.0642  0.1971 -0.4044
 9286SOL     OW31134  10.163   6.415   5.231 -0.0574 -0.2809  0.1523
 9286SOL    HW131135  10.132   6.474   5.300 -0.7406 -1.0477  0.5154
 9286SOL    HW231136  10.247   6.452   5.203  1.8938 -1.6099  3.5938
 9287SOL     OW31137   8.678   6.687   1.463  0.3473  0.6694 -0.1563
 9287SOL    HW131138   8.691   6.738   1.383  1.8964 -0.2151 -0.5142
 9287SOL    HW231139   8.583   6.676   1.470  0.2023  0.2537 -2.2110
 9288SOL     OW31140   4.993   0.838   8.919  0.1079 -0.0228  0.8787
 9288SOL    HW131141   4.959   0.788   8.845 -0.4539  1.1751  0.3060
 9288SOL    HW231142   5.002   0.928   8.887  0.7307  0.3443  1.9898
 9289SOL     OW31143   7.654   0.819   8.525 -0.6512 -0.4187  0.0094
 9289SOL    HW131144   7.656   0.914   8.539  0.4217 -0.4329  0.0450
 9289SOL    HW231145   7.568   0.803   8.487 -0.5229  0.7005 -0.8371
 9290SOL     OW31146   7.231   4.408  11.379  0.3848  0.4937  0.4902
 9290SOL    HW131147   7.179   4.411  11.459 -0.4402  0.5674 -0.0373
 9290SOL    HW231148   7.209   4.489  11.333  1.1819  0.6586  0.3820
 9291SOL     OW31149   9.929   1.020   5.408  0.0601  0.1551  0.1874
 9291SOL    HW131150   9.936   1.115   5.419  2.7267  0.1173 -0.6329
 9291SOL    HW231151   9.894   1.009   5.320  1.0614  0.3883 -0.2467
 9292SOL     OW31152   9.880   1.118   6.116  0.0850  0.2897  0.1757
 9292SOL    HW131153   9.923   1.203   6.115  1.4750 -0.4054 -0.2675
 9292SOL    HW231154   9.876   1.090   6.025 -0.9962  0.1639  0.2375
 9293SOL     OW31155  11.226   8.026   6.899  0.2398  0.3304 -0.3666
 9293SOL    HW131156  11.315   7.992   6.888 -0.2374 -0.9747 -0.3913
 9293SOL    HW231157  11.210   8.020   6.993 -0.7481 -1.9675 -0.6341
 9294SOL     OW31158   7.528   5.314   9.290  0.3439 -0.5700 -0.1752
 9294SOL    HW131159   7.525   5.383   9.356  0.0877 -3.3421  2.9845
 9294SOL    HW231160   7.443   5.318   9.247  0.0611  0.5817  0.4551
 9295SOL     OW31161   0.085   4.211   6.286  0.2396 -0.0809  0.0580
 9295SOL    HW131162   0.091   4.150   6.212  0.9084 -0.3172  0.2945
 9295SOL    HW231163   0.067   4.296   6.246 -4.4018 -0.8884 -0.1078
 9296SOL     OW31164   5.284   6.164   4.563  0.2044  0.2092 -0.1389
 9296SOL    HW131165   5.315   6.245   4.523  1.4484  0.3128  0.9743
 9296SOL    HW231166   5.296   6.098   4.494  1.7695  0.4884 -0.1825
 9297SOL     OW31167   5.613   0.806   8.631  0.3332 -0.8014  0.6205
 9297SOL    HW131168   5.664   0.725   8.625  0.5270 -0.6324 -0.1064
 9297SOL    HW231169   5.527   0.778   8.660  0.1677 -1.3726 -0.3885
 9298SOL     OW31170   4.890   7.540   2.276 -0.0577 -0.3418 -0.5829
 9298SOL    HW131171   4.801   7.518   2.306 -0.9125  1.6972 -1.3845
 9298SOL    HW231172   4.910   7.475   2.210 -1.1779 -0.5569 -0.7400
 9299SOL     OW31173   7.359   2.019   3.634 -0.6276  0.1822  0.0589
 9299SOL    HW131174   7.328   2.061   3.714 -1.1938  0.1876 -0.1585
 9299SOL    HW231175   7.281   1.979   3.596 -0.7576  1.8157 -1.5125
 9300SOL     OW31176   8.283   8.534   1.890  0.0451 -0.3079 -0.0632
 9300SOL    HW131177   8.247   8.512   1.976 -0.8263  0.4231 -0.2299
 9300SOL    HW231178   8.377   8.543   1.906 -0.2544  1.1632  1.1275
 9301SOL     OW31179   9.888   9.277   1.555  0.1541  0.2262 -0.0380
 9301SOL    HW131180   9.837   9.202   1.585 -1.4928  1.4061  0.2309
 9301SOL    HW231181   9.978   9.258   1.583 -0.4801 -0.9575  1.2990
 9302SOL     OW31182   6.038   2.947   4.400  0.1804 -0.0986  0.1138
 9302SOL    HW131183   6.032   3.038   4.371 -2.9231  0.0712  0.9729
 9302SOL    HW231184   6.030   2.951   4.495 -0.2010 -1.2851  0.1474
 9303SOL     OW31185   7.339   8.477   0.615 -0.1060  0.0316 -0.5415
 9303SOL    HW131186   7.430   8.447   0.615  0.4447  1.5350 -2.4165
 9303SOL    HW231187   7.344   8.571   0.632 -1.2988  0.1226 -0.6157
 9304SOL     OW31188   8.144   8.909   9.640 -0.2852  0.4887  0.3918
 9304SOL    HW131189   8.092   8.864   9.574 -0.3974 -0.8061  1.3205
 9304SOL    HW231190   8.234   8.884   9.621 -0.3687 -0.3844  1.0548
 9305SOL     OW31191   6.064  10.449   2.538 -0.1452  0.4279 -0.5462
 9305SOL    HW131192   6.016  10.423   2.617 -1.0023  1.6500 -0.6320
 9305SOL    HW231193   6.027  10.394   2.469 -1.6042  1.4748 -0.6441
 9306SOL     OW31194   8.243   8.260   1.561 -0.4383 -0.2375  0.2180
 9306SOL    HW131195   8.320   8.256   1.618 -0.2321  1.9483  0.1693
 9306SOL    HW231196   8.227   8.353   1.548 -0.7738 -0.6119 -2.9214
 9307SOL     OW31197   7.900  10.462   3.979  0.0373 -0.2112 -0.0508
 9307SOL    HW131198   7.975  10.521   3.976 -0.5614  0.6477  1.1159
 9307SOL    HW231199   7.826  10.515   3.949 -0.7323  0.0770  2.1496
 9308SOL     OW31200   1.296   4.713   8.250  0.6789 -0.1611 -0.1389
 9308SOL    HW131201   1.330   4.800   8.270  0.5506 -0.1200 -0.1013
 9308SOL    HW231202   1.233   4.695   8.319  0.5995 -0.2248 -0.2272
 9309SOL     OW31203   1.429   2.276   8.165  0.2322  0.0297  0.1761
 9309SOL    HW131204   1.446   2.187   8.134 -0.8572 -0.0847 -0.1320
 9309SOL    HW231205   1.405   2.325   8.086 -2.4150 -0.2263  0.7287
 9310SOL     OW31206   8.807   1.075   8.537 -0.5910  0.6141  0.3141
 9310SOL    HW131207   8.799   0.980   8.531 -2.4215  0.7663 -0.1345
 9310SOL    HW231208   8.884   1.089   8.593  0.0330 -1.1069 -0.0488
 9311SOL     OW31209   1.835   7.817  10.848 -0.0959 -0.0514  0.5129
 9311SOL    HW131210   1.848   7.749  10.915  1.3137  0.3500  0.6876
 9311SOL    HW231211   1.822   7.897  10.899  1.8030  0.4006  0.3477
 9312SOL     OW31212   2.797   7.110  10.527  0.2649 -1.0012 -0.1878
 9312SOL    HW131213   2.770   7.145  10.612  0.6205 -1.0040 -0.0716
 9312SOL    HW231214   2.851   7.179  10.489 -1.4688 -0.1726 -1.2729
 9313SOL     OW31215   3.821   0.177   9.175  0.5491  0.0573  0.3821
 9313SOL    HW131216   3.737   0.214   9.150  0.7291 -0.7269 -1.6057
 9313SOL    HW231217   3.873   0.251   9.205 -0.1518  0.9170 -0.4752
 9314SOL     OW31218   0.992  10.273   2.450 -0.2254  0.0104 -0.1395
 9314SOL    HW131219   0.978  10.182   2.424  1.5766 -0.3880  0.1502
 9314SOL    HW231220   0.948  10.281   2.534 -0.2333 -0.6628 -0.0773
 9315SOL     OW31221   4.880   3.389   2.395  0.5814 -0.6032 -0.0025
 9315SOL    HW131222   4.857   3.479   2.418 -1.3733 -0.9919 -0.2892
 9315SOL    HW231223   4.907   3.394   2.303 -2.6021 -0.7119 -1.0487
 9316SOL     OW31224   5.196   8.881   1.121 -0.1543  0.2768 -0.1361
 9316SOL    HW131225   5.238   8.849   1.201  1.0448 -0.0133 -0.8771
 9316SOL    HW231226   5.190   8.804   1.065 -1.3663  0.3924 -0.1933
 9317SOL     OW31227   2.612   1.566   4.558 -0.1559  0.6880 -0.3394
 9317SOL    HW131228   2.673   1.637   4.575  2.6084 -1.3354 -1.0832
 9317SOL    HW231229   2.649   1.519   4.484  0.1522 -3.4912  2.1421
 9318SOL     OW31230   8.459   8.538   9.196 -0.3700 -0.0354  0.6211
 9318SOL    HW131231   8.523   8.467   9.191 -2.4066 -1.9981  1.2017
 9318SOL    HW231232   8.421   8.542   9.109 -0.2687  0.3624  0.5931
 9319SOL     OW31233   9.143   7.880   4.930  0.0648  0.7952  0.5452
 9319SOL    HW131234   9.183   7.962   4.959 -0.0579  0.5294  1.5048
 9319SOL    HW231235   9.216   7.830   4.892  0.4115  0.7966  1.2009
 9320SOL     OW31236  11.095   1.860   0.458 -0.5022 -0.2672 -0.3049
 9320SOL    HW131237  11.110   1.944   0.501  2.2702 -0.9383  0.1995
 9320SOL    HW231238  11.164   1.853   0.392 -1.1717 -1.8206 -0.8983
 9321SOL     OW31239   9.245   6.280  10.489 -0.1799 -0.1558 -0.3931
 9321SOL    HW131240   9.259   6.255  10.398 -3.3557 -0.7659 -0.8007
 9321SOL    HW231241   9.229   6.197  10.535  0.5903  0.2124  0.5935
 9322SOL     OW31242  10.905   8.474   0.194 -0.0327  0.6990 -0.5635
 9322SOL    HW131243  10.896   8.405   0.128  1.1696 -1.0888  1.0471
 9322SOL    HW231244  10.998   8.496   0.194  0.6404 -1.4857  2.4592
 9323SOL     OW31245   1.531   5.165   7.531  0.2377  0.4308  0.1993
 9323SOL    HW131246   1.458   5.103   7.533  0.6969 -0.1666 -1.0673
 9323SOL    HW231247   1.584   5.141   7.607  0.8949 -1.3463 -0.7865
 9324SOL     OW31248   4.355  11.199   8.679  0.7023  0.0461 -0.3094
 9324SOL    HW131249   4.319  11.172   8.763  1.1717  0.8965  0.1836
 9324SOL    HW231250   4.321  11.288   8.666  2.5072  0.8327  0.1253
 9325SOL     OW31251   1.505   8.298   6.103 -0.6342  0.5352 -0.2278
 9325SOL    HW131252   1.583   8.353   6.107 -0.0950 -0.2194 -0.0786
 9325SOL    HW231253   1.539   8.211   6.082 -1.4781  0.2776 -0.5509
 9326SOL     OW31254   2.580   5.343   1.158  0.0846  0.2709 -0.6084
 9326SOL    HW131255   2.656   5.297   1.122  0.6416  0.9513 -0.3255
 9326SOL    HW231256   2.518   5.348   1.085  1.1905  1.6200 -1.4950
 9327SOL     OW31257   6.065   9.872   2.268  0.8191  0.0213  0.0025
 9327SOL    HW131258   6.002   9.844   2.334  0.2412  0.5593 -0.3137
 9327SOL    HW231259   6.017   9.868   2.186  1.2307  0.3391 -0.2583
 9328SOL     OW31260   3.864   4.046   3.278 -0.0477  0.1229  0.1976
 9328SOL    HW131261   3.831   4.136   3.288  0.1242  0.1248  0.8226
 9328SOL    HW231262   3.950   4.048   3.320  0.4679 -0.0495 -0.8143
 9329SOL     OW31263   1.625   9.903   5.047  0.2150  0.5463  0.1170
 9329SOL    HW131264   1.637   9.931   4.957 -0.6847 -0.0943 -0.2192
 9329SOL    HW231265   1.531   9.893   5.057  0.4144 -1.3406  0.5003
 9330SOL     OW31266   4.461   2.599   0.735  0.0282  0.0511 -0.2190
 9330SOL    HW131267   4.419   2.683   0.717  0.1228  0.6236  1.9405
 9330SOL    HW231268   4.474   2.559   0.648 -1.6718  1.4283 -1.1634
 9331SOL     OW31269  10.504   3.944  10.689 -0.4158  0.1424  0.3712
 9331SOL    HW131270  10.553   3.892  10.753 -1.5456 -1.1717  0.2081
 9331SOL    HW231271  10.556   3.937  10.608  0.4560  0.9231  0.8425
 9332SOL     OW31272   4.992   5.806   6.517 -0.7371 -0.2501 -0.3317
 9332SOL    HW131273   5.020   5.715   6.510 -1.6567 -0.5213 -0.7125
 9332SOL    HW231274   5.043   5.841   6.590  2.1139 -0.0800 -2.2812
 9333SOL     OW31275  11.094  10.581   9.107  0.4243  0.2765 -0.4267
 9333SOL    HW131276  11.120  10.605   9.018  1.8430  1.8061  0.3308
 9333SOL    HW231277  11.177  10.579   9.156 -0.3153 -0.6314  0.8393
 9334SOL     OW31278   3.694   5.456  10.300  0.3353  0.4202  0.0783
 9334SOL    HW131279   3.628   5.488  10.239  2.0352  1.5319 -1.3052
 9334SOL    HW231280   3.655   5.466  10.387 -0.5917  2.9689 -0.5392
 9335SOL     OW31281   3.765  11.100   7.682  0.4467  0.1050  0.0803
 9335SOL    HW131282   3.691  11.079   7.626 -1.9233 -0.4279  3.1378
 9335SOL    HW231283   3.821  11.023   7.679  1.5152  0.8491 -2.9437
 9336SOL     OW31284   3.544   4.725   1.049 -0.2606  0.1892 -0.4241
 9336SOL    HW131285   3.494   4.681   0.980 -0.3984  2.5675 -1.9685
 9336SOL    HW231286   3.481   4.785   1.089  0.0021 -0.6725  1.3862
 9337SOL     OW31287  10.317   6.839   0.632  0.6923  0.1675 -0.5816
 9337SOL    HW131288  10.378   6.830   0.705  0.5343 -2.0465 -0.6720
 9337SOL    HW231289  10.370   6.822   0.554  0.0786 -1.4750 -0.6815
 9338SOL     OW31290   2.254   4.027   1.360 -0.0639  0.4159 -0.8199
 9338SOL    HW131291   2.265   3.941   1.400 -0.8577  1.0018  0.7639
 9338SOL    HW231292   2.159   4.043   1.367  0.1156  1.5172 -0.8278
 9339SOL     OW31293   8.093   5.601   9.462 -0.3166 -0.5159 -0.0018
 9339SOL    HW131294   8.000   5.619   9.480 -0.1569 -0.0455  0.3902
 9339SOL    HW231295   8.136   5.613   9.546  0.1149 -0.6329 -0.2048
 9340SOL     OW31296   6.812   1.879   3.061  0.5871 -0.2121  0.6080
 9340SOL    HW131297   6.848   1.864   2.973  1.3287 -0.4189  0.9393
 9340SOL    HW231298   6.726   1.919   3.045 -0.0199 -1.7813 -0.2390
 9341SOL     OW31299   3.048   8.325   8.847 -0.8408 -0.4984  0.3232
 9341SOL    HW131300   3.026   8.297   8.758  1.0005  1.0121 -0.6732
 9341SOL    HW231301   2.965   8.358   8.882 -1.8789 -2.2639 -0.3280
 9342SOL     OW31302   4.187   0.036   9.054 -0.1250 -0.3343  0.0837
 9342SOL    HW131303   4.130   0.066   9.125 -0.2992 -1.2262  0.3412
 9342SOL    HW231304   4.216  -0.051   9.083  0.4469 -0.3694 -0.5744
 9343SOL     OW31305   4.388   0.585   8.011 -0.4268 -0.4002  0.3643
 9343SOL    HW131306   4.407   0.502   8.054 -0.6835 -0.7580 -0.2051
 9343SOL    HW231307   4.355   0.641   8.081 -0.1691 -0.7460  0.7670
 9344SOL     OW31308   2.671   2.594   2.580  0.4887 -0.1085 -0.7185
 9344SOL    HW131309   2.622   2.626   2.655  1.7435 -1.2009  0.6136
 9344SOL    HW231310   2.604   2.559   2.520 -0.5146  0.7276 -0.1155
 9345SOL     OW31311   5.942   2.278  11.356  0.3767  0.1472  0.3524
 9345SOL    HW131312   5.940   2.185  11.382 -1.4559  0.0908  0.1110
 9345SOL    HW231313   6.028   2.308  11.385  0.2052 -1.0865  2.4006
 9346SOL     OW31314   8.066   4.561   2.350 -0.6839 -0.2961  0.3986
 9346SOL    HW131315   8.064   4.518   2.265 -0.6850  3.2929 -1.6318
 9346SOL    HW231316   7.978   4.551   2.385 -0.5259 -2.3032  0.3154
 9347SOL     OW31317   9.936   7.966   5.659  0.4790  0.2935  0.8276
 9347SOL    HW131318   9.937   8.004   5.572 -1.8568 -0.7085  0.2889
 9347SOL    HW231319  10.010   7.905   5.659 -0.1337 -0.5265 -0.9058
 9348SOL     OW31320   0.416   7.687   0.979 -0.4524 -0.6851 -0.7633
 9348SOL    HW131321   0.486   7.709   0.917 -0.8660 -0.9713 -1.3400
 9348SOL    HW231322   0.462   7.664   1.059  0.0662  0.3698 -0.7398
 9349SOL     OW31323   4.152   1.900   4.080 -0.0667 -0.3018  0.3273
 9349SOL    HW131324   4.161   1.977   4.024 -1.6817 -0.9973 -0.9485
 9349SOL    HW231325   4.233   1.898   4.131  0.7364  1.2683 -0.8188
 9350SOL     OW31326  10.485   2.802   5.332 -0.1813  0.2692  0.2498
 9350SOL    HW131327  10.453   2.774   5.418 -1.0593  1.8698  0.4911
 9350SOL    HW231328  10.569   2.757   5.321  0.6827  1.1649  2.6209
 9351SOL     OW31329   4.935   7.325   2.749  0.2490  0.0984  0.2248
 9351SOL    HW131330   4.889   7.308   2.830 -1.3236  0.8382 -0.4699
 9351SOL    HW231331   4.889   7.399   2.710  2.6393  1.5453 -0.0617
 9352SOL     OW31332   7.936   3.735   7.899  0.3347  0.2171 -0.5509
 9352SOL    HW131333   7.996   3.674   7.941 -0.3373 -0.9254 -1.1987
 9352SOL    HW231334   7.850   3.714   7.937  0.5222  3.3241  2.1018
 9353SOL     OW31335   6.289   0.681   0.191  0.3365 -0.0173  0.3971
 9353SOL    HW131336   6.322   0.758   0.144  1.2950 -1.7505 -2.0158
 9353SOL    HW231337   6.359   0.658   0.252  0.9945 -0.1578 -0.3861
 9354SOL     OW31338  10.736   8.831  10.989  0.1314  0.1495 -0.2584
 9354SOL    HW131339  10.800   8.837  10.918 -0.2313  1.5261 -0.5021
 9354SOL    HW231340  10.672   8.899  10.969 -0.1133  0.3998  1.2651
 9355SOL     OW31341   5.919   6.787   2.998 -0.2356 -0.2232 -0.1376
 9355SOL    HW131342   5.827   6.760   2.996  0.2124 -1.9010 -2.1040
 9355SOL    HW231343   5.943   6.787   3.090 -2.3181  0.7272  0.4494
 9356SOL     OW31344   1.535   6.006   4.526  0.0235 -0.2216  0.3544
 9356SOL    HW131345   1.582   5.947   4.585  1.3920 -0.0528 -0.5217
 9356SOL    HW231346   1.557   6.094   4.556 -0.4803 -0.1465  0.5046
 9357SOL     OW31347   4.705   5.369   4.685  0.8877  0.3688  0.1557
 9357SOL    HW131348   4.797   5.377   4.711  0.9954 -1.4656  0.5178
 9357SOL    HW231349   4.700   5.282   4.645 -0.7349  0.3304  0.3872
 9358SOL     OW31350  10.919   6.582  10.528 -0.2566 -0.4447  0.2940
 9358SOL    HW131351  10.878   6.500  10.501 -0.9867  0.0081  0.0089
 9358SOL    HW231352  10.995   6.555  10.579  1.1085 -1.3204 -2.0747
 9359SOL     OW31353  10.322  10.109   7.920  0.2937  0.0200  0.6310
 9359SOL    HW131354  10.314  10.069   8.006 -0.6498 -0.3052  0.4012
 9359SOL    HW231355  10.323  10.203   7.937  2.4710 -0.0415  1.1681
 9360SOL     OW31356   8.933   1.449   7.060 -0.1434 -0.6765  1.1783
 9360SOL    HW131357   8.986   1.373   7.036  0.6064  0.4991 -1.2705
 9360SOL    HW231358   8.858   1.445   7.001 -1.2817 -0.7052  2.5921
 9361SOL     OW31359   9.622   7.917   5.723  0.5079  0.1540  0.3186
 9361SOL    HW131360   9.659   7.833   5.752  1.6352  1.0184  1.5078
 9361SOL    HW231361   9.698   7.975   5.715 -0.4590  1.6957  1.7509
 9362SOL     OW31362   3.932   7.167   4.795 -0.1088  0.4955  0.0332
 9362SOL    HW131363   3.995   7.231   4.827 -0.3856  0.0541  1.5379
 9362SOL    HW231364   3.897   7.205   4.715  0.9495  1.4409  0.0022
 9363SOL     OW31365   3.799   7.308   6.419 -0.2245  0.3721 -0.1069
 9363SOL    HW131366   3.787   7.222   6.378 -3.2398  0.0007  1.2724
 9363SOL    HW231367   3.819   7.288   6.511 -0.2546  1.1459  0.0757
 9364SOL     OW31368   8.113   8.355   2.733  0.1352 -0.1991 -0.0699
 9364SOL    HW131369   8.018   8.360   2.742  0.0405 -1.3113 -0.2586
 9364SOL    HW231370   8.128   8.303   2.654  0.8898 -0.6799  0.3705
 9365SOL     OW31371   0.668   3.463  11.113 -0.4884  0.4664 -0.1809
 9365SOL    HW131372   0.640   3.388  11.165  2.4390 -0.8733 -0.2959
 9365SOL    HW231373   0.661   3.538  11.172  0.5788 -0.6419  1.4462
 9366SOL     OW31374   4.849  10.625   4.707  0.3026  0.1679 -0.1004
 9366SOL    HW131375   4.766  10.635   4.660  0.2017  0.3236  0.1077
 9366SOL    HW231376   4.880  10.538   4.683 -1.0977 -0.8972  1.6512
 9367SOL     OW31377   5.242   3.795   3.111  0.4285 -0.3970 -0.2572
 9367SOL    HW131378   5.233   3.706   3.077  0.9185  0.1400 -1.9465
 9367SOL    HW231379   5.282   3.784   3.197 -0.8710 -1.8644  0.2093
 9368SOL     OW31380   1.599  10.800   1.952  0.2545 -0.1183 -0.0010
 9368SOL    HW131381   1.691  10.805   1.926  0.4337 -0.5990  0.5150
 9368SOL    HW231382   1.589  10.710   1.985 -0.6371 -0.3865 -0.9630
 9369SOL     OW31383   0.466   1.820   7.422  0.6889 -0.2562  0.3046
 9369SOL    HW131384   0.371   1.810   7.426  0.5073  1.3506  0.3613
 9369SOL    HW231385   0.495   1.753   7.360 -0.2644 -1.9854  1.6351
 9370SOL     OW31386   9.018   5.053  10.104  0.3729  0.1901 -0.2342
 9370SOL    HW131387   9.002   5.147  10.114 -0.4472  0.2251 -1.7154
 9370SOL    HW231388   8.935   5.012  10.130  0.4544 -0.0814 -0.4049
 9371SOL     OW31389   2.549   1.333   1.447  0.2995 -0.2345 -0.1170
 9371SOL    HW131390   2.548   1.281   1.366 -0.2733 -1.4243  0.6369
 9371SOL    HW231391   2.621   1.296   1.499 -1.0582 -1.3135  1.0605
 9372SOL     OW31392   2.081   9.206   6.853  0.1580  0.3051  0.0363
 9372SOL    HW131393   2.154   9.147   6.834  0.1589  0.7288 -1.4621
 9372SOL    HW231394   2.091   9.277   6.789 -1.7817  0.1762 -0.4633
 9373SOL     OW31395   5.196   0.479   8.407 -0.1480  0.0416  0.8588
 9373SOL    HW131396   5.229   0.566   8.430 -0.2037  0.6388 -1.1291
 9373SOL    HW231397   5.269   0.420   8.428  0.1120  0.6313  1.6688
 9374SOL     OW31398   0.524   9.860   7.668 -0.0649  0.0011 -0.3772
 9374SOL    HW131399   0.605   9.817   7.695 -0.7886 -1.6885 -0.8105
 9374SOL    HW231400   0.506   9.827   7.580  0.2686  2.5875 -1.5122
 9375SOL     OW31401  11.269   4.567   2.185  0.7078 -0.5178  0.1091
 9375SOL    HW131402  11.207   4.505   2.222 -0.2740 -0.1913 -0.9403
 9375SOL    HW231403  11.353   4.522   2.187 -0.0316 -1.9941 -0.8946
 9376SOL     OW31404   4.096   7.394   7.531 -0.1701  0.2044 -0.7565
 9376SOL    HW131405   4.137   7.344   7.460  0.3757  1.7096 -1.5668
 9376SOL    HW231406   4.159   7.464   7.550 -1.6636  1.6646 -0.9543
 9377SOL     OW31407   2.968   9.613  10.676  0.5491  0.2298  0.2149
 9377SOL    HW131408   3.021   9.642  10.750 -0.0066 -0.5779  0.9518
 9377SOL    HW231409   2.956   9.692  10.623  1.1634  0.7656  0.8554
 9378SOL     OW31410   3.666   2.168  11.318  0.2692 -0.2959  0.2690
 9378SOL    HW131411   3.715   2.194  11.396  0.6542  2.6576 -0.8337
 9378SOL    HW231412   3.580   2.210  11.328 -0.3404 -1.4200 -0.0730
 9379SOL     OW31413   8.145   7.291   8.855  1.3209 -0.2848 -0.6372
 9379SOL    HW131414   8.069   7.307   8.799  0.4427  2.9761  1.2371
 9379SOL    HW231415   8.220   7.296   8.796  0.2779 -0.6537 -2.0559
 9380SOL     OW31416   4.812   0.081   1.053 -0.2790 -0.1825 -0.3344
 9380SOL    HW131417   4.725   0.106   1.023 -1.2242 -1.5553  1.1136
 9380SOL    HW231418   4.803   0.069   1.148  0.8895 -2.5702 -0.4471
 9381SOL     OW31419   4.942   4.068   7.785 -0.4459 -0.2706  0.2440
 9381SOL    HW131420   5.008   4.039   7.848  0.1703  0.8777  0.1449
 9381SOL    HW231421   4.904   4.146   7.823 -0.0771  0.4291 -0.7829
 9382SOL     OW31422   3.590   8.970   0.359  0.3272  0.0980 -0.1894
 9382SOL    HW131423   3.685   8.981   0.357  0.7144 -2.4895 -0.1551
 9382SOL    HW231424   3.558   9.044   0.409  2.1825  1.7111 -1.2200
 9383SOL     OW31425   2.779   7.802   5.750  0.1256 -0.1793  0.0514
 9383SOL    HW131426   2.790   7.718   5.795  0.8437 -0.5872 -0.8379
 9383SOL    HW231427   2.764   7.777   5.658  0.2988  0.6679 -0.2114
 9384SOL     OW31428   6.039   7.915   4.039 -0.0313 -0.3305  0.6194
 9384SOL    HW131429   5.992   7.832   4.044  0.4725 -0.6217  0.5406
 9384SOL    HW231430   6.082   7.913   3.953 -0.1275  0.0686  0.5610
 9385SOL     OW31431   4.402   9.416   0.840  0.0205  0.0514  0.5205
 9385SOL    HW131432   4.458   9.435   0.765 -1.0916  0.2049 -0.2951
 9385SOL    HW231433   4.400   9.321   0.845 -1.8364 -0.0872 -1.2221
 9386SOL     OW31434   3.249   3.097   5.036 -0.0800  0.0717 -0.3879
 9386SOL    HW131435   3.184   3.151   5.082  1.3824 -0.0824  2.0408
 9386SOL    HW231436   3.209   3.079   4.951 -1.8536  2.5652 -0.2010
 9387SOL     OW31437  10.356   2.792  10.652  0.5638 -0.0179  0.2490
 9387SOL    HW131438  10.271   2.771  10.613  0.5155  1.5049 -0.5340
 9387SOL    HW231439  10.377   2.716  10.706 -0.7761 -0.8927 -0.4099
 9388SOL     OW31440   8.341   7.438   9.005  0.2840 -0.2557 -0.8994
 9388SOL    HW131441   8.375   7.358   9.046  0.1364  0.1106 -0.0352
 9388SOL    HW231442   8.260   7.411   8.963  1.2597 -0.9929 -2.4018
 9389SOL     OW31443   0.658   0.654   8.758  0.6958  0.1627 -0.4515
 9389SOL    HW131444   0.722   0.655   8.829 -0.0412 -0.4080  0.2296
 9389SOL    HW231445   0.573   0.654   8.801  0.2329 -0.6145 -1.3207
 9390SOL     OW31446  10.467   1.058  10.653 -0.3407 -0.1768  0.5296
 9390SOL    HW131447  10.507   1.062  10.566 -1.2094 -0.5668  0.0948
 9390SOL    HW231448  10.525   1.110  10.709  0.6120 -0.5144 -0.1259
 9391SOL     OW31449   9.958   8.895   9.541 -0.1968 -0.5384 -0.5948
 9391SOL    HW131450   9.902   8.964   9.576 -0.8009 -1.4288  0.2581
 9391SOL    HW231451   9.897   8.831   9.505  0.3562 -0.6121 -1.4301
 9392SOL     OW31452   0.737  11.159   3.514  0.2338 -0.4398  0.0161
 9392SOL    HW131453   0.762  11.073   3.548  0.1602 -1.3373 -2.0662
 9392SOL    HW231454   0.677  11.194   3.580  0.2534 -1.9653  0.9080
 9393SOL     OW31455   6.783   9.027   4.876  0.2432  0.1841  0.2658
 9393SOL    HW131456   6.852   8.974   4.916 -1.1112 -0.8425  1.3196
 9393SOL    HW231457   6.703   8.977   4.889 -1.2790  2.8506  2.1228
 9394SOL     OW31458   0.703   9.096   7.619 -0.2408  0.6051  0.2490
 9394SOL    HW131459   0.780   9.048   7.591 -1.0457  0.2196 -1.4099
 9394SOL    HW231460   0.705   9.177   7.567 -1.7027 -0.0685 -0.9104
 9395SOL     OW31461   6.415   7.634   0.197 -0.0948 -0.3369  0.0382
 9395SOL    HW131462   6.418   7.667   0.107 -2.4532 -0.1946 -0.0368
 9395SOL    HW231463   6.351   7.690   0.241 -1.3187 -2.3436  0.9372
 9396SOL     OW31464   1.726   8.857   7.697  0.5608  0.2668  0.0177
 9396SOL    HW131465   1.727   8.846   7.602  0.9759  0.1265  0.0375
 9396SOL    HW231466   1.639   8.892   7.716 -0.4421 -1.9778 -0.1539
 9397SOL     OW31467   2.199  10.961   1.678 -0.2528 -0.0770 -0.1151
 9397SOL    HW131468   2.267  10.909   1.721 -0.8673 -1.3318 -0.6050
 9397SOL    HW231469   2.163  10.902   1.611 -1.2599  0.8424 -0.4034
 9398SOL     OW31470   5.655   4.483   9.870  0.0203  0.2468 -0.1649
 9398SOL    HW131471   5.705   4.531   9.936 -0.0385  1.9523 -1.3014
 9398SOL    HW231472   5.675   4.527   9.788 -2.4550  0.2876 -0.8211
 9399SOL     OW31473   7.386   9.985   6.617 -0.0306  0.0747  0.4164
 9399SOL    HW131474   7.482   9.983   6.611 -0.0492  2.3182 -2.4937
 9399SOL    HW231475   7.357   9.939   6.539 -1.2902  1.3891  0.0943
 9400SOL     OW31476   8.518   0.994   9.643 -0.4830 -0.2618 -0.0491
 9400SOL    HW131477   8.484   1.083   9.640 -0.7506 -0.3625 -0.0841
 9400SOL    HW231478   8.545   0.975   9.553  0.3713  0.0850  0.1312
 9401SOL     OW31479   1.405   2.907   6.103  0.4468  0.5107  0.4597
 9401SOL    HW131480   1.453   2.899   6.021  1.4018 -0.9885  1.1099
 9401SOL    HW231481   1.470   2.886   6.171 -1.1359 -1.9214  1.3700
 9402SOL     OW31482   7.643   6.740   5.144  0.2237  0.0552 -0.0062
 9402SOL    HW131483   7.642   6.833   5.121 -0.6584  0.1478  0.3377
 9402SOL    HW231484   7.726   6.727   5.189 -1.0309  1.5308  3.1143
 9403SOL     OW31485   0.422  10.654  10.916  0.1533  0.1248 -0.2403
 9403SOL    HW131486   0.354  10.613  10.863  1.4615 -0.0871 -1.8243
 9403SOL    HW231487   0.442  10.736  10.870  0.5567  0.4650  0.5215
 9404SOL     OW31488   4.925   2.796   8.171 -0.6611 -0.2111  0.3059
 9404SOL    HW131489   4.984   2.781   8.097  1.0285  0.1355  1.5175
 9404SOL    HW231490   4.925   2.891   8.183  1.3446 -0.3865  2.4156
 9405SOL     OW31491   8.056   8.826   1.739 -0.7701 -0.2772 -0.4488
 9405SOL    HW131492   8.048   8.838   1.645 -0.6621  0.9431 -0.3247
 9405SOL    HW231493   8.034   8.734   1.754 -0.8932 -0.4582 -1.6428
 9406SOL     OW31494   9.075   3.272   7.949 -0.1045 -0.1638 -0.5002
 9406SOL    HW131495   9.169   3.280   7.929 -0.3250  0.7369 -1.2350
 9406SOL    HW231496   9.072   3.211   8.023  1.1759  0.8773  0.4763
 9407SOL     OW31497   1.485   9.358   0.107 -0.2516  0.3694 -0.4238
 9407SOL    HW131498   1.487   9.420   0.180  1.6971  1.0434 -0.9972
 9407SOL    HW231499   1.523   9.278   0.142 -2.5896 -0.5384  0.2597
 9408SOL     OW31500   1.836   2.536   0.290 -0.7439  0.1062 -0.2219
 9408SOL    HW131501   1.785   2.583   0.224 -1.1620  0.6543  0.4683
 9408SOL    HW231502   1.902   2.600   0.319  0.4212 -0.6274 -1.1768
 9409SOL     OW31503   6.871   1.075   4.660 -0.5584 -0.1793  0.2210
 9409SOL    HW131504   6.950   1.065   4.713  0.4832  0.2770 -1.1769
 9409SOL    HW231505   6.816   1.135   4.709  0.1780 -0.1267  0.9909
 9410SOL     OW31506   3.302   7.350   9.750  0.0674 -0.0519  0.0585
 9410SOL    HW131507   3.292   7.256   9.734  2.8008 -1.0494  3.2015
 9410SOL    HW231508   3.393   7.369   9.730  0.1690  1.4004  1.6534
 9411SOL     OW31509   4.593   3.398  10.857 -0.3205  0.0574  0.7990
 9411SOL    HW131510   4.659   3.467  10.867  0.6314 -0.8404  0.8607
 9411SOL    HW231511   4.641   3.317  10.873 -1.2560 -0.6760 -0.0005
 9412SOL     OW31512   1.842   3.703   9.976 -0.3253  0.3509  0.1872
 9412SOL    HW131513   1.918   3.658   9.940 -1.2957 -1.2354  0.0521
 9412SOL    HW231514   1.856   3.702  10.070 -1.4377 -2.4636  0.4199
 9413SOL     OW31515   1.983   4.990  11.305  0.6938 -0.6140 -0.5093
 9413SOL    HW131516   2.062   5.045  11.305  0.8541 -0.8419  0.3223
 9413SOL    HW231517   2.017   4.901  11.308  0.4009 -0.6930  1.5670
 9414SOL     OW31518   3.371   0.682   9.980  0.1329  0.5289  0.8827
 9414SOL    HW131519   3.325   0.761   9.950 -0.0523  0.3322  0.6430
 9414SOL    HW231520   3.464   0.704   9.971  0.0923  0.2687 -0.4244
 9415SOL     OW31521   7.573   7.831   3.371 -0.2028 -0.2544 -0.2634
 9415SOL    HW131522   7.479   7.834   3.356 -0.3543 -0.3223  0.6157
 9415SOL    HW231523   7.612   7.868   3.292 -0.9812  0.1381 -0.4640
 9416SOL     OW31524   7.735  10.525   9.462 -0.2927 -0.1788  0.0080
 9416SOL    HW131525   7.788  10.492   9.534  0.4862  3.5170  1.3593
 9416SOL    HW231526   7.799  10.553   9.396 -0.7913  0.0124 -0.4044
 9417SOL     OW31527  10.960   3.385   0.126  0.1829 -0.2110  0.5821
 9417SOL    HW131528  11.028   3.392   0.059  0.4413  2.2222  1.0224
 9417SOL    HW231529  10.944   3.290   0.134  2.7056 -0.7859 -0.3117
 9418SOL     OW31530  10.372   5.625   4.327  0.2824 -0.2248 -0.0556
 9418SOL    HW131531  10.400   5.578   4.406 -0.9566 -2.0654 -0.6398
 9418SOL    HW231532  10.422   5.585   4.256 -0.1973 -0.1205 -0.4587
 9419SOL     OW31533  10.638   5.335   7.667  0.3153 -0.3969  0.0421
 9419SOL    HW131534  10.573   5.404   7.681 -0.6405 -1.7502  2.9249
 9419SOL    HW231535  10.602   5.283   7.594 -0.9817 -0.1424  0.4805
 9420SOL     OW31536   0.318   8.725   8.577 -0.6359  0.5295  0.5699
 9420SOL    HW131537   0.256   8.704   8.647 -1.1783  0.6637  0.1361
 9420SOL    HW231538   0.273   8.698   8.496  0.5261 -0.9070  0.3617
 9421SOL     OW31539   7.651   4.415   5.289 -0.0835 -0.4135 -0.0824
 9421SOL    HW131540   7.702   4.416   5.369  0.1596  0.8964 -0.2279
 9421SOL    HW231541   7.561   4.430   5.317 -0.1298 -0.8296  0.0057
 9422SOL     OW31542   0.947   2.453   5.078  0.4578  0.3981  0.1724
 9422SOL    HW131543   1.033   2.444   5.118  0.3427 -1.2793  0.1080
 9422SOL    HW231544   0.919   2.542   5.100  0.6919 -0.1704  3.2697
 9423SOL     OW31545   3.171   4.422   5.415  0.8993 -0.1577 -0.0314
 9423SOL    HW131546   3.213   4.336   5.419  0.4636 -0.3719 -0.0351
 9423SOL    HW231547   3.182   4.459   5.503  1.5901  0.0285 -0.1873
 9424SOL     OW31548   2.485   9.187   7.759 -0.2806 -0.0329 -0.1848
 9424SOL    HW131549   2.505   9.214   7.849  1.4266  0.3584 -0.6452
 9424SOL    HW231550   2.412   9.243   7.733 -1.5157 -0.8601  1.2700
 9425SOL     OW31551   4.308   6.640   7.376  0.4624  0.2560 -0.6709
 9425SOL    HW131552   4.295   6.733   7.395  0.1637  0.4124 -1.6007
 9425SOL    HW231553   4.403   6.630   7.375  0.5605  0.9723 -2.3956
 9426SOL     OW31554   6.059   4.979   0.323  0.0215 -0.3067 -0.0760
 9426SOL    HW131555   6.073   4.974   0.418  0.5933 -0.6367 -0.1733
 9426SOL    HW231556   6.146   4.968   0.286 -0.2092 -0.2178 -0.6448
 9427SOL     OW31557   0.800   8.987   1.071  0.0340  0.6493 -0.2030
 9427SOL    HW131558   0.798   8.932   0.993 -0.4525  1.0977 -0.5137
 9427SOL    HW231559   0.753   8.936   1.137  0.6273  0.1806 -0.1343
 9428SOL     OW31560  10.592   1.214  10.867 -0.3444  0.0389 -0.4086
 9428SOL    HW131561  10.670   1.256  10.905 -0.0164  0.7034 -1.7651
 9428SOL    HW231562  10.539   1.287  10.835 -0.1166 -0.5199 -2.1471
 9429SOL     OW31563   1.469  10.004   5.328 -0.0745 -0.3748 -0.4166
 9429SOL    HW131564   1.415  10.043   5.260  1.6841  1.4766 -0.8440
 9429SOL    HW231565   1.555   9.994   5.288  0.6114 -0.7261  1.0448
 9430SOL     OW31566   8.786   4.842   4.028 -0.5301  0.8010  0.5341
 9430SOL    HW131567   8.796   4.803   4.115  2.9747  2.1150  0.8797
 9430SOL    HW231568   8.867   4.820   3.982 -2.4935 -0.3463 -2.7347
 9431SOL     OW31569   0.602   7.585   8.197  0.4160  0.1213 -0.0135
 9431SOL    HW131570   0.583   7.594   8.104 -1.8764 -1.9984  0.1599
 9431SOL    HW231571   0.631   7.494   8.207  2.4791  0.8301  1.1304
 9432SOL     OW31572   8.447   9.054   4.685  0.0564 -0.1218  0.1690
 9432SOL    HW131573   8.421   8.962   4.678  0.8839 -0.4293  0.9734
 9432SOL    HW231574   8.366   9.103   4.668  0.0549 -0.9052 -2.5150
 9433SOL     OW31575   6.132   4.820   7.202  0.8391  0.1553  0.2272
 9433SOL    HW131576   6.037   4.820   7.191  0.8042 -1.2255  0.3144
 9433SOL    HW231577   6.147   4.874   7.280  0.1630  0.7298 -0.0377
 9434SOL     OW31578   1.805   4.438   6.741  0.2468  0.1753 -0.0049
 9434SOL    HW131579   1.804   4.533   6.733 -0.7945  0.0839 -1.2188
 9434SOL    HW231580   1.723   4.417   6.787  0.5269 -0.1348  0.3604
 9435SOL     OW31581   7.012   8.331   6.060  0.4023 -0.3343 -0.1956
 9435SOL    HW131582   6.986   8.415   6.022  0.8198  0.0201  0.2854
 9435SOL    HW231583   7.087   8.352   6.115  0.3444 -0.9784  0.1409
 9436SOL     OW31584   3.199   7.941   3.240  0.0557 -0.0499  0.2716
 9436SOL    HW131585   3.116   7.927   3.194  0.6218  0.5855 -0.9851
 9436SOL    HW231586   3.212   7.860   3.291 -1.8995  0.3201  1.4626
 9437SOL     OW31587   5.029   9.553   1.209 -0.3676  0.5295 -0.6700
 9437SOL    HW131588   5.032   9.538   1.304 -2.9666 -1.2300 -0.7619
 9437SOL    HW231589   4.968   9.626   1.199 -0.8815  0.0548 -1.0207
 9438SOL     OW31590  10.993   6.259   7.720  0.1347  0.1943  0.4836
 9438SOL    HW131591  11.067   6.201   7.738 -0.8676 -1.6126 -0.8619
 9438SOL    HW231592  10.935   6.247   7.795  0.1618 -0.1816  0.4491
 9439SOL     OW31593   5.724   6.604   3.729 -0.0397  0.3124  0.2734
 9439SOL    HW131594   5.788   6.659   3.684  2.9702 -1.0905  2.4580
 9439SOL    HW231595   5.684   6.552   3.660  0.5444  1.8515 -1.3007
 9440SOL     OW31596   5.536   8.997   2.268  0.0333  0.5307  0.6525
 9440SOL    HW131597   5.451   8.966   2.237  1.5185 -1.7818 -1.4739
 9440SOL    HW231598   5.552   9.077   2.219 -0.5216  0.5074  0.4232
 9441SOL     OW31599   4.428   2.043   1.089  1.0365 -0.3510  0.0337
 9441SOL    HW131600   4.472   2.123   1.063  2.7609 -1.2113  0.1925
 9441SOL    HW231601   4.434   2.042   1.185 -0.2146 -0.0205  0.1409
 9442SOL     OW31602   4.046  11.205   5.204 -0.0096  0.1375  0.0996
 9442SOL    HW131603   3.981  11.251   5.256 -0.9685  0.6345 -1.5072
 9442SOL    HW231604   4.022  11.112   5.213 -0.8405  0.3010 -0.3221
 9443SOL     OW31605   8.530  10.502  10.782 -0.0619 -0.2964  0.3601
 9443SOL    HW131606   8.593  10.570  10.806  1.1823 -1.1291 -0.3828
 9443SOL    HW231607   8.569  10.421  10.815 -1.7427 -0.6230  1.6385
 9444SOL     OW31608   3.229   7.876   1.784 -0.1974  0.5391 -0.5186
 9444SOL    HW131609   3.282   7.854   1.861 -0.1604 -0.3859 -0.7883
 9444SOL    HW231610   3.246   7.968   1.768  1.6683  0.1727 -0.8530
 9445SOL     OW31611   5.277   2.947  10.637  0.0567 -0.5609 -0.2266
 9445SOL    HW131612   5.372   2.953  10.624  0.1347  0.8619  0.7472
 9445SOL    HW231613   5.261   2.854  10.655  1.0888 -1.0290 -1.5571
 9446SOL     OW31614  10.096   7.783   8.991  0.0418  0.7433  0.3673
 9446SOL    HW131615  10.066   7.866   8.954  0.1439  0.3620 -0.5859
 9446SOL    HW231616  10.077   7.791   9.085 -0.7776  1.4813  0.1517
 9447SOL     OW31617   7.694   3.392   6.374  0.4294  0.5960  0.4635
 9447SOL    HW131618   7.709   3.313   6.426  1.9162  1.3025  1.1748
 9447SOL    HW231619   7.779   3.411   6.334 -0.5637  0.3354 -1.9445
 9448SOL     OW31620   6.290   8.585   0.415 -0.6257  0.4054  0.3028
 9448SOL    HW131621   6.252   8.663   0.374 -0.6485  0.4574  0.4225
 9448SOL    HW231622   6.271   8.595   0.508 -0.5507  0.3002  0.3300
 9449SOL     OW31623   2.634   6.028   5.476  0.1816  0.0276 -0.1401
 9449SOL    HW131624   2.578   5.954   5.454  0.3902 -0.2138  0.1304
 9449SOL    HW231625   2.720   6.005   5.440  0.3955 -0.1387  0.4674
 9450SOL     OW31626   5.273  10.411   3.336 -0.4040 -0.0586 -0.1407
 9450SOL    HW131627   5.188  10.369   3.327 -0.3236  0.1190 -2.5536
 9450SOL    HW231628   5.324  10.350   3.390 -1.8335 -0.4814  0.7849
 9451SOL     OW31629   9.560   4.255   2.219  0.0734  0.1663 -0.5984
 9451SOL    HW131630   9.555   4.340   2.262  0.2225 -0.5340  0.8638
 9451SOL    HW231631   9.634   4.211   2.261 -0.6230 -1.0647 -0.6146
 9452SOL     OW31632   6.694   0.430   1.240 -0.2926 -0.1820 -0.4203
 9452SOL    HW131633   6.721   0.366   1.307  0.6258 -0.3446 -0.9403
 9452SOL    HW231634   6.598   0.423   1.239 -0.3462 -0.0219  1.0319
 9453SOL     OW31635   1.614   5.597   5.419 -0.5160 -0.0419  0.1658
 9453SOL    HW131636   1.648   5.630   5.336 -0.8116 -0.1062  0.0148
 9453SOL    HW231637   1.560   5.668   5.452  0.2781  0.3080  0.7217
 9454SOL     OW31638  10.019   8.063   8.917  0.1044 -0.5093  0.8401
 9454SOL    HW131639   9.992   8.007   8.844  0.3685 -1.7926  1.6846
 9454SOL    HW231640  10.113   8.048   8.925  0.8057  2.3462 -0.7592
 9455SOL     OW31641  10.641   5.229   3.885 -0.4611  0.5915  0.6727
 9455SOL    HW131642  10.608   5.146   3.919 -1.0092  0.6056  0.1884
 9455SOL    HW231643  10.678   5.273   3.961  0.9568 -0.6127  0.7255
 9456SOL     OW31644   3.180  10.928  10.109 -0.0929 -0.7908 -0.3380
 9456SOL    HW131645   3.210  10.841  10.086  1.2423 -0.2424 -0.7621
 9456SOL    HW231646   3.260  10.979  10.123 -0.7804 -0.3546  2.8647
 9457SOL     OW31647   5.588   7.511   6.569 -0.0990 -0.0192  0.0061
 9457SOL    HW131648   5.495   7.493   6.554  0.0121 -0.4325 -0.1991
 9457SOL    HW231649   5.594   7.528   6.663 -0.2698 -0.7352  0.1536
 9458SOL     OW31650   1.672   7.946   5.729 -0.2058 -0.1908 -0.0577
 9458SOL    HW131651   1.764   7.945   5.701 -0.4906  0.3359 -1.0553
 9458SOL    HW231652   1.674   7.988   5.816  0.3869  0.8497 -0.5488
 9459SOL     OW31653   6.094   2.172   7.614 -0.3004  0.1674 -0.1359
 9459SOL    HW131654   6.042   2.173   7.694  0.1153 -0.9639  0.1630
 9459SOL    HW231655   6.080   2.259   7.575 -0.4801  0.7398  1.1644
 9460SOL     OW31656  10.837   3.981   6.112  0.1453 -0.6547 -0.2772
 9460SOL    HW131657  10.847   4.010   6.022 -0.3668  0.2418 -0.0532
 9460SOL    HW231658  10.747   4.003   6.134  0.1322 -1.2721  0.3152
 9461SOL     OW31659  10.275   2.445   8.639 -0.2872 -0.3465 -0.0607
 9461SOL    HW131660  10.357   2.414   8.601 -0.4021 -0.3600 -0.3008
 9461SOL    HW231661  10.209   2.384   8.607 -0.5427  0.2564 -0.6940
 9462SOL     OW31662  11.182   7.812   1.275  0.4303 -0.1170  0.4295
 9462SOL    HW131663  11.115   7.747   1.297  0.1723 -0.0507 -0.1398
 9462SOL    HW231664  11.260   7.783   1.322  0.0659 -0.3276  0.9074
 9463SOL     OW31665   4.853   3.172   8.752  0.6154  0.1096  0.1485
 9463SOL    HW131666   4.908   3.097   8.729  0.2234 -0.0868 -0.1755
 9463SOL    HW231667   4.896   3.246   8.710  0.3688 -0.1203 -0.5253
 9464SOL     OW31668  10.109   5.544   6.688  0.2896 -0.4690  0.2307
 9464SOL    HW131669  10.164   5.621   6.699  0.5262 -0.5265 -0.4666
 9464SOL    HW231670  10.112   5.526   6.594 -3.2229  1.2284 -0.4008
 9465SOL     OW31671   0.804   2.651   5.686 -0.4178  0.6997  0.6894
 9465SOL    HW131672   0.769   2.717   5.626  0.7349  0.9847  0.2945
 9465SOL    HW231673   0.830   2.700   5.764  2.6270  1.1939 -0.4901
 9466SOL     OW31674   5.847   0.778   2.674  0.5192 -0.1018  1.0926
 9466SOL    HW131675   5.930   0.809   2.712  0.5991  0.7864  0.2403
 9466SOL    HW231676   5.870   0.752   2.585 -0.1584  0.3988  0.7622
 9467SOL     OW31677   6.411   0.123   0.005 -0.3152 -0.0074 -0.9110
 9467SOL    HW131678   6.476   0.111   0.074 -2.1085 -0.0750  0.8445
 9467SOL    HW231679   6.449   0.080  -0.072  1.5836 -0.2451  0.1103
 9468SOL     OW31680   5.406   6.897   9.652  0.3046  0.3792  0.1022
 9468SOL    HW131681   5.458   6.970   9.687 -0.9244  1.7774 -0.8744
 9468SOL    HW231682   5.384   6.924   9.563 -0.6120 -0.9786 -0.1067
 9469SOL     OW31683  11.108   8.315   1.223 -0.2948  0.0359  0.6683
 9469SOL    HW131684  11.140   8.401   1.195  0.8965 -0.6782 -0.2623
 9469SOL    HW231685  11.186   8.259   1.223 -1.1326 -1.1686  0.7768
 9470SOL     OW31686   9.853   7.828  10.984  0.4296  0.2368 -0.9870
 9470SOL    HW131687   9.894   7.741  10.985  1.1002  0.5268  1.0456
 9470SOL    HW231688   9.760   7.810  10.971  0.3035 -0.9815  1.1296
 9471SOL     OW31689   8.699   7.388   4.518 -0.6709  0.3193  0.0942
 9471SOL    HW131690   8.750   7.383   4.437 -0.3670  2.0500  0.1581
 9471SOL    HW231691   8.609   7.400   4.489 -0.5547  0.9992 -0.0053
 9472SOL     OW31692  10.762  10.871   1.312 -0.2100 -0.3204  0.3528
 9472SOL    HW131693  10.673  10.854   1.282 -0.2544  1.2239 -0.4966
 9472SOL    HW231694  10.806  10.787   1.305 -1.0324 -0.6534 -1.2687
 9473SOL     OW31695   2.558  10.989   4.972  0.2469 -0.1234 -0.2221
 9473SOL    HW131696   2.497  11.062   4.974 -1.1067 -1.2213  0.9123
 9473SOL    HW231697   2.552  10.955   4.883 -2.3148 -1.3719  0.3385
 9474SOL     OW31698   9.572   4.828   7.630  0.6177 -0.4795  0.1650
 9474SOL    HW131699   9.519   4.884   7.686  0.1548 -1.7572  1.0482
 9474SOL    HW231700   9.571   4.871   7.544 -0.0600  0.6263  0.7098
 9475SOL     OW31701  10.502   5.834   8.517 -0.0193  0.0273  0.1310
 9475SOL    HW131702  10.460   5.903   8.567  1.1461  1.3254 -0.6323
 9475SOL    HW231703  10.587   5.823   8.558  0.7022  0.6696 -1.1420
 9476SOL     OW31704   1.456   4.742  10.289 -0.2624  0.1089 -0.3025
 9476SOL    HW131705   1.446   4.654  10.252  1.4297  0.0744 -0.7405
 9476SOL    HW231706   1.547   4.766  10.271 -0.1011  1.1239  1.6294
 9477SOL     OW31707   4.905   4.304   0.738  0.6951  0.7829  0.0958
 9477SOL    HW131708   4.962   4.233   0.769  1.7329  0.8757 -1.4979
 9477SOL    HW231709   4.816   4.272   0.756  1.1768 -0.3138  0.6560
 9478SOL     OW31710   2.825  10.443   5.975 -0.1088  0.5402 -0.5132
 9478SOL    HW131711   2.835  10.371   6.038 -0.9651  0.3160 -0.6190
 9478SOL    HW231712   2.902  10.436   5.919  0.0320 -0.0399 -0.2636
 9479SOL     OW31713   1.666   8.101   1.991  0.4767  0.2153  0.2726
 9479SOL    HW131714   1.727   8.087   1.919  0.6988 -0.2386  0.5439
 9479SOL    HW231715   1.647   8.195   1.988  1.8858  0.5472  0.7423
 9480SOL     OW31716  10.101   7.526   6.127  0.3765 -0.3093 -0.1976
 9480SOL    HW131717  10.165   7.590   6.097 -0.6817  2.4200  2.7905
 9480SOL    HW231718  10.017   7.557   6.093  0.0131 -0.9497  0.0893
 9481SOL     OW31719   3.607   7.817   0.988  0.3191 -0.1534  0.1483
 9481SOL    HW131720   3.593   7.816   1.082  0.8755 -0.6612  0.2316
 9481SOL    HW231721   3.660   7.740   0.970 -0.4018 -0.4826 -0.6834
 9482SOL     OW31722   5.447   4.044   5.175  0.1780 -0.2317 -0.5143
 9482SOL    HW131723   5.437   4.050   5.270  1.2736  0.1209 -0.4031
 9482SOL    HW231724   5.430   3.952   5.155 -2.1397  0.0869 -0.2758
 9483SOL     OW31725   8.788   6.331   9.496 -0.5579 -0.2077  0.3787
 9483SOL    HW131726   8.787   6.299   9.586 -1.8015  1.2898  0.9562
 9483SOL    HW231727   8.726   6.405   9.496  1.0563  1.2470 -1.1860
 9484SOL     OW31728   6.050   6.345  10.697 -0.4533 -0.5909 -0.0608
 9484SOL    HW131729   5.978   6.320  10.638 -0.0884 -1.1184 -0.2850
 9484SOL    HW231730   6.129   6.326  10.647 -0.1467  0.9256 -0.1996
 9485SOL     OW31731  10.522   4.224   6.859  0.0713 -0.1836 -0.1579
 9485SOL    HW131732  10.439   4.204   6.815 -0.2346 -1.2001  0.8288
 9485SOL    HW231733  10.587   4.222   6.789 -0.7550  0.8657 -0.9883
 9486SOL     OW31734   1.758   6.906   2.409 -0.0234  0.1511  0.6547
 9486SOL    HW131735   1.779   6.815   2.427  1.2556  0.3790  0.4058
 9486SOL    HW231736   1.832   6.938   2.358 -0.5644  1.2649  0.5415
 9487SOL     OW31737   9.525   3.654   4.469 -0.6321 -0.0473  0.1168
 9487SOL    HW131738   9.459   3.595   4.504  0.1748 -1.4983 -0.7351
 9487SOL    HW231739   9.489   3.681   4.384 -0.3392 -0.4818 -0.1465
 9488SOL     OW31740   3.429   2.798   2.221 -0.3407 -0.1638  0.5207
 9488SOL    HW131741   3.351   2.852   2.209 -0.5207 -0.6306 -0.6141
 9488SOL    HW231742   3.444   2.760   2.135  0.3885 -1.0927  1.0409
 9489SOL     OW31743   7.577   9.072   6.658 -0.5379 -0.0992 -0.0338
 9489SOL    HW131744   7.502   9.021   6.689 -1.9845  1.2420 -1.1577
 9489SOL    HW231745   7.566   9.158   6.697  0.1904  0.2410 -0.5509
 9490SOL     OW31746   9.943   6.582   1.545  0.0494 -0.1556 -0.4973
 9490SOL    HW131747   9.949   6.667   1.588 -1.1726  0.0401 -0.6631
 9490SOL    HW231748   9.972   6.519   1.611  0.4368  0.3448 -0.1873
 9491SOL     OW31749   4.464   6.622   5.719 -0.6011 -0.2496 -0.0953
 9491SOL    HW131750   4.401   6.574   5.772 -0.5978 -0.7797 -0.5680
 9491SOL    HW231751   4.544   6.622   5.770 -0.1783 -2.0093 -0.7164
 9492SOL     OW31752   7.565  10.834   2.333  0.5427 -0.0987  0.4199
 9492SOL    HW131753   7.630  10.832   2.263 -0.7825  2.5294 -1.0290
 9492SOL    HW231754   7.611  10.870   2.408  1.3712 -0.6476  0.1842
 9493SOL     OW31755   2.048   6.804   4.335  0.0549 -0.2970  0.1396
 9493SOL    HW131756   2.122   6.799   4.274  0.5435 -2.3027  0.8235
 9493SOL    HW231757   1.975   6.766   4.288  0.1015 -0.6310  0.3326
 9494SOL     OW31758   4.474   7.037   8.552 -0.1813  0.1735 -0.0349
 9494SOL    HW131759   4.534   7.056   8.624  0.9568 -0.3517 -0.8224
 9494SOL    HW231760   4.524   6.980   8.493 -1.3033  0.0827 -0.9308
 9495SOL     OW31761   5.319   7.712   8.710  0.4049 -0.5330 -0.2655
 9495SOL    HW131762   5.389   7.646   8.713  0.4717 -0.5495 -1.4720
 9495SOL    HW231763   5.257   7.684   8.776  0.9225 -1.2537 -0.0651
 9496SOL     OW31764  11.391   1.148   7.724 -0.1738 -0.3112 -0.4150
 9496SOL    HW131765  11.479   1.116   7.745  0.3336  1.3295  0.1348
 9496SOL    HW231766  11.355   1.176   7.808 -1.3742 -1.2730 -0.5866
 9497SOL     OW31767   9.350   4.779   8.463  0.4463  0.0135  0.7968
 9497SOL    HW131768   9.260   4.805   8.441  1.0084  0.1308 -1.6526
 9497SOL    HW231769   9.395   4.861   8.482  0.7099  0.2838 -0.8619
 9498SOL     OW31770   3.213   4.553   5.155 -0.6448  0.2159  0.9802
 9498SOL    HW131771   3.216   4.633   5.102  1.1621 -0.9663 -0.8148
 9498SOL    HW231772   3.279   4.567   5.223 -2.0441  1.1828  2.2274
 9499SOL     OW31773   1.432   3.481   3.222 -0.2158  0.1891 -0.3795
 9499SOL    HW131774   1.387   3.419   3.163 -1.3516  0.7404 -0.1197
 9499SOL    HW231775   1.423   3.442   3.309  2.6192 -1.3062 -0.6426
 9500SOL     OW31776   2.621   0.669   2.313  0.6381 -0.1394  0.0610
 9500SOL    HW131777   2.563   0.725   2.262 -0.1214 -0.9042  0.0433
 9500SOL    HW231778   2.659   0.726   2.379 -0.2001  0.3708  0.1108
 9501SOL     OW31779   7.015   2.757   5.011  0.1199  0.8305  0.2337
 9501SOL    HW131780   7.059   2.690   4.958 -1.1224  0.0490  0.1465
 9501SOL    HW231781   7.027   2.728   5.101  0.9943  1.3896  0.3081
 9502SOL     OW31782  10.921   7.473   4.916  0.2585  0.0349 -0.0606
 9502SOL    HW131783  10.932   7.458   4.822  1.3881  2.0287 -0.3128
 9502SOL    HW231784  10.852   7.412   4.943  1.1954 -1.8935 -1.7841
 9503SOL     OW31785   4.225   0.301   2.714 -0.4809 -0.1092 -0.2615
 9503SOL    HW131786   4.132   0.289   2.732 -0.2940 -1.6435 -0.1919
 9503SOL    HW231787   4.259   0.345   2.792 -1.0283 -0.1236 -0.0136
 9504SOL     OW31788   5.321   3.101   6.679  0.3134 -0.0681 -0.6631
 9504SOL    HW131789   5.342   3.052   6.600  5.0042  1.0420 -0.4130
 9504SOL    HW231790   5.303   3.190   6.649 -1.0938 -0.3322 -0.6443
 9505SOL     OW31791   3.107   2.352   6.546 -0.5490 -0.5270  0.5337
 9505SOL    HW131792   3.030   2.323   6.595 -1.3582  0.5084 -0.0835
 9505SOL    HW231793   3.078   2.356   6.455 -0.2773  1.4043  0.4722
 9506SOL     OW31794  11.192   9.103   3.519  0.4818  0.2744 -0.6248
 9506SOL    HW131795  11.177   9.162   3.445  0.4543  0.4107 -0.5112
 9506SOL    HW231796  11.183   9.159   3.596  1.8465  0.4265 -0.5553
 9507SOL     OW31797   9.740   4.146   5.773  0.1976 -0.2899  0.2461
 9507SOL    HW131798   9.690   4.225   5.750  0.8376  0.7244  2.0719
 9507SOL    HW231799   9.684   4.073   5.746 -2.3306  0.7898  2.1231
 9508SOL     OW31800   2.107  10.821   9.220  0.1546 -0.1767 -0.5254
 9508SOL    HW131801   2.050  10.836   9.295  1.0900 -1.8008  0.5810
 9508SOL    HW231802   2.095  10.898   9.164 -2.4162 -0.0623  0.0703
 9509SOL     OW31803  10.815   4.337   9.282 -0.2400 -0.0010 -0.1913
 9509SOL    HW131804  10.720   4.342   9.278 -0.2934  0.2473  0.9063
 9509SOL    HW231805  10.836   4.353   9.374  0.9009  0.6403 -0.5310
 9510SOL     OW31806   7.134   8.315   0.622 -0.2301 -0.1312 -0.4169
 9510SOL    HW131807   7.181   8.233   0.641  0.6364  0.7160  1.3723
 9510SOL    HW231808   7.202   8.382   0.620 -1.2609  1.7305  5.6101
 9511SOL     OW31809   1.634  10.871   2.784  0.1331  0.7832 -0.3296
 9511SOL    HW131810   1.590  10.867   2.700 -0.3911  0.6618 -0.0532
 9511SOL    HW231811   1.580  10.929   2.837 -0.6285 -0.6678  0.5446
 9512SOL     OW31812   6.642   8.068   4.948 -0.0933 -0.2979 -0.1590
 9512SOL    HW131813   6.586   7.990   4.954 -1.1870  0.3977 -0.8821
 9512SOL    HW231814   6.729   8.037   4.973 -0.6461 -1.5885  0.2663
 9513SOL     OW31815   7.424  10.199   2.700  0.1397  0.1158  0.4899
 9513SOL    HW131816   7.338  10.202   2.742 -0.3367  0.6068 -0.4938
 9513SOL    HW231817   7.473  10.133   2.750  0.4798  2.4198  3.4063
 9514SOL     OW31818   2.008   3.288   9.428 -0.2664 -0.2249 -0.0371
 9514SOL    HW131819   2.090   3.278   9.381  1.0400 -0.2520  2.1453
 9514SOL    HW231820   2.029   3.345   9.502 -2.1591 -0.4531  0.7399
 9515SOL     OW31821   2.041   2.655   3.792 -0.5485  0.0014  0.4665
 9515SOL    HW131822   2.135   2.647   3.779 -0.8363 -1.6257 -1.0901
 9515SOL    HW231823   2.028   2.643   3.886  0.8272  1.0278  0.8250
 9516SOL     OW31824   4.643   2.176   0.557  0.2998  0.0392  0.3404
 9516SOL    HW131825   4.718   2.200   0.611  0.2170 -0.6196  0.7537
 9516SOL    HW231826   4.610   2.260   0.525 -0.1180  0.5336  1.9480
 9517SOL     OW31827   2.584   6.046   0.792 -0.3711 -0.7650 -0.5717
 9517SOL    HW131828   2.519   6.116   0.798 -1.4827 -1.7394 -0.8940
 9517SOL    HW231829   2.632   6.050   0.875 -0.6541  0.1483 -0.4456
 9518SOL     OW31830  10.903   8.259   9.294 -0.4208 -0.3338  0.2570
 9518SOL    HW131831  10.876   8.220   9.211 -0.1197  1.8207 -0.9141
 9518SOL    HW231832  10.827   8.247   9.352 -0.8381 -1.3853 -0.4761
 9519SOL     OW31833   1.624  10.349   4.388  0.7487 -0.2393 -0.3320
 9519SOL    HW131834   1.609  10.267   4.341 -0.8082  0.5327 -1.2384
 9519SOL    HW231835   1.541  10.366   4.433  1.4195  0.2966  0.7627
 9520SOL     OW31836   0.719   5.668  10.275 -0.0591  0.2182  0.4064
 9520SOL    HW131837   0.660   5.695  10.345 -0.5147 -1.2656  0.6196
 9520SOL    HW231838   0.669   5.680  10.195 -1.0662 -1.9500  0.6497
 9521SOL     OW31839   7.665   5.099   6.818 -0.3136 -0.4154 -0.4061
 9521SOL    HW131840   7.744   5.127   6.864  0.2006 -1.1850 -0.8125
 9521SOL    HW231841   7.605   5.173   6.827  0.4124  0.1357 -0.0071
 9522SOL     OW31842   4.560   5.060   0.904 -0.5536  0.0394  0.3364
 9522SOL    HW131843   4.484   5.032   0.955  0.5610 -1.6080  1.1807
 9522SOL    HW231844   4.573   4.990   0.839  0.8665 -0.2786  0.9252
 9523SOL     OW31845   0.780   1.876   4.344 -0.2650  0.2713 -0.1841
 9523SOL    HW131846   0.784   1.828   4.427 -0.9743 -1.2533 -0.9756
 9523SOL    HW231847   0.686   1.886   4.327 -0.1272  1.8578 -0.1146
 9524SOL     OW31848   6.536   1.701   8.478 -0.4354 -0.0929 -0.0344
 9524SOL    HW131849   6.547   1.693   8.384  0.3771  1.3597 -0.0977
 9524SOL    HW231850   6.480   1.778   8.489 -0.7368 -0.4043  0.6590
 9525SOL     OW31851   1.477   1.559   5.148  0.4816 -0.3423 -0.2140
 9525SOL    HW131852   1.518   1.486   5.195  0.4367 -1.8748 -2.4218
 9525SOL    HW231853   1.412   1.593   5.209  0.4639 -2.1978  0.8763
 9526SOL     OW31854   4.016   3.973   6.602 -0.9671  0.2070  0.8394
 9526SOL    HW131855   4.024   4.008   6.691 -0.9384  0.1672  0.8522
 9526SOL    HW231856   4.024   4.050   6.546  0.4682  0.0703  0.8081
 9527SOL     OW31857   6.480   4.034   5.112 -0.5437 -0.1978  0.0648
 9527SOL    HW131858   6.550   4.088   5.076 -0.0853 -0.2561  0.8604
 9527SOL    HW231859   6.476   3.958   5.053 -0.6586  0.3117 -0.5944
 9528SOL     OW31860   3.132   1.447   3.275 -0.1524 -0.0796 -0.6391
 9528SOL    HW131861   3.176   1.508   3.335 -0.7072 -1.9564  1.8538
 9528SOL    HW231862   3.190   1.371   3.270 -0.0070  0.1142 -2.7834
 9529SOL     OW31863   4.951  10.774   4.288  0.0019 -0.3158  0.1866
 9529SOL    HW131864   4.981  10.851   4.336 -0.2166 -0.8563  1.2240
 9529SOL    HW231865   5.025  10.750   4.232  0.0529  0.6675 -0.1965
 9530SOL     OW31866   6.242   5.717   7.464 -0.5454  0.4845  0.2623
 9530SOL    HW131867   6.159   5.723   7.418 -1.0207 -1.4612  0.8004
 9530SOL    HW231868   6.224   5.752   7.551 -1.0798 -0.8297  0.6938
 9531SOL     OW31869   8.573   4.218   2.180 -0.0656  0.0792  0.1119
 9531SOL    HW131870   8.504   4.258   2.232  0.3305  0.1026  0.6309
 9531SOL    HW231871   8.581   4.273   2.103  0.3950  0.9483  0.7615
 9532SOL     OW31872   8.434   1.128   2.250 -0.2929 -0.5408  0.4690
 9532SOL    HW131873   8.449   1.152   2.159 -1.8119 -0.2494  0.2641
 9532SOL    HW231874   8.436   1.032   2.251  1.3674 -0.5251  0.4592
 9533SOL     OW31875   2.187   8.167   4.475  0.0412 -0.0965  0.8607
 9533SOL    HW131876   2.101   8.182   4.516  0.6264  0.6059  1.8870
 9533SOL    HW231877   2.242   8.136   4.546  0.9945  0.7879  0.5226
 9534SOL     OW31878   1.062   4.052   5.463  0.3330  0.5055 -0.0525
 9534SOL    HW131879   1.113   4.133   5.466  0.7050  0.2442  1.5213
 9534SOL    HW231880   1.072   4.013   5.550 -0.3374 -0.9331 -0.5709
 9535SOL     OW31881  10.856  10.996   6.713 -0.2349  0.2936  0.5656
 9535SOL    HW131882  10.850  10.972   6.806  0.4639  0.7362  0.7382
 9535SOL    HW231883  10.782  10.953   6.672 -0.5340  0.0624  1.3301
 9536SOL     OW31884   3.009   9.697   4.304 -0.3156 -0.4136  0.4048
 9536SOL    HW131885   3.045   9.635   4.240 -0.3351 -0.0741  0.0587
 9536SOL    HW231886   3.018   9.653   4.388 -0.3789 -0.9071  0.1568
 9537SOL     OW31887   7.356   8.609  11.081 -0.0334  1.0893 -0.0370
 9537SOL    HW131888   7.329   8.625  11.171 -0.7220  2.9701 -0.5369
 9537SOL    HW231889   7.282   8.638  11.028 -0.2151 -1.2680 -1.2143
 9538SOL     OW31890   5.341   4.599  10.354 -0.0688 -0.5805 -0.5066
 9538SOL    HW131891   5.257   4.589  10.399  0.6647 -1.1280  0.8174
 9538SOL    HW231892   5.370   4.687  10.377  0.4144 -0.9442  0.3193
 9539SOL     OW31893   4.439   2.001   7.535  0.0954 -0.2030 -0.1814
 9539SOL    HW131894   4.471   2.017   7.623 -0.5325 -1.2125  0.2471
 9539SOL    HW231895   4.502   1.939   7.497 -0.2667 -0.6760 -0.0223
 9540SOL     OW31896   2.825  10.078   7.224  0.2232 -0.1440 -0.1688
 9540SOL    HW131897   2.828   9.983   7.225  0.5267 -0.1549  1.9317
 9540SOL    HW231898   2.915  10.106   7.242  0.0982  0.5513 -0.5550
 9541SOL     OW31899  10.330  10.025   2.300 -0.1646 -0.4223  0.2993
 9541SOL    HW131900  10.376  10.003   2.381  2.3906 -1.2498 -1.2789
 9541SOL    HW231901  10.384  10.093   2.259 -1.1956 -0.2960 -0.9083
 9542SOL     OW31902   3.608   3.875   5.172  0.0689 -0.1771 -0.4216
 9542SOL    HW131903   3.599   3.781   5.191  0.1284 -0.0907  0.0379
 9542SOL    HW231904   3.697   3.884   5.136  0.2683 -0.2108  0.0610
 9543SOL     OW31905   2.362   1.350  10.684 -0.5943 -0.8212 -0.8311
 9543SOL    HW131906   2.326   1.271  10.725 -2.7984 -0.0669 -1.1923
 9543SOL    HW231907   2.374   1.411  10.756 -2.8071 -0.1088 -0.9889
 9544SOL     OW31908  10.889   1.348   7.061  0.1531  0.0272 -0.0402
 9544SOL    HW131909  10.927   1.392   7.137  1.1051 -1.1820  0.2134
 9544SOL    HW231910  10.954   1.359   6.991 -0.4200  0.5638 -0.5022
 9545SOL     OW31911  10.948   7.010   2.135 -0.2976 -0.1717 -0.2612
 9545SOL    HW131912  10.879   6.980   2.195  0.2518  0.1856  0.5682
 9545SOL    HW231913  10.915   7.093   2.100 -0.3441 -0.0588  0.0469
 9546SOL     OW31914   1.428   3.905   4.063  0.3704 -0.2443  0.4483
 9546SOL    HW131915   1.469   3.849   4.129  0.0512  0.3505  1.1733
 9546SOL    HW231916   1.344   3.863   4.045  1.5391 -1.8411 -1.5506
 9547SOL     OW31917   3.053   5.758   0.385  0.4043  0.0757  0.0523
 9547SOL    HW131918   3.070   5.829   0.323  0.0419 -0.6687 -0.9342
 9547SOL    HW231919   2.981   5.790   0.440  0.2552  0.4861 -0.3748
 9548SOL     OW31920  10.288   0.237   3.902 -0.4317 -0.7737 -0.3099
 9548SOL    HW131921  10.339   0.193   3.834 -0.4666 -2.7012  0.8687
 9548SOL    HW231922  10.292   0.330   3.877 -0.7025 -1.4181 -3.0904
 9549SOL     OW31923   0.828   2.559   5.428  0.4258  0.4767 -0.1217
 9549SOL    HW131924   0.816   2.581   5.520 -1.1857  0.2204 -0.2344
 9549SOL    HW231925   0.906   2.503   5.426 -0.0880 -0.3421  1.2222
 9550SOL     OW31926  11.118   8.151   2.425  0.5182 -0.3299  0.5359
 9550SOL    HW131927  11.209   8.179   2.419  0.2994  0.5236  1.0377
 9550SOL    HW231928  11.074   8.198   2.354  0.4174 -0.5450  0.4543
 9551SOL     OW31929  10.283   1.209   9.608 -0.6625 -0.3753 -0.4380
 9551SOL    HW131930  10.230   1.147   9.558  1.0378 -2.0803 -0.2387
 9551SOL    HW231931  10.269   1.293   9.565 -2.7870 -0.9329 -0.9193
 9552SOL     OW31932   0.419   5.661   4.876 -0.4455  0.4096  0.6046
 9552SOL    HW131933   0.324   5.652   4.873 -0.4522  0.0342  1.5802
 9552SOL    HW231934   0.441   5.712   4.798 -1.4023  0.1510  0.1567
 9553SOL     OW31935  10.202   6.403   0.379  0.0076  0.2944 -0.1410
 9553SOL    HW131936  10.111   6.386   0.400 -0.3467  1.2399 -0.8469
 9553SOL    HW231937  10.252   6.350   0.442 -1.0080 -1.6567 -0.9158
 9554SOL     OW31938   9.361   8.200   1.232  0.4242  0.4526  0.3899
 9554SOL    HW131939   9.299   8.263   1.195 -0.6047  0.5723  2.1991
 9554SOL    HW231940   9.308   8.123   1.251  1.1014  0.0776  0.7756
 9555SOL     OW31941   0.673   3.295   7.749 -0.0611  0.0321 -0.5214
 9555SOL    HW131942   0.662   3.263   7.838 -1.3360  1.1664 -0.2379
 9555SOL    HW231943   0.756   3.343   7.750  0.9884 -1.6990 -0.5189
 9556SOL     OW31944   5.319   0.135   1.987  0.2808  0.0857  0.4027
 9556SOL    HW131945   5.395   0.189   1.966 -0.4614  0.4248 -1.6409
 9556SOL    HW231946   5.243   0.191   1.969 -0.4866 -1.2631 -0.7580
 9557SOL     OW31947  11.209   8.150   3.196  0.3094 -0.4732 -0.2277
 9557SOL    HW131948  11.138   8.183   3.251  0.8223  0.6757 -0.2245
 9557SOL    HW231949  11.198   8.055   3.196 -0.6406 -0.3717  0.5642
 9558SOL     OW31950  10.408   2.735   9.780  0.2454  0.9348  0.1314
 9558SOL    HW131951  10.379   2.813   9.733  0.0458  1.2454  0.7649
 9558SOL    HW231952  10.398   2.757   9.872  1.8510  0.8100  0.3669
 9559SOL     OW31953   1.176   6.217  10.137  0.0959 -0.2819 -0.4095
 9559SOL    HW131954   1.200   6.161  10.210  0.2881 -1.3158 -1.2532
 9559SOL    HW231955   1.231   6.295  10.148  1.3370 -1.1263 -0.3639
 9560SOL     OW31956   2.503   2.339   4.292 -0.1876 -0.0075 -0.3205
 9560SOL    HW131957   2.433   2.363   4.352  0.1918 -0.9648  0.5491
 9560SOL    HW231958   2.518   2.246   4.310 -1.0486 -0.7379 -2.9339
 9561SOL     OW31959   4.826   1.227   2.153 -1.1573 -0.1091  0.5859
 9561SOL    HW131960   4.799   1.265   2.069 -0.8792 -0.2485  0.4319
 9561SOL    HW231961   4.857   1.140   2.131  1.5572  0.8230  0.4108
 9562SOL     OW31962   5.814   7.626   5.915  0.4095  0.2948  0.2894
 9562SOL    HW131963   5.844   7.585   5.834 -1.7506 -0.9530  0.0218
 9562SOL    HW231964   5.837   7.564   5.984  2.0319  1.2450  0.6395
 9563SOL     OW31965   7.273   6.480   9.892 -0.1191  0.8392 -0.2634
 9563SOL    HW131966   7.349   6.512   9.845 -0.5232  2.3845  0.0720
 9563SOL    HW231967   7.222   6.558   9.912 -1.3236 -0.0567  0.3510
 9564SOL     OW31968   8.441  10.349   3.772  0.3126  0.7902  0.1897
 9564SOL    HW131969   8.406  10.273   3.819  0.0901  0.8606  0.1387
 9564SOL    HW231970   8.536  10.345   3.787  0.4747 -0.2808 -0.9490
 9565SOL     OW31971   8.420   3.671   9.620 -0.0722 -0.1372  0.0754
 9565SOL    HW131972   8.492   3.731   9.639  1.5077 -2.3136  1.2571
 9565SOL    HW231973   8.386   3.701   9.535  1.8476  1.2737 -0.2523
 9566SOL     OW31974   0.022  10.703   3.898 -0.2549 -0.3511  0.0582
 9566SOL    HW131975   0.048  10.614   3.922  0.5200 -0.4775 -1.1930
 9566SOL    HW231976  -0.056  10.720   3.951 -0.3949 -1.7594  0.3386
 9567SOL     OW31977  10.948   5.294   3.071  0.6037  0.2150  0.0251
 9567SOL    HW131978  11.002   5.260   3.143 -0.6755 -1.1131  0.4120
 9567SOL    HW231979  10.896   5.219   3.043 -0.5818  1.2883 -0.7528
 9568SOL     OW31980   1.210   9.613   5.861 -0.1542 -0.7758  0.2822
 9568SOL    HW131981   1.248   9.581   5.943  1.7505 -0.9018 -0.5888
 9568SOL    HW231982   1.257   9.695   5.843 -2.1480  0.4547  0.4390
 9569SOL     OW31983   4.102   1.719  10.815 -0.8181  0.7578 -0.6772
 9569SOL    HW131984   4.132   1.692  10.728  1.3057  1.0389 -0.0820
 9569SOL    HW231985   4.030   1.780  10.798 -0.3807  0.8697 -2.2494
 9570SOL     OW31986   7.594   1.633   3.098  0.6416 -0.4264 -0.2792
 9570SOL    HW131987   7.552   1.716   3.121 -0.1780 -0.8630 -0.1376
 9570SOL    HW231988   7.648   1.611   3.174 -0.8175 -1.0723  0.6222
 9571SOL     OW31989   8.016   7.459   9.915 -0.3813 -0.6343  0.5577
 9571SOL    HW131990   8.102   7.422   9.933 -0.7775 -1.7092  0.3110
 9571SOL    HW231991   8.015   7.476   9.821 -0.0567  0.4283  0.7262
 9572SOL     OW31992   0.380   7.442   6.404  0.4023 -0.4684  0.1849
 9572SOL    HW131993   0.295   7.469   6.371  0.9200  0.7413 -0.2032
 9572SOL    HW231994   0.435   7.435   6.325  0.9886 -0.0047  0.5462
 9573SOL     OW31995   9.565   8.937   8.056  0.1239 -0.4546  0.0716
 9573SOL    HW131996   9.598   8.944   7.967  0.1517 -0.9099  0.0467
 9573SOL    HW231997   9.618   9.000   8.106 -0.4818  0.4426 -0.3942
 9574SOL     OW31998   7.524   2.100   4.089 -0.0618 -0.0539 -0.1258
 9574SOL    HW131999   7.609   2.058   4.107 -0.6902 -1.6996 -0.7638
 9574SOL    HW232000   7.533   2.134   4.000  0.4986  1.3914  0.4444
 9575SOL     OW32001  10.274   0.660   8.587  0.2798  0.0809  0.4212
 9575SOL    HW132002  10.264   0.716   8.664  0.2681  0.9205 -0.1766
 9575SOL    HW232003  10.349   0.696   8.541 -0.6270  0.5404 -0.7356
 9576SOL     OW32004   7.820  10.658   5.409  0.3752 -0.3499 -0.0053
 9576SOL    HW132005   7.762  10.734   5.411  0.1682 -0.4573 -1.1345
 9576SOL    HW232006   7.898  10.689   5.363  1.0141 -0.3508  1.0540
 9577SOL     OW32007   6.601   7.239   1.521 -0.2222  0.2830 -0.5764
 9577SOL    HW132008   6.607   7.204   1.432 -1.0936 -0.7010 -0.2687
 9577SOL    HW232009   6.611   7.162   1.578  0.0676  0.8629  0.1747
 9578SOL     OW32010   4.669   5.957   3.864 -0.0676  0.9399 -0.2350
 9578SOL    HW132011   4.617   5.906   3.926 -0.9018  0.5622 -1.2098
 9578SOL    HW232012   4.726   5.893   3.821 -0.8384  0.8560 -1.1811
 9579SOL     OW32013  10.049   7.833   0.585 -0.1228  0.2136 -0.0330
 9579SOL    HW132014  10.115   7.791   0.530 -0.5650  0.5979 -0.8765
 9579SOL    HW232015   9.977   7.770   0.589  0.8609 -0.8641  2.1360
 9580SOL     OW32016   4.845   0.799   4.752  0.8789  0.3370  0.1412
 9580SOL    HW132017   4.812   0.803   4.842 -0.0547  0.5789 -0.2097
 9580SOL    HW232018   4.881   0.710   4.745 -1.2874 -0.5941 -0.0013
 9581SOL     OW32019   3.326   3.897   3.671  0.2913  0.4077 -0.1138
 9581SOL    HW132020   3.260   3.830   3.655  0.1595  0.0483  1.7251
 9581SOL    HW232021   3.307   3.965   3.607  1.0980 -1.7102 -2.8233
 9582SOL     OW32022  11.367   6.154   1.641 -0.3849 -0.0070 -0.2201
 9582SOL    HW132023  11.335   6.234   1.600  1.6784  0.0537 -1.8578
 9582SOL    HW232024  11.346   6.085   1.579 -1.3845 -0.6402  0.7911
 9583SOL     OW32025   7.249   2.179   6.082  0.3827  0.2384  0.0867
 9583SOL    HW132026   7.284   2.203   5.996 -1.1074  0.8314 -0.3986
 9583SOL    HW232027   7.269   2.086   6.092  1.1061  0.3090 -0.6270
 9584SOL     OW32028   6.385   9.272  10.344  0.3691 -0.0749 -0.1623
 9584SOL    HW132029   6.303   9.292  10.389 -0.6636  1.5190 -2.5391
 9584SOL    HW232030   6.426   9.357  10.331  1.8197 -0.7422 -0.0845
 9585SOL     OW32031   2.198   2.467   0.724  0.6966 -0.1837  0.4117
 9585SOL    HW132032   2.193   2.498   0.814  2.2549 -1.4059  0.9661
 9585SOL    HW232033   2.242   2.538   0.677  1.4414 -0.2307  1.0053
 9586SOL     OW32034   9.638   6.767   2.749 -0.1047 -0.0536 -0.4616
 9586SOL    HW132035   9.700   6.835   2.778  0.0329  0.4950 -1.9292
 9586SOL    HW232036   9.552   6.806   2.762 -0.4410 -1.7363  3.9559
 9587SOL     OW32037   7.072  10.713  10.488  0.2292  0.0922  0.5045
 9587SOL    HW132038   6.986  10.700  10.529  0.6254 -0.1159  1.2778
 9587SOL    HW232039   7.101  10.799  10.519 -0.2164  0.7178 -0.7192
 9588SOL     OW32040   1.568  10.616   4.030  0.4859 -0.2145  0.3700
 9588SOL    HW132041   1.640  10.577   4.080  2.5319  1.4307 -1.1504
 9588SOL    HW232042   1.497  10.552   4.038  3.0107 -3.4161 -0.4701
 9589SOL     OW32043   0.243   8.417   1.728  0.2692 -0.2201 -0.9329
 9589SOL    HW132044   0.156   8.385   1.754  1.0494 -1.3663  0.3921
 9589SOL    HW232045   0.249   8.394   1.635 -0.5162 -0.9169 -0.8301
 9590SOL     OW32046   5.148   1.034  10.011  0.3306  0.1630 -0.3476
 9590SOL    HW132047   5.210   1.053   9.941  0.7259  0.3572  0.0541
 9590SOL    HW232048   5.142   0.938  10.012  0.2307  0.1659 -0.7277
 9591SOL     OW32049   2.712   0.874   9.677 -0.0895 -0.4853 -0.3402
 9591SOL    HW132050   2.629   0.917   9.698 -1.2354 -3.2756  1.3241
 9591SOL    HW232051   2.772   0.900   9.748  0.2131  0.7219 -1.0036
 9592SOL     OW32052   4.885   1.722  10.666  0.4035  0.1941 -0.3060
 9592SOL    HW132053   4.954   1.733  10.601  0.5958  1.5268  0.0943
 9592SOL    HW232054   4.828   1.799  10.653 -1.4653 -1.2289 -1.1453
 9593SOL     OW32055   7.422   9.916   2.186  0.2584 -0.2404  0.0842
 9593SOL    HW132056   7.347   9.858   2.177 -1.0910  1.6241 -1.3022
 9593SOL    HW232057   7.487   9.882   2.125  0.6390 -1.8799  1.3143
 9594SOL     OW32058   5.568   9.444   1.970  0.0362  0.2736 -0.0146
 9594SOL    HW132059   5.642   9.501   1.992  0.1266 -0.4388  1.6893
 9594SOL    HW232060   5.491   9.499   1.988  0.1348  0.2980  0.3460
 9595SOL     OW32061   2.439   6.863   4.912  0.2346  0.3010  0.1168
 9595SOL    HW132062   2.455   6.957   4.900  0.9829 -0.0163 -1.7500
 9595SOL    HW232063   2.514   6.821   4.870  0.5792 -1.1489  2.0592
 9596SOL     OW32064   8.155   6.691   5.339  0.8196  0.1066 -0.2325
 9596SOL    HW132065   8.158   6.597   5.354 -1.0049 -0.1639 -1.2524
 9596SOL    HW232066   8.229   6.710   5.282  0.1946 -1.0189 -1.4459
 9597SOL     OW32067   0.992   3.412   2.557 -0.3285  0.6906 -0.1010
 9597SOL    HW132068   0.928   3.378   2.495  0.7868  1.4148 -1.7207
 9597SOL    HW232069   0.943   3.425   2.638 -1.5311 -1.6089 -0.3674
 9598SOL     OW32070   3.932   1.758   6.574 -0.1443  0.4926  0.3544
 9598SOL    HW132071   3.916   1.852   6.578  0.4076  0.5852  0.4642
 9598SOL    HW232072   3.848   1.721   6.545 -0.5363  0.9596  0.8727
 9599SOL     OW32073   2.260   3.969   3.271  0.0126 -0.4202 -0.2496
 9599SOL    HW132074   2.167   3.978   3.249  0.0711  1.4009  0.0563
 9599SOL    HW232075   2.306   3.992   3.190  0.2050 -1.1177 -0.3420
 9600SOL     OW32076   6.825   7.738   2.733  0.4065  0.2353  0.3664
 9600SOL    HW132077   6.857   7.656   2.695 -0.6334  0.4274 -1.0273
 9600SOL    HW232078   6.857   7.737   2.823  0.6706 -1.5613  0.2941
 9601SOL     OW32079  10.163   3.003   7.154 -0.1759  0.0871 -0.2150
 9601SOL    HW132080  10.103   2.940   7.114 -0.4419  0.5477 -0.5539
 9601SOL    HW232081  10.217   3.034   7.081 -0.0032  0.2034 -0.0405
 9602SOL     OW32082   9.926   5.487   7.082 -0.2989  0.2211 -0.1158
 9602SOL    HW132083   9.998   5.433   7.114  0.4044  2.1042  1.7326
 9602SOL    HW232084   9.860   5.425   7.052  1.2563 -1.5923  0.0623
 9603SOL     OW32085   5.710   2.230   9.271  0.4430  0.0542 -0.1377
 9603SOL    HW132086   5.785   2.173   9.281  0.5468  0.3025  0.5224
 9603SOL    HW232087   5.678   2.245   9.360  0.8075  1.5230 -0.2175
 9604SOL     OW32088   7.489   9.087   1.012  0.1150  0.2772  0.0155
 9604SOL    HW132089   7.560   9.134   0.967 -0.5238  0.6319 -0.6345
 9604SOL    HW232090   7.493   8.999   0.976  0.3966  0.2203  0.1808
 9605SOL     OW32091   8.675   3.943   8.733 -0.2841 -0.5476 -0.3245
 9605SOL    HW132092   8.671   3.888   8.656 -0.7314 -1.1143  0.0933
 9605SOL    HW232093   8.587   3.980   8.741  0.1430  0.6562 -0.8960
 9606SOL     OW32094   5.842   7.595   5.443  0.3734 -0.7404  0.4118
 9606SOL    HW132095   5.874   7.547   5.367 -0.4248 -2.2358  0.9886
 9606SOL    HW232096   5.922   7.619   5.492  0.8412 -0.3865 -0.5022
 9607SOL     OW32097   5.599   4.266   5.581 -0.1598 -0.0607  0.2917
 9607SOL    HW132098   5.578   4.173   5.578 -2.0577  0.3339  0.0127
 9607SOL    HW232099   5.585   4.297   5.491  1.7028  0.2794  0.0758
 9608SOL     OW32100   6.399   8.393   1.521  0.2527 -0.8994 -0.0327
 9608SOL    HW132101   6.309   8.381   1.551 -0.0335 -1.6788 -1.1362
 9608SOL    HW232102   6.405   8.486   1.500 -0.7098 -1.0835 -1.2006
 9609SOL     OW32103   1.938   6.419   5.157 -0.1027 -0.6537 -0.6185
 9609SOL    HW132104   1.902   6.333   5.136 -1.7065 -0.3109  0.5959
 9609SOL    HW232105   1.875   6.482   5.121  0.1626  0.0030  0.0352
 9610SOL     OW32106   4.266   9.944   1.106  0.0934  0.1160 -0.1494
 9610SOL    HW132107   4.232  10.014   1.162 -1.2572  0.4949 -1.3875
 9610SOL    HW232108   4.245   9.972   1.017  1.7555 -0.7049 -0.8353
 9611SOL     OW32109   6.470   3.370   8.302 -0.7154  0.2126 -0.7040
 9611SOL    HW132110   6.393   3.382   8.359 -1.7230  0.2725 -2.0215
 9611SOL    HW232111   6.453   3.287   8.257  1.0780 -0.9230  0.5476
 9612SOL     OW32112   2.342   6.172   1.482  0.3305 -0.2594  0.5263
 9612SOL    HW132113   2.386   6.224   1.414 -0.1408  1.2519  1.3227
 9612SOL    HW232114   2.275   6.122   1.434 -0.9805  1.8866 -0.0232
 9613SOL     OW32115   8.637   4.129   6.396 -0.1654 -0.6106  0.1567
 9613SOL    HW132116   8.716   4.102   6.349  0.3007  0.8114  0.1066
 9613SOL    HW232117   8.660   4.123   6.488 -0.3523 -1.2114  0.1704
 9614SOL     OW32118   7.109   7.043   0.967  0.3052 -0.5667 -0.0520
 9614SOL    HW132119   7.137   7.085   0.886 -0.2717 -2.4348 -1.2954
 9614SOL    HW232120   7.079   7.115   1.023 -0.7964  0.6664 -2.1148
 9615SOL     OW32121   8.564   4.033   4.673 -0.0749 -0.0049  0.1964
 9615SOL    HW132122   8.579   3.938   4.669 -1.2950 -0.2496  0.8441
 9615SOL    HW232123   8.473   4.041   4.700 -1.1625  1.3373 -3.2851
 9616SOL     OW32124   9.692  10.095   5.082  0.6651  0.4516 -0.3720
 9616SOL    HW132125   9.620  10.127   5.137 -0.1786  0.3405 -1.3704
 9616SOL    HW232126   9.701  10.003   5.105  1.9003  0.9260  1.2305
 9617SOL     OW32127   0.447   7.669   7.159 -0.2316  0.7673 -0.5821
 9617SOL    HW132128   0.511   7.609   7.121  1.5714  2.3678 -0.1940
 9617SOL    HW232129   0.440   7.741   7.096 -2.5089  0.1490 -1.1367
 9618SOL     OW32130   4.981   3.964   4.774  0.3628  0.5346 -0.3757
 9618SOL    HW132131   4.973   3.872   4.747 -1.3669  0.5954 -0.1457
 9618SOL    HW232132   5.009   3.960   4.865 -0.6729  0.2039 -0.0637
 9619SOL     OW32133   4.460   4.205   0.643  0.2307 -0.0020  0.0335
 9619SOL    HW132134   4.381   4.237   0.686  0.3899 -0.4707  0.6858
 9619SOL    HW232135   4.529   4.217   0.709  0.8852  1.2621 -0.8449
 9620SOL     OW32136   7.795  10.024   0.660 -0.3651 -0.4287  0.8087
 9620SOL    HW132137   7.732   9.956   0.684 -0.6518  0.1966  1.8944
 9620SOL    HW232138   7.790  10.088   0.731  2.3829 -0.9551  1.5988
 9621SOL     OW32139   7.458   2.839   9.762 -0.4958 -0.1605  0.1574
 9621SOL    HW132140   7.463   2.772   9.693  1.5812 -0.3703  0.4227
 9621SOL    HW232141   7.539   2.889   9.752 -1.5626  1.7607  0.5731
 9622SOL     OW32142   9.124   1.293   6.187 -0.6867  0.0144  0.1288
 9622SOL    HW132143   9.078   1.227   6.135 -0.4965  1.1334 -1.5376
 9622SOL    HW232144   9.190   1.243   6.236 -1.1297 -1.1296 -0.4098
 9623SOL     OW32145   7.872   6.784   6.380 -0.0734 -0.1145 -0.4747
 9623SOL    HW132146   7.858   6.860   6.324 -2.0863  0.5298  0.7867
 9623SOL    HW232147   7.847   6.814   6.468 -0.2509 -2.0451  0.1824
 9624SOL     OW32148  10.493   7.210  11.191  0.3629  0.0326  0.3967
 9624SOL    HW132149  10.587   7.194  11.200  0.2754 -0.5358  0.3149
 9624SOL    HW232150  10.451   7.135  11.233 -0.0705  0.9833  1.7406
 9625SOL     OW32151  10.951   4.093   0.065 -0.3621 -0.1937 -0.7616
 9625SOL    HW132152  10.949   4.180   0.105  0.9837 -0.5030  0.0380
 9625SOL    HW232153  10.968   4.109  -0.028 -2.2130  0.4698 -1.0265
 9626SOL     OW32154   1.208   8.860   8.564  0.1678  0.2717  0.1283
 9626SOL    HW132155   1.150   8.866   8.640  0.2205  2.0347  0.0541
 9626SOL    HW232156   1.293   8.890   8.597 -0.1282  2.4353 -0.9292
 9627SOL     OW32157   4.827  10.058   1.707 -0.3249 -0.1128 -0.1824
 9627SOL    HW132158   4.769  10.129   1.735 -1.4333 -0.3741 -1.6682
 9627SOL    HW232159   4.782  10.018   1.632  1.6447 -0.5450 -1.2149
 9628SOL     OW32160   3.900   4.355   8.772 -0.4763  0.4627  0.0488
 9628SOL    HW132161   3.894   4.340   8.678 -1.4858 -0.7077  0.2753
 9628SOL    HW232162   3.864   4.443   8.785  0.2401  0.8771 -0.7140
 9629SOL     OW32163   6.034   2.508   0.707  0.5750 -0.6369 -0.3534
 9629SOL    HW132164   6.043   2.509   0.802  1.3982  1.1511 -0.4141
 9629SOL    HW232165   5.940   2.494   0.692  0.2260  0.3067  0.7629
 9630SOL     OW32166   5.723   1.727   6.061  0.0037 -0.1617 -0.5311
 9630SOL    HW132167   5.815   1.748   6.041  0.4292  0.6495  1.9849
 9630SOL    HW232168   5.727   1.644   6.107 -0.4942  0.0125 -0.1630
 9631SOL     OW32169   3.813   0.026   4.735 -0.0812  0.0235  0.2063
 9631SOL    HW132170   3.778  -0.059   4.710  1.8421 -0.2372 -1.8690
 9631SOL    HW232171   3.739   0.070   4.778 -1.9930 -1.5810 -1.2285
 9632SOL     OW32172  10.499   0.385   8.171 -0.3287  0.2407 -0.3085
 9632SOL    HW132173  10.552   0.435   8.109 -0.2218  1.6991  0.9032
 9632SOL    HW232174  10.432   0.446   8.200  0.2403 -0.0725  1.7802
 9633SOL     OW32175   2.845   3.467   6.626 -0.1207 -0.4116  0.9064
 9633SOL    HW132176   2.750   3.453   6.623 -0.3397  0.9154  1.0627
 9633SOL    HW232177   2.873   3.427   6.708 -1.0137  1.6133  2.2791
 9634SOL     OW32178  11.008   2.194   7.521  0.2111 -0.5400  0.1459
 9634SOL    HW132179  11.083   2.150   7.481  0.6629  0.4284 -0.0922
 9634SOL    HW232180  11.046   2.251   7.588  0.0460  2.1155 -1.8311
 9635SOL     OW32181   3.694   3.357   8.580  0.3893 -0.6938 -0.3402
 9635SOL    HW132182   3.608   3.393   8.560 -0.1373 -1.7277  0.0028
 9635SOL    HW232183   3.735   3.422   8.638  0.6882  0.8115 -2.1438
 9636SOL     OW32184   2.138   1.208   1.142 -0.0389 -0.0182 -0.0467
 9636SOL    HW132185   2.169   1.246   1.224  0.8092 -0.5960 -0.0828
 9636SOL    HW232186   2.177   1.120   1.140 -1.1931 -0.5441 -0.4042
 9637SOL     OW32187   9.879   0.987   8.293  1.1597 -0.3873  0.3872
 9637SOL    HW132188   9.826   1.026   8.363  0.1818  0.1860 -0.6440
 9637SOL    HW232189   9.822   0.922   8.252  1.6197 -0.5163 -0.0629
 9638SOL     OW32190   9.042   2.004  10.380  0.0109 -0.2138  0.3989
 9638SOL    HW132191   9.003   2.091  10.390 -1.5169 -0.7470 -0.5488
 9638SOL    HW232192   9.134   2.022  10.363 -0.2656  1.2327  0.2368
 9639SOL     OW32193   3.549   4.477   5.751 -0.3083 -0.2385 -0.0343
 9639SOL    HW132194   3.482   4.432   5.804 -0.3043 -0.6763 -0.3893
 9639SOL    HW232195   3.626   4.421   5.760 -0.4111 -0.5123 -0.7867
 9640SOL     OW32196   4.137   4.914   8.936  1.0437 -0.3025 -0.6208
 9640SOL    HW132197   4.077   4.863   8.881 -2.1358  0.5207  1.7845
 9640SOL    HW232198   4.144   4.999   8.892 -0.5911 -0.0113 -0.3940
 9641SOL     OW32199   5.584   4.186   2.803 -0.4045  0.4959  0.0090
 9641SOL    HW132200   5.605   4.113   2.863 -0.0668  0.1668 -0.5018
 9641SOL    HW232201   5.669   4.214   2.770 -0.7215 -0.9306 -2.1871
 9642SOL     OW32202   7.849   6.053   9.563 -0.0100 -0.0286 -0.0892
 9642SOL    HW132203   7.831   6.078   9.473  1.3986 -1.9380 -0.9649
 9642SOL    HW232204   7.784   5.986   9.583  1.1272 -1.3174 -0.5581
 9643SOL     OW32205   3.407   1.676  10.800  0.3556  0.2408 -0.3928
 9643SOL    HW132206   3.488   1.662  10.849  1.5121  2.2251 -1.5848
 9643SOL    HW232207   3.346   1.712  10.864  1.1059  0.6588  0.1053
 9644SOL     OW32208   7.572   9.232   5.516 -0.2188 -0.1048 -0.0103
 9644SOL    HW132209   7.479   9.242   5.539 -0.0390  0.4157  0.5125
 9644SOL    HW232210   7.594   9.143   5.542 -0.7805 -0.5222 -0.8945
 9645SOL     OW32211  10.735   5.297   5.786  0.5087  0.4998  0.5858
 9645SOL    HW132212  10.650   5.282   5.827  0.5834  0.5356  0.7555
 9645SOL    HW232213  10.797   5.255   5.846  0.9035  2.8377  1.9451
 9646SOL     OW32214   7.450   2.726   4.208  0.0873  0.4173  0.3127
 9646SOL    HW132215   7.388   2.766   4.269 -1.9595 -0.2430 -1.2242
 9646SOL    HW232216   7.466   2.639   4.245 -0.5341  0.3037  0.3300
 9647SOL     OW32217   1.267   3.564   7.529 -0.3446 -0.1407  0.2819
 9647SOL    HW132218   1.276   3.658   7.514  1.1860 -0.1451  1.0132
 9647SOL    HW232219   1.172   3.549   7.530 -0.6309  1.5230  1.0012
 9648SOL     OW32220   4.372   4.992   1.101 -0.1398 -0.1253 -0.3157
 9648SOL    HW132221   4.349   5.085   1.102  2.5018  0.6668 -1.7225
 9648SOL    HW232222   4.344   4.959   1.186 -1.1458  1.9604  0.2260
 9649SOL     OW32223   6.797   4.571   4.915  0.0910  0.0160  0.3043
 9649SOL    HW132224   6.884   4.550   4.949  0.3825  0.3044 -0.2624
 9649SOL    HW232225   6.802   4.662   4.889 -0.0175 -0.2934 -0.8438
 9650SOL     OW32226   1.139   6.011   9.675 -0.3075  0.1066  0.1000
 9650SOL    HW132227   1.068   6.000   9.611 -0.5413 -1.3306  0.5849
 9650SOL    HW232228   1.102   6.071   9.741 -0.6705  0.2391 -0.2157
 9651SOL     OW32229   0.598   0.359   1.573 -0.1610 -0.3958  0.1145
 9651SOL    HW132230   0.530   0.303   1.610 -0.7915  0.0737 -0.2949
 9651SOL    HW232231   0.564   0.448   1.585  0.4665 -0.1445  0.0648
 9652SOL     OW32232   0.464   2.862   9.826 -0.0191 -0.1811 -0.4057
 9652SOL    HW132233   0.400   2.858   9.755  0.1924 -0.5168 -0.5799
 9652SOL    HW232234   0.469   2.772   9.858 -0.3811  0.0375  0.2726
 9653SOL     OW32235   6.703   4.507   7.310 -0.5138 -0.0293 -0.5867
 9653SOL    HW132236   6.727   4.582   7.255  0.7987  0.3666  0.4852
 9653SOL    HW232237   6.675   4.440   7.247  1.7978  0.0800 -1.8594
 9654SOL     OW32238   7.422   4.492   9.405  0.1286  0.0804 -0.3079
 9654SOL    HW132239   7.366   4.456   9.336 -0.8371 -2.5221  1.6692
 9654SOL    HW232240   7.389   4.581   9.419 -1.4235 -0.2865 -1.3811
 9655SOL     OW32241  10.968   0.616   0.731  0.6974 -0.1005  0.5561
 9655SOL    HW132242  10.976   0.522   0.744  0.4688  0.1416  2.8954
 9655SOL    HW232243  11.050   0.641   0.689  0.9871 -1.2690  0.3852
 9656SOL     OW32244  10.594   3.217   5.676  0.0551 -0.0444  0.4313
 9656SOL    HW132245  10.599   3.258   5.590 -0.9125  0.1873  0.4717
 9656SOL    HW232246  10.614   3.125   5.660  1.4784  0.2832  0.2225
 9657SOL     OW32247   5.185   2.539  11.250  0.1547 -0.4109  0.2854
 9657SOL    HW132248   5.253   2.482  11.214 -2.5986 -1.6002 -3.7419
 9657SOL    HW232249   5.145   2.488  11.321  1.2991 -1.0381  0.5025
 9658SOL     OW32250   6.836   7.717   9.474  0.0260 -0.0498  0.3468
 9658SOL    HW132251   6.871   7.654   9.538  0.4545 -1.6863 -1.4201
 9658SOL    HW232252   6.743   7.699   9.470 -0.0501  0.2432  0.6717
 9659SOL     OW32253   1.098   4.068  10.824  0.0752  0.0932 -0.3985
 9659SOL    HW132254   1.183   4.097  10.790  0.4008 -0.4886 -0.1040
 9659SOL    HW232255   1.037   4.083  10.752 -0.1829  3.3021  0.3518
 9660SOL     OW32256   0.536  11.353   8.819 -0.5558 -0.1467 -0.0104
 9660SOL    HW132257   0.580  11.294   8.881 -0.6427  0.3261  0.5143
 9660SOL    HW232258   0.444  11.351   8.845 -0.4899  0.5610  0.3011
 9661SOL     OW32259   0.473  10.465   7.477 -0.0660 -0.6024 -0.3040
 9661SOL    HW132260   0.545  10.403   7.472  0.6662  0.3026 -1.6355
 9661SOL    HW232261   0.461  10.496   7.386  0.1927  1.8210  0.4029
 9662SOL     OW32262   0.900   9.879   3.033 -0.1904 -0.1477  0.2320
 9662SOL    HW132263   0.968   9.929   2.988 -0.2725 -0.1933  0.0555
 9662SOL    HW232264   0.828   9.876   2.970 -0.7503  0.7846  0.7991
 9663SOL     OW32265   9.167   4.728   2.364  0.3733 -0.9735 -0.1390
 9663SOL    HW132266   9.224   4.800   2.391 -0.4983 -0.4030  0.2487
 9663SOL    HW232267   9.096   4.771   2.316  0.1020 -1.6265 -0.3336
 9664SOL     OW32268  10.684   8.726   5.632  0.4774 -0.0016 -0.3599
 9664SOL    HW132269  10.774   8.749   5.653  0.4215 -0.6318  0.6452
 9664SOL    HW232270  10.660   8.659   5.697 -0.6016 -0.0829 -0.8111
 9665SOL     OW32271   1.951  10.172   0.823 -0.3397 -0.2852  0.0779
 9665SOL    HW132272   1.866  10.181   0.866  0.1869 -0.4529  1.2007
 9665SOL    HW232273   1.979  10.083   0.844  0.2195 -0.1497 -0.0734
 9666SOL     OW32274   0.526   7.656  11.179  0.4470  0.2732 -0.1230
 9666SOL    HW132275   0.565   7.577  11.216  0.6538  0.2747 -0.3374
 9666SOL    HW232276   0.496   7.705  11.255  0.5832  0.1274  0.0267
 9667SOL     OW32277   3.282   1.449   9.012  0.0497 -0.2697  0.6740
 9667SOL    HW132278   3.243   1.463   8.926  0.5274  1.9625  0.7586
 9667SOL    HW232279   3.285   1.354   9.022  0.0060 -0.5894 -1.7677
 9668SOL     OW32280   4.688   6.248   3.932 -0.5050  0.0762 -0.3878
 9668SOL    HW132281   4.723   6.164   3.904  2.8668  1.2693 -0.2096
 9668SOL    HW232282   4.696   6.248   4.027 -0.2857  0.6711 -0.3999
 9669SOL     OW32283   3.508   3.825   3.439 -0.0728  0.0671 -0.0898
 9669SOL    HW132284   3.603   3.821   3.450  0.0886 -0.3402 -1.4318
 9669SOL    HW232285   3.473   3.807   3.527  1.0782 -0.2721  0.3222
 9670SOL     OW32286  10.438   9.851   2.810  0.1026 -0.3709  0.4151
 9670SOL    HW132287  10.454   9.796   2.886 -0.8536 -1.2410  0.0217
 9670SOL    HW232288  10.524   9.864   2.770  0.1321 -4.0641 -1.1113
 9671SOL     OW32289   2.550   5.205   8.687 -0.3873 -0.0110 -0.1797
 9671SOL    HW132290   2.488   5.172   8.752  1.1579  0.9110  1.8657
 9671SOL    HW232291   2.580   5.289   8.722 -0.8074  1.4273 -2.9991
 9672SOL     OW32292   9.574   5.084   2.923  0.2172  0.0390  0.5801
 9672SOL    HW132293   9.632   5.016   2.958  2.0464  1.4676  0.4471
 9672SOL    HW232294   9.583   5.077   2.828  0.4212  0.4679  0.5668
 9673SOL     OW32295   9.588   8.227   2.812 -0.2502 -0.4128  0.7019
 9673SOL    HW132296   9.518   8.196   2.869 -1.3826  0.3736 -0.2238
 9673SOL    HW232297   9.621   8.148   2.768 -1.8232 -0.5815 -0.2294
 9674SOL     OW32298   4.501   0.756   9.707  0.8914  0.2741  0.0285
 9674SOL    HW132299   4.558   0.758   9.629  0.3569 -1.3391 -0.4575
 9674SOL    HW232300   4.487   0.848   9.729  0.3291  0.8384 -2.3415
 9675SOL     OW32301   0.710   6.904   1.631  0.3123  0.4899 -0.7196
 9675SOL    HW132302   0.687   6.990   1.595 -1.9321 -0.0379 -0.6417
 9675SOL    HW232303   0.672   6.841   1.569 -2.5506 -0.4498  1.8028
 9676SOL     OW32304   3.653   7.221   8.174  0.1531  0.2159 -0.0258
 9676SOL    HW132305   3.674   7.313   8.191  0.4836  0.0400  0.5514
 9676SOL    HW232306   3.557   7.218   8.176  0.1665  0.2825  1.4733
 9677SOL     OW32307   0.122  10.082   2.391 -0.4512  0.2372  0.0263
 9677SOL    HW132308   0.172  10.159   2.416  0.8637 -0.3818 -0.5792
 9677SOL    HW232309   0.188  10.021   2.356 -1.5149 -0.9610  0.0348
 9678SOL     OW32310   7.159   8.718   8.318 -0.9840  0.3267  0.4248
 9678SOL    HW132311   7.168   8.640   8.373  0.9556 -0.0720 -0.3844
 9678SOL    HW232312   7.147   8.790   8.380  1.3993 -0.0810  1.4697
 9679SOL     OW32313   8.200   6.790   2.355  0.3044  0.3575 -0.3193
 9679SOL    HW132314   8.112   6.761   2.331  1.0710 -1.6418 -0.8712
 9679SOL    HW232315   8.242   6.811   2.272  1.1983 -1.3497 -0.3456
 9680SOL     OW32316   9.849   2.054   9.763  0.2985  0.2381  0.1250
 9680SOL    HW132317   9.890   1.972   9.737 -1.1446 -0.1182 -1.1761
 9680SOL    HW232318   9.758   2.046   9.734 -0.5355  1.2762  2.2480
 9681SOL     OW32319   0.153   4.324   5.976  0.2697 -0.7428 -0.0212
 9681SOL    HW132320   0.133   4.235   6.007 -3.9782 -0.6036 -1.7104
 9681SOL    HW232321   0.194   4.310   5.891 -0.0169 -1.0916 -0.1064
 9682SOL     OW32322   3.032   4.995   6.527 -0.7201  0.4246  0.7646
 9682SOL    HW132323   2.982   4.946   6.462  1.1827 -1.0953  0.3801
 9682SOL    HW232324   3.045   4.934   6.599  0.9378  0.6337  0.6708
 9683SOL     OW32325   7.286  10.357   9.519  0.4007  0.0826 -0.2011
 9683SOL    HW132326   7.352  10.365   9.449 -0.9260 -0.0260 -1.5072
 9683SOL    HW232327   7.207  10.327   9.474 -0.4735 -0.0770  1.3838
 9684SOL     OW32328   8.380   3.476   0.805  0.7826  0.2699  0.3023
 9684SOL    HW132329   8.413   3.495   0.717  0.7499  1.8009  0.5870
 9684SOL    HW232330   8.449   3.506   0.864  1.2447 -1.6651  0.8215
 9685SOL     OW32331   5.400   8.071   2.447  0.5091  0.1847  0.2555
 9685SOL    HW132332   5.486   8.061   2.488  0.3585  1.0315  0.8289
 9685SOL    HW232333   5.343   8.010   2.495  0.0958  1.9073  2.1282
 9686SOL     OW32334   6.460   7.776   1.083  0.3724 -0.1849 -0.0339
 9686SOL    HW132335   6.476   7.690   1.044  0.5391  0.5295 -1.6429
 9686SOL    HW232336   6.471   7.838   1.010  0.4133  1.2210  1.1083
 9687SOL     OW32337   6.195   7.727   6.381 -0.2125  0.1724  0.4789
 9687SOL    HW132338   6.250   7.774   6.318 -0.2283  1.6621  1.5411
 9687SOL    HW232339   6.221   7.635   6.371 -1.0377  0.1662 -2.4964
 9688SOL     OW32340   0.462   0.095   3.901 -0.4146 -0.3750  0.4380
 9688SOL    HW132341   0.410   0.171   3.877 -1.3445 -0.8909  0.7783
 9688SOL    HW232342   0.416   0.021   3.862 -0.3799 -0.9187  1.3852
 9689SOL     OW32343   9.748   8.251   4.408 -0.0106 -0.1345  0.1559
 9689SOL    HW132344   9.711   8.338   4.394 -0.8386 -0.2166  1.6197
 9689SOL    HW232345   9.840   8.267   4.431  0.1898  0.2532 -0.9087
 9690SOL     OW32346   3.919   8.582   4.082  0.2956 -1.0288 -0.5000
 9690SOL    HW132347   4.010   8.554   4.067  1.8620  3.1730 -0.1407
 9690SOL    HW232348   3.923   8.632   4.163 -1.5147  2.0970 -2.1568
 9691SOL     OW32349   7.153   1.626   3.603 -0.0186 -0.0953 -0.0552
 9691SOL    HW132350   7.192   1.652   3.686  0.2041 -0.5013 -0.0331
 9691SOL    HW232351   7.075   1.576   3.628  2.0304 -3.5324  0.0330
 9692SOL     OW32352   2.610   6.608  11.321  0.5246 -0.7663 -0.1632
 9692SOL    HW132353   2.643   6.610  11.231  2.0643  0.2904  0.3893
 9692SOL    HW232354   2.684   6.635  11.375 -1.0584  1.0810  1.2189
 9693SOL     OW32355  10.737   8.680   0.332  0.1156 -0.5640  0.2917
 9693SOL    HW132356  10.794   8.632   0.271 -1.7298 -2.1462 -0.2681
 9693SOL    HW232357  10.656   8.695   0.283 -0.8698 -0.5423  1.8544
 9694SOL     OW32358   6.751   0.857   6.134 -0.2937 -0.1056 -0.2168
 9694SOL    HW132359   6.794   0.788   6.082  0.1790  1.1625 -1.5730
 9694SOL    HW232360   6.757   0.935   6.080 -0.0615  1.2310  1.6476
 9695SOL     OW32361  10.909   2.345   4.165 -0.2098 -0.0822 -0.0490
 9695SOL    HW132362  10.971   2.356   4.236  0.7981 -0.9880 -0.7585
 9695SOL    HW232363  10.936   2.264   4.121 -2.1700 -0.7751 -0.1065
 9696SOL     OW32364   9.135   5.909   9.899 -0.2657 -0.3792 -0.2259
 9696SOL    HW132365   9.155   6.001   9.881  1.1735 -0.9063 -1.5761
 9696SOL    HW232366   9.072   5.885   9.831 -0.4209 -0.4694 -0.0508
 9697SOL     OW32367   5.053  10.861   6.428 -0.1671 -0.3816  0.0751
 9697SOL    HW132368   4.993  10.918   6.477  0.3987  2.4276 -2.2496
 9697SOL    HW232369   5.136  10.870   6.474 -0.1762  0.4047 -0.0453
 9698SOL     OW32370   5.768   6.773   4.492  0.0057  0.1958  0.0779
 9698SOL    HW132371   5.846   6.747   4.541 -1.0537 -0.2687  1.5842
 9698SOL    HW232372   5.695   6.737   4.542 -1.2267  1.2250 -0.9066
 9699SOL     OW32373   1.082   9.351  10.831 -0.2925 -0.7320  0.4019
 9699SOL    HW132374   1.005   9.300  10.806 -0.2593  0.2762 -2.0875
 9699SOL    HW232375   1.125   9.373  10.748  0.2732  2.3877  1.3592
 9700SOL     OW32376   6.537   0.036  10.422 -0.0928  0.2372 -0.5795
 9700SOL    HW132377   6.536  -0.034  10.487  1.2904  0.0782 -0.7066
 9700SOL    HW232378   6.629   0.048  10.401  0.0113  3.6143  1.0759
 9701SOL     OW32379   0.826  10.603   2.293 -0.1171 -0.2324  0.1641
 9701SOL    HW132380   0.742  10.561   2.271 -0.1236 -0.4760  0.6301
 9701SOL    HW232381   0.814  10.634   2.383  0.3038 -0.2944  0.2439
 9702SOL     OW32382   6.519   7.416   7.759 -0.0033  0.1775 -0.3959
 9702SOL    HW132383   6.525   7.360   7.836 -1.4231 -1.1449 -1.1728
 9702SOL    HW232384   6.597   7.394   7.708  1.3424  1.6053  0.9397
 9703SOL     OW32385   4.245   0.188   7.066  0.0300 -0.5190  0.1510
 9703SOL    HW132386   4.173   0.167   7.007  0.2018 -0.6296 -0.0248
 9703SOL    HW232387   4.316   0.129   7.038  0.2058 -0.3713  0.2819
 9704SOL     OW32388   0.914   9.140   5.902  0.4388  0.8017 -0.3578
 9704SOL    HW132389   0.896   9.082   5.976 -0.8155  3.0256  1.2114
 9704SOL    HW232390   0.898   9.086   5.824  0.1694 -1.1495  0.9928
 9705SOL     OW32391   1.983  11.058   6.577 -0.0347  0.1667  0.2649
 9705SOL    HW132392   1.902  11.021   6.542 -0.0237 -0.8154  1.2060
 9705SOL    HW232393   1.962  11.076   6.669  1.4378 -2.2828  1.1794
 9706SOL     OW32394   2.578   9.285  10.599 -0.1149 -0.1291 -0.4007
 9706SOL    HW132395   2.600   9.335  10.520  0.7309 -1.9924 -1.4069
 9706SOL    HW232396   2.572   9.195  10.569 -5.4858 -0.4122  0.4705
 9707SOL     OW32397   9.907   6.956   4.123  0.0560 -0.1076 -0.1039
 9707SOL    HW132398   9.993   6.973   4.084  0.4259 -0.8714  0.3533
 9707SOL    HW232399   9.853   6.927   4.050  0.6158 -1.0698 -0.1676
 9708SOL     OW32400   9.809   5.195   9.722  1.4990  0.5598  0.7262
 9708SOL    HW132401   9.832   5.282   9.688  0.5016 -0.2610 -2.2876
 9708SOL    HW232402   9.745   5.213   9.791  2.4102  2.2538  1.2048
 9709SOL     OW32403   5.555   6.886   2.928 -0.3226 -0.1513  0.0414
 9709SOL    HW132404   5.466   6.864   2.901 -0.1547 -0.0438 -0.6156
 9709SOL    HW232405   5.604   6.804   2.917  0.0403  0.2223 -1.2763
 9710SOL     OW32406   2.281   1.075   4.782  0.6704  0.4077  0.5982
 9710SOL    HW132407   2.187   1.063   4.788  0.7444 -0.5585  0.0972
 9710SOL    HW232408   2.298   1.161   4.821 -0.4340  0.6825  0.4848
 9711SOL     OW32409   3.316   8.871   2.493 -0.1950  0.2212  0.7816
 9711SOL    HW132410   3.342   8.957   2.459  0.8103 -0.6803 -0.8562
 9711SOL    HW232411   3.399   8.825   2.506 -0.7322 -0.5670  1.4540
 9712SOL     OW32412   2.194   8.448   2.687  0.5369 -0.2896 -0.4774
 9712SOL    HW132413   2.178   8.542   2.685  0.8678 -0.2079  0.3527
 9712SOL    HW232414   2.154   8.415   2.606  1.5712  0.7366 -1.4485
 9713SOL     OW32415   0.050   0.880   2.417 -0.0231  0.1521  0.4490
 9713SOL    HW132416   0.120   0.940   2.442  0.0047 -0.3080  1.5297
 9713SOL    HW232417  -0.001   0.868   2.496  0.4514 -1.8874  0.5100
 9714SOL     OW32418   3.942   1.181  11.382 -0.2603 -0.1829  0.0024
 9714SOL    HW132419   3.858   1.164  11.423 -1.1961 -0.3321 -1.8678
 9714SOL    HW232420   3.946   1.276  11.373  1.5309  0.2175  3.4794
 9715SOL     OW32421  11.175   2.443   2.492 -0.0808 -0.2553 -0.2440
 9715SOL    HW132422  11.186   2.388   2.569 -0.4521 -1.3912 -0.9749
 9715SOL    HW232423  11.250   2.503   2.495  0.5802 -1.0788  0.3575
 9716SOL     OW32424  11.349   4.738   9.027  0.2498  0.0684 -0.7246
 9716SOL    HW132425  11.254   4.724   9.027  0.4163 -1.1552 -0.9252
 9716SOL    HW232426  11.368   4.769   9.116 -0.4235  1.0923 -0.9125
 9717SOL     OW32427   1.329   6.744   4.029 -0.1173 -0.5318  0.1060
 9717SOL    HW132428   1.234   6.751   4.037 -0.5611 -2.7020 -2.0935
 9717SOL    HW232429   1.359   6.832   4.008 -1.3029  0.6542  2.9384
 9718SOL     OW32430   7.164   7.712   8.631 -0.0730  0.2636  0.2629
 9718SOL    HW132431   7.245   7.753   8.600  0.1680  0.9000  1.6472
 9718SOL    HW232432   7.193   7.652   8.700 -0.3003 -3.0752 -2.2993
 9719SOL     OW32433   6.568   3.553   1.769 -0.0597  0.7549 -0.0957
 9719SOL    HW132434   6.481   3.518   1.789  0.4541  0.5924  2.1829
 9719SOL    HW232435   6.594   3.597   1.850  1.9865  0.7751 -0.7278
 9720SOL     OW32436   0.355   9.476   9.657 -0.6748 -0.8079  0.2834
 9720SOL    HW132437   0.305   9.419   9.600 -1.5815 -0.0392  0.2767
 9720SOL    HW232438   0.299   9.488   9.734 -0.0870 -0.6890  0.7027
 9721SOL     OW32439   2.974   8.371   9.967 -0.0452  0.6874 -0.7387
 9721SOL    HW132440   2.911   8.329   9.909 -0.9040  0.7934  0.0805
 9721SOL    HW232441   2.974   8.317  10.046  0.2588  1.1560 -0.4099
 9722SOL     OW32442  10.132   4.391   4.881  0.2022  0.1071  0.7525
 9722SOL    HW132443  10.100   4.348   4.802  0.5235  1.0741  0.0801
 9722SOL    HW232444  10.227   4.393   4.870  0.2665  0.0586  1.2693
 9723SOL     OW32445   0.873  10.174   5.582 -0.3759  0.0280 -0.6431
 9723SOL    HW132446   0.894  10.120   5.658 -1.9279 -1.0438 -0.9214
 9723SOL    HW232447   0.925  10.135   5.511  0.3995  0.4780 -0.3335
 9724SOL     OW32448   2.226   3.759   5.397  0.2332 -0.4128  0.0678
 9724SOL    HW132449   2.140   3.777   5.435  0.9829  0.1365  1.6021
 9724SOL    HW232450   2.233   3.663   5.399 -0.5659 -0.4934 -0.6217
 9725SOL     OW32451   7.337  10.969   5.045 -0.8007  0.3612  0.2046
 9725SOL    HW132452   7.288  10.905   5.096 -1.6733  0.7248 -0.1498
 9725SOL    HW232453   7.369  11.032   5.110 -1.7799  0.7409  0.3336
 9726SOL     OW32454   6.323   4.640  10.624 -0.9011 -0.0321  0.2273
 9726SOL    HW132455   6.287   4.671  10.707  0.0155 -0.9208  0.9920
 9726SOL    HW232456   6.355   4.719  10.581 -0.5369  0.3476  1.1603
 9727SOL     OW32457   8.721   0.910   1.629 -0.2715 -0.3208 -0.6127
 9727SOL    HW132458   8.754   0.999   1.631  2.2121 -1.1815  0.0553
 9727SOL    HW232459   8.721   0.886   1.536 -0.3774  0.1761 -0.7420
 9728SOL     OW32460  10.965   4.056   4.046  0.4655  0.0605 -0.3920
 9728SOL    HW132461  11.033   4.120   4.026  0.8798 -0.1045  0.4316
 9728SOL    HW232462  10.883   4.098   4.019  0.8887  0.2684 -1.3635
 9729SOL     OW32463   4.669   9.561   3.030 -0.2910  0.0565  0.3409
 9729SOL    HW132464   4.757   9.598   3.038  0.9729 -2.2045 -1.6098
 9729SOL    HW232465   4.622   9.591   3.107  1.8518  2.2268  0.8901
 9730SOL     OW32466   4.687   5.502   1.093 -0.2012  0.1640 -0.1333
 9730SOL    HW132467   4.766   5.515   1.040 -0.9266  1.3072 -0.9934
 9730SOL    HW232468   4.703   5.553   1.173  0.9402 -1.6491  0.8824
 9731SOL     OW32469   2.502   0.688   4.210  0.6361 -0.0650 -0.4144
 9731SOL    HW132470   2.577   0.737   4.245  1.8795 -0.4952 -2.3350
 9731SOL    HW232471   2.528   0.665   4.121 -1.5270 -0.8389 -0.8953
 9732SOL     OW32472   6.654   7.979   7.500 -0.4297 -0.2993  0.1222
 9732SOL    HW132473   6.596   7.980   7.575  0.2807 -0.9376  0.7020
 9732SOL    HW232474   6.733   8.024   7.530  0.9800 -2.9321  0.7601
 9733SOL     OW32475   2.159   9.017   5.237 -0.1187 -0.4132 -0.2800
 9733SOL    HW132476   2.218   9.004   5.163  0.1287  1.8033 -0.5458
 9733SOL    HW232477   2.074   8.985   5.206 -0.1659  1.0279 -1.8084
 9734SOL     OW32478  10.080   3.699   2.847 -0.1297 -0.1306 -0.1042
 9734SOL    HW132479  10.000   3.651   2.868 -0.3998  1.1214  2.0162
 9734SOL    HW232480  10.068   3.728   2.757 -0.9557 -2.0220 -0.6477
 9735SOL     OW32481   7.784   3.639   4.698 -0.0643 -0.7394 -0.1452
 9735SOL    HW132482   7.855   3.618   4.637  0.4646 -1.0911  0.5777
 9735SOL    HW232483   7.766   3.732   4.684 -1.5989 -1.3185 -2.5335
 9736SOL     OW32484   3.437   5.229   2.496  0.3463  0.0913  0.7245
 9736SOL    HW132485   3.443   5.156   2.558  1.0120  0.2365  0.8335
 9736SOL    HW232486   3.343   5.237   2.478  0.3306 -1.4397 -0.0655
 9737SOL     OW32487   6.291  10.570   2.819 -0.1036 -0.8027 -0.8506
 9737SOL    HW132488   6.276  10.488   2.866 -1.6576  0.3753  0.8498
 9737SOL    HW232489   6.352  10.618   2.875 -0.2240 -0.2745 -1.1749
 9738SOL     OW32490   3.642  11.130   8.802 -0.0355 -0.5215  0.1750
 9738SOL    HW132491   3.724  11.154   8.845  0.6011 -0.1477 -1.2075
 9738SOL    HW232492   3.653  11.037   8.780  0.3841 -0.2530 -0.7845
 9739SOL     OW32493   7.608  10.822  11.096  0.3502  0.4738  0.1770
 9739SOL    HW132494   7.591  10.821  11.002 -0.6272  2.5716  0.2751
 9739SOL    HW232495   7.677  10.757  11.109 -1.3760 -1.8605 -1.5765
 9740SOL     OW32496   1.959   8.416   7.683  0.5746 -0.6423  0.3897
 9740SOL    HW132497   2.039   8.378   7.647  0.9893  0.1138  0.4815
 9740SOL    HW232498   1.892   8.349   7.670  1.5393 -1.9077  1.6516
 9741SOL     OW32499  10.918   8.507   9.409 -0.5228 -0.3615  0.0975
 9741SOL    HW132500  10.916   8.419   9.373  0.4721 -0.8030  1.0620
 9741SOL    HW232501  10.975   8.556   9.349 -0.2090 -0.6640  0.1436
 9742SOL     OW32502   5.267   5.267   3.030  0.1393 -1.0131 -0.3296
 9742SOL    HW132503   5.306   5.225   2.954  0.5752  0.7382 -1.1132
 9742SOL    HW232504   5.211   5.335   2.994  2.4398  1.7145  0.8431
 9743SOL     OW32505   8.663   8.241   3.830  0.1223  0.1113  0.3523
 9743SOL    HW132506   8.617   8.325   3.842  2.1886  1.0654  2.2790
 9743SOL    HW232507   8.641   8.215   3.740 -1.3353  2.2433  0.0061
 9744SOL     OW32508   9.577   5.660   3.445  0.3433  0.2360  0.0753
 9744SOL    HW132509   9.666   5.693   3.435  1.4410 -2.0762  1.2469
 9744SOL    HW232510   9.560   5.612   3.363  0.6653 -0.2917  0.3095
 9745SOL     OW32511   4.851   7.250   1.573  0.0108 -0.7393  0.1464
 9745SOL    HW132512   4.806   7.245   1.657  1.5281 -0.8481  0.9734
 9745SOL    HW232513   4.869   7.343   1.560  0.5953 -0.8144  0.3943
 9746SOL     OW32514   0.584   7.412   2.566  0.2534  0.6588 -0.2372
 9746SOL    HW132515   0.652   7.449   2.509  0.5386 -0.8874 -0.9538
 9746SOL    HW232516   0.631   7.375   2.640  0.1399  0.2506 -0.3634
 9747SOL     OW32517   4.979   3.320  10.616 -0.3273  0.1971  0.1874
 9747SOL    HW132518   5.004   3.267  10.540 -2.7486  0.8082 -1.1596
 9747SOL    HW232519   5.005   3.268  10.692  1.4010 -0.8243 -1.0518
 9748SOL     OW32520   8.369   6.655   2.519  0.0023  0.7527 -0.0145
 9748SOL    HW132521   8.320   6.629   2.597  0.0833 -1.3123 -0.5904
 9748SOL    HW232522   8.301   6.682   2.456 -0.1446  1.1533  0.3076
 9749SOL     OW32523   2.714   3.780   6.498  0.7852 -0.3409 -0.3474
 9749SOL    HW132524   2.730   3.767   6.405 -1.1081  0.1769 -0.7966
 9749SOL    HW232525   2.656   3.708   6.522  0.2545  0.2380  0.1236
 9750SOL     OW32526   9.198   0.499  10.216 -0.0822 -0.7130 -0.0181
 9750SOL    HW132527   9.132   0.434  10.241  0.0734 -0.9879 -0.3097
 9750SOL    HW232528   9.166   0.581  10.254 -1.9346 -0.2934 -2.2591
 9751SOL     OW32529   4.629   4.230   1.659 -0.2123 -0.2552  0.0977
 9751SOL    HW132530   4.595   4.219   1.748 -0.1738  1.2531  0.3165
 9751SOL    HW232531   4.667   4.317   1.658  1.7087 -1.0539 -0.7954
 9752SOL     OW32532   9.437   9.130   7.180 -0.3034  0.0335  0.6872
 9752SOL    HW132533   9.426   9.203   7.241 -2.2373  0.3915 -0.0133
 9752SOL    HW232534   9.513   9.154   7.127 -0.8912  1.5358  0.4815
 9753SOL     OW32535   3.415   8.664   2.772 -0.7324  0.1899  0.1049
 9753SOL    HW132536   3.503   8.677   2.809 -0.5311 -1.2144  0.1802
 9753SOL    HW232537   3.379   8.590   2.820 -1.6292  0.1963 -0.5192
 9754SOL     OW32538   3.388   6.024   6.043 -0.5195 -0.0426 -0.3033
 9754SOL    HW132539   3.412   6.102   5.993  0.1639 -0.5007 -0.7096
 9754SOL    HW232540   3.439   6.031   6.124 -0.3112 -0.1629 -0.4240
 9755SOL     OW32541   8.436   4.157   9.258 -0.7254  0.4858  0.5869
 9755SOL    HW132542   8.454   4.238   9.307  0.6371  1.4589 -1.4006
 9755SOL    HW232543   8.506   4.153   9.192 -1.2905 -1.8605  0.0554
 9756SOL     OW32544   5.210  10.290   5.924  0.5780  0.2190 -0.0109
 9756SOL    HW132545   5.256  10.211   5.896  0.7430  0.3475 -0.1056
 9756SOL    HW232546   5.175  10.327   5.843 -0.3244 -0.2718  0.1471
 9757SOL     OW32547   9.515   6.192   0.522  0.5090 -0.2276 -0.2971
 9757SOL    HW132548   9.470   6.110   0.500 -0.0174  0.0734 -0.3658
 9757SOL    HW232549   9.554   6.221   0.440  0.5466 -0.3184 -0.3114
 9758SOL     OW32550   1.424   4.174   3.790 -0.1826 -0.1107  0.0412
 9758SOL    HW132551   1.480   4.211   3.857  0.0283 -1.7244  0.7990
 9758SOL    HW232552   1.484   4.149   3.719 -0.3029  0.7595 -0.3848
 9759SOL     OW32553   2.827   4.942   8.740  0.1341  0.0143 -0.0918
 9759SOL    HW132554   2.871   4.922   8.658 -0.3284  0.3349 -0.4248
 9759SOL    HW232555   2.734   4.936   8.719  0.0100  0.5687  0.2880
 9760SOL     OW32556   5.953   7.486   5.225 -0.3694 -0.7515  0.7560
 9760SOL    HW132557   5.997   7.402   5.210  0.8797  0.0745 -0.4864
 9760SOL    HW232558   6.020   7.552   5.206 -1.6102  0.5344  0.6834
 9761SOL     OW32559   3.994  11.172   4.295  0.0346  0.0084 -0.2916
 9761SOL    HW132560   4.031  11.253   4.259 -1.5012  0.4481 -0.9159
 9761SOL    HW232561   4.041  11.160   4.378  0.3932  1.4531 -0.2641
 9762SOL     OW32562   2.250   8.752   1.661  0.3938 -0.3700 -0.4227
 9762SOL    HW132563   2.323   8.692   1.674  0.6903  0.2693  1.0757
 9762SOL    HW232564   2.233   8.789   1.748  1.5769  3.2921 -1.5668
 9763SOL     OW32565   6.404  10.131   0.666 -0.0518 -0.2915  0.0855
 9763SOL    HW132566   6.464  10.069   0.707 -0.3439  1.3968  3.3547
 9763SOL    HW232567   6.461  10.185   0.610  0.7373 -1.3162 -0.1357
 9764SOL     OW32568   2.228   1.450   5.364  0.4360 -0.6566 -0.8155
 9764SOL    HW132569   2.250   1.421   5.276  0.3449 -0.4589 -0.9047
 9764SOL    HW232570   2.303   1.502   5.392 -0.1893  0.5940 -1.3844
 9765SOL     OW32571   6.162   9.508   7.256  0.0807 -0.1309  0.8117
 9765SOL    HW132572   6.153   9.432   7.198 -1.3782  1.7185 -1.5759
 9765SOL    HW232573   6.111   9.485   7.334 -2.7936 -0.5821 -1.0665
 9766SOL     OW32574   4.679   3.461   2.096  0.0368 -0.0424  0.2883
 9766SOL    HW132575   4.639   3.488   2.013 -1.0402  1.1217  1.1430
 9766SOL    HW232576   4.668   3.366   2.098 -0.8700  0.0318 -0.4362
 9767SOL     OW32577   3.734   4.773   3.399  0.2946  0.4177  0.0743
 9767SOL    HW132578   3.823   4.773   3.364  0.6704  1.7555  0.9542
 9767SOL    HW232579   3.680   4.803   3.325  0.5703 -0.3433 -0.4454
 9768SOL     OW32580   1.749   5.471   7.857 -0.1197 -0.0406 -0.4170
 9768SOL    HW132581   1.770   5.518   7.776 -1.6220  1.3945 -0.0356
 9768SOL    HW232582   1.804   5.512   7.924  1.7593 -1.8027 -0.7996
 9769SOL     OW32583   8.866   7.996  11.214 -0.1543  0.0863 -0.0707
 9769SOL    HW132584   8.842   7.903  11.215 -1.9765  0.5064 -0.0229
 9769SOL    HW232585   8.803   8.036  11.154  0.2322  1.3824  0.3537
 9770SOL     OW32586   6.157   7.742  10.505  0.0552 -0.0837  0.1706
 9770SOL    HW132587   6.089   7.768  10.443  1.3384  1.2768 -0.7250
 9770SOL    HW232588   6.172   7.820  10.558  0.0192 -0.7768  1.2310
 9771SOL     OW32589   0.172   7.363   1.244  0.3885  0.1402  0.2841
 9771SOL    HW132590   0.114   7.335   1.314  0.3664  1.8551  1.0037
 9771SOL    HW232591   0.259   7.331   1.270  0.1352 -0.5894  0.2663
 9772SOL     OW32592   5.450   8.834   4.863 -0.4779  0.2965 -0.1347
 9772SOL    HW132593   5.485   8.746   4.880  0.7621  1.1908  2.4928
 9772SOL    HW232594   5.374   8.840   4.922 -0.3386  1.1035 -0.0330
 9773SOL     OW32595   0.872   6.128   4.629 -0.1368  0.1079  0.0565
 9773SOL    HW132596   0.831   6.161   4.549 -1.6599  0.0579  0.7778
 9773SOL    HW232597   0.965   6.142   4.616 -0.0969 -1.8899 -2.6473
 9774SOL     OW32598   3.608   5.603   0.263 -0.0624 -0.1545 -0.5254
 9774SOL    HW132599   3.673   5.614   0.194  0.0985  0.0858 -0.3392
 9774SOL    HW232600   3.651   5.637   0.342 -0.5202  0.2996 -0.4625
 9775SOL     OW32601   9.292   2.049  10.901 -0.4508 -0.5524 -0.0914
 9775SOL    HW132602   9.239   2.125  10.877 -1.3301 -0.8867  0.7176
 9775SOL    HW232603   9.376   2.085  10.927 -0.5806  0.0714 -0.5267
 9776SOL     OW32604  10.521   7.437   4.115  0.3370 -0.0827  0.4180
 9776SOL    HW132605  10.568   7.399   4.189 -0.8545  0.4205  1.4693
 9776SOL    HW232606  10.437   7.465   4.152  1.0749  3.4993 -0.2729
 9777SOL     OW32607   3.831   7.652   0.948 -0.4015  0.3779 -0.0035
 9777SOL    HW132608   3.910   7.684   0.992  0.7653 -2.0638 -0.1591
 9777SOL    HW232609   3.835   7.557   0.958 -1.5389 -0.0917 -2.9488
 9778SOL     OW32610   3.258   4.194   9.442  0.1685  0.5041  0.3426
 9778SOL    HW132611   3.298   4.229   9.522 -1.0782 -0.5957  1.4999
 9778SOL    HW232612   3.185   4.252   9.424 -0.2647  0.0857  0.7089
 9779SOL     OW32613   6.233   9.870   2.912  0.4125 -0.1487  0.0502
 9779SOL    HW132614   6.228   9.801   2.846  1.5782 -0.5800  0.3865
 9779SOL    HW232615   6.155   9.857   2.966 -0.3880  0.0131 -1.0258
 9780SOL     OW32616   7.856   9.359   0.482 -0.5524  0.0683 -0.5703
 9780SOL    HW132617   7.858   9.399   0.568  0.3659  0.6842 -0.8623
 9780SOL    HW232618   7.948   9.354   0.455 -0.7260 -1.2533 -1.0001
 9781SOL     OW32619   6.414   2.787   2.935 -0.3073  0.2879 -0.2086
 9781SOL    HW132620   6.364   2.714   2.900 -0.1737  0.2091 -0.2363
 9781SOL    HW232621   6.351   2.838   2.985 -0.0236 -0.9155  1.4878
 9782SOL     OW32622   3.373   3.637   6.178 -0.4574 -0.1885  0.2928
 9782SOL    HW132623   3.302   3.655   6.240  0.4663  4.9912  0.3216
 9782SOL    HW232624   3.450   3.625   6.232 -0.0474  2.1789  0.3575
 9783SOL     OW32625   4.229   8.284   6.677  0.1831 -0.1084 -0.0330
 9783SOL    HW132626   4.314   8.240   6.680  0.1487 -0.1578  1.8912
 9783SOL    HW232627   4.170   8.223   6.720 -0.4664  0.6352  0.1417
 9784SOL     OW32628   3.708   1.040   0.411 -0.0312  0.2988  0.1191
 9784SOL    HW132629   3.750   1.125   0.424  0.0945  0.1943  0.4078
 9784SOL    HW232630   3.762   0.979   0.461 -0.5600  0.1692  0.5373
 9785SOL     OW32631   9.061   8.505   6.369  0.0973 -0.1392 -0.3211
 9785SOL    HW132632   9.104   8.589   6.352 -0.7910 -0.0359 -2.2785
 9785SOL    HW232633   9.047   8.467   6.283  0.2775 -2.2290  0.5216
 9786SOL     OW32634  10.298   9.417   0.112 -0.0839  0.4316 -0.1291
 9786SOL    HW132635  10.207   9.404   0.087 -0.0074  1.9383 -1.3515
 9786SOL    HW232636  10.346   9.346   0.070 -0.6754 -0.4560  0.6403
 9787SOL     OW32637   5.947   3.832   2.256 -0.2163  0.0625 -0.1065
 9787SOL    HW132638   5.905   3.746   2.263 -0.9202  0.2960 -1.1350
 9787SOL    HW232639   6.041   3.813   2.252 -0.4391 -0.8592 -2.4824
 9788SOL     OW32640   8.441   6.846  10.206  0.1285 -0.2387  0.4004
 9788SOL    HW132641   8.421   6.753  10.208  0.5033 -0.3491 -0.5806
 9788SOL    HW232642   8.492   6.859  10.126  1.2855  0.5710  1.2247
 9789SOL     OW32643  11.015   7.371   1.584 -0.3533  0.3663  0.1066
 9789SOL    HW132644  11.000   7.428   1.509 -0.4877  0.3829  0.1464
 9789SOL    HW232645  10.986   7.284   1.555 -0.2539  0.3399  0.0844
 9790SOL     OW32646   1.843   2.616   3.182 -0.2413  0.1150  0.5226
 9790SOL    HW132647   1.865   2.614   3.089 -0.2835 -1.5560  0.5356
 9790SOL    HW232648   1.926   2.636   3.225  1.7982 -6.3489  0.6003
 9791SOL     OW32649   4.828   5.139  10.037  0.3272  0.0642 -0.4402
 9791SOL    HW132650   4.740   5.104  10.051  0.2464  0.5557  0.3334
 9791SOL    HW232651   4.870   5.134  10.123  1.1813 -0.4915 -0.8763
 9792SOL     OW32652   8.043  10.870   0.828 -0.6611 -0.4348 -0.1059
 9792SOL    HW132653   8.036  10.899   0.737  2.7720  0.0288 -0.3771
 9792SOL    HW232654   8.010  10.780   0.828 -0.2019 -0.6405 -1.9670
 9793SOL     OW32655   7.109   7.999   0.574 -0.8002 -0.0005  0.0332
 9793SOL    HW132656   7.123   7.941   0.648 -1.8391 -1.6470 -0.9866
 9793SOL    HW232657   7.195   8.006   0.532 -0.6897 -0.9682  0.0753
 9794SOL     OW32658   5.585  10.360   5.425 -0.2516 -0.0793  0.0684
 9794SOL    HW132659   5.531  10.432   5.458 -0.8690 -0.3554 -0.3215
 9794SOL    HW232660   5.664  10.403   5.392 -0.7114  0.4525 -0.3654
 9795SOL     OW32661   5.804   0.998   8.597  0.4388  0.0099  0.5432
 9795SOL    HW132662   5.810   0.999   8.692 -1.7675 -0.9140  0.7551
 9795SOL    HW232663   5.754   0.918   8.577  0.8697  0.1713 -1.3917
 9796SOL     OW32664   8.945   2.771   7.123 -0.1237  0.1255  0.1510
 9796SOL    HW132665   9.036   2.751   7.142 -0.3130 -0.2739  0.6392
 9796SOL    HW232666   8.912   2.693   7.078  0.7832  1.6556 -3.5128
 9797SOL     OW32667   4.908  11.074   3.157 -0.1210  0.0414 -0.1485
 9797SOL    HW132668   4.926  10.995   3.208 -0.7017 -1.5955 -2.3221
 9797SOL    HW232669   4.849  11.126   3.211 -0.8532 -1.6979  0.7685
 9798SOL     OW32670  10.707   1.721   3.702 -0.0770  0.2032 -1.1425
 9798SOL    HW132671  10.745   1.792   3.651  1.2944 -0.1978 -0.7033
 9798SOL    HW232672  10.684   1.762   3.786 -0.1425  0.3300 -1.2216
 9799SOL     OW32673   4.933   5.817   9.156 -0.4146  0.2769 -0.1861
 9799SOL    HW132674   4.941   5.903   9.115 -0.8948 -0.3798 -1.7570
 9799SOL    HW232675   4.957   5.755   9.086  0.4048 -0.8504  1.0530
 9800SOL     OW32676  10.333   5.393   3.566 -0.4216 -0.4656 -0.3002
 9800SOL    HW132677  10.429   5.397   3.569 -0.4210 -0.1681  2.6057
 9800SOL    HW232678  10.307   5.476   3.525  0.5450 -0.5749 -1.1808
 9801SOL     OW32679   7.587   2.480  10.353 -0.4195 -0.4754 -0.2398
 9801SOL    HW132680   7.612   2.557  10.302  2.3659 -0.1455  1.4324
 9801SOL    HW232681   7.518   2.439  10.301 -1.4336  2.6479 -1.5977
 9802SOL     OW32682   9.106   6.668   8.127 -0.6505 -0.6593  0.7501
 9802SOL    HW132683   9.172   6.737   8.140  1.2696 -2.5374  1.5599
 9802SOL    HW232684   9.080   6.678   8.035 -1.7904  2.2101  1.2832
 9803SOL     OW32685   4.241   5.245   9.645  0.2873  0.3085 -0.5023
 9803SOL    HW132686   4.280   5.158   9.658 -0.0373  0.1459 -0.5958
 9803SOL    HW232687   4.296   5.287   9.579  0.1772  0.0020 -0.7889
 9804SOL     OW32688   1.680   4.775   9.388 -0.4270  0.7365 -0.0191
 9804SOL    HW132689   1.751   4.771   9.323 -1.6484 -1.3482 -1.3486
 9804SOL    HW232690   1.622   4.843   9.354 -0.6352  0.2395 -0.6927
 9805SOL     OW32691  11.214   3.216   4.913  0.3130  0.0334  0.3739
 9805SOL    HW132692  11.129   3.243   4.879 -0.3651 -1.3538  0.8742
 9805SOL    HW232693  11.277   3.247   4.848 -0.8171 -1.3107 -1.4704
 9806SOL     OW32694   5.356   9.710   5.883 -0.4142 -0.4347  0.0671
 9806SOL    HW132695   5.356   9.749   5.971  1.5928 -0.4272  0.1118
 9806SOL    HW232696   5.265   9.715   5.855 -0.6640  2.0965  1.0361
 9807SOL     OW32697   5.818   0.335   1.434  0.1661  0.1211 -0.1590
 9807SOL    HW132698   5.794   0.279   1.360  1.5957 -0.2548 -0.3799
 9807SOL    HW232699   5.746   0.397   1.442 -2.0459 -2.3917  0.8047
 9808SOL     OW32700   6.062   9.499   4.002 -0.4185  0.1691  0.4797
 9808SOL    HW132701   5.998   9.457   3.945  0.0687  1.8822 -1.4421
 9808SOL    HW232702   6.016   9.575   4.039  0.0399  0.5191  0.3335
 9809SOL     OW32703   6.897   5.457   3.025  0.2561  0.5752 -0.0005
 9809SOL    HW132704   6.899   5.362   3.017  0.4756  0.5655  0.1558
 9809SOL    HW232705   6.835   5.474   3.096 -1.0782  0.6247 -1.1501
 9810SOL     OW32706   6.441  11.107   0.402 -0.4304 -0.1517 -0.6200
 9810SOL    HW132707   6.357  11.062   0.402 -1.0351  0.8478 -2.2583
 9810SOL    HW232708   6.503  11.043   0.368 -0.9237 -0.3255 -1.2132
 9811SOL     OW32709   8.854   6.212   7.636  0.2782  0.0760 -0.1077
 9811SOL    HW132710   8.843   6.252   7.723 -1.8608  0.2106 -0.3794
 9811SOL    HW232711   8.935   6.163   7.642  1.5300  2.1319  1.1623
 9812SOL     OW32712   9.799   9.727  10.256 -0.1009 -0.8187  0.2770
 9812SOL    HW132713   9.777   9.733  10.349 -2.6367 -0.5360 -0.2655
 9812SOL    HW232714   9.741   9.792  10.213 -0.4144 -2.2919 -1.6746
 9813SOL     OW32715  10.587   8.756   9.652 -0.0455 -0.5814  0.2552
 9813SOL    HW132716  10.583   8.830   9.713  0.5992 -1.3671  1.2715
 9813SOL    HW232717  10.508   8.706   9.669  0.6170 -1.3544  1.2076
 9814SOL     OW32718   0.333   0.312   2.895  0.6508 -0.1387  0.5186
 9814SOL    HW132719   0.333   0.217   2.907 -0.5447 -0.8293 -3.5360
 9814SOL    HW232720   0.411   0.330   2.842  0.8560  1.1781  1.2071
 9815SOL     OW32721   0.705   6.597   2.705  0.7562 -0.4817 -0.1919
 9815SOL    HW132722   0.798   6.594   2.685  0.6556 -0.9716 -0.6126
 9815SOL    HW232723   0.680   6.688   2.691  0.9139 -0.5948 -1.3028
 9816SOL     OW32724   5.327   6.565   3.132  0.3562  0.1111 -0.3750
 9816SOL    HW132725   5.307   6.516   3.053  0.2149 -0.2096 -0.1429
 9816SOL    HW232726   5.251   6.550   3.189  0.4228  0.4008 -0.2092
 9817SOL     OW32727   1.977   4.153   9.533 -0.0844  0.1760  0.2091
 9817SOL    HW132728   2.019   4.128   9.615  0.1042  0.8892  0.3406
 9817SOL    HW232729   1.985   4.076   9.477 -0.9851 -0.6286  1.1470
 9818SOL     OW32730   1.993   8.132   7.429 -0.4916  0.0422  0.1416
 9818SOL    HW132731   1.902   8.162   7.428 -0.5203 -0.0437  0.2485
 9818SOL    HW232732   2.031   8.170   7.508  0.0372  1.4906 -0.7449
 9819SOL     OW32733   1.009  10.169  10.752 -0.6355 -0.2669  0.6195
 9819SOL    HW132734   1.044  10.235  10.811  0.7028 -2.0738  1.9483
 9819SOL    HW232735   0.940  10.126  10.802  0.1893 -1.4950  0.7381
 9820SOL     OW32736   4.436   2.867   4.614  0.1160  0.1078  0.1528
 9820SOL    HW132737   4.352   2.912   4.616  0.8572  1.6322  2.9317
 9820SOL    HW232738   4.498   2.934   4.585  0.6578 -0.4061  0.0922
 9821SOL     OW32739   6.059  11.082   8.434 -0.7560  0.1117  0.0058
 9821SOL    HW132740   6.151  11.055   8.436 -0.9395 -0.5003  1.0718
 9821SOL    HW232741   6.010  11.000   8.431 -1.3088  0.2470  2.7626
 9822SOL     OW32742   4.013   8.278   3.646  0.2992 -0.6059  0.6984
 9822SOL    HW132743   3.985   8.292   3.736  1.0454  2.9151  0.5225
 9822SOL    HW232744   4.068   8.353   3.626  0.9170 -1.7365 -2.4326
 9823SOL     OW32745   6.963   6.360   9.307  0.3271  0.6080  0.3757
 9823SOL    HW132746   6.882   6.369   9.358 -0.4262 -0.3950 -0.6112
 9823SOL    HW232747   6.951   6.418   9.232  0.6154  0.5914  0.3143
 9824SOL     OW32748  10.865   2.691   9.002 -0.7615  0.1918 -0.1390
 9824SOL    HW132749  10.823   2.774   9.025  1.9515  2.0203 -1.2919
 9824SOL    HW232750  10.900   2.658   9.085  1.6584  2.4002 -0.1519
 9825SOL     OW32751   1.271   0.824  10.485  0.5500 -0.5682  0.6724
 9825SOL    HW132752   1.181   0.847  10.511  0.6094 -0.6066  0.9168
 9825SOL    HW232753   1.316   0.809  10.568  0.5093 -1.5851  0.5231
 9826SOL     OW32754   1.676   2.693   1.338  0.0377  0.2439 -0.0878
 9826SOL    HW132755   1.768   2.667   1.335  0.0858  0.2204  1.0163
 9826SOL    HW232756   1.629   2.611   1.356 -0.2051  0.2455 -0.7095
 9827SOL     OW32757   8.442   1.409   8.372  0.1614 -0.3413 -0.2383
 9827SOL    HW132758   8.489   1.325   8.376  1.7824  0.5207 -0.2224
 9827SOL    HW232759   8.442   1.441   8.462 -3.7711 -1.9587  0.5332
 9828SOL     OW32760  10.232   0.537   0.345  0.0570  0.0265  0.0328
 9828SOL    HW132761  10.257   0.570   0.259 -1.4351  0.6469 -0.2013
 9828SOL    HW232762  10.192   0.452   0.327  1.7724 -0.8893  0.3829
 9829SOL     OW32763   0.180   4.671   8.622  0.1564 -0.1231  0.0557
 9829SOL    HW132764   0.172   4.699   8.713 -0.4447  0.9692 -0.3048
 9829SOL    HW232765   0.092   4.684   8.585  0.6225  0.3935 -0.9218
 9830SOL     OW32766   2.685   7.452  10.038 -0.0663  0.1728 -0.8477
 9830SOL    HW132767   2.607   7.403  10.011  1.0645 -1.8350 -0.6516
 9830SOL    HW232768   2.738   7.388  10.084  1.5715  1.5886 -0.6868
 9831SOL     OW32769   1.437   7.647   7.796 -0.0578  0.1878  0.5441
 9831SOL    HW132770   1.446   7.715   7.863  0.6115  0.1924  0.4561
 9831SOL    HW232771   1.451   7.565   7.844  2.8641  0.2806  0.0474
 9832SOL     OW32772   5.828   3.851   3.215 -0.0154 -0.0334 -0.0831
 9832SOL    HW132773   5.845   3.945   3.206 -0.0676  0.3190  2.5370
 9832SOL    HW232774   5.881   3.824   3.290 -1.4115 -1.6784  0.3855
 9833SOL     OW32775   5.565  10.895   0.331  0.0979 -0.1648 -0.2063
 9833SOL    HW132776   5.517  10.961   0.380 -2.4378 -1.3230 -0.9651
 9833SOL    HW232777   5.607  10.841   0.399 -0.6205  0.2112  0.5550
 9834SOL     OW32778   9.478   4.923   4.721 -0.3866 -0.1430 -0.4214
 9834SOL    HW132779   9.514   5.005   4.688  1.3844 -1.3108 -1.5534
 9834SOL    HW232780   9.447   4.944   4.808  1.6462  1.3510  0.0149
 9835SOL     OW32781   5.510  10.144   0.462 -0.1067 -0.1666  0.1048
 9835SOL    HW132782   5.499  10.211   0.530 -1.3827  0.7635 -0.9554
 9835SOL    HW232783   5.559  10.188   0.392 -2.6105  0.4013 -1.4455
 9836SOL     OW32784   1.761   0.419   3.462 -0.0894  0.0782  0.6716
 9836SOL    HW132785   1.757   0.511   3.438 -0.7271  0.0219  0.5458
 9836SOL    HW232786   1.780   0.373   3.381 -1.0887 -0.0097  0.4730
 9837SOL     OW32787   4.348   9.461   0.439  0.0822  0.5530  0.0850
 9837SOL    HW132788   4.273   9.503   0.481 -0.9847  0.0949 -1.2496
 9837SOL    HW232789   4.350   9.373   0.475 -1.7755 -0.3508 -1.7967
 9838SOL     OW32790   5.202   2.397   5.884 -0.2352  0.6511  0.2759
 9838SOL    HW132791   5.139   2.341   5.839  1.1799  1.1145 -2.4530
 9838SOL    HW232792   5.247   2.338   5.945 -4.9195  0.7604  4.5784
 9839SOL     OW32793   7.991   1.999   8.743 -0.0488 -0.1841 -0.2226
 9839SOL    HW132794   8.055   2.064   8.773  1.5373 -1.5967 -0.3884
 9839SOL    HW232795   8.041   1.942   8.685 -1.5323 -1.2592 -0.4942
 9840SOL     OW32796  11.005   1.001   6.799 -0.7461  0.6018 -0.1372
 9840SOL    HW132797  11.032   0.917   6.762  0.3229  0.3537  1.1208
 9840SOL    HW232798  10.949   0.977   6.873  0.8919  0.8898  1.2605
 9841SOL     OW32799  10.290   2.980   8.516  0.3025 -0.7558  0.0850
 9841SOL    HW132800  10.272   3.010   8.605 -3.4280  0.2316 -0.8434
 9841SOL    HW232801  10.329   2.893   8.528  0.9332 -0.2228  2.6394
 9842SOL     OW32802   5.955   1.199   9.743 -0.4123  0.2861 -0.2040
 9842SOL    HW132803   5.865   1.216   9.771 -0.0340  1.3571  0.4125
 9842SOL    HW232804   5.951   1.112   9.703 -1.4794 -0.2295  0.9414
 9843SOL     OW32805   3.512   9.661   3.646  0.0313  0.7889 -0.0257
 9843SOL    HW132806   3.533   9.662   3.739 -1.4962 -0.2966  0.3714
 9843SOL    HW232807   3.570   9.595   3.608  0.3860  0.9533  0.2318
 9844SOL     OW32808   7.548   1.294   5.868 -0.1798  0.3627  0.2008
 9844SOL    HW132809   7.582   1.373   5.825  1.9502 -0.7149 -0.2190
 9844SOL    HW232810   7.529   1.234   5.796 -0.0834 -0.1548  0.6047
 9845SOL     OW32811   0.338   4.597   4.383 -0.0291  0.0750  0.3614
 9845SOL    HW132812   0.294   4.673   4.420  2.8817  0.5363  3.2546
 9845SOL    HW232813   0.359   4.623   4.293 -3.2827  0.7011 -0.3453
 9846SOL     OW32814   9.144   3.092   8.155 -0.0037 -0.3783 -0.1137
 9846SOL    HW132815   9.187   3.112   8.238 -1.8981  0.1219  0.7910
 9846SOL    HW232816   9.123   2.999   8.160 -1.3744 -0.0478  0.6031
 9847SOL     OW32817   1.233   8.484   0.056  0.1196 -0.4847  0.1851
 9847SOL    HW132818   1.302   8.417   0.060  0.5399 -0.2962  6.4984
 9847SOL    HW232819   1.153   8.435   0.039  0.9138 -1.9266  0.4240
 9848SOL     OW32820   1.305   9.751   8.240  0.4553  0.3313 -0.8462
 9848SOL    HW132821   1.238   9.694   8.279  0.8035 -0.1376 -0.9267
 9848SOL    HW232822   1.348   9.792   8.314 -0.5334  1.3539 -0.8146
 9849SOL     OW32823   2.407   4.668   8.367  0.1389  0.2267 -0.5770
 9849SOL    HW132824   2.355   4.612   8.309 -0.5180  0.2792 -0.0525
 9849SOL    HW232825   2.401   4.755   8.328  0.4350  0.0982 -0.9132
 9850SOL     OW32826   4.155   6.542   8.431  0.1772 -0.6441  0.4612
 9850SOL    HW132827   4.063   6.529   8.411  0.5065 -1.6597 -0.4995
 9850SOL    HW232828   4.192   6.581   8.352  0.1471  2.0500  1.6519
 9851SOL     OW32829   1.627   2.597   6.656  0.0245  0.0352  0.5064
 9851SOL    HW132830   1.614   2.515   6.609  2.1302  0.8309 -1.6817
 9851SOL    HW232831   1.539   2.633   6.666 -0.8477 -2.0525  0.7234
 9852SOL     OW32832   7.551  10.064   0.898  0.0734  0.2694 -0.0636
 9852SOL    HW132833   7.605  10.000   0.944 -0.7044 -0.5705 -0.2804
 9852SOL    HW232834   7.612  10.134   0.875  0.5870  0.4605  1.7258
 9853SOL     OW32835  11.167   9.303   2.947  0.0411 -0.0435  0.2075
 9853SOL    HW132836  11.220   9.383   2.956  0.4373 -0.2361 -0.3236
 9853SOL    HW232837  11.206   9.243   3.010 -0.3534  0.2273  0.7164
 9854SOL     OW32838   4.423   3.743   4.952  0.0355  0.4214  0.2636
 9854SOL    HW132839   4.362   3.699   5.012  1.9632 -0.9493  1.3186
 9854SOL    HW232840   4.498   3.766   5.007  1.5660 -0.2481 -1.4701
 9855SOL     OW32841  10.763   4.807   9.619  0.0896 -0.3703  0.1648
 9855SOL    HW132842  10.698   4.808   9.548  1.1749 -0.8861 -0.8631
 9855SOL    HW232843  10.790   4.898   9.628  0.1574 -0.3440 -0.2848
 9856SOL     OW32844   0.404   6.984   0.671  0.2331 -0.5195 -0.0105
 9856SOL    HW132845   0.335   7.011   0.732  0.4071  0.3936 -0.1991
 9856SOL    HW232846   0.466   6.936   0.725  1.0771  1.4234  0.8691
 9857SOL     OW32847   1.412   9.377   4.097  0.3968 -0.3405  0.2144
 9857SOL    HW132848   1.414   9.375   4.193 -2.4786 -0.5427  0.3620
 9857SOL    HW232849   1.469   9.449   4.073  0.7782  0.0339  2.1150
 9858SOL     OW32850  11.311   0.052   2.686 -0.4132  0.1697 -0.3020
 9858SOL    HW132851  11.274  -0.025   2.642 -1.0541  1.0267 -1.3192
 9858SOL    HW232852  11.392   0.071   2.638  1.0614 -1.2710  1.4688
 9859SOL     OW32853   4.764   3.347   3.340 -0.0489 -0.5396  0.0110
 9859SOL    HW132854   4.810   3.266   3.320  0.7784 -0.0704 -0.0223
 9859SOL    HW232855   4.721   3.330   3.424  1.2520 -0.5620  0.7003
 9860SOL     OW32856   2.090   6.460   7.104 -0.0604 -0.1089  0.6031
 9860SOL    HW132857   2.128   6.386   7.057 -0.6293  1.3940 -2.4794
 9860SOL    HW232858   2.033   6.420   7.169  0.8962 -2.3580  0.1597
 9861SOL     OW32859   2.952   2.373  10.154 -0.3700  0.0745  0.3076
 9861SOL    HW132860   2.947   2.296  10.210  1.4324  0.2409  0.7787
 9861SOL    HW232861   2.924   2.446  10.209 -0.0304  0.0357  0.5332
 9862SOL     OW32862   3.419   8.748   8.845  0.4553 -0.2887  0.0159
 9862SOL    HW132863   3.392   8.810   8.777  0.5002 -0.0489  0.2137
 9862SOL    HW232864   3.513   8.741   8.834  0.3461 -0.9723 -0.5455
 9863SOL     OW32865   0.731   4.385   0.187  0.4470  0.0387  0.1909
 9863SOL    HW132866   0.730   4.453   0.255 -1.3239 -1.9269  2.2696
 9863SOL    HW232867   0.816   4.396   0.144  0.9537  2.4143  1.5956
 9864SOL     OW32868   1.427   3.812   6.980  0.3683  0.0824  0.2169
 9864SOL    HW132869   1.341   3.837   6.947  0.8292 -1.6107 -2.6518
 9864SOL    HW232870   1.411   3.777   7.067 -1.5669  1.2352  0.3710
 9865SOL     OW32871   4.958   6.332   9.749 -0.6900  0.4213  0.0101
 9865SOL    HW132872   5.042   6.286   9.745 -0.8022  0.0576  1.4042
 9865SOL    HW232873   4.897   6.268   9.784 -0.7618  1.6656  2.4169
 9866SOL     OW32874   7.685   5.032  10.852 -0.5214  0.1359 -0.2994
 9866SOL    HW132875   7.638   4.974  10.791  0.3115 -1.8644  0.8529
 9866SOL    HW232876   7.619   5.096  10.880 -1.2728  0.2570 -2.2118
 9867SOL     OW32877   3.305   7.612   0.498 -0.5588 -0.2096  0.1092
 9867SOL    HW132878   3.355   7.558   0.560 -1.2288 -2.9605 -1.5743
 9867SOL    HW232879   3.370   7.637   0.431 -0.1550  1.5725  1.0900
 9868SOL     OW32880   7.675   3.887  10.832 -0.3045 -0.0506 -0.4935
 9868SOL    HW132881   7.678   3.791  10.841  1.0244 -0.0214 -0.4815
 9868SOL    HW232882   7.764   3.912  10.809 -0.3328  1.3249  0.7600
 9869SOL     OW32883   7.922   9.088  11.247  0.2543 -0.0508  0.3389
 9869SOL    HW132884   7.888   9.122  11.330  1.5878  1.7224  0.2072
 9869SOL    HW232885   7.858   9.116  11.181 -1.3417 -2.3259  0.8097
 9870SOL     OW32886   2.307   7.027   3.554  0.1315  0.1224  0.5125
 9870SOL    HW132887   2.314   7.036   3.459 -1.7174  0.3925  0.3644
 9870SOL    HW232888   2.304   6.932   3.569  0.1906  0.0855  0.2857
 9871SOL     OW32889   3.903   1.331   9.064 -0.0043 -0.0057  0.0602
 9871SOL    HW132890   3.859   1.261   9.112  0.8108 -0.7486 -0.2361
 9871SOL    HW232891   3.997   1.311   9.073  0.1825 -0.0543 -1.6217
 9872SOL     OW32892   5.248  10.073  10.208 -0.0051  0.1850  0.0615
 9872SOL    HW132893   5.270   9.981  10.191 -0.9605 -0.1779  0.7153
 9872SOL    HW232894   5.246  10.113  10.121 -0.2705 -0.5823 -0.2990
 9873SOL     OW32895   0.829   3.194   9.984  0.2692 -0.0457  0.2357
 9873SOL    HW132896   0.754   3.136   9.968  0.5450 -0.0972 -1.0309
 9873SOL    HW232897   0.799   3.255  10.051 -0.3072 -1.1363  0.9889
 9874SOL     OW32898   3.413   6.263  11.218 -0.5549  0.4274 -0.3072
 9874SOL    HW132899   3.326   6.228  11.197 -1.2118  0.8619  1.5429
 9874SOL    HW232900   3.450   6.199  11.278 -0.0605  0.8353 -0.1769
 9875SOL     OW32901   1.693   9.369   4.879 -0.0108  0.5488  0.2107
 9875SOL    HW132902   1.698   9.385   4.974 -0.1842  0.8830  0.1623
 9875SOL    HW232903   1.782   9.343   4.855 -0.1306 -0.2373  0.5907
 9876SOL     OW32904   9.817   4.890   2.798  0.6114  0.1015 -0.0573
 9876SOL    HW132905   9.783   4.892   2.887  0.3495 -2.0298 -0.0599
 9876SOL    HW232906   9.907   4.860   2.807  0.7816  0.4806 -0.4613
 9877SOL     OW32907   3.171   6.770   4.330 -0.8201  0.1588 -1.1210
 9877SOL    HW132908   3.190   6.740   4.419  1.2693  0.2471 -1.4786
 9877SOL    HW232909   3.134   6.857   4.341 -1.0161 -0.0191 -0.3253
 9878SOL     OW32910   1.002   5.415   6.605 -0.3046  0.2766  0.4857
 9878SOL    HW132911   0.950   5.436   6.683 -0.2680  1.4977  0.2054
 9878SOL    HW232912   0.937   5.391   6.539 -0.6246  2.3272 -0.0281
 9879SOL     OW32913   3.140   8.534   1.006 -0.0824  0.2727 -0.1862
 9879SOL    HW132914   3.092   8.535   1.089 -0.1202 -0.5164 -0.1953
 9879SOL    HW232915   3.085   8.585   0.947 -1.0226 -0.7629 -0.2426
 9880SOL     OW32916   0.159   0.101   8.940 -0.5202 -0.3046 -0.0948
 9880SOL    HW132917   0.176   0.146   8.857 -1.3050  0.0968 -0.0572
 9880SOL    HW232918   0.189   0.163   9.007  0.4799 -0.7931 -0.0734
 9881SOL     OW32919   7.136   4.860   9.351  0.5890 -0.1696  0.4666
 9881SOL    HW132920   7.104   4.775   9.320 -0.2417  0.1880  0.3129
 9881SOL    HW232921   7.067   4.892   9.409  0.5680  0.7098 -0.0267
 9882SOL     OW32922   6.544   1.204   1.440 -0.0291  0.8402  0.3502
 9882SOL    HW132923   6.472   1.203   1.377  0.5049 -0.2102 -0.2749
 9882SOL    HW232924   6.505   1.238   1.521 -1.6462 -1.1579  0.5045
 9883SOL     OW32925   1.770   7.577  10.360 -0.2343 -0.3413  0.1071
 9883SOL    HW132926   1.844   7.517  10.371 -0.4783 -0.9511 -1.3385
 9883SOL    HW232927   1.803   7.645  10.300  0.4604  1.7842  2.6940
 9884SOL     OW32928  10.532   0.144  11.374 -0.2992  0.0388  0.0449
 9884SOL    HW132929  10.498   0.184  11.453 -0.4826  1.5118 -0.7534
 9884SOL    HW232930  10.606   0.199  11.349  0.6573 -1.2278 -0.0558
 9885SOL     OW32931  10.805   1.909   3.532 -0.4379  0.1412  0.3788
 9885SOL    HW132932  10.868   1.980   3.543 -1.2820  1.2704 -1.5151
 9885SOL    HW232933  10.767   1.924   3.445 -1.6684 -1.8243  0.5090
 9886SOL     OW32934   9.692   5.190  10.996 -0.0890  0.3003 -0.7543
 9886SOL    HW132935   9.619   5.132  11.020 -1.0591  1.4399 -0.8989
 9886SOL    HW232936   9.731   5.215  11.080  0.4683 -0.7021 -0.6970
 9887SOL     OW32937   1.955  11.201   2.059  0.6322 -0.4234  0.1510
 9887SOL    HW132938   1.888  11.211   1.991  0.0275 -0.7712  0.6810
 9887SOL    HW232939   2.018  11.139   2.021 -0.1772 -1.3316  0.2325
 9888SOL     OW32940   6.927   3.751   3.463  0.0990 -0.6388 -0.6039
 9888SOL    HW132941   6.942   3.686   3.395  0.6264 -0.8321 -0.3051
 9888SOL    HW232942   7.014   3.781   3.488 -0.1493  2.2510 -2.6855
 9889SOL     OW32943   4.596   2.193   8.857  1.1525  0.1744 -0.9576
 9889SOL    HW132944   4.512   2.148   8.856  0.8112  0.7137  0.3896
 9889SOL    HW232945   4.574   2.286   8.863  1.7919  0.2719  0.5640
 9890SOL     OW32946   3.135   5.597  10.473  0.2805  0.0136 -0.5747
 9890SOL    HW132947   3.166   5.514  10.510  1.1307 -0.1904 -1.7051
 9890SOL    HW232948   3.213   5.636  10.435 -0.0166  1.5737  0.3525
 9891SOL     OW32949   3.029   4.796   7.019 -0.2620  0.2623 -0.6080
 9891SOL    HW132950   3.058   4.726   7.077 -0.2856 -1.0244 -2.0821
 9891SOL    HW232951   3.106   4.852   7.007  0.0021  0.0073 -0.1155
 9892SOL     OW32952   4.114   1.807   8.015 -0.1945 -0.5334  0.0817
 9892SOL    HW132953   4.022   1.816   7.988  0.3034 -1.3732 -2.0267
 9892SOL    HW232954   4.139   1.719   7.986  1.6179  0.1309 -0.4747
 9893SOL     OW32955  10.499   6.711   6.239  0.5992 -0.4264 -0.4999
 9893SOL    HW132956  10.420   6.661   6.259 -1.1756  2.6794  0.9614
 9893SOL    HW232957  10.524   6.750   6.323  1.1186  2.1062 -1.7624
 9894SOL     OW32958   5.611   2.305   1.054  0.4801 -0.7377 -0.8658
 9894SOL    HW132959   5.699   2.335   1.032  0.6372  0.3610  1.0238
 9894SOL    HW232960   5.625   2.232   1.114  0.0896 -0.9974 -1.0863
 9895SOL     OW32961   8.429   0.830   5.893 -0.1077  0.1819 -0.1301
 9895SOL    HW132962   8.405   0.744   5.927 -0.5879 -0.6897 -2.4855
 9895SOL    HW232963   8.361   0.889   5.925 -0.3189 -0.4831  0.6867
 9896SOL     OW32964   7.064   9.878   0.196 -0.1020 -0.0459  0.9161
 9896SOL    HW132965   6.989   9.908   0.248 -0.5441 -0.0313  0.2894
 9896SOL    HW232966   7.086   9.954   0.142 -0.5985 -0.5210  0.0260
 9897SOL     OW32967   8.142   6.062   9.305 -0.1543 -0.0486  0.0243
 9897SOL    HW132968   8.067   6.005   9.290 -0.2774  0.6804 -2.4438
 9897SOL    HW232969   8.109   6.151   9.290  0.1642  0.7625  3.2959
 9898SOL     OW32970  10.517   7.911   3.745  0.1180  0.2997 -0.5119
 9898SOL    HW132971  10.515   7.894   3.839  0.2620  0.4374 -0.4836
 9898SOL    HW232972  10.425   7.922   3.720  0.1381  1.3805 -0.1793
 9899SOL     OW32973   2.304   2.179   5.014 -0.4675 -0.0248 -0.4474
 9899SOL    HW132974   2.266   2.142   4.935 -1.5166  1.8882 -0.8835
 9899SOL    HW232975   2.234   2.175   5.079  0.3898 -1.5978  0.4444
 9900SOL     OW32976   8.470   3.361  10.285 -0.2773  0.6957  0.1176
 9900SOL    HW132977   8.509   3.285  10.242 -3.3133 -1.3678  0.7105
 9900SOL    HW232978   8.433   3.327  10.366 -0.8980  3.0262  0.8867
 9901SOL     OW32979   1.658   8.109   4.532 -0.2711 -0.0754 -0.3028
 9901SOL    HW132980   1.640   8.185   4.587 -2.1123 -0.1353 -0.7620
 9901SOL    HW232981   1.628   8.134   4.445  0.4446 -0.8199 -0.7835
 9902SOL     OW32982   0.691   2.961   1.104 -0.5066 -0.7924 -0.4122
 9902SOL    HW132983   0.732   2.952   1.018  1.4653 -2.5791  0.5899
 9902SOL    HW232984   0.753   3.016   1.153 -1.5746  0.1482 -0.0913
 9903SOL     OW32985   5.976   9.449   7.490  0.5118 -0.2021  0.2218
 9903SOL    HW132986   5.976   9.544   7.477 -0.1680 -0.3596 -1.1017
 9903SOL    HW232987   5.958   9.437   7.583  2.8505  0.9925  0.9126
 9904SOL     OW32988  11.024   4.317   1.188  0.5032 -0.1245 -0.1097
 9904SOL    HW132989  11.009   4.405   1.153 -0.2760  0.0160  0.5262
 9904SOL    HW232990  10.937   4.277   1.188  0.2065  0.3139  2.7441
 9905SOL     OW32991   1.410   0.387   4.520  0.5870  0.4870  0.3419
 9905SOL    HW132992   1.343   0.416   4.582 -0.2367 -0.4458 -0.0785
 9905SOL    HW232993   1.467   0.330   4.571 -0.5913 -0.9846  0.0877
 9906SOL     OW32994   1.401   2.434   6.419 -0.0166 -0.0272 -0.3433
 9906SOL    HW132995   1.312   2.438   6.386 -0.0884  1.7461 -0.0511
 9906SOL    HW232996   1.449   2.498   6.366  0.1232  2.0737  2.1140
 9907SOL     OW32997   0.656   9.754   7.001 -0.2472 -0.0127 -0.0108
 9907SOL    HW132998   0.602   9.694   6.949 -0.8454 -0.7467  1.3984
 9907SOL    HW232999   0.735   9.767   6.950 -0.5399 -1.2322 -0.7939
 9908SOL     OW33000   9.762   1.047   1.577 -0.5522  0.2970 -0.3185
 9908SOL    HW133001   9.845   1.078   1.612 -0.1320 -0.6764 -0.4419
 9908SOL    HW233002   9.696   1.091   1.632  0.0331  0.9597 -0.1276
 9909SOL     OW33003   3.065   3.613  11.142  0.3809  0.5047 -0.1347
 9909SOL    HW133004   3.151   3.637  11.107  0.8195 -0.7502  0.0393
 9909SOL    HW233005   3.007   3.613  11.066  0.8676 -0.1306 -0.5110
 9910SOL     OW33006   7.488   5.378   4.770 -0.4173 -0.1130  0.2782
 9910SOL    HW133007   7.452   5.450   4.718  1.0372  1.0969  0.8873
 9910SOL    HW233008   7.548   5.333   4.711  0.4243  0.6086  0.5658
 9911SOL     OW33009   0.582   7.994   4.639  0.3344 -0.6540  0.0333
 9911SOL    HW133010   0.527   8.072   4.636 -0.3073 -1.1243 -0.7898
 9911SOL    HW233011   0.669   8.027   4.661 -0.2410  0.1085  1.3077
 9912SOL     OW33012   4.182  10.701   5.648  0.3651 -0.3823  0.0154
 9912SOL    HW133013   4.275  10.678   5.647  0.3899 -0.2814 -0.0548
 9912SOL    HW233014   4.175  10.766   5.719  0.4041 -0.1647 -0.1779
 9913SOL     OW33015   9.355   6.784   6.150  0.0212  0.2512 -0.5139
 9913SOL    HW133016   9.443   6.774   6.113  0.1567 -3.1232  0.3387
 9913SOL    HW233017   9.306   6.710   6.114 -1.9666  1.0287  0.4523
 9914SOL     OW33018   2.271   0.134   1.967  0.6323  0.0999  0.3756
 9914SOL    HW133019   2.286   0.155   2.059 -0.1210  0.8789  0.3304
 9914SOL    HW233020   2.307   0.046   1.956  2.3105  0.6655  0.9805
 9915SOL     OW33021   4.912   3.320   5.332 -0.3053 -0.7899  0.0376
 9915SOL    HW133022   4.962   3.243   5.306  1.4118  0.4410 -0.5170
 9915SOL    HW233023   4.927   3.383   5.261 -1.3842  0.1839  0.6340
 9916SOL     OW33024   4.057   9.860   4.417 -0.9433 -0.0000  0.5017
 9916SOL    HW133025   4.017   9.774   4.404 -1.8742  0.6113 -0.9417
 9916SOL    HW233026   4.073   9.864   4.511  4.2129 -3.9248  0.2188
 9917SOL     OW33027   5.807   6.401   6.675 -0.2262 -0.0712 -0.3303
 9917SOL    HW133028   5.885   6.376   6.626  0.0834 -2.0803  1.0743
 9917SOL    HW233029   5.734   6.373   6.619  0.0614  0.2207 -0.8636
 9918SOL     OW33030   3.877   6.106   0.789  0.0296  0.2534 -0.0297
 9918SOL    HW133031   3.857   6.181   0.846  0.2611 -0.3188  0.8215
 9918SOL    HW233032   3.800   6.098   0.733 -0.4600  0.4682  0.5983
 9919SOL     OW33033   1.159   9.801   3.255  0.5168 -0.0297  0.2361
 9919SOL    HW133034   1.157   9.812   3.160  0.4896  0.3350  0.2787
 9919SOL    HW233035   1.217   9.871   3.286 -0.4349  0.6140  0.5946
 9920SOL     OW33036   3.289  10.751   4.666  0.0106  0.4224  0.1376
 9920SOL    HW133037   3.363  10.707   4.624 -2.1293 -1.1902 -2.2163
 9920SOL    HW233038   3.300  10.733   4.759  1.8255 -0.9897 -0.2964
 9921SOL     OW33039   1.289   7.719   9.409  0.7325  0.3294 -0.0589
 9921SOL    HW133040   1.299   7.813   9.396 -0.9609  0.6522  0.6180
 9921SOL    HW233041   1.272   7.684   9.322 -1.1079  1.0525 -0.0380
 9922SOL     OW33042  11.235   4.188   9.794 -0.0121  0.6330  1.0518
 9922SOL    HW133043  11.326   4.190   9.826  0.2874  0.8064  0.2391
 9922SOL    HW233044  11.182   4.208   9.870  0.5306 -0.9806  1.8934
 9923SOL     OW33045   8.205   8.628   0.641  0.0098 -0.2132  0.0512
 9923SOL    HW133046   8.145   8.556   0.623 -0.8709  0.4164  0.4128
 9923SOL    HW233047   8.198   8.642   0.736  1.4259 -0.7306  0.2564
 9924SOL     OW33048   5.521   7.149   5.433 -0.8475  0.3539  0.2714
 9924SOL    HW133049   5.540   7.237   5.402 -2.1127  1.2559  1.8948
 9924SOL    HW233050   5.604   7.102   5.424 -0.0071  1.8638 -0.1288
 9925SOL     OW33051   0.158   7.962  10.501  0.6063  0.3496 -0.2506
 9925SOL    HW133052   0.170   7.895  10.568 -1.0142  0.7132  0.4480
 9925SOL    HW233053   0.092   7.925  10.442 -0.4827  1.4062  0.2809
 9926SOL     OW33054  11.115   1.618   3.184  0.1471 -0.0521  0.1157
 9926SOL    HW133055  11.145   1.588   3.098 -0.7135 -2.9770  0.7379
 9926SOL    HW233056  11.020   1.619   3.177  0.0846  0.1131  0.9117
 9927SOL     OW33057   3.096   2.296   3.832 -0.4720  0.7196  0.5440
 9927SOL    HW133058   3.187   2.306   3.858 -0.2591  0.0922  0.0562
 9927SOL    HW233059   3.082   2.365   3.766 -0.2114  0.5083  0.2669
 9928SOL     OW33060   0.149   5.921   3.438  0.0133 -0.3963  0.0926
 9928SOL    HW133061   0.188   6.001   3.404  1.9507 -0.9830  0.7925
 9928SOL    HW233062   0.088   5.893   3.369  0.1388  1.0723 -0.6486
 9929SOL     OW33063  11.319   3.841   3.017 -0.3362  0.7082  0.4208
 9929SOL    HW133064  11.310   3.785   2.940  0.5401 -0.6388  1.2425
 9929SOL    HW233065  11.242   3.821   3.070  0.6453 -0.8567  1.3583
 9930SOL     OW33066   9.512   7.134   4.301 -0.0446 -0.4622 -0.0157
 9930SOL    HW133067   9.420   7.152   4.320 -0.3690 -1.7714 -0.2111
 9930SOL    HW233068   9.537   7.068   4.366  1.1616  0.8503  0.9033
 9931SOL     OW33069   3.585   8.372   5.853 -0.0662 -0.2149 -0.4067
 9931SOL    HW133070   3.581   8.315   5.930  0.6874  1.7828  1.2022
 9931SOL    HW233071   3.628   8.319   5.787 -2.7884 -2.8119 -0.3006
 9932SOL     OW33072   5.934  10.507   1.616  0.0980 -0.6106  0.1538
 9932SOL    HW133073   5.862  10.560   1.649 -1.0381 -1.6796 -0.5462
 9932SOL    HW233074   5.972  10.468   1.695  0.7396  0.9204  0.6457
 9933SOL     OW33075   3.063   8.354   9.620  0.2751  0.1118 -0.3989
 9933SOL    HW133076   3.130   8.419   9.599 -0.8022  1.5431  0.3786
 9933SOL    HW233077   3.034   8.320   9.536  1.5680 -0.1285 -0.7679
 9934SOL     OW33078   0.318   7.240   0.160 -0.0135 -0.1064 -0.1855
 9934SOL    HW133079   0.300   7.298   0.233  0.2461 -0.2656  0.0046
 9934SOL    HW233080   0.239   7.186   0.153  0.3258 -0.7053  0.5529
 9935SOL     OW33081   6.268  10.016   8.793 -0.2230  0.8614  0.3035
 9935SOL    HW133082   6.263   9.922   8.778 -1.5830  0.7386  1.2453
 9935SOL    HW233083   6.316  10.051   8.718 -0.7241 -0.4437 -0.6592
 9936SOL     OW33084   3.329   6.304   4.971 -0.4006 -0.0060 -0.0473
 9936SOL    HW133085   3.247   6.345   4.944 -0.3719 -0.5760 -1.0771
 9936SOL    HW233086   3.374   6.285   4.889  0.6538  0.0815  0.5027
 9937SOL     OW33087   7.206   3.343   2.012  0.2359  0.0457  0.4980
 9937SOL    HW133088   7.281   3.286   1.993  1.8407  1.1231  3.0676
 9937SOL    HW233089   7.151   3.291   2.072 -0.0716 -0.0321  0.1508
 9938SOL     OW33090   3.080   4.240  10.805 -0.0735 -0.7933 -0.0781
 9938SOL    HW133091   3.031   4.196  10.735 -0.0680 -0.1953 -0.4594
 9938SOL    HW233092   3.161   4.270  10.764 -0.1953 -0.1917  0.1083
 9939SOL     OW33093   9.947   7.869   3.386  0.0582  0.5390  0.3478
 9939SOL    HW133094   9.983   7.832   3.305  0.7582  0.9061  0.4856
 9939SOL    HW233095   9.942   7.795   3.446 -0.1776  0.3256  0.0701
 9940SOL     OW33096  10.576   3.013   7.108  0.2044  0.2486  0.1796
 9940SOL    HW133097  10.661   2.975   7.132 -0.1895 -0.3785  0.5906
 9940SOL    HW233098  10.512   2.961   7.155 -0.5057 -0.1286 -1.1546
 9941SOL     OW33099   5.080   6.733   8.531 -0.0755 -0.1019  0.1987
 9941SOL    HW133100   5.022   6.783   8.588 -0.9756 -0.4121 -0.4334
 9941SOL    HW233101   5.113   6.797   8.469 -0.4256 -0.0918  0.0222
 9942SOL     OW33102   8.958   2.600   9.804  0.0054 -0.1168  0.0949
 9942SOL    HW133103   8.934   2.675   9.860 -0.5061  1.6838 -2.3655
 9942SOL    HW233104   9.053   2.595   9.811  0.7595  3.9333 -3.1185
 9943SOL     OW33105   8.829   6.966   8.845 -0.2479  0.3425  0.1689
 9943SOL    HW133106   8.878   6.888   8.818  0.4215  0.6132  0.5666
 9943SOL    HW233107   8.789   6.999   8.765 -1.1029 -0.7893  0.1025
 9944SOL     OW33108  10.671   8.351   4.801  0.0577  0.1616 -0.1916
 9944SOL    HW133109  10.743   8.326   4.859  1.4647  0.7950 -1.5799
 9944SOL    HW233110  10.676   8.446   4.797 -0.7590  0.1958 -0.4328
 9945SOL     OW33111   6.481   5.842   3.627  0.5901  0.3650 -0.0824
 9945SOL    HW133112   6.534   5.906   3.675 -0.1615  1.5938 -0.8253
 9945SOL    HW233113   6.391   5.863   3.652  0.3737 -0.8395  0.1630
 9946SOL     OW33114   4.244   0.136   4.548 -0.8415 -0.7632  0.0126
 9946SOL    HW133115   4.237   0.229   4.528  0.1155 -0.3822  1.2807
 9946SOL    HW233116   4.198   0.126   4.632  1.0038 -0.9593  1.0483
 9947SOL     OW33117   2.355   0.137   9.321  0.7252 -0.3261  0.0293
 9947SOL    HW133118   2.320   0.198   9.387 -0.0226  0.4713 -1.0612
 9947SOL    HW233119   2.340   0.182   9.238  1.4742 -1.3982 -0.6977
 9948SOL     OW33120   6.830   3.421   1.285  0.2051 -0.2259  0.2463
 9948SOL    HW133121   6.891   3.453   1.218  0.6085 -2.2614 -0.4330
 9948SOL    HW233122   6.882   3.415   1.365  0.2367  0.3989  0.2722
 9949SOL     OW33123   5.649   4.298  10.456 -0.0980 -0.2524  0.1180
 9949SOL    HW133124   5.686   4.385  10.472 -2.2277  0.4201  1.9420
 9949SOL    HW233125   5.571   4.315  10.402 -0.2922 -1.0695  0.1321
 9950SOL     OW33126   4.527   0.166   5.607 -0.3587  0.4453  0.4105
 9950SOL    HW133127   4.450   0.208   5.569  1.1129  1.8416 -1.2266
 9950SOL    HW233128   4.600   0.197   5.553  1.3952 -0.5866  2.0658
 9951SOL     OW33129   3.029   2.736   0.545 -0.7284 -0.7650 -0.1913
 9951SOL    HW133130   3.019   2.733   0.450 -0.7844  1.0959 -0.2789
 9951SOL    HW233131   2.987   2.657   0.576 -2.0039 -0.6894 -1.6283
 9952SOL     OW33132  10.364   6.375   7.730  0.1017 -0.7669  0.4164
 9952SOL    HW133133  10.380   6.315   7.803  0.1126 -0.9975  0.2274
 9952SOL    HW233134  10.422   6.449   7.746 -0.3971 -0.4965  1.0114
 9953SOL     OW33135   6.071  10.801   3.122  0.3879 -0.3329 -0.8668
 9953SOL    HW133136   6.035  10.873   3.173  2.5914  0.4741 -0.3539
 9953SOL    HW233137   6.002  10.779   3.060 -2.5081 -1.4873  2.4425
 9954SOL     OW33138   3.829   5.044   7.896  0.2630  0.3592 -0.2297
 9954SOL    HW133139   3.737   5.070   7.902  0.2015  0.7969 -2.1460
 9954SOL    HW233140   3.832   4.985   7.820  1.5915  0.5906 -0.3898
 9955SOL     OW33141   3.899   3.974   8.551 -0.6734 -0.0012  0.0557
 9955SOL    HW133142   3.805   3.993   8.558 -0.5036  0.4886  1.2294
 9955SOL    HW233143   3.922   4.002   8.462 -1.8521 -1.1929 -0.6769
 9956SOL     OW33144   1.842   5.130   4.721  0.2270 -0.0574  0.3327
 9956SOL    HW133145   1.902   5.204   4.709  1.5587 -1.1012  0.2127
 9956SOL    HW233146   1.883   5.058   4.672 -0.8845 -0.9429  0.6661
 9957SOL     OW33147   1.352   6.085   5.455 -0.0241  0.1321  0.5303
 9957SOL    HW133148   1.371   6.144   5.383  0.7457  1.8753  2.0881
 9957SOL    HW233149   1.256   6.076   5.455  0.0214 -1.0348 -1.4934
 9958SOL     OW33150   0.961   3.366   5.474  0.0609 -0.8874  0.3747
 9958SOL    HW133151   0.958   3.304   5.547  0.1711 -1.9091 -0.4665
 9958SOL    HW233152   1.036   3.423   5.493  0.9842 -2.0615  0.3495
 9959SOL     OW33153   4.053   4.659   0.202  0.1759 -0.3406  0.4182
 9959SOL    HW133154   4.002   4.580   0.186  1.5728 -1.7153  2.3119
 9959SOL    HW233155   4.025   4.689   0.289  0.6390  0.4714  0.2987
 9960SOL     OW33156   3.753   6.814   8.322 -0.6567 -0.1053 -0.1733
 9960SOL    HW133157   3.807   6.869   8.379 -0.3033 -1.2773  0.6568
 9960SOL    HW233158   3.791   6.826   8.235 -1.4879  2.0596 -0.2949
 9961SOL     OW33159  10.725   6.792   4.714 -0.2017  0.5012 -0.1755
 9961SOL    HW133160  10.762   6.726   4.656  1.3030  1.1771 -0.0356
 9961SOL    HW233161  10.665   6.841   4.658 -0.0333  0.0914 -0.7282
 9962SOL     OW33162  11.202   9.610   9.818 -0.9165  0.5635  0.0391
 9962SOL    HW133163  11.117   9.571   9.836 -0.7640  1.3432  2.9973
 9962SOL    HW233164  11.189   9.704   9.833  0.3444  0.7678  0.0084
 9963SOL     OW33165   6.716   5.940   3.803  0.8519  0.1321  0.3238
 9963SOL    HW133166   6.781   6.010   3.793 -0.3394  1.2122 -0.1236
 9963SOL    HW233167   6.708   5.928   3.897  3.4285 -1.7385  0.4210
 9964SOL     OW33168   7.472   6.533   3.289 -0.1545  0.2120  0.2860
 9964SOL    HW133169   7.486   6.438   3.287 -1.0980  0.0097  1.6339
 9964SOL    HW233170   7.449   6.556   3.199  0.1548 -0.8196 -0.0715
 9965SOL     OW33171   6.164   4.047   0.573  0.3839  0.0670 -0.1662
 9965SOL    HW133172   6.242   3.992   0.575  1.0811  0.9946  2.4068
 9965SOL    HW233173   6.193   4.127   0.529  1.2555  0.8044  1.6420
 9966SOL     OW33174   5.660   5.855   7.892 -0.0864  0.0278 -0.3129
 9966SOL    HW133175   5.651   5.912   7.968  0.9648  1.3248 -1.1255
 9966SOL    HW233176   5.684   5.770   7.929 -2.1953 -0.0917  0.9601
 9967SOL     OW33177  10.856  10.412   1.141  0.4939 -0.1517 -0.0082
 9967SOL    HW133178  10.815  10.348   1.083  0.1740 -0.4984  0.5878
 9967SOL    HW233179  10.784  10.466   1.173  0.7612  0.4956 -0.4822
 9968SOL     OW33180  11.226   7.019   0.380  0.0512  0.0224  0.1806
 9968SOL    HW133181  11.254   6.939   0.334 -1.7497 -0.2302 -0.5818
 9968SOL    HW233182  11.299   7.079   0.371  1.0194 -1.1640 -0.1825
 9969SOL     OW33183  10.869  10.575   4.124  0.2017 -0.0403 -0.1655
 9969SOL    HW133184  10.784  10.566   4.082 -0.9577  0.0146  2.0267
 9969SOL    HW233185  10.904  10.486   4.130  0.2737 -0.0733 -0.9716
 9970SOL     OW33186   8.435   1.582  10.931  0.1366 -0.3126 -0.8036
 9970SOL    HW133187   8.494   1.634  10.985  0.8934 -0.9191 -1.0213
 9970SOL    HW233188   8.479   1.497  10.922 -0.5346 -0.6126 -1.3919
 9971SOL     OW33189   5.978  10.518   5.806 -0.0724 -0.7109  0.3332
 9971SOL    HW133190   5.939  10.556   5.728 -1.1109 -0.7067  0.8334
 9971SOL    HW233191   5.909  10.524   5.873  0.3574 -1.8209  0.9109
 9972SOL     OW33192   6.621   8.782   8.762  0.1510 -0.3644 -0.1532
 9972SOL    HW133193   6.680   8.711   8.738  1.8934  0.5930  1.0808
 9972SOL    HW233194   6.597   8.763   8.853 -0.9571 -0.3709 -0.4229
 9973SOL     OW33195   1.886  10.455   3.177 -0.6787 -0.2620 -0.0118
 9973SOL    HW133196   1.809  10.511   3.186 -0.1659  0.3818  0.4650
 9973SOL    HW233197   1.959  10.516   3.163 -0.2089 -0.8426 -0.1683
 9974SOL     OW33198  10.299   8.730  10.999 -0.0123  0.7470  0.7779
 9974SOL    HW133199  10.279   8.794  11.067 -0.5039 -0.4702  1.8174
 9974SOL    HW233200  10.263   8.648  11.032  0.4140 -0.0330 -0.6171
 9975SOL     OW33201   3.618   6.920   7.440 -0.0654  0.5418 -0.0977
 9975SOL    HW133202   3.551   6.980   7.406 -0.3605  0.7343  0.7839
 9975SOL    HW233203   3.597   6.836   7.401  0.4149  1.0148 -1.4341
 9976SOL     OW33204   2.252  11.342   1.052 -0.2292 -0.1440 -0.5103
 9976SOL    HW133205   2.221  11.256   1.022 -1.7319  0.9131 -2.2303
 9976SOL    HW233206   2.336  11.353   1.007  0.2377 -0.9127  0.1433
 9977SOL     OW33207   6.087   7.483  10.490 -0.1856  0.5827  0.0638
 9977SOL    HW133208   6.107   7.570  10.456  0.7510  0.8032  1.1204
 9977SOL    HW233209   6.151   7.425  10.448 -2.0273  0.0309 -2.1373
 9978SOL     OW33210   4.517   6.125  11.099  0.0935 -0.2494 -0.1803
 9978SOL    HW133211   4.510   6.175  11.180  0.6461 -0.3298 -0.0748
 9978SOL    HW233212   4.606   6.090  11.100  0.5894  0.8840 -1.4865
 9979SOL     OW33213   4.283   3.061   3.907 -0.1688 -0.1605  0.1051
 9979SOL    HW133214   4.217   3.029   3.845  0.5924  0.8336 -1.2589
 9979SOL    HW233215   4.295   2.988   3.968 -2.4236 -0.4081  0.3237
 9980SOL     OW33216   9.319   3.938   0.499 -0.0943 -0.4131 -0.2786
 9980SOL    HW133217   9.246   3.997   0.513  0.0280 -0.3483  0.1075
 9980SOL    HW233218   9.280   3.860   0.458 -0.2174  0.0202 -0.9890
 9981SOL     OW33219   7.679   7.421   8.436  0.2066  0.5935 -0.0028
 9981SOL    HW133220   7.742   7.375   8.381  1.2330  1.3971  0.4456
 9981SOL    HW233221   7.609   7.447   8.376  0.7634  0.4945 -0.7083
 9982SOL     OW33222   6.086  10.208   7.202 -0.1208 -0.6735  0.7508
 9982SOL    HW133223   6.099  10.274   7.270  0.5596 -0.6263  0.5882
 9982SOL    HW233224   6.175  10.186   7.173 -0.4229  0.3361 -1.1041
 9983SOL     OW33225   2.513   5.346   4.541  0.3189 -0.2320 -0.3386
 9983SOL    HW133226   2.518   5.437   4.569 -1.7422 -0.2784  0.4058
 9983SOL    HW233227   2.466   5.348   4.458 -1.7459 -0.6804  0.7269
 9984SOL     OW33228   5.647   7.048   9.656  0.0780  0.2212  0.0527
 9984SOL    HW133229   5.688   7.119   9.705  0.7271 -0.9134  1.2149
 9984SOL    HW233230   5.653   7.076   9.564  0.5363  1.5438  0.4619
 9985SOL     OW33231  10.506   4.144   5.148 -0.9200  0.6438  0.1755
 9985SOL    HW133232  10.530   4.129   5.056  0.0641  2.4307  0.1048
 9985SOL    HW233233  10.548   4.072   5.196 -3.1271 -1.5329 -0.9128
 9986SOL     OW33234   6.033  10.408   3.643 -0.1227 -0.0481 -0.1230
 9986SOL    HW133235   6.022  10.377   3.553 -1.3486 -0.1414  0.0496
 9986SOL    HW233236   5.998  10.496   3.643 -0.7693 -0.2967  0.4185
 9987SOL     OW33237   0.855   7.672   4.685  0.2958 -0.1385 -0.3045
 9987SOL    HW133238   0.892   7.585   4.672  1.0840  0.3059 -1.0966
 9987SOL    HW233239   0.931   7.730   4.694 -0.1674  0.1982  2.4186
 9988SOL     OW33240   1.504   5.127   8.951  0.2016  0.2386 -0.3568
 9988SOL    HW133241   1.421   5.086   8.975 -0.5070 -0.0954 -2.9829
 9988SOL    HW233242   1.507   5.207   9.003 -0.9436 -0.5448  1.0029
 9989SOL     OW33243   0.873  11.293   8.294 -0.2721  0.3548  0.1488
 9989SOL    HW133244   0.868  11.250   8.380 -0.6192 -2.0963 -1.0218
 9989SOL    HW233245   0.965  11.290   8.270 -0.6554 -3.4083 -1.5522
 9990SOL     OW33246   1.999   5.032   9.848  0.7090  0.0623 -0.5090
 9990SOL    HW133247   1.945   5.004   9.921  0.3171 -0.0614 -0.8425
 9990SOL    HW233248   2.062   5.093   9.886 -1.7533  2.8956 -0.6302
 9991SOL     OW33249   0.076   1.279  11.303 -0.5465 -0.4023  0.1751
 9991SOL    HW133250   0.154   1.244  11.346 -0.2195 -0.4618 -0.4456
 9991SOL    HW233251   0.094   1.372  11.293 -1.3777 -0.0417  1.7460
 9992SOL     OW33252   4.200   8.278   6.162  0.3505 -0.6143 -0.2898
 9992SOL    HW133253   4.206   8.303   6.254  0.0704 -0.2702 -0.3612
 9992SOL    HW233254   4.284   8.304   6.124  1.1170 -2.2512  0.2094
 9993SOL     OW33255   3.682   7.015   4.913 -0.2975 -0.1715 -0.2691
 9993SOL    HW133256   3.739   7.065   4.854 -0.4017 -0.6816 -0.8167
 9993SOL    HW233257   3.727   6.932   4.926 -0.5216 -0.2582 -0.0440
 9994SOL     OW33258   3.073   4.011   5.560 -0.3209  0.1237  0.7796
 9994SOL    HW133259   3.119   4.065   5.496 -0.7961  0.9323  1.1220
 9994SOL    HW233260   3.134   3.938   5.577 -0.5126 -0.5632 -1.1848
 9995SOL     OW33261  11.353   3.825   3.543 -0.1774 -0.1784 -0.0135
 9995SOL    HW133262  11.376   3.777   3.622  0.2189 -1.3255 -0.8034
 9995SOL    HW233263  11.333   3.758   3.478 -2.9374  0.7188 -0.2375
 9996SOL     OW33264   9.986   6.192   9.007 -0.7210  0.5041  0.0984
 9996SOL    HW133265   9.967   6.280   8.975  0.4688  0.4572 -0.8236
 9996SOL    HW233266  10.079   6.195   9.030 -0.6270 -0.5433 -0.0996
 9997SOL     OW33267   2.821   3.822   4.300 -0.0249 -0.3700  0.3476
 9997SOL    HW133268   2.769   3.839   4.378 -0.0595 -0.6299  0.3810
 9997SOL    HW233269   2.823   3.906   4.254 -0.7092 -0.4312  0.1998
 9998SOL     OW33270   5.323   3.754  10.459  0.2903  0.3394  0.6039
 9998SOL    HW133271   5.253   3.812  10.429  0.6329  0.9202  0.8974
 9998SOL    HW233272   5.387   3.755  10.388  0.3008  0.3248  0.6125
 9999SOL     OW33273   8.622   1.212   5.369 -0.0420 -0.2568 -0.3767
 9999SOL    HW133274   8.640   1.264   5.447 -0.1230 -0.3023 -0.3273
 9999SOL    HW233275   8.542   1.164   5.390 -0.2289 -0.0460 -0.5969
10000SOL     OW33276   7.608  10.073   8.586  0.6146  0.3449  0.7953
10000SOL    HW133277   7.601  10.146   8.525  2.0707 -0.8776 -0.9448
10000SOL    HW233278   7.543  10.009   8.555  0.8266  0.0275  0.9952
10001SOL     OW33279   6.239   3.462   6.032 -0.5219 -0.1538  0.2599
10001SOL    HW133280   6.278   3.532   6.084 -0.3967  0.1975 -0.2999
10001SOL    HW233281   6.312   3.401   6.014 -0.2552  0.4051 -0.6236
10002SOL     OW33282   3.663   0.535   3.232 -0.2355 -0.0036  0.2423
10002SOL    HW133283   3.671   0.604   3.298  0.8246  0.9336 -0.8255
10002SOL    HW233284   3.726   0.559   3.164 -2.0807 -0.3285 -1.6590
10003SOL     OW33285   9.405   8.867   7.218  0.0994 -0.1305 -0.2697
10003SOL    HW133286   9.422   8.842   7.309  0.7296 -1.3695 -0.6920
10003SOL    HW233287   9.422   8.961   7.215  1.8315 -0.3767  0.5272
10004SOL     OW33288  11.172   0.415  10.913  0.1470 -0.2018 -0.1690
10004SOL    HW133289  11.262   0.397  10.887  0.2445  0.5226 -0.3641
10004SOL    HW233290  11.156   0.505  10.882 -1.3914 -1.0833 -2.1670
10005SOL     OW33291   9.061   2.902   6.780  0.0540 -0.3157 -0.0541
10005SOL    HW133292   8.994   2.921   6.847  2.4231  0.7385  2.2304
10005SOL    HW233293   9.036   2.957   6.706 -1.5927  0.0645  0.7237
10006SOL     OW33294   3.111  10.142   3.117 -0.1537 -0.0381 -0.3578
10006SOL    HW133295   3.126  10.230   3.084  2.0586  0.9605  2.8725
10006SOL    HW233296   3.198  10.104   3.125 -1.0449 -2.6489 -1.6899
10007SOL     OW33297   7.294  10.100   6.976 -0.4511 -0.5697  0.3639
10007SOL    HW133298   7.203  10.112   7.003 -0.0321 -0.2868  1.7567
10007SOL    HW233299   7.309  10.168   6.911 -1.5491 -1.3445 -0.7240
10008SOL     OW33300  10.172   5.221   3.364  0.0969  0.0999  0.3579
10008SOL    HW133301  10.196   5.285   3.431 -1.7888 -0.1122  1.3294
10008SOL    HW233302  10.094   5.178   3.400  0.2365 -1.4642 -1.0821
10009SOL     OW33303   4.079   7.453   4.119  0.0765 -0.8010  0.0356
10009SOL    HW133304   4.064   7.547   4.114 -0.1669 -0.7697  1.1496
10009SOL    HW233305   3.992   7.415   4.118  0.1890 -1.1368 -1.9422
10010SOL     OW33306   0.162   0.548   8.765  0.1832 -0.0946 -0.1378
10010SOL    HW133307   0.184   0.616   8.701 -1.1211  0.1384 -0.3725
10010SOL    HW233308   0.178   0.466   8.720 -0.8704  0.0687 -0.8427
10011SOL     OW33309   4.673   7.933   3.658  0.1275  0.1689 -0.0345
10011SOL    HW133310   4.613   7.917   3.730  0.4385 -0.1345  0.1612
10011SOL    HW233311   4.617   7.965   3.587 -0.0025  1.8971  0.7950
10012SOL     OW33312   3.831  10.523  10.266 -0.2557 -0.0429 -0.4037
10012SOL    HW133313   3.780  10.443  10.273  1.4416 -1.2278 -0.8630
10012SOL    HW233314   3.894  10.505  10.196  1.9898  0.6192  1.3422
10013SOL     OW33315   0.487  10.250   3.758 -0.0596  0.1275  0.8030
10013SOL    HW133316   0.547  10.282   3.690  0.3593 -2.2520 -0.0670
10013SOL    HW233317   0.434  10.326   3.781 -1.5537  0.7105 -3.5854
10014SOL     OW33318  10.912   1.817   8.821  0.2759  0.4479  0.3514
10014SOL    HW133319  10.826   1.849   8.851  1.0178  2.0639  0.8601
10014SOL    HW233320  10.907   1.824   8.726 -0.5596 -0.6052  0.2948
10015SOL     OW33321   0.762   0.188   3.547  0.4912 -0.1958  0.3204
10015SOL    HW133322   0.763   0.227   3.634  2.2437  1.9591 -0.5463
10015SOL    HW233323   0.670   0.171   3.529  0.1196 -1.2369  2.7613
10016SOL     OW33324   0.259   6.339   7.381  0.4965 -0.3023  0.2734
10016SOL    HW133325   0.194   6.343   7.451  0.3731  1.4117  0.1092
10016SOL    HW233326   0.300   6.253   7.391 -2.2132 -1.7550 -0.0061
10017SOL     OW33327   1.509  10.272   3.437 -0.7642 -0.0716 -0.1437
10017SOL    HW133328   1.469  10.205   3.492  1.2902 -2.8848 -1.7986
10017SOL    HW233329   1.599  10.278   3.467 -0.3900  0.4937 -1.3039
10018SOL     OW33330   9.649   5.155   6.872  0.4050 -0.4373  0.1741
10018SOL    HW133331   9.585   5.088   6.899 -0.1339 -0.6757 -1.5769
10018SOL    HW233332   9.698   5.114   6.801  1.9222  0.0794  0.8915
10019SOL     OW33333   5.398   4.865   4.896 -0.0155  0.4897 -0.6109
10019SOL    HW133334   5.345   4.909   4.962  0.1485  0.0146 -0.1534
10019SOL    HW233335   5.451   4.802   4.946  2.3804  2.2453 -0.7933
10020SOL     OW33336   4.127   9.682  10.050  0.1112 -0.1760 -0.3194
10020SOL    HW133337   4.189   9.706   9.981 -0.1091 -1.9769 -1.2259
10020SOL    HW233338   4.050   9.650  10.002 -2.0227  2.8878  0.7381
10021SOL     OW33339   1.188   6.806   7.884 -0.5505  0.6557 -0.0709
10021SOL    HW133340   1.094   6.806   7.905 -1.0051 -0.2954 -1.8958
10021SOL    HW233341   1.216   6.717   7.901 -1.1933 -0.5158 -4.0664
10022SOL     OW33342   2.216   3.947   4.809  0.0058 -0.3855 -0.0587
10022SOL    HW133343   2.302   3.946   4.852  0.0268 -0.7689 -0.1057
10022SOL    HW233344   2.156   3.917   4.877 -0.1506  0.2805  0.0975
10023SOL     OW33345   0.606   9.950   4.367 -0.0142  0.7001 -1.0714
10023SOL    HW133346   0.562   9.874   4.406  0.4212  1.0688  0.2121
10023SOL    HW233347   0.589   9.943   4.273  1.2653 -1.8242 -1.2045
10024SOL     OW33348   8.779   4.471   7.662  0.1868 -0.0291 -0.0591
10024SOL    HW133349   8.695   4.476   7.707  0.9148  0.3940  1.3053
10024SOL    HW233350   8.784   4.382   7.628 -0.9586  0.0559 -0.4863
10025SOL     OW33351   7.760   5.767   3.408 -0.2368 -0.3477  0.8399
10025SOL    HW133352   7.752   5.855   3.445 -0.2402 -0.0725  0.1980
10025SOL    HW233353   7.853   5.758   3.387 -0.2155 -0.5447  1.0139
10026SOL     OW33354   1.003   8.756   6.665 -0.0815  0.5934 -0.1422
10026SOL    HW133355   0.989   8.748   6.759 -2.2406  1.5507 -0.3264
10026SOL    HW233356   0.965   8.677   6.628 -0.3975  0.8129 -0.2916
10027SOL     OW33357   1.997   1.243  10.778  0.1181  0.1326  0.5387
10027SOL    HW133358   2.079   1.198  10.800  1.4805  1.0333 -2.2124
10027SOL    HW233359   1.975   1.291  10.858  2.7740  0.5218  1.1513
10028SOL     OW33360   0.813   0.680   4.580  0.5736 -0.0074 -0.2712
10028SOL    HW133361   0.793   0.695   4.488  0.6269  2.7302  0.0781
10028SOL    HW233362   0.736   0.712   4.627  0.3932 -1.7034  0.6497
10029SOL     OW33363   1.591   4.062  10.142 -0.2005  0.0559  0.2764
10029SOL    HW133364   1.585   4.000  10.069  0.6875  0.7487 -0.4095
10029SOL    HW233365   1.536   4.136  10.115 -0.9446 -0.2520  0.9181
10030SOL     OW33366   8.421   5.231   4.583  0.5078 -0.3523  0.4609
10030SOL    HW133367   8.398   5.246   4.492 -0.6855  0.7416  0.9174
10030SOL    HW233368   8.485   5.159   4.580  3.1410  1.8495 -1.5162
10031SOL     OW33369   5.701   9.276  11.160 -0.1834  0.3536  0.3083
10031SOL    HW133370   5.721   9.184  11.141  0.0324  0.2831  0.8700
10031SOL    HW233371   5.698   9.281  11.255  0.2413  1.0195  0.2952
10032SOL     OW33372  10.456   6.548   2.820 -1.1592 -0.2877  0.4185
10032SOL    HW133373  10.430   6.595   2.899 -1.5356 -2.4151  1.6588
10032SOL    HW233374  10.546   6.522   2.836 -1.2304 -0.7173  0.1400
10033SOL     OW33375   5.920   0.903   9.645  0.0368 -0.8317 -0.6296
10033SOL    HW133376   5.980   0.850   9.697 -0.2596 -0.5760 -0.0158
10033SOL    HW233377   5.833   0.873   9.672 -0.1356  0.0163 -0.2033
10034SOL     OW33378   9.016   8.857   7.936 -0.4452  0.1976 -0.3134
10034SOL    HW133379   9.050   8.814   8.014 -1.5210  0.7694  0.5066
10034SOL    HW233380   8.964   8.930   7.970 -0.2932  0.9303 -1.6000
10035SOL     OW33381   1.384   6.406   4.787  0.1148  0.3139  0.4238
10035SOL    HW133382   1.418   6.392   4.875  0.0748  0.7939  0.5194
10035SOL    HW233383   1.289   6.411   4.799  0.1709  1.3476  0.4928
10036SOL     OW33384  10.380   8.920   3.645  0.4349  0.5090  0.3539
10036SOL    HW133385  10.438   8.854   3.684 -0.8520  0.1255  1.7330
10036SOL    HW233386  10.375   8.896   3.553  0.1361 -1.2585  0.7865
10037SOL     OW33387   8.065   4.320   4.223 -0.1805 -0.6587 -0.1238
10037SOL    HW133388   8.142   4.371   4.244 -0.1096 -1.0292  0.5465
10037SOL    HW233389   8.091   4.265   4.149  0.8353 -2.1990  1.3234
10038SOL     OW33390   0.138   0.117   2.518  0.0676  0.6543  0.4753
10038SOL    HW133391   0.078   0.174   2.469  1.6664  1.8687 -0.1708
10038SOL    HW233392   0.161   0.047   2.457  0.9994  1.4177 -0.0770
10039SOL     OW33393  10.290   3.103   3.241 -0.1294 -0.3427  0.0821
10039SOL    HW133394  10.363   3.159   3.215  0.6932 -0.5015  1.8805
10039SOL    HW233395  10.218   3.163   3.256  0.2152  0.0414  0.2093
10040SOL     OW33396   0.470   3.924   3.385 -0.0120  0.3155  0.0602
10040SOL    HW133397   0.541   3.864   3.364  0.8800  0.1639  3.0899
10040SOL    HW233398   0.508   3.986   3.446 -2.6016 -0.1981  2.3751
10041SOL     OW33399   2.910   6.534   3.974  0.1159 -0.1817 -0.2497
10041SOL    HW133400   2.847   6.582   4.027 -0.2507 -1.8189  0.8526
10041SOL    HW233401   2.978   6.506   4.035  0.7399 -0.3872 -1.0115
10042SOL     OW33402   1.233   5.360   3.965 -0.4881  0.4161 -0.6382
10042SOL    HW133403   1.283   5.439   3.946 -1.8746  1.3667 -0.4390
10042SOL    HW233404   1.196   5.375   4.052 -2.2205  0.3431 -1.3264
10043SOL     OW33405   7.239  10.256   5.207  0.4020  0.1339 -0.1419
10043SOL    HW133406   7.255  10.169   5.172  0.0696 -0.1478  0.3901
10043SOL    HW233407   7.315  10.275   5.261  0.6020  0.2915 -0.4741
10044SOL     OW33408  10.376   9.233   2.372 -0.3074 -0.3781  0.0041
10044SOL    HW133409  10.287   9.268   2.381  0.8005  3.5543 -2.0514
10044SOL    HW233410  10.372   9.177   2.295 -1.0461 -0.5401  0.1487
10045SOL     OW33411  10.854   5.922   5.542  0.0503  0.1342 -0.5811
10045SOL    HW133412  10.811   6.002   5.513 -0.0909 -0.5349 -2.3046
10045SOL    HW233413  10.815   5.903   5.627 -1.2469  0.8971 -0.9823
10046SOL     OW33414   1.439   6.617   0.199  0.5534  0.7273 -0.4056
10046SOL    HW133415   1.496   6.678   0.152 -0.8461  2.6904  0.3418
10046SOL    HW233416   1.383   6.672   0.253 -1.6665 -1.1423 -0.6377
10047SOL     OW33417   0.323   1.932  10.260 -0.0777  0.2615  0.2007
10047SOL    HW133418   0.398   1.990  10.272  0.2723 -0.0363 -0.4814
10047SOL    HW233419   0.256   1.967  10.318  0.2872  1.0620  0.1526
10048SOL     OW33420  10.558   1.298   8.681  0.4099 -0.1316 -0.2860
10048SOL    HW133421  10.630   1.235   8.684  1.2586  0.7982 -0.7140
10048SOL    HW233422  10.596   1.377   8.643 -0.6017  0.6986  0.3549
10049SOL     OW33423   9.667   3.797   2.081  0.1701 -0.5322  0.1724
10049SOL    HW133424   9.654   3.808   2.175  0.1387 -1.7756  0.3254
10049SOL    HW233425   9.680   3.886   2.048  0.5453 -0.1151  1.4036
10050SOL     OW33426   8.727   5.892   1.590 -0.0241  0.2342  0.3821
10050SOL    HW133427   8.764   5.816   1.635 -0.0935 -1.0716 -1.6217
10050SOL    HW233428   8.799   5.954   1.584  0.5244 -0.3789  0.5336
10051SOL     OW33429   7.060   9.510   8.568 -0.1103  0.3780  0.2626
10051SOL    HW133430   7.149   9.508   8.531 -0.9683  2.5419 -2.2482
10051SOL    HW233431   7.047   9.422   8.604  1.2633 -1.7808 -3.8786
10052SOL     OW33432   4.214   4.506  11.275 -0.5327 -0.2078  0.6854
10052SOL    HW133433   4.254   4.432  11.231  0.7580  0.5278  0.5677
10052SOL    HW233434   4.128   4.475  11.302 -0.5930 -1.2762 -0.6521
10053SOL     OW33435  11.026  11.312   6.641 -0.3466 -0.6078 -0.0969
10053SOL    HW133436  11.022  11.401   6.676  0.8906 -0.7767  0.5218
10053SOL    HW233437  11.103  11.274   6.682 -0.6199 -1.8317 -0.6888
10054SOL     OW33438   4.661   7.220   0.395 -0.0733 -0.7028 -0.0528
10054SOL    HW133439   4.645   7.213   0.301  1.7024 -1.5479 -0.3290
10054SOL    HW233440   4.619   7.302   0.420 -2.9108 -1.7276 -1.0164
10055SOL     OW33441  10.187   5.325   2.578 -0.7797 -0.7056  0.1097
10055SOL    HW133442  10.274   5.347   2.612 -0.9844  1.7003 -0.7060
10055SOL    HW233443  10.135   5.307   2.656  0.5821 -3.0241  0.5875
10056SOL     OW33444   4.263  11.161   5.036  0.3145  0.1641 -0.1075
10056SOL    HW133445   4.180  11.155   5.084 -0.1624 -0.6756 -0.9960
10056SOL    HW233446   4.307  11.077   5.053  1.3901  0.9368  1.0487
10057SOL     OW33447   7.643   9.094   3.942  0.1268 -0.7664  0.1190
10057SOL    HW133448   7.552   9.121   3.932 -0.0897 -1.8312 -0.9877
10057SOL    HW233449   7.669   9.063   3.855  2.2252  1.4917 -0.2144
10058SOL     OW33450   0.549  10.248   3.336 -0.3018  0.1370  0.3139
10058SOL    HW133451   0.616  10.280   3.276 -0.3404  0.0573  0.2276
10058SOL    HW233452   0.471  10.237   3.281 -0.6454  1.0999  0.5853
10059SOL     OW33453   4.272   0.472   0.327  0.0536 -0.3695  0.5161
10059SOL    HW133454   4.348   0.530   0.325  0.1461 -0.4727  0.8885
10059SOL    HW233455   4.282   0.417   0.249 -0.3588  0.5099 -0.1604
10060SOL     OW33456   9.879   3.943   3.398  0.6482  0.4672 -0.7020
10060SOL    HW133457   9.821   3.969   3.470 -0.1950 -1.7438 -0.4974
10060SOL    HW233458   9.820   3.908   3.331  1.5936  0.3394 -1.4927
10061SOL     OW33459   7.528   5.532  10.671  0.1401  0.0499 -0.2118
10061SOL    HW133460   7.443   5.574  10.680  0.6884  1.4359 -1.1196
10061SOL    HW233461   7.566   5.571  10.592  0.6036 -2.3613 -1.2757
10062SOL     OW33462   1.582  10.308   5.568 -0.2407  0.2703  0.0722
10062SOL    HW133463   1.655  10.277   5.514  0.5338  2.5066 -0.2667
10062SOL    HW233464   1.506  10.302   5.510  0.4244  1.7885 -1.0138
10063SOL     OW33465   6.071   6.938   8.901  0.0998 -0.0115  0.0062
10063SOL    HW133466   6.014   6.972   8.832 -0.0458 -0.0219  0.1187
10063SOL    HW233467   6.159   6.947   8.866  0.0219 -0.1118 -0.2244
10064SOL     OW33468   1.332   9.962   3.734  0.3948  0.0549 -0.6701
10064SOL    HW133469   1.327   9.934   3.826 -1.8437  3.0439  0.2637
10064SOL    HW233470   1.401  10.028   3.733  0.7022 -0.2710 -1.2447
10065SOL     OW33471   4.760   5.967  10.190  0.2519  0.1382  0.3691
10065SOL    HW133472   4.674   5.998  10.217 -0.1769  0.6980 -1.4796
10065SOL    HW233473   4.743   5.914  10.112  1.4838 -0.6116  0.5874
10066SOL     OW33474   2.051   4.227   5.035 -0.0709 -0.2221  0.0935
10066SOL    HW133475   2.072   4.185   5.118  1.7622  0.0040 -0.2122
10066SOL    HW233476   2.002   4.161   4.987 -1.3648 -0.2716  1.4162
10067SOL     OW33477  11.163   4.011   9.573  0.4274  0.7165 -0.0167
10067SOL    HW133478  11.189   3.919   9.572 -1.3964  0.1484  1.0210
10067SOL    HW233479  11.194   4.043   9.658 -1.0950  0.3545  0.7070
10068SOL     OW33480   1.338   9.261   6.753 -0.1816 -0.0836 -0.9099
10068SOL    HW133481   1.428   9.293   6.756 -0.7834  1.6517 -0.1645
10068SOL    HW233482   1.346   9.172   6.717  2.0232 -0.8082  1.0559
10069SOL     OW33483   8.944  11.143   1.265  0.2898  0.0874  0.0499
10069SOL    HW133484   8.854  11.169   1.247  0.5588 -0.2253 -1.9774
10069SOL    HW233485   8.942  11.047   1.261  0.6398  0.0571  0.4692
10070SOL     OW33486   0.202   1.750   0.504 -0.2634  0.1509  0.3862
10070SOL    HW133487   0.182   1.659   0.486  1.2295  0.0971 -1.3123
10070SOL    HW233488   0.242   1.750   0.591  0.4158 -0.9485  0.0921
10071SOL     OW33489   5.589   1.054   3.691  0.1214  0.5220 -0.0796
10071SOL    HW133490   5.569   0.966   3.722 -1.2019  0.8763  0.1515
10071SOL    HW233491   5.597   1.045   3.596 -0.1870  0.1869 -0.0745
10072SOL     OW33492  11.378   7.679   4.984 -0.8457 -0.1342  0.7100
10072SOL    HW133493  11.402   7.770   5.001  2.0442  0.0017 -2.9642
10072SOL    HW233494  11.436   7.628   5.040 -2.3575  0.1462  2.6533
10073SOL     OW33495   3.853   0.797  11.258  0.2262  0.2247 -0.0526
10073SOL    HW133496   3.891   0.882  11.234 -0.9137  1.0854  1.0686
10073SOL    HW233497   3.893   0.735  11.197  1.6785  1.4360 -0.3818
10074SOL     OW33498   4.368   5.026   3.532 -0.2423  0.1397 -0.2488
10074SOL    HW133499   4.407   4.961   3.473  1.5810  1.1111 -0.1459
10074SOL    HW233500   4.281   5.041   3.495 -0.8707 -2.5725 -0.0908
10075SOL     OW33501   8.324   9.277   4.443  0.4596  0.4001 -0.4476
10075SOL    HW133502   8.262   9.208   4.468  0.8164  0.0302 -0.5744
10075SOL    HW233503   8.326   9.275   4.348  0.1040  0.9227 -0.4756
10076SOL     OW33504   9.281   6.177   6.947 -0.4201  0.0992  0.3951
10076SOL    HW133505   9.213   6.142   7.005 -0.1090  0.5776  1.0601
10076SOL    HW233506   9.359   6.126   6.969 -1.0641 -2.1914 -2.0872
10077SOL     OW33507   1.422   2.070   9.732 -0.5378 -0.5797 -0.0324
10077SOL    HW133508   1.493   2.130   9.707 -2.7162  1.0546 -3.0088
10077SOL    HW233509   1.392   2.103   9.817  1.4989 -0.6408  0.7649
10078SOL     OW33510   2.268   6.847   4.645 -0.7364  0.0779  0.3227
10078SOL    HW133511   2.263   6.941   4.657 -0.6083 -0.0869  1.8620
10078SOL    HW233512   2.347   6.834   4.593 -0.0785  0.7595  1.1222
10079SOL     OW33513   2.660   3.895  10.946 -0.6805  0.1239 -0.2662
10079SOL    HW133514   2.724   3.960  10.917 -1.0745  0.2195 -0.9523
10079SOL    HW233515   2.659   3.829  10.876 -1.3969  0.1785 -0.3152
10080SOL     OW33516   1.037   5.165   6.950 -0.0005  0.3401  0.1513
10080SOL    HW133517   1.123   5.124   6.943  1.2084  2.3575  1.7886
10080SOL    HW233518   0.988   5.109   7.011  1.3624  0.8707  1.8062
10081SOL     OW33519   9.954   0.293  10.314  0.1501 -1.0071 -0.0914
10081SOL    HW133520  10.005   0.255  10.243  1.3149 -0.4935  0.4248
10081SOL    HW233521   9.869   0.313  10.276  0.7421 -0.7761 -1.3367
10082SOL     OW33522  10.151  10.148   2.891  0.4724  0.3488  0.9095
10082SOL    HW133523  10.125  10.067   2.936  1.5506  0.4023  1.6516
10082SOL    HW233524  10.085  10.212   2.918 -0.6197 -0.3429  0.0143
10083SOL     OW33525   1.671   0.125   8.021  0.8557 -0.3625 -0.3764
10083SOL    HW133526   1.728   0.057   8.056  1.8026  0.8355  0.5203
10083SOL    HW233527   1.711   0.150   7.937  2.2971  1.1543  0.6983
10084SOL     OW33528   2.954   7.578   8.948  0.4003 -0.3629 -0.5470
10084SOL    HW133529   2.861   7.598   8.934  0.3811  0.0294  0.0871
10084SOL    HW233530   2.990   7.660   8.982  1.1205 -0.3178 -1.3917
10085SOL     OW33531   2.472   8.345   4.684 -0.4663 -0.4841 -0.0576
10085SOL    HW133532   2.436   8.256   4.680  0.7954 -1.0094 -0.0779
10085SOL    HW233533   2.551   8.337   4.736  0.3574  0.3892 -1.1242
10086SOL     OW33534   3.987   1.121   1.512  0.4038  0.0297 -0.0282
10086SOL    HW133535   3.966   1.055   1.446  0.5535  0.2692 -0.3178
10086SOL    HW233536   4.030   1.071   1.582  0.8279 -0.1363 -0.3958
10087SOL     OW33537   2.567   8.568   2.926  0.7450 -0.4785 -0.0643
10087SOL    HW133538   2.542   8.641   2.982 -1.8784  0.0039 -1.6705
10087SOL    HW233539   2.529   8.491   2.967 -1.3893 -0.0927 -1.1713
10088SOL     OW33540   6.419   2.176   5.842  0.3380 -0.0916 -0.2270
10088SOL    HW133541   6.484   2.191   5.911  0.9389  2.0657 -1.1944
10088SOL    HW233542   6.451   2.225   5.767 -2.5245  1.3573 -0.6641
10089SOL     OW33543   7.983   2.627   8.133 -0.3631  0.1515 -0.2855
10089SOL    HW133544   7.936   2.631   8.216  2.0507 -1.0082  1.2678
10089SOL    HW233545   8.003   2.534   8.120  2.1586  0.6074 -0.3388
10090SOL     OW33546   6.041   5.668   9.339  0.2481 -0.2965 -0.0611
10090SOL    HW133547   5.964   5.642   9.390 -0.1726  1.3213  0.1801
10090SOL    HW233548   6.054   5.596   9.278 -0.6150 -1.2373  0.8142
10091SOL     OW33549   7.650   2.904   8.444  0.2023 -0.2102  0.9452
10091SOL    HW133550   7.684   2.914   8.532  1.5561 -0.1486  0.4438
10091SOL    HW233551   7.622   2.812   8.439  0.2848 -0.2599  1.3808
10092SOL     OW33552   4.161   5.460   2.235 -0.6464 -0.1215 -0.4264
10092SOL    HW133553   4.117   5.528   2.185  1.0173  1.0050 -0.4569
10092SOL    HW233554   4.091   5.408   2.273 -1.9926  1.7261 -0.2521
10093SOL     OW33555   1.342  10.304  10.250 -0.0427  0.7265  0.5188
10093SOL    HW133556   1.331  10.221  10.296  0.1671  0.7988  0.6971
10093SOL    HW233557   1.254  10.325  10.218  0.0685 -0.0604 -0.3797
10094SOL     OW33558   1.730   5.355   3.318  0.1332 -0.6416 -0.1106
10094SOL    HW133559   1.755   5.263   3.315  3.4746  0.1119  0.3013
10094SOL    HW233560   1.784   5.397   3.251  0.8697  1.3984  1.6368
10095SOL     OW33561   5.414   8.856   4.568 -0.4367  0.2665 -0.1783
10095SOL    HW133562   5.447   8.778   4.614 -0.1184  0.9864  0.8646
10095SOL    HW233563   5.476   8.869   4.496  0.6539  0.6504  0.7906
10096SOL     OW33564   0.028   2.637   9.765 -0.1735 -0.3496  0.1137
10096SOL    HW133565   0.016   2.560   9.710  1.5936 -0.7191  0.1861
10096SOL    HW233566  -0.027   2.621   9.842 -0.0501 -1.4066 -0.0055
10097SOL     OW33567   8.075  10.733   5.323 -0.2002 -0.2336 -0.0416
10097SOL    HW133568   8.152  10.700   5.277  0.2431 -2.0051  1.8659
10097SOL    HW233569   8.095  10.825   5.340  0.7022 -0.2072 -1.1203
10098SOL     OW33570   0.030   8.828  10.701  0.1927  0.1528 -0.2383
10098SOL    HW133571   0.049   8.758  10.763 -0.5311  1.4125  1.4876
10098SOL    HW233572   0.115   8.866  10.681  0.3562  0.3615  0.7888
10099SOL     OW33573   1.210   6.668   9.105  0.5546  0.2575 -1.0906
10099SOL    HW133574   1.263   6.625   9.172  1.0740  0.8532 -1.1066
10099SOL    HW233575   1.215   6.761   9.127 -1.2550  0.2644 -0.5441
10100SOL     OW33576   6.555   4.143  10.149 -0.0338 -0.3333  0.2218
10100SOL    HW133577   6.607   4.109  10.221 -0.2331 -1.2212 -0.0475
10100SOL    HW233578   6.597   4.109  10.070  0.4891  1.0413 -0.1318
10101SOL     OW33579   8.121   5.017   1.711  0.1270  0.2957  0.5141
10101SOL    HW133580   8.105   5.055   1.625  1.6257  0.8501  0.4487
10101SOL    HW233581   8.083   5.079   1.773  1.0785  1.0686  0.3354
10102SOL     OW33582   2.237   4.833   5.135  0.1056  0.0592  0.0247
10102SOL    HW133583   2.203   4.854   5.048  2.3317 -0.1637 -0.9786
10102SOL    HW233584   2.169   4.778   5.175 -0.3875 -1.0153 -2.1299
10103SOL     OW33585   7.812   9.949  10.385 -0.2273  0.5974  0.1833
10103SOL    HW133586   7.843   9.995  10.306 -1.6774  0.7308 -0.3404
10103SOL    HW233587   7.791  10.020  10.446  1.5009  0.4757  0.9507
10104SOL     OW33588   4.276   6.024   4.685  0.0944  0.4138  0.0435
10104SOL    HW133589   4.203   6.081   4.662 -2.6882 -2.6719  0.4068
10104SOL    HW233590   4.263   6.006   4.778 -0.0927 -1.8729 -0.3576
10105SOL     OW33591   0.892   3.889   8.120  0.0604  0.4714  0.3015
10105SOL    HW133592   0.824   3.856   8.180 -1.1476 -0.9687 -1.7177
10105SOL    HW233593   0.851   3.885   8.034  2.1593  1.2418 -0.7865
10106SOL     OW33594   9.905   1.225  10.324 -0.3542  0.2153  0.0747
10106SOL    HW133595   9.909   1.311  10.281  0.2109  0.5638  0.8124
10106SOL    HW233596   9.963   1.233  10.399 -0.7385 -0.6379  0.4742
10107SOL     OW33597   3.770   1.880   2.402 -0.1662  0.4387  0.3684
10107SOL    HW133598   3.726   1.824   2.466  1.1240  0.5020  1.3731
10107SOL    HW233599   3.819   1.820   2.347 -1.1806  0.3942 -0.5201
10108SOL     OW33600  10.369   8.693   1.030 -0.1580  0.1123 -0.3207
10108SOL    HW133601  10.361   8.720   1.122  1.9924  0.0634 -0.0669
10108SOL    HW233602  10.293   8.637   1.015 -0.0581 -0.6698  1.7476
10109SOL     OW33603   8.188   2.600   7.500  0.5899  0.3245  0.5621
10109SOL    HW133604   8.114   2.600   7.561 -0.0703 -1.7180 -0.1487
10109SOL    HW233605   8.160   2.658   7.429 -0.1822 -0.1122  0.4938
10110SOL     OW33606   0.127   3.637   0.900  0.0509 -0.7141  0.1004
10110SOL    HW133607   0.216   3.613   0.875  0.3835  0.1783  0.3738
10110SOL    HW233608   0.078   3.555   0.896  0.9657 -1.2955  0.3108
10111SOL     OW33609   7.053   4.762   1.997  0.4514 -0.0877 -0.3572
10111SOL    HW133610   6.992   4.712   2.049 -0.2197  0.6208 -0.4434
10111SOL    HW233611   7.105   4.696   1.950  0.4438 -0.7050  0.4824
10112SOL     OW33612  10.062  10.872   7.671 -0.5131  0.0328  0.2107
10112SOL    HW133613   9.985  10.921   7.643 -0.0020  0.0287 -1.3497
10112SOL    HW233614  10.131  10.939   7.680 -0.1554 -0.2077 -0.6048
10113SOL     OW33615   9.463   5.957   2.615  0.0332 -0.1804 -0.5198
10113SOL    HW133616   9.382   5.947   2.564 -0.0478  0.4857 -0.5373
10113SOL    HW233617   9.469   6.051   2.631 -0.0250 -0.3952  0.8398
10114SOL     OW33618  10.500   7.509  10.085  0.1651  0.2467  0.4663
10114SOL    HW133619  10.481   7.539   9.995 -1.4911  0.1779  0.7569
10114SOL    HW233620  10.436   7.556  10.139  1.9876  1.2864  1.8022
10115SOL     OW33621   6.394   5.238  10.471 -0.3096 -0.6384  0.2467
10115SOL    HW133622   6.348   5.321  10.467  0.8467 -0.0275 -1.5253
10115SOL    HW233623   6.342   5.184  10.531 -3.3952 -0.0669 -1.7438
10116SOL     OW33624   9.099   8.320   0.115 -0.3988  0.0294 -0.2965
10116SOL    HW133625   9.134   8.284   0.033  1.0637 -0.3309  0.4474
10116SOL    HW233626   9.014   8.278   0.125  0.8284 -2.5932  0.0617
10117SOL     OW33627   3.401   6.286   0.453  0.4437 -0.2437 -0.2908
10117SOL    HW133628   3.456   6.337   0.513  2.0257 -1.5779 -0.5290
10117SOL    HW233629   3.368   6.214   0.507  0.1884 -0.3086 -0.5335
10118SOL     OW33630   7.657  11.125   5.354 -0.2257  0.3787 -0.8469
10118SOL    HW133631   7.722  11.095   5.290  2.3531  0.0477  1.7346
10118SOL    HW233632   7.594  11.053   5.359  1.5600 -1.2391 -0.4301
10119SOL     OW33633   9.098  10.139   6.215  0.1767  0.1174 -0.5622
10119SOL    HW133634   9.105  10.222   6.167 -3.1320  0.3324 -0.9209
10119SOL    HW233635   9.099  10.071   6.148  1.0002  0.0009 -0.4355
10120SOL     OW33636   4.554   3.057   5.566  0.2765  0.6052  0.4624
10120SOL    HW133637   4.638   3.096   5.587  0.2027  0.4086  1.1764
10120SOL    HW233638   4.540   3.075   5.473  1.8230 -0.7149 -0.0652
10121SOL     OW33639  10.584   9.240   0.563 -0.4169 -0.0651  0.1259
10121SOL    HW133640  10.661   9.295   0.576 -0.0957 -0.2950 -0.7113
10121SOL    HW233641  10.542   9.276   0.485 -0.8406 -0.3023  0.2391
10122SOL     OW33642   0.634   4.581   7.089 -0.2161 -0.0592 -0.2383
10122SOL    HW133643   0.650   4.592   7.183 -0.6836  0.2316 -0.1889
10122SOL    HW233644   0.541   4.601   7.078  0.0115  0.6935 -0.8808
10123SOL     OW33645   8.687   8.613   6.332 -0.2685 -0.1680  0.5112
10123SOL    HW133646   8.694   8.658   6.248  1.3289 -2.1192 -0.4661
10123SOL    HW233647   8.742   8.666   6.391  0.3812  0.0171 -0.2357
10124SOL     OW33648   7.922   7.142   7.512  0.2937 -0.1869  0.2465
10124SOL    HW133649   7.855   7.104   7.456  0.5232  0.5356 -0.5203
10124SOL    HW233650   7.874   7.200   7.572  0.1709 -0.1486  0.1091
10125SOL     OW33651   1.698   0.291   5.136 -0.2718  0.3619  0.0556
10125SOL    HW133652   1.702   0.359   5.068  0.7405  0.7442  0.4719
10125SOL    HW233653   1.651   0.332   5.209 -0.5472  0.2693 -0.0703
10126SOL     OW33654  11.390  10.479   0.135  0.4132 -0.7833  0.2240
10126SOL    HW133655  11.372  10.520   0.051 -1.2757 -0.1470  0.8479
10126SOL    HW233656  11.426  10.550   0.189  1.1695 -1.1041  0.1518
10127SOL     OW33657   4.555   2.334   9.617 -0.0224 -0.1018 -0.3678
10127SOL    HW133658   4.511   2.252   9.639  1.3189 -0.4819  0.9905
10127SOL    HW233659   4.524   2.396   9.683  1.8407 -0.5166  0.9597
10128SOL     OW33660   8.859   4.758   6.936 -0.6447  0.0914  0.5395
10128SOL    HW133661   8.907   4.838   6.916 -1.8013  0.5804 -0.3999
10128SOL    HW233662   8.770   4.788   6.957 -1.4582 -0.9966 -1.1181
10129SOL     OW33663   3.796   9.036   8.843  0.3364 -0.3391 -0.5815
10129SOL    HW133664   3.821   9.126   8.822 -0.5864  0.1336  0.2672
10129SOL    HW233665   3.878   8.993   8.867  0.5675  0.7275  0.5807
10130SOL     OW33666   8.049   8.787  10.224 -0.2805 -0.6326 -0.3199
10130SOL    HW133667   8.018   8.805  10.136 -1.9717  0.5280  0.4649
10130SOL    HW233668   8.132   8.835  10.230 -0.2175 -0.6121 -1.2253
10131SOL     OW33669   1.012   8.654   6.929  0.9186 -0.1210  0.3052
10131SOL    HW133670   0.965   8.727   6.968  0.4982  0.0725 -0.5360
10131SOL    HW233671   1.102   8.685   6.920  0.7476  0.2876 -0.0241
10132SOL     OW33672   2.308   4.337   8.670  0.0674 -0.2762 -0.2229
10132SOL    HW133673   2.305   4.315   8.577  1.6395 -1.9679  0.0559
10132SOL    HW233674   2.221   4.315   8.704  0.4039 -2.6027 -0.7382
10133SOL     OW33675  11.351   8.136   5.260 -0.1671 -0.0644  0.1934
10133SOL    HW133676  11.334   8.155   5.168  1.1962  0.0466 -0.0500
10133SOL    HW233677  11.290   8.066   5.282 -0.4687 -0.1196 -0.8065
10134SOL     OW33678   7.546  10.996   9.682 -0.4880 -0.1856  0.2262
10134SOL    HW133679   7.549  10.964   9.772  0.5605  2.1542  1.1056
10134SOL    HW233680   7.590  11.081   9.685 -1.4856  0.5209 -2.2744
10135SOL     OW33681   4.385   2.893  11.175 -0.0992 -0.3316 -0.1382
10135SOL    HW133682   4.386   2.909  11.269 -1.7208 -2.5075  0.3223
10135SOL    HW233683   4.416   2.975  11.136  2.0904  0.1203  2.2980
10136SOL     OW33684   8.654   4.866   9.823  0.2091  0.2660 -0.3882
10136SOL    HW133685   8.574   4.848   9.773 -1.3036  1.2618  1.5362
10136SOL    HW233686   8.713   4.794   9.799 -1.7775 -1.3291 -0.8013
10137SOL     OW33687  10.776   0.024   7.663  0.1792  0.1429 -0.0715
10137SOL    HW133688  10.754  -0.064   7.635 -0.2149  0.5277 -1.0299
10137SOL    HW233689  10.868   0.019   7.689 -0.0057 -0.6712  0.4576
10138SOL     OW33690  10.228   1.485   7.040  0.4115  0.4233  0.1282
10138SOL    HW133691  10.161   1.432   6.998  1.9616 -1.6843  0.1294
10138SOL    HW233692  10.191   1.509   7.125 -0.4206 -0.5456  0.0524
10139SOL     OW33693   1.337   5.624   9.672  0.4935  0.4499 -0.3181
10139SOL    HW133694   1.294   5.706   9.696  0.0632  0.2571 -0.4211
10139SOL    HW233695   1.396   5.647   9.601  1.0360  0.8367  0.2408
10140SOL     OW33696   5.238   6.909   8.879 -0.0002  0.0728 -0.1744
10140SOL    HW133697   5.314   6.910   8.821  0.2790 -1.1293  0.1419
10140SOL    HW233698   5.170   6.954   8.830 -0.0236 -1.6358 -1.8067
10141SOL     OW33699   5.571   1.394   0.347 -0.3731  0.0793  0.0934
10141SOL    HW133700   5.558   1.314   0.296 -0.0267 -0.2372  0.4965
10141SOL    HW233701   5.497   1.450   0.323 -2.1989 -1.4109  1.8266
10142SOL     OW33702   0.534   3.786   5.938  0.5540 -0.1589  0.3082
10142SOL    HW133703   0.496   3.823   6.018 -1.2473 -0.9337 -0.1346
10142SOL    HW233704   0.603   3.727   5.969  0.2961  0.0227  1.2500
10143SOL     OW33705   7.225   3.138   6.415  0.2103 -0.0374 -0.1205
10143SOL    HW133706   7.129   3.142   6.418  0.2559  1.5106  0.0730
10143SOL    HW233707   7.244   3.110   6.326 -0.4315  2.0678 -1.0016
10144SOL     OW33708  10.173   5.321   3.124 -0.2357  0.2498 -0.4309
10144SOL    HW133709  10.179   5.286   3.213 -0.4601  0.4409 -0.3382
10144SOL    HW233710  10.095   5.279   3.087  0.1054 -0.1602 -0.6881
10145SOL     OW33711   3.518   6.585   7.324  0.0762  0.0264 -0.0061
10145SOL    HW133712   3.466   6.618   7.397  0.9299  0.6782  0.3212
10145SOL    HW233713   3.461   6.594   7.247 -1.6721 -2.6692  0.8294
10146SOL     OW33714   4.036   5.776   9.656 -0.1716  0.6613 -0.0956
10146SOL    HW133715   4.044   5.786   9.751 -0.8445  1.7242 -0.1301
10146SOL    HW233716   4.051   5.683   9.640 -1.3109  0.2186  1.2060
10147SOL     OW33717   9.364   3.781  10.592  0.6145 -0.3874  0.0994
10147SOL    HW133718   9.433   3.720  10.564  0.7971 -0.3359  0.4315
10147SOL    HW233719   9.359   3.845  10.522 -1.7282 -2.4553 -1.8318
10148SOL     OW33720   6.512   2.460  11.148  0.0357  0.6155 -0.1580
10148SOL    HW133721   6.417   2.463  11.160 -0.0470  2.4368 -0.9279
10148SOL    HW233722   6.531   2.369  11.125 -1.3991  0.0276  0.8138
10149SOL     OW33723   6.953  11.292   9.636 -0.2931  0.7232 -0.4252
10149SOL    HW133724   7.043  11.274   9.662 -0.1975  2.0583  0.2313
10149SOL    HW233725   6.899  11.254   9.705 -0.2185  0.4452 -0.5179
10150SOL     OW33726   9.738   8.045   2.376  0.0922 -0.2093 -0.2693
10150SOL    HW133727   9.685   8.024   2.299  1.1243 -0.4438 -0.9380
10150SOL    HW233728   9.801   7.974   2.381  0.5664  0.2480  0.3079
10151SOL     OW33729   3.105   2.189   1.044  0.0463  0.2702 -0.1420
10151SOL    HW133730   3.182   2.170   0.991 -0.7565 -0.4925 -1.0773
10151SOL    HW233731   3.067   2.267   1.004 -0.9031 -0.6612 -1.1174
10152SOL     OW33732   3.833   3.904  10.171  0.1298  0.1914  0.1440
10152SOL    HW133733   3.808   3.828  10.119  0.8456 -0.1748  0.3259
10152SOL    HW233734   3.921   3.885  10.202 -0.1287  0.5674  1.1694
10153SOL     OW33735   1.341   2.107   6.893  0.4198  0.1793 -0.6337
10153SOL    HW133736   1.394   2.173   6.848  0.5617  1.0663  0.7620
10153SOL    HW233737   1.390   2.089   6.973  0.2463 -1.4493 -0.8677
10154SOL     OW33738   8.625   5.263   3.057  0.4494  0.0141  0.4858
10154SOL    HW133739   8.708   5.226   3.026  1.0280  1.8556 -0.3035
10154SOL    HW233740   8.631   5.258   3.152  1.0528 -0.7380  0.4195
10155SOL     OW33741   1.220   4.994   0.293 -0.3779  0.5938  0.0024
10155SOL    HW133742   1.191   5.009   0.383  0.8053  1.3069  0.2704
10155SOL    HW233743   1.307   4.957   0.301 -1.1918 -1.7018 -0.8008
10156SOL     OW33744   1.469   7.698   6.098  0.4592 -0.2517  0.2573
10156SOL    HW133745   1.403   7.645   6.144  0.2583 -0.7549 -0.5819
10156SOL    HW233746   1.528   7.728   6.167  0.4829 -1.4431  0.7872
10157SOL     OW33747   8.431   9.390   1.366  0.0914  0.1566 -0.2922
10157SOL    HW133748   8.500   9.324   1.360  0.1511 -0.4807  4.1673
10157SOL    HW233749   8.477   9.473   1.361  0.8579 -0.2322  0.2128
10158SOL     OW33750   0.146  11.053   7.152  0.1161 -0.4171  0.2125
10158SOL    HW133751   0.154  10.966   7.192  0.7216  0.3681  1.9130
10158SOL    HW233752   0.052  11.069   7.149  0.0345 -0.4990  1.4355
10159SOL     OW33753   0.096   7.599   1.139 -0.0455 -0.1399 -0.0335
10159SOL    HW133754   0.092   7.664   1.209 -1.2614 -0.2187 -0.0007
10159SOL    HW233755   0.140   7.523   1.178  1.5270  0.6979 -0.1228
10160SOL     OW33756   4.080   0.650   2.070 -0.1315  0.0764  0.1025
10160SOL    HW133757   4.124   0.633   2.153  0.1387  0.7473  0.1013
10160SOL    HW233758   4.145   0.629   2.004  0.5553  1.9878  0.1161
10161SOL     OW33759   8.208   9.874  10.467 -0.2291 -0.3457  0.1217
10161SOL    HW133760   8.302   9.879  10.481 -0.3923 -0.7966  1.6438
10161SOL    HW233761   8.198   9.827  10.384  0.8761  2.0770 -1.4922
10162SOL     OW33762   6.366   1.519   7.986  0.0774 -0.4726  0.1708
10162SOL    HW133763   6.339   1.478   7.904  1.0331 -1.5603  0.3881
10162SOL    HW233764   6.287   1.516   8.041 -0.5494  0.1974 -0.6476
10163SOL     OW33765   4.015   5.308   4.388 -0.2235  0.3592  0.9830
10163SOL    HW133766   4.031   5.226   4.342 -1.2159 -1.6866  3.9671
10163SOL    HW233767   3.947   5.352   4.338 -1.2424 -1.7148  0.4610
10164SOL     OW33768   7.645   3.354   0.380 -0.8129  0.1527  0.3548
10164SOL    HW133769   7.673   3.426   0.323 -2.5789  0.2357 -0.4676
10164SOL    HW233770   7.604   3.291   0.321  0.2667 -1.3404  1.1249
10165SOL     OW33771   6.343   2.175   3.053  0.4642  0.6620  0.0418
10165SOL    HW133772   6.270   2.133   3.098 -0.3228  2.4428  0.5441
10165SOL    HW233773   6.419   2.155   3.107  0.0786  0.1257  0.3990
10166SOL     OW33774   9.465   1.645   7.418 -0.2446  0.0636  0.0695
10166SOL    HW133775   9.400   1.670   7.353 -0.0585  2.4036  0.6872
10166SOL    HW233776   9.482   1.726   7.468  2.8761 -0.5005  0.1339
10167SOL     OW33777   0.753   5.805   1.443 -0.3173  0.5543  0.2744
10167SOL    HW133778   0.678   5.778   1.390  1.1775 -1.3451 -1.0165
10167SOL    HW233779   0.734   5.774   1.531 -0.7398 -0.5392 -0.1947
10168SOL     OW33780  10.656   9.105   3.704 -0.3365  0.1322 -0.7838
10168SOL    HW133781  10.565   9.095   3.675 -0.8202  0.8364  0.4368
10168SOL    HW233782  10.673   9.199   3.694  0.1142  0.0725 -0.5709
10169SOL     OW33783   2.989   0.931  11.370  0.0875 -0.1652  0.0162
10169SOL    HW133784   3.001   1.021  11.398 -0.6094 -0.3405  0.9034
10169SOL    HW233785   3.038   0.879  11.434 -0.4714 -0.4894  0.1870
10170SOL     OW33786   5.495   9.353   6.458  0.0756  0.5153  0.2191
10170SOL    HW133787   5.554   9.301   6.403  0.2744  0.2314  0.6903
10170SOL    HW233788   5.421   9.294   6.476 -0.2537  0.7953 -0.1925
10171SOL     OW33789  11.006   7.638   5.474 -0.2336 -0.1859 -0.1676
10171SOL    HW133790  10.934   7.699   5.489 -1.0023 -1.8079  4.1242
10171SOL    HW233791  10.971   7.553   5.501  2.5283 -1.5100 -0.4506
10172SOL     OW33792   6.282   9.580   9.995 -0.3340  0.4427 -0.5794
10172SOL    HW133793   6.236   9.664   9.992 -0.6288  0.3672  0.8162
10172SOL    HW233794   6.369   9.601  10.030 -0.3005  0.2175 -0.5265
10173SOL     OW33795   7.618   7.472   5.760 -0.1337 -0.4322  0.1376
10173SOL    HW133796   7.599   7.510   5.846  1.1042  1.1698 -0.2501
10173SOL    HW233797   7.675   7.535   5.718  1.6668 -2.5180 -0.7723
10174SOL     OW33798  11.122   8.291   7.364  0.0129 -0.1968  0.2302
10174SOL    HW133799  11.115   8.358   7.296 -0.1509  0.4664  0.8798
10174SOL    HW233800  11.142   8.210   7.317  0.5828  0.3776 -0.5399
10175SOL     OW33801   1.843  11.196  11.263 -0.6720  0.0524  0.6052
10175SOL    HW133802   1.805  11.258  11.326  3.3144 -0.1225  3.6205
10175SOL    HW233803   1.845  11.113  11.310  1.3358 -0.3915 -0.1548
10176SOL     OW33804   4.743   3.246   7.435  0.3714 -0.6870  0.0174
10176SOL    HW133805   4.706   3.286   7.513 -0.5393 -0.9924 -0.2426
10176SOL    HW233806   4.712   3.301   7.363  0.3266 -1.0122 -0.2150
10177SOL     OW33807   2.096   8.736   6.828  0.0224  0.3320  0.3848
10177SOL    HW133808   2.010   8.776   6.840 -0.4706 -0.2462 -1.0563
10177SOL    HW233809   2.122   8.708   6.916 -0.9034  1.1919  0.9585
10178SOL     OW33810   4.340   2.288   4.152 -0.2387 -0.1075  0.5378
10178SOL    HW133811   4.423   2.284   4.199  0.3677 -0.8671 -0.5301
10178SOL    HW233812   4.306   2.375   4.169  2.1216  1.2803 -1.1497
10179SOL     OW33813   4.278   0.413   2.989  0.5329 -0.1809  0.0626
10179SOL    HW133814   4.198   0.454   3.022 -2.1006 -3.4296 -1.6592
10179SOL    HW233815   4.317   0.372   3.066  0.4236  1.1870  0.8814
10180SOL     OW33816   3.460   5.682   6.153  0.4401  0.1081 -0.7130
10180SOL    HW133817   3.445   5.758   6.209 -0.0157  0.0911 -0.8033
10180SOL    HW233818   3.497   5.616   6.212  0.7717  0.3718 -0.6198
10181SOL     OW33819   9.670   5.175   8.774  0.2245 -0.0838 -0.5323
10181SOL    HW133820   9.596   5.233   8.754  0.1546 -0.9649 -3.1099
10181SOL    HW233821   9.725   5.179   8.696  2.1577 -0.6203  0.7478
10182SOL     OW33822   0.232   4.767   9.523  0.5547 -0.1108  0.5508
10182SOL    HW133823   0.292   4.738   9.591  0.5252 -0.8014  0.2925
10182SOL    HW233824   0.148   4.780   9.568  0.4587 -0.8608  0.5966
10183SOL     OW33825   1.166   2.026   2.296  0.4060 -0.6923  0.1605
10183SOL    HW133826   1.255   2.004   2.267 -0.4334  1.2096 -4.6362
10183SOL    HW233827   1.179   2.091   2.365  2.8975  1.5141 -2.1669
10184SOL     OW33828   1.544   4.504   4.273 -0.7557  0.4098 -0.4389
10184SOL    HW133829   1.607   4.432   4.272 -1.0124  0.1670  0.2646
10184SOL    HW233830   1.520   4.516   4.181  1.2471  1.3590 -0.8936
10185SOL     OW33831   1.564  10.042  10.392  0.1416  0.1795  0.2148
10185SOL    HW133832   1.469  10.039  10.392  0.1553 -0.3948 -0.4644
10185SOL    HW233833   1.591   9.951  10.384  0.7298  0.4669 -1.3398
10186SOL     OW33834   8.038   4.976  10.428  0.1676 -0.1020  0.4894
10186SOL    HW133835   8.035   5.061  10.470  0.5649  0.8221 -1.2395
10186SOL    HW233836   8.114   4.981  10.369  0.9941 -2.1161  1.2694
10187SOL     OW33837  11.389  10.515   1.325  0.3985  0.2547 -0.3963
10187SOL    HW133838  11.422  10.605   1.329  2.3044 -0.4629  1.3138
10187SOL    HW233839  11.318  10.512   1.389 -0.1920  0.7154 -1.0162
10188SOL     OW33840   2.620   3.950   0.602 -0.1552 -0.3185 -0.1518
10188SOL    HW133841   2.627   3.864   0.643  0.0990 -0.2439 -0.0404
10188SOL    HW233842   2.637   3.933   0.509 -0.7076 -0.4818 -0.2291
10189SOL     OW33843   9.949   7.065   6.062 -0.3231 -0.2720  0.1057
10189SOL    HW133844   9.959   7.130   6.132 -0.1318  0.1447 -0.3057
10189SOL    HW233845  10.028   7.011   6.069 -0.3193 -0.2520  0.2326
10190SOL     OW33846   2.867   0.631   4.625  0.2174 -0.5430  0.6316
10190SOL    HW133847   2.888   0.617   4.532  0.0470 -0.5293  0.5913
10190SOL    HW233848   2.928   0.700   4.652 -0.8626  0.6640  0.0917
10191SOL     OW33849   8.083   3.928   9.049  0.2860  0.0525  0.9460
10191SOL    HW133850   8.174   3.934   9.018  0.4347  0.8284  1.4947
10191SOL    HW233851   8.042   3.865   8.990  1.0656  0.0328  0.4008
10192SOL     OW33852   2.934   7.298   1.788 -0.3933  0.0397 -0.0563
10192SOL    HW133853   2.874   7.319   1.859  2.2078  0.6114  2.1555
10192SOL    HW233854   2.929   7.203   1.778 -0.2056 -0.1641  1.5370
10193SOL     OW33855  11.385  10.678   4.707 -0.2143  0.4511  0.0874
10193SOL    HW133856  11.368  10.764   4.667 -2.7634  0.1246  0.2974
10193SOL    HW233857  11.443  10.698   4.781  2.2940  1.4222 -1.9732
10194SOL     OW33858   3.708  10.388   0.747 -0.5893 -0.1981 -0.5690
10194SOL    HW133859   3.739  10.478   0.760 -0.0406 -0.3867 -0.5280
10194SOL    HW233860   3.676  10.386   0.657 -4.0179  1.0045  0.4696
10195SOL     OW33861   5.488   4.055   1.673  0.7478  0.2196 -0.2475
10195SOL    HW133862   5.471   4.073   1.766  0.9997 -0.4139 -0.0712
10195SOL    HW233863   5.462   4.135   1.628  0.1492  0.3547  0.3194
10196SOL     OW33864   1.697   6.061  10.954 -0.6950 -0.0949  0.2374
10196SOL    HW133865   1.785   6.026  10.967 -0.6111  0.1326  0.2748
10196SOL    HW233866   1.640   5.985  10.964 -0.5839 -0.0539  1.2621
10197SOL     OW33867   1.524   0.085  11.008 -0.2804 -0.4711  0.2864
10197SOL    HW133868   1.490   0.114  11.094  1.8198 -0.5621  1.2061
10197SOL    HW233869   1.591   0.149  10.987 -1.5201  0.2138 -1.9153
10198SOL     OW33870   9.120   2.841   3.847 -0.1217 -0.4399 -0.0307
10198SOL    HW133871   9.055   2.832   3.777  1.8886  1.2093 -2.2580
10198SOL    HW233872   9.153   2.752   3.861 -1.4295 -0.9894 -0.2349
10199SOL     OW33873   3.412   1.889   7.526  0.5470  0.2402 -0.5459
10199SOL    HW133874   3.388   1.918   7.438 -0.3629  0.4089 -0.2499
10199SOL    HW233875   3.347   1.824   7.549  1.4904 -0.6943 -0.4577
10200SOL     OW33876   0.597   6.826   3.675 -0.0525  0.0867  0.2776
10200SOL    HW133877   0.651   6.873   3.739  2.0955 -1.8812  0.0506
10200SOL    HW233878   0.541   6.769   3.728  0.8218 -0.6166  0.4633
10201SOL     OW33879   4.374   1.523   9.994 -0.9793 -0.1272 -0.1402
10201SOL    HW133880   4.335   1.506  10.080 -0.8159  0.8743  0.1424
10201SOL    HW233881   4.440   1.591  10.011 -1.0589  0.1911 -1.0846
10202SOL     OW33882   1.216   5.048   2.541  0.1225  0.5084 -0.7734
10202SOL    HW133883   1.232   5.012   2.629 -0.2884  2.2558  0.0693
10202SOL    HW233884   1.289   5.014   2.489 -1.1013 -2.8289 -0.5356
10203SOL     OW33885   2.143  10.059   0.298 -0.3359  0.0526 -0.3749
10203SOL    HW133886   2.166  10.152   0.301  1.5853 -0.3023 -2.2254
10203SOL    HW233887   2.047  10.058   0.302 -0.4131  2.1325 -0.8223
10204SOL     OW33888   4.520   6.312   6.676  0.2494  0.3068 -0.2162
10204SOL    HW133889   4.616   6.314   6.667  0.4052  0.6857  1.2070
10204SOL    HW233890   4.497   6.220   6.673  0.6768  0.2043 -0.4095
10205SOL     OW33891   9.974   0.635   1.355 -0.0762 -0.0588 -0.3401
10205SOL    HW133892   9.897   0.684   1.384 -0.0407  0.1840 -0.6557
10205SOL    HW233893   9.994   0.576   1.428 -0.1120  0.4017  0.0442
10206SOL     OW33894   0.469   0.737  10.450 -0.0260 -0.2580  0.2969
10206SOL    HW133895   0.474   0.646  10.421 -3.2002 -0.0237 -1.5368
10206SOL    HW233896   0.412   0.735  10.527  1.8275  0.0065  1.7428
10207SOL     OW33897   4.895   9.433   9.756  0.0751 -0.0880 -0.0117
10207SOL    HW133898   4.871   9.498   9.689  0.5586  0.6883  0.5546
10207SOL    HW233899   4.869   9.349   9.718 -1.0130  0.4768 -0.5527
10208SOL     OW33900   6.670   8.443  10.129 -0.1864  0.2615 -0.3159
10208SOL    HW133901   6.697   8.460  10.219 -0.5059 -0.6332 -0.0384
10208SOL    HW233902   6.575   8.447  10.130 -0.1655  1.1628 -0.8175
10209SOL     OW33903   3.238   2.984   2.658  0.1299  0.0808 -0.7321
10209SOL    HW133904   3.216   2.954   2.570  1.8690 -0.0641 -1.1523
10209SOL    HW233905   3.333   2.993   2.657  0.2532 -0.6037  1.3669
10210SOL     OW33906  11.303  10.642  10.378  0.2402  0.0346 -0.2389
10210SOL    HW133907  11.310  10.549  10.401 -0.7833  0.6301  2.9399
10210SOL    HW233908  11.215  10.651  10.342 -0.1899 -0.0301  0.7636
10211SOL     OW33909   9.219   7.143   9.376  0.5378  0.2134 -0.7715
10211SOL    HW133910   9.174   7.060   9.391 -0.0590  0.8035  1.0575
10211SOL    HW233911   9.149   7.209   9.378  1.0613  0.8224 -1.6604
10212SOL     OW33912   6.475  10.112   3.584  0.0206  0.4353 -0.5313
10212SOL    HW133913   6.402  10.079   3.531 -0.7043  1.0687  0.0472
10212SOL    HW233914   6.516  10.033   3.619 -1.7816  0.0488  0.9508
10213SOL     OW33915  10.929   7.380   8.424  0.2062 -0.3832 -0.2654
10213SOL    HW133916  10.899   7.326   8.497  1.5958 -0.4295  0.2993
10213SOL    HW233917  11.024   7.381   8.432  0.2618  1.8307 -0.4954
10214SOL     OW33918   3.553   0.760   9.053  0.3153  0.8468  0.0870
10214SOL    HW133919   3.514   0.777   9.139 -0.4756 -1.2472  0.1909
10214SOL    HW233920   3.501   0.688   9.017  0.6108  1.6866 -2.1756
10215SOL     OW33921  10.825   0.593  11.311 -0.1472 -0.1172 -0.2001
10215SOL    HW133922  10.829   0.672  11.365 -1.1702  0.4459 -0.9090
10215SOL    HW233923  10.759   0.538  11.353  1.1300 -0.9824  0.7498
10216SOL     OW33924   5.188   7.240   3.793 -0.4046  0.0953 -0.6878
10216SOL    HW133925   5.259   7.261   3.854  0.0099 -0.1398 -1.0817
10216SOL    HW233926   5.228   7.248   3.706 -0.8468 -0.1041 -0.9138
10217SOL     OW33927   2.085   1.585  10.930  0.1418  0.4441 -0.0482
10217SOL    HW133928   2.053   1.649  10.994 -0.1383 -0.2972  0.5749
10217SOL    HW233929   2.012   1.524  10.919  0.2351  0.4846 -0.9953
10218SOL     OW33930   9.274   3.464   5.927  0.3794  0.1157  0.0573
10218SOL    HW133931   9.306   3.526   5.862  0.2885  0.7914  0.6411
10218SOL    HW233932   9.269   3.515   6.008 -0.5737 -0.4089  0.3427
10219SOL     OW33933   3.759  10.350   0.182 -0.0012  0.0638  0.6516
10219SOL    HW133934   3.791  10.440   0.189 -1.8432  0.9002 -1.0203
10219SOL    HW233935   3.694  10.342   0.252 -0.6912  0.4473  0.0686
10220SOL     OW33936   4.806   4.560   5.041  0.2522  0.3427  0.0865
10220SOL    HW133937   4.863   4.589   5.113  1.3274  1.2975 -1.0974
10220SOL    HW233938   4.837   4.609   4.965 -1.8030  0.4460 -0.7405
10221SOL     OW33939   1.228  11.234   0.648 -0.0037 -0.3815  0.8821
10221SOL    HW133940   1.201  11.314   0.603  0.1007  0.4924  2.3284
10221SOL    HW233941   1.171  11.166   0.611 -1.5084  0.7173  1.0817
10222SOL     OW33942   9.350  10.568   9.550 -0.1174 -0.1537 -0.8370
10222SOL    HW133943   9.269  10.558   9.599  0.3353 -0.6493 -0.1704
10222SOL    HW233944   9.325  10.617   9.472 -0.9827  0.0301 -0.4564
10223SOL     OW33945   0.765   1.430   3.408 -0.4758 -0.0721  0.1057
10223SOL    HW133946   0.840   1.436   3.349 -0.6067 -0.8626 -0.1606
10223SOL    HW233947   0.689   1.429   3.350 -0.6918  0.6567  0.3703
10224SOL     OW33948   0.115   0.972   5.638  0.3706 -0.5755 -0.2134
10224SOL    HW133949   0.178   0.975   5.566 -0.1397 -0.6890 -0.6670
10224SOL    HW233950   0.139   0.893   5.687  0.7589 -0.4618 -0.2141
10225SOL     OW33951   6.348   6.735   2.131  0.1357  0.1922  0.0052
10225SOL    HW133952   6.285   6.664   2.142 -1.3318  1.4572 -0.0398
10225SOL    HW233953   6.404   6.729   2.209  1.3507 -2.2059 -0.9179
10226SOL     OW33954   5.300   4.767  11.257 -0.5714  0.1200 -0.6619
10226SOL    HW133955   5.280   4.856  11.286 -0.6911  0.0006 -0.3771
10226SOL    HW233956   5.267   4.763  11.167  1.7226  1.1933 -1.6530
10227SOL     OW33957   0.911   9.208   3.426 -0.3749  0.4407 -0.1639
10227SOL    HW133958   0.861   9.130   3.451  0.4869  0.5603  2.1694
10227SOL    HW233959   0.931   9.195   3.333  0.0127 -2.2882  0.2164
10228SOL     OW33960   1.418   9.992   6.414  0.0470 -0.1549  0.3179
10228SOL    HW133961   1.408   9.965   6.322  0.2504  0.9144 -0.0307
10228SOL    HW233962   1.333   9.971   6.454 -0.7825  1.2008 -0.6226
10229SOL     OW33963   5.563   2.877   6.119  0.2938 -0.0253  0.8591
10229SOL    HW133964   5.576   2.914   6.031  0.5047 -0.0770  0.8675
10229SOL    HW233965   5.627   2.921   6.174  1.2185 -1.0894  0.6671
10230SOL     OW33966   6.290   1.962   0.015 -0.1404 -0.6441 -0.1643
10230SOL    HW133967   6.337   1.895   0.063  1.5512 -0.2682 -1.1932
10230SOL    HW233968   6.307   1.942  -0.077 -1.0444  0.1954 -0.5396
10231SOL     OW33969   4.757   8.133   8.120  0.2520 -0.3134  0.1898
10231SOL    HW133970   4.676   8.178   8.146  0.9048  0.5125  0.8628
10231SOL    HW233971   4.767   8.154   8.027  0.8551  1.4911  0.6181
10232SOL     OW33972   2.886  10.737  10.239  0.2468  0.5275  0.4745
10232SOL    HW133973   2.895  10.682  10.161  2.2041  1.2646  0.1227
10232SOL    HW233974   2.976  10.765  10.259 -0.2326  0.5631  2.8550
10233SOL     OW33975   2.935   1.416   5.405 -0.6094 -0.1390 -0.1365
10233SOL    HW133976   2.996   1.462   5.347 -0.2733 -1.4211 -0.8313
10233SOL    HW233977   2.991   1.361   5.459 -1.0400 -0.0349  0.4190
10234SOL     OW33978   0.361   6.298   7.749  0.5198  0.0887  0.1627
10234SOL    HW133979   0.393   6.379   7.710  0.2904 -0.1066 -0.4598
10234SOL    HW233980   0.439   6.244   7.763  0.6169  0.1989  0.0445
10235SOL     OW33981   2.961   3.749  10.891  0.2189  0.4192  0.6794
10235SOL    HW133982   2.882   3.778  10.845  1.9360  1.5705 -1.7578
10235SOL    HW233983   2.980   3.819  10.953 -1.1692 -0.3304  2.0059
10236SOL     OW33984   0.518   0.492   6.023  0.2036 -0.1176 -0.1049
10236SOL    HW133985   0.455   0.530   5.961  1.9303  0.6183 -1.5027
10236SOL    HW233986   0.497   0.533   6.107 -3.1988 -2.2822  0.2874
10237SOL     OW33987   3.570   1.250   5.789 -0.3250 -0.1456  0.7961
10237SOL    HW133988   3.611   1.330   5.823  1.7365 -1.0437  0.5456
10237SOL    HW233989   3.479   1.257   5.817 -0.7866  3.2912 -0.9854
10238SOL     OW33990   1.498   2.726   1.711  0.2520  0.2196  0.7568
10238SOL    HW133991   1.586   2.690   1.706  0.3784  0.6356 -0.4028
10238SOL    HW233992   1.458   2.683   1.787  1.4793  0.1082  1.3606
10239SOL     OW33993   6.475   3.522   5.735 -0.1225  0.1460  0.7772
10239SOL    HW133994   6.524   3.537   5.654 -0.3406  0.2792  0.6679
10239SOL    HW233995   6.399   3.471   5.707 -0.1527  0.1165  0.9131
10240SOL     OW33996   0.813  10.630   3.143  0.2753 -0.4194 -0.8842
10240SOL    HW133997   0.809  10.611   3.050 -1.1852 -0.8952 -0.7498
10240SOL    HW233998   0.798  10.546   3.186 -1.6645  0.1905 -0.2587
10241SOL     OW33999  11.123   6.308   5.443  0.1923  0.4231 -0.7457
10241SOL    HW134000  11.184   6.371   5.482 -1.2107  3.0075 -2.3963
10241SOL    HW234001  11.043   6.316   5.495  0.8107 -2.2106  0.7921
10242SOL     OW34002   9.539  11.146   1.820  0.1799  0.0553  0.3638
10242SOL    HW134003   9.539  11.194   1.903  2.0071 -1.3201  1.2334
10242SOL    HW234004   9.472  11.078   1.831  0.6141 -0.3043  0.8601
10243SOL     OW34005   1.508   9.625   8.929 -0.1410 -0.4317  0.9285
10243SOL    HW134006   1.517   9.531   8.916  0.9395 -0.3357  0.9298
10243SOL    HW234007   1.413   9.640   8.934 -0.3001 -1.6442  1.9275
10244SOL     OW34008   3.954   8.194   4.190  0.4624 -0.1455  0.4318
10244SOL    HW134009   3.899   8.237   4.255  0.1165  0.1286 -0.0336
10244SOL    HW234010   4.038   8.183   4.234  0.3095  0.2642  0.8402
10245SOL     OW34011   1.477   9.286   1.651  0.5212 -0.0269  0.3735
10245SOL    HW134012   1.431   9.209   1.617 -0.9867  2.2159 -3.2744
10245SOL    HW234013   1.423   9.314   1.725 -1.4529 -0.1071 -0.9434
10246SOL     OW34014   5.317   7.163   2.397 -0.0349  0.3667 -0.3265
10246SOL    HW134015   5.366   7.155   2.315  0.6060 -0.6346  0.1289
10246SOL    HW234016   5.232   7.199   2.371  0.2014  0.1825 -1.4089
10247SOL     OW34017   3.712   6.101   5.307 -0.1816  0.2838  0.0327
10247SOL    HW134018   3.700   6.100   5.212 -0.3870 -0.5498  0.0530
10247SOL    HW234019   3.805   6.118   5.320  0.4256 -2.2880 -0.4286
10248SOL     OW34020   2.215   9.892   7.205  0.0345  0.0603 -0.2916
10248SOL    HW134021   2.297   9.916   7.162  1.2630 -0.6203  1.5265
10248SOL    HW234022   2.165   9.973   7.209  1.1096  0.7526 -0.4387
10249SOL     OW34023   1.622   0.145   9.738  0.9894  0.4896  0.7499
10249SOL    HW134024   1.667   0.228   9.749  1.2566  0.2705  1.3386
10249SOL    HW234025   1.677   0.081   9.783  0.8180 -0.0181  0.2561
10250SOL     OW34026   3.087   4.019   3.898 -0.1642  0.3779  0.2689
10250SOL    HW134027   3.160   3.961   3.920 -0.8205 -0.1466  1.1002
10250SOL    HW234028   3.043   3.975   3.825  0.4601  0.8042 -0.3818
10251SOL     OW34029   3.335   3.762  11.053 -0.5115 -0.0181 -0.6094
10251SOL    HW134030   3.303   3.842  11.011 -1.2693  0.9137  1.5800
10251SOL    HW234031   3.429   3.775  11.061 -0.7552  1.2548  0.7595
10252SOL     OW34032   9.700   6.815  10.164 -0.1315 -0.7469  0.0102
10252SOL    HW134033   9.640   6.842  10.095 -0.9120 -4.2815 -0.9110
10252SOL    HW234034   9.647   6.813  10.244 -0.0038  0.4713  0.1425
10253SOL     OW34035   8.186   2.489   5.579  0.1883  0.2784  0.5563
10253SOL    HW134036   8.273   2.503   5.616  0.0606  2.1019  0.2326
10253SOL    HW234037   8.130   2.552   5.624 -0.5908  0.3948 -0.5340
10254SOL     OW34038   5.811   0.388   3.110  0.6858 -0.1627 -0.0057
10254SOL    HW134039   5.769   0.305   3.088 -0.7104 -0.1157  2.2002
10254SOL    HW234040   5.901   0.379   3.079  0.4509 -2.3304 -0.1694
10255SOL     OW34041   4.474   6.111   8.004  0.2290 -0.0692 -0.2508
10255SOL    HW134042   4.522   6.134   8.083 -0.1143  0.3158 -0.1493
10255SOL    HW234043   4.466   6.016   8.007 -0.7545  0.0275  0.7461
10256SOL     OW34044   3.511   7.204  11.226 -0.1285 -0.5814 -0.6934
10256SOL    HW134045   3.572   7.221  11.155  0.6782  0.9754  0.3152
10256SOL    HW234046   3.553   7.135  11.278  1.6129  1.4909  0.8351
10257SOL     OW34047   2.212   4.019   4.535  0.0459  0.2019  0.1042
10257SOL    HW134048   2.205   3.978   4.621  0.0722 -0.3095 -0.1331
10257SOL    HW234049   2.182   4.109   4.548 -0.0138  0.1060  0.6308
10258SOL     OW34050   4.904   2.412   8.184 -0.1141  0.5571 -0.4777
10258SOL    HW134051   4.855   2.448   8.111  0.0622 -0.4882 -1.1368
10258SOL    HW234052   4.996   2.418   8.157 -0.0857 -0.4945 -0.6916
10259SOL     OW34053   0.520   4.010   2.731 -0.3012 -0.3692  0.4785
10259SOL    HW134054   0.518   4.012   2.636  2.0351 -0.6286  0.3673
10259SOL    HW234055   0.436   3.972   2.756 -0.4917 -1.3972 -1.5334
10260SOL     OW34056   7.997   1.351   9.840 -0.3491 -0.1593  0.5388
10260SOL    HW134057   7.903   1.349   9.858 -0.2796  0.5313  0.9917
10260SOL    HW234058   8.038   1.367   9.925  0.1755 -0.4352  0.3395
10261SOL     OW34059  11.330   3.016   6.967 -0.3005  0.0063 -0.6068
10261SOL    HW134060  11.265   3.021   7.038 -0.3802  2.3925 -0.7608
10261SOL    HW234061  11.280   3.033   6.887  0.2415  0.0920 -0.9337
10262SOL     OW34062   4.855   9.527   5.119  0.3041  0.2358  1.5784
10262SOL    HW134063   4.849   9.463   5.190  0.8788 -0.8068  0.7133
10262SOL    HW234064   4.829   9.479   5.041 -0.7704  1.4997  1.1328
10263SOL     OW34065   8.646   0.673   9.509  0.2153  0.6909 -0.7144
10263SOL    HW134066   8.642   0.768   9.501 -0.7557  0.7564  0.2267
10263SOL    HW234067   8.558   0.644   9.484  0.7945 -0.0512 -1.9423
10264SOL     OW34068   0.678   4.880   5.581  0.4262 -0.2014  0.1028
10264SOL    HW134069   0.678   4.863   5.487 -1.3466  0.6782 -0.0982
10264SOL    HW234070   0.726   4.962   5.591 -1.0668  0.7647 -0.3090
10265SOL     OW34071   6.751   8.737   3.401 -0.2197  0.4303  0.0526
10265SOL    HW134072   6.659   8.709   3.405 -0.4591  1.2728  1.4128
10265SOL    HW234073   6.801   8.656   3.396 -1.0389 -0.0302 -1.3157
10266SOL     OW34074  11.072   2.272   0.458  0.2586  0.0361  0.0385
10266SOL    HW134075  11.081   2.224   0.375  1.5188  1.4147 -0.6719
10266SOL    HW234076  11.043   2.206   0.521  0.0752 -1.2228 -1.3182
10267SOL     OW34077   0.531   7.590   1.193 -0.4164 -0.1400 -0.4601
10267SOL    HW134078   0.511   7.497   1.179  0.5289 -0.4583  0.1929
10267SOL    HW234079   0.609   7.589   1.250 -0.1789  1.0483 -0.7494
10268SOL     OW34080   0.485   1.683  10.661  0.0526 -0.5145 -0.0654
10268SOL    HW134081   0.548   1.619  10.626 -0.0731 -0.5471 -0.2354
10268SOL    HW234082   0.400   1.650  10.632 -0.2479 -1.5975  1.8826
10269SOL     OW34083   9.133   2.877   2.876  0.2771 -0.2470 -0.3149
10269SOL    HW134084   9.098   2.962   2.906  1.8721  0.9243 -1.5889
10269SOL    HW234085   9.211   2.863   2.930 -0.6118 -1.5268  0.6891
10270SOL     OW34086  11.194   0.486   8.688 -0.0932 -0.0285  0.7119
10270SOL    HW134087  11.160   0.435   8.614  1.0642  0.5043 -0.2276
10270SOL    HW234088  11.129   0.474   8.757 -1.3609 -0.3219 -0.4758
10271SOL     OW34089   6.406   3.319   0.461 -0.3618 -0.2284 -0.4922
10271SOL    HW134090   6.485   3.368   0.436  0.3334 -0.8549  0.3899
10271SOL    HW234091   6.440   3.244   0.510 -1.5598  0.0174  0.7594
10272SOL     OW34092   5.829   9.714   9.728 -0.3374  0.5508 -0.0766
10272SOL    HW134093   5.787   9.656   9.792  0.9962  2.2976  2.5678
10272SOL    HW234094   5.895   9.660   9.686 -0.7560 -0.4741  0.5352
10273SOL     OW34095   0.026   9.054   6.294 -0.1510 -0.5090  0.3573
10273SOL    HW134096   0.013   8.962   6.316 -0.7056 -0.3055  0.9067
10273SOL    HW234097  -0.051   9.077   6.242 -0.7077  0.0108  1.4050
10274SOL     OW34098   3.794   8.386  10.526  0.2007  0.3633  0.5147
10274SOL    HW134099   3.710   8.429  10.541 -0.3546 -0.0761 -1.1097
10274SOL    HW234100   3.831   8.430  10.449  1.3360  0.3536  1.0249
10275SOL     OW34101   9.978  10.395  10.678 -0.3915  0.2581 -0.7593
10275SOL    HW134102   9.935  10.439  10.751 -0.8703  0.7434 -1.3170
10275SOL    HW234103  10.007  10.311  10.714 -3.7434 -1.1042 -0.8262
10276SOL     OW34104   6.864   5.179   1.906 -0.1445  0.3512  0.2633
10276SOL    HW134105   6.931   5.239   1.936  0.4008 -0.8578  1.5709
10276SOL    HW234106   6.822   5.224   1.833  2.9868  0.5877 -1.5708
10277SOL     OW34107  10.344   4.317   3.982 -0.7525 -0.3067 -0.1657
10277SOL    HW134108  10.293   4.383   3.936 -0.8359  0.9033  1.5715
10277SOL    HW234109  10.426   4.312   3.932 -1.3346 -0.0213 -1.1919
10278SOL     OW34110   9.398   5.976   8.681  0.1380  0.2824  0.2093
10278SOL    HW134111   9.333   6.046   8.691  0.5882  1.3626 -3.1483
10278SOL    HW234112   9.480   6.016   8.709  0.1315  0.5662 -0.1704
10279SOL     OW34113  10.516   4.464   3.049  0.3008  0.9299 -0.6664
10279SOL    HW134114  10.551   4.480   3.137 -0.9821 -0.8205  0.2247
10279SOL    HW234115  10.589   4.484   2.990  1.8345  0.2835  0.9175
10280SOL     OW34116   5.144  10.362   7.853  0.3602 -0.1108 -0.3870
10280SOL    HW134117   5.066  10.360   7.908 -0.4448  1.5384 -1.3774
10280SOL    HW234118   5.204  10.421   7.900  0.3739 -0.1162 -0.3976
10281SOL     OW34119   1.718   1.716   6.004  0.2716  0.3048  0.0313
10281SOL    HW134120   1.762   1.697   6.087  0.4343  2.1924  0.4197
10281SOL    HW234121   1.631   1.747   6.029  0.3068  0.8497 -0.5103
10282SOL     OW34122   5.130   6.776   7.545  0.1804  0.3695 -0.0650
10282SOL    HW134123   5.043   6.793   7.581  0.1510 -0.6439  0.3552
10282SOL    HW234124   5.160   6.862   7.515 -0.5805  0.8938  0.6240
10283SOL     OW34125   6.891   0.267   8.675 -0.4996  0.3846  0.3337
10283SOL    HW134126   6.829   0.212   8.723 -1.8090  1.3230 -0.2096
10283SOL    HW234127   6.835   0.329   8.627  0.8866  1.5332  0.1527
10284SOL     OW34128   6.958   4.524   3.369  0.0764  0.3349 -0.3091
10284SOL    HW134129   6.900   4.582   3.320  0.2073  0.8750  0.1643
10284SOL    HW234130   7.046   4.560   3.354  0.4295 -0.9914 -1.7503
10285SOL     OW34131   7.055   3.611   0.020 -0.2111 -0.2505  0.3407
10285SOL    HW134132   7.054   3.581  -0.071  1.5650  1.3041 -0.2567
10285SOL    HW234133   7.125   3.560   0.060  0.0206  0.1304  0.4223
10286SOL     OW34134   0.597   9.380   3.701  0.0754  0.1323  0.2080
10286SOL    HW134135   0.648   9.408   3.776 -1.5247  0.1560  1.3256
10286SOL    HW234136   0.643   9.417   3.625  1.4102  0.5519  1.1963
10287SOL     OW34137   4.550   8.543   4.026 -0.2569  0.4669 -0.1750
10287SOL    HW134138   4.535   8.582   3.940  0.5764  2.7693  0.6431
10287SOL    HW234139   4.631   8.492   4.014 -0.6917 -0.0713 -0.9708
10288SOL     OW34140   3.648   0.270   9.944  0.1588 -0.8426 -0.3110
10288SOL    HW134141   3.574   0.237   9.995 -1.8127 -1.0582 -3.0995
10288SOL    HW234142   3.686   0.192   9.904  0.4802 -0.5051 -0.6682
10289SOL     OW34143   7.706   3.698   6.057 -0.5232 -0.4251  0.6780
10289SOL    HW134144   7.705   3.706   6.153 -1.4183 -0.3875  0.6732
10289SOL    HW234145   7.680   3.608   6.040  0.1998 -0.6036  0.4744
10290SOL     OW34146   5.119   9.200   2.502  0.6273 -0.0950 -0.1748
10290SOL    HW134147   5.099   9.281   2.548  1.7366 -0.1596  0.4637
10290SOL    HW234148   5.089   9.131   2.560  0.8055 -0.1551 -0.1536
10291SOL     OW34149   4.708   8.344   8.772 -0.7011  0.1931 -0.0962
10291SOL    HW134150   4.734   8.391   8.693 -1.8242  1.4584  0.2592
10291SOL    HW234151   4.791   8.317   8.812 -0.1017  0.2499 -1.2721
10292SOL     OW34152   7.194   7.789   7.465 -0.4951  0.0741 -0.2193
10292SOL    HW134153   7.121   7.764   7.523 -1.1452  0.5793 -0.8010
10292SOL    HW234154   7.151   7.815   7.383  0.0446  3.7624  0.5070
10293SOL     OW34155   2.373   9.594   9.368  0.8476 -0.9619 -0.6041
10293SOL    HW134156   2.437   9.663   9.388  0.2578 -0.2201 -1.2188
10293SOL    HW234157   2.328   9.626   9.290 -0.3885 -1.4077 -0.0844
10294SOL     OW34158   2.557   7.746   0.460 -0.1162  0.5969 -0.3414
10294SOL    HW134159   2.497   7.783   0.524 -0.1275 -0.2174  0.1331
10294SOL    HW234160   2.534   7.653   0.456 -0.2178  0.6519 -1.6437
10295SOL     OW34161   9.260   7.647   6.745  0.5004 -0.1291  0.0010
10295SOL    HW134162   9.349   7.613   6.737  1.0366  0.9100  1.1912
10295SOL    HW234163   9.249   7.665   6.838 -1.3605 -1.2377  0.0559
10296SOL     OW34164   8.326   4.525   9.057 -0.2585  0.0433  0.4474
10296SOL    HW134165   8.294   4.565   9.138  0.8758  0.9065  0.4976
10296SOL    HW234166   8.295   4.434   9.061 -2.3220  0.7200  0.6360
10297SOL     OW34167   5.251   9.799  10.171 -0.2532 -0.1246 -0.0175
10297SOL    HW134168   5.228   9.786  10.079  0.7515  0.1937 -0.3332
10297SOL    HW234169   5.339   9.762  10.179  0.3482  1.2891  0.4062
10298SOL     OW34170   0.379   7.825   9.621 -0.2127  0.3647  0.1503
10298SOL    HW134171   0.391   7.898   9.682  0.0853  0.1186  0.3916
10298SOL    HW234172   0.447   7.762   9.645 -1.3795 -0.6498  0.9143
10299SOL     OW34173   1.681   9.293   7.194  0.3278 -0.3100 -0.2072
10299SOL    HW134174   1.691   9.384   7.166  3.6747 -0.3292  0.5116
10299SOL    HW234175   1.673   9.298   7.290  0.8844 -0.7662 -0.1318
10300SOL     OW34176   8.529   4.985  10.850  0.2818 -0.0981  0.3118
10300SOL    HW134177   8.568   4.898  10.866  1.0921 -0.3873 -2.5792
10300SOL    HW234178   8.437   4.967  10.832  0.4221 -0.3908 -0.1575
10301SOL     OW34179   1.815   7.878   0.726 -0.0227  0.0717  0.1475
10301SOL    HW134180   1.760   7.939   0.774  0.3970  0.4429  0.1565
10301SOL    HW234181   1.768   7.795   0.731 -1.1446  0.6193 -0.7872
10302SOL     OW34182   3.284   2.358   6.193 -0.5728  0.1396  0.1143
10302SOL    HW134183   3.293   2.452   6.176 -0.4411  0.1150  0.0437
10302SOL    HW234184   3.329   2.317   6.119 -0.1943  0.0263  0.4055
10303SOL     OW34185   7.300   8.678   7.817  0.3879  0.4129 -0.2219
10303SOL    HW134186   7.240   8.738   7.773  0.6251 -0.1884 -1.4119
10303SOL    HW234187   7.253   8.595   7.819  0.2500  0.5034  0.9943
10304SOL     OW34188  10.591   7.425   6.597  0.5537 -0.2603 -0.2543
10304SOL    HW134189  10.584   7.370   6.675 -0.8626  0.0008 -0.1723
10304SOL    HW234190  10.668   7.391   6.551  2.0436  0.2456  1.7439
10305SOL     OW34191   2.764   9.492   6.697 -0.1206  0.7680 -0.2192
10305SOL    HW134192   2.709   9.470   6.772 -0.8316  1.6646 -0.4554
10305SOL    HW234193   2.847   9.519   6.735 -0.9835  2.8029  0.4004
10306SOL     OW34194   3.684   5.159   6.676 -0.6141 -0.4601 -0.3268
10306SOL    HW134195   3.720   5.072   6.659 -0.9524 -0.7254  0.2938
10306SOL    HW234196   3.599   5.143   6.716  0.5199  0.0784  2.6012
10307SOL     OW34197   9.300   3.082   6.572  0.3018 -0.1706 -0.5388
10307SOL    HW134198   9.307   3.137   6.494  0.0415 -0.3081 -0.6602
10307SOL    HW234199   9.208   3.056   6.575  0.5394 -1.0732 -0.7985
10308SOL     OW34200   1.725   3.419   6.912 -0.2563 -0.1424 -0.2735
10308SOL    HW134201   1.678   3.339   6.934  0.0845 -0.4076 -0.5027
10308SOL    HW234202   1.657   3.487   6.910 -0.5169 -0.3873  0.1049
10309SOL     OW34203   8.217   4.672  11.137  0.0291 -0.8927  0.1082
10309SOL    HW134204   8.269   4.660  11.058  0.3761 -1.3378  0.3960
10309SOL    HW234205   8.173   4.588  11.150 -3.4519  0.4175 -1.9826
10310SOL     OW34206   5.202   0.762   6.595 -0.5423 -0.1991  0.4003
10310SOL    HW134207   5.149   0.697   6.548 -1.3902 -0.5994  1.8661
10310SOL    HW234208   5.292   0.729   6.586 -0.9188 -1.4151  0.8304
10311SOL     OW34209   4.770   1.842   8.770  0.2305  0.5694 -0.3840
10311SOL    HW134210   4.740   1.805   8.853 -1.2934 -1.3430 -1.7027
10311SOL    HW234211   4.807   1.927   8.794 -1.4386  0.7133  2.0941
10312SOL     OW34212   6.986   3.291  10.374  0.0110 -0.3932 -0.2036
10312SOL    HW134213   6.933   3.247  10.308 -1.3868  2.0456 -0.8229
10312SOL    HW234214   6.931   3.364  10.405  1.9132  0.5255  1.2291
10313SOL     OW34215   5.338   8.207   5.326  0.1364 -0.3246 -0.1425
10313SOL    HW134216   5.345   8.215   5.421  0.7893 -1.2381 -0.1037
10313SOL    HW234217   5.426   8.228   5.294 -0.2378  0.6121 -0.6058
10314SOL     OW34218   0.406   6.967   4.766 -0.3267  0.3276 -0.1438
10314SOL    HW134219   0.439   6.943   4.853  0.8478 -1.0863 -0.9344
10314SOL    HW234220   0.346   6.895   4.743 -1.0695  0.9774 -0.2932
10315SOL     OW34221   6.687   6.672   9.109  0.1697  0.3159 -0.0627
10315SOL    HW134222   6.666   6.672   9.016 -0.1789 -0.4267  0.0047
10315SOL    HW234223   6.766   6.725   9.117  0.3807  0.1160 -0.8251
10316SOL     OW34224   3.525   8.849   0.087 -0.4042 -0.0135  0.7517
10316SOL    HW134225   3.576   8.884   0.160  0.0355  1.3559 -0.1887
10316SOL    HW234226   3.586   8.843   0.014 -1.3997  1.0953 -0.2283
10317SOL     OW34227   8.807  11.343   0.755  0.2379  0.2633  0.1648
10317SOL    HW134228   8.889  11.295   0.757 -0.1232 -0.3549  0.5866
10317SOL    HW234229   8.754  11.298   0.690 -0.0085  0.2362  0.3807
10318SOL     OW34230   7.473   0.242   5.574  0.7530  0.7019 -0.4752
10318SOL    HW134231   7.528   0.230   5.652  0.8664  4.1675  0.1229
10318SOL    HW234232   7.385   0.221   5.604  0.9827  0.6962  0.2284
10319SOL     OW34233   0.493   2.807   5.460 -0.2279  0.5549 -0.7242
10319SOL    HW134234   0.412   2.760   5.439  0.0078  0.2010 -0.8752
10319SOL    HW234235   0.549   2.790   5.384  0.0832  0.5654 -0.4967
10320SOL     OW34236   8.411   6.893   8.303  0.0620  0.1869 -0.1901
10320SOL    HW134237   8.416   6.799   8.320  2.4813  0.2884  0.0656
10320SOL    HW234238   8.491   6.912   8.254  0.1446  2.2694  0.6558
10321SOL     OW34239   3.522   9.236  10.132 -0.5523  0.7463  0.2320
10321SOL    HW134240   3.541   9.148  10.098 -3.1372  0.3583 -0.3783
10321SOL    HW234241   3.496   9.222  10.223 -2.1552  0.6999 -0.2162
10322SOL     OW34242   5.739   5.534   5.490  0.6891 -0.3571 -0.4433
10322SOL    HW134243   5.730   5.529   5.395  0.6184 -0.8257 -0.4155
10322SOL    HW234244   5.649   5.541   5.522  0.7727  1.4486 -0.4805
10323SOL     OW34245   0.310   2.177   2.057  0.5251  0.3323 -0.2504
10323SOL    HW134246   0.251   2.119   2.010  2.5095 -0.8409 -1.4105
10323SOL    HW234247   0.329   2.131   2.139 -1.5715  1.5856  1.0231
10324SOL     OW34248   9.460   2.322   9.337 -0.0285 -0.1752  0.0754
10324SOL    HW134249   9.548   2.291   9.319 -0.4317 -0.2988 -1.8734
10324SOL    HW234250   9.419   2.332   9.251 -0.9763  2.7216  0.7621
10325SOL     OW34251   9.729   0.043  10.691 -0.1231  0.2798 -0.3351
10325SOL    HW134252   9.762   0.132  10.689 -2.7993  1.3723 -0.2814
10325SOL    HW234253   9.731   0.018  10.784  0.9021  0.1342 -0.3838
10326SOL     OW34254  10.388   4.317  10.017  0.4835  0.1152 -1.0805
10326SOL    HW134255  10.328   4.342   9.947  0.1433  1.9471 -0.1849
10326SOL    HW234256  10.409   4.399  10.062  2.9362 -0.5973 -0.7749
10327SOL     OW34257   8.984  11.039   6.985  0.2502 -0.2548 -0.0224
10327SOL    HW134258   8.950  11.062   7.072 -0.5946 -0.5339 -0.2699
10327SOL    HW234259   8.907  11.008   6.937  0.8003 -0.5575 -0.7169
10328SOL     OW34260   8.415   9.635   0.197 -0.2359  0.2548  0.3092
10328SOL    HW134261   8.465   9.559   0.227 -1.7481 -1.0915 -0.4720
10328SOL    HW234262   8.374   9.669   0.276  0.7308  0.5099  0.7239
10329SOL     OW34263   5.931   0.233   5.765 -0.0113 -0.4350  0.2048
10329SOL    HW134264   6.007   0.241   5.707 -0.2231  0.5793  0.0474
10329SOL    HW234265   5.855   0.243   5.706 -0.2459 -0.3433  0.5213
10330SOL     OW34266   6.469   3.530   9.266 -0.2271  0.0490  0.1974
10330SOL    HW134267   6.423   3.447   9.272  1.1533 -0.6970  0.9365
10330SOL    HW234268   6.464   3.554   9.173  0.3147 -1.4331 -0.2415
10331SOL     OW34269   3.332   1.144   7.858 -0.3307  0.1660 -0.2206
10331SOL    HW134270   3.426   1.155   7.843 -0.1709 -0.4683  0.2517
10331SOL    HW234271   3.297   1.117   7.773 -0.3201  1.7177 -0.7391
10332SOL     OW34272  10.281   4.591   3.341  0.0251  0.0815 -1.0535
10332SOL    HW134273  10.354   4.630   3.390  0.0826 -0.9937 -0.2566
10332SOL    HW234274  10.203   4.620   3.388  0.0921 -1.1691 -0.1290
10333SOL     OW34275   3.871   3.138   2.716  0.1488  0.6426 -0.5954
10333SOL    HW134276   3.905   3.050   2.699  0.3499  0.6603 -0.2803
10333SOL    HW234277   3.862   3.143   2.811 -1.0260  0.5212 -0.6751
10334SOL     OW34278   0.288   5.672   6.744 -0.1299  0.2048  0.0005
10334SOL    HW134279   0.283   5.676   6.840 -1.8517 -2.5762  0.1283
10334SOL    HW234280   0.198   5.657   6.716  0.3404  1.0214 -2.1017
10335SOL     OW34281   2.574   0.985  11.120 -0.1084  0.1317  0.4682
10335SOL    HW134282   2.617   1.062  11.082 -2.0474  1.7337  1.3358
10335SOL    HW234283   2.535   1.017  11.201 -1.5321 -1.6245  0.5400
10336SOL     OW34284   3.788   0.615   3.712 -0.2511  0.6223 -0.2980
10336SOL    HW134285   3.873   0.654   3.733  0.5540 -0.0914 -2.0365
10336SOL    HW234286   3.779   0.541   3.772  1.3753 -0.5888 -1.4740
10337SOL     OW34287   9.642   9.084   1.324 -0.2327 -0.2996  0.2140
10337SOL    HW134288   9.623   9.112   1.413  0.8876  1.6896 -0.1043
10337SOL    HW234289   9.614   8.992   1.320  0.8116 -0.8229  2.9621
10338SOL     OW34290   5.187   7.715  10.237  0.0688 -0.9330  0.0973
10338SOL    HW134291   5.270   7.676  10.211  0.3308 -0.1172 -0.3158
10338SOL    HW234292   5.178   7.694  10.330  0.1183 -2.0983 -0.1433
10339SOL     OW34293   2.669   3.731  10.744 -0.1630 -0.1056 -0.5271
10339SOL    HW134294   2.682   3.643  10.779  1.4636 -0.6754 -2.3634
10339SOL    HW234295   2.646   3.717  10.652  0.5862  1.3654 -0.9760
10340SOL     OW34296  10.601   5.474   6.920 -0.3312 -0.0097 -0.3505
10340SOL    HW134297  10.519   5.430   6.939  0.3105  0.1044  3.4355
10340SOL    HW234298  10.576   5.565   6.904 -0.9486  0.3375  2.1694
10341SOL     OW34299   2.218   6.164   9.046  0.2223  0.0983 -0.0653
10341SOL    HW134300   2.200   6.157   9.140 -0.0226  0.6577 -0.0665
10341SOL    HW234301   2.254   6.252   9.035 -2.7716  1.3433 -0.9445
10342SOL     OW34302   4.454   4.879   8.543  0.4847 -0.2435 -0.8092
10342SOL    HW134303   4.543   4.875   8.580 -0.5712 -1.3051  1.8920
10342SOL    HW234304   4.436   4.788   8.517 -0.5024 -0.4826  0.6000
10343SOL     OW34305   9.413   4.896   7.911 -0.5262  0.6376 -0.0392
10343SOL    HW134306   9.338   4.842   7.935  0.7908 -0.7867  1.1341
10343SOL    HW234307   9.475   4.835   7.872  0.5200  1.5291  0.1764
10344SOL     OW34308   7.013   5.775   6.554 -0.0187  0.3084 -0.0941
10344SOL    HW134309   6.981   5.685   6.547 -0.3534  0.4676 -0.7432
10344SOL    HW234310   7.107   5.768   6.540 -0.1396  0.1336 -0.9037
10345SOL     OW34311   1.743   7.726  10.099  0.1365  0.4522 -1.0246
10345SOL    HW134312   1.765   7.805  10.049 -0.5400  0.8531 -0.7034
10345SOL    HW234313   1.663   7.694  10.058 -0.4198  0.7766 -0.2142
10346SOL     OW34314   5.154   9.214  11.236 -0.1111 -0.1929  0.7376
10346SOL    HW134315   5.120   9.303  11.246  2.1677  0.6096  1.9716
10346SOL    HW234316   5.079   9.163  11.204 -1.3800  2.2161 -0.3515
10347SOL     OW34317   8.003   0.709  11.392 -0.1310 -0.3597  0.0532
10347SOL    HW134318   8.067   0.745  11.453 -1.2170 -0.6403  1.4172
10347SOL    HW234319   7.929   0.684  11.447 -0.2335 -2.8367 -1.0742
10348SOL     OW34320  10.940   6.804   3.736  0.6404  0.1336 -0.4840
10348SOL    HW134321  11.008   6.745   3.768  1.1206  0.2316 -1.2926
10348SOL    HW234322  10.987   6.869   3.684  0.0800  1.0486  0.1179
10349SOL     OW34323   8.144   2.437   4.188 -0.3596 -0.0691  0.0431
10349SOL    HW134324   8.170   2.503   4.124 -0.5528  0.1573  0.2006
10349SOL    HW234325   8.153   2.480   4.273 -0.1221 -0.3627  0.1700
10350SOL     OW34326   2.661   7.386   6.729 -0.1187 -0.6342  0.0542
10350SOL    HW134327   2.741   7.338   6.751 -0.4149 -0.7401  0.9193
10350SOL    HW234328   2.605   7.377   6.806 -0.4218  0.5980  0.0119
10351SOL     OW34329   3.779   3.400   6.444  0.1918 -0.4636  0.1742
10351SOL    HW134330   3.803   3.308   6.441  0.5931 -0.3443 -2.1706
10351SOL    HW234331   3.858   3.447   6.418 -0.4602  0.4249 -0.2771
10352SOL     OW34332   1.392   1.908   5.284 -0.0930  0.5860 -0.0488
10352SOL    HW134333   1.479   1.943   5.300  0.1681 -0.1283  0.1265
10352SOL    HW234334   1.379   1.843   5.353 -0.3146 -0.1213 -0.7434
10353SOL     OW34335   9.796   8.520   5.560  0.3556  0.4385 -0.1865
10353SOL    HW134336   9.873   8.576   5.572  0.6927  0.1211 -0.8416
10353SOL    HW234337   9.745   8.565   5.492  0.2959  0.3057 -0.2292
10354SOL     OW34338   0.004   7.469   2.139  0.1969  0.6171  0.5021
10354SOL    HW134339  -0.080   7.512   2.152 -0.6000 -0.1618 -1.6102
10354SOL    HW234340   0.025   7.484   2.047  1.4428 -0.7794  0.5156
10355SOL     OW34341   5.185   0.397   4.021  0.8481 -0.2408 -0.2232
10355SOL    HW134342   5.132   0.342   4.079  1.4253  0.5165  1.0632
10355SOL    HW234343   5.249   0.337   3.983 -0.3369 -0.9993 -1.1378
10356SOL     OW34344   2.551   8.946   5.841 -0.3953  0.6645 -0.3527
10356SOL    HW134345   2.576   8.965   5.751 -2.4874 -2.2531 -1.7018
10356SOL    HW234346   2.615   8.883   5.871 -1.0561 -0.1923 -0.7018
10357SOL     OW34347   9.611   9.690   7.946 -0.2332 -0.1371 -0.2349
10357SOL    HW134348   9.559   9.711   7.869 -0.0697 -0.3267 -0.3975
10357SOL    HW234349   9.669   9.765   7.957 -0.6288  0.1357  0.0256
10358SOL     OW34350   4.968   4.924   0.370  0.0115 -0.5245 -0.4312
10358SOL    HW134351   4.924   4.951   0.450  2.9495  0.2170  1.0538
10358SOL    HW234352   4.987   4.831   0.383 -0.0084 -0.5409 -0.5188
10359SOL     OW34353   0.729   0.132   1.602  0.7772  0.2043  0.1311
10359SOL    HW134354   0.680   0.214   1.596  0.2370 -0.1368 -0.0942
10359SOL    HW234355   0.821   0.160   1.598  0.6166  0.8408  0.5477
10360SOL     OW34356   7.462   6.050   2.456  0.4774 -0.2893 -0.1325
10360SOL    HW134357   7.475   5.968   2.408  0.1389 -1.0292  1.0047
10360SOL    HW234358   7.510   6.038   2.537 -0.6310  0.1151  0.6025
10361SOL     OW34359   9.671   2.035   7.215 -0.1378 -0.3109 -0.1794
10361SOL    HW134360   9.726   1.957   7.206 -2.1874 -1.8118 -0.6104
10361SOL    HW234361   9.661   2.068   7.126 -1.6421 -1.3831 -0.4634
10362SOL     OW34362   9.397   8.040   5.063  0.1879  0.5804  0.0915
10362SOL    HW134363   9.379   8.105   5.130 -0.8484  0.7490 -0.3277
10362SOL    HW234364   9.462   8.081   5.006 -1.5449  1.8945 -1.0254
10363SOL     OW34365   7.478  10.151  10.407 -0.3690 -0.7474 -0.8952
10363SOL    HW134366   7.552  10.138  10.348 -1.1736 -4.1381 -1.3406
10363SOL    HW234367   7.402  10.124  10.356 -1.6754  0.6294  0.2544
10364SOL     OW34368   3.728   6.074   3.275  0.4218  0.3087  0.4168
10364SOL    HW134369   3.800   6.117   3.322 -0.2347 -1.7323  3.5774
10364SOL    HW234370   3.726   5.985   3.309 -1.0430 -0.9769 -2.6402
10365SOL     OW34371   8.871   5.345   5.231 -0.0889 -0.0906  0.3400
10365SOL    HW134372   8.810   5.273   5.247 -1.1416  0.4939 -0.8510
10365SOL    HW234373   8.871   5.394   5.313  1.8811 -2.2635  1.7475
10366SOL     OW34374   9.557   1.628   5.750 -0.7724 -0.1862  0.1283
10366SOL    HW134375   9.604   1.555   5.709  0.3371 -0.0473  1.0920
10366SOL    HW234376   9.544   1.691   5.679 -0.7100 -0.8067 -0.4508
10367SOL     OW34377   5.776   2.479   6.493  0.1898  0.2048  0.0758
10367SOL    HW134378   5.867   2.509   6.498  0.7000 -1.3806  1.0368
10367SOL    HW234379   5.740   2.496   6.580 -0.8634  1.9838 -0.6584
10368SOL     OW34380   2.300   9.493   4.443  0.8227  0.9956  0.4468
10368SOL    HW134381   2.270   9.405   4.464 -1.2449  1.6707  0.5061
10368SOL    HW234382   2.220   9.544   4.433  1.8668  2.3596 -1.9167
10369SOL     OW34383   9.830   7.686  10.753 -0.4713 -0.2196  0.1550
10369SOL    HW134384   9.909   7.729  10.786 -0.5330  0.0042  0.0102
10369SOL    HW234385   9.862   7.618  10.694 -0.4214  0.8948 -1.1516
10370SOL     OW34386   8.786   0.463   4.251  0.2871 -0.4032 -0.0525
10370SOL    HW134387   8.760   0.533   4.311 -1.9701 -0.0261 -1.3413
10370SOL    HW234388   8.836   0.508   4.182  0.3161 -0.3341  0.0133
10371SOL     OW34389   7.669   3.342   1.743 -0.1068 -0.0907  0.3860
10371SOL    HW134390   7.588   3.383   1.710  0.0328 -1.0106 -1.2575
10371SOL    HW234391   7.641   3.291   1.818 -1.3001 -1.1957 -0.7501
10372SOL     OW34392  10.538   5.049   3.217  0.1844 -0.3330 -0.7780
10372SOL    HW134393  10.612   5.090   3.262 -0.3490  0.1070 -0.2720
10372SOL    HW234394  10.566   4.960   3.198  0.8542 -0.1541 -0.6298
10373SOL     OW34395  10.735   3.928   1.098  0.0567  0.2062  0.4365
10373SOL    HW134396  10.804   3.953   1.036  2.0764 -4.0245  0.6668
10373SOL    HW234397  10.778   3.931   1.184 -0.7497 -0.2229  0.8623
10374SOL     OW34398   8.733   8.309   6.388  0.8826 -0.2720 -0.1649
10374SOL    HW134399   8.733   8.404   6.386  1.7336 -0.2498  0.3489
10374SOL    HW234400   8.661   8.285   6.447  0.2928  0.0301 -0.7577
10375SOL     OW34401   1.935   8.833  11.194 -0.1510 -0.2230  0.0852
10375SOL    HW134402   1.907   8.760  11.139  1.3650  0.0346 -1.1080
10375SOL    HW234403   1.993   8.792  11.259  0.5743 -0.1152 -0.4865
10376SOL     OW34404   9.609   9.665   2.428  0.3680  0.3725 -0.5006
10376SOL    HW134405   9.668   9.720   2.377 -0.6664  1.2414 -0.7995
10376SOL    HW234406   9.524   9.708   2.421  0.0584  0.1524  1.4399
10377SOL     OW34407   7.674  10.116   3.216  0.7298  0.3131 -0.3594
10377SOL    HW134408   7.651  10.116   3.123 -0.9227 -0.1566  0.0045
10377SOL    HW234409   7.591  10.131   3.261  1.5332  0.7366  1.0460
10378SOL     OW34410   6.056   1.750   8.639  0.0726 -0.9012 -0.2344
10378SOL    HW134411   6.081   1.666   8.602 -0.6300 -1.0545 -0.3752
10378SOL    HW234412   6.002   1.728   8.715  0.2630 -0.5786 -0.0008
10379SOL     OW34413  10.108  10.554   2.697 -0.3617 -0.3199 -0.3938
10379SOL    HW134414  10.158  10.490   2.647  0.2116 -0.8408  0.8169
10379SOL    HW234415  10.098  10.515   2.784 -0.7559  0.8507  0.1139
10380SOL     OW34416   5.931   1.087   2.143 -0.6160  0.4539 -0.3968
10380SOL    HW134417   5.931   1.002   2.186 -0.0658  0.6410 -0.0184
10380SOL    HW234418   5.856   1.083   2.083  0.9864 -1.3338 -2.4546
10381SOL     OW34419   6.419   1.766  10.565 -0.2939  0.0988 -0.1635
10381SOL    HW134420   6.448   1.675  10.566  3.0636  1.0040 -1.4313
10381SOL    HW234421   6.405   1.788  10.657  3.6366 -0.4626  0.7497
10382SOL     OW34422   6.985   7.478   3.066 -0.5487 -0.1878  0.4967
10382SOL    HW134423   6.960   7.507   3.154 -1.2694  2.9920 -0.6429
10382SOL    HW234424   6.936   7.535   3.007 -0.3347 -2.4308 -2.0438
10383SOL     OW34425   8.812   4.261   0.743  0.0046 -0.0654 -0.3012
10383SOL    HW134426   8.903   4.242   0.767 -0.1830  0.3083  0.7437
10383SOL    HW234427   8.776   4.306   0.820 -1.2438 -0.7723 -0.4503
10384SOL     OW34428   0.083   7.441   4.106  0.2410 -0.6051  0.0676
10384SOL    HW134429   0.131   7.477   4.032 -1.2074  2.1574  0.3191
10384SOL    HW234430   0.130   7.471   4.183 -0.0697 -0.6540  0.2811
10385SOL     OW34431   4.442  10.039   3.281  0.2172 -0.1111 -0.0370
10385SOL    HW134432   4.502  10.092   3.333  0.5212 -1.6091  1.2324
10385SOL    HW234433   4.356  10.077   3.297  0.2982 -0.5635  1.6517
10386SOL     OW34434   1.740   2.086  10.284 -0.1041  0.6247 -0.3844
10386SOL    HW134435   1.810   2.137  10.323 -0.6027  0.7503  0.3781
10386SOL    HW234436   1.761   1.995  10.307  0.4953  0.5303 -1.2775
10387SOL     OW34437   3.129   1.425   1.410 -0.3290  0.1593  0.4239
10387SOL    HW134438   3.043   1.407   1.447  0.4325 -0.3428  2.0588
10387SOL    HW234439   3.116   1.501   1.354 -2.2119 -1.0679 -0.9450
10388SOL     OW34440  10.401   7.665   3.384  0.0089 -0.1503 -0.5010
10388SOL    HW134441  10.337   7.634   3.448 -0.8266  0.8599 -0.8233
10388SOL    HW234442  10.374   7.755   3.365  1.5887  0.3404 -0.5687
10389SOL     OW34443   5.595   0.201   7.242  0.2919  0.2238  0.4217
10389SOL    HW134444   5.616   0.245   7.159 -0.1619  1.3937  0.9001
10389SOL    HW234445   5.639   0.116   7.236  1.1158  0.6952 -0.5884
10390SOL     OW34446   2.301   0.301   3.732  0.1246  0.2848  0.3955
10390SOL    HW134447   2.212   0.274   3.752  0.7726 -1.4018  1.2215
10390SOL    HW234448   2.330   0.241   3.663  1.0250 -0.0446  1.0316
10391SOL     OW34449   9.490   0.826   9.492 -0.1198 -0.3469 -0.1437
10391SOL    HW134450   9.441   0.904   9.465 -0.2150 -0.0920  0.7354
10391SOL    HW234451   9.484   0.827   9.588  0.9037 -0.7703 -0.0741
10392SOL     OW34452  11.213   5.276   9.780 -0.0715 -0.2510  0.3680
10392SOL    HW134453  11.170   5.342   9.833  0.5033  0.3156  0.1507
10392SOL    HW234454  11.301   5.311   9.765  0.4928 -1.3962  0.8505
10393SOL     OW34455   2.475   6.218   6.747 -0.5286 -0.0102  0.5279
10393SOL    HW134456   2.473   6.134   6.703 -1.5180  0.4741 -0.3846
10393SOL    HW234457   2.551   6.263   6.711  1.8229 -1.5614  3.1321
10394SOL     OW34458   0.461   6.448   6.324  0.0066  0.3215  0.0463
10394SOL    HW134459   0.502   6.463   6.409 -0.2507 -1.3307  0.4894
10394SOL    HW234460   0.528   6.472   6.260 -0.0883  2.4301  0.6543
10395SOL     OW34461   9.218   4.475   7.543 -0.5212  0.0777 -0.1476
10395SOL    HW134462   9.127   4.501   7.558 -0.6070 -0.9680  1.3319
10395SOL    HW234463   9.241   4.424   7.620  1.0715 -0.3607 -0.8841
10396SOL     OW34464   5.582  10.121   2.669 -0.1120 -0.2858  0.2845
10396SOL    HW134465   5.510  10.174   2.633 -1.6601 -2.1313  0.5221
10396SOL    HW234466   5.639  10.106   2.594 -0.0990  0.9488  0.0171
10397SOL     OW34467   4.856   0.704   6.239 -0.0617  0.0009 -0.3564
10397SOL    HW134468   4.852   0.629   6.299 -0.0100 -0.9873 -1.5525
10397SOL    HW234469   4.939   0.692   6.193  0.7463  1.7063  0.5557
10398SOL     OW34470   3.699   8.309   5.607  0.1074 -0.2267 -0.2690
10398SOL    HW134471   3.635   8.365   5.563  0.4794  0.7255  0.3753
10398SOL    HW234472   3.696   8.227   5.558 -1.4018 -0.1145 -0.4199
10399SOL     OW34473   4.421  10.389   3.376  0.0979  0.4258  0.0103
10399SOL    HW134474   4.351  10.423   3.321  0.5876  0.2929 -0.7097
10399SOL    HW234475   4.495  10.448   3.360  0.9356 -0.8971 -1.2028
10400SOL     OW34476   0.538   0.059   9.910  0.6554  0.2028 -0.4917
10400SOL    HW134477   0.572  -0.031   9.909  1.0219  0.2830  1.1731
10400SOL    HW234478   0.497   0.070   9.824 -0.1588 -1.8540 -0.4306
10401SOL     OW34479   8.358   4.603   5.270 -0.0849 -0.7211 -0.6540
10401SOL    HW134480   8.390   4.633   5.355 -0.2861  0.0212 -0.8358
10401SOL    HW234481   8.298   4.672   5.241 -0.3141 -1.1541 -1.2213
10402SOL     OW34482  11.296   5.856  10.861  0.1266  0.5317  0.4883
10402SOL    HW134483  11.324   5.808  10.939  1.4410  0.9271  0.2851
10402SOL    HW234484  11.201   5.858  10.867  0.1350 -0.7095  1.3235
10403SOL     OW34485  10.752   3.290  10.839  1.1647  0.2215  0.2540
10403SOL    HW134486  10.787   3.331  10.760  1.9094  0.9646  0.9418
10403SOL    HW234487  10.755   3.196  10.822 -1.4918  0.3944 -1.7491
10404SOL     OW34488   4.283  10.427   0.617  0.3735  1.0279 -0.3193
10404SOL    HW134489   4.301  10.498   0.556 -0.6771  0.6514 -1.1092
10404SOL    HW234490   4.338  10.355   0.587 -0.9945  0.4626 -1.5981
10405SOL     OW34491   1.367   0.553   6.196  0.2675  0.2636 -0.0393
10405SOL    HW134492   1.422   0.629   6.216  1.5299 -0.3634 -0.9644
10405SOL    HW234493   1.278   0.585   6.205  0.7742  1.6747  0.2633
10406SOL     OW34494   8.982   4.207   5.816  0.0962  0.1836 -0.4597
10406SOL    HW134495   8.911   4.264   5.787  1.2382  1.9824  0.0982
10406SOL    HW234496   9.059   4.239   5.769  0.8329 -0.7573  0.0605
10407SOL     OW34497   8.194   5.465  10.805  0.3272 -0.3923 -0.6504
10407SOL    HW134498   8.155   5.550  10.781  0.6428  0.2465  0.9271
10407SOL    HW234499   8.119   5.409  10.824  0.0349  0.6411  1.7381
10408SOL     OW34500   4.745   7.411   4.936  0.6716  0.0174  0.1113
10408SOL    HW134501   4.776   7.328   4.898 -3.6567 -0.7014 -2.5676
10408SOL    HW234502   4.738   7.470   4.861 -1.0861  1.1076  1.0667
10409SOL     OW34503   6.110   5.422   1.916 -0.1104 -0.0449  0.0036
10409SOL    HW134504   6.094   5.481   1.989  0.6719 -1.1076  1.0742
10409SOL    HW234505   6.055   5.346   1.933  0.4294 -0.5060 -0.2596
10410SOL     OW34506  10.467   3.024   6.054  0.6159  0.1516  0.6570
10410SOL    HW134507  10.501   2.959   5.993  0.1104 -1.5455  2.1128
10410SOL    HW234508  10.462   3.105   6.002 -1.3927 -1.5506 -2.0895
10411SOL     OW34509   9.688   6.035  11.388 -0.4602 -0.1390 -0.0551
10411SOL    HW134510   9.781   6.035  11.365 -0.2869 -0.6974  0.5966
10411SOL    HW234511   9.675   5.952  11.434 -0.9007  0.6481  1.3144
10412SOL     OW34512   4.750   2.454   7.075 -0.0546 -0.4955  0.2760
10412SOL    HW134513   4.701   2.390   7.023  0.4448 -1.0248  0.4500
10412SOL    HW234514   4.781   2.405   7.151  0.4068 -0.0692  0.3714
10413SOL     OW34515   7.831   1.575   8.464  0.1620  0.3271 -0.1272
10413SOL    HW134516   7.834   1.670   8.471 -0.5410  0.2187  2.3438
10413SOL    HW234517   7.738   1.553   8.462  0.3013 -0.3588  0.4187
10414SOL     OW34518   4.205   8.539   9.378  0.1698 -0.0209 -0.1381
10414SOL    HW134519   4.178   8.630   9.369 -0.4567 -0.2895 -1.0730
10414SOL    HW234520   4.179   8.497   9.296 -1.1092 -1.4404  0.9358
10415SOL     OW34521   9.809  10.108   6.021  0.4866  0.2185  0.2509
10415SOL    HW134522   9.825  10.099   5.927  1.9002  1.4964  0.3374
10415SOL    HW234523   9.801  10.202   6.035 -2.4814 -0.0438  1.0337
10416SOL     OW34524   8.687   7.374   1.231  0.2726  0.1161 -0.1987
10416SOL    HW134525   8.695   7.283   1.259 -0.5876 -0.8873 -2.8726
10416SOL    HW234526   8.766   7.416   1.264  1.2017 -1.8619  0.2435
10417SOL     OW34527  10.012   8.949   4.817  0.1252 -0.2261  0.7032
10417SOL    HW134528  10.033   8.926   4.727  1.5945 -1.1907  1.2601
10417SOL    HW234529   9.944   8.886   4.842 -2.1796  1.6205 -0.4539
10418SOL     OW34530  10.066   8.359  10.587 -0.1623  0.0373 -0.6103
10418SOL    HW134531  10.124   8.385  10.515  2.1311  0.3147  1.2122
10418SOL    HW234532  10.090   8.418  10.659 -1.6835 -0.8518  0.6860
10419SOL     OW34533   1.985   6.881   6.395 -0.4873 -0.5086 -0.6673
10419SOL    HW134534   2.070   6.839   6.380  1.0207  1.3215  1.9806
10419SOL    HW234535   1.979   6.890   6.490 -3.0250  0.6899 -0.8627
10420SOL     OW34536   2.138   9.229  10.415  0.5995 -0.0059  0.2436
10420SOL    HW134537   2.064   9.225  10.475  0.9548 -1.1578  0.6321
10420SOL    HW234538   2.148   9.322  10.396 -1.1486  0.1417 -0.0848
10421SOL     OW34539   9.822  10.466   4.538  0.7531 -0.2390 -0.1541
10421SOL    HW134540   9.854  10.534   4.598  2.7342 -0.8777 -0.4222
10421SOL    HW234541   9.749  10.508   4.491  0.9088  1.1595  0.7992
10422SOL     OW34542   7.787   9.466   6.250 -0.3533  0.3148  0.0662
10422SOL    HW134543   7.815   9.490   6.162  2.4399  2.4119  1.3959
10422SOL    HW234544   7.762   9.549   6.291  0.3211 -0.3180  1.8590
10423SOL     OW34545   8.331   4.890   9.966 -0.3703 -0.5823 -0.0947
10423SOL    HW134546   8.316   4.801   9.934  1.5637 -0.8699 -0.3346
10423SOL    HW234547   8.266   4.902  10.035 -1.2415 -1.8490 -0.6615
10424SOL     OW34548   8.836   8.841   6.777  0.0014 -0.0435  0.0881
10424SOL    HW134549   8.843   8.747   6.793  1.5973  0.4063  2.4602
10424SOL    HW234550   8.894   8.881   6.841  0.9159  2.5027 -2.1410
10425SOL     OW34551   3.196   4.975   9.605  0.7694 -0.0283 -0.2806
10425SOL    HW134552   3.270   4.999   9.660 -0.0213  0.6656  0.5140
10425SOL    HW234553   3.201   4.880   9.598  0.5121 -0.2320  1.6105
10426SOL     OW34554   7.874   1.811   0.934 -0.5853 -0.1563 -0.6013
10426SOL    HW134555   7.894   1.862   1.012 -1.5236 -0.3819 -0.2043
10426SOL    HW234556   7.886   1.872   0.861 -1.2131  0.4953 -0.1652
10427SOL     OW34557   8.808   0.740   7.012 -0.1056 -0.9473  0.1314
10427SOL    HW134558   8.756   0.780   6.941 -1.9203 -2.3920  0.5673
10427SOL    HW234559   8.891   0.787   7.010 -1.0008  0.6963 -1.3761
10428SOL     OW34560   5.559   6.822   8.832  0.4729  0.2184  0.0307
10428SOL    HW134561   5.527   6.902   8.790  0.5327  0.1884 -0.0740
10428SOL    HW234562   5.615   6.853   8.904  0.3178  0.2706  0.1293
10429SOL     OW34563   2.545   5.265   0.647 -0.0169 -0.6992  0.0598
10429SOL    HW134564   2.611   5.232   0.585 -0.2445 -1.6704  0.3249
10429SOL    HW234565   2.590   5.337   0.693 -0.0617  0.4987 -1.6739
10430SOL     OW34566   4.483   7.088   6.564  0.0324 -0.0151 -0.3030
10430SOL    HW134567   4.420   7.023   6.532 -1.2207  1.2131 -0.4063
10430SOL    HW234568   4.432   7.168   6.574  1.0961  0.4765  1.7399
10431SOL     OW34569   1.932   1.284   5.871  0.5249 -0.7219  0.3039
10431SOL    HW134570   1.991   1.284   5.947  1.3638 -3.9066 -0.1967
10431SOL    HW234571   1.974   1.343   5.809  2.1645 -1.3746  0.7293
10432SOL     OW34572   2.970   4.247   4.514 -0.0598 -0.8183 -0.3771
10432SOL    HW134573   2.880   4.265   4.485  0.3864 -1.2342 -2.1429
10432SOL    HW234574   2.972   4.152   4.526  0.3178 -0.8969 -1.0226
10433SOL     OW34575   0.503   0.944  11.099 -0.1588 -0.2288 -0.0489
10433SOL    HW134576   0.532   0.903  11.018 -0.4928  0.4445 -0.5206
10433SOL    HW234577   0.570   0.921  11.163 -0.2048 -1.2849 -0.3548
10434SOL     OW34578   3.898   7.185   6.700  0.1831  0.4398 -0.1622
10434SOL    HW134579   3.993   7.198   6.703  0.1870  0.5851 -0.8043
10434SOL    HW234580   3.869   7.197   6.791  0.7048  0.9467 -0.0609
10435SOL     OW34581   2.216   6.510   6.722 -0.3577 -0.0815  1.0518
10435SOL    HW134582   2.132   6.476   6.752 -0.3507 -0.4685  0.6457
10435SOL    HW234583   2.229   6.469   6.637  0.1744  0.0898  1.0489
10436SOL     OW34584   0.488   3.893   0.083 -0.5208 -0.0341  0.0224
10436SOL    HW134585   0.543   3.831   0.132  0.8078  1.8743  1.0799
10436SOL    HW234586   0.400   3.857   0.088  0.1096 -1.5044  1.1452
10437SOL     OW34587   7.518  10.133   7.131 -0.7274  0.1291 -0.4461
10437SOL    HW134588   7.484  10.100   7.047  0.2597  1.4593 -1.4138
10437SOL    HW234589   7.443  10.178   7.170 -1.0595 -0.0486 -0.8611
10438SOL     OW34590   1.804   2.869   4.990 -0.5196 -0.2369  0.0592
10438SOL    HW134591   1.859   2.800   4.952  0.9937  0.4336  0.9416
10438SOL    HW234592   1.748   2.824   5.052 -0.2079 -0.8069 -0.0677
10439SOL     OW34593   6.077   0.841  10.429  0.3080  0.2732  0.4339
10439SOL    HW134594   6.055   0.794  10.349  0.3234 -0.3445  0.7778
10439SOL    HW234595   6.012   0.911  10.435  0.6952  0.7160 -0.4349
10440SOL     OW34596   4.436   8.866   8.116 -0.1806  0.0530 -0.0304
10440SOL    HW134597   4.463   8.889   8.028 -0.9787  0.2170 -0.2411
10440SOL    HW234598   4.511   8.819   8.153 -0.2773 -1.0413 -1.1899
10441SOL     OW34599   2.055   9.566   3.956 -0.5149  0.2262 -0.0762
10441SOL    HW134600   2.013   9.623   3.891  1.4103 -1.0002 -2.5428
10441SOL    HW234601   1.996   9.491   3.963  0.5778 -0.9751 -2.6828
10442SOL     OW34602   3.454  10.740   1.055  0.2973 -0.0843  0.5068
10442SOL    HW134603   3.373  10.738   1.106  1.9319  1.4992  3.4669
10442SOL    HW234604   3.452  10.824   1.010 -0.7627 -1.1316 -1.5534
10443SOL     OW34605   3.065   0.388   2.132  0.1770  0.6489  0.4347
10443SOL    HW134606   3.064   0.310   2.076 -3.6949 -1.5488  3.0332
10443SOL    HW234607   2.978   0.426   2.120  0.4800  2.0905  2.3546
10444SOL     OW34608   2.055   2.817   6.608 -0.2760  0.1044  0.3443
10444SOL    HW134609   2.122   2.866   6.655 -0.3536  0.1002  0.4600
10444SOL    HW234610   2.002   2.776   6.677 -0.8768  0.7442  0.2694
10445SOL     OW34611   8.113   9.726   0.386 -0.2796  0.2922 -0.0140
10445SOL    HW134612   8.047   9.773   0.335 -0.3759  1.9758  1.5596
10445SOL    HW234613   8.089   9.634   0.378 -1.3568  0.6741 -1.4688
10446SOL     OW34614   9.298   6.513   6.053 -0.5301 -0.0206  0.1623
10446SOL    HW134615   9.370   6.450   6.052 -0.7816 -0.3383  1.0626
10446SOL    HW234616   9.247   6.493   5.974 -0.1002 -0.3442 -0.0355
10447SOL     OW34617   9.618   6.308   3.018 -0.9221  0.1906 -0.5288
10447SOL    HW134618   9.609   6.370   2.945  0.5261 -0.4087 -1.2587
10447SOL    HW234619   9.656   6.361   3.089 -1.3614  0.5394 -0.5495
10448SOL     OW34620   0.319  11.297   9.666  0.3453  0.1874  0.0692
10448SOL    HW134621   0.298  11.374   9.720 -0.3991 -0.9208  1.4424
10448SOL    HW234622   0.415  11.297   9.660  0.3143  2.5493 -2.0595
10449SOL     OW34623   8.316   7.365  10.421  0.0498  0.1361 -0.4612
10449SOL    HW134624   8.320   7.434  10.487 -0.2246  0.9512 -1.2609
10449SOL    HW234625   8.340   7.285  10.467 -1.5051  0.4293  0.9550
10450SOL     OW34626   5.807   7.254   0.371  0.6230 -0.4309 -0.1952
10450SOL    HW134627   5.791   7.349   0.373  1.2574 -0.3125 -0.5003
10450SOL    HW234628   5.725   7.215   0.400  0.6638  0.2446  0.8415
10451SOL     OW34629   5.910   9.324  10.448  1.0368  0.1014  0.3173
10451SOL    HW134630   5.945   9.240  10.477 -0.4344 -1.6386 -2.5044
10451SOL    HW234631   5.960   9.345  10.370 -0.3676  0.4391 -0.5281
10452SOL     OW34632   2.803  10.581   2.601  0.4877 -0.9015 -0.0004
10452SOL    HW134633   2.894  10.596   2.629  0.4189  1.1799 -0.7493
10452SOL    HW234634   2.805  10.492   2.564  2.4315 -0.5995 -0.7744
10453SOL     OW34635   4.001  10.632   5.295  0.1327  0.1410 -0.2942
10453SOL    HW134636   4.079  10.579   5.278  0.8281  1.3916 -1.1200
10453SOL    HW234637   3.959  10.642   5.209 -0.5969  0.0207  0.0373
10454SOL     OW34638   1.934   7.815   2.181 -0.2976  0.8225  0.8739
10454SOL    HW134639   1.897   7.810   2.093  0.9928  0.7719  0.3178
10454SOL    HW234640   2.016   7.864   2.171  1.4905 -1.8361  1.4767
10455SOL     OW34641   0.816  11.277   6.234 -0.8813 -0.1454  0.4888
10455SOL    HW134642   0.826  11.355   6.178  0.3255 -0.1317  0.6990
10455SOL    HW234643   0.808  11.312   6.323 -2.2912 -0.1914  0.4010
10456SOL     OW34644   7.238   2.197   7.934 -0.1083 -0.0123 -0.1887
10456SOL    HW134645   7.158   2.144   7.931  0.6251 -1.1315 -0.5341
10456SOL    HW234646   7.223   2.259   8.005 -0.7026 -1.1761  0.7347
10457SOL     OW34647   5.099   2.348   9.385 -0.0711 -0.0074 -0.0645
10457SOL    HW134648   5.185   2.376   9.356  0.1283 -0.1235  0.4014
10457SOL    HW234649   5.062   2.425   9.428  0.9552 -0.7174  2.2926
10458SOL     OW34650   1.875   1.844   8.524 -0.3062  0.0177 -0.1901
10458SOL    HW134651   1.921   1.788   8.587 -0.5123  0.0028 -0.0507
10458SOL    HW234652   1.880   1.796   8.441 -1.5779 -0.8272  0.1898
10459SOL     OW34653  11.388   2.240   2.865  0.3445  0.2933  0.7134
10459SOL    HW134654  11.461   2.245   2.803 -0.2357  0.8140  0.0635
10459SOL    HW234655  11.406   2.311   2.928  0.1355  0.7474  0.2639
10460SOL     OW34656   4.297   0.797   4.040 -0.0997 -0.4520  0.0926
10460SOL    HW134657   4.358   0.731   4.072 -0.3491  0.1731  1.9424
10460SOL    HW234658   4.211   0.758   4.050 -0.1742 -0.3095  0.0171
10461SOL     OW34659   6.471   9.021   8.355  0.3712  0.0440  0.8549
10461SOL    HW134660   6.523   8.961   8.302  4.3141  1.4463  2.7630
10461SOL    HW234661   6.437   8.967   8.426  1.4296 -0.4718  0.9871
10462SOL     OW34662   6.506   7.953   7.746  0.6852 -0.8640  0.1219
10462SOL    HW134663   6.541   7.931   7.832  0.3256  0.9304  0.7791
10462SOL    HW234664   6.415   7.923   7.748  0.8802 -1.4564  0.1013
10463SOL     OW34665   3.428   6.636   5.393 -0.0026 -0.2322  0.1720
10463SOL    HW134666   3.486   6.615   5.320 -1.3463  0.7462 -1.2252
10463SOL    HW234667   3.415   6.730   5.388 -0.3617 -0.1842  1.5115
10464SOL     OW34668   5.460   7.764   9.431 -0.2335 -0.2987  0.5481
10464SOL    HW134669   5.461   7.857   9.406 -2.4469 -0.5611 -0.7977
10464SOL    HW234670   5.499   7.719   9.356  0.7097 -0.4954  1.1416
10465SOL     OW34671   6.660  11.284   6.433  0.5116  0.0915 -0.1719
10465SOL    HW134672   6.587  11.302   6.373  0.7758 -0.0423 -0.5332
10465SOL    HW234673   6.698  11.202   6.401 -0.4218 -0.9257  1.2097
10466SOL     OW34674   9.957   2.861   1.293  0.3074 -0.0149  0.0964
10466SOL    HW134675   9.927   2.814   1.371 -0.3979  0.1665 -0.0571
10466SOL    HW234676   9.882   2.915   1.267  0.2683 -0.6135 -1.1262
10467SOL     OW34677  10.426   0.991  10.967  0.2475  0.4747 -0.2512
10467SOL    HW134678  10.519   0.972  10.978 -0.2980 -2.2345  0.5322
10467SOL    HW234679  10.416   1.014  10.875  1.5602 -0.2279 -0.5943
10468SOL     OW34680   3.822   6.518   3.652 -0.2797 -0.0398  0.1355
10468SOL    HW134681   3.909   6.482   3.637  0.6555  1.7597  0.9155
10468SOL    HW234682   3.825   6.552   3.742 -0.7196  2.7844 -0.8152
10469SOL     OW34683   0.253   5.356   7.999  0.2923  0.1583  0.7253
10469SOL    HW134684   0.180   5.418   7.988  0.2258  0.1976  1.3889
10469SOL    HW234685   0.213   5.280   8.041  0.0799 -0.9145 -1.2940
10470SOL     OW34686   9.428   5.945   0.468  0.5904  0.2747  0.1409
10470SOL    HW134687   9.395   5.870   0.517  0.3078  0.5078  0.3084
10470SOL    HW234688   9.375   5.948   0.389  1.9232 -0.9125 -0.8590
10471SOL     OW34689   4.847   4.674   2.104 -0.4133  0.0626  0.3664
10471SOL    HW134690   4.813   4.598   2.056  1.3615 -0.2637 -0.4541
10471SOL    HW234691   4.907   4.716   2.043 -0.8284  1.7539  1.0619
10472SOL     OW34692   4.766   1.530   7.628 -0.4964 -0.0857 -0.0581
10472SOL    HW134693   4.830   1.515   7.558  0.8847 -0.8846  1.3314
10472SOL    HW234694   4.688   1.483   7.599 -0.4004  0.6565 -1.6437
10473SOL     OW34695   7.058  10.719   9.755  0.0958  0.2544 -0.2367
10473SOL    HW134696   7.050  10.814   9.765 -0.1367  0.3907 -1.5211
10473SOL    HW234697   7.106  10.708   9.674 -3.5710 -0.6983 -2.5275
10474SOL     OW34698   0.299   2.905   7.132  0.4361 -0.2069 -0.2390
10474SOL    HW134699   0.363   2.975   7.119  1.0879 -0.7599 -0.0244
10474SOL    HW234700   0.328   2.861   7.212  0.4118 -1.1396 -0.7377
10475SOL     OW34701   6.827   1.291  11.025  0.2450  0.3339 -0.0861
10475SOL    HW134702   6.916   1.322  11.039 -0.2077  1.5467  0.2947
10475SOL    HW234703   6.835   1.218  10.964  1.3923  1.1624 -0.9542
10476SOL     OW34704   1.236   2.732   2.774  0.0879 -0.1328  0.0610
10476SOL    HW134705   1.204   2.651   2.812 -1.0995  0.6069  0.7101
10476SOL    HW234706   1.157   2.786   2.762  1.0170  1.5792  1.2460
10477SOL     OW34707   6.097   4.234  10.997 -0.0813  1.1520 -0.1909
10477SOL    HW134708   6.104   4.141  10.974 -1.1354  0.9398  0.2831
10477SOL    HW234709   6.029   4.268  10.938 -0.5581  1.3336  0.4551
10478SOL     OW34710   1.150   1.773   4.883  0.2230 -0.3296 -0.5303
10478SOL    HW134711   1.235   1.729   4.874 -0.2736 -1.0906 -1.6243
10478SOL    HW234712   1.098   1.712   4.936 -0.1369 -0.5891 -1.1806
10479SOL     OW34713  10.862   0.955   7.479  0.2626 -0.0216 -0.6406
10479SOL    HW134714  10.858   0.865   7.446 -0.7243  0.0140 -0.6496
10479SOL    HW234715  10.857   0.946   7.574  2.6466 -0.0960 -0.4470
10480SOL     OW34716   5.865   9.997   4.278  0.2509 -0.2354 -0.4426
10480SOL    HW134717   5.832   9.907   4.271  1.0667 -0.5618 -0.2954
10480SOL    HW234718   5.960   9.986   4.288  0.3216  0.6319 -0.0922
10481SOL     OW34719   0.534   9.109   3.670  0.8711 -0.6574  0.1139
10481SOL    HW134720   0.517   9.129   3.578  0.8165 -1.2125  0.0033
10481SOL    HW234721   0.548   9.195   3.710 -1.3759 -0.1905  0.0443
10482SOL     OW34722   8.484   3.867   5.918 -0.0520 -0.2140 -0.1938
10482SOL    HW134723   8.533   3.921   5.980 -0.7370  0.7555 -0.4662
10482SOL    HW234724   8.511   3.899   5.832 -0.5473 -0.2187 -0.3554
10483SOL     OW34725   4.928   7.763   2.451 -0.0329  0.4803  0.1406
10483SOL    HW134726   4.927   7.838   2.393 -1.1498  0.5455  0.2148
10483SOL    HW234727   4.927   7.687   2.392  0.7394  0.5193  0.0696
10484SOL     OW34728   9.462   6.091   9.247  0.1418  0.2505  0.1478
10484SOL    HW134729   9.390   6.077   9.309  0.4043 -0.1221  0.3739
10484SOL    HW234730   9.534   6.038   9.281  0.2634 -0.0256 -0.5184
10485SOL     OW34731   1.835   3.269  10.441 -0.2134 -0.3284  0.5858
10485SOL    HW134732   1.913   3.214  10.438 -1.3353 -2.0643  1.1747
10485SOL    HW234733   1.852   3.331  10.512  0.3989 -1.1016  1.1389
10486SOL     OW34734  11.242   2.045   9.532  0.0498  0.3226 -0.3170
10486SOL    HW134735  11.174   2.006   9.477  0.6579 -0.3047 -0.6414
10486SOL    HW234736  11.309   1.977   9.539  1.6196  1.6452 -1.7500
10487SOL     OW34737   1.162   0.076   6.903 -0.2337 -0.3034 -0.1714
10487SOL    HW134738   1.150   0.159   6.857  0.2614 -0.6735 -0.9805
10487SOL    HW234739   1.151   0.099   6.995 -0.6670  0.5547 -0.4214
10488SOL     OW34740   9.377   6.009   9.751  0.3677 -0.1344 -0.2800
10488SOL    HW134741   9.356   5.936   9.692  2.3175 -1.6556  0.7784
10488SOL    HW234742   9.469   6.028   9.732  0.4618  0.6696  0.9197
10489SOL     OW34743   5.467   5.544   5.801 -0.7492  0.2158  0.2111
10489SOL    HW134744   5.376   5.562   5.823 -0.6960 -1.1389  1.7211
10489SOL    HW234745   5.470   5.549   5.706 -1.4069  4.6165  0.2378
10490SOL     OW34746   1.068   8.930   3.609 -0.4105  0.1211 -0.0983
10490SOL    HW134747   1.016   8.945   3.688  0.4617 -1.5936  0.8662
10490SOL    HW234748   1.013   8.875   3.554 -0.1184 -0.6848  0.3935
10491SOL     OW34749   3.992   3.568   4.769  0.5713 -0.0579 -0.1214
10491SOL    HW134750   4.077   3.572   4.725  0.1225  0.7218 -0.9746
10491SOL    HW234751   3.933   3.532   4.702 -0.1997  1.4818 -0.3238
10492SOL     OW34752   2.706   6.968   9.204 -0.3080  0.1032 -0.5059
10492SOL    HW134753   2.632   7.020   9.174 -1.4005 -1.2387 -0.2077
10492SOL    HW234754   2.667   6.897   9.255  1.3028  0.5921  1.5349
10493SOL     OW34755   0.011   6.206   9.747 -0.3073 -0.0376 -0.0650
10493SOL    HW134756   0.071   6.177   9.816  2.0438  0.0839 -1.9422
10493SOL    HW234757   0.058   6.187   9.665 -2.3577  1.1798 -1.6040
10494SOL     OW34758   5.665   8.797   0.465  0.4230 -0.3491  0.4217
10494SOL    HW134759   5.610   8.870   0.433  1.3647  0.6765  1.0712
10494SOL    HW234760   5.619   8.765   0.542 -1.3177 -2.1535 -1.2506
10495SOL     OW34761   0.852   5.331   8.325  0.2492  0.7269 -0.3264
10495SOL    HW134762   0.932   5.331   8.377 -0.0198 -1.0653  0.1593
10495SOL    HW234763   0.882   5.335   8.235  0.9599 -0.7854 -0.1907
10496SOL     OW34764   4.092   8.838   7.865  0.0265  0.1975  0.5345
10496SOL    HW134765   4.093   8.925   7.903  1.6165  0.3697  0.1487
10496SOL    HW234766   4.015   8.839   7.807 -0.6193  0.9398  1.3694
10497SOL     OW34767   9.346   3.963   6.693  0.3864 -0.7837  0.1697
10497SOL    HW134768   9.315   4.046   6.656  1.2109 -0.6918 -0.3417
10497SOL    HW234769   9.421   3.939   6.639  0.0045 -2.0037  0.1484
10498SOL     OW34770  10.312   8.753   7.608  0.2936 -0.1991 -0.0644
10498SOL    HW134771  10.367   8.675   7.622 -0.3328 -0.5587  0.4673
10498SOL    HW234772  10.226   8.717   7.586  0.0164  0.3481  0.1264
10499SOL     OW34773  10.996   0.312   8.556 -0.2754 -0.2636  0.6720
10499SOL    HW134774  11.059   0.250   8.519 -1.4854 -1.5076  0.5913
10499SOL    HW234775  10.939   0.335   8.482 -0.6267 -0.0817  0.9953
10500SOL     OW34776   2.925   6.885   8.543  0.3385  0.1281  0.0624
10500SOL    HW134777   2.852   6.891   8.480  0.8611  0.9113 -0.4874
10500SOL    HW234778   2.887   6.913   8.626 -0.8366 -2.6099  0.5590
10501SOL     OW34779   9.035   9.485   6.353 -0.0515  0.3867 -0.2647
10501SOL    HW134780   9.034   9.429   6.431 -0.8164  0.0958 -0.4775
10501SOL    HW234781   9.125   9.479   6.321  0.2182  0.3413  0.4723
10502SOL     OW34782   2.087   0.286   6.126 -0.0352 -0.3233 -0.1695
10502SOL    HW134783   2.124   0.374   6.134 -0.3373 -0.1795 -0.3334
10502SOL    HW234784   2.010   0.288   6.183  0.1206 -0.5726  0.0496
10503SOL     OW34785   2.782   0.139   8.864 -0.9812 -0.0057  0.1739
10503SOL    HW134786   2.718   0.081   8.906  0.2476 -1.6618 -0.1331
10503SOL    HW234787   2.815   0.193   8.935 -2.1312  0.3168  0.4840
10504SOL     OW34788   7.394   5.418   5.069 -0.0268  0.4124  0.0925
10504SOL    HW134789   7.412   5.410   4.975 -0.0637 -0.4132  0.1495
10504SOL    HW234790   7.328   5.351   5.086  0.8342 -0.2291  0.9357
10505SOL     OW34791   2.546   1.120  10.540  0.4023 -0.0243 -0.6447
10505SOL    HW134792   2.456   1.091  10.559  0.3875 -0.3298 -1.1571
10505SOL    HW234793   2.600   1.075  10.605  0.6350 -2.8904 -2.6437
10506SOL     OW34794   1.564   6.845   9.879 -0.2505 -0.4659 -0.4610
10506SOL    HW134795   1.539   6.774   9.820 -0.4515  0.4158 -1.4741
10506SOL    HW234796   1.522   6.923   9.842  1.3290  0.4836 -0.3842
10507SOL     OW34797   0.446   7.674   2.512  0.2379 -0.0593 -0.4701
10507SOL    HW134798   0.439   7.749   2.570 -1.4449 -2.6006  2.9932
10507SOL    HW234799   0.538   7.647   2.520  0.3103  0.3229  0.0778
10508SOL     OW34800   3.950   0.016   5.411 -0.5100 -0.2406 -0.1684
10508SOL    HW134801   3.894   0.060   5.475 -0.2534 -1.1716  0.7088
10508SOL    HW234802   4.020   0.078   5.394 -0.6982  0.1019  0.2851
10509SOL     OW34803   9.182   8.176   9.628 -0.0452 -0.1353 -0.0777
10509SOL    HW134804   9.197   8.138   9.542  0.4731  0.7666 -0.3961
10509SOL    HW234805   9.263   8.159   9.677 -0.9482 -2.1760  0.8527
10510SOL     OW34806   1.507   4.185   1.408 -0.8552 -0.0096  0.8286
10510SOL    HW134807   1.533   4.277   1.416  1.4886 -0.6855  1.5951
10510SOL    HW234808   1.455   4.168   1.486  2.3374 -0.3791  3.0890
10511SOL     OW34809   9.401   0.829   0.069  0.3317  0.0637  0.2662
10511SOL    HW134810   9.485   0.784   0.077  0.2159 -0.2231 -0.1079
10511SOL    HW234811   9.372   0.843   0.159  0.6921 -0.0010  0.3927
10512SOL     OW34812   1.400   3.376   0.674  0.2303 -0.4575  0.5273
10512SOL    HW134813   1.430   3.461   0.708  0.7360 -1.0013  1.4949
10512SOL    HW234814   1.306   3.374   0.693  0.3609 -0.4243  1.1886
10513SOL     OW34815  10.146   2.743   2.046  0.1705 -0.0360  0.1970
10513SOL    HW134816  10.197   2.715   1.970 -1.4238 -0.1306 -0.8708
10513SOL    HW234817  10.151   2.668   2.106  2.1801  0.3849  0.6121
10514SOL     OW34818   3.901   0.851   9.368 -0.7441 -0.0624  0.5995
10514SOL    HW134819   3.833   0.828   9.432 -0.8036 -0.7212  0.3025
10514SOL    HW234820   3.867   0.819   9.285  0.2949 -1.1651  0.5676
10515SOL     OW34821   0.364   1.658   5.166 -0.8954  0.7515 -0.0826
10515SOL    HW134822   0.447   1.700   5.189  0.6182 -1.5445 -0.9598
10515SOL    HW234823   0.317   1.649   5.249  0.6061  0.4068  0.7662
10516SOL     OW34824   5.657  10.557   1.925  0.1037  0.4789  0.3767
10516SOL    HW134825   5.591  10.490   1.939 -0.8331  1.4200  0.6155
10516SOL    HW234826   5.737  10.509   1.907 -0.7350 -0.6895 -0.3397
10517SOL     OW34827   1.906   2.818   0.792  0.1159  0.5597 -0.5297
10517SOL    HW134828   1.849   2.849   0.722  0.4358 -0.1750 -1.1278
10517SOL    HW234829   1.845   2.784   0.859 -0.1709 -0.7716 -1.4221
10518SOL     OW34830   0.758   6.682   1.785 -0.0980  0.1046  0.0946
10518SOL    HW134831   0.722   6.677   1.874  0.3751  0.9844  0.3532
10518SOL    HW234832   0.723   6.764   1.750  1.4406  0.8774  0.2752
10519SOL     OW34833   8.954  10.460  10.675  0.3932  0.3573 -0.6339
10519SOL    HW134834   8.918  10.536  10.630 -2.8513 -1.2393 -1.0502
10519SOL    HW234835   8.944  10.388  10.612  1.9758 -0.7066  0.2592
10520SOL     OW34836   7.100   1.391   3.426  0.4207 -0.3215  0.8107
10520SOL    HW134837   7.024   1.389   3.368 -0.1884  0.2317  1.5639
10520SOL    HW234838   7.141   1.476   3.410  2.0735 -1.3898 -1.0370
10521SOL     OW34839   9.464   9.931   8.307 -0.1314 -0.3285 -0.1586
10521SOL    HW134840   9.442   9.846   8.270 -0.4709  0.0639 -0.8777
10521SOL    HW234841   9.417   9.933   8.391  0.1994 -1.0008  0.0500
10522SOL     OW34842   1.119   2.800   1.027  0.0911  0.1747  0.6453
10522SOL    HW134843   1.207   2.765   1.015 -0.3297 -1.0308  0.9499
10522SOL    HW234844   1.073   2.779   0.946  0.0125  0.6169  0.5705
10523SOL     OW34845   6.681   2.545   8.829 -0.0220 -0.1287 -0.1874
10523SOL    HW134846   6.765   2.523   8.869  0.5623  2.1899  0.0349
10523SOL    HW234847   6.705   2.587   8.746 -1.0579 -1.0051 -0.9485
10524SOL     OW34848   8.973   5.066   7.922  0.2978 -0.3707  0.6447
10524SOL    HW134849   8.953   4.983   7.879 -2.0753  0.4099  0.1204
10524SOL    HW234850   9.046   5.102   7.870 -0.3697 -0.9483 -0.7454
10525SOL     OW34851   0.380  11.124   7.248 -0.3031 -0.0811 -0.1809
10525SOL    HW134852   0.291  11.124   7.212  0.0787 -0.8968 -1.1816
10525SOL    HW234853   0.382  11.199   7.307 -1.2002  0.9104 -1.3487
10526SOL     OW34854  10.132   6.759  10.177  0.0393 -0.5080 -0.2758
10526SOL    HW134855  10.045   6.720  10.171 -0.5263  0.6372  0.2235
10526SOL    HW234856  10.126   6.821  10.250  1.3811 -0.6886  0.0225
10527SOL     OW34857   8.034  11.066   7.483 -0.2566 -0.3886  0.3678
10527SOL    HW134858   8.006  11.155   7.461  1.6253 -0.6303 -4.1350
10527SOL    HW234859   7.972  11.009   7.437  0.7703 -1.2413  0.0028
10528SOL     OW34860  10.333   7.940   5.413 -0.1474  0.1241 -0.2682
10528SOL    HW134861  10.359   7.984   5.332  1.1059  0.9011  0.5144
10528SOL    HW234862  10.261   7.994   5.447 -1.7422 -1.0786 -1.5983
10529SOL     OW34863   2.188   7.417   1.082 -0.2172  0.7517 -0.3797
10529SOL    HW134864   2.273   7.443   1.118 -0.0432  1.4118 -1.2215
10529SOL    HW234865   2.134   7.496   1.090 -1.3366 -0.1484  1.7593
10530SOL     OW34866  11.048   5.730  10.061 -0.4419 -0.6338 -0.6151
10530SOL    HW134867  11.093   5.800  10.014 -1.4038  0.7455  0.4454
10530SOL    HW234868  10.957   5.758  10.066 -0.1385  0.2720  3.5736
10531SOL     OW34869   3.626   6.643   2.435  0.6166  0.3367  0.1934
10531SOL    HW134870   3.701   6.620   2.490  0.6701 -0.0419 -0.0342
10531SOL    HW234871   3.592   6.560   2.404 -0.1799  0.4884  0.6474
10532SOL     OW34872   5.640   5.502   3.916 -0.3382 -0.5291 -0.1041
10532SOL    HW134873   5.574   5.548   3.863 -1.4378 -0.9049  0.8951
10532SOL    HW234874   5.723   5.541   3.890 -1.1298  1.3185 -0.0332
10533SOL     OW34875   6.031   3.023   3.668 -0.2986  0.4762  0.7561
10533SOL    HW134876   6.032   2.955   3.735  2.0086 -1.3580 -0.9682
10533SOL    HW234877   5.989   2.982   3.593 -1.7643  2.0980  0.6188
10534SOL     OW34878   4.724   2.037   4.798 -0.1246 -0.0433 -0.5474
10534SOL    HW134879   4.787   1.980   4.842 -1.6308 -0.5118  1.1065
10534SOL    HW234880   4.775   2.115   4.774  1.0440 -0.2970  0.9618
10535SOL     OW34881   2.356   1.631  10.076  0.0941 -0.5555 -0.0142
10535SOL    HW134882   2.407   1.550  10.076 -0.0947 -0.6928 -1.2750
10535SOL    HW234883   2.419   1.699  10.054 -0.0385 -0.5621 -0.4109
10536SOL     OW34884   4.505   4.556   8.681 -0.5650  0.0887 -0.2070
10536SOL    HW134885   4.562   4.609   8.736 -0.5195 -0.5427  0.3665
10536SOL    HW234886   4.417   4.576   8.712 -0.5959  0.3638 -0.4696
10537SOL     OW34887   5.795   2.658  10.484  0.1348 -0.5228 -0.3454
10537SOL    HW134888   5.759   2.747  10.488 -0.1320 -0.6659  0.6408
10537SOL    HW234889   5.798   2.638  10.390  0.1372  0.4940 -0.5827
10538SOL     OW34890  10.580   4.752   1.000 -0.4409 -0.6103  0.3312
10538SOL    HW134891  10.516   4.718   1.062 -0.6996  1.1716  1.1028
10538SOL    HW234892  10.660   4.764   1.051 -0.2686 -0.3558  0.0067
10539SOL     OW34893   6.192   9.891   1.572  0.2503 -0.2033  0.5160
10539SOL    HW134894   6.156   9.950   1.506  1.4819  0.9741  0.8374
10539SOL    HW234895   6.167   9.804   1.544 -0.4462  0.3794 -0.7380
10540SOL     OW34896   4.398   4.234   9.111  0.3909  0.1146  0.8351
10540SOL    HW134897   4.443   4.263   9.031  1.6428 -0.0742  1.4353
10540SOL    HW234898   4.388   4.139   9.099 -0.8811  0.3119  0.2207
10541SOL     OW34899   5.507   1.994   6.944 -0.1815  0.5365  0.1581
10541SOL    HW134900   5.544   1.968   7.028  0.8113 -0.2831 -0.5145
10541SOL    HW234901   5.412   1.980   6.954  0.0488 -0.7712  0.7230
10542SOL     OW34902   8.332   6.050   2.765 -0.0525 -0.0911  0.5220
10542SOL    HW134903   8.278   6.003   2.829 -0.9594  2.3907  1.7094
10542SOL    HW234904   8.404   6.086   2.817 -0.4484  1.4284  0.0494
10543SOL     OW34905   9.945   4.579   3.156  0.0259  0.3646 -0.2545
10543SOL    HW134906  10.028   4.553   3.116  0.3271  0.8427  0.0528
10543SOL    HW234907   9.878   4.554   3.091  0.3841 -0.2306 -0.4026
10544SOL     OW34908   0.333   6.443   9.926 -0.1747 -0.0391 -0.0824
10544SOL    HW134909   0.264   6.442   9.991 -0.0964 -0.5534 -0.0018
10544SOL    HW234910   0.298   6.495   9.854 -0.9692 -0.9875 -0.3937
10545SOL     OW34911  10.692  10.590  10.931 -0.4977  0.2153 -0.1067
10545SOL    HW134912  10.657  10.521  10.875  1.2011 -0.3206 -0.5715
10545SOL    HW234913  10.641  10.584  11.012 -1.0982 -0.8632 -0.5536
10546SOL     OW34914  10.811   6.306  11.373 -0.2813 -0.5504 -0.0531
10546SOL    HW134915  10.894   6.267  11.343 -1.3133 -1.6329 -1.6446
10546SOL    HW234916  10.770   6.338  11.292 -0.4130  2.0962  0.9578
10547SOL     OW34917   0.978   0.527   3.576 -0.0661  0.2627  0.0038
10547SOL    HW134918   0.989   0.548   3.669  1.2638  0.7723 -0.2466
10547SOL    HW234919   1.026   0.445   3.564  3.1133  2.0806 -0.9361
10548SOL     OW34920   7.175   0.040   9.177  0.3057  0.1545  0.1905
10548SOL    HW134921   7.136  -0.038   9.217 -1.3413  0.9270  0.1614
10548SOL    HW234922   7.134   0.047   9.091  0.6257  0.9150  0.0871
10549SOL     OW34923  10.299   3.691   6.051 -0.4195  0.1540  0.6617
10549SOL    HW134924  10.244   3.737   5.987 -0.5013 -0.9077 -0.0473
10549SOL    HW234925  10.238   3.667   6.122 -0.8574 -0.8808 -0.0470
10550SOL     OW34926   2.170   6.694  10.544  0.4539  0.3566  0.0318
10550SOL    HW134927   2.164   6.702  10.639  0.7556  1.9081 -0.0572
10550SOL    HW234928   2.243   6.750  10.519  0.1071  0.3143 -1.1629
10551SOL     OW34929   4.886   4.532   6.493 -0.5389  0.5041 -0.3409
10551SOL    HW134930   4.846   4.557   6.409 -0.5402  0.2162 -0.4268
10551SOL    HW234931   4.939   4.608   6.517 -0.3987  0.5212 -0.6910
10552SOL     OW34932   5.322  10.540  10.754 -0.2487 -0.3667 -0.3329
10552SOL    HW134933   5.233  10.531  10.721 -1.6803  1.1694  2.6406
10552SOL    HW234934   5.324  10.486  10.833  1.8250 -1.1436 -0.8419
10553SOL     OW34935   5.445   1.354   0.690  0.2686  0.4281 -0.2167
10553SOL    HW134936   5.535   1.384   0.675 -0.0634  1.3503 -0.4434
10553SOL    HW234937   5.412   1.412   0.759 -0.8949  1.6606 -1.7228
10554SOL     OW34938   1.094   2.841   4.236  0.0677 -0.2929 -0.1275
10554SOL    HW134939   1.185   2.866   4.223 -0.1768 -0.1602 -1.9281
10554SOL    HW234940   1.095   2.745   4.233  0.3528 -0.3919  1.7604
10555SOL     OW34941   9.533   9.478   4.182  0.8006  0.5330  0.7177
10555SOL    HW134942   9.490   9.394   4.196  0.1115  0.7427 -0.0774
10555SOL    HW234943   9.536   9.518   4.269 -0.6972  0.5531  0.7803
10556SOL     OW34944  10.169   9.304   1.295  0.2944  0.0203 -0.5325
10556SOL    HW134945  10.232   9.247   1.250  0.4989 -0.7677  0.7018
10556SOL    HW234946  10.086   9.255   1.290  0.0954  0.3916 -0.9077
10557SOL     OW34947   4.510   4.596   0.504 -0.0952  0.2990  0.3606
10557SOL    HW134948   4.567   4.519   0.502 -0.5195  0.0050 -0.7248
10557SOL    HW234949   4.546   4.650   0.574 -0.4339 -1.3694  1.8984
10558SOL     OW34950   3.544   2.984   9.699 -0.2878  0.3589 -0.3026
10558SOL    HW134951   3.457   3.021   9.714 -1.0515 -1.0744 -1.0270
10558SOL    HW234952   3.589   2.994   9.782 -1.4362  0.3575  0.3397
10559SOL     OW34953   1.962   6.430   8.860 -0.1917  0.1182  0.2421
10559SOL    HW134954   1.910   6.361   8.820  1.8559 -1.0796 -0.5290
10559SOL    HW234955   1.947   6.420   8.954  2.6242 -3.7924  0.5349
10560SOL     OW34956   4.776   8.476  10.937  0.1938 -0.0764 -0.2137
10560SOL    HW134957   4.696   8.494  10.888 -0.1220 -1.5872 -0.2799
10560SOL    HW234958   4.846   8.485  10.872 -0.0639 -0.3633 -0.5317
10561SOL     OW34959   9.016   6.766   5.214  0.2373  0.0856  0.5299
10561SOL    HW134960   9.110   6.762   5.198  0.1642 -2.7647  0.3293
10561SOL    HW234961   8.977   6.768   5.126  0.0708  0.0398  0.6034
10562SOL     OW34962  11.399   9.267   3.368  0.1799 -0.9029 -0.0923
10562SOL    HW134963  11.409   9.296   3.458 -0.0818 -0.7269 -0.1198
10562SOL    HW234964  11.410   9.172   3.372  3.1516 -0.6696 -0.3046
10563SOL     OW34965  10.404   9.710   9.447  0.2012  0.0078  0.0673
10563SOL    HW134966  10.412   9.665   9.363  0.8657 -0.8673  0.5756
10563SOL    HW234967  10.486   9.758   9.456 -0.6489  1.6738 -0.6368
10564SOL     OW34968   9.507   4.981   8.578  0.2420  0.0070  0.2849
10564SOL    HW134969   9.573   5.010   8.515 -0.1227  0.1917 -0.0143
10564SOL    HW234970   9.557   4.934   8.645  0.6990  0.3179  0.1652
10565SOL     OW34971   8.945   3.290   5.531 -0.2977  0.6085 -0.4863
10565SOL    HW134972   9.001   3.215   5.549  1.0586  1.7246  0.0914
10565SOL    HW234973   8.974   3.322   5.446  0.3592  1.5101  0.0527
10566SOL     OW34974  11.123   8.741   1.640 -0.0070  0.0006 -0.1398
10566SOL    HW134975  11.158   8.682   1.708  1.2835 -0.0558 -0.8286
10566SOL    HW234976  11.200   8.787   1.606 -1.0192  2.6836  0.8797
10567SOL     OW34977   5.803   9.312   3.526 -0.6193  0.8842 -0.4493
10567SOL    HW134978   5.757   9.367   3.463 -1.4242 -0.8122 -1.4087
10567SOL    HW234979   5.859   9.256   3.472  0.5886  1.0955  0.5386
10568SOL     OW34980   1.708   9.263  10.135 -0.6067  0.4379 -0.7440
10568SOL    HW134981   1.779   9.292  10.192 -1.2655  2.9503 -1.0988
10568SOL    HW234982   1.678   9.181  10.174  1.7575 -0.1448 -0.0010
10569SOL     OW34983  11.036   5.355  10.348  0.0468  0.0602 -0.0035
10569SOL    HW134984  10.977   5.280  10.358 -0.1135  0.0147 -1.1928
10569SOL    HW234985  11.071   5.346  10.260 -0.3941  1.6762 -0.3766
10570SOL     OW34986   6.615   6.942   4.796  0.3905  0.0794 -0.2464
10570SOL    HW134987   6.647   6.919   4.883 -2.1677 -1.7699  0.3153
10570SOL    HW234988   6.611   6.859   4.749 -0.8092  0.6397 -1.1888
10571SOL     OW34989   2.096   9.860  10.330  0.6215 -0.9840 -0.0118
10571SOL    HW134990   2.184   9.844  10.297  0.1831  0.2662 -1.9405
10571SOL    HW234991   2.087   9.955  10.329 -0.7155 -1.0882  0.2693
10572SOL     OW34992   7.724   5.451   8.089  0.5018 -0.3543 -0.2034
10572SOL    HW134993   7.687   5.528   8.133 -1.0866 -2.2712  2.0857
10572SOL    HW234994   7.746   5.482   8.001 -0.2527  2.6275  0.5315
10573SOL     OW34995   1.345   8.873   0.253 -0.6763 -0.6592 -0.1209
10573SOL    HW134996   1.261   8.831   0.235 -0.1394 -2.5264  1.4255
10573SOL    HW234997   1.408   8.826   0.199 -0.5488  0.5880 -1.1077
10574SOL     OW34998   2.459   4.063   8.406 -0.2239 -0.8515  0.6221
10574SOL    HW134999   2.500   4.051   8.492  0.5632 -0.0891  0.3686
10574SOL    HW235000   2.401   4.138   8.416 -0.1748 -0.7967  0.5045
10575SOL     OW35001   5.133   6.904   1.605  0.0069 -0.0066  0.1939
10575SOL    HW135002   5.174   6.820   1.627 -0.5044  0.2825  2.4392
10575SOL    HW235003   5.050   6.904   1.652 -0.6446  1.2078 -0.8866
10576SOL     OW35004   7.774   7.592  10.909  0.0952  0.2080 -0.5584
10576SOL    HW135005   7.867   7.578  10.893  0.0451  0.3580 -0.9878
10576SOL    HW235006   7.732   7.509  10.887  0.4625 -1.0140  2.7373
10577SOL     OW35007   4.844   7.588   1.264  0.2379 -0.3266  0.8386
10577SOL    HW135008   4.801   7.661   1.309 -1.0107 -0.1306 -0.5818
10577SOL    HW235009   4.933   7.587   1.299 -0.0562  1.1460  1.7286
10578SOL     OW35010  10.905  10.013   4.594  0.1038 -0.0911  0.2700
10578SOL    HW135011  10.923  10.028   4.686 -0.0174 -3.6212  1.0360
10578SOL    HW235012  10.838   9.945   4.594  1.8216 -1.9909 -2.3217
10579SOL     OW35013   9.740   9.455   3.854 -0.2387  0.1082  0.0860
10579SOL    HW135014   9.672   9.521   3.870 -0.3559  0.5983 -2.0867
10579SOL    HW235015   9.792   9.491   3.782  0.2788 -1.7296 -0.5147
10580SOL     OW35016   4.476   6.760   9.883  0.9181 -0.2508 -0.2826
10580SOL    HW135017   4.458   6.688   9.944 -0.0707 -0.4986 -0.8376
10580SOL    HW235018   4.498   6.717   9.801 -0.7168  0.0290 -0.9173
10581SOL     OW35019   1.925   7.875   7.330 -0.1696  0.1022 -0.0044
10581SOL    HW135020   1.940   7.963   7.365  2.7065 -0.2545 -0.0979
10581SOL    HW235021   1.935   7.817   7.405  0.5866 -0.2897 -0.3920
10582SOL     OW35022  10.965   9.185  11.391 -0.1856 -0.4059  0.5771
10582SOL    HW135023  10.959   9.091  11.407  2.0168 -0.8298 -0.6823
10582SOL    HW235024  11.009   9.220  11.469  0.1755 -0.6280  0.4720
10583SOL     OW35025   5.348   2.416   9.276 -0.5133 -0.0728 -0.2310
10583SOL    HW135026   5.403   2.386   9.205 -0.3375 -0.3137  0.0064
10583SOL    HW235027   5.392   2.387   9.356  0.3612  1.9282  0.0810
10584SOL     OW35028   2.844   5.961   1.031 -0.5762 -0.1195  0.1849
10584SOL    HW135029   2.765   5.926   1.072 -0.0939 -0.7365  0.6070
10584SOL    HW235030   2.828   6.055   1.022 -1.9371 -0.4250 -1.0365
10585SOL     OW35031   9.447   3.333   6.544 -0.3106 -0.1270 -0.0033
10585SOL    HW135032   9.512   3.297   6.604 -0.3040 -0.2025 -0.0557
10585SOL    HW235033   9.441   3.425   6.567  0.5517  0.1131 -0.6546
10586SOL     OW35034   3.843   9.006   5.384  0.7793  0.3573  0.0918
10586SOL    HW135035   3.893   9.086   5.393  0.7275  0.6514 -1.8320
10586SOL    HW235036   3.892   8.953   5.322  1.1823 -1.4519  1.8266
10587SOL     OW35037   4.299   3.759   1.487 -0.0986  0.5606  0.3816
10587SOL    HW135038   4.325   3.668   1.471 -0.0991  0.6094  0.0892
10587SOL    HW235039   4.211   3.753   1.524 -0.2175  0.4558  0.0820
10588SOL     OW35040   1.303  10.755   9.361 -0.3768  0.4602  0.0020
10588SOL    HW135041   1.228  10.700   9.340  1.2414 -1.6885 -0.5508
10588SOL    HW235042   1.321  10.738   9.454 -1.4280  2.1722  0.5768
10589SOL     OW35043   0.400   0.620   6.247  0.7101  0.2354 -0.1678
10589SOL    HW135044   0.339   0.594   6.316  0.6219  0.8020 -0.0248
10589SOL    HW235045   0.363   0.700   6.210  0.3406 -0.4958 -1.4327
10590SOL     OW35046   6.115   1.452   0.500  0.8730  0.3335  0.5095
10590SOL    HW135047   6.103   1.374   0.447  0.8250  0.9407 -0.3917
10590SOL    HW235048   6.172   1.424   0.572  0.0481 -0.7605  0.7434
10591SOL     OW35049   5.675   1.271   6.874 -0.6452  0.5125  0.1236
10591SOL    HW135050   5.589   1.234   6.893 -1.0221  1.3733  0.1295
10591SOL    HW235051   5.719   1.203   6.823 -1.7354  0.4859 -0.8418
10592SOL     OW35052   2.373   1.931   3.224  0.1707 -0.5873  0.0759
10592SOL    HW135053   2.285   1.909   3.194  0.3832 -0.1616 -0.8858
10592SOL    HW235054   2.359   1.999   3.290 -0.1364  1.2312 -1.7590
10593SOL     OW35055  10.859   4.592  10.180 -0.2974 -0.5071 -0.1726
10593SOL    HW135056  10.848   4.665  10.241 -1.9345  0.4680 -1.5560
10593SOL    HW235057  10.805   4.522  10.215 -1.3843  0.1149 -0.5698
10594SOL     OW35058   3.773   2.676   5.518  0.0960  0.1207  0.0783
10594SOL    HW135059   3.772   2.715   5.430  2.1892  0.7619  0.2835
10594SOL    HW235060   3.825   2.595   5.508 -0.4019 -0.2632  0.5489
10595SOL     OW35061   7.940  11.242   2.531  0.5625 -0.2902  0.2278
10595SOL    HW135062   7.962  11.284   2.447 -0.8021  0.1152  0.0340
10595SOL    HW235063   7.953  11.149   2.515 -2.2161 -0.5488 -1.3980
10596SOL     OW35064   2.623   0.494   4.564  0.1917  0.1449  0.3131
10596SOL    HW135065   2.642   0.400   4.567  0.2708  0.0074 -2.3281
10596SOL    HW235066   2.694   0.535   4.612  2.3413 -0.9615 -1.7119
10597SOL     OW35067   9.244   4.013   1.114  0.1635  0.1559  0.0310
10597SOL    HW135068   9.223   4.091   1.164  2.7188 -0.1537  1.7698
10597SOL    HW235069   9.163   3.962   1.115 -1.3685  2.4258 -0.6108
10598SOL     OW35070   2.043  11.248   0.179 -0.2926 -0.3204  0.1367
10598SOL    HW135071   2.109  11.244   0.247 -0.0001 -0.5436 -0.1553
10598SOL    HW235072   2.089  11.223   0.099 -0.0492  2.2553 -0.5982
10599SOL     OW35073   8.475  11.382  10.728 -0.2406  0.3543 -0.1469
10599SOL    HW135074   8.420  11.423  10.795  0.6394  0.8419  0.2899
10599SOL    HW235075   8.431  11.404  10.645 -0.5697  0.9541  0.1774
10600SOL     OW35076   6.726   4.371   8.631  0.9154  0.2572  0.3535
10600SOL    HW135077   6.784   4.332   8.566 -0.7816 -1.7374 -0.0819
10600SOL    HW235078   6.717   4.304   8.698 -0.5834  0.6572  0.5816
10601SOL     OW35079   6.433   8.907   3.622  0.4405  0.4330 -0.1152
10601SOL    HW135080   6.465   8.819   3.605  1.3418  0.3883  1.6587
10601SOL    HW235081   6.342   8.896   3.648  0.7256 -0.0525  0.7024
10602SOL     OW35082   9.747  10.859   1.181  0.0131 -0.3018  0.1357
10602SOL    HW135083   9.775  10.873   1.091 -0.3674  1.3315  0.2440
10602SOL    HW235084   9.728  10.765   1.186 -0.8179 -0.2666 -1.7284
10603SOL     OW35085   6.517   9.087   6.897 -0.6346  0.5342  0.3025
10603SOL    HW135086   6.522   9.121   6.808 -1.3427 -0.5297 -0.1662
10603SOL    HW235087   6.565   9.004   6.894 -0.3940  0.6372  0.9983
10604SOL     OW35088   9.826   8.781   1.298  0.2823 -0.3350 -0.2250
10604SOL    HW135089   9.819   8.823   1.213 -0.2840  0.8422  0.3753
10604SOL    HW235090   9.817   8.688   1.279  0.6328 -0.1315 -1.4933
10605SOL     OW35091   6.780   9.929   8.075  0.1537 -0.3935  0.9323
10605SOL    HW135092   6.737   9.990   8.014  1.3282  1.4769  1.8726
10605SOL    HW235093   6.723   9.930   8.152 -0.1929 -1.0625  0.6915
10606SOL     OW35094   0.236   4.188   0.736 -0.6288 -0.3609  0.0581
10606SOL    HW135095   0.326   4.204   0.708  0.3047 -2.6434  1.4093
10606SOL    HW235096   0.245   4.149   0.823 -2.8237 -1.9725 -0.3405
10607SOL     OW35097  10.844   0.826   4.670 -0.1758  0.3731  0.1682
10607SOL    HW135098  10.830   0.732   4.685 -0.0698  0.0939 -1.3463
10607SOL    HW235099  10.759   0.866   4.689 -0.4335 -0.1246  0.0952
10608SOL     OW35100   3.436   2.255   1.268 -0.0439  0.1875  0.5005
10608SOL    HW135101   3.502   2.281   1.203 -1.4736  0.2791 -0.9801
10608SOL    HW235102   3.376   2.330   1.272 -1.8712 -1.1445 -0.6542
10609SOL     OW35103   0.642   6.553   5.607 -0.2519  0.2620 -0.7293
10609SOL    HW135104   0.727   6.511   5.621 -0.6420 -0.0137  1.1338
10609SOL    HW235105   0.632   6.612   5.682 -0.5625  2.3272 -2.2957
10610SOL     OW35106   4.442   4.090   3.005  0.0487  0.3903  0.1862
10610SOL    HW135107   4.413   4.174   3.040 -0.0930  2.5650 -4.4210
10610SOL    HW235108   4.529   4.107   2.968  0.5094 -1.8096  0.0870
10611SOL     OW35109   1.735   7.422   2.316 -0.1042 -0.4992  0.6042
10611SOL    HW135110   1.770   7.370   2.389  1.3380  0.0203  0.3087
10611SOL    HW235111   1.810   7.473   2.285 -0.2913 -1.7408 -2.1746
10612SOL     OW35112   3.499   1.159   5.529  0.4053 -0.6165 -0.4420
10612SOL    HW135113   3.520   1.178   5.621 -0.3310 -0.2197 -0.3477
10612SOL    HW235114   3.502   1.063   5.523 -0.5396 -0.6964  0.2445
10613SOL     OW35115   8.257   6.809   9.428 -0.2613  0.1588 -0.5209
10613SOL    HW135116   8.176   6.817   9.478  0.1443 -1.6057  0.5077
10613SOL    HW235117   8.302   6.893   9.441 -1.8874  1.1557 -1.1086
10614SOL     OW35118   3.499   8.884   6.747 -0.0200  0.3625  0.3015
10614SOL    HW135119   3.413   8.844   6.737  0.0150  0.4382 -0.3746
10614SOL    HW235120   3.553   8.844   6.678  0.1987  1.0622  0.0469
10615SOL     OW35121  11.375   2.526   1.744 -0.3881  0.0964 -0.0208
10615SOL    HW135122  11.370   2.446   1.797 -1.2356  1.1327  1.5531
10615SOL    HW235123  11.294   2.573   1.764  0.5129  1.7869 -0.1671
10616SOL     OW35124  10.911  10.857   0.975  0.2544 -0.4479  0.5315
10616SOL    HW135125  10.937  10.941   1.011 -1.2933  0.0757  0.5347
10616SOL    HW235126  10.983  10.798   0.996  0.4478  0.3750  2.4174
10617SOL     OW35127  10.616   4.669  11.196 -0.2050  0.3897 -0.1399
10617SOL    HW135128  10.546   4.623  11.148 -0.6975 -0.8278  1.6518
10617SOL    HW235129  10.591   4.661  11.288  2.6481 -0.7612  0.6311
10618SOL     OW35130   8.506   4.641   3.208 -0.4925  0.0499 -0.2632
10618SOL    HW135131   8.530   4.570   3.148 -1.9482  0.3072 -1.2006
10618SOL    HW235132   8.587   4.690   3.222 -0.3526  0.7874 -3.1131
10619SOL     OW35133   2.116   2.135   5.205 -0.1751 -0.3072  0.3142
10619SOL    HW135134   2.037   2.136   5.151  0.1773 -2.0849 -0.3326
10619SOL    HW235135   2.084   2.127   5.295 -0.7466  0.3877  0.1757
10620SOL     OW35136   4.573   5.895   8.535 -0.2338  0.0014 -0.0412
10620SOL    HW135137   4.596   5.855   8.451  0.2052 -0.9228  0.4987
10620SOL    HW235138   4.503   5.839   8.569 -0.6348  0.5639  0.0736
10621SOL     OW35139   0.025   9.589   0.368 -0.1702  0.2049 -0.5197
10621SOL    HW135140   0.018   9.649   0.443 -0.7746 -0.2836 -0.1817
10621SOL    HW235141   0.102   9.621   0.320 -1.0672  1.8843 -0.9270
10622SOL     OW35142   8.313   5.489   3.590 -0.8104 -0.0333 -0.1005
10622SOL    HW135143   8.222   5.487   3.621 -0.8532  0.6168 -0.1730
10622SOL    HW235144   8.355   5.416   3.636 -1.4672 -0.6129 -0.3961
10623SOL     OW35145   0.600   8.265   7.379  0.2834 -0.5027  0.3546
10623SOL    HW135146   0.614   8.184   7.428 -0.8628  0.0244  1.6230
10623SOL    HW235147   0.507   8.263   7.357  0.6015 -0.3219 -1.1295
10624SOL     OW35148   6.821   0.239   6.338 -0.1431 -0.3507  0.0762
10624SOL    HW135149   6.744   0.187   6.316 -0.3713  0.6861 -1.7611
10624SOL    HW235150   6.807   0.264   6.429 -1.8742 -0.3956 -0.1308
10625SOL     OW35151   1.592   4.339   7.388  0.1404 -0.0653  0.0976
10625SOL    HW135152   1.592   4.425   7.347  1.3869 -0.2606 -0.3298
10625SOL    HW235153   1.598   4.358   7.482  4.3960  0.3706 -0.0644
10626SOL     OW35154   8.440   9.608  10.287 -0.0962 -0.0037 -0.1486
10626SOL    HW135155   8.473   9.597  10.376  0.6051  1.5974 -0.1722
10626SOL    HW235156   8.509   9.570  10.231 -0.1215 -0.2013 -0.0463
10627SOL     OW35157   3.017   3.361   3.442 -0.7476  0.3903  0.0227
10627SOL    HW135158   3.064   3.376   3.524 -0.5650 -0.7659  0.1417
10627SOL    HW235159   3.067   3.294   3.397 -2.0144 -0.5421 -0.0625
10628SOL     OW35160  11.256   9.189   1.222 -0.4487  0.0117 -0.1670
10628SOL    HW135161  11.259   9.134   1.301 -1.7581 -1.7527 -1.2886
10628SOL    HW235162  11.233   9.276   1.255  1.0252 -0.2025  1.5853
10629SOL     OW35163   7.854   9.877   5.771  0.0096 -0.0364  0.5011
10629SOL    HW135164   7.777   9.838   5.813 -1.2960 -0.4450 -2.0698
10629SOL    HW235165   7.887   9.808   5.713  0.2538  1.2535 -0.9491
10630SOL     OW35166  10.793   1.615   6.402  0.0097  0.0240 -0.8776
10630SOL    HW135167  10.880   1.580   6.422  1.0332  2.9862  0.3569
10630SOL    HW235168  10.748   1.616   6.487 -0.5446  0.2540 -1.1690
10631SOL     OW35169   6.763   8.817   4.531 -0.0981  0.5205 -0.0242
10631SOL    HW135170   6.792   8.815   4.622 -0.7382 -0.7526  0.1731
10631SOL    HW235171   6.699   8.888   4.529 -0.0753  0.5659  0.5195
10632SOL     OW35172   8.856   9.543  11.269  1.0371 -0.4983 -0.3482
10632SOL    HW135173   8.853   9.449  11.286  0.3504 -0.5801 -0.8584
10632SOL    HW235174   8.814   9.583  11.346  2.2003 -0.5335  0.3202
10633SOL     OW35175   5.803   0.156   4.264  0.6094 -0.4556 -0.3088
10633SOL    HW135176   5.798   0.205   4.182 -0.3897 -1.1919 -0.7080
10633SOL    HW235177   5.830   0.221   4.329  1.9128  0.0333 -1.2954
10634SOL     OW35178   4.563   3.077  10.139 -0.5659 -0.0558 -0.1198
10634SOL    HW135179   4.488   3.018  10.141 -0.4796 -0.1566  0.3138
10634SOL    HW235180   4.533   3.154  10.091 -1.1386  0.1552  0.5547
10635SOL     OW35181  10.663   6.637   5.374  0.3829 -0.4136  0.2663
10635SOL    HW135182  10.669   6.670   5.284  1.0794 -0.1333  0.4084
10635SOL    HW235183  10.717   6.558   5.373  0.0032 -0.6736  0.3208
10636SOL     OW35184   8.906   9.259   6.178  0.0391  0.6398 -0.1689
10636SOL    HW135185   8.918   9.253   6.083 -1.0309 -0.8046 -0.2410
10636SOL    HW235186   8.994   9.246   6.214  0.4978  1.4765 -0.9561
10637SOL     OW35187   8.757  10.803   9.337 -0.2396 -0.0191 -0.0680
10637SOL    HW135188   8.750  10.834   9.427  0.6392 -0.6963  0.2433
10637SOL    HW235189   8.667  10.803   9.304 -0.4371  1.4014  0.4050
10638SOL     OW35190   1.618   5.854  10.748  0.3304 -0.5491  0.1742
10638SOL    HW135191   1.633   5.775  10.695  2.5816 -0.1322  0.0903
10638SOL    HW235192   1.658   5.925  10.697 -2.9352  0.9963 -0.4841
10639SOL     OW35193   6.393   0.706   0.498  0.4515  0.1610 -0.5352
10639SOL    HW135194   6.323   0.761   0.533  0.8318 -0.1237  0.7100
10639SOL    HW235195   6.425   0.657   0.573  1.7957  0.0711 -1.1382
10640SOL     OW35196  11.197   9.538   0.233  0.2275  0.4505  0.8790
10640SOL    HW135197  11.287   9.565   0.250  0.5138  0.5516 -0.6842
10640SOL    HW235198  11.145   9.616   0.250  0.7335  1.1775 -0.7901
10641SOL     OW35199   6.371  10.923   7.455  0.1639 -0.3846  0.2164
10641SOL    HW135200   6.365  10.839   7.408  1.4766 -0.9027  0.9292
10641SOL    HW235201   6.401  10.899   7.543  2.0057  0.9271  0.0059
10642SOL     OW35202   0.713   3.706   8.690 -0.2526 -0.0355  0.7075
10642SOL    HW135203   0.741   3.783   8.740 -0.3367  0.8111 -0.5089
10642SOL    HW235204   0.750   3.720   8.603 -0.3793 -1.3224  0.4355
10643SOL     OW35205  11.054   6.057   0.455 -0.4562 -0.0269 -0.0557
10643SOL    HW135206  11.149   6.068   0.444 -0.0427 -2.6816  0.2116
10643SOL    HW235207  11.018   6.076   0.368  0.2076  1.6325 -0.0035
10644SOL     OW35208   0.628   0.725   2.619  0.3267 -0.3884  0.1128
10644SOL    HW135209   0.637   0.649   2.677  1.2214  0.1051  0.6443
10644SOL    HW235210   0.618   0.799   2.678 -0.9259 -0.1125 -0.4087
10645SOL     OW35211   2.883   0.723   3.781  0.0567 -0.4787  0.0051
10645SOL    HW135212   2.793   0.735   3.812  0.4328  2.4664  0.2180
10645SOL    HW235213   2.878   0.732   3.686 -0.0528 -1.8372 -0.1301
10646SOL     OW35214   6.891   6.995   1.421 -0.2920  0.5637  0.4556
10646SOL    HW135215   6.907   6.904   1.396  0.4667  0.8817 -0.2773
10646SOL    HW235216   6.846   6.990   1.505 -1.3085 -0.5207 -0.1271
10647SOL     OW35217   9.235   9.018   8.576  0.1456  0.2044  0.0099
10647SOL    HW135218   9.209   9.013   8.484  1.9807  0.3068 -0.5583
10647SOL    HW235219   9.238   8.927   8.606 -1.1313  0.2042  0.2056
10648SOL     OW35220   1.784   9.439   2.337 -0.2344 -0.4009  0.0689
10648SOL    HW135221   1.755   9.360   2.291 -0.3348 -0.7296  0.6988
10648SOL    HW235222   1.868   9.461   2.295 -0.2523 -0.7788 -0.1753
10649SOL     OW35223   4.339   4.338   2.107 -0.5112  0.5205  0.0231
10649SOL    HW135224   4.286   4.262   2.132  0.1540 -1.0733 -3.0098
10649SOL    HW235225   4.287   4.413   2.135 -2.8576 -1.0190  0.0768
10650SOL     OW35226   8.332   0.258   9.248  0.4585  0.0835  0.1379
10650SOL    HW135227   8.318   0.268   9.342 -1.3112  1.6167 -0.2122
10650SOL    HW235228   8.404   0.318   9.228  1.5814 -1.0573  0.6398
10651SOL     OW35229   1.903   0.542   5.896 -0.2792 -0.6756 -0.0487
10651SOL    HW135230   1.822   0.490   5.889 -2.3210  2.0876  1.2846
10651SOL    HW235231   1.915   0.580   5.809 -1.7034  0.5678  0.2582
10652SOL     OW35232   5.235   4.376   8.371 -0.3213 -0.1716 -0.1869
10652SOL    HW135233   5.197   4.427   8.299 -0.8009  0.2498  0.3552
10652SOL    HW235234   5.173   4.305   8.387 -0.6794  0.2616  0.4047
10653SOL     OW35235   5.445   0.642  10.538 -0.1706  0.3336 -0.2871
10653SOL    HW135236   5.378   0.627  10.472 -1.9983  3.0899  0.7180
10653SOL    HW235237   5.473   0.733  10.523  0.0049  0.7440  2.1039
10654SOL     OW35238   3.259   4.753   5.895  0.1357 -0.2051 -0.0552
10654SOL    HW135239   3.219   4.686   5.840 -2.4261  1.6658 -0.6545
10654SOL    HW235240   3.327   4.707   5.944 -0.5581 -2.8971 -1.4491
10655SOL     OW35241   0.868   3.792   0.946 -0.4424 -0.0312 -0.3906
10655SOL    HW135242   0.790   3.738   0.928  0.2280 -1.8321  1.6361
10655SOL    HW235243   0.850   3.831   1.031  0.0537  1.1834 -0.8248
10656SOL     OW35244  10.760   7.301   6.179  0.6506 -0.2580  0.5061
10656SOL    HW135245  10.665   7.310   6.169  0.5370 -0.4445  1.3393
10656SOL    HW235246  10.775   7.314   6.273  1.4938  0.1389  0.3213
10657SOL     OW35247   5.757   9.889   0.497 -0.0109 -0.9535 -0.0387
10657SOL    HW135248   5.670   9.912   0.463 -1.3889 -2.4764  2.1776
10657SOL    HW235249   5.800   9.845   0.424 -0.7065  0.6581 -1.4821
10658SOL     OW35250   9.642   5.588   5.378  0.4680  0.5649 -0.1866
10658SOL    HW135251   9.635   5.573   5.472 -0.2646  1.9081  0.0024
10658SOL    HW235252   9.569   5.647   5.357  0.4626  0.0939 -1.6392
10659SOL     OW35253   3.741   9.746   8.534  0.2496  0.1920  0.6397
10659SOL    HW135254   3.740   9.731   8.440 -0.5132 -0.0548  0.6833
10659SOL    HW235255   3.671   9.691   8.569 -0.5752  1.4981  1.1508
10660SOL     OW35256   9.604   8.200  11.010 -0.5590  0.1774  0.3176
10660SOL    HW135257   9.542   8.192  10.937 -0.4711  0.8996  0.1510
10660SOL    HW235258   9.689   8.182  10.972 -0.7845 -2.2959  0.8562
10661SOL     OW35259   5.121   8.331  10.998 -0.0620 -0.0475 -0.1442
10661SOL    HW135260   5.204   8.284  11.006 -0.4754 -0.5418  1.7129
10661SOL    HW235261   5.058   8.265  10.970  0.1720  0.3701 -1.7469
10662SOL     OW35262  10.048   6.299   6.577  0.2581 -0.6144 -0.2026
10662SOL    HW135263   9.960   6.333   6.563  0.1247 -1.1253 -0.6461
10662SOL    HW235264  10.041   6.206   6.555  0.7096 -0.8437  0.5706
10663SOL     OW35265   2.213   0.558   9.376 -0.5815  0.3501 -0.0831
10663SOL    HW135266   2.190   0.640   9.330 -3.0280 -0.2295 -0.0304
10663SOL    HW235267   2.223   0.584   9.467  0.9082  0.9415 -0.3922
10664SOL     OW35268   6.635   1.459   8.042  0.2129  0.2635  0.1231
10664SOL    HW135269   6.648   1.393   7.974 -0.4317 -0.5887  0.7888
10664SOL    HW235270   6.542   1.482   8.035 -0.0653 -0.4438  1.2180
10665SOL     OW35271   8.382  10.998   0.137  0.7463 -0.0729  0.0699
10665SOL    HW135272   8.392  11.072   0.077  1.3454 -0.2364 -0.0389
10665SOL    HW235273   8.464  10.950   0.129  0.2501 -0.9135 -0.0841
10666SOL     OW35274   9.760   4.139   5.160  0.2113 -0.0502 -0.1946
10666SOL    HW135275   9.824   4.103   5.221 -0.9557  0.6647  1.5597
10666SOL    HW235276   9.803   4.215   5.121  1.5534 -1.4332 -1.5590
10667SOL     OW35277   8.074   5.405   0.361 -0.6051 -0.2388  0.3148
10667SOL    HW135278   8.121   5.325   0.385 -0.5909 -0.0711  0.8699
10667SOL    HW235279   8.042   5.388   0.272  0.1714 -0.5093  0.0707
10668SOL     OW35280   2.326   8.363   7.820  0.0109  0.0578  0.0216
10668SOL    HW135281   2.415   8.396   7.825  0.2165 -0.6177  1.4280
10668SOL    HW235282   2.274   8.426   7.870 -0.4891  0.9159 -1.4990
10669SOL     OW35283   5.216   4.909  10.025 -0.0924 -0.6950 -0.4597
10669SOL    HW135284   5.275   4.983  10.037  0.5609 -1.3648  0.7172
10669SOL    HW235285   5.270   4.842   9.982  0.2011 -1.4916  1.0725
10670SOL     OW35286   4.873   0.751   0.070  0.1467 -0.2810  0.5809
10670SOL    HW135287   4.883   0.736  -0.024 -1.0334 -1.4929  0.6162
10670SOL    HW235288   4.843   0.842   0.076 -0.0046 -0.2667 -0.2355
10671SOL     OW35289   6.895   3.531   8.104  0.0787  0.3898 -0.6726
10671SOL    HW135290   6.873   3.443   8.136 -2.0233  0.8817 -0.5963
10671SOL    HW235291   6.945   3.570   8.176 -0.6230 -0.1120  0.1181
10672SOL     OW35292   3.897   1.689   7.051 -0.8373  0.2602  0.7475
10672SOL    HW135293   3.989   1.717   7.054 -0.6896 -0.1576  0.3098
10672SOL    HW235294   3.889   1.626   7.122 -0.8165  0.3778  0.8551
10673SOL     OW35295   4.562   2.794   9.619  0.3253  0.2100  0.4994
10673SOL    HW135296   4.633   2.785   9.555  0.2743  1.8346  0.1743
10673SOL    HW235297   4.543   2.888   9.621 -3.1586 -0.3430 -0.8501
10674SOL     OW35298   1.502   2.867   9.344 -0.2860  0.3002 -0.5476
10674SOL    HW135299   1.447   2.828   9.411 -1.4976  2.2789 -0.3108
10674SOL    HW235300   1.591   2.857   9.377 -0.7993  0.4844  0.9469
10675SOL     OW35301   6.707   8.115  11.150 -0.1717  0.0892 -0.0125
10675SOL    HW135302   6.614   8.097  11.141  0.0625 -0.2622 -2.1000
10675SOL    HW235303   6.750   8.052  11.093  1.3184  0.6944  0.3902
10676SOL     OW35304   2.439   1.494   2.808 -0.4441  0.2615  0.1397
10676SOL    HW135305   2.474   1.430   2.870  1.2410 -0.2567 -1.2706
10676SOL    HW235306   2.456   1.579   2.849 -0.2079 -0.0975  0.7996
10677SOL     OW35307   8.764   5.274   7.349 -0.4183 -0.4199  0.0193
10677SOL    HW135308   8.734   5.361   7.321 -0.0624 -0.2323  0.2081
10677SOL    HW235309   8.845   5.291   7.397  0.3805 -0.9709 -1.0792
10678SOL     OW35310   9.130   9.956   7.794  0.0054 -0.0225  0.0788
10678SOL    HW135311   9.150   9.960   7.888 -0.2733 -0.5190  0.1647
10678SOL    HW235312   9.207   9.993   7.751  0.4910 -0.5717  0.4630
10679SOL     OW35313   4.185   4.603   4.427  0.3758 -0.2411 -0.0731
10679SOL    HW135314   4.274   4.573   4.443  1.1406  1.7097 -0.4693
10679SOL    HW235315   4.145   4.605   4.514  0.7510 -0.9994  0.1230
10680SOL     OW35316   3.607   5.884   7.758  0.0170 -0.0907 -0.1599
10680SOL    HW135317   3.584   5.960   7.812 -2.2340 -0.4232 -0.5456
10680SOL    HW235318   3.523   5.852   7.725  1.0029 -2.1072 -0.8911
10681SOL     OW35319   0.399   0.189   0.302 -0.7510 -0.4978 -0.5335
10681SOL    HW135320   0.460   0.190   0.376 -0.5222 -0.3829 -0.7211
10681SOL    HW235321   0.312   0.182   0.342 -0.5657 -1.5865 -0.3002
10682SOL     OW35322  10.494  10.355   1.222  0.1088  0.2702  0.0673
10682SOL    HW135323  10.555  10.416   1.264 -2.0379  3.4175 -0.9808
10682SOL    HW235324  10.444  10.318   1.295  1.3106 -0.1316  0.7235
10683SOL     OW35325   8.681   9.621   7.610 -0.5119 -0.0546 -0.1212
10683SOL    HW135326   8.600   9.602   7.657 -0.0053 -0.2029  0.7213
10683SOL    HW235327   8.749   9.614   7.677  0.4874 -2.2526 -1.2705
10684SOL     OW35328   5.315   7.804   6.237  0.7846 -0.2914  0.3647
10684SOL    HW135329   5.403   7.768   6.245  1.1225  0.5611  0.6300
10684SOL    HW235330   5.321   7.890   6.280  0.3492  0.6450 -1.3789
10685SOL     OW35331   8.870   8.831   9.675  0.3449  0.0394  0.0030
10685SOL    HW135332   8.876   8.751   9.727  0.4706  0.9870  1.4867
10685SOL    HW235333   8.876   8.801   9.584  1.2429 -1.5524  0.5557
10686SOL     OW35334   7.333   9.814  11.110 -0.2289 -0.0310 -0.2526
10686SOL    HW135335   7.240   9.832  11.123 -0.5761 -2.4613  1.2367
10686SOL    HW235336   7.336   9.730  11.064  1.0662 -1.9896  3.0169
10687SOL     OW35337   5.234   8.139  10.516  0.4058 -0.5828 -0.4434
10687SOL    HW135338   5.166   8.075  10.498 -0.7781  0.6793 -0.6448
10687SOL    HW235339   5.246   8.136  10.611 -1.6360  0.7696 -0.0766
10688SOL     OW35340   5.306  10.183   7.965  0.3464  0.9724 -0.2649
10688SOL    HW135341   5.305  10.095   7.925  0.9309  1.0819 -0.5321
10688SOL    HW235342   5.231  10.227   7.927 -1.1537 -0.0545  1.3639
10689SOL     OW35343   9.734  10.672   4.330  0.7022  0.1430 -0.2505
10689SOL    HW135344   9.802  10.735   4.356  2.3891 -1.0521 -1.5507
10689SOL    HW235345   9.666  10.726   4.290  0.4483  1.4583  1.8080
10690SOL     OW35346   4.819   6.584   4.306 -0.4150  0.4302  0.7630
10690SOL    HW135347   4.774   6.569   4.223  0.5836 -0.9744  0.4345
10690SOL    HW235348   4.881   6.655   4.289  2.0458 -1.8806 -0.6890
10691SOL     OW35349  10.503   6.548   6.961  0.7134 -0.2743  0.2988
10691SOL    HW135350  10.429   6.489   6.975  0.9771 -0.7169 -0.1202
10691SOL    HW235351  10.511   6.597   7.043 -0.6127  0.4363  0.0216
10692SOL     OW35352   1.824   5.048   0.518 -0.7878  0.3140  0.4165
10692SOL    HW135353   1.742   5.082   0.554 -0.6724  0.8091  0.2102
10692SOL    HW235354   1.800   5.018   0.430 -0.3778  2.0761 -0.3189
10693SOL     OW35355   6.838   8.007   0.218  0.6041  0.2625 -0.2484
10693SOL    HW135356   6.753   8.051   0.214 -0.4338 -1.6732 -1.0576
10693SOL    HW235357   6.844   7.960   0.135  0.9908 -2.1704  1.0827
10694SOL     OW35358   2.523   7.747   8.253 -0.6348 -0.0695  0.1892
10694SOL    HW135359   2.527   7.747   8.348  0.6043  1.4672  0.1838
10694SOL    HW235360   2.460   7.679   8.231  0.4226 -1.7380  2.0351
10695SOL     OW35361  10.773   9.534   8.545  0.1682  0.0746 -0.3983
10695SOL    HW135362  10.752   9.475   8.472 -2.5357  1.4495 -0.8530
10695SOL    HW235363  10.734   9.617   8.520 -0.5340  0.6958  2.4765
10696SOL     OW35364   3.599   7.980   9.517  0.0967 -0.1729 -0.2514
10696SOL    HW135365   3.640   7.972   9.603  1.9106 -0.7193 -1.1201
10696SOL    HW235366   3.634   7.906   9.467 -2.3019 -0.9354 -0.9544
10697SOL     OW35367   7.785   8.071   8.468 -0.2600 -0.1294 -0.2333
10697SOL    HW135368   7.781   8.107   8.557  0.6068 -0.7554  0.0782
10697SOL    HW235369   7.867   8.106   8.433 -0.7265  0.3149 -0.8778
10698SOL     OW35370   7.956   0.315   8.436 -0.2857 -0.5434  0.3703
10698SOL    HW135371   8.000   0.310   8.351 -1.4331  1.9301 -0.4279
10698SOL    HW235372   8.027   0.332   8.498  0.2883  0.1606 -0.4519
10699SOL     OW35373   0.921   0.849   5.327  0.6370  0.5358  0.2057
10699SOL    HW135374   0.966   0.774   5.288  0.4910  1.1800 -1.2647
10699SOL    HW235375   0.990   0.915   5.340  0.5526  0.5993  0.3441
10700SOL     OW35376  11.158   0.983  11.128 -0.3497 -0.2730  0.0800
10700SOL    HW135377  11.208   0.945  11.199 -0.0139  1.0290  0.5768
10700SOL    HW235378  11.068   0.952  11.142  0.1877 -2.2873 -0.5878
10701SOL     OW35379   9.553   7.924   7.379 -0.7340 -0.2849 -0.1096
10701SOL    HW135380   9.589   8.010   7.400  0.0708 -0.6511  0.0585
10701SOL    HW235381   9.521   7.890   7.462  2.0930 -1.5690  0.5771
10702SOL     OW35382   5.932   4.747   0.582  0.5619  0.2076 -0.4945
10702SOL    HW135383   5.992   4.817   0.610  1.3180  0.0690 -1.6935
10702SOL    HW235384   5.989   4.672   0.567 -0.2756 -0.7885  1.0626
10703SOL     OW35385   5.330   2.544   5.694  0.2899  0.1017 -0.3140
10703SOL    HW135386   5.286   2.497   5.764  2.1770 -0.3687  0.6165
10703SOL    HW235387   5.296   2.634   5.700 -1.2129 -0.4451 -0.2773
10704SOL     OW35388   7.103   9.842   1.837  0.2929  0.3329 -0.3626
10704SOL    HW135389   7.169   9.792   1.886  0.7926  1.2542 -0.0622
10704SOL    HW235390   7.077   9.912   1.898 -0.5649  0.3009 -0.6843
10705SOL     OW35391   1.353   7.437  10.127  0.3251  0.6250  0.2238
10705SOL    HW135392   1.342   7.532  10.127 -0.3853  0.5533  1.0016
10705SOL    HW235393   1.444   7.424  10.154  0.5179  1.0915 -0.1882
10706SOL     OW35394   8.005   7.670   6.954 -0.0693  0.0437  0.8027
10706SOL    HW135395   7.949   7.731   6.907 -0.7067 -0.8876  0.3360
10706SOL    HW235396   8.072   7.645   6.890 -0.1451 -0.1877  0.8146
10707SOL     OW35397   8.088   3.761   6.302 -0.1505  0.1105  0.0627
10707SOL    HW135398   8.055   3.850   6.292  0.6584  0.5890  1.4157
10707SOL    HW235399   8.074   3.740   6.394  1.3051 -0.4828  0.1801
10708SOL     OW35400   8.632   7.768   1.640 -0.7704 -0.0149 -0.6010
10708SOL    HW135401   8.646   7.709   1.566 -0.1602 -1.4184  0.5867
10708SOL    HW235402   8.663   7.719   1.716 -0.7279  1.6531  0.5059
10709SOL     OW35403   0.459   2.257   2.881 -0.2991 -0.0391  0.3559
10709SOL    HW135404   0.383   2.201   2.897 -0.3711 -0.1572 -0.3901
10709SOL    HW235405   0.487   2.284   2.969 -1.1566 -0.0500  0.6462
10710SOL     OW35406   2.240   2.087   6.376 -0.2336 -0.0550 -0.5368
10710SOL    HW135407   2.153   2.124   6.391 -0.0343 -0.1987  1.1330
10710SOL    HW235408   2.223   2.002   6.334 -0.8252  0.4014 -1.2589
10711SOL     OW35409   5.926  10.883   0.678 -0.3300 -0.1090  0.0396
10711SOL    HW135410   5.943  10.919   0.765 -0.1679  1.2486 -0.5383
10711SOL    HW235411   5.880  10.953   0.631 -1.2595 -1.1651 -0.6788
10712SOL     OW35412   6.215   4.908   3.992  0.0407 -0.3438  0.3311
10712SOL    HW135413   6.201   4.963   3.915 -0.7415 -0.0217  0.6984
10712SOL    HW235414   6.229   4.820   3.957  0.5101 -0.0604 -0.2145
10713SOL     OW35415   8.744  10.521   4.451 -0.0788 -0.3849  0.4417
10713SOL    HW135416   8.720  10.498   4.541  1.5703  1.5528  1.4810
10713SOL    HW235417   8.662  10.514   4.402 -1.0819 -1.2654  2.1409
10714SOL     OW35418   9.302  10.260  11.344 -0.3541 -0.0415  0.4347
10714SOL    HW135419   9.249  10.184  11.321 -0.0036 -1.3641  3.5161
10714SOL    HW235420   9.382  10.223  11.383 -0.3224  1.8366  2.3435
10715SOL     OW35421   7.734   6.999   7.376 -0.5460  0.0584 -0.1252
10715SOL    HW135422   7.754   6.906   7.389 -2.2670 -0.3447 -0.1032
10715SOL    HW235423   7.644   6.999   7.343  0.4726  1.5113 -3.3801
10716SOL     OW35424   1.509   4.571   4.026  0.6399 -0.2589 -0.1292
10716SOL    HW135425   1.555   4.652   4.047  1.2229 -1.1213  2.3034
10716SOL    HW235426   1.576   4.514   3.989  0.4983 -0.0408 -0.7298
10717SOL     OW35427  10.202   7.532  10.926  0.4409 -0.1416 -0.1936
10717SOL    HW135428  10.269   7.485  10.976  0.5601  0.9737  0.7101
10717SOL    HW235429  10.244   7.613  10.899 -1.3417  1.9859  2.8936
10718SOL     OW35430   1.415   5.465   9.319 -0.0095 -0.1736  0.7937
10718SOL    HW135431   1.320   5.454   9.321 -0.2829  1.4505 -0.7148
10718SOL    HW235432   1.432   5.542   9.374  0.1472  0.8085 -0.5540
10719SOL     OW35433   9.868   5.848  10.572 -0.2934 -0.0099 -0.3249
10719SOL    HW135434   9.916   5.819  10.495  0.8614  0.8827  0.0191
10719SOL    HW235435   9.784   5.879  10.538 -0.0529 -0.2360 -1.1428
10720SOL     OW35436   1.677   7.226   3.657  0.3182  0.5885  0.0180
10720SOL    HW135437   1.668   7.296   3.721  0.5702  0.3134  0.3594
10720SOL    HW235438   1.661   7.146   3.706  2.3891  0.2144  0.2040
10721SOL     OW35439   3.351   9.518   7.552 -0.4127 -0.0818 -0.8911
10721SOL    HW135440   3.375   9.445   7.609  0.8575  1.2597  0.3581
10721SOL    HW235441   3.426   9.526   7.492 -0.6785  0.0417 -1.2105
10722SOL     OW35442   1.685   0.803   6.487 -0.3646  0.3227  0.1226
10722SOL    HW135443   1.655   0.842   6.570 -2.1213 -1.3446  0.3622
10722SOL    HW235444   1.776   0.829   6.479  0.5620 -1.1879  3.7363
10723SOL     OW35445   6.541  10.906  11.065 -0.4383  0.0627  0.1345
10723SOL    HW135446   6.488  10.928  11.141 -0.0974  1.0283  0.1040
10723SOL    HW235447   6.486  10.929  10.990  0.4699  2.3810  0.0860
10724SOL     OW35448   0.214   0.140   4.261  0.1308 -0.1647 -0.6328
10724SOL    HW135449   0.265   0.096   4.329 -1.1412 -0.7604 -0.0248
10724SOL    HW235450   0.239   0.096   4.180 -0.7444 -1.7333 -0.0965
10725SOL     OW35451  10.796   8.566   8.153  0.0385  0.2827 -0.3695
10725SOL    HW135452  10.825   8.527   8.071 -1.2979 -0.6612 -0.4237
10725SOL    HW235453  10.846   8.520   8.221  2.2058  2.0340 -0.6464
10726SOL     OW35454   4.973   7.547   7.060  0.3359 -0.3062  0.0503
10726SOL    HW135455   4.982   7.454   7.036  2.4020 -0.0962 -0.1785
10726SOL    HW235456   5.062   7.582   7.052 -0.5252  1.8743 -0.5732
10727SOL     OW35457  11.118  11.018  10.309  0.3195  0.3478  0.2032
10727SOL    HW135458  11.023  11.032  10.306  0.4684  2.0000  1.2906
10727SOL    HW235459  11.153  11.081  10.246  0.7080  0.1165  0.1890
10728SOL     OW35460   0.512   6.882   6.762 -0.1787  0.2848  0.2290
10728SOL    HW135461   0.463   6.804   6.788 -0.0335  0.0275 -0.2491
10728SOL    HW235462   0.451   6.955   6.775 -1.0105 -0.1225 -1.2018
10729SOL     OW35463   4.168   0.060   6.173 -0.1657  0.3763 -0.1178
10729SOL    HW135464   4.136   0.094   6.256 -2.0558 -0.0718 -0.6131
10729SOL    HW235465   4.174  -0.035   6.187 -1.8561  0.1171 -0.8573
10730SOL     OW35466   4.959   5.271   3.517  0.3134  0.2670 -0.3110
10730SOL    HW135467   4.941   5.334   3.587  2.2014 -1.1661  1.5882
10730SOL    HW235468   5.049   5.291   3.490  0.7939 -1.2804  0.0344
10731SOL     OW35469   6.104   4.056   7.897  0.3661 -0.2115  0.5014
10731SOL    HW135470   6.099   4.080   7.989 -0.9084  1.5911  0.0126
10731SOL    HW235471   6.013   4.044   7.871  0.5890  0.8190 -0.8736
10732SOL     OW35472   4.253   4.353   5.817 -0.6824  0.2270  0.1177
10732SOL    HW135473   4.192   4.353   5.891 -1.1188  1.1313 -0.2339
10732SOL    HW235474   4.249   4.442   5.783  0.1716  0.0480 -0.4615
10733SOL     OW35475  10.105  10.454   4.996  0.3165  0.0379 -0.6429
10733SOL    HW135476  10.167  10.385   5.018  1.3053  0.7483 -1.1044
10733SOL    HW235477  10.106  10.456   4.900 -0.6738 -0.1535 -0.6631
10734SOL     OW35478  10.864   1.964   0.084  0.1853 -0.0862 -0.4178
10734SOL    HW135479  10.931   1.899   0.066  0.3209 -0.0794  0.0449
10734SOL    HW235480  10.829   1.939   0.169 -1.3163 -0.8641 -1.2209
10735SOL     OW35481   5.146   5.279   3.838  0.1111  0.3300  0.3360
10735SOL    HW135482   5.081   5.327   3.787 -0.0297 -0.4446 -0.2414
10735SOL    HW235483   5.115   5.286   3.928 -0.3474  0.6277  0.1621
10736SOL     OW35484  10.808   5.321   6.999 -0.2431 -0.3698  0.1571
10736SOL    HW135485  10.780   5.230   6.997  1.3498 -0.9026 -2.6943
10736SOL    HW235486  10.736   5.369   6.957  0.3434 -0.8489 -1.4657
10737SOL     OW35487   9.309   8.074   9.402  0.1677  0.4167  0.5645
10737SOL    HW135488   9.400   8.087   9.374  0.1035  0.9781  0.6110
10737SOL    HW235489   9.264   8.045   9.322  0.5386 -0.6304  0.7146
10738SOL     OW35490   0.317   0.439  11.286  0.4705  0.2203  0.3852
10738SOL    HW135491   0.362   0.522  11.268 -0.7154  0.7047 -0.5335
10738SOL    HW235492   0.234   0.446  11.238  0.0615 -1.2406  0.8198
10739SOL     OW35493   9.124  11.118   1.054 -0.6062  0.0183 -0.8380
10739SOL    HW135494   9.136  11.210   1.029 -0.0491  0.5885  1.3055
10739SOL    HW235495   9.040  11.116   1.099 -1.2953 -0.8431 -2.1040
10740SOL     OW35496   6.742   3.802   2.375  0.1615 -0.2654 -0.2816
10740SOL    HW135497   6.818   3.857   2.355 -0.0042  0.0337 -0.0933
10740SOL    HW235498   6.761   3.766   2.462  0.0230 -0.0706 -0.1683
10741SOL     OW35499   5.677  10.829   6.549 -0.4937  0.8117 -0.1085
10741SOL    HW135500   5.714  10.843   6.462  0.5128 -1.2412 -0.0662
10741SOL    HW235501   5.696  10.911   6.596  1.7689  0.7976 -0.8741
10742SOL     OW35502   5.508   4.134   4.470 -0.2028  0.0858  0.5517
10742SOL    HW135503   5.464   4.217   4.490  1.3962  0.9324  0.7052
10742SOL    HW235504   5.565   4.155   4.396  0.0926 -0.9311  0.4808
10743SOL     OW35505   1.781   3.670   6.243  0.1615  0.5119  0.1149
10743SOL    HW135506   1.860   3.639   6.286  0.0862  1.2266  0.7796
10743SOL    HW235507   1.806   3.753   6.203 -0.2680  0.7627  0.3632
10744SOL     OW35508   0.975   2.734  10.497  0.6630  0.5841  0.1854
10744SOL    HW135509   1.023   2.688  10.428  1.2978  1.3694  0.0894
10744SOL    HW235510   0.958   2.666  10.563 -2.2002 -0.8242 -1.8036
10745SOL     OW35511   8.560   7.364   5.357 -0.1220  0.5003 -0.3340
10745SOL    HW135512   8.610   7.426   5.411  0.4126 -0.7339  0.6504
10745SOL    HW235513   8.624   7.329   5.295 -0.1552  0.1225 -0.1548
10746SOL     OW35514   7.966   0.886   8.521 -0.2955 -0.1074  0.1396
10746SOL    HW135515   7.872   0.875   8.509 -0.6519  0.8219  1.7676
10746SOL    HW235516   8.004   0.804   8.489 -1.3962  0.4376 -2.8811
10747SOL     OW35517  11.021   5.183   0.392 -0.1985  0.3852  0.3227
10747SOL    HW135518  10.950   5.168   0.329  0.1502 -0.1220  0.0326
10747SOL    HW235519  11.075   5.250   0.351  0.3356 -0.3403 -0.2030
10748SOL     OW35520   7.431   9.332   6.741  0.2994  0.5160  0.3405
10748SOL    HW135521   7.393   9.325   6.828  1.2703  0.8743  0.8002
10748SOL    HW235522   7.355   9.328   6.682 -0.3516  0.0961  1.1758
10749SOL     OW35523   0.043   7.517   1.544  0.2483  0.7728 -0.0373
10749SOL    HW135524   0.035   7.424   1.522 -2.5037  0.9279 -0.0766
10749SOL    HW235525   0.133   7.527   1.576  0.4341 -2.0159  0.5584
10750SOL     OW35526   2.884   5.623   2.749  0.0300  0.0824 -0.2298
10750SOL    HW135527   2.844   5.630   2.836  0.3485  0.6569 -0.1304
10750SOL    HW235528   2.826   5.563   2.702  1.4937 -2.7968  1.3278
10751SOL     OW35529  10.713   5.570   0.373 -0.4109  0.1905  0.2942
10751SOL    HW135530  10.804   5.599   0.364 -0.2204 -0.5770 -0.4251
10751SOL    HW235531  10.700   5.510   0.300 -1.0335 -0.8651  1.2322
10752SOL     OW35532   8.858   0.206   9.671 -0.7051 -0.4350 -0.0680
10752SOL    HW135533   8.788   0.177   9.612 -0.9926 -1.3155  0.6718
10752SOL    HW235534   8.817   0.205   9.758  0.2045 -0.8781  0.3651
10753SOL     OW35535   4.462   9.344   6.852  0.2355  0.1897 -0.3987
10753SOL    HW135536   4.383   9.397   6.841  0.2224  0.8344  2.0890
10753SOL    HW235537   4.431   9.264   6.895  0.8433  0.2303  0.1344
10754SOL     OW35538   4.778   0.802   0.698 -0.3686 -0.3732  0.1276
10754SOL    HW135539   4.781   0.708   0.684  0.7727 -0.2494 -0.6036
10754SOL    HW235540   4.692   0.829   0.664 -0.7285 -1.1407  0.4074
10755SOL     OW35541   0.087  11.234   5.673 -0.7619 -0.2223 -0.0866
10755SOL    HW135542   0.114  11.293   5.743  0.5417 -0.3232 -0.4845
10755SOL    HW235543  -0.006  11.218   5.690 -0.5816  0.1201  1.3415
10756SOL     OW35544   4.244   5.262   5.819 -0.7870  0.2694 -0.7741
10756SOL    HW135545   4.219   5.187   5.765  2.2448 -0.8268 -0.8273
10756SOL    HW235546   4.310   5.308   5.767 -0.6181  1.4345  0.4239
10757SOL     OW35547   1.219  10.597   6.864 -0.4033  0.5936  0.1851
10757SOL    HW135548   1.210  10.603   6.769  1.1797  0.7903  0.0079
10757SOL    HW235549   1.231  10.503   6.881 -0.1772  0.6122  0.1294
10758SOL     OW35550   3.288   3.810   0.804 -0.2561  0.3593 -0.3263
10758SOL    HW135551   3.224   3.757   0.850  0.2071 -0.3480 -0.4814
10758SOL    HW235552   3.268   3.798   0.711 -1.7548  2.4881 -0.3423
10759SOL     OW35553   6.012   4.412   6.509  0.3068  0.2542  0.6584
10759SOL    HW135554   6.054   4.359   6.442  1.6230 -0.4313  1.9678
10759SOL    HW235555   6.080   4.427   6.575  0.1012  3.8382  0.2645
10760SOL     OW35556   5.028   1.490   0.665 -0.2350  0.3932 -0.6880
10760SOL    HW135557   5.111   1.475   0.620 -1.0424  1.0792 -2.4662
10760SOL    HW235558   4.975   1.541   0.604 -1.8549  0.2830  0.5406
10761SOL     OW35559   6.264   7.623   2.485 -0.2030  0.0425  0.2494
10761SOL    HW135560   6.325   7.611   2.413 -0.0366 -1.0918  0.5680
10761SOL    HW235561   6.260   7.718   2.497  1.3928  0.1488  0.1288
10762SOL     OW35562   1.773  11.253  11.010 -0.2612  0.6620  0.3644
10762SOL    HW135563   1.792  11.231  11.101 -1.0595  0.0917  0.4009
10762SOL    HW235564   1.682  11.281  11.010 -0.4239  0.1644 -0.3451
10763SOL     OW35565   2.899   8.423   3.613 -0.0421 -0.2908 -0.5659
10763SOL    HW135566   2.928   8.421   3.704 -2.1040  0.7028  0.1970
10763SOL    HW235567   2.908   8.333   3.583  0.8607 -0.5994  0.5503
10764SOL     OW35568   7.695   9.840   0.950 -0.3957 -0.2708 -0.2096
10764SOL    HW135569   7.643   9.760   0.964 -0.3398 -0.5608 -1.4995
10764SOL    HW235570   7.765   9.813   0.890  0.9487  0.2458  1.0766
10765SOL     OW35571  10.174   4.876   3.635 -0.1375 -0.5528  0.4804
10765SOL    HW135572  10.247   4.820   3.609  0.4724 -0.4747  1.9415
10765SOL    HW235573  10.209   4.965   3.631  0.2539 -0.5819  2.2875
10766SOL     OW35574   3.086   0.439  10.747  0.4998 -0.1509  0.1784
10766SOL    HW135575   3.170   0.434  10.793  0.2036 -0.8756  0.6743
10766SOL    HW235576   3.027   0.481  10.809  0.1174 -1.0614  0.4617
10767SOL     OW35577   9.670   0.748   0.028  0.2166  0.2580  0.1542
10767SOL    HW135578   9.735   0.784  -0.032  2.0177 -1.4882  0.9446
10767SOL    HW235579   9.716   0.678   0.074 -2.2236 -1.0232  0.8240
10768SOL     OW35580   4.018   8.880   8.897  0.2094  0.1110 -0.0182
10768SOL    HW135581   4.021   8.827   8.976 -2.0078 -2.1349 -1.3300
10768SOL    HW235582   4.083   8.840   8.838 -0.2629 -0.0963 -0.4016
10769SOL     OW35583   8.973   9.018   4.873  0.1142  0.4669  0.2071
10769SOL    HW135584   8.912   8.968   4.818 -2.2066  0.5372  2.4967
10769SOL    HW235585   8.950   9.109   4.857 -1.2380  0.4721  1.8238
10770SOL     OW35586   5.633  10.059   9.349 -0.0256 -0.4448  0.0978
10770SOL    HW135587   5.582  10.076   9.270  0.8070 -0.2079 -0.4028
10770SOL    HW235588   5.569  10.060   9.420 -1.0236 -1.9938 -0.7054
10771SOL     OW35589   8.518  10.254   6.773 -0.0878  0.3471 -0.3185
10771SOL    HW135590   8.476  10.170   6.752  0.4476  0.1594 -0.6737
10771SOL    HW235591   8.569  10.275   6.695  0.7726  0.3806  0.2317
10772SOL     OW35592   0.514   6.453   0.580  0.2195  0.2498  0.5783
10772SOL    HW135593   0.464   6.449   0.661  0.9690  0.6794  1.0687
10772SOL    HW235594   0.510   6.545   0.554  0.5973  0.2533  0.5251
10773SOL     OW35595   3.233   9.358   2.439 -0.4688  0.0425  0.0302
10773SOL    HW135596   3.142   9.372   2.411 -0.3973 -0.7025 -0.6279
10773SOL    HW235597   3.240   9.406   2.521 -2.0452 -1.5207  1.1557
10774SOL     OW35598   2.140  10.794   4.140 -0.6875 -0.3047  0.4014
10774SOL    HW135599   2.162  10.867   4.082  0.5614 -1.5410 -0.7787
10774SOL    HW235600   2.196  10.806   4.217  0.4227 -0.6467 -0.3285
10775SOL     OW35601   4.938   7.791   3.370  0.4776  0.0272 -0.4879
10775SOL    HW135602   4.969   7.707   3.406 -0.6429 -0.1043  0.2322
10775SOL    HW235603   4.842   7.782   3.369  0.3271  1.4237 -0.1028
10776SOL     OW35604   2.972   3.976   6.838 -0.2792  0.5337 -0.0530
10776SOL    HW135605   2.985   3.900   6.782  1.7747 -0.9670  2.2677
10776SOL    HW235606   2.894   4.019   6.803 -1.6985 -2.7891 -1.3127
10777SOL     OW35607   1.484  10.234  11.311  0.1519  0.1218 -0.1531
10777SOL    HW135608   1.436  10.158  11.345  1.5337 -0.3980  0.7295
10777SOL    HW235609   1.569  10.199  11.285  0.8156  1.3580  0.2694
10778SOL     OW35610   3.552   3.617   5.285  0.1362  0.8072  0.3246
10778SOL    HW135611   3.473   3.592   5.333  0.1243  0.8113  0.3069
10778SOL    HW235612   3.624   3.591   5.342  0.1937 -1.2936 -0.5959
10779SOL     OW35613   1.083   5.089   1.310  0.0835 -0.4112 -0.3265
10779SOL    HW135614   1.151   5.022   1.309  1.0113  0.4996 -0.5674
10779SOL    HW235615   1.038   5.076   1.393  0.4656 -1.1292 -0.2267
10780SOL     OW35616   1.378   6.727   6.039 -0.3252 -0.0492  0.0914
10780SOL    HW135617   1.460   6.711   6.085 -0.4765 -0.1622  0.3201
10780SOL    HW235618   1.332   6.793   6.091  0.3985  1.3491 -0.9649
10781SOL     OW35619   8.968  10.187  10.045 -0.3223  0.2775  0.3426
10781SOL    HW135620   9.052  10.155  10.077  0.6997 -0.7923 -2.9671
10781SOL    HW235621   8.909  10.113  10.055  0.0859 -0.1764 -0.4623
10782SOL     OW35622   6.372   1.583   4.089  0.0080  0.3938  0.3774
10782SOL    HW135623   6.414   1.562   4.006  1.1637  2.4428  0.3735
10782SOL    HW235624   6.297   1.636   4.065  0.0945  0.6266  0.6185
10783SOL     OW35625   9.203  10.903   7.071 -0.2266 -0.4542 -0.2297
10783SOL    HW135626   9.129  10.962   7.054 -1.7433 -2.3766 -0.7460
10783SOL    HW235627   9.192  10.879   7.163 -1.7824 -2.6016 -0.8957
10784SOL     OW35628  10.548   6.049   1.388 -0.2181 -0.9141 -0.1988
10784SOL    HW135629  10.535   6.141   1.408  0.7100 -0.4673 -1.4946
10784SOL    HW235630  10.528   6.003   1.469 -1.1640  0.3774  0.3317
10785SOL     OW35631   2.668   6.012  10.056  0.2778  0.1026  0.5826
10785SOL    HW135632   2.711   5.962   9.987  0.2740  0.4815  0.3022
10785SOL    HW235633   2.594   6.053  10.012  0.3226  0.4086  0.7957
10786SOL     OW35634   1.015   2.502   0.427 -1.0615  0.8695  0.1304
10786SOL    HW135635   1.016   2.415   0.468 -3.0742 -0.2396 -1.9888
10786SOL    HW235636   1.014   2.563   0.501 -0.1413 -0.8910  1.6825
10787SOL     OW35637   4.453   3.637  10.073  0.3049 -0.4961 -0.1296
10787SOL    HW135638   4.381   3.643  10.136  0.0713  0.1173 -0.4436
10787SOL    HW235639   4.531   3.664  10.123 -0.0252  0.8987 -0.3267
10788SOL     OW35640   2.478   1.810   4.819  0.1311 -0.0459 -0.0888
10788SOL    HW135641   2.560   1.761   4.825 -0.2759 -1.0062 -1.6906
10788SOL    HW235642   2.442   1.785   4.734 -1.1071  1.4946 -0.0604
10789SOL     OW35643   3.364   0.415   1.138  0.2489 -0.3651 -0.1700
10789SOL    HW135644   3.352   0.365   1.219  1.7503 -1.2700 -0.4770
10789SOL    HW235645   3.449   0.458   1.148 -0.6977  1.6243 -0.2120
10790SOL     OW35646   6.317   5.380   4.066  0.8321 -0.1636  0.6684
10790SOL    HW135647   6.254   5.450   4.052 -1.0734 -2.1274 -1.5327
10790SOL    HW235648   6.267   5.310   4.107  2.0655 -1.0640  0.6922
10791SOL     OW35649   7.651   0.002   8.015 -0.1144  0.1935 -0.0081
10791SOL    HW135650   7.739   0.032   8.037  0.2411 -0.7918 -0.0694
10791SOL    HW235651   7.608   0.080   7.979  1.0206  0.4607 -0.8497
10792SOL     OW35652   3.365   1.584   0.069 -0.0131 -0.0448  0.4743
10792SOL    HW135653   3.438   1.574   0.009  0.7535 -2.1015  1.6488
10792SOL    HW235654   3.333   1.673   0.054  0.8495 -0.0890 -2.1194
10793SOL     OW35655  10.432   3.306   9.662  0.1990 -0.0483 -0.1158
10793SOL    HW135656  10.341   3.331   9.647  0.1249  0.0005  0.3959
10793SOL    HW235657  10.435   3.212   9.643 -0.2235 -0.3010  0.9571
10794SOL     OW35658   8.547   9.043   4.936 -0.2100 -0.8215 -0.1654
10794SOL    HW135659   8.538   9.016   4.845 -0.1627 -0.7346 -0.1957
10794SOL    HW235660   8.458   9.037   4.971 -0.7684  1.6426 -0.9176
10795SOL     OW35661   7.114  10.902  11.077 -0.0428 -0.1921  0.6390
10795SOL    HW135662   7.114  10.903  10.981  1.2168  0.3722  0.6314
10795SOL    HW235663   7.125  10.994  11.101  2.0763 -0.5734  1.2884
10796SOL     OW35664   5.771   4.221   9.946 -0.1461 -0.3717 -0.0823
10796SOL    HW135665   5.828   4.222   9.869  1.8304  0.5064  1.3105
10796SOL    HW235666   5.716   4.299   9.936  0.4527  0.0221 -0.3801
10797SOL     OW35667  11.139   0.960  10.852  0.6870 -0.2387  0.4310
10797SOL    HW135668  11.142   1.055  10.841  2.0089 -0.3421 -0.3516
10797SOL    HW235669  11.136   0.947  10.947  1.7406  0.5919  0.5946
10798SOL     OW35670   3.081   6.994   9.073  0.0486  0.0182 -0.4754
10798SOL    HW135671   3.024   6.924   9.104  0.8024  0.2509  1.5698
10798SOL    HW235672   3.155   6.948   9.032  0.0194 -0.3482 -0.1214
10799SOL     OW35673   4.675   8.680   4.596 -0.0617 -0.7131  0.0504
10799SOL    HW135674   4.599   8.627   4.572  0.1073 -1.2063  0.5887
10799SOL    HW235675   4.647   8.729   4.674 -0.5884  0.8402 -1.0526
10800SOL     OW35676   0.552  10.022   8.833  0.2226  0.2399 -0.3610
10800SOL    HW135677   0.482  10.035   8.769  0.5933  0.4954 -0.7210
10800SOL    HW235678   0.628   9.996   8.780  0.3988 -0.0364  0.0238
10801SOL     OW35679  10.159  10.682   7.899  0.0974  0.2086 -0.2580
10801SOL    HW135680  10.082  10.629   7.880  0.5343 -1.8039  2.7271
10801SOL    HW235681  10.126  10.771   7.909 -1.6092 -0.3713 -0.4227
10802SOL     OW35682   1.433   8.887   5.815  0.4345  0.6642  0.0052
10802SOL    HW135683   1.519   8.870   5.776 -0.6612  0.1739 -2.3817
10802SOL    HW235684   1.421   8.816   5.879  1.2489 -0.0244 -0.5842
10803SOL     OW35685   9.907  10.355   2.164  0.1330  0.6233  0.7043
10803SOL    HW135686   9.904  10.292   2.092 -0.9161  0.3696  0.9460
10803SOL    HW235687   9.892  10.303   2.242  2.5628  0.6977  1.2811
10804SOL     OW35688   3.682   1.770   7.517  0.5335 -0.7948 -0.2197
10804SOL    HW135689   3.590   1.795   7.512  0.3735 -1.4837 -0.9059
10804SOL    HW235690   3.729   1.843   7.478  0.3221 -0.2045  0.6235
10805SOL     OW35691   5.141   1.240   3.850 -0.0087 -0.0267 -0.3307
10805SOL    HW135692   5.087   1.176   3.898  0.2665  0.2870  0.4186
10805SOL    HW235693   5.146   1.315   3.909  1.4795 -0.1544 -0.2623
10806SOL     OW35694   6.689   7.131  10.297  0.0419 -0.4039  0.6025
10806SOL    HW135695   6.698   7.223  10.273 -1.9266  0.2735  2.1589
10806SOL    HW235696   6.613   7.101  10.247 -0.9588 -0.3764  2.0232
10807SOL     OW35697   4.861  10.611   5.938  0.0043  0.3159  0.1413
10807SOL    HW135698   4.819  10.624   6.023  0.9773  0.0947  0.6702
10807SOL    HW235699   4.793  10.571   5.884 -0.4997  0.0475  0.9483
10808SOL     OW35700   9.084   3.647   0.590 -0.0655 -0.6376 -0.5458
10808SOL    HW135701   9.087   3.733   0.632 -0.1684 -0.1010 -1.5959
10808SOL    HW235702   9.084   3.584   0.662 -1.1928  0.2665  0.2582
10809SOL     OW35703   9.895   1.842   4.542 -0.1019 -0.0369  0.2306
10809SOL    HW135704   9.845   1.769   4.578 -0.8274  1.0779  1.5755
10809SOL    HW235705   9.986   1.822   4.564 -0.1399 -1.1619 -0.5737
10810SOL     OW35706  11.171   3.412   3.209 -0.1427 -0.3759 -0.4189
10810SOL    HW135707  11.248   3.413   3.266  0.3825 -0.6639 -1.1133
10810SOL    HW235708  11.201   3.452   3.127 -0.5049 -1.2144 -0.9777
10811SOL     OW35709   8.256   2.998   5.304 -0.0867 -0.0742 -0.2866
10811SOL    HW135710   8.303   3.000   5.221  0.6823 -0.3994  0.1198
10811SOL    HW235711   8.195   2.926   5.296  1.4025 -1.4492  0.1369
10812SOL     OW35712   1.278   9.535   9.533  0.4181 -0.5059 -0.2156
10812SOL    HW135713   1.239   9.498   9.454  0.6805  0.1250 -0.6504
10812SOL    HW235714   1.358   9.483   9.546  0.1624 -0.8839 -0.1150
10813SOL     OW35715   9.773   2.937   8.911 -0.6994 -0.3758 -0.1230
10813SOL    HW135716   9.809   3.022   8.936  0.7160 -0.8350 -0.4661
10813SOL    HW235717   9.724   2.954   8.830  1.4719 -0.2077 -1.4974
10814SOL     OW35718   3.365   3.963   8.007 -0.1425  0.0031  0.0108
10814SOL    HW135719   3.309   3.900   7.963  3.0897 -2.0496 -1.5279
10814SOL    HW235720   3.363   3.937   8.099 -1.2346 -0.3499 -0.1035
10815SOL     OW35721   0.744   5.172  10.209  0.0440  0.0836 -0.0202
10815SOL    HW135722   0.828   5.216  10.220 -0.5414  0.6816  2.7423
10815SOL    HW235723   0.680   5.243  10.200 -0.6050 -0.2075  1.9228
10816SOL     OW35724   3.677   7.760   7.115 -0.2906  0.4116  0.6205
10816SOL    HW135725   3.704   7.736   7.204  0.7362 -0.3658  0.1254
10816SOL    HW235726   3.642   7.679   7.078 -2.1265  1.0818  0.7848
10817SOL     OW35727   2.317   3.607   9.438 -0.1955 -0.1006  0.3920
10817SOL    HW135728   2.342   3.568   9.355 -0.7169 -1.5865  0.8951
10817SOL    HW235729   2.260   3.542   9.479  0.0818  0.5727  1.9324
10818SOL     OW35730   7.361   5.600   1.664  0.0145 -0.1090  0.1516
10818SOL    HW135731   7.444   5.636   1.633  0.3290 -0.8221  0.1434
10818SOL    HW235732   7.361   5.617   1.759 -0.6841  1.5479 -0.1041
10819SOL     OW35733  10.407   7.243   4.394  0.3649 -0.0570 -0.5760
10819SOL    HW135734  10.375   7.170   4.341  1.1844 -0.7104 -0.2095
10819SOL    HW235735  10.398   7.212   4.484  2.2885 -0.4295 -0.4633
10820SOL     OW35736   5.118   9.151  10.699  0.3677  0.2091 -0.2773
10820SOL    HW135737   5.119   9.197  10.783  1.1063  1.4835 -0.9534
10820SOL    HW235738   5.206   9.116  10.690 -0.4882 -2.4209  0.7518
10821SOL     OW35739   8.319  10.343   5.014  0.6824  0.5030  0.5591
10821SOL    HW135740   8.339  10.329   5.107  1.1532  1.7745  0.6587
10821SOL    HW235741   8.351  10.263   4.971 -0.0831 -0.3718  1.5349
10822SOL     OW35742   1.156  10.575   0.087  0.5376  0.4531  0.0227
10822SOL    HW135743   1.173  10.481   0.096 -1.0908  0.1843  0.5386
10822SOL    HW235744   1.173  10.611   0.175  0.0236  0.4497  0.1229
10823SOL     OW35745   2.126   0.480   7.909 -0.4336  0.4180 -0.3269
10823SOL    HW135746   2.163   0.561   7.873  2.7153 -0.3678  0.8137
10823SOL    HW235747   2.150   0.412   7.846 -0.1457 -0.0817  0.3106
10824SOL     OW35748   2.244   5.631   0.182  0.9271 -0.0134  0.1055
10824SOL    HW135749   2.324   5.578   0.180  0.8261 -0.1519 -0.9781
10824SOL    HW235750   2.173   5.567   0.172  0.5083 -0.1272  2.9626
10825SOL     OW35751  10.015   3.324   1.077 -0.0921  0.2000  0.3976
10825SOL    HW135752  10.093   3.305   1.026 -0.8888 -0.5586 -0.5925
10825SOL    HW235753   9.968   3.390   1.026 -0.1469  0.5830  0.9375
10826SOL     OW35754   9.369  10.370   1.182  0.2850  0.2103  0.6004
10826SOL    HW135755   9.277  10.385   1.205  0.7178  3.2213  0.7943
10826SOL    HW235756   9.376  10.400   1.091  0.8394 -1.3108  0.1090
10827SOL     OW35757  10.689   4.588   8.567 -0.0315 -0.4016  0.5523
10827SOL    HW135758  10.702   4.535   8.646 -1.3048 -0.8690  0.4763
10827SOL    HW235759  10.603   4.629   8.580 -0.3095 -0.5838 -0.6342
10828SOL     OW35760   1.811   2.230   7.158 -0.2092  0.0835 -0.0142
10828SOL    HW135761   1.900   2.265   7.170 -1.0802  2.0552  1.2640
10828SOL    HW235762   1.796   2.174   7.234  0.4408 -1.4758 -1.0000
10829SOL     OW35763   8.211   4.384   2.571 -0.5485  0.4713 -0.0343
10829SOL    HW135764   8.187   4.307   2.520 -0.0781  0.4215 -0.1856
10829SOL    HW235765   8.172   4.369   2.657  0.7865 -0.6498  0.4116
10830SOL     OW35766   7.399   7.246   4.450  0.3335  0.5909  0.4165
10830SOL    HW135767   7.350   7.238   4.368 -0.0973  0.7834  0.6484
10830SOL    HW235768   7.432   7.158   4.467 -0.7901  0.2112  0.7691
10831SOL     OW35769   4.521   4.237   1.377 -0.5709 -0.2227 -0.4774
10831SOL    HW135770   4.602   4.284   1.356 -0.3637 -0.2908  0.1747
10831SOL    HW235771   4.459   4.306   1.401 -0.9048 -0.1152 -1.5737
10832SOL     OW35772   0.486   1.298   5.749  0.4304 -0.3688 -0.4359
10832SOL    HW135773   0.479   1.234   5.677  0.7723 -0.6017 -0.2626
10832SOL    HW235774   0.568   1.343   5.732  0.9926 -1.0730  0.3316
10833SOL     OW35775  11.369   5.586   6.681 -0.0661 -0.4973 -0.0138
10833SOL    HW135776  11.289   5.590   6.734  0.3862  0.6157  0.6352
10833SOL    HW235777  11.373   5.496   6.650 -0.2751 -1.2517  1.9974
10834SOL     OW35778   1.661   8.956   9.114 -0.2991  0.0430 -0.2704
10834SOL    HW135779   1.604   8.879   9.117  0.4936 -0.5572 -0.4537
10834SOL    HW235780   1.658   8.985   9.023  0.1385 -0.3376 -0.4103
10835SOL     OW35781   1.558   9.980   2.754  0.6008 -0.6894  0.3066
10835SOL    HW135782   1.507  10.058   2.775 -0.0604 -1.2555  0.8739
10835SOL    HW235783   1.648  10.003   2.779  0.0505 -0.9073  2.8404
10836SOL     OW35784  10.209   5.402  11.212 -0.0133 -0.2519  0.0522
10836SOL    HW135785  10.203   5.312  11.181 -0.6451  0.6486 -2.8276
10836SOL    HW235786  10.303   5.421  11.211  0.1653 -1.0139  1.2036
10837SOL     OW35787   3.235   4.431   7.324 -0.1473 -0.3558  0.6122
10837SOL    HW135788   3.293   4.387   7.262  0.6754  1.0043  0.3811
10837SOL    HW235789   3.288   4.440   7.403 -1.1454 -1.9603  1.5073
10838SOL     OW35790   9.630   0.284   9.284  0.3452 -0.2677 -0.5305
10838SOL    HW135791   9.577   0.362   9.303  0.0467 -0.2420 -1.4430
10838SOL    HW235792   9.709   0.296   9.337 -0.5035 -0.2658  0.7772
10839SOL     OW35793   3.131   5.086   8.162 -0.3090 -0.5688  0.1996
10839SOL    HW135794   3.070   5.132   8.220 -1.1738  0.5134 -1.4824
10839SOL    HW235795   3.172   5.156   8.111 -0.3074 -1.5317 -1.1552
10840SOL     OW35796   4.647   4.489   2.802  0.4221  0.3027  0.3952
10840SOL    HW135797   4.730   4.446   2.785 -0.3878 -1.0003 -0.4287
10840SOL    HW235798   4.622   4.528   2.718 -0.3141 -0.2794  0.3299
10841SOL     OW35799   6.596   6.938   2.059  0.4323  0.2723 -0.1594
10841SOL    HW135800   6.688   6.912   2.065  0.5240  0.4281 -0.8607
10841SOL    HW235801   6.597   7.032   2.076 -0.0187 -0.2499  3.4723
10842SOL     OW35802   5.635   1.998   0.165  0.2035  0.2685 -1.2246
10842SOL    HW135803   5.718   1.985   0.212  0.8187  2.3610 -1.6241
10842SOL    HW235804   5.633   1.926   0.101  0.4576 -1.2799  0.4067
10843SOL     OW35805  10.232  10.343   0.174 -0.1281  0.0140  0.6476
10843SOL    HW135806  10.192  10.415   0.125 -0.3838  0.3954  1.3992
10843SOL    HW235807  10.178  10.267   0.152 -0.8393  0.3815  1.1011
10844SOL     OW35808   4.882   7.006   9.037 -0.6397  0.2191  0.5134
10844SOL    HW135809   4.896   6.914   9.059 -1.8022  0.2681  1.5595
10844SOL    HW235810   4.825   7.005   8.961 -1.0184  0.0750  0.7982
10845SOL     OW35811   9.146  11.175  10.573  0.0969  0.2314 -0.4038
10845SOL    HW135812   9.087  11.167  10.647 -0.4706  1.1106 -0.7468
10845SOL    HW235813   9.192  11.258  10.587  1.3449 -0.4967 -0.0791
10846SOL     OW35814   7.409   2.859   7.804 -0.0155 -0.1374  0.0174
10846SOL    HW135815   7.463   2.938   7.802  0.1456 -0.0410  3.2490
10846SOL    HW235816   7.444   2.808   7.877 -0.9969 -2.5951 -1.1097
10847SOL     OW35817   1.635  11.390  10.623  0.0710  0.1256  0.6579
10847SOL    HW135818   1.672  11.326  10.683 -0.4022 -2.1468 -1.3522
10847SOL    HW235819   1.687  11.381  10.543 -1.1336  0.9818 -0.2654
10848SOL     OW35820   9.897   3.477   3.128 -0.1668 -0.2179  0.3998
10848SOL    HW135821   9.989   3.501   3.141 -0.4781  0.5240  1.2690
10848SOL    HW235822   9.876   3.509   3.040  0.1093  0.5537  0.6086
10849SOL     OW35823  10.672  10.150  10.945  0.5657  0.4065  1.0490
10849SOL    HW135824  10.657  10.220  11.010 -0.5576  1.6696 -0.4959
10849SOL    HW235825  10.587  10.140  10.902  1.2432 -0.5523 -0.0931
10850SOL     OW35826   1.601  10.708   0.673  0.0942 -0.5358 -0.3904
10850SOL    HW135827   1.539  10.766   0.628  0.4153  0.0067 -0.1528
10850SOL    HW235828   1.630  10.759   0.749 -0.6374 -1.5370  0.5946
10851SOL     OW35829   0.370   1.960   1.406  0.0441 -0.1160 -0.6722
10851SOL    HW135830   0.306   2.014   1.360  0.0744 -0.5884 -1.2709
10851SOL    HW235831   0.319   1.913   1.472  0.0302  0.6998 -0.0673
10852SOL     OW35832   7.201   7.441   8.088  0.4707 -0.1301 -0.1683
10852SOL    HW135833   7.140   7.478   8.025  0.6727  0.4886 -0.0055
10852SOL    HW235834   7.177   7.348   8.094 -0.3564  0.0786 -0.2071
10853SOL     OW35835   2.762   4.172   6.760 -0.1108  0.1258 -0.6736
10853SOL    HW135836   2.671   4.145   6.747  0.1510 -0.7924 -0.7064
10853SOL    HW235837   2.758   4.243   6.824 -0.7406 -0.9697  0.5397
10854SOL     OW35838   0.056   3.031   9.757  0.0496 -0.1620  0.2874
10854SOL    HW135839   0.046   3.122   9.785 -0.3068  0.7139 -2.3640
10854SOL    HW235840  -0.030   2.991   9.771 -1.0338  1.1008 -2.0880
10855SOL     OW35841   0.753   4.598   2.094  0.4223 -0.0561 -0.5279
10855SOL    HW135842   0.776   4.665   2.030  0.5669  0.3722 -0.0390
10855SOL    HW235843   0.737   4.647   2.175  1.8576 -0.7229  0.1939
10856SOL     OW35844   9.664   0.550  10.970  0.0232 -0.2698  0.0998
10856SOL    HW135845   9.637   0.532  10.880  0.4019 -0.4725  0.0227
10856SOL    HW235846   9.746   0.598  10.961  1.1230 -2.0148  0.3396
10857SOL     OW35847   3.947   3.185   1.028 -0.1454  0.0602 -0.6601
10857SOL    HW135848   3.967   3.247   1.098  0.4142 -0.1086 -0.6664
10857SOL    HW235849   3.897   3.237   0.964  0.6904  0.6160 -0.8704
10858SOL     OW35850   8.265   6.293   0.412 -0.4499  0.3390  0.2268
10858SOL    HW135851   8.258   6.202   0.384  0.5429  0.4804 -0.5232
10858SOL    HW235852   8.178   6.330   0.398 -1.0074 -0.6138  1.0239
10859SOL     OW35853   1.011   0.088   7.977  0.1811  0.4321 -0.3848
10859SOL    HW135854   1.068   0.130   8.041  1.2027 -1.1191 -0.1996
10859SOL    HW235855   1.026  -0.006   7.990 -2.2188 -0.0388 -0.5488
10860SOL     OW35856   6.293   5.836   2.931 -0.2564 -0.1535 -0.2517
10860SOL    HW135857   6.267   5.862   3.019 -0.7528 -0.0577 -0.4249
10860SOL    HW235858   6.223   5.779   2.900  0.4192 -1.0275 -0.1994
10861SOL     OW35859   8.091   0.011   2.953  0.4133 -0.0255 -0.4561
10861SOL    HW135860   8.021   0.076   2.949  0.5584  0.1076 -0.8881
10861SOL    HW235861   8.058  -0.056   3.013  0.3480  0.5430  0.1472
10862SOL     OW35862   7.714   1.515   7.226 -0.2557 -0.6954  0.1794
10862SOL    HW135863   7.740   1.457   7.297 -2.4829  0.0429  1.7460
10862SOL    HW235864   7.708   1.459   7.149  3.0679 -1.3568  0.2547
10863SOL     OW35865   9.717   0.256   8.198  0.5837 -0.3917  0.8683
10863SOL    HW135866   9.755   0.172   8.224  2.2925  0.7153  2.2016
10863SOL    HW235867   9.756   0.319   8.258 -1.2965  1.2613  0.4437
10864SOL     OW35868   6.900   4.748   3.900  0.0398  0.1514  0.1001
10864SOL    HW135869   6.870   4.836   3.924 -0.8156  0.0832 -0.6716
10864SOL    HW235870   6.922   4.754   3.807  1.8995  0.0325  0.4895
10865SOL     OW35871   3.173   0.974   6.713 -0.3796 -0.0059  0.5252
10865SOL    HW135872   3.083   0.943   6.718 -0.0266 -1.1444  0.0686
10865SOL    HW235873   3.174   1.035   6.639 -0.6199 -0.5538  0.0661
10866SOL     OW35874   3.607   2.523   6.227  0.4769  0.0707 -0.0679
10866SOL    HW135875   3.617   2.430   6.206  0.6919 -0.0060  0.3730
10866SOL    HW235876   3.520   2.528   6.268  1.4610 -0.3675  2.2268
10867SOL     OW35877   1.084   5.248   7.437  0.4207 -0.2076 -0.0157
10867SOL    HW135878   1.149   5.272   7.503  1.4349  2.1326 -1.6814
10867SOL    HW235879   1.132   5.255   7.354 -1.5623  0.0750 -1.1973
10868SOL     OW35880   8.483   1.944   8.927 -0.2897 -0.3280  0.7382
10868SOL    HW135881   8.465   1.855   8.959  1.1429 -0.1873  2.0699
10868SOL    HW235882   8.406   1.967   8.875 -0.4916 -2.5238 -0.0420
10869SOL     OW35883   3.221  10.581   2.397 -0.0997 -0.3670 -0.5079
10869SOL    HW135884   3.184  10.646   2.337 -0.3754 -0.9052 -0.9336
10869SOL    HW235885   3.264  10.518   2.339  0.4543 -0.3918 -0.0821
10870SOL     OW35886   2.058   1.273   9.731 -0.2560  0.7008  0.3878
10870SOL    HW135887   2.069   1.365   9.708 -2.0254  1.0585  0.8582
10870SOL    HW235888   1.969   1.266   9.765 -1.1498 -1.6688 -2.0474
10871SOL     OW35889   1.893   9.818   2.789  0.6124 -0.3074 -0.1403
10871SOL    HW135890   1.804   9.812   2.823  0.2606 -1.1381 -1.1667
10871SOL    HW235891   1.947   9.775   2.855  0.4419  1.2639  1.0780
10872SOL     OW35892   4.794   7.915   5.598  0.8401  0.5027 -0.0879
10872SOL    HW135893   4.705   7.951   5.591 -0.1377 -1.5704  0.8475
10872SOL    HW235894   4.849   7.992   5.612 -0.5911  1.9917 -1.9993
10873SOL     OW35895   4.920   8.414   6.839  0.1790  0.0136 -0.1928
10873SOL    HW135896   4.899   8.412   6.932  1.2469 -2.8524  0.0935
10873SOL    HW235897   4.867   8.485   6.803  0.4595  1.8216  2.7248
10874SOL     OW35898   4.994   3.219   7.545 -0.1821 -0.0806 -0.2649
10874SOL    HW135899   5.007   3.130   7.578  0.7943  0.1916  0.1217
10874SOL    HW235900   4.910   3.215   7.498 -1.6670 -0.4488  2.2641
10875SOL     OW35901   6.303   7.638   1.633  0.4283  0.2491 -0.1333
10875SOL    HW135902   6.375   7.625   1.572 -0.2900 -0.3774 -0.8630
10875SOL    HW235903   6.224   7.611   1.585 -0.5186  2.4295  0.0694
10876SOL     OW35904   5.800   3.190   0.715  0.1753  0.2082  0.1256
10876SOL    HW135905   5.721   3.210   0.765 -1.2696 -0.0226 -1.9474
10876SOL    HW235906   5.827   3.274   0.677 -0.7662 -0.1521 -1.4366
10877SOL     OW35907   2.516   5.595   0.018 -0.5866 -0.4750  0.1637
10877SOL    HW135908   2.431   5.632  -0.003 -1.1769 -0.7555  1.9641
10877SOL    HW235909   2.548   5.647   0.092  0.8179 -0.3770 -0.4696
10878SOL     OW35910   4.850   5.251   0.660  0.0939  0.1522  0.1313
10878SOL    HW135911   4.793   5.271   0.585  1.6887 -1.2129 -1.5624
10878SOL    HW235912   4.851   5.332   0.711  1.0522  2.1996 -2.8095
10879SOL     OW35913   8.064   8.452   0.069 -0.6408  0.0999 -0.5795
10879SOL    HW135914   8.015   8.431   0.148 -0.4446  1.3805 -0.0991
10879SOL    HW235915   8.103   8.368   0.042 -1.6701 -0.5833 -0.0037
10880SOL     OW35916   3.699   0.293   5.880 -0.0723  0.2861 -0.1162
10880SOL    HW135917   3.654   0.317   5.961  0.8166 -0.5572  0.6546
10880SOL    HW235918   3.790   0.318   5.895 -0.0794  1.0760 -1.2758
10881SOL     OW35919   9.913   4.269   0.753 -0.5217 -0.7480  0.0067
10881SOL    HW135920   9.878   4.180   0.757  0.5652 -1.3969 -2.4218
10881SOL    HW235921   9.996   4.259   0.706  1.0447  1.2069  2.1384
10882SOL     OW35922   7.109   7.466   7.424  0.9121  0.7996 -0.1592
10882SOL    HW135923   7.023   7.475   7.385  1.3745  0.6922 -1.2325
10882SOL    HW235924   7.098   7.497   7.514 -0.8070 -1.5266  0.5162
10883SOL     OW35925   1.397   2.277   2.942 -0.3113  0.3967 -0.5221
10883SOL    HW135926   1.385   2.274   2.847  1.3234 -0.2654 -0.7374
10883SOL    HW235927   1.421   2.188   2.966  1.5117  1.0257  0.1623
10884SOL     OW35928   1.747   1.508   3.253 -0.3162 -0.4320 -0.4158
10884SOL    HW135929   1.793   1.494   3.170  0.4377  0.4155 -0.1520
10884SOL    HW235930   1.666   1.458   3.243 -0.2202 -0.3885 -1.6479
10885SOL     OW35931   0.944   2.273   5.742 -0.4553 -0.5421  0.3309
10885SOL    HW135932   0.866   2.323   5.763  0.2938  0.8084 -0.0040
10885SOL    HW235933   0.988   2.324   5.675  1.6905 -0.2760  1.8427
10886SOL     OW35934   9.483   2.921   6.449 -0.2721  0.6888  0.3108
10886SOL    HW135935   9.440   2.987   6.504  1.8894  2.3536  0.1323
10886SOL    HW235936   9.575   2.948   6.447  0.0633 -0.3579 -2.6410
10887SOL     OW35937   9.758   8.151   6.352  0.2919  0.7764 -0.2186
10887SOL    HW135938   9.703   8.129   6.427  2.0283 -1.1715  0.5770
10887SOL    HW235939   9.839   8.183   6.390  0.9035  0.5369 -1.2715
10888SOL     OW35940   8.251   2.726   6.888 -0.1017 -0.6423 -0.3255
10888SOL    HW135941   8.163   2.731   6.926 -0.2908  1.2599 -0.8816
10888SOL    HW235942   8.278   2.636   6.902 -2.0473 -1.2210  0.0651
10889SOL     OW35943   5.950  11.380   6.744  0.2300  0.0205  0.3044
10889SOL    HW135944   5.975  11.293   6.715  0.5435  0.4370 -0.7188
10889SOL    HW235945   5.917  11.367   6.833  1.1629 -0.9980  0.5300
10890SOL     OW35946   2.265  10.686   4.898  0.2265  0.2542  0.3549
10890SOL    HW135947   2.249  10.753   4.964 -1.9867 -1.3062  1.5594
10890SOL    HW235948   2.240  10.726   4.815  1.7824  1.8168  0.5946
10891SOL     OW35949   2.755   9.422   8.911 -0.8651 -0.1731 -0.1988
10891SOL    HW135950   2.764   9.337   8.868 -0.1096  0.0085 -0.4131
10891SOL    HW235951   2.837   9.468   8.892 -0.8114  0.1880  0.8402
10892SOL     OW35952   0.760   8.607   1.898 -0.3358  0.2396  0.2036
10892SOL    HW135953   0.842   8.611   1.948 -0.7232  0.5104  0.8249
10892SOL    HW235954   0.787   8.577   1.811  0.7237  2.3396 -0.2439
10893SOL     OW35955   7.966   4.674   3.935  0.0450  0.2488  0.4346
10893SOL    HW135956   8.010   4.753   3.967  1.2097 -0.7991  1.5568
10893SOL    HW235957   8.026   4.639   3.869  0.8144 -1.0101  1.7322
10894SOL     OW35958   4.819   8.805   5.848  0.2284  0.1352 -0.2758
10894SOL    HW135959   4.794   8.723   5.891 -1.0177 -0.0027 -1.2199
10894SOL    HW235960   4.737   8.853   5.839  0.8915  1.3395 -0.0762
10895SOL     OW35961   3.185   4.306   8.490 -0.0111  0.6694  0.2804
10895SOL    HW135962   3.118   4.267   8.434  1.2098  0.1057 -0.8517
10895SOL    HW235963   3.147   4.305   8.577 -1.2661 -0.1291 -0.2440
10896SOL     OW35964  10.349   8.176   2.740 -0.0265 -0.2580  0.0518
10896SOL    HW135965  10.439   8.147   2.725 -0.1647 -0.5683 -0.1891
10896SOL    HW235966  10.295   8.099   2.719 -0.3406 -0.1039  0.2837
10897SOL     OW35967   1.938   6.900   8.816 -0.0425  0.5564 -0.1061
10897SOL    HW135968   1.979   6.817   8.792  0.4465  0.3793  1.2755
10897SOL    HW235969   1.965   6.961   8.747  0.1682 -0.2518 -0.7490
10898SOL     OW35970   9.108   8.849   7.299  0.0837 -0.4848  0.6532
10898SOL    HW135971   9.193   8.834   7.340  0.6547  1.4257  0.2774
10898SOL    HW235972   9.118   8.933   7.253 -0.6937 -2.1273 -2.8560
10899SOL     OW35973  10.597  10.932   0.898 -0.2232  0.1311  0.1453
10899SOL    HW135974  10.658  10.980   0.842 -1.5438 -0.9645 -2.4042
10899SOL    HW235975  10.653  10.869   0.944  0.8125  0.2948 -0.8254
10900SOL     OW35976  11.314   2.895   0.691  0.6305 -0.5487 -0.0521
10900SOL    HW135977  11.289   2.865   0.778  1.1768 -2.7833 -0.5778
10900SOL    HW235978  11.388   2.839   0.667  1.3172  0.8910 -1.4466
10901SOL     OW35979   4.973   1.962   6.814 -0.0742 -0.4224 -0.1338
10901SOL    HW135980   5.006   1.881   6.776 -0.0241 -0.6737  0.4312
10901SOL    HW235981   4.981   2.027   6.744 -2.0447 -1.3484 -1.3181
10902SOL     OW35982   9.282  11.028   9.379  0.8512  0.3265  0.8533
10902SOL    HW135983   9.368  11.036   9.421  1.1102  0.0432  0.3901
10902SOL    HW235984   9.300  10.981   9.297  0.3173  0.6418  0.5505
10903SOL     OW35985   4.402   2.226   3.131 -0.0654  0.4748 -0.0060
10903SOL    HW135986   4.427   2.318   3.138  1.4368 -0.0271  1.9217
10903SOL    HW235987   4.433   2.199   3.044  0.5611  1.4600 -0.0944
10904SOL     OW35988   7.116   2.147   0.816 -0.3646 -0.5268 -0.1955
10904SOL    HW135989   7.172   2.071   0.833  1.1019 -0.2547 -3.2125
10904SOL    HW235990   7.051   2.115   0.753 -0.4729  0.4303 -0.5860
10905SOL     OW35991   4.842   7.381   6.845 -0.1341  0.1824 -0.0568
10905SOL    HW135992   4.818   7.469   6.871 -0.1509  0.1372  0.0802
10905SOL    HW235993   4.938   7.382   6.842 -0.1151  0.0592  0.4543
10906SOL     OW35994  10.548   2.323   8.187  0.1475 -0.0317 -0.4543
10906SOL    HW135995  10.505   2.407   8.169 -2.2936 -0.5885  2.0697
10906SOL    HW235996  10.637   2.334   8.153 -0.3822  3.1700 -1.1458
10907SOL     OW35997  11.245   1.458   5.206  0.2718  0.1598  0.1388
10907SOL    HW135998  11.327   1.442   5.160  0.2719 -0.3585  0.3103
10907SOL    HW235999  11.230   1.378   5.257 -1.1844 -0.4540 -1.1668
10908SOL     OW36000   8.023   7.572   5.838  0.1954 -0.5004  0.4719
10908SOL    HW136001   8.071   7.491   5.823  0.2112 -0.4008 -0.0417
10908SOL    HW236002   8.019   7.581   5.933  1.8949 -0.1029  0.5285
10909SOL     OW36003   0.840  10.308  10.551  0.5251 -0.1615  0.1627
10909SOL    HW136004   0.870  10.399  10.543  0.4121  0.1517  2.5355
10909SOL    HW236005   0.883  10.276  10.630 -0.2337 -1.8608 -0.0842
10910SOL     OW36006   3.639   4.069  10.554  0.1919  0.0297  0.3301
10910SOL    HW136007   3.567   4.013  10.581 -0.3570 -1.2698 -3.2638
10910SOL    HW236008   3.716   4.032  10.598 -0.4466 -2.5506 -0.5265
10911SOL     OW36009  11.253  11.360   8.892 -0.7208 -0.2811 -0.4680
10911SOL    HW136010  11.331  11.415   8.881 -1.3292  0.4603 -1.3008
10911SOL    HW236011  11.241  11.353   8.986 -0.7997  1.2981 -0.3315
10912SOL     OW36012   7.721   2.340   8.303  0.2658  0.1315  0.4336
10912SOL    HW136013   7.655   2.378   8.245  0.6123  1.7589  1.0569
10912SOL    HW236014   7.676   2.266   8.344 -0.0070 -1.0162 -1.7764
10913SOL     OW36015  11.360   5.363   3.224  0.1627  0.8592 -0.2284
10913SOL    HW136016  11.432   5.356   3.162 -1.0762 -0.2204 -1.6408
10913SOL    HW236017  11.357   5.455   3.249  2.5085  0.7914  0.5389
10914SOL     OW36018   5.391   5.365   3.244  0.3637 -0.3379 -0.1680
10914SOL    HW136019   5.335   5.323   3.179  1.1789  0.2484 -1.2823
10914SOL    HW236020   5.359   5.455   3.248  1.3025  0.0448 -0.9350
10915SOL     OW36021   3.133   6.043   0.530 -0.3662  0.5983 -0.3193
10915SOL    HW136022   3.050   6.051   0.483 -0.8497 -0.5349  0.2924
10915SOL    HW236023   3.118   5.971   0.592  0.1624  2.1991  1.7730
10916SOL     OW36024  11.186   1.442  10.436 -0.3388 -0.0833  0.1366
10916SOL    HW136025  11.204   1.469  10.346  0.1113  2.3581  0.9016
10916SOL    HW236026  11.099   1.476  10.455  0.1039  0.5928  1.0282
10917SOL     OW36027   0.608   8.058   4.331 -0.0012 -0.2899  0.5792
10917SOL    HW136028   0.653   8.131   4.290  0.0621  0.5255  2.0473
10917SOL    HW236029   0.541   8.098   4.386 -1.8470 -1.4425 -0.7222
10918SOL     OW36030   8.280   0.443   9.000  0.0198 -0.1224  0.2698
10918SOL    HW136031   8.350   0.435   8.935  0.0274 -1.6942  0.4464
10918SOL    HW236032   8.279   0.359   9.046 -2.3988 -0.4066 -0.1412
10919SOL     OW36033   9.047   8.200   5.301 -0.3563  0.1998  0.5574
10919SOL    HW136034   8.969   8.198   5.246 -0.1476 -0.2834  0.2773
10919SOL    HW236035   9.019   8.244   5.382 -0.3101  2.2818 -0.4783
10920SOL     OW36036   2.862   3.497   2.638 -0.2374  0.1170  0.3401
10920SOL    HW136037   2.785   3.532   2.593 -0.3899 -0.4495  0.1445
10920SOL    HW236038   2.932   3.504   2.573 -0.6087 -1.3463 -0.2849
10921SOL     OW36039   7.256   0.840   8.853 -0.0910 -0.7814 -0.1771
10921SOL    HW136040   7.348   0.819   8.872  0.7498  1.0227 -1.8545
10921SOL    HW236041   7.221   0.759   8.814  0.6963 -1.5648  0.6815
10922SOL     OW36042   0.100   5.863   0.938 -0.3633  0.7234  0.1340
10922SOL    HW136043   0.075   5.863   0.846 -0.0908  0.5340  0.0584
10922SOL    HW236044   0.054   5.938   0.976 -0.1904  1.0179 -0.2368
10923SOL     OW36045   0.914  10.875   3.809 -0.1466  0.0041 -0.4551
10923SOL    HW136046   0.864  10.908   3.734  0.7868  0.5559 -0.8432
10923SOL    HW236047   0.999  10.851   3.773  1.3010  2.7679  0.8246
10924SOL     OW36048   6.544   9.462   6.622 -0.2873 -0.0827 -0.7845
10924SOL    HW136049   6.498   9.509   6.692 -1.2092 -0.5112 -1.0764
10924SOL    HW236050   6.483   9.466   6.548 -0.3436 -1.6319 -0.8498
10925SOL     OW36051  10.282   9.284   0.702 -0.2660 -0.3460  0.1385
10925SOL    HW136052  10.220   9.354   0.723  1.1175  0.8766  0.3661
10925SOL    HW236053  10.357   9.301   0.760  1.2740 -0.3317 -1.7601
10926SOL     OW36054   2.481   0.129   4.276  0.1289 -0.5949  0.3248
10926SOL    HW136055   2.397   0.164   4.305  0.3697 -0.2946  0.6643
10926SOL    HW236056   2.517   0.086   4.354  0.5086 -0.3034  0.3156
10927SOL     OW36057   1.964   4.682   6.020  0.0030  0.1115 -0.0137
10927SOL    HW136058   2.012   4.756   6.057  0.5269  0.0333 -0.5264
10927SOL    HW236059   1.948   4.624   6.095  1.3672 -0.2107  0.0510
10928SOL     OW36060  11.132   5.893   8.533  0.2776 -0.3592  0.1097
10928SOL    HW136061  11.116   5.865   8.443 -1.8572 -0.1262  0.3700
10928SOL    HW236062  11.111   5.986   8.534  0.7776 -0.2458  0.7312
10929SOL     OW36063   8.394   9.304  11.252  0.2650 -0.0572 -0.7391
10929SOL    HW136064   8.302   9.277  11.260  0.2830  0.2107  0.6416
10929SOL    HW236065   8.389   9.396  11.225  0.1149  0.1162 -0.1286
10930SOL     OW36066   9.489   8.202  10.775  0.2939  0.4094  0.4812
10930SOL    HW136067   9.395   8.203  10.758  0.1842  0.2757  1.0614
10930SOL    HW236068   9.528   8.173  10.692 -0.2022  0.0855  0.3586
10931SOL     OW36069   8.008   5.195   4.629 -0.8804 -1.0965  0.2038
10931SOL    HW136070   8.033   5.260   4.694  1.8834  1.0182 -2.6561
10931SOL    HW236071   8.056   5.116   4.654 -0.6271 -0.6268  1.2373
10932SOL     OW36072   3.814   0.892  10.139 -0.6017 -0.3437  0.2387
10932SOL    HW136073   3.876   0.883  10.066 -2.3890 -1.9996 -1.1696
10932SOL    HW236074   3.748   0.953  10.107 -0.2658  0.6604  1.3704
10933SOL     OW36075   8.564   9.650   8.919  0.0286  0.0134  0.1471
10933SOL    HW136076   8.562   9.584   8.989 -0.3710  1.4497  1.5439
10933SOL    HW236077   8.601   9.604   8.844  2.3711 -1.1018  1.8561
10934SOL     OW36078   0.299   4.466   4.650  0.1496 -0.8148  0.6415
10934SOL    HW136079   0.310   4.505   4.563 -2.2313 -1.5079 -0.0308
10934SOL    HW236080   0.299   4.541   4.710  0.6071 -0.2264 -0.0799
10935SOL     OW36081   4.878   3.219  10.948 -0.0313  0.0876 -0.1682
10935SOL    HW136082   4.953   3.181  10.904 -0.1949  0.9883 -1.2810
10935SOL    HW236083   4.803   3.169  10.916  0.1599 -1.7288  1.9876
10936SOL     OW36084  10.270   5.170   0.258  0.1070 -0.0497  0.0039
10936SOL    HW136085  10.349   5.194   0.307  0.6032 -0.8826 -0.3779
10936SOL    HW236086  10.217   5.120   0.320 -0.0095  0.2920  0.1819
10937SOL     OW36087  10.184   3.277   6.101  0.2807 -0.2929  0.2077
10937SOL    HW136088  10.276   3.285   6.126 -0.2318  0.3142  2.0750
10937SOL    HW236089  10.173   3.335   6.026  1.4179 -0.4229 -0.0680
10938SOL     OW36090   2.799   4.628   1.554  0.0116  0.5569  0.4390
10938SOL    HW136091   2.873   4.587   1.599  0.4488  1.5917  0.6884
10938SOL    HW236092   2.775   4.565   1.485  1.2829  0.3079  0.1967
10939SOL     OW36093   9.300   2.867   0.636 -0.2016  0.5050 -0.4136
10939SOL    HW136094   9.321   2.822   0.718 -1.0517 -1.1656 -1.0521
10939SOL    HW236095   9.241   2.937   0.662 -0.4466  0.0090  0.4235
10940SOL     OW36096   6.242   4.910   9.417 -0.3511  1.0321 -0.2410
10940SOL    HW136097   6.167   4.923   9.359 -0.4358  1.7778  0.0312
10940SOL    HW236098   6.304   4.859   9.364 -0.5378  1.4723 -0.8933
10941SOL     OW36099   3.004   3.621   3.363 -0.3042 -0.3654 -0.4967
10941SOL    HW136100   2.979   3.532   3.389 -1.4628 -0.0468 -0.4507
10941SOL    HW236101   3.054   3.609   3.282  2.6730 -1.3173  1.3403
10942SOL     OW36102   6.178   0.391   9.722 -0.1781  0.1397  0.1779
10942SOL    HW136103   6.190   0.399   9.817 -1.5715 -0.9551  0.4947
10942SOL    HW236104   6.242   0.326   9.695 -1.0698 -1.0305  0.7520
10943SOL     OW36105  10.416   8.123   3.345  0.7743 -0.3128 -0.1787
10943SOL    HW136106  10.340   8.180   3.338  0.8135 -0.3950 -1.9117
10943SOL    HW236107  10.381   8.038   3.370  0.3609 -0.1860 -0.3192
10944SOL     OW36108   2.487  10.416   6.304 -0.4279  0.1943  0.0458
10944SOL    HW136109   2.493  10.321   6.308  0.1596  0.2558  0.8926
10944SOL    HW236110   2.575  10.447   6.326 -0.3476  0.9268 -1.2101
10945SOL     OW36111  10.293   3.522   5.026  0.4266 -0.3562  0.2202
10945SOL    HW136112  10.220   3.583   5.011  0.3661 -0.5217 -0.1598
10945SOL    HW236113  10.364   3.578   5.058 -0.1927 -0.3355  1.6717
10946SOL     OW36114   8.539   0.123   5.672 -0.3160  0.1041  0.2801
10946SOL    HW136115   8.496   0.140   5.588  0.3926  1.6143  0.1940
10946SOL    HW236116   8.631   0.144   5.656 -0.1703  0.3900  1.4344
10947SOL     OW36117  11.365   5.417  10.354 -0.3415  0.2519  0.6793
10947SOL    HW136118  11.399   5.374  10.433 -0.8074  1.0162  1.3064
10947SOL    HW236119  11.350   5.508  10.380  3.2204  1.6318 -1.3017
10948SOL     OW36120   2.312  10.547   6.785 -0.0747  0.0451 -0.0859
10948SOL    HW136121   2.246  10.557   6.717 -1.4982 -3.2826  0.5658
10948SOL    HW236122   2.261  10.529   6.865  1.5900  0.4368  1.1307
10949SOL     OW36123   5.283   7.597   7.713  0.5762  0.0196  0.0567
10949SOL    HW136124   5.330   7.532   7.661 -0.0241  0.0593 -0.5515
10949SOL    HW236125   5.191   7.583   7.690  0.4598  1.2498 -0.2832
10950SOL     OW36126   1.778   7.214   0.692  0.6577  0.1095  0.0861
10950SOL    HW136127   1.820   7.283   0.744  1.6689 -0.3982 -0.0445
10950SOL    HW236128   1.732   7.262   0.623 -0.6808  0.7894  1.3969
10951SOL     OW36129   9.043   4.092   0.839 -0.0012  0.2113 -0.1171
10951SOL    HW136130   9.089   4.008   0.840 -1.1994 -0.4572 -0.6785
10951SOL    HW236131   9.097   4.148   0.783  0.0414 -0.6105 -0.9025
10952SOL     OW36132  10.675   0.505   3.745 -0.1280 -0.4386  0.3060
10952SOL    HW136133  10.688   0.470   3.833 -0.3984 -1.8988 -0.2146
10952SOL    HW236134  10.671   0.600   3.757  2.8974 -0.3570  1.4967
10953SOL     OW36135   2.530   7.940   2.190  0.0415 -0.2153  0.0050
10953SOL    HW136136   2.529   7.978   2.278  0.5327 -0.3205  0.0563
10953SOL    HW236137   2.593   7.994   2.142  0.2771 -0.5826 -0.0956
10954SOL     OW36138   0.271  10.194   5.878  0.0497 -0.6608 -0.2444
10954SOL    HW136139   0.346  10.250   5.899  1.4883 -2.5298 -0.0281
10954SOL    HW236140   0.241  10.162   5.964  0.4144 -1.6135 -0.4657
10955SOL     OW36141   2.479   5.672   8.742 -0.3990  0.2979 -0.0516
10955SOL    HW136142   2.467   5.755   8.788  0.4812 -0.0008  0.7501
10955SOL    HW236143   2.420   5.611   8.786  0.0286  0.1511  0.3284
10956SOL     OW36144   1.944   9.343   6.217  0.0216 -0.3134  0.0776
10956SOL    HW136145   1.986   9.324   6.300 -0.1569 -1.5300 -0.1047
10956SOL    HW236146   1.915   9.259   6.183 -1.5770  0.3589 -0.3469
10957SOL     OW36147   7.048   5.302   8.617 -0.1416 -0.4891 -0.4922
10957SOL    HW136148   7.078   5.381   8.663 -1.2144  1.2018 -2.5007
10957SOL    HW236149   7.000   5.252   8.683 -0.2962  1.0564  0.6155
10958SOL     OW36150   3.409   7.661   4.709 -0.5169 -0.5055 -0.2064
10958SOL    HW136151   3.458   7.715   4.771 -1.9266 -0.4816  0.9412
10958SOL    HW236152   3.317   7.672   4.736 -1.1184 -0.8944 -2.0002
10959SOL     OW36153   9.761   6.292   5.034 -0.6267  0.2662  0.5524
10959SOL    HW136154   9.786   6.273   5.125 -1.9618  0.5279  0.9988
10959SOL    HW236155   9.665   6.299   5.037 -0.5680  2.1905 -0.4990
10960SOL     OW36156   9.314   7.924   4.668  0.2083  0.1506 -0.1086
10960SOL    HW136157   9.377   7.908   4.597 -0.5014 -0.7064 -0.5599
10960SOL    HW236158   9.337   7.858   4.734  1.8965  1.9528  1.1991
10961SOL     OW36159  10.207   7.328  10.385  0.5828 -0.2429  0.1019
10961SOL    HW136160  10.193   7.249  10.333 -4.3538  0.6986 -0.5103
10961SOL    HW236161  10.225   7.296  10.473  0.2235 -2.0283 -0.4264
10962SOL     OW36162   5.349   1.524   0.230 -0.1936 -0.1269  0.5055
10962SOL    HW136163   5.299   1.599   0.199 -0.3913 -0.2902  0.4192
10962SOL    HW236164   5.301   1.448   0.196  0.3154 -0.2813  0.1124
10963SOL     OW36165   0.266   3.906   7.339 -0.0726 -0.0839  0.4939
10963SOL    HW136166   0.265   3.965   7.415 -0.9459 -1.4136  1.5586
10963SOL    HW236167   0.335   3.843   7.359 -1.0255 -1.0894  0.7451
10964SOL     OW36168   0.195   5.594   1.196  0.1554  0.0293 -0.0892
10964SOL    HW136169   0.237   5.679   1.182 -0.9328  0.5441 -0.2955
10964SOL    HW236170   0.210   5.575   1.288  1.8519 -0.3665 -0.4144
10965SOL     OW36171   0.050   9.642   9.372  0.6422  0.3383 -0.1263
10965SOL    HW136172   0.120   9.695   9.334 -0.9406  2.4808 -0.2823
10965SOL    HW236173   0.044   9.566   9.314  1.4913  1.1365 -1.3264
10966SOL     OW36174   5.733   9.236   1.236  0.1575 -0.0295  0.1048
10966SOL    HW136175   5.669   9.295   1.276  0.2365 -0.4433  0.8490
10966SOL    HW236176   5.802   9.226   1.301  1.3228  0.9045 -0.9178
10967SOL     OW36177   8.751   3.879   1.867 -0.0023 -0.0940 -0.3535
10967SOL    HW136178   8.694   3.915   1.799  0.2656  0.1078 -0.4726
10967SOL    HW236179   8.708   3.902   1.949  0.5007  1.0926 -0.4035
10968SOL     OW36180  10.180   0.693  11.270  0.2604  0.2964  0.0599
10968SOL    HW136181  10.111   0.649  11.222 -0.0215 -1.4034  1.8815
10968SOL    HW236182  10.181   0.782  11.236  0.6489 -0.9489 -3.5799
10969SOL     OW36183  10.149   7.469   2.992 -0.0954 -0.3299  0.1817
10969SOL    HW136184  10.114   7.396   3.043  0.3780 -0.3836  0.4388
10969SOL    HW236185  10.238   7.481   3.026 -0.7619  1.5677  1.4733
10970SOL     OW36186   5.914   1.096   7.846  0.3888 -0.0497  0.1581
10970SOL    HW136187   5.970   1.035   7.893  0.4221 -0.6515 -0.6436
10970SOL    HW236188   5.866   1.042   7.783  1.3080  0.8786 -1.4124
10971SOL     OW36189   7.507  10.211  11.260  0.1024  0.4782  0.6192
10971SOL    HW136190   7.582  10.152  11.269 -0.7995 -0.5861  1.4423
10971SOL    HW236191   7.458  10.176  11.186  1.6650  2.6538 -1.5984
10972SOL     OW36192   7.097   1.341   4.360 -0.0621 -0.4053  0.2621
10972SOL    HW136193   7.050   1.262   4.388  0.2348 -0.2852  1.1378
10972SOL    HW236194   7.162   1.356   4.429  1.9700 -1.1251 -1.3954
10973SOL     OW36195   0.092   0.458  11.105  0.3812 -0.1703 -0.0073
10973SOL    HW136196   0.027   0.418  11.163 -2.1430  2.7381 -0.6090
10973SOL    HW236197   0.084   0.411  11.023 -0.4553 -0.3260  0.1570
10974SOL     OW36198   7.987   5.340   8.357 -0.6714  0.3434 -0.0068
10974SOL    HW136199   8.049   5.398   8.314  0.5413 -0.7941  0.1518
10974SOL    HW236200   7.964   5.386   8.438  1.7083 -0.1460  1.0311
10975SOL     OW36201   4.936   2.888  10.977  0.1840  0.3180  0.4201
10975SOL    HW136202   4.888   2.962  11.014  1.7857  0.9109  1.4229
10975SOL    HW236203   5.004   2.869  11.041  2.3215  0.5726 -1.6537
10976SOL     OW36204   5.684   7.733   1.568  0.1175 -0.0175  0.4409
10976SOL    HW136205   5.645   7.792   1.504 -0.8706 -1.5441 -0.4380
10976SOL    HW236206   5.770   7.769   1.585 -0.4099  1.5906 -0.1575
10977SOL     OW36207   5.082   8.665  10.229 -0.1190 -0.1425 -0.4621
10977SOL    HW136208   5.113   8.737  10.284  0.8229  0.1531 -1.3499
10977SOL    HW236209   5.076   8.590  10.288 -0.3577  0.4721  0.3085
10978SOL     OW36210   8.860  10.142   7.719  0.3486  0.1487  0.0053
10978SOL    HW136211   8.875  10.140   7.813  0.9559 -0.2455 -0.0917
10978SOL    HW236212   8.868  10.051   7.691 -2.0859 -0.1060 -0.1095
10979SOL     OW36213   9.492   6.781   7.299 -0.1127 -0.2333 -0.0308
10979SOL    HW136214   9.476   6.720   7.226 -0.0284 -0.8937  0.4914
10979SOL    HW236215   9.426   6.849   7.288 -0.0917 -0.3196 -0.7348
10980SOL     OW36216   8.562   7.858   0.979  0.0490 -0.0440 -0.2022
10980SOL    HW136217   8.567   7.952   0.960  1.6142  0.1033  0.8499
10980SOL    HW236218   8.613   7.817   0.909  1.0588  0.0608  0.4593
10981SOL     OW36219   9.678   0.792   8.197  0.1807  0.0439  0.3875
10981SOL    HW136220   9.676   0.705   8.156 -0.7152  0.1738  0.1335
10981SOL    HW236221   9.633   0.780   8.280 -0.3814  0.3794  0.1287
10982SOL     OW36222   0.728   5.226   4.139 -0.1317 -0.0440  0.4409
10982SOL    HW136223   0.648   5.183   4.110  0.0331 -0.2169  0.2284
10982SOL    HW236224   0.798   5.176   4.097  0.1259 -0.3947  1.2691
10983SOL     OW36225   8.960   6.360   4.112 -0.5350 -0.1857 -0.2614
10983SOL    HW136226   8.991   6.322   4.195  0.0513 -1.5663 -1.0802
10983SOL    HW236227   8.911   6.438   4.139  0.1143 -0.2850  1.3460
10984SOL     OW36228   8.908   6.554  11.227  0.1173  0.0556  0.0510
10984SOL    HW136229   8.891   6.466  11.193 -1.3278 -0.2362  1.3988
10984SOL    HW236230   8.991   6.547  11.273  1.1055 -0.0299 -1.6654
10985SOL     OW36231   0.705   8.635   8.256  0.1346 -0.1599  0.2066
10985SOL    HW136232   0.681   8.667   8.343 -0.4124 -0.0449  0.0222
10985SOL    HW236233   0.786   8.586   8.269  1.0480  1.3495  0.4890
10986SOL     OW36234   9.275   1.399   7.052  0.3871  0.6255  0.4001
10986SOL    HW136235   9.221   1.378   6.975  0.9845  0.3758  0.0405
10986SOL    HW236236   9.244   1.340   7.120 -0.3533  1.0557  0.4409
10987SOL     OW36237   7.432   6.494   3.017 -0.3592 -0.0910  0.0389
10987SOL    HW136238   7.442   6.448   2.934 -1.2440  0.4880 -0.3968
10987SOL    HW236239   7.383   6.433   3.072  1.9784 -1.3479  0.8907
10988SOL     OW36240   2.374   3.985   3.938  0.0687  0.1045  0.1882
10988SOL    HW136241   2.391   3.900   3.897  0.0804  0.1236  0.1531
10988SOL    HW236242   2.281   3.982   3.962 -0.0368  0.2463 -0.1994
10989SOL     OW36243   0.903   6.300   0.491  0.0405  0.2233 -0.0936
10989SOL    HW136244   0.870   6.225   0.441  0.6376  0.3352 -0.6730
10989SOL    HW236245   0.992   6.275   0.515 -0.1178  0.3241  0.6056
10990SOL     OW36246   4.804   3.510   1.706 -0.0693  0.1212  0.3694
10990SOL    HW136247   4.776   3.594   1.670 -1.1738 -0.8493 -1.1973
10990SOL    HW236248   4.898   3.506   1.688 -0.1181  0.7743 -0.0574
10991SOL     OW36249   9.254   8.874   9.523  0.2497  0.3281  0.4876
10991SOL    HW136250   9.202   8.841   9.449  1.2410  0.5248 -0.3203
10991SOL    HW236251   9.344   8.876   9.490  0.5111  1.8484  1.2077
10992SOL     OW36252   8.439   5.970   4.963 -0.5366 -0.1041  0.4313
10992SOL    HW136253   8.503   5.905   4.992  0.1214  0.2535 -0.2157
10992SOL    HW236254   8.354   5.929   4.982 -0.1308 -0.6159  1.2113
10993SOL     OW36255   9.171   8.131   1.644  0.1611 -0.0336 -0.0215
10993SOL    HW136256   9.101   8.133   1.708 -0.2012  0.4727 -0.4244
10993SOL    HW236257   9.177   8.039   1.617  0.2449 -0.2246  0.6482
10994SOL     OW36258   7.233   4.793   6.982  0.3495 -0.1195 -0.2547
10994SOL    HW136259   7.274   4.773   7.067  0.3849  1.9177  0.2666
10994SOL    HW236260   7.307   4.800   6.921  0.5581  0.7452  0.0772
10995SOL     OW36261   2.127   0.839   6.642 -0.4595  0.7134  0.3558
10995SOL    HW136262   2.167   0.796   6.717 -2.1541 -0.9156  0.3969
10995SOL    HW236263   2.090   0.920   6.677 -0.0054  0.6698  0.9501
10996SOL     OW36264   4.639   1.313   0.444  0.2692  0.1849 -0.5576
10996SOL    HW136265   4.555   1.272   0.425 -1.1829  1.1556  2.9677
10996SOL    HW236266   4.634   1.400   0.404  0.0704 -0.1248 -1.2229
10997SOL     OW36267   2.351   6.925   1.144 -0.2764  0.4214  0.4852
10997SOL    HW136268   2.411   6.998   1.132 -0.4659  0.2126 -2.5158
10997SOL    HW236269   2.356   6.904   1.237  1.6173  2.6509  0.9632
10998SOL     OW36270  10.071   2.487   2.894  0.4964  0.1173  0.1748
10998SOL    HW136271  10.139   2.525   2.950 -0.2506  1.8389 -0.0297
10998SOL    HW236272  10.012   2.442   2.954  1.5926 -1.1132  0.3879
10999SOL     OW36273   7.139   4.320   0.704  0.5274 -0.1110  0.5399
10999SOL    HW136274   7.108   4.323   0.794 -0.1529 -0.4251  0.3191
10999SOL    HW236275   7.125   4.230   0.676  0.3200  0.0892 -0.0243
11000SOL     OW36276   0.530   1.002   1.255 -0.0751 -0.2765 -0.0242
11000SOL    HW136277   0.480   0.963   1.327 -0.2793  0.3328  0.1685
11000SOL    HW236278   0.620   0.975   1.271 -0.3060 -1.2084 -0.2570
11001SOL     OW36279   8.519   4.598   3.496 -0.2046  1.2244  0.2070
11001SOL    HW136280   8.551   4.685   3.520 -0.5262  1.3042  0.3369
11001SOL    HW236281   8.531   4.594   3.401  1.8653  0.5899  0.4384
11002SOL     OW36282   0.498   9.283   6.196  0.1941  0.2026 -0.3029
11002SOL    HW136283   0.527   9.306   6.284  0.5737  2.0490 -0.8741
11002SOL    HW236284   0.580   9.269   6.147  0.1094  2.0789 -1.0599
11003SOL     OW36285   3.620   3.083   9.170  0.0469 -0.1681  0.0118
11003SOL    HW136286   3.624   3.078   9.266  0.7523  0.2030 -0.0006
11003SOL    HW236287   3.529   3.107   9.152  0.1708  0.8052  0.6292
11004SOL     OW36288   2.766   2.381   4.277 -0.1847  0.6622  0.4787
11004SOL    HW136289   2.681   2.343   4.259  0.2738 -0.2677  0.2309
11004SOL    HW236290   2.806   2.393   4.191  0.2873  0.2506  0.6363
11005SOL     OW36291   8.075   1.204   3.016  0.1830  0.2531 -0.1418
11005SOL    HW136292   8.032   1.265   2.956 -1.4126 -1.0793 -0.4482
11005SOL    HW236293   8.003   1.155   3.056  1.3890 -2.5518 -1.1526
11006SOL     OW36294   2.602   1.699   5.735 -0.6448  0.3532 -0.5045
11006SOL    HW136295   2.617   1.616   5.779 -0.3495  1.0572  0.7673
11006SOL    HW236296   2.690   1.732   5.714 -0.7807 -0.1575 -2.0334
11007SOL     OW36297   2.137   0.893   8.828  0.8858 -0.5922 -0.1813
11007SOL    HW136298   2.084   0.913   8.751 -0.3503  0.7058  0.9332
11007SOL    HW236299   2.225   0.878   8.794 -0.0791 -2.5246 -2.0883
11008SOL     OW36300   9.491   5.844   5.352  0.6119  0.8340 -0.2020
11008SOL    HW136301   9.475   5.933   5.383  0.3172  0.9881 -0.7819
11008SOL    HW236302   9.406   5.802   5.356  0.8023  0.4919  0.3233
11009SOL     OW36303   0.091   3.983  10.116  0.3024  0.5937 -0.1594
11009SOL    HW136304   0.004   3.947  10.131 -0.1486  1.3295 -0.9092
11009SOL    HW236305   0.080   4.043  10.042  1.9366 -1.2415 -2.0341
11010SOL     OW36306  10.354   3.056  11.132 -0.1463 -0.1557 -0.0619
11010SOL    HW136307  10.312   3.096  11.207  0.2712  1.3375 -0.6033
11010SOL    HW236308  10.302   3.086  11.057 -1.3886 -2.6906 -0.3349
11011SOL     OW36309  10.442   1.187   4.663 -0.1356  0.1944  0.1093
11011SOL    HW136310  10.445   1.276   4.629  0.1071 -0.1121 -0.6805
11011SOL    HW236311  10.531   1.154   4.652  0.1314  0.2919  1.6360
11012SOL     OW36312  10.695   9.829   7.002  0.2525  0.2180  0.0360
11012SOL    HW136313  10.772   9.773   6.990  0.0097 -0.2394  0.5805
11012SOL    HW236314  10.641   9.782   7.065 -0.7732  0.2314 -0.8155
11013SOL     OW36315   1.097   0.116   9.043  0.1111 -0.0474 -0.2192
11013SOL    HW136316   1.067   0.115   9.134 -0.3247 -0.6434 -0.3616
11013SOL    HW236317   1.031   0.065   8.995  0.4156  0.1276 -0.8449
11014SOL     OW36318   3.539   8.700  10.518 -0.4140  0.7754 -0.5970
11014SOL    HW136319   3.572   8.703  10.428 -1.6337  0.9963 -1.0659
11014SOL    HW236320   3.531   8.792  10.544 -1.8356  0.7972 -0.9832
11015SOL     OW36321   8.479   4.974   8.431  0.9279  0.1687  0.2145
11015SOL    HW136322   8.570   5.003   8.435  0.9684  0.2150 -0.7141
11015SOL    HW236323   8.476   4.916   8.354  0.1152  0.4046  0.0576
11016SOL     OW36324   3.626   1.411   7.348 -0.2531 -0.3456 -0.1440
11016SOL    HW136325   3.596   1.427   7.259 -0.8068 -1.5419 -0.1838
11016SOL    HW236326   3.554   1.442   7.403  1.1221  2.9253  0.0779
11017SOL     OW36327   9.624   4.190   7.211 -0.0084 -0.2110 -0.6382
11017SOL    HW136328   9.604   4.236   7.292  0.4258  0.9024 -1.1451
11017SOL    HW236329   9.550   4.211   7.153  0.9599  1.2348 -1.4164
11018SOL     OW36330   3.876   0.893   7.965  0.1385 -0.4318  0.3583
11018SOL    HW136331   3.841   0.808   7.991 -0.4314  0.4997  2.9030
11018SOL    HW236332   3.963   0.897   8.004  0.6983 -0.3379 -0.8563
11019SOL     OW36333   4.291   8.250   3.526  0.1067  0.0492  0.0397
11019SOL    HW136334   4.271   8.238   3.619  1.9596 -3.1898  0.1631
11019SOL    HW236335   4.215   8.214   3.480  0.6313 -1.6020  0.3935
11020SOL     OW36336   3.525   5.922   4.331 -0.4272  0.6575  0.2962
11020SOL    HW136337   3.575   5.989   4.378  0.3282  0.3280 -0.0090
11020SOL    HW236338   3.493   5.863   4.398  1.4487 -0.3510  0.3671
11021SOL     OW36339   1.103   4.056   2.302 -0.5355 -0.4434  0.4550
11021SOL    HW136340   1.174   3.995   2.319  0.4670  0.4875 -0.2892
11021SOL    HW236341   1.132   4.139   2.339  0.2599  0.7877 -2.5569
11022SOL     OW36342   5.886   7.681   4.411 -0.2504  0.2833 -0.3076
11022SOL    HW136343   5.974   7.662   4.443  0.0140 -0.0674 -1.2117
11022SOL    HW236344   5.834   7.606   4.440 -0.4274  0.8309  0.8481
11023SOL     OW36345   2.457   0.208   6.211  0.1873 -0.3396 -0.1912
11023SOL    HW136346   2.549   0.227   6.194 -0.0203  1.4295  0.4445
11023SOL    HW236347   2.455   0.175   6.301 -0.0753  2.5148  0.9278
11024SOL     OW36348   2.685  10.636   5.467 -0.0554 -0.0351 -0.1235
11024SOL    HW136349   2.677  10.574   5.539  1.4910 -1.4553 -1.0723
11024SOL    HW236350   2.666  10.721   5.506 -0.6487 -0.9047  1.6106
11025SOL     OW36351   7.326   1.215   0.709  0.1348  0.3198  0.6636
11025SOL    HW136352   7.315   1.126   0.741 -0.8182  1.2294  3.1448
11025SOL    HW236353   7.240   1.255   0.718  0.4147  1.3551 -0.9217
11026SOL     OW36354  10.105   0.771   7.741 -0.0008 -0.3659 -0.1373
11026SOL    HW136355  10.116   0.737   7.652 -1.0114  1.9433 -1.2139
11026SOL    HW236356  10.018   0.810   7.742  0.3149  0.4141  1.6124
11027SOL     OW36357   4.613  11.103   5.843 -0.3013 -0.2930  0.2084
11027SOL    HW136358   4.613  11.197   5.824 -0.0497 -0.3832 -0.2492
11027SOL    HW236359   4.657  11.063   5.768 -0.9604 -0.8334  0.0977
11028SOL     OW36360   4.038   0.490  11.290  0.6947  0.3864  0.9964
11028SOL    HW136361   4.051   0.524  11.379 -0.3583 -0.3444  1.4472
11028SOL    HW236362   3.944   0.472  11.285  0.8997 -0.4868  0.0568
11029SOL     OW36363   8.017   7.909   3.935  0.5859  0.4867 -0.3494
11029SOL    HW136364   8.029   8.002   3.955 -0.3544  0.5378  0.0302
11029SOL    HW236365   8.105   7.872   3.939  0.8757  1.2161  0.2643
11030SOL     OW36366   3.078   0.041   3.066 -0.4537 -0.5490 -0.9266
11030SOL    HW136367   3.010  -0.020   3.095  1.4092 -1.0910  2.9095
11030SOL    HW236368   3.157  -0.012   3.061  0.9260  1.1840  1.0436
11031SOL     OW36369   7.743  10.264   7.733 -0.0092 -0.5475  0.0041
11031SOL    HW136370   7.764  10.171   7.722 -0.9188 -0.7020 -0.6569
11031SOL    HW236371   7.824  10.305   7.761  0.6935 -1.3703 -0.7592
11032SOL     OW36372   6.917   4.900   5.094  0.1355 -0.0785  0.1063
11032SOL    HW136373   6.952   4.958   5.027  0.3991  0.0855  0.3831
11032SOL    HW236374   6.989   4.841   5.114  0.1891  0.1253  0.5263
11033SOL     OW36375   6.512  10.659   9.530  1.2634 -0.2817  0.3604
11033SOL    HW136376   6.469  10.696   9.452  1.0882  0.4433  0.7927
11033SOL    HW236377   6.523  10.566   9.509  0.5900 -0.2335 -0.2541
11034SOL     OW36378   9.765   5.851   5.578  0.2139  0.6729 -0.2090
11034SOL    HW136379   9.694   5.794   5.609  0.3634  1.1666  1.1230
11034SOL    HW236380   9.750   5.860   5.484 -0.5832 -0.4747 -0.2148
11035SOL     OW36381   2.705   4.202   1.668  0.6089 -0.5640  0.1078
11035SOL    HW136382   2.640   4.207   1.598 -1.1091  0.7697  1.7020
11035SOL    HW236383   2.780   4.250   1.633 -0.8047  1.4917 -0.2749
11036SOL     OW36384   0.706   7.755   1.661  0.3028 -0.5657 -0.5798
11036SOL    HW136385   0.700   7.662   1.686  0.1751 -0.4489 -0.1759
11036SOL    HW236386   0.731   7.800   1.742 -1.2899 -0.0190 -0.3575
11037SOL     OW36387   2.867   4.921  10.551 -0.4810  0.6324 -0.3377
11037SOL    HW136388   2.782   4.939  10.511 -0.7106 -0.4574 -0.3823
11037SOL    HW236389   2.926   4.985  10.513 -1.1222  0.9059 -0.8913
11038SOL     OW36390   1.809  10.433   1.380  0.1094  0.0422 -0.1147
11038SOL    HW136391   1.817  10.500   1.447 -0.8593 -0.6594  0.7335
11038SOL    HW236392   1.873  10.458   1.313  2.5356 -0.3080  1.9252
11039SOL     OW36393  11.157   6.073   6.018  0.2409  0.1283  0.4427
11039SOL    HW136394  11.151   6.095   5.925 -1.0045 -0.4788  0.3460
11039SOL    HW236395  11.247   6.044   6.031  1.2205  2.7321  0.0367
11040SOL     OW36396   6.762   7.866   3.295  0.3556 -0.0971 -0.3097
11040SOL    HW136397   6.785   7.805   3.366 -0.0659  1.1172  0.9171
11040SOL    HW236398   6.667   7.872   3.299  0.4565  1.6150  0.4756
11041SOL     OW36399   8.211   6.540   0.562  0.1982 -0.5121 -0.0527
11041SOL    HW136400   8.259   6.459   0.546  0.0357 -0.3235 -1.6597
11041SOL    HW236401   8.127   6.527   0.517  0.6323  0.9839 -1.3910
11042SOL     OW36402   1.498   7.202   0.821  0.1974  0.0729 -0.0821
11042SOL    HW136403   1.521   7.265   0.889 -1.1910  0.6873 -0.1416
11042SOL    HW236404   1.579   7.188   0.772  0.5544  1.7515 -0.0138
11043SOL     OW36405  10.615   3.233   9.888 -0.2197 -0.2287 -0.7712
11043SOL    HW136406  10.581   3.144   9.878 -1.0723 -0.5567  3.2323
11043SOL    HW236407  10.687   3.225   9.950 -0.1701  1.8242 -0.4704
11044SOL     OW36408   8.726   6.407   3.347 -0.3562 -0.1328  0.1249
11044SOL    HW136409   8.691   6.358   3.421  0.4158  1.1788  1.4090
11044SOL    HW236410   8.649   6.446   3.306 -0.6080  1.2146  1.8009
11045SOL     OW36411   7.163  11.397   4.647  0.4205 -0.0429 -0.0329
11045SOL    HW136412   7.112  11.453   4.589  0.8369  0.3312 -0.0404
11045SOL    HW236413   7.250  11.396   4.609  1.1054  1.4153  1.3830
11046SOL     OW36414   8.190   6.245   5.280 -0.2306  0.3537  0.1415
11046SOL    HW136415   8.146   6.302   5.343 -0.8753  0.7123 -0.6140
11046SOL    HW236416   8.132   6.168   5.272 -0.6778  0.7640 -0.7500
11047SOL     OW36417  10.898   9.580   3.939 -0.3586  0.5764 -0.3789
11047SOL    HW136418  10.877   9.500   3.890 -0.9206  1.9219 -2.4599
11047SOL    HW236419  10.878   9.558   4.030 -0.6480 -1.5912 -0.9084
11048SOL     OW36420   5.114   4.144   0.843 -0.1869  0.5683 -0.0043
11048SOL    HW136421   5.107   4.105   0.930 -1.2507 -0.9531 -0.7312
11048SOL    HW236422   5.155   4.230   0.858  0.9364 -0.2388  1.8115
11049SOL     OW36423   0.247   1.319   6.295  0.2012  0.1133  0.0864
11049SOL    HW136424   0.217   1.253   6.357 -0.9069  1.8793  1.5062
11049SOL    HW236425   0.317   1.365   6.340 -1.4741  2.2627  0.6231
11050SOL     OW36426   7.162   7.276   3.640 -0.2576 -0.0227  0.0192
11050SOL    HW136427   7.136   7.320   3.721  0.8790 -1.6552  1.3441
11050SOL    HW236428   7.130   7.333   3.570 -0.6685  1.7906  1.6100
11051SOL     OW36429   9.956   8.753   7.803 -0.2236  0.6739  0.0748
11051SOL    HW136430  10.044   8.755   7.839  0.1585  0.1548 -0.7986
11051SOL    HW236431   9.968   8.730   7.711 -1.3313 -0.3344  0.1542
11052SOL     OW36432   0.845   1.199   5.530  0.1415  0.8686  0.1093
11052SOL    HW136433   0.881   1.158   5.452  0.7137  0.8481  0.3744
11052SOL    HW236434   0.875   1.144   5.602 -2.0291 -0.2743  0.2270
11053SOL     OW36435   1.183   1.336   7.582 -0.1826 -0.2803  0.2825
11053SOL    HW136436   1.242   1.261   7.586  0.8415  0.5336  2.3557
11053SOL    HW236437   1.121   1.321   7.653 -0.0961  0.7084  0.5812
11054SOL     OW36438   9.838  11.069   3.681  0.2525  0.2591 -0.4496
11054SOL    HW136439   9.902  11.082   3.612 -0.3508  0.7746 -0.9188
11054SOL    HW236440   9.842  11.149   3.733 -1.0405  0.9232 -1.3412
11055SOL     OW36441   7.037   1.979   5.255  0.1747 -0.2798 -0.1385
11055SOL    HW136442   6.955   1.966   5.302  0.5327  0.0948  0.6132
11055SOL    HW236443   7.020   1.949   5.166 -0.4218 -1.3189  0.3227
11056SOL     OW36444   5.468   5.992   8.081 -0.3238  1.0393 -0.1383
11056SOL    HW136445   5.454   5.987   8.175  1.1756 -0.5102  0.0604
11056SOL    HW236446   5.393   5.947   8.042 -0.5569  0.9994  0.3610
11057SOL     OW36447   3.905   1.821   3.821  0.2021 -0.0419 -0.5491
11057SOL    HW136448   3.918   1.897   3.879 -0.4532 -0.7806  0.6104
11057SOL    HW236449   3.972   1.759   3.848 -1.7935 -1.5082  1.4149
11058SOL     OW36450   6.259  10.807   8.290  0.3210 -0.1973 -0.3039
11058SOL    HW136451   6.186  10.813   8.228 -0.6297  2.2368  0.9258
11058SOL    HW236452   6.337  10.808   8.235 -0.5244 -0.0972 -1.5359
11059SOL     OW36453  11.382   2.568   8.174  0.3996 -0.4558 -0.9394
11059SOL    HW136454  11.391   2.639   8.236  1.5509 -0.3113 -1.2538
11059SOL    HW236455  11.373   2.489   8.228 -1.9284 -0.0167 -0.5702
11060SOL     OW36456   0.732   3.190   5.513  0.1877  0.6138  0.3095
11060SOL    HW136457   0.744   3.242   5.593 -0.9464  1.1871  0.1245
11060SOL    HW236458   0.781   3.237   5.446  1.4490 -0.0656  0.7218
11061SOL     OW36459   6.448  10.092   4.503 -0.4121 -0.0786  0.3472
11061SOL    HW136460   6.486  10.019   4.455  0.6624  0.8524 -0.2489
11061SOL    HW236461   6.437  10.059   4.592  0.0517 -0.9696  0.0790
11062SOL     OW36462  11.309   7.708   6.737 -0.0813  0.1465  0.1021
11062SOL    HW136463  11.358   7.636   6.698 -0.3083  0.6776 -1.2249
11062SOL    HW236464  11.242   7.666   6.791  1.5533 -0.5877  1.6460
11063SOL     OW36465   1.993   3.719  10.765  0.5272 -0.4123  0.1711
11063SOL    HW136466   2.010   3.811  10.782 -1.3525  0.0162 -0.0507
11063SOL    HW236467   2.080   3.680  10.755  1.4925  0.7127  3.1716
11064SOL     OW36468   9.069   8.710   9.009 -0.4001  0.0554 -0.0654
11064SOL    HW136469   9.030   8.623   9.019  0.7199 -0.3608  0.8607
11064SOL    HW236470   9.148   8.696   8.957  0.6077  0.2486  1.3546
11065SOL     OW36471   6.709   7.708   9.959 -0.0390 -0.1640  0.2687
11065SOL    HW136472   6.695   7.614   9.947 -2.3310  0.2891 -1.1466
11065SOL    HW236473   6.731   7.741   9.872  0.6441  0.6485  0.7299
11066SOL     OW36474   7.980   8.778   2.057 -0.0350  0.4790  0.7084
11066SOL    HW136475   7.903   8.729   2.087 -0.5623  1.3892  0.9174
11066SOL    HW236476   8.033   8.714   2.010 -2.2746  0.3711 -1.9177
11067SOL     OW36477   2.400   4.871   9.551  0.9797  0.2279 -0.5925
11067SOL    HW136478   2.306   4.889   9.548  1.2633  1.6767 -1.6213
11067SOL    HW236479   2.423   4.875   9.644 -0.0164 -0.4520 -0.3054
11068SOL     OW36480   9.417  11.226   6.851  0.0577 -0.2694  0.0311
11068SOL    HW136481   9.323  11.217   6.836 -0.3389  3.0425 -0.1553
11068SOL    HW236482   9.424  11.280   6.929  1.9253 -2.1909  1.3214
11069SOL     OW36483   9.847   0.229   0.472 -0.2537  0.7940 -0.4227
11069SOL    HW136484   9.796   0.285   0.413 -0.7854 -0.7180 -1.4743
11069SOL    HW236485   9.879   0.288   0.540 -2.0169  2.0999 -0.6577
11070SOL     OW36486   2.727   5.600   7.810  0.0241 -0.5829 -0.1303
11070SOL    HW136487   2.784   5.567   7.740  0.0980 -4.5341  1.5395
11070SOL    HW236488   2.787   5.627   7.879 -0.0923 -0.0735 -0.2260
11071SOL     OW36489   4.782   4.835  10.819  0.5319  0.4280  0.2164
11071SOL    HW136490   4.832   4.788  10.887 -1.1494 -1.4900  0.2304
11071SOL    HW236491   4.775   4.772  10.747  0.1245  1.5286 -0.7391
11072SOL     OW36492   9.110   1.927   0.837 -0.2207  0.0819  0.0389
11072SOL    HW136493   9.162   1.847   0.827 -0.9871 -0.3170 -0.9785
11072SOL    HW236494   9.172   1.998   0.822  0.8054 -0.2273  2.4499
11073SOL     OW36495   6.222   6.101   2.616 -0.0453  0.2761  0.0850
11073SOL    HW136496   6.155   6.167   2.632  0.4844  0.5562  1.2935
11073SOL    HW236497   6.179   6.018   2.638 -0.5152  0.2756 -0.8157
11074SOL     OW36498   5.768   1.420   5.038 -0.2431 -0.1473 -0.0937
11074SOL    HW136499   5.694   1.404   4.979 -1.5807 -0.4380  1.5841
11074SOL    HW236500   5.844   1.426   4.980 -1.8191  2.3613 -2.1125
11075SOL     OW36501   5.988   1.400   5.301  0.2484  0.1815  0.2473
11075SOL    HW136502   6.061   1.352   5.341  0.6537 -0.3426 -1.0789
11075SOL    HW236503   5.914   1.383   5.359  1.2820  1.2034  1.9570
11076SOL     OW36504   1.370   9.473   0.746  0.2707  0.9121  0.4215
11076SOL    HW136505   1.401   9.383   0.757 -0.8906  0.3892 -0.4308
11076SOL    HW236506   1.331   9.475   0.659  1.1500  2.5248  0.0221
11077SOL     OW36507   3.987   5.731   8.045 -0.3107 -0.1517 -0.2393
11077SOL    HW136508   4.055   5.789   8.011 -1.8012  0.4785 -2.3504
11077SOL    HW236509   4.035   5.659   8.086  1.5960  0.5295 -1.1587
11078SOL     OW36510   8.180   3.059   7.663 -0.1582 -0.5720  0.1692
11078SOL    HW136511   8.263   3.087   7.624 -0.3841 -1.2488 -0.8350
11078SOL    HW236512   8.144   3.138   7.702  0.0689  0.1575 -1.0360
11079SOL     OW36513   6.011   8.329   4.706  0.0267 -0.3893 -0.2171
11079SOL    HW136514   6.021   8.385   4.629  0.6788 -1.1885 -0.7310
11079SOL    HW236515   5.937   8.273   4.685  1.6155 -2.2178 -1.3329
11080SOL     OW36516   9.175   2.694   9.413 -0.0794  0.3197 -0.6274
11080SOL    HW136517   9.265   2.661   9.414  1.0299  3.0633  0.3300
11080SOL    HW236518   9.167   2.739   9.329 -0.2427  0.7871 -0.3666
11081SOL     OW36519  10.537  10.011   1.977 -0.4142  0.0620  0.6985
11081SOL    HW136520  10.496   9.932   2.012 -0.1587 -0.1046  0.6282
11081SOL    HW236521  10.615  10.023   2.032 -0.5147  0.3297  0.7827
11082SOL     OW36522   9.849   6.095   2.905  0.1459  0.1428  0.6711
11082SOL    HW136523   9.814   6.082   2.993  1.1300 -2.2890  0.7741
11082SOL    HW236524   9.789   6.046   2.849  0.4589  0.3192  0.1807
11083SOL     OW36525   5.411   9.934   8.477 -0.0382  0.1802  0.2021
11083SOL    HW136526   5.451  10.015   8.446  1.8868 -0.9693 -0.4991
11083SOL    HW236527   5.317   9.953   8.480  0.2833  2.1653 -0.7041
11084SOL     OW36528   7.442   4.039   8.768 -0.1591  0.4059  0.2062
11084SOL    HW136529   7.386   4.116   8.756  0.7995  0.7908 -2.6125
11084SOL    HW236530   7.469   4.016   8.679  1.8313 -1.5181  1.2280
11085SOL     OW36531   0.151   7.004   7.294 -0.0555 -0.6158  0.7100
11085SOL    HW136532   0.111   7.091   7.287 -0.0139 -0.6884 -0.5604
11085SOL    HW236533   0.228   7.019   7.349  0.7407  0.4636 -0.6174
11086SOL     OW36534   5.991   6.779   9.118 -0.1194 -0.4903  0.4792
11086SOL    HW136535   6.013   6.818   9.034  2.3379 -1.4873  0.5907
11086SOL    HW236536   5.989   6.853   9.179  0.4686 -0.0354 -0.0396
11087SOL     OW36537  11.036   6.587   6.199 -0.5660  0.2310 -0.9074
11087SOL    HW136538  10.942   6.578   6.211 -0.5370  1.1488  0.1749
11087SOL    HW236539  11.069   6.497   6.195 -1.4771 -0.0926 -1.3141
11088SOL     OW36540   7.026   8.897   8.113 -0.1365 -0.1299 -0.1583
11088SOL    HW136541   6.946   8.945   8.133 -0.2852 -0.3055 -0.3276
11088SOL    HW236542   7.061   8.872   8.198  0.0092  0.3859 -0.0617
11089SOL     OW36543  10.615   0.482   0.304  0.5641 -0.7124 -0.4475
11089SOL    HW136544  10.662   0.428   0.240  1.4350 -0.8984  0.3242
11089SOL    HW236545  10.682   0.504   0.370 -0.9749 -3.2490  2.1741
11090SOL     OW36546   7.689   5.376   1.442  0.0643  0.0577  0.0502
11090SOL    HW136547   7.748   5.376   1.367 -0.8501  1.3158 -0.7032
11090SOL    HW236548   7.708   5.458   1.487 -1.9489  1.1567 -0.9469
11091SOL     OW36549   8.300   1.869  10.645  0.0457 -0.5156  0.3176
11091SOL    HW136550   8.291   1.775  10.628  0.6286 -0.4028 -0.6648
11091SOL    HW236551   8.381   1.894  10.602 -0.3806  0.5483  0.0894
11092SOL     OW36552   9.365  10.182   3.993  0.4830 -0.2673  0.2568
11092SOL    HW136553   9.432  10.118   3.968  1.3855  0.1280  1.5826
11092SOL    HW236554   9.317  10.140   4.064  1.9856  0.9998  2.1199
11093SOL     OW36555   7.297   1.503   0.309 -0.2548 -0.0770 -0.0847
11093SOL    HW136556   7.391   1.518   0.319 -0.7387  3.3055  0.6481
11093SOL    HW236557   7.289   1.459   0.225  2.0263 -1.5516  0.3736
11094SOL     OW36558  10.548   7.239   0.498  0.3240  0.1635 -0.2326
11094SOL    HW136559  10.520   7.227   0.589  0.7902  2.2739  0.2392
11094SOL    HW236560  10.472   7.275   0.453  0.1367 -0.7494 -0.6749
11095SOL     OW36561   8.375  10.672   1.364  0.0924  0.3512  0.3440
11095SOL    HW136562   8.287  10.652   1.397  0.4407 -0.0414  1.0619
11095SOL    HW236563   8.378  10.631   1.278 -0.5892  0.7741  0.1097
11096SOL     OW36564   6.945   7.687   7.617 -0.1248 -0.0879  0.0268
11096SOL    HW136565   6.976   7.667   7.706 -0.2625  1.7660  0.5379
11096SOL    HW236566   6.850   7.682   7.623 -0.1794  1.0844  0.2745
11097SOL     OW36567   8.115   9.108   7.170  0.5891  0.5160 -0.4106
11097SOL    HW136568   8.134   9.181   7.111  0.9557  0.0790 -0.8525
11097SOL    HW236569   8.184   9.044   7.152  0.3039  0.0797 -0.0016
11098SOL     OW36570  11.025   7.756  11.362  0.2102  0.3010 -0.1262
11098SOL    HW136571  11.104   7.751  11.308  0.2506 -1.9454  0.0509
11098SOL    HW236572  11.055   7.791  11.445  0.9375 -0.0276 -0.2408
11099SOL     OW36573   8.004   4.851   3.549  0.1874 -0.0020 -0.2554
11099SOL    HW136574   8.099   4.865   3.554  0.4546 -1.3224 -1.0489
11099SOL    HW236575   7.990   4.766   3.590 -0.8723  0.8309  1.1857
11100SOL     OW36576   3.288   4.212   0.298  0.1553  0.5163 -0.1615
11100SOL    HW136577   3.338   4.254   0.368  1.0110 -0.5115 -0.1266
11100SOL    HW236578   3.201   4.200   0.335  0.1518  1.3947  0.1524
11101SOL     OW36579   4.934   5.322   9.886 -0.5388  0.3158  0.3559
11101SOL    HW136580   5.024   5.318   9.918 -0.4864  0.5296  0.2348
11101SOL    HW236581   4.892   5.245   9.923 -0.5158  0.6389  1.0818
11102SOL     OW36582   6.706   3.996   8.630 -0.1332  0.3170  0.1030
11102SOL    HW136583   6.728   3.904   8.614 -1.1526  0.3233 -1.5507
11102SOL    HW236584   6.733   4.042   8.551 -3.1360  0.7750 -0.7906
11103SOL     OW36585   5.977   5.634   1.546  0.3394 -0.3274  0.2459
11103SOL    HW136586   6.059   5.588   1.528  0.6707 -0.1322  1.2006
11103SOL    HW236587   5.995   5.685   1.625 -0.0946  1.2749 -0.6601
11104SOL     OW36588   0.279   8.886   6.827 -0.1483 -0.0946  0.1490
11104SOL    HW136589   0.325   8.945   6.769 -0.1706 -1.9043 -1.8194
11104SOL    HW236590   0.244   8.818   6.770 -0.8164 -1.5836  2.2017
11105SOL     OW36591   9.030   8.279   1.435 -0.4865 -0.1325 -0.0012
11105SOL    HW136592   8.965   8.216   1.404 -1.2268  0.4097  0.3943
11105SOL    HW236593   9.098   8.226   1.477 -0.6697 -0.7087 -0.4185
11106SOL     OW36594   8.155  10.471   8.559  0.0598  0.2202 -0.2277
11106SOL    HW136595   8.214  10.501   8.628  1.1545 -0.0211 -1.0347
11106SOL    HW236596   8.163  10.376   8.560 -0.0508  0.2056 -0.5704
11107SOL     OW36597   6.100  10.293   0.494  0.3723  0.5290  0.7531
11107SOL    HW136598   6.012  10.258   0.483  0.7377  0.0185 -0.8052
11107SOL    HW236599   6.116  10.290   0.589 -1.1036  0.2100  1.0073
11108SOL     OW36600  10.168   7.615   1.125  0.4239 -0.7403  0.5401
11108SOL    HW136601  10.184   7.699   1.167 -1.2687 -0.0546 -0.1139
11108SOL    HW236602  10.214   7.621   1.040  1.6604 -1.1347  1.1530
11109SOL     OW36603  10.466   9.862  11.283 -0.3169  0.2432 -0.0229
11109SOL    HW136604  10.463   9.786  11.341 -0.4094 -0.2893 -0.7091
11109SOL    HW236605  10.556   9.895  11.291 -0.0708 -0.3667 -0.2572
11110SOL     OW36606   4.191   1.098   1.220  0.1840 -0.0281 -0.3329
11110SOL    HW136607   4.242   1.125   1.296 -0.5119 -0.7381  0.3992
11110SOL    HW236608   4.102   1.129   1.238 -0.1500 -0.8727 -0.4802
11111SOL     OW36609  10.351   9.626   5.199  0.3709  0.3655 -0.6575
11111SOL    HW136610  10.354   9.681   5.120  1.0258 -1.1579 -1.7506
11111SOL    HW236611  10.258   9.620   5.221  0.3319  2.7938  0.1990
11112SOL     OW36612   5.488   4.591   5.921 -0.2967 -0.4288 -0.1060
11112SOL    HW136613   5.434   4.565   5.847 -0.7323  0.8671 -0.2673
11112SOL    HW236614   5.446   4.549   5.997 -0.3359 -1.0683 -0.4733
11113SOL     OW36615   9.812   8.734   2.256  0.5279 -0.3242  0.0534
11113SOL    HW136616   9.804   8.693   2.169 -1.0989  0.8982 -0.4161
11113SOL    HW236617   9.840   8.662   2.313 -0.4154 -1.6647 -1.0847
11114SOL     OW36618   5.703  11.091   8.290 -0.1814  0.1259 -0.5632
11114SOL    HW136619   5.775  11.141   8.329 -0.5527  0.0475  0.2543
11114SOL    HW236620   5.746  11.027   8.233  0.3921  0.1987 -0.2197
11115SOL     OW36621   0.231   1.125   4.617  0.1479  0.5969 -0.1356
11115SOL    HW136622   0.225   1.035   4.586  0.1707  1.2781 -2.3137
11115SOL    HW236623   0.281   1.170   4.549 -0.2236  2.3322  0.6936
11116SOL     OW36624   6.524   4.357   0.314 -0.6200  0.4534  0.5076
11116SOL    HW136625   6.435   4.390   0.297 -0.5653  1.1648  1.4783
11116SOL    HW236626   6.565   4.351   0.228 -1.3789  0.7871  0.1109
11117SOL     OW36627   3.943  10.492   8.926 -0.2073  0.2483  0.1581
11117SOL    HW136628   3.921  10.503   8.833  0.4831 -0.9776 -0.1768
11117SOL    HW236629   4.038  10.498   8.929 -0.3132  2.3174  1.1251
11118SOL     OW36630   0.013  10.693   2.108  0.0897 -0.4991  0.2911
11118SOL    HW136631  -0.019  10.652   2.188 -0.8240  0.8092  0.6179
11118SOL    HW236632  -0.053  10.672   2.042 -0.3761  0.4047  0.4577
11119SOL     OW36633   5.406   8.579   4.511 -0.3374 -0.7528  0.0794
11119SOL    HW136634   5.326   8.600   4.560 -0.4965  0.1830 -0.5539
11119SOL    HW236635   5.382   8.591   4.419  0.5397 -0.4260 -0.1198
11120SOL     OW36636   6.639   1.085  11.099 -0.7980 -0.1692  0.3795
11120SOL    HW136637   6.680   1.171  11.099 -1.9507  0.4166 -1.0287
11120SOL    HW236638   6.705   1.027  11.060 -0.5591  0.3691 -0.0302
11121SOL     OW36639   3.462   6.495   7.845 -0.6244  0.2705  0.6901
11121SOL    HW136640   3.518   6.457   7.778 -0.5810  2.8345 -0.8286
11121SOL    HW236641   3.379   6.447   7.837 -0.1954 -0.3442 -0.2555
11122SOL     OW36642   0.984   4.347   0.092 -0.6685  0.2930 -0.2680
11122SOL    HW136643   1.004   4.412   0.025 -0.2351 -0.0103 -0.4345
11122SOL    HW236644   1.001   4.391   0.175 -2.0925  0.9775 -0.3117
11123SOL     OW36645   9.046   9.972   1.605  0.0162  0.0245 -0.3885
11123SOL    HW136646   9.018   9.901   1.663 -1.0120  0.0671 -0.8079
11123SOL    HW236647   9.125  10.007   1.645 -0.3075 -0.3806  0.6203
11124SOL     OW36648   2.660   5.220   1.463  0.0689  0.3880 -0.2670
11124SOL    HW136649   2.742   5.217   1.512 -0.4490 -0.1748  0.5914
11124SOL    HW236650   2.682   5.265   1.382  1.4235 -0.5116 -0.4217
11125SOL     OW36651   4.606   4.106   8.079 -0.2673  0.1626 -0.5214
11125SOL    HW136652   4.644   4.037   8.025  0.3481  1.9838 -2.5649
11125SOL    HW236653   4.674   4.127   8.143 -0.3748 -0.9184 -0.0303
11126SOL     OW36654   1.481   4.554   9.896  0.2410  0.2595  0.0219
11126SOL    HW136655   1.552   4.491   9.904  0.8793  0.5232 -2.6601
11126SOL    HW236656   1.524   4.640   9.898 -0.1669  0.4739 -0.1857
11127SOL     OW36657   3.471   9.887   0.535  0.2393  0.9377  0.0709
11127SOL    HW136658   3.394   9.873   0.479  1.3193  0.1369 -1.2749
11127SOL    HW236659   3.533   9.933   0.479  1.8654 -1.0756  0.0987
11128SOL     OW36660   8.161   8.512   9.777  0.3514 -0.4351 -0.7104
11128SOL    HW136661   8.124   8.523   9.689 -1.2866  1.8367  0.1464
11128SOL    HW236662   8.104   8.447   9.818 -0.1789  0.0338 -0.6904
11129SOL     OW36663  10.745   0.692   0.877  0.2181  0.2483  0.2445
11129SOL    HW136664  10.746   0.775   0.925 -0.6363  1.4118 -1.6195
11129SOL    HW236665  10.833   0.685   0.840  0.4970 -0.0466  0.9292
11130SOL     OW36666   0.364   9.973   7.874  0.8256  0.6007 -0.0445
11130SOL    HW136667   0.396   9.912   7.807  1.9856  0.8855  0.2341
11130SOL    HW236668   0.281  10.004   7.839  1.2241  0.4484 -1.1840
11131SOL     OW36669   9.280   7.061   0.049  0.7366  0.0119  0.4343
11131SOL    HW136670   9.300   7.092  -0.040  0.0885  0.4884  0.4531
11131SOL    HW236671   9.227   6.983   0.035  1.0784 -0.2148  0.3986
11132SOL     OW36672   1.837   1.837   2.625 -0.0728  0.4075 -0.4019
11132SOL    HW136673   1.911   1.893   2.598 -0.6612 -0.0342 -3.2545
11132SOL    HW236674   1.760   1.892   2.612 -0.5853 -0.6908 -2.3488
11133SOL     OW36675   7.200   8.877   3.528 -0.5904 -0.6214 -0.0105
11133SOL    HW136676   7.178   8.839   3.443  1.1759 -1.1843 -0.2749
11133SOL    HW236677   7.191   8.805   3.590  1.0364 -1.0536 -0.2314
11134SOL     OW36678   7.796   3.469   0.616  0.3265  0.3566 -0.3705
11134SOL    HW136679   7.725   3.435   0.561  0.1629  0.3125 -0.1364
11134SOL    HW236680   7.814   3.556   0.581  0.5071  0.1686 -0.7541
11135SOL     OW36681   2.332   1.972   0.342  0.3396 -0.0052  0.1726
11135SOL    HW136682   2.270   2.021   0.396  0.8932  0.5068  0.3518
11135SOL    HW236683   2.343   2.025   0.263  0.2416 -0.2946 -0.0364
11136SOL     OW36684   8.323   8.747   8.656  0.3011  0.1924 -0.0392
11136SOL    HW136685   8.338   8.842   8.656 -1.6182  0.5441 -0.4031
11136SOL    HW236686   8.379   8.714   8.586  1.4879  0.9437  0.5152
11137SOL     OW36687   7.843   8.163  10.963 -0.1405 -0.0233  0.0177
11137SOL    HW136688   7.771   8.195  11.017 -0.6118 -0.2528 -0.4604
11137SOL    HW236689   7.805   8.092  10.912  0.4766 -0.2726 -0.1062
11138SOL     OW36690   9.259   3.437   7.086  0.0990 -0.1955  0.3858
11138SOL    HW136691   9.180   3.384   7.085 -0.0951  0.0323  1.6958
11138SOL    HW236692   9.273   3.458   7.179 -0.0763  2.3953 -0.0834
11139SOL     OW36693   7.201   9.273   1.979 -0.2980 -0.0841 -0.4069
11139SOL    HW136694   7.116   9.317   1.985 -0.8154 -1.2134  1.3833
11139SOL    HW236695   7.234   9.274   2.069  0.6834 -1.3806 -0.7257
11140SOL     OW36696   9.293   6.407   3.703  0.1385  0.0900  0.1374
11140SOL    HW136697   9.387   6.421   3.703  0.2383 -0.5858  0.3483
11140SOL    HW236698   9.265   6.431   3.792 -0.1323  1.8313 -0.3734
11141SOL     OW36699   6.650   3.346   3.289  0.3546 -0.0184 -0.5355
11141SOL    HW136700   6.698   3.340   3.207  1.0576 -0.5472 -0.0971
11141SOL    HW236701   6.706   3.397   3.347 -0.8621  1.7981 -0.8734
11142SOL     OW36702  10.745   1.786   7.964 -0.4356 -0.1463  0.4860
11142SOL    HW136703  10.708   1.873   7.973 -2.2975 -0.4991 -2.4373
11142SOL    HW236704  10.793   1.789   7.881 -0.2944 -1.8050  0.4788
11143SOL     OW36705   1.172   7.841   1.925 -0.0023 -0.1207 -0.2903
11143SOL    HW136706   1.265   7.821   1.913 -0.0785 -0.9672  0.4518
11143SOL    HW236707   1.127   7.762   1.898 -0.3539 -0.7664  2.0204
11144SOL     OW36708   5.681  10.193   1.261  0.2101  0.5420 -0.2046
11144SOL    HW136709   5.723  10.110   1.283  0.3410  0.4340 -0.8546
11144SOL    HW236710   5.738  10.259   1.302  2.2771  0.5378 -2.8218
11145SOL     OW36711   1.808   2.849   2.983 -0.4416 -0.3182  0.0586
11145SOL    HW136712   1.798   2.845   3.078 -1.3633  0.6698  0.0320
11145SOL    HW236713   1.877   2.786   2.963  0.4815  0.1937  1.4823
11146SOL     OW36714   2.583   0.470   5.216  0.0708 -0.6161  0.4936
11146SOL    HW136715   2.605   0.508   5.131 -1.3642 -0.1181  0.3035
11146SOL    HW236716   2.625   0.528   5.280  2.0258 -1.5839  0.1465
11147SOL     OW36717  10.796   7.623   7.076 -0.0044  0.1422 -0.3950
11147SOL    HW136718  10.864   7.572   7.118  0.2931 -0.2120 -1.2768
11147SOL    HW236719  10.825   7.714   7.083 -0.3720  0.1837  0.8822
11148SOL     OW36720   4.865  10.899   1.838  0.2117  0.2270  0.1749
11148SOL    HW136721   4.932  10.948   1.884  0.3783 -0.9977  1.3067
11148SOL    HW236722   4.864  10.936   1.750  0.9095  1.6456  0.7380
11149SOL     OW36723   1.803   2.973   2.733 -0.4785  0.3854  0.0054
11149SOL    HW136724   1.794   2.926   2.815 -1.1967 -0.1238 -0.3555
11149SOL    HW236725   1.872   2.926   2.686 -0.3036  0.4750  0.1693
11150SOL     OW36726   5.415   0.919   4.258 -0.2725  0.3784  0.5559
11150SOL    HW136727   5.373   0.835   4.274 -1.7726  0.7578 -1.0874
11150SOL    HW236728   5.351   0.984   4.286  0.7572  1.0059  1.5309
11151SOL     OW36729  10.093   9.842   1.452 -0.2086 -0.0831 -0.4206
11151SOL    HW136730  10.112   9.758   1.412 -1.6345 -1.2186  1.1747
11151SOL    HW236731  10.009   9.868   1.416 -0.6712 -0.2807  0.4749
11152SOL     OW36732   5.958   5.448   0.659 -0.7072 -0.1766  0.0961
11152SOL    HW136733   5.963   5.362   0.700  1.1896 -0.1656 -0.0248
11152SOL    HW236734   5.970   5.510   0.732  0.4345 -0.0958 -0.1527
11153SOL     OW36735  11.136   3.780   2.521 -0.2180  0.0507  0.1018
11153SOL    HW136736  11.179   3.851   2.567  0.1971  0.9765 -1.6304
11153SOL    HW236737  11.194   3.705   2.532 -0.3706  0.1056  1.4381
11154SOL     OW36738   5.916   7.704  10.319  0.2984  0.2391 -0.0157
11154SOL    HW136739   5.857   7.658  10.378  0.7705  1.8338  1.7711
11154SOL    HW236740   5.926   7.644  10.245 -1.8143 -1.0081  0.6045
11155SOL     OW36741   1.353   3.134   4.527  0.3976 -0.1353 -0.0194
11155SOL    HW136742   1.329   3.045   4.552 -1.2917  0.4611  0.6878
11155SOL    HW236743   1.447   3.140   4.545  0.2410 -1.3108  1.4380
11156SOL     OW36744   7.065   0.108   6.250 -0.2124 -0.4050 -1.0498
11156SOL    HW136745   7.083   0.028   6.300  1.7444  0.5179 -0.1827
11156SOL    HW236746   6.988   0.146   6.292 -0.0852 -0.9264 -0.3348
11157SOL     OW36747   3.746   8.022  10.734 -0.0740 -0.5721 -0.4330
11157SOL    HW136748   3.769   8.009  10.642 -0.7316 -2.3422 -0.3699
11157SOL    HW236749   3.652   8.006  10.739 -0.2504  0.5360  0.3923
11158SOL     OW36750  10.256   3.284   1.466 -0.4247 -0.1760 -0.0270
11158SOL    HW136751  10.295   3.200   1.491  1.0767  0.6071  0.4198
11158SOL    HW236752  10.275   3.341   1.540 -1.1889  0.6455 -0.4463
11159SOL     OW36753   2.544   9.072   3.223  0.6806  0.5058 -0.7074
11159SOL    HW136754   2.614   9.013   3.253  0.6051  1.1844  0.8866
11159SOL    HW236755   2.575   9.160   3.245 -0.0307  0.9270 -1.3463
11160SOL     OW36756  10.398   2.090   5.317  0.4370  0.3250  0.1742
11160SOL    HW136757  10.359   2.003   5.323  2.1479 -0.5927 -0.9602
11160SOL    HW236758  10.486   2.074   5.283  0.8003  2.5157 -0.0683
11161SOL     OW36759   4.616   3.111   1.178  0.0178 -0.7284 -0.2744
11161SOL    HW136760   4.701   3.083   1.145 -0.3843 -0.1182 -1.9528
11161SOL    HW236761   4.598   3.193   1.131 -1.8933 -1.3082 -0.6505
11162SOL     OW36762   7.333   3.956  10.103 -0.0868 -0.6234 -0.8343
11162SOL    HW136763   7.352   3.864  10.122 -0.8624 -0.6353 -0.0566
11162SOL    HW236764   7.374   3.971  10.018  1.5390 -1.1921 -0.1917
11163SOL     OW36765   4.308   3.938   9.846 -0.3823 -0.4803  0.2866
11163SOL    HW136766   4.230   3.985   9.814  0.5336  0.1675 -1.0789
11163SOL    HW236767   4.351   4.001   9.905  0.2997  0.0543 -0.7476
11164SOL     OW36768   1.465   4.551   5.850  0.3209  0.6053  0.2554
11164SOL    HW136769   1.520   4.475   5.868  0.2570  0.3017 -0.7881
11164SOL    HW236770   1.402   4.520   5.784  0.2583  1.5438 -0.1352
11165SOL     OW36771   5.568   0.064   6.102 -0.4144  0.2094  0.0799
11165SOL    HW136772   5.542   0.118   6.176 -1.0134  1.3989 -0.9538
11165SOL    HW236773   5.597   0.128   6.035 -1.6463 -0.6956 -1.3784
11166SOL     OW36774   2.686   1.002   8.556  0.0419  0.4462  0.1349
11166SOL    HW136775   2.642   1.075   8.513  0.2830  0.1266 -0.6674
11166SOL    HW236776   2.730   1.041   8.631 -0.1000  1.0697 -0.1046
11167SOL     OW36777   5.407   6.088   6.855 -0.8849  0.0452 -0.1110
11167SOL    HW136778   5.443   5.999   6.860 -1.0351 -0.2715 -2.9671
11167SOL    HW236779   5.347   6.094   6.929 -0.0272 -1.8295  0.7982
11168SOL     OW36780   9.232  10.024   2.374  0.2101  0.1086  0.1400
11168SOL    HW136781   9.237  10.111   2.413 -0.3559  0.2799 -0.1658
11168SOL    HW236782   9.323   9.997   2.363  0.4241  1.2271 -1.0277
11169SOL     OW36783   1.058   3.461   6.948  0.1776 -0.3362 -0.4104
11169SOL    HW136784   1.112   3.424   6.878  0.1285  0.7186 -1.0329
11169SOL    HW236785   0.969   3.432   6.928  0.3112 -0.9169 -0.1757
11170SOL     OW36786  10.253   2.213   9.573  1.1819  0.2728 -0.0274
11170SOL    HW136787  10.313   2.279   9.539  0.4363  0.6094 -0.7264
11170SOL    HW236788  10.194   2.261   9.630 -0.0411  0.4406 -1.3742
11171SOL     OW36789  10.031   4.516   0.834 -0.3498 -0.4320 -0.6203
11171SOL    HW136790  10.055   4.556   0.750 -2.0569 -0.1099 -1.0073
11171SOL    HW236791   9.975   4.442   0.810  1.2497 -1.9607  0.1683
11172SOL     OW36792   1.700   6.146   3.164  0.5652 -0.6038  0.0007
11172SOL    HW136793   1.733   6.225   3.207 -0.7907 -0.7659  1.4385
11172SOL    HW236794   1.767   6.080   3.181  1.4946  0.0949 -0.8238
11173SOL     OW36795   8.458   4.298   9.617 -0.7264  0.5616  0.4155
11173SOL    HW136796   8.480   4.206   9.608 -2.8322 -0.0955  1.4266
11173SOL    HW236797   8.391   4.313   9.551  0.6788  1.8216 -0.8061
11174SOL     OW36798   0.496   0.794   6.875  0.1965 -0.4774 -0.2700
11174SOL    HW136799   0.546   0.840   6.807  1.4381  1.5520  1.8574
11174SOL    HW236800   0.560   0.777   6.944 -1.6542  0.6782  1.8532
11175SOL     OW36801   0.816   9.833   7.813 -0.4126  0.2390  0.3360
11175SOL    HW136802   0.768   9.756   7.842  0.1048 -0.7076 -1.1963
11175SOL    HW236803   0.859   9.866   7.892 -1.4846 -0.4067  1.2170
11176SOL     OW36804   7.590   9.570   0.652 -0.1361  0.3179  0.5478
11176SOL    HW136805   7.682   9.593   0.635 -0.0873 -0.5920 -0.5273
11176SOL    HW236806   7.583   9.478   0.626 -1.4986  0.5437  0.0279
11177SOL     OW36807  11.127   3.536  10.760  0.1299 -0.0823  0.1869
11177SOL    HW136808  11.149   3.524  10.853 -0.8705 -0.9688  0.3200
11177SOL    HW236809  11.172   3.464  10.715  1.6695  1.0709 -0.2146
11178SOL     OW36810  11.191  10.570   2.237  0.1614 -1.3219  0.7619
11178SOL    HW136811  11.135  10.645   2.256  1.2159  0.1224 -1.4754
11178SOL    HW236812  11.130  10.500   2.213 -0.7947  0.3453 -2.0987
11179SOL     OW36813   8.429  11.093   3.255  0.3729 -0.1775 -0.1196
11179SOL    HW136814   8.396  11.078   3.344  0.7824  1.0174  0.2464
11179SOL    HW236815   8.355  11.072   3.198  0.1282 -1.0244  0.4892
11180SOL     OW36816   2.045   3.904   3.906 -0.6960  0.6232  0.5994
11180SOL    HW136817   2.041   3.826   3.850  0.4421 -0.1360  1.5155
11180SOL    HW236818   2.072   3.974   3.847 -0.6952  0.0931 -0.0406
11181SOL     OW36819   6.960   1.360   2.500  0.1805  0.2309  0.4899
11181SOL    HW136820   6.954   1.394   2.411  1.1846  0.0165  0.3281
11181SOL    HW236821   6.980   1.267   2.489  0.9288  0.3293  0.9322
11182SOL     OW36822   6.467   5.976   1.554  0.4962 -0.2357  0.1727
11182SOL    HW136823   6.439   5.897   1.600  1.0726 -0.6640 -0.1912
11182SOL    HW236824   6.452   5.956   1.461 -0.1188  0.3982  0.1315
11183SOL     OW36825   3.908   2.151   3.425 -0.4415 -0.1181  0.2960
11183SOL    HW136826   3.991   2.116   3.454 -0.0395  0.5358 -0.0322
11183SOL    HW236827   3.927   2.190   3.339 -1.1527 -0.2431  0.0707
11184SOL     OW36828   6.495   9.633   0.882 -0.0355 -0.2684  0.2120
11184SOL    HW136829   6.574   9.627   0.937  0.2004 -0.8835 -0.1837
11184SOL    HW236830   6.523   9.685   0.806 -0.1024 -0.2088  0.2284
11185SOL     OW36831   8.584   3.719   8.267  0.1869  0.4934 -0.5088
11185SOL    HW136832   8.614   3.725   8.358 -0.1955  3.1762 -0.4673
11185SOL    HW236833   8.499   3.676   8.273  0.6154 -0.2681  0.2830
11186SOL     OW36834   8.119   3.828   2.969 -0.3023 -0.3962  0.5806
11186SOL    HW136835   8.163   3.754   3.009 -0.2863  0.1571  1.6170
11186SOL    HW236836   8.164   3.905   3.004 -1.3647  0.1440  0.8126
11187SOL     OW36837   6.523   8.243   6.518  0.4088  0.0873 -0.2339
11187SOL    HW136838   6.527   8.298   6.439  0.0964 -0.4534 -0.6362
11187SOL    HW236839   6.613   8.213   6.530  0.2769 -0.6551 -0.9937
11188SOL     OW36840   4.787   4.363   1.336  0.5584  0.4320 -0.2396
11188SOL    HW136841   4.802   4.434   1.397 -1.9582 -0.0091  1.0150
11188SOL    HW236842   4.783   4.405   1.250  2.0271  1.3448  0.1011
11189SOL     OW36843   3.906  11.286   6.643 -0.3076  0.0525 -0.6435
11189SOL    HW136844   3.904  11.365   6.697 -1.8421 -0.1590 -0.3496
11189SOL    HW236845   3.856  11.222   6.694 -0.4924 -0.5998 -1.6346
11190SOL     OW36846   9.155   5.394   9.632  0.3747 -0.4960  0.0312
11190SOL    HW136847   9.082   5.336   9.655  0.6397 -1.0842 -0.5966
11190SOL    HW236848   9.145   5.468   9.692 -0.3425 -0.8824  0.4140
11191SOL     OW36849   8.093  10.613   6.199 -0.2858  0.0014  0.0448
11191SOL    HW136850   8.143  10.666   6.261  0.6964 -1.6353  0.7313
11191SOL    HW236851   8.013  10.591   6.247  0.4165 -1.1586  0.7548
11192SOL     OW36852   9.835   3.217   8.053 -0.6941  0.3410  0.2984
11192SOL    HW136853   9.851   3.304   8.088 -1.5315  1.4380 -1.8913
11192SOL    HW236854   9.901   3.205   7.985 -0.7553 -0.6244  0.3847
11193SOL     OW36855   1.226   8.916   3.174  0.3414 -0.4603 -0.1335
11193SOL    HW136856   1.251   8.854   3.106  0.7474  0.2625 -0.6489
11193SOL    HW236857   1.305   8.969   3.188 -0.1037  0.1470  0.0809
11194SOL     OW36858   7.890   3.142   2.994  0.5984 -0.3072  0.4675
11194SOL    HW136859   7.971   3.098   2.968  0.3558 -0.5753  0.1607
11194SOL    HW236860   7.858   3.182   2.913 -1.0119 -2.4862 -0.0760
11195SOL     OW36861   2.808   6.124   2.201  0.6251  0.8273 -0.0648
11195SOL    HW136862   2.828   6.108   2.108  1.2961  1.1972  0.0078
11195SOL    HW236863   2.849   6.208   2.220  0.2407  0.8919  0.4975
11196SOL     OW36864   4.162   3.543   1.656 -0.0352 -0.4090 -0.6002
11196SOL    HW136865   4.163   3.450   1.634 -0.8651 -1.2100  2.3194
11196SOL    HW236866   4.077   3.557   1.697  0.9111  1.1227  0.9646
11197SOL     OW36867   2.479  10.904   3.210  0.6077 -0.3207  0.0211
11197SOL    HW136868   2.425  10.887   3.133  0.0009 -1.4608  0.6940
11197SOL    HW236869   2.494  10.999   3.207  0.7044 -0.3534 -1.5629
11198SOL     OW36870   0.996   1.905   9.512 -0.3353  0.5969  0.5528
11198SOL    HW136871   1.017   1.934   9.423 -1.1064 -0.1040  0.1192
11198SOL    HW236872   0.983   1.986   9.562  1.0059  1.0128  0.2752
11199SOL     OW36873   5.643   9.275   2.397 -0.4056  0.1072  0.3122
11199SOL    HW136874   5.582   9.214   2.438  0.4411 -0.3051  0.9897
11199SOL    HW236875   5.728   9.233   2.405  0.0584  0.9431 -0.0800
11200SOL     OW36876   3.802   6.562   1.900 -0.1725  0.0071  0.0851
11200SOL    HW136877   3.862   6.606   1.960 -1.0695 -1.0610  1.8444
11200SOL    HW236878   3.735   6.627   1.880  1.7252  1.3950 -2.3326
11201SOL     OW36879   2.665   1.119   3.720 -0.0801  0.8459 -0.2447
11201SOL    HW136880   2.760   1.108   3.713 -0.0456  0.0742  1.0517
11201SOL    HW236881   2.651   1.213   3.708  1.0286  1.2070  1.0193
11202SOL     OW36882   7.053   3.072  11.119 -0.6840 -0.6299 -0.0252
11202SOL    HW136883   7.096   3.132  11.180 -1.5373  1.5682 -1.4459
11202SOL    HW236884   7.125   3.032  11.070 -0.0852 -1.0350  1.1535
11203SOL     OW36885  10.698   0.664   8.954  0.2384 -0.4793  0.1029
11203SOL    HW136886  10.706   0.606   8.878  0.8513  0.4276 -0.5426
11203SOL    HW236887  10.621   0.631   9.001  0.6950 -1.9587 -0.1094
11204SOL     OW36888   9.392   1.829   8.041  0.0469 -0.0881  0.4214
11204SOL    HW136889   9.358   1.918   8.035 -0.3524 -0.2877 -0.5673
11204SOL    HW236890   9.384   1.806   8.133 -1.7877  0.1657  0.3697
11205SOL     OW36891   6.202   9.685   0.811  0.2894  0.0866  0.0632
11205SOL    HW136892   6.214   9.657   0.720  1.1435  0.9579 -0.1063
11205SOL    HW236893   6.278   9.651   0.858  0.5312  0.7531  0.1705
11206SOL     OW36894   1.312   1.650   9.809  0.3927  0.0597  0.2038
11206SOL    HW136895   1.246   1.624   9.744 -0.0390  0.4745  0.4798
11206SOL    HW236896   1.274   1.723   9.855  0.7932 -0.0955  0.7929
11207SOL     OW36897  10.786  10.396  11.306 -0.8065 -0.3100  0.0043
11207SOL    HW136898  10.757  10.481  11.340  1.1287 -0.0234  1.0761
11207SOL    HW236899  10.768  10.335  11.377 -1.6874 -0.7181 -0.5580
11208SOL     OW36900   8.989  10.244   6.543 -0.0355 -0.1109 -0.1305
11208SOL    HW136901   9.083  10.228   6.535  0.5879  2.8902  0.0054
11208SOL    HW236902   8.966  10.215   6.631  0.1133 -3.2468 -1.0114
11209SOL     OW36903   2.401   6.906   0.208 -0.2835  0.7926  0.1440
11209SOL    HW136904   2.395   6.997   0.180  0.9229  0.4478 -1.4112
11209SOL    HW236905   2.479   6.904   0.264 -1.9376  1.2177  2.6133
11210SOL     OW36906   4.861   0.284   1.679  0.3723 -0.0768  0.3618
11210SOL    HW136907   4.862   0.377   1.703  0.8528  0.2895 -0.9864
11210SOL    HW236908   4.919   0.278   1.603  0.4457 -1.5088  0.5030
11211SOL     OW36909   3.311   6.266   6.583  0.3849 -0.3620 -0.4873
11211SOL    HW136910   3.284   6.206   6.514 -0.0973 -0.6822 -0.0257
11211SOL    HW236911   3.404   6.246   6.597  0.9750  0.8928 -2.2304
11212SOL     OW36912   4.190   9.103   1.873 -0.6070 -0.7445 -0.0152
11212SOL    HW136913   4.117   9.146   1.827  0.7609 -0.0777 -1.6531
11212SOL    HW236914   4.259   9.168   1.875  0.6395 -2.0021 -0.2727
11213SOL     OW36915  11.313  10.976   6.619 -0.0142 -0.7036  0.1410
11213SOL    HW136916  11.236  11.010   6.665  0.6419  1.5367 -0.3352
11213SOL    HW236917  11.378  10.961   6.688  0.4682  1.2632  0.1519
11214SOL     OW36918   7.167   4.227   2.097 -0.5251  0.1955  0.5749
11214SOL    HW136919   7.076   4.212   2.071 -1.0506  1.6646  1.4290
11214SOL    HW236920   7.218   4.202   2.020 -1.5485 -1.5680  0.4010
11215SOL     OW36921   2.574   6.458   0.634 -0.4328 -0.2636  0.2533
11215SOL    HW136922   2.597   6.545   0.604 -0.6736 -0.6802 -1.2033
11215SOL    HW236923   2.618   6.449   0.719  0.5712  0.8156 -0.1381
11216SOL     OW36924  11.274   7.407   3.681 -0.0988 -0.1624  0.1984
11216SOL    HW136925  11.306   7.407   3.591  0.1544  1.9787  0.2338
11216SOL    HW236926  11.257   7.499   3.700  0.2264 -0.5201  2.4690
11217SOL     OW36927   0.986  10.796   1.411 -0.4807 -0.8499 -0.0444
11217SOL    HW136928   1.005  10.782   1.503  0.1586  0.1977 -0.0032
11217SOL    HW236929   1.072  10.802   1.369 -0.7290  0.8238 -0.3593
11218SOL     OW36930   8.673   1.720   7.847  0.5743  0.5935 -0.2212
11218SOL    HW136931   8.670   1.748   7.938 -2.4093  0.1458 -0.0831
11218SOL    HW236932   8.754   1.671   7.839  1.3626  1.4512  1.9153
11219SOL     OW36933   3.194   8.669   9.335  0.5024 -0.0551  0.1067
11219SOL    HW136934   3.254   8.624   9.395  1.9791  1.0205 -0.5008
11219SOL    HW236935   3.250   8.697   9.262 -0.9365  0.1489 -0.9602
11220SOL     OW36936   4.542   9.258   1.894 -0.1182 -0.1530 -0.6876
11220SOL    HW136937   4.618   9.271   1.952  0.5646  0.1137 -1.6140
11220SOL    HW236938   4.580   9.226   1.812 -1.1176 -1.0416 -0.8344
11221SOL     OW36939  10.299   6.316   2.174 -0.2211 -0.5489  0.1232
11221SOL    HW136940  10.337   6.380   2.234  2.2300 -2.6556  0.9809
11221SOL    HW236941  10.254   6.254   2.231 -0.4771 -0.9391 -0.4893
11222SOL     OW36942  11.217   1.298   9.078 -0.0330 -0.3762  0.0714
11222SOL    HW136943  11.148   1.318   9.142  0.1740 -0.0401  0.1906
11222SOL    HW236944  11.243   1.208   9.099 -0.1021 -0.3352  0.3410
11223SOL     OW36945   7.848   4.135   1.954 -0.1320 -0.6062  0.0090
11223SOL    HW136946   7.885   4.222   1.970  0.3101 -0.9454  0.8754
11223SOL    HW236947   7.924   4.078   1.947 -0.4511 -1.2268  1.3177
11224SOL     OW36948   4.660   2.602   1.585  0.0811  0.2729 -0.1715
11224SOL    HW136949   4.751   2.579   1.604  0.8658  3.2759  0.1415
11224SOL    HW236950   4.610   2.560   1.655  1.2376 -1.0348 -0.0766
11225SOL     OW36951  10.302   0.692   4.113  0.2054 -0.1838  0.5946
11225SOL    HW136952  10.334   0.763   4.058 -0.6270 -0.7275 -0.6426
11225SOL    HW236953  10.336   0.712   4.200  1.4903  0.7449 -0.0835
11226SOL     OW36954   2.213   7.912   7.704  0.3113 -0.2469 -0.1151
11226SOL    HW136955   2.306   7.936   7.711  0.2261  0.3253 -0.8496
11226SOL    HW236956   2.213   7.832   7.651  0.5529 -1.7014  1.9136
11227SOL     OW36957   8.220   7.664   9.999  0.2751 -0.0266  0.4513
11227SOL    HW136958   8.219   7.572   9.975  0.0733  0.4248 -1.4014
11227SOL    HW236959   8.311   7.691   9.990  0.2165  0.1234  0.2920
11228SOL     OW36960   8.974   0.035   7.516  0.0185  0.4856 -0.2527
11228SOL    HW136961   8.891   0.035   7.564 -0.9368  0.1432 -1.8206
11228SOL    HW236962   8.992  -0.057   7.498  0.4439  0.6004 -0.4260
11229SOL     OW36963   9.703   7.115   6.667  0.4232  0.1916 -0.0027
11229SOL    HW136964   9.685   7.200   6.706  2.4709  0.3875  0.6696
11229SOL    HW236965   9.799   7.107   6.670  0.3499 -1.7314 -0.9120
11230SOL     OW36966   5.003   4.261   6.414 -0.3632  0.6469 -0.2197
11230SOL    HW136967   5.075   4.285   6.355 -0.7537  0.4619 -0.7844
11230SOL    HW236968   4.960   4.344   6.435 -0.9219  0.6014 -1.1286
11231SOL     OW36969   6.534   9.934   7.592 -0.2303 -0.0780  0.2200
11231SOL    HW136970   6.606   9.927   7.530  0.6673 -1.2003  1.3331
11231SOL    HW236971   6.483  10.009   7.562  1.4028  0.7397 -0.5916
11232SOL     OW36972   0.320   4.036   8.975  0.0911 -0.4534  0.2402
11232SOL    HW136973   0.370   3.981   9.035  0.8230 -0.0749 -0.0045
11232SOL    HW236974   0.381   4.105   8.950 -0.9245  0.7037  0.8379
11233SOL     OW36975   5.016   6.978   2.263  0.0253  0.0593 -0.2283
11233SOL    HW136976   5.052   6.940   2.183  0.9080 -1.1941  0.7297
11233SOL    HW236977   5.005   7.071   2.243 -0.1300 -0.2897 -1.9149
11234SOL     OW36978   5.483   6.111  10.898  0.2028 -0.6648 -0.7094
11234SOL    HW136979   5.577   6.111  10.884  0.0886  0.0033 -1.6459
11234SOL    HW236980   5.460   6.020  10.914  0.8057 -1.0762 -2.0458
11235SOL     OW36981   2.514   0.538   5.535 -0.1994 -0.3524 -0.3821
11235SOL    HW136982   2.520   0.457   5.585 -0.3338  0.5263  1.1364
11235SOL    HW236983   2.464   0.597   5.591  0.0828  0.8537 -1.3496
11236SOL     OW36984   0.717  10.191   6.236  0.6762  0.0348  0.0377
11236SOL    HW136985   0.732  10.108   6.190  0.2459 -0.5177  0.8634
11236SOL    HW236986   0.753  10.176   6.323 -1.0616  0.0509  0.7912
11237SOL     OW36987   7.097   6.206   8.766  0.8920 -0.6416  0.4478
11237SOL    HW136988   7.050   6.126   8.791  0.4601  0.2794  2.8903
11237SOL    HW236989   7.028   6.267   8.741  0.8295  0.1600  2.3814
11238SOL     OW36990   4.250   7.343   3.272 -0.0737 -0.1102 -0.7471
11238SOL    HW136991   4.232   7.303   3.188  0.5483 -0.3101 -0.7924
11238SOL    HW236992   4.317   7.409   3.254 -1.6993  1.5973 -0.8290
11239SOL     OW36993   9.698   1.350   5.707 -0.2726  0.1362 -0.1022
11239SOL    HW136994   9.792   1.336   5.698 -0.4790 -0.9813 -0.7334
11239SOL    HW236995   9.660   1.313   5.628 -1.3289 -0.3858  0.6142
11240SOL     OW36996  10.138   1.215   8.357 -0.2749  0.2986  0.1339
11240SOL    HW136997  10.216   1.230   8.411 -0.0858 -2.2046  0.6998
11240SOL    HW236998  10.109   1.302   8.331  1.7054  1.3891  1.3434
11241SOL     OW36999   2.319   7.350   8.504 -0.4174  0.0871 -0.4742
11241SOL    HW137000   2.346   7.286   8.570 -1.1217 -0.8861 -1.0911
11241SOL    HW237001   2.397   7.402   8.487  0.6485 -1.6183 -1.0553
11242SOL     OW37002   9.773  10.635   8.434  0.5258 -0.4124  0.1505
11242SOL    HW137003   9.727  10.651   8.516 -0.6215  1.1121 -0.7360
11242SOL    HW237004   9.734  10.555   8.400  0.1014 -0.3474  0.4760
11243SOL     OW37005   1.390   4.837   5.841 -0.0664  0.2587  0.5111
11243SOL    HW137006   1.455   4.890   5.794 -0.5635 -0.0743 -0.5806
11243SOL    HW237007   1.410   4.747   5.818  0.4956 -0.0389  2.0146
11244SOL     OW37008   1.554   8.237   5.803  0.0108 -0.4196  0.0131
11244SOL    HW137009   1.551   8.170   5.871  0.3975 -0.9009 -0.4325
11244SOL    HW237010   1.648   8.251   5.787 -0.0786 -0.7220 -0.8127
11245SOL     OW37011   8.118  10.073   6.887 -0.1846  1.1435 -0.1331
11245SOL    HW137012   8.193  10.065   6.945  0.0001 -0.4839 -0.5598
11245SOL    HW237013   8.147  10.037   6.804 -1.0062  1.8011 -0.7298
11246SOL     OW37014   2.029  10.132  10.341 -0.2565  0.0589 -0.3715
11246SOL    HW137015   2.009  10.182  10.420 -2.1626 -0.6723 -0.3395
11246SOL    HW237016   1.945  10.127  10.294 -0.1018 -2.8338 -0.4840
11247SOL     OW37017   9.261  10.485   4.196  0.2077 -0.4639  1.2750
11247SOL    HW137018   9.211  10.556   4.237 -0.2134  0.9479 -1.4199
11247SOL    HW237019   9.195  10.435   4.147  0.8330 -1.3298  1.2995
11248SOL     OW37020   7.293  10.898   7.537  0.0719 -0.5030  0.0859
11248SOL    HW137021   7.309  10.838   7.610  0.1002  0.3330  0.7871
11248SOL    HW237022   7.376  10.945   7.525 -0.6701  1.2446  1.3038
11249SOL     OW37023  10.823   9.869   6.401  0.2007  0.9991  0.5736
11249SOL    HW137024  10.767   9.791   6.403  1.6574 -0.1377 -0.6467
11249SOL    HW237025  10.783   9.924   6.334  0.6911  0.0290 -0.5603
11250SOL     OW37026   8.327  11.124   3.542  0.1308  0.3516  0.4154
11250SOL    HW137027   8.362  11.207   3.572 -1.8693  1.8950 -1.1871
11250SOL    HW237028   8.233  11.129   3.561 -0.0236 -1.6136  0.3983
11251SOL     OW37029  11.202   4.004   7.180  0.1312  0.0567 -0.2082
11251SOL    HW137030  11.295   4.026   7.185 -0.2707  1.5650  1.2227
11251SOL    HW237031  11.176   4.031   7.092  0.1203  3.7616  0.7873
11252SOL     OW37032   5.068   4.791   5.156  0.5343 -0.6421 -0.6292
11252SOL    HW137033   5.057   4.743   5.074  2.5633 -0.4097 -1.0961
11252SOL    HW237034   5.125   4.865   5.133  2.1890 -1.2763  1.1975
11253SOL     OW37035   6.607   0.000   6.694  0.3754 -0.0725 -0.0205
11253SOL    HW137036   6.609  -0.032   6.604  1.6786  0.1628 -0.0933
11253SOL    HW237037   6.514   0.001   6.717  0.0424 -0.3641 -1.2737
11254SOL     OW37038   6.955   8.849   3.951  0.1225  0.2869  0.0266
11254SOL    HW137039   6.974   8.756   3.947 -0.5214  0.0953  0.8610
11254SOL    HW237040   6.936   8.874   3.861  1.2145 -0.1740 -0.3440
11255SOL     OW37041   4.272   9.879   9.894  0.3377 -0.4868  0.0264
11255SOL    HW137042   4.356   9.891   9.849  0.9080 -1.4279  0.8088
11255SOL    HW237043   4.223   9.820   9.837  0.1397  0.1715 -0.4999
11256SOL     OW37044   5.309   9.016   5.991 -0.4279 -0.2927  0.3382
11256SOL    HW137045   5.276   9.102   6.019  1.9068  0.8377 -0.0916
11256SOL    HW237046   5.251   8.990   5.919 -0.6017  1.4008 -0.1767
11257SOL     OW37047   2.391   5.037   7.691 -0.0042  0.0009 -0.4148
11257SOL    HW137048   2.362   4.958   7.646 -1.3277 -0.3179  0.9134
11257SOL    HW237049   2.319   5.059   7.749  0.6129  1.8333 -0.2898
11258SOL     OW37050   5.701   3.242   6.469 -0.3550  0.7779  0.0660
11258SOL    HW137051   5.708   3.309   6.537  0.8153  0.3975  0.3572
11258SOL    HW237052   5.780   3.254   6.416 -0.6316  0.2751 -0.4676
11259SOL     OW37053   0.825   5.319   6.838  0.3979  0.3884  0.2385
11259SOL    HW137054   0.780   5.328   6.922 -0.4862  1.0599 -0.2852
11259SOL    HW237055   0.911   5.283   6.860  0.2474  0.7255  1.4467
11260SOL     OW37056   2.179   1.342  11.051  0.3424  0.0018 -0.3547
11260SOL    HW137057   2.133   1.417  11.012 -0.7325 -0.6165 -0.3135
11260SOL    HW237058   2.220   1.378  11.130 -0.3923  0.4960 -0.1842
11261SOL     OW37059   3.217  10.022   0.526 -0.5465  0.2602 -0.2080
11261SOL    HW137060   3.260  10.106   0.510 -0.9113  0.1045 -2.2570
11261SOL    HW237061   3.228   9.974   0.445  2.5926 -3.1014  1.9127
11262SOL     OW37062   3.354  10.702   9.750 -0.6601  0.3483  0.0281
11262SOL    HW137063   3.348  10.618   9.703 -2.3076 -0.0594  0.8745
11262SOL    HW237064   3.269  10.711   9.793 -1.6306  3.7706 -2.1965
11263SOL     OW37065   3.179   0.341   7.652  0.1358 -0.3489 -0.2246
11263SOL    HW137066   3.193   0.292   7.571 -0.1357  2.1481 -1.9145
11263SOL    HW237067   3.084   0.353   7.656  0.1056 -0.8509  0.7451
11264SOL     OW37068   9.469   1.801   5.955 -0.0475 -0.3125 -0.1613
11264SOL    HW137069   9.374   1.789   5.959 -0.0961 -0.1043 -0.6362
11264SOL    HW237070   9.496   1.751   5.878  0.2856 -0.7029  0.2028
11265SOL     OW37071   2.989   0.761   6.171  0.4889 -0.3725 -0.0786
11265SOL    HW137072   2.925   0.823   6.137  0.8445  0.9147  1.4949
11265SOL    HW237073   3.072   0.809   6.170  0.4583 -0.0962  2.9042
11266SOL     OW37074   8.314   9.349   7.553  0.3496  0.4027 -0.2632
11266SOL    HW137075   8.357   9.266   7.569 -0.4403  0.1368  0.6192
11266SOL    HW237076   8.335   9.371   7.462  0.6725 -0.6908 -0.4647
11267SOL     OW37077   1.621   3.714   4.907  0.1013  0.2867 -0.5744
11267SOL    HW137078   1.619   3.808   4.888  1.4327  0.3567 -0.4609
11267SOL    HW237079   1.714   3.691   4.904 -0.2245 -1.0886 -0.8802
11268SOL     OW37080   7.171   9.241  10.449  0.2416  0.5380 -0.3507
11268SOL    HW137081   7.193   9.326  10.487 -1.3305  1.6597 -1.8142
11268SOL    HW237082   7.226   9.234  10.372 -1.6860  1.6860 -1.9393
11269SOL     OW37083   9.827   1.261   1.077 -0.8060 -0.1207 -0.2712
11269SOL    HW137084   9.761   1.331   1.079 -2.2769 -1.4286 -0.5325
11269SOL    HW237085   9.822   1.222   1.165  0.0329  0.1119 -0.1125
11270SOL     OW37086  10.632  11.387   3.136  0.2211  0.8712  0.3557
11270SOL    HW137087  10.634  11.470   3.088  0.8738  1.2366  0.9926
11270SOL    HW237088  10.723  11.356   3.135  0.0575  0.3681  0.4798
11271SOL     OW37089   1.800   3.578  11.190 -0.3228 -0.3734  0.1272
11271SOL    HW137090   1.805   3.483  11.196 -1.2123 -0.3681  1.7298
11271SOL    HW237091   1.707   3.598  11.202 -0.1090  0.7114  0.1417
11272SOL     OW37092   2.166   3.888   9.803  0.0593 -0.1615 -0.2036
11272SOL    HW137093   2.234   3.821   9.812 -1.1702 -1.4761 -0.2298
11272SOL    HW237094   2.209   3.960   9.758  0.9949 -1.6635 -1.8563
11273SOL     OW37095   0.501   3.765   0.565  0.0342 -0.0530 -0.0979
11273SOL    HW137096   0.565   3.695   0.577 -0.8888 -0.9888 -0.4130
11273SOL    HW237097   0.481   3.795   0.654 -0.9179 -1.4896  0.2163
11274SOL     OW37098  10.308   6.976  10.454  0.3351  0.0321  0.0403
11274SOL    HW137099  10.283   6.961  10.545  1.1388  0.7189  0.3914
11274SOL    HW237100  10.232   6.948  10.403  0.6997 -2.5500  0.7623
11275SOL     OW37101   5.016   3.175   4.165 -0.2042 -0.3760  0.2642
11275SOL    HW137102   5.108   3.151   4.155 -0.6060 -2.1599  0.5467
11275SOL    HW237103   4.972   3.094   4.191 -1.7344  0.6207  0.9490
11276SOL     OW37104   9.297   6.028   7.939  0.0610 -0.0079  0.4334
11276SOL    HW137105   9.323   6.075   7.860 -0.2025 -0.3321  0.1557
11276SOL    HW237106   9.356   5.953   7.944 -1.6693 -1.5472 -0.9669
11277SOL     OW37107  10.441   2.230   7.775 -0.1046 -0.2036 -0.1614
11277SOL    HW137108  10.487   2.187   7.847  2.0141 -0.9736 -1.8564
11277SOL    HW237109  10.413   2.314   7.811  1.1124 -0.4618  1.5023
11278SOL     OW37110   7.647   9.883   8.245  0.2350  0.2864  0.6414
11278SOL    HW137111   7.679   9.853   8.330  0.2746 -1.1406  0.1477
11278SOL    HW237112   7.721   9.874   8.186  0.2489  1.4093  0.4654
11279SOL     OW37113  10.288   5.892   5.957  0.0466 -0.4473 -0.7414
11279SOL    HW137114  10.245   5.940   6.029  0.9172  0.4325 -0.7768
11279SOL    HW237115  10.285   5.953   5.883  0.0710 -0.9420 -1.1482
11280SOL     OW37116   4.270   0.219   3.989 -0.8442  0.1468  0.1815
11280SOL    HW137117   4.296   0.197   4.078  0.3378  0.1729 -0.1405
11280SOL    HW237118   4.348   0.205   3.937 -0.9450  2.0037 -0.5520
11281SOL     OW37119  10.110   4.645   0.584  0.3166  0.4247  0.4314
11281SOL    HW137120  10.104   4.704   0.509 -0.7416 -0.3427 -0.1134
11281SOL    HW237121  10.037   4.584   0.573  1.0985 -0.6995  1.2251
11282SOL     OW37122  10.182   0.049   6.870 -0.5178  0.7172  0.0495
11282SOL    HW137123  10.239   0.099   6.928  0.0563 -0.9998  1.0451
11282SOL    HW237124  10.229   0.047   6.786  0.1741  0.5838  0.4346
11283SOL     OW37125   6.324  10.668   6.367 -0.7253 -0.1877 -0.2331
11283SOL    HW137126   6.278  10.740   6.323  1.1061  0.8959 -0.4582
11283SOL    HW237127   6.323  10.596   6.303 -0.1520  0.5869 -1.1487
11284SOL     OW37128   6.253  10.170   9.007 -0.8468 -0.3537  0.3672
11284SOL    HW137129   6.242  10.099   8.944  0.3856  0.4070 -0.7524
11284SOL    HW237130   6.262  10.249   8.954  0.6515  0.2602  1.4749
11285SOL     OW37131   5.899   1.387   0.136 -0.2488  0.1261  0.7489
11285SOL    HW137132   5.895   1.406   0.043  2.8751 -0.8123  0.3000
11285SOL    HW237133   5.887   1.292   0.142  1.2299 -0.0698  1.0605
11286SOL     OW37134   4.611   8.434   7.682  0.1593  0.4868  0.3000
11286SOL    HW137135   4.527   8.389   7.679  0.1957  0.2704  1.6850
11286SOL    HW237136   4.592   8.517   7.725  0.5331  0.7242  0.0136
11287SOL     OW37137   9.691   1.900   0.346  0.5100 -0.0351 -0.1638
11287SOL    HW137138   9.638   1.822   0.330  1.2152 -0.8383  1.1632
11287SOL    HW237139   9.770   1.866   0.389  1.4164  1.2856 -0.7395
11288SOL     OW37140   1.079   5.763   1.154 -0.6884  0.1676 -0.3802
11288SOL    HW137141   1.039   5.849   1.164 -1.1705 -0.0078 -0.7622
11288SOL    HW237142   1.172   5.781   1.141 -0.7516  0.6139 -0.2321
11289SOL     OW37143   6.129   4.310   6.936 -0.0212 -0.2644 -0.0780
11289SOL    HW137144   6.132   4.390   6.988  1.7889  0.7610 -1.6313
11289SOL    HW237145   6.220   4.282   6.929 -0.3329 -1.0428 -1.6101
11290SOL     OW37146   7.691   5.394   8.596 -0.0388  0.3228  0.2780
11290SOL    HW137147   7.696   5.316   8.541  0.1032  0.3318  0.2766
11290SOL    HW237148   7.620   5.376   8.657  1.6571 -0.9276  1.9911
11291SOL     OW37149   0.511   0.503  10.317 -0.6968 -0.2013  0.0138
11291SOL    HW137150   0.563   0.467  10.246 -1.8355 -0.5302 -0.6721
11291SOL    HW237151   0.421   0.502  10.285 -1.3916 -1.3490  1.8468
11292SOL     OW37152  11.186   4.364   6.498  0.1554 -0.2751  0.0937
11292SOL    HW137153  11.190   4.291   6.436 -1.2890 -0.5762  0.3161
11292SOL    HW237154  11.120   4.423   6.462  0.5317  0.3929  0.4782
11293SOL     OW37155   4.036   6.800   5.826 -1.1425 -0.4740 -0.1326
11293SOL    HW137156   4.115   6.839   5.788 -0.9372 -2.3998 -1.8602
11293SOL    HW237157   4.064   6.766   5.910 -1.2383  2.5795  1.2754
11294SOL     OW37158   9.956   8.743   5.533  0.1429 -0.2985 -0.0098
11294SOL    HW137159  10.031   8.770   5.585  0.1903  0.3215 -0.3889
11294SOL    HW237160   9.994   8.709   5.452  0.0228 -0.1733 -0.1184
11295SOL     OW37161  10.698   2.277  10.650 -0.0078 -0.0437  0.3596
11295SOL    HW137162  10.699   2.271  10.554  0.2627 -0.8960  0.4124
11295SOL    HW237163  10.768   2.339  10.671 -0.6217  0.7990 -0.0323
11296SOL     OW37164   5.497   4.335   8.326  0.5220  0.3142  0.2275
11296SOL    HW137165   5.541   4.294   8.399  1.4098  2.4609  0.9790
11296SOL    HW237166   5.414   4.366   8.362  0.5104  0.4671  0.0728
11297SOL     OW37167   9.820   9.107   4.945 -0.7669 -0.3918  0.1285
11297SOL    HW137168   9.894   9.063   4.904 -0.5000 -1.2149  1.4498
11297SOL    HW237169   9.779   9.040   4.999 -1.9651  0.2838  0.0986
11298SOL     OW37170  10.842   7.718   2.205  0.0209  0.0110  0.1238
11298SOL    HW137171  10.899   7.792   2.226  0.3292 -0.0797 -0.3712
11298SOL    HW237172  10.817   7.683   2.290  0.4858  0.2209  0.3550
11299SOL     OW37173   3.025   8.536   2.142 -0.0230  0.5651  0.1491
11299SOL    HW137174   3.105   8.485   2.132 -0.4126 -0.3090  1.2476
11299SOL    HW237175   3.049   8.606   2.204 -0.6848 -1.1623  2.4983
11300SOL     OW37176   8.401   7.664   1.283  0.0695  0.4345  0.1958
11300SOL    HW137177   8.379   7.584   1.331  0.0056  1.3283  1.6906
11300SOL    HW237178   8.354   7.655   1.200  0.9195 -1.5615 -0.1319
11301SOL     OW37179   3.071   4.515   3.820  0.4618 -0.0734 -0.1390
11301SOL    HW137180   3.151   4.567   3.822 -0.1413  0.8973 -0.2778
11301SOL    HW237181   3.031   4.530   3.906  0.1401 -0.0632 -0.2890
11302SOL     OW37182   5.097   2.117   8.031 -0.0194  0.1088  0.0920
11302SOL    HW137183   5.086   2.157   8.117 -0.6562  1.8758 -0.7598
11302SOL    HW237184   5.191   2.097   8.026  0.5438  2.4207  0.2380
11303SOL     OW37185   6.525   9.603   5.674 -0.4528  0.4865  1.0592
11303SOL    HW137186   6.587   9.605   5.746 -0.8866  0.7529  1.4374
11303SOL    HW237187   6.540   9.519   5.631  0.6377  0.8450  0.7161
11304SOL     OW37188  10.515   9.068   8.801  0.0970  0.4832  0.1098
11304SOL    HW137189  10.520   8.973   8.797  0.6926  0.5255 -0.2958
11304SOL    HW237190  10.579   9.098   8.736  0.3422  1.1606  0.6534
11305SOL     OW37191   6.503   5.342   6.415 -0.0349  0.3698 -0.1553
11305SOL    HW137192   6.526   5.271   6.355  0.5081  0.1771  0.2734
11305SOL    HW237193   6.413   5.321   6.442 -0.3477  0.5482 -1.0110
11306SOL     OW37194   0.636   3.073   8.419 -0.3617  0.1008 -0.2282
11306SOL    HW137195   0.723   3.084   8.381 -0.5321 -0.6219 -0.8576
11306SOL    HW237196   0.650   3.083   8.514 -0.0660  2.7521 -0.4731
11307SOL     OW37197   4.439   4.123   5.106 -0.1571 -0.0238 -0.3964
11307SOL    HW137198   4.531   4.118   5.131 -0.3271 -0.4127  0.1451
11307SOL    HW237199   4.437   4.094   5.014  0.2820  0.1641 -0.4649
11308SOL     OW37200   1.817   4.069   5.741 -0.3784  0.2804 -0.1337
11308SOL    HW137201   1.822   4.065   5.837 -2.0255 -0.7455 -0.0486
11308SOL    HW237202   1.796   3.980   5.714 -1.8556  0.9234 -1.2739
11309SOL     OW37203   5.189   5.015   1.551  0.9031 -0.2725 -0.3738
11309SOL    HW137204   5.104   5.008   1.507  1.0101  0.0787 -0.6411
11309SOL    HW237205   5.251   5.034   1.480  1.1335 -0.0647 -0.1157
11310SOL     OW37206  10.232   7.542   3.549  0.3428  0.2836  0.1956
11310SOL    HW137207  10.261   7.469   3.603 -2.9647 -3.8528 -2.9807
11310SOL    HW237208  10.143   7.562   3.580  0.2873  1.3311 -0.5640
11311SOL     OW37209   6.654   5.220   0.920 -0.2962 -0.0175  0.2891
11311SOL    HW137210   6.657   5.306   0.878  0.9100 -0.8217 -1.4117
11311SOL    HW237211   6.585   5.173   0.873 -0.7380 -0.0823  0.9987
11312SOL     OW37212   7.385   3.308   0.683  0.1247 -0.3325 -0.1100
11312SOL    HW137213   7.289   3.313   0.687  0.1764  0.9344  0.0929
11312SOL    HW237214   7.409   3.359   0.605  0.7473  2.1558  1.5678
11313SOL     OW37215   3.980   5.004   6.180  0.1712  0.2610 -0.1446
11313SOL    HW137216   3.949   5.048   6.101  0.8998 -0.8688 -1.0914
11313SOL    HW237217   3.970   5.069   6.250 -0.7359  1.1838 -1.1098
11314SOL     OW37218   0.045   6.279   4.151 -0.4052  0.3021  0.6993
11314SOL    HW137219   0.080   6.211   4.208  1.0353 -0.1200 -0.6434
11314SOL    HW237220   0.035   6.356   4.208  0.4302 -0.2754  1.6396
11315SOL     OW37221   1.801   4.182   2.339  0.2477 -0.1847  0.0882
11315SOL    HW137222   1.821   4.103   2.289  1.5031 -0.7666  1.4536
11315SOL    HW237223   1.817   4.158   2.430 -1.6875  0.9435  0.7701
11316SOL     OW37224   5.192   8.683   7.433  0.2750  0.1392 -0.4006
11316SOL    HW137225   5.106   8.724   7.427  0.5302  0.4949 -2.0684
11316SOL    HW237226   5.253   8.754   7.416  0.9744  0.0670  1.5569
11317SOL     OW37227   7.093   3.241   6.039 -0.1315  0.0211 -0.4515
11317SOL    HW137228   7.084   3.299   5.964  1.0488  1.6101  0.5668
11317SOL    HW237229   7.177   3.264   6.078 -1.8085  1.2286  2.8840
11318SOL     OW37230   5.191   3.862   9.362  0.2296  0.2544  0.4108
11318SOL    HW137231   5.161   3.939   9.314 -0.3779  0.3607  0.9551
11318SOL    HW237232   5.112   3.822   9.397  0.4375 -1.1057 -0.5653
11319SOL     OW37233   7.359   1.245   5.063  0.0534  0.1890 -0.4825
11319SOL    HW137234   7.268   1.218   5.079 -0.0632  0.3640 -0.8497
11319SOL    HW237235   7.359   1.276   4.973  0.4394  0.3650 -0.4207
11320SOL     OW37236   9.424   4.500   9.780  0.1458 -0.4098 -0.5633
11320SOL    HW137237   9.505   4.551   9.779  1.0610 -1.7862  0.6096
11320SOL    HW237238   9.388   4.513   9.868  0.5897 -2.0566 -0.1169
11321SOL     OW37239   9.416   2.215   3.599  0.5713 -0.6106  0.3964
11321SOL    HW137240   9.395   2.308   3.588 -2.5023 -0.8934  2.6568
11321SOL    HW237241   9.512   2.214   3.606  0.9346  2.0202 -2.0470
11322SOL     OW37242   3.521   8.253   4.020  0.4467 -0.5488 -0.5703
11322SOL    HW137243   3.536   8.205   4.101 -1.5051  0.8788  0.7339
11322SOL    HW237244   3.565   8.337   4.034  0.7648 -0.5845 -1.3307
11323SOL     OW37245   5.885  10.693   2.932 -0.3393 -0.6033 -0.1725
11323SOL    HW137246   5.953  10.707   2.867  1.1028  0.6934  1.5237
11323SOL    HW237247   5.805  10.724   2.890  0.4198 -0.4129 -1.5345
11324SOL     OW37248  10.388   8.758   8.696  0.5780 -0.5926 -0.1272
11324SOL    HW137249  10.385   8.759   8.600 -0.2768  3.2789 -0.2354
11324SOL    HW237250  10.306   8.714   8.722  0.2484 -0.6383 -1.1988
11325SOL     OW37251  10.602   1.911   5.194 -0.3928 -0.3875  0.4078
11325SOL    HW137252  10.567   1.859   5.123 -0.5137 -0.2485  0.3646
11325SOL    HW237253  10.685   1.944   5.161 -0.6699  0.0687  0.1478
11326SOL     OW37254   2.232   9.751   1.398  0.3076 -0.3314  0.3137
11326SOL    HW137255   2.250   9.680   1.337  1.3029 -1.1745  1.5428
11326SOL    HW237256   2.157   9.721   1.448  0.0154 -0.0061  0.0743
11327SOL     OW37257   5.710   9.350   9.520  0.2429  0.4247 -0.3250
11327SOL    HW137258   5.703   9.331   9.614  2.3063 -0.9013 -0.3770
11327SOL    HW237259   5.794   9.313   9.494  0.1124  1.5186 -2.5465
11328SOL     OW37260   3.739  10.758   3.932 -0.0503  0.4486 -0.5211
11328SOL    HW137261   3.761  10.668   3.956 -0.0764  0.6093  0.1270
11328SOL    HW237262   3.670  10.749   3.867 -0.5889  0.0080  0.0898
11329SOL     OW37263   2.179   6.695   7.217 -0.0649 -0.1857  0.5148
11329SOL    HW137264   2.178   6.619   7.160 -1.4934 -0.0765  0.3671
11329SOL    HW237265   2.259   6.684   7.270  1.3462 -0.2265 -1.5219
11330SOL     OW37266   0.103   5.617   9.415  0.1872 -0.4751 -0.2947
11330SOL    HW137267   0.081   5.669   9.338 -0.1547 -0.8570 -0.4613
11330SOL    HW237268   0.085   5.527   9.388 -1.3005 -0.5004  0.6936
11331SOL     OW37269   3.357   9.051   9.110 -0.3788 -0.2932  0.3324
11331SOL    HW137270   3.406   9.045   9.028 -0.9130 -1.1865  0.0708
11331SOL    HW237271   3.325   9.141   9.111 -1.7455 -0.7144 -1.2643
11332SOL     OW37272   8.728   3.553   2.597 -1.0739 -0.2668  0.4295
11332SOL    HW137273   8.742   3.461   2.620 -0.1678 -0.2031  0.1399
11332SOL    HW237274   8.645   3.552   2.549 -0.6307 -1.0714 -0.3538
11333SOL     OW37275   5.256   2.715   4.026 -0.3019  0.3003  0.2175
11333SOL    HW137276   5.259   2.646   3.959  1.0531  1.5149 -1.0520
11333SOL    HW237277   5.266   2.668   4.109  1.4591 -0.9967 -0.6565
11334SOL     OW37278   4.743   8.518   0.761 -0.1738 -0.0052 -0.0512
11334SOL    HW137279   4.652   8.542   0.775 -0.0718  1.2418 -1.2945
11334SOL    HW237280   4.740   8.451   0.693 -0.1933 -0.4665  0.3982
11335SOL     OW37281   7.841   3.443   7.221 -0.3732 -0.3167  0.0780
11335SOL    HW137282   7.827   3.439   7.126 -0.2653 -1.4952  0.0958
11335SOL    HW237283   7.790   3.370   7.255  0.3661 -0.4918  0.8375
11336SOL     OW37284   7.608   5.010  11.363 -0.6751  0.3141 -0.0716
11336SOL    HW137285   7.616   4.916  11.377 -0.8505  0.3211  0.0830
11336SOL    HW237286   7.599   5.046  11.451 -1.1839  0.4176 -0.1588
11337SOL     OW37287   7.788   6.098   6.881 -0.3278 -0.0321  0.5305
11337SOL    HW137288   7.798   6.185   6.842 -2.1486  0.0401  0.1123
11337SOL    HW237289   7.805   6.112   6.974 -1.7946  1.0815  0.6738
11338SOL     OW37290   0.283   0.076  10.898  0.2069 -0.0042  0.4910
11338SOL    HW137291   0.330   0.154  10.868 -0.0813  0.9815  2.4468
11338SOL    HW237292   0.343   0.035  10.961 -0.1678 -0.6849  0.4176
11339SOL     OW37293   4.788   0.058  10.940 -0.2202  0.2242 -0.1939
11339SOL    HW137294   4.881   0.069  10.961  0.3121 -2.0506 -1.0740
11339SOL    HW237295   4.762  -0.021  10.988 -1.6830  0.7275 -0.1023
11340SOL     OW37296   2.383   0.091  11.128  0.1130 -0.1640  0.3014
11340SOL    HW137297   2.454   0.143  11.090  2.6904 -2.1783  1.9738
11340SOL    HW237298   2.353   0.142  11.204  1.2998 -0.2178  0.8293
11341SOL     OW37299   4.384   4.536   6.110  0.6130 -0.3392  0.4801
11341SOL    HW137300   4.333   4.457   6.125  0.1993 -0.1665  0.0393
11341SOL    HW237301   4.459   4.528   6.168 -0.2825 -0.2596  1.6835
11342SOL     OW37302   4.209   5.163   8.830  0.5871 -0.2699  0.3864
11342SOL    HW137303   4.278   5.159   8.764 -0.3952  1.7386 -0.8333
11342SOL    HW237304   4.218   5.250   8.869 -0.2628 -0.5867  1.3252
11343SOL     OW37305   6.972   6.830   0.803 -0.0613  0.3748 -0.8806
11343SOL    HW137306   7.026   6.751   0.796  0.0243  0.4002 -0.5340
11343SOL    HW237307   7.030   6.894   0.844  0.2936  1.0163 -2.3269
11344SOL     OW37308   1.345   8.522   7.528 -0.2259 -0.4795  0.3787
11344SOL    HW137309   1.350   8.477   7.444  2.1807 -1.3168  0.9023
11344SOL    HW237310   1.385   8.608   7.512 -4.0892  1.3831 -0.4189
11345SOL     OW37311   9.167   4.765  10.006  0.0206 -0.0446 -0.1795
11345SOL    HW137312   9.131   4.783  10.093  0.5283 -0.5461  0.1447
11345SOL    HW237313   9.243   4.822   9.999  0.2927 -0.3899 -0.0739
11346SOL     OW37314  10.069   9.690   3.448  1.5756 -0.3636 -0.1007
11346SOL    HW137315   9.988   9.681   3.397  0.1547  0.2941  1.9270
11346SOL    HW237316  10.098   9.780   3.431  1.2768 -0.2436  0.0219
11347SOL     OW37317  10.302  10.839   4.737  0.1187  0.2573 -0.1277
11347SOL    HW137318  10.378  10.889   4.707  0.6053 -0.7502 -0.6282
11347SOL    HW237319  10.231  10.903   4.743  0.8138  1.0611 -0.4034
11348SOL     OW37320   8.500   5.324  10.916 -0.4719  0.6271  0.2816
11348SOL    HW137321   8.472   5.322  11.008  2.3066 -0.4330  1.1998
11348SOL    HW237322   8.578   5.269  10.914 -0.5964  0.4189 -2.8048
11349SOL     OW37323  10.451   3.555   5.841  0.3479  0.0541 -0.6078
11349SOL    HW137324  10.429   3.625   5.779 -0.9716 -1.1800 -1.6065
11349SOL    HW237325  10.386   3.562   5.911  0.3189 -0.0559 -0.6227
11350SOL     OW37326  10.898   3.019   2.044 -0.3624 -0.0583  0.0377
11350SOL    HW137327  10.917   2.926   2.048  0.4910  0.1487  1.2957
11350SOL    HW237328  10.907   3.041   1.951  0.3527 -1.0414 -0.1409
11351SOL     OW37329   6.863   1.114   6.399 -0.2031 -0.7724 -0.2300
11351SOL    HW137330   6.791   1.109   6.462 -0.6818  0.3322 -0.6741
11351SOL    HW237331   6.888   1.023   6.384 -0.7396 -1.1041  0.7997
11352SOL     OW37332   6.994  11.014  10.349 -0.3141 -0.5446 -0.0890
11352SOL    HW137333   7.031  10.986  10.432 -1.0209  1.3075  0.9290
11352SOL    HW237334   7.011  10.942  10.288  4.0481 -0.2425  0.4875
11353SOL     OW37335   0.682   0.980   2.772  0.1361  0.4789 -0.0088
11353SOL    HW137336   0.700   1.043   2.702  0.3562  0.4163 -0.0096
11353SOL    HW237337   0.765   0.972   2.820  0.1125  0.1859 -0.0129
11354SOL     OW37338   8.017   9.610   4.391  0.4083  0.1924  0.4146
11354SOL    HW137339   7.932   9.639   4.423  0.3326 -1.3876  1.7680
11354SOL    HW237340   7.996   9.548   4.321  0.4246 -0.2713  0.8137
11355SOL     OW37341   0.182   7.041   5.739  0.4531  0.4745 -0.2153
11355SOL    HW137342   0.218   7.105   5.677  0.4888 -0.0888 -0.7836
11355SOL    HW237343   0.232   6.961   5.723 -0.0936  0.0898 -0.0335
11356SOL     OW37344   7.231   8.336   9.822 -0.4338 -0.0617  0.1575
11356SOL    HW137345   7.138   8.351   9.837 -0.2578  0.5750  0.6483
11356SOL    HW237346   7.242   8.242   9.834 -1.0997 -0.2255 -0.4279
11357SOL     OW37347   2.344  10.423   7.803  0.1163  0.0601  0.2083
11357SOL    HW137348   2.255  10.415   7.836 -0.3686 -0.6727 -1.1636
11357SOL    HW237349   2.374  10.509   7.833 -1.5374  0.8891 -0.3911
11358SOL     OW37350   3.371   7.958   6.440 -0.2544  0.0040  0.2466
11358SOL    HW137351   3.335   7.892   6.381 -1.7395  0.8781  0.1346
11358SOL    HW237352   3.466   7.946   6.435 -0.3520 -0.0889 -2.1606
11359SOL     OW37353   9.138   9.189   9.503  0.5745 -0.1172  0.0375
11359SOL    HW137354   9.074   9.243   9.457 -0.2237  0.6821  2.0257
11359SOL    HW237355   9.090   9.147   9.573  1.8986 -0.8167  0.5746
11360SOL     OW37356   1.797   2.056   7.395  0.6529  0.8364 -0.2240
11360SOL    HW137357   1.864   1.998   7.358 -1.0305  0.0904 -2.3277
11360SOL    HW237358   1.741   1.998   7.446 -0.2301  0.8317 -1.1756
11361SOL     OW37359   2.743   3.494   1.475  0.0249 -0.2382 -0.1768
11361SOL    HW137360   2.755   3.419   1.417 -1.0995 -0.1518 -0.5509
11361SOL    HW237361   2.831   3.515   1.506  0.1501 -3.0891  1.7301
11362SOL     OW37362   4.623   0.658  10.262 -0.1724 -0.3922  0.1488
11362SOL    HW137363   4.674   0.670  10.342 -0.5446  1.3116  0.1683
11362SOL    HW237364   4.563   0.587  10.282 -0.0299 -0.2132  1.2622
11363SOL     OW37365   2.027  10.355   7.689 -0.4000 -0.3118 -0.0054
11363SOL    HW137366   2.000  10.383   7.601  1.4121  2.7517  0.2881
11363SOL    HW237367   2.065  10.268   7.675  0.0032  0.1555 -2.3212
11364SOL     OW37368   5.720   1.085   7.354 -0.6399 -0.0400  0.2156
11364SOL    HW137369   5.705   1.166   7.403  3.1636  0.8904  0.1920
11364SOL    HW237370   5.770   1.113   7.277  1.4289 -2.4140  0.5635
11365SOL     OW37371   5.367   6.982   8.222  0.4559  0.0543  0.2533
11365SOL    HW137372   5.334   7.024   8.143 -1.1098 -1.8174 -0.1575
11365SOL    HW237373   5.398   6.896   8.193  0.8966 -0.2293  1.4859
11366SOL     OW37374   3.758   8.496   4.563 -0.3550  0.1458 -0.3631
11366SOL    HW137375   3.783   8.588   4.554  1.5947 -0.4567 -1.9170
11366SOL    HW237376   3.702   8.493   4.640  0.1190  2.5278  0.1306
11367SOL     OW37377   6.950   0.862   6.712  0.3055  0.1839  0.6673
11367SOL    HW137378   6.925   0.782   6.666  2.5302  1.5504 -3.3254
11367SOL    HW237379   6.868   0.910   6.723 -0.7484 -1.6444  1.2368
11368SOL     OW37380  10.324   2.418   6.786  0.3251  0.6892  0.1364
11368SOL    HW137381  10.353   2.330   6.809 -3.5828 -0.6007  0.8266
11368SOL    HW237382  10.393   2.451   6.728  0.8191 -3.7994 -2.3138
11369SOL     OW37383   0.628   9.302  10.822 -0.0775 -0.0732 -0.3184
11369SOL    HW137384   0.692   9.343  10.763  1.5127 -0.6841  0.9098
11369SOL    HW237385   0.673   9.297  10.906 -1.4102 -1.4093  0.3533
11370SOL     OW37386   2.626   8.539   5.334  0.0448  0.6531  0.4334
11370SOL    HW137387   2.556   8.605   5.337 -0.7816 -0.2075  1.1699
11370SOL    HW237388   2.684   8.568   5.264 -1.4186  1.0400 -0.6636
11371SOL     OW37389   4.358   9.603   4.896  0.2267  0.6317  1.1994
11371SOL    HW137390   4.431   9.594   4.834  0.3724  3.1625  0.9015
11371SOL    HW237391   4.384   9.674   4.955 -0.3722 -1.0116  3.5755
11372SOL     OW37392   8.524   9.190   7.924 -0.5256 -0.5678 -0.4151
11372SOL    HW137393   8.458   9.259   7.917 -0.8992 -0.8565  0.1367
11372SOL    HW237394   8.556   9.196   8.014  0.8245  0.1110 -0.9136
11373SOL     OW37395   6.095   6.497   2.144 -0.2537  0.1911  0.2140
11373SOL    HW137396   6.053   6.583   2.145  1.4898  1.0997  0.1588
11373SOL    HW237397   6.097   6.471   2.052 -1.6042 -0.3667  0.3207
11374SOL     OW37398   7.921   6.240   7.429  0.0531 -0.6458 -0.0112
11374SOL    HW137399   7.879   6.190   7.499 -0.8789  1.3582  0.9240
11374SOL    HW237400   7.917   6.331   7.458 -0.3171  0.2596 -2.6174
11375SOL     OW37401   4.969  10.750  10.376  0.0716  0.0623  0.2841
11375SOL    HW137402   4.950  10.734  10.468  0.3270 -1.2272  0.1316
11375SOL    HW237403   4.904  10.697  10.329  2.6515 -2.8877 -0.2505
11376SOL     OW37404   2.677   4.980   7.693  0.3812 -0.3664  0.0771
11376SOL    HW137405   2.598   5.032   7.707  0.7604 -0.0618  1.1977
11376SOL    HW237406   2.650   4.890   7.713 -1.0811 -1.2787 -4.6462
11377SOL     OW37407  10.675   2.630   7.586  0.1424 -0.2900 -0.6861
11377SOL    HW137408  10.682   2.539   7.616  0.4890 -0.1925 -0.4698
11377SOL    HW237409  10.675   2.624   7.490 -0.8489 -0.5923 -0.6821
11378SOL     OW37410   1.447   6.538   1.742  0.3749 -0.3489  0.4874
11378SOL    HW137411   1.507   6.465   1.758  0.7083  0.0062  0.9005
11378SOL    HW237412   1.365   6.496   1.716  0.8163 -0.8435 -0.1785
11379SOL     OW37413   1.726   2.224   2.171 -0.0138  0.5864  0.1220
11379SOL    HW137414   1.653   2.261   2.220 -0.0383 -2.8025  3.0171
11379SOL    HW237415   1.804   2.260   2.214 -0.0002  0.6709  0.0277
11380SOL     OW37416   4.976   2.091   2.147  0.0441 -0.2728  0.0709
11380SOL    HW137417   4.938   2.028   2.207  1.0966 -1.9914 -0.9933
11380SOL    HW237418   5.064   2.059   2.130 -0.1120  0.2657 -2.1790
11381SOL     OW37419   1.146  11.110   4.913 -0.6133 -0.6079  0.4342
11381SOL    HW137420   1.097  11.057   4.976 -1.5105  0.9970  1.1351
11381SOL    HW237421   1.084  11.178   4.886  0.7349  0.5374  0.1323
11382SOL     OW37422   8.632  10.150   0.221 -0.1152  0.4963  0.4182
11382SOL    HW137423   8.557  10.166   0.164  1.1923 -0.6002 -1.7248
11382SOL    HW237424   8.593  10.119   0.303 -2.0151 -0.7104 -0.8537
11383SOL     OW37425   3.808   5.138   5.335 -0.0742 -0.3623 -0.1778
11383SOL    HW137426   3.819   5.121   5.429 -1.6375 -1.5558 -0.1792
11383SOL    HW237427   3.748   5.212   5.331  0.6202  0.2071 -0.2478
11384SOL     OW37428   6.386   8.198   5.053  0.0379 -0.1311  0.2379
11384SOL    HW137429   6.325   8.174   4.984 -0.3956  0.3387  0.4487
11384SOL    HW237430   6.471   8.205   5.010 -0.0180 -0.9646 -0.0259
11385SOL     OW37431   4.563  11.188   2.606  0.1904  0.3577  0.3019
11385SOL    HW137432   4.561  11.220   2.516 -0.3308 -0.2040  0.1093
11385SOL    HW237433   4.653  11.162   2.620  0.0305 -0.6529 -0.4542
11386SOL     OW37434   0.976   5.830   6.770 -0.0396  0.2449 -0.4364
11386SOL    HW137435   0.914   5.773   6.724 -0.4802  0.4370 -0.0921
11386SOL    HW237436   0.965   5.807   6.863  0.4625  0.2264 -0.3827
11387SOL     OW37437   7.091   6.643   4.919  0.3988 -0.0440 -0.0897
11387SOL    HW137438   7.136   6.625   5.002 -0.6912 -0.8051  0.3670
11387SOL    HW237439   7.053   6.559   4.894 -2.5285  0.9509  0.6510
11388SOL     OW37440   1.775  11.353   3.498  1.1698  0.2257 -0.1269
11388SOL    HW137441   1.774  11.431   3.443  2.4339 -0.9345 -1.8926
11388SOL    HW237442   1.768  11.280   3.437  0.7526 -1.0830  1.4156
11389SOL     OW37443   3.679   8.766   8.743 -0.7929 -0.4363  0.1682
11389SOL    HW137444   3.734   8.714   8.683 -0.2296 -1.9159  1.8577
11389SOL    HW237445   3.741   8.801   8.807 -1.6015 -0.6899  1.1133
11390SOL     OW37446   9.060   5.906   0.699  0.2705 -0.4485  0.2952
11390SOL    HW137447   8.980   5.853   0.698  0.0780 -0.2057  1.3792
11390SOL    HW237448   9.088   5.908   0.608  0.6278 -2.9269  0.2851
11391SOL     OW37449   7.015   6.491   1.209 -0.3240 -0.1409 -0.0324
11391SOL    HW137450   7.030   6.563   1.149 -2.6655  1.1109  0.7647
11391SOL    HW237451   7.024   6.412   1.155  1.5156  0.7366 -1.0898
11392SOL     OW37452   0.711   7.119   9.261  0.0130 -0.3194  0.7842
11392SOL    HW137453   0.666   7.035   9.265  1.1938 -1.0519 -0.4924
11392SOL    HW237454   0.801   7.097   9.236  0.2757  1.3521  0.1302
11393SOL     OW37455   5.697  10.431   7.831  0.2406 -0.4016  0.2581
11393SOL    HW137456   5.657  10.361   7.882  0.6887 -0.8556  0.0002
11393SOL    HW237457   5.645  10.435   7.751  0.0589 -0.2703  0.3841
11394SOL     OW37458  10.624   2.044   2.978 -0.3230 -0.0859 -0.3095
11394SOL    HW137459  10.696   2.083   3.028 -0.3428 -0.5323  0.0758
11394SOL    HW237460  10.647   2.060   2.887 -0.2828  0.7337 -0.1608
11395SOL     OW37461   0.206   6.479   0.116 -0.2986  0.5523  0.5938
11395SOL    HW137462   0.282   6.441   0.072  0.9645  1.7654  1.6387
11395SOL    HW237463   0.145   6.501   0.046  0.4307 -0.1848 -0.2837
11396SOL     OW37464  11.188   0.543   3.349  0.0372 -0.1374 -0.2479
11396SOL    HW137465  11.242   0.539   3.270 -0.7991  1.2213 -0.9222
11396SOL    HW237466  11.100   0.522   3.319 -0.0027 -1.3694  0.6667
11397SOL     OW37467   2.866   0.547   0.345  0.3299  0.1865  0.0946
11397SOL    HW137468   2.930   0.477   0.333  1.2284  1.0234 -0.0803
11397SOL    HW237469   2.870   0.568   0.438 -1.0549 -1.0133  0.4686
11398SOL     OW37470   5.464   6.072   3.270 -0.0591 -0.2482  0.0659
11398SOL    HW137471   5.401   6.110   3.209  1.3858  2.5801  0.1523
11398SOL    HW237472   5.527   6.027   3.214  0.7445  1.5293 -0.5280
11399SOL     OW37473   2.992   3.144   5.545  0.1075 -0.3842  0.2634
11399SOL    HW137474   3.074   3.142   5.595  0.2331  2.0564  0.2509
11399SOL    HW237475   3.016   3.111   5.459  0.9362 -0.3506  0.4680
11400SOL     OW37476   3.925   4.662   0.707  0.0358 -0.4850 -0.4231
11400SOL    HW137477   4.013   4.645   0.741  0.4112 -0.5437 -1.3864
11400SOL    HW237478   3.875   4.689   0.783  0.9263 -0.3236  0.1237
11401SOL     OW37479  10.126   7.066   6.370 -0.0680  0.1204 -0.1161
11401SOL    HW137480  10.118   7.150   6.325 -1.5167 -0.1587 -0.4412
11401SOL    HW237481  10.216   7.064   6.401 -0.1514  2.0755  0.4370
11402SOL     OW37482   8.270   1.449   4.661  0.0788 -0.1812  0.7206
11402SOL    HW137483   8.363   1.432   4.675  0.3974  1.3450  0.6637
11402SOL    HW237484   8.225   1.394   4.725  0.9708 -1.4674  0.2747
11403SOL     OW37485   1.936   1.473  11.280  0.5252 -0.4944  0.1028
11403SOL    HW137486   1.882   1.552  11.283 -0.9662 -1.5286  2.0098
11403SOL    HW237487   1.953   1.460  11.186 -1.9605  0.2656 -0.5282
11404SOL     OW37488   7.084   6.300   1.042  0.4866 -0.0089  0.2327
11404SOL    HW137489   7.176   6.324   1.039  1.0392 -2.0380 -0.4542
11404SOL    HW237490   7.070   6.245   0.964 -0.9163 -0.9300  1.0751
11405SOL     OW37491   4.184   2.970   4.599 -0.2058 -0.0001  0.3140
11405SOL    HW137492   4.103   2.930   4.630 -0.4844  0.2898 -0.0272
11405SOL    HW237493   4.162   3.063   4.586  0.1562  0.0648  0.1433
11406SOL     OW37494   0.608   7.876   7.321 -0.1803  0.0673  0.8254
11406SOL    HW137495   0.517   7.893   7.296  0.1174  0.6421  0.0538
11406SOL    HW237496   0.642   7.821   7.250  0.6196  1.5226  0.0189
11407SOL     OW37497   5.580   3.594   8.153  0.0933 -0.1526 -0.3208
11407SOL    HW137498   5.670   3.604   8.184 -0.0755 -0.0222  0.1233
11407SOL    HW237499   5.538   3.538   8.218 -0.0722 -0.4442 -0.6738
11408SOL     OW37500   6.557   4.043   2.052 -0.0438 -0.4385 -0.2182
11408SOL    HW137501   6.554   3.999   2.137  1.2711  0.4861  0.3405
11408SOL    HW237502   6.649   4.065   2.040  0.1502 -2.2881 -2.8348
11409SOL     OW37503   4.433   6.510   2.985 -0.8502  0.1795  0.0627
11409SOL    HW137504   4.432   6.603   3.010 -1.9845  0.5905 -1.4053
11409SOL    HW237505   4.519   6.498   2.945 -1.1683  0.9540 -0.9071
11410SOL     OW37506   3.416   6.694   8.313 -0.2389 -0.4029  0.2702
11410SOL    HW137507   3.493   6.750   8.325 -0.2044 -0.2071 -0.7227
11410SOL    HW237508   3.437   6.613   8.359  0.6427 -0.4176 -0.1431
11411SOL     OW37509   8.579   0.082   6.390  0.1165 -0.5914  0.7576
11411SOL    HW137510   8.652   0.044   6.440  1.5323  1.1433  0.1115
11411SOL    HW237511   8.566   0.022   6.317  3.2535  0.7335 -1.0417
11412SOL     OW37512   3.898   9.010   2.786 -0.2093 -0.2669  0.8284
11412SOL    HW137513   3.984   8.999   2.746 -0.9035  1.4933 -1.2948
11412SOL    HW237514   3.884   8.928   2.834  0.9027 -2.3702 -2.1422
11413SOL     OW37515   9.508   0.802   6.782  0.5156 -0.1660  0.3072
11413SOL    HW137516   9.575   0.736   6.763  1.1848  0.1943  1.3168
11413SOL    HW237517   9.554   0.868   6.833 -0.4398  0.4702  0.3630
11414SOL     OW37518   9.421   0.645   8.864  0.0592 -0.2244  0.0670
11414SOL    HW137519   9.420   0.594   8.783 -0.3276 -1.2382  0.6941
11414SOL    HW237520   9.514   0.661   8.882  0.2913 -2.0483  0.6618
11415SOL     OW37521   4.524   4.565   1.155 -0.6141  0.2787  0.1485
11415SOL    HW137522   4.507   4.591   1.064 -1.0929  0.0762  0.1779
11415SOL    HW237523   4.617   4.585   1.169 -0.4702  0.0641 -0.4689
11416SOL     OW37524   2.737   8.175   7.989  0.2970 -0.2833 -0.1780
11416SOL    HW137525   2.747   8.097   7.935  0.2484 -0.8783  0.6563
11416SOL    HW237526   2.819   8.181   8.038  0.5703  0.5748 -0.7163
11417SOL     OW37527   0.022   2.425  11.259 -0.6092 -0.3450  0.5191
11417SOL    HW137528  -0.044   2.361  11.285 -0.7068 -1.3141 -1.8880
11417SOL    HW237529  -0.015   2.469  11.183  0.6813  0.5371  0.3621
11418SOL     OW37530   6.110   2.888   0.723  0.5630 -0.3846 -0.1278
11418SOL    HW137531   6.038   2.835   0.756 -0.3376 -0.0070 -1.4096
11418SOL    HW237532   6.167   2.826   0.678  1.2349 -0.7336  1.1585
11419SOL     OW37533   9.652   2.375   2.254 -0.8169  0.4111  0.8709
11419SOL    HW137534   9.740   2.344   2.274 -0.3004 -0.8481 -2.7771
11419SOL    HW237535   9.662   2.470   2.245  0.0215  0.3514  1.0847
11420SOL     OW37536  11.151  10.339  10.110  0.4643 -0.1752 -0.1666
11420SOL    HW137537  11.155  10.430  10.083  2.1851  0.9363  3.2228
11420SOL    HW237538  11.079  10.335  10.173  1.1009 -0.8658  0.5397
11421SOL     OW37539   3.335  10.541   3.550  0.0179 -0.2462 -0.1383
11421SOL    HW137540   3.342  10.534   3.455  0.5337 -2.5069  0.0151
11421SOL    HW237541   3.241  10.542   3.567 -0.1022  1.4919 -0.6977
11422SOL     OW37542   3.526   5.734   2.640  0.1046  0.2338 -0.2783
11422SOL    HW137543   3.610   5.774   2.618  0.2638  0.0832  0.0481
11422SOL    HW237544   3.465   5.808   2.648 -0.1651  0.2367 -2.0847
11423SOL     OW37545   0.379   7.893   9.341  0.1456 -0.5906 -0.0901
11423SOL    HW137546   0.360   7.886   9.434  1.7123 -0.4796  0.2619
11423SOL    HW237547   0.293   7.889   9.299 -0.5551 -1.0755  1.3185
11424SOL     OW37548   4.992   1.658   4.149  0.0447  0.2107 -0.0337
11424SOL    HW137549   4.982   1.725   4.217  1.0725 -0.6188  0.9730
11424SOL    HW237550   4.985   1.575   4.196 -1.8042 -0.4570 -1.3422
11425SOL     OW37551   9.788   0.459   5.421 -0.5314  0.1163  0.2363
11425SOL    HW137552   9.800   0.553   5.435  2.6307  0.0977 -1.5155
11425SOL    HW237553   9.754   0.451   5.332  1.8719 -0.4048 -0.6974
11426SOL     OW37554   4.457   4.955   4.467 -0.0685  0.1283 -0.3125
11426SOL    HW137555   4.432   4.885   4.527  0.6661 -0.4985 -0.7038
11426SOL    HW237556   4.427   4.924   4.381 -2.2732  1.6032 -0.1364
11427SOL     OW37557  10.023   1.351   6.102  0.5861  0.4082 -0.3538
11427SOL    HW137558   9.936   1.380   6.077  0.4162  0.5292  0.3732
11427SOL    HW237559  10.064   1.428   6.141  0.9927  0.3284 -0.6149
11428SOL     OW37560   4.160   8.404   0.107  0.5539 -0.3151 -0.3354
11428SOL    HW137561   4.126   8.342   0.171  0.5463  0.6389  0.6053
11428SOL    HW237562   4.248   8.370   0.086  0.2809 -1.0189 -0.3642
11429SOL     OW37563   7.463   7.722   6.320  0.2854 -0.0748 -0.3278
11429SOL    HW137564   7.369   7.727   6.306  0.4490  0.4583 -1.2974
11429SOL    HW237565   7.488   7.637   6.283  0.2670  0.0085 -0.5296
11430SOL     OW37566  10.947  10.027   9.976  0.3990  0.0748 -0.1662
11430SOL    HW137567  10.959   9.993   9.887  0.2859 -1.7043  0.4626
11430SOL    HW237568  10.853  10.039   9.985  0.2652 -1.1081  0.1647
11431SOL     OW37569   2.028   7.914   5.133  0.2791  0.7097 -0.0682
11431SOL    HW137570   2.028   7.907   5.229  3.4766  0.9996  0.0710
11431SOL    HW237571   2.046   7.825   5.102 -3.0934  0.1067 -0.6238
11432SOL     OW37572   9.227   8.733   6.329  0.3105  0.3044 -0.5768
11432SOL    HW137573   9.257   8.814   6.371  0.5037  0.0496 -0.2103
11432SOL    HW237574   9.280   8.727   6.250  0.0001  0.7499 -0.8238
11433SOL     OW37575   9.966   0.195   5.970 -0.0919 -0.0327  0.1308
11433SOL    HW137576   9.919   0.274   5.942  0.9494  0.4618 -0.2676
11433SOL    HW237577   9.995   0.215   6.059 -0.4274 -0.2442  0.2892
11434SOL     OW37578   5.751   9.347   6.982 -0.1508  0.4225 -0.4949
11434SOL    HW137579   5.789   9.263   6.955 -1.1026  0.3664 -1.7811
11434SOL    HW237580   5.826   9.399   7.011  1.1266  0.6180 -3.7127
11435SOL     OW37581   8.185   2.433   5.923  0.8609 -0.3197  0.2177
11435SOL    HW137582   8.255   2.480   5.879 -0.5638 -0.1075 -1.9677
11435SOL    HW237583   8.185   2.346   5.883 -1.2717  0.2778 -1.2245
11436SOL     OW37584   7.836   1.365   5.973  0.7024  0.3107 -0.3424
11436SOL    HW137585   7.898   1.437   5.987  1.5913 -0.2151 -1.3713
11436SOL    HW237586   7.751   1.407   5.967  1.0859  1.1667  0.0889
11437SOL     OW37587   2.396   1.116   9.630  0.1126 -0.1209  0.2147
11437SOL    HW137588   2.306   1.088   9.642  0.2162 -0.0182  1.3813
11437SOL    HW237589   2.433   1.055   9.566 -0.2974 -1.2413  1.0275
11438SOL     OW37590  10.591   5.586   7.886 -0.3111 -0.3425 -0.1473
11438SOL    HW137591  10.543   5.664   7.857  0.6630  0.7752  1.0794
11438SOL    HW237592  10.595   5.596   7.981  0.4119 -1.5658 -0.0380
11439SOL     OW37593   1.610   9.168   6.368 -0.2717 -0.3330  0.0716
11439SOL    HW137594   1.545   9.235   6.351  0.6426  0.3203 -1.0367
11439SOL    HW237595   1.597   9.104   6.297 -0.4215 -0.7776  0.4908
11440SOL     OW37596   5.298   0.929  10.513 -0.7194  0.0952  0.0579
11440SOL    HW137597   5.275   0.979  10.435 -0.5759  0.2444  0.1092
11440SOL    HW237598   5.224   0.871  10.528 -2.0192  1.9822  1.3990
11441SOL     OW37599   8.105   1.247   0.639 -0.0662 -0.6160  0.5432
11441SOL    HW137600   8.102   1.337   0.669  3.0696 -0.3797  0.4520
11441SOL    HW237601   8.074   1.195   0.713 -0.9874  0.4403  0.9243
11442SOL     OW37602  10.462   4.405   7.582  0.7546 -0.0012 -0.0219
11442SOL    HW137603  10.553   4.419   7.557  0.4208  0.6221 -0.9427
11442SOL    HW237604  10.436   4.325   7.537  0.4265  0.6228 -0.9814
11443SOL     OW37605   9.215   2.945   6.273  0.0001 -0.1663 -0.2004
11443SOL    HW137606   9.149   2.926   6.205  0.5042 -0.6947 -0.5579
11443SOL    HW237607   9.247   3.032   6.252  1.4311 -0.9987 -1.7535
11444SOL     OW37608  11.166   1.106   1.121  0.1884 -0.0448  0.5571
11444SOL    HW137609  11.137   1.195   1.138  0.3019 -0.5162  3.7309
11444SOL    HW237610  11.261   1.113   1.108 -0.0519  0.4594 -1.2963
11445SOL     OW37611   4.520   9.591   2.221  0.1782 -0.2919 -0.2383
11445SOL    HW137612   4.532   9.505   2.181  0.0794  1.1342 -3.6161
11445SOL    HW237613   4.442   9.627   2.178  0.3287  1.5940  0.9481
11446SOL     OW37614   9.543   3.391   2.778  0.1303 -0.1226  0.3332
11446SOL    HW137615   9.531   3.383   2.684 -1.4438  0.3176  0.4627
11446SOL    HW237616   9.557   3.485   2.793 -1.9255  0.1768  0.7124
11447SOL     OW37617   8.450  10.321  10.021  0.0725 -0.3937 -0.0727
11447SOL    HW137618   8.428  10.228  10.011  0.7524 -0.3852 -2.3693
11447SOL    HW237619   8.541  10.327   9.992 -0.2248  1.0852 -0.8301
11448SOL     OW37620   1.959   0.229   6.429  0.4266  0.3964  0.0448
11448SOL    HW137621   1.886   0.257   6.484 -0.6085 -1.0231 -0.5136
11448SOL    HW237622   2.034   0.280   6.459 -0.2115  0.0880  2.3797
11449SOL     OW37623   3.062   2.953   6.888  0.2803  0.4012  0.1722
11449SOL    HW137624   2.980   2.922   6.849  1.1092 -0.6910 -0.7686
11449SOL    HW237625   3.038   2.980   6.976 -0.5715 -2.9941  1.1284
11450SOL     OW37626   4.240  10.171   5.600 -0.2195  0.0327  0.4004
11450SOL    HW137627   4.198  10.085   5.592 -0.1688 -0.1556  1.8507
11450SOL    HW237628   4.198  10.225   5.533  1.2057 -1.6496 -2.0097
11451SOL     OW37629   5.052   0.367  10.173  0.4270  0.3668 -0.2032
11451SOL    HW137630   5.042   0.272  10.183  0.1641  0.5031  0.9833
11451SOL    HW237631   5.146   0.379  10.160  0.7002  0.0457  1.2689
11452SOL     OW37632   9.372   3.188   0.616 -0.7065  0.1350  0.3420
11452SOL    HW137633   9.408   3.143   0.692 -1.6948 -1.3058 -0.0081
11452SOL    HW237634   9.376   3.124   0.546 -1.6235  0.7776 -0.3254
11453SOL     OW37635   5.430   4.882  10.395 -0.1089  0.0880  0.6043
11453SOL    HW137636   5.422   4.964  10.346 -0.2357 -0.2013  0.1392
11453SOL    HW237637   5.422   4.909  10.487 -1.8060  0.4131  0.4019
11454SOL     OW37638   4.949   0.450   8.513  0.2837 -0.3119 -0.0888
11454SOL    HW137639   4.899   0.371   8.491 -0.0055 -0.2072  0.1908
11454SOL    HW237640   5.018   0.454   8.447  0.6678 -1.1322  0.2534
11455SOL     OW37641   7.117   4.937   8.615  0.5865 -0.1392  0.5272
11455SOL    HW137642   7.156   5.024   8.605 -0.2650  0.0166 -3.2117
11455SOL    HW237643   7.180   4.879   8.573 -0.1115 -0.8862  0.5047
11456SOL     OW37644  10.997   7.707   7.416  0.0202 -0.3119  0.6973
11456SOL    HW137645  10.994   7.795   7.454 -2.7218 -0.4341  0.9849
11456SOL    HW237646  11.045   7.654   7.480 -0.6796  0.4269  1.8686
11457SOL     OW37647   8.383   2.345   4.038 -0.4821  0.4830 -0.1150
11457SOL    HW137648   8.298   2.318   4.004 -0.9279  0.4777  0.9686
11457SOL    HW237649   8.365   2.427   4.084  0.0226  0.2687  0.4705
11458SOL     OW37650   8.781   7.337   5.186 -0.4803 -0.3545 -0.3238
11458SOL    HW137651   8.863   7.383   5.206  0.8800 -2.6778 -0.1036
11458SOL    HW237652   8.726   7.403   5.145  1.2448  1.4839  0.1398
11459SOL     OW37653   3.938  10.281   3.376 -0.2775  0.1277  0.3074
11459SOL    HW137654   3.900  10.234   3.302 -1.9443 -0.0282  1.2186
11459SOL    HW237655   3.913  10.229   3.452  1.4330  0.2588  1.0063
11460SOL     OW37656   1.253   4.290   5.518  0.1915 -0.3279  0.0933
11460SOL    HW137657   1.244   4.375   5.474  0.9420 -0.2547  0.0694
11460SOL    HW237658   1.253   4.310   5.611 -2.6729 -0.5999  0.2221
11461SOL     OW37659   9.379   9.505   9.590 -0.0297 -0.2588 -0.7375
11461SOL    HW137660   9.341   9.487   9.676 -1.6618  0.9755 -1.1472
11461SOL    HW237661   9.397   9.419   9.553 -0.9113 -0.8398  0.1487
11462SOL     OW37662   5.352   2.569   0.254  0.1965 -0.1123 -0.7449
11462SOL    HW137663   5.335   2.650   0.206 -0.3180 -1.1392 -2.3934
11462SOL    HW237664   5.311   2.501   0.200  0.9452 -1.5132  0.3935
11463SOL     OW37665   4.280   1.232   7.442  0.5312 -0.0596  0.0091
11463SOL    HW137666   4.358   1.281   7.469  0.8773  0.1030 -1.2160
11463SOL    HW237667   4.209   1.268   7.495  0.7562  1.8551 -0.9120
11464SOL     OW37668   9.630   9.171   4.733 -0.1381  0.2568  0.8196
11464SOL    HW137669   9.557   9.224   4.764  0.6354  1.3151  0.8858
11464SOL    HW237670   9.693   9.173   4.805  0.2523 -0.0596  0.4931
11465SOL     OW37671   4.910   5.032  10.543  0.0548  0.5561  0.1224
11465SOL    HW137672   4.983   4.973  10.565  0.0006 -0.0943 -1.2714
11465SOL    HW237673   4.846   5.019  10.613  0.6269 -0.0379  0.5504
11466SOL     OW37674   6.756   6.032   5.264 -0.1617 -0.3101 -0.4127
11466SOL    HW137675   6.816   5.979   5.317 -0.6551 -0.7907 -0.3299
11466SOL    HW237676   6.700   6.076   5.329  1.4783  1.8551 -0.3701
11467SOL     OW37677   6.522   2.574   4.495 -0.0714 -0.5394 -0.3536
11467SOL    HW137678   6.448   2.631   4.514 -0.4358 -1.7628  2.3352
11467SOL    HW237679   6.577   2.579   4.573  1.2168 -1.8394 -1.1292
11468SOL     OW37680   1.587   4.656   4.842 -0.0146 -0.0192  0.1562
11468SOL    HW137681   1.546   4.741   4.859 -1.2335 -0.3859 -0.7959
11468SOL    HW237682   1.516   4.593   4.857  0.4295 -0.7388 -0.7338
11469SOL     OW37683   5.267   2.655   3.600 -0.3918  0.1221 -0.9153
11469SOL    HW137684   5.183   2.701   3.606 -0.1953  0.4036 -0.3174
11469SOL    HW237685   5.305   2.684   3.517 -0.3017  0.9838 -0.5788
11470SOL     OW37686   7.740   1.354   9.912  0.1470  0.0742  0.2038
11470SOL    HW137687   7.651   1.356   9.877  0.5498  0.8788 -0.8242
11470SOL    HW237688   7.748   1.434   9.963 -0.3143 -0.9173  1.9332
11471SOL     OW37689   5.790   8.174   8.231  0.3830  0.3136 -0.3363
11471SOL    HW137690   5.729   8.167   8.158 -0.4479  2.3452  0.1113
11471SOL    HW237691   5.735   8.185   8.308  1.2392 -1.7250  0.6700
11472SOL     OW37692   2.352   8.477   5.828 -0.0670 -1.4202  0.9430
11472SOL    HW137693   2.321   8.548   5.885 -2.4935 -0.9695 -0.7757
11472SOL    HW237694   2.289   8.406   5.842  0.5705 -2.1042  0.4176
11473SOL     OW37695   0.330   2.719   3.340 -0.1178 -0.2389  0.3846
11473SOL    HW137696   0.368   2.804   3.316 -2.7849  0.6738 -0.9165
11473SOL    HW237697   0.402   2.657   3.327  1.2328  1.4926 -0.9266
11474SOL     OW37698  10.478   5.679   0.038 -0.0819 -0.3853 -0.1360
11474SOL    HW137699  10.452   5.649  -0.049  1.7382  1.4414 -1.3903
11474SOL    HW237700  10.404   5.732   0.068 -0.3824 -0.3625 -0.9073
11475SOL     OW37701   8.611  10.542   4.689  0.2960 -0.4310 -0.6243
11475SOL    HW137702   8.671  10.568   4.758 -1.7823  2.2646  0.3680
11475SOL    HW237703   8.575  10.458   4.718  1.6086 -0.7764  0.0488
11476SOL     OW37704   5.216   9.763   9.036 -0.1976 -0.2523 -0.0428
11476SOL    HW137705   5.280   9.760   8.964 -1.3184  0.4350 -1.1045
11476SOL    HW237706   5.269   9.753   9.115  1.2449  0.3614 -0.8880
11477SOL     OW37707   0.669   4.197   1.393  0.1749  0.3186 -0.4786
11477SOL    HW137708   0.619   4.270   1.429  2.4790  1.8053 -0.0771
11477SOL    HW237709   0.608   4.123   1.394 -2.0097  2.0184 -0.1706
11478SOL     OW37710   8.327  11.211   2.139 -0.1372  0.4385  0.3374
11478SOL    HW137711   8.378  11.163   2.204 -0.5984  0.2836  0.5842
11478SOL    HW237712   8.334  11.158   2.059 -1.4411 -0.5571  0.8575
11479SOL     OW37713   8.167  10.799   2.710 -0.1334 -0.2888  0.2931
11479SOL    HW137714   8.233  10.810   2.778  0.9095 -0.1649 -0.7046
11479SOL    HW237715   8.175  10.707   2.684 -0.0320 -0.1653 -0.1319
11480SOL     OW37716   5.153   1.704   5.219  0.3192 -0.4745 -0.4038
11480SOL    HW137717   5.161   1.771   5.152  0.2331  0.2559  0.2943
11480SOL    HW237718   5.128   1.625   5.172  1.1059 -0.1856 -1.3211
11481SOL     OW37719   5.039   7.707   0.050  0.6713  0.0021  0.2506
11481SOL    HW137720   5.127   7.675   0.033  0.0005 -1.7301 -0.1977
11481SOL    HW237721   4.993   7.696  -0.034 -0.6413 -1.5865  1.1142
11482SOL     OW37722   8.259   1.694   4.552 -0.2068  0.3650  0.1299
11482SOL    HW137723   8.182   1.657   4.509  0.4199 -1.2596  0.3622
11482SOL    HW237724   8.285   1.629   4.616  0.2257  1.7555  1.4320
11483SOL     OW37725   7.683   1.762   6.932  0.5066  0.8020 -0.1797
11483SOL    HW137726   7.728   1.841   6.900 -1.6184  1.9121 -0.5900
11483SOL    HW237727   7.735   1.735   7.007  1.9312  1.9344 -0.6828
11484SOL     OW37728   2.118   6.279   3.187  0.2067 -1.2878  0.1939
11484SOL    HW137729   2.071   6.214   3.241 -0.1115 -0.1167  1.3769
11484SOL    HW237730   2.185   6.228   3.142 -1.7364 -2.9108 -1.0349
11485SOL     OW37731   8.911   3.050   3.662 -0.2778 -0.5143 -0.0993
11485SOL    HW137732   8.935   2.972   3.613  1.0934 -0.4157  0.3755
11485SOL    HW237733   8.865   3.017   3.739  2.3802 -1.0859  1.3452
11486SOL     OW37734   6.722   4.057   5.727 -0.3445  0.1775 -0.0332
11486SOL    HW137735   6.753   4.039   5.815  1.7240 -2.3885 -1.1427
11486SOL    HW237736   6.679   3.977   5.699 -0.2138  0.6093 -1.6140
11487SOL     OW37737   8.339   4.251   7.458 -0.1650 -0.1568 -0.2616
11487SOL    HW137738   8.325   4.320   7.393 -0.3493  1.0569  1.0078
11487SOL    HW237739   8.395   4.188   7.414  1.0616  1.4171 -1.0937
11488SOL     OW37740   9.429   5.350   4.610  0.1811 -0.1064  0.4425
11488SOL    HW137741   9.474   5.425   4.573  0.2950 -0.3144  0.1602
11488SOL    HW237742   9.337   5.376   4.614  0.5170  1.0470  2.7528
11489SOL     OW37743   9.064   8.054  10.905 -0.0963  0.3686  0.5676
11489SOL    HW137744   9.062   8.123  10.972  0.2827  0.7091  0.2422
11489SOL    HW237745   9.131   7.993  10.936 -1.8640 -0.9727  1.9030
11490SOL     OW37746   6.760   2.645   8.599 -0.2343  0.2210 -0.1932
11490SOL    HW137747   6.778   2.578   8.533  0.8932 -0.2332  0.5306
11490SOL    HW237748   6.826   2.713   8.583 -1.3824  1.1971 -0.9331
11491SOL     OW37749   7.106   4.006   6.884 -0.4664  0.1129  0.2311
11491SOL    HW137750   7.054   4.027   6.962 -1.0626 -1.1814  0.2010
11491SOL    HW237751   7.169   4.078   6.877 -1.1076  0.8017  1.2815
11492SOL     OW37752   4.443  10.055   9.428 -0.3755 -0.0743  0.3977
11492SOL    HW137753   4.521  10.103   9.455 -0.2985 -0.3958  0.7493
11492SOL    HW237754   4.469  10.012   9.346 -0.8547  1.5364 -0.6550
11493SOL     OW37755   3.375   8.647  10.029  0.2243 -0.0259  0.5523
11493SOL    HW137756   3.299   8.705  10.031  0.7531  0.6896  2.3082
11493SOL    HW237757   3.338   8.559  10.032 -0.5745  0.3185  1.5164
11494SOL     OW37758   3.338   2.644   6.130  0.0009  0.5922  0.1974
11494SOL    HW137759   3.326   2.723   6.183  1.4967  0.1030  1.3446
11494SOL    HW237760   3.405   2.668   6.066  1.4178 -0.0729  1.3751
11495SOL     OW37761   3.917   3.771   3.652  0.1633  0.8685  0.6914
11495SOL    HW137762   3.946   3.758   3.742  0.0045  0.9427  0.7534
11495SOL    HW237763   3.951   3.858   3.629 -1.3619  1.6724  1.3085
11496SOL     OW37764   9.556   4.323   0.412 -0.3335 -0.0584 -0.2038
11496SOL    HW137765   9.618   4.388   0.443 -0.6512 -0.1948  0.7387
11496SOL    HW237766   9.473   4.370   0.404 -0.1661  0.0839 -1.3019
11497SOL     OW37767  10.645   3.102   4.898 -0.6558  0.2509 -0.3792
11497SOL    HW137768  10.695   3.051   4.834 -1.4862 -0.3042 -0.6016
11497SOL    HW237769  10.592   3.161   4.845 -0.2232  0.8538 -0.1433
11498SOL     OW37770   0.998   7.805  10.950  0.2107 -0.0002 -0.3614
11498SOL    HW137771   0.916   7.757  10.962  1.0827 -1.5105 -0.1215
11498SOL    HW237772   1.035   7.768  10.870  2.4888 -2.2657  1.5596
11499SOL     OW37773   6.676   3.854   3.878  0.1104 -0.3195 -0.1451
11499SOL    HW137774   6.742   3.887   3.816  1.0116  0.9191  1.4272
11499SOL    HW237775   6.727   3.816   3.949 -0.9181 -2.0080 -0.2595
11500SOL     OW37776   0.773   0.953   7.917  0.6826 -0.3354 -0.3578
11500SOL    HW137777   0.796   0.876   7.865  2.8335 -0.3913  0.5568
11500SOL    HW237778   0.810   0.935   8.004 -0.4969  0.8884  0.4435
11501SOL     OW37779   3.368   9.052   6.059 -0.2564 -0.1390  0.6776
11501SOL    HW137780   3.415   8.971   6.078  2.6150  1.2261 -0.1768
11501SOL    HW237781   3.418   9.120   6.104  0.6533  1.8237 -2.9256
11502SOL     OW37782   0.791   3.915   3.511 -0.0162 -0.0523 -0.1049
11502SOL    HW137783   0.756   3.914   3.422 -1.3232  0.0402  0.3785
11502SOL    HW237784   0.799   4.008   3.532 -0.1494 -0.0693  0.0262
11503SOL     OW37785   9.060   7.998   7.441 -0.4962  0.1921  0.3574
11503SOL    HW137786   9.073   8.051   7.520 -0.6177  1.5536 -0.4891
11503SOL    HW237787   8.981   8.035   7.401 -0.0172  0.0321 -0.7748
11504SOL     OW37788   2.429   3.407  10.068 -0.0758  0.3180 -0.2883
11504SOL    HW137789   2.497   3.434  10.006  0.2399  0.4043  0.0879
11504SOL    HW237790   2.396   3.324  10.033 -0.0325  0.4624 -0.6705
11505SOL     OW37791   2.394   7.682   9.064 -0.1173 -0.0503  0.2853
11505SOL    HW137792   2.340   7.715   8.992 -0.0963 -0.9671 -0.1674
11505SOL    HW237793   2.397   7.587   9.050 -0.6405 -0.3308  1.8608
11506SOL     OW37794   5.986   4.941   1.167 -0.0323 -0.1080 -0.6242
11506SOL    HW137795   5.916   5.007   1.160  1.1564  1.3065  0.2089
11506SOL    HW237796   6.030   4.943   1.082 -0.6968 -0.6718 -0.9920
11507SOL     OW37797   3.814   6.990   9.505 -0.6145 -0.5270 -0.1790
11507SOL    HW137798   3.757   7.034   9.569  0.6079  0.0470  0.5495
11507SOL    HW237799   3.865   6.929   9.558 -0.1723 -0.6445 -0.7457
11508SOL     OW37800   4.667   2.049  11.207 -0.1753 -0.8558 -0.0901
11508SOL    HW137801   4.633   2.128  11.165 -1.7925 -1.0838  0.7287
11508SOL    HW237802   4.643   1.978  11.149 -2.1188 -1.1329  0.9618
11509SOL     OW37803   1.799   6.968   5.076  0.1247 -0.5536  0.8670
11509SOL    HW137804   1.873   6.928   5.121 -1.5706 -1.9523  2.6050
11509SOL    HW237805   1.795   6.923   4.992  1.9654  0.4576  0.1874
11510SOL     OW37806   7.776  11.075   7.294  0.0299 -0.3346 -0.1976
11510SOL    HW137807   7.800  10.993   7.252 -1.4061  0.1015 -1.9941
11510SOL    HW237808   7.711  11.114   7.235 -0.3328  1.4423  1.2918
11511SOL     OW37809   2.850   1.911   9.482 -0.1280  0.3128 -0.4870
11511SOL    HW137810   2.943   1.926   9.498 -0.4433 -0.2044  2.5110
11511SOL    HW237811   2.840   1.816   9.488 -0.5799  0.1403 -3.0232
11512SOL     OW37812   2.312   3.069   3.784  0.2030 -0.0230  0.2522
11512SOL    HW137813   2.282   2.988   3.741  0.7817 -0.4104  0.5725
11512SOL    HW237814   2.262   3.071   3.866 -0.6137  0.5162 -0.2394
11513SOL     OW37815   7.469   2.261   6.623 -1.0773  0.4044  0.5555
11513SOL    HW137816   7.414   2.189   6.593  2.4187 -2.1355 -0.4611
11513SOL    HW237817   7.463   2.327   6.554 -1.9210 -0.3299 -0.0852
11514SOL     OW37818   9.158   4.485  10.652  0.2619 -0.1016 -0.1865
11514SOL    HW137819   9.104   4.438  10.588  1.1091  0.3626 -1.2839
11514SOL    HW237820   9.117   4.572  10.658 -0.0346 -0.2658  0.1879
11515SOL     OW37821   8.019   4.082   9.946 -0.4960 -0.1453  0.1140
11515SOL    HW137822   7.990   4.108   9.858  1.2893 -1.6714 -0.9998
11515SOL    HW237823   8.056   3.994   9.934  0.6321 -0.0202  2.2180
11516SOL     OW37824   9.228   4.954   9.506  0.1072 -0.5365  0.1974
11516SOL    HW137825   9.256   5.041   9.537 -1.0758 -0.1401  0.2245
11516SOL    HW237826   9.236   4.898   9.583  0.2981 -0.3042  0.3504
11517SOL     OW37827   5.554  10.041   2.311 -0.0782 -0.0130 -0.5471
11517SOL    HW137828   5.493   9.974   2.343 -0.8694  0.0509 -1.8274
11517SOL    HW237829   5.631  10.032   2.367 -0.7416 -1.0081  0.2503
11518SOL     OW37830  11.141   8.241   5.597  0.1526 -0.3399  0.1841
11518SOL    HW137831  11.216   8.278   5.551 -1.3635  3.2437  0.2505
11518SOL    HW237832  11.145   8.277   5.685 -2.8411  2.1088 -0.5021
11519SOL     OW37833   2.817   5.512   9.972  0.2878  0.6853  0.3959
11519SOL    HW137834   2.872   5.579  10.013 -1.5167  0.8041  2.8007
11519SOL    HW237835   2.764   5.477  10.044 -0.8810 -1.3066 -1.3332
11520SOL     OW37836   7.270   8.308  11.236 -0.0569  0.0498 -0.5562
11520SOL    HW137837   7.261   8.341  11.147 -0.0530 -0.4857 -0.7627
11520SOL    HW237838   7.335   8.238  11.229  1.3926  1.2787  0.2189
11521SOL     OW37839  11.380   3.975   1.300  0.2835  0.6452  0.3097
11521SOL    HW137840  11.371   3.884   1.272 -2.5988  0.9540 -0.0079
11521SOL    HW237841  11.473   3.984   1.323  0.9067 -1.9913 -0.8717
11522SOL     OW37842   4.840   0.937   0.934 -0.7333  0.2530  0.0549
11522SOL    HW137843   4.935   0.941   0.944 -0.4996 -2.1198 -0.6712
11522SOL    HW237844   4.825   0.876   0.862 -2.8432 -0.7774  1.2507
11523SOL     OW37845   7.641   8.566   4.796 -0.3731  0.2668  0.1034
11523SOL    HW137846   7.667   8.520   4.875 -3.0595  0.1875  1.0552
11523SOL    HW237847   7.606   8.650   4.828  0.4435  1.1325 -1.2025
11524SOL     OW37848   1.100   2.549   6.866 -0.6197  0.3664 -0.3151
11524SOL    HW137849   1.193   2.537   6.845 -0.5520 -0.1350  0.2524
11524SOL    HW237850   1.098   2.560   6.961 -1.4353 -3.1427  0.2025
11525SOL     OW37851   3.586   2.288   5.424 -0.2752  0.0095  0.4521
11525SOL    HW137852   3.539   2.320   5.501 -1.0229 -1.1139  0.4894
11525SOL    HW237853   3.535   2.319   5.349  0.4730  1.1347  0.3801
11526SOL     OW37854   3.460   3.115   1.990  0.3353  0.1985  0.0171
11526SOL    HW137855   3.376   3.070   1.992  0.2134  0.4105 -0.2291
11526SOL    HW237856   3.478   3.127   1.896 -0.2115  1.7252  0.0736
11527SOL     OW37857   7.162   6.370   8.206 -0.2410  0.0952 -0.2334
11527SOL    HW137858   7.099   6.299   8.197  0.6693 -0.8098  0.2487
11527SOL    HW237859   7.109   6.449   8.214 -1.2876 -0.5738 -0.3721
11528SOL     OW37860   7.769   3.298   5.315  0.1558 -0.0804  0.6094
11528SOL    HW137861   7.836   3.325   5.252 -0.0808  0.0566  0.4112
11528SOL    HW237862   7.727   3.222   5.273 -0.5634  0.5179  0.2034
11529SOL     OW37863   0.116   7.315   0.960  0.1426 -0.1219 -0.0481
11529SOL    HW137864   0.182   7.345   1.023 -0.1875 -0.5455  0.5032
11529SOL    HW237865   0.034   7.317   1.008 -0.3788  1.1029 -0.9492
11530SOL     OW37866   6.418   0.625  10.269 -0.4614  0.2354 -0.1696
11530SOL    HW137867   6.342   0.568  10.260 -1.2756  0.9855  1.5297
11530SOL    HW237868   6.436   0.657  10.180 -0.9987 -1.3447 -0.8719
11531SOL     OW37869   6.324  11.360   6.745 -0.3292 -0.1972 -0.2476
11531SOL    HW137870   6.317  11.300   6.820 -1.0066 -0.1609 -0.2787
11531SOL    HW237871   6.296  11.307   6.671  1.8619 -0.7301 -0.7479
11532SOL     OW37872  10.527   8.260  10.308  0.6606  0.3626  0.2249
11532SOL    HW137873  10.514   8.200  10.235 -1.5461 -0.3909  1.1266
11532SOL    HW237874  10.443   8.305  10.318  1.5633  1.9815  1.0003
11533SOL     OW37875  10.611   1.545  10.999 -0.2894 -0.5827  0.2920
11533SOL    HW137876  10.556   1.537  10.921  1.0679  0.0211 -0.7834
11533SOL    HW237877  10.697   1.514  10.970  0.2324 -0.3600  1.5579
11534SOL     OW37878   2.738   3.157   2.988  0.0630  0.2960 -0.0937
11534SOL    HW137879   2.744   3.197   3.075 -2.3189  0.9879 -0.1697
11534SOL    HW237880   2.743   3.232   2.928 -1.7240  0.2554 -0.3540
11535SOL     OW37881  10.796  10.184   3.238 -0.0117  0.1366  0.1410
11535SOL    HW137882  10.743  10.234   3.301 -0.3307 -0.0545  0.0296
11535SOL    HW237883  10.842  10.120   3.292 -1.0245 -0.6673  0.0888
11536SOL     OW37884   7.953   5.364   7.071 -0.8229 -0.1573 -0.0074
11536SOL    HW137885   7.907   5.426   7.128  0.9219  1.4185 -0.2242
11536SOL    HW237886   7.991   5.419   7.002  1.9896 -1.2360  0.5681
11537SOL     OW37887   7.362   6.059   2.818  0.1437 -0.2700  0.4235
11537SOL    HW137888   7.288   6.115   2.794 -0.5589 -0.5334  1.8686
11537SOL    HW237889   7.322   5.976   2.843  1.0711 -0.9618 -0.3268
11538SOL     OW37890   3.270   7.954   8.140 -0.1483 -0.4194 -0.5489
11538SOL    HW137891   3.189   7.948   8.190  0.7018 -2.1952  0.7229
11538SOL    HW237892   3.258   8.031   8.084 -2.6325 -0.5665 -0.3138
11539SOL     OW37893   5.604  11.230   8.540  0.3872 -0.0164  0.0457
11539SOL    HW137894   5.534  11.291   8.517  1.4994  1.8513  1.3736
11539SOL    HW237895   5.620  11.180   8.461 -0.4898  1.4977 -1.1348
11540SOL     OW37896   0.188   9.533   4.117  0.1699  0.0226 -0.4398
11540SOL    HW137897   0.147   9.523   4.203  0.8054  0.6179 -0.0534
11540SOL    HW237898   0.126   9.586   4.067 -1.0528 -1.8282 -0.9716
11541SOL     OW37899   4.655   7.043   6.217  0.6788 -0.5792  0.1408
11541SOL    HW137900   4.723   7.100   6.253 -0.7131  0.8397  0.6712
11541SOL    HW237901   4.616   7.001   6.294 -1.5112  1.5517  0.3378
11542SOL     OW37902   6.053   2.616   2.451 -0.2950 -0.4159 -0.0491
11542SOL    HW137903   5.992   2.569   2.508  1.0732 -2.8887 -0.4857
11542SOL    HW237904   6.120   2.650   2.511 -0.5275 -0.2707  0.1297
11543SOL     OW37905   3.772   2.632   5.178 -0.2058 -0.4367  0.0472
11543SOL    HW137906   3.852   2.641   5.126 -0.4825 -0.5172 -0.4003
11543SOL    HW237907   3.791   2.563   5.240  0.5189  0.4122  0.7983
11544SOL     OW37908   1.016   7.869   4.452  0.1011  0.4620 -0.1112
11544SOL    HW137909   1.080   7.803   4.425  0.7519  0.4663  1.3223
11544SOL    HW237910   1.062   7.923   4.515 -1.0068  1.1316  0.1560
11545SOL     OW37911   0.480   0.667   9.024 -0.0410 -0.1230 -0.0006
11545SOL    HW137912   0.534   0.725   9.078  0.8620  0.7570 -1.8023
11545SOL    HW237913   0.517   0.580   9.037  1.4013  0.3690 -0.6742
11546SOL     OW37914   8.907   0.562   9.518  0.2533 -0.4146 -0.1965
11546SOL    HW137915   8.860   0.513   9.586 -0.5335 -0.6923 -0.9304
11546SOL    HW237916   8.845   0.629   9.491  0.4004 -0.5771 -0.9408
11547SOL     OW37917   7.784   4.734   6.702  0.2295  0.0283 -0.8324
11547SOL    HW137918   7.713   4.797   6.716  0.7142  0.6090 -0.9521
11547SOL    HW237919   7.859   4.771   6.748  0.3016 -0.8885 -0.1896
11548SOL     OW37920   8.534   4.210   3.770  0.4535  0.5900 -0.1908
11548SOL    HW137921   8.601   4.235   3.834  2.1188 -1.5748 -0.9910
11548SOL    HW237922   8.534   4.115   3.772 -3.4497  0.4510  0.5694
11549SOL     OW37923   8.537   1.630  10.468  0.0132  0.0550  0.0737
11549SOL    HW137924   8.587   1.625  10.387 -0.7668  0.9403 -0.4817
11549SOL    HW237925   8.582   1.696  10.520  1.3377 -1.4979  0.9828
11550SOL     OW37926   1.917   5.999   9.777 -0.3129  0.6142  0.0552
11550SOL    HW137927   1.830   5.959   9.778  0.6304 -1.5762 -0.3723
11550SOL    HW237928   1.917   6.058   9.852 -1.5988 -0.6688  1.1224
11551SOL     OW37929   2.541   3.927   9.013  0.2984  0.2922  0.1608
11551SOL    HW137930   2.503   3.859   9.069 -1.8842  0.2670 -1.2420
11551SOL    HW237931   2.542   4.005   9.068 -0.5827 -0.0376  0.6725
11552SOL     OW37932  10.300   6.751   4.438 -0.0891 -0.1819 -0.2713
11552SOL    HW137933  10.222   6.721   4.485 -1.0214 -0.5605 -1.9821
11552SOL    HW237934  10.272   6.757   4.347  1.9268 -0.4554 -0.9531
11553SOL     OW37935  10.360   1.557   1.179  0.0494  0.3356  0.1378
11553SOL    HW137936  10.420   1.610   1.232 -0.0563  0.7743 -0.1741
11553SOL    HW237937  10.415   1.522   1.109  0.9584 -2.9395  2.2792
11554SOL     OW37938   3.962   4.610   5.757 -0.4289 -0.2751  0.1197
11554SOL    HW137939   3.941   4.609   5.851 -0.1568 -1.2621  0.1813
11554SOL    HW237940   4.054   4.636   5.754 -0.9070  1.4937  0.0061
11555SOL     OW37941   4.622   7.890   8.071 -0.1750  0.7415  0.5288
11555SOL    HW137942   4.663   7.971   8.101 -0.3191  0.7513  0.7018
11555SOL    HW237943   4.540   7.918   8.030 -0.4041  0.6542  0.9216
11556SOL     OW37944   2.625   1.100   4.893  0.2239 -0.5006  0.5484
11556SOL    HW137945   2.546   1.104   4.839 -0.6358  0.9805  1.8357
11556SOL    HW237946   2.688   1.156   4.847  0.4675 -1.4694 -0.3383
11557SOL     OW37947   6.900   3.613   1.828 -0.2541 -0.0065 -0.8748
11557SOL    HW137948   6.887   3.616   1.733 -0.7441  0.7814 -0.7874
11557SOL    HW237949   6.840   3.679   1.863  0.3135  0.0897 -0.0574
11558SOL     OW37950   5.550   8.106   2.866 -0.1471 -0.8990  0.4308
11558SOL    HW137951   5.607   8.130   2.938 -1.4832 -1.3599  1.6819
11558SOL    HW237952   5.519   8.190   2.831 -2.0084 -0.6407  2.5001
11559SOL     OW37953   9.805  10.293  10.434  0.3262  0.3310 -0.2168
11559SOL    HW137954   9.872  10.343  10.481  0.3667 -1.4687  1.7987
11559SOL    HW237955   9.723  10.337  10.456  0.0733 -1.5893  3.4674
11560SOL     OW37956   7.866   5.056   1.223  0.1959  0.2735 -0.2333
11560SOL    HW137957   7.783   5.036   1.266  0.5248  1.1183  0.8350
11560SOL    HW237958   7.854   5.142   1.185 -0.4247 -0.8566 -2.7866
11561SOL     OW37959   5.681   7.234   6.956  0.0057  0.2166 -0.2663
11561SOL    HW137960   5.753   7.182   6.919  1.6160  1.4651  0.9501
11561SOL    HW237961   5.602   7.190   6.927  1.2714 -1.5806 -1.1603
11562SOL     OW37962   0.324   9.143   4.089  0.4414  0.3543 -0.4220
11562SOL    HW137963   0.337   9.099   4.005  1.4445  0.4204 -0.3185
11562SOL    HW237964   0.406   9.191   4.103  0.2394  0.4318  0.5337
11563SOL     OW37965   4.692   6.918   8.862 -0.0279  0.4900  0.2265
11563SOL    HW137966   4.659   6.965   8.785  2.1885  0.8543 -0.5859
11563SOL    HW237967   4.634   6.843   8.871 -0.2613  0.3554 -1.9215
11564SOL     OW37968   4.735   8.239   2.508 -0.0472 -0.0985 -0.0138
11564SOL    HW137969   4.670   8.295   2.466 -0.0846  0.3104  0.5841
11564SOL    HW237970   4.759   8.176   2.440 -0.8185 -0.0480 -0.3407
11565SOL     OW37971   1.408  10.337   3.951  0.3323  0.3522 -0.6376
11565SOL    HW137972   1.372  10.290   4.027  1.5587  1.0859  0.4332
11565SOL    HW237973   1.336  10.392   3.921 -0.3143 -0.2831 -0.2966
11566SOL     OW37974   0.308   9.377   5.362  0.5843 -0.2504 -0.6014
11566SOL    HW137975   0.273   9.430   5.291  3.2563  0.7774 -1.2669
11566SOL    HW237976   0.329   9.293   5.321 -0.9292 -0.8679 -0.2012
11567SOL     OW37977   3.992   2.521   0.744 -0.3208  0.2747 -0.2145
11567SOL    HW137978   4.037   2.594   0.785 -0.6590 -0.4129  1.4427
11567SOL    HW237979   3.905   2.519   0.784 -0.0301 -1.5299  0.4278
11568SOL     OW37980   5.782   4.372   8.522 -0.2510 -0.1490 -0.6138
11568SOL    HW137981   5.859   4.317   8.537  0.3919  1.3190  1.9775
11568SOL    HW237982   5.708   4.312   8.530  0.3809 -0.6367  3.1406
11569SOL     OW37983   3.832  10.381  10.565 -0.5810 -0.1805 -0.6182
11569SOL    HW137984   3.917  10.374  10.607  0.5822 -2.1596 -3.0104
11569SOL    HW237985   3.825  10.473  10.539  0.3926  0.1967  0.3856
11570SOL     OW37986   6.607   3.967   9.595 -0.3803 -0.6347  0.0956
11570SOL    HW137987   6.638   3.922   9.516 -0.1225 -1.7282  0.7976
11570SOL    HW237988   6.639   4.057   9.585 -2.9871  0.1703 -2.5312
11571SOL     OW37989   4.761   0.553   9.052 -0.0160 -0.2299  0.1031
11571SOL    HW137990   4.712   0.564   8.970  1.8836 -1.3169 -1.2572
11571SOL    HW237991   4.747   0.462   9.077 -1.8871  0.4989  1.9360
11572SOL     OW37992   3.889   4.124   4.707 -0.2216 -0.3541  0.0324
11572SOL    HW137993   3.915   4.033   4.725  0.8775  0.0260  0.4597
11572SOL    HW237994   3.892   4.167   4.793  1.5970  0.6350 -0.4633
11573SOL     OW37995  10.422   6.492   5.149 -1.1483  0.1949  0.3374
11573SOL    HW137996  10.455   6.474   5.061 -0.5979 -1.9256  0.9038
11573SOL    HW237997  10.402   6.586   5.149 -3.3408 -0.1286 -2.7267
11574SOL     OW37998  11.066   4.877   0.714  0.5750  0.1051  0.1765
11574SOL    HW137999  11.100   4.865   0.626 -1.0248 -1.4780 -0.2970
11574SOL    HW238000  11.115   4.815   0.768  0.2356 -0.3307 -0.0060
11575SOL     OW38001   1.871   1.157  10.507  0.2698  0.2479 -0.2758
11575SOL    HW138002   1.847   1.248  10.492  1.4116  0.6879  0.5020
11575SOL    HW238003   1.918   1.157  10.590 -1.0214 -1.2903  0.4982
11576SOL     OW38004   6.403   6.944  10.344 -0.5488  0.3533  0.0039
11576SOL    HW138005   6.457   7.007  10.393 -0.3266  0.2869 -0.1520
11576SOL    HW238006   6.363   6.889  10.411  1.9449 -1.5501  0.0632
11577SOL     OW38007   4.331   0.088   3.344 -0.3841  0.4699 -0.0344
11577SOL    HW138008   4.297   0.021   3.284 -0.2234 -0.2704  0.6765
11577SOL    HW238009   4.259   0.150   3.355 -0.5134  0.4577 -0.7573
11578SOL     OW38010   9.730   6.535   1.380 -0.7432 -0.1279 -0.3296
11578SOL    HW138011   9.804   6.550   1.440 -0.8144 -2.0420  0.3300
11578SOL    HW238012   9.738   6.442   1.357 -0.4707  0.6226 -3.7016
11579SOL     OW38013   0.436   5.242   3.422  0.2809 -0.4117 -0.1756
11579SOL    HW138014   0.356   5.218   3.470  1.0570 -1.3069  0.6967
11579SOL    HW238015   0.485   5.297   3.484 -0.0626  0.9259 -1.0474
11580SOL     OW38016   9.094   4.745   3.355  0.3295  0.3610  0.1623
11580SOL    HW138017   9.156   4.687   3.399 -0.5771 -0.9230 -0.2155
11580SOL    HW238018   9.147   4.797   3.295  1.2150  0.2938  0.8671
11581SOL     OW38019   5.938   8.818   6.810 -0.0191 -0.4459  0.5301
11581SOL    HW138020   5.978   8.796   6.894  1.1569  0.7437  0.3169
11581SOL    HW238021   5.878   8.889   6.830  2.9731  2.5159 -0.0546
11582SOL     OW38022   0.535   8.468  10.485  0.2944  0.0414 -0.2120
11582SOL    HW138023   0.578   8.546  10.519 -0.9749  0.5925  0.1839
11582SOL    HW238024   0.587   8.444  10.408  0.1838  1.7939 -0.8733
11583SOL     OW38025  10.016   6.788   9.051 -0.1259  0.3403 -0.1051
11583SOL    HW138026  10.054   6.862   9.099 -2.3124  2.0018 -0.7563
11583SOL    HW238027  10.069   6.782   8.971 -0.0225  1.3545 -0.1322
11584SOL     OW38028   1.964   7.052   2.315 -0.3523 -0.2355 -0.0432
11584SOL    HW138029   1.965   7.125   2.252  0.8415  0.7623  1.0736
11584SOL    HW238030   1.978   7.094   2.400  2.3965 -1.8838  0.4411
11585SOL     OW38031   7.898   2.454   9.354  0.4144  0.1059  0.0302
11585SOL    HW138032   7.900   2.486   9.264 -0.1906 -0.9854 -0.4028
11585SOL    HW238033   7.860   2.526   9.404  1.8998  1.1993 -0.3452
11586SOL     OW38034   5.742   6.197   9.499 -0.3681 -0.2812 -0.3230
11586SOL    HW138035   5.803   6.223   9.568  0.6330  0.3525 -1.3968
11586SOL    HW238036   5.767   6.107   9.477 -1.2162 -0.7757  0.6642
11587SOL     OW38037   4.338   0.340   5.529 -0.0658  0.0204 -0.4303
11587SOL    HW138038   4.381   0.426   5.521  2.0877 -0.9844 -0.2137
11587SOL    HW238039   4.253   0.360   5.570  0.2449  2.0641 -0.6507
11588SOL     OW38040   6.434   9.144   2.613 -0.6072  0.2580  0.1948
11588SOL    HW138041   6.429   9.186   2.527 -0.2382  0.2829  0.1859
11588SOL    HW238042   6.439   9.050   2.594  0.1181  0.2969  0.1665
11589SOL     OW38043   2.433   0.924   2.537  0.3488 -0.0581  0.1254
11589SOL    HW138044   2.394   0.981   2.471  0.1271  0.1612  0.4436
11589SOL    HW238045   2.369   0.922   2.608  1.2012  0.8580  0.9630
11590SOL     OW38046   6.465   5.202   9.425 -0.1794  0.2466 -0.8934
11590SOL    HW138047   6.373   5.227   9.415 -0.1146  1.1745  0.5201
11590SOL    HW238048   6.512   5.261   9.367 -0.2667  1.6877  0.4422
11591SOL     OW38049   1.034   4.487  10.182 -0.7230 -0.3422 -0.2720
11591SOL    HW138050   0.947   4.449  10.167 -1.6972  1.5697  0.1663
11591SOL    HW238051   1.020   4.581  10.174  1.0271  0.0961  1.2474
11592SOL     OW38052  10.548   8.039   3.125  0.3012 -0.8004 -0.2225
11592SOL    HW138053  10.570   8.120   3.079 -0.5859 -1.2758 -1.5637
11592SOL    HW238054  10.514   8.067   3.210  0.7725  0.1819 -0.3567
11593SOL     OW38055   1.087   9.919   8.613 -0.5354 -0.1836  0.0500
11593SOL    HW138056   1.082  10.014   8.624 -1.3362 -0.0798 -1.0329
11593SOL    HW238057   1.048   9.883   8.693 -0.7796  0.4044  0.1969
11594SOL     OW38058   1.673   4.320   2.132 -0.1105  0.6095 -0.2013
11594SOL    HW138059   1.599   4.265   2.156  0.0521 -0.5779 -2.2504
11594SOL    HW238060   1.730   4.319   2.210 -1.5041  0.3343  0.8430
11595SOL     OW38061   8.420  10.504   2.195  0.3149 -0.0061 -0.7250
11595SOL    HW138062   8.357  10.540   2.132  2.0945  1.1843 -1.9042
11595SOL    HW238063   8.436  10.576   2.256  0.2485 -0.4313 -0.2056
11596SOL     OW38064  10.002   0.054   9.498  0.0121 -0.7440 -0.7343
11596SOL    HW138065  10.084   0.014   9.469  0.9047 -0.3087  1.0455
11596SOL    HW238066   9.956  -0.016   9.544 -0.1099 -0.6717 -0.7449
11597SOL     OW38067  10.317   6.629   1.243 -0.2026 -0.5829 -0.5951
11597SOL    HW138068  10.266   6.553   1.214 -1.1906  0.0351 -0.5054
11597SOL    HW238069  10.265   6.668   1.312 -0.8594  1.5248 -2.1881
11598SOL     OW38070   0.171   5.337   3.834  0.2615 -0.3233  0.1754
11598SOL    HW138071   0.160   5.381   3.750  0.4249 -1.6668 -0.5661
11598SOL    HW238072   0.095   5.366   3.886 -2.3357 -2.7725 -1.9244
11599SOL     OW38073  10.673   0.463   7.178  0.0376 -0.0872 -0.1492
11599SOL    HW138074  10.593   0.447   7.229  0.2965 -1.0167 -0.0276
11599SOL    HW238075  10.670   0.557   7.158 -0.2177  0.2308  1.3119
11600SOL     OW38076   5.357   8.369   6.205  0.2775  0.2010  0.1301
11600SOL    HW138077   5.296   8.297   6.191  0.1762  0.4861 -0.9608
11600SOL    HW238078   5.327   8.438   6.146  3.2678 -0.6406 -2.6638
11601SOL     OW38079   7.206   7.201   0.741  0.2024  0.5757  0.1073
11601SOL    HW138080   7.188   7.285   0.698 -1.6336  1.0816  1.7513
11601SOL    HW238081   7.156   7.137   0.689 -0.0010  0.8129  0.0061
11602SOL     OW38082   7.890   6.340   9.531  0.0630  0.4733 -0.5939
11602SOL    HW138083   7.950   6.266   9.542 -0.4358 -0.0563 -1.3375
11602SOL    HW238084   7.806   6.309   9.564  0.5301  1.8304  2.2180
11603SOL     OW38085  11.007   5.302   0.650  0.0097  0.3184  0.5249
11603SOL    HW138086  11.036   5.229   0.704 -0.3693  0.5346  1.0232
11603SOL    HW238087  11.013   5.269   0.560 -0.8786 -0.5899  0.7837
11604SOL     OW38088   4.339   2.930   5.878  0.2211  0.1157  0.1019
11604SOL    HW138089   4.364   2.841   5.853  0.3396  0.2991 -0.4461
11604SOL    HW238090   4.334   2.927   5.973  1.0748 -0.2594  0.1475
11605SOL     OW38091   6.024   4.608   8.051  0.6048  0.2392 -0.6074
11605SOL    HW138092   6.056   4.552   7.980 -0.7941  0.3830 -1.3934
11605SOL    HW238093   6.084   4.591   8.124  0.6979 -1.6707 -1.0757
11606SOL     OW38094   9.910  11.048   8.667  0.3725  0.1744  0.1151
11606SOL    HW138095   9.929  11.136   8.634 -1.0638  0.7496  0.7486
11606SOL    HW238096   9.942  10.990   8.599  0.5353  1.2207 -0.7349
11607SOL     OW38097   7.874   6.021   8.682 -0.1659  0.1627  0.0783
11607SOL    HW138098   7.841   5.931   8.689  0.4461 -0.1684 -0.9980
11607SOL    HW238099   7.806   6.068   8.634  0.7918 -0.4991 -2.0674
11608SOL     OW38100   0.275   4.902   2.281 -0.0060  0.0019  0.0145
11608SOL    HW138101   0.288   4.808   2.272 -0.4997 -0.0183 -0.5924
11608SOL    HW238102   0.249   4.914   2.372  1.8205 -0.2209  0.6146
11609SOL     OW38103   3.393   0.103   2.760  0.0306  0.3425  0.2218
11609SOL    HW138104   3.302   0.090   2.731 -0.1473 -0.7430  1.1945
11609SOL    HW238105   3.384   0.150   2.844  0.2437 -1.3816  1.2557
11610SOL     OW38106   4.224   7.106  10.740 -0.5302  0.2196  0.1262
11610SOL    HW138107   4.207   7.162  10.664  0.9017 -1.2896 -1.3762
11610SOL    HW238108   4.316   7.123  10.762 -0.7735  0.2262  1.1885
11611SOL     OW38109   6.295   3.392   6.780 -0.5806 -0.0398  0.3976
11611SOL    HW138110   6.321   3.305   6.810 -1.8649 -0.4416  0.4238
11611SOL    HW238111   6.203   3.400   6.807  0.0138  2.0939  2.0847
11612SOL     OW38112   2.822  10.112   1.164 -0.3288  0.6909  0.7617
11612SOL    HW138113   2.812  10.017   1.167 -0.4012  0.6463 -0.3382
11612SOL    HW238114   2.916  10.127   1.170 -0.2352  0.4825  0.0022
11613SOL     OW38115   1.276   3.579   2.787 -0.1281 -0.0377  0.5361
11613SOL    HW138116   1.266   3.586   2.692 -1.4953 -0.0772  0.6602
11613SOL    HW238117   1.353   3.524   2.799 -0.2556 -0.4850 -0.5601
11614SOL     OW38118  10.157   6.894   7.500 -0.2794 -0.5552  0.1074
11614SOL    HW138119  10.197   6.830   7.441 -0.0447 -1.6186  1.3592
11614SOL    HW238120  10.191   6.978   7.470  0.9461 -1.1981 -0.3998
11615SOL     OW38121   7.615  11.212   9.445  0.2268  0.4269  0.0037
11615SOL    HW138122   7.521  11.223   9.452  0.0540  0.2604 -1.5592
11615SOL    HW238123   7.643  11.182   9.532 -1.5337 -2.0331 -0.1539
11616SOL     OW38124   3.815   7.461   4.152 -0.3783  0.2243 -0.2590
11616SOL    HW138125   3.825   7.550   4.185  1.3618 -0.2050  0.4685
11616SOL    HW238126   3.722   7.441   4.164 -1.1396  2.4679 -1.8783
11617SOL     OW38127   8.553   8.394  11.083  0.4159  0.0880  0.0424
11617SOL    HW138128   8.631   8.445  11.103 -0.6776  1.8455  0.0092
11617SOL    HW238129   8.497   8.405  11.159  0.0906 -0.9791 -0.0272
11618SOL     OW38130  11.261   8.595   1.851  0.2633  0.6664 -0.2367
11618SOL    HW138131  11.335   8.655   1.854  2.1567 -1.4035 -1.8592
11618SOL    HW238132  11.301   8.508   1.850 -2.3202 -0.6552  1.2846
11619SOL     OW38133   4.787   2.086   5.704  0.0604 -0.0351 -0.2860
11619SOL    HW138134   4.697   2.090   5.671  0.9488 -1.6675 -3.4060
11619SOL    HW238135   4.796   1.996   5.736  1.0162 -0.5222 -1.7903
11620SOL     OW38136   1.658   7.552   3.397  0.5448 -0.1119  0.6242
11620SOL    HW138137   1.710   7.599   3.462  0.3960  0.2048  0.5173
11620SOL    HW238138   1.723   7.503   3.346  0.7137  0.0646  0.6678
11621SOL     OW38139   5.619   3.912   1.462  0.5690  0.2488  0.0264
11621SOL    HW138140   5.679   3.845   1.495 -1.0830 -1.2063  0.2216
11621SOL    HW238141   5.593   3.961   1.540  1.0465  0.5129  0.0239
11622SOL     OW38142   4.070   6.194   4.587 -0.3537  0.2799  0.1886
11622SOL    HW138143   4.035   6.165   4.502  0.0303 -0.7515  0.3743
11622SOL    HW238144   3.993   6.225   4.635 -0.5796  0.8619 -0.5186
11623SOL     OW38145   4.147  10.481   1.370  0.0172 -0.0155  0.1759
11623SOL    HW138146   4.101  10.510   1.291 -1.3863  3.2769  1.9827
11623SOL    HW238147   4.093  10.411   1.405 -1.4280  1.0161  0.0922
11624SOL     OW38148   9.988   3.482   5.870  0.2224  0.3987 -0.5272
11624SOL    HW138149  10.008   3.389   5.865 -1.0076  0.1115 -0.3151
11624SOL    HW238150  10.041   3.522   5.801  2.3777 -0.1369  0.7338
11625SOL     OW38151   9.319  11.309  11.388 -0.5283 -0.5956  0.3257
11625SOL    HW138152   9.301  11.277  11.299 -0.3366 -1.5042  0.6056
11625SOL    HW238153   9.273  11.393  11.393 -2.4320 -1.5713  0.1129
11626SOL     OW38154  10.275   1.026   7.404 -0.3228 -0.4143 -0.3719
11626SOL    HW138155  10.256   0.960   7.338  2.7492 -0.6050 -1.2463
11626SOL    HW238156  10.318   1.097   7.355  2.0901 -0.5871  1.3154
11627SOL     OW38157   7.040   7.078   6.728  0.5456  0.5903  0.4734
11627SOL    HW138158   6.987   7.030   6.791 -0.4308 -0.3191 -0.9783
11627SOL    HW238159   7.121   7.028   6.721  0.2784  0.1783  0.3268
11628SOL     OW38160   1.919   9.692   7.325 -0.1848  0.1001 -0.3935
11628SOL    HW138161   2.014   9.697   7.319  0.0924 -2.9007 -0.1148
11628SOL    HW238162   1.902   9.615   7.380 -2.7954  1.4621  0.9538
11629SOL     OW38163   1.562   6.687   2.749 -0.2965  0.2480 -0.3484
11629SOL    HW138164   1.470   6.662   2.743  0.5038 -2.8995 -0.8835
11629SOL    HW238165   1.610   6.605   2.757  2.4753  1.7988  0.5889
11630SOL     OW38166   6.387   8.250  10.671 -0.3405 -0.0709  0.4563
11630SOL    HW138167   6.443   8.301  10.728  0.3882 -1.1806  0.7704
11630SOL    HW238168   6.443   8.226  10.597  0.4281 -3.1818  1.8800
11631SOL     OW38169   8.577   5.824   4.129 -0.5227 -0.3120  0.2518
11631SOL    HW138170   8.576   5.755   4.063 -1.0548 -1.1332  1.0871
11631SOL    HW238171   8.540   5.782   4.208  2.3005 -0.1402  1.8098
11632SOL     OW38172   4.743  10.732   1.036 -0.1919  0.0269  0.1524
11632SOL    HW138173   4.824  10.718   1.085 -0.8911  0.5389  1.5284
11632SOL    HW238174   4.719  10.646   1.003  0.5249 -0.2574  0.3565
11633SOL     OW38175   7.106   0.639   7.938 -0.8667  0.2861  0.6138
11633SOL    HW138176   7.133   0.731   7.948  2.0793 -0.2079 -1.3833
11633SOL    HW238177   7.182   0.589   7.969 -2.0343 -1.4837  0.7302
11634SOL     OW38178   6.636   6.588   2.235  0.2657 -0.6568  0.1879
11634SOL    HW138179   6.723   6.591   2.276  0.1841  1.1043  0.2973
11634SOL    HW238180   6.578   6.631   2.298 -0.2145  0.3984 -0.9266
11635SOL     OW38181   9.288   8.591   1.806  0.1811  0.0404  0.2686
11635SOL    HW138182   9.379   8.620   1.808 -0.1329  1.0174  0.8553
11635SOL    HW238183   9.263   8.594   1.713  0.4175  0.8221  0.2283
11636SOL     OW38184   1.250   2.453   6.021  0.7181  0.2323  0.2777
11636SOL    HW138185   1.247   2.411   6.107  0.6871 -1.3346 -0.4610
11636SOL    HW238186   1.344   2.457   6.000  0.6677 -0.3601 -0.0694
11637SOL     OW38187  10.344   1.855   0.713 -0.0899 -0.6730  0.6181
11637SOL    HW138188  10.296   1.880   0.791  0.7637 -1.0455  1.2788
11637SOL    HW238189  10.353   1.760   0.719 -0.9559 -0.8574 -0.4980
11638SOL     OW38190   5.479   5.730   2.846 -0.6396 -0.1615  0.6737
11638SOL    HW138191   5.390   5.733   2.880 -0.3836  2.4907  1.3393
11638SOL    HW238192   5.473   5.769   2.759 -0.0678  0.5278  0.9318
11639SOL     OW38193   2.243  10.080  11.075  0.4700  0.1397 -0.4475
11639SOL    HW138194   2.307  10.015  11.105  0.3292 -0.3881 -1.2697
11639SOL    HW238195   2.234  10.063  10.982 -1.4522 -0.3044 -0.2149
11640SOL     OW38196   9.412   9.251   9.783 -0.6360 -0.2706 -0.0259
11640SOL    HW138197   9.468   9.324   9.810 -0.0501 -0.3653 -0.9122
11640SOL    HW238198   9.323   9.283   9.792 -0.4440 -0.0809  1.3257
11641SOL     OW38199   4.812   1.002   9.226  0.1229 -0.4161 -0.4123
11641SOL    HW138200   4.852   1.032   9.308  0.0197 -3.9839  1.1162
11641SOL    HW238201   4.879   0.947   9.186 -0.3647  0.1264 -2.0741
11642SOL     OW38202  10.156   1.611   2.369 -0.7419 -0.5157 -1.0281
11642SOL    HW138203  10.095   1.538   2.375 -2.9342  1.3406  0.8892
11642SOL    HW238204  10.101   1.689   2.369  1.5832  1.2800  0.9685
11643SOL     OW38205  11.120   8.538   2.189  0.2264  0.4252  0.5230
11643SOL    HW138206  11.203   8.558   2.231 -0.4361  0.2481  1.9798
11643SOL    HW238207  11.108   8.444   2.202  0.3505  0.2082 -0.7501
11644SOL     OW38208   6.740   5.660   3.780 -0.0019  0.1037 -0.2895
11644SOL    HW138209   6.682   5.625   3.848 -1.0541  2.0885 -0.0943
11644SOL    HW238210   6.728   5.755   3.784  2.4192  0.5148 -1.0522
11645SOL     OW38211   6.257   5.481   0.929 -0.3714 -0.0875 -0.1147
11645SOL    HW138212   6.257   5.390   0.902  0.7491 -0.3131  0.5601
11645SOL    HW238213   6.283   5.479   1.022 -0.7705  0.8802  0.0370
11646SOL     OW38214   6.571  10.243  10.091  0.9558  0.1392 -0.2358
11646SOL    HW138215   6.648  10.300  10.085  1.7450 -0.7550  0.9491
11646SOL    HW238216   6.593  10.167  10.038  1.5940 -0.8395  1.3531
11647SOL     OW38217   6.959   1.897   0.975 -0.6090 -0.4690  0.2610
11647SOL    HW138218   7.007   1.937   0.902  1.3094 -1.0925  1.1063
11647SOL    HW238219   6.950   1.805   0.951  1.4392 -1.0460  1.3886
11648SOL     OW38220   5.158   6.966   1.061 -0.4222 -0.0446 -0.8222
11648SOL    HW138221   5.244   6.947   1.100 -0.4883  2.3143  0.6341
11648SOL    HW238222   5.166   6.936   0.971  1.2943 -1.5436 -0.2467
11649SOL     OW38223  11.382   1.956   6.079 -0.5104 -0.3722 -0.2053
11649SOL    HW138224  11.434   1.997   6.010  0.8755 -1.2069  0.3048
11649SOL    HW238225  11.407   1.864   6.076 -0.2990 -0.3964  1.5082
11650SOL     OW38226   1.163   9.337   1.132  0.1170 -0.0954 -0.3265
11650SOL    HW138227   1.134   9.357   1.221 -0.2021 -0.7741 -0.2683
11650SOL    HW238228   1.256   9.315   1.141  0.3932  1.0169 -0.3478
11651SOL     OW38229  11.150   2.698  10.645  0.3549  0.3163  0.0057
11651SOL    HW138230  11.151   2.634  10.574  1.0813 -0.9363  1.0900
11651SOL    HW238231  11.215   2.763  10.619  0.8695 -0.3156 -0.3477
11652SOL     OW38232  10.397  10.112   4.108  0.0601 -0.2900  0.8620
11652SOL    HW138233  10.373  10.200   4.080 -2.1076 -1.2970 -0.7707
11652SOL    HW238234  10.492  10.107   4.094 -0.2782  0.6312 -2.6857
11653SOL     OW38235   8.169   6.687   0.185 -0.0440  0.0611  0.3170
11653SOL    HW138236   8.234   6.620   0.207  0.3708 -0.0287 -1.0937
11653SOL    HW238237   8.085   6.640   0.183  0.1246 -0.2351  0.2204
11654SOL     OW38238   8.381   2.083   6.899  0.0163  0.2653  0.0694
11654SOL    HW138239   8.313   2.110   6.838  2.0645  0.2340 -2.3946
11654SOL    HW238240   8.352   1.998   6.932 -0.8374 -0.0479 -1.4324
11655SOL     OW38241   3.021   2.661   3.922 -0.0197  0.0497  0.4601
11655SOL    HW138242   3.054   2.627   3.838 -1.6340  2.2221 -1.1787
11655SOL    HW238243   3.063   2.746   3.932  0.1675 -0.1874  1.9363
11656SOL     OW38244   3.186   8.324   7.676 -0.4352 -0.5605  0.4272
11656SOL    HW138245   3.270   8.342   7.718 -0.3244 -0.7548  0.2917
11656SOL    HW238246   3.126   8.387   7.715 -0.3022 -0.6447  0.7734
11657SOL     OW38247   5.557   4.641   1.251 -0.2238 -0.4311 -0.1213
11657SOL    HW138248   5.647   4.672   1.248 -0.1176 -0.7948 -0.8372
11657SOL    HW238249   5.529   4.636   1.160 -0.5882 -1.4014  0.0223
11658SOL     OW38250   5.505   9.396   1.278 -0.1132  0.4327  0.0334
11658SOL    HW138251   5.528   9.478   1.234  3.1462 -0.1358  0.4543
11658SOL    HW238252   5.444   9.353   1.219 -2.0113  3.1248 -0.1549
11659SOL     OW38253   5.863   5.778  11.130 -0.2056 -0.4658 -0.4379
11659SOL    HW138254   5.954   5.800  11.152 -0.1802 -1.4737  0.5477
11659SOL    HW238255   5.811   5.828  11.193 -0.4287  1.0403 -1.7483
11660SOL     OW38256   4.971   5.840   5.075 -1.2394 -0.7336 -0.0169
11660SOL    HW138257   5.045   5.780   5.068  0.1147  0.8914 -0.1056
11660SOL    HW238258   4.933   5.822   5.161 -1.2816 -2.1688 -0.3201
11661SOL     OW38259   3.804   5.993   2.676  0.3208 -0.3291  0.4757
11661SOL    HW138260   3.790   6.069   2.731  0.7388  0.0081  0.1278
11661SOL    HW238261   3.762   6.015   2.593 -0.2023 -0.7849  0.6102
11662SOL     OW38262   8.373   5.939   1.832 -0.2026 -0.1781  0.5108
11662SOL    HW138263   8.458   5.947   1.790  0.4319  1.4924  2.0128
11662SOL    HW238264   8.370   5.849   1.864 -0.7028 -1.5254 -2.9082
11663SOL     OW38265   4.486   3.299   5.340  0.0252  1.0384 -0.3079
11663SOL    HW138266   4.484   3.343   5.425 -1.1646  1.3314 -0.4682
11663SOL    HW238267   4.490   3.370   5.276  0.1451  0.8456 -0.5144
11664SOL     OW38268   5.774   2.152   5.783  0.1487 -0.1256 -0.1469
11664SOL    HW138269   5.690   2.149   5.830  0.5214  1.3424  0.6885
11664SOL    HW238270   5.824   2.220   5.829  1.1782  0.1698 -1.6452
11665SOL     OW38271   6.820   7.737   7.127 -0.0419 -0.4056  0.1700
11665SOL    HW138272   6.793   7.789   7.203 -0.6265 -0.8964  0.3021
11665SOL    HW238273   6.744   7.682   7.108  0.3768 -0.8172 -0.3088
11666SOL     OW38274   4.179  11.167   4.492 -0.1091  0.2025  0.1114
11666SOL    HW138275   4.226  11.084   4.480  0.4464  0.7473 -1.7463
11666SOL    HW238276   4.167  11.174   4.587  0.3702 -1.6986  0.3510
11667SOL     OW38277   1.208   8.677   5.352  0.0835  0.0636  0.8183
11667SOL    HW138278   1.269   8.744   5.383  0.6538  0.6471 -1.4193
11667SOL    HW238279   1.131   8.726   5.324  1.3086  0.1878 -2.8749
11668SOL     OW38280   6.516   0.199   1.171  0.8871 -0.4152  0.0463
11668SOL    HW138281   6.467   0.275   1.203  2.7866  0.9333 -0.0777
11668SOL    HW238282   6.533   0.220   1.079  1.0934 -1.1932 -0.0942
11669SOL     OW38283   7.683   8.792  10.306  0.5695 -0.0448 -0.1063
11669SOL    HW138284   7.634   8.873  10.320 -0.0847 -0.6134  1.0121
11669SOL    HW238285   7.623   8.736  10.258 -0.1406 -0.9455  1.7474
11670SOL     OW38286   5.349   5.612   2.407 -0.1609  0.6113 -0.0758
11670SOL    HW138287   5.264   5.655   2.412  0.2968  1.7098 -1.2202
11670SOL    HW238288   5.342   5.539   2.469 -1.0492  2.1429  1.7522
11671SOL     OW38289   3.475   7.486   7.450 -0.2029  0.5413 -0.3763
11671SOL    HW138290   3.438   7.407   7.410  1.0621  0.2444 -0.9940
11671SOL    HW238291   3.411   7.555   7.431 -0.5770 -0.0153 -1.1791
11672SOL     OW38292   5.672   2.539   6.770  0.2739 -0.4316  0.3214
11672SOL    HW138293   5.666   2.634   6.786  0.4156 -0.5293  0.9455
11672SOL    HW238294   5.587   2.505   6.798 -0.3452 -0.3069 -1.2645
11673SOL     OW38295   7.362   6.968  10.111 -0.0031 -1.0054 -0.4944
11673SOL    HW138296   7.446   6.945  10.152 -0.1201 -0.3323  0.1558
11673SOL    HW238297   7.304   6.895  10.132 -0.2450 -0.3819  1.1434
11674SOL     OW38298   0.708   3.574   0.637  0.4201  0.1189 -0.2512
11674SOL    HW138299   0.688   3.492   0.593  2.3349 -0.1402 -0.7261
11674SOL    HW238300   0.736   3.549   0.725  0.8048  0.2780 -0.3271
11675SOL     OW38301   3.862   0.001   1.245 -0.0015  0.3189  0.5766
11675SOL    HW138302   3.926   0.019   1.176  0.8775  0.2395  1.3537
11675SOL    HW238303   3.777   0.014   1.203  0.5015  3.1470  0.1915
11676SOL     OW38304  11.273   3.317   8.796  0.3158  0.3437 -0.2331
11676SOL    HW138305  11.334   3.390   8.808 -0.2803  0.6082  1.4184
11676SOL    HW238306  11.208   3.328   8.866 -1.8217  0.2434 -2.0579
11677SOL     OW38307   9.616   9.198  10.411 -0.1510  1.0680  0.0154
11677SOL    HW138308   9.689   9.252  10.384 -0.3659  0.2473 -2.5131
11677SOL    HW238309   9.574   9.172  10.329 -0.1007 -2.8301  1.0316
11678SOL     OW38310   8.894  10.680   7.080  0.1566 -0.6174 -0.5700
11678SOL    HW138311   8.926  10.750   7.023  1.2355 -1.2988 -0.8138
11678SOL    HW238312   8.906  10.714   7.169 -0.8721  0.1572 -0.6961
11679SOL     OW38313   5.622   2.393   8.874  0.1533  0.2032  0.6862
11679SOL    HW138314   5.614   2.478   8.833  0.4122 -0.3351 -0.5269
11679SOL    HW238315   5.642   2.333   8.802 -1.4641 -1.1294  1.2892
11680SOL     OW38316   2.865   9.135   5.905  0.2995 -0.2833  0.5813
11680SOL    HW138317   2.863   9.229   5.893  0.7444 -0.2509  0.7396
11680SOL    HW238318   2.888   9.099   5.819 -0.1058 -0.2647  0.4627
11681SOL     OW38319   5.372  11.127   1.594  0.2587 -0.3505 -0.1285
11681SOL    HW138320   5.419  11.066   1.651  1.8172  0.8362 -0.0728
11681SOL    HW238321   5.362  11.206   1.647 -0.0070  0.1097 -0.8564
11682SOL     OW38322   8.817   6.857  10.312 -0.0711 -0.4526 -0.3371
11682SOL    HW138323   8.733   6.886  10.348  0.1758  2.3049 -1.7069
11682SOL    HW238324   8.793   6.800  10.240 -0.7376 -0.6733  0.0499
11683SOL     OW38325   8.900   9.798   7.692 -0.0017  0.6021 -0.3621
11683SOL    HW138326   8.842   9.848   7.750  1.4508 -0.8998  2.6309
11683SOL    HW238327   8.988   9.829   7.714  0.6239 -0.1571 -1.6890
11684SOL     OW38328   4.729   1.083   8.157 -0.6767  0.3836 -0.4127
11684SOL    HW138329   4.691   1.142   8.092 -0.0326  0.5407 -0.6524
11684SOL    HW238330   4.736   1.137   8.236 -0.2668  0.5756 -0.5773
11685SOL     OW38331   6.669  10.474   7.419  0.0999  0.2925  0.0507
11685SOL    HW138332   6.706  10.456   7.333 -3.4282  3.2219 -2.4318
11685SOL    HW238333   6.611  10.399   7.436  0.5910 -0.1656 -0.2768
11686SOL     OW38334   9.317   1.831   0.353 -0.0910  0.0037 -0.3560
11686SOL    HW138335   9.226   1.807   0.372 -0.1236 -0.1312 -0.6656
11686SOL    HW238336   9.311   1.894   0.281 -0.0171  1.1303  0.5962
11687SOL     OW38337   6.788  10.691  10.572  0.0498  0.2693  0.2821
11687SOL    HW138338   6.795  10.610  10.622  0.5051  0.5317  0.6404
11687SOL    HW238339   6.753  10.755  10.635 -0.7342  0.2519 -0.1141
11688SOL     OW38340   7.717   4.088   1.401 -0.2149 -1.0049 -0.7094
11688SOL    HW138341   7.741   4.174   1.366  0.5189 -0.6029  0.7291
11688SOL    HW238342   7.736   4.093   1.494 -0.2662 -2.7043 -0.5718
11689SOL     OW38343   1.863   1.365  10.997 -0.9501 -0.3025 -0.3791
11689SOL    HW138344   1.833   1.276  11.014 -1.6109 -0.3833 -1.8060
11689SOL    HW238345   1.783   1.415  10.981 -0.5624  0.4630  0.0235
11690SOL     OW38346  10.258   2.012   4.541  0.1784  0.2830  0.3113
11690SOL    HW138347  10.228   1.923   4.522  1.2521 -0.5817  2.2384
11690SOL    HW238348  10.339   2.020   4.491  0.2803  0.0142  0.4263
11691SOL     OW38349  10.143   1.184   4.548 -0.7818  0.1863  0.2922
11691SOL    HW138350  10.192   1.221   4.475 -0.5940  0.0702  0.3582
11691SOL    HW238351  10.154   1.247   4.619 -0.5062  0.0266  0.3884
11692SOL     OW38352   1.094   1.028  11.234  0.3585 -0.3481 -0.3745
11692SOL    HW138353   1.136   0.949  11.199  1.9267  0.5596 -0.6403
11692SOL    HW238354   1.148   1.053  11.308  0.1130  0.6846 -0.5222
11693SOL     OW38355   9.930   2.022   1.836  0.2791  0.1393 -0.3980
11693SOL    HW138356   9.983   2.006   1.758  0.3486  1.6373 -0.6731
11693SOL    HW238357   9.850   2.062   1.803 -0.2174 -0.3409  0.1993
11694SOL     OW38358   9.553   4.526   4.615  0.0675 -0.5878 -0.0746
11694SOL    HW138359   9.480   4.487   4.663 -0.4387  2.0598  1.4981
11694SOL    HW238360   9.535   4.507   4.523 -1.6430 -1.5116  0.4206
11695SOL     OW38361  10.877  10.157  10.749  0.3049 -0.0874  0.0932
11695SOL    HW138362  10.916  10.076  10.717  1.2447 -0.2710  1.6310
11695SOL    HW238363  10.816  10.130  10.817 -1.3178  0.3406 -1.0999
11696SOL     OW38364   0.948   9.980   8.030 -0.1794 -0.0200  0.1260
11696SOL    HW138365   0.960  10.001   8.123  1.6485  2.6697 -0.5849
11696SOL    HW238366   1.026   9.929   8.007  0.6979  1.5056 -0.4263
11697SOL     OW38367   8.141   1.014   7.873 -0.7894 -0.2696 -0.2015
11697SOL    HW138368   8.132   0.935   7.820  0.3555  0.0468 -0.9073
11697SOL    HW238369   8.070   1.071   7.845 -1.8258 -1.1364  0.5372
11698SOL     OW38370   2.788  10.718  10.966  0.3460  0.1040  0.1415
11698SOL    HW138371   2.719  10.653  10.949 -0.2335  1.0246 -1.1652
11698SOL    HW238372   2.797  10.719  11.062  1.3091 -2.8362  0.1849
11699SOL     OW38373   2.808   6.809   5.897 -0.5513 -0.2168 -0.7332
11699SOL    HW138374   2.804   6.738   5.833 -0.6722 -0.9565  0.0760
11699SOL    HW238375   2.888   6.792   5.946 -1.3173 -0.6357  0.4071
11700SOL     OW38376   1.701   7.710   8.958  0.0651 -0.7122  0.3274
11700SOL    HW138377   1.786   7.668   8.961  0.3095 -0.1720  3.3869
11700SOL    HW238378   1.638   7.637   8.956  0.5631 -1.1462  0.3674
11701SOL     OW38379   3.651   2.041   8.493  0.0472  0.0493  0.2965
11701SOL    HW138380   3.712   2.014   8.562  0.4708 -0.0279 -0.1006
11701SOL    HW238381   3.656   2.136   8.492 -0.0711  0.0584  0.4680
11702SOL     OW38382   9.515   1.290  10.524  0.9111 -0.0526 -0.5004
11702SOL    HW138383   9.437   1.286  10.579  1.3719 -0.2851  0.1519
11702SOL    HW238384   9.507   1.216  10.464  0.4049  0.2014 -0.7508
11703SOL     OW38385   2.464   4.311   9.884 -0.1936 -0.6333 -0.4365
11703SOL    HW138386   2.517   4.368   9.829 -0.2463 -1.7195 -1.6833
11703SOL    HW238387   2.489   4.222   9.857 -2.5637 -1.1938 -1.0502
11704SOL     OW38388   0.491   7.920   5.340 -0.4059  0.9186  0.0298
11704SOL    HW138389   0.558   7.856   5.363 -0.7277  0.2171 -0.9128
11704SOL    HW238390   0.511   7.944   5.250 -0.8360  1.4506  0.0716
11705SOL     OW38391   5.146   3.448   7.503 -0.0378  0.4117  0.5200
11705SOL    HW138392   5.095   3.368   7.493 -0.0106  0.2615  1.4681
11705SOL    HW238393   5.088   3.518   7.471 -0.6435  0.1793  1.0892
11706SOL     OW38394   4.129  10.686   4.091  0.8727 -0.4040 -0.1457
11706SOL    HW138395   4.086  10.659   4.172 -0.3971  0.2514 -0.5789
11706SOL    HW238396   4.162  10.774   4.110  2.2460 -0.9776  0.2491
11707SOL     OW38397   4.671  11.007   1.415  0.0210 -0.3260  0.0790
11707SOL    HW138398   4.734  11.028   1.346  0.3333 -0.2550  0.3798
11707SOL    HW238399   4.615  11.085   1.420  1.4537  0.6850  1.4955
11708SOL     OW38400   1.898   7.592   2.760 -0.9151 -0.4548  0.0119
11708SOL    HW138401   1.847   7.574   2.839  0.9658 -1.9715  0.9380
11708SOL    HW238402   1.870   7.526   2.697 -1.3241 -0.1798 -0.1042
11709SOL     OW38403  10.641   3.984   5.616  0.0005  0.0044 -0.0548
11709SOL    HW138404  10.655   3.907   5.562  0.2609  0.4215 -0.6008
11709SOL    HW238405  10.663   4.058   5.558  0.0250  0.4718  0.5390
11710SOL     OW38406   9.563   8.394   5.244 -0.4117  0.3665  0.0434
11710SOL    HW138407   9.642   8.415   5.293  2.5706 -2.5774 -2.9585
11710SOL    HW238408   9.527   8.317   5.288  0.5472 -0.4766 -0.6073
11711SOL     OW38409   1.340   3.605   7.165 -0.5100 -0.1385  0.2655
11711SOL    HW138410   1.248   3.598   7.190 -0.7948  1.3470 -0.2659
11711SOL    HW238411   1.365   3.516   7.139 -1.8749 -0.4941  0.1132
11712SOL     OW38412   4.824   3.152   1.531 -0.6945 -0.4531 -0.0702
11712SOL    HW138413   4.809   3.183   1.621  0.6700 -0.6612  0.2503
11712SOL    HW238414   4.757   3.197   1.479 -0.5910  0.8014  0.8317
11713SOL     OW38415   2.470   1.634   2.138 -0.2644 -0.1087 -0.1089
11713SOL    HW138416   2.550   1.601   2.180 -0.9980 -2.4227 -0.4069
11713SOL    HW238417   2.401   1.617   2.202 -0.7089  0.7606 -0.3433
11714SOL     OW38418   4.397   2.271   1.509 -0.4242  0.0668  0.1076
11714SOL    HW138419   4.351   2.236   1.585 -1.2105  0.0787 -0.3571
11714SOL    HW238420   4.370   2.363   1.505 -0.1350  0.1478 -0.0062
11715SOL     OW38421   4.502   6.167   5.198  0.6146  0.2206 -0.3650
11715SOL    HW138422   4.489   6.113   5.120  4.2985 -0.9661 -0.3482
11715SOL    HW238423   4.433   6.233   5.193 -0.3185 -0.8101 -3.7121
11716SOL     OW38424   2.893   4.667   0.987  0.0066  0.2913  0.2221
11716SOL    HW138425   2.911   4.706   1.072  0.4511 -0.3696  0.4384
11716SOL    HW238426   2.933   4.580   0.991 -2.9402 -1.1583  0.5962
11717SOL     OW38427   1.709   5.606   3.042 -0.2016  0.0173  0.2750
11717SOL    HW138428   1.619   5.625   3.017 -0.4625 -0.5323  0.7696
11717SOL    HW238429   1.738   5.539   2.980 -0.3546 -0.2782  0.5208
11718SOL     OW38430   0.774   6.527   7.071  0.0512  0.5991 -0.2039
11718SOL    HW138431   0.727   6.453   7.031 -0.9503  1.4872 -0.7118
11718SOL    HW238432   0.784   6.502   7.163 -0.1504 -0.2215 -0.3971
11719SOL     OW38433   3.148   4.230   3.298 -0.0846  0.2806 -0.2224
11719SOL    HW138434   3.092   4.157   3.271 -0.4744  0.4291  0.1595
11719SOL    HW238435   3.185   4.264   3.216 -1.7939  1.1716 -0.6908
11720SOL     OW38436   3.846   3.892   0.378  0.0565 -0.1228  0.7202
11720SOL    HW138437   3.846   3.796   0.381 -0.0927 -0.2083 -1.0328
11720SOL    HW238438   3.874   3.913   0.289  1.1231  1.4993  1.3971
11721SOL     OW38439   2.673   7.894   4.874  0.0853  0.4375 -0.5597
11721SOL    HW138440   2.598   7.847   4.910  0.8647 -0.3573  0.0856
11721SOL    HW238441   2.643   7.925   4.788 -0.5599 -0.9950 -0.8848
11722SOL     OW38442   7.069   6.934  10.371  0.5874  0.0626 -0.4751
11722SOL    HW138443   7.062   6.991  10.295  0.9191  2.0597  0.9111
11722SOL    HW238444   7.124   6.862  10.341  0.6175  0.7276 -2.1516
11723SOL     OW38445   4.375   6.559   9.475  0.2629 -0.3491  0.5279
11723SOL    HW138446   4.430   6.550   9.552  1.5173  0.4178 -0.2419
11723SOL    HW238447   4.317   6.633   9.495  1.0682  0.3067  0.4652
11724SOL     OW38448   4.346  10.827   7.335 -0.3245  0.2350 -0.1430
11724SOL    HW138449   4.340  10.732   7.327  1.0413  0.1374 -0.2684
11724SOL    HW238450   4.440  10.845   7.338 -0.5205  1.6860 -1.4383
11725SOL     OW38451   8.985   4.907   3.000 -0.1998  0.2253  0.1607
11725SOL    HW138452   8.963   4.847   2.929 -0.3507 -0.0226  0.4163
11725SOL    HW238453   8.952   4.992   2.971 -0.6060  0.0492  0.1015
11726SOL     OW38454   5.499   7.228   5.965 -0.1927  0.1204  0.1326
11726SOL    HW138455   5.462   7.185   6.042  1.2698 -0.9139  0.3201
11726SOL    HW238456   5.485   7.321   5.979 -1.9980 -0.1758  0.5236
11727SOL     OW38457   0.775   3.422  10.882  0.3864 -0.5525  0.2227
11727SOL    HW138458   0.733   3.428  10.967 -0.1912 -0.4288 -0.0699
11727SOL    HW238459   0.856   3.374  10.899 -0.6227 -2.2269  0.5218
11728SOL     OW38460   4.181   0.079   2.968  0.4942  0.4738 -0.2936
11728SOL    HW138461   4.174   0.006   3.030  1.2273 -3.1009 -3.9850
11728SOL    HW238462   4.271   0.110   2.978  0.7170 -0.2981  0.1966
11729SOL     OW38463   2.307   0.394   9.183  0.1402  0.6316 -0.0872
11729SOL    HW138464   2.256   0.451   9.242  1.3157  0.1612  1.4613
11729SOL    HW238465   2.243   0.359   9.122 -1.8133 -1.3190  2.8383
11730SOL     OW38466   2.093   1.459   9.295  0.1634  0.2552 -0.1619
11730SOL    HW138467   2.188   1.449   9.290  0.3196  0.8130  1.1045
11730SOL    HW238468   2.068   1.407   9.372 -0.9142 -1.8466 -1.8077
11731SOL     OW38469   2.127   6.458   1.461 -0.0114 -0.6006  0.3869
11731SOL    HW138470   2.053   6.404   1.490 -1.2719  1.0005  0.2662
11731SOL    HW238471   2.096   6.499   1.380  1.2372 -0.3604  0.0221
11732SOL     OW38472   0.078   8.719   9.092  0.3141  0.1896  0.0658
11732SOL    HW138473  -0.016   8.712   9.110  0.1124 -0.7039 -1.1928
11732SOL    HW238474   0.110   8.629   9.096  0.7680  0.2783 -1.1786
11733SOL     OW38475   4.702   9.556   7.535 -0.1034  0.2450 -0.4895
11733SOL    HW138476   4.763   9.590   7.469  0.1091  0.1182 -0.3611
11733SOL    HW238477   4.617   9.590   7.509 -0.2404 -0.8337 -1.5744
11734SOL     OW38478   7.733   3.659   0.021 -0.2133  0.1798  0.0383
11734SOL    HW138479   7.799   3.714  -0.021 -2.1474  1.7105 -1.1225
11734SOL    HW238480   7.680   3.624  -0.051 -2.0056  0.7587  1.0120
11735SOL     OW38481   7.539  11.066  10.744  0.1226 -0.4885  0.2334
11735SOL    HW138482   7.480  10.997  10.712  0.6379 -0.0811 -1.6689
11735SOL    HW238483   7.622  11.021  10.759  0.3865 -0.3480 -0.7620
11736SOL     OW38484   0.403   7.472   8.752  0.4281  0.2509 -0.1368
11736SOL    HW138485   0.479   7.413   8.756 -0.2485 -0.6994 -0.9314
11736SOL    HW238486   0.354   7.443   8.676 -0.4562  1.2233  0.0386
11737SOL     OW38487  10.686   1.800   9.867  0.7454  0.0251 -0.5156
11737SOL    HW138488  10.644   1.877   9.903  0.4381  1.4134 -3.5485
11737SOL    HW238489  10.627   1.727   9.888  1.2581  0.4317  2.7581
11738SOL     OW38490   3.367   9.055   4.024  0.3889  0.4321 -0.5241
11738SOL    HW138491   3.297   9.073   3.962 -0.0819  0.5429  0.0285
11738SOL    HW238492   3.436   9.015   3.971 -0.4149 -0.4600 -0.9443
11739SOL     OW38493   3.772   5.833   3.903  0.0192  0.0504 -0.1578
11739SOL    HW138494   3.733   5.760   3.856 -0.4061  0.6844 -0.8109
11739SOL    HW238495   3.814   5.886   3.834 -1.0703  1.2765  0.0907
11740SOL     OW38496   0.959   3.175   1.022 -0.1652  0.2407 -0.5870
11740SOL    HW138497   0.888   3.232   1.051 -0.2596 -0.4371  0.5682
11740SOL    HW238498   1.025   3.235   0.986 -0.4155  1.0418  0.2615
11741SOL     OW38499   2.437   7.353   9.334  0.4615 -0.0876 -0.7482
11741SOL    HW138500   2.459   7.442   9.360  0.7665 -0.4640  0.3479
11741SOL    HW238501   2.486   7.297   9.394 -0.5214 -0.9848 -0.7389
11742SOL     OW38502   5.431  10.942  10.723  0.1280  0.0182  0.1140
11742SOL    HW138503   5.349  10.992  10.727  0.2217  0.1264  1.1971
11742SOL    HW238504   5.422  10.887  10.645 -0.9982 -0.0092  0.2352
11743SOL     OW38505   5.957   2.879   3.431 -0.8698 -0.7888  0.9479
11743SOL    HW138506   5.896   2.865   3.358 -0.1382 -1.7926  0.5105
11743SOL    HW238507   6.043   2.880   3.389 -0.5839  1.1807  1.4760
11744SOL     OW38508   1.640   5.210   6.417 -0.1436  0.2657 -0.4854
11744SOL    HW138509   1.594   5.231   6.499  0.9423 -1.1093  0.5320
11744SOL    HW238510   1.585   5.143   6.376 -0.3222  0.4365 -0.5294
11745SOL     OW38511   4.418   4.734  10.999  0.0225  0.1138  0.5698
11745SOL    HW138512   4.326   4.705  10.994  0.3750 -0.8192 -2.3533
11745SOL    HW238513   4.468   4.653  11.002  0.8217  0.6149  1.0043
11746SOL     OW38514  10.365   6.977   8.543 -0.0875 -0.7461  0.4252
11746SOL    HW138515  10.460   6.964   8.554  0.4574  1.3583 -1.1763
11746SOL    HW238516  10.339   7.027   8.620  0.6337  0.7539 -0.2580
11747SOL     OW38517   7.925   6.170   2.901 -0.0796 -0.6188 -0.2562
11747SOL    HW138518   7.890   6.225   2.831 -1.1989  0.9033  1.4187
11747SOL    HW238519   7.960   6.093   2.856 -0.4823  0.4328 -2.4897
11748SOL     OW38520   6.140   0.217  11.358 -0.3994 -0.2155 -0.6091
11748SOL    HW138521   6.142   0.310  11.334  1.5322  0.1622  0.7074
11748SOL    HW238522   6.232   0.196  11.377 -1.2175 -1.2731  3.0631
11749SOL     OW38523   0.969   9.793  10.589 -0.2809 -0.0621 -0.8977
11749SOL    HW138524   0.978   9.765  10.680  1.9772  2.1651 -0.3388
11749SOL    HW238525   0.886   9.841  10.586 -1.4470 -1.9538 -0.6088
11750SOL     OW38526   7.476   6.103   5.969  0.2536  0.1922 -0.1688
11750SOL    HW138527   7.491   6.011   5.989  0.1473  0.0268 -0.8293
11750SOL    HW238528   7.558   6.133   5.930  0.2331  0.3325 -0.1041
11751SOL     OW38529   0.204   5.593   8.193  0.0338  0.4610  0.0359
11751SOL    HW138530   0.256   5.658   8.146  0.3088  0.4599  0.3393
11751SOL    HW238531   0.266   5.525   8.216 -0.4895 -0.5884 -1.4722
11752SOL     OW38532   5.148   4.555   8.190 -0.2786  0.8124  0.4145
11752SOL    HW138533   5.124   4.642   8.157 -1.0228  0.6518  0.5104
11752SOL    HW238534   5.152   4.500   8.112 -1.1599  0.6324  0.4876
11753SOL     OW38535   5.648   8.385   5.721  0.0577 -0.2888  0.0507
11753SOL    HW138536   5.587   8.356   5.789 -1.0491 -0.7887 -1.1145
11753SOL    HW238537   5.711   8.314   5.713  0.1801 -0.2393  0.5236
11754SOL     OW38538   8.388   4.256   1.004  0.2148 -0.1643  0.3907
11754SOL    HW138539   8.444   4.181   0.987  1.2344  0.7288 -0.4011
11754SOL    HW238540   8.304   4.233   0.965  0.2840 -1.1775  0.8197
11755SOL     OW38541   6.286   2.604  10.803 -0.1852 -0.4123  0.3724
11755SOL    HW138542   6.361   2.565  10.759 -1.1377 -1.8358 -0.0807
11755SOL    HW238543   6.230   2.635  10.732  1.2330  3.4283  0.6834
11756SOL     OW38544   3.715   9.969   7.499 -0.4695  0.3480 -0.2185
11756SOL    HW138545   3.662   9.921   7.436 -0.7153  0.0163  0.2352
11756SOL    HW238546   3.686  10.060   7.492  0.2275  0.5173 -1.3234
11757SOL     OW38547  10.307   6.319   2.764  0.1640 -0.2960  0.1172
11757SOL    HW138548  10.253   6.348   2.691 -0.1723 -0.4850  0.2838
11757SOL    HW238549  10.390   6.364   2.753 -0.9502  2.2647  1.4284
11758SOL     OW38550  11.340   5.910   4.135 -0.2056 -0.3876  0.0871
11758SOL    HW138551  11.374   5.920   4.224 -0.5681 -1.2252  0.3252
11758SOL    HW238552  11.248   5.888   4.147 -0.7613  1.3897 -0.5466
11759SOL     OW38553   2.255   9.963   4.421  0.0355 -0.1061  0.1092
11759SOL    HW138554   2.323   9.929   4.362 -0.2748 -0.8047  0.1421
11759SOL    HW238555   2.191  10.004   4.362  0.3331  0.2950  0.0576
11760SOL     OW38556  11.173   8.443   7.776  0.4730 -0.3717 -0.5882
11760SOL    HW138557  11.174   8.390   7.856 -0.1030 -0.4518 -0.6343
11760SOL    HW238558  11.263   8.435   7.742  1.1317  0.7861  0.7839
11761SOL     OW38559   7.562   6.310   4.749 -0.6369  0.9089 -0.4353
11761SOL    HW138560   7.575   6.393   4.704 -0.1189  2.4259  2.2899
11761SOL    HW238561   7.467   6.295   4.746 -0.6492  1.0868 -1.6948
11762SOL     OW38562   6.329   6.424   8.551 -0.0711  0.0057  0.0892
11762SOL    HW138563   6.415   6.419   8.510 -0.0561  1.2765 -0.0768
11762SOL    HW238564   6.311   6.518   8.557 -1.4199 -0.2412  0.1697
11763SOL     OW38565   1.919   6.457   7.962  0.1254 -0.1035  0.4222
11763SOL    HW138566   1.828   6.461   7.934  0.3264 -0.2694 -0.2756
11763SOL    HW238567   1.945   6.548   7.973  0.0669 -0.0322 -0.0190
11764SOL     OW38568   7.137   8.908   1.938  0.3293 -0.6377 -0.4501
11764SOL    HW138569   7.212   8.884   1.993  0.1124  0.8997  0.5859
11764SOL    HW238570   7.172   8.972   1.877  0.1352 -0.8833 -0.8221
11765SOL     OW38571   0.665   9.361   6.426 -0.0991  0.6529 -0.0412
11765SOL    HW138572   0.616   9.395   6.501  1.4725  0.2124  1.2687
11765SOL    HW238573   0.757   9.364   6.455  0.4530 -0.5934 -1.5292
11766SOL     OW38574  10.786   3.168   2.494 -0.0160  0.3216  0.7170
11766SOL    HW138575  10.703   3.167   2.541 -0.1331  1.7408  0.5804
11766SOL    HW238576  10.762   3.186   2.403  0.1744 -2.7114 -0.0311
11767SOL     OW38577   0.803   6.851   5.535  0.3219 -0.4039  0.1839
11767SOL    HW138578   0.885   6.900   5.536 -0.5825  1.1816  0.7010
11767SOL    HW238579   0.761   6.872   5.618 -0.7891 -0.8477 -0.2383
11768SOL     OW38580  10.592   8.653   7.447  0.2473  0.2736 -0.0509
11768SOL    HW138581  10.530   8.713   7.405 -0.4816  0.1385  0.7971
11768SOL    HW238582  10.554   8.566   7.434 -0.3557  0.2821  1.4293
11769SOL     OW38583   3.988   8.511   3.798 -0.0780 -0.0380  0.2303
11769SOL    HW138584   4.069   8.479   3.837 -1.3814 -1.7032  1.7842
11769SOL    HW238585   3.958   8.580   3.857  0.1498  0.4967 -0.2774
11770SOL     OW38586   0.686   3.717   9.577 -0.2290  0.2882  0.1452
11770SOL    HW138587   0.759   3.686   9.630 -0.1382  1.2093  0.5842
11770SOL    HW238588   0.702   3.811   9.566 -1.0791  0.4075 -0.1746
11771SOL     OW38589   1.824   8.049   7.079  0.4023 -0.0216 -0.1116
11771SOL    HW138590   1.737   8.083   7.102 -0.0401 -1.0157 -0.2360
11771SOL    HW238591   1.853   8.003   7.158  1.7260  2.0084  0.6358
11772SOL     OW38592   5.592   5.488   8.550 -0.0058 -0.1404  0.0726
11772SOL    HW138593   5.570   5.414   8.494 -0.6866 -0.2785  0.5034
11772SOL    HW238594   5.683   5.510   8.528  0.0398 -0.7901 -0.3987
11773SOL     OW38595   8.407   0.285   6.389 -0.0819 -0.1109 -0.0984
11773SOL    HW138596   8.488   0.239   6.409  0.3629 -0.1370 -1.7576
11773SOL    HW238597   8.369   0.235   6.317  0.1792  1.7906 -1.6486
11774SOL     OW38598   1.332   0.225  10.138 -0.2256 -0.0410 -0.5028
11774SOL    HW138599   1.351   0.162  10.208 -0.1208  0.2835 -0.2340
11774SOL    HW238600   1.297   0.172  10.067  1.4410 -0.6437 -0.9243
11775SOL     OW38601   5.774   7.273  11.115 -0.0336 -0.6580 -0.1280
11775SOL    HW138602   5.708   7.215  11.155  0.4598 -3.6343 -3.1601
11775SOL    HW238603   5.856   7.249  11.158  0.2939 -2.9804 -1.8174
11776SOL     OW38604   7.655   8.872   2.327  0.1073 -0.1684 -0.7993
11776SOL    HW138605   7.581   8.823   2.364  0.3871 -0.6150 -0.8246
11776SOL    HW238606   7.710   8.805   2.287  0.3578  0.2007 -1.0732
11777SOL     OW38607   8.549   9.132   2.020  0.5758  0.3218 -0.0399
11777SOL    HW138608   8.636   9.092   2.015  0.2351 -0.6771  1.4341
11777SOL    HW238609   8.522   9.141   1.928  2.1355  0.4882 -0.5169
11778SOL     OW38610   3.151   5.915   4.567  0.3009  0.5333  0.3464
11778SOL    HW138611   3.113   5.838   4.608 -0.8685  1.0131  0.1857
11778SOL    HW238612   3.173   5.887   4.478  0.4264  0.2294  0.4712
11779SOL     OW38613   1.117   3.658   9.087  0.1400 -0.0343  0.4595
11779SOL    HW138614   1.042   3.707   9.052 -0.3527  0.2709  1.8578
11779SOL    HW238615   1.077   3.589   9.141  0.8383  0.5000  1.7068
11780SOL     OW38616   1.909   4.111   0.993  0.1503 -0.3838  0.0918
11780SOL    HW138617   1.887   4.048   1.062 -0.0767 -1.3970 -0.8698
11780SOL    HW238618   1.999   4.137   1.011 -0.1784  0.0263  1.2431
11781SOL     OW38619   2.506   2.997   5.987  0.3827 -0.6921  0.1255
11781SOL    HW138620   2.507   3.076   5.933 -0.0081 -1.2191 -0.6821
11781SOL    HW238621   2.439   3.015   6.054 -0.2039 -0.6009 -0.4730
11782SOL     OW38622   2.048   2.803   7.659 -0.1727  0.0494  0.3993
11782SOL    HW138623   2.086   2.888   7.681 -0.5416  0.3566 -0.1225
11782SOL    HW238624   1.961   2.824   7.625 -1.0176 -0.6554  1.9867
11783SOL     OW38625   9.036   3.937   7.170 -0.7496 -0.4093 -0.2105
11783SOL    HW138626   8.992   3.852   7.180  0.1205 -0.9739 -1.0646
11783SOL    HW238627   8.991   3.978   7.096 -1.0215 -0.2096  0.0613
11784SOL     OW38628   0.239   9.810   4.321 -0.4966 -0.8371  0.3903
11784SOL    HW138629   0.319   9.768   4.353 -0.0227 -0.8295 -0.7423
11784SOL    HW238630   0.253   9.820   4.227 -0.6576  1.7167  0.5601
11785SOL     OW38631   9.190  10.115   9.108 -0.7803  0.3419 -0.0845
11785SOL    HW138632   9.247  10.047   9.071 -1.9148 -0.5841 -0.1994
11785SOL    HW238633   9.247  10.166   9.165  0.1093 -0.7166  0.0025
11786SOL     OW38634   2.065   1.979   0.574  0.1866  0.8527  0.1805
11786SOL    HW138635   2.066   2.022   0.488 -2.3334  0.1158 -0.3103
11786SOL    HW238636   2.104   2.042   0.633  1.2414  1.7210 -1.3605
11787SOL     OW38637   3.076   5.486   7.976 -0.3559 -0.6161  0.0235
11787SOL    HW138638   3.111   5.574   7.991 -1.8670  0.5979 -2.6583
11787SOL    HW238639   3.017   5.471   8.050  0.9667 -0.0170  1.2552
11788SOL     OW38640   1.481   9.470   7.777 -0.2476 -0.4328  0.1456
11788SOL    HW138641   1.483   9.376   7.758  0.9147  0.1080 -2.8910
11788SOL    HW238642   1.391   9.486   7.804 -0.8293 -2.1857 -0.5868
11789SOL     OW38643   3.310   2.080   0.892 -0.1233  0.1481  0.3271
11789SOL    HW138644   3.262   2.023   0.832  1.5829 -0.4620 -0.5295
11789SOL    HW238645   3.351   2.145   0.835  1.1554 -0.1660  0.8538
11790SOL     OW38646   2.287   2.916   6.675  0.1993  0.1580 -0.7477
11790SOL    HW138647   2.304   2.848   6.740 -0.3937  0.1309 -0.6184
11790SOL    HW238648   2.373   2.937   6.640  0.5989  0.5983  0.4605
11791SOL     OW38649   9.715  10.295   1.804 -0.0104  0.2813 -0.6500
11791SOL    HW138650   9.747  10.222   1.751  1.6741 -1.2402  2.1585
11791SOL    HW238651   9.685  10.253   1.885 -0.7355  2.5937  0.3618
11792SOL     OW38652  10.784   9.455   8.810  0.2833  0.0236  0.2152
11792SOL    HW138653  10.778   9.460   8.714  1.1725 -0.9171  0.0931
11792SOL    HW238654  10.821   9.369   8.827 -1.3475 -0.4704  1.4917
11793SOL     OW38655   7.893   6.643   8.740  0.6256 -0.3716  0.2365
11793SOL    HW138656   7.881   6.549   8.721 -0.3553 -0.2551  0.2297
11793SOL    HW238657   7.860   6.654   8.829 -2.1853  0.4977 -0.8224
11794SOL     OW38658   9.202   5.095  11.207  0.2500 -0.1159  0.0673
11794SOL    HW138659   9.123   5.148  11.207 -0.0926 -0.4994  2.6137
11794SOL    HW238660   9.215   5.071  11.299  2.1930 -1.7482 -0.5546
11795SOL     OW38661   3.210   8.603   6.017 -0.1650  0.2092  0.0746
11795SOL    HW138662   3.202   8.519   6.062 -1.6063  0.9200  1.2444
11795SOL    HW238663   3.303   8.625   6.023  0.0324 -0.7622  0.7715
11796SOL     OW38664   8.058   4.251   3.276  0.0922  0.8974 -0.0783
11796SOL    HW138665   7.992   4.216   3.215  0.3220  1.3329 -0.5813
11796SOL    HW238666   8.127   4.286   3.220  0.4551  1.0262  0.4393
11797SOL     OW38667   7.334   7.345   5.957  0.3644 -0.1032 -0.0808
11797SOL    HW138668   7.307   7.388   5.876  0.7483  2.0230  0.8411
11797SOL    HW238669   7.426   7.322   5.943  0.8032  1.3760  0.1129
11798SOL     OW38670   8.797   8.460   0.676 -0.1126  0.6486 -0.6203
11798SOL    HW138671   8.758   8.538   0.636 -0.1674  0.6740 -0.5187
11798SOL    HW238672   8.876   8.444   0.625  0.5237  1.4640  0.0935
11799SOL     OW38673  10.362   7.791   6.181 -0.0968 -0.0942 -0.0397
11799SOL    HW138674  10.407   7.770   6.264 -0.0046 -1.4593 -0.4089
11799SOL    HW238675  10.339   7.883   6.189 -0.9371 -0.4242  1.9213
11800SOL     OW38676   4.768  11.244  10.256 -0.1557  0.2988 -0.2248
11800SOL    HW138677   4.766  11.328  10.302  0.0673  0.0803  0.1892
11800SOL    HW238678   4.677  11.212  10.260 -0.6299  1.3138 -1.8923
11801SOL     OW38679   6.771  10.072   0.669 -0.0452 -0.1202 -0.0415
11801SOL    HW138680   6.863  10.081   0.644  0.0889 -1.7410 -0.1975
11801SOL    HW238681   6.760  10.135   0.740  1.8299 -1.5349  1.6342
11802SOL     OW38682   9.867  10.219   9.437  0.3180 -0.8770 -0.4736
11802SOL    HW138683   9.866  10.310   9.465 -0.8597 -0.2952 -2.2518
11802SOL    HW238684   9.841  10.170   9.515 -3.0344  0.6743 -0.4394
11803SOL     OW38685  10.301   3.576   1.004  0.1576  0.1936 -0.0334
11803SOL    HW138686  10.375   3.603   0.949 -0.3252 -0.2600 -0.9227
11803SOL    HW238687  10.283   3.486   0.978 -2.7407  1.2413 -2.1955
11804SOL     OW38688   6.756   1.905   8.564  0.0472  0.1792  0.2839
11804SOL    HW138689   6.753   1.994   8.531  0.3139 -0.6778 -2.2267
11804SOL    HW238690   6.679   1.863   8.527 -0.8021 -0.3673  2.4816
11805SOL     OW38691   7.190   2.447   5.269 -0.3056 -0.1978 -0.5746
11805SOL    HW138692   7.270   2.499   5.261 -0.4190  0.1005  0.1278
11805SOL    HW238693   7.119   2.512   5.271 -0.6199 -0.4820 -1.7094
11806SOL     OW38694   7.307   3.999   4.415  0.3651  0.1106  0.3509
11806SOL    HW138695   7.222   4.036   4.439 -0.2652  0.1441 -1.7465
11806SOL    HW238696   7.347   4.065   4.358  0.0733 -1.5237 -1.8572
11807SOL     OW38697   0.081   9.812   2.912 -0.4392  0.0612 -0.1705
11807SOL    HW138698   0.174   9.808   2.890 -0.3583 -1.4536  0.3185
11807SOL    HW238699   0.076   9.772   2.999 -1.4030  1.2530  0.3520
11808SOL     OW38700  10.058   8.958  10.114  0.1347  0.7001 -0.1491
11808SOL    HW138701  10.129   8.951  10.050  0.4548  1.8497  0.0740
11808SOL    HW238702  10.073   9.041  10.159 -1.8721  1.4222 -0.7189
11809SOL     OW38703  11.075   1.482   4.114  0.5449 -0.2365 -0.0267
11809SOL    HW138704  11.056   1.429   4.192  1.1711  1.3093  1.2361
11809SOL    HW238705  11.167   1.506   4.123  0.0563  1.7952 -0.0609
11810SOL     OW38706  11.070   3.558   1.274 -0.0042 -0.2217  0.4023
11810SOL    HW138707  11.047   3.499   1.202  0.3972 -1.0462  0.9312
11810SOL    HW238708  11.073   3.645   1.234 -0.8890 -0.5115 -0.3360
11811SOL     OW38709   2.983  10.442   4.213  0.4465 -0.2135 -0.2477
11811SOL    HW138710   3.062  10.472   4.168  0.0119 -1.4450 -1.9115
11811SOL    HW238711   3.016  10.407   4.296  1.2838  1.8932  0.3835
11812SOL     OW38712   4.680   0.004   2.209  0.6007 -0.2531  0.1852
11812SOL    HW138713   4.752   0.061   2.181 -0.0062  0.8584  0.8615
11812SOL    HW238714   4.625   0.059   2.265 -0.5595 -1.2063  0.0217
11813SOL     OW38715   1.420  11.093   4.953 -0.4109 -0.0552 -0.0660
11813SOL    HW138716   1.324  11.098   4.945 -0.3145  0.5019 -1.2039
11813SOL    HW238717   1.451  11.171   4.906  0.6141 -0.4282 -0.0184
11814SOL     OW38718   8.741   0.196   1.806 -0.0775 -0.2083  0.0961
11814SOL    HW138719   8.747   0.198   1.710  2.9963 -1.5981  0.1535
11814SOL    HW238720   8.785   0.115   1.831 -0.7485  0.1616  2.7247
11815SOL     OW38721   7.493   8.750   9.575 -0.1174  0.8045  0.1940
11815SOL    HW138722   7.414   8.802   9.560  0.3503  1.2083 -1.0069
11815SOL    HW238723   7.461   8.664   9.604 -1.0120  0.8694 -0.5757
11816SOL     OW38724   9.177   9.960   5.091 -0.2051  0.1203 -0.3891
11816SOL    HW138725   9.155   9.871   5.116 -0.4462  0.2390 -0.1707
11816SOL    HW238726   9.222   9.996   5.168  0.8279 -0.1415 -0.8530
11817SOL     OW38727   1.387   3.358   3.458 -0.3236 -0.1428 -0.3906
11817SOL    HW138728   1.412   3.266   3.460  0.0354 -0.1900 -3.1975
11817SOL    HW238729   1.400   3.389   3.548 -1.2389 -2.9833  0.8182
11818SOL     OW38730   5.481   8.702   0.663  0.2169  0.2497  0.1736
11818SOL    HW138731   5.418   8.632   0.679  0.6398 -0.2687 -0.3819
11818SOL    HW238732   5.428   8.781   0.656 -0.2040  0.1151  1.5370
11819SOL     OW38733   4.096   7.627   9.646  0.0628 -0.5300  0.0670
11819SOL    HW138734   4.060   7.572   9.576 -2.0947  0.8257  0.0107
11819SOL    HW238735   4.162   7.681   9.602 -1.3319  0.3709 -1.0135
11820SOL     OW38736   0.395   1.989   4.939  0.0691 -0.4842 -0.6235
11820SOL    HW138737   0.424   1.900   4.920 -0.5155 -0.8052 -0.0601
11820SOL    HW238738   0.402   2.036   4.856 -2.0648 -1.7312 -1.5926
11821SOL     OW38739   7.647   4.980   4.370 -0.5895  0.0606  0.1560
11821SOL    HW138740   7.730   4.943   4.401 -0.5824 -0.5708 -0.5878
11821SOL    HW238741   7.671   5.057   4.319 -0.6768  2.1426  3.0024
11822SOL     OW38742   7.973   6.025   4.165 -0.3553 -0.3044 -0.0299
11822SOL    HW138743   7.984   6.009   4.259 -0.6368  2.9403  0.6800
11822SOL    HW238744   7.883   5.998   4.146 -1.8392  2.8212  1.7384
11823SOL     OW38745   5.670  11.312   8.798  0.0013  0.0355  0.0224
11823SOL    HW138746   5.648  11.292   8.707  1.3085  1.3961 -0.6303
11823SOL    HW238747   5.710  11.231   8.830  1.1374  0.0902 -1.1678
11824SOL     OW38748  10.086   3.827   0.673 -0.2948 -0.0384  0.2765
11824SOL    HW138749  10.124   3.891   0.613  0.6492  0.5942  1.5048
11824SOL    HW238750  10.050   3.759   0.616  0.4480  0.5992 -0.9977
11825SOL     OW38751   7.398  10.785   8.942  0.2867 -0.3092  0.3654
11825SOL    HW138752   7.463  10.777   9.013  0.7381  1.4432  0.1944
11825SOL    HW238753   7.439  10.844   8.879 -0.5372 -1.0352 -0.8899
11826SOL     OW38754   4.293   7.225   0.848  0.2993  0.1927  0.2057
11826SOL    HW138755   4.288   7.244   0.754  1.4910 -1.8719 -0.3388
11826SOL    HW238756   4.283   7.130   0.854  0.0908  0.2885  2.2102
11827SOL     OW38757   8.047   6.322   4.241 -0.1406 -0.0856  0.0861
11827SOL    HW138758   8.140   6.342   4.233 -0.0984 -0.4541 -0.4072
11827SOL    HW238759   8.042   6.226   4.234 -0.5065 -0.1140  0.6280
11828SOL     OW38760   8.578   2.313   9.741 -0.0793 -0.3351  0.8144
11828SOL    HW138761   8.606   2.378   9.676  0.1829  0.5713  1.7984
11828SOL    HW238762   8.557   2.235   9.689  0.0877  0.3638 -0.3556
11829SOL     OW38763  10.224   3.486   0.524 -0.0284  0.1677  0.3354
11829SOL    HW138764  10.319   3.477   0.511  0.4510 -0.5269  3.4238
11829SOL    HW238765  10.205   3.576   0.499  1.6909  0.6793  0.7215
11830SOL     OW38766   7.726   7.412   1.384  0.8983  0.3670  0.2457
11830SOL    HW138767   7.710   7.320   1.407  1.3286  0.4296  0.8152
11830SOL    HW238768   7.746   7.411   1.291 -1.5883  0.1781 -0.3718
11831SOL     OW38769   6.151   1.985   8.249 -0.1525 -0.5877 -0.4909
11831SOL    HW138770   6.078   2.047   8.241 -0.3006 -0.8981 -1.7513
11831SOL    HW238771   6.216   2.017   8.187 -0.5381 -2.1020 -1.7182
11832SOL     OW38772  10.613   3.601   4.941  0.3296 -0.3748 -0.7272
11832SOL    HW138773  10.691   3.648   4.912  0.3705  0.5763  0.8006
11832SOL    HW238774  10.545   3.668   4.948  0.2034 -0.6186  0.8369
11833SOL     OW38775   9.549  10.532   7.497 -0.3247 -0.2345  0.1775
11833SOL    HW138776   9.466  10.565   7.532 -0.5182  2.5888 -2.5368
11833SOL    HW238777   9.522  10.476   7.423  0.1396  0.5303 -0.5875
11834SOL     OW38778   0.276   3.853   4.539  0.0955  0.2737  0.3583
11834SOL    HW138779   0.247   3.924   4.597 -0.4519 -0.3267  0.8320
11834SOL    HW238780   0.341   3.806   4.591  0.8871  0.7523 -0.1682
11835SOL     OW38781   8.082   2.172   6.566  0.2042  0.1522  0.2807
11835SOL    HW138782   8.118   2.116   6.636 -0.9965  0.0760  0.8644
11835SOL    HW238783   8.005   2.213   6.606 -0.2328  0.4747 -0.8650
11836SOL     OW38784   7.190  10.254   4.891 -0.6507  0.3621  0.0280
11836SOL    HW138785   7.283  10.277   4.893 -0.4074 -0.5961 -0.1218
11836SOL    HW238786   7.176  10.218   4.804 -1.2338  0.7508 -0.0444
11837SOL     OW38787   1.317   8.449   2.553 -0.1111 -1.1527 -0.2573
11837SOL    HW138788   1.339   8.541   2.539 -0.8590 -0.9920 -0.4574
11837SOL    HW238789   1.389   8.400   2.513  0.2076 -0.6571 -0.2951
11838SOL     OW38790   9.291  10.562   5.598 -0.8989  0.2130  0.0655
11838SOL    HW138791   9.249  10.612   5.669 -0.8610  0.3642 -0.0191
11838SOL    HW238792   9.330  10.629   5.542  0.3534  0.0330  0.6973
11839SOL     OW38793   6.975   8.061   3.242 -0.3730 -0.7806 -0.0927
11839SOL    HW138794   7.048   8.005   3.216 -0.9583 -1.7091  0.2089
11839SOL    HW238795   6.897   8.010   3.221 -1.0235  0.8594 -1.9689
11840SOL     OW38796  10.561  10.127   8.745 -0.1277  0.0183 -0.1768
11840SOL    HW138797  10.473  10.128   8.781 -0.3754  0.1761 -0.7705
11840SOL    HW238798  10.597  10.042   8.770  0.3920  0.8288  2.0426
11841SOL     OW38799  11.139   1.488   7.890 -0.1179 -0.1584 -0.3655
11841SOL    HW138800  11.159   1.495   7.797 -2.7046 -0.0199 -0.9873
11841SOL    HW238801  11.142   1.578   7.923  1.8791 -0.3178 -0.0130
11842SOL     OW38802   6.467   8.227   7.456  0.1668  0.2701 -0.6478
11842SOL    HW138803   6.453   8.315   7.422  0.7041  0.0258 -1.5389
11842SOL    HW238804   6.523   8.184   7.391  0.3496 -0.5639  0.0292
11843SOL     OW38805   8.724   1.438   6.574 -0.1412 -0.4009  0.0698
11843SOL    HW138806   8.785   1.502   6.536  0.0239 -1.4254 -1.4783
11843SOL    HW238807   8.651   1.434   6.513 -0.7308 -0.7924  0.7842
11844SOL     OW38808   9.301   4.428   0.840  0.1769  0.3565  0.1865
11844SOL    HW138809   9.248   4.402   0.916  0.3883 -1.3157 -0.2110
11844SOL    HW238810   9.384   4.456   0.878  0.5642 -1.2146  0.5506
11845SOL     OW38811   6.359   6.327   8.227 -0.6312 -0.5923 -0.2201
11845SOL    HW138812   6.383   6.420   8.223 -1.4503 -0.3763 -0.5817
11845SOL    HW238813   6.367   6.297   8.137  1.1860 -1.3172  0.1450
11846SOL     OW38814  10.149   1.039   1.760  0.2107 -0.1697 -0.1490
11846SOL    HW138815  10.190   1.030   1.674  1.7738 -2.3167  0.7191
11846SOL    HW238816  10.220   1.069   1.817 -0.4978  0.0694  0.6294
11847SOL     OW38817   6.284   1.756   0.324 -0.0437  0.2338 -0.1715
11847SOL    HW138818   6.345   1.744   0.397  1.4731 -0.3020 -1.4735
11847SOL    HW238819   6.330   1.719   0.248 -1.9366 -0.0483 -1.2413
11848SOL     OW38820   4.409   8.934  11.307  0.3084  0.2013  0.1432
11848SOL    HW138821   4.372   9.007  11.356  1.3082 -0.4786  2.0381
11848SOL    HW238822   4.468   8.892  11.370  1.4467 -0.8997 -1.6041
11849SOL     OW38823  11.123   7.103   8.291  0.4453 -0.1678 -0.3276
11849SOL    HW138824  11.200   7.085   8.236 -0.6228  1.2168 -2.4232
11849SOL    HW238825  11.049   7.086   8.233 -0.7974  0.3197  1.0652
11850SOL     OW38826   0.736   5.423   3.158 -0.1059 -0.1470 -0.4458
11850SOL    HW138827   0.707   5.511   3.132 -1.0862 -0.8229 -1.6943
11850SOL    HW238828   0.662   5.387   3.206 -0.6795 -1.1855 -2.0434
11851SOL     OW38829   2.079   0.872   0.660 -0.3318 -0.9051  0.0583
11851SOL    HW138830   2.070   0.885   0.566 -1.8868 -0.7694  0.2014
11851SOL    HW238831   2.072   0.959   0.697  1.7084 -0.7641  0.2575
11852SOL     OW38832   2.578   1.665  10.313 -0.7941  0.3936  0.1124
11852SOL    HW138833   2.567   1.610  10.391 -0.1312  1.1336  0.7423
11852SOL    HW238834   2.582   1.603  10.240  0.1535 -0.4112  0.8252
11853SOL     OW38835   2.766   1.444   5.113 -0.2522 -0.2298  0.0908
11853SOL    HW138836   2.740   1.352   5.108 -1.5613  0.1591 -0.7307
11853SOL    HW238837   2.859   1.444   5.092 -0.0057 -1.4608  1.0695
11854SOL     OW38838   3.599  11.035   2.202 -0.2810  0.7051 -0.2806
11854SOL    HW138839   3.556  11.084   2.272 -1.8571  0.1476 -0.8097
11854SOL    HW238840   3.683  11.008   2.239 -0.7202  1.1522  1.0918
11855SOL     OW38841   8.849   2.170   0.680  0.0370  0.2866  0.1562
11855SOL    HW138842   8.790   2.243   0.700  1.1023  1.7346 -1.6781
11855SOL    HW238843   8.901   2.160   0.759 -0.8536  0.7757  0.8346
11856SOL     OW38844   5.536   2.825   4.058 -0.6188 -0.0611 -0.1594
11856SOL    HW138845   5.528   2.893   3.992  0.4047 -0.2368 -0.4784
11856SOL    HW238846   5.447   2.791   4.069 -1.4265  2.2502  1.0187
11857SOL     OW38847   3.468   0.611   4.443  0.7354  0.0697  0.2524
11857SOL    HW138848   3.519   0.553   4.387  1.7190 -1.2578  2.3921
11857SOL    HW238849   3.515   0.612   4.526 -1.1961  1.1103  1.4124
11858SOL     OW38850   7.120   3.238   8.675  0.0841 -0.8386  0.1125
11858SOL    HW138851   7.213   3.259   8.676  0.2358 -1.4162 -0.9763
11858SOL    HW238852   7.077   3.324   8.671  0.6320 -0.6059 -1.5227
11859SOL     OW38853   6.577   4.506   5.918 -0.3927  0.4132  0.7881
11859SOL    HW138854   6.570   4.411   5.927  0.5719  0.0945 -1.2745
11859SOL    HW238855   6.513   4.529   5.852 -0.7906  1.2665  1.4419
11860SOL     OW38856   3.506   8.306  10.747  0.2572  0.7492 -0.2655
11860SOL    HW138857   3.554   8.275  10.671 -0.4712  1.6633 -1.1237
11860SOL    HW238858   3.560   8.281  10.822  1.3550  0.4948 -1.1258
11861SOL     OW38859   9.757   4.747   4.444  0.1472  0.2855  0.2783
11861SOL    HW138860   9.776   4.817   4.506  0.4977  1.6603 -1.3091
11861SOL    HW238861   9.840   4.698   4.437  0.1540  0.2259  0.7435
11862SOL     OW38862   2.546   3.272   5.254 -0.0284  0.1247  0.3307
11862SOL    HW138863   2.566   3.359   5.288  0.4933  0.2707 -0.3198
11862SOL    HW238864   2.604   3.213   5.303 -0.5444  0.1152  0.9295
11863SOL     OW38865  10.003   4.113   6.757 -0.3073  0.0391 -0.2366
11863SOL    HW138866  10.056   4.049   6.803 -0.9809  0.0649  0.5996
11863SOL    HW238867   9.916   4.107   6.798 -0.7635  0.4834 -1.1017
11864SOL     OW38868  11.273   4.018   3.851 -0.2515 -0.3732 -0.2674
11864SOL    HW138869  11.229   3.993   3.770 -0.5729 -0.7240  0.0117
11864SOL    HW238870  11.224   4.093   3.883 -0.3874 -0.5036 -0.1723
11865SOL     OW38871   1.747   1.780  10.219 -0.0891 -0.0269  0.1257
11865SOL    HW138872   1.841   1.761  10.229  0.0497  0.6244  0.1137
11865SOL    HW238873   1.703   1.701  10.251  0.4391  0.1639  1.3824
11866SOL     OW38874   8.898   2.253   3.152  0.2061  0.3797  0.6304
11866SOL    HW138875   8.897   2.346   3.129 -0.9864  0.5847  1.4378
11866SOL    HW238876   8.945   2.250   3.235  1.0571  0.1368  0.1448
11867SOL     OW38877   8.144   7.777   5.326  0.1573  0.0243 -0.4595
11867SOL    HW138878   8.194   7.706   5.286 -0.1769 -1.3610  1.4662
11867SOL    HW238879   8.194   7.801   5.404  0.8951  2.7909 -1.6543
11868SOL     OW38880   6.257  10.121   6.897  0.3378 -0.1191  0.5540
11868SOL    HW138881   6.335  10.067   6.880  1.4114  1.6568 -0.5141
11868SOL    HW238882   6.185  10.058   6.899  1.6809 -1.7525  0.8463
11869SOL     OW38883   9.394   8.531   8.349 -0.1266  0.3005 -0.2930
11869SOL    HW138884   9.463   8.481   8.393  0.8298  1.4007 -0.4898
11869SOL    HW238885   9.413   8.622   8.372 -0.2756  0.8096 -2.0468
11870SOL     OW38886   9.219  11.058   5.283 -0.0531 -0.5326 -0.0276
11870SOL    HW138887   9.283  11.055   5.355  1.3334  0.9008 -1.1273
11870SOL    HW238888   9.243  10.985   5.227 -0.7067 -1.2386  0.5910
11871SOL     OW38889  10.620   6.276   2.799  0.1812  0.4562  0.2287
11871SOL    HW138890  10.581   6.277   2.712 -0.0483  0.0840  0.3227
11871SOL    HW238891  10.712   6.296   2.785  0.2858 -0.2608 -0.1805
11872SOL     OW38892   7.710   2.908   4.491 -0.1812  0.4491  0.1163
11872SOL    HW138893   7.710   2.823   4.446 -1.0838  0.3790  0.2286
11872SOL    HW238894   7.625   2.946   4.470 -0.1696  0.9013  0.8640
11873SOL     OW38895   4.528   5.423  11.371 -0.3394 -0.6150  0.0371
11873SOL    HW138896   4.521   5.507  11.415  1.0589 -0.2469 -0.4058
11873SOL    HW238897   4.551   5.361  11.440 -1.5856 -0.7060  0.4010
11874SOL     OW38898   5.602   5.594   4.924 -0.4146  0.8010  0.2595
11874SOL    HW138899   5.682   5.621   4.878 -0.0432  0.4245  0.6724
11874SOL    HW238900   5.545   5.559   4.855  0.4600 -0.5266  0.1762
11875SOL     OW38901   9.887   7.295   4.394  0.4497 -0.2727 -0.0247
11875SOL    HW138902   9.861   7.270   4.483  0.1445  1.0635  0.2761
11875SOL    HW238903   9.805   7.302   4.347  0.5977 -0.7585 -0.3602
11876SOL     OW38904   3.160   4.469   6.068  0.3284 -0.4216  0.0455
11876SOL    HW138905   3.121   4.383   6.056  1.1477 -0.6938 -0.7931
11876SOL    HW238906   3.196   4.491   5.982  2.8149 -0.6127  0.9520
11877SOL     OW38907   8.380   4.554   2.703 -0.2898 -0.4698 -0.5200
11877SOL    HW138908   8.397   4.635   2.655 -0.7040 -1.8873 -3.2885
11877SOL    HW238909   8.329   4.500   2.641 -2.4719 -1.7876  2.2091
11878SOL     OW38910   8.659   5.826   5.011 -0.0495  0.8074  0.3629
11878SOL    HW138911   8.693   5.744   4.976 -0.9558  0.8240 -0.6143
11878SOL    HW238912   8.668   5.888   4.939  0.1778  1.4448  0.9322
11879SOL     OW38913   9.586  10.346   4.308 -0.2536 -0.2384  0.1501
11879SOL    HW138914   9.516  10.286   4.336  1.2561 -0.9975  2.5909
11879SOL    HW238915   9.554  10.382   4.225 -2.9238 -1.5514  0.4776
11880SOL     OW38916   3.443   3.147   5.479  0.4655  0.1243  0.4768
11880SOL    HW138917   3.494   3.065   5.475 -0.3864 -0.4279  0.6818
11880SOL    HW238918   3.362   3.123   5.525 -0.5332  0.6815 -0.9182
11881SOL     OW38919  10.482   4.173   6.483  0.0039  0.4608 -0.4644
11881SOL    HW138920  10.453   4.252   6.528 -0.8217 -0.0826 -0.0173
11881SOL    HW238921  10.526   4.205   6.404 -0.3679  1.3549 -0.3189
11882SOL     OW38922   6.052  10.578   5.423 -0.0489 -0.3288 -0.4041
11882SOL    HW138923   6.019  10.640   5.488 -2.2792  0.3105 -2.0396
11882SOL    HW238924   6.104  10.630   5.363  0.1897 -0.5287 -0.3756
11883SOL     OW38925   4.527   0.000   4.012  0.0440  0.2105 -0.7610
11883SOL    HW138926   4.506   0.039   3.927 -1.3006  0.5689 -0.2965
11883SOL    HW238927   4.488  -0.087   4.009  2.0707 -0.7410 -1.3721
11884SOL     OW38928   9.696   6.931   7.405  0.3285 -0.9216 -0.0331
11884SOL    HW138929   9.640   6.858   7.381 -0.1348 -0.6003  0.0443
11884SOL    HW238930   9.637   7.006   7.408  0.7668 -0.5749  0.0463
11885SOL     OW38931   7.178  11.277   1.984 -1.0431 -0.1663  0.1610
11885SOL    HW138932   7.247  11.265   2.049 -2.3666 -0.5864  1.5523
11885SOL    HW238933   7.132  11.356   2.013 -0.6152  0.6295 -1.2586
11886SOL     OW38934   2.743   0.557   6.968 -0.1757  0.2877 -0.3412
11886SOL    HW138935   2.799   0.574   6.892 -0.3385 -1.3930 -0.8815
11886SOL    HW238936   2.755   0.634   7.023  1.8790  0.4579 -0.9099
11887SOL     OW38937   6.888   5.388   8.065 -0.5802 -0.3537 -0.0016
11887SOL    HW138938   6.902   5.396   8.159  0.1299  0.2394 -0.1575
11887SOL    HW238939   6.826   5.315   8.057  0.6393 -1.5235  0.8193
11888SOL     OW38940   8.964   9.782   4.711 -0.2303 -0.0209  0.3207
11888SOL    HW138941   8.995   9.867   4.741  0.3702  0.0252 -0.4049
11888SOL    HW238942   8.942   9.796   4.619  0.2566 -0.7462  0.0885
11889SOL     OW38943   6.416   7.063   6.208  0.2455  0.2298 -1.2896
11889SOL    HW138944   6.406   7.158   6.205 -0.9177  0.1769  0.1607
11889SOL    HW238945   6.336   7.030   6.166  0.2181 -0.1099 -0.9705
11890SOL     OW38946   3.591   8.012   7.749 -0.1898  0.2654 -0.7734
11890SOL    HW138947   3.599   7.998   7.843  0.7794  1.2212 -0.6902
11890SOL    HW238948   3.529   7.945   7.719 -1.3516  0.6411  0.7069
11891SOL     OW38949   0.348   1.904   6.519 -0.3517  0.0336 -0.8908
11891SOL    HW138950   0.336   1.841   6.590  0.2450  1.2324  0.3320
11891SOL    HW238951   0.267   1.898   6.468 -0.2487 -1.7952 -0.8993
11892SOL     OW38952   1.408   7.228   3.220  0.6297  0.1851  0.2738
11892SOL    HW138953   1.448   7.227   3.307  0.4042 -1.1983  0.3835
11892SOL    HW238954   1.316   7.208   3.235  0.2182  1.6322 -0.1451
11893SOL     OW38955  10.027   8.281   4.538  0.8116 -0.4172  0.3540
11893SOL    HW138956  10.092   8.349   4.554  0.6391 -0.0724 -0.3279
11893SOL    HW238957  10.018   8.235   4.621 -0.2623  1.4420  1.3331
11894SOL     OW38958   7.347   6.153   2.220  0.2116  0.2258 -0.5036
11894SOL    HW138959   7.383   6.116   2.300  0.8423  1.5540 -0.1316
11894SOL    HW238960   7.309   6.237   2.247 -0.0094  0.4662 -1.5024
11895SOL     OW38961  10.929   2.716   4.652 -0.2396  0.3587  0.0436
11895SOL    HW138962  10.996   2.651   4.669 -1.7064 -0.7557  1.9775
11895SOL    HW238963  10.941   2.782   4.721  0.2933  1.4074 -1.0056
11896SOL     OW38964   5.065   8.275   1.615  0.5821 -0.7253  0.1684
11896SOL    HW138965   5.104   8.246   1.533  0.8274 -0.1333  0.0730
11896SOL    HW238966   5.067   8.198   1.671  2.7408 -0.4958  0.4982
11897SOL     OW38967   8.234   1.086   8.136  0.1603 -0.2518 -0.1049
11897SOL    HW138968   8.318   1.039   8.137  1.4389  1.8512 -0.6230
11897SOL    HW238969   8.201   1.072   8.047  1.3581  1.0865 -0.8070
11898SOL     OW38970  10.097   4.384   1.348  0.0860  0.5037  0.0620
11898SOL    HW138971  10.095   4.427   1.262 -0.7535  0.4920  0.0732
11898SOL    HW238972  10.143   4.446   1.404  1.0762  0.3060 -0.4962
11899SOL     OW38973  11.190   5.336   1.207  0.5862  0.1294 -0.2317
11899SOL    HW138974  11.108   5.307   1.247 -0.3286 -0.3020 -2.3155
11899SOL    HW238975  11.196   5.429   1.230 -0.5393  0.1906 -0.1377
11900SOL     OW38976   4.228   9.226   8.339  0.8688 -0.1049 -0.2733
11900SOL    HW138977   4.215   9.148   8.286  1.3679 -0.4421  0.0923
11900SOL    HW238978   4.306   9.268   8.302 -0.0676  0.8608 -1.2184
11901SOL     OW38979  10.313   6.488   6.285 -0.5128 -0.4743 -0.2046
11901SOL    HW138980  10.268   6.487   6.201 -1.1413 -0.5308  0.1281
11901SOL    HW238981  10.248   6.523   6.347  0.7821  2.1974 -0.2142
11902SOL     OW38982   6.147   1.977   8.529  0.4269 -0.4683 -0.1326
11902SOL    HW138983   6.128   1.966   8.435 -2.0070 -1.5155  0.4080
11902SOL    HW238984   6.123   1.893   8.568  0.0401  0.4136  1.6233
11903SOL     OW38985   9.913   7.500   8.357 -0.0790  1.0152 -0.2894
11903SOL    HW138986   9.888   7.428   8.415 -0.5529  0.6936 -0.8778
11903SOL    HW238987   9.993   7.536   8.396 -0.2247  0.6164  0.3923
11904SOL     OW38988  10.441   9.190   4.122  0.5233  0.1168  0.2276
11904SOL    HW138989  10.457   9.253   4.192 -1.0477  0.0126  0.7294
11904SOL    HW238990  10.510   9.207   4.058 -0.1155  2.7120  0.0983
11905SOL     OW38991   4.532   2.549   2.164  0.0063 -0.1033  0.0178
11905SOL    HW138992   4.616   2.536   2.121  0.6627  2.4248  0.3645
11905SOL    HW238993   4.509   2.639   2.144 -1.0754  0.2538  2.5245
11906SOL     OW38994   1.056   4.336   2.703  0.1148 -0.2914 -0.5562
11906SOL    HW138995   1.043   4.336   2.798 -0.2357  1.0060 -0.5855
11906SOL    HW238996   1.150   4.323   2.691  0.0652 -1.1578 -0.0608
11907SOL     OW38997   2.437   2.737   1.579 -0.1157 -0.1423  0.0423
11907SOL    HW138998   2.452   2.645   1.557 -0.8878 -0.0313 -1.0434
11907SOL    HW238999   2.522   2.779   1.564  0.2653 -0.6773  0.6348
11908SOL     OW39000   8.307   0.315   1.237 -0.4497  0.1231  0.1177
11908SOL    HW139001   8.324   0.250   1.170 -1.9428 -1.1012  0.8678
11908SOL    HW239002   8.226   0.357   1.209  0.6586  1.9525 -0.5320
11909SOL     OW39003   9.007   4.216   3.974 -0.2912 -0.2665  0.7515
11909SOL    HW139004   8.936   4.158   3.947 -1.6687  0.7448  1.9782
11909SOL    HW239005   9.015   4.201   4.069 -0.0493  0.8348  0.9200
11910SOL     OW39006   7.117   4.404   7.043  0.1667 -0.3608 -0.2077
11910SOL    HW139007   7.095   4.385   6.952  0.8981 -0.5559 -0.3462
11910SOL    HW239008   7.051   4.468   7.071 -1.7195 -2.2349 -0.0556
11911SOL     OW39009   8.344   5.184   9.097 -0.2662 -0.0682 -0.1062
11911SOL    HW139010   8.305   5.113   9.148 -0.5023 -1.0625 -1.6025
11911SOL    HW239011   8.366   5.144   9.013  2.0330  1.0037 -0.0793
11912SOL     OW39012   2.386  10.025   9.108 -0.4178 -0.1927  0.4667
11912SOL    HW139013   2.479  10.043   9.124 -0.5709  0.8618  0.2747
11912SOL    HW239014   2.385   9.940   9.065  0.4720 -0.1714  0.3863
11913SOL     OW39015   1.482   7.754   1.157  0.1488  0.2016 -0.0271
11913SOL    HW139016   1.418   7.815   1.193  1.1021  1.9664 -1.1983
11913SOL    HW239017   1.552   7.810   1.123  1.8863 -1.6270  0.3823
11914SOL     OW39018   1.714   4.463   6.194 -0.2988 -0.1633 -0.5029
11914SOL    HW139019   1.775   4.402   6.235 -0.5928  1.3192  2.4609
11914SOL    HW239020   1.656   4.408   6.141  1.7780 -1.9228 -1.0771
11915SOL     OW39021   8.780   3.512   3.228 -0.3305 -0.2373  0.0944
11915SOL    HW139022   8.701   3.527   3.280  0.4352  0.3666  1.1200
11915SOL    HW239023   8.788   3.590   3.174 -0.7203 -0.5398 -0.4126
11916SOL     OW39024   7.864   7.197  10.915 -0.1324  0.1709 -0.3706
11916SOL    HW139025   7.862   7.230  10.825 -2.3212  0.5409 -0.2537
11916SOL    HW239026   7.792   7.244  10.959 -0.1589 -1.1813  1.1261
11917SOL     OW39027   5.185   9.166  10.076 -0.0207 -0.2154 -0.0855
11917SOL    HW139028   5.099   9.164  10.119 -0.4919  0.4763 -0.9602
11917SOL    HW239029   5.166   9.151   9.984  0.6353  1.2809 -0.4909
11918SOL     OW39030   7.899   9.456   9.605 -0.0016  0.0081 -0.6869
11918SOL    HW139031   7.904   9.365   9.634 -1.4497  0.3335  0.6976
11918SOL    HW239032   7.951   9.504   9.669  0.6910  0.2003 -1.3713
11919SOL     OW39033  11.051   1.489   6.394  0.2823  0.3386 -0.1290
11919SOL    HW139034  11.113   1.446   6.335  0.7292  0.0044  0.5667
11919SOL    HW239035  11.085   1.578   6.404 -0.0349  0.5278 -0.7087
11920SOL     OW39036   9.449  10.232   4.769 -0.4598  0.7112 -0.0704
11920SOL    HW139037   9.402  10.181   4.704  0.4599  0.0106 -0.2080
11920SOL    HW239038   9.384  10.251   4.837 -0.9611 -0.1508 -0.2993
11921SOL     OW39039   0.457   5.997   8.008  0.1346 -0.1758  0.1575
11921SOL    HW139040   0.469   6.058   8.081 -1.5335  1.6530 -0.9657
11921SOL    HW239041   0.519   6.028   7.941 -0.2795 -0.0690 -0.1859
11922SOL     OW39042   1.809   9.638   0.181  0.2916  0.5194  0.6926
11922SOL    HW139043   1.763   9.680   0.108  1.9079  2.7627  0.8423
11922SOL    HW239044   1.765   9.670   0.259  0.4039  0.4916  0.7684
11923SOL     OW39045   4.095   9.576   8.837  0.4747  0.1606 -0.6352
11923SOL    HW139046   4.150   9.554   8.762  1.5390  0.0110  0.1635
11923SOL    HW239047   4.011   9.604   8.799  1.1408  0.5182 -1.8801
11924SOL     OW39048   8.632  10.847   4.321 -0.1201 -0.3565 -0.1862
11924SOL    HW139049   8.716  10.875   4.284 -0.1186  1.6181  1.1786
11924SOL    HW239050   8.645  10.852   4.416 -1.9645  0.6665  0.0524
11925SOL     OW39051  10.797   8.331   8.694 -0.5292 -0.2917 -0.7453
11925SOL    HW139052  10.867   8.302   8.752  0.6495  1.4734 -1.2089
11925SOL    HW239053  10.758   8.250   8.660  1.6114 -1.3341 -0.8367
11926SOL     OW39054   1.319   2.539   2.542 -0.0005 -0.2970 -0.8502
11926SOL    HW139055   1.310   2.619   2.594 -0.1492 -0.8710  0.0343
11926SOL    HW239056   1.250   2.545   2.476  1.1839  1.1927 -2.0396
11927SOL     OW39057   0.186   4.764   7.031 -0.4247 -0.3044 -0.0170
11927SOL    HW139058   0.214   4.854   7.046 -0.8060 -0.4974  2.2089
11927SOL    HW239059   0.223   4.715   7.104 -2.9498 -1.3430  0.6796
11928SOL     OW39060   0.311   0.856  10.682  0.7592 -0.0710 -0.3886
11928SOL    HW139061   0.279   0.923  10.742  1.5431  0.3779 -0.4498
11928SOL    HW239062   0.282   0.773  10.720  1.1621  0.2114  0.5594
11929SOL     OW39063   5.506   2.696   1.221  0.3385 -0.2619  1.2192
11929SOL    HW139064   5.429   2.644   1.245 -0.0213 -0.7232 -0.7728
11929SOL    HW239065   5.470   2.782   1.198  0.4098 -0.4614  0.3396
11930SOL     OW39066   8.533   4.507   6.021  0.1078 -0.4184  0.3364
11930SOL    HW139067   8.593   4.542   6.087 -1.7904  0.2439  1.8202
11930SOL    HW239068   8.499   4.426   6.060  0.6487 -1.2436 -0.8520
11931SOL     OW39069   7.100   3.379   5.816 -0.2351  0.1528 -0.2788
11931SOL    HW139070   7.041   3.454   5.815 -0.4014  0.0391 -1.7879
11931SOL    HW239071   7.107   3.353   5.724 -0.2534 -1.7499  0.2141
11932SOL     OW39072   5.486   0.433   5.500  0.0829  0.4800 -0.0908
11932SOL    HW139073   5.427   0.495   5.543  1.0210  0.9693  0.5352
11932SOL    HW239074   5.491   0.464   5.410 -1.6179 -0.3377 -0.5068
11933SOL     OW39075   5.342   7.137   5.050  0.1384  0.1274  0.2303
11933SOL    HW139076   5.359   7.231   5.055  0.8692  0.0043  0.2142
11933SOL    HW239077   5.254   7.126   5.086  0.3177  0.7431  0.8728
11934SOL     OW39078  10.199   8.742   0.258  0.3679 -0.2813 -0.0380
11934SOL    HW139079  10.264   8.754   0.328  2.0761 -0.9911 -1.4285
11934SOL    HW239080  10.209   8.820   0.204 -0.6016  0.0274  0.2039
11935SOL     OW39081   3.542   2.853  10.779 -0.1852 -0.0248 -0.3497
11935SOL    HW139082   3.625   2.851  10.827 -0.6383 -1.8020  0.4373
11935SOL    HW239083   3.560   2.907  10.702  1.3288  0.6775  0.4460
11936SOL     OW39084   1.429   1.210   0.273  0.0801  0.1571  0.4735
11936SOL    HW139085   1.447   1.290   0.223 -0.8116  0.2697  0.3234
11936SOL    HW239086   1.356   1.169   0.226 -0.3702 -0.0442  1.3426
11937SOL     OW39087   5.574   0.951  10.509  0.1398  0.0575  0.0131
11937SOL    HW139088   5.479   0.951  10.516  0.1361  0.2783 -0.0361
11937SOL    HW239089   5.602   1.029  10.557  0.3591 -0.5646  0.9314
11938SOL     OW39090   7.433   0.465   8.930 -0.2158 -0.2594 -0.2570
11938SOL    HW139091   7.471   0.388   8.889  0.0886 -0.3911  0.2623
11938SOL    HW239092   7.488   0.481   9.007 -1.0492 -0.2913  0.3593
11939SOL     OW39093   2.046  10.748   7.430 -0.3063  0.1539  0.0475
11939SOL    HW139094   2.103  10.802   7.485 -0.2738  0.9304 -0.7196
11939SOL    HW239095   2.099  10.730   7.352 -1.0690  0.7988 -0.6318
11940SOL     OW39096  10.978   6.555   7.180  0.1465  0.5765 -0.2727
11940SOL    HW139097  10.933   6.565   7.096  1.3753  0.8491 -0.9189
11940SOL    HW239098  11.069   6.575   7.161  0.4156  0.8251  1.1808
11941SOL     OW39099   1.487   5.317   6.625  0.6508 -0.0136  0.2892
11941SOL    HW139100   1.515   5.395   6.673  1.8906 -1.9807  3.0527
11941SOL    HW239101   1.401   5.296   6.660 -0.0123  0.4518 -0.9819
11942SOL     OW39102   4.432   6.805   8.163 -0.3799 -0.0893 -0.0300
11942SOL    HW139103   4.337   6.821   8.155 -0.4495  0.4131  1.4856
11942SOL    HW239104   4.448   6.732   8.105 -1.7544 -0.3397 -0.1460
11943SOL     OW39105   3.036   4.829   8.564  0.1535  0.2602  0.1010
11943SOL    HW139106   3.004   4.765   8.500  0.6174  0.2045 -0.0746
11943SOL    HW239107   3.110   4.871   8.521  0.4585  0.2332  0.5970
11944SOL     OW39108   6.116   4.359   0.939 -0.5318  0.2283 -0.1789
11944SOL    HW139109   6.191   4.385   0.992 -1.9068  1.6980  1.1751
11944SOL    HW239110   6.088   4.275   0.977 -1.6264  1.3640  1.6650
11945SOL     OW39111   8.333   1.834   0.257 -0.4610 -0.0373  0.4843
11945SOL    HW139112   8.374   1.902   0.310 -0.7923  0.2503  0.3743
11945SOL    HW239113   8.250   1.816   0.301 -0.2079 -0.6422  0.7265
11946SOL     OW39114   4.887   6.961  10.716 -0.2408  0.5841  0.3845
11946SOL    HW139115   4.819   6.916  10.765 -0.4844  1.2440  0.6617
11946SOL    HW239116   4.924   6.894  10.659  0.1892 -0.2504  1.6084
11947SOL     OW39117   9.793  10.710   0.425 -0.3978  0.4115  0.1121
11947SOL    HW139118   9.703  10.687   0.399 -0.3558 -1.7283  1.6112
11947SOL    HW239119   9.843  10.630   0.413  1.0864  1.2552  0.4013
11948SOL     OW39120  11.065   6.093   8.047 -0.0418  0.0670  0.4349
11948SOL    HW139121  11.126   6.129   7.983  0.3575  0.2645  0.9228
11948SOL    HW239122  11.027   6.170   8.089 -1.4987 -0.0117 -0.6570
11949SOL     OW39123   2.748   1.920   6.147  0.0697 -0.5167 -0.0726
11949SOL    HW139124   2.708   1.955   6.227 -2.6052  0.9169 -1.8692
11949SOL    HW239125   2.826   1.973   6.135 -0.0698 -0.0246  1.0227
11950SOL     OW39126   3.338   0.362   9.282  0.4511  0.8306 -0.0376
11950SOL    HW139127   3.270   0.319   9.231  0.7634  0.8630 -0.4810
11950SOL    HW239128   3.381   0.421   9.221  0.2258  1.5603  0.4883
11951SOL     OW39129   9.835   4.021   0.479  0.3450 -0.3879 -0.5332
11951SOL    HW139130   9.801   4.008   0.568 -1.3365  1.0196 -0.9236
11951SOL    HW239131   9.824   3.935   0.437 -0.5194 -0.5953  0.0916
11952SOL     OW39132   2.880   9.742  10.304 -0.0154  0.2688  0.2095
11952SOL    HW139133   2.860   9.662  10.353  1.4594 -0.6099 -0.5324
11952SOL    HW239134   2.939   9.790  10.361 -0.5414  0.6240  0.4626
11953SOL     OW39135   9.014   2.183   0.912  0.0446 -0.5314  0.8147
11953SOL    HW139136   9.054   2.096   0.921 -0.9747 -1.0411  0.5472
11953SOL    HW239137   8.981   2.203   1.000 -2.7744 -1.9782  0.2286
11954SOL     OW39138  10.209   0.341  11.394 -0.3815 -0.2734  0.0786
11954SOL    HW139139  10.275   0.404  11.422 -0.1424 -0.5282  0.1020
11954SOL    HW239140  10.223   0.330  11.300 -1.7013  1.1800 -0.3259
11955SOL     OW39141   6.437   7.857   5.931  0.0841 -0.2065 -0.7760
11955SOL    HW139142   6.478   7.943   5.924 -1.7205  0.7743 -0.0624
11955SOL    HW239143   6.349   7.870   5.894  0.4608 -2.2955 -2.6087
11956SOL     OW39144   0.442   9.451   4.045  0.1362 -0.6413  0.6025
11956SOL    HW139145   0.434   9.468   3.951  0.6949  0.1676  0.6979
11956SOL    HW239146   0.354   9.465   4.080  0.0293 -0.4878  0.2736
11957SOL     OW39147   0.870   3.704   1.318 -0.2855 -0.2488 -0.3397
11957SOL    HW139148   0.808   3.654   1.371 -0.1951 -0.7011 -0.6497
11957SOL    HW239149   0.863   3.794   1.350 -0.4262 -0.4684  0.2476
11958SOL     OW39150  10.788   6.461   5.810  0.3191  0.3172 -0.6410
11958SOL    HW139151  10.766   6.524   5.740  0.6048 -0.0679 -1.0846
11958SOL    HW239152  10.739   6.382   5.787  2.7454 -0.8686 -2.1554
11959SOL     OW39153  10.172   6.137   3.898 -0.2709 -0.8916 -0.2415
11959SOL    HW139154  10.124   6.059   3.868  0.6585 -1.4223 -0.3845
11959SOL    HW239155  10.240   6.102   3.956 -0.3776 -0.1009  0.3686
11960SOL     OW39156   1.864   7.420   8.485  0.1875 -0.0815  0.7955
11960SOL    HW139157   1.866   7.402   8.391  0.0124  1.4662  0.4616
11960SOL    HW239158   1.950   7.458   8.504  1.1136 -2.5083  1.7655
11961SOL     OW39159   7.461   6.731   0.145  0.1763 -0.0577  0.2663
11961SOL    HW139160   7.427   6.673   0.076  0.2782  0.4372 -0.2106
11961SOL    HW239161   7.434   6.818   0.117  1.6851  0.3378 -0.0362
11962SOL     OW39162   1.098  10.401   4.054  0.2096  0.6010 -0.3554
11962SOL    HW139163   1.157  10.464   4.093 -0.5346  1.7243 -0.9753
11962SOL    HW239164   1.044  10.453   3.994 -1.8569 -0.2382  0.6765
11963SOL     OW39165   4.652   8.730   2.472  0.0014 -0.1202 -0.1983
11963SOL    HW139166   4.567   8.697   2.501 -0.1370  0.0638 -0.4001
11963SOL    HW239167   4.707   8.651   2.467  0.8990  0.0725  3.3741
11964SOL     OW39168   8.904   6.762   6.832 -0.2317 -0.3288 -0.0058
11964SOL    HW139169   8.869   6.720   6.754 -0.4572 -0.2290  0.0411
11964SOL    HW239170   8.960   6.832   6.798 -0.2721 -0.3313 -0.0788
11965SOL     OW39171  10.182   0.874   7.191 -0.0647  0.3239  0.1965
11965SOL    HW139172  10.236   0.796   7.176 -1.1621 -0.3141 -0.5947
11965SOL    HW239173  10.092   0.841   7.191 -0.5759  1.6573 -0.5536
11966SOL     OW39174  11.173   3.397   6.572  0.0895 -0.2383  0.3337
11966SOL    HW139175  11.121   3.421   6.495 -0.7827 -0.4835  0.8256
11966SOL    HW239176  11.263   3.396   6.541 -0.2575 -0.4350 -0.7130
11967SOL     OW39177   5.509   7.884   7.276 -0.0847  0.4511 -0.3413
11967SOL    HW139178   5.496   7.804   7.225  2.1211 -1.2319  1.5147
11967SOL    HW239179   5.568   7.937   7.222  0.7526 -0.4771 -0.3551
11968SOL     OW39180  11.032   5.083   9.788 -0.9478  0.3789 -0.0760
11968SOL    HW139181  11.110   5.138   9.779 -1.5466  1.8344  2.5814
11968SOL    HW239182  11.042   5.040   9.873 -1.4646 -2.1932 -1.2068
11969SOL     OW39183  11.348   1.411   3.680  0.5472  0.2856  0.8484
11969SOL    HW139184  11.366   1.484   3.739 -0.6430  0.2428  1.2759
11969SOL    HW239185  11.258   1.424   3.651  0.6606 -0.4543  0.1158
11970SOL     OW39186   5.383   2.932  10.356  0.3979 -0.0309 -0.4009
11970SOL    HW139187   5.306   2.876  10.347  1.3520 -1.5753  0.6745
11970SOL    HW239188   5.346   3.021  10.365 -1.2044 -0.6234 -0.6951
11971SOL     OW39189   8.800   3.760   0.319 -0.4608  0.5796 -0.9492
11971SOL    HW139190   8.880   3.709   0.307 -1.3300 -0.8774 -0.7368
11971SOL    HW239191   8.819   3.816   0.395 -0.0424 -0.6363 -0.1205
11972SOL     OW39192   0.260   6.601   2.833 -0.2150  0.3113 -0.2942
11972SOL    HW139193   0.349   6.628   2.857 -0.6582  0.0598  1.8754
11972SOL    HW239194   0.206   6.679   2.852 -0.8642 -0.5320  1.5949
11973SOL     OW39195   4.993  10.785   5.129  0.1680 -0.2828  0.1914
11973SOL    HW139196   4.940  10.784   5.049  0.8100  3.1048 -0.4340
11973SOL    HW239197   5.081  10.805   5.098  0.3556  1.4480  1.7082
11974SOL     OW39198   2.278   8.443   0.712  0.7191  0.0000 -0.0921
11974SOL    HW139199   2.269   8.481   0.799  2.7130 -0.9906  0.5941
11974SOL    HW239200   2.240   8.510   0.654 -2.3955 -0.1037  1.5690
11975SOL     OW39201  11.027  10.828   3.298 -0.0297 -0.8149 -0.2342
11975SOL    HW139202  11.028  10.821   3.202  0.7562 -1.6065 -0.1731
11975SOL    HW239203  10.975  10.906   3.315  0.8291  0.0363 -1.3498
11976SOL     OW39204   3.665   9.112   2.650  0.1228  0.4302  0.6265
11976SOL    HW139205   3.749   9.076   2.679 -1.0643 -0.9160  2.6131
11976SOL    HW239206   3.599   9.059   2.695 -1.8146  1.4892 -0.8249
11977SOL     OW39207   5.444  10.836   8.913 -0.1188  0.1329 -0.2220
11977SOL    HW139208   5.536  10.809   8.906  1.2321  2.8655  3.7746
11977SOL    HW239209   5.437  10.915   8.859 -0.0419  0.1503 -0.2055
11978SOL     OW39210   4.024   9.261   2.636 -0.1184 -0.0763 -0.0538
11978SOL    HW139211   3.954   9.326   2.633  0.6668  0.7708 -0.5427
11978SOL    HW239212   4.024   9.230   2.727 -1.1442 -0.1329 -0.0585
11979SOL     OW39213   3.191   8.388  10.389 -0.0037  0.1302  0.9671
11979SOL    HW139214   3.170   8.461  10.330  1.9499  1.3665  1.6786
11979SOL    HW239215   3.135   8.404  10.466 -1.7523 -0.8678 -0.0305
11980SOL     OW39216   8.059   1.502   1.448 -0.3289 -0.4234  0.0111
11980SOL    HW139217   8.022   1.438   1.507 -0.7748  0.0927  0.2969
11980SOL    HW239218   7.984   1.547   1.409 -0.0367 -0.4530 -0.6128
11981SOL     OW39219   6.882   9.075   3.437  0.2463  0.1735  0.1358
11981SOL    HW139220   6.938   9.044   3.366 -1.5958 -0.7130 -0.9866
11981SOL    HW239221   6.865   9.167   3.416  1.8717  0.6967  0.9289
11982SOL     OW39222   7.140   5.520   6.152  0.2064 -0.3476  0.0980
11982SOL    HW139223   7.140   5.513   6.056 -0.8012 -2.0780  0.1683
11982SOL    HW239224   7.088   5.599   6.170 -1.0585 -0.9345 -0.7864
11983SOL     OW39225   7.434   6.453   0.509 -0.6927 -0.1614  0.9607
11983SOL    HW139226   7.424   6.537   0.462 -0.1256 -0.9821 -0.7193
11983SOL    HW239227   7.385   6.391   0.456 -0.5773 -1.0134  1.8415
11984SOL     OW39228   5.408   6.660   4.907 -0.2914  0.1318  0.1535
11984SOL    HW139229   5.437   6.713   4.833  1.1589 -0.7651  0.0503
11984SOL    HW239230   5.370   6.582   4.868  2.0902 -1.1824  0.2991
11985SOL     OW39231   5.118   6.587   4.493  0.4440 -0.2415  0.2466
11985SOL    HW139232   5.067   6.515   4.529  1.1956 -0.8766  0.0639
11985SOL    HW239233   5.203   6.579   4.535  0.5136  0.5821  0.2710
11986SOL     OW39234   3.973   2.402   4.264 -0.3446  0.3868 -0.3844
11986SOL    HW139235   4.066   2.416   4.246 -0.7232  1.6782 -1.4787
11986SOL    HW239236   3.950   2.324   4.212  0.1094  0.0733 -0.1236
11987SOL     OW39237   3.748  10.439  10.869  0.3249 -0.7464 -0.5358
11987SOL    HW139238   3.747  10.479  10.782 -0.3318  0.8472  0.1589
11987SOL    HW239239   3.661  10.456  10.904  1.4185  1.1861  1.4956
11988SOL     OW39240   8.395   6.144  10.893  0.1538 -0.0062 -0.3960
11988SOL    HW139241   8.430   6.224  10.931 -0.7117 -0.3416  1.2094
11988SOL    HW239242   8.317   6.172  10.845  0.5311  0.2532 -0.8689
11989SOL     OW39243   2.128   1.356   1.765 -0.6560 -0.2035  0.1885
11989SOL    HW139244   2.106   1.424   1.702  1.2308  0.6786  0.4075
11989SOL    HW239245   2.164   1.403   1.840  0.4488 -1.3851  0.4448
11990SOL     OW39246   4.132   7.177  11.332 -0.3760  0.5024 -0.1339
11990SOL    HW139247   4.082   7.241  11.383 -1.0739  0.4422 -0.7366
11990SOL    HW239248   4.206   7.227  11.297  0.6766  0.3382  1.7058
11991SOL     OW39249   7.650   5.441   0.560 -0.1562 -0.5010 -0.0919
11991SOL    HW139250   7.597   5.365   0.534  0.0376 -1.2875  1.6845
11991SOL    HW239251   7.664   5.430   0.654  1.9967  0.4188 -0.2454
11992SOL     OW39252   3.944   6.276   4.067 -0.2405  0.2728  0.2077
11992SOL    HW139253   3.941   6.337   4.141  0.7350 -1.0709  1.4100
11992SOL    HW239254   3.902   6.196   4.100 -0.5330 -0.0877 -0.9836
11993SOL     OW39255  10.579   9.897   7.373  0.5922  0.0993 -0.5795
11993SOL    HW139256  10.535   9.816   7.348  0.3343  0.0912 -0.1042
11993SOL    HW239257  10.515   9.966   7.354  0.0448  0.0244  0.8508
11994SOL     OW39258   8.543   5.287   0.911 -0.2468 -0.0973  0.1473
11994SOL    HW139259   8.497   5.218   0.959 -0.5118  2.5039  4.0703
11994SOL    HW239260   8.473   5.344   0.879 -0.0748  1.8675  2.9205
11995SOL     OW39261  10.496   0.006   3.388  0.7158 -0.0731  0.2706
11995SOL    HW139262  10.524  -0.069   3.439 -0.4267 -0.4700  0.3245
11995SOL    HW239263  10.545  -0.002   3.306  0.7788 -0.7491  0.3681
11996SOL     OW39264   0.093  11.113   2.684  0.0752  0.1350 -0.0178
11996SOL    HW139265   0.008  11.154   2.672  0.1899  0.6113  0.7717
11996SOL    HW239266   0.078  11.043   2.748  0.4996  0.9728  1.0184
11997SOL     OW39267   7.116   3.279   4.324 -0.2485  0.1357  0.1970
11997SOL    HW139268   7.043   3.340   4.315 -1.0600 -0.9555 -1.0603
11997SOL    HW239269   7.170   3.315   4.394 -0.9388  2.0342 -0.1905
11998SOL     OW39270   9.954   6.197   8.241  0.2144 -0.4986  0.0514
11998SOL    HW139271  10.041   6.231   8.264 -0.1067 -0.6588  1.6125
11998SOL    HW239272   9.970   6.140   8.166  1.2571  0.4461 -0.4853
11999SOL     OW39273  10.223   7.203   9.928 -0.2664 -0.3003 -0.2756
11999SOL    HW139274  10.240   7.297   9.921  0.0541  0.0574  3.3550
11999SOL    HW239275  10.310   7.163   9.924 -0.3755 -0.4428 -1.4871
12000SOL     OW39276   7.099   2.271   0.378  0.8159  0.3621 -0.5226
12000SOL    HW139277   7.085   2.188   0.424 -0.7852 -0.6881 -2.7472
12000SOL    HW239278   7.046   2.265   0.299  1.5475  3.0712 -1.3499
12001SOL     OW39279   5.942   6.040   0.682 -0.1218  0.2956 -0.5210
12001SOL    HW139280   5.929   6.000   0.596 -0.2986 -2.0597  0.5031
12001SOL    HW239281   6.037   6.041   0.695 -0.1108  0.3199 -0.6071
12002SOL     OW39282   9.885   9.928   1.273  0.0557 -0.2634  0.2106
12002SOL    HW139283   9.806   9.979   1.259  1.4198  1.4705 -1.8452
12002SOL    HW239284   9.896   9.878   1.192  1.0312 -0.4748  0.4617
12003SOL     OW39285   1.496   2.386   6.824  0.6071  0.2583 -0.3582
12003SOL    HW139286   1.585   2.400   6.793  1.0205 -0.3982  0.4931
12003SOL    HW239287   1.507   2.348   6.912 -0.5076  0.4472 -0.1256
12004SOL     OW39288   7.748   9.859  11.067  0.2047  0.1034 -1.0633
12004SOL    HW139289   7.683   9.838  11.000  1.9252  0.2117 -2.8514
12004SOL    HW239290   7.830   9.821  11.034  1.1146  0.1306  1.0116
12005SOL     OW39291   6.784   4.266   0.760 -0.3882  0.3084 -0.1435
12005SOL    HW139292   6.826   4.333   0.815  0.4214 -0.2093 -0.1114
12005SOL    HW239293   6.790   4.301   0.672 -0.1046  0.3489 -0.1088
12006SOL     OW39294   6.521   5.194   2.062 -0.1749 -0.1694  0.1969
12006SOL    HW139295   6.443   5.233   2.100 -1.8013 -2.7025 -0.3010
12006SOL    HW239296   6.558   5.140   2.132 -0.8128 -1.5863 -0.5191
12007SOL     OW39297   9.241   5.054  10.259  0.1344  0.3429 -0.1232
12007SOL    HW139298   9.178   5.043  10.187  0.9508  0.9455 -0.9596
12007SOL    HW239299   9.325   5.033  10.219  0.7747  2.0804  0.2680
12008SOL     OW39300   1.395  10.843   6.560 -0.5096  0.0003 -0.2335
12008SOL    HW139301   1.329  10.835   6.630  0.4914 -0.1513  0.7283
12008SOL    HW239302   1.420  10.753   6.540  0.7767  0.0792  0.8020
12009SOL     OW39303   7.612   3.047  10.470  0.2091 -0.5184 -0.2808
12009SOL    HW139304   7.696   3.081  10.501 -0.7323 -0.2144  2.1925
12009SOL    HW239305   7.570   3.121  10.426  0.2043  0.0878  0.7211
12010SOL     OW39306   6.339   8.924   7.377  0.3784 -0.7975 -0.7548
12010SOL    HW139307   6.349   8.919   7.282 -0.6469  0.5167 -0.9593
12010SOL    HW239308   6.295   9.008   7.393 -1.5610 -1.9888  0.7035
12011SOL     OW39309   7.352  10.667   6.420 -0.3460  0.6526  0.1970
12011SOL    HW139310   7.332  10.653   6.327  0.2531 -0.6718  0.2388
12011SOL    HW239311   7.299  10.602   6.466  1.9536 -1.1712  0.4846
12012SOL     OW39312   3.960   4.776   3.859 -0.2534 -0.3862 -0.4891
12012SOL    HW139313   3.867   4.752   3.862 -0.1626 -0.7602 -0.5900
12012SOL    HW239314   3.986   4.758   3.769 -0.3700  0.8288 -0.7791
12013SOL     OW39315   9.224   5.912   5.834 -0.3131  0.2485 -0.1199
12013SOL    HW139316   9.260   5.876   5.754 -0.2999 -0.2863  0.1244
12013SOL    HW239317   9.129   5.910   5.821 -0.3095  3.6274 -1.6421
12014SOL     OW39318   0.300   7.484   0.840 -0.1337  0.7780  0.5823
12014SOL    HW139319   0.336   7.562   0.881  0.6398 -0.4161  2.2924
12014SOL    HW239320   0.217   7.469   0.885 -0.6095  0.9704 -0.2067
12015SOL     OW39321   4.212  10.937   5.847  0.0610  0.5289  0.0630
12015SOL    HW139322   4.286  10.904   5.898 -2.3311 -2.0853  2.1728
12015SOL    HW239323   4.252  10.996   5.783  3.8403 -0.1151  1.5334
12016SOL     OW39324   1.715   7.427   7.486 -0.1929  0.2177  0.2167
12016SOL    HW139325   1.632   7.444   7.441 -0.4709  0.0168  0.6495
12016SOL    HW239326   1.772   7.392   7.418 -0.5313  0.1545 -0.0362
12017SOL     OW39327   3.397   1.781   3.796 -0.5687 -0.4382  1.0286
12017SOL    HW139328   3.303   1.774   3.777 -0.1590 -1.7147 -0.6956
12017SOL    HW239329   3.418   1.702   3.845 -0.2129 -0.5852  0.6385
12018SOL     OW39330   8.963   4.236   7.575 -0.2314 -0.1757  0.1145
12018SOL    HW139331   8.998   4.221   7.487 -0.6086 -1.0419  0.1073
12018SOL    HW239332   8.992   4.160   7.625 -1.5958 -0.6181  0.2600
12019SOL     OW39333  11.152   6.396   2.243 -0.3921 -0.0847 -0.5128
12019SOL    HW139334  11.112   6.477   2.213 -0.6701  0.0000  0.0705
12019SOL    HW239335  11.080   6.346   2.281 -0.0169 -0.0807  0.2194
12020SOL     OW39336   3.084   0.283   0.349  0.1145 -0.3377 -0.1851
12020SOL    HW139337   3.174   0.287   0.383 -0.8642  1.9705  2.4618
12020SOL    HW239338   3.033   0.246   0.422 -1.5563  1.4393 -0.3967
12021SOL     OW39339   5.975   2.552   0.057  0.6049  0.2115 -0.2298
12021SOL    HW139340   5.909   2.512   0.001  0.9220 -0.1655 -0.3414
12021SOL    HW239341   6.054   2.553   0.004  0.2426  2.4768 -0.8218
12022SOL     OW39342   7.292  11.378  11.326  0.0064 -0.1640 -0.9054
12022SOL    HW139343   7.273  11.449  11.264 -0.8513  1.5174  1.1840
12022SOL    HW239344   7.256  11.408  11.409  1.3552 -2.2190  0.5124
12023SOL     OW39345   8.755   4.220   3.220 -0.0771 -0.0212 -0.8693
12023SOL    HW139346   8.707   4.255   3.295 -1.0309  0.5152 -1.7152
12023SOL    HW239347   8.846   4.220   3.249 -0.0160  3.0648 -0.7515
12024SOL     OW39348   5.903   9.377   1.972  0.1390  0.0956  0.1494
12024SOL    HW139349   5.996   9.357   1.966 -0.4357 -2.9701 -0.1188
12024SOL    HW239350   5.860   9.292   1.982 -2.5754  1.4679  1.5085
12025SOL     OW39351   1.857   4.074   4.430  0.0160  0.0756  0.4248
12025SOL    HW139352   1.891   4.081   4.341  2.5453 -1.7476  1.1238
12025SOL    HW239353   1.935   4.078   4.486 -0.9286 -3.1844  2.2479
12026SOL     OW39354   0.558   0.393   4.063 -0.1752  0.3652  0.2993
12026SOL    HW139355   0.617   0.392   4.139  0.8739  0.5469 -0.4949
12026SOL    HW239356   0.558   0.485   4.035  1.2322 -0.0650 -1.2536
12027SOL     OW39357   4.897   5.537   7.294  0.1992  0.2500 -0.0206
12027SOL    HW139358   4.810   5.570   7.272  0.9844  1.5124 -1.4643
12027SOL    HW239359   4.895   5.444   7.270 -1.0446  0.0232  0.9287
12028SOL     OW39360   6.921   5.254   2.683  0.0705  0.1632  0.3941
12028SOL    HW139361   7.009   5.220   2.667 -0.1824  0.7358 -2.7464
12028SOL    HW239362   6.934   5.329   2.741  1.5315 -0.2808  0.6804
12029SOL     OW39363   8.699   4.455   1.097 -0.5020 -0.1561 -0.5003
12029SOL    HW139364   8.667   4.518   1.162  0.0373  0.8420 -1.1791
12029SOL    HW239365   8.777   4.496   1.060 -1.2257 -0.3343 -2.3325
12030SOL     OW39366   9.636   9.792   7.456 -1.0094 -0.4406  0.4254
12030SOL    HW139367   9.614   9.722   7.393 -0.1990 -0.5911  0.3045
12030SOL    HW239368   9.606   9.872   7.414 -1.1313 -0.6189  0.1679
12031SOL     OW39369   2.585   2.237   6.897  0.5799  0.1546 -0.2617
12031SOL    HW139370   2.676   2.209   6.899  0.2772 -0.9670 -1.0579
12031SOL    HW239371   2.561   2.247   6.989  1.2214 -0.5707 -0.0057
12032SOL     OW39372   3.136   4.550  10.773  0.4115 -0.5588 -0.0901
12032SOL    HW139373   3.115   4.634  10.732 -0.6826 -1.4712 -1.4904
12032SOL    HW239374   3.231   4.553  10.787  0.9006 -0.2663 -2.9364
12033SOL     OW39375  10.129   2.081   3.539 -0.4716 -0.5644  0.1792
12033SOL    HW139376  10.184   2.099   3.463 -0.5994 -1.3376 -0.1126
12033SOL    HW239377  10.043   2.114   3.514 -0.4460 -0.5567  0.1007
12034SOL     OW39378   8.407   0.223   7.016 -0.5544  0.0257 -0.0206
12034SOL    HW139379   8.423   0.148   6.959  0.1454  0.0859  0.0964
12034SOL    HW239380   8.407   0.299   6.958  1.3540  0.2313  0.1813
12035SOL     OW39381   8.005   5.758   6.139 -0.4980 -0.0164 -0.1663
12035SOL    HW139382   7.984   5.801   6.221  0.8980 -0.2975  0.3829
12035SOL    HW239383   8.093   5.790   6.117  0.3332 -2.0084 -0.0592
12036SOL     OW39384   1.585   8.788  10.556  0.0869 -0.1906 -0.2241
12036SOL    HW139385   1.556   8.731  10.628 -0.3598  0.6066  0.2373
12036SOL    HW239386   1.507   8.837  10.531  0.9008  1.7530  0.8299
12037SOL     OW39387   7.386  11.123   8.355 -0.2250 -0.1306 -0.9110
12037SOL    HW139388   7.298  11.097   8.382 -0.0873 -1.0839 -1.3333
12037SOL    HW239389   7.396  11.213   8.386 -0.6410 -0.6548  0.8362
12038SOL     OW39390   8.222   4.265   9.122  0.1031  0.0931  0.0898
12038SOL    HW139391   8.140   4.229   9.156  0.0911  2.5021  3.0121
12038SOL    HW239392   8.291   4.218   9.168  0.1894  0.9843  0.9074
12039SOL     OW39393   3.204   1.189   9.862 -0.2656 -0.3574 -0.6304
12039SOL    HW139394   3.269   1.185   9.932 -0.6833 -0.4652 -0.2491
12039SOL    HW239395   3.204   1.281   9.835 -1.0691 -0.0147  0.4410
12040SOL     OW39396   2.831   0.762   2.727  0.3867 -0.1320 -0.2562
12040SOL    HW139397   2.810   0.833   2.666 -0.7381  0.0000  0.2398
12040SOL    HW239398   2.763   0.697   2.711  0.6105 -0.4894  0.2421
12041SOL     OW39399   4.987   9.039   7.022 -0.1355 -0.4796  0.3722
12041SOL    HW139400   4.954   9.076   6.940 -1.1631  0.2772  1.0980
12041SOL    HW239401   4.961   8.946   7.017  0.2082 -0.5468 -0.3472
12042SOL     OW39402   8.824   1.808   0.929  0.0130 -0.0025  0.1028
12042SOL    HW139403   8.889   1.836   0.994  0.6399  0.7506 -0.8074
12042SOL    HW239404   8.750   1.867   0.942 -0.7924 -1.2664  1.5622
12043SOL     OW39405   5.779   9.849   0.766  0.6402 -0.0166  0.4099
12043SOL    HW139406   5.763   9.867   0.674  0.7840 -1.0489  0.1777
12043SOL    HW239407   5.873   9.863   0.777  1.0293 -1.9715 -0.1075
12044SOL     OW39408   1.268   4.534   4.271 -0.6235 -0.5363  0.3073
12044SOL    HW139409   1.362   4.537   4.289 -0.5399 -0.7187 -0.0944
12044SOL    HW239410   1.258   4.471   4.200 -0.8097  0.9355 -1.0546
12045SOL     OW39411   4.402   2.559  10.041  0.0692 -0.0865  0.4964
12045SOL    HW139412   4.392   2.565   9.946 -0.3287  1.1003  0.5997
12045SOL    HW239413   4.467   2.490  10.053 -0.4774 -0.8282 -0.5982
12046SOL     OW39414   3.033   1.885   3.080  0.4625 -0.1456 -0.0794
12046SOL    HW139415   3.057   1.793   3.067  0.9659 -0.3659  2.0183
12046SOL    HW239416   2.953   1.881   3.133  0.7058  0.6283  0.3515
12047SOL     OW39417   7.848  10.039   6.305 -0.3822  0.1275  0.5680
12047SOL    HW139418   7.872  10.112   6.361  1.8610 -0.7199  0.8376
12047SOL    HW239419   7.869  10.068   6.216 -0.6336  0.2464  0.5488
12048SOL     OW39420   1.010  11.150  10.270 -0.5457  0.6642 -0.4122
12048SOL    HW139421   0.973  11.078  10.218 -0.6998  1.1573 -0.9906
12048SOL    HW239422   1.041  11.213  10.205  1.9353 -0.0123  0.0114
12049SOL     OW39423   2.788   9.443   5.772 -0.7064  0.3018  0.1940
12049SOL    HW139424   2.784   9.537   5.758 -1.2807  0.3515  0.6912
12049SOL    HW239425   2.713   9.408   5.723  0.4027 -0.0678 -1.3193
12050SOL     OW39426   7.038   7.840   8.415 -0.7047  0.4910 -0.6799
12050SOL    HW139427   7.102   7.910   8.402 -1.9779  1.5024 -1.7475
12050SOL    HW239428   7.082   7.779   8.474  0.7084  1.8387 -0.2571
12051SOL     OW39429   3.107   0.212   4.240 -0.0960  0.8943 -0.2865
12051SOL    HW139430   3.113   0.271   4.165 -2.5971  0.2336 -1.0990
12051SOL    HW239431   3.013   0.203   4.257  0.3200 -0.5457  1.6818
12052SOL     OW39432   4.786   2.304   4.629  0.2253  0.0811  0.0717
12052SOL    HW139433   4.741   2.360   4.692 -1.4069  0.2597 -1.1728
12052SOL    HW239434   4.806   2.363   4.556  4.6378  0.5950  1.4070
12053SOL     OW39435   2.565   9.448  10.297  0.2210 -0.4372  0.1158
12053SOL    HW139436   2.580   9.365  10.251  0.7470 -0.0772 -0.3733
12053SOL    HW239437   2.646   9.463  10.346  0.1117 -0.2366  0.2366
12054SOL     OW39438   3.453   0.751   7.606 -0.1427  0.1943 -0.1057
12054SOL    HW139439   3.426   0.662   7.628 -2.3638  0.1497 -2.5198
12054SOL    HW239440   3.539   0.740   7.565 -0.0328 -0.7455  0.3447
12055SOL     OW39441   2.128   5.896  10.330 -0.1528  0.4248 -0.2900
12055SOL    HW139442   2.074   5.871  10.255  0.6500  0.9709 -1.0564
12055SOL    HW239443   2.125   5.992  10.331  1.5349  0.5168 -0.9096
12056SOL     OW39444   8.068   9.143   4.497  0.3783  0.6117 -0.4936
12056SOL    HW139445   8.073   9.181   4.409  0.3129  1.2491 -0.2285
12056SOL    HW239446   7.975   9.121   4.508  0.8536 -2.5871 -1.8452
12057SOL     OW39447   0.989   9.531   5.699 -0.2736 -0.7034 -0.2438
12057SOL    HW139448   1.069   9.567   5.739  0.4901 -0.7926 -1.6429
12057SOL    HW239449   0.967   9.455   5.753  1.4727 -1.5928 -0.7178
12058SOL     OW39450   5.242   7.155   0.215 -0.2664  0.7853 -0.4059
12058SOL    HW139451   5.269   7.163   0.307 -0.9311  1.3215 -0.2485
12058SOL    HW239452   5.206   7.241   0.193 -0.9983  0.3700 -0.8736
12059SOL     OW39453   2.582   2.635   9.688  0.8867 -0.0266  0.0568
12059SOL    HW139454   2.492   2.615   9.663  0.9239 -0.9862  0.6438
12059SOL    HW239455   2.606   2.565   9.748  1.3322  1.3295  1.5282
12060SOL     OW39456   1.421   9.572   7.074 -0.6340  0.4885  0.3756
12060SOL    HW139457   1.515   9.560   7.069 -0.9037 -1.5330 -1.8370
12060SOL    HW239458   1.390   9.500   7.129 -1.0128 -0.2493 -0.7469
12061SOL     OW39459   2.819   3.910   5.495 -0.2755 -0.0881  0.0175
12061SOL    HW139460   2.888   3.975   5.482 -0.3684 -0.2382 -1.3796
12061SOL    HW239461   2.862   3.826   5.482 -0.2596 -0.3258  1.3677
12062SOL     OW39462   0.250   3.976   2.065  0.4047  0.7311  0.3395
12062SOL    HW139463   0.187   4.008   2.129  0.6710  0.9491  0.4963
12062SOL    HW239464   0.211   3.895   2.031  1.1320 -0.4778  2.2006
12063SOL     OW39465   0.727   6.453   5.313  0.4030 -0.9678  0.7468
12063SOL    HW139466   0.792   6.523   5.328 -0.1385 -0.5420  1.1371
12063SOL    HW239467   0.659   6.495   5.261  1.0844 -1.7903 -0.8563
12064SOL     OW39468   0.228   2.145   0.079  0.0334  0.1225 -0.1311
12064SOL    HW139469   0.200   2.169  -0.010 -0.0692 -0.4375 -0.2545
12064SOL    HW239470   0.298   2.207   0.099 -0.1275  0.4309 -0.4967
12065SOL     OW39471   8.957   0.134   0.097  0.3572 -0.3723 -0.6233
12065SOL    HW139472   9.051   0.136   0.078  0.0942 -0.0646 -2.0101
12065SOL    HW239473   8.926   0.221   0.070 -0.4533 -0.7529 -0.9543
12066SOL     OW39474   0.945   8.591   3.243  0.1906  0.2569 -0.2450
12066SOL    HW139475   0.902   8.529   3.301  1.7772 -1.8702 -1.1917
12066SOL    HW239476   0.906   8.575   3.157  0.2499  0.9392 -0.4029
12067SOL     OW39477   1.661   7.174   5.795  0.1396 -0.2449  0.3770
12067SOL    HW139478   1.672   7.115   5.721  0.8560 -0.6048  0.7541
12067SOL    HW239479   1.669   7.117   5.872 -1.4522 -0.0256  0.7487
12068SOL     OW39480   6.876   3.990  11.149 -0.0671  0.0139 -0.5823
12068SOL    HW139481   6.950   4.047  11.169 -0.8148  0.6397  0.4846
12068SOL    HW239482   6.839   3.968  11.235 -1.2282 -0.1341 -1.1064
12069SOL     OW39483   5.707   1.109   0.865 -0.0032 -0.5203  0.2843
12069SOL    HW139484   5.719   1.017   0.890  2.8777 -0.4844 -0.5904
12069SOL    HW239485   5.732   1.112   0.772 -3.2454  0.6432 -0.6866
12070SOL     OW39486   6.807   1.144   8.980 -0.0188  0.2125  0.0399
12070SOL    HW139487   6.890   1.146   8.933  0.1737 -1.0664  0.2697
12070SOL    HW239488   6.764   1.064   8.949 -1.0228  0.6873  0.1633
12071SOL     OW39489   7.616   8.732   7.483 -0.3866 -0.3192 -0.3589
12071SOL    HW139490   7.523   8.725   7.504 -0.5359  1.4993 -0.2500
12071SOL    HW239491   7.657   8.757   7.566  0.1559 -0.7701 -0.4861
12072SOL     OW39492   5.166   0.310   4.857 -0.2830  0.1906  0.5721
12072SOL    HW139493   5.206   0.387   4.817  0.8396 -1.3296 -1.4575
12072SOL    HW239494   5.226   0.287   4.929  0.7002 -0.1237 -0.3208
12073SOL     OW39495   3.407   5.623  10.454 -0.2879  0.1431  0.4259
12073SOL    HW139496   3.398   5.702  10.506 -0.3211  0.4055  0.0286
12073SOL    HW239497   3.500   5.603  10.456 -0.4767 -0.7746  1.9192
12074SOL     OW39498   1.626   0.119   7.522 -0.0189  0.3850 -0.1561
12074SOL    HW139499   1.657   0.129   7.612 -1.5109 -1.4889  0.6427
12074SOL    HW239500   1.705   0.110   7.469  0.8579  0.1732  1.1632
12075SOL     OW39501  10.202   0.933   6.583  0.1416 -0.2154  0.0005
12075SOL    HW139502  10.139   1.005   6.588 -0.2991 -0.6705  2.0248
12075SOL    HW239503  10.161   0.870   6.523  0.7860  1.3751 -2.2498
12076SOL     OW39504   6.987   2.951   2.604 -0.3174 -0.1899 -0.5445
12076SOL    HW139505   7.065   2.896   2.610 -1.5108 -1.8992 -0.1504
12076SOL    HW239506   6.934   2.910   2.536 -0.6214  1.3263 -1.2658
12077SOL     OW39507   2.014   7.394   1.339  0.0226  0.4841 -0.6792
12077SOL    HW139508   2.073   7.399   1.264  1.8245  0.7523  0.6902
12077SOL    HW239509   2.072   7.398   1.416 -1.6508 -0.8656  0.7374
12078SOL     OW39510  11.350   5.366  11.063  0.5999 -0.1535  0.5672
12078SOL    HW139511  11.304   5.331  11.140  1.2603 -0.4443  0.8379
12078SOL    HW239512  11.327   5.306  10.992 -0.4095  0.3935  0.4085
12079SOL     OW39513   8.048   0.354   1.145  0.1392 -0.0582  0.5906
12079SOL    HW139514   8.039   0.374   1.238 -0.5661 -0.5042  0.6198
12079SOL    HW239515   7.960   0.363   1.109 -0.0965 -2.2574  0.4473
12080SOL     OW39516   7.399   3.236  10.300  0.7044  0.9902 -0.1971
12080SOL    HW139517   7.414   3.289  10.379 -1.2091  1.5969 -0.1844
12080SOL    HW239518   7.345   3.292  10.244  0.9354  0.0614 -1.3845
12081SOL     OW39519  10.586   7.591  10.764 -0.1682  0.6774 -0.0197
12081SOL    HW139520  10.591   7.658  10.696  1.3046  0.5066 -0.1043
12081SOL    HW239521  10.644   7.622  10.833 -0.4470  0.0929  0.4935
12082SOL     OW39522   6.270   3.832   7.990 -0.0411  0.3262 -0.1650
12082SOL    HW139523   6.238   3.916   7.957 -1.1655 -0.3591 -0.8914
12082SOL    HW239524   6.357   3.822   7.950  0.4657  1.5060  0.5919
12083SOL     OW39525   2.784   2.861   6.012 -0.5978 -0.3573 -0.4147
12083SOL    HW139526   2.856   2.920   6.033 -2.0039  0.6364  1.9955
12083SOL    HW239527   2.721   2.916   5.966 -0.5530 -0.8133 -1.0358
12084SOL     OW39528  10.731  10.676   3.086  0.4207 -0.1047 -0.1174
12084SOL    HW139529  10.637  10.662   3.077  0.5868 -0.8013 -0.9177
12084SOL    HW239530  10.766  10.590   3.109  0.8113  0.2597  0.6757
12085SOL     OW39531   2.431  11.224  11.103 -0.0069 -0.2783  0.2852
12085SOL    HW139532   2.406  11.315  11.118  0.0394 -0.3150  0.5928
12085SOL    HW239533   2.377  11.196  11.029 -2.0172 -0.8231  1.8795
12086SOL     OW39534   9.277   5.745   4.717  0.3294  0.1587 -0.2107
12086SOL    HW139535   9.331   5.767   4.641  0.5712 -0.7268 -0.3047
12086SOL    HW239536   9.234   5.663   4.693  1.5438 -0.9294  1.1517
12087SOL     OW39537   5.946   3.432   0.350 -0.0915 -0.7758  0.6051
12087SOL    HW139538   5.940   3.413   0.256 -6.0301 -3.1960  1.0279
12087SOL    HW239539   5.993   3.357   0.387  0.7448 -0.6895 -0.2531
12088SOL     OW39540  10.925   6.767  10.778 -0.6006 -0.2900  0.4848
12088SOL    HW139541  10.999   6.819  10.746 -1.6831  0.1987 -1.3855
12088SOL    HW239542  10.910   6.702  10.709 -2.3395  0.0759  0.4833
12089SOL     OW39543   1.174   4.161   9.146 -0.1248 -0.3346  0.5901
12089SOL    HW139544   1.171   4.108   9.066 -2.9120 -0.5662  0.7674
12089SOL    HW239545   1.084   4.189   9.160  0.7463  1.9489  2.2149
12090SOL     OW39546   4.810   0.469   7.303 -0.4495  0.4206  0.4885
12090SOL    HW139547   4.856   0.405   7.357 -1.6397 -0.4529  0.5110
12090SOL    HW239548   4.879   0.521   7.262  0.5022  0.3744  1.9674
12091SOL     OW39549  11.097   1.387   3.837  0.2634 -0.6144  0.0193
12091SOL    HW139550  11.100   1.474   3.796  1.1080 -0.6761 -0.0717
12091SOL    HW239551  11.062   1.403   3.925 -1.9431 -0.5327 -0.8074
12092SOL     OW39552   0.720   6.017   7.030  0.0677  0.1963  0.1406
12092SOL    HW139553   0.658   6.022   7.102 -1.6227  1.3848 -1.3178
12092SOL    HW239554   0.681   5.954   6.969  0.9174  0.0485 -0.2651
12093SOL     OW39555   3.180   6.297   9.681 -0.3377 -0.4776 -0.0536
12093SOL    HW139556   3.182   6.201   9.678  0.9360 -0.4466 -1.3044
12093SOL    HW239557   3.120   6.318   9.752 -1.1535 -2.2046 -0.1893
12094SOL     OW39558   2.233   7.621   9.447 -0.3031  0.5602  0.0355
12094SOL    HW139559   2.263   7.706   9.415 -1.3727  1.0543  0.2998
12094SOL    HW239560   2.213   7.571   9.368 -0.0361  0.6887 -0.1146
12095SOL     OW39561   7.532   9.666   7.602  0.1714 -0.7611 -0.0681
12095SOL    HW139562   7.627   9.659   7.610 -0.0664 -2.0512  2.6849
12095SOL    HW239563   7.517   9.691   7.511  3.0957 -1.2094 -0.7537
12096SOL     OW39564   8.032   2.834  11.018  0.5649 -0.4268 -0.1889
12096SOL    HW139565   8.042   2.746  10.981 -0.8726 -1.2052  1.1307
12096SOL    HW239566   8.095   2.837  11.090 -0.9414 -1.2802  1.2262
12097SOL     OW39567   6.595   1.134   2.185  0.0237  0.3826 -0.0364
12097SOL    HW139568   6.539   1.211   2.177 -1.0328 -0.5530 -2.5975
12097SOL    HW239569   6.567   1.075   2.115  1.7092 -1.7791  0.9569
12098SOL     OW39570   0.108   3.614   5.646  0.3794  0.4211 -0.1831
12098SOL    HW139571   0.017   3.593   5.625  0.2023  1.0084 -0.0331
12098SOL    HW239572   0.160   3.547   5.602 -0.2215 -1.1214  1.3531
12099SOL     OW39573   1.877   2.651   6.787  0.3417 -0.6941  0.2454
12099SOL    HW139574   1.872   2.592   6.861  0.0551 -1.0540 -0.0592
12099SOL    HW239575   1.789   2.649   6.748  0.0718  0.5809  0.7326
12100SOL     OW39576   2.212  10.778   6.197  0.3473 -0.1907  0.5375
12100SOL    HW139577   2.175  10.845   6.255 -0.6038 -0.1893 -0.0407
12100SOL    HW239578   2.261  10.720   6.255 -0.5657 -0.1795  1.3390
12101SOL     OW39579   1.526   4.561   9.150 -0.1360  0.0170  0.2909
12101SOL    HW139580   1.533   4.585   9.242 -1.8220  0.0728  0.4394
12101SOL    HW239581   1.438   4.524   9.142 -0.5370  1.2593 -1.5692
12102SOL     OW39582   9.789   6.639   2.182 -0.4884 -0.1316 -0.3005
12102SOL    HW139583   9.735   6.560   2.173 -1.7809  0.9948 -4.6432
12102SOL    HW239584   9.878   6.610   2.160 -0.7752 -0.5705 -0.9218
12103SOL     OW39585  10.475   2.324   8.468 -0.4138 -0.1135 -0.6021
12103SOL    HW139586  10.500   2.295   8.381 -0.9852 -0.6888 -0.5792
12103SOL    HW239587  10.478   2.245   8.522  0.3901  0.3185  0.0119
12104SOL     OW39588   4.872   8.153   6.339 -0.2788  0.1124 -0.3949
12104SOL    HW139589   4.865   8.058   6.349 -2.8187  0.3286  0.4930
12104SOL    HW239590   4.928   8.180   6.412 -0.1658 -0.6015 -0.2012
12105SOL     OW39591   2.786   2.818   0.707  0.3820 -0.0903 -0.4343
12105SOL    HW139592   2.874   2.814   0.744  0.3399  0.1133 -0.3112
12105SOL    HW239593   2.799   2.851   0.618  0.3740  0.5285 -0.2113
12106SOL     OW39594  11.243   3.317   7.935  0.1694  0.3261  0.5066
12106SOL    HW139595  11.289   3.397   7.962 -0.4220 -0.1254  3.1895
12106SOL    HW239596  11.274   3.250   7.995 -1.7479 -0.6820  0.4641
12107SOL     OW39597  11.241   4.206   3.208 -0.5798 -0.1452  0.1653
12107SOL    HW139598  11.218   4.257   3.286  0.3144 -1.3036  1.2366
12107SOL    HW239599  11.329   4.173   3.227 -0.1809 -0.1326 -1.5270
12108SOL     OW39600   1.233   5.413   1.553  0.1334 -0.2763  0.3952
12108SOL    HW139601   1.182   5.401   1.473 -0.0307 -1.0712  0.6069
12108SOL    HW239602   1.171   5.391   1.623  0.4597 -0.2052  0.7042
12109SOL     OW39603   5.906   8.655   9.036  0.4255  0.1697 -0.1657
12109SOL    HW139604   5.975   8.655   9.102  1.3050 -0.8467 -1.0303
12109SOL    HW239605   5.904   8.564   9.005 -1.2666  0.1961 -0.2149
12110SOL     OW39606   0.375   2.154   6.600 -0.4888  0.0259  0.0845
12110SOL    HW139607   0.384   2.067   6.561  1.6815  0.6283 -0.9164
12110SOL    HW239608   0.374   2.214   6.526  0.8225  1.0063  0.8112
12111SOL     OW39609   7.037  11.021   0.932  0.5084  0.2340 -0.1395
12111SOL    HW139610   7.013  11.094   0.990 -2.4777 -1.9517  1.6987
12111SOL    HW239611   6.968  11.018   0.867  1.3224 -0.1708 -1.0079
12112SOL     OW39612   7.898   8.529   7.109  0.4678  0.1466 -0.1257
12112SOL    HW139613   7.904   8.554   7.201  0.9966  0.6841 -0.2974
12112SOL    HW239614   7.808   8.496   7.098  1.5212 -3.7318  1.4843
12113SOL     OW39615   6.398  10.981   3.048 -0.3130 -0.4129  0.1232
12113SOL    HW139616   6.425  11.050   3.109  1.0951 -0.1599 -0.7282
12113SOL    HW239617   6.327  11.021   2.997  0.6416  0.5242 -0.5185
12114SOL     OW39618  11.307   5.699   4.697  0.3483  0.1478  0.0845
12114SOL    HW139619  11.297   5.794   4.704  0.5217  0.2892 -1.3242
12114SOL    HW239620  11.317   5.683   4.603  1.1186 -1.1861  0.3732
12115SOL     OW39621   1.445   0.172  11.248  0.0311 -0.2559  0.3008
12115SOL    HW139622   1.445   0.115  11.325  1.2547 -1.7373 -0.7336
12115SOL    HW239623   1.493   0.250  11.275 -2.1491  0.6184  1.9186
12116SOL     OW39624  10.445   8.399   1.062  0.3172  0.3050  0.2360
12116SOL    HW139625  10.445   8.463   1.134 -0.5014 -0.3781  0.8599
12116SOL    HW239626  10.476   8.318   1.103 -0.6612 -0.2279 -0.0530
12117SOL     OW39627   6.050   7.200   6.214 -0.0279  0.5016  0.2021
12117SOL    HW139628   6.108   7.222   6.141  0.3811 -0.6786  0.1443
12117SOL    HW239629   5.973   7.160   6.172  0.2941 -0.3602  0.4055
12118SOL     OW39630   7.613   5.149   8.422 -0.3260  0.2623 -0.2493
12118SOL    HW139631   7.609   5.068   8.372  0.2688  1.1668 -1.8478
12118SOL    HW239632   7.521   5.175   8.433 -0.4946 -0.3424 -0.2313
12119SOL     OW39633  10.230   5.377  10.681  0.0093  0.0448 -0.7058
12119SOL    HW139634  10.257   5.309  10.742  1.6406  1.1768 -0.0904
12119SOL    HW239635  10.142   5.400  10.708 -0.1669 -1.0831 -0.2756
12120SOL     OW39636   7.411   6.198  10.395 -0.1179  0.0860  0.0620
12120SOL    HW139637   7.401   6.293  10.398 -0.9347 -0.0118  0.7841
12120SOL    HW239638   7.340   6.168  10.338 -0.5771 -0.1653  0.7433
12121SOL     OW39639   7.582   6.095   7.346 -0.1280  0.3939 -0.3220
12121SOL    HW139640   7.525   6.172   7.346 -0.1239  0.4408  1.7204
12121SOL    HW239641   7.629   6.099   7.429  1.6829 -0.5343 -1.2257
12122SOL     OW39642   2.417   4.410   2.168 -0.2675  0.1873  0.3466
12122SOL    HW139643   2.475   4.400   2.093  0.8345 -0.2464  1.2277
12122SOL    HW239644   2.346   4.348   2.152  0.5920 -0.7914  0.2387
12123SOL     OW39645   7.962   2.264   8.516  0.6289  0.2001  0.5212
12123SOL    HW139646   7.868   2.259   8.536  0.1657  1.6613 -1.0216
12123SOL    HW239647   8.003   2.280   8.601 -0.3931 -1.3591  1.3589
12124SOL     OW39648   1.700   3.771   0.629 -0.3354  0.2906  0.0435
12124SOL    HW139649   1.624   3.745   0.681  0.1498  2.5351  2.0772
12124SOL    HW239650   1.746   3.834   0.685  0.7027  2.2669 -2.8371
12125SOL     OW39651   5.891   1.822   4.077 -0.5901 -0.1035 -0.2058
12125SOL    HW139652   5.893   1.916   4.094 -1.6767 -0.1936  0.5654
12125SOL    HW239653   5.977   1.790   4.105 -0.9348  0.3677  1.4696
12126SOL     OW39654   8.111   8.962   8.843 -0.1059 -0.0569 -0.0898
12126SOL    HW139655   8.195   8.932   8.878 -0.1194  0.6494  0.5933
12126SOL    HW239656   8.076   9.020   8.911 -0.2161  1.2484 -1.2101
12127SOL     OW39657   4.182   6.971   2.957  0.4199 -0.4490 -0.1116
12127SOL    HW139658   4.161   6.894   3.010 -0.2885 -1.5349 -1.8841
12127SOL    HW239659   4.097   7.004   2.929  0.8001 -0.5110 -1.3754
12128SOL     OW39660   8.456   0.544   7.298 -0.3004  0.3535  0.1325
12128SOL    HW139661   8.471   0.604   7.226 -0.4853  0.9328  0.5721
12128SOL    HW239662   8.398   0.591   7.357  0.4441  0.1708  1.0300
12129SOL     OW39663   4.013   0.768   9.939  0.1354  0.0130 -0.0858
12129SOL    HW139664   4.023   0.857   9.904  1.8682  0.1772  0.7000
12129SOL    HW239665   4.011   0.713   9.861  1.1454  0.5988 -0.5558
12130SOL     OW39666   2.690   7.564   7.342 -0.3544  0.3672 -0.2239
12130SOL    HW139667   2.632   7.493   7.316  1.2778 -0.9247 -0.5102
12130SOL    HW239668   2.656   7.593   7.426 -0.6892 -1.2031  0.2148
12131SOL     OW39669   5.529   5.712   7.193 -0.4841 -0.0653 -0.2981
12131SOL    HW139670   5.567   5.735   7.108  1.7731 -0.0652  0.6360
12131SOL    HW239671   5.456   5.772   7.204 -0.9843 -0.2329 -2.3315
12132SOL     OW39672   4.970   1.906   9.012  0.1925 -0.2732  0.5145
12132SOL    HW139673   5.034   1.955   8.960  0.2914 -0.3259  0.5878
12132SOL    HW239674   5.011   1.821   9.027 -1.1697 -1.5110 -2.1472
12133SOL     OW39675   6.919   9.699   0.595 -0.2466  0.3986 -0.1940
12133SOL    HW139676   6.988   9.632   0.599 -0.6849 -0.0046  1.2895
12133SOL    HW239677   6.852   9.662   0.538  1.4007  1.4817 -3.0620
12134SOL     OW39678   7.459   6.308   6.642  0.0050 -0.0709 -0.3565
12134SOL    HW139679   7.453   6.213   6.652  1.1926 -0.2007 -0.8088
12134SOL    HW239680   7.505   6.321   6.560  2.6915  0.8579  1.1842
12135SOL     OW39681   2.074   7.939   5.401 -0.0850  0.2313 -0.1224
12135SOL    HW139682   2.043   7.882   5.472 -1.0248  1.1722  0.2515
12135SOL    HW239683   2.110   8.016   5.446  0.1103  0.4550 -0.6476
12136SOL     OW39684   2.160   8.425   9.356 -0.4758  0.0741  0.2206
12136SOL    HW139685   2.167   8.362   9.427 -0.2614  0.6212  0.6883
12136SOL    HW239686   2.239   8.412   9.304 -2.0922 -2.6196 -1.8656
12137SOL     OW39687  11.246   2.841   9.605  0.1787  0.0948  0.2470
12137SOL    HW139688  11.175   2.821   9.666 -0.6571 -1.6434 -1.2064
12137SOL    HW239689  11.317   2.781   9.630  0.2701  0.1869  0.2135
12138SOL     OW39690   0.605   7.029   2.264  0.0528 -0.1081 -0.5137
12138SOL    HW139691   0.697   7.050   2.281 -0.0851  0.8671 -0.8840
12138SOL    HW239692   0.558   7.069   2.337 -0.3379  2.1443 -1.9186
12139SOL     OW39693   5.551   9.514  11.130 -0.5863 -0.2811 -0.7912
12139SOL    HW139694   5.571   9.421  11.136  1.1360  0.1303  1.2241
12139SOL    HW239695   5.573   9.538  11.040 -0.4130 -1.6921 -1.1367
12140SOL     OW39696   5.005   1.257  10.412  0.6454 -0.1149  0.2061
12140SOL    HW139697   4.932   1.318  10.413  0.6804 -0.0429 -0.6126
12140SOL    HW239698   5.051   1.276  10.330  0.3452 -1.5949 -0.3422
12141SOL     OW39699   9.830   5.448   9.283 -0.8041 -0.2442 -0.9244
12141SOL    HW139700   9.766   5.459   9.213 -0.8698  1.0863 -0.6858
12141SOL    HW239701   9.805   5.512   9.349  0.8732  0.4620 -0.9238
12142SOL     OW39702   3.650   0.831   7.315 -0.2880  0.3078  0.4500
12142SOL    HW139703   3.668   0.923   7.335 -0.9921  0.2752  1.2629
12142SOL    HW239704   3.731   0.799   7.274  0.1371  1.1495  0.6202
12143SOL     OW39705   4.776   1.269   4.099  0.0341 -0.0889  0.4927
12143SOL    HW139706   4.870   1.251   4.105  0.2067 -0.8152 -2.5918
12143SOL    HW239707   4.742   1.199   4.044 -2.0344  1.0286  0.2485
12144SOL     OW39708   6.597   7.074   2.675 -0.1746  0.0576 -0.5088
12144SOL    HW139709   6.651   7.144   2.638  0.4992 -1.3559 -2.4172
12144SOL    HW239710   6.518   7.074   2.621 -0.9880  0.5013  0.6595
12145SOL     OW39711   8.718   7.500   2.982  0.2360 -0.3777  0.0004
12145SOL    HW139712   8.743   7.441   2.911  0.6494 -0.1148 -0.0786
12145SOL    HW239713   8.801   7.539   3.011  0.4202 -2.2020  2.2021
12146SOL     OW39714   4.090   5.666   6.183  0.2254  0.1047 -0.2417
12146SOL    HW139715   4.064   5.680   6.092 -1.2454 -2.8755 -0.4301
12146SOL    HW239716   4.043   5.734   6.232 -1.1478  0.1024 -1.4801
12147SOL     OW39717   3.566   8.162   7.514 -0.1700  0.2318  0.1408
12147SOL    HW139718   3.471   8.160   7.499  0.1048  0.7989 -1.9988
12147SOL    HW239719   3.578   8.115   7.597 -2.4785  1.7690  1.4865
12148SOL     OW39720   5.749   9.158   4.573  0.0841 -0.2730 -0.3842
12148SOL    HW139721   5.806   9.082   4.581  0.4125  0.1650  1.9618
12148SOL    HW239722   5.669   9.134   4.620 -1.0039 -0.1832 -2.0614
12149SOL     OW39723   5.989   3.394   2.418 -0.2469  0.0409 -0.0272
12149SOL    HW139724   6.072   3.377   2.462  0.1866  1.1117 -0.4104
12149SOL    HW239725   5.988   3.333   2.344 -0.8383 -1.5487  1.2404
12150SOL     OW39726   6.472   8.646  10.577 -0.0651 -0.1210 -0.0526
12150SOL    HW139727   6.527   8.700  10.633 -0.7601  1.1513 -0.5493
12150SOL    HW239728   6.530   8.617  10.506  0.0594  0.9723 -0.4215
12151SOL     OW39729   9.134   9.551   6.886  0.0709  0.2885  0.4379
12151SOL    HW139730   9.170   9.495   6.955  2.2554  1.6496  0.4848
12151SOL    HW239731   9.051   9.584   6.922 -0.4866 -1.6311  1.0164
12152SOL     OW39732  10.765   9.453   0.701 -0.0403  0.4996  0.1843
12152SOL    HW139733  10.779   9.367   0.741 -0.1657 -0.6914 -2.1458
12152SOL    HW239734  10.812   9.514   0.757 -0.9091 -0.8989  2.5716
12153SOL     OW39735   2.747   7.069   5.610  0.0530  0.0698 -0.3528
12153SOL    HW139736   2.705   6.990   5.645  0.6084 -0.7070 -1.3826
12153SOL    HW239737   2.831   7.075   5.656 -0.6344  0.9599  0.8488
12154SOL     OW39738   0.811   5.636   9.690 -0.4927 -0.0816  0.0294
12154SOL    HW139739   0.901   5.667   9.690 -0.7667  0.8892  2.0149
12154SOL    HW239740   0.762   5.704   9.737 -1.7726 -1.7860  1.3254
12155SOL     OW39741   2.753   3.363   3.524 -0.0948 -0.6421  0.1190
12155SOL    HW139742   2.842   3.377   3.494 -0.7318 -0.0101 -1.6433
12155SOL    HW239743   2.761   3.307   3.601  1.9983  1.9604  1.9344
12156SOL     OW39744  10.981   0.443   2.743 -0.0236  0.2658 -0.0408
12156SOL    HW139745  10.885   0.437   2.750 -0.0655  0.9153 -0.0058
12156SOL    HW239746  11.012   0.430   2.832 -0.2619  3.0939  0.5457
12157SOL     OW39747   5.970  11.322   0.633  0.0192 -0.4862 -0.0009
12157SOL    HW139748   6.008  11.297   0.717  1.4406 -0.0441 -0.4845
12157SOL    HW239749   5.958  11.417   0.640  0.9169 -0.3185 -0.5764
12158SOL     OW39750   9.415   2.520   4.372 -0.7044  0.2152  0.1101
12158SOL    HW139751   9.411   2.546   4.280  0.0244 -0.3188 -0.0793
12158SOL    HW239752   9.432   2.602   4.419 -0.5218  0.4028 -0.2791
12159SOL     OW39753   9.584   7.661   1.354  0.1212  0.7123 -0.6778
12159SOL    HW139754   9.554   7.752   1.347 -0.3816  0.7137  1.1566
12159SOL    HW239755   9.506   7.609   1.333  0.3735  0.6769 -1.5888
12160SOL     OW39756   8.033   9.540   2.728 -0.0910 -0.5649 -0.4204
12160SOL    HW139757   8.093   9.487   2.675  1.3423 -0.9023  1.4397
12160SOL    HW239758   7.952   9.490   2.730  1.2110 -2.7814  1.2617
12161SOL     OW39759   5.688   5.149   9.407 -0.1060 -0.2763  0.0775
12161SOL    HW139760   5.687   5.160   9.502  0.9646 -0.3568  0.1119
12161SOL    HW239761   5.607   5.103   9.387 -1.1098  1.1189  0.7601
12162SOL     OW39762   4.392   4.161   6.002  0.2631  0.4946 -0.0829
12162SOL    HW139763   4.354   4.228   5.945 -2.0442 -0.5565  0.0859
12162SOL    HW239764   4.438   4.102   5.943  1.8627  1.8667 -0.2915
12163SOL     OW39765   6.481   5.672  10.664 -0.3232 -0.2735  0.3475
12163SOL    HW139766   6.526   5.652  10.582  0.0864  0.9843  0.2402
12163SOL    HW239767   6.548   5.663  10.732  0.0925  1.4303  0.2067
12164SOL     OW39768   6.229   8.786  10.582  0.1484 -0.2932  0.5680
12164SOL    HW139769   6.288   8.711  10.576 -1.5819 -1.6337 -0.8519
12164SOL    HW239770   6.147   8.755  10.544 -1.2137  1.7701  1.6337
12165SOL     OW39771   7.362   3.017   6.618  0.3104 -0.9800  0.2799
12165SOL    HW139772   7.309   3.075   6.563  0.8363 -0.0832  0.6844
12165SOL    HW239773   7.302   2.948   6.645 -0.0010 -1.3652 -1.2875
12166SOL     OW39774   5.221   2.253   7.303  0.5840 -0.0313 -0.3467
12166SOL    HW139775   5.224   2.275   7.397  0.0116 -0.3956 -0.2415
12166SOL    HW239776   5.192   2.162   7.301  1.4952 -0.3218 -0.8479
12167SOL     OW39777  11.019   5.131   7.577  0.5368  0.1136 -0.3720
12167SOL    HW139778  11.085   5.070   7.546 -0.7599 -0.6428 -1.8341
12167SOL    HW239779  10.951   5.129   7.509 -0.6370  1.4084  0.6880
12168SOL     OW39780   5.016   0.519   4.645  0.0652 -0.1408  0.4108
12168SOL    HW139781   5.061   0.457   4.588  1.2769  0.3678  0.7849
12168SOL    HW239782   5.080   0.588   4.661 -0.4150 -0.0216  1.9768
12169SOL     OW39783   7.249   9.602   4.110 -0.2817 -0.1016 -0.1303
12169SOL    HW139784   7.167   9.572   4.072  0.1131 -1.2832 -0.0764
12169SOL    HW239785   7.293   9.522   4.141  1.9520  0.1745 -2.2362
12170SOL     OW39786   7.635   5.736   7.513 -0.6376 -0.3861  0.8776
12170SOL    HW139787   7.591   5.651   7.504 -0.6962 -0.3224  0.5648
12170SOL    HW239788   7.564   5.800   7.509 -0.6732 -0.3559  1.8431
12171SOL     OW39789   2.318   4.095   1.760 -0.1306 -0.2274  0.0480
12171SOL    HW139790   2.392   4.131   1.809 -0.2754 -0.3556  0.3701
12171SOL    HW239791   2.307   4.007   1.796 -0.2995 -0.2875 -0.1530
12172SOL     OW39792   3.524   4.349   9.062 -0.3866  0.0948 -0.5659
12172SOL    HW139793   3.515   4.411   9.135 -0.9984  1.1917 -1.5370
12172SOL    HW239794   3.467   4.276   9.085  1.6055 -0.9485  1.3964
12173SOL     OW39795   9.917   4.227   1.183 -0.4238  0.3781 -0.0770
12173SOL    HW139796   9.946   4.279   1.258 -0.0195 -0.3738  0.3016
12173SOL    HW239797   9.984   4.159   1.174 -1.1678 -0.3475 -0.2770
12174SOL     OW39798  10.758   0.908   6.724 -0.4497 -0.2316  0.1880
12174SOL    HW139799  10.817   0.938   6.655 -2.3917  1.4589 -0.8493
12174SOL    HW239800  10.707   0.838   6.683 -0.3110 -0.5546  0.5547
12175SOL     OW39801   0.808  10.095   7.172  0.1834  0.1160  0.5152
12175SOL    HW139802   0.864  10.170   7.152 -1.2229  0.5568 -2.2219
12175SOL    HW239803   0.868  10.020   7.175  1.4170  1.1014  1.9303
12176SOL     OW39804   1.437   6.412   9.174  0.2793  0.4569  0.2228
12176SOL    HW139805   1.360   6.362   9.148  1.5103 -1.8634  0.7999
12176SOL    HW239806   1.406   6.465   9.248 -1.3662  1.5510 -1.1768
12177SOL     OW39807   6.462  10.935  10.471 -0.2280 -0.4356 -0.2126
12177SOL    HW139808   6.474  10.866  10.536  2.4862 -0.9667 -1.1823
12177SOL    HW239809   6.455  10.890  10.388  0.6476  0.3871 -0.7547
12178SOL     OW39810   9.012   7.388  10.960  0.1179  0.4998 -0.3059
12178SOL    HW139811   9.032   7.299  10.931 -1.7167 -0.6520  1.6752
12178SOL    HW239812   9.063   7.444  10.901  1.0688 -1.8146 -1.8502
12179SOL     OW39813   7.237   3.381  10.943  0.7017  0.2130  0.0750
12179SOL    HW139814   7.317   3.331  10.927  0.1999 -0.1245 -1.5521
12179SOL    HW239815   7.166   3.323  10.914 -0.2007  0.3364  1.8580
12180SOL     OW39816   6.034  10.724   7.902 -0.2256  0.4464 -0.2634
12180SOL    HW139817   5.995  10.637   7.914 -0.8297  0.7130 -0.2668
12180SOL    HW239818   6.007  10.774   7.980 -1.2989  1.1399 -1.0585
12181SOL     OW39819  11.266   5.075   0.878 -0.3080  0.2254  0.2391
12181SOL    HW139820  11.283   5.168   0.888 -0.7570  0.4743 -1.0901
12181SOL    HW239821  11.190   5.058   0.933  0.2433  0.4690  1.0944
12182SOL     OW39822   5.564   9.967   8.934  0.3990  0.1963 -0.3426
12182SOL    HW139823   5.533  10.018   8.859 -0.4918  0.8733  0.4581
12182SOL    HW239824   5.655   9.948   8.914  0.8886  2.4238 -0.5106
12183SOL     OW39825   2.119   0.567   2.056  0.3458  0.1132  0.5378
12183SOL    HW139826   2.209   0.586   2.027  0.1200  0.6700  0.1894
12183SOL    HW239827   2.116   0.597   2.146  0.2131  1.0633  0.2290
12184SOL     OW39828   9.015   1.721  10.441  0.0929 -0.3641 -0.4269
12184SOL    HW139829   9.093   1.711  10.495  0.4148  0.1882 -0.7870
12184SOL    HW239830   9.021   1.810  10.406  0.3341 -0.9906 -2.0733
12185SOL     OW39831   5.913   4.103   2.397 -0.5324 -0.0867  0.1616
12185SOL    HW139832   5.913   4.077   2.489 -2.7548 -0.8355 -0.0009
12185SOL    HW239833   5.936   4.023   2.349  0.1330  0.1792  0.0208
12186SOL     OW39834   3.495   3.197   0.291 -0.4250  0.3684 -0.0520
12186SOL    HW139835   3.451   3.275   0.324 -0.9833  0.5359 -1.1627
12186SOL    HW239836   3.458   3.183   0.204  1.9809  0.7378 -1.2141
12187SOL     OW39837   7.715  10.159   2.061  0.0792  0.2833 -0.1316
12187SOL    HW139838   7.736  10.074   2.099  0.6630  0.2462 -0.5192
12187SOL    HW239839   7.655  10.200   2.124 -0.3579 -0.4870 -0.0349
12188SOL     OW39840   8.073   6.107   6.706 -0.3710 -0.5013  0.2793
12188SOL    HW139841   8.045   6.023   6.744 -0.3502  0.1866  1.8823
12188SOL    HW239842   8.132   6.144   6.771  0.0130  0.5357 -0.6464
12189SOL     OW39843   2.660  10.073   7.827 -0.1367  0.2029  0.4712
12189SOL    HW139844   2.697  10.138   7.887  2.2658 -0.9574  0.3669
12189SOL    HW239845   2.611  10.013   7.883  0.8521 -0.0333  1.1194
12190SOL     OW39846   5.228   5.920   3.358  0.2006  0.2988 -0.4316
12190SOL    HW139847   5.311   5.959   3.329 -0.3555  2.3614  0.5302
12190SOL    HW239848   5.163   5.988   3.341 -1.0308 -0.6549  0.3433
12191SOL     OW39849   2.978   6.418   2.816 -0.7383 -0.2312 -0.5144
12191SOL    HW139850   2.891   6.444   2.785 -0.4618  0.4347 -0.7279
12191SOL    HW239851   2.995   6.475   2.890  0.0440  0.4846 -1.2357
12192SOL     OW39852   6.234  11.141   7.813  0.2567  0.7603  0.6350
12192SOL    HW139853   6.141  11.149   7.793  0.4190 -0.5676 -0.8230
12192SOL    HW239854   6.238  11.090   7.893 -0.2578 -0.3331 -0.0183
12193SOL     OW39855   7.180   7.498   5.413  0.4822  0.0825  0.3471
12193SOL    HW139856   7.271   7.477   5.393  0.7073  0.7674  0.6366
12193SOL    HW239857   7.181   7.590   5.440 -0.3033  0.1200  0.2921
12194SOL     OW39858   1.952  10.775   0.700  0.1140 -0.0415 -0.4937
12194SOL    HW139859   1.922  10.684   0.703  1.3309 -0.4765 -0.8165
12194SOL    HW239860   2.038  10.770   0.658  0.2038  1.2617 -0.4991
12195SOL     OW39861   1.809   0.079   7.779 -0.6996 -0.0087 -0.6932
12195SOL    HW139862   1.874   0.046   7.842 -1.6928  1.4800  1.2274
12195SOL    HW239863   1.855   0.081   7.695  1.3895 -0.0441  0.3986
12196SOL     OW39864   8.555   1.591   3.669 -0.1296  0.4433  0.2938
12196SOL    HW139865   8.617   1.535   3.716  0.5652  0.4230 -0.6132
12196SOL    HW239866   8.545   1.668   3.724  3.4080  2.0464 -1.0785
12197SOL     OW39867   7.903  10.642   0.782 -0.5856  0.3835 -0.0973
12197SOL    HW139868   7.847  10.670   0.710 -0.8334  1.5044  0.4932
12197SOL    HW239869   7.846  10.643   0.859 -0.2805 -0.5925  0.1653
12198SOL     OW39870   9.286   0.345   7.658 -0.0497  0.3488  0.4751
12198SOL    HW139871   9.239   0.296   7.591 -0.0352  1.6852 -0.5425
12198SOL    HW239872   9.377   0.315   7.649  0.0442  0.8829 -0.4579
12199SOL     OW39873   5.606  10.225  11.374 -0.0733  0.0210  0.2117
12199SOL    HW139874   5.528  10.169  11.365  0.7714 -1.3124  0.8307
12199SOL    HW239875   5.625  10.225  11.468  0.6233  0.4082  0.0754
12200SOL     OW39876  11.209   2.330   5.309 -0.0570 -0.5544 -0.1811
12200SOL    HW139877  11.173   2.416   5.286  1.6294 -0.1130 -1.2994
12200SOL    HW239878  11.138   2.269   5.290 -1.5860  0.6138  1.4010
12201SOL     OW39879   4.996   6.696   1.415 -0.7244 -0.4534 -0.0759
12201SOL    HW139880   4.990   6.766   1.349 -1.9499  1.2196  1.7111
12201SOL    HW239881   5.089   6.695   1.440 -0.2898 -0.9366 -1.5794
12202SOL     OW39882   9.389   5.986   3.148  0.1532 -0.1674  0.5822
12202SOL    HW139883   9.471   6.024   3.179  0.6963 -1.7665  1.1757
12202SOL    HW239884   9.378   6.023   3.060  1.4189  0.1868  0.5530
12203SOL     OW39885  11.295  11.102   7.116 -0.3108  0.2846 -0.3517
12203SOL    HW139886  11.273  11.146   7.198  0.8828  1.8077 -0.8162
12203SOL    HW239887  11.213  11.100   7.067 -1.3165 -1.5968  1.2343
12204SOL     OW39888  10.351   7.030   4.248 -0.3926  0.4817 -0.2945
12204SOL    HW139889  10.382   7.028   4.158 -0.7161  0.8064 -0.4183
12204SOL    HW239890  10.371   6.943   4.283  0.8881  0.7622 -0.2774
12205SOL     OW39891   3.309  10.772   1.627 -0.3526 -0.3296  0.6396
12205SOL    HW139892   3.389  10.814   1.658 -1.2896  0.0393  2.7064
12205SOL    HW239893   3.284  10.821   1.549  0.5277  0.6307  0.9556
12206SOL     OW39894   2.848   1.536   9.886  0.4804 -0.3489 -0.0830
12206SOL    HW139895   2.883   1.549   9.974 -0.8979  1.8495  0.2265
12206SOL    HW239896   2.923   1.546   9.828  1.2222 -0.7533  0.7847
12207SOL     OW39897   7.248   4.787   2.663 -0.0978  0.0269 -0.8098
12207SOL    HW139898   7.158   4.781   2.697 -0.0586 -0.2215 -0.7544
12207SOL    HW239899   7.252   4.721   2.594  0.8114 -1.7608  0.8721
12208SOL     OW39900   0.736   3.782   6.208 -0.6413  0.1314  0.1437
12208SOL    HW139901   0.726   3.818   6.296 -1.0254  0.7541 -0.1477
12208SOL    HW239902   0.738   3.859   6.150 -1.1860 -0.2936 -0.4611
12209SOL     OW39903  11.128   4.480   7.478 -0.1596  0.3785 -0.2867
12209SOL    HW139904  11.092   4.423   7.546 -0.3323 -0.7419 -1.2741
12209SOL    HW239905  11.210   4.438   7.452  0.1295  1.0372 -0.4552
12210SOL     OW39906   4.582   9.691   4.707 -0.0166 -0.0597 -0.3889
12210SOL    HW139907   4.503   9.740   4.681 -1.2349 -1.6044  0.2686
12210SOL    HW239908   4.636   9.756   4.752 -1.8750  0.6019  1.0350
12211SOL     OW39909   0.005   6.002   7.778 -0.3109  0.3538  0.0600
12211SOL    HW139910   0.075   5.965   7.833 -0.1050  3.1281  1.8983
12211SOL    HW239911  -0.017   5.932   7.717  0.9576 -2.2135  2.3054
12212SOL     OW39912   1.889   4.565  10.588  0.4262  0.5872 -0.3037
12212SOL    HW139913   1.909   4.620  10.664  0.8422  0.1139 -0.0606
12212SOL    HW239914   1.969   4.514  10.574  0.1538  0.2655 -0.7051
12213SOL     OW39915   7.623   2.116   0.880 -0.5706 -0.1304 -0.2894
12213SOL    HW139916   7.597   2.190   0.934  0.3283  2.4159 -3.0215
12213SOL    HW239917   7.719   2.121   0.877 -0.5712 -0.4324 -1.6995
12214SOL     OW39918   4.402   7.243   9.766 -0.8086  0.1454 -0.2202
12214SOL    HW139919   4.365   7.159   9.793 -1.4571  1.0111  1.8621
12214SOL    HW239920   4.380   7.251   9.674  0.0859 -2.3511 -0.7282
12215SOL     OW39921   9.507  11.227   9.774 -0.3320 -0.4548  0.4639
12215SOL    HW139922   9.530  11.224   9.867 -0.3509  3.6495  0.8088
12215SOL    HW239923   9.518  11.319   9.750  0.3280 -1.4407 -3.8269
12216SOL     OW39924   2.342   9.847  10.878 -0.3167  0.3234  0.4520
12216SOL    HW139925   2.388   9.762  10.877 -1.5323 -0.4249 -2.8960
12216SOL    HW239926   2.253   9.826  10.851 -1.1630  2.5053  1.3569
12217SOL     OW39927   4.776   2.888   1.658 -0.3092 -0.0972  0.3836
12217SOL    HW139928   4.746   2.841   1.580  1.4115  0.0165 -0.4158
12217SOL    HW239929   4.805   2.973   1.624 -0.2320  0.2364  1.2684
12218SOL     OW39930  10.427   0.420   3.058 -0.1442  0.1227  0.5384
12218SOL    HW139931  10.481   0.429   3.137 -0.8519  0.7728  0.9645
12218SOL    HW239932  10.377   0.501   3.054 -2.0032 -0.9624  0.8536
12219SOL     OW39933   7.331   6.210   8.397 -0.0060 -0.8692 -0.0593
12219SOL    HW139934   7.353   6.119   8.378 -2.1454 -1.5595  0.4319
12219SOL    HW239935   7.355   6.258   8.318 -1.1141 -2.2944 -1.3346
12220SOL     OW39936   2.144  10.163   6.855  0.0907 -0.2078 -0.7953
12220SOL    HW139937   2.099  10.192   6.934  0.9263  0.1448 -0.4396
12220SOL    HW239938   2.115  10.224   6.787 -0.0176 -0.0287 -0.5876
12221SOL     OW39939   8.546   3.730  10.008 -0.3817  0.3124  0.0776
12221SOL    HW139940   8.618   3.730  10.070 -1.7385 -0.2136  1.7221
12221SOL    HW239941   8.588   3.719   9.922  1.4512 -0.2564  1.0003
12222SOL     OW39942  11.069   6.971   6.798  0.3484  0.1353 -0.0991
12222SOL    HW139943  11.134   7.041   6.803  0.1013  0.3978 -0.5490
12222SOL    HW239944  11.118   6.891   6.820  0.7706  0.3577 -0.2234
12223SOL     OW39945   8.100   3.465   8.816 -0.5261  0.3080  0.6309
12223SOL    HW139946   8.093   3.447   8.910 -0.3567  0.7844  0.7394
12223SOL    HW239947   8.185   3.508   8.806 -0.3481 -0.1383  0.1926
12224SOL     OW39948   9.359   7.931   2.723  0.0660  0.0620 -0.0336
12224SOL    HW139949   9.445   7.906   2.689 -0.5162  0.0803 -1.5664
12224SOL    HW239950   9.319   7.981   2.653 -1.3768 -0.2947  0.5056
12225SOL     OW39951   3.540   6.841  11.143 -0.1287  0.1293  0.1711
12225SOL    HW139952   3.505   6.776  11.082 -0.8933 -1.6103  2.3175
12225SOL    HW239953   3.634   6.823  11.146  0.0644  0.8047 -1.0833
12226SOL     OW39954  10.144   9.885   2.708 -0.3251  0.5209  0.3440
12226SOL    HW139955  10.234   9.906   2.735 -0.4266  2.4232 -0.6378
12226SOL    HW239956  10.089   9.923   2.775 -0.4298 -0.7526  1.0093
12227SOL     OW39957   6.670   6.007   6.188  0.1273 -0.0108 -0.1552
12227SOL    HW139958   6.698   6.049   6.269 -0.9320 -0.0168  0.2399
12227SOL    HW239959   6.625   5.927   6.217 -0.9210  0.3638 -0.6875
12228SOL     OW39960   1.266   6.115   7.710  0.2426  0.3351  0.0105
12228SOL    HW139961   1.212   6.118   7.789 -1.2802  0.6085 -1.0117
12228SOL    HW239962   1.267   6.205   7.677 -1.1562 -0.1762 -1.5647
12229SOL     OW39963   4.868   9.521   6.289  0.4221  0.2078 -0.2013
12229SOL    HW139964   4.860   9.430   6.259  1.0566  1.0450 -3.1311
12229SOL    HW239965   4.779   9.556   6.283 -0.0425 -0.4159  1.9553
12230SOL     OW39966   5.877   4.251   5.014 -0.7949 -0.0206 -0.5150
12230SOL    HW139967   5.799   4.197   5.003 -1.7149  1.0075  0.6904
12230SOL    HW239968   5.909   4.229   5.102  0.8785 -1.1405 -1.3352
12231SOL     OW39969   6.021   2.573   6.409 -0.1066  0.7023  0.5894
12231SOL    HW139970   6.102   2.603   6.368  0.3374  0.2240  1.0957
12231SOL    HW239971   5.952   2.603   6.350  0.3408  2.2619  0.8032
12232SOL     OW39972   8.250   4.030   3.128  0.1942 -0.2407 -0.0170
12232SOL    HW139973   8.250   4.081   3.048  0.5045 -0.8390 -0.4062
12232SOL    HW239974   8.162   4.041   3.165  0.4255  1.0040  0.1959
12233SOL     OW39975   0.220   5.555   4.569 -0.6686  0.0999 -0.2044
12233SOL    HW139976   0.177   5.639   4.583  1.5926  1.6153 -1.6964
12233SOL    HW239977   0.244   5.525   4.657 -1.1780  1.1640  0.3164
12234SOL     OW39978   2.791   4.623   9.887 -0.3886 -0.0230  0.0343
12234SOL    HW139979   2.712   4.638   9.939 -1.1226 -0.6086 -0.8831
12234SOL    HW239980   2.765   4.558   9.822  0.7605  0.0249 -0.4987
12235SOL     OW39981  11.292  11.226   6.381  0.2960 -0.0601 -0.0593
12235SOL    HW139982  11.354  11.201   6.450  1.8108 -1.3558 -1.7724
12235SOL    HW239983  11.226  11.157   6.382  2.3949 -2.3539 -2.2579
12236SOL     OW39984   6.143   3.923   9.472 -0.2095 -0.5014 -0.2417
12236SOL    HW139985   6.104   3.954   9.554  0.2828  0.9561 -0.5488
12236SOL    HW239986   6.083   3.953   9.404  0.2647 -0.2419 -0.5474
12237SOL     OW39987   3.351   2.863   9.006  0.3486 -0.2052  0.0489
12237SOL    HW139988   3.422   2.801   8.989  1.3644  1.5290 -2.7577
12237SOL    HW239989   3.277   2.828   8.955  1.1373  1.1212 -2.1376
12238SOL     OW39990   7.978  10.346   5.675 -0.6833 -0.0249 -0.0306
12238SOL    HW139991   7.934  10.339   5.760 -1.1420 -0.7161 -0.3145
12238SOL    HW239992   7.955  10.433   5.643 -0.9258  0.0475  0.3304
12239SOL     OW39993   5.536   5.116  10.239 -0.0305  0.4973 -0.0875
12239SOL    HW139994   5.626   5.116  10.270 -0.2617  0.1591  0.6157
12239SOL    HW239995   5.507   5.207  10.251 -0.4333  0.1751  1.7219
12240SOL     OW39996   0.424   6.733   7.207 -0.1226 -0.1820  0.3537
12240SOL    HW139997   0.431   6.771   7.295 -1.7124  0.7652  0.1161
12240SOL    HW239998   0.458   6.644   7.216  0.2256  0.0709  1.8011
12241SOL     OW39999   4.595   3.862   2.355 -0.6257 -0.2358  0.1358
12241SOL    HW140000   4.687   3.889   2.349 -0.0222 -1.4981  2.4644
12241SOL    HW240001   4.551   3.913   2.287  2.0310 -0.8430 -2.2744
12242SOL     OW40002   7.198   7.736   4.305  0.3408  0.4731 -0.1745
12242SOL    HW140003   7.206   7.652   4.351  0.9152  1.2361  1.1808
12242SOL    HW240004   7.204   7.801   4.374 -0.3814  1.6386 -1.1785
12243SOL     OW40005   0.989   2.660  10.115  0.4731 -0.5207 -0.2163
12243SOL    HW140006   0.898   2.670  10.087 -0.2055 -0.4483  1.8300
12243SOL    HW240007   1.039   2.655  10.034 -1.0673  2.0174 -1.4394
12244SOL     OW40008   9.372   3.403   5.247  0.0928 -0.2240 -0.0435
12244SOL    HW140009   9.401   3.490   5.217  0.0104 -0.4010 -0.6353
12244SOL    HW240010   9.348   3.357   5.168 -0.0078 -0.7444  0.2867
12245SOL     OW40011   5.417   0.128   2.980 -0.4066 -0.0218  0.2044
12245SOL    HW140012   5.377   0.045   3.007 -1.3285  0.1477 -0.5736
12245SOL    HW240013   5.352   0.168   2.922  0.2553  0.9967  0.1390
12246SOL     OW40014   6.038   4.572   6.277  0.2374 -0.1118  0.7448
12246SOL    HW140015   6.129   4.578   6.248  0.1997 -0.2666  0.5960
12246SOL    HW240016   5.988   4.560   6.197 -0.3045  3.4797  0.3828
12247SOL     OW40017   5.208   7.821   7.092  0.2900 -0.1054  0.0933
12247SOL    HW140018   5.233   7.904   7.134  0.5800 -0.7872  1.3321
12247SOL    HW240019   5.172   7.769   7.164 -1.9107 -0.2883 -1.0568
12248SOL     OW40020   6.762  10.299   7.661  0.0012 -0.3386  0.5243
12248SOL    HW140021   6.778  10.343   7.577  0.4827  1.7416  1.6617
12248SOL    HW240022   6.693  10.350   7.702  1.5368  0.2696  2.4962
12249SOL     OW40023   9.953  10.221   5.250  0.0286 -0.7259 -0.5090
12249SOL    HW140024   9.955  10.151   5.185 -1.9214 -1.6918  0.3940
12249SOL    HW240025   9.879  10.276   5.224  0.2963 -0.1469 -0.0711
12250SOL     OW40026  10.471   9.041   5.708  0.6910 -0.4688 -0.5797
12250SOL    HW140027  10.495   9.074   5.621 -0.5697 -1.6564 -1.4254
12250SOL    HW240028  10.468   9.119   5.763  1.4129  0.3276 -1.6224
12251SOL     OW40029   6.092   4.308   4.469 -0.0673 -0.3008 -0.6066
12251SOL    HW140030   6.162   4.360   4.429 -1.4322  0.8701 -1.5663
12251SOL    HW240031   6.056   4.364   4.537 -0.8246 -0.4230 -0.9005
12252SOL     OW40032  10.595   3.312   6.903 -0.0328 -0.2870  0.3221
12252SOL    HW140033  10.633   3.311   6.990  2.3185 -0.2296 -0.6267
12252SOL    HW240034  10.653   3.256   6.851 -0.5306  0.8309 -1.5213
12253SOL     OW40035   1.254   6.039   3.866 -0.1066 -0.0021 -0.1394
12253SOL    HW140036   1.262   6.112   3.927 -1.2032 -1.2876  1.6783
12253SOL    HW240037   1.329   5.982   3.887  1.9037  1.3843 -2.8817
12254SOL     OW40038   6.860   6.000   8.811 -0.3799  0.1101 -0.2135
12254SOL    HW140039   6.769   6.029   8.821 -0.6173 -0.1566 -1.4781
12254SOL    HW240040   6.865   5.967   8.721  0.9343 -0.0097 -0.1108
12255SOL     OW40041  10.510   4.899   5.932  0.0269  0.1673  0.8900
12255SOL    HW140042  10.417   4.897   5.954 -0.0237  3.7301  1.6508
12255SOL    HW240043  10.512   4.914   5.838 -0.0912 -1.0705  0.6728
12256SOL     OW40044   2.605   2.506   8.072 -0.5732 -0.3930 -0.7728
12256SOL    HW140045   2.562   2.433   8.028 -1.3479 -0.6548  0.3683
12256SOL    HW240046   2.533   2.555   8.112  0.1327 -0.5343  0.7280
12257SOL     OW40047   1.084   2.081   4.039  0.5295 -0.0662 -0.6659
12257SOL    HW140048   1.172   2.043   4.050  0.7514  0.0333 -1.9518
12257SOL    HW240049   1.026   2.005   4.033  0.5098 -0.1329  0.2335
12258SOL     OW40050   1.701  10.245   8.645 -0.5803 -0.0060 -0.0121
12258SOL    HW140051   1.612  10.242   8.681 -0.3161  0.6687  0.7301
12258SOL    HW240052   1.751  10.184   8.699 -0.6028 -0.4299 -0.4681
12259SOL     OW40053   6.487   5.187   0.366  0.3101  0.0356  0.2899
12259SOL    HW140054   6.496   5.279   0.341  0.9470 -0.1270 -0.1161
12259SOL    HW240055   6.576   5.152   0.361  0.2475 -0.3509  1.4840
12260SOL     OW40056   7.626   1.021   9.712  0.0803 -0.6527 -0.4085
12260SOL    HW140057   7.652   1.017   9.804 -0.4314  1.0835 -0.1441
12260SOL    HW240058   7.699   1.065   9.669  0.0496 -0.9023 -0.7151
12261SOL     OW40059   5.155   6.077   0.050 -0.2041 -0.4643  0.7448
12261SOL    HW140060   5.246   6.107   0.061 -0.4656  1.3446 -1.4686
12261SOL    HW240061   5.102   6.154   0.070 -1.1923 -1.0391  0.3775
12262SOL     OW40062   1.368   4.191   8.232 -0.4666  0.5222 -0.0820
12262SOL    HW140063   1.286   4.220   8.272 -0.9024  3.1766 -2.5474
12262SOL    HW240064   1.371   4.237   8.148  3.5792  0.5461 -0.1044
12263SOL     OW40065   3.187   6.623  10.351 -0.2095  0.5711  0.1846
12263SOL    HW140066   3.242   6.692  10.388  1.5090 -0.8223  0.3919
12263SOL    HW240067   3.242   6.545  10.353 -1.7377 -0.6121 -0.9321
12264SOL     OW40068   0.075  11.225   6.621  0.0658  0.3865  0.2223
12264SOL    HW140069   0.128  11.173   6.682 -1.6540  0.1657  1.5808
12264SOL    HW240070   0.058  11.307   6.668 -1.5360  0.0919  0.1983
12265SOL     OW40071   5.327   9.582   1.986  0.4869  0.0901 -0.2102
12265SOL    HW140072   5.321   9.676   1.975 -0.1125 -0.1298 -1.9480
12265SOL    HW240073   5.236   9.551   1.987  0.6105 -0.3692  1.6665
12266SOL     OW40074   2.471   5.206  10.183  0.8488  0.1036 -0.1032
12266SOL    HW140075   2.442   5.272  10.120  0.1844 -0.1030 -0.0155
12266SOL    HW240076   2.489   5.254  10.263 -1.6125 -0.0587  0.6088
12267SOL     OW40077  10.724   1.693   5.884  0.0995 -0.1379 -0.2458
12267SOL    HW140078  10.644   1.740   5.859 -0.7133 -1.6403 -0.5858
12267SOL    HW240079  10.740   1.719   5.974 -0.5794  0.4471 -0.2858
12268SOL     OW40080   6.641   2.353   6.911  0.7328 -0.2640 -0.4116
12268SOL    HW140081   6.731   2.324   6.895  1.0306  0.1946  0.3826
12268SOL    HW240082   6.634   2.436   6.864  0.3439 -0.8751 -1.4572
12269SOL     OW40083   5.586   8.211   1.463 -0.2997  0.0130  0.8759
12269SOL    HW140084   5.664   8.221   1.410 -0.2819 -0.2599  0.8482
12269SOL    HW240085   5.611   8.150   1.533 -0.2147  0.6504  1.4125
12270SOL     OW40086   4.770   6.303   1.189  0.3310  0.0280  0.9706
12270SOL    HW140087   4.844   6.335   1.241  1.0350  0.4924 -0.2685
12270SOL    HW240088   4.696   6.357   1.217  0.3837 -0.5700  2.3597
12271SOL     OW40089   6.232   9.615   2.788 -0.7958 -0.3522  0.1117
12271SOL    HW140090   6.237   9.576   2.701  1.5163  0.5026 -0.2386
12271SOL    HW240091   6.270   9.549   2.846 -1.3221 -0.4922  0.2986
12272SOL     OW40092   6.970   9.615   4.849  0.0189 -0.1573 -0.1087
12272SOL    HW140093   6.897   9.567   4.809 -0.4769  0.6336 -0.1634
12272SOL    HW240094   6.958   9.706   4.821  0.6314  0.1081  0.4569
12273SOL     OW40095   5.726   4.651   5.642 -0.2279  0.2785 -0.1608
12273SOL    HW140096   5.792   4.710   5.678 -0.9318  0.1202  1.4719
12273SOL    HW240097   5.757   4.563   5.665 -1.6741  0.2494  1.9529
12274SOL     OW40098   1.025   8.424   1.510 -0.0853 -0.2468  0.8812
12274SOL    HW140099   1.088   8.354   1.529 -0.5831 -0.9861 -0.0794
12274SOL    HW240100   1.030   8.482   1.586  1.0957 -0.7671  1.2330
12275SOL     OW40101   3.241   3.239   6.793 -0.9288 -0.0566 -0.3430
12275SOL    HW140102   3.256   3.277   6.707 -0.7382 -1.4222 -0.9312
12275SOL    HW240103   3.150   3.261   6.814 -0.3972  2.0202  0.0414
12276SOL     OW40104   3.211   4.148   7.127  0.2435  0.3098  0.1663
12276SOL    HW140105   3.280   4.214   7.126 -0.6825  1.3062 -1.0015
12276SOL    HW240106   3.135   4.192   7.090 -0.4085 -1.3922 -0.6311
12277SOL     OW40107  10.394   8.317   1.368  0.4248  0.0527  0.2796
12277SOL    HW140108  10.424   8.403   1.339  3.1538 -0.8808  0.0549
12277SOL    HW240109  10.416   8.314   1.461  0.5007 -0.4556  0.2514
12278SOL     OW40110   0.928   9.735   8.267  0.3388  0.2449  0.6439
12278SOL    HW140111   0.839   9.716   8.238  1.1403 -2.9254 -0.1325
12278SOL    HW240112   0.928   9.830   8.282 -2.4114  0.8153 -1.8523
12279SOL     OW40113   5.223   2.535   4.519 -0.1823  0.5009  0.2054
12279SOL    HW140114   5.296   2.484   4.552  0.5162  0.9903 -0.5294
12279SOL    HW240115   5.264   2.604   4.465 -1.0829  1.8467  1.1721
12280SOL     OW40116   1.282   5.900   4.465 -0.1014  0.1784  0.2500
12280SOL    HW140117   1.245   5.961   4.402  0.7214 -0.8757 -1.3133
12280SOL    HW240118   1.364   5.940   4.493 -0.4805  0.6583  0.7058
12281SOL     OW40119   8.890   9.585   6.155  0.7827  0.0717 -0.3257
12281SOL    HW140120   8.923   9.550   6.239  0.5388  1.1000  0.2140
12281SOL    HW240121   8.803   9.618   6.176  0.6317  0.1401 -1.0514
12282SOL     OW40122   1.644   6.867   7.511 -0.9390 -0.3785  0.0362
12282SOL    HW140123   1.576   6.900   7.570  1.0991  2.1115  1.2240
12282SOL    HW240124   1.598   6.808   7.451 -3.7614 -0.2203  1.8587
12283SOL     OW40125   9.856   8.116   2.076 -0.2963  0.1573  0.4146
12283SOL    HW140126   9.881   8.086   2.163 -0.7792  1.0757  0.8901
12283SOL    HW240127   9.891   8.205   2.070  1.4551 -0.5835 -1.1100
12284SOL     OW40128   2.826   3.141   5.854  0.0414 -0.2154  0.3108
12284SOL    HW140129   2.853   3.067   5.800  1.3515  0.8619 -0.5854
12284SOL    HW240130   2.872   3.129   5.937 -0.4304 -0.8463  0.4865
12285SOL     OW40131   9.561   7.461   2.534 -0.0411  0.3889 -0.4967
12285SOL    HW140132   9.608   7.465   2.617 -0.9658  0.2162  0.0350
12285SOL    HW240133   9.491   7.524   2.542 -1.6805 -1.3888 -0.1704
12286SOL     OW40134   1.580   3.131   2.765 -0.2205  0.2024  0.4194
12286SOL    HW140135   1.526   3.064   2.806 -0.3311  0.2366  0.3296
12286SOL    HW240136   1.664   3.088   2.749  0.5109  0.7587  2.5188
12287SOL     OW40137   1.395   5.721   4.099 -0.0587  0.0198 -0.5486
12287SOL    HW140138   1.434   5.800   4.061  0.0616  0.2798  0.1051
12287SOL    HW240139   1.469   5.661   4.111  0.6962  1.3771  2.9466
12288SOL     OW40140   4.248   1.780   2.863  0.7012 -0.2726 -0.1269
12288SOL    HW140141   4.156   1.806   2.859 -0.1852 -2.9230  1.1027
12288SOL    HW240142   4.279   1.791   2.773 -0.5937  1.2881 -0.4349
12289SOL     OW40143   4.054   5.240   4.857  0.4452  0.2421 -0.4155
12289SOL    HW140144   4.011   5.235   4.771 -0.5780 -0.9330  0.1291
12289SOL    HW240145   4.097   5.325   4.858  0.3783  0.3230 -2.0527
12290SOL     OW40146   3.914   6.303   9.053  0.2303  0.3810  0.9654
12290SOL    HW140147   3.823   6.312   9.026  0.6162  0.3337 -0.4422
12290SOL    HW240148   3.910   6.269   9.142 -1.1304 -0.5250  0.5915
12291SOL     OW40149   2.130   9.803   4.616 -0.2225  0.0838 -0.3143
12291SOL    HW140150   2.192   9.865   4.578 -1.7790  2.4227  0.7393
12291SOL    HW240151   2.114   9.739   4.546  0.5724  1.5423 -1.9126
12292SOL     OW40152   2.006   7.320   7.461  0.0253  0.5079  0.5262
12292SOL    HW140153   2.029   7.252   7.398 -0.6770  2.1422 -1.5959
12292SOL    HW240154   2.024   7.280   7.547  0.3447 -2.0445 -0.6401
12293SOL     OW40155   0.829   7.913   3.277  0.0103 -0.0202  0.1844
12293SOL    HW140156   0.920   7.911   3.306  0.2517  4.8764  0.6856
12293SOL    HW240157   0.833   7.944   3.187 -1.1954 -1.0471 -0.2578
12294SOL     OW40158   3.028   9.368   9.047 -0.0504  0.1243  0.1107
12294SOL    HW140159   2.999   9.281   9.020  1.3680 -0.1788 -0.5219
12294SOL    HW240160   3.015   9.423   8.970 -0.5711  0.3991  0.3854
12295SOL     OW40161  10.966   7.149   2.730 -0.1259 -0.4776 -0.0131
12295SOL    HW140162  11.007   7.235   2.721  0.2933 -0.5920  0.6935
12295SOL    HW240163  11.037   7.092   2.760 -0.7764 -0.6932  1.1702
12296SOL     OW40164   8.783   2.466   7.739 -0.4399 -0.3462 -0.6152
12296SOL    HW140165   8.706   2.513   7.773  0.3801 -0.0596  0.9809
12296SOL    HW240166   8.835   2.533   7.696 -0.5789 -0.3383 -0.7730
12297SOL     OW40167   1.445   0.954   5.909 -0.4664  0.2375  0.2579
12297SOL    HW140168   1.533   0.929   5.883 -0.5508  0.4878 -0.2942
12297SOL    HW240169   1.395   0.872   5.904 -0.5333  0.3170 -0.6372
12298SOL     OW40170   3.850   5.761   0.948 -0.6989 -0.2713  0.1634
12298SOL    HW140171   3.765   5.790   0.914  0.4501  0.9208 -1.9950
12298SOL    HW240172   3.893   5.842   0.975  0.4154 -0.6160 -0.5063
12299SOL     OW40173   2.350   7.167   5.114 -0.2398 -0.2199 -0.2642
12299SOL    HW140174   2.404   7.174   5.036  0.6731  0.2379  0.3902
12299SOL    HW240175   2.380   7.238   5.171 -0.7178 -0.6921  0.6090
12300SOL     OW40176   5.106   5.188   1.782  0.0460 -0.7934 -0.6113
12300SOL    HW140177   5.161   5.130   1.729  0.7731  0.8702 -1.7697
12300SOL    HW240178   5.097   5.267   1.730 -0.8647  0.1795  0.9281
12301SOL     OW40179   0.293   1.720   6.720 -0.0542 -0.5034 -0.2888
12301SOL    HW140180   0.227   1.732   6.789  0.8915  2.4041  0.2347
12301SOL    HW240181   0.375   1.704   6.768  0.6157  1.5817 -0.6711
12302SOL     OW40182   6.782   3.067  10.879 -0.3777  0.5417 -0.3829
12302SOL    HW140183   6.701   3.114  10.900  0.3720  2.1560 -0.9473
12302SOL    HW240184   6.835   3.074  10.958 -0.9857 -1.0617  0.2141
12303SOL     OW40185   4.412   7.686  10.514  0.3586 -0.6241 -0.0946
12303SOL    HW140186   4.490   7.713  10.562  0.3257 -0.9167  0.1309
12303SOL    HW240187   4.359   7.766  10.507  0.6375 -0.4461 -0.1718
12304SOL     OW40188   5.108   4.533   1.305  0.0117  0.1051  0.6803
12304SOL    HW140189   5.162   4.464   1.343  0.2533  1.1675  2.3702
12304SOL    HW240190   5.155   4.614   1.325 -0.7777  0.8437 -0.3542
12305SOL     OW40191   8.213   7.881   4.343  0.2911 -0.7583 -0.1939
12305SOL    HW140192   8.118   7.872   4.336  0.2577 -0.2190 -0.5109
12305SOL    HW240193   8.231   7.877   4.437 -0.5414  3.4499  0.3549
12306SOL     OW40194   2.380   1.537   0.638  0.9154  0.1986  0.1323
12306SOL    HW140195   2.383   1.505   0.548  1.8741  1.4108 -0.2889
12306SOL    HW240196   2.287   1.533   0.662  0.9878 -3.5315  0.4012
12307SOL     OW40197   9.262   1.865   6.367  0.1356 -0.0856  0.5329
12307SOL    HW140198   9.291   1.774   6.360  1.1762  0.2588  0.1306
12307SOL    HW240199   9.335   1.916   6.331 -0.8102  0.8535 -0.1145
12308SOL     OW40200   0.291   8.099   9.970  0.3759  0.0491  0.1411
12308SOL    HW140201   0.301   8.159  10.043 -0.0860 -0.1041  0.3371
12308SOL    HW240202   0.329   8.017  10.000  0.2038 -0.0082  0.2045
12309SOL     OW40203   3.076   5.319   1.758  0.0923 -0.5119 -0.3762
12309SOL    HW140204   2.992   5.337   1.715 -1.1088  1.3037  2.4562
12309SOL    HW240205   3.137   5.379   1.715 -0.6486 -0.0049 -0.7582
12310SOL     OW40206   5.031  10.301   3.327  0.4661  0.4839  0.1327
12310SOL    HW140207   4.985  10.279   3.408  1.3284 -0.4148  0.4079
12310SOL    HW240208   4.962  10.322   3.265 -0.2099  1.4953  1.1788
12311SOL     OW40209  11.213   0.749   6.283 -0.0462 -0.1664  0.1500
12311SOL    HW140210  11.151   0.811   6.243 -1.6474 -1.1371  1.0220
12311SOL    HW240211  11.182   0.663   6.255  1.6411 -0.6536 -0.3438
12312SOL     OW40212   4.113   6.288   1.976  0.1003  0.1925  0.0131
12312SOL    HW140213   4.196   6.273   1.932  0.1381 -0.2343  0.2264
12312SOL    HW240214   4.049   6.240   1.924 -0.1462  1.1188 -0.5815
12313SOL     OW40215   1.093   9.392   7.062  0.4384 -0.1318  0.0068
12313SOL    HW140216   1.098   9.296   7.061 -0.5992 -0.1908 -0.1373
12313SOL    HW240217   1.072   9.413   7.153  0.0540 -0.0782 -0.0934
12314SOL     OW40218   4.221   1.770  10.377 -0.3332 -0.4815  0.4178
12314SOL    HW140219   4.192   1.751  10.287 -0.5043  0.5197  0.2570
12314SOL    HW240220   4.143   1.806  10.420  0.6201  2.4176 -0.0654
12315SOL     OW40221  10.169   1.743   1.063  0.2486 -0.0822 -0.1597
12315SOL    HW140222  10.239   1.692   1.104 -0.6686 -1.1559  0.1039
12315SOL    HW240223  10.103   1.754   1.131  0.6063  1.8886 -0.0684
12316SOL     OW40224   9.623   2.753   1.391 -0.0823  0.0763 -0.5091
12316SOL    HW140225   9.617   2.841   1.353  2.6663  0.3592 -0.4526
12316SOL    HW240226   9.708   2.751   1.435  0.1085 -2.7490 -0.8046
12317SOL     OW40227   3.293   7.384   6.972  0.4716  0.3142  0.2233
12317SOL    HW140228   3.228   7.370   7.041  1.6786  0.2027  1.3810
12317SOL    HW240229   3.293   7.303   6.922  1.0352 -0.4418  1.3833
12318SOL     OW40230   7.107   2.679   3.467  0.6156  0.4364  0.0132
12318SOL    HW140231   7.034   2.738   3.486  0.3836 -0.2279  1.3470
12318SOL    HW240232   7.119   2.630   3.549  1.9268 -0.1417 -0.5079
12319SOL     OW40233   9.188  11.123   7.341 -0.5673 -0.0092  0.2954
12319SOL    HW140234   9.124  11.129   7.412  0.2953 -0.8390  1.1771
12319SOL    HW240235   9.244  11.049   7.366  1.5274  1.4565  0.2161
12320SOL     OW40236   9.334  10.820   5.195  0.3713  0.6839 -0.2808
12320SOL    HW140237   9.266  10.757   5.219  0.9505 -0.2909 -1.1129
12320SOL    HW240238   9.414  10.768   5.189  1.0511  1.6721 -0.0970
12321SOL     OW40239   5.871  10.998   1.614  0.0616  0.5113 -0.2836
12321SOL    HW140240   5.957  10.956   1.620  1.8389  3.8046 -0.3377
12321SOL    HW240241   5.849  10.995   1.522 -1.4769 -3.0345  0.0742
12322SOL     OW40242   7.162   6.337   0.504  0.2514  0.0945  0.0025
12322SOL    HW140243   7.075   6.311   0.472  0.8248  0.4792 -1.9919
12322SOL    HW240244   7.218   6.263   0.484  0.3498 -0.3026  1.6279
12323SOL     OW40245   1.485   3.093   1.056  0.0613  0.3695  0.2561
12323SOL    HW140246   1.437   3.062   0.979  3.5850 -0.2332 -1.9264
12323SOL    HW240247   1.495   3.016   1.111  1.5955 -0.4199 -1.0724
12324SOL     OW40248   4.209   9.847  10.569 -0.2102  0.2920  0.0278
12324SOL    HW140249   4.149   9.773  10.576  0.5593 -0.2330  1.6764
12324SOL    HW240250   4.235   9.849  10.477 -1.6083 -0.3733 -0.3993
12325SOL     OW40251   6.261   3.520   7.528  0.1822  0.1839 -0.1672
12325SOL    HW140252   6.331   3.551   7.470  0.1654 -1.4937 -1.1487
12325SOL    HW240253   6.305   3.460   7.589 -0.4105 -1.2107 -1.0512
12326SOL     OW40254   9.487  10.330   7.287 -0.3506  0.4048 -0.1789
12326SOL    HW140255   9.427  10.317   7.214  0.3720 -2.3089 -0.4191
12326SOL    HW240256   9.571  10.349   7.246 -0.4609  1.5453  0.0810
12327SOL     OW40257  11.134   3.556   6.110  0.0924 -0.5929 -0.3753
12327SOL    HW140258  11.170   3.636   6.148 -0.9877 -0.2715  0.0335
12327SOL    HW240259  11.058   3.586   6.060  0.6235 -1.1851 -1.5927
12328SOL     OW40260   9.625   6.557  10.520  0.4250 -0.0958  0.0501
12328SOL    HW140261   9.573   6.607  10.583 -0.3286  0.1133 -0.7227
12328SOL    HW240262   9.708   6.605  10.514  0.4332 -0.0177  0.7415
12329SOL     OW40263   5.275   6.473   2.860 -0.6654  0.1822 -0.0495
12329SOL    HW140264   5.338   6.401   2.865  0.4447  0.9995 -1.2588
12329SOL    HW240265   5.195   6.434   2.825 -0.4669 -0.6780  0.4569
12330SOL     OW40266   7.603   8.411   1.671 -0.2515 -0.1699 -0.2004
12330SOL    HW140267   7.554   8.380   1.595 -1.3004 -0.6240  0.6346
12330SOL    HW240268   7.575   8.354   1.743 -0.6249  1.3547  0.9194
12331SOL     OW40269   4.657   7.665   8.849  0.1333 -0.4091  0.0845
12331SOL    HW140270   4.591   7.704   8.906 -0.5116 -2.0846  0.5471
12331SOL    HW240271   4.709   7.609   8.907 -0.3282 -1.8914 -0.8586
12332SOL     OW40272   6.952   5.352   1.135 -0.2512  0.0910  0.5249
12332SOL    HW140273   6.925   5.442   1.154 -1.4797 -0.1138 -0.1431
12332SOL    HW240274   6.974   5.353   1.042 -0.6282 -0.3824  0.4283
12333SOL     OW40275   5.373   9.847   2.763  0.4104  0.8054  0.0404
12333SOL    HW140276   5.442   9.819   2.823  0.5409 -1.0366 -0.8880
12333SOL    HW240277   5.405   9.822   2.676 -1.4307 -0.1908 -0.4103
12334SOL     OW40278  10.405   0.770   7.567 -0.9430 -0.3066 -0.0016
12334SOL    HW140279  10.398   0.681   7.600 -0.4620 -0.3734 -0.0684
12334SOL    HW240280  10.362   0.824   7.633 -2.0845 -0.6833 -0.4249
12335SOL     OW40281   5.916   7.833   5.772  1.0290  0.0825  0.2656
12335SOL    HW140282   5.837   7.852   5.721  1.2593  0.5718  0.0795
12335SOL    HW240283   5.895   7.753   5.820  0.2451  0.4789  0.5977
12336SOL     OW40284   2.918   9.262  10.552 -0.3813 -0.4984  0.1557
12336SOL    HW140285   2.977   9.216  10.612 -0.1119 -1.4652 -0.8328
12336SOL    HW240286   2.891   9.196  10.489 -1.8945  0.1230  0.1034
12337SOL     OW40287   7.850   4.809   5.196  0.1660 -0.2589 -1.6405
12337SOL    HW140288   7.802   4.734   5.161  0.6379 -0.5431 -1.7013
12337SOL    HW240289   7.804   4.886   5.162 -1.4518 -0.4755 -0.0600
12338SOL     OW40290   1.305   2.507   2.136 -0.2535  0.7639 -0.2781
12338SOL    HW140291   1.266   2.437   2.083 -2.0210  0.2053  1.6183
12338SOL    HW240292   1.360   2.462   2.200 -1.6564  1.0001  1.1675
12339SOL     OW40293  10.646  10.777   5.532 -0.5117 -0.0428  0.1755
12339SOL    HW140294  10.599  10.696   5.552 -0.2777 -0.4276 -0.7420
12339SOL    HW240295  10.734  10.763   5.565 -0.6155  0.0461  0.4880
12340SOL     OW40296   5.444  11.202   2.232  0.2170  0.2254 -0.9152
12340SOL    HW140297   5.391  11.239   2.303 -0.3378  0.3535 -1.3884
12340SOL    HW240298   5.381  11.153   2.179  0.8921 -1.2135 -0.4306
12341SOL     OW40299   9.539   5.615   0.487 -0.3459  0.1995 -0.6495
12341SOL    HW140300   9.502   5.598   0.400  1.7157 -0.5713 -1.4480
12341SOL    HW240301   9.464   5.638   0.541 -1.9414 -1.1038 -2.1887
12342SOL     OW40302  10.766   2.633   9.886  0.1525 -0.2860 -0.2273
12342SOL    HW140303  10.755   2.626   9.981  0.3736 -1.0646 -0.2456
12342SOL    HW240304  10.861   2.638   9.874  0.0715  2.8264 -0.2621
12343SOL     OW40305   7.096   1.004   3.304  0.1950  0.0277 -0.1203
12343SOL    HW140306   7.172   0.988   3.247 -0.0180 -0.0071 -0.3960
12343SOL    HW240307   7.036   1.056   3.251  0.3600  0.7286  0.3621
12344SOL     OW40308  10.316   1.439   1.757  0.7795 -0.3348  0.2188
12344SOL    HW140309  10.344   1.420   1.667  1.0519 -0.0146  0.2367
12344SOL    HW240310  10.221   1.430   1.754  0.8010 -0.4903 -0.0622
12345SOL     OW40311   8.272   2.000   5.895  0.5854 -0.5026  0.2657
12345SOL    HW140312   8.317   2.024   5.814 -0.3460  1.8945  0.3483
12345SOL    HW240313   8.320   2.047   5.964 -0.9972  0.8348  0.5388
12346SOL     OW40314  11.210   9.983   7.447  0.1667  0.6188 -0.3216
12346SOL    HW140315  11.164   9.938   7.375  0.3382  0.1441 -0.1384
12346SOL    HW240316  11.230   9.913   7.509  0.7858  0.8912 -0.2149
12347SOL     OW40317   5.602   8.104   0.943  0.2446 -0.3913 -0.2296
12347SOL    HW140318   5.606   8.048   0.865  0.8208 -1.0982  0.2921
12347SOL    HW240319   5.516   8.086   0.981  1.3646 -2.9459  1.3572
12348SOL     OW40320   6.644   0.984   0.748  0.0747 -0.0823 -0.4280
12348SOL    HW140321   6.719   1.012   0.801 -0.1285 -1.9453  0.9497
12348SOL    HW240322   6.683   0.949   0.668  0.5144  0.9069 -0.6685
12349SOL     OW40323   1.783   0.383   3.900  0.0410 -0.4338  0.3152
12349SOL    HW140324   1.807   0.475   3.907 -1.9370  0.0877  0.9875
12349SOL    HW240325   1.717   0.370   3.969 -0.0135 -2.2507 -0.0246
12350SOL     OW40326  11.075   0.010   0.023 -0.4590 -0.2813 -0.0265
12350SOL    HW140327  11.055   0.098   0.054 -0.5473 -0.1180 -0.5453
12350SOL    HW240328  10.990  -0.034   0.019 -0.6961  0.2546 -1.7353
12351SOL     OW40329   9.528   9.547   7.308  0.6487 -0.0231 -0.6572
12351SOL    HW140330   9.480   9.473   7.344  0.5575  0.7120  0.8055
12351SOL    HW240331   9.537   9.527   7.214 -1.2149 -0.8573 -0.6993
12352SOL     OW40332   1.043   7.694  10.695  0.6895 -0.5859 -0.0535
12352SOL    HW140333   1.116   7.729  10.645  0.9427 -0.8238  0.1424
12352SOL    HW240334   1.044   7.600  10.676 -0.1321 -0.4533 -0.7637
12353SOL     OW40335   1.712   4.533   0.779 -0.2996 -0.3426  0.1285
12353SOL    HW140336   1.747   4.455   0.822 -1.4216 -1.3081 -0.6467
12353SOL    HW240337   1.723   4.516   0.685 -0.4937  0.4655 -0.0509
12354SOL     OW40338   9.744   0.578   8.640  0.2383  0.0772 -0.0408
12354SOL    HW140339   9.786   0.496   8.667  0.1618  0.2869  0.7419
12354SOL    HW240340   9.816   0.634   8.612  0.4194  0.2137  0.6955
12355SOL     OW40341   6.776   4.494   4.277  0.2931  0.4197 -0.9240
12355SOL    HW140342   6.727   4.419   4.311 -0.3277  0.8228 -0.9084
12355SOL    HW240343   6.727   4.571   4.308  0.6911  0.8214 -1.2788
12356SOL     OW40344   9.138  10.010   8.334 -0.1407  0.3959  0.1777
12356SOL    HW140345   9.112   9.919   8.344 -1.1316  0.3349 -2.2163
12356SOL    HW240346   9.105  10.053   8.413 -0.0336 -1.2098  1.1388
12357SOL     OW40347   2.981  10.611   6.395  0.3654  0.1190 -0.4059
12357SOL    HW140348   2.984  10.627   6.300 -1.3420 -1.1130 -0.6965
12357SOL    HW240349   2.961  10.697   6.433 -0.3018  0.3609 -1.2715
12358SOL     OW40350   9.790  10.758   3.734 -0.3712 -0.7082 -0.3353
12358SOL    HW140351   9.781  10.852   3.719  1.0865 -0.3461  0.8569
12358SOL    HW240352   9.746  10.718   3.659 -0.8373  0.9076 -0.9770
12359SOL     OW40353   9.283   0.258   6.085 -0.1295 -0.3552 -0.4352
12359SOL    HW140354   9.259   0.320   6.017 -1.0431  0.1263  0.3008
12359SOL    HW240355   9.259   0.301   6.167  0.3858 -1.1657  0.1669
12360SOL     OW40356   5.409  11.179   7.573 -0.1840 -0.1799 -0.2197
12360SOL    HW140357   5.394  11.268   7.607 -0.7952  0.2056 -1.4330
12360SOL    HW240358   5.328  11.133   7.593 -0.1746 -0.2306 -0.3016
12361SOL     OW40359   0.475   2.919   5.143 -0.0964  0.3030 -0.6612
12361SOL    HW140360   0.478   3.009   5.173  0.5008 -0.5643  2.2357
12361SOL    HW240361   0.539   2.873   5.197 -1.6713 -2.1690 -0.7089
12362SOL     OW40362   6.341   9.002   1.291  0.3506 -0.5007  0.5571
12362SOL    HW140363   6.385   9.014   1.207  1.3224  0.2533  1.1531
12362SOL    HW240364   6.410   8.970   1.350 -0.2541 -0.7512  1.1447
12363SOL     OW40365   8.567   6.955  10.488  0.7616  0.4737 -0.2250
12363SOL    HW140366   8.497   6.977  10.427  0.7344  0.1515 -0.3085
12363SOL    HW240367   8.537   6.877  10.534  2.3228 -1.5162 -2.3739
12364SOL     OW40368   5.858  10.938   3.510 -0.3672 -0.3693  0.3756
12364SOL    HW140369   5.813  10.999   3.567 -0.9455  0.4941 -0.9429
12364SOL    HW240370   5.939  10.917   3.556  0.6610  2.6943  0.1969
12365SOL     OW40371   2.041   1.274   6.430  0.6823 -0.2206 -0.1279
12365SOL    HW140372   2.113   1.291   6.491  0.8276 -0.2579 -0.2885
12365SOL    HW240373   2.061   1.190   6.391  0.3033 -0.4558  0.1740
12366SOL     OW40374   1.958   5.193   6.591 -0.2036  0.0739  0.2882
12366SOL    HW140375   1.889   5.175   6.654  0.3080  0.4412  0.9687
12366SOL    HW240376   2.025   5.127   6.609  0.0370  0.3096  0.2766
12367SOL     OW40377   9.028   4.336   7.841  0.1869  0.3929  0.3966
12367SOL    HW140378   9.015   4.262   7.900 -0.5215  0.5024  0.3870
12367SOL    HW240379   9.017   4.298   7.754  0.3382  0.4103  0.3697
12368SOL     OW40380   4.680   1.537   7.888 -0.0390  0.0149  0.7080
12368SOL    HW140381   4.717   1.619   7.920 -0.3352  0.3229  0.2625
12368SOL    HW240382   4.724   1.523   7.803 -0.8817  0.3447  0.2095
12369SOL     OW40383  10.439   3.858   1.059  0.3282 -0.1622 -0.5752
12369SOL    HW140384  10.495   3.818   0.993  0.2368 -0.4801 -0.4604
12369SOL    HW240385  10.359   3.881   1.011  0.6877  0.6194 -0.8203
12370SOL     OW40386   4.640   5.635   7.240 -0.7074  0.5749  0.2386
12370SOL    HW140387   4.598   5.603   7.160 -2.2071  1.0830  0.7914
12370SOL    HW240388   4.591   5.594   7.311  0.8217 -0.1463  0.9411
12371SOL     OW40389   3.142   6.668   3.271 -0.1681  0.3791 -0.5730
12371SOL    HW140390   3.142   6.703   3.360  1.2701  0.9169 -0.7565
12371SOL    HW240391   3.078   6.720   3.224  0.5494  1.5082 -0.3507
12372SOL     OW40392   3.095   5.323   5.697  0.4554 -0.2172 -0.7138
12372SOL    HW140393   3.029   5.255   5.712  1.8781 -1.2878  1.0092
12372SOL    HW240394   3.056   5.379   5.630 -1.3125 -1.9863 -1.2626
12373SOL     OW40395   4.681   5.449   9.647  0.8053 -0.3407  0.3052
12373SOL    HW140396   4.619   5.416   9.712  1.4203 -1.8079  0.1682
12373SOL    HW240397   4.626   5.473   9.572  0.4452 -2.6931 -0.2516
12374SOL     OW40398   7.057   5.494  10.170  0.1378 -0.3938  0.0011
12374SOL    HW140399   6.992   5.516  10.103 -2.1807 -0.7068  1.9892
12374SOL    HW240400   7.075   5.576  10.214  0.8703 -0.3748 -0.3176
12375SOL     OW40401   3.614   8.082   3.754 -0.4656  0.1241 -0.0076
12375SOL    HW140402   3.574   8.135   3.823 -2.1869  1.2296 -1.7938
12375SOL    HW240403   3.542   8.029   3.719  1.0054 -2.9127  1.1376
12376SOL     OW40404   9.131   2.619   5.736 -0.4249  0.3967  0.7055
12376SOL    HW140405   9.168   2.703   5.711 -1.1600  0.9400  1.3885
12376SOL    HW240406   9.156   2.609   5.828  2.1152 -1.4907 -0.0738
12377SOL     OW40407   2.751  11.381   9.274  0.6726 -0.1703 -0.1140
12377SOL    HW140408   2.683  11.370   9.208  1.6183 -0.0938 -1.1298
12377SOL    HW240409   2.779  11.292   9.295  0.3371 -0.1971  0.2334
12378SOL     OW40410   2.621  10.846   4.212  0.0283 -0.5874  0.4455
12378SOL    HW140411   2.583  10.859   4.299  1.8709 -0.1738  1.2325
12378SOL    HW240412   2.661  10.930   4.191 -0.2607 -0.7339 -0.7604
12379SOL     OW40413   3.887  10.021   2.261 -0.5189  0.1577  0.4661
12379SOL    HW140414   3.879   9.980   2.175  0.6342  2.6036 -0.9064
12379SOL    HW240415   3.956   9.971   2.304 -0.9041 -0.9131 -0.1157
12380SOL     OW40416   6.808  10.788   2.406  0.0584  0.0059 -0.1295
12380SOL    HW140417   6.806  10.882   2.426  2.2516 -0.4293  2.7373
12380SOL    HW240418   6.833  10.785   2.313  2.8368  2.3570  0.3614
12381SOL     OW40419   0.884   7.376   6.693  0.0955 -0.0952  0.0465
12381SOL    HW140420   0.963   7.338   6.731  0.9819 -1.4497 -2.9029
12381SOL    HW240421   0.915   7.431   6.622 -1.5913 -0.8248 -1.3353
12382SOL     OW40422   4.222   1.158   5.224  0.2734  0.5370 -0.1296
12382SOL    HW140423   4.251   1.249   5.223 -2.9393  1.6986 -2.8189
12382SOL    HW240424   4.163   1.152   5.299  0.3037  0.7294 -0.0906
12383SOL     OW40425  10.426   8.579   0.738 -0.2125 -0.2921  0.0356
12383SOL    HW140426  10.420   8.524   0.660 -1.9389  0.3621 -0.3380
12383SOL    HW240427  10.370   8.655   0.718 -0.0788  0.2511  1.6079
12384SOL     OW40428   9.618   7.953   9.535 -0.1744  0.5524 -0.0062
12384SOL    HW140429   9.599   7.904   9.455 -0.2576  0.8226 -0.1494
12384SOL    HW240430   9.648   8.038   9.505  0.5045  0.4041  0.2343
12385SOL     OW40431   2.595   2.261   5.780 -0.0288  0.5235  0.5431
12385SOL    HW140432   2.537   2.194   5.743 -0.5209  1.8835 -1.3285
12385SOL    HW240433   2.540   2.339   5.787  1.1914  1.4564  0.0920
12386SOL     OW40434   3.442   3.875   8.355 -0.1763  0.0517  0.0013
12386SOL    HW140435   3.350   3.900   8.358 -0.1910 -0.0188  0.1298
12386SOL    HW240436   3.442   3.780   8.341 -0.1284 -0.0049  0.3555
12387SOL     OW40437   3.300   4.557   0.566 -0.1434  0.0552 -0.1317
12387SOL    HW140438   3.230   4.525   0.510  0.0572 -0.8128  0.0924
12387SOL    HW240439   3.256   4.610   0.633 -0.7120 -1.3041  0.6086
12388SOL     OW40440   3.368   8.507   5.750 -0.1063 -0.0630  0.3334
12388SOL    HW140441   3.439   8.486   5.810 -0.5209  0.0853  0.8826
12388SOL    HW240442   3.291   8.516   5.806 -0.9646 -2.0455 -0.4265
12389SOL     OW40443   9.808   4.193   8.808 -0.1937  0.6133  0.1642
12389SOL    HW140444   9.748   4.267   8.815  0.3446  1.2823 -1.7982
12389SOL    HW240445   9.885   4.220   8.858 -0.9835  0.2585  1.6438
12390SOL     OW40446   5.798   0.212   7.020  0.2906  0.1779 -0.0040
12390SOL    HW140447   5.889   0.197   7.047  0.4074  1.7226  0.5610
12390SOL    HW240448   5.804   0.262   6.939 -0.0548 -0.1864 -0.2550
12391SOL     OW40449   7.400   4.094   2.226  0.6756  0.2470 -0.0136
12391SOL    HW140450   7.472   4.056   2.177  0.6006 -0.2362  0.2395
12391SOL    HW240451   7.353   4.147   2.163  0.7416 -0.1445 -0.3997
12392SOL     OW40452   9.570   2.524   9.915  0.4305 -0.4081 -0.1068
12392SOL    HW140453   9.660   2.516   9.947  0.4145 -0.2517 -0.0212
12392SOL    HW240454   9.577   2.584   9.841 -0.2499  3.6740  2.7981
12393SOL     OW40455   4.983   8.619   3.157 -0.1851  0.3131 -0.2442
12393SOL    HW140456   4.940   8.569   3.226 -0.0005 -0.9349 -1.0024
12393SOL    HW240457   4.982   8.561   3.081  0.9687  1.0618 -0.8636
12394SOL     OW40458   7.680  11.237   9.718 -0.7537  0.1289  0.0648
12394SOL    HW140459   7.748  11.181   9.757 -1.0403 -1.4060 -1.5179
12394SOL    HW240460   7.658  11.299   9.787  1.0988 -0.3704  1.1738
12395SOL     OW40461   1.618   3.868   3.583  0.1238  0.0855 -0.0217
12395SOL    HW140462   1.597   3.829   3.497 -0.5152  0.4618 -0.0458
12395SOL    HW240463   1.550   3.834   3.641 -0.1454  0.7654  0.0664
12396SOL     OW40464   2.875   1.636   9.598  0.1483  0.4933 -0.1123
12396SOL    HW140465   2.808   1.580   9.637 -0.4492  1.5641  0.4564
12396SOL    HW240466   2.864   1.624   9.504  0.1621 -0.4805 -0.0024
12397SOL     OW40467   2.853   2.226   6.916 -0.2400 -0.1414 -0.2596
12397SOL    HW140468   2.897   2.303   6.952 -3.1031  0.9314  1.1876
12397SOL    HW240469   2.845   2.244   6.822  2.6975 -0.6339 -0.7215
12398SOL     OW40470   4.135   2.023   6.102  0.1110 -0.1242  0.1546
12398SOL    HW140471   4.088   2.106   6.118 -0.4928 -0.2820 -0.6913
12398SOL    HW240472   4.225   2.049   6.083  0.0595  0.2946  0.4780
12399SOL     OW40473   3.151   2.173   9.750 -0.1958  0.2294  0.3512
12399SOL    HW140474   3.093   2.141   9.681  0.0938 -1.4288  0.8427
12399SOL    HW240475   3.093   2.219   9.810 -0.5867  0.8784 -0.4953
12400SOL     OW40476   5.975   9.828   3.633 -0.3911  0.0020 -0.0791
12400SOL    HW140477   6.016   9.757   3.584  0.6114  1.2073 -1.0503
12400SOL    HW240478   6.015   9.823   3.720 -0.2286 -0.5286 -0.1830
12401SOL     OW40479   5.306   6.414   9.152 -0.3202 -0.2774  0.1721
12401SOL    HW140480   5.306   6.319   9.152  0.6096 -0.3022  0.8004
12401SOL    HW240481   5.391   6.438   9.115 -0.9862  0.3379 -1.0108
12402SOL     OW40482   5.942   7.161   8.402  0.0459  0.5242 -0.2919
12402SOL    HW140483   5.967   7.192   8.489 -0.1614  0.1542 -0.0999
12402SOL    HW240484   5.862   7.209   8.381  0.3851  1.0166 -0.5152
12403SOL     OW40485   1.553   6.976   9.094  0.1621  0.1898  0.5730
12403SOL    HW140486   1.639   6.984   9.137  0.1960  0.9364  0.3836
12403SOL    HW240487   1.554   6.888   9.056  0.7730  0.1181  0.7326
12404SOL     OW40488   8.061   0.204   7.152  0.3223  0.6208 -0.6164
12404SOL    HW140489   8.102   0.140   7.094 -0.7185 -0.1787 -0.4982
12404SOL    HW240490   8.043   0.280   7.096 -1.3023 -0.4020 -1.5421
12405SOL     OW40491   8.819   3.386  10.592 -0.0382  0.1862 -0.3296
12405SOL    HW140492   8.859   3.366  10.507 -0.0610  1.6703 -0.7183
12405SOL    HW240493   8.890   3.374  10.655  0.3503  0.4079 -0.7210
12406SOL     OW40494   5.009   6.393   2.852 -0.0262 -0.0936 -0.1906
12406SOL    HW140495   4.931   6.433   2.891 -0.5985 -0.8006 -0.5872
12406SOL    HW240496   5.000   6.410   2.758  0.2574 -0.2499 -0.2445
12407SOL     OW40497  10.351   8.673   9.741  0.0236  0.2913 -0.0237
12407SOL    HW140498  10.268   8.720   9.751 -0.8006 -1.2122  0.5604
12407SOL    HW240499  10.346   8.601   9.804  1.5660 -0.1340 -0.3366
12408SOL     OW40500   0.845   7.232   5.622 -0.1664  0.1179  0.2025
12408SOL    HW140501   0.886   7.220   5.708  0.4455  0.0092 -0.0927
12408SOL    HW240502   0.863   7.323   5.600 -1.2756  0.4668  0.6581
12409SOL     OW40503   3.588   0.839   1.093  0.3749  0.4199 -0.0219
12409SOL    HW140504   3.575   0.864   1.002 -0.2604 -0.8405 -0.2984
12409SOL    HW240505   3.502   0.853   1.134 -0.1148 -1.5591 -0.2746
12410SOL     OW40506   7.656   2.985   3.772 -0.3042  0.0962  0.0306
12410SOL    HW140507   7.580   3.031   3.806  0.3856  0.7798  0.6798
12410SOL    HW240508   7.671   3.022   3.685 -1.5342 -1.0226 -0.6813
12411SOL     OW40509   4.890   1.618  10.321  0.5749  0.1615 -0.0981
12411SOL    HW140510   4.897   1.667  10.239  1.9744 -0.0995 -0.1660
12411SOL    HW240511   4.965   1.648  10.373  1.2755 -1.6227 -0.0076
12412SOL     OW40512  10.507   8.361   3.094 -0.3924  0.4483  0.1564
12412SOL    HW140513  10.457   8.383   3.016 -0.7783 -1.2393 -0.1103
12412SOL    HW240514  10.441   8.358   3.164  0.1512  3.4465  0.9387
12413SOL     OW40515   4.552   2.349   2.817 -0.1656 -0.3970 -0.0819
12413SOL    HW140516   4.464   2.387   2.809  0.1931  0.5401  0.3472
12413SOL    HW240517   4.536   2.256   2.837 -1.0528 -0.3936 -0.6897
12414SOL     OW40518   4.400  10.635   6.969 -0.0617  0.2618 -0.5918
12414SOL    HW140519   4.329  10.577   6.997  0.1566  0.0630 -0.4557
12414SOL    HW240520   4.355  10.714   6.939 -0.3460  0.1147 -0.5572
12415SOL     OW40521   8.465   3.302   1.483  0.4301 -0.4249  0.2999
12415SOL    HW140522   8.444   3.377   1.428 -1.1118 -0.4171  0.8471
12415SOL    HW240523   8.553   3.276   1.456  1.2377  1.9073  0.4922
12416SOL     OW40524   7.362   0.618   9.252 -0.0929 -0.2412 -0.0772
12416SOL    HW140525   7.400   0.665   9.326 -0.0263 -0.6914  0.1762
12416SOL    HW240526   7.268   0.618   9.270 -0.0568 -0.5377  0.1196
12417SOL     OW40527   0.354   8.643   1.234 -0.3717 -0.0314  0.0365
12417SOL    HW140528   0.318   8.573   1.180  0.7979 -1.1745  0.6674
12417SOL    HW240529   0.364   8.604   1.321 -2.8734  1.9652  1.3557
12418SOL     OW40530   2.246   1.621   7.911  0.0823 -0.1232  0.0271
12418SOL    HW140531   2.227   1.676   7.835  1.1233  1.3324  0.7590
12418SOL    HW240532   2.264   1.535   7.875 -0.7850  0.2118 -1.2447
12419SOL     OW40533   1.419   0.935  11.125  0.0055 -0.2252  0.3472
12419SOL    HW140534   1.338   0.905  11.083 -0.3227  0.4397  0.4846
12419SOL    HW240535   1.484   0.932  11.055 -0.0883 -0.9377  0.2802
12420SOL     OW40536   4.840   9.457   8.127  0.5524  0.5674 -0.1182
12420SOL    HW140537   4.900   9.387   8.154  0.1212 -0.9897 -2.7851
12420SOL    HW240538   4.768   9.452   8.190  1.3585 -0.2117  0.7796
12421SOL     OW40539   7.869   6.654   9.011 -0.1600  0.3931 -0.0044
12421SOL    HW140540   7.954   6.693   9.031 -0.0387  0.0576  0.1360
12421SOL    HW240541   7.830   6.637   9.097 -0.2661  0.3203 -0.0680
12422SOL     OW40542   0.586   0.120   4.215 -0.2618  0.1971 -0.0886
12422SOL    HW140543   0.651   0.060   4.178 -1.4371 -0.4860 -1.1055
12422SOL    HW240544   0.566   0.181   4.144 -1.4170 -0.1815 -0.1126
12423SOL     OW40545  10.217   6.609   0.886  0.4377 -0.3108  0.3271
12423SOL    HW140546  10.150   6.677   0.884  2.0173  1.4285 -3.2388
12423SOL    HW240547  10.182   6.540   0.831  0.8762 -0.1076 -0.2153
12424SOL     OW40548   2.852   7.912  11.279 -0.5155 -0.1259  0.0492
12424SOL    HW140549   2.820   7.939  11.193 -0.7326 -1.5179 -0.3377
12424SOL    HW240550   2.781   7.859  11.315 -1.0646  1.6602  1.7694
12425SOL     OW40551   6.968   1.761   7.669 -0.5012  0.3079 -0.0927
12425SOL    HW140552   6.966   1.696   7.740 -0.5318 -0.3916 -0.7264
12425SOL    HW240553   7.015   1.718   7.598  1.0134  1.6112  0.0704
12426SOL     OW40554  11.026   4.539   6.348 -0.8111 -0.0759 -0.4414
12426SOL    HW140555  11.053   4.631   6.345 -0.2672  0.0033  2.9836
12426SOL    HW240556  10.987   4.523   6.262  1.0718  2.6747 -1.9913
12427SOL     OW40557   8.894   7.014   7.488  0.0878  0.2014  0.0922
12427SOL    HW140558   8.917   6.978   7.402 -2.3670 -0.0014 -0.5474
12427SOL    HW240559   8.903   7.109   7.476  0.6979  0.1318 -0.0642
12428SOL     OW40560   0.197   9.824  10.518  0.2374 -0.1848 -0.0645
12428SOL    HW140561   0.115   9.778  10.532  0.8546 -1.2036  0.2534
12428SOL    HW240562   0.179   9.883  10.444 -0.5511 -0.9437 -0.4857
12429SOL     OW40563   7.335   5.806   3.392 -0.1779  0.3662  0.6070
12429SOL    HW140564   7.268   5.803   3.460  0.4066 -2.2296  1.1641
12429SOL    HW240565   7.286   5.793   3.310 -0.4453 -1.3646  0.9953
12430SOL     OW40566   8.265   7.965   8.493  0.5506 -0.2490 -0.1486
12430SOL    HW140567   8.237   7.880   8.527  0.7164  0.4086  1.7712
12430SOL    HW240568   8.360   7.964   8.499  0.6454 -0.3836 -1.3638
12431SOL     OW40569   1.820  10.809   8.067 -0.0216  0.3555  0.1812
12431SOL    HW140570   1.834  10.727   8.113  1.4625  0.0391 -0.7578
12431SOL    HW240571   1.829  10.877   8.134  2.9796 -0.0345  0.3263
12432SOL     OW40572  10.810   6.375  10.367  0.6422 -0.3600 -0.0169
12432SOL    HW140573  10.776   6.286  10.367  0.0877 -0.1795 -1.3519
12432SOL    HW240574  10.899   6.367  10.334  0.6559 -0.4307  0.0355
12433SOL     OW40575   8.315   6.560   9.081  0.3470  0.4610  0.2387
12433SOL    HW140576   8.292   6.581   8.990 -0.0028 -0.3367  0.1353
12433SOL    HW240577   8.234   6.571   9.130  0.5708  1.0333  0.4820
12434SOL     OW40578   3.346   7.401   5.580 -0.4845  0.6431 -0.3732
12434SOL    HW140579   3.398   7.382   5.658  0.5534 -0.2672 -1.2567
12434SOL    HW240580   3.289   7.325   5.570 -0.2615  0.5215 -0.7679
12435SOL     OW40581   4.611  10.256   7.759  0.5524  0.3318 -0.0693
12435SOL    HW140582   4.682  10.191   7.760  1.6352  1.4860  0.3736
12435SOL    HW240583   4.542  10.215   7.707  0.6756 -1.7152  1.2404
12436SOL     OW40584   6.219   0.131  10.089 -0.3912 -0.2808 -0.3035
12436SOL    HW140585   6.166   0.120  10.011 -0.7380  0.9358 -0.2534
12436SOL    HW240586   6.309   0.127  10.058 -0.5267  0.1652 -0.7614
12437SOL     OW40587   6.606   2.207  11.197  0.4927  0.3388 -0.0894
12437SOL    HW140588   6.687   2.174  11.236  0.3269 -1.3628 -1.0718
12437SOL    HW240589   6.576   2.136  11.140 -0.2754  1.9422 -1.8276
12438SOL     OW40590   4.875   4.285   2.506 -0.4948 -0.1876 -0.3434
12438SOL    HW140591   4.886   4.349   2.576  0.7802 -1.6885  0.9370
12438SOL    HW240592   4.781   4.284   2.487 -0.5481  1.9268 -0.3363
12439SOL     OW40593  10.045   4.381   8.036  0.6308 -0.3059  0.6044
12439SOL    HW140594  10.057   4.471   8.065  1.3494  0.2425 -1.1981
12439SOL    HW240595   9.952   4.375   8.014  0.9644  0.7286 -1.3304
12440SOL     OW40596   4.300   5.401   3.924  0.1107 -0.6086 -0.4319
12440SOL    HW140597   4.386   5.422   3.960  0.4694  0.2355 -1.7089
12440SOL    HW240598   4.309   5.313   3.888 -0.1441 -1.3096  1.1149
12441SOL     OW40599   9.980   7.763   2.915 -0.3311 -0.0975 -0.0029
12441SOL    HW140600   9.969   7.855   2.936  0.1911  0.3740 -1.6644
12441SOL    HW240601   9.983   7.719   3.000  1.5120  1.6474  0.9273
12442SOL     OW40602   3.981   9.871   9.022 -0.4244  0.0230  0.5105
12442SOL    HW140603   3.979   9.897   8.930 -1.0741  3.0669  1.2745
12442SOL    HW240604   4.072   9.882   9.049 -0.0236 -1.8277  0.0641
12443SOL     OW40605   4.578   3.969   9.670 -0.4587 -0.4672 -0.3368
12443SOL    HW140606   4.495   4.015   9.659 -0.0799  0.4254  0.4393
12443SOL    HW240607   4.571   3.926   9.755  0.2851  0.5262  0.2414
12444SOL     OW40608   9.788   1.804  11.157 -0.4607  0.5119 -0.3643
12444SOL    HW140609   9.826   1.770  11.237 -0.4653 -0.8838 -0.9196
12444SOL    HW240610   9.842   1.880  11.134 -0.9030  1.3712  1.3133
12445SOL     OW40611   0.323   4.393   2.502  0.0626 -0.4796  0.3024
12445SOL    HW140612   0.399   4.445   2.475  0.5842  0.1063  2.7312
12445SOL    HW240613   0.250   4.455   2.502  0.1186 -0.4146  0.5339
12446SOL     OW40614   6.321   2.842   7.213  0.7965 -0.4258 -0.1144
12446SOL    HW140615   6.234   2.878   7.198  0.7818  0.6092  2.0643
12446SOL    HW240616   6.381   2.909   7.180  0.7420  0.5092  1.5584
12447SOL     OW40617   9.092   1.050   8.840  0.0419 -0.3013 -0.6996
12447SOL    HW140618   9.181   1.016   8.850 -0.0468 -0.5421 -0.7217
12447SOL    HW240619   9.055   0.999   8.768 -0.2293 -0.4404 -0.4626
12448SOL     OW40620   1.481   2.724   7.384 -0.1774  0.2709  0.4895
12448SOL    HW140621   1.563   2.696   7.425 -0.1848 -0.6715 -0.1038
12448SOL    HW240622   1.427   2.645   7.382  0.4554 -0.2231 -2.8252
12449SOL     OW40623   0.393   8.213   9.434 -0.5074 -0.5682 -0.3523
12449SOL    HW140624   0.350   8.133   9.464  0.0269 -1.4458 -1.7816
12449SOL    HW240625   0.485   8.201   9.459 -0.3383 -0.6428 -0.9803
12450SOL     OW40626   4.702  11.283   1.944  0.4621  0.0352 -0.3595
12450SOL    HW140627   4.664  11.302   2.030 -2.0394 -1.6472 -1.0005
12450SOL    HW240628   4.711  11.369   1.903 -1.7779  0.6333  0.2566
12451SOL     OW40629   6.148   3.529  10.176  0.4409  0.0381  0.1268
12451SOL    HW140630   6.096   3.453  10.200  0.2457  0.4094  0.9480
12451SOL    HW240631   6.232   3.493  10.147  0.2552 -0.4994  0.2443
12452SOL     OW40632   3.349   3.878   1.599  0.3999 -0.1214  0.1980
12452SOL    HW140633   3.292   3.808   1.633 -1.3773  1.0638 -0.2017
12452SOL    HW240634   3.317   3.957   1.643  2.3124  0.4833  0.5737
12453SOL     OW40635   7.261   7.199   5.610  0.0597  0.5257 -0.1394
12453SOL    HW140636   7.314   7.162   5.539  0.8393 -0.6757  1.0287
12453SOL    HW240637   7.190   7.136   5.622  0.8987 -0.1978  1.2745
12454SOL     OW40638   5.132   3.747  10.185  0.1650  0.2482  0.1056
12454SOL    HW140639   5.214   3.735  10.137 -0.9235 -0.3487 -1.6923
12454SOL    HW240640   5.117   3.841  10.184 -0.5449  0.1630 -2.0626
12455SOL     OW40641   0.519  10.293  10.478 -0.6164 -0.6320 -0.6018
12455SOL    HW140642   0.505  10.200  10.496 -0.4857 -0.3820  0.9208
12455SOL    HW240643   0.591  10.318  10.535 -1.1294  0.5618 -0.4454
12456SOL     OW40644   2.565  10.922   5.575 -0.0619 -0.0048  0.0468
12456SOL    HW140645   2.502  10.896   5.642 -0.7174  1.6115  0.1084
12456SOL    HW240646   2.639  10.959   5.625  1.9417 -3.6117  0.0964
12457SOL     OW40647   5.283   7.457   9.036  0.2424  0.1860  0.1297
12457SOL    HW140648   5.231   7.384   9.070 -2.2565  1.5477 -0.5602
12457SOL    HW240649   5.360   7.460   9.094 -0.4370 -1.8468  1.2556
12458SOL     OW40650   2.998   6.316   9.178  0.1863  0.1645 -0.0200
12458SOL    HW140651   3.020   6.361   9.260 -0.6130 -1.1690  0.9812
12458SOL    HW240652   3.083   6.299   9.137  0.7650 -0.6332  1.4028
12459SOL     OW40653   2.574   6.061   1.333 -0.2329  0.2039 -0.8880
12459SOL    HW140654   2.536   6.140   1.297 -0.7835 -0.6652 -2.3078
12459SOL    HW240655   2.602   6.010   1.256  0.4426 -0.8152 -0.0096
12460SOL     OW40656   0.149   0.086   9.337 -0.4632 -0.1600 -0.0773
12460SOL    HW140657   0.230   0.078   9.286 -1.0578  0.3408 -1.1321
12460SOL    HW240658   0.143   0.179   9.359 -1.0985 -0.0716 -0.6050
12461SOL     OW40659   0.526   0.932   4.364 -0.2174  0.1301  0.1149
12461SOL    HW140660   0.477   0.856   4.398 -1.5577  0.9590  0.1108
12461SOL    HW240661   0.608   0.894   4.332 -1.1679 -1.4637 -0.6099
12462SOL     OW40662   5.533  10.355  11.030 -0.4480 -0.0586 -0.2577
12462SOL    HW140663   5.615  10.345  10.982 -1.8267  0.1350 -2.8505
12462SOL    HW240664   5.556  10.337  11.121  2.0556 -2.0588 -1.1574
12463SOL     OW40665   3.126   9.108   7.050  0.2483  0.1534 -0.6186
12463SOL    HW140666   3.075   9.027   7.049  0.2250  0.1703 -1.4860
12463SOL    HW240667   3.080   9.165   6.988  1.4534  0.0844 -1.6032
12464SOL     OW40668   7.737   0.683   0.065 -0.3797  0.8277 -0.2500
12464SOL    HW140669   7.692   0.747   0.120 -2.0773 -0.5308  0.0397
12464SOL    HW240670   7.696   0.599   0.088 -0.0452 -0.0001 -2.4675
12465SOL     OW40671   1.518   3.636   0.786 -0.0968 -0.0669 -0.3794
12465SOL    HW140672   1.455   3.688   0.836  0.9406  1.5602 -0.6771
12465SOL    HW240673   1.557   3.577   0.851 -1.3084 -0.5352 -0.0337
12466SOL     OW40674   7.610   7.290   3.399 -0.1519 -0.6414  0.0871
12466SOL    HW140675   7.544   7.274   3.467  1.9170 -0.1618  2.3675
12466SOL    HW240676   7.599   7.383   3.377  0.7430 -0.0946  1.7158
12467SOL     OW40677   6.538   3.441   1.177  0.3530 -0.0327 -0.5901
12467SOL    HW140678   6.592   3.436   1.255  0.0928  1.0898 -0.3168
12467SOL    HW240679   6.594   3.409   1.106  0.4943 -1.3342  0.0831
12468SOL     OW40680   2.694   4.476   1.350 -0.4251 -0.0262 -0.7273
12468SOL    HW140681   2.692   4.444   1.259  0.3611 -0.4876 -0.5899
12468SOL    HW240682   2.604   4.464   1.381 -0.4525 -0.8976 -1.0984
12469SOL     OW40683   2.080   7.392   3.191 -0.2005  0.2676 -0.5928
12469SOL    HW140684   2.090   7.403   3.285  0.5758 -0.2075 -0.6187
12469SOL    HW240685   2.062   7.299   3.179  0.3353  0.2103 -0.9661
12470SOL     OW40686   5.936   8.849   4.272  0.2118  0.4445 -0.0507
12470SOL    HW140687   5.880   8.801   4.332 -0.7373  1.2904 -0.2333
12470SOL    HW240688   5.900   8.937   4.270  1.4423  0.9740 -0.3238
12471SOL     OW40689   1.751  11.023   8.815  0.4236  0.0960 -0.2695
12471SOL    HW140690   1.810  11.097   8.823  2.4600 -1.3777 -0.8400
12471SOL    HW240691   1.759  10.994   8.724  0.5875 -1.4943  0.2117
12472SOL     OW40692  10.074   9.136   3.524  0.1002  0.7665  0.0358
12472SOL    HW140693   9.988   9.171   3.547 -0.3245  0.8081 -1.4974
12472SOL    HW240694  10.069   9.043   3.546  0.3660  1.1251  1.7652
12473SOL     OW40695   6.568   2.192   0.718  0.5326 -0.0406  0.5283
12473SOL    HW140696   6.484   2.185   0.674  0.1448  1.1142  1.0557
12473SOL    HW240697   6.550   2.167   0.808  0.4553  1.4414  0.9482
12474SOL     OW40698   4.290   0.508  11.182  0.1189  0.0527  0.1542
12474SOL    HW140699   4.196   0.504  11.201  0.2959 -0.0982  1.0602
12474SOL    HW240700   4.322   0.420  11.203  0.3199 -0.1609 -0.9933
12475SOL     OW40701  10.220   7.871   0.788 -0.0119  0.6555 -0.3563
12475SOL    HW140702  10.163   7.856   0.712 -0.8873 -1.2143  0.6088
12475SOL    HW240703  10.273   7.791   0.795 -0.0678  0.7217  1.0919
12476SOL     OW40704   1.621   2.845   2.439  0.8218  0.2535  0.0756
12476SOL    HW140705   1.638   2.754   2.412  1.5201  0.1817  0.6951
12476SOL    HW240706   1.601   2.838   2.532  0.1331  0.6636 -0.0400
12477SOL     OW40707   4.242   8.798   0.285 -0.2670 -0.8415  0.4046
12477SOL    HW140708   4.244   8.893   0.288  1.8445 -0.7925 -0.7330
12477SOL    HW240709   4.150   8.775   0.304 -1.3649  1.4923 -1.6092
12478SOL     OW40710   4.286   3.326   3.885 -0.3407 -0.1793  0.2291
12478SOL    HW140711   4.249   3.351   3.969  1.7875 -1.9095  1.7805
12478SOL    HW240712   4.289   3.231   3.887 -0.2214 -0.2808 -1.8461
12479SOL     OW40713   1.674   2.526  10.443  0.6499  0.5823  0.4235
12479SOL    HW140714   1.604   2.592  10.438  0.4701  0.6135  2.6967
12479SOL    HW240715   1.629   2.445  10.465  1.3429  0.6899  2.3632
12480SOL     OW40716   4.117   0.546   4.661  0.1210  0.3568  0.4753
12480SOL    HW140717   4.202   0.590   4.666  0.6628 -0.4121 -1.2760
12480SOL    HW240718   4.090   0.556   4.570 -1.5045  0.2558  0.9241
12481SOL     OW40719   8.110   5.002   2.750  0.4994 -0.0487  0.1696
12481SOL    HW140720   8.019   5.030   2.757 -0.3657 -2.0670 -2.0780
12481SOL    HW240721   8.131   4.966   2.837 -1.1466 -0.4622  0.4133
12482SOL     OW40722   7.612   8.324   5.307  0.0756 -0.0548 -0.5659
12482SOL    HW140723   7.546   8.289   5.367  1.5849  0.1613  1.3050
12482SOL    HW240724   7.591   8.285   5.222 -0.8692 -2.0629  0.5288
12483SOL     OW40725   1.675   6.750   9.001  0.0620  0.2574 -0.4401
12483SOL    HW140726   1.761   6.774   8.967  0.6495 -0.2584  0.6251
12483SOL    HW240727   1.679   6.654   9.010 -1.2871 -0.0080 -2.1149
12484SOL     OW40728  10.301   5.292   6.382  0.1971 -0.1063 -0.3441
12484SOL    HW140729  10.321   5.303   6.289 -0.3912 -2.6077 -0.8441
12484SOL    HW240730  10.329   5.203   6.402 -0.8985 -0.0836  1.5377
12485SOL     OW40731   6.374   5.478   2.734 -0.4018 -0.5508  0.0800
12485SOL    HW140732   6.462   5.448   2.713 -0.5238 -0.5852 -0.3835
12485SOL    HW240733   6.345   5.419   2.803  0.4454  0.2895  1.1992
12486SOL     OW40734   7.939   3.422   8.580 -0.4680 -0.2308  0.6913
12486SOL    HW140735   8.015   3.461   8.623 -0.4447 -0.7988  1.1939
12486SOL    HW240736   7.966   3.332   8.561 -0.1743  0.2578 -1.3526
12487SOL     OW40737  10.810  10.185   1.794 -1.0573  0.0270  0.1381
12487SOL    HW140738  10.734  10.128   1.784 -0.5683 -0.3536 -1.6751
12487SOL    HW240739  10.885  10.125   1.796 -0.7100  0.4725  0.6824
12488SOL     OW40740  11.043   2.900   6.354  0.4608 -0.0326  0.1109
12488SOL    HW140741  11.028   2.994   6.343 -1.1125 -0.2690  0.0903
12488SOL    HW240742  10.968   2.859   6.312  0.2487 -1.2638  1.6461
12489SOL     OW40743   9.858   2.223   1.445 -0.0445 -0.2860  0.1813
12489SOL    HW140744   9.898   2.297   1.399  1.2056 -1.2400 -0.3301
12489SOL    HW240745   9.930   2.161   1.457 -1.0764 -1.4381  0.5547
12490SOL     OW40746   5.113   4.696   0.446 -0.1878 -0.3407  0.7817
12490SOL    HW140747   5.092   4.646   0.367 -0.8973 -0.7164  1.2029
12490SOL    HW240748   5.088   4.638   0.518  0.2505  0.0909  1.2838
12491SOL     OW40749   8.876   7.836  10.091 -0.1379  0.4524 -0.2902
12491SOL    HW140750   8.971   7.827  10.096 -0.0230  0.9209 -1.2954
12491SOL    HW240751   8.850   7.862  10.179  0.5262 -0.7755  0.2832
12492SOL     OW40752   5.934   5.711   5.029  0.2762  0.3500  0.0395
12492SOL    HW140753   6.018   5.755   5.019  1.7350 -2.5998 -2.3306
12492SOL    HW240754   5.880   5.744   4.957  1.8619 -2.3880 -2.6521
12493SOL     OW40755   1.322   4.602   5.118 -0.1509 -0.3612  0.3433
12493SOL    HW140756   1.374   4.681   5.128  0.5987 -0.9145  0.9736
12493SOL    HW240757   1.270   4.617   5.039  1.2478  0.0745 -0.5432
12494SOL     OW40758   9.663   6.580   2.936 -0.5474 -0.3819  0.0260
12494SOL    HW140759   9.758   6.571   2.933  0.0989  3.8742  1.8281
12494SOL    HW240760   9.642   6.637   2.862 -1.3707  0.4067  0.8468
12495SOL     OW40761   4.347   6.915   7.487 -0.3471  0.2119 -0.1445
12495SOL    HW140762   4.394   6.998   7.491 -0.9469  0.7031 -2.0652
12495SOL    HW240763   4.304   6.916   7.401 -2.7353 -0.8107  0.9438
12496SOL     OW40764   7.897   4.753   5.481 -0.2060  0.6150  0.2273
12496SOL    HW140765   7.959   4.691   5.442 -0.9429 -0.8834  1.3373
12496SOL    HW240766   7.864   4.804   5.406  3.3994  2.5881 -0.2861
12497SOL     OW40767   0.658  10.202   7.538  0.0237 -0.2360 -0.0716
12497SOL    HW140768   0.748  10.174   7.553 -0.4113 -2.3710 -1.1103
12497SOL    HW240769   0.636  10.169   7.451 -1.8070  0.0986  0.2135
12498SOL     OW40770  10.008   0.652   0.832  0.4680  0.1191  0.2305
12498SOL    HW140771   9.995   0.739   0.870  0.6634 -0.0148  0.6014
12498SOL    HW240772  10.039   0.598   0.905  0.1266 -0.3193  0.0573
12499SOL     OW40773   6.455   1.318   5.178 -0.0509 -0.0882 -0.5493
12499SOL    HW140774   6.417   1.237   5.214  0.3131 -0.4912 -1.0648
12499SOL    HW240775   6.380   1.376   5.166 -0.2531 -0.1453  0.3270
12500SOL     OW40776   1.211  11.124   0.277 -0.2601  0.3536 -0.4017
12500SOL    HW140777   1.185  11.080   0.357 -0.1862 -0.4185 -0.7904
12500SOL    HW240778   1.162  11.079   0.208  0.6681  0.1210 -0.9263
12501SOL     OW40779   4.952  10.500   4.304 -0.1261  0.2527  0.2120
12501SOL    HW140780   5.041  10.527   4.325  0.4941 -0.1786 -1.6705
12501SOL    HW240781   4.901  10.581   4.305 -0.0278  0.3479  2.5198
12502SOL     OW40782   8.930   0.860  10.581  0.3759  0.4336 -0.1506
12502SOL    HW140783   8.898   0.895  10.498 -0.7948  1.3532  0.6580
12502SOL    HW240784   8.852   0.823  10.623  0.6167  1.4657  1.2529
12503SOL     OW40785   7.565   7.587   3.052 -0.0863 -0.0258 -0.6480
12503SOL    HW140786   7.568   7.575   3.147  1.7620 -0.8199 -0.7695
12503SOL    HW240787   7.544   7.500   3.018 -0.3100  0.1602 -0.9878
12504SOL     OW40788   9.431   4.122   9.778  0.0750  0.2422  0.0158
12504SOL    HW140789   9.343   4.151   9.799 -0.4711 -1.8225  0.8765
12504SOL    HW240790   9.485   4.153   9.851 -0.3751 -0.3661  0.6153
12505SOL     OW40791   7.261   2.997   7.598 -0.0944  0.4310 -0.1754
12505SOL    HW140792   7.286   3.016   7.508  0.8041 -0.9390 -0.2335
12505SOL    HW240793   7.335   2.950   7.635 -1.0686 -0.4144  0.7952
12506SOL     OW40794  10.273   8.994   4.488 -0.1012  1.0149  0.5519
12506SOL    HW140795  10.201   9.052   4.463 -1.0254 -0.5545 -0.5854
12506SOL    HW240796  10.316   8.971   4.406 -0.2134 -0.4785  0.8942
12507SOL     OW40797  10.838   3.098  10.506  0.4207  0.1008 -0.5903
12507SOL    HW140798  10.856   3.004  10.496 -0.8418 -0.4671  1.6313
12507SOL    HW240799  10.912   3.142  10.466  0.0946 -1.7796 -3.5391
12508SOL     OW40800  10.160   6.146   2.366 -0.0034  0.5917 -0.0410
12508SOL    HW140801  10.151   6.076   2.431 -4.3440  2.6387  1.9514
12508SOL    HW240802  10.131   6.225   2.411 -1.0358  2.6081 -3.8080
12509SOL     OW40803   5.152   7.304   6.150  0.6510 -0.0912 -0.3935
12509SOL    HW140804   5.175   7.397   6.155 -0.1999  0.1758 -1.2703
12509SOL    HW240805   5.137   7.288   6.057 -0.8961 -0.6692 -0.0717
12510SOL     OW40806   2.921   2.209   2.601 -0.0076 -0.6621  0.1839
12510SOL    HW140807   2.906   2.296   2.563 -1.6176 -0.5149  1.0702
12510SOL    HW240808   3.014   2.192   2.585  0.3429  1.2106 -0.0329
12511SOL     OW40809   2.638   8.300   0.401 -0.0325 -0.2533  0.1662
12511SOL    HW140810   2.618   8.207   0.395  1.5706 -0.7842  1.9590
12511SOL    HW240811   2.693   8.318   0.324  0.1938 -0.9439  0.1624
12512SOL     OW40812  10.885   5.138   3.678  0.3384  0.3054  0.2818
12512SOL    HW140813  10.862   5.205   3.742 -0.3094  0.2739  0.0941
12512SOL    HW240814  10.806   5.084   3.671  1.1789 -1.1162  1.2066
12513SOL     OW40815   6.332   9.972  10.718 -0.6199 -0.4859 -0.0316
12513SOL    HW140816   6.368   9.914  10.652 -1.4071 -0.6941 -0.2817
12513SOL    HW240817   6.362  10.060  10.692 -0.6696 -0.6020 -0.4869
12514SOL     OW40818   9.295   1.411   8.855 -0.4238 -0.0438  0.0224
12514SOL    HW140819   9.204   1.440   8.868 -1.2574 -2.5536  0.4626
12514SOL    HW240820   9.289   1.346   8.784  1.0189 -0.2577  0.0673
12515SOL     OW40821  10.902   7.339   7.661 -0.9929  0.8033 -0.4870
12515SOL    HW140822  10.816   7.380   7.656 -2.1439 -1.5271 -1.5096
12515SOL    HW240823  10.940   7.353   7.574 -0.7671  0.9737 -0.3602
12516SOL     OW40824   2.635   0.261   4.076 -0.2634 -0.0490  0.8088
12516SOL    HW140825   2.643   0.182   4.023 -1.3598  0.9751 -0.9902
12516SOL    HW240826   2.579   0.236   4.149  0.3490 -1.2137  0.8949
12517SOL     OW40827  10.013   7.495   2.500  0.0322  0.8025  0.0832
12517SOL    HW140828  10.021   7.577   2.550  1.7888 -0.1437  1.4906
12517SOL    HW240829  10.103   7.473   2.477  0.1132 -2.4079  2.6987
12518SOL     OW40830   5.626   8.079   2.597  0.1527 -0.2365  0.1203
12518SOL    HW140831   5.659   8.086   2.686  0.2538  0.3392  0.0390
12518SOL    HW240832   5.702   8.049   2.546 -0.2901 -2.1056  0.4715
12519SOL     OW40833   6.858   3.639   7.833 -0.4806  0.0640  0.2410
12519SOL    HW140834   6.932   3.700   7.836  0.0509 -0.5432 -0.3506
12519SOL    HW240835   6.845   3.612   7.924  0.8372 -0.7812  0.2026
12520SOL     OW40836   4.500  10.868   5.942  0.1242  0.3674 -0.0775
12520SOL    HW140837   4.552  10.945   5.920  2.5427 -1.0867  0.0839
12520SOL    HW240838   4.494  10.870   6.038 -0.7812  0.9087 -0.1366
12521SOL     OW40839   3.185   2.125   4.607  0.2948  0.1081 -0.0084
12521SOL    HW140840   3.095   2.146   4.580  0.4316  1.2128  0.3451
12521SOL    HW240841   3.190   2.157   4.697  0.9810 -0.1463  0.0422
12522SOL     OW40842   2.381   7.068   5.463  0.1327 -0.2907  0.5005
12522SOL    HW140843   2.444   7.056   5.534  0.2014 -1.0110  0.3269
12522SOL    HW240844   2.410   7.007   5.394  0.3023  0.6813 -0.3174
12523SOL     OW40845   9.787  10.425   0.175  0.3807  0.6799 -0.1532
12523SOL    HW140846   9.827  10.342   0.201  1.6781  1.6284  1.0530
12523SOL    HW240847   9.802  10.483   0.249 -0.5297  1.9932 -0.9569
12524SOL     OW40848  11.285   7.595   6.051  0.3161  0.3043  0.1104
12524SOL    HW140849  11.251   7.679   6.020  1.0364  0.0408 -1.4861
12524SOL    HW240850  11.380   7.603   6.043  0.3523 -1.4261 -2.3557
12525SOL     OW40851   2.333   6.053   0.061  0.1873 -0.1599  0.2505
12525SOL    HW140852   2.297   5.989   0.122 -0.4113 -1.2903 -1.2177
12525SOL    HW240853   2.405   6.095   0.109 -0.2626 -0.9903  1.7023
12526SOL     OW40854  11.052   6.130   4.616 -0.2832 -0.7334 -0.0364
12526SOL    HW140855  10.966   6.143   4.656  0.1771 -1.0246  1.0935
12526SOL    HW240856  11.037   6.071   4.543 -0.9909 -1.0536  0.3661
12527SOL     OW40857   2.697   8.052   7.051  0.5247 -0.1716 -0.2819
12527SOL    HW140858   2.689   7.957   7.056  0.9652 -0.2742 -1.2576
12527SOL    HW240859   2.783   8.070   7.088  1.1238 -0.3236 -1.5485
12528SOL     OW40860   5.934   0.932   1.716  0.0162 -0.8227  0.4177
12528SOL    HW140861   5.883   0.855   1.690  1.0024 -0.4643 -3.1561
12528SOL    HW240862   6.023   0.899   1.728 -0.1713 -0.7336  2.2271
12529SOL     OW40863   0.274   1.020   8.593 -0.4856  0.8046 -0.1771
12529SOL    HW140864   0.366   1.041   8.579 -0.2896  1.5032  1.8454
12529SOL    HW240865   0.227   1.100   8.568 -0.5166  0.6085 -0.7621
12530SOL     OW40866   6.721  10.936   9.153 -0.2386  0.5509  0.2863
12530SOL    HW140867   6.630  10.931   9.125 -0.9665  1.6212  2.2935
12530SOL    HW240868   6.735  10.856   9.203 -0.6241  1.1668  1.4086
12531SOL     OW40869   2.730  11.247   5.455 -0.0718 -0.1229 -0.1989
12531SOL    HW140870   2.670  11.189   5.503  2.5930 -1.3423  1.9036
12531SOL    HW240871   2.748  11.200   5.373 -0.6489 -0.5505 -0.0881
12532SOL     OW40872   9.094   2.585   4.523 -0.0271 -0.0802  0.5523
12532SOL    HW140873   9.032   2.522   4.487  0.7366 -1.3194  1.2915
12532SOL    HW240874   9.049   2.669   4.520 -0.4037 -0.2754 -2.2404
12533SOL     OW40875   2.963   4.722   6.344 -0.6405 -0.6924  0.3724
12533SOL    HW140876   2.924   4.683   6.422 -0.1302 -2.8451 -0.3912
12533SOL    HW240877   2.988   4.648   6.289  0.5805  0.7174 -1.0940
12534SOL     OW40878   3.885   2.253   0.692  0.4199 -0.0783 -0.4260
12534SOL    HW140879   3.944   2.327   0.700 -1.3259  1.1729  3.1883
12534SOL    HW240880   3.923   2.185   0.748  1.1781 -1.4332 -2.4580
12535SOL     OW40881   8.331   0.258   3.592 -0.3650  0.5545  0.0835
12535SOL    HW140882   8.265   0.327   3.590 -2.1760 -1.0874 -1.4902
12535SOL    HW240883   8.301   0.198   3.660  0.3214  0.5212  0.3607
12536SOL     OW40884   9.183   8.677   2.489 -0.4169 -0.0443 -0.2115
12536SOL    HW140885   9.274   8.650   2.507 -0.2469  1.0970  0.7925
12536SOL    HW240886   9.187   8.719   2.403  0.0723  0.2853 -0.0310
12537SOL     OW40887  10.907   7.126   7.847  0.4757  0.3125  0.1514
12537SOL    HW140888  10.840   7.099   7.785  0.8305 -0.5817  0.1465
12537SOL    HW240889  10.942   7.207   7.811  0.9150 -0.3650 -1.0133
12538SOL     OW40890  11.111  11.203  10.094 -0.1630 -0.0535  0.1054
12538SOL    HW140891  11.168  11.275  10.119 -1.3087  0.6269  0.8336
12538SOL    HW240892  11.134  11.184  10.003  1.1590  0.2413  0.3683
12539SOL     OW40893   3.489   2.084  10.505  0.3432 -0.4302  0.3665
12539SOL    HW140894   3.499   2.169  10.547  0.3320 -0.3598  0.2290
12539SOL    HW240895   3.558   2.082  10.439 -1.0612  0.4280 -1.2025
12540SOL     OW40896   4.922   8.957   3.400 -0.4898  0.5128  0.4550
12540SOL    HW140897   4.935   8.948   3.495  1.4292 -0.3792  0.1469
12540SOL    HW240898   4.992   9.016   3.371  0.0571 -0.6115 -0.6271
12541SOL     OW40899   5.781  10.170   9.042 -0.3015 -0.2797  0.2595
12541SOL    HW140900   5.699  10.173   9.091  0.9818  2.0168  2.4550
12541SOL    HW240901   5.781  10.250   8.990  0.2642 -0.6187 -0.2820
12542SOL     OW40902   4.509   1.616   0.642  0.1315  0.2514 -0.3702
12542SOL    HW140903   4.553   1.662   0.571 -0.8588  0.3614 -0.9272
12542SOL    HW240904   4.471   1.538   0.601  0.7487 -0.4348  0.3212
12543SOL     OW40905   2.003   8.241   0.818  0.6710  0.1147 -0.1670
12543SOL    HW140906   1.976   8.317   0.767  2.9355  1.4378  0.4663
12543SOL    HW240907   1.956   8.250   0.901  2.5879  2.2099  0.8111
12544SOL     OW40908  10.399   8.965   4.251 -0.4321  0.1143  0.2005
12544SOL    HW140909  10.411   8.904   4.178  1.6755  2.0055 -1.1874
12544SOL    HW240910  10.413   9.052   4.212 -0.8372  1.3273  2.5586
12545SOL     OW40911   7.427   2.755   4.950 -0.2814 -0.0719  0.3269
12545SOL    HW140912   7.359   2.791   4.894 -0.6766  1.4744  1.7065
12545SOL    HW240913   7.427   2.661   4.932 -0.2630  0.3821 -2.3315
12546SOL     OW40914  11.259   0.716   5.511 -0.7886 -0.3979  0.3685
12546SOL    HW140915  11.223   0.713   5.600 -2.0603 -1.2646 -0.1525
12546SOL    HW240916  11.274   0.809   5.495 -1.1894 -0.1668  1.2395
12547SOL     OW40917   0.805   1.098   7.001  0.1563  0.0265  0.2406
12547SOL    HW140918   0.805   1.191   6.979  1.9599  0.3722  1.5235
12547SOL    HW240919   0.897   1.072   6.995 -0.1985 -1.4438  0.8226
12548SOL     OW40920   3.171   3.319   2.120  0.0302  0.4204 -0.2262
12548SOL    HW140921   3.201   3.229   2.105  3.1037  1.0666  1.2053
12548SOL    HW240922   3.131   3.317   2.207 -1.8735  0.1005 -1.0533
12549SOL     OW40923   9.852   6.236   6.272  0.2023  0.4349 -0.0288
12549SOL    HW140924   9.847   6.309   6.334 -2.2904  1.9855 -1.8490
12549SOL    HW240925   9.816   6.271   6.190  2.8939 -1.6159 -2.3207
12550SOL     OW40926  10.927   5.661   5.477 -0.3748 -0.1350 -0.2290
12550SOL    HW140927  10.898   5.752   5.472  1.3121  0.5183  0.7422
12550SOL    HW240928  10.847   5.610   5.491 -1.3620  1.1636 -0.9389
12551SOL     OW40929   8.372   5.689   7.333  0.0608 -0.2823  0.1430
12551SOL    HW140930   8.279   5.710   7.330 -0.3710 -2.0839 -1.1612
12551SOL    HW240931   8.411   5.741   7.263 -0.1040 -0.0525  0.2252
12552SOL     OW40932  10.365   5.209   8.703 -0.0225  0.0079 -0.0332
12552SOL    HW140933  10.437   5.179   8.760  1.7535  2.1284 -1.0113
12552SOL    HW240934  10.292   5.223   8.763  0.9823 -0.3046  1.3229
12553SOL     OW40935  11.249   9.020   9.667  0.4613 -0.2615 -0.2262
12553SOL    HW140936  11.256   9.099   9.722  1.7104 -0.2456 -0.3855
12553SOL    HW240937  11.332   8.975   9.679  0.7022 -0.3481 -1.9568
12554SOL     OW40938   1.750   8.399   6.073  0.1949  0.0922  0.4035
12554SOL    HW140939   1.754   8.439   6.160  2.8715 -0.3192  0.5471
12554SOL    HW240940   1.841   8.394   6.044 -0.4384 -1.7298 -1.5559
12555SOL     OW40941   8.267   8.509   3.669  0.7330  0.5805 -0.0881
12555SOL    HW140942   8.203   8.450   3.709  1.2251  0.5439  0.6438
12555SOL    HW240943   8.269   8.482   3.577 -0.5671  0.8169 -0.2073
12556SOL     OW40944   4.911   0.937   3.291  0.2512  0.4933  0.2657
12556SOL    HW140945   4.892   0.862   3.235  0.4172  0.4562  0.2582
12556SOL    HW240946   4.877   0.911   3.377  1.2255 -0.0150  0.5087
12557SOL     OW40947   5.498   6.925   2.369 -0.3697  0.1209 -0.1328
12557SOL    HW140948   5.581   6.957   2.335 -1.1173  0.9831 -1.2077
12557SOL    HW240949   5.448   6.900   2.291 -0.9032 -0.9623  0.5263
12558SOL     OW40950   9.016   9.817   1.148 -0.4333  0.3282 -0.0338
12558SOL    HW140951   9.100   9.772   1.158 -0.1090  1.2355  1.7971
12558SOL    HW240952   8.955   9.748   1.123  0.7318 -0.4581 -0.8155
12559SOL     OW40953  11.123   8.715   4.935 -0.0706 -0.5965 -0.7034
12559SOL    HW140954  11.177   8.671   5.001 -1.5117  0.2390  1.1184
12559SOL    HW240955  11.067   8.774   4.985 -1.6241 -0.3170 -2.6505
12560SOL     OW40956   7.458   3.803   2.083 -0.2157 -0.0247  0.1052
12560SOL    HW140957   7.513   3.725   2.073  1.1420  0.7526  1.1415
12560SOL    HW240958   7.414   3.791   2.167 -1.3956 -0.4655 -0.5474
12561SOL     OW40959   6.719   5.065   5.188 -0.0046 -0.0384  0.5211
12561SOL    HW140960   6.777   4.990   5.183 -0.2512 -0.1502 -1.1934
12561SOL    HW240961   6.714   5.098   5.099  0.0800  2.0211  1.2182
12562SOL     OW40962   6.595   0.191   7.955  0.0457 -0.4594  0.1027
12562SOL    HW140963   6.504   0.177   7.928 -0.5175  1.0984  1.0787
12562SOL    HW240964   6.592   0.186   8.051  0.9807 -0.2620  0.1489
12563SOL     OW40965   5.574   3.537  10.330 -0.1183 -0.6315 -0.1715
12563SOL    HW140966   5.631   3.575  10.264 -0.1362 -1.0934 -0.4572
12563SOL    HW240967   5.594   3.585  10.410  1.6979 -1.6938  0.0745
12564SOL     OW40968   1.493   2.524   8.515  0.0550 -0.1908 -0.0596
12564SOL    HW140969   1.481   2.606   8.561  0.1177  0.5715 -1.3503
12564SOL    HW240970   1.583   2.528   8.481 -0.0904 -0.5848 -0.5084
12565SOL     OW40971   9.783   4.155   2.363  0.1344  0.3012 -0.7726
12565SOL    HW140972   9.803   4.070   2.401  0.6086 -0.1850 -2.0369
12565SOL    HW240973   9.771   4.213   2.438 -0.1464 -0.8620  0.1045
12566SOL     OW40974   8.111   5.372   7.564 -0.0415  0.5893 -0.0659
12566SOL    HW140975   8.064   5.451   7.593 -3.3993 -1.5063  0.7817
12566SOL    HW240976   8.112   5.315   7.640  1.3359 -0.6606 -0.9630
12567SOL     OW40977   7.533   3.638   7.491 -0.3906  0.5821  0.2474
12567SOL    HW140978   7.546   3.726   7.456 -0.6562  1.4293  2.1333
12567SOL    HW240979   7.470   3.650   7.562 -2.2209 -1.5052 -0.9070
12568SOL     OW40980   9.094   8.002   6.724 -0.1122  0.1475  0.0154
12568SOL    HW140981   9.100   7.914   6.759 -0.2867  0.8718  1.9782
12568SOL    HW240982   9.185   8.031   6.713 -0.0580  0.0673  0.2623
12569SOL     OW40983   2.097   6.181   4.610  0.6287  0.2074  0.0950
12569SOL    HW140984   2.097   6.264   4.658 -0.0379  0.9807 -1.1913
12569SOL    HW240985   2.151   6.198   4.533 -1.2061  0.1323 -1.2642
12570SOL     OW40986  10.651   7.603   0.478  0.0750 -0.4342  0.2657
12570SOL    HW140987  10.725   7.615   0.419  0.6168  0.8464  1.1829
12570SOL    HW240988  10.577   7.644   0.432  0.2023 -0.6036 -0.0950
12571SOL     OW40989   0.821   2.794   2.222 -0.1693 -0.5666  0.3063
12571SOL    HW140990   0.770   2.874   2.228  3.4211  2.1160 -1.3158
12571SOL    HW240991   0.764   2.726   2.259 -4.0904  2.3238  0.1965
12572SOL     OW40992   5.383  10.410   2.716 -0.2801 -0.2930  0.2489
12572SOL    HW140993   5.463  10.367   2.744  0.8292  0.7815 -1.0963
12572SOL    HW240994   5.388  10.410   2.620 -0.3442  2.4610  0.1561
12573SOL     OW40995   1.687   4.961   8.842 -0.5306 -0.3475 -0.2578
12573SOL    HW140996   1.615   5.004   8.889 -0.0875 -0.5065  0.5904
12573SOL    HW240997   1.734   5.033   8.801  0.3223  0.0486  1.3156
12574SOL     OW40998   7.323   7.668   2.562 -0.3003 -0.0785  0.0927
12574SOL    HW140999   7.399   7.617   2.533 -0.1896 -0.0318  0.2988
12574SOL    HW241000   7.300   7.630   2.646 -1.3586 -0.9993 -0.5805
12575SOL     OW41001   7.686  10.474   4.497  0.3720 -0.2226 -0.2339
12575SOL    HW141002   7.762  10.431   4.457 -0.3741 -1.0419 -0.7988
12575SOL    HW241003   7.611  10.437   4.451 -0.3434  1.0149 -0.0818
12576SOL     OW41004   7.337   2.960  10.271 -0.1278 -0.5826  0.0801
12576SOL    HW141005   7.329   2.954  10.176  1.5013 -1.1167 -0.0536
12576SOL    HW241006   7.343   3.054  10.289 -1.3459 -0.4236 -0.2304
12577SOL     OW41007   5.434   8.884   2.945 -0.4560  0.0296  0.0713
12577SOL    HW141008   5.460   8.889   3.037  0.2643 -1.7524  0.0075
12577SOL    HW241009   5.404   8.972   2.924 -0.1846  0.5996  1.8749
12578SOL     OW41010  10.471   2.605   4.926 -0.3776  0.0583  0.3124
12578SOL    HW141011  10.483   2.694   4.960  0.8080 -0.6889  2.0141
12578SOL    HW241012  10.560   2.573   4.911 -0.7269 -1.1789  0.7537
12579SOL     OW41013   8.568   9.673   7.355 -0.9295  0.1174  0.0294
12579SOL    HW141014   8.602   9.648   7.441  2.0234  2.5497 -0.2483
12579SOL    HW241015   8.629   9.632   7.293 -0.6860  1.5380 -0.6962
12580SOL     OW41016   1.758   1.248   8.260 -0.0063 -0.0202  0.0774
12580SOL    HW141017   1.761   1.286   8.348  1.1420  0.7604 -0.2737
12580SOL    HW241018   1.673   1.204   8.256 -0.4338  0.6359  1.2879
12581SOL     OW41019   9.415   1.006   7.065 -0.0306 -0.1662 -0.0407
12581SOL    HW141020   9.338   0.980   7.013 -1.1114  0.5973  1.1023
12581SOL    HW241021   9.488   0.999   7.005 -0.8959 -1.6169 -0.9729
12582SOL     OW41022  11.143   1.861   1.469 -0.1442 -0.1007  0.0011
12582SOL    HW141023  11.190   1.905   1.540 -0.5531  0.7271 -0.2323
12582SOL    HW241024  11.170   1.908   1.390  0.1324 -0.8732 -0.3773
12583SOL     OW41025   8.814   5.056   0.091  0.0120 -0.2395 -0.1632
12583SOL    HW141026   8.742   5.067   0.029  0.6243 -1.3524 -1.0928
12583SOL    HW241027   8.805   4.966   0.123  1.6584 -0.8090 -1.1840
12584SOL     OW41028   6.705   4.314   0.502 -0.2348 -0.1122  0.1711
12584SOL    HW141029   6.761   4.383   0.467  0.8656  0.0325  2.0777
12584SOL    HW241030   6.627   4.315   0.446  0.8711  0.9181 -1.4086
12585SOL     OW41031  10.070   6.657   2.656  0.1304 -0.1640  0.1316
12585SOL    HW141032  10.036   6.639   2.744  0.5986 -2.1013 -0.0483
12585SOL    HW241033  10.026   6.738   2.629 -2.4463 -1.2278  0.8985
12586SOL     OW41034   7.693   9.101   7.427 -0.1739 -0.2643  0.3248
12586SOL    HW141035   7.703   9.074   7.336 -0.8805  0.6767 -0.0469
12586SOL    HW241036   7.774   9.150   7.446  0.8162 -1.9914  0.8060
12587SOL     OW41037   4.425   2.584   9.744  0.3153  0.3677 -0.7200
12587SOL    HW141038   4.355   2.621   9.691  0.5293  1.6465 -0.1517
12587SOL    HW241039   4.500   2.642   9.730  0.7661 -0.0321 -0.0566
12588SOL     OW41040   0.030  10.589   8.370  0.0459  0.7143  0.1481
12588SOL    HW141041   0.026  10.657   8.437  0.3532  0.3311  0.5630
12588SOL    HW241042  -0.037  10.526   8.397  0.6714  0.1919  0.5097
12589SOL     OW41043   5.644   7.401   5.558 -0.2274  0.0232 -0.2858
12589SOL    HW141044   5.714   7.466   5.565 -1.5572  1.4749  0.0441
12589SOL    HW241045   5.622   7.399   5.465 -3.3792  3.7310  0.1164
12590SOL     OW41046   8.198   6.329  10.822 -0.2284  0.0334  0.0512
12590SOL    HW141047   8.206   6.424  10.829  0.3981 -0.1005  1.7826
12590SOL    HW241048   8.114   6.309  10.862  0.2807 -0.2330  1.0250
12591SOL     OW41049   4.742   2.689   3.652 -0.1551 -0.2010  0.4929
12591SOL    HW141050   4.706   2.604   3.627  0.4460  0.0086 -1.2149
12591SOL    HW241051   4.664   2.742   3.671 -0.5420 -1.0558  1.3801
12592SOL     OW41052   5.933  10.614  10.126  0.1907 -0.2059 -0.4233
12592SOL    HW141053   5.845  10.643  10.152 -0.3671 -0.5786 -1.8139
12592SOL    HW241054   5.937  10.523  10.154  0.7521  0.2483  1.0674
12593SOL     OW41055  11.153   0.965   4.378  0.4225  0.3402 -0.2290
12593SOL    HW141056  11.083   0.966   4.444  0.2898  3.2894 -0.2882
12593SOL    HW241057  11.220   1.024   4.414  1.8360 -0.5660 -1.2737
12594SOL     OW41058   8.744   9.094   7.121 -0.0423 -0.0649  0.1759
12594SOL    HW141059   8.696   9.152   7.062  1.2978 -0.3308 -1.2468
12594SOL    HW241060   8.762   9.016   7.068  3.2552  0.6274  0.0709
12595SOL     OW41061   5.814   0.772   6.646  0.1420 -0.0883  0.2981
12595SOL    HW141062   5.815   0.825   6.566 -0.1186 -0.0539  0.3158
12595SOL    HW241063   5.820   0.682   6.614 -1.6455 -0.1885  0.1191
12596SOL     OW41064   7.749   9.716   7.917 -0.0560 -0.5638  0.3066
12596SOL    HW141065   7.794   9.672   7.989  1.2023  0.5028  0.2148
12596SOL    HW241066   7.789   9.680   7.838  0.4699  0.2017  0.2159
12597SOL     OW41067  10.783  11.107   8.912  0.0179  0.1613  0.0354
12597SOL    HW141068  10.719  11.175   8.890  0.3807  0.6563  0.4905
12597SOL    HW241069  10.766  11.088   9.004  0.2207 -0.0396  0.0299
12598SOL     OW41070   9.401   9.640   1.492  0.2704  0.0643 -0.1837
12598SOL    HW141071   9.457   9.576   1.535 -0.1614 -0.6354 -0.6261
12598SOL    HW241072   9.461   9.705   1.455  1.0355 -1.9086 -2.7200
12599SOL     OW41073   1.955   2.860   8.019  0.0204 -0.1754 -0.3537
12599SOL    HW141074   1.987   2.847   8.108 -0.9187 -1.7339 -0.2128
12599SOL    HW241075   2.008   2.932   7.985  0.8648 -0.0111  1.2169
12600SOL     OW41076   6.269   1.207  10.853 -0.3160 -0.5298  0.5959
12600SOL    HW141077   6.242   1.277  10.793  0.1225 -0.5632  0.3542
12600SOL    HW241078   6.234   1.127  10.814  0.9643 -0.6988 -0.2585
12601SOL     OW41079   3.971  10.806   4.848  0.1136 -0.3892  0.1437
12601SOL    HW141080   3.962  10.741   4.917  0.6700 -0.2253  0.3809
12601SOL    HW241081   4.026  10.764   4.782  0.3735 -0.2123  0.2423
12602SOL     OW41082   2.381   3.542  10.424  0.0299  0.1950 -0.1638
12602SOL    HW141083   2.415   3.462  10.385 -3.1391 -0.0186 -2.8922
12602SOL    HW241084   2.290   3.546  10.395 -0.5631  3.6916  1.6859
12603SOL     OW41085   8.970   3.679   8.464 -0.3297 -0.0772  0.6583
12603SOL    HW141086   8.982   3.586   8.484  1.9688 -0.1810 -0.8261
12603SOL    HW241087   8.969   3.683   8.368  2.4734  1.6420  0.5824
12604SOL     OW41088   2.696   2.863   8.698 -0.0999 -0.1350  0.0874
12604SOL    HW141089   2.764   2.930   8.710 -0.3581  0.2509 -0.6155
12604SOL    HW241090   2.742   2.780   8.717  0.2312  0.2230  0.9100
12605SOL     OW41091   7.340   9.287   2.233 -0.0514 -0.2755  0.0111
12605SOL    HW141092   7.418   9.248   2.192  0.5405 -0.2632  1.0838
12605SOL    HW241093   7.328   9.237   2.314 -0.0987  0.8716  0.7391
12606SOL     OW41094   8.050   6.715   9.731 -0.2451 -0.0766  0.0656
12606SOL    HW141095   8.116   6.779   9.757 -0.6488  0.7192 -0.8021
12606SOL    HW241096   8.046   6.652   9.803  0.9698  0.2462  0.4186
12607SOL     OW41097   3.918   0.205   4.468 -0.2547 -0.7044 -0.2303
12607SOL    HW141098   3.862   0.134   4.499  1.3886 -1.5118  1.0329
12607SOL    HW241099   3.978   0.163   4.407  1.3806 -0.6714  1.2791
12608SOL     OW41100   5.100   1.354   5.618 -0.2051 -0.0557  0.2134
12608SOL    HW141101   5.078   1.435   5.664  0.0378  0.8178 -1.1589
12608SOL    HW241102   5.106   1.379   5.526 -0.1536 -1.6466 -0.2484
12609SOL     OW41103   8.537   3.416   6.420  0.4149 -0.4399 -0.5654
12609SOL    HW141104   8.547   3.456   6.334  3.3907 -1.0237 -0.5896
12609SOL    HW241105   8.537   3.322   6.403 -0.6248 -0.5556 -0.0209
12610SOL     OW41106  11.390   5.875   6.636  0.1404  1.0660  0.0725
12610SOL    HW141107  11.371   5.916   6.720 -0.2327 -0.2542  0.6448
12610SOL    HW241108  11.355   5.786   6.643  0.2960  0.8556 -1.3967
12611SOL     OW41109   6.853   0.135   0.456 -0.1396 -0.4635  0.3201
12611SOL    HW141110   6.794   0.209   0.471 -1.3652 -1.5083  0.8164
12611SOL    HW241111   6.859   0.128   0.360 -2.7342 -1.7543  0.1661
12612SOL     OW41112   1.785   7.489   1.483 -0.0996 -0.3616 -0.0707
12612SOL    HW141113   1.827   7.546   1.547  1.1137  0.2342 -1.3559
12612SOL    HW241114   1.856   7.456   1.429 -1.0202 -1.4241 -0.6897
12613SOL     OW41115   9.177   9.422   7.118  0.0329  0.0863 -0.2759
12613SOL    HW141116   9.236   9.453   7.187 -0.1743  0.9963 -0.4951
12613SOL    HW241117   9.125   9.354   7.160  0.6227 -0.0913  0.1725
12614SOL     OW41118   0.972   5.311   6.278 -0.0510  0.1472 -0.2966
12614SOL    HW141119   0.917   5.261   6.338  0.0572 -0.1723 -0.4583
12614SOL    HW241120   0.997   5.247   6.210  0.9095  0.1555  0.0315
12615SOL     OW41121   7.060   4.075  10.870  0.0694  0.2164  0.4928
12615SOL    HW141122   7.150   4.085  10.838  0.0580  2.2243  0.9642
12615SOL    HW241123   7.064   4.105  10.961 -1.1326  0.6849  0.4066
12616SOL     OW41124   2.229   9.078   7.205  0.3010  0.3092 -0.0660
12616SOL    HW141125   2.158   9.042   7.152 -0.1620 -2.3969  2.1267
12616SOL    HW241126   2.187   9.142   7.262  0.1646  0.7431 -0.6511
12617SOL     OW41127   1.588   7.585  10.551  0.1058 -0.2684 -0.9638
12617SOL    HW141128   1.646   7.589  10.476 -0.4036  0.4500 -1.3320
12617SOL    HW241129   1.599   7.670  10.594  0.0266 -0.4869 -0.5029
12618SOL     OW41130   9.232   4.861   6.797 -0.1542 -0.0065  0.5860
12618SOL    HW141131   9.178   4.904   6.863  0.0780 -0.6843  1.2368
12618SOL    HW241132   9.180   4.787   6.767  0.2278 -0.4209  0.9158
12619SOL     OW41133   1.022   7.972   6.375 -0.0422  0.2328  0.2685
12619SOL    HW141134   1.062   7.932   6.298 -1.0076  1.4811 -0.9435
12619SOL    HW241135   1.023   8.066   6.356 -0.0309  0.5972  1.9231
12620SOL     OW41136   8.207   9.352   8.174  0.6321  0.0849 -0.2232
12620SOL    HW141137   8.202   9.298   8.253  1.0562 -0.8657 -0.8302
12620SOL    HW241138   8.116   9.358   8.144 -0.0520  3.0189  1.9575
12621SOL     OW41139   6.566  10.491   0.420 -0.2239  0.0504 -0.1734
12621SOL    HW141140   6.485  10.446   0.444  1.0974 -2.2180  0.3192
12621SOL    HW241141   6.552  10.518   0.329 -2.2051  1.4349  0.4668
12622SOL     OW41142   8.098   6.570  10.236 -0.0544 -0.1231  0.2140
12622SOL    HW141143   8.110   6.511  10.310  1.6339  1.7656  1.5513
12622SOL    HW241144   8.036   6.636  10.267  0.1613  0.3320 -0.2895
12623SOL     OW41145   5.716   0.059   5.491 -0.2203  0.1491  0.1791
12623SOL    HW141146   5.704   0.135   5.549  0.8802 -0.6426  1.5172
12623SOL    HW241147   5.644   0.065   5.429 -1.0367  1.4617  1.1838
12624SOL     OW41148   1.276   7.950   0.258 -0.1312  0.0209  0.1983
12624SOL    HW141149   1.345   7.908   0.206  1.4157  4.2991 -1.7802
12624SOL    HW241150   1.212   7.980   0.193  0.3131  2.9211  0.9272
12625SOL     OW41151   3.986   8.935   8.126  0.4002  0.5217  0.3034
12625SOL    HW141152   4.075   8.956   8.152  0.3469 -0.0307  0.9637
12625SOL    HW241153   3.958   8.867   8.187 -0.0901 -0.0919 -0.5706
12626SOL     OW41154   5.932   0.072   8.689 -0.2259 -0.0404 -0.4498
12626SOL    HW141155   5.958   0.063   8.598 -1.5521 -0.3035 -0.8230
12626SOL    HW241156   6.010   0.106   8.733  0.6793 -0.6601 -1.5239
12627SOL     OW41157   2.129   1.871  11.048  0.2475  0.1712 -0.4591
12627SOL    HW141158   2.085   1.824  11.118 -0.9876  0.2876 -1.1276
12627SOL    HW241159   2.210   1.822  11.033 -0.7585 -1.4636 -0.7855
12628SOL     OW41160   0.227   7.992   5.328  0.5455 -0.1428  0.0841
12628SOL    HW141161   0.318   7.964   5.333  0.4463 -0.3943  0.5537
12628SOL    HW241162   0.231   8.086   5.309  0.9214  0.1571  1.5372
12629SOL     OW41163   2.330   5.049   2.201  0.6388 -0.5890  0.2275
12629SOL    HW141164   2.262   4.982   2.190  0.3964 -0.2502 -0.3973
12629SOL    HW241165   2.380   5.045   2.119  1.1518 -0.5934  0.5410
12630SOL     OW41166   1.100   0.891   9.382 -0.1682  0.4221  0.0016
12630SOL    HW141167   1.186   0.848   9.385 -0.5648 -0.4022 -0.1072
12630SOL    HW241168   1.115   0.977   9.420  0.7812  0.4104 -0.3215
12631SOL     OW41169   8.650   8.434   1.498  0.3031  0.0232 -0.0366
12631SOL    HW141170   8.604   8.404   1.576  1.1113 -0.1227  0.3905
12631SOL    HW241171   8.712   8.499   1.529  1.1651 -0.5864 -0.4363
12632SOL     OW41172  11.388   1.701   1.627 -0.1247  0.3431 -0.0637
12632SOL    HW141173  11.428   1.706   1.714  1.7370 -0.1878 -0.8340
12632SOL    HW241174  11.349   1.614   1.624 -1.1713  0.7661  0.6038
12633SOL     OW41175  11.357   5.211   4.748 -0.1585  0.2107  0.0337
12633SOL    HW141176  11.321   5.125   4.726  2.0154 -0.6522 -0.3071
12633SOL    HW241177  11.348   5.218   4.843 -1.2687  0.0648 -0.0474
12634SOL     OW41178  10.744   1.229   8.146 -0.6321  0.3683  0.4044
12634SOL    HW141179  10.725   1.153   8.091 -1.2104  0.2246  0.7804
12634SOL    HW241180  10.812   1.277   8.100  1.5105 -1.6371  1.2895
12635SOL     OW41181   8.838   0.510   7.161  0.3318  0.6813 -0.0230
12635SOL    HW141182   8.829   0.539   7.252  1.5445  0.8219  0.0615
12635SOL    HW241183   8.812   0.585   7.109 -2.0347  0.0779  0.1642
12636SOL     OW41184  11.319   0.214   3.082  0.3609 -0.3721 -0.0826
12636SOL    HW141185  11.339   0.307   3.093  1.0386 -0.5235  0.0104
12636SOL    HW241186  11.396   0.177   3.037 -0.1440 -0.7793 -0.6240
12637SOL     OW41187   2.359   2.727   4.393 -0.0991  0.1411  0.6532
12637SOL    HW141188   2.448   2.762   4.390  0.3307 -0.9719 -0.2745
12637SOL    HW241189   2.314   2.769   4.320 -0.2629  0.4775  0.9418
12638SOL     OW41190   0.998   1.617   7.926 -0.3744 -0.2031  0.3142
12638SOL    HW141191   0.927   1.573   7.975 -1.2295 -0.0154 -0.7200
12638SOL    HW241192   1.041   1.546   7.878  0.5918 -0.4170  1.4530
12639SOL     OW41193   2.346   0.867  10.451  0.4720 -0.4266  0.0633
12639SOL    HW141194   2.337   0.962  10.445  0.3310 -0.4439  0.0101
12639SOL    HW241195   2.441   0.853  10.454  0.5555 -0.3807 -1.4936
12640SOL     OW41196   5.184   3.221   2.699 -0.4409  0.6209  0.5410
12640SOL    HW141197   5.213   3.157   2.634  1.4613  1.3693  0.5988
12640SOL    HW241198   5.095   3.193   2.723  0.1714 -1.7314  0.2570
12641SOL     OW41199   7.712   0.490   9.745 -0.1883 -0.4237  0.4894
12641SOL    HW141200   7.630   0.450   9.714 -0.1085 -0.7370  0.6763
12641SOL    HW241201   7.685   0.570   9.790 -0.3042  0.0669 -0.4343
12642SOL     OW41202   9.136   5.501   7.708  0.7593  0.2442 -0.1804
12642SOL    HW141203   9.108   5.568   7.770  1.3250  1.1395 -0.8815
12642SOL    HW241204   9.061   5.488   7.650 -0.7161 -2.3399  2.0480
12643SOL     OW41205   5.512   8.348   7.083  0.1400  0.1727  0.4516
12643SOL    HW141206   5.506   8.270   7.028  0.2285  1.1033 -0.9189
12643SOL    HW241207   5.576   8.325   7.150 -1.1213 -1.5344  1.1534
12644SOL     OW41208   6.760   2.701   2.464  0.0418 -0.3208 -0.1209
12644SOL    HW141209   6.844   2.657   2.455  1.4922  2.5607 -2.1926
12644SOL    HW241210   6.735   2.724   2.375 -0.8186  2.5644  0.7645
12645SOL     OW41211   1.388   1.135   4.268  0.0706  0.2875  0.5170
12645SOL    HW141212   1.396   1.041   4.280  0.3250  0.1676 -0.4679
12645SOL    HW241213   1.426   1.151   4.181 -2.1312  0.9830 -0.3684
12646SOL     OW41214   4.487  11.339   3.637  0.3513  0.3814  0.1542
12646SOL    HW141215   4.398  11.306   3.626  0.7106 -0.0210 -2.3478
12646SOL    HW241216   4.542  11.261   3.632  0.9595  0.8627 -1.1430
12647SOL     OW41217   9.078  10.470   3.489  0.4094 -0.3824  0.4382
12647SOL    HW141218   9.057  10.547   3.437 -1.0068 -0.7331  0.4509
12647SOL    HW241219   9.009  10.465   3.554 -1.6575 -3.5726 -1.6962
12648SOL     OW41220   0.603   7.002   8.522  0.1703 -0.2871  0.0861
12648SOL    HW141221   0.628   6.992   8.430 -0.4824  0.3328 -0.1682
12648SOL    HW241222   0.687   7.006   8.569  0.4976 -1.3271 -0.3932
12649SOL     OW41223  10.307   0.904   7.858 -0.5888 -0.1396  0.3955
12649SOL    HW141224  10.233   0.851   7.827 -0.5054 -0.7203  1.1759
12649SOL    HW241225  10.284   0.993   7.832 -0.5703 -0.5712 -1.2489
12650SOL     OW41226   3.364   1.428   3.844 -0.5263 -0.6312  0.2726
12650SOL    HW141227   3.379   1.492   3.914 -1.0512 -0.8198  0.5564
12650SOL    HW241228   3.419   1.459   3.771  0.1356 -0.5144  0.8112
12651SOL     OW41229   7.563   7.004   6.621 -0.0858 -0.0189  0.1965
12651SOL    HW141230   7.507   6.952   6.678  0.9874  0.5717  1.8777
12651SOL    HW241231   7.575   6.950   6.543 -2.1115 -0.5927  0.2196
12652SOL     OW41232   0.999   7.754   4.041 -0.0638 -0.2697 -0.8384
12652SOL    HW141233   0.934   7.810   4.085  1.0092 -0.1340  0.6706
12652SOL    HW241234   0.974   7.757   3.949 -2.1367 -0.1556 -0.3344
12653SOL     OW41235   2.281   0.767   1.549  0.0158  0.5487  0.1006
12653SOL    HW141236   2.236   0.722   1.620  0.7395  1.3428  1.0887
12653SOL    HW241237   2.352   0.708   1.523  1.1242  1.1795  1.5680
12654SOL     OW41238   0.618   4.745   5.345  0.1369  0.0085  0.6426
12654SOL    HW141239   0.678   4.760   5.273 -1.4640  0.5589 -0.6548
12654SOL    HW241240   0.532   4.735   5.303 -1.1630  2.0671  2.5478
12655SOL     OW41241   0.597   8.694   7.649  0.3307 -0.2324 -0.3670
12655SOL    HW141242   0.566   8.762   7.590 -0.7168 -0.4507 -0.0851
12655SOL    HW241243   0.677   8.661   7.608  0.3869  0.5933 -0.9259
12656SOL     OW41244   6.992   3.660   4.838  0.0522  0.7021  0.0465
12656SOL    HW141245   7.025   3.604   4.908  2.3473  3.0051  0.9657
12656SOL    HW241246   6.937   3.724   4.882  1.0053  1.7933 -0.3001
12657SOL     OW41247   9.470   5.685   2.615  0.2088 -0.1707 -0.4118
12657SOL    HW141248   9.540   5.654   2.556  1.1767 -1.0478  1.1311
12657SOL    HW241249   9.500   5.771   2.644  0.5709 -0.4660  0.1027
12658SOL     OW41250   9.572   3.902   9.745  0.5459  0.1807  0.4834
12658SOL    HW141251   9.517   3.841   9.696  1.8731 -0.4206 -0.3244
12658SOL    HW241252   9.514   3.975   9.766 -0.9748 -1.1525  1.1054
12659SOL     OW41253   1.388   7.197   7.559 -0.2775 -0.2507  0.8772
12659SOL    HW141254   1.384   7.221   7.466  0.1787  2.8188  1.5442
12659SOL    HW241255   1.303   7.222   7.594 -0.6804 -1.9947  1.2085
12660SOL     OW41256   3.216   2.580   4.224 -0.0736  0.1739  0.2268
12660SOL    HW141257   3.256   2.656   4.181 -0.7411  1.0853  1.1708
12660SOL    HW241258   3.136   2.614   4.264 -1.1991 -1.3563 -0.6148
12661SOL     OW41259   1.103   4.672   7.992 -0.0439  0.6700  0.4473
12661SOL    HW141260   1.162   4.747   7.986  0.1581  0.5170  0.5044
12661SOL    HW241261   1.057   4.684   8.074  0.9518  0.0363  1.1193
12662SOL     OW41262   4.958  10.881   5.986  0.3361  0.2080  0.2131
12662SOL    HW141263   4.998  10.848   6.066 -1.0919  1.4008  1.4664
12662SOL    HW241264   4.909  10.806   5.951  0.3371 -0.1125  0.8775
12663SOL     OW41265   1.332   1.996   2.952  0.6246 -0.3973 -0.6310
12663SOL    HW141266   1.247   1.954   2.935  0.5474 -0.6544  0.3535
12663SOL    HW241267   1.391   1.957   2.887  0.0414 -0.3942 -1.1644
12664SOL     OW41268   2.612  10.286   1.214 -0.7013  0.1588 -0.4182
12664SOL    HW141269   2.578  10.246   1.294  2.3231 -0.3934  0.7232
12664SOL    HW241270   2.680  10.225   1.183 -0.7891  1.0660 -2.6195
12665SOL     OW41271   0.165   7.965   7.083  0.3534 -0.2317  0.7087
12665SOL    HW141272   0.153   7.988   6.991  2.4117 -1.0321  0.1730
12665SOL    HW241273   0.138   8.043   7.132 -0.3592  0.3538 -0.5792
12666SOL     OW41274   8.970   3.192   9.558 -0.2362 -0.0525  0.6691
12666SOL    HW141275   9.021   3.240   9.493 -1.2015 -1.0183 -0.8561
12666SOL    HW241276   8.892   3.246   9.572  0.8447  1.1232  2.5495
12667SOL     OW41277   9.990   9.272   5.480 -0.1085 -0.0099 -0.0650
12667SOL    HW141278   9.910   9.311   5.445  0.1138  0.7279  0.2474
12667SOL    HW241279  10.006   9.196   5.424 -0.9445 -0.0786 -0.2213
12668SOL     OW41280   8.714   9.464   9.455  0.1918  0.0395 -0.1791
12668SOL    HW141281   8.641   9.438   9.512 -1.9386 -1.5458 -3.3108
12668SOL    HW241282   8.681   9.540   9.407  0.4973 -0.7490 -1.7049
12669SOL     OW41283   6.937   7.626  10.280 -0.6746  1.0821 -0.1306
12669SOL    HW141284   6.861   7.581  10.241  0.7108 -0.5502 -1.0806
12669SOL    HW241285   7.003   7.625  10.211  0.6034  1.4546  1.0440
12670SOL     OW41286   4.882   8.942   6.191 -0.0924  0.2668  0.7287
12670SOL    HW141287   4.798   8.983   6.172  0.1380  0.9905  1.2394
12670SOL    HW241288   4.873   8.852   6.158 -0.6826  0.6473 -0.1994
12671SOL     OW41289   7.571  10.792   4.406  0.0490  0.2275 -0.6901
12671SOL    HW141290   7.481  10.778   4.434  0.0559  1.4852  0.0584
12671SOL    HW241291   7.587  10.885   4.423  1.8964 -0.2271  0.3978
12672SOL     OW41292   1.610  10.419   7.487  0.3442 -0.0597  0.0315
12672SOL    HW141293   1.544  10.367   7.440  0.8942 -0.9931  0.2751
12672SOL    HW241294   1.573  10.430   7.574  0.1117  0.1832 -0.0953
12673SOL     OW41295   3.809   6.959   5.875 -0.1253 -0.3613 -0.2045
12673SOL    HW141296   3.868   6.884   5.876  1.5339  0.8190 -1.8300
12673SOL    HW241297   3.867   7.035   5.875 -1.4907  0.8600 -3.4494
12674SOL     OW41298  10.955   3.331   4.657 -0.3248 -0.1754  0.0968
12674SOL    HW141299  10.874   3.368   4.623  0.3441  0.4147 -0.9159
12674SOL    HW241300  10.997   3.404   4.703  0.3963  0.0117 -0.8129
12675SOL     OW41301   6.980   5.216   9.430  0.2768  0.0379  0.1504
12675SOL    HW141302   6.967   5.126   9.459 -2.3196  0.3564  0.1907
12675SOL    HW241303   7.029   5.258   9.501  1.8643 -1.3887 -0.0447
12676SOL     OW41304   9.482   6.506   5.252 -0.3716  0.4906  0.4021
12676SOL    HW141305   9.576   6.515   5.239  0.3515 -0.5457  3.8896
12676SOL    HW241306   9.470   6.415   5.278 -2.2972  0.7275  0.5267
12677SOL     OW41307   8.756   6.060  10.008  0.1198 -0.1711 -0.0367
12677SOL    HW141308   8.755   6.015   9.924 -1.0881  0.4276 -0.3636
12677SOL    HW241309   8.668   6.095  10.018 -0.2013 -1.4165  2.1375
12678SOL     OW41310  10.669   5.510   2.897 -0.0124 -0.2683 -0.4672
12678SOL    HW141311  10.749   5.459   2.881  0.3091  0.4476 -1.2145
12678SOL    HW241312  10.700   5.590   2.940 -0.3477 -0.0438 -0.6417
12679SOL     OW41313   1.806   9.466   0.835  0.0927  0.1269  0.8400
12679SOL    HW141314   1.749   9.521   0.889 -0.2865  0.2168  0.3579
12679SOL    HW241315   1.766   9.379   0.840 -2.9121  0.9896 -3.1649
12680SOL     OW41316   5.501   6.230   8.431 -0.3744 -0.6144  0.4085
12680SOL    HW141317   5.481   6.262   8.519 -0.2598  0.7899 -0.0463
12680SOL    HW241318   5.489   6.307   8.375 -0.1812 -1.4201 -0.7651
12681SOL     OW41319  11.222   5.362   6.836  0.1191  0.5166 -0.1879
12681SOL    HW141320  11.174   5.436   6.800  0.7752  1.1290  0.1636
12681SOL    HW241321  11.160   5.289   6.832 -0.5876  1.1114 -0.4029
12682SOL     OW41322   8.255   4.287   2.099  0.1395 -0.3917  0.3777
12682SOL    HW141323   8.291   4.339   2.170 -0.8228  0.8340  0.0011
12682SOL    HW241324   8.184   4.340   2.064 -0.8323 -1.9306 -0.0796
12683SOL     OW41325   6.659  10.096   0.131  0.2048 -0.1214 -0.8044
12683SOL    HW141326   6.721  10.080   0.202 -0.3275  0.5775 -0.1708
12683SOL    HW241327   6.601  10.020   0.133  0.4176 -0.2861 -0.7430
12684SOL     OW41328   0.600   9.612   0.330  0.2290 -0.2138  0.3653
12684SOL    HW141329   0.537   9.541   0.318  0.5744 -0.4070 -0.3912
12684SOL    HW241330   0.567   9.683   0.276  0.9333 -0.5116 -0.4957
12685SOL     OW41331  11.112   5.015   2.581  0.7646  0.4844  0.3957
12685SOL    HW141332  11.032   5.058   2.610  1.6801  2.0047  0.7740
12685SOL    HW241333  11.090   4.978   2.496 -0.7036 -0.2680  1.0626
12686SOL     OW41334   6.656   5.748   3.421  0.1940 -0.3627 -0.7044
12686SOL    HW141335   6.654   5.827   3.366  0.3133  0.3421  0.2858
12686SOL    HW241336   6.604   5.771   3.498  0.9570 -0.9500  0.0041
12687SOL     OW41337   4.446   5.369   4.759 -0.3203 -0.1537  0.1365
12687SOL    HW141338   4.534   5.379   4.722 -0.4122 -1.5245 -0.5280
12687SOL    HW241339   4.423   5.278   4.742 -2.9355  0.7876 -2.0887
12688SOL     OW41340  10.282   4.756   2.330 -0.3134 -0.4276  0.2483
12688SOL    HW141341  10.188   4.753   2.350 -0.1832  1.8797  1.6400
12688SOL    HW241342  10.325   4.761   2.415  1.2634 -3.0865 -0.2967
12689SOL     OW41343   4.463   7.704   4.846 -0.2304 -0.1869  0.5631
12689SOL    HW141344   4.469   7.712   4.941 -0.6048 -0.7064  0.6380
12689SOL    HW241345   4.546   7.739   4.813  0.3554 -0.9689  1.1520
12690SOL     OW41346   0.668   9.022   9.969  0.0059 -0.3562 -0.3966
12690SOL    HW141347   0.756   9.036  10.004  0.3468 -1.2703 -0.8503
12690SOL    HW241348   0.611   9.073  10.026  0.7519 -0.3309  0.3485
12691SOL     OW41349  11.310   4.674   6.489  0.3977  0.2194 -0.0112
12691SOL    HW141350  11.367   4.667   6.412 -1.2543  2.4094 -1.5788
12691SOL    HW241351  11.244   4.605   6.475 -0.3130  1.0632 -1.0108
12692SOL     OW41352  10.250   5.436   7.814  0.5471  0.1206  0.0383
12692SOL    HW141353  10.263   5.388   7.896  0.3210  0.1706  0.1059
12692SOL    HW241354  10.337   5.441   7.775  0.4534 -1.0786 -0.3757
12693SOL     OW41355   3.355   4.440   2.036  0.5539  0.1819  0.3265
12693SOL    HW141356   3.370   4.355   1.995  0.8376  0.3072  0.1644
12693SOL    HW241357   3.393   4.503   1.975  0.1414  0.4438  0.3357
12694SOL     OW41358   8.455   4.809   9.639 -0.2208  0.2454  0.6384
12694SOL    HW141359   8.486   4.738   9.582  0.7369 -0.1249  1.5953
12694SOL    HW241360   8.361   4.813   9.622  0.3574  2.1416 -3.2052
12695SOL     OW41361   3.297   1.935   1.617  0.6225  0.2492 -0.3609
12695SOL    HW141362   3.265   1.873   1.552  1.4712 -0.1027 -0.4647
12695SOL    HW241363   3.222   1.954   1.673  0.0896 -0.0559 -0.9678
12696SOL     OW41364   2.319   4.290   8.407  0.1746 -0.2217 -0.0429
12696SOL    HW141365   2.242   4.256   8.361 -0.5120  0.4631  0.5724
12696SOL    HW241366   2.358   4.352   8.346 -1.1351  1.2122  0.5213
12697SOL     OW41367  10.501   7.186   1.128  0.4032 -0.2484  0.3410
12697SOL    HW141368  10.435   7.177   1.197 -0.2879  0.2480 -0.2451
12697SOL    HW241369  10.457   7.159   1.048  0.9453 -0.0273 -0.0431
12698SOL     OW41370  10.978   5.049   7.851 -0.0780  0.0759 -0.1828
12698SOL    HW141371  10.884   5.068   7.858 -0.6078 -2.4241  0.4097
12698SOL    HW241372  11.003   5.086   7.767 -1.5021  1.0780 -0.2133
12699SOL     OW41373   2.004   3.435   6.221  0.2038  0.1519  0.2040
12699SOL    HW141374   2.035   3.481   6.300 -2.7003 -0.1668  1.6601
12699SOL    HW241375   1.980   3.348   6.253  1.2285 -0.8289 -1.5847
12700SOL     OW41376  10.062  10.758   1.312  0.3823  0.1792 -0.1482
12700SOL    HW141377   9.998  10.819   1.349 -1.7491 -1.7522 -0.4832
12700SOL    HW241378  10.109  10.810   1.247 -0.5056  1.7817  0.4247
12701SOL     OW41379   1.723   9.910   0.539  0.2443 -0.1741  0.1512
12701SOL    HW141380   1.648   9.930   0.595  0.6871  0.6176  0.4828
12701SOL    HW241381   1.759   9.829   0.575 -0.7836 -0.8708 -0.3649
12702SOL     OW41382   5.446   9.152   6.814  0.0561 -0.4457 -0.0932
12702SOL    HW141383   5.518   9.129   6.755 -0.7096  0.4149 -1.4220
12702SOL    HW241384   5.395   9.071   6.821 -1.2192  0.0302 -2.6984
12703SOL     OW41385   1.879   1.300   1.106  0.0398  0.4204  0.0700
12703SOL    HW141386   1.868   1.393   1.087  1.9947  0.5064 -0.8640
12703SOL    HW241387   1.971   1.283   1.088  0.1707 -1.2961  2.0007
12704SOL     OW41388   5.882   6.045   3.390  0.0791 -0.4089 -0.1372
12704SOL    HW141389   5.966   6.086   3.411 -0.3108  0.1620  0.3335
12704SOL    HW241390   5.838   6.107   3.332 -0.9797  0.4067  1.4604
12705SOL     OW41391   5.820  10.149   0.933  0.4095 -0.4647  0.1379
12705SOL    HW141392   5.747  10.089   0.919 -0.9727  0.7468  1.7285
12705SOL    HW241393   5.830  10.194   0.849  0.1069 -1.4393 -0.4405
12706SOL     OW41394   1.624   9.599   4.004  0.6372 -0.1979 -0.1690
12706SOL    HW141395   1.636   9.689   4.033 -1.6673 -0.4612  1.9091
12706SOL    HW241396   1.604   9.606   3.910 -3.3767  1.9225  0.6463
12707SOL     OW41397  11.189   9.738   6.329 -0.4500 -0.4641 -0.3828
12707SOL    HW141398  11.177   9.659   6.380 -0.2879 -0.5110 -0.4172
12707SOL    HW241399  11.142   9.806   6.378 -0.3883 -0.5313 -0.2318
12708SOL     OW41400   1.306   2.315   5.432 -0.2928  0.1541 -0.4110
12708SOL    HW141401   1.331   2.229   5.464  1.2293  1.2236  1.4992
12708SOL    HW241402   1.389   2.355   5.405 -1.2311  0.1494 -3.8074
12709SOL     OW41403   1.399   9.283   5.465 -0.0218 -0.5141  0.1091
12709SOL    HW141404   1.424   9.368   5.498 -1.1357  0.1457 -0.6678
12709SOL    HW241405   1.368   9.235   5.542 -1.7646  0.6839  0.2057
12710SOL     OW41406   4.366   7.477   4.734  0.0864 -0.7671 -0.0877
12710SOL    HW141407   4.379   7.482   4.639 -1.6569  1.4068 -0.3104
12710SOL    HW241408   4.401   7.559   4.767 -0.3095 -1.0178  1.0005
12711SOL     OW41409   1.818   1.885   0.346 -0.0545  0.4494 -0.1217
12711SOL    HW141410   1.788   1.950   0.283  0.4433  0.4630 -0.3540
12711SOL    HW241411   1.901   1.853   0.310  0.5417  0.8829  0.8134
12712SOL     OW41412   5.007   2.870   0.049 -0.3077 -0.9038 -0.1873
12712SOL    HW141413   5.011   2.874   0.145 -0.6408  0.8425 -0.2068
12712SOL    HW241414   4.914   2.883   0.029 -0.3531 -2.0078 -0.7363
12713SOL     OW41415   7.103   5.322   2.378  0.1946 -0.3069 -0.7997
12713SOL    HW141416   7.072   5.378   2.449  0.4011 -1.2252  0.0469
12713SOL    HW241417   7.111   5.380   2.302 -2.7957  0.1384 -0.8723
12714SOL     OW41418   5.318   9.326   2.334 -0.4142  0.1112  0.1493
12714SOL    HW141419   5.337   9.403   2.388 -1.2247 -0.3267  1.0929
12714SOL    HW241420   5.250   9.280   2.382 -1.6279  0.0255 -1.5899
12715SOL     OW41421   0.356   7.386  10.387  0.3032 -0.3084 -0.2621
12715SOL    HW141422   0.384   7.294  10.387 -1.0015 -0.7251  0.7780
12715SOL    HW241423   0.277   7.388  10.440 -0.7984  1.1099 -1.8271
12716SOL     OW41424   6.119   9.734   5.630  0.2618  0.6924 -0.2643
12716SOL    HW141425   6.123   9.733   5.726 -0.2976  1.2480 -0.2275
12716SOL    HW241426   6.202   9.773   5.603  0.6118  0.1314 -0.0287
12717SOL     OW41427   9.262   1.331   1.153 -0.4291  0.0098 -0.3201
12717SOL    HW141428   9.251   1.384   1.232  0.9152  0.6457 -0.5427
12717SOL    HW241429   9.181   1.280   1.147  0.0655 -1.2291  2.3170
12718SOL     OW41430   1.287   6.565   9.344  0.0908 -0.0875  0.5767
12718SOL    HW141431   1.280   6.640   9.403  2.2057 -0.3229  1.2411
12718SOL    HW241432   1.210   6.511   9.365 -0.2740  0.8160  1.6928
12719SOL     OW41433   1.883   7.655   6.125  0.1292 -0.5154  0.1761
12719SOL    HW141434   1.815   7.663   6.058  0.9541 -0.0785 -0.6351
12719SOL    HW241435   1.871   7.567   6.161 -0.4577 -0.6806 -0.4079
12720SOL     OW41436   7.559   6.012   1.541 -0.1803  0.3395  0.0065
12720SOL    HW141437   7.466   5.990   1.542 -0.5227  1.7286  0.9731
12720SOL    HW241438   7.567   6.085   1.603  1.1317  1.9014 -1.9135
12721SOL     OW41439   2.462   5.347   7.188  0.1736 -0.2580 -0.3091
12721SOL    HW141440   2.446   5.338   7.283  0.7309 -2.5117 -0.3777
12721SOL    HW241441   2.546   5.391   7.182 -0.7766  1.7556  0.1697
12722SOL     OW41442   9.923   6.389   0.051 -0.1554 -0.3735 -0.1968
12722SOL    HW141443   9.833   6.419   0.061 -0.1555 -0.5924  0.5084
12722SOL    HW241444   9.976   6.460   0.088 -0.0612 -0.4841 -0.1207
12723SOL     OW41445   9.773   4.023   0.736 -0.1997  0.0105 -0.3451
12723SOL    HW141446   9.684   4.056   0.725 -1.6464 -3.7014 -1.0941
12723SOL    HW241447   9.780   4.001   0.829 -0.1535  0.0638 -0.3356
12724SOL     OW41448   6.863  10.750   4.815  0.4722  0.1499  0.5398
12724SOL    HW141449   6.917  10.710   4.884  3.4960  2.0234 -0.5207
12724SOL    HW241450   6.831  10.831   4.854 -0.5256 -0.3329  0.7420
12725SOL     OW41451   4.271   7.007   2.665  0.6890  0.3745  0.2417
12725SOL    HW141452   4.191   7.039   2.622 -0.1379 -0.8759  0.7744
12725SOL    HW241453   4.243   6.986   2.754  1.6098 -0.1350  0.4202
12726SOL     OW41454   3.523   6.459   8.344  0.1533  0.2058  0.3318
12726SOL    HW141455   3.616   6.480   8.336 -0.0116  0.6362 -0.5796
12726SOL    HW241456   3.500   6.421   8.259 -0.8699  1.6287 -0.0555
12727SOL     OW41457  10.876   9.105   4.047  0.1558  0.3930 -0.2535
12727SOL    HW141458  10.791   9.121   4.006  1.2958  3.3627 -1.7314
12727SOL    HW241459  10.889   9.179   4.106  1.7934  0.0586 -0.1587
12728SOL     OW41460   2.139   8.338   2.294  0.0121  0.0441  0.4541
12728SOL    HW141461   2.187   8.275   2.241  0.3834  0.0967  0.7178
12728SOL    HW241462   2.052   8.343   2.254  1.1313  2.2587 -1.9851
12729SOL     OW41463   9.038   6.195   3.383  0.1857 -0.3341  0.0183
12729SOL    HW141464   9.133   6.203   3.369  0.6402  1.1310  3.0495
12729SOL    HW241465   9.002   6.274   3.343  0.3359 -0.4954 -0.4434
12730SOL     OW41466   4.429   6.837   0.481  0.0988 -0.2128  0.5135
12730SOL    HW141467   4.423   6.745   0.508  2.1687 -0.6774 -0.4116
12730SOL    HW241468   4.522   6.858   0.488 -0.4141  2.0398  1.3359
12731SOL     OW41469  10.198  10.970   0.459  0.3061 -0.3787  0.7629
12731SOL    HW141470  10.226  10.952   0.369  0.5633 -0.7695  0.9196
12731SOL    HW241471  10.215  10.889   0.506  0.9512  0.0885  1.3559
12732SOL     OW41472   4.568   1.966   1.972 -0.1191  0.3140  0.1619
12732SOL    HW141473   4.654   1.937   1.943 -0.3157  0.1262 -0.2362
12732SOL    HW241474   4.573   1.965   2.068 -0.0957 -0.9268  0.1561
12733SOL     OW41475   5.182   9.815  10.991  0.0348  0.1599 -0.3451
12733SOL    HW141476   5.228   9.818  11.075 -1.5525  0.9388  0.5503
12733SOL    HW241477   5.216   9.737  10.947 -0.0895 -1.0646  1.6180
12734SOL     OW41478   5.474   3.318   8.941 -0.4257 -0.0919  0.3545
12734SOL    HW141479   5.509   3.251   8.881 -1.7131 -0.2285 -0.2886
12734SOL    HW241480   5.528   3.395   8.925  1.3337 -1.0636  1.3849
12735SOL     OW41481   9.680   4.677   3.650 -0.0973  0.2334 -0.0421
12735SOL    HW141482   9.684   4.718   3.736  2.4951 -0.8252  0.4450
12735SOL    HW241483   9.597   4.629   3.650 -2.1180  3.4283  0.2233
12736SOL     OW41484   3.138   7.209  10.166  0.9007 -0.1341  0.2576
12736SOL    HW141485   3.071   7.144  10.145 -0.0092  0.5333  1.0375
12736SOL    HW241486   3.129   7.277  10.100  0.4253  0.2254  0.6846
12737SOL     OW41487   5.477   2.029   5.131  0.1881  0.1940  0.2808
12737SOL    HW141488   5.408   2.013   5.194  0.4899 -2.4963  0.0519
12737SOL    HW241489   5.554   2.050   5.184 -0.2351  0.8300  0.6483
12738SOL     OW41490   8.494   3.149   6.174 -0.2879  0.4261 -0.1025
12738SOL    HW141491   8.480   3.075   6.233  1.0282 -0.9480 -1.4341
12738SOL    HW241492   8.564   3.199   6.215 -0.2787  0.2016  0.1602
12739SOL     OW41493   2.482  10.523   0.122 -0.2936  0.4508  0.3358
12739SOL    HW141494   2.468  10.444   0.070 -0.1648 -0.0860  1.1046
12739SOL    HW241495   2.552  10.500   0.183 -0.2817  1.1449  0.5959
12740SOL     OW41496   6.328   0.617   8.759  0.5328 -0.2063  0.1961
12740SOL    HW141497   6.330   0.683   8.690 -0.7947  0.3021  0.6099
12740SOL    HW241498   6.327   0.667   8.841 -2.6059 -0.5767  0.4965
12741SOL     OW41499   1.862   2.773   1.951  0.4511  0.2596  0.1200
12741SOL    HW141500   1.906   2.691   1.972 -0.4310 -0.5314 -0.9979
12741SOL    HW241501   1.777   2.767   1.995  1.0509  1.3678  1.4975
12742SOL     OW41502   9.037   2.309   1.373 -0.3729  0.0291 -0.5010
12742SOL    HW141503   8.986   2.378   1.415  1.2573  2.7382 -2.6497
12742SOL    HW241504   9.051   2.244   1.442 -0.9771  2.3974  1.9999
12743SOL     OW41505   4.581   8.030  10.693 -0.4152 -0.3831  0.1744
12743SOL    HW141506   4.603   7.938  10.683  0.2039 -0.2818  0.6132
12743SOL    HW241507   4.519   8.033  10.766  0.4323 -0.3238  0.8926
12744SOL     OW41508   6.411   3.589   5.146 -0.0940 -0.1967 -0.1945
12744SOL    HW141509   6.334   3.598   5.090 -0.5931  0.8692  0.6364
12744SOL    HW241510   6.480   3.557   5.087 -0.7055  0.5123 -1.3271
12745SOL     OW41511   3.510   4.235   3.407 -0.1753 -0.4318 -0.6227
12745SOL    HW141512   3.512   4.314   3.461 -1.2631 -1.1775  0.6039
12745SOL    HW241513   3.567   4.254   3.333  1.7648  0.4999  1.0158
12746SOL     OW41514   0.300   5.901   5.626  0.0338  0.3738 -0.3674
12746SOL    HW141515   0.384   5.895   5.672  0.3269 -0.1030 -0.9585
12746SOL    HW241516   0.258   5.816   5.641 -0.2858  0.5597 -0.1923
12747SOL     OW41517   4.572   4.128  10.683 -0.0684 -0.0791  0.6457
12747SOL    HW141518   4.481   4.157  10.688  0.1654  0.6942  0.5400
12747SOL    HW241519   4.584   4.103  10.591 -0.6070 -1.6886  0.9798
12748SOL     OW41520   7.599  10.909   9.934 -0.2245  0.2404  0.0692
12748SOL    HW141521   7.532  10.907  10.002 -1.9943 -1.8330 -1.5792
12748SOL    HW241522   7.639  10.822   9.937  1.9449  1.2080  0.5374
12749SOL     OW41523   6.989   1.877   4.360  0.3058  0.0647 -0.2467
12749SOL    HW141524   6.967   1.924   4.441  0.2802 -2.1172  1.0771
12749SOL    HW241525   6.905   1.847   4.326  0.0045  3.0331 -2.5473
12750SOL     OW41526   9.739   9.484   9.539 -0.3450 -0.2187  1.3138
12750SOL    HW141527   9.764   9.486   9.631  1.2116  0.0523  0.9076
12750SOL    HW241528   9.805   9.430   9.497 -0.6973  0.1469  0.2482
12751SOL     OW41529   3.818   4.622   8.847 -0.1706 -0.2172  0.3433
12751SOL    HW141530   3.774   4.678   8.783  0.2066 -0.5727 -0.2412
12751SOL    HW241531   3.858   4.683   8.909  2.0389  0.3013 -1.4491
12752SOL     OW41532   8.837   2.019   9.287  0.0337  0.1325  0.0305
12752SOL    HW141533   8.811   2.100   9.331 -0.3805 -0.0039  0.0438
12752SOL    HW241534   8.789   1.950   9.334  1.2644 -0.2562  0.7771
12753SOL     OW41535   9.910   5.177   9.275  0.2035  0.0849 -0.3818
12753SOL    HW141536   9.893   5.162   9.182 -1.1073 -0.4271 -0.0862
12753SOL    HW241537   9.901   5.271   9.287 -0.0893  0.0988 -0.6976
12754SOL     OW41538   4.166   4.186   5.522 -0.6347 -0.1949  0.4796
12754SOL    HW141539   4.185   4.104   5.475  0.1812  0.7576 -0.9620
12754SOL    HW241540   4.240   4.196   5.583 -0.9450 -0.7224  0.9482
12755SOL     OW41541   0.476   7.219  10.175  0.3014 -0.1866  0.7902
12755SOL    HW141542   0.431   7.172  10.104  0.6056  1.0333 -0.2489
12755SOL    HW241543   0.560   7.245  10.137  0.3706  0.7064  1.5168
12756SOL     OW41544   8.936   8.509  10.931  0.1172  0.0060 -0.4862
12756SOL    HW141545   9.009   8.571  10.929  0.2687 -0.1651 -0.3166
12756SOL    HW241546   8.891   8.523  10.848 -0.0553  0.5840 -0.3021
12757SOL     OW41547   4.661   8.143   0.856 -0.1602 -0.6348  0.3903
12757SOL    HW141548   4.642   8.194   0.777  0.5021 -0.0959  0.5693
12757SOL    HW241549   4.647   8.205   0.928  0.7046 -0.6895  0.6098
12758SOL     OW41550   6.283   2.231  11.048 -0.5849  0.3258 -0.1681
12758SOL    HW141551   6.319   2.202  10.964 -0.4416  0.0905 -0.0234
12758SOL    HW241552   6.189   2.214  11.041 -0.4412 -0.6223  0.1006
12759SOL     OW41553   1.176   0.101   9.654 -0.8539  0.2156 -0.2509
12759SOL    HW141554   1.218   0.117   9.569 -1.1415 -0.4956 -0.5376
12759SOL    HW241555   1.105   0.040   9.634 -1.0018  0.1392  0.4862
12760SOL     OW41556   0.600   2.418   0.652 -0.3078 -0.2424  0.4940
12760SOL    HW141557   0.614   2.324   0.667 -0.8723 -0.8641 -2.2242
12760SOL    HW241558   0.661   2.440   0.582 -1.2291  1.0451  0.0596
12761SOL     OW41559   4.655   5.178   3.912 -0.1844 -0.3142  0.1608
12761SOL    HW141560   4.685   5.125   3.837 -0.4140 -0.6050  0.2739
12761SOL    HW241561   4.734   5.222   3.942  0.2895 -1.6141  0.8867
12762SOL     OW41562   1.313   6.720   5.318  0.3657  0.2084  0.3482
12762SOL    HW141563   1.364   6.711   5.238  0.9145 -0.4243  0.7565
12762SOL    HW241564   1.376   6.750   5.383  0.8225 -2.7818  1.4416
12763SOL     OW41565   3.322   3.833   5.072  0.0508 -0.1364 -0.6087
12763SOL    HW141566   3.393   3.842   5.008 -1.0361 -0.5587 -1.9326
12763SOL    HW241567   3.294   3.741   5.064  0.4351 -0.4441  1.1146
12764SOL     OW41568   9.947   3.576   5.090  0.0056 -0.2675  0.0656
12764SOL    HW141569   9.976   3.506   5.032 -0.0425  0.0675 -0.3694
12764SOL    HW241570   9.910   3.531   5.166  0.8336 -0.6996  0.2149
12765SOL     OW41571   7.415   3.375   6.968  0.1119 -0.0742  0.8387
12765SOL    HW141572   7.452   3.399   6.883  1.6002 -0.0202  1.4841
12765SOL    HW241573   7.388   3.284   6.957 -0.0730  0.0476  0.1979
12766SOL     OW41574   8.910   2.363   9.933  0.7399  0.1909  0.2640
12766SOL    HW141575   8.922   2.442   9.880 -0.3877  0.1627 -0.0455
12766SOL    HW241576   8.941   2.292   9.876  0.3176  0.2472 -0.0373
12767SOL     OW41577   8.891   8.008   0.567  0.2627  0.3441 -0.0583
12767SOL    HW141578   8.879   8.048   0.653  1.0350  0.5728 -0.0556
12767SOL    HW241579   8.875   7.914   0.582  0.7280  0.3334  0.4090
12768SOL     OW41580   9.839   8.615  11.051  0.1381  0.6371  0.4168
12768SOL    HW141581   9.836   8.676  10.977 -0.4175  0.3581  0.2018
12768SOL    HW241582   9.911   8.647  11.105  0.0565  1.2980  0.1483
12769SOL     OW41583   3.197   0.121  10.225 -0.4156 -0.1560  0.3025
12769SOL    HW141584   3.212   0.026  10.221 -0.7186 -0.2151  0.5702
12769SOL    HW241585   3.112   0.131  10.266 -1.2414  0.1850 -1.4126
12770SOL     OW41586   1.889   0.335   8.002 -0.2255 -0.3021  0.2914
12770SOL    HW141587   1.938   0.264   8.044 -0.4044 -1.0517 -0.7111
12770SOL    HW241588   1.956   0.395   7.970 -0.0979  0.6884  2.2423
12771SOL     OW41589   8.774   5.480   8.890 -0.0031 -0.0143 -0.2003
12771SOL    HW141590   8.734   5.484   8.804 -1.8101  0.9966  0.6351
12771SOL    HW241591   8.718   5.420   8.940  0.2255  0.4601  0.6508
12772SOL     OW41592   7.830   6.847   6.677  0.0273 -0.1074  0.0600
12772SOL    HW141593   7.906   6.873   6.729 -0.5745  0.1699  0.8281
12772SOL    HW241594   7.761   6.909   6.703 -0.6793 -0.8241 -0.0462
12773SOL     OW41595  10.895   9.682   8.956  0.5148 -0.5577 -0.2066
12773SOL    HW141596  10.830   9.744   8.922  1.0844 -0.6707 -1.5800
12773SOL    HW241597  10.894   9.609   8.893  1.8996 -0.6044 -0.2165
12774SOL     OW41598   0.763   9.149   1.962 -0.3864  0.5314  0.0500
12774SOL    HW141599   0.783   9.159   1.869  1.2000 -1.4695  0.0974
12774SOL    HW241600   0.684   9.095   1.963  0.4807 -0.8084 -0.2022
12775SOL     OW41601   8.118  10.809  10.955 -0.2237  0.0164  0.7530
12775SOL    HW141602   8.130  10.834  10.863  0.9429 -0.4099  0.7783
12775SOL    HW241603   8.206  10.792  10.987 -0.3848  2.3179  2.5986
12776SOL     OW41604   7.890   7.249   3.230  0.4482  0.4834 -0.2287
12776SOL    HW141605   7.889   7.306   3.306 -4.2870 -0.1195  0.4882
12776SOL    HW241606   7.889   7.309   3.155 -2.0455  1.4313  0.4584
12777SOL     OW41607   6.465  11.329   6.215 -0.2024  0.8613  0.0686
12777SOL    HW141608   6.444  11.399   6.154 -0.4931 -0.4108 -1.3524
12777SOL    HW241609   6.488  11.254   6.159 -0.3287 -0.3124  1.5151
12778SOL     OW41610   6.708   8.847   6.966  0.3452  0.2342 -0.8745
12778SOL    HW141611   6.636   8.799   7.008 -0.5077  0.2983 -2.2233
12778SOL    HW241612   6.703   8.935   7.003  0.6532 -0.1387  0.1024
12779SOL     OW41613   7.340  10.130   4.602  0.1124 -0.3036 -0.2097
12779SOL    HW141614   7.359  10.045   4.643 -0.5801 -0.9365 -1.1407
12779SOL    HW241615   7.246  10.126   4.583  0.5090 -0.2892 -2.3488
12780SOL     OW41616   6.912   9.405   6.062 -0.4894 -0.2707 -0.0408
12780SOL    HW141617   6.897   9.381   5.971  1.8423 -2.2218 -0.0039
12780SOL    HW241618   6.839   9.366   6.110  0.6668 -3.4185 -0.5966
12781SOL     OW41619   4.452   7.065   7.956  0.2163  0.0238  0.3153
12781SOL    HW141620   4.467   7.090   8.047  0.8568 -0.0174  0.2234
12781SOL    HW241621   4.520   7.109   7.907 -1.1843  1.5069 -0.3981
12782SOL     OW41622   1.050   8.935   1.860  0.1081 -0.4671 -0.2594
12782SOL    HW141623   1.093   9.008   1.905 -0.5883 -0.0547 -0.2474
12782SOL    HW241624   1.015   8.974   1.779 -0.7760 -0.6410  0.0238
12783SOL     OW41625   2.530   1.193   3.009  0.1141 -0.4637 -0.1997
12783SOL    HW141626   2.622   1.176   3.028  0.4017  0.5683 -0.5822
12783SOL    HW241627   2.523   1.289   3.011 -0.7003 -0.4835 -1.3157
12784SOL     OW41628   0.971   2.743   0.730 -0.0628 -0.3379  0.0922
12784SOL    HW141629   0.879   2.739   0.754 -0.0389  1.8403  0.7196
12784SOL    HW241630   0.987   2.835   0.710  1.8448 -0.7709 -0.5995
12785SOL     OW41631   3.314   2.825   5.803 -0.6206  0.2691  0.1643
12785SOL    HW141632   3.262   2.744   5.804 -0.7598  0.3643  0.7243
12785SOL    HW241633   3.402   2.796   5.828 -0.2188 -0.0046 -1.4410
12786SOL     OW41634   8.635   6.149   0.827  0.0392 -0.0885 -0.1382
12786SOL    HW141635   8.541   6.147   0.846  0.0554 -1.7776 -0.0293
12786SOL    HW241636   8.645   6.092   0.751  0.6832  2.1419 -1.7952
12787SOL     OW41637   2.765   4.183   0.474  0.2306 -0.0755  0.1708
12787SOL    HW141638   2.698   4.198   0.408  1.9446  0.0962 -1.6472
12787SOL    HW241639   2.748   4.094   0.506 -1.4114  0.3316  0.4640
12788SOL     OW41640   6.945   4.801   6.345 -0.1876 -0.0753 -0.2087
12788SOL    HW141641   6.910   4.890   6.343 -1.3650 -0.4746  0.8664
12788SOL    HW241642   6.992   4.796   6.429 -1.5982 -0.9565  0.5610
12789SOL     OW41643   8.606   2.918   5.869 -0.2379 -0.5014 -0.6185
12789SOL    HW141644   8.650   2.847   5.916  0.6276  1.0394  1.0269
12789SOL    HW241645   8.671   2.988   5.865 -1.0843  0.2492 -2.1299
12790SOL     OW41646   5.889   0.000   4.871 -1.0244  0.1487  0.3488
12790SOL    HW141647   5.840  -0.054   4.809 -1.3291 -0.5573  1.1887
12790SOL    HW241648   5.965   0.030   4.821 -1.2584 -0.4172 -0.3641
12791SOL     OW41649   1.179   1.259   9.764  0.1742 -0.1833  0.0608
12791SOL    HW141650   1.088   1.254   9.794 -0.7214 -0.5097 -2.4911
12791SOL    HW241651   1.192   1.352   9.743  0.1176 -0.2798 -0.4174
12792SOL     OW41652   6.098   2.682  10.259 -0.2878  0.6504 -0.5386
12792SOL    HW141653   6.168   2.631  10.218  0.9030  0.1911  1.8571
12792SOL    HW241654   6.032   2.617  10.282 -0.8955  0.8905 -1.5209
12793SOL     OW41655   6.495   7.931   9.980  0.2792 -0.2810 -0.1391
12793SOL    HW141656   6.405   7.958  10.000 -0.0604 -1.1870 -0.4032
12793SOL    HW241657   6.508   7.852  10.032  0.8406 -0.3022 -0.3061
12794SOL     OW41658   6.905  10.967   6.576 -0.3663 -0.1316 -0.0685
12794SOL    HW141659   6.832  10.933   6.628 -0.7081 -0.5464 -0.8081
12794SOL    HW241660   6.917  10.903   6.507 -1.3222  1.4262 -1.7693
12795SOL     OW41661   9.123   3.811   9.620  0.4483 -0.0841 -0.2585
12795SOL    HW141662   9.164   3.854   9.545 -2.9871 -0.9834 -2.9339
12795SOL    HW241663   9.103   3.882   9.681  0.3399  1.1979 -1.7475
12796SOL     OW41664   8.522  10.300   4.776 -0.0043 -0.6328 -0.5288
12796SOL    HW141665   8.468  10.221   4.783 -1.2633  0.2132 -0.4027
12796SOL    HW241666   8.584  10.293   4.848 -0.4475 -1.2662 -0.1974
12797SOL     OW41667   1.472  11.063   0.383  0.2738 -0.4002  0.0866
12797SOL    HW141668   1.501  10.996   0.322 -0.6353 -0.7281  0.0098
12797SOL    HW241669   1.407  11.114   0.335 -0.7422 -0.9030  0.8934
12798SOL     OW41670  10.148   0.418   8.692  0.1031 -0.3438 -0.0146
12798SOL    HW141671  10.203   0.366   8.751  1.3458 -1.1373 -1.7723
12798SOL    HW241672  10.210   0.476   8.648 -0.5537 -0.7453 -1.5302
12799SOL     OW41673   7.679   2.436   0.367  0.0160 -0.0766 -0.1672
12799SOL    HW141674   7.619   2.498   0.327 -0.5520 -0.7245 -0.3346
12799SOL    HW241675   7.627   2.356   0.378  0.7769 -0.5672 -0.0905
12800SOL     OW41676   8.069   3.639   5.726 -0.2641 -0.2960  0.0357
12800SOL    HW141677   8.055   3.545   5.712  0.2240 -0.3141 -0.3458
12800SOL    HW241678   8.033   3.656   5.813  0.3135 -0.9864  0.4178
12801SOL     OW41679   1.329   3.309   1.497  0.2655  0.5057 -0.0296
12801SOL    HW141680   1.242   3.349   1.489  1.1770  2.3253 -2.0229
12801SOL    HW241681   1.329   3.239   1.433  0.2305  0.4460  0.0361
12802SOL     OW41682   9.279   2.023   7.688 -0.3590  0.0935  0.3576
12802SOL    HW141683   9.242   2.085   7.625  0.4493  0.5000  0.2665
12802SOL    HW241684   9.276   2.070   7.771  0.5760  0.3920  0.2261
12803SOL     OW41685   5.455   2.086   5.651 -0.3221  0.1954 -0.0984
12803SOL    HW141686   5.431   2.178   5.645 -0.5409  0.0493 -2.9448
12803SOL    HW241687   5.387   2.047   5.706 -2.1800  1.1974 -1.5447
12804SOL     OW41688   5.580   5.289   7.082 -0.0408 -0.2459  0.2515
12804SOL    HW141689   5.576   5.239   7.164  2.2715 -2.6356 -0.9099
12804SOL    HW241690   5.536   5.233   7.018 -0.7172  0.9947 -0.3897
12805SOL     OW41691   9.882   4.623   1.778  0.3023  0.6549  0.4806
12805SOL    HW141692   9.825   4.592   1.849 -0.4131 -2.1407 -1.1605
12805SOL    HW241693   9.953   4.559   1.775  0.5202  0.9397 -1.0476
12806SOL     OW41694   2.476   1.061   6.977  0.5332 -0.2743  0.0421
12806SOL    HW141695   2.436   1.121   7.040 -1.3357 -1.9493  0.5555
12806SOL    HW241696   2.560   1.038   7.016 -0.1874 -0.5544  1.4884
12807SOL     OW41697   6.167   0.707   5.288 -0.0925 -0.0178 -0.1869
12807SOL    HW141698   6.130   0.619   5.286  1.9025 -0.9145 -1.1444
12807SOL    HW241699   6.166   0.735   5.197  2.1190 -0.3942 -0.3906
12808SOL     OW41700   8.869   2.832   4.854  0.5414  0.3045  0.3007
12808SOL    HW141701   8.959   2.828   4.821  0.6778  0.1463  0.6859
12808SOL    HW241702   8.829   2.752   4.820  0.5962  0.2884  0.2729
12809SOL     OW41703   3.898   7.487   3.782 -0.3096 -0.5594  0.0306
12809SOL    HW141704   3.870   7.578   3.776 -1.4167 -0.9045 -0.2452
12809SOL    HW241705   3.884   7.463   3.873 -1.4930 -0.8876 -0.2136
12810SOL     OW41706   6.542  11.090   8.194 -0.3957 -0.0043  0.2851
12810SOL    HW141707   6.601  11.117   8.264 -1.4972  0.4135  1.0758
12810SOL    HW241708   6.561  11.150   8.122 -0.4859  0.7284  0.8609
12811SOL     OW41709   1.240   9.494   0.067  0.1638 -0.5682  0.6194
12811SOL    HW141710   1.163   9.451   0.104 -0.9019  2.0520  1.6927
12811SOL    HW241711   1.311   9.431   0.081 -1.4824 -2.5079  0.8207
12812SOL     OW41712   2.187   3.043   0.029 -0.3262 -0.1954 -0.4959
12812SOL    HW141713   2.275   3.026   0.063 -0.3240  0.1522 -0.3272
12812SOL    HW241714   2.130   2.984   0.079 -0.3600  0.4999  0.3037
12813SOL     OW41715   7.359   9.229  10.896  0.1393 -0.2086 -0.5320
12813SOL    HW141716   7.374   9.268  10.810  0.5853 -1.2022 -0.9250
12813SOL    HW241717   7.290   9.283  10.935  0.1407  0.4402 -1.3875
12814SOL     OW41718   1.952   8.137   4.936 -0.1153 -0.9002  0.2998
12814SOL    HW141719   2.032   8.190   4.931 -0.1846 -0.7355  0.8872
12814SOL    HW241720   1.983   8.047   4.924 -0.0028 -0.7389 -0.7413
12815SOL     OW41721   3.630   2.078  10.263  0.4887 -0.4606  0.3174
12815SOL    HW141722   3.725   2.084  10.257  0.4498 -0.0199  0.0649
12815SOL    HW241723   3.598   2.156  10.217  0.0056 -0.6322  0.3533
12816SOL     OW41724  10.311   8.486   9.984 -0.3027  0.1545  0.2649
12816SOL    HW141725  10.248   8.548  10.021  0.5410  1.0662  0.2377
12816SOL    HW241726  10.279   8.400  10.010 -3.3620  0.2946 -2.4797
12817SOL     OW41727   5.166   3.615   3.966  0.4556  0.2542 -0.0721
12817SOL    HW141728   5.073   3.617   3.988  0.5002 -0.1698  0.1482
12817SOL    HW241729   5.178   3.535   3.916  0.7441  0.2074  0.0724
12818SOL     OW41730   3.350   0.697   1.255  0.2463  0.0936  0.3521
12818SOL    HW141731   3.335   0.623   1.196 -1.2738  0.2433  0.5080
12818SOL    HW241732   3.351   0.658   1.343 -1.3517  0.3357  0.4940
12819SOL     OW41733   4.162   9.399   8.065 -0.7681 -0.5021  0.5631
12819SOL    HW141734   4.233   9.375   8.124  0.1347  2.4600  0.8342
12819SOL    HW241735   4.134   9.486   8.095 -2.9639 -0.5864 -0.9807
12820SOL     OW41736   5.500   9.437  10.165 -0.2540 -0.0049 -0.1573
12820SOL    HW141737   5.572   9.470  10.219 -0.2882  0.2756 -0.2813
12820SOL    HW241738   5.484   9.507  10.102 -0.8956  0.0901  0.1072
12821SOL     OW41739   9.501   9.228   1.114  0.1424  0.3063 -0.4373
12821SOL    HW141740   9.530   9.319   1.107 -2.5066  1.5211  1.7909
12821SOL    HW241741   9.543   9.196   1.194  0.3401 -0.0942 -0.7037
12822SOL     OW41742   0.810   1.624   1.516 -0.3011  0.1620 -0.6797
12822SOL    HW141743   0.876   1.572   1.562 -0.7085 -0.5767 -0.9002
12822SOL    HW241744   0.755   1.558   1.472 -1.3594  0.7351 -0.2631
12823SOL     OW41745   3.611   9.378   1.418 -0.2687 -0.0827  0.0836
12823SOL    HW141746   3.559   9.403   1.342 -0.8687  0.2635  0.5982
12823SOL    HW241747   3.593   9.284   1.429  1.9310 -0.8199 -1.8073
12824SOL     OW41748  10.666   2.650   5.637 -0.7387 -0.2251 -0.0443
12824SOL    HW141749  10.697   2.673   5.725 -1.9035 -1.3827  0.7107
12824SOL    HW241750  10.734   2.592   5.602 -0.3929  0.0315  0.2024
12825SOL     OW41751   5.262   1.654   7.366 -0.4127  0.1532 -0.0114
12825SOL    HW141752   5.249   1.564   7.395  0.9394  0.1506  0.7051
12825SOL    HW241753   5.230   1.708   7.438  1.9434  0.1582  1.1435
12826SOL     OW41754   3.319   3.571   2.439 -0.2926  0.0113 -0.3873
12826SOL    HW141755   3.345   3.489   2.397 -2.5836 -0.6940 -0.5652
12826SOL    HW241756   3.396   3.598   2.489  1.7479 -0.3705 -3.0862
12827SOL     OW41757   0.945   2.969  10.619  0.0278  0.9728 -0.2042
12827SOL    HW141758   0.855   2.960  10.648  0.1513  1.7798  0.4613
12827SOL    HW241759   0.961   2.892  10.564 -1.3349  1.2594 -1.0473
12828SOL     OW41760   2.062   0.289   1.727 -0.0073 -0.0829  0.4877
12828SOL    HW141761   2.035   0.348   1.797  0.6838  0.2159  0.5153
12828SOL    HW241762   2.145   0.252   1.757  0.5606  0.4285 -0.3675
12829SOL     OW41763  10.304   4.832   2.993  0.1348 -0.1433  0.1895
12829SOL    HW141764  10.246   4.756   2.998  0.0442 -0.0695  0.2637
12829SOL    HW241765  10.390   4.796   2.970  0.2499 -0.3418  0.9073
12830SOL     OW41766   0.222   2.398   9.470 -0.3505 -0.2504 -0.3910
12830SOL    HW141767   0.251   2.318   9.427 -2.5342 -1.4377  0.1958
12830SOL    HW241768   0.158   2.436   9.409  1.3991  1.6754 -1.1443
12831SOL     OW41769  11.074   5.108   3.874  0.0610 -0.1661  0.0862
12831SOL    HW141770  11.049   5.090   3.783  1.2838 -0.1551 -0.2652
12831SOL    HW241771  11.101   5.022   3.908 -0.6655 -0.2267  0.5484
12832SOL     OW41772   1.027   9.646   0.540  0.0454  0.1256 -0.1714
12832SOL    HW141773   0.958   9.607   0.485 -0.3252 -0.4314  0.6717
12832SOL    HW241774   0.985   9.722   0.581 -0.3026 -0.6336  0.9086
12833SOL     OW41775   2.170  10.506   4.155  0.5820  0.6716 -0.2322
12833SOL    HW141776   2.144  10.598   4.144 -1.7112  0.1499  0.2453
12833SOL    HW241777   2.199  10.479   4.069 -1.4447  1.1227 -1.1250
12834SOL     OW41778   9.266  10.332   7.464 -0.8318 -0.0498  0.2705
12834SOL    HW141779   9.349  10.326   7.417 -0.9461 -1.1829  0.1755
12834SOL    HW241780   9.246  10.425   7.468  0.0019  0.1658 -0.4823
12835SOL     OW41781   9.474   9.647   8.173  0.2464  0.0496 -0.1318
12835SOL    HW141782   9.524   9.659   8.093  2.1282 -0.2674  0.9413
12835SOL    HW241783   9.529   9.590   8.228 -2.0572 -1.8038  0.4504
12836SOL     OW41784   0.180   9.638   4.878  0.2447  0.2587 -0.0338
12836SOL    HW141785   0.122   9.571   4.841 -0.0106 -0.9775  2.4144
12836SOL    HW241786   0.133   9.720   4.865 -0.7896 -0.3865 -0.5456
12837SOL     OW41787   7.021   3.750   4.415 -0.0827 -0.2058  0.1129
12837SOL    HW141788   7.097   3.736   4.472  0.5257  1.9407 -0.0882
12837SOL    HW241789   6.977   3.665   4.414  0.7481 -0.7696  2.5047
12838SOL     OW41790   0.189  10.174  11.248  0.3555 -0.1902 -0.0427
12838SOL    HW141791   0.265  10.117  11.247  0.3301 -0.3060  1.9555
12838SOL    HW241792   0.171  10.190  11.340 -1.3044  0.8356 -0.4919
12839SOL     OW41793   1.696   2.357   1.164 -0.6683 -0.3971  0.1290
12839SOL    HW141794   1.648   2.437   1.186 -1.9636 -1.0763 -0.1092
12839SOL    HW241795   1.750   2.338   1.241 -0.7531  0.4039  0.3907
12840SOL     OW41796   8.064   2.760   6.654  0.1076  0.3859  0.2160
12840SOL    HW141797   8.012   2.689   6.690  1.1355  0.3244  1.6757
12840SOL    HW241798   8.152   2.745   6.688  0.5962  1.7245 -0.3791
12841SOL     OW41799  11.259  11.123   0.926  0.3535 -0.2952  0.4837
12841SOL    HW141800  11.204  11.104   1.002 -0.2871 -0.8263 -0.0871
12841SOL    HW241801  11.252  11.044   0.872  0.6640  0.1368 -0.2007
12842SOL     OW41802   6.387   1.774   9.565 -0.7373  0.0507  0.3063
12842SOL    HW141803   6.417   1.698   9.516  1.3858  1.3192 -0.5138
12842SOL    HW241804   6.308   1.803   9.519 -0.5929 -0.6694 -0.4116
12843SOL     OW41805  10.815   8.756  10.264 -0.1087 -0.3036 -0.2039
12843SOL    HW141806  10.874   8.730  10.194  1.8376  0.1029  1.2117
12843SOL    HW241807  10.799   8.676  10.313 -1.1682 -0.5126 -0.8633
12844SOL     OW41808   1.423   6.340   2.148  0.1116  0.3035 -0.2638
12844SOL    HW141809   1.510   6.337   2.187  0.8268 -0.5965 -1.8146
12844SOL    HW241810   1.422   6.267   2.085 -2.1779 -0.4576  0.5363
12845SOL     OW41811   4.721   1.048  10.068 -0.4605  0.0952  0.1654
12845SOL    HW141812   4.703   1.058  10.161 -0.8878  0.2420  0.0669
12845SOL    HW241813   4.752   0.957  10.060 -2.0199 -0.4688  0.2094
12846SOL     OW41814   0.267   2.306   3.229  0.1059 -0.0121 -0.4115
12846SOL    HW141815   0.251   2.213   3.245  0.9395 -0.3123 -1.2089
12846SOL    HW241816   0.199   2.351   3.279  1.2404 -0.9329  2.0952
12847SOL     OW41817   2.261   0.499   5.428 -0.3420 -0.1450  0.2545
12847SOL    HW141818   2.274   0.506   5.333 -0.0267  3.9321  0.4248
12847SOL    HW241819   2.349   0.508   5.465 -0.7300  1.0820  0.9321
12848SOL     OW41820   3.433   3.802   9.761 -0.2309 -0.3309  0.0829
12848SOL    HW141821   3.358   3.816   9.818 -0.2190  0.3872 -0.0634
12848SOL    HW241822   3.411   3.851   9.681  0.1935 -0.4869 -0.1293
12849SOL     OW41823   5.670   5.105   4.220  0.3163  0.7821  0.5715
12849SOL    HW141824   5.656   5.196   4.195 -2.9028  0.5352  1.1652
12849SOL    HW241825   5.648   5.054   4.142  0.7047  0.4304  0.6822
12850SOL     OW41826   4.165   0.654   3.438  0.1245 -0.1371  0.2489
12850SOL    HW141827   4.084   0.661   3.388 -1.5414  3.2645  2.9741
12850SOL    HW241828   4.218   0.728   3.408  0.9278 -0.5556  0.5962
12851SOL     OW41829   2.509   5.809   2.306 -1.1597  0.0058 -0.3331
12851SOL    HW141830   2.599   5.807   2.339 -0.7660  0.9127 -1.3120
12851SOL    HW241831   2.504   5.735   2.246 -1.2423 -0.3624  0.1154
12852SOL     OW41832  10.544   6.889   4.532 -0.4048  0.4188  0.0498
12852SOL    HW141833  10.460   6.844   4.526  0.9400 -2.6045  1.6095
12852SOL    HW241834  10.587   6.871   4.449 -1.5516  2.8664 -1.1963
12853SOL     OW41835   3.311   9.952  10.583  0.3811 -0.2747  0.6994
12853SOL    HW141836   3.220   9.961  10.613  0.3229  0.9150  0.2124
12853SOL    HW241837   3.310   9.874  10.528 -0.5731  0.2668 -0.0787
12854SOL     OW41838   2.127   1.254   4.079 -0.2024 -0.1287  0.4207
12854SOL    HW141839   2.097   1.257   4.170  1.6589 -0.0225  1.0884
12854SOL    HW241840   2.052   1.283   4.027 -0.5201  2.4100  2.1306
12855SOL     OW41841   4.413   1.674   8.336 -0.0154  0.2454 -0.2115
12855SOL    HW141842   4.488   1.675   8.277  0.7317  1.5042  0.7034
12855SOL    HW241843   4.446   1.630   8.415  0.1721  1.8403  0.6455
12856SOL     OW41844   9.420   2.518  10.457 -0.0535  0.1598 -0.7602
12856SOL    HW141845   9.414   2.524  10.362 -0.6851 -0.3750 -0.7547
12856SOL    HW241846   9.396   2.606  10.488 -0.4351  0.1650 -1.0690
12857SOL     OW41847   6.180   6.845   3.700  0.0517  0.3387 -0.1032
12857SOL    HW141848   6.142   6.901   3.632 -1.8756  1.1325  1.5020
12857SOL    HW241849   6.274   6.852   3.687 -0.2298  1.3915 -1.9523
12858SOL     OW41850   9.963   9.199   2.736  0.0986 -0.1365 -0.2597
12858SOL    HW141851   9.872   9.218   2.761  0.1941 -1.1393  0.9506
12858SOL    HW241852   9.997   9.283   2.705 -1.2911  0.2208 -0.9153
12859SOL     OW41853   8.625  11.002   6.495 -0.0339 -0.0770 -0.5920
12859SOL    HW141854   8.573  10.997   6.575  1.2330  0.1601  0.2782
12859SOL    HW241855   8.707  10.958   6.517  1.7274  2.9450 -0.5896
12860SOL     OW41856   7.033   6.204   4.474  0.2646  0.4311  0.5622
12860SOL    HW141857   7.026   6.183   4.567 -0.0824  0.2516  0.4951
12860SOL    HW241858   6.993   6.130   4.429  1.8980 -0.2619  0.1910
12861SOL     OW41859   1.635   8.065   2.264 -0.0985  0.0865 -0.4987
12861SOL    HW141860   1.539   8.063   2.270 -0.0812 -1.3583 -0.1953
12861SOL    HW241861   1.653   8.056   2.170 -0.2844 -1.7690 -0.3994
12862SOL     OW41862   0.462   8.145   3.084 -0.3727  0.0965  0.3729
12862SOL    HW141863   0.402   8.215   3.059 -1.8077 -1.5276 -0.9899
12862SOL    HW241864   0.461   8.145   3.180 -0.8499  1.4981  0.3862
12863SOL     OW41865   1.513   6.701   7.758 -0.1899 -0.0026  0.2703
12863SOL    HW141866   1.511   6.656   7.674 -0.3904  0.9930 -0.2729
12863SOL    HW241867   1.474   6.786   7.741  1.3891  0.8997  0.9625
12864SOL     OW41868   8.536   0.882   2.173 -0.2791 -0.1252  0.3248
12864SOL    HW141869   8.621   0.897   2.132 -0.1481 -0.7857  0.3433
12864SOL    HW241870   8.510   0.795   2.145 -0.0203 -0.7496  1.8919
12865SOL     OW41871   8.111   8.015   4.580  0.1316 -0.5116 -0.0214
12865SOL    HW141872   8.021   8.009   4.611 -0.0280 -1.0549 -0.5617
12865SOL    HW241873   8.136   8.106   4.594 -0.6166 -0.2790 -0.1717
12866SOL     OW41874   5.575   1.190   2.925  0.5016 -0.1955 -0.3885
12866SOL    HW141875   5.483   1.173   2.946  0.1795  0.2952 -1.3784
12866SOL    HW241876   5.623   1.152   2.999 -0.3337 -2.8503 -1.1034
12867SOL     OW41877   9.820   9.253   6.149 -0.3278  0.1576  0.1393
12867SOL    HW141878   9.750   9.316   6.167  0.4693  0.6389  1.7873
12867SOL    HW241879   9.881   9.300   6.092 -0.8336  0.0978 -0.4505
12868SOL     OW41880   2.027   6.137   6.532  0.2067  0.0636 -0.5837
12868SOL    HW141881   1.935   6.134   6.506  0.0070 -0.6406  0.1854
12868SOL    HW241882   2.063   6.054   6.502  0.0468 -0.6272  1.0809
12869SOL     OW41883   0.138   7.343   8.629  0.4914 -0.1588 -0.0498
12869SOL    HW141884   0.135   7.273   8.563 -1.7144 -0.9426  0.8164
12869SOL    HW241885   0.139   7.297   8.713 -0.6597  0.8372  0.5301
12870SOL     OW41886   3.123   8.830   6.211  0.1156 -0.1484 -0.1624
12870SOL    HW141887   3.166   8.771   6.149 -0.6100 -0.5732 -0.2775
12870SOL    HW241888   3.100   8.907   6.160 -0.3532 -0.4376 -0.3960
12871SOL     OW41889   0.509   2.584   2.586 -0.4080  0.8539  0.2792
12871SOL    HW141890   0.542   2.657   2.535 -0.6493  0.3482 -0.6321
12871SOL    HW241891   0.421   2.610   2.611 -0.0653  1.3601  0.9742
12872SOL     OW41892  11.042   5.915   6.950 -0.4324 -0.2318  0.4693
12872SOL    HW141893  10.967   5.858   6.967 -1.7564  0.8222 -1.4060
12872SOL    HW241894  11.034   5.985   7.015 -1.8953  0.5718 -0.5218
12873SOL     OW41895   0.849  10.284   7.749  0.3685 -0.1486  0.3241
12873SOL    HW141896   0.772  10.340   7.762  0.2847 -0.3141  0.5444
12873SOL    HW241897   0.909  10.309   7.820 -0.0761 -1.0344  1.0203
12874SOL     OW41898   5.107   6.592  10.344 -0.3070 -0.0852  0.4237
12874SOL    HW141899   5.177   6.638  10.298  0.2277  0.3408  1.6112
12874SOL    HW241900   5.141   6.580  10.433 -0.6040 -2.3983  0.2999
12875SOL     OW41901   7.109  10.551  10.768 -0.4138  0.1135  0.1409
12875SOL    HW141902   7.162  10.591  10.699 -1.3098  3.1416  1.0656
12875SOL    HW241903   7.172  10.519  10.832  0.3679  0.5970 -0.3700
12876SOL     OW41904   2.471   0.325   1.219  0.3059 -0.2314  0.1223
12876SOL    HW141905   2.385   0.286   1.203  0.8037 -0.5583 -2.1603
12876SOL    HW241906   2.528   0.252   1.241  0.1484 -0.1023  0.9704
12877SOL     OW41907   9.626   0.525   4.079  0.3290 -0.4911  0.1931
12877SOL    HW141908   9.644   0.432   4.070 -1.1724 -0.7196 -0.7806
12877SOL    HW241909   9.532   0.530   4.094 -0.0237  0.9649 -2.0257
12878SOL     OW41910   3.855   4.209   4.963 -0.1791  0.1297 -0.1094
12878SOL    HW141911   3.845   4.178   5.053 -0.6521 -0.7012 -0.4440
12878SOL    HW241912   3.797   4.284   4.957  0.1971  0.4727  0.4040
12879SOL     OW41913   8.259   8.237   2.068 -0.0239  0.4281  0.4356
12879SOL    HW141914   8.346   8.271   2.043 -0.3533 -0.2649 -1.9089
12879SOL    HW241915   8.201   8.313   2.062  0.2089  0.6378  0.8163
12880SOL     OW41916   5.377   0.108   8.771 -0.0316 -0.0869 -0.2232
12880SOL    HW141917   5.429   0.128   8.849 -0.0487  1.2679 -0.5335
12880SOL    HW241918   5.325   0.187   8.755 -0.4145 -0.5305 -1.3037
12881SOL     OW41919   1.200   7.946   3.955  0.1186  0.0564  0.2384
12881SOL    HW141920   1.240   7.942   3.868 -1.4462  0.8007 -0.5593
12881SOL    HW241921   1.183   7.854   3.977 -1.3557 -0.0562 -1.1957
12882SOL     OW41922   7.794   6.340   6.756  0.4589 -0.1877 -0.3424
12882SOL    HW141923   7.725   6.405   6.770 -1.0508 -1.4884 -1.3281
12882SOL    HW241924   7.849   6.378   6.687  0.1434  0.4267 -0.2674
12883SOL     OW41925   4.093   5.238   8.499 -0.0853 -0.0143 -0.6732
12883SOL    HW141926   4.187   5.224   8.508 -0.3656 -1.1896  0.6653
12883SOL    HW241927   4.077   5.322   8.541  0.4623  0.5795 -1.6180
12884SOL     OW41928   5.489   4.647   7.638 -0.3816 -0.2270  0.0177
12884SOL    HW141929   5.544   4.684   7.569 -1.8440  1.7005 -0.2005
12884SOL    HW241930   5.524   4.559   7.652  0.5343 -0.3520 -2.5360
12885SOL     OW41931   3.566   2.414   7.438  0.0388  0.6354 -0.5014
12885SOL    HW141932   3.545   2.341   7.380  0.0150  0.0407  0.2396
12885SOL    HW241933   3.552   2.379   7.527  0.0512  1.5303 -0.1374
12886SOL     OW41934   4.375   5.270   6.911  0.2473  0.4643  0.0142
12886SOL    HW141935   4.452   5.316   6.878 -1.0422  0.3253 -3.5769
12886SOL    HW241936   4.348   5.322   6.988  3.4216  0.8693  1.0213
12887SOL     OW41937   6.748   9.278   4.535 -0.2440  0.4038  0.0756
12887SOL    HW141938   6.725   9.300   4.625  0.5935 -1.0809  0.6848
12887SOL    HW241939   6.665   9.270   4.489 -0.6864  0.8346  0.7872
12888SOL     OW41940  11.043   9.512   6.044 -0.2362 -0.2215 -0.2510
12888SOL    HW141941  11.034   9.533   6.137  0.4011  0.3946 -0.3168
12888SOL    HW241942  11.137   9.514   6.028 -0.3875  2.5283 -1.5106
12889SOL     OW41943   1.608   8.010   8.482  0.0436  0.0487 -0.0222
12889SOL    HW141944   1.684   8.052   8.521 -0.8244  0.2482  1.5285
12889SOL    HW241945   1.613   7.919   8.511  0.5821 -0.3664 -1.3289
12890SOL     OW41946   6.842   0.977   0.950  0.3003 -0.4987  0.1548
12890SOL    HW141947   6.799   0.938   1.026 -0.5537 -1.4109 -0.7669
12890SOL    HW241948   6.901   0.908   0.919 -0.1558 -0.5344 -0.6402
12891SOL     OW41949  11.384   4.119  10.428 -0.3852  0.0967  0.3107
12891SOL    HW141950  11.477   4.097  10.425  0.2467  2.5866 -0.6812
12891SOL    HW241951  11.339   4.035  10.421  1.7860 -0.9723 -2.0726
12892SOL     OW41952   2.977   3.286   0.735 -0.2245 -0.6331  0.0319
12892SOL    HW141953   2.976   3.191   0.726 -1.0404 -0.5265 -1.2510
12892SOL    HW241954   3.057   3.313   0.691 -0.8072 -0.6220 -1.0486
12893SOL     OW41955   2.808   7.804   7.536  0.1536 -0.2565  0.5329
12893SOL    HW141956   2.762   7.722   7.525  0.1609 -0.3783  1.3537
12893SOL    HW241957   2.849   7.798   7.622  0.1565  0.6012  0.6077
12894SOL     OW41958   2.887  10.838   6.787 -0.2241 -0.8264 -0.2084
12894SOL    HW141959   2.866  10.763   6.731 -0.3152 -1.3950  0.5767
12894SOL    HW241960   2.841  10.912   6.746 -0.3373 -1.2418 -0.8489
12895SOL     OW41961  10.817   4.446   3.703  0.2766 -0.8278 -0.4406
12895SOL    HW141962  10.835   4.414   3.792  1.3961  1.4864  0.2288
12895SOL    HW241963  10.897   4.425   3.654  1.0677  0.9248  0.0341
12896SOL     OW41964  10.153   3.578   4.296  0.4735  0.6083 -0.4662
12896SOL    HW141965  10.228   3.637   4.305  0.6465  0.2657  0.4685
12896SOL    HW241966  10.080   3.636   4.275  0.9039  1.0017 -0.9038
12897SOL     OW41967   6.732   3.217  10.260  0.3116  0.1961 -0.2657
12897SOL    HW141968   6.684   3.285  10.308  0.0702 -0.2870  0.1946
12897SOL    HW241969   6.681   3.137  10.275  0.3115  0.0045 -1.2215
12898SOL     OW41970   3.903   8.760   4.372 -0.4656  0.0676  0.2456
12898SOL    HW141971   3.894   8.801   4.458 -1.9446 -3.0732  1.7510
12898SOL    HW241972   3.961   8.685   4.387  0.8597  0.5344 -2.0151
12899SOL     OW41973   2.969   5.544   4.042  0.1331  0.7693 -0.2208
12899SOL    HW141974   2.891   5.540   4.097  0.3896 -0.2827  0.0967
12899SOL    HW241975   2.942   5.592   3.965 -0.2592  2.1967  0.7758
12900SOL     OW41976   2.903   9.907   9.089  0.7821  0.5455  0.6293
12900SOL    HW141977   2.861   9.942   9.168 -0.4581 -0.7377  0.5734
12900SOL    HW241978   2.833   9.863   9.042  2.2468 -2.1752  0.8033
12901SOL     OW41979   2.003   1.827   3.441 -0.4181 -0.2871 -0.5759
12901SOL    HW141980   1.939   1.821   3.512  0.6172  0.5726  0.4826
12901SOL    HW241981   1.951   1.846   3.363 -1.6909 -2.1982 -0.2709
12902SOL     OW41982   8.127   6.453   2.508  0.4976  0.7045 -1.0358
12902SOL    HW141983   8.166   6.383   2.560 -2.4878  0.2956  0.9039
12902SOL    HW241984   8.080   6.408   2.438  1.1155  0.9880 -1.6388
12903SOL     OW41985  10.594   3.832   1.323 -0.0514  0.2126 -0.7199
12903SOL    HW141986  10.589   3.849   1.229 -2.8367 -0.4015 -0.7911
12903SOL    HW241987  10.661   3.765   1.332  0.8251  0.8464 -2.1597
12904SOL     OW41988   8.140  10.156   2.635 -0.0540 -0.2821 -0.5676
12904SOL    HW141989   8.143  10.241   2.591 -1.1884  0.2477  0.2993
12904SOL    HW241990   8.181  10.095   2.574  0.9591  0.9190 -1.1314
12905SOL     OW41991   0.738   9.849   9.084 -0.3304  0.0139  0.1809
12905SOL    HW141992   0.672   9.779   9.082 -0.9369  0.5850 -0.4866
12905SOL    HW241993   0.817   9.808   9.047 -0.9454 -0.0766 -1.1157
12906SOL     OW41994   1.523   8.470   7.114 -0.1468 -0.3454  0.3083
12906SOL    HW141995   1.490   8.553   7.078 -1.4589 -0.6643  0.7467
12906SOL    HW241996   1.618   8.482   7.116  0.0137 -0.1401 -2.8619
12907SOL     OW41997   5.025   6.185   4.282  0.2077 -0.3760 -0.1897
12907SOL    HW141998   4.996   6.100   4.248  1.5702 -0.3676 -1.5223
12907SOL    HW241999   4.962   6.207   4.350 -1.2448 -1.5952 -1.0718
12908SOL     OW42000  10.716   6.797   7.575  0.4111 -0.4680  0.2822
12908SOL    HW142001  10.685   6.885   7.552 -1.1012 -0.7327  1.1932
12908SOL    HW242002  10.715   6.749   7.492 -0.1783 -0.0368  0.0372
12909SOL     OW42003   4.042   7.652   1.744  0.3234 -0.5372  0.0406
12909SOL    HW142004   4.008   7.563   1.732 -0.1560 -0.5092  1.0980
12909SOL    HW242005   4.091   7.670   1.664  0.4933 -1.7866 -0.1536
12910SOL     OW42006  10.251   7.391   4.114  0.4787 -0.0815  0.1360
12910SOL    HW142007  10.167   7.403   4.158  0.9899  1.4998  0.7444
12910SOL    HW242008  10.260   7.296   4.105 -0.7844 -0.3266  1.1944
12911SOL     OW42009   6.360   6.082   7.009  0.1186 -0.1179  0.1191
12911SOL    HW142010   6.350   6.157   6.950 -0.8280 -0.9812 -0.8690
12911SOL    HW242011   6.285   6.026   6.989  0.7798 -1.3105  0.8644
12912SOL     OW42012   6.759   6.742   7.897 -0.1539  1.0179 -0.3563
12912SOL    HW142013   6.823   6.679   7.866 -0.4781  1.2216 -1.4862
12912SOL    HW242014   6.811   6.815   7.932  0.2177  0.2304  0.7811
12913SOL     OW42015  10.042   0.163   4.201  0.1194 -0.3371 -0.0437
12913SOL    HW142016  10.071   0.254   4.190 -2.7387  0.6890  0.0211
12913SOL    HW242017  10.025   0.155   4.295  0.2267 -0.9059 -0.0720
12914SOL     OW42018   2.939   7.172   7.882  0.0355 -0.0954 -0.1460
12914SOL    HW142019   2.886   7.158   7.961 -0.6597  0.2493 -0.5458
12914SOL    HW242020   3.017   7.117   7.896  0.5124  0.8751  1.3323
12915SOL     OW42021   4.336  10.867   9.237 -0.8671  0.2672  0.4132
12915SOL    HW142022   4.253  10.879   9.282 -1.0756 -1.4908  0.5637
12915SOL    HW242023   4.358  10.774   9.249  0.2559  0.2825 -1.0739
12916SOL     OW42024   9.316   5.863   6.113 -0.0612 -0.7097  0.2590
12916SOL    HW142025   9.270   5.893   6.035  0.7189  0.2314  0.1385
12916SOL    HW242026   9.281   5.776   6.130 -0.5014 -0.7799 -0.9307
12917SOL     OW42027   4.716   4.967   9.144  0.5080 -0.5954 -0.6080
12917SOL    HW142028   4.629   5.007   9.145 -1.1431 -3.7820 -0.0821
12917SOL    HW242029   4.764   5.015   9.077 -1.3327  1.8493 -0.3312
12918SOL     OW42030   2.517   7.329   8.031  0.2156 -0.3840  0.0890
12918SOL    HW142031   2.467   7.273   7.972  0.8120  0.8280 -1.6539
12918SOL    HW242032   2.538   7.406   7.979 -0.4479  1.4362  2.3421
12919SOL     OW42033   4.600   8.720   8.533  0.7587  0.4355  0.1027
12919SOL    HW142034   4.644   8.797   8.568 -0.9384  1.1210  0.8575
12919SOL    HW242035   4.541   8.692   8.603 -0.6928  0.1498 -1.1842
12920SOL     OW42036   9.028   5.660   7.900 -0.3415  0.2266  0.4252
12920SOL    HW142037   8.984   5.603   7.963  0.7004  1.1964  2.0891
12920SOL    HW242038   8.969   5.733   7.888 -1.8545 -1.2460 -1.9957
12921SOL     OW42039   7.752  11.030   0.420 -0.0466  0.2735 -0.1866
12921SOL    HW142040   7.668  10.991   0.443  0.9304 -2.0193 -0.1939
12921SOL    HW242041   7.753  11.115   0.464 -2.2210  0.2087  0.0560
12922SOL     OW42042   1.277   2.393   6.677 -0.0283 -0.1681 -0.0873
12922SOL    HW142043   1.345   2.402   6.744 -1.3939  1.3233  1.1861
12922SOL    HW242044   1.320   2.422   6.596  1.0222  0.1682  0.5606
12923SOL     OW42045   8.978  10.992   0.205  0.1339  0.1365 -0.2572
12923SOL    HW142046   8.885  10.968   0.210 -0.2353  1.5724  0.8842
12923SOL    HW242047   9.022  10.930   0.263 -0.4821  0.7964  0.9765
12924SOL     OW42048   7.738   2.597   9.585 -0.2662  0.4180 -0.4655
12924SOL    HW142049   7.748   2.692   9.577  1.3596  0.4214  0.9759
12924SOL    HW242050   7.696   2.570   9.504 -2.3862  2.5665 -0.2072
12925SOL     OW42051   1.280   2.704  11.310  0.3998 -0.3388 -0.9242
12925SOL    HW142052   1.303   2.614  11.286  0.0841 -0.2970 -1.4075
12925SOL    HW242053   1.276   2.750  11.226 -0.7801 -0.1928 -0.7932
12926SOL     OW42054   9.601   7.044   9.500 -0.3681  0.5151 -0.0551
12926SOL    HW142055   9.571   6.953   9.503 -0.3923  0.4334 -1.6515
12926SOL    HW242056   9.594   7.075   9.590 -0.0856 -1.1427  0.5693
12927SOL     OW42057   5.656   6.028   4.644 -0.3736 -0.1385  0.0250
12927SOL    HW142058   5.726   6.093   4.637 -0.5185  0.0274  0.1078
12927SOL    HW242059   5.668   5.972   4.567  0.4041 -0.6617  0.5163
12928SOL     OW42060   1.563   7.359   8.335  0.3658  0.0098 -0.2500
12928SOL    HW142061   1.567   7.349   8.240 -1.2020  1.2362 -0.4880
12928SOL    HW242062   1.593   7.448   8.352 -1.1931  0.4978  0.1644
12929SOL     OW42063   8.879   7.072   4.606 -0.4544  0.1150 -0.1243
12929SOL    HW142064   8.911   6.987   4.577 -0.0562 -0.0013  0.6078
12929SOL    HW242065   8.827   7.105   4.533  0.0212 -0.4168 -0.7152
12930SOL     OW42066   0.300  10.967   5.165  0.0008  0.7821 -0.0472
12930SOL    HW142067   0.231  10.987   5.228  1.4297  1.8821  1.2448
12930SOL    HW242068   0.265  10.998   5.081 -0.4632  2.8594  0.8567
12931SOL     OW42069   6.573   2.027   6.920  1.4797 -0.4236 -0.4821
12931SOL    HW142070   6.667   2.040   6.927  1.2243  1.6218 -0.1216
12931SOL    HW242071   6.536   2.115   6.931 -0.3905 -0.9428 -1.9668
12932SOL     OW42072   3.425   4.148   3.782  0.3004 -0.1422  0.0228
12932SOL    HW142073   3.401   4.071   3.731  1.2914 -0.4977  0.0903
12932SOL    HW242074   3.341   4.188   3.806 -0.1971 -0.5823 -0.9435
12933SOL     OW42075   6.776   9.330   3.369  0.0045  0.0042 -0.4759
12933SOL    HW142076   6.843   9.396   3.387  0.6100 -0.8870  0.6750
12933SOL    HW242077   6.729   9.364   3.293  1.1816  1.0851 -0.7605
12934SOL     OW42078  10.180   1.527   0.210  0.3813 -0.5320  0.2337
12934SOL    HW142079  10.268   1.503   0.181  1.3358  0.7961  1.8622
12934SOL    HW242080  10.153   1.596   0.150  2.3576  2.2353  2.2702
12935SOL     OW42081   9.540   4.116   0.634 -0.5769  0.2010  0.4563
12935SOL    HW142082   9.487   4.038   0.616 -1.9275  1.3442 -0.7179
12935SOL    HW242083   9.561   4.151   0.547 -0.2491  1.3038  0.9690
12936SOL     OW42084   3.652   0.029   3.863 -0.2317 -0.5181  0.2700
12936SOL    HW142085   3.564   0.003   3.889 -0.6210  1.0749  0.6405
12936SOL    HW242086   3.639   0.079   3.782  0.3498 -0.3815  0.2599
12937SOL     OW42087   9.298   8.185   5.262  0.0346  0.0688  0.1947
12937SOL    HW142088   9.204   8.189   5.282 -0.1352 -2.0548 -0.0270
12937SOL    HW242089   9.340   8.176   5.348 -0.0049  0.3698  0.2470
12938SOL     OW42090   3.316   4.880   1.084  0.0539  0.2106  0.0291
12938SOL    HW142091   3.276   4.847   1.165 -1.4698  1.9514  0.0614
12938SOL    HW242092   3.251   4.860   1.016  0.3685  0.6157 -0.3959
12939SOL     OW42093   8.642   2.075   8.503 -0.2269 -0.0221 -0.4989
12939SOL    HW142094   8.735   2.075   8.482 -0.2693  2.3177 -0.9238
12939SOL    HW242095   8.638   2.050   8.595  1.1953  3.1989  0.5617
12940SOL     OW42096   7.160  10.628   3.938 -0.1857  0.2468  0.2891
12940SOL    HW142097   7.250  10.642   3.909 -0.2924  1.3276  0.4440
12940SOL    HW242098   7.122  10.570   3.872 -0.0076  1.5064 -0.9592
12941SOL     OW42099   4.231   3.788   9.447 -0.3791 -0.1967  0.4077
12941SOL    HW142100   4.182   3.870   9.440 -0.0840 -0.1367 -1.4668
12941SOL    HW242101   4.166   3.720   9.431 -0.2850 -0.2418  0.2214
12942SOL     OW42102   4.373  11.018   6.163  0.7477  0.4493 -0.1242
12942SOL    HW142103   4.434  11.084   6.194  1.7510  0.9967 -2.9443
12942SOL    HW242104   4.287  11.051   6.187  1.4092  0.6227  2.2182
12943SOL     OW42105   4.162  10.851   3.739 -0.1061 -0.8281  0.2678
12943SOL    HW142106   4.150  10.932   3.787  0.5742 -0.5925  0.0495
12943SOL    HW242107   4.126  10.869   3.652 -0.4083 -0.9215  0.3743
12944SOL     OW42108   3.137   4.791   4.388  0.2375  0.3220  0.0336
12944SOL    HW142109   3.206   4.803   4.453 -0.2390  1.5972  0.3450
12944SOL    HW242110   3.061   4.836   4.425 -0.8175 -1.1529 -0.2488
12945SOL     OW42111   3.370   5.281   2.071  0.2122 -0.4416  0.4443
12945SOL    HW142112   3.288   5.285   2.121 -0.5938 -0.0704 -0.8674
12945SOL    HW242113   3.394   5.373   2.058 -0.2054 -0.4983 -0.8174
12946SOL     OW42114   0.841   2.340   8.007 -0.1782 -0.1246 -0.2814
12946SOL    HW142115   0.832   2.340   8.102  1.1290 -0.0467 -0.1308
12946SOL    HW242116   0.855   2.432   7.984  1.3827 -0.3329 -0.3048
12947SOL     OW42117   4.162   1.986   7.585 -0.7129 -0.0229 -0.0980
12947SOL    HW142118   4.131   2.076   7.574  0.8920  0.3912 -1.7460
12947SOL    HW242119   4.257   1.992   7.572 -0.2221 -1.6005  2.2079
12948SOL     OW42120   4.434   8.510   0.231  0.3385 -0.2113  0.1053
12948SOL    HW142121   4.511   8.539   0.279  0.9817 -1.6907  0.0313
12948SOL    HW242122   4.362   8.559   0.270  1.2441  0.8464  0.5017
12949SOL     OW42123   7.761   4.565   2.441  0.0197  0.2122  0.0995
12949SOL    HW142124   7.727   4.606   2.520 -0.3412  1.5778 -0.7449
12949SOL    HW242125   7.684   4.544   2.388  0.0637 -2.7917  1.0177
12950SOL     OW42126  10.451   2.013   3.798  0.1338  0.1470  0.0726
12950SOL    HW142127  10.533   2.017   3.846  0.7153  0.6555 -0.9225
12950SOL    HW242128  10.392   1.963   3.854  1.3920 -1.0115  0.4174
12951SOL     OW42129   4.055   0.446   4.155 -0.3332 -0.3071  0.0535
12951SOL    HW142130   4.116   0.439   4.082 -0.4662  0.1271 -0.0999
12951SOL    HW242131   4.025   0.537   4.153 -1.2229 -0.5921 -0.0636
12952SOL     OW42132  11.087   4.276   4.911 -0.4096  0.2119 -0.6871
12952SOL    HW142133  11.124   4.322   4.835 -1.9802  1.4496 -0.7607
12952SOL    HW242134  11.016   4.333   4.940 -0.4161 -0.6918  1.1788
12953SOL     OW42135   5.639   5.999   0.791 -0.3472  0.0804  0.2308
12953SOL    HW142136   5.714   6.035   0.837  1.1348  0.3439 -2.2311
12953SOL    HW242137   5.645   6.035   0.702 -2.0132 -1.7869 -0.7245
12954SOL     OW42138   0.976   9.494   3.013 -0.6537  0.4409 -0.4758
12954SOL    HW142139   0.948   9.407   2.984 -0.4282  0.3586 -0.4500
12954SOL    HW242140   1.002   9.538   2.932 -2.7897  1.2412 -0.7677
12955SOL     OW42141   3.347   2.787   5.039 -0.0619 -0.1052  0.0194
12955SOL    HW142142   3.415   2.853   5.054 -0.0929  0.0693 -0.5725
12955SOL    HW242143   3.269   2.838   5.018  0.2540 -0.3237 -1.8630
12956SOL     OW42144   4.206   8.043   3.215  0.3949  0.4995 -0.6958
12956SOL    HW142145   4.169   8.035   3.302  0.7159 -1.4665 -0.6987
12956SOL    HW242146   4.130   8.042   3.156  0.2198  1.1100 -0.4828
12957SOL     OW42147   3.114   8.083   4.948  0.2114  0.3367 -0.8083
12957SOL    HW142148   3.109   8.012   4.884  1.2863  0.9384 -1.5880
12957SOL    HW242149   3.163   8.152   4.903  0.2044  1.1204  0.3560
12958SOL     OW42150   3.434   9.591   3.966  0.3903  0.0815  0.6900
12958SOL    HW142151   3.455   9.623   4.054  2.7211  1.0215 -0.1227
12958SOL    HW242152   3.377   9.659   3.930  0.0162  0.0576  1.2214
12959SOL     OW42153   4.604   0.807   8.728 -0.0355  0.3515 -0.3330
12959SOL    HW142154   4.638   0.840   8.811 -0.3138 -1.3366  0.5014
12959SOL    HW242155   4.522   0.763   8.752  1.3392 -2.7739 -0.9870
12960SOL     OW42156   4.728   2.249   8.465  0.1159 -0.0053  0.2745
12960SOL    HW142157   4.799   2.229   8.404 -0.3381 -0.1270 -0.2215
12960SOL    HW242158   4.668   2.175   8.457  0.4159 -0.4063  1.4423
12961SOL     OW42159  10.452   8.427   7.509 -0.2829 -0.2534  0.4713
12961SOL    HW142160  10.481   8.367   7.578 -1.8435 -0.6070  0.8554
12961SOL    HW242161  10.412   8.370   7.444 -2.1331  0.3456  1.0150
12962SOL     OW42162   1.328  11.279   6.101  0.2781 -0.5371 -0.0431
12962SOL    HW142163   1.363  11.334   6.171 -1.1451 -0.6462  0.7863
12962SOL    HW242164   1.247  11.243   6.137 -0.1019 -1.1871 -1.4830
12963SOL     OW42165   2.085   2.007   5.920  0.0590 -0.1024  0.2213
12963SOL    HW142166   2.129   2.092   5.913  0.9549 -0.5821 -0.3389
12963SOL    HW242167   2.003   2.025   5.965 -0.2216  1.2281 -0.7557
12964SOL     OW42168   0.399   3.219   5.171 -0.2758  0.3072  0.1525
12964SOL    HW142169   0.412   3.313   5.189 -0.1590  0.1603  0.8678
12964SOL    HW242170   0.422   3.176   5.253  0.2469 -0.4009 -0.3625
12965SOL     OW42171  11.044   5.299   5.628 -0.0379  0.0414 -0.4549
12965SOL    HW142172  11.077   5.389   5.628 -0.2792  0.1337 -0.7832
12965SOL    HW242173  11.066   5.265   5.715 -1.7650  1.0969  0.4528
12966SOL     OW42174   0.746   2.531   3.059 -0.2735  0.0242 -0.5295
12966SOL    HW142175   0.680   2.472   3.095  0.1450 -0.8606 -1.1568
12966SOL    HW242176   0.711   2.557   2.973  0.9053 -1.8420 -1.6605
12967SOL     OW42177   4.065   1.148   5.447 -0.5690 -0.1578 -0.1644
12967SOL    HW142178   4.041   1.076   5.506  1.1114  1.2993  2.5068
12967SOL    HW242179   4.095   1.218   5.506  2.0124  1.1470 -2.7887
12968SOL     OW42180  10.049   9.247   3.797 -0.3277  0.2338  0.2123
12968SOL    HW142181  10.090   9.180   3.742 -0.6020 -0.6439  1.0248
12968SOL    HW242182  10.041   9.324   3.741  2.8004  0.6272  0.1073
12969SOL     OW42183   4.254   4.705   2.349 -0.3681 -0.0014 -0.2072
12969SOL    HW142184   4.262   4.775   2.413 -0.3905 -0.6998  0.5647
12969SOL    HW242185   4.323   4.723   2.285  0.4510 -0.0014  0.6662
12970SOL     OW42186   2.382   8.291   3.310 -0.1646  0.1502 -0.3719
12970SOL    HW142187   2.430   8.364   3.349  0.5151 -1.5540  2.2248
12970SOL    HW242188   2.308   8.277   3.369 -0.8541 -0.6613 -1.3925
12971SOL     OW42189   5.882   7.225   0.859  1.0282 -0.5510  0.0498
12971SOL    HW142190   5.960   7.278   0.878  0.3275 -0.1135  2.0042
12971SOL    HW242191   5.901   7.139   0.897  0.9763 -0.7582 -0.3968
12972SOL     OW42192   3.191   8.746   3.330 -0.0512  0.7179 -0.5086
12972SOL    HW142193   3.277   8.753   3.372  0.3150  2.6936 -1.5020
12972SOL    HW242194   3.169   8.653   3.337  2.0514  0.2074 -0.0196
12973SOL     OW42195   0.466  10.454   2.478 -0.0327 -0.1424  0.2037
12973SOL    HW142196   0.459  10.496   2.393 -1.3808  2.0960  1.3219
12973SOL    HW242197   0.388  10.399   2.485 -0.5834  0.6556  0.4576
12974SOL     OW42198   4.013   7.066  10.358  0.3483 -0.0366 -0.2257
12974SOL    HW142199   3.968   7.101  10.435 -0.3346  0.6064 -0.9008
12974SOL    HW242200   4.104   7.092  10.370  0.0335  1.1264 -0.2122
12975SOL     OW42201   7.013   8.254   5.650  0.5012 -0.2951 -0.2118
12975SOL    HW142202   6.958   8.177   5.636  0.7583 -0.6851  0.8356
12975SOL    HW242203   7.068   8.258   5.571  0.0651 -0.8160 -0.5563
12976SOL     OW42204   5.771   6.164  10.808  0.7154  0.9658  0.0835
12976SOL    HW142205   5.828   6.087  10.813 -0.6708 -0.0834  0.2814
12976SOL    HW242206   5.771   6.187  10.715  0.5572  0.2608 -0.1008
12977SOL     OW42207   2.308   4.694   6.466 -0.1234 -0.7199  0.3936
12977SOL    HW142208   2.234   4.731   6.418  1.0179  0.2070 -0.7093
12977SOL    HW242209   2.273   4.613   6.505 -2.2860  0.6916  1.6356
12978SOL     OW42210   7.281   5.806   9.066 -0.0186 -0.6491 -0.3387
12978SOL    HW142211   7.215   5.849   9.012 -1.0382 -1.2979  0.3662
12978SOL    HW242212   7.277   5.852   9.150  0.3148 -0.7996 -0.2390
12979SOL     OW42213   7.543   7.874   6.946  0.2788 -0.8395 -0.0891
12979SOL    HW142214   7.574   7.916   6.865 -1.3677 -0.3972 -0.5351
12979SOL    HW242215   7.477   7.811   6.917 -1.8656  0.7821  0.9940
12980SOL     OW42216   9.802   4.292   1.763 -0.2930 -0.3494  0.3140
12980SOL    HW142217   9.768   4.226   1.703  0.3160  0.7108 -1.2795
12980SOL    HW242218   9.897   4.280   1.762 -0.3184 -0.8201  1.7201
12981SOL     OW42219   9.705   7.719  10.071  0.2116 -0.3212  0.3390
12981SOL    HW142220   9.632   7.696  10.014  0.7269 -0.7573 -0.1548
12981SOL    HW242221   9.666   7.774  10.139 -0.5081 -0.2592 -0.1152
12982SOL     OW42222   6.578   4.779   2.662  0.1578 -0.5531  0.1978
12982SOL    HW142223   6.596   4.857   2.610 -0.3433  1.1260  2.3999
12982SOL    HW242224   6.517   4.729   2.608 -0.1465  0.9708 -0.9534
12983SOL     OW42225   1.131   7.142   3.835 -0.5327 -0.4188 -0.0061
12983SOL    HW142226   1.173   7.202   3.897  3.0938 -2.4162 -0.2519
12983SOL    HW242227   1.156   7.176   3.749  0.5638 -1.5463 -0.1621
12984SOL     OW42228   3.496  11.117   6.937  0.4008  0.4792 -0.0150
12984SOL    HW142229   3.547  11.156   7.008 -0.5236  1.7621 -0.0257
12984SOL    HW242230   3.557  11.059   6.893  0.8826 -0.7012  2.0937
12985SOL     OW42231   0.063   3.010   7.721  0.0090 -0.5954  0.0698
12985SOL    HW142232   0.158   3.017   7.724  0.0347 -0.9336  0.0600
12985SOL    HW242233   0.032   3.100   7.726  0.3056 -0.5332  0.7706
12986SOL     OW42234   5.638   3.118   8.460 -0.0467  0.6552 -0.2794
12986SOL    HW142235   5.642   3.045   8.398  1.6540  0.4576 -0.0046
12986SOL    HW242236   5.667   3.080   8.543 -0.6333  1.3018  0.2269
12987SOL     OW42237   1.525   1.282   7.111  0.5095  0.2511  0.0422
12987SOL    HW142238   1.487   1.254   7.194  1.4286  0.7145  0.6302
12987SOL    HW242239   1.606   1.232   7.104 -0.0064 -0.4904 -1.0538
12988SOL     OW42240   0.859   8.279   9.060  0.7112 -0.1070  0.2035
12988SOL    HW142241   0.950   8.258   9.038  0.5275 -2.0779  1.1390
12988SOL    HW242242   0.864   8.331   9.140  1.0976  2.2206 -1.2468
12989SOL     OW42243  10.126   8.430   8.402 -0.1977 -0.3857 -0.1294
12989SOL    HW142244  10.040   8.457   8.433  1.3572  2.1412  2.3638
12989SOL    HW242245  10.120   8.435   8.306 -3.0518 -1.3310 -0.0736
12990SOL     OW42246   7.687   3.423   5.532 -0.2251  0.0669 -0.5153
12990SOL    HW142247   7.749   3.387   5.596 -0.4265 -1.3353 -1.0704
12990SOL    HW242248   7.720   3.392   5.447 -0.1204  1.6697 -1.0846
12991SOL     OW42249  10.447   5.170  11.200 -0.1320  0.2045 -0.3602
12991SOL    HW142250  10.492   5.094  11.162  1.5180 -0.2527  2.2867
12991SOL    HW242251  10.406   5.137  11.279 -0.8505  1.7416 -0.0550
12992SOL     OW42252   1.391   5.409   2.836 -0.0596 -0.1331 -0.1180
12992SOL    HW142253   1.347   5.369   2.761 -0.7386  1.1731 -0.4361
12992SOL    HW242254   1.361   5.358   2.912 -1.8088  0.4660 -0.3777
12993SOL     OW42255   8.085   5.911   2.481 -0.2753 -0.3210 -0.0732
12993SOL    HW142256   8.031   5.834   2.503 -0.0098 -0.2526  0.8739
12993SOL    HW242257   8.078   5.919   2.386 -0.4919 -1.3816 -0.1594
12994SOL     OW42258   1.768  10.545   4.223 -0.2801 -1.1559 -0.7176
12994SOL    HW142259   1.813  10.620   4.263  1.2711 -1.9434 -0.9361
12994SOL    HW242260   1.737  10.493   4.297  2.1068 -2.3247 -0.4589
12995SOL     OW42261   7.848  10.677   1.950  0.8591  0.3189 -0.1884
12995SOL    HW142262   7.929  10.664   1.901 -0.5759 -2.6305 -2.0966
12995SOL    HW242263   7.788  10.718   1.888  0.3823  1.0135  0.6986
12996SOL     OW42264   3.795   9.310   8.759  0.7129  0.1714 -0.0338
12996SOL    HW142265   3.742   9.324   8.837  0.8792 -0.3578  0.1795
12996SOL    HW242266   3.741   9.257   8.701  1.6201 -1.8410  0.8927
12997SOL     OW42267  10.498   6.194   3.039  0.2366  0.4018  0.7415
12997SOL    HW142268  10.571   6.137   3.062  0.3811 -0.0851 -0.8020
12997SOL    HW242269  10.520   6.226   2.951 -1.9861 -0.8092 -0.3389
12998SOL     OW42270   5.544  10.259   4.613  0.1069 -0.1100  0.2663
12998SOL    HW142271   5.612  10.210   4.659  0.6365 -0.5235 -0.9067
12998SOL    HW242272   5.510  10.197   4.548 -1.8026 -0.1012  1.1812
12999SOL     OW42273   1.345   3.669   0.177  0.1396  0.4488 -0.4606
12999SOL    HW142274   1.283   3.741   0.181  1.0444  1.1916  2.4396
12999SOL    HW242275   1.424   3.707   0.140  0.4988  0.9084  0.7307
13000SOL     OW42276   5.711  11.250   1.064  0.0723 -0.1382  0.6061
13000SOL    HW142277   5.670  11.204   0.991 -0.0629  0.2836  0.4127
13000SOL    HW242278   5.728  11.182   1.129 -0.8949 -0.3207  0.6718
13001SOL     OW42279  10.790   3.694   9.832  0.0251  0.2709 -0.1218
13001SOL    HW142280  10.874   3.727   9.800 -0.4499  0.7138 -0.9404
13001SOL    HW242281  10.782   3.607   9.792  0.1477  0.1768  0.0566
13002SOL     OW42282   5.895   4.539   3.223  0.6034 -0.1747  0.1603
13002SOL    HW142283   5.880   4.608   3.157  0.4654 -0.7359 -0.4076
13002SOL    HW242284   5.815   4.487   3.221  0.8625 -0.5808  0.3017
13003SOL     OW42285  10.510   0.704   8.450 -0.0330  0.4205  0.1998
13003SOL    HW142286  10.598   0.686   8.416  0.8557  1.0384  2.0337
13003SOL    HW242287  10.491   0.793   8.420 -0.1812  0.1703 -0.4642
13004SOL     OW42288   3.546   2.640  11.055  0.0645  0.4894 -0.4734
13004SOL    HW142289   3.567   2.730  11.080 -2.2655  1.6998 -2.4472
13004SOL    HW242290   3.617   2.587  11.092  2.4428  3.3050 -0.6938
13005SOL     OW42291  10.316  10.919   9.664 -0.4263 -0.6548  0.2058
13005SOL    HW142292  10.246  10.855   9.652 -2.3575  1.6122 -1.8301
13005SOL    HW242293  10.271  10.997   9.697  1.3303  0.5579 -0.1597
13006SOL     OW42294  11.086   6.195   1.204  0.0076  0.6010  0.0070
13006SOL    HW142295  11.023   6.252   1.249 -0.5887  0.4773 -0.6454
13006SOL    HW242296  11.040   6.111   1.194  0.1824  0.5774 -0.6788
13007SOL     OW42297   2.575  11.344   5.950 -0.3342 -0.0083 -0.6614
13007SOL    HW142298   2.633  11.419   5.938  0.1540  0.2199  2.4534
13007SOL    HW242299   2.632  11.268   5.942 -0.2308  0.0749 -0.7106
13008SOL     OW42300   7.944   9.603   9.315 -0.5495 -0.4209 -0.3725
13008SOL    HW142301   7.886   9.570   9.384 -3.3022 -0.6624 -2.6022
13008SOL    HW242302   7.970   9.525   9.266 -1.6384 -0.0077 -1.6973
13009SOL     OW42303   6.093   9.112   5.691 -0.4241  0.1457 -0.3797
13009SOL    HW142304   6.171   9.167   5.702 -0.6619  0.0441  2.7460
13009SOL    HW242305   6.035   9.163   5.635  0.7409  1.5410 -0.3767
13010SOL     OW42306   7.574   5.425   4.027 -0.1024  0.7823 -0.5511
13010SOL    HW142307   7.668   5.421   4.044 -0.2068  1.2867  0.2187
13010SOL    HW242308   7.549   5.336   4.005  0.1806  0.1488  1.4552
13011SOL     OW42309   8.015   6.415   0.404  0.2149 -0.4349 -0.5013
13011SOL    HW142310   8.013   6.473   0.328  0.7051 -0.7580 -0.7696
13011SOL    HW242311   7.923   6.400   0.425  0.0788 -0.0127 -0.7765
13012SOL     OW42312   0.392  10.915  10.847 -0.4606  0.1370  0.1706
13012SOL    HW142313   0.297  10.927  10.852 -0.3086  1.2621  0.6085
13012SOL    HW242314   0.410  10.910  10.753 -0.9618 -0.2459  0.0875
13013SOL     OW42315   5.725   9.046   8.840  0.5883 -0.4865 -0.4189
13013SOL    HW142316   5.813   9.053   8.804  2.8322 -2.5284  3.7763
13013SOL    HW242317   5.709   9.131   8.881  3.0403 -1.3805  2.9315
13014SOL     OW42318   1.268   6.366   3.757 -0.1173  0.2470 -0.0479
13014SOL    HW142319   1.243   6.429   3.689  2.2375  0.8457 -0.4545
13014SOL    HW242320   1.347   6.404   3.797 -0.5984 -0.8140  2.0356
13015SOL     OW42321   2.137   4.266   3.136 -0.2228 -0.1917 -0.0561
13015SOL    HW142322   2.099   4.189   3.177 -0.0645  0.4928  1.4162
13015SOL    HW242323   2.103   4.264   3.046 -0.6060 -1.6862  0.0892
13016SOL     OW42324  11.216  10.295   4.034 -0.3674  0.0888 -0.0271
13016SOL    HW142325  11.133  10.266   4.072 -1.5398  0.6705 -1.9689
13016SOL    HW242326  11.195  10.379   3.992  0.6165 -0.7870 -2.4406
13017SOL     OW42327   2.273   0.722   7.764  0.4270 -0.8102  0.2004
13017SOL    HW142328   2.227   0.794   7.721  0.0924 -0.9724  0.2848
13017SOL    HW242329   2.353   0.762   7.798 -0.8782  0.1237  2.3933
13018SOL     OW42330   4.347   1.273   6.467 -0.5279 -0.4152  0.4026
13018SOL    HW142331   4.432   1.237   6.490  0.6758  2.0579  0.0794
13018SOL    HW242332   4.286   1.200   6.479  1.1852 -1.4971  3.3399
13019SOL     OW42333   0.848   0.791   9.428 -0.2586 -0.2028 -0.3258
13019SOL    HW142334   0.815   0.776   9.516 -0.4897  0.7660 -0.2362
13019SOL    HW242335   0.940   0.814   9.440 -0.9215  2.5963 -0.0646
13020SOL     OW42336   4.593   9.312   8.724 -0.2370  0.2602 -0.1020
13020SOL    HW142337   4.510   9.276   8.758 -0.7178  0.3686 -1.1264
13020SOL    HW242338   4.661   9.271   8.777 -0.9257 -0.1570  0.4718
13021SOL     OW42339   4.650   3.924   3.323  0.0136  0.5215  0.2080
13021SOL    HW142340   4.634   4.014   3.352 -0.7082  0.2630  0.6383
13021SOL    HW242341   4.740   3.906   3.348  0.4898  1.4441 -0.7335
13022SOL     OW42342   3.316   6.691   4.125  0.4354  0.0371 -0.2579
13022SOL    HW142343   3.386   6.656   4.181  0.5911  2.3232  1.1260
13022SOL    HW242344   3.240   6.697   4.183  0.0746  0.7588 -0.7957
13023SOL     OW42345   9.465   9.111   5.556  0.0619  0.0662 -0.2142
13023SOL    HW142346   9.398   9.067   5.607 -0.4816 -0.8530 -1.6481
13023SOL    HW242347   9.546   9.093   5.602 -0.1561 -2.3513 -0.6308
13024SOL     OW42348   1.160   1.432   2.884 -0.4111 -0.0248  0.2502
13024SOL    HW142349   1.228   1.413   2.950 -0.4216  0.2830  0.3510
13024SOL    HW242350   1.081   1.447   2.935 -0.6284 -0.7075  0.1116
13025SOL     OW42351   9.530   4.806  10.407  0.1729 -0.6851 -0.3457
13025SOL    HW142352   9.591   4.867  10.449  0.9895 -1.2140 -0.7344
13025SOL    HW242353   9.474   4.775  10.478  1.4727 -1.5028  0.3777
13026SOL     OW42354   5.728   8.265   4.652  0.8808 -0.6369  0.3017
13026SOL    HW142355   5.681   8.346   4.635  3.4188  0.9879  0.4213
13026SOL    HW242356   5.662   8.204   4.685 -1.0594  1.4652  0.4681
13027SOL     OW42357   6.631   3.671   4.763  0.3385  0.3125 -0.3123
13027SOL    HW142358   6.604   3.614   4.691  0.5730 -0.6668  0.3556
13027SOL    HW242359   6.681   3.614   4.821 -0.9511  0.7493  1.2849
13028SOL     OW42360   4.878   6.051   1.687 -0.3474  0.0576  0.1838
13028SOL    HW142361   4.947   5.998   1.727 -0.0094 -0.2756 -0.8187
13028SOL    HW242362   4.800   5.996   1.691 -0.2192 -0.1350  0.0021
13029SOL     OW42363   1.113   3.826   6.920 -0.0026 -0.7749 -0.1828
13029SOL    HW142364   1.023   3.806   6.945  0.2390  0.7506  2.2195
13029SOL    HW242365   1.118   3.802   6.828 -2.6833 -1.4480 -0.2390
13030SOL     OW42366  10.981   7.273   5.413  0.2883  0.3624  0.5997
13030SOL    HW142367  10.989   7.233   5.500  0.6129 -0.2925  0.2692
13030SOL    HW242368  10.897   7.319   5.416  0.4816  0.6870  1.3989
13031SOL     OW42369   8.009   9.823   3.101  0.9870  0.4024  0.2515
13031SOL    HW142370   8.032   9.732   3.084 -0.3595  0.1136 -0.1691
13031SOL    HW242371   7.924   9.835   3.059  0.4290  1.4240  1.5701
13032SOL     OW42372   5.354   6.435   0.146  0.0918  0.1008  0.0681
13032SOL    HW142373   5.408   6.512   0.160 -1.0787  1.4029 -2.0907
13032SOL    HW242374   5.276   6.450   0.199 -0.9767  1.3958 -1.7572
13033SOL     OW42375   9.803   7.172   4.984 -0.1870 -0.4364  0.7662
13033SOL    HW142376   9.819   7.102   4.920 -0.4061 -0.8585  1.1646
13033SOL    HW242377   9.834   7.136   5.067 -0.9902 -0.3502  1.1178
13034SOL     OW42378   3.034  10.251   2.370 -0.1440  1.3793 -0.6833
13034SOL    HW142379   3.120  10.288   2.394 -0.2538  2.4607 -1.7947
13034SOL    HW242380   3.048  10.218   2.281 -0.1593 -1.0258  0.1480
13035SOL     OW42381   3.413   7.112   7.603  0.5983  0.1821 -0.4364
13035SOL    HW142382   3.344   7.047   7.588  1.9975 -1.3661 -0.5211
13035SOL    HW242383   3.419   7.160   7.520  0.7624 -0.8287 -1.0280
13036SOL     OW42384  10.602   1.795  10.605  0.2053 -0.1427  0.3879
13036SOL    HW142385  10.546   1.834  10.672 -0.7229 -0.4089 -0.2232
13036SOL    HW242386  10.687   1.837  10.618 -0.0494  0.0679  1.5030
13037SOL     OW42387   2.751   9.697   5.782 -0.0659 -0.1221  0.1810
13037SOL    HW142388   2.715   9.698   5.871  2.1994 -0.1384  1.1714
13037SOL    HW242389   2.683   9.737   5.728 -1.1517  0.7200  2.0669
13038SOL     OW42390   8.374   1.848   9.754 -0.0588  0.3115 -0.0165
13038SOL    HW142391   8.421   1.885   9.679  0.6452  2.1838  1.2671
13038SOL    HW242392   8.304   1.796   9.715  0.0612  1.5175 -1.9753
13039SOL     OW42393   5.900  11.079   1.342 -0.0370  0.3933 -0.1471
13039SOL    HW142394   5.811  11.055   1.320 -0.2244  0.9668 -0.0380
13039SOL    HW242395   5.894  11.170   1.372  0.7047  0.7286 -0.9675
13040SOL     OW42396   6.100   3.164   5.258  0.2133 -0.4249 -0.1868
13040SOL    HW142397   6.145   3.168   5.342 -0.7568  1.8654  0.2667
13040SOL    HW242398   6.162   3.204   5.196  0.4833 -1.1291 -0.3873
13041SOL     OW42399   4.018   1.329  10.519 -0.3557 -0.7634  0.0482
13041SOL    HW142400   3.929   1.319  10.484 -0.6681  0.1273  0.5471
13041SOL    HW242401   4.041   1.243  10.552 -0.2318 -1.5206 -1.8965
13042SOL     OW42402  11.245  11.137   7.384 -0.0554  0.4417 -0.1019
13042SOL    HW142403  11.237  11.231   7.404  0.9446  0.5063  0.0639
13042SOL    HW242404  11.301  11.103   7.454 -1.4171 -0.5408  0.5479
13043SOL     OW42405   1.669   2.365   8.254  0.2445  0.0740 -0.2112
13043SOL    HW142406   1.711   2.293   8.301 -0.5530 -0.6500 -0.5807
13043SOL    HW242407   1.579   2.336   8.241 -0.2285  1.3620  0.0717
13044SOL     OW42408   4.307   1.475  10.882 -0.2672  0.3217  0.0670
13044SOL    HW142409   4.275   1.546  10.938 -0.9582  0.0648  0.0177
13044SOL    HW242410   4.296   1.396  10.936  0.3529  0.2344  0.0678
13045SOL     OW42411   3.847   4.286   2.246 -0.2917  0.0126  0.5187
13045SOL    HW142412   3.909   4.298   2.318 -0.3138 -1.2938  0.7832
13045SOL    HW242413   3.761   4.295   2.286 -0.2914  0.2378  0.4681
13046SOL     OW42414   5.946  10.294   3.418  0.3437  0.0903  0.8573
13046SOL    HW142415   5.966  10.201   3.434 -1.4491 -1.0315 -2.3956
13046SOL    HW242416   5.852  10.301   3.436  0.5266  1.3751  1.3639
13047SOL     OW42417   0.757   8.945   3.567  0.1257 -0.4191  0.5335
13047SOL    HW142418   0.668   8.974   3.588 -0.3642  0.9583 -2.7816
13047SOL    HW242419   0.812   8.987   3.633 -1.3411  2.1940  0.2294
13048SOL     OW42420   2.335   2.596   0.151  0.2658 -0.0182 -0.2978
13048SOL    HW142421   2.264   2.613   0.089 -1.1554 -0.9760  0.9974
13048SOL    HW242422   2.404   2.556   0.099 -0.2335  0.6705 -1.5361
13049SOL     OW42423   9.857   0.294   7.956  0.2285  0.2679 -0.5965
13049SOL    HW142424   9.817   0.265   8.038  1.2688 -0.9371 -0.4839
13049SOL    HW242425   9.916   0.223   7.931  2.7226  2.1174 -0.4701
13050SOL     OW42426   2.482   7.857   3.289 -0.5306  0.0054 -0.5013
13050SOL    HW142427   2.507   7.765   3.291 -1.2205 -0.2262 -1.7954
13050SOL    HW242428   2.454   7.876   3.379  2.4766 -0.1807  0.5896
13051SOL     OW42429   7.117   4.630   5.829 -0.6022 -0.7735 -0.4104
13051SOL    HW142430   7.150   4.605   5.915  1.6074 -0.3549 -1.0519
13051SOL    HW242431   7.023   4.619   5.834 -0.5201 -0.7638  2.0524
13052SOL     OW42432   9.766   8.590   5.025 -0.1188 -0.1266  0.0884
13052SOL    HW142433   9.689   8.648   5.026  0.2176  0.3259  0.1371
13052SOL    HW242434   9.789   8.583   4.932  0.1548  0.2488  0.1239
13053SOL     OW42435   6.794   4.607   9.347 -0.0102  0.0399 -0.5479
13053SOL    HW142436   6.888   4.598   9.331  0.3422 -0.5044  1.5801
13053SOL    HW242437   6.784   4.590   9.440 -2.0811  1.3517 -0.4802
13054SOL     OW42438  10.382  10.399   5.351 -0.2456  0.8175  0.4425
13054SOL    HW142439  10.441  10.439   5.414 -0.5193 -0.2382  1.4196
13054SOL    HW242440  10.385  10.305   5.372  0.6133  0.2497 -1.9411
13055SOL     OW42441   6.146   7.743   7.319 -0.1792 -0.8175  0.3633
13055SOL    HW142442   6.066   7.727   7.369 -1.3489 -0.1278 -1.1844
13055SOL    HW242443   6.212   7.765   7.385 -1.9550  1.2964  1.5706
13056SOL     OW42444   8.171   8.293   9.401  0.6064  0.1212 -0.4492
13056SOL    HW142445   8.175   8.336   9.316  0.2137 -1.3767 -1.2739
13056SOL    HW242446   8.139   8.360   9.461 -1.3071  0.6287 -1.9303
13057SOL     OW42447   9.965   3.011   3.878  0.2614  0.3113 -0.0382
13057SOL    HW142448  10.042   2.957   3.857  0.7680  0.9454  0.1386
13057SOL    HW242449   9.992   3.062   3.954 -0.0343  1.1417 -0.4760
13058SOL     OW42450   6.460   6.608   7.500 -0.0061 -0.0732 -0.5410
13058SOL    HW142451   6.486   6.641   7.587  0.2795 -0.4996 -0.4600
13058SOL    HW242452   6.365   6.611   7.501  0.0070  1.3887 -0.7845
13059SOL     OW42453   1.995   9.278  10.157 -0.1849 -0.4503 -0.3571
13059SOL    HW142454   2.036   9.272  10.243  2.7848 -0.1321 -1.6442
13059SOL    HW242455   2.021   9.197  10.112 -0.1688  0.1949 -1.5469
13060SOL     OW42456   9.694   6.667   1.139  0.2045  0.6697 -0.4652
13060SOL    HW142457   9.599   6.670   1.156 -0.1878  0.5115 -2.3921
13060SOL    HW242458   9.731   6.630   1.218 -1.4423 -0.0183  0.0362
13061SOL     OW42459   7.624   7.400   9.116 -0.0530 -0.0096 -0.2280
13061SOL    HW142460   7.633   7.454   9.037 -3.2510  1.1326  0.0484
13061SOL    HW242461   7.591   7.316   9.084 -1.6951  0.5744 -0.1134
13062SOL     OW42462   3.378  10.678   4.913  0.1780 -0.0666 -0.7926
13062SOL    HW142463   3.401  10.745   4.978 -0.0147  0.7595 -1.5555
13062SOL    HW242464   3.452  10.617   4.913 -0.0866 -0.4208  0.6262
13063SOL     OW42465   3.062   1.583   0.004 -0.2733 -0.6680 -0.5919
13063SOL    HW142466   3.009   1.542   0.072  1.5473  0.1215  1.4265
13063SOL    HW242467   3.151   1.551   0.020  0.2204 -0.5584 -2.7340
13064SOL     OW42468   6.201   4.757   2.801 -0.8810 -0.1393 -0.4210
13064SOL    HW142469   6.254   4.697   2.853 -0.6373  0.6555  0.2653
13064SOL    HW242470   6.200   4.838   2.851 -0.0476  0.8947 -2.0050
13065SOL     OW42471  11.003   3.602   4.665 -0.1307  0.0528 -0.3494
13065SOL    HW142472  11.071   3.647   4.616  0.6411  0.3017  0.9450
13065SOL    HW242473  10.929   3.663   4.665  0.1558  0.4030 -0.4672
13066SOL     OW42474   1.600   7.695   6.360  0.1257 -0.0708 -0.3204
13066SOL    HW142475   1.603   7.749   6.439 -1.8090  0.8277 -0.8008
13066SOL    HW242476   1.578   7.608   6.391 -0.6651  0.2844  0.1468
13067SOL     OW42477   2.860   3.411   0.423 -0.4992 -0.1696 -0.0951
13067SOL    HW142478   2.815   3.382   0.502 -2.0682 -0.5717 -1.0914
13067SOL    HW242479   2.951   3.383   0.435 -0.7657 -0.4294  1.4427
13068SOL     OW42480   9.093   8.539   3.421  0.2520 -0.1490  0.0580
13068SOL    HW142481   9.143   8.608   3.376  0.8338  0.5267  1.6650
13068SOL    HW242482   9.159   8.476   3.447  0.1956  0.3514  1.4951
13069SOL     OW42483   8.441   8.550   9.577  0.0900  0.4017 -0.3159
13069SOL    HW142484   8.520   8.513   9.536  0.9267  1.1143  0.5964
13069SOL    HW242485   8.418   8.486   9.645 -0.0667  0.2285 -0.5340
13070SOL     OW42486   3.215   6.831  10.789 -0.6486 -0.1866 -0.1570
13070SOL    HW142487   3.307   6.855  10.792 -0.3088 -1.2770 -1.1764
13070SOL    HW242488   3.173   6.901  10.739  0.0453 -0.7892 -1.6588
13071SOL     OW42489   5.815   2.040   1.957  0.1328 -0.5440  0.2359
13071SOL    HW142490   5.817   2.134   1.975 -1.7872 -1.0387  4.0472
13071SOL    HW242491   5.906   2.011   1.965  0.9113  1.0341 -2.0375
13072SOL     OW42492   8.081   8.471   8.586 -0.6854 -0.0934 -0.5382
13072SOL    HW142493   8.120   8.500   8.669 -0.0911 -0.2795 -0.7416
13072SOL    HW242494   8.016   8.538   8.566  0.4167  0.9465 -0.8218
13073SOL     OW42495   1.575   5.579   2.745 -0.2073  0.2427  0.0051
13073SOL    HW142496   1.665   5.548   2.755 -0.1285  0.5717  0.3545
13073SOL    HW242497   1.521   5.507   2.780 -0.3199 -1.5181 -3.3753
13074SOL     OW42498   7.458   5.390   6.590 -0.4011 -0.0583  0.6908
13074SOL    HW142499   7.549   5.391   6.560 -0.8222 -0.1009 -0.6315
13074SOL    HW242500   7.424   5.476   6.568 -0.6301  0.0392  1.3945
13075SOL     OW42501   8.022   7.599  11.249 -0.1532  0.3079 -0.1851
13075SOL    HW142502   8.063   7.685  11.241 -0.1164  0.1897 -1.4326
13075SOL    HW242503   7.941   7.607  11.198 -0.3310 -0.2778  0.0065
13076SOL     OW42504   1.147   8.623   8.192 -0.3482 -0.1540  0.1079
13076SOL    HW142505   1.135   8.620   8.097 -1.7018 -0.5450  0.2794
13076SOL    HW242506   1.162   8.715   8.212  1.7932 -0.2748 -0.6735
13077SOL     OW42507   3.764   9.695   6.594 -0.4356 -0.1823 -0.1326
13077SOL    HW142508   3.751   9.721   6.685 -0.4532  0.4023 -0.2940
13077SOL    HW242509   3.852   9.658   6.592 -0.2735  0.1796  0.0490
13078SOL     OW42510   7.671   4.777   6.344 -1.0394  0.4828 -0.3021
13078SOL    HW142511   7.594   4.834   6.348 -0.3860  1.5754 -2.0647
13078SOL    HW242512   7.743   4.835   6.319  0.3010 -0.6006  0.8776
13079SOL     OW42513  11.340   2.397  10.402  0.0651 -0.0146 -0.2723
13079SOL    HW142514  11.361   2.334  10.333 -1.2363 -1.8545  0.9075
13079SOL    HW242515  11.254   2.432  10.377 -0.3569 -0.6011  0.2987
13080SOL     OW42516   0.060   8.765   1.817 -0.1003 -0.4786  0.3172
13080SOL    HW142517   0.086   8.857   1.826  0.4647 -0.3540 -2.0065
13080SOL    HW242518   0.098   8.738   1.734 -1.2328 -2.4992  0.4137
13081SOL     OW42519  10.110   0.952   5.806  0.8868  0.1529  0.2181
13081SOL    HW142520  10.152   0.973   5.723 -0.5656 -1.0417 -0.8429
13081SOL    HW242521  10.116   0.857   5.813 -1.0319  0.0121  0.3539
13082SOL     OW42522   6.920   1.543   0.952  0.8342  0.6598 -0.6017
13082SOL    HW142523   6.968   1.469   0.989 -0.0490 -0.9826 -2.5702
13082SOL    HW242524   6.828   1.522   0.968  0.5511  1.0568 -1.6754
13083SOL     OW42525   9.270   7.216   3.342  0.2248 -0.1273  0.4595
13083SOL    HW142526   9.251   7.211   3.249  0.9437  3.3825 -0.0230
13083SOL    HW242527   9.347   7.274   3.348  1.7250 -2.1570  3.1247
13084SOL     OW42528   4.531   8.219   2.889 -0.0123 -0.8986  0.3025
13084SOL    HW142529   4.535   8.203   2.983  1.1204 -1.5121  0.1559
13084SOL    HW242530   4.565   8.308   2.879 -0.7087 -0.6019  0.5264
13085SOL     OW42531   5.862   1.831   3.774  0.4617 -0.0729  0.3414
13085SOL    HW142532   5.876   1.828   3.869  0.7344  2.6918  0.4814
13085SOL    HW242533   5.937   1.879   3.740  0.0854 -0.5447 -1.2253
13086SOL     OW42534   4.936   9.107   9.756 -0.1915 -0.1630 -0.2253
13086SOL    HW142535   5.031   9.114   9.763 -0.1704  0.1972 -0.8040
13086SOL    HW242536   4.909   9.067   9.839  0.3631  0.7672  0.4329
13087SOL     OW42537   7.525  10.297   4.365 -0.5735  0.0329  0.0596
13087SOL    HW142538   7.572  10.226   4.322 -0.4624  0.9760 -1.4542
13087SOL    HW242539   7.468  10.253   4.429  0.8875 -1.2560  0.5333
13088SOL     OW42540   1.050   1.553   5.004 -0.2007  0.1447  0.2951
13088SOL    HW142541   0.974   1.514   4.962 -0.8188  0.6589  0.9141
13088SOL    HW242542   1.116   1.484   5.004 -0.1296  0.1657 -1.6393
13089SOL     OW42543   5.147  10.080   3.169  0.3655  0.0051  0.3373
13089SOL    HW142544   5.125  10.141   3.239 -1.0983  4.0015 -3.1510
13089SOL    HW242545   5.081  10.011   3.174 -0.8688  1.2291  1.7489
13090SOL     OW42546   2.145  11.040   1.967 -0.4685  0.7886 -0.4380
13090SOL    HW142547   2.124  11.021   1.876  1.8829 -0.0254 -0.8801
13090SOL    HW242548   2.164  10.954   2.006 -0.1748  1.2407  0.4537
13091SOL     OW42549   9.008   4.316   2.324  0.1345 -0.3476  0.2233
13091SOL    HW142550   9.095   4.355   2.334 -0.2327  0.6227 -0.1734
13091SOL    HW242551   8.993   4.314   2.230 -0.6013  0.2735  0.3174
13092SOL     OW42552   3.290   1.193   5.917  0.2423 -0.0219  0.0538
13092SOL    HW142553   3.216   1.253   5.912  1.0714  0.9415 -1.0591
13092SOL    HW242554   3.300   1.177   6.011 -1.8596 -0.8348  0.1928
13093SOL     OW42555   5.108   9.446   6.731 -0.3294 -0.1313 -0.8588
13093SOL    HW142556   5.167   9.515   6.762  0.3719 -0.8433 -0.5589
13093SOL    HW242557   5.136   9.429   6.641 -1.2146  0.7166 -1.3082
13094SOL     OW42558   3.102   0.950  10.004 -0.5758 -0.6711  0.3566
13094SOL    HW142559   3.166   0.919  10.067  0.2025  0.7556  0.3023
13094SOL    HW242560   3.138   1.032   9.970 -1.9762 -0.3129 -0.3780
13095SOL     OW42561   8.506   8.374   6.851  0.1695  0.4041 -0.4641
13095SOL    HW142562   8.462   8.302   6.897  0.0291 -1.0500 -2.7541
13095SOL    HW242563   8.441   8.445   6.849  0.8322  1.3321  3.1759
13096SOL     OW42564   8.105   2.200   0.392  0.6505  0.6260 -0.1495
13096SOL    HW142565   8.050   2.124   0.373  0.8831  0.0128  1.4382
13096SOL    HW242566   8.049   2.257   0.446  1.4113  0.1584  1.1884
13097SOL     OW42567   2.373  10.058   0.633 -0.2769 -0.4380  0.5660
13097SOL    HW142568   2.377  10.013   0.549  0.5295  0.3686  0.1511
13097SOL    HW242569   2.403  10.147   0.614 -2.3128  0.4504  1.2488
13098SOL     OW42570   0.978  10.592   7.752 -0.3516  0.2419 -0.3142
13098SOL    HW142571   0.960  10.517   7.808  0.1497  0.5517  0.2776
13098SOL    HW242572   0.913  10.658   7.778 -1.0490 -0.1186 -1.1101
13099SOL     OW42573   3.142   6.100   7.730 -0.3880 -0.2903  0.7002
13099SOL    HW142574   3.129   6.091   7.636  0.0826 -2.5417  0.8144
13099SOL    HW242575   3.198   6.027   7.754  1.5915  1.6252  2.3663
13100SOL     OW42576   6.318   2.680  10.040  0.2753 -0.2578 -0.3913
13100SOL    HW142577   6.398   2.726  10.064 -0.2720  1.7171 -2.0545
13100SOL    HW242578   6.255   2.750  10.022 -1.5026 -1.7423 -0.2258
13101SOL     OW42579   6.439   4.941   2.279 -0.2620  0.4329 -0.6408
13101SOL    HW142580   6.459   5.012   2.341  1.3259  0.6054 -1.2919
13101SOL    HW242581   6.505   4.874   2.297  0.1790  0.4446 -2.0514
13102SOL     OW42582   4.888   6.423  10.731  0.6551  0.1657 -0.2726
13102SOL    HW142583   4.923   6.511  10.716 -1.3235  1.2866  1.2616
13102SOL    HW242584   4.821   6.412  10.663 -0.0655  0.4215  0.3898
13103SOL     OW42585   4.838   4.714   0.160  0.0275 -0.1406  0.3518
13103SOL    HW142586   4.883   4.798   0.158 -0.1141 -0.0544  0.8672
13103SOL    HW242587   4.783   4.717   0.238 -2.6808  0.6923 -1.4246
13104SOL     OW42588   3.570   3.982   2.977  0.0455 -0.5034 -0.3919
13104SOL    HW142589   3.536   3.984   3.067 -0.4626 -0.4554 -0.5826
13104SOL    HW242590   3.664   3.972   2.988  0.0081 -0.3137  0.1531
13105SOL     OW42591   0.041   2.351   3.908 -0.2304  0.3782 -0.3750
13105SOL    HW142592   0.111   2.407   3.942  0.0780  0.3839 -1.0002
13105SOL    HW242593  -0.016   2.336   3.983 -1.0977  2.6748 -0.4840
13106SOL     OW42594  10.692   9.024   1.527  0.1061  0.0041  0.3963
13106SOL    HW142595  10.729   9.024   1.439 -2.7722 -0.7847 -0.9206
13106SOL    HW242596  10.660   9.113   1.540  1.6240  0.4697  1.2188
13107SOL     OW42597   5.606   1.787  11.376  0.5160  0.1256  0.2914
13107SOL    HW142598   5.611   1.713  11.436  1.5987 -0.4832 -0.5074
13107SOL    HW242599   5.520   1.781  11.336  0.9488 -1.3158 -0.4915
13108SOL     OW42600   8.641   7.645   8.228  0.3670 -0.1566  0.5192
13108SOL    HW142601   8.672   7.688   8.149 -1.7684 -0.2592 -0.4398
13108SOL    HW242602   8.699   7.677   8.297  0.9065  1.6744 -0.7152
13109SOL     OW42603   3.831   0.892   9.682 -0.6454  0.1385 -0.0105
13109SOL    HW142604   3.850   0.948   9.757 -2.0347  0.4946  0.0927
13109SOL    HW242605   3.891   0.817   9.693 -1.1679 -0.0695  1.7423
13110SOL     OW42606   0.972   4.339   1.049 -0.0903 -0.1753 -0.0381
13110SOL    HW142607   1.021   4.401   0.995 -1.7500 -0.7899 -2.3802
13110SOL    HW242608   0.895   4.388   1.077 -0.1213 -0.4072  0.2868
13111SOL     OW42609   8.801   0.266   3.652  0.2308  0.2424  0.1675
13111SOL    HW142610   8.855   0.206   3.600  2.7089  1.7304  0.8502
13111SOL    HW242611   8.800   0.229   3.740 -0.5709 -0.1970 -0.0200
13112SOL     OW42612  10.177  11.228   9.513  0.0477 -0.4340  0.6825
13112SOL    HW142613  10.116  11.173   9.563 -2.0896  1.1566 -0.0073
13112SOL    HW242614  10.263  11.191   9.531 -1.1740 -3.4885  0.8719
13113SOL     OW42615   1.429   2.780   7.737  0.3073  0.8063  0.3616
13113SOL    HW142616   1.440   2.870   7.707  0.2914  0.2402 -1.5097
13113SOL    HW242617   1.500   2.732   7.695 -0.4393 -0.2658  0.2832
13114SOL     OW42618   7.697   9.653   2.670  0.5763 -0.4025  0.0128
13114SOL    HW142619   7.611   9.635   2.632 -0.7717  0.2461  2.4721
13114SOL    HW242620   7.739   9.567   2.677 -0.8745 -1.0723  0.8952
13115SOL     OW42621   0.406   4.065   8.112 -0.4635 -0.1023  0.0412
13115SOL    HW142622   0.429   3.997   8.175 -2.0117 -2.3192 -1.6188
13115SOL    HW242623   0.311   4.058   8.101 -0.4529  1.2379 -1.4097
13116SOL     OW42624   1.464   5.489   3.305 -0.6537  0.1459 -0.0489
13116SOL    HW142625   1.541   5.433   3.299  0.8883  1.8992  1.7211
13116SOL    HW242626   1.456   5.527   3.217  1.2959  0.8360  0.0088
13117SOL     OW42627   4.072   2.350   8.867  0.4386 -0.1144 -0.8068
13117SOL    HW142628   4.023   2.384   8.791 -0.8826 -1.5131 -0.6358
13117SOL    HW242629   4.059   2.415   8.935 -1.3987 -0.5044 -0.7206
13118SOL     OW42630   5.550   5.986   9.631  0.8289  0.0265  0.1308
13118SOL    HW142631   5.487   5.998   9.701  1.0621 -1.4224  0.6246
13118SOL    HW242632   5.598   6.069   9.627 -1.1059  1.1737 -0.3092
13119SOL     OW42633  11.069   8.676  11.340 -0.2293 -0.2402 -0.3668
13119SOL    HW142634  11.099   8.722  11.261 -0.5995  0.0173 -0.3584
13119SOL    HW242635  11.063   8.584  11.313 -0.8260 -0.0869 -0.7847
13120SOL     OW42636   2.893   9.292   0.953  0.0816 -0.1029  0.2412
13120SOL    HW142637   2.903   9.259   1.042 -0.2815 -0.5191  0.1363
13120SOL    HW242638   2.981   9.316   0.925  0.1231  0.4950  0.8880
13121SOL     OW42639   0.099   6.797   7.794 -0.3955 -0.3284  0.3695
13121SOL    HW142640   0.185   6.785   7.754 -0.3511  0.1973  0.3092
13121SOL    HW242641   0.080   6.890   7.785 -0.9391 -0.4268  0.4535
13122SOL     OW42642   4.034   9.158   0.007  0.3208  0.3158  0.4036
13122SOL    HW142643   4.003   9.161  -0.083 -0.2208  0.1167  0.5781
13122SOL    HW242644   4.020   9.068   0.035 -0.0876  0.5131  0.8749
13123SOL     OW42645   8.445   5.048  11.114 -0.0470 -0.2714 -0.1829
13123SOL    HW142646   8.434   4.958  11.146 -0.1458 -0.2412 -0.1305
13123SOL    HW242647   8.409   5.047  11.026  2.2511 -0.9127 -1.1977
13124SOL     OW42648   1.910   7.336   8.222 -0.4827  0.1829 -0.1366
13124SOL    HW142649   1.919   7.335   8.127  1.6828 -1.0592  0.0071
13124SOL    HW242650   1.841   7.273   8.241  0.2466 -0.8654 -0.8453
13125SOL     OW42651   3.271   5.735   2.457  0.1440  0.2861  0.7451
13125SOL    HW142652   3.306   5.664   2.510  1.9228 -0.0453 -0.7386
13125SOL    HW242653   3.228   5.691   2.384  0.9545  0.6986 -0.0001
13126SOL     OW42654   4.346   9.965   7.368 -0.0273 -0.2241  0.5458
13126SOL    HW142655   4.346   9.994   7.460 -0.9291 -2.9925  1.5394
13126SOL    HW242656   4.274  10.013   7.328  0.2660  0.9076  1.3377
13127SOL     OW42657   2.196   8.540   9.990  0.2932 -0.1665  0.5923
13127SOL    HW142658   2.267   8.511   9.932  1.1142 -0.7814  1.8705
13127SOL    HW242659   2.143   8.598   9.935 -0.5986 -2.8751 -1.6547
13128SOL     OW42660   1.072   6.228  11.206 -0.0562 -0.2069 -0.4172
13128SOL    HW142661   1.053   6.150  11.259  0.1283  0.6832  1.0199
13128SOL    HW242662   1.166   6.244  11.220  0.0042  0.0421 -1.0544
13129SOL     OW42663  10.204   9.990  11.111 -0.1400 -0.1076 -0.2762
13129SOL    HW142664  10.223   9.924  11.178  1.2275  0.8392  0.3231
13129SOL    HW242665  10.151  10.056  11.157  0.6482  0.4536 -0.1505
13130SOL     OW42666   9.625   0.610   6.225 -0.3487 -0.3170 -0.1484
13130SOL    HW142667   9.534   0.604   6.197 -0.8677  0.0915  1.3518
13130SOL    HW242668   9.653   0.519   6.237 -0.8382 -0.4130  0.2496
13131SOL     OW42669   0.548   8.937   4.797  0.4174 -0.2046 -0.9853
13131SOL    HW142670   0.488   8.881   4.747  0.0655  1.6891 -2.8411
13131SOL    HW242671   0.627   8.885   4.808  0.3487 -0.8871 -3.2255
13132SOL     OW42672   2.097   0.914   1.710 -0.3006  0.1659 -0.6321
13132SOL    HW142673   2.182   0.938   1.747 -0.0006  1.1470 -1.8984
13132SOL    HW242674   2.117   0.868   1.629 -0.9664  1.2245 -1.4281
13133SOL     OW42675   3.939   2.754   9.058  0.7750 -0.5210  0.0199
13133SOL    HW142676   3.990   2.673   9.057 -0.0721 -1.1172  1.4889
13133SOL    HW242677   4.004   2.824   9.045  1.3840 -1.4391 -2.4180
13134SOL     OW42678   7.206   7.101   2.582 -0.3248 -0.1885 -0.0625
13134SOL    HW142679   7.290   7.134   2.551 -0.7212 -0.5845 -1.6633
13134SOL    HW242680   7.193   7.143   2.667  0.9564  0.7511 -0.3043
13135SOL     OW42681   7.514   1.698   7.309 -0.0660 -0.1151  0.0051
13135SOL    HW142682   7.584   1.633   7.304  0.5282  0.6141 -2.1538
13135SOL    HW242683   7.558   1.782   7.302 -0.9158  0.5206  1.7965
13136SOL     OW42684   3.440   1.085   8.510 -0.2035 -0.1970 -0.3011
13136SOL    HW142685   3.430   1.122   8.422  0.1215  1.5161  0.3405
13136SOL    HW242686   3.359   1.036   8.525 -0.3002 -0.4345 -1.5020
13137SOL     OW42687   6.984   5.122   4.943 -0.2217 -0.3795 -0.1059
13137SOL    HW142688   7.024   5.124   4.856 -0.8482 -1.3215 -0.4338
13137SOL    HW242689   6.915   5.188   4.939 -1.5808 -1.7922 -1.0243
13138SOL     OW42690   7.685   6.667   2.440 -0.0866  0.7865  0.1614
13138SOL    HW142691   7.671   6.673   2.534 -0.4245 -1.1194  0.2753
13138SOL    HW242692   7.641   6.744   2.404 -1.5977  0.5475  1.4090
13139SOL     OW42693   5.742   5.987   1.532 -0.3116 -0.3810 -0.0375
13139SOL    HW142694   5.721   5.934   1.454 -0.2425  0.8303 -0.9012
13139SOL    HW242695   5.697   5.943   1.603  1.5909 -2.9680 -0.2710
13140SOL     OW42696   1.992   2.199   6.467 -0.6514 -0.2257 -0.8472
13140SOL    HW142697   1.899   2.179   6.475 -0.0082 -2.9340  1.3781
13140SOL    HW242698   2.009   2.264   6.535 -0.8078  0.0476 -1.0615
13141SOL     OW42699   1.614   5.914   6.437 -0.5585  0.0398 -0.0752
13141SOL    HW142700   1.659   5.995   6.459 -1.4248  0.6535 -0.4752
13141SOL    HW242701   1.587   5.925   6.346  1.2835 -1.6508 -0.8998
13142SOL     OW42702   7.857  11.053   5.188  0.6025 -0.7545  0.0446
13142SOL    HW142703   7.944  11.061   5.150  1.0933 -2.0359  0.8275
13142SOL    HW242704   7.828  10.965   5.164 -0.3674 -0.4416  0.0225
13143SOL     OW42705   1.077   1.206   3.207 -0.2159 -0.1540  0.5860
13143SOL    HW142706   1.086   1.171   3.296  1.6750  1.0652  0.9370
13143SOL    HW242707   1.156   1.174   3.162 -1.4243 -1.2198 -0.8565
13144SOL     OW42708   2.376   4.525   2.998 -0.2332  0.0277 -0.3081
13144SOL    HW142709   2.376   4.495   3.089  0.1303  0.4530 -0.1667
13144SOL    HW242710   2.424   4.458   2.950  0.7823  0.4859  0.0455
13145SOL     OW42711   4.589  10.541   4.953  0.0384 -0.1615 -0.1794
13145SOL    HW142712   4.504  10.507   4.979  1.3980 -1.5655  3.0133
13145SOL    HW242713   4.618  10.482   4.884 -0.8826 -0.6828 -0.1346
13146SOL     OW42714  11.075   8.100   2.032  0.2360 -0.3668 -0.4150
13146SOL    HW142715  11.098   8.163   1.964  1.2568 -0.0249  0.2295
13146SOL    HW242716  11.159   8.067   2.064 -0.0749  0.8434  1.9347
13147SOL     OW42717   1.750   9.382   8.072  0.1636  0.6366 -0.8271
13147SOL    HW142718   1.745   9.460   8.016 -0.8182  1.9401  0.9820
13147SOL    HW242719   1.665   9.339   8.060  0.7806 -0.3040 -1.9791
13148SOL     OW42720   7.179   5.035   0.996  0.1738  0.0152  0.1288
13148SOL    HW142721   7.103   5.054   1.050  0.6993  0.6521  0.6632
13148SOL    HW242722   7.244   4.998   1.056  1.0839  1.5526  0.1528
13149SOL     OW42723   4.814   0.548   9.834  0.0778  0.2439  0.0297
13149SOL    HW142724   4.904   0.517   9.831 -0.1123 -0.3419  0.3079
13149SOL    HW242725   4.793   0.568   9.743 -0.3506 -2.0778 -0.4492
13150SOL     OW42726   0.817   1.573   2.085 -0.0700  0.7669 -0.0710
13150SOL    HW142727   0.874   1.512   2.132  0.2309  1.0309 -0.0944
13150SOL    HW242728   0.875   1.643   2.056 -0.3719  0.9388 -0.2641
13151SOL     OW42729   5.750   4.450   4.468 -0.5911 -0.0438 -0.2217
13151SOL    HW142730   5.764   4.389   4.541  2.7143  2.1441  1.2229
13151SOL    HW242731   5.673   4.501   4.494 -0.5966 -0.5416  0.8050
13152SOL     OW42732   0.219   8.027   2.411  0.1141 -0.4827  0.0878
13152SOL    HW142733   0.149   8.091   2.421  0.5948  0.3679 -1.5546
13152SOL    HW242734   0.267   8.056   2.333  1.6175 -1.6655  0.5128
13153SOL     OW42735   3.657   2.594   3.128  0.2805  0.2224  0.4273
13153SOL    HW142736   3.650   2.557   3.216 -2.4217 -1.8157 -0.5053
13153SOL    HW242737   3.579   2.650   3.120 -0.3405 -0.7949 -1.1093
13154SOL     OW42738   6.553   9.259   5.812  0.2805  0.1871  0.3756
13154SOL    HW142739   6.624   9.267   5.748  0.6828 -0.0869  0.7832
13154SOL    HW242740   6.474   9.250   5.759  0.2867  2.4221 -0.1278
13155SOL     OW42741   9.506   2.443   6.687  0.3470  0.2442 -0.6248
13155SOL    HW142742   9.512   2.405   6.600 -1.1952  1.2089 -1.1951
13155SOL    HW242743   9.550   2.528   6.680 -0.1084  0.4912 -0.5886
13156SOL     OW42744   0.943   0.821   8.438  0.3632 -0.1741  0.0005
13156SOL    HW142745   1.030   0.859   8.448 -0.0221  0.5294  0.7691
13156SOL    HW242746   0.887   0.875   8.493 -0.6562 -0.2967 -0.8926
13157SOL     OW42747   5.980   3.516   4.886 -0.4775  0.4315 -0.1233
13157SOL    HW142748   5.891   3.526   4.922 -0.3749  1.2272 -0.0670
13157SOL    HW242749   5.967   3.516   4.791 -0.4697  1.4231 -0.1371
13158SOL     OW42750   2.644   7.311   3.454  0.1809  1.0806  0.1165
13158SOL    HW142751   2.633   7.264   3.371  0.3634  0.9817  0.1476
13158SOL    HW242752   2.617   7.401   3.435 -2.1284  0.5497  0.5472
13159SOL     OW42753   5.703   2.873   1.406  0.3225 -0.4218  0.2702
13159SOL    HW142754   5.655   2.923   1.472 -0.1487 -1.1941  0.5147
13159SOL    HW242755   5.650   2.880   1.327 -0.2972 -1.4240  0.5870
13160SOL     OW42756   2.955   4.766   2.236  0.4277  0.9152 -0.5780
13160SOL    HW142757   2.988   4.762   2.326  0.5849  0.3239 -0.6597
13160SOL    HW242758   2.902   4.846   2.234 -0.1172  0.5842  0.2172
13161SOL     OW42759   8.468   9.076   5.588 -0.7163  0.0811 -0.3456
13161SOL    HW142760   8.522   8.997   5.578 -0.0806  0.2831  1.1764
13161SOL    HW242761   8.397   9.065   5.525 -0.7981 -1.8506  0.0226
13162SOL     OW42762   5.763   0.134   1.250  0.3088 -0.4704 -0.5416
13162SOL    HW142763   5.681   0.114   1.206  1.2081 -1.7529 -1.7474
13162SOL    HW242764   5.782   0.055   1.301  0.7873 -0.1943 -0.2882
13163SOL     OW42765  10.268   6.084   6.938  0.2670 -0.3361 -0.3071
13163SOL    HW142766  10.268   6.068   7.032 -2.6322 -0.2028 -0.2187
13163SOL    HW242767  10.215   6.163   6.927  1.5232  0.3333 -1.9906
13164SOL     OW42768   1.064  10.339  10.183  0.2273 -0.2399 -0.1517
13164SOL    HW142769   1.006  10.353  10.258  0.1221  1.9805 -0.5680
13164SOL    HW242770   1.074  10.426  10.144 -1.0581 -1.5298 -3.7365
13165SOL     OW42771   7.176   9.493   7.300 -0.1579 -0.4777 -0.2836
13165SOL    HW142772   7.243   9.540   7.350  2.2268 -1.4795 -2.3413
13165SOL    HW242773   7.188   9.523   7.210 -3.3513  0.1894 -0.6147
13166SOL     OW42774   4.643   5.099   7.045  0.2170 -0.7260  0.9422
13166SOL    HW142775   4.695   5.048   7.107 -1.6343 -2.7506  0.9643
13166SOL    HW242776   4.553   5.090   7.077 -0.2586  2.6160  0.9091
13167SOL     OW42777  10.150   7.926   8.258 -0.4300  0.1631 -0.4321
13167SOL    HW142778  10.239   7.933   8.225  0.1261 -1.1800  0.7082
13167SOL    HW242779  10.157   7.934   8.353 -1.2486 -1.6919 -0.1533
13168SOL     OW42780   2.801   7.987   1.504  0.1893  0.4907 -0.1611
13168SOL    HW142781   2.870   7.921   1.505 -0.6006 -0.3951  2.1604
13168SOL    HW242782   2.834   8.057   1.561 -0.2775  0.6652 -0.1025
13169SOL     OW42783   4.764   7.920  10.195  0.0367 -0.5948  0.1723
13169SOL    HW142784   4.830   7.982  10.163  0.4295 -0.4948  1.1472
13169SOL    HW242785   4.794   7.834  10.163  0.3989 -0.4911  0.2327
13170SOL     OW42786  11.066   7.061  10.665 -0.3251 -0.2293 -0.4134
13170SOL    HW142787  11.000   7.087  10.601 -0.7692 -0.7258 -0.1619
13170SOL    HW242788  11.150   7.077  10.621 -0.6016  0.5950 -0.6589
13171SOL     OW42789   6.445   3.933   1.798  0.1731 -0.3558 -0.4157
13171SOL    HW142790   6.453   3.931   1.893 -0.9698 -0.0217 -0.3054
13171SOL    HW242791   6.351   3.931   1.781  0.3431  0.2422 -1.5284
13172SOL     OW42792   4.037   5.592   3.080 -0.8225  0.3303 -0.4456
13172SOL    HW142793   3.999   5.659   3.023 -0.4132 -0.3668 -1.5703
13172SOL    HW242794   4.104   5.638   3.130 -1.4512  1.0359 -0.2304
13173SOL     OW42795   7.962   5.496   8.593  0.3985  0.1474 -0.6826
13173SOL    HW142796   8.018   5.511   8.669 -0.0529 -0.7004 -0.1715
13173SOL    HW242797   7.881   5.462   8.630  0.3638 -0.7826 -1.5857
13174SOL     OW42798   1.404  11.371   2.631  0.0530 -0.3887 -0.2473
13174SOL    HW142799   1.409  11.458   2.671 -4.1140  0.5925 -1.4089
13174SOL    HW242800   1.432  11.386   2.540 -0.6926 -0.2459 -0.4549
13175SOL     OW42801   5.020   7.088   5.951 -0.2757 -0.1488 -0.4873
13175SOL    HW142802   5.018   6.993   5.950  1.2100 -0.3243  2.4770
13175SOL    HW242803   5.087   7.111   5.887  1.3674 -1.2914  0.7575
13176SOL     OW42804   8.262   6.052   7.311  0.0033  0.0262 -0.4918
13176SOL    HW142805   8.213   5.971   7.298  1.2332 -1.2400  1.9466
13176SOL    HW242806   8.353   6.024   7.318  0.5166  1.6790 -0.0755
13177SOL     OW42807   5.630   5.220   6.641 -0.2612 -0.2664 -0.4554
13177SOL    HW142808   5.707   5.262   6.603 -0.1519 -2.2039 -2.5809
13177SOL    HW242809   5.557   5.276   6.617  0.3761  1.5742  1.5428
13178SOL     OW42810   6.211   4.698   2.012 -0.1878 -0.4238  0.1902
13178SOL    HW142811   6.255   4.615   2.029  0.3488 -0.3012 -0.5225
13178SOL    HW242812   6.124   4.672   1.980 -1.1351 -0.6473  2.7617
13179SOL     OW42813   4.729   7.333  10.362 -0.4310  0.5149 -0.3715
13179SOL    HW142814   4.765   7.387  10.432  0.1248  1.8968 -1.6796
13179SOL    HW242815   4.797   7.332  10.295 -1.1921 -0.2724 -1.1581
13180SOL     OW42816   6.702  11.307   5.947 -0.1726 -0.2189 -0.1637
13180SOL    HW142817   6.608  11.321   5.950 -0.1848 -0.1717 -0.6568
13180SOL    HW242818   6.741  11.392   5.967 -0.2430  0.4638 -2.5935
13181SOL     OW42819   7.720   2.984   7.799  0.0357  0.0408 -0.2884
13181SOL    HW142820   7.712   2.907   7.855  2.5160  0.3539  0.5939
13181SOL    HW242821   7.811   2.983   7.768  0.3455  2.9184  0.2538
13182SOL     OW42822   4.170   9.665   1.109 -0.1194 -0.1319  0.5029
13182SOL    HW142823   4.176   9.603   1.037 -0.3922 -0.2245  0.5573
13182SOL    HW242824   4.221   9.741   1.080  0.3874 -0.4621  0.5230
13183SOL     OW42825   5.549   0.656   9.640  0.0793  0.3176 -0.1864
13183SOL    HW142826   5.499   0.737   9.643 -0.1678  0.1787 -0.4791
13183SOL    HW242827   5.622   0.674   9.581 -0.6675 -0.0451 -1.2698
13184SOL     OW42828   2.245   2.027   4.736  0.5961  0.2541 -0.1466
13184SOL    HW142829   2.322   2.001   4.786  1.5680 -0.8034 -2.0716
13184SOL    HW242830   2.242   1.964   4.663 -1.2182  1.1966 -0.9403
13185SOL     OW42831   8.365   1.113   9.995 -0.4270  0.1128  0.0086
13185SOL    HW142832   8.367   1.018  10.008  0.0849  0.2743  1.2778
13185SOL    HW242833   8.272   1.135   9.989 -0.6036 -0.3141  1.0236
13186SOL     OW42834   1.819   2.941   5.989 -0.1247  0.1240  0.1375
13186SOL    HW142835   1.892   2.908   5.935  1.2650 -0.2712  2.1480
13186SOL    HW242836   1.841   3.032   6.006  0.8388 -0.4294  2.1236
13187SOL     OW42837   9.944   0.414   0.666  0.6911 -0.0056 -0.1615
13187SOL    HW142838   9.917   0.494   0.712  0.2429  0.9117 -1.9044
13187SOL    HW242839  10.040   0.413   0.674  0.7966  1.2541 -0.8874
13188SOL     OW42840   8.637   1.598   1.205  0.0675  0.4019 -0.6390
13188SOL    HW142841   8.626   1.690   1.231 -1.5302 -0.1357  0.8261
13188SOL    HW242842   8.658   1.552   1.287  0.2365 -0.6323 -1.2401
13189SOL     OW42843   8.336   9.433   0.574  0.3445  0.0785 -0.2018
13189SOL    HW142844   8.310   9.412   0.663 -0.3479  0.8033 -0.2265
13189SOL    HW242845   8.432   9.437   0.576  0.3267  0.1287  0.5084
13190SOL     OW42846   5.029  10.450  10.715  0.1793 -0.4465  0.2188
13190SOL    HW142847   4.945  10.424  10.753 -0.6230  0.1469 -1.0763
13190SOL    HW242848   5.026  10.418  10.625  1.4444 -0.5957  0.2093
13191SOL     OW42849  10.885   9.645   6.978  0.1370  0.1624  0.8967
13191SOL    HW142850  10.866   9.555   6.949 -0.1190 -0.0121  1.5922
13191SOL    HW242851  10.964   9.637   7.031  1.0183  0.5908 -0.3170
13192SOL     OW42852  11.002   9.193   1.723  0.8006  0.5858 -0.0557
13192SOL    HW142853  11.038   9.280   1.705  1.2529  0.6878  1.1731
13192SOL    HW242854  11.060   9.158   1.791 -0.2662 -0.0545  0.5544
13193SOL     OW42855   0.863   5.172   7.572 -0.1558  0.6826  0.2576
13193SOL    HW142856   0.895   5.201   7.658  1.6357 -0.8007  0.1531
13193SOL    HW242857   0.940   5.176   7.516 -0.7821 -0.4952 -0.7172
13194SOL     OW42858  11.139   0.060   0.352 -0.2875 -0.0748 -0.3978
13194SOL    HW142859  11.145  -0.033   0.330 -0.9881 -0.2718  0.2064
13194SOL    HW242860  11.208   0.073   0.417  0.2522 -0.0098 -0.9678
13195SOL     OW42861   1.878  10.572   3.974  0.1469  0.0403  0.1317
13195SOL    HW142862   1.826  10.643   3.936 -0.0910 -0.9058 -1.3899
13195SOL    HW242863   1.829  10.546   4.052 -0.0476  1.1547  0.4029
13196SOL     OW42864   8.491   5.526   0.312 -0.3460  0.1269 -0.9354
13196SOL    HW142865   8.534   5.441   0.305 -1.9490 -0.7457 -0.7267
13196SOL    HW242866   8.507   5.554   0.402 -1.0882 -0.6922 -0.5350
13197SOL     OW42867   2.281   7.663  10.269  0.4920  0.3244  0.0330
13197SOL    HW142868   2.282   7.653  10.364 -1.1900  2.9405  0.4279
13197SOL    HW242869   2.372   7.684  10.246  1.2594 -1.9286  0.7634
13198SOL     OW42870   7.364   0.259   0.666 -0.0516  0.7949 -0.4641
13198SOL    HW142871   7.391   0.347   0.636  0.2652  0.0733 -2.4590
13198SOL    HW242872   7.285   0.240   0.615  0.2339 -0.3233 -0.5015
13199SOL     OW42873   6.706   2.374  10.605  0.1089  0.2276 -0.1302
13199SOL    HW142874   6.780   2.392  10.662 -1.4332  0.9989  1.7573
13199SOL    HW242875   6.742   2.376  10.516  2.3904  0.1175  0.7433
13200SOL     OW42876   8.147   7.560   2.140 -0.4062  0.5048  0.1567
13200SOL    HW142877   8.072   7.530   2.191  0.3527 -0.7405  0.5928
13200SOL    HW242878   8.186   7.479   2.106  1.0990  1.0849  0.4487
13201SOL     OW42879   5.880   4.938   6.187 -0.3499 -0.0696 -0.5302
13201SOL    HW142880   5.801   4.964   6.139  0.1150  1.0265 -0.7381
13201SOL    HW242881   5.851   4.928   6.278 -0.6803  0.6087 -0.5542
13202SOL     OW42882   2.768   6.545   2.719 -0.0144  0.4541  0.2994
13202SOL    HW142883   2.676   6.529   2.740  0.2713 -0.8711  0.6261
13202SOL    HW242884   2.766   6.596   2.638 -1.0273 -0.0911 -0.0312
13203SOL     OW42885   2.125   5.350   2.298  0.3226  0.2065 -0.4394
13203SOL    HW142886   2.168   5.318   2.219  0.0045  0.8544 -0.8844
13203SOL    HW242887   2.153   5.441   2.306 -3.0679  1.6130 -2.3468
13204SOL     OW42888   6.433   9.988   1.615  0.0574  0.5004  0.1323
13204SOL    HW142889   6.434  10.059   1.552 -0.9830 -0.0650 -0.5447
13204SOL    HW242890   6.345   9.953   1.611  1.2578 -2.7785 -1.8208
13205SOL     OW42891  10.629   7.818   0.807  0.1883 -0.1336  0.0211
13205SOL    HW142892  10.549   7.779   0.843  0.3919 -1.2076 -0.6475
13205SOL    HW242893  10.690   7.745   0.801  1.0755  0.5875  0.0930
13206SOL     OW42894   1.129   5.752   7.906 -0.3328 -0.2921 -0.1276
13206SOL    HW142895   1.167   5.664   7.903 -1.9299 -0.9826 -1.0256
13206SOL    HW242896   1.138   5.785   7.817 -0.3562  0.2086  0.0524
13207SOL     OW42897   5.263   3.984   9.962  0.3919  0.3991 -0.2084
13207SOL    HW142898   5.209   4.001  10.040 -1.3331 -0.7753 -1.0857
13207SOL    HW242899   5.321   3.912   9.988 -1.0043 -0.8163 -0.3173
13208SOL     OW42900   5.465   3.605   0.837  0.4742 -0.4447 -0.0364
13208SOL    HW142901   5.418   3.544   0.779 -0.3047  0.3936 -0.3061
13208SOL    HW242902   5.499   3.672   0.778  1.5991 -0.7800  0.2217
13209SOL     OW42903   6.298  11.324   8.017 -0.1358 -0.3792  0.3905
13209SOL    HW142904   6.283  11.245   8.070  0.4342 -1.1426 -0.5585
13209SOL    HW242905   6.360  11.296   7.950  0.1757  0.9283  0.1219
13210SOL     OW42906   6.010   4.472   4.666 -0.5013  0.2886  0.1904
13210SOL    HW142907   6.060   4.448   4.744  0.0108 -0.4862 -0.3508
13210SOL    HW242908   5.919   4.454   4.689 -0.1897 -1.9309 -0.0306
13211SOL     OW42909   2.765   9.021   7.076 -0.4496 -0.0723  0.7871
13211SOL    HW142910   2.684   8.997   7.121 -1.8053  0.5610 -1.1746
13211SOL    HW242911   2.812   8.938   7.067 -1.5754 -0.7234  0.6619
13212SOL     OW42912   2.162   8.869   7.938 -0.3450  0.4131 -0.1604
13212SOL    HW142913   2.251   8.905   7.947 -0.2792  0.2806 -0.2806
13212SOL    HW242914   2.122   8.920   7.868 -0.0706 -0.1006 -0.6990
13213SOL     OW42915   2.997   6.129   2.757 -0.2070  0.0105 -0.2557
13213SOL    HW142916   3.022   6.107   2.847 -2.8657 -1.5146  0.1929
13213SOL    HW242917   2.983   6.224   2.758  1.2425  0.2447  0.4978
13214SOL     OW42918   2.192   0.092   6.640  0.0387  0.3865  0.1228
13214SOL    HW142919   2.186   0.177   6.597  1.7250 -0.1381 -1.2660
13214SOL    HW242920   2.238   0.036   6.577  3.3038 -0.2481  2.7699
13215SOL     OW42921   3.994  10.920   7.639 -0.1103  0.1337 -0.2297
13215SOL    HW142922   4.062  10.855   7.624 -1.4327 -1.5620  0.7746
13215SOL    HW242923   4.012  10.955   7.726 -0.1704  0.1287 -0.2151
13216SOL     OW42924  11.275   8.676   6.902 -0.1392  0.4704 -0.2672
13216SOL    HW142925  11.206   8.668   6.835 -1.0295  0.6369  0.6111
13216SOL    HW242926  11.333   8.602   6.884 -0.2058  0.6667 -1.4000
13217SOL     OW42927   0.051   2.560   2.073 -0.5093 -0.1962  0.1488
13217SOL    HW142928  -0.018   2.609   2.028 -0.3315 -1.5172 -1.6501
13217SOL    HW242929   0.084   2.621   2.140 -2.4973  0.9201  0.1779
13218SOL     OW42930   0.984   8.041   1.734  0.0827 -0.0428  0.5208
13218SOL    HW142931   1.069   7.999   1.739  1.2898  1.6098 -2.8513
13218SOL    HW242932   0.996   8.126   1.777  0.2394  0.2717 -0.1272
13219SOL     OW42933   2.478   5.577   2.555  0.3890  0.2507 -0.0803
13219SOL    HW142934   2.385   5.595   2.564 -0.2023 -2.1545 -0.5666
13219SOL    HW242935   2.521   5.653   2.592 -1.7111  2.6352 -2.1693
13220SOL     OW42936   1.363   9.356   4.590 -1.0138 -0.2502  0.2396
13220SOL    HW142937   1.371   9.264   4.615 -2.2869 -0.1644  1.0392
13220SOL    HW242938   1.272   9.378   4.608 -1.0605  0.8282 -1.1424
13221SOL     OW42939   8.967   3.270   7.713 -0.1696 -0.1721  0.5189
13221SOL    HW142940   8.886   3.226   7.687  0.3227 -0.5792 -0.3551
13221SOL    HW242941   8.963   3.272   7.808 -0.6884 -1.1798  0.5291
13222SOL     OW42942  10.642   6.906   2.821  0.1971 -0.9464 -0.2771
13222SOL    HW142943  10.634   6.816   2.853  0.7943 -0.9866 -0.2322
13222SOL    HW242944  10.707   6.946   2.879  0.4205 -0.6774 -0.7107
13223SOL     OW42945  10.053   0.896   1.035 -0.1574 -0.2239 -0.3207
13223SOL    HW142946  10.103   0.976   1.048 -0.3097 -0.2992  0.8464
13223SOL    HW242947   9.971   0.924   0.994 -0.1950  0.2187  0.0530
13224SOL     OW42948  11.065   9.618   7.572 -0.1865 -0.1214  0.0034
13224SOL    HW142949  11.001   9.688   7.585  0.6803  0.6840  0.0456
13224SOL    HW242950  11.070   9.574   7.657 -1.9380 -1.3102 -0.4669
13225SOL     OW42951   6.546   2.872   8.741  0.2153 -0.2621  0.4608
13225SOL    HW142952   6.633   2.903   8.715 -0.4405 -0.5354 -2.4529
13225SOL    HW242953   6.495   2.951   8.756  0.9623 -0.1006  2.4114
13226SOL     OW42954   5.191   6.797   3.822 -0.0515  0.5642 -0.2665
13226SOL    HW142955   5.191   6.715   3.870 -0.4591  0.9834  0.4671
13226SOL    HW242956   5.282   6.808   3.793  0.0724  0.0220 -0.0887
13227SOL     OW42957   9.803   5.885   3.180 -0.8162  0.1415 -0.1207
13227SOL    HW142958   9.822   5.868   3.272  0.6844  0.4328 -0.3491
13227SOL    HW242959   9.728   5.945   3.181 -1.5935 -0.8291  0.8567
13228SOL     OW42960   4.174   6.303  10.531  0.0172  0.3034 -0.0103
13228SOL    HW142961   4.154   6.390  10.498 -0.7092  0.1386 -0.0062
13228SOL    HW242962   4.252   6.276  10.482 -0.3723  0.5258 -0.7615
13229SOL     OW42963  10.026   7.353  10.812 -0.5001  0.0907  0.7562
13229SOL    HW142964  10.089   7.413  10.852  2.5229 -1.9211 -0.6736
13229SOL    HW242965  10.053   7.346  10.721 -2.0621 -1.8344  0.3685
13230SOL     OW42966   4.641   2.661   0.229 -0.4259 -0.2659 -0.0933
13230SOL    HW142967   4.572   2.599   0.206 -0.8008  0.1635 -0.1524
13230SOL    HW242968   4.714   2.607   0.260 -0.5165 -0.7641 -0.7359
13231SOL     OW42969   7.793   2.166   6.404 -0.2784 -0.3882  0.0148
13231SOL    HW142970   7.717   2.220   6.381  0.1403  1.3229  2.3113
13231SOL    HW242971   7.843   2.159   6.323 -1.6856  0.4483 -0.9618
13232SOL     OW42972   3.291   8.500   3.104 -0.3254  0.6975 -0.3330
13232SOL    HW142973   3.314   8.464   3.019  0.5722  1.1277 -0.2773
13232SOL    HW242974   3.196   8.511   3.100 -0.3691  0.1207 -1.0422
13233SOL     OW42975   0.112   6.114   9.979  0.2863 -0.1481 -0.4344
13233SOL    HW142976   0.190   6.106  10.034  0.5466  1.0362 -0.6063
13233SOL    HW242977   0.051   6.165  10.031 -0.5142 -1.3217 -0.1834
13234SOL     OW42978   1.890   5.747   2.782  0.1085 -0.0425 -0.0409
13234SOL    HW142979   1.945   5.737   2.860 -1.0877  1.1640  1.0143
13234SOL    HW242980   1.848   5.662   2.770  0.1858 -0.1919  0.7324
13235SOL     OW42981   2.691   9.013   0.398 -0.2978 -0.3253  0.4075
13235SOL    HW142982   2.737   8.957   0.460  1.7405  1.1123  0.2658
13235SOL    HW242983   2.759   9.063   0.355 -1.9766  1.8482  0.0984
13236SOL     OW42984   3.643   3.475  11.191 -0.0463 -0.0858  0.4770
13236SOL    HW142985   3.605   3.542  11.247  1.7080 -0.3996  2.1406
13236SOL    HW242986   3.704   3.523  11.134  1.0125 -0.1939  1.4882
13237SOL     OW42987   9.570   7.568  10.809 -0.2976 -0.6615  0.0228
13237SOL    HW142988   9.596   7.478  10.791  0.1978 -0.4012 -0.6125
13237SOL    HW242989   9.651   7.618  10.798 -0.8263  0.0223 -0.8646
13238SOL     OW42990   6.820   3.681   8.901  0.8086  0.9580  0.2009
13238SOL    HW142991   6.758   3.738   8.948  0.7799  0.1719  1.1545
13238SOL    HW242992   6.767   3.607   8.872  0.5128  2.0923 -2.4043
13239SOL     OW42993   1.661   2.517   4.852 -0.5687 -0.4239  0.5492
13239SOL    HW142994   1.581   2.484   4.811  0.0380 -0.5221 -0.5941
13239SOL    HW242995   1.706   2.439   4.883 -1.0007 -0.3534  1.4009
13240SOL     OW42996   4.837   4.910   5.678 -0.0998 -0.1636  0.5364
13240SOL    HW142997   4.866   4.845   5.741  0.5250  1.0088  1.5126
13240SOL    HW242998   4.797   4.979   5.731  0.6955  0.9888 -0.2966
13241SOL     OW42999   2.961  11.098   2.599  0.4134 -0.3083  0.4296
13241SOL    HW143000   3.001  11.146   2.672  0.5055 -0.7161  0.6484
13241SOL    HW243001   3.032  11.088   2.535  0.0381  1.0621 -0.2316
13242SOL     OW43002   2.634  10.582   7.615 -0.1938  0.6133  0.4482
13242SOL    HW143003   2.645  10.496   7.655 -0.4112  0.3461 -0.0578
13242SOL    HW243004   2.635  10.565   7.520  3.5924  1.5921  0.1538
13243SOL     OW43005   9.860  10.698  11.346  0.1575  0.3926  0.4832
13243SOL    HW143006   9.915  10.776  11.359 -0.3092  0.8294 -0.1499
13243SOL    HW243007   9.801  10.722  11.274 -0.6432 -0.1921  0.9373
13244SOL     OW43008   0.079   6.136   2.968 -0.0313  0.1011  0.5141
13244SOL    HW143009   0.112   6.225   2.978 -2.1871  0.9978  0.3045
13244SOL    HW243010   0.022   6.124   3.044  0.5152 -1.2618  0.7362
13245SOL     OW43011   8.085   9.463   0.996  0.7354 -0.2896 -0.4135
13245SOL    HW143012   8.073   9.539   0.939  2.1105 -1.4333 -2.3520
13245SOL    HW243013   8.135   9.496   1.071 -0.4042  1.0757 -0.2034
13246SOL     OW43014   3.990   9.506  11.215  0.5630  0.3949 -0.1370
13246SOL    HW143015   3.969   9.531  11.125  0.7463 -1.0237 -0.6039
13246SOL    HW243016   3.917   9.450  11.242  0.5683  0.7133  0.5598
13247SOL     OW43017   5.441   8.409   2.896 -0.0646  0.1344 -0.2835
13247SOL    HW143018   5.497   8.483   2.920  0.7662 -0.3946 -0.5435
13247SOL    HW243019   5.392   8.388   2.976 -0.9420  1.4886 -0.4338
13248SOL     OW43020  11.049   1.918   4.557  0.7946  0.2571 -0.2861
13248SOL    HW143021  11.076   1.980   4.489  0.0763 -0.7572 -1.5349
13248SOL    HW243022  11.122   1.856   4.564  0.9727  0.5000  0.0643
13249SOL     OW43023   1.793   8.901   2.685  0.2138 -0.4750  0.2021
13249SOL    HW143024   1.827   8.970   2.629 -0.4097  0.5922  1.0917
13249SOL    HW243025   1.764   8.833   2.624  0.1236  0.3804 -0.7401
13250SOL     OW43026   9.175   5.491   4.561  0.0049  0.7434  0.1819
13250SOL    HW143027   9.120   5.418   4.590 -1.1676  1.8204  0.7511
13250SOL    HW243028   9.164   5.494   4.466  1.5426 -0.9534 -0.1079
13251SOL     OW43029   2.194   8.023  10.371  0.8355 -0.4005  0.2067
13251SOL    HW143030   2.112   8.064  10.344  0.0159 -2.2712 -0.3431
13251SOL    HW243031   2.202   8.043  10.464  0.5884  1.1254 -0.0779
13252SOL     OW43032   0.338   1.276   5.434  0.1784 -0.2633 -0.3131
13252SOL    HW143033   0.423   1.233   5.445  1.1259  1.3807 -0.8148
13252SOL    HW243034   0.340   1.312   5.345  0.1345  2.1262  0.5567
13253SOL     OW43035   9.690   5.963   7.613  0.1369  0.0640 -0.2583
13253SOL    HW143036   9.717   5.912   7.689  0.0789  0.7906  0.2634
13253SOL    HW243037   9.750   5.936   7.544 -0.6292 -1.5347 -0.3207
13254SOL     OW43038   0.382   8.223   4.651  0.2115 -0.2658  0.2743
13254SOL    HW143039   0.293   8.189   4.637 -0.5625  0.8950  1.9856
13254SOL    HW243040   0.370   8.294   4.714  2.4389 -0.3787  0.8871
13255SOL     OW43041   7.424   3.723   1.039 -0.2376  0.4386 -0.1268
13255SOL    HW143042   7.455   3.813   1.045 -1.0358  0.8112 -1.3383
13255SOL    HW243043   7.484   3.673   1.095  0.9866  1.5267 -0.4358
13256SOL     OW43044   0.863   0.056   8.898  0.3031 -0.1880  0.7409
13256SOL    HW143045   0.779   0.098   8.886  0.5709  0.4567  1.1008
13256SOL    HW243046   0.851   0.001   8.976  0.2793  0.0792  0.9280
13257SOL     OW43047   8.085   6.911   1.791  0.6530  0.5119 -0.4594
13257SOL    HW143048   8.137   6.843   1.748 -1.7317 -0.1945 -2.4732
13257SOL    HW243049   8.060   6.971   1.720 -0.0107  1.6416  0.6903
13258SOL     OW43050   8.821  10.308   2.844  0.0360 -0.3317 -0.2303
13258SOL    HW143051   8.827  10.229   2.791  1.5202 -1.6610  1.7360
13258SOL    HW243052   8.741  10.297   2.895 -0.5594  0.1983 -1.0258
13259SOL     OW43053  10.004   6.526   2.901  0.5092  0.3648  0.2451
13259SOL    HW143054   9.979   6.558   2.987  0.3559 -0.5523  0.5550
13259SOL    HW243055  10.081   6.471   2.916  1.5161  1.5386 -0.4354
13260SOL     OW43056   6.211   6.285  11.175 -0.5496 -0.2558  0.1172
13260SOL    HW143057   6.250   6.359  11.220 -0.5818  0.4822 -1.0180
13260SOL    HW243058   6.159   6.325  11.105 -2.4143 -1.2520  0.8659
13261SOL     OW43059  10.808   4.801  10.979 -0.5651  0.4024  0.3436
13261SOL    HW143060  10.722   4.841  10.975 -0.4367  0.7185  0.7082
13261SOL    HW243061  10.808   4.751  11.061 -1.2352 -1.5379 -0.7680
13262SOL     OW43062   7.824   4.233  11.381 -0.2691 -0.0983  0.4138
13262SOL    HW143063   7.828   4.201  11.291 -3.8481 -0.2525  0.1794
13262SOL    HW243064   7.814   4.154  11.434  1.2131  0.0336  0.9277
13263SOL     OW43065   4.931   1.670   6.211 -0.9321 -0.1177 -0.0595
13263SOL    HW143066   4.882   1.594   6.181 -1.4275  0.6734 -1.3352
13263SOL    HW243067   4.874   1.745   6.193  0.3473  0.7401 -0.7627
13264SOL     OW43068  10.924   6.352   8.691  0.6815  0.3003  0.4607
13264SOL    HW143069  10.875   6.273   8.716  1.2601 -0.4278 -0.6705
13264SOL    HW243070  10.889   6.420   8.749 -2.2333  0.0046 -0.7554
13265SOL     OW43071  11.074   4.291   2.911 -0.1669 -0.1367  0.1693
13265SOL    HW143072  11.091   4.375   2.952  0.1374  0.7025 -1.5547
13265SOL    HW243073  11.007   4.249   2.966  1.2027  0.2708  2.2332
13266SOL     OW43074   0.911   2.602   9.003 -0.1265 -0.6831  0.7503
13266SOL    HW143075   0.878   2.514   8.986  0.6088 -1.1156  1.5171
13266SOL    HW243076   0.973   2.619   8.932 -1.4788 -0.1221 -0.3269
13267SOL     OW43077  10.246   2.575   4.417 -0.3639  0.6824  0.0056
13267SOL    HW143078  10.234   2.544   4.506  0.5365 -0.2853 -0.1923
13267SOL    HW243079  10.324   2.630   4.420  0.7238 -0.7688 -0.4849
13268SOL     OW43080   7.127   6.355   4.161  0.2794 -0.4541  0.2496
13268SOL    HW143081   7.032   6.339   4.157 -0.1331  1.7488 -0.3937
13268SOL    HW243082   7.166   6.269   4.153 -1.6477 -1.2387 -2.0925
13269SOL     OW43083   3.064   0.208   5.154  0.2338  0.0074  0.3634
13269SOL    HW143084   3.072   0.257   5.073  3.7387 -1.5399 -0.4188
13269SOL    HW243085   3.003   0.138   5.134  1.2935 -0.5360 -1.1326
13270SOL     OW43086   0.688   1.094   3.169  0.5008  0.1414  0.4545
13270SOL    HW143087   0.671   1.142   3.088  0.6804 -0.0088  0.3260
13270SOL    HW243088   0.640   1.142   3.236 -0.5059 -0.3438  0.0924
13271SOL     OW43089   6.720   9.476   0.063 -0.2787 -0.8584  0.3213
13271SOL    HW143090   6.746   9.567   0.080 -0.0225 -0.8958  0.1404
13271SOL    HW243091   6.690   9.476  -0.028  0.6939 -1.1589 -0.0143
13272SOL     OW43092   5.258   7.832   8.103 -0.7635  0.6131  0.0426
13272SOL    HW143093   5.203   7.796   8.173 -0.1320  0.4347  0.4607
13272SOL    HW243094   5.307   7.902   8.145  2.5306 -1.9341  0.9144
13273SOL     OW43095   4.884   1.986  10.996  0.0346 -0.2997  0.3816
13273SOL    HW143096   4.961   1.980  11.052  1.0802  1.1979 -0.8134
13273SOL    HW243097   4.821   2.038  11.047  0.3224 -0.3828  0.8228
13274SOL     OW43098   3.329   1.671  10.061 -0.3899  0.6702 -0.3970
13274SOL    HW143099   3.316   1.659  10.155  0.9499  2.8055  0.1335
13274SOL    HW243100   3.268   1.741  10.037 -1.9591 -1.0003 -1.5415
13275SOL     OW43101   9.573   7.487   6.434  0.3226 -0.8061  0.4533
13275SOL    HW143102   9.639   7.552   6.408 -1.1321  0.5811  0.0619
13275SOL    HW243103   9.612   7.403   6.410  1.7587 -0.0053 -0.1797
13276SOL     OW43104   7.501   7.920  10.256  0.1609  0.2197  0.2021
13276SOL    HW143105   7.450   7.857  10.206 -0.2808 -1.3808  2.4979
13276SOL    HW243106   7.447   7.999  10.256 -0.6374 -0.3065 -0.3714
13277SOL     OW43107  11.025   6.857  10.123  0.4070  0.3078  0.3818
13277SOL    HW143108  11.033   6.945  10.160  0.6184 -0.1495  1.4533
13277SOL    HW243109  10.980   6.807  10.190  0.0095 -0.3293 -0.3579
13278SOL     OW43110   9.898   8.571   8.701 -0.2561 -0.1579 -0.3048
13278SOL    HW143111   9.893   8.594   8.608  1.3295 -1.6883 -0.8333
13278SOL    HW243112   9.911   8.476   8.701  2.3928  0.0881  1.3276
13279SOL     OW43113   0.147   8.035   4.227 -0.0115  0.3854  0.0709
13279SOL    HW143114   0.169   8.007   4.138 -1.1230  0.5324 -0.2667
13279SOL    HW243115   0.069   8.089   4.216 -0.3058  0.2036  1.1620
13280SOL     OW43116   0.352   5.761   0.444  0.1289  0.1940 -0.3875
13280SOL    HW143117   0.265   5.722   0.437  0.3842 -0.1300 -4.2403
13280SOL    HW243118   0.339   5.851   0.415  0.5789  1.3093  2.5629
13281SOL     OW43119   5.998   1.097   1.355  0.6951  0.0704 -0.6094
13281SOL    HW143120   5.950   1.036   1.299  0.8144 -0.7167  0.1399
13281SOL    HW243121   6.056   1.042   1.407  0.1014  0.7254  0.7786
13282SOL     OW43122   0.579   6.586   3.301  0.1143  0.0093  0.1195
13282SOL    HW143123   0.584   6.681   3.289 -2.9648  0.0595 -2.1966
13282SOL    HW243124   0.662   6.553   3.268  1.0702  1.8509  0.5561
13283SOL     OW43125   7.620  10.508  10.271 -0.2565 -0.5041  0.2146
13283SOL    HW143126   7.639  10.551  10.188 -0.5726  1.8898  1.2991
13283SOL    HW243127   7.644  10.417  10.257 -1.3623 -0.4408 -2.8559
13284SOL     OW43128   6.395   6.686   8.406  0.0493  0.3330 -0.4491
13284SOL    HW143129   6.396   6.772   8.449 -1.0696  0.4854 -0.6835
13284SOL    HW243130   6.321   6.690   8.346  0.0773 -0.7456 -0.5803
13285SOL     OW43131   8.379   7.304   0.477  0.2224 -0.3091 -0.1356
13285SOL    HW143132   8.469   7.271   0.472  0.4661  0.0972  1.1804
13285SOL    HW243133   8.336   7.265   0.401  1.8151  0.4714 -1.5142
13286SOL     OW43134   5.133   2.880   4.433  0.2067 -0.6571 -0.4418
13286SOL    HW143135   5.223   2.849   4.421  1.0825  1.9702 -1.3925
13286SOL    HW243136   5.125   2.894   4.527  0.2165 -2.3350 -0.1505
13287SOL     OW43137  10.529   7.744   7.983  0.2142 -0.3200 -0.0025
13287SOL    HW143138  10.514   7.683   7.910 -1.6162 -1.7458  1.4553
13287SOL    HW243139  10.487   7.825   7.956 -0.4567 -0.8378 -0.5411
13288SOL     OW43140   3.635   2.176   2.006  0.4733  0.0707 -0.0932
13288SOL    HW143141   3.661   2.084   1.994  1.4317  0.5486 -1.9946
13288SOL    HW243142   3.694   2.209   2.074  0.7160 -0.4810 -0.0271
13289SOL     OW43143   3.588   9.690   1.701  0.5645  0.2162  0.0050
13289SOL    HW143144   3.550   9.637   1.771  1.3045  0.7615  0.8355
13289SOL    HW243145   3.651   9.633   1.658  0.1293 -0.1111 -0.2056
13290SOL     OW43146   4.499  11.253   8.133  0.9467  0.5133  0.0351
13290SOL    HW143147   4.540  11.208   8.206 -2.1800 -0.9366  1.0793
13290SOL    HW243148   4.551  11.229   8.057  1.2949 -2.2788  1.0500
13291SOL     OW43149   9.239   6.655  11.088  0.2151  0.4188 -0.0783
13291SOL    HW143150   9.224   6.638  11.181  1.5929 -0.0473  0.0809
13291SOL    HW243151   9.181   6.728  11.067  1.3482  1.8999  1.6539
13292SOL     OW43152   0.719   1.412   5.627  0.7470 -0.4003  0.2173
13292SOL    HW143153   0.764   1.333   5.597  0.3167 -0.3329 -0.6571
13292SOL    HW243154   0.743   1.478   5.562  0.5858  0.0196  0.5841
13293SOL     OW43155   5.963   7.410   5.808  0.1068 -0.2053  0.0177
13293SOL    HW143156   5.995   7.336   5.859  1.6367  0.8477  0.6526
13293SOL    HW243157   6.024   7.481   5.827 -0.1096  0.6440 -2.1817
13294SOL     OW43158  10.977   9.423   3.566  0.4076 -0.0497  0.3482
13294SOL    HW143159  10.906   9.479   3.533  0.8819  0.2552 -0.1558
13294SOL    HW243160  11.000   9.368   3.492 -0.1954 -1.0829  0.8964
13295SOL     OW43161   7.261   2.663   0.225  0.4246 -0.0447 -0.3626
13295SOL    HW143162   7.212   2.718   0.286 -0.4044 -1.0672 -0.0974
13295SOL    HW243163   7.205   2.656   0.148  0.5804 -0.4321 -0.4425
13296SOL     OW43164   4.651  10.997   6.389 -0.1062 -0.7597 -0.1541
13296SOL    HW143165   4.557  10.987   6.381  0.0210 -0.5474 -2.8324
13296SOL    HW243166   4.683  11.003   6.299  2.2178  1.4046  0.6764
13297SOL     OW43167   0.768   8.560   9.031 -0.4654 -0.6031  0.0261
13297SOL    HW143168   0.745   8.540   9.122 -0.4154 -1.8048 -0.2114
13297SOL    HW243169   0.743   8.481   8.982 -1.7356  0.5133 -1.2176
13298SOL     OW43170   3.717   4.597   9.503  0.0017  0.0787 -0.7394
13298SOL    HW143171   3.711   4.655   9.579  0.2260  1.1865 -1.5418
13298SOL    HW243172   3.772   4.645   9.440  3.8676 -2.6877  0.1123
13299SOL     OW43173   5.782   6.914   9.920 -0.3191  0.1372  0.2438
13299SOL    HW143174   5.759   7.000   9.883 -0.9302 -0.5118 -0.9268
13299SOL    HW243175   5.846   6.878   9.858 -2.1326 -1.4077 -0.8435
13300SOL     OW43176  11.052  10.314   7.776 -0.1267 -0.0432  0.4209
13300SOL    HW143177  10.976  10.356   7.816 -1.1032 -2.2099  1.0371
13300SOL    HW243178  11.017  10.270   7.698  0.2819 -1.6547  1.0912
13301SOL     OW43179   2.678   6.676  11.069 -0.0565  0.3066 -0.1565
13301SOL    HW143180   2.639   6.590  11.078 -1.5462  0.9748  0.0347
13301SOL    HW243181   2.621   6.723  11.008  0.7153  1.1628 -0.2455
13302SOL     OW43182  10.174   4.821   9.961  0.1786  0.1356 -0.3656
13302SOL    HW143183  10.249   4.776   9.922 -0.5519  0.0036 -1.7033
13302SOL    HW243184  10.195   4.828  10.054  0.6968 -2.1945 -0.2385
13303SOL     OW43185   4.070   4.420   5.460  0.3258  0.1134 -0.5082
13303SOL    HW143186   3.983   4.421   5.500  1.2534 -1.8617  1.8533
13303SOL    HW243187   4.104   4.333   5.480  2.8877  0.8537 -1.2440
13304SOL     OW43188   7.646   7.339   6.045  0.2676  0.3499  0.8635
13304SOL    HW143189   7.639   7.243   6.050 -1.9245  0.5387  2.6078
13304SOL    HW243190   7.735   7.354   6.013  0.7033 -2.2550  0.5958
13305SOL     OW43191  10.336   0.925   0.923 -0.3748 -0.1502 -0.3927
13305SOL    HW143192  10.386   0.913   0.842  0.9479  1.0547  0.1958
13305SOL    HW243193  10.257   0.970   0.896  0.0924  0.3174 -1.0139
13306SOL     OW43194   5.458   4.053   7.517  0.2349  0.6084  0.1485
13306SOL    HW143195   5.371   4.033   7.483  0.7518 -1.2521 -0.1946
13306SOL    HW243196   5.453   4.033   7.611  0.6629 -1.0112 -0.1376
13307SOL     OW43197   1.676  10.228   7.798  0.2081 -0.1950  0.4460
13307SOL    HW143198   1.593  10.274   7.810  0.2037 -0.1460  0.2280
13307SOL    HW243199   1.741  10.282   7.844  0.1147 -0.2446  0.6331
13308SOL     OW43200  10.453   0.480   6.164 -0.0610  0.9503 -0.2463
13308SOL    HW143201  10.527   0.419   6.159 -1.3142 -0.9182  2.1926
13308SOL    HW243202  10.384   0.438   6.112 -0.3173  1.2558 -0.1531
13309SOL     OW43203   1.202   5.721   6.668  0.6888 -0.2841  0.1858
13309SOL    HW143204   1.209   5.641   6.721  0.2180 -0.6893 -0.3450
13309SOL    HW243205   1.122   5.763   6.699  1.1159  0.1608  0.6965
13310SOL     OW43206   7.338   5.629   9.695 -0.5816 -0.4312  0.0305
13310SOL    HW143207   7.260   5.639   9.749  0.3774  0.2835  1.3399
13310SOL    HW243208   7.409   5.664   9.749  1.0410 -3.1262 -0.1982
13311SOL     OW43209   0.000   2.069   6.793 -0.2001  0.3780  0.3200
13311SOL    HW143210   0.093   2.060   6.814 -0.2893  0.1417  0.6270
13311SOL    HW243211  -0.015   2.163   6.791  0.1260  0.4236 -0.0956
13312SOL     OW43212  10.495  10.490   8.341 -0.0921  0.0869  0.0423
13312SOL    HW143213  10.582  10.526   8.325 -0.4890  0.6595 -0.9363
13312SOL    HW243214  10.464  10.537   8.419  0.3003  0.2157  0.1204
13313SOL     OW43215   4.367   3.309   8.508  0.5346  0.2480  0.6553
13313SOL    HW143216   4.460   3.294   8.491  0.3525  1.4311 -1.8446
13313SOL    HW243217   4.330   3.221   8.519  1.5024 -0.4279 -1.1215
13314SOL     OW43218   1.119   9.898   9.300  0.1086 -0.2641  0.2635
13314SOL    HW143219   1.201   9.871   9.342  0.1559 -0.4710  0.0457
13314SOL    HW243220   1.052   9.883   9.367  0.2158 -0.3476  0.3538
13315SOL     OW43221   2.556   3.433   1.675  0.2600  0.3648  0.3500
13315SOL    HW143222   2.574   3.339   1.679  0.6967  0.4700  0.9550
13315SOL    HW243223   2.601   3.462   1.595  0.0525  0.0496  0.1155
13316SOL     OW43224  10.060   7.157   7.242 -0.0713 -0.1607 -0.4213
13316SOL    HW143225   9.995   7.100   7.201 -0.7520  0.5807 -0.3881
13316SOL    HW243226  10.010   7.232   7.273  0.3512 -0.8116  2.0577
13317SOL     OW43227  10.675  11.082  11.089 -0.4826  0.5534 -0.4750
13317SOL    HW143228  10.664  11.005  11.033  1.9532 -2.1068  2.3123
13317SOL    HW243229  10.633  11.058  11.171 -0.9110  2.8740  0.0478
13318SOL     OW43230   6.597   2.622   9.774  0.3442 -0.2197  0.0605
13318SOL    HW143231   6.529   2.560   9.802 -0.4428  0.7761  0.4472
13318SOL    HW243232   6.663   2.618   9.843  0.6926 -1.1812 -0.3050
13319SOL     OW43233   8.225   6.957   5.524 -0.2014 -0.0912  0.1729
13319SOL    HW143234   8.149   6.933   5.577 -0.2231 -0.2155  0.0856
13319SOL    HW243235   8.258   6.874   5.490 -0.2301 -0.0054 -0.0672
13320SOL     OW43236   6.197   6.596  11.300 -0.0479 -1.0123 -0.0575
13320SOL    HW143237   6.195   6.647  11.381  0.6649  0.5609 -0.9746
13320SOL    HW243238   6.157   6.654  11.235 -0.7408 -2.3019 -0.8202
13321SOL     OW43239   6.127   4.690   4.507  0.5030  0.1734  0.3559
13321SOL    HW143240   6.123   4.664   4.415  3.3262  0.5159  0.0350
13321SOL    HW243241   6.081   4.621   4.554  0.3250 -0.8051 -1.1987
13322SOL     OW43242   3.055  11.351   0.932 -0.0283  0.3052  0.0769
13322SOL    HW143243   3.143  11.323   0.955 -1.1587 -1.6583  2.5422
13322SOL    HW243244   3.043  11.434   0.978  0.1585 -0.0453  0.7766
13323SOL     OW43245   2.631   3.143  10.155 -0.1460  0.1895  0.7687
13323SOL    HW143246   2.572   3.144  10.079 -0.3626 -0.5843  0.9271
13323SOL    HW243247   2.585   3.090  10.220  0.2493  0.4723  1.2791
13324SOL     OW43248  11.283  10.510   9.519 -0.0913  0.2229 -0.3185
13324SOL    HW143249  11.321  10.546   9.599 -0.1323 -0.3017 -0.0581
13324SOL    HW243250  11.325  10.559   9.448 -0.0682  0.7047  0.0217
13325SOL     OW43251   0.684   2.485   1.885  0.0209  0.1591  0.1735
13325SOL    HW143252   0.713   2.493   1.794  1.9006  1.6152  0.8348
13325SOL    HW243253   0.689   2.574   1.920 -0.2900 -0.4353  1.8312
13326SOL     OW43254  10.703   9.771   2.270  0.3875 -0.7605 -0.4413
13326SOL    HW143255  10.704   9.678   2.248  0.3926 -0.3568 -2.2611
13326SOL    HW243256  10.745   9.814   2.196  0.6415  0.6855  0.5030
13327SOL     OW43257   0.977   4.618  10.893 -0.3582 -0.0801  0.5737
13327SOL    HW143258   1.020   4.618  10.807 -3.4249 -0.9692 -1.1165
13327SOL    HW243259   0.961   4.710  10.911 -1.6714  0.0568 -1.0036
13328SOL     OW43260   7.620   7.012   7.005  0.3218 -0.1562  0.0798
13328SOL    HW143261   7.596   6.934   6.956 -0.6179  0.4090 -0.3678
13328SOL    HW243262   7.706   7.036   6.971  1.4525 -1.9676  1.4333
13329SOL     OW43263   6.734   2.497   5.222 -0.0659 -0.4188 -0.3412
13329SOL    HW143264   6.800   2.534   5.281 -1.8244  1.0574  0.7987
13329SOL    HW243265   6.772   2.505   5.135  0.1384  3.1819 -0.0702
13330SOL     OW43266  10.723   3.230   2.863 -0.4342 -0.0663  0.2718
13330SOL    HW143267  10.813   3.201   2.871 -1.1112 -2.7541 -0.6783
13330SOL    HW243268  10.681   3.163   2.808 -3.0007  1.0608  0.6941
13331SOL     OW43269   1.001  10.608   6.369 -0.4025  0.3187  0.1634
13331SOL    HW143270   0.996  10.619   6.274  1.8977  1.3224  0.0822
13331SOL    HW243271   0.910  10.611   6.398 -1.0893  1.3128 -1.8743
13332SOL     OW43272   3.781   4.941   9.498  0.0216  0.3055  0.1939
13332SOL    HW143273   3.855   4.906   9.548 -0.6735  1.6015  2.2714
13332SOL    HW243274   3.787   4.897   9.413  2.8718  0.0246  0.4318
13333SOL     OW43275   7.876   6.866   8.071 -0.0301 -1.1776 -0.3705
13333SOL    HW143276   7.875   6.831   7.982  2.2333 -1.1510 -0.4453
13333SOL    HW243277   7.921   6.950   8.063  0.9806 -1.5742  0.9286
13334SOL     OW43278   9.266   3.229   7.377 -0.0948  0.0802 -0.1541
13334SOL    HW143279   9.267   3.153   7.319 -1.0381  1.3790 -1.9931
13334SOL    HW243280   9.245   3.194   7.463 -1.1644 -1.6713 -1.0773
13335SOL     OW43281   9.722   2.223  10.059 -0.0822 -0.0310 -0.5991
13335SOL    HW143282   9.767   2.299  10.022  0.8695 -0.0155  0.5193
13335SOL    HW243283   9.784   2.151  10.049 -0.2807 -0.2755 -0.1006
13336SOL     OW43284   5.719   5.796  10.438  0.8130 -0.0271 -0.1760
13336SOL    HW143285   5.724   5.707  10.474 -1.9535 -0.0508  0.3694
13336SOL    HW243286   5.652   5.839  10.491 -0.4067  1.2822 -2.6335
13337SOL     OW43287   5.201   1.590   3.655 -0.1380 -0.1953  0.2167
13337SOL    HW143288   5.117   1.555   3.626 -0.7634  1.8067 -0.6116
13337SOL    HW243289   5.224   1.656   3.588  0.9986  0.8564  1.5599
13338SOL     OW43290   2.581   2.196   7.457  0.3916  0.3396 -0.2083
13338SOL    HW143291   2.490   2.195   7.488  0.9347 -0.2529  1.5108
13338SOL    HW243292   2.578   2.246   7.376 -1.4242  0.5867 -0.0394
13339SOL     OW43293  10.306   9.410   6.976 -0.2175  1.0960  1.2124
13339SOL    HW143294  10.258   9.390   7.057 -1.3411 -0.0451  0.3073
13339SOL    HW243295  10.239   9.406   6.907  0.3440  3.7947  0.3870
13340SOL     OW43296   6.340   8.976   4.826  0.0463  0.2973  0.4695
13340SOL    HW143297   6.417   8.920   4.836  0.8084  1.1385 -0.4026
13340SOL    HW243298   6.371   9.048   4.770 -1.4399  0.5463 -0.0573
13341SOL     OW43299  11.264   3.284  11.150 -0.2046  0.9008 -0.4351
13341SOL    HW143300  11.356   3.260  11.166 -0.4778 -0.4953 -0.8329
13341SOL    HW243301  11.228   3.298  11.238  0.5783  2.2661 -0.3138
13342SOL     OW43302   0.600   2.794   2.787 -0.3746 -0.1398 -0.3253
13342SOL    HW143303   0.574   2.849   2.861 -1.3092  0.7940 -1.3037
13342SOL    HW243304   0.695   2.784   2.796 -0.3984  0.4140  0.6771
13343SOL     OW43305   3.790   1.220   5.324 -0.4085 -0.1032 -0.4913
13343SOL    HW143306   3.843   1.174   5.389 -2.0444  0.0062  1.0077
13343SOL    HW243307   3.790   1.312   5.353 -1.7254 -0.1714 -0.2005
13344SOL     OW43308  10.778   2.524   8.229  0.3399  0.0133 -0.7409
13344SOL    HW143309  10.838   2.506   8.302 -0.3264 -1.2989 -0.4725
13344SOL    HW243310  10.797   2.455   8.165 -1.7246 -1.2903 -0.0753
13345SOL     OW43311   2.906   9.292   9.854  0.3541  0.1617  0.3120
13345SOL    HW143312   2.816   9.286   9.822  0.1895  0.2027  0.7688
13345SOL    HW243313   2.898   9.306   9.948  0.8384  0.2010  0.3515
13346SOL     OW43314   0.259   7.794   2.817 -0.8712  0.2925 -0.3754
13346SOL    HW143315   0.322   7.850   2.772 -0.6014 -0.0812 -0.4635
13346SOL    HW243316   0.176   7.841   2.810 -0.8258  0.2546 -1.2415
13347SOL     OW43317   6.018   8.222   8.370  0.4069 -0.4009  0.4212
13347SOL    HW143318   6.015   8.311   8.405 -0.3701 -0.2923  0.0885
13347SOL    HW243319   5.935   8.211   8.323  0.3244 -1.4195  0.7635
13348SOL     OW43320   6.941   9.423   5.710 -0.6517 -0.4533  0.1698
13348SOL    HW143321   6.894   9.414   5.627  0.5309  0.8559 -0.6707
13348SOL    HW243322   6.947   9.334   5.744 -1.3313 -0.9806 -1.0424
13349SOL     OW43323   9.321   8.668   0.421  0.0844  0.4664  0.1756
13349SOL    HW143324   9.239   8.621   0.436  0.1040  0.7133  1.1053
13349SOL    HW243325   9.383   8.629   0.483  0.8288 -0.0880 -0.8869
13350SOL     OW43326  11.014   2.289   1.393 -0.0478  0.0264  0.0819
13350SOL    HW143327  10.958   2.364   1.377 -0.0189  0.0745  0.2056
13350SOL    HW243328  10.973   2.218   1.343 -0.4406 -0.0341  0.4871
13351SOL     OW43329   2.615   9.649   5.185  0.5907 -0.7789 -0.0933
13351SOL    HW143330   2.533   9.632   5.139  0.8311 -0.1619 -0.7723
13351SOL    HW243331   2.682   9.645   5.117  1.0977 -0.9899  0.4065
13352SOL     OW43332   7.252   5.975  10.856 -0.6642  0.9276 -0.4269
13352SOL    HW143333   7.249   6.067  10.880 -1.8238  1.3681 -2.0462
13352SOL    HW243334   7.283   5.976  10.765  0.4941 -0.3828 -0.0741
13353SOL     OW43335  10.905   7.276   0.883  0.5441 -0.1458 -0.0053
13353SOL    HW143336  10.879   7.317   0.801 -0.7869 -2.0325 -0.6079
13353SOL    HW243337  10.850   7.198   0.889  2.1079 -1.2089  1.6307
13354SOL     OW43338   4.394   5.515  10.422  0.7212  0.8469  0.1252
13354SOL    HW143339   4.349   5.544  10.502  0.8695 -0.8841  0.8807
13354SOL    HW243340   4.325   5.477  10.368  0.7198  1.4664 -0.3168
13355SOL     OW43341   0.161   3.458  10.442  0.3219 -0.9449 -0.3506
13355SOL    HW143342   0.114   3.541  10.431 -0.6291 -1.6957 -2.5250
13355SOL    HW243343   0.253   3.482  10.435  0.1242  0.0849  0.3175
13356SOL     OW43344   7.885   1.023  10.259  0.1236 -0.0433  0.2174
13356SOL    HW143345   7.880   0.938  10.303 -2.6382  0.3377  0.7941
13356SOL    HW243346   7.923   1.003  10.173  0.6317 -1.6470  0.7765
13357SOL     OW43347   3.153   7.017   8.509  0.3505  0.8461  0.2752
13357SOL    HW143348   3.153   6.996   8.416 -1.0117 -0.1919  0.4747
13357SOL    HW243349   3.070   6.981   8.542  0.0223  2.6661  1.5701
13358SOL     OW43350   1.602  10.014   4.006 -0.1259 -0.7603 -0.3991
13358SOL    HW143351   1.511   9.985   4.015 -0.2675 -0.3445 -0.5045
13358SOL    HW243352   1.639  10.003   4.094 -0.6388  0.2898 -0.0309
13359SOL     OW43353   3.605   0.799   9.856 -0.2412 -0.3438 -0.2297
13359SOL    HW143354   3.599   0.884   9.900  0.4716 -1.2999  1.8156
13359SOL    HW243355   3.661   0.816   9.779 -0.2857  1.0657  0.0211
13360SOL     OW43356  10.715   9.635   4.331  0.3668 -0.3585 -0.3050
13360SOL    HW143357  10.631   9.589   4.333  0.0738  0.0097 -2.1391
13360SOL    HW243358  10.770   9.581   4.274  0.5487  0.7003 -1.1460
13361SOL     OW43359   8.568   0.454   0.998  0.0883  0.6164 -0.3401
13361SOL    HW143360   8.648   0.506   1.001  0.6421 -0.2358  1.9554
13361SOL    HW243361   8.502   0.513   0.961  1.1306  2.2744  0.3312
13362SOL     OW43362   7.369   3.347   5.880 -0.3345  0.9149 -0.0269
13362SOL    HW143363   7.407   3.264   5.853  1.1004  1.5335  0.0179
13362SOL    HW243364   7.276   3.339   5.857  0.2032  0.2203 -2.2098
13363SOL     OW43365  10.024   3.929   5.983  0.1959  0.4164 -0.6512
13363SOL    HW143366  10.111   3.959   6.010 -0.2522  0.2471  1.1251
13363SOL    HW243367  10.018   3.951   5.890  1.9347  0.8894 -0.6797
13364SOL     OW43368   2.527  10.977   0.336  0.1474 -0.9863  0.4637
13364SOL    HW143369   2.578  10.902   0.368  1.8252 -1.0453 -2.0808
13364SOL    HW243370   2.483  10.944   0.257  0.4016  0.5023 -0.3441
13365SOL     OW43371   1.353  10.750  10.338 -0.0652  0.0153  0.3949
13365SOL    HW143372   1.413  10.786  10.272  0.8140  0.1087  1.2304
13365SOL    HW243373   1.387  10.663  10.356  0.5057  0.4927  1.7056
13366SOL     OW43374   8.350  10.841   2.120  0.7199  0.1370 -0.2184
13366SOL    HW143375   8.434  10.884   2.107  2.3481 -2.6440  0.2840
13366SOL    HW243376   8.353  10.808   2.210 -1.4688  0.9827  0.2300
13367SOL     OW43377   0.745   9.840   4.028  0.1716 -0.0933 -0.4873
13367SOL    HW143378   0.835   9.840   4.061 -0.2462 -0.4877  0.6980
13367SOL    HW243379   0.746   9.904   3.957  1.8813 -1.5771 -1.9084
13368SOL     OW43380   0.993   5.448   1.372  0.2089  0.0887 -0.1397
13368SOL    HW143381   1.006   5.429   1.279  0.8924  1.1682 -0.2824
13368SOL    HW243382   0.923   5.388   1.399 -0.1807 -0.0590 -1.4039
13369SOL     OW43383   7.672   9.278   1.331  0.3370  0.0876 -0.4371
13369SOL    HW143384   7.699   9.193   1.297  2.0036 -0.0788  1.1779
13369SOL    HW243385   7.595   9.259   1.385  0.8597 -0.4447  0.1284
13370SOL     OW43386   0.895  11.195   6.681 -0.4144  0.1793 -0.3495
13370SOL    HW143387   0.916  11.120   6.626  1.6778  0.5525 -0.1702
13370SOL    HW243388   0.800  11.196   6.687 -0.6051 -0.9244 -2.4734
13371SOL     OW43389   8.018   8.332   7.311 -0.7151 -0.0987 -0.3161
13371SOL    HW143390   8.080   8.355   7.380  0.1318 -2.8769 -0.0142
13371SOL    HW243391   7.932   8.352   7.347 -0.2077 -0.2215  1.0091
13372SOL     OW43392   3.859   8.873   6.278  0.7567 -0.6480  0.7934
13372SOL    HW143393   3.764   8.883   6.285  0.7517 -1.2504  1.7219
13372SOL    HW243394   3.894   8.954   6.316  0.6250  0.3215 -1.0309
13373SOL     OW43395   2.369   7.555   2.773  0.9652  0.0588  0.4094
13373SOL    HW143396   2.304   7.606   2.725  1.7202  0.4680 -0.2010
13373SOL    HW243397   2.318   7.507   2.838  0.0979  0.6538  0.1915
13374SOL     OW43398  10.809  10.414   3.090 -0.5393  0.4591  0.6096
13374SOL    HW143399  10.722  10.414   3.049 -0.6714 -0.0530  0.8705
13374SOL    HW243400  10.809  10.334   3.143  0.6587 -0.3833 -0.5983
13375SOL     OW43401  11.233   7.682   7.173  0.0984  0.0029 -0.4078
13375SOL    HW143402  11.327   7.679   7.157 -0.0066 -0.3759 -1.0087
13375SOL    HW243403  11.217   7.770   7.207  0.8663 -0.4162  1.1143
13376SOL     OW43404   5.262   0.073  10.009 -0.2334 -0.4150  0.6209
13376SOL    HW143405   5.335   0.105  10.062  0.6167  0.6327 -1.0664
13376SOL    HW243406   5.185   0.116  10.044  0.0375 -0.9830  1.9823
13377SOL     OW43407   9.012   2.195   5.077  0.0950  0.9190 -0.2029
13377SOL    HW143408   9.101   2.229   5.065 -0.5024  4.0211  2.6671
13377SOL    HW243409   9.025   2.108   5.116  1.8422  0.8656 -0.8250
13378SOL     OW43410  10.230   1.644  10.892  0.1734 -0.1720 -0.2851
13378SOL    HW143411  10.238   1.590  10.970  0.3058 -0.2271 -0.3365
13378SOL    HW243412  10.163   1.600  10.839  0.9843 -0.8472 -0.7819
13379SOL     OW43413   4.976   8.221   3.898  0.4073 -0.3313  0.0184
13379SOL    HW143414   4.907   8.192   3.838  1.6346  0.6567 -1.9969
13379SOL    HW243415   5.058   8.204   3.850  1.3774  1.8874  0.7559
13380SOL     OW43416   8.536   4.563   4.888 -0.5743 -0.6853  0.3875
13380SOL    HW143417   8.456   4.592   4.931  0.0632  0.3895  0.8830
13380SOL    HW243418   8.537   4.608   4.804 -0.3810 -0.5225  0.4759
13381SOL     OW43419   7.470   4.810   1.973  0.0565  0.0696  0.2140
13381SOL    HW143420   7.398   4.871   1.953 -0.3891 -0.3685  0.4517
13381SOL    HW243421   7.488   4.766   1.890 -0.2772 -0.1580  0.2591
13382SOL     OW43422   0.475   4.104   2.467 -0.1080 -0.4404 -0.0985
13382SOL    HW143423   0.419   4.142   2.400  1.0317 -0.4179 -1.0864
13382SOL    HW243424   0.524   4.035   2.421  1.3833  0.1993  0.4397
13383SOL     OW43425   8.880   8.026   4.950 -0.1591 -0.1749 -0.1624
13383SOL    HW143426   8.885   7.932   4.936  2.1425 -0.1600  0.2501
13383SOL    HW243427   8.956   8.062   4.905  1.1672  1.0390  2.7841
13384SOL     OW43428   4.508   8.776   5.840  0.1428  0.7197  0.1925
13384SOL    HW143429   4.525   8.769   5.746 -0.2714  0.1260  0.1574
13384SOL    HW243430   4.553   8.701   5.879  0.7367  1.2401  0.5335
13385SOL     OW43431   7.549   3.564  11.135 -0.5403  0.0190  0.2059
13385SOL    HW143432   7.472   3.616  11.159 -0.4157 -0.3291  1.4032
13385SOL    HW243433   7.526   3.474  11.158 -0.0309 -0.1875 -0.0694
13386SOL     OW43434   4.049   9.101   5.604 -0.2194  0.2090  0.0505
13386SOL    HW143435   3.961   9.087   5.640 -1.1383  1.0189 -1.7590
13386SOL    HW243436   4.105   9.113   5.680 -1.8165  0.4431  1.2251
13387SOL     OW43437   0.426   5.107   1.333  0.3503  0.0148  0.1206
13387SOL    HW143438   0.339   5.130   1.367  0.6273 -0.8311  1.4573
13387SOL    HW243439   0.410   5.086   1.241 -0.8331  0.1206  0.2834
13388SOL     OW43440   2.782  10.902   7.595  0.5953 -0.2081 -0.7365
13388SOL    HW143441   2.843  10.976   7.586  1.4806 -1.0410 -1.9016
13388SOL    HW243442   2.836  10.825   7.577 -0.8153 -0.9751 -1.8178
13389SOL     OW43443   1.767   6.130   5.039  0.0001  0.2611  0.3317
13389SOL    HW143444   1.811   6.052   5.008 -0.1984  0.4308 -0.4060
13389SOL    HW243445   1.697   6.097   5.095 -0.2938 -0.1147 -0.2430
13390SOL     OW43446   4.430   4.726   0.957  0.2841 -0.3187 -0.1698
13390SOL    HW143447   4.456   4.813   0.988  0.3902 -0.7346  0.9331
13390SOL    HW243448   4.456   4.725   0.865  0.0664  0.9004 -0.2545
13391SOL     OW43449   9.994   6.759   0.459  0.0137 -0.4715  0.3443
13391SOL    HW143450   9.944   6.778   0.379 -3.4044  1.6821  2.7235
13391SOL    HW243451   9.964   6.672   0.486  0.2752 -0.6987 -0.0870
13392SOL     OW43452   5.242   1.756   0.735  0.3562  0.1380 -0.5007
13392SOL    HW143453   5.236   1.761   0.640  0.2308 -0.4308 -0.5220
13392SOL    HW243454   5.180   1.823   0.766  0.8818  0.7862 -0.8173
13393SOL     OW43455   5.351   0.777  10.111 -0.0332 -0.3184  0.3744
13393SOL    HW143456   5.412   0.830  10.059 -0.3536 -0.3052  0.0134
13393SOL    HW243457   5.320   0.838  10.179 -0.9184  0.1653 -0.4457
13394SOL     OW43458   5.635   6.672   6.692 -0.1370 -0.2707  0.0060
13394SOL    HW143459   5.644   6.588   6.736 -0.2457  0.0553  0.6636
13394SOL    HW243460   5.710   6.724   6.722  0.3137 -0.3645 -0.9361
13395SOL     OW43461   2.322   1.693   8.386  0.0481 -0.5721  0.4859
13395SOL    HW143462   2.256   1.627   8.366 -1.2648  0.9941 -0.6751
13395SOL    HW243463   2.371   1.657   8.460 -1.2953 -2.3335  0.5878
13396SOL     OW43464   2.723   5.512   3.858 -0.0370 -0.3082  0.0895
13396SOL    HW143465   2.764   5.589   3.818  0.1519 -1.2131 -1.5181
13396SOL    HW243466   2.641   5.501   3.811 -0.3906 -0.7133  0.7696
13397SOL     OW43467   0.430  10.413   4.168  0.1739 -0.1557  0.3663
13397SOL    HW143468   0.398  10.419   4.258  0.2251 -3.1757  0.6741
13397SOL    HW243469   0.514  10.459   4.169  1.1339 -1.8281  2.4121
13398SOL     OW43470   7.569   0.758   5.839  0.2017  0.7547 -0.0270
13398SOL    HW143471   7.494   0.817   5.835  0.7869  1.4443 -1.2639
13398SOL    HW243472   7.586   0.734   5.748  2.1222  1.4579  0.0994
13399SOL     OW43473   0.708   8.942   1.644  0.2606  0.2765  0.4901
13399SOL    HW143474   0.677   8.938   1.734  1.1174  0.5403  0.8089
13399SOL    HW243475   0.739   9.032   1.633 -1.6794  0.8578 -0.7175
13400SOL     OW43476   8.095   3.723   6.686 -0.0417  0.1523  0.0965
13400SOL    HW143477   8.159   3.741   6.754 -1.1263 -0.2776  1.2590
13400SOL    HW243478   8.011   3.749   6.724 -1.0871 -2.8935  0.1397
13401SOL     OW43479   1.323   2.916   0.076 -0.2683  0.2889  0.1721
13401SOL    HW143480   1.239   2.935   0.117 -0.1970  0.1440  0.3873
13401SOL    HW243481   1.306   2.840   0.020 -0.6855  1.2950 -1.1170
13402SOL     OW43482   3.035   0.259   2.360 -0.1332 -0.3301 -0.1087
13402SOL    HW143483   3.063   0.315   2.287 -1.2118  0.0284 -0.2680
13402SOL    HW243484   2.980   0.193   2.318 -0.2875 -0.4682  0.3120
13403SOL     OW43485   4.713   9.997   0.782 -0.1830 -0.0569 -0.0613
13403SOL    HW143486   4.706  10.087   0.814 -1.3356  0.2649 -1.1540
13403SOL    HW243487   4.752   9.949   0.855  0.4630  1.3231  0.5303
13404SOL     OW43488   5.683  10.001  10.725  0.1791  0.1171  0.3045
13404SOL    HW143489   5.589   9.987  10.721  0.2647 -0.7618  0.9482
13404SOL    HW243490   5.721   9.918  10.697  0.7383 -0.0891  1.5928
13405SOL     OW43491   1.640   7.093   6.432 -0.0025 -0.6091  0.3344
13405SOL    HW143492   1.633   6.998   6.441  1.9359 -0.8516 -0.2380
13405SOL    HW243493   1.693   7.120   6.506  1.7988 -0.3808 -0.9802
13406SOL     OW43494   9.674   8.943   5.089  0.0061  0.6796  0.0416
13406SOL    HW143495   9.588   8.907   5.069  0.4044 -2.4730  3.1402
13406SOL    HW243496   9.655   9.024   5.136 -1.3004 -0.1853  1.0557
13407SOL     OW43497   1.955   6.688   8.619  0.4769 -1.0261 -1.0263
13407SOL    HW143498   2.023   6.639   8.665 -0.8281 -0.1284  2.1614
13407SOL    HW243499   1.873   6.649   8.649 -0.4822  0.4765 -1.5677
13408SOL     OW43500   2.600   9.733   0.539 -0.4583  0.1594  0.3049
13408SOL    HW143501   2.680   9.729   0.488  1.2220  2.7928  2.4427
13408SOL    HW243502   2.544   9.795   0.492  0.5471  1.5633  0.8900
13409SOL     OW43503   5.117   5.897   5.609 -0.0985 -0.1523 -0.7683
13409SOL    HW143504   5.057   5.852   5.550 -0.5315 -0.9912  0.2804
13409SOL    HW243505   5.067   5.973   5.640  0.3958  0.7145 -2.0246
13410SOL     OW43506   7.180   8.623   1.722  0.7916  0.5630  0.1148
13410SOL    HW143507   7.104   8.668   1.684 -0.2711 -0.5103  0.8899
13410SOL    HW243508   7.244   8.619   1.651 -1.2246 -1.6640 -1.7253
13411SOL     OW43509   3.627   7.554   6.434 -0.0790  0.0193 -0.0674
13411SOL    HW143510   3.635   7.459   6.431 -0.1098 -0.0057  0.4809
13411SOL    HW243511   3.536   7.570   6.459  0.3221  0.1486  1.4288
13412SOL     OW43512   9.177   7.573   9.740 -0.0340 -0.2012 -0.4302
13412SOL    HW143513   9.124   7.612   9.671 -0.5177 -1.5025 -0.8317
13412SOL    HW243514   9.128   7.495   9.766  1.2072 -0.9047 -0.1223
13413SOL     OW43515  10.237   1.366   7.564  0.0203 -0.2158  1.1122
13413SOL    HW143516  10.275   1.401   7.483  0.1104  2.2522  2.1511
13413SOL    HW243517  10.298   1.392   7.633 -2.0895  1.4149  2.4777
13414SOL     OW43518   5.053   9.301   8.173  0.0081 -0.0128  0.6883
13414SOL    HW143519   5.095   9.215   8.166 -1.8355 -0.8532 -1.8095
13414SOL    HW243520   5.113   9.361   8.127 -0.1317 -0.6324 -0.3414
13415SOL     OW43521   5.890   0.884  11.024  0.0653  0.1529  0.5569
13415SOL    HW143522   5.984   0.885  11.042  0.0273 -0.1988  0.7901
13415SOL    HW243523   5.883   0.872  10.929  0.2685  1.6225  0.3370
13416SOL     OW43524   1.677   8.396  10.881  0.2626  0.3669 -0.6804
13416SOL    HW143525   1.582   8.384  10.877  0.4040 -1.1270 -0.1283
13416SOL    HW243526   1.711   8.309  10.901  1.5031  1.5072  3.0097
13417SOL     OW43527   7.723   9.761   8.459 -0.6654  0.1666 -0.9310
13417SOL    HW143528   7.733   9.678   8.412  0.0372  0.2286 -0.9078
13417SOL    HW243529   7.685   9.736   8.543 -0.7533 -0.0961 -1.0460
13418SOL     OW43530  10.720   6.309  11.102 -0.0099 -0.6567 -0.1929
13418SOL    HW143531  10.772   6.231  11.080  0.6360 -0.1711 -0.4173
13418SOL    HW243532  10.776   6.383  11.079 -0.7705 -0.1128 -0.3506
13419SOL     OW43533   3.189   9.740   8.906 -0.1737 -0.2137 -0.4668
13419SOL    HW143534   3.215   9.815   8.959 -1.9211 -0.0379  0.1920
13419SOL    HW243535   3.251   9.671   8.930  1.6348  1.0467 -1.2796
13420SOL     OW43536  10.966   4.436   8.527  0.4876  0.6538 -0.1593
13420SOL    HW143537  11.000   4.459   8.613  0.7441  1.0966 -0.3741
13420SOL    HW243538  10.888   4.384   8.544  0.3877  0.9705  0.3354
13421SOL     OW43539  10.501   7.967   8.471 -0.4780  0.0267 -0.0914
13421SOL    HW143540  10.542   7.954   8.385 -1.8084  0.0656 -0.7492
13421SOL    HW243541  10.417   7.921   8.465 -1.7713  2.2033  0.2617
13422SOL     OW43542   5.174   0.924   5.929  0.2513  0.6356  0.1267
13422SOL    HW143543   5.086   0.897   5.953 -0.0518 -0.5898 -2.0648
13422SOL    HW243544   5.162   0.983   5.855  1.2693 -0.1739 -0.7244
13423SOL     OW43545   8.378  10.133   1.505  0.1685  0.2189  0.4809
13423SOL    HW143546   8.317  10.196   1.543 -0.5577 -0.6367  0.7704
13423SOL    HW243547   8.328  10.087   1.438  0.8097  0.2178 -0.0104
13424SOL     OW43548   1.902   2.556   2.913 -0.2728 -0.4742 -0.1246
13424SOL    HW143549   1.898   2.604   2.830 -2.3477  0.5203  0.4606
13424SOL    HW243550   1.856   2.474   2.896 -1.4481  0.0876  0.2017
13425SOL     OW43551   0.275   6.235   3.575  0.6975 -0.5550  0.6202
13425SOL    HW143552   0.229   6.275   3.649 -0.7211 -1.1016  0.0770
13425SOL    HW243553   0.293   6.145   3.604  1.5367 -0.3104  0.8712
13426SOL     OW43554   8.923   0.055   3.537 -0.1050  0.0235 -0.5057
13426SOL    HW143555   8.971  -0.027   3.543 -0.1345  0.0495  0.1834
13426SOL    HW243556   8.833   0.029   3.520 -0.1788 -0.1136  0.0518
13427SOL     OW43557   9.065   1.572  11.357 -0.5546 -0.0098 -0.3622
13427SOL    HW143558   9.080   1.477  11.362  0.6934  0.2051  0.5055
13427SOL    HW243559   9.134   1.604  11.299 -1.7657  0.2396 -1.7329
13428SOL     OW43560  10.908  10.331  10.291  0.4143  0.2677  0.3839
13428SOL    HW143561  10.833  10.363  10.241  0.0419 -1.3374 -0.1242
13428SOL    HW243562  10.874  10.317  10.379  0.0305 -0.7040  0.0917
13429SOL     OW43563   7.423   5.298   2.306  0.5290 -0.1095 -0.4690
13429SOL    HW143564   7.350   5.326   2.250 -1.0811  1.9118  2.3782
13429SOL    HW243565   7.454   5.379   2.347  0.1611 -1.6004  3.0887
13430SOL     OW43566   3.780   2.061   6.325 -0.0167 -0.3317 -0.1910
13430SOL    HW143567   3.828   2.123   6.270  1.2741  0.5121  1.7394
13430SOL    HW243568   3.693   2.055   6.286  0.2152  1.7428 -1.1419
13431SOL     OW43569   0.732   4.911   2.868 -0.1698 -0.6424  0.3359
13431SOL    HW143570   0.819   4.878   2.888 -0.1384 -0.3047  0.7768
13431SOL    HW243571   0.722   4.898   2.774  0.5432 -0.2473  0.1980
13432SOL     OW43572   9.879   2.528  11.392 -0.2119  0.0802 -0.6014
13432SOL    HW143573   9.958   2.475  11.385 -0.7358 -0.6408 -1.1731
13432SOL    HW243574   9.902   2.611  11.350  1.5862  1.5414  2.8253
13433SOL     OW43575   1.682   5.877   0.420  0.1285 -0.1216 -0.4836
13433SOL    HW143576   1.770   5.855   0.390  0.0213 -0.6527 -0.4129
13433SOL    HW243577   1.624   5.846   0.351 -0.0975 -1.0666  0.1086
13434SOL     OW43578  10.462   8.105   6.899 -0.2789  0.3361 -0.5754
13434SOL    HW143579  10.413   8.177   6.940  0.8944  0.2841  1.0080
13434SOL    HW243580  10.517   8.071   6.969 -0.0308 -1.4400 -1.5789
13435SOL     OW43581   8.920   8.175   0.778  0.0732 -0.0650 -0.1727
13435SOL    HW143582   8.906   8.240   0.848  0.9794  2.2707 -2.0166
13435SOL    HW243583   9.013   8.151   0.786  0.0146 -0.2979 -0.1832
13436SOL     OW43584   4.609  10.315   9.349 -0.8887  0.3330 -0.0742
13436SOL    HW143585   4.618  10.409   9.338 -0.4981  0.2599 -0.3996
13436SOL    HW243586   4.547  10.289   9.281 -2.5601  0.6273  1.2600
13437SOL     OW43587   3.137   3.645  10.727 -0.6735 -0.4472 -0.0646
13437SOL    HW143588   3.070   3.670  10.791 -0.1524  0.5010  0.1385
13437SOL    HW243589   3.218   3.640  10.778 -0.5478 -1.3897 -0.3431
13438SOL     OW43590   5.363   7.100   6.171 -0.0398  0.0259 -0.1412
13438SOL    HW143591   5.324   7.028   6.123  1.0292 -1.2090  0.7641
13438SOL    HW243592   5.290   7.158   6.192 -0.6272  0.2204 -2.5338
13439SOL     OW43593   3.632  10.648   5.736 -0.9007  0.2489 -0.4709
13439SOL    HW143594   3.649  10.624   5.828 -1.5684  0.6740 -0.2241
13439SOL    HW243595   3.580  10.575   5.702 -0.9142  0.2349 -0.4199
13440SOL     OW43596   0.909  11.396   9.560  0.1975  0.2888 -0.2907
13440SOL    HW143597   0.904  11.306   9.591 -0.4891  0.4948  0.2265
13440SOL    HW243598   0.845  11.401   9.489  0.3405  0.3285 -0.4167
13441SOL     OW43599  11.220   5.843   9.425 -0.2997  0.4413  0.4154
13441SOL    HW143600  11.211   5.927   9.380  2.0676 -1.0030 -3.1847
13441SOL    HW243601  11.314   5.830   9.434 -0.5252 -2.2663 -0.1749
13442SOL     OW43602   3.993   5.404   6.148  0.1366 -0.2639  0.1063
13442SOL    HW143603   4.054   5.476   6.134  0.0399  0.0953  1.4014
13442SOL    HW243604   4.044   5.337   6.192  0.1668 -0.9264 -0.8901
13443SOL     OW43605   8.521   7.377   8.193  0.6710 -0.1099 -0.0639
13443SOL    HW143606   8.432   7.413   8.203  0.8295 -0.1548  1.8853
13443SOL    HW243607   8.578   7.443   8.232  1.3342 -0.8048  0.1680
13444SOL     OW43608   3.934   1.508   1.286  0.1989 -0.2888 -0.3728
13444SOL    HW143609   4.016   1.544   1.319  0.5911 -1.8641  0.4604
13444SOL    HW243610   3.878   1.585   1.273  1.1084  0.6449  0.9606
13445SOL     OW43611   1.743   5.990   6.796  0.1943  0.0959 -0.9852
13445SOL    HW143612   1.675   6.057   6.795  0.6019  0.5868  0.8400
13445SOL    HW243613   1.695   5.907   6.805 -0.1823  0.4439  0.3620
13446SOL     OW43614   9.404  10.090   4.372 -0.2683 -0.4422 -0.5011
13446SOL    HW143615   9.418  10.103   4.466 -0.9779 -0.5761 -0.3726
13446SOL    HW243616   9.311  10.070   4.364 -0.4214  0.4905 -1.3285
13447SOL     OW43617   2.540   2.303   9.343  0.2780  0.2540 -0.2745
13447SOL    HW143618   2.623   2.335   9.307  1.1033 -0.7088  0.6513
13447SOL    HW243619   2.527   2.218   9.301  0.7057 -0.3991  0.8509
13448SOL     OW43620   3.568   7.197   5.950  0.2230 -0.1926  0.2064
13448SOL    HW143621   3.619   7.117   5.937  1.5679  0.7071 -0.1928
13448SOL    HW243622   3.615   7.245   6.018 -1.9137 -0.8010  2.2510
13449SOL     OW43623   3.227   4.620  10.424 -0.2966 -0.3096 -0.6215
13449SOL    HW143624   3.258   4.534  10.452 -2.3767 -1.1909 -0.8935
13449SOL    HW243625   3.133   4.618  10.438 -0.2829  2.3910  0.5347
13450SOL     OW43626   0.903   5.998   2.233  0.3972  0.8847  1.0036
13450SOL    HW143627   0.825   6.052   2.217 -0.4668 -0.5077  0.2353
13450SOL    HW243628   0.938   5.982   2.145  1.4645  1.3492  1.3338
13451SOL     OW43629   5.573   3.521   2.115  0.2378  0.4642 -0.6152
13451SOL    HW143630   5.515   3.562   2.180 -0.2139 -0.1864 -0.5886
13451SOL    HW243631   5.640   3.477   2.167 -1.9998 -2.9429 -0.3124
13452SOL     OW43632   8.680   5.415   4.682 -0.0152  0.5702  0.2166
13452SOL    HW143633   8.714   5.488   4.631 -2.4357  1.1066 -0.7536
13452SOL    HW243634   8.587   5.434   4.692 -0.5937 -2.0422  0.5358
13453SOL     OW43635   3.042   7.259   3.240  0.0368  0.2235 -0.6788
13453SOL    HW143636   2.973   7.204   3.279 -0.8597  2.3162  0.8656
13453SOL    HW243637   3.026   7.254   3.146 -0.7619 -1.1564 -0.5055
13454SOL     OW43638   9.198   9.527   7.429 -0.0919  0.1914 -0.2839
13454SOL    HW143639   9.104   9.525   7.450  0.4549  0.5555  2.6262
13454SOL    HW243640   9.225   9.616   7.452  0.4561  1.1731 -4.1108
13455SOL     OW43641   7.347   4.163   4.839  0.8463 -0.1476  0.0644
13455SOL    HW143642   7.389   4.084   4.806 -0.7101 -0.6191 -0.8551
13455SOL    HW243643   7.306   4.136   4.921  2.5142  0.3931  1.1366
13456SOL     OW43644   3.353   9.472   9.527  0.1521 -0.1667 -0.1608
13456SOL    HW143645   3.394   9.388   9.546 -1.4557 -1.0743 -0.5281
13456SOL    HW243646   3.260   9.451   9.513 -0.9606  2.0032  2.7312
13457SOL     OW43647  10.177   8.559   0.016 -0.6104  0.0427  0.1045
13457SOL    HW143648  10.248   8.496   0.027 -1.8671 -1.4616  0.0501
13457SOL    HW243649  10.174   8.607   0.099  0.7309  0.4610 -0.0624
13458SOL     OW43650  10.689  11.049   6.321 -0.1161  0.0189  0.0602
13458SOL    HW143651  10.764  11.006   6.280 -1.8470 -2.0474 -1.1701
13458SOL    HW243652  10.677  11.129   6.271  0.2490 -0.4901 -0.8772
13459SOL     OW43653   5.311   3.644   7.306 -0.2327  0.3091  0.4690
13459SOL    HW143654   5.340   3.685   7.388 -1.6948 -0.1750  1.2698
13459SOL    HW243655   5.238   3.588   7.333 -0.5001 -0.1345 -1.1283
13460SOL     OW43656   1.092   9.060   6.282  0.5170  0.2237 -0.3599
13460SOL    HW143657   1.134   9.023   6.360 -1.4334  0.9818  1.1301
13460SOL    HW243658   1.038   9.132   6.315 -1.2961 -0.1756 -2.2424
13461SOL     OW43659   8.953   2.113   0.439  0.4547  0.2200  0.1503
13461SOL    HW143660   8.890   2.145   0.375  1.9785  0.4164 -1.3272
13461SOL    HW243661   8.912   2.130   0.524 -1.2235  0.8045 -0.7324
13462SOL     OW43662   1.075   6.502   6.465 -0.1911  0.2962  0.5913
13462SOL    HW143663   1.015   6.451   6.410 -0.7934  0.6205  0.9359
13462SOL    HW243664   1.160   6.460   6.453 -0.8624 -1.5016  1.7465
13463SOL     OW43665   2.401   3.312   3.798  0.3334  0.3864 -0.5159
13463SOL    HW143666   2.398   3.365   3.719  1.8202  0.1556 -0.7488
13463SOL    HW243667   2.362   3.228   3.772 -0.5514  0.8044 -0.5772
13464SOL     OW43668  10.470   7.252   9.119 -0.2608  0.4058 -0.0490
13464SOL    HW143669  10.393   7.213   9.159 -0.6980 -0.3803 -1.5996
13464SOL    HW243670  10.543   7.221   9.173 -0.8813 -0.0458  0.5541
13465SOL     OW43671   7.035   3.007  10.044 -0.0357  0.8682 -0.4428
13465SOL    HW143672   7.022   3.080   9.983  1.0101  1.4719  0.0435
13465SOL    HW243673   7.112   2.962  10.011  0.8450  1.5014  0.7116
13466SOL     OW43674   2.610   8.017  10.816 -0.4595  0.2143 -0.2061
13466SOL    HW143675   2.596   8.107  10.786 -0.1817 -0.0424 -1.1367
13466SOL    HW243676   2.550   7.964  10.764 -1.3690 -0.0425  1.0541
13467SOL     OW43677  11.070  10.624   1.091 -0.4894  0.2403  0.3993
13467SOL    HW143678  11.141  10.669   1.045 -0.7912  0.9195  0.5844
13467SOL    HW243679  11.108  10.541   1.118 -0.7906 -1.0322 -2.6324
13468SOL     OW43680   8.212   0.816   0.129 -0.1137 -0.6526  0.3120
13468SOL    HW143681   8.220   0.790   0.220 -4.7714 -0.1306  1.1100
13468SOL    HW243682   8.192   0.910   0.132 -3.0623 -1.1376 -0.8950
13469SOL     OW43683   1.652   2.211   5.171 -0.1050  0.0039  0.0078
13469SOL    HW143684   1.650   2.119   5.197 -1.4549  0.4149  1.5369
13469SOL    HW243685   1.718   2.216   5.102  0.3673 -2.0044  0.2783
13470SOL     OW43686  10.607   9.432   7.189 -0.3046 -0.3290 -0.3167
13470SOL    HW143687  10.673   9.444   7.258 -2.0715  0.6839  1.2905
13470SOL    HW243688  10.658   9.407   7.112  1.9914  0.6957  0.7597
13471SOL     OW43689   9.479   6.345   5.594  0.4578  0.5687 -0.2886
13471SOL    HW143690   9.567   6.324   5.562  1.3048 -0.2963  2.3573
13471SOL    HW243691   9.492   6.422   5.650 -0.1658 -0.4919  1.3700
13472SOL     OW43692   6.844   7.312   4.530 -0.4792 -0.0806  0.2900
13472SOL    HW143693   6.861   7.342   4.619 -2.1000 -0.9574  0.9183
13472SOL    HW243694   6.756   7.276   4.532 -0.7614  0.3456 -1.8052
13473SOL     OW43695   0.357   0.961   7.059 -0.4050  0.5964  0.1311
13473SOL    HW143696   0.382   0.938   6.970 -0.6652 -0.1921  0.2495
13473SOL    HW243697   0.314   1.046   7.051 -1.0265  0.2298 -0.6043
13474SOL     OW43698  10.636   5.506   1.377  0.1680 -0.2394  0.3414
13474SOL    HW143699  10.637   5.472   1.466 -1.5708 -0.8007  0.1771
13474SOL    HW243700  10.586   5.587   1.383 -2.0167 -1.4336 -0.4446
13475SOL     OW43701   3.868   3.541   1.349  1.0058 -0.3114  0.0718
13475SOL    HW143702   3.836   3.559   1.260  1.0958 -2.2892 -0.4140
13475SOL    HW243703   3.874   3.627   1.390 -0.5015  0.5374 -1.3379
13476SOL     OW43704   3.598  10.193   9.747  0.1292  0.4213  0.6508
13476SOL    HW143705   3.691  10.170   9.755  0.1701  0.5335  0.5012
13476SOL    HW243706   3.555  10.113   9.719  0.1122  0.2467  1.1560
13477SOL     OW43707  10.963   4.042   0.982 -0.4116 -0.5124 -0.6768
13477SOL    HW143708  10.941   4.112   0.921  0.5320  0.6877  0.3189
13477SOL    HW243709  11.036   3.995   0.941 -1.1934 -1.0944 -1.4490
13478SOL     OW43710   5.079   9.195   3.821  0.2231  0.4044  0.3486
13478SOL    HW143711   5.156   9.203   3.877  0.3681 -0.9155  0.3793
13478SOL    HW243712   5.076   9.102   3.799 -0.9130  0.5818 -0.3022
13479SOL     OW43713   3.454  10.085   3.711 -0.2168 -0.0847  0.1892
13479SOL    HW143714   3.466  10.180   3.709 -0.1934  0.0115 -3.9190
13479SOL    HW243715   3.528  10.053   3.762 -0.0755  2.0374  1.4576
13480SOL     OW43716   7.866   1.446   9.027 -0.3528  0.2429 -0.0970
13480SOL    HW143717   7.783   1.475   9.065 -0.5750 -0.3943 -0.0855
13480SOL    HW243718   7.879   1.357   9.061 -0.4375 -0.2589 -1.3091
13481SOL     OW43719   0.018   8.892   0.898 -0.0758 -0.1571  0.4996
13481SOL    HW143720  -0.047   8.822   0.911 -0.4754  0.1367  0.1308
13481SOL    HW243721  -0.025   8.971   0.930  0.9807 -0.3174  2.4267
13482SOL     OW43722   0.356  10.485   1.525 -0.1055 -0.2988  0.0795
13482SOL    HW143723   0.356  10.565   1.473  2.5225  0.7126  1.4280
13482SOL    HW243724   0.431  10.436   1.493  1.9707  0.6319  3.0605
13483SOL     OW43725   6.737   4.817   3.425 -0.1956  0.1902 -0.4126
13483SOL    HW143726   6.642   4.815   3.437 -0.3080 -0.1791 -1.2272
13483SOL    HW243727   6.749   4.850   3.336  0.4961  1.2968  0.0674
13484SOL     OW43728   3.308   2.669   6.486 -0.0917  0.0494  0.0991
13484SOL    HW143729   3.279   2.747   6.438  0.0848 -1.1675 -2.1371
13484SOL    HW243730   3.233   2.645   6.539 -0.4053  1.3165  0.2763
13485SOL     OW43731   2.876   3.111   8.151  0.0651  0.3468 -0.2167
13485SOL    HW143732   2.863   3.170   8.225  2.1409 -0.2144  0.6769
13485SOL    HW243733   2.797   3.057   8.149 -0.9561  1.7683  0.2334
13486SOL     OW43734  10.969   6.086   7.150 -0.5677 -0.1209  0.2796
13486SOL    HW143735  10.942   6.095   7.242  1.7473  2.4292  0.8289
13486SOL    HW243736  10.906   6.138   7.101 -0.9552 -0.2971  0.5838
13487SOL     OW43737   9.558   6.762   4.250 -0.1922 -0.2557  0.3512
13487SOL    HW143738   9.628   6.798   4.305 -2.5130 -0.6775  3.8893
13487SOL    HW243739   9.562   6.667   4.264 -0.5608 -0.4299 -0.6265
13488SOL     OW43740   0.268   9.133   6.057 -0.1715 -0.6594  0.0837
13488SOL    HW143741   0.227   9.095   6.134 -1.3293 -0.6288 -0.5083
13488SOL    HW243742   0.349   9.173   6.090 -2.2748  2.4578  1.9823
13489SOL     OW43743   5.921   2.292   2.796 -0.0313  0.4346 -0.3107
13489SOL    HW143744   5.934   2.205   2.759 -3.3120 -0.0858 -0.5658
13489SOL    HW243745   5.980   2.296   2.871  2.6628 -0.6290 -2.1963
13490SOL     OW43746   7.992   5.847   9.176  0.0326  0.8852  0.2517
13490SOL    HW143747   7.992   5.923   9.118  0.3849 -0.9409 -2.3211
13490SOL    HW243748   7.926   5.788   9.138  0.9792 -0.7950  1.1248
13491SOL     OW43749   0.185   2.196   1.393  0.0021 -0.1540  0.4714
13491SOL    HW143750   0.239   2.161   1.463 -0.2652 -1.5926 -0.0189
13491SOL    HW243751   0.142   2.273   1.432  0.5708 -0.3811  1.5766
13492SOL     OW43752   5.978   7.584   2.182  0.4115  0.1797 -0.4139
13492SOL    HW143753   6.044   7.649   2.158  1.6812  0.0658  2.3786
13492SOL    HW243754   5.904   7.635   2.214  1.0623  0.3179  0.9375
13493SOL     OW43755   8.745   5.967   9.373 -0.3674 -0.0209  0.5377
13493SOL    HW143756   8.693   6.017   9.310  0.1460  1.3445  1.1635
13493SOL    HW243757   8.680   5.921   9.426 -0.8434 -0.1251 -0.1144
13494SOL     OW43758  10.908   4.773   7.213  0.4476 -0.1617  0.0088
13494SOL    HW143759  10.901   4.867   7.228  0.2425 -0.2632  0.5861
13494SOL    HW243760  10.983   4.746   7.265  1.1297 -0.1567 -0.9567
13495SOL     OW43761   2.014   2.066  10.595  0.2919  0.3081  0.1893
13495SOL    HW143762   2.007   1.991  10.535 -1.3877  1.4036 -1.0742
13495SOL    HW243763   2.064   2.032  10.669  0.0315 -1.9269 -0.5661
13496SOL     OW43764   1.477   4.766   0.586 -0.0773  0.2678 -0.6201
13496SOL    HW143765   1.386   4.762   0.556 -0.0868 -0.2447 -0.5278
13496SOL    HW243766   1.474   4.823   0.662 -0.2250  0.7310 -0.9678
13497SOL     OW43767   0.294   3.932  10.988  0.5628 -0.1055 -0.2518
13497SOL    HW143768   0.251   3.887  11.061  1.0665 -0.8508 -0.3928
13497SOL    HW243769   0.225   3.983  10.946  0.5258  1.4369  1.5548
13498SOL     OW43770   7.094  10.206  10.434 -0.2225 -0.2232 -0.8116
13498SOL    HW143771   7.167  10.163  10.390 -0.5168 -0.4172 -1.1193
13498SOL    HW243772   7.117  10.204  10.527  0.2900 -0.0309 -0.9302
13499SOL     OW43773   6.230   9.119   8.215  1.1704 -0.0911 -0.8291
13499SOL    HW143774   6.151   9.166   8.242  0.8673  0.4469 -2.5409
13499SOL    HW243775   6.221   9.033   8.257  0.4377  0.4573  0.2127
13500SOL     OW43776  10.086   3.531   1.262 -0.6335  0.1186  0.6378
13500SOL    HW143777  10.075   3.441   1.231 -0.1828 -0.6623  2.5951
13500SOL    HW243778  10.150   3.569   1.202  0.0191 -1.2407  0.4188
13501SOL     OW43779   7.999   3.235   1.332  0.1100 -0.0863 -0.6491
13501SOL    HW143780   8.038   3.206   1.415 -0.8693  1.2601  0.3374
13501SOL    HW243781   7.928   3.293   1.359  0.0267  0.7013 -2.4629
13502SOL     OW43782   3.761  10.382   3.104 -0.2250 -0.6902  0.0938
13502SOL    HW143783   3.836  10.422   3.060  0.2035 -0.7319  0.7729
13502SOL    HW243784   3.789  10.293   3.124 -0.8484 -1.0517 -0.5999
13503SOL     OW43785   9.449   7.704   2.241  0.6608  0.0091 -0.1371
13503SOL    HW143786   9.423   7.796   2.232  1.9384  0.3120 -1.0078
13503SOL    HW243787   9.391   7.657   2.181  1.3451  0.5392 -1.2584
13504SOL     OW43788   3.549   4.037   9.331  0.0715  0.7758  0.2311
13504SOL    HW143789   3.532   4.021   9.238  3.3906  0.0969 -0.3765
13504SOL    HW243790   3.639   4.010   9.344 -0.2554  0.8970  3.6988
13505SOL     OW43791   9.201   4.724   2.818  0.4664 -0.4178  0.6436
13505SOL    HW143792   9.203   4.673   2.899 -1.2080 -1.7399 -0.1004
13505SOL    HW243793   9.161   4.666   2.753  2.8400  0.1322 -1.5083
13506SOL     OW43794  10.561   5.742   4.984  0.0041 -0.2587 -0.1374
13506SOL    HW143795  10.523   5.731   5.071 -0.4526  2.2400  0.0373
13506SOL    HW243796  10.647   5.781   5.000  0.0665 -0.1197 -0.8015
13507SOL     OW43797   8.519   5.708   1.914 -0.4539  0.1141 -0.2925
13507SOL    HW143798   8.567   5.774   1.965 -0.1196 -1.3881  1.4675
13507SOL    HW243799   8.588   5.656   1.872 -0.6552  0.0299 -0.5177
13508SOL     OW43800   1.211   0.465   8.335 -0.1174 -0.1674  0.4365
13508SOL    HW143801   1.265   0.526   8.285 -0.4279 -1.0561 -1.0521
13508SOL    HW243802   1.211   0.500   8.424  1.3808  0.8630  0.0712
13509SOL     OW43803  10.355   8.280   8.810  0.1195  0.2008 -0.0349
13509SOL    HW143804  10.377   8.332   8.733  0.6881  0.1804  0.1096
13509SOL    HW243805  10.355   8.343   8.882 -0.4829  0.2333 -0.0532
13510SOL     OW43806   9.576   1.985   9.751 -0.2996 -0.1878 -0.2213
13510SOL    HW143807   9.576   1.900   9.708 -2.3033 -0.5155  0.3380
13510SOL    HW243808   9.562   1.965   9.844 -0.8490  0.7358 -0.0841
13511SOL     OW43809   1.815   1.182  10.216 -0.2851  0.0987 -0.3041
13511SOL    HW143810   1.795   1.270  10.249 -1.6788 -0.1233 -0.4928
13511SOL    HW243811   1.746   1.164  10.153 -1.0598 -1.8106  0.9952
13512SOL     OW43812   0.785   5.365   5.661  1.0590 -0.2971  0.1432
13512SOL    HW143813   0.797   5.392   5.752  1.3624 -0.5613  0.1795
13512SOL    HW243814   0.844   5.422   5.611  1.1665 -0.4027  0.1490
13513SOL     OW43815  11.079   3.276   3.722 -0.0139  0.2938  0.3632
13513SOL    HW143816  11.166   3.306   3.695 -0.6335  3.4202  1.4611
13513SOL    HW243817  11.087   3.259   3.815 -0.1226 -1.5052  0.0791
13514SOL     OW43818   3.657   4.217   9.761  0.3711 -0.4525 -0.4254
13514SOL    HW143819   3.564   4.235   9.752  0.5134  0.0226 -0.9530
13514SOL    HW243820   3.694   4.230   9.674  1.2489  1.2962  0.1393
13515SOL     OW43821   8.861   4.393   6.173  0.0212 -0.1962 -1.1303
13515SOL    HW143822   8.784   4.449   6.167  0.4293  0.2715 -2.1778
13515SOL    HW243823   8.905   4.404   6.089  1.5127 -0.0428 -0.3599
13516SOL     OW43824   6.433   3.589   8.669  0.0146  0.2611 -0.0193
13516SOL    HW143825   6.472   3.642   8.599  1.7218 -2.8120 -1.6160
13516SOL    HW243826   6.508   3.553   8.716 -0.9277 -2.0441 -0.1383
13517SOL     OW43827   2.938   8.433   0.587  0.0278  0.7631 -0.8032
13517SOL    HW143828   2.890   8.392   0.659  0.8574  0.1938 -0.5598
13517SOL    HW243829   3.011   8.373   0.569  0.8313  1.7597 -0.9478
13518SOL     OW43830   4.980   5.899  10.364 -0.5144  0.0073  0.1637
13518SOL    HW143831   4.968   5.811  10.399 -0.3688  0.3790  1.2016
13518SOL    HW243832   4.908   5.911  10.302  0.5647 -1.5307 -1.4747
13519SOL     OW43833   9.646   2.370   6.421 -0.2989  0.6979 -0.5991
13519SOL    HW143834   9.667   2.305   6.488 -0.9227  2.0030  0.9398
13519SOL    HW243835   9.711   2.356   6.352  0.0217 -1.0494  0.0180
13520SOL     OW43836   0.310   4.625   2.227 -0.4828  0.2578 -0.1052
13520SOL    HW143837   0.267   4.540   2.236 -0.9230  0.6118  1.2247
13520SOL    HW243838   0.315   4.638   2.132 -2.3979 -0.2548 -0.3268
13521SOL     OW43839   1.336   8.648   7.021 -0.0280 -0.0416 -0.4041
13521SOL    HW143840   1.316   8.741   7.016  0.3025  0.0849  0.5298
13521SOL    HW243841   1.269   8.611   7.077 -0.3289 -0.4273 -1.0025
13522SOL     OW43842   4.563   6.879   2.295  0.0255 -0.6641 -0.6433
13522SOL    HW143843   4.629   6.943   2.321 -0.6596 -0.3686  0.4243
13522SOL    HW243844   4.483   6.929   2.285  0.0246 -0.9365 -2.4315
13523SOL     OW43845   2.890   2.466   2.532 -0.2412  0.8522 -0.5039
13523SOL    HW143846   2.921   2.536   2.474  1.0188  1.8251  1.2711
13523SOL    HW243847   2.862   2.510   2.612  1.4873 -0.6670  1.0477
13524SOL     OW43848   2.573   6.457   8.685  0.0453  0.1560  0.2746
13524SOL    HW143849   2.500   6.485   8.629 -0.5518 -0.0479  0.9441
13524SOL    HW243850   2.561   6.506   8.766  1.0857  0.6811  0.1261
13525SOL     OW43851   4.682   0.903   7.285  0.1056  0.0360  0.2165
13525SOL    HW143852   4.736   0.860   7.351  1.1381  0.8321 -0.0934
13525SOL    HW243853   4.732   0.898   7.204 -1.3622 -1.3564 -0.6709
13526SOL     OW43854   5.557   9.711   4.721  0.1484  0.4302  0.0812
13526SOL    HW143855   5.597   9.781   4.669 -1.6942  0.4792 -1.3559
13526SOL    HW243856   5.591   9.725   4.809  1.0702  2.1576 -0.4982
13527SOL     OW43857   9.067   4.498   1.619  0.5582  0.7276 -0.7490
13527SOL    HW143858   9.060   4.564   1.550  0.8800 -0.3590 -1.8528
13527SOL    HW243859   9.157   4.465   1.612  0.7128  0.8438  0.4333
13528SOL     OW43860   4.895   8.569   8.955 -0.2281  0.4687 -0.5219
13528SOL    HW143861   4.889   8.654   8.912 -0.1394  0.2139 -1.0441
13528SOL    HW243862   4.983   8.538   8.937  0.1140  0.7483  0.6030
13529SOL     OW43863   3.466  10.192  10.941  0.4804  0.6963  0.0730
13529SOL    HW143864   3.465  10.267  10.881 -0.9694  1.0055  0.4510
13529SOL    HW243865   3.552  10.197  10.983  2.4303 -0.7142 -3.3500
13530SOL     OW43866   1.575  10.622   0.266 -0.3799 -0.1046 -0.5331
13530SOL    HW143867   1.641  10.589   0.326 -1.1880 -0.7918  0.0025
13530SOL    HW243868   1.496  10.630   0.319 -0.4748  1.7868 -0.8834
13531SOL     OW43869   9.465   0.074   5.087  0.5944 -0.5175 -0.3154
13531SOL    HW143870   9.373   0.064   5.112  0.0544 -0.4386 -2.1447
13531SOL    HW243871   9.492  -0.014   5.059  0.5559 -0.1991 -1.3893
13532SOL     OW43872   5.131   9.906   6.473  0.1521  0.4210  0.0767
13532SOL    HW143873   5.082   9.824   6.477  0.2916  0.3764  0.9270
13532SOL    HW243874   5.136   9.926   6.379 -0.8935  0.0712 -0.0678
13533SOL     OW43875  10.650   8.257   2.648 -0.4200 -0.5804 -0.3293
13533SOL    HW143876  10.689   8.186   2.699 -0.6238  0.5823  1.5380
13533SOL    HW243877  10.686   8.336   2.687 -1.3948  0.4000 -1.3636
13534SOL     OW43878   2.587   8.387  11.287 -0.1476 -1.0714  0.2984
13534SOL    HW143879   2.641   8.447  11.235 -1.1852  0.1296  0.5607
13534SOL    HW243880   2.572   8.313  11.229 -0.3478 -0.2619 -0.7227
13535SOL     OW43881   5.434  10.428   4.401  0.2855 -0.5138 -0.0203
13535SOL    HW143882   5.516  10.422   4.351  0.3980  0.9064 -0.0472
13535SOL    HW243883   5.457  10.398   4.489  0.7049 -0.6196 -0.1638
13536SOL     OW43884   5.998   1.987   5.776 -0.9000 -0.3754  0.2953
13536SOL    HW143885   5.938   2.061   5.769 -1.0504 -0.3822  1.3672
13536SOL    HW243886   6.064   2.015   5.840 -0.7025 -0.9966  0.3742
13537SOL     OW43887   1.917   4.776   2.855  0.2368 -0.4263 -0.6336
13537SOL    HW143888   1.913   4.827   2.773  1.2608 -0.9480 -1.0317
13537SOL    HW243889   1.997   4.724   2.846 -0.2854 -1.3949  0.1854
13538SOL     OW43890   4.532   2.026   2.537  0.3635  0.0703 -0.6879
13538SOL    HW143891   4.616   1.993   2.570  0.4503  0.1195 -0.8590
13538SOL    HW243892   4.554   2.072   2.455  0.3534  1.2646 -0.0395
13539SOL     OW43893   9.518  10.126  10.886 -0.1762 -0.0513  0.1812
13539SOL    HW143894   9.604  10.129  10.844 -0.6876  0.7874 -0.8780
13539SOL    HW243895   9.518  10.201  10.946  0.0212 -0.3673  0.5782
13540SOL     OW43896   4.715   0.512   5.367 -0.3989  0.1831  0.2213
13540SOL    HW143897   4.717   0.525   5.462 -1.0292 -1.1892  0.4478
13540SOL    HW243898   4.623   0.521   5.343 -0.2446  0.4982 -0.2616
13541SOL     OW43899   5.196   2.256   7.591 -0.3513  0.1841 -0.6186
13541SOL    HW143900   5.194   2.162   7.610  0.7806  0.2022 -0.3842
13541SOL    HW243901   5.116   2.271   7.539  0.1359 -1.1557 -1.8215
13542SOL     OW43902   2.790   3.668   0.631  0.4465  0.2675  0.2490
13542SOL    HW143903   2.768   3.581   0.598 -1.1488  0.6447  0.2392
13542SOL    HW243904   2.762   3.666   0.723 -2.0007  1.5250 -0.3824
13543SOL     OW43905  10.058   5.842   8.929 -0.2602  0.8053  0.0186
13543SOL    HW143906  10.023   5.858   8.842 -3.1784  2.8289  1.3655
13543SOL    HW243907  10.117   5.915   8.945  1.0392 -0.0906 -0.5645
13544SOL     OW43908  10.373   4.305   3.604  0.1638  0.2334 -0.0562
13544SOL    HW143909  10.342   4.217   3.626  0.1281  0.4665  0.8716
13544SOL    HW243910  10.332   4.325   3.520 -0.6695 -0.2257  0.2334
13545SOL     OW43911   6.744   6.728   5.484  0.1432 -0.2255 -0.6740
13545SOL    HW143912   6.819   6.668   5.492 -0.6356 -1.4030 -1.7191
13545SOL    HW243913   6.753   6.788   5.557  1.7925 -0.7003 -0.4476
13546SOL     OW43914   8.959   3.412   8.509 -0.0594  0.4824 -0.7046
13546SOL    HW143915   9.007   3.414   8.592  1.5609  3.0554 -1.5717
13546SOL    HW243916   8.965   3.321   8.480  1.5036  0.0418  0.8134
13547SOL     OW43917   7.758   7.989  10.277 -0.3465  0.6471 -0.3891
13547SOL    HW143918   7.824   7.933  10.317  0.3460  2.1041  0.5957
13547SOL    HW243919   7.681   7.933  10.267  0.0835 -0.2824  1.1961
13548SOL     OW43920   6.122   9.925   1.118 -0.2851 -0.0823  0.8525
13548SOL    HW143921   6.181   9.959   1.052 -0.5125 -0.6511  0.3502
13548SOL    HW243922   6.100   9.837   1.088 -2.6785  0.6764  0.1504
13549SOL     OW43923   1.895   5.536   1.069  0.2300  0.3948  0.5607
13549SOL    HW143924   1.963   5.602   1.060  0.1741  0.2235 -2.0489
13549SOL    HW243925   1.909   5.477   0.994 -2.4576  0.0712  0.1956
13550SOL     OW43926   5.728   1.407   1.666 -0.3993 -1.1791  0.4134
13550SOL    HW143927   5.692   1.495   1.664 -0.1129 -1.0704 -0.3270
13550SOL    HW243928   5.707   1.374   1.754  1.6368  0.5148  1.6318
13551SOL     OW43929   4.157  11.280   7.330  0.1945 -0.1273  0.3100
13551SOL    HW143930   4.161  11.253   7.421 -0.5003  0.2004  0.4506
13551SOL    HW243931   4.153  11.376   7.333  0.3633 -0.1027 -0.0729
13552SOL     OW43932   6.189  10.017   0.512  0.1408  0.6988  0.4014
13552SOL    HW143933   6.220  10.096   0.557 -1.4260  1.0657  0.9029
13552SOL    HW243934   6.121   9.981   0.569  0.1482 -0.4670 -0.2902
13553SOL     OW43935   0.005  10.467   2.360  0.2440  0.0161 -0.4008
13553SOL    HW143936  -0.008  10.516   2.441  0.3211  1.0095 -0.9752
13553SOL    HW243937  -0.070  10.489   2.306  0.6960  0.1535 -0.9858
13554SOL     OW43938   6.116   4.086  10.309  0.7775 -0.3981 -0.1932
13554SOL    HW143939   6.125   4.181  10.300  0.1896 -0.2635  0.5122
13554SOL    HW243940   6.196   4.059  10.354  0.0622  0.0681  1.4526
13555SOL     OW43941   9.672   1.034   6.595 -0.0214 -0.2793  0.4544
13555SOL    HW143942   9.654   0.948   6.558 -1.2565 -0.1764  0.7764
13555SOL    HW243943   9.712   1.083   6.523 -1.3627 -0.4331 -0.4393
13556SOL     OW43944   6.007   8.065   5.012 -0.1134 -0.0306  0.5311
13556SOL    HW143945   6.029   8.025   5.096 -1.7428  0.4092  1.2054
13556SOL    HW243946   5.913   8.051   5.002 -0.4829  2.3758  0.1218
13557SOL     OW43947   9.191   9.657   4.659 -0.0356  0.0433 -0.6039
13557SOL    HW143948   9.183   9.638   4.565  0.1272 -0.6832 -0.4780
13557SOL    HW243949   9.109   9.700   4.682  0.3223  1.1287 -1.2845
13558SOL     OW43950   6.418   1.790   4.267 -0.1427  0.5168  0.3046
13558SOL    HW143951   6.325   1.813   4.265 -0.1630  0.8418  2.4585
13558SOL    HW243952   6.429   1.729   4.194 -1.3876  2.6491 -1.8326
13559SOL     OW43953   9.306   8.516   2.127 -0.0639 -0.2047 -0.2160
13559SOL    HW143954   9.235   8.576   2.149 -1.1436 -1.3501 -0.4455
13559SOL    HW243955   9.289   8.491   2.036  0.7445 -0.3657 -0.3355
13560SOL     OW43956  11.040  10.547   0.783 -0.2355  0.2479  0.4827
13560SOL    HW143957  11.072  10.506   0.863  0.5370 -1.5940 -0.7028
13560SOL    HW243958  10.967  10.602   0.812  0.0837 -0.2824  2.4503
13561SOL     OW43959   4.740  11.353   5.064 -0.5287  0.3866 -0.1779
13561SOL    HW143960   4.719  11.260   5.070  0.2851  0.2663  1.3894
13561SOL    HW243961   4.814  11.357   5.004  0.1415 -0.1219  0.5932
13562SOL     OW43962  10.027   3.772   4.610  0.0477 -0.4411 -0.3854
13562SOL    HW143963   9.946   3.746   4.566  0.8419 -0.2938 -2.0009
13562SOL    HW243964  10.040   3.863   4.584  1.7957 -1.0704 -1.8793
13563SOL     OW43965   8.116  11.323  10.286  0.1518 -0.0066 -0.1991
13563SOL    HW143966   8.168  11.246  10.305  1.8666  1.1663  0.0256
13563SOL    HW243967   8.115  11.373  10.367  0.3486  0.9406 -0.7632
13564SOL     OW43968   0.264   8.513   4.364  0.0890 -0.4579 -0.0819
13564SOL    HW143969   0.276   8.608   4.357  1.1971 -0.4225  1.6881
13564SOL    HW243970   0.236   8.499   4.454 -1.0521 -1.7573 -0.6018
13565SOL     OW43971   1.149   4.512   8.738  0.4936 -0.0881  0.3964
13565SOL    HW143972   1.227   4.520   8.683  1.0402  0.2051  1.1865
13565SOL    HW243973   1.140   4.418   8.755 -0.1209 -0.2613 -0.7885
13566SOL     OW43974   1.726   7.830   8.707  0.1933  0.2613  0.0826
13566SOL    HW143975   1.729   7.799   8.798 -0.6799  0.3296  0.1521
13566SOL    HW243976   1.771   7.915   8.709 -0.0788  0.4023  0.5226
13567SOL     OW43977   4.962   2.335   6.839  0.2671 -0.4341  0.3972
13567SOL    HW143978   4.974   2.257   6.894 -0.4197 -1.1834 -0.4706
13567SOL    HW243979   4.917   2.397   6.895  0.5252 -0.7814  1.0059
13568SOL     OW43980   5.824   3.429   8.956  0.0837  0.0192 -0.0823
13568SOL    HW143981   5.895   3.380   8.914 -2.2696 -2.4564 -1.5604
13568SOL    HW243982   5.818   3.391   9.044  0.3228 -0.0297 -0.0848
13569SOL     OW43983   4.380   5.712   0.844  0.1757  0.6385  0.7539
13569SOL    HW143984   4.330   5.670   0.914 -0.5339  0.8499  0.3936
13569SOL    HW243985   4.402   5.799   0.878  0.3726  0.5123  0.9481
13570SOL     OW43986   7.566   9.613   0.973  0.2100 -0.2908  0.0503
13570SOL    HW143987   7.603   9.547   0.914 -0.2199 -0.7085  0.2369
13570SOL    HW243988   7.489   9.570   1.012 -0.5455  0.5993 -0.4252
13571SOL     OW43989   8.528  10.164   6.191 -0.0060 -0.7408  0.3595
13571SOL    HW143990   8.516  10.259   6.193 -1.0501 -0.8486 -0.0048
13571SOL    HW243991   8.543  10.139   6.282  2.9182  0.0477  0.2129
13572SOL     OW43992   3.331   9.817   3.086 -0.1804  0.0828  0.7826
13572SOL    HW143993   3.350   9.909   3.104  0.5395 -0.0277  0.6424
13572SOL    HW243994   3.412   9.784   3.046 -0.0400 -0.8733  1.8049
13573SOL     OW43995   1.122   4.520   8.434 -0.0786 -0.3292 -0.2872
13573SOL    HW143996   1.135   4.490   8.345  1.0240  0.7303 -0.5174
13573SOL    HW243997   1.171   4.457   8.488 -0.4425 -0.7600 -0.4544
13574SOL     OW43998   9.798   2.627   6.366  0.3851  0.8421 -0.2000
13574SOL    HW143999   9.871   2.569   6.346 -0.2808  0.6618 -2.3241
13574SOL    HW244000   9.831   2.685   6.435  0.8653 -2.4364  2.5979
13575SOL     OW44001  10.790   7.854   8.683 -0.2425 -0.3696 -0.3634
13575SOL    HW144002  10.768   7.862   8.776  0.7545  1.8858 -0.2563
13575SOL    HW244003  10.749   7.772   8.656 -0.9037 -0.8910  1.9566
13576SOL     OW44004   8.435  10.857   0.511 -0.3736 -0.2199  0.2895
13576SOL    HW144005   8.402  10.946   0.499 -0.7116 -0.4602 -0.6905
13576SOL    HW244006   8.422  10.815   0.426  2.3690 -0.3785 -0.1576
13577SOL     OW44007   1.274   8.708   1.466  0.1981 -0.1793  0.0100
13577SOL    HW144008   1.367   8.729   1.474  1.0101 -2.7030 -1.4630
13577SOL    HW244009   1.272   8.613   1.449 -2.6418 -0.1965 -0.1159
13578SOL     OW44010   4.373   6.741   2.647 -0.3548 -0.4032 -0.1757
13578SOL    HW144011   4.288   6.700   2.630 -0.6323  0.3024 -0.5576
13578SOL    HW244012   4.359   6.834   2.627  0.4515 -0.2424 -0.0349
13579SOL     OW44013   9.714   7.864   7.047  0.4286  0.4060  0.4769
13579SOL    HW144014   9.795   7.815   7.061  1.0774  1.3743  0.2207
13579SOL    HW244015   9.742   7.946   7.006 -0.6631  0.8562  0.5860
13580SOL     OW44016   2.541   2.613   5.031 -0.4326 -0.1027  0.1942
13580SOL    HW144017   2.458   2.661   5.023 -0.9207 -0.6996  1.4083
13580SOL    HW244018   2.516   2.521   5.026  0.3028 -0.2709 -0.5322
13581SOL     OW44019   4.736   5.855   6.403  0.6517 -0.6615  0.4036
13581SOL    HW144020   4.814   5.841   6.456 -0.4269  0.8575  2.5352
13581SOL    HW244021   4.750   5.941   6.362  0.9009 -1.2442 -0.7841
13582SOL     OW44022   5.313   3.861   0.436  0.0587  0.1744 -0.0398
13582SOL    HW144023   5.232   3.904   0.410 -0.4038 -1.5025 -1.5923
13582SOL    HW244024   5.376   3.884   0.368  1.1394  1.9535  1.4604
13583SOL     OW44025   2.174  10.140   7.317  0.5787  0.0024  0.0416
13583SOL    HW144026   2.131  10.119   7.399  0.7706 -0.3675  0.0494
13583SOL    HW244027   2.247  10.198   7.341  0.8674 -0.4146  0.1770
13584SOL     OW44028   5.591   9.514   8.342 -0.2106  0.7731 -0.3614
13584SOL    HW144029   5.510   9.549   8.379  0.4143  0.0186  1.8820
13584SOL    HW244030   5.572   9.423   8.324  0.2297  0.4733  0.6039
13585SOL     OW44031   5.601  11.223  10.520 -0.2969 -0.0638  0.0595
13585SOL    HW144032   5.665  11.157  10.494 -0.9717 -0.4349 -0.7002
13585SOL    HW244033   5.613  11.294  10.457  0.3215  0.4904  0.7827
13586SOL     OW44034  10.166   8.671   6.327 -0.6146  0.0106 -0.5156
13586SOL    HW144035  10.115   8.752   6.331  0.3217  0.6090 -0.4131
13586SOL    HW244036  10.153   8.629   6.412  1.6084  1.7716  0.8267
13587SOL     OW44037   6.654   7.651   3.491 -0.5630  0.4353  0.1503
13587SOL    HW144038   6.595   7.587   3.452 -0.3364  0.0126  0.5058
13587SOL    HW244039   6.742   7.620   3.469 -0.4352  1.9644 -1.8805
13588SOL     OW44040   8.996   1.378   8.666  0.4164 -0.2028 -0.3020
13588SOL    HW144041   9.078   1.341   8.634 -0.2850 -0.2918 -2.0975
13588SOL    HW244042   8.991   1.465   8.626 -0.8220 -0.5893 -1.0423
13589SOL     OW44043   4.993   7.309   9.715  0.3542 -0.3979  0.3010
13589SOL    HW144044   4.941   7.321   9.794  0.5429 -0.8129  0.4897
13589SOL    HW244045   5.065   7.252   9.741 -0.0792 -1.3015 -0.3689
13590SOL     OW44046   6.172   1.962   5.215  0.1909 -0.7258  0.9220
13590SOL    HW144047   6.171   2.047   5.259  0.4812  0.5336 -1.3572
13590SOL    HW244048   6.203   1.901   5.282  3.3340  1.5225  1.7640
13591SOL     OW44049   3.683   7.899   9.777 -0.2856  0.9175 -1.0908
13591SOL    HW144050   3.750   7.831   9.769  0.0631  0.7624  1.9378
13591SOL    HW244051   3.619   7.862   9.838 -0.3650  3.0470  0.2237
13592SOL     OW44052   2.184   5.495   6.024  0.0148  0.1539 -0.1102
13592SOL    HW144053   2.170   5.472   6.116  0.4948 -0.2884 -0.1396
13592SOL    HW244054   2.275   5.527   6.022  0.4057 -0.9343 -0.6259
13593SOL     OW44055   2.710   7.603   6.547 -0.1925  0.0174  0.0480
13593SOL    HW144056   2.727   7.536   6.614  0.6744 -1.7557 -1.8272
13593SOL    HW244057   2.794   7.614   6.503 -0.7031  1.2500 -0.6552
13594SOL     OW44058   2.800   3.931   9.595 -0.3234  0.4338 -0.7916
13594SOL    HW144059   2.883   3.889   9.571 -0.5704  0.3914 -1.6164
13594SOL    HW244060   2.745   3.922   9.517 -1.9213 -1.5241  0.4650
13595SOL     OW44061   8.049   7.973   0.722  0.3424  0.2771  0.0485
13595SOL    HW144062   7.970   7.988   0.670 -0.1305 -0.1675  0.6230
13595SOL    HW244063   8.121   7.998   0.664 -0.2671  2.3245  0.0970
13596SOL     OW44064   4.289   2.878   7.328  0.0472 -0.0475 -0.1684
13596SOL    HW144065   4.323   2.917   7.408 -1.0327 -0.7330  0.6712
13596SOL    HW244066   4.211   2.930   7.307  1.4650  1.4466 -2.0044
13597SOL     OW44067   6.908   2.926  10.280 -0.2693 -0.0834 -0.5738
13597SOL    HW144068   6.939   2.951  10.192 -0.9605 -0.6642 -0.9943
13597SOL    HW244069   6.984   2.885  10.321  0.3901  1.1627 -0.4813
13598SOL     OW44070   0.277   4.812   3.371 -0.5769 -0.3326 -0.1780
13598SOL    HW144071   0.369   4.810   3.398 -0.5372 -0.3589 -0.3158
13598SOL    HW244072   0.278   4.850   3.284 -0.8479  1.1535  0.4325
13599SOL     OW44073   1.334   5.863   7.654  0.2316  0.0169  0.7772
13599SOL    HW144074   1.293   5.946   7.675  0.4769  0.0695  1.0527
13599SOL    HW244075   1.375   5.877   7.568  0.3811  0.2153  0.8826
13600SOL     OW44076   6.435   1.233   6.340 -0.6435  0.3091 -0.5711
13600SOL    HW144077   6.473   1.306   6.389  0.6426 -1.6970  1.6015
13600SOL    HW244078   6.341   1.239   6.358 -0.2379 -0.3288  2.3033
13601SOL     OW44079   8.482   7.066  11.339 -0.4017  0.2157  0.3023
13601SOL    HW144080   8.399   7.020  11.347 -1.6223  2.4093  1.1394
13601SOL    HW244081   8.524   7.026  11.263 -1.5492 -1.9051  0.7091
13602SOL     OW44082   8.303   0.639   7.520  0.1942  0.0336  0.0012
13602SOL    HW144083   8.212   0.670   7.522  0.2484  0.1874  0.7589
13602SOL    HW244084   8.297   0.547   7.547 -0.0454 -0.9273 -2.9501
13603SOL     OW44085   5.298   3.428  10.553  0.4520  0.1684  0.1295
13603SOL    HW144086   5.336   3.491  10.492 -1.5166  1.2017 -0.1171
13603SOL    HW244087   5.253   3.365  10.497 -0.1764  0.3153  0.4614
13604SOL     OW44088   6.873  10.345   8.095 -0.5323  0.6480 -0.1790
13604SOL    HW144089   6.907  10.433   8.080  0.2062  0.2856 -0.6770
13604SOL    HW244090   6.779  10.352   8.079 -0.3928  1.2212 -0.7553
13605SOL     OW44091   8.619  11.341  10.319  0.0589  0.3094 -0.3181
13605SOL    HW144092   8.550  11.292  10.364 -1.7928  0.8126 -2.4753
13605SOL    HW244093   8.687  11.352  10.386 -1.7509 -0.5250  1.7893
13606SOL     OW44094   7.937   6.324   3.375  0.2424 -0.5986  0.1101
13606SOL    HW144095   7.886   6.402   3.397  0.1834 -0.8128  0.7273
13606SOL    HW244096   8.019   6.335   3.422  0.4355 -0.6718 -0.2028
13607SOL     OW44097   2.331  10.662   9.203  0.2776  0.6732  0.4874
13607SOL    HW144098   2.250  10.703   9.233  0.4780  0.3269  1.5680
13607SOL    HW244099   2.384  10.734   9.170  0.1968  1.1466  1.3626
13608SOL     OW44100   2.236   0.533   6.167 -0.2501  0.1277 -0.3484
13608SOL    HW144101   2.325   0.532   6.130 -0.2861 -4.0578 -0.8883
13608SOL    HW244102   2.250   0.521   6.261 -0.1550 -1.1276 -0.4972
13609SOL     OW44103   3.690   3.875   5.475  0.2040 -0.2266 -0.1812
13609SOL    HW144104   3.660   3.965   5.488  2.3850  0.6265 -0.5928
13609SOL    HW244105   3.676   3.858   5.382  0.6715  0.0363 -0.2994
13610SOL     OW44106   8.250   2.405   4.799  0.0868  0.3097  0.2691
13610SOL    HW144107   8.190   2.477   4.777  0.2956  0.5247  0.3948
13610SOL    HW244108   8.275   2.422   4.890  1.9589  1.4133 -0.3978
13611SOL     OW44109  11.344   8.597   0.876 -0.4473  0.0402  0.4197
13611SOL    HW144110  11.275   8.581   0.941 -0.0657  0.2788  0.8934
13611SOL    HW244111  11.299   8.599   0.792 -1.1964  1.4039  0.8338
13612SOL     OW44112   2.727   7.950   8.947 -0.0153 -0.0134  0.2541
13612SOL    HW144113   2.692   7.861   8.942 -1.0588  0.3950 -0.0612
13612SOL    HW244114   2.735   7.977   8.855  2.8822 -0.7193  0.2095
13613SOL     OW44115   4.646   5.328   0.490  0.2317 -0.1278  0.3725
13613SOL    HW144116   4.648   5.394   0.421  0.2722  1.8096  2.1147
13613SOL    HW244117   4.553   5.313   0.507  0.2181  0.2245  0.6228
13614SOL     OW44118   6.991   9.888   2.785 -0.1449 -0.3243  0.3402
13614SOL    HW144119   6.899   9.865   2.771 -0.1342  0.0720 -0.4599
13614SOL    HW244120   6.996   9.914   2.877 -0.9789  0.3101  0.2211
13615SOL     OW44121   8.480  11.074   2.303  0.5099 -0.1895 -0.1448
13615SOL    HW144122   8.424  11.087   2.380  0.3771  2.3923 -0.6162
13615SOL    HW244123   8.567  11.056   2.340  0.6833  2.0770  0.6867
13616SOL     OW44124   2.321   5.363   7.795  0.0959  0.3087  0.7322
13616SOL    HW144125   2.406   5.349   7.752 -0.4558  0.6746 -0.5277
13616SOL    HW244126   2.332   5.446   7.842  1.0706 -0.6546  2.2958
13617SOL     OW44127   3.672  10.052  10.201  0.0687  0.1507 -0.5184
13617SOL    HW144128   3.600  10.107  10.171  0.8401  1.7787  0.5296
13617SOL    HW244129   3.731  10.111  10.247  1.2678 -1.4395  0.0875
13618SOL     OW44130   6.481  10.620   2.306 -0.3219  0.1835 -0.2889
13618SOL    HW144131   6.500  10.542   2.358 -2.6513  1.7069  3.2155
13618SOL    HW244132   6.558  10.676   2.319  0.8301 -0.9460 -1.8501
13619SOL     OW44133   0.516   8.822  11.167 -0.2191 -0.0513  0.5600
13619SOL    HW144134   0.467   8.872  11.232 -0.4957  0.6430 -0.1671
13619SOL    HW244135   0.473   8.737  11.164 -1.5657  0.6409 -0.2665
13620SOL     OW44136  10.027   2.632   3.934  0.4854 -0.0330  0.2616
13620SOL    HW144137  10.081   2.709   3.916 -1.3655  0.7540 -2.7416
13620SOL    HW244138   9.940   2.667   3.952  0.0864 -1.3765  1.0865
13621SOL     OW44139  11.375   7.572   8.959  0.0591 -0.1533  0.2908
13621SOL    HW144140  11.446   7.588   8.898  0.4715 -0.5898  0.6471
13621SOL    HW244141  11.381   7.478   8.980  0.9926  0.2808  2.2728
13622SOL     OW44142   5.857   0.557   0.362 -0.7322  0.2893 -0.0232
13622SOL    HW144143   5.882   0.597   0.279  2.3358  0.1465  0.6996
13622SOL    HW244144   5.887   0.466   0.354  0.1549  0.4190  1.3775
13623SOL     OW44145   2.411   5.054   3.532 -1.0831  0.0208 -0.4889
13623SOL    HW144146   2.471   5.115   3.489  0.7618 -1.1934  0.2662
13623SOL    HW244147   2.456   5.028   3.612 -1.4101 -2.9358 -1.1454
13624SOL     OW44148   2.716  10.347   4.165  0.2928  0.0927  0.0476
13624SOL    HW144149   2.726  10.268   4.112 -1.2424  0.5913 -1.0439
13624SOL    HW244150   2.805  10.380   4.176  0.8125 -1.0242 -0.6580
13625SOL     OW44151  10.049   4.325   3.038  0.4091  0.0393  0.0887
13625SOL    HW144152  10.032   4.273   3.117 -1.1667 -2.3645 -1.7058
13625SOL    HW244153   9.967   4.322   2.989  1.1148  2.1158 -1.3452
13626SOL     OW44154   3.530  10.050   4.100 -0.5412 -0.0790 -0.0335
13626SOL    HW144155   3.484  10.036   4.183 -0.5081  1.3351  0.2531
13626SOL    HW244156   3.474  10.111   4.052 -0.3481 -0.5621 -0.8944
13627SOL     OW44157   9.594  10.387  10.057 -0.0183  0.3232  0.4347
13627SOL    HW144158   9.632  10.390   9.969 -1.6071  0.4467 -0.2862
13627SOL    HW244159   9.515  10.333  10.047 -0.3678  0.5749  1.7178
13628SOL     OW44160   4.574   6.575   8.239 -0.2217  0.2532 -0.3296
13628SOL    HW144161   4.665   6.586   8.267 -0.8355 -0.3881  2.2220
13628SOL    HW244162   4.528   6.650   8.277 -0.7678  0.6648 -1.7280
13629SOL     OW44163   1.401  11.258   8.086  0.2725 -0.1846 -0.0919
13629SOL    HW144164   1.391  11.262   7.991 -1.5459 -2.0395 -0.0481
13629SOL    HW244165   1.487  11.216   8.099 -0.4022 -1.9663 -1.0189
13630SOL     OW44166   1.904  10.762   2.551  0.0125  0.2635 -0.5207
13630SOL    HW144167   1.884  10.851   2.580 -2.0526  0.2976 -1.8063
13630SOL    HW244168   1.878  10.760   2.459  1.1831 -1.3346 -0.8629
13631SOL     OW44169   6.412   8.958  10.456 -0.8630 -0.0055  0.7109
13631SOL    HW144170   6.366   8.909  10.523 -2.5400  2.0501  1.1494
13631SOL    HW244171   6.410   9.049  10.486  0.8807  0.5822 -0.7382
13632SOL     OW44172  10.487  10.356   5.090  0.1188 -0.0881  0.4084
13632SOL    HW144173  10.561  10.414   5.074 -1.3586  1.9509  0.6400
13632SOL    HW244174  10.453  10.382   5.175 -1.1068 -0.7330  0.1361
13633SOL     OW44175   3.662   3.485   2.775  0.0934 -0.4835  0.2860
13633SOL    HW144176   3.732   3.549   2.789  0.5103 -0.8672 -0.0117
13633SOL    HW244177   3.699   3.423   2.712 -0.2425 -1.1083  0.6965
13634SOL     OW44178   4.117   5.570   4.526 -0.2317  0.0607 -0.2919
13634SOL    HW144179   4.045   5.625   4.556  0.2801  0.0793  0.9603
13634SOL    HW244180   4.075   5.490   4.493 -0.9392  0.9482 -1.6221
13635SOL     OW44181  11.027   4.536   0.283  0.0728  0.1793  0.0990
13635SOL    HW144182  10.953   4.590   0.312 -0.4467 -1.0657  1.2282
13635SOL    HW244183  10.986   4.454   0.253  0.9266 -0.1100 -0.2849
13636SOL     OW44184   0.830   8.408   9.982 -0.0435 -0.4846  0.1147
13636SOL    HW144185   0.847   8.315   9.966  1.4110 -0.1772 -0.2783
13636SOL    HW244186   0.906   8.439  10.031 -0.8182  0.3674  0.8285
13637SOL     OW44187  10.988   4.951   5.142  0.6305  0.5354 -0.5747
13637SOL    HW144188  10.927   5.020   5.115 -0.2791 -0.2915 -0.6619
13637SOL    HW244189  11.013   4.975   5.231 -2.0759 -0.6081  0.5856
13638SOL     OW44190   1.835   5.225   7.871  0.1801  0.0167  0.6105
13638SOL    HW144191   1.787   5.308   7.882 -0.7509 -0.4397  0.1499
13638SOL    HW244192   1.913   5.249   7.821 -0.9409  0.3910 -1.0832
13639SOL     OW44193   0.037   3.095   7.349 -0.0397  0.2887 -1.2196
13639SOL    HW144194   0.127   3.105   7.382  1.2914 -1.6017 -3.8397
13639SOL    HW244195  -0.011   3.168   7.388  1.8438 -0.2475  2.6146
13640SOL     OW44196   0.983   7.125   9.155  0.5632  0.3423 -0.5508
13640SOL    HW144197   1.052   7.161   9.212  0.1236  2.2790 -1.1538
13640SOL    HW244198   1.028   7.104   9.073  0.6829  0.2625 -0.4656
13641SOL     OW44199   0.454   7.562  10.935 -0.0280  0.3137  0.1925
13641SOL    HW144200   0.468   7.583  11.027 -0.2897  0.1413  0.2733
13641SOL    HW244201   0.436   7.646  10.893 -0.1278  0.3661  0.3409
13642SOL     OW44202   1.211   8.676   6.487  0.1102  0.0470 -0.1520
13642SOL    HW144203   1.257   8.690   6.569  0.6142 -0.2754 -0.3783
13642SOL    HW244204   1.120   8.701   6.506  0.5847  1.7795 -0.0079
13643SOL     OW44205   2.147   9.680   8.036 -0.2015  0.4104  1.0463
13643SOL    HW144206   2.158   9.745   8.106  0.3454  0.6345  0.7537
13643SOL    HW244207   2.128   9.599   8.083  1.2685  0.3143  1.5306
13644SOL     OW44208   1.702   4.671   2.366 -0.0930 -0.2058 -0.0498
13644SOL    HW144209   1.746   4.586   2.368  0.4668  0.0624 -0.4445
13644SOL    HW244210   1.725   4.707   2.280  0.4130  0.7214  0.4553
13645SOL     OW44211   5.362   1.073   0.744  0.0131  0.8931 -0.7190
13645SOL    HW144212   5.415   1.150   0.724  1.4702  0.0502 -0.2500
13645SOL    HW244213   5.276   1.108   0.767  1.1534  2.5394  1.3192
13646SOL     OW44214   0.587   4.249   5.032  0.1754  0.2721  0.0162
13646SOL    HW144215   0.581   4.332   4.986 -0.3075  0.2081 -0.0455
13646SOL    HW244216   0.680   4.237   5.048  0.5643 -0.4191 -2.2936
13647SOL     OW44217   0.989   9.374   5.035 -0.3587 -0.6691 -0.1676
13647SOL    HW144218   1.079   9.402   5.025 -0.3926 -1.0157 -1.6219
13647SOL    HW244219   0.940   9.425   4.971 -1.7010  1.5442  2.4311
13648SOL     OW44220   2.495   6.313  10.477 -0.0226  0.0525  0.1037
13648SOL    HW144221   2.567   6.375  10.466  0.6830 -0.9099 -0.9509
13648SOL    HW244222   2.417   6.361  10.449  0.7214  0.0417 -2.2118
13649SOL     OW44223   3.977   6.047   9.661 -0.0523 -0.2151 -0.4562
13649SOL    HW144224   4.031   5.970   9.646 -1.8326 -1.3058 -1.7004
13649SOL    HW244225   4.023   6.097   9.729  0.9209 -2.5968  0.7266
13650SOL     OW44226   1.607   0.784   3.564  0.6138  0.1145 -0.1944
13650SOL    HW144227   1.605   0.737   3.648 -1.7929  0.4753  0.0148
13650SOL    HW244228   1.516   0.805   3.546  1.1923  1.0028 -2.4040
13651SOL     OW44229   4.469   4.241   1.867 -0.1754  0.0508  0.8781
13651SOL    HW144230   4.437   4.280   1.948 -0.1644  0.0341  0.8906
13651SOL    HW244231   4.459   4.146   1.880  0.9548 -0.0211  1.3432
13652SOL     OW44232   4.746   8.629   6.806  0.1808 -0.0470  0.0404
13652SOL    HW144233   4.705   8.703   6.851 -0.1901  0.2035 -0.7071
13652SOL    HW244234   4.674   8.582   6.765  0.6587  0.8147 -1.9087
13653SOL     OW44235   8.750   6.076   5.992  0.1691 -0.3160 -0.7733
13653SOL    HW144236   8.715   6.133   5.924  0.7337 -0.1940 -0.9665
13653SOL    HW244237   8.673   6.033   6.030 -0.1708 -0.1649 -1.2885
13654SOL     OW44238   9.797   9.513   1.472 -0.2984  0.0202  0.4913
13654SOL    HW144239   9.815   9.583   1.534 -0.4634 -0.0469  0.6156
13654SOL    HW244240   9.837   9.435   1.511 -2.0041 -0.4253  1.4387
13655SOL     OW44241   4.641   1.941   3.139  0.0497  0.2752  0.2823
13655SOL    HW144242   4.652   1.946   3.234  0.8400  0.5931  0.1784
13655SOL    HW244243   4.547   1.945   3.126  0.0007  2.1375  0.9453
13656SOL     OW44244   7.629   3.778   5.788  0.8974  0.6297  0.0041
13656SOL    HW144245   7.541   3.803   5.814  0.7904  3.3914 -2.4349
13656SOL    HW244246   7.669   3.741   5.867 -1.6645  1.4593  1.7997
13657SOL     OW44247   4.160   9.530   5.166  0.3102 -0.5927 -0.5580
13657SOL    HW144248   4.170   9.558   5.257 -0.3673 -0.3658 -0.5461
13657SOL    HW244249   4.222   9.457   5.156 -2.6911 -3.7325  1.4412
13658SOL     OW44250   6.257   5.617  10.302  1.0539 -0.3210  0.6396
13658SOL    HW144251   6.206   5.540  10.328  0.8201 -0.1869  0.5796
13658SOL    HW244252   6.329   5.581  10.250 -0.2332 -0.3560 -1.2077
13659SOL     OW44253   2.073   4.738   6.369  0.0695 -0.4372 -0.0581
13659SOL    HW144254   2.011   4.683   6.415  0.6052 -2.3157 -1.4183
13659SOL    HW244255   2.019   4.801   6.321 -0.5405  0.5754  1.8711
13660SOL     OW44256   1.702   6.820  10.480 -0.2558  0.6014  0.1984
13660SOL    HW144257   1.759   6.780  10.414  2.2126  0.5821  2.1585
13660SOL    HW244258   1.614   6.809  10.446  0.7198 -1.4968 -1.9642
13661SOL     OW44259   9.128   2.545   0.320 -0.0395  0.2604  0.1916
13661SOL    HW144260   9.041   2.520   0.290 -0.0416 -0.8847  1.1185
13661SOL    HW244261   9.151   2.620   0.265 -1.0048 -0.3179 -1.0562
13662SOL     OW44262   8.800   4.847   7.326 -0.0159  0.0763  0.3271
13662SOL    HW144263   8.758   4.796   7.257  0.3179 -0.1825  0.3136
13662SOL    HW244264   8.738   4.917   7.345 -0.2084  0.0178 -0.0779
13663SOL     OW44265   0.697   7.719   2.603 -0.3036  0.4885 -0.4815
13663SOL    HW144266   0.789   7.721   2.578 -0.4385 -3.2735 -1.8299
13663SOL    HW244267   0.699   7.715   2.699  0.9286  0.4561 -0.4929
13664SOL     OW44268   8.032   6.113   5.827 -0.5319 -0.0320  0.1982
13664SOL    HW144269   8.088   6.042   5.795  0.0437 -0.1426  1.3942
13664SOL    HW244270   7.999   6.155   5.747  1.5921  0.3049 -0.5756
13665SOL     OW44271   1.163   9.233  11.077 -0.2773  0.6347 -0.7802
13665SOL    HW144272   1.159   9.280  10.994 -1.8564  2.1996  0.1201
13665SOL    HW244273   1.250   9.253  11.111  0.2641  0.2471 -1.8597
13666SOL     OW44274   4.965   1.005   2.073 -0.4669  0.0172  0.5364
13666SOL    HW144275   5.052   1.032   2.102 -0.2148  1.6382 -1.4710
13666SOL    HW244276   4.979   0.924   2.024 -0.3509 -0.6019  1.5676
13667SOL     OW44277   1.491   0.109   5.390 -0.3786 -0.3105 -0.3433
13667SOL    HW144278   1.523   0.182   5.443  1.1499 -1.9847  1.2014
13667SOL    HW244279   1.396   0.108   5.405 -0.7293  2.3401 -1.8090
13668SOL     OW44280   4.969   1.718   8.203  0.8535 -0.0544 -0.1412
13668SOL    HW144281   4.937   1.629   8.222  1.3947 -0.6611 -1.8697
13668SOL    HW244282   4.890   1.771   8.197  0.5943  0.2268  3.4647
13669SOL     OW44283   1.680   7.628   5.105 -0.1646 -0.0252  0.2481
13669SOL    HW144284   1.706   7.704   5.053 -0.7284  1.0225  1.4134
13669SOL    HW244285   1.761   7.580   5.119  0.5084  1.1749  0.7037
13670SOL     OW44286   3.434   0.251   1.961  0.1953  0.3879 -0.2065
13670SOL    HW144287   3.429   0.335   2.007 -0.6164 -0.5122  1.4470
13670SOL    HW244288   3.343   0.220   1.959  0.4604 -0.3860 -0.9561
13671SOL     OW44289   3.634   9.717  10.036 -0.0145 -0.7170 -0.6732
13671SOL    HW144290   3.701   9.725   9.968 -1.1260  1.9712 -1.6008
13671SOL    HW244291   3.644   9.797  10.089 -1.7223 -0.8119 -0.1588
13672SOL     OW44292  10.764   6.899   8.170  0.5411  0.4024 -0.1072
13672SOL    HW144293  10.811   6.982   8.172  0.4033  0.4948  2.3596
13672SOL    HW244294  10.827   6.837   8.134  2.5891  0.5703  2.8297
13673SOL     OW44295   6.843   4.617   5.497  0.7390  0.1417  0.2703
13673SOL    HW144296   6.827   4.627   5.403  1.1514 -1.2118  0.0371
13673SOL    HW244297   6.757   4.602   5.535  0.7756 -1.3347 -0.1843
13674SOL     OW44298   6.543   5.096   4.483  0.5189  0.5014 -0.9775
13674SOL    HW144299   6.543   5.030   4.414 -1.1093 -0.4730 -0.1120
13674SOL    HW244300   6.526   5.179   4.438 -0.3625 -0.0885 -1.7624
13675SOL     OW44301   6.899   4.022   5.420 -0.0477 -0.4819 -0.2907
13675SOL    HW144302   6.872   4.102   5.465  1.0833 -0.3931  0.2519
13675SOL    HW244303   6.819   3.992   5.375 -0.7442  0.3829  0.3307
13676SOL     OW44304   8.144   4.910   5.849 -0.4686 -0.3883 -0.0946
13676SOL    HW144305   8.111   4.934   5.935  0.6289 -0.2092  0.2992
13676SOL    HW244306   8.168   4.818   5.857  0.3208 -0.1785  0.0230
13677SOL     OW44307   8.140  10.238   7.627 -0.3079  0.3427 -0.1923
13677SOL    HW144308   8.180  10.313   7.584  0.2868  0.7485  1.0158
13677SOL    HW244309   8.047  10.245   7.607 -0.1693  1.0524 -0.5985
13678SOL     OW44310   3.392   1.819   0.736  0.3417  0.2133  0.3512
13678SOL    HW144311   3.410   1.912   0.721  0.2996  0.0263 -0.9762
13678SOL    HW244312   3.456   1.774   0.680 -2.1194 -0.5122 -2.0565
13679SOL     OW44313   2.592   2.216   4.695  0.1478 -0.5058  0.3579
13679SOL    HW144314   2.562   2.168   4.618 -1.0251 -1.7914  1.5474
13679SOL    HW244315   2.559   2.305   4.683 -0.6323 -0.8695 -0.3065
13680SOL     OW44316  10.808   4.114   2.692 -0.5178  0.2686 -0.0549
13680SOL    HW144317  10.852   4.091   2.774 -0.3926 -1.6765 -0.6124
13680SOL    HW244318  10.736   4.170   2.718 -1.0460 -1.0632  1.5232
13681SOL     OW44319   1.797  11.055   4.228  0.1301  0.5799  0.2773
13681SOL    HW144320   1.751  11.060   4.145 -0.4141  3.4996  0.6711
13681SOL    HW244321   1.734  11.088   4.293  1.2262  0.2912  1.5402
13682SOL     OW44322   3.786  10.055   8.431  0.3607  0.5878 -0.4668
13682SOL    HW144323   3.865  10.077   8.382  0.3175  1.6090 -0.1082
13682SOL    HW244324   3.809   9.975   8.479  1.3092  1.0639 -0.0925
13683SOL     OW44325   7.721   7.914   5.498 -0.2709  0.8021 -0.0926
13683SOL    HW144326   7.791   7.913   5.433 -1.7487  2.4066 -1.8022
13683SOL    HW244327   7.765   7.891   5.580  2.2206  1.5512 -1.1253
13684SOL     OW44328   0.427   8.933   8.108 -0.1854  0.2010 -0.5176
13684SOL    HW144329   0.454   8.920   8.017  2.0792  1.3651 -0.0948
13684SOL    HW244330   0.389   8.849   8.134 -0.6339 -0.2379 -2.4381
13685SOL     OW44331   4.856   5.702   6.847 -0.3987  0.0197  0.0072
13685SOL    HW144332   4.888   5.754   6.921 -0.4102  0.8104 -0.5303
13685SOL    HW244333   4.794   5.760   6.803 -0.1016 -0.2966 -0.8410
13686SOL     OW44334   1.898   3.739   4.862 -0.0543  0.3276 -0.4716
13686SOL    HW144335   1.964   3.749   4.930 -0.4384 -0.1794 -0.0173
13686SOL    HW244336   1.947   3.710   4.785  0.1497 -1.0203  0.1280
13687SOL     OW44337   8.555  10.935   5.743  0.0291 -0.2478  0.3279
13687SOL    HW144338   8.510  11.012   5.710 -0.0850  0.8728  2.8915
13687SOL    HW244339   8.648  10.956   5.736  0.0296 -0.3615 -0.0294
13688SOL     OW44340   5.126   1.018   2.701  0.5549  0.1964  0.3985
13688SOL    HW144341   5.145   1.034   2.609 -0.2154 -0.7900  0.0540
13688SOL    HW244342   5.088   1.101   2.733 -1.5491 -0.2118 -0.8386
13689SOL     OW44343   1.468   4.913   4.462  0.3915  0.7527 -0.3296
13689SOL    HW144344   1.563   4.901   4.454  0.2841  0.0267 -0.6125
13689SOL    HW244345   1.438   4.835   4.508 -0.5107 -0.8785 -3.3922
13690SOL     OW44346   1.245   5.704   0.769  0.0419  0.3758  0.4179
13690SOL    HW144347   1.310   5.768   0.800 -1.0736  1.2328  1.0701
13690SOL    HW244348   1.188   5.754   0.711  0.8129 -0.7212 -1.3520
13691SOL     OW44349   0.413   1.468   8.525 -0.5013  0.0693  0.1000
13691SOL    HW144350   0.444   1.551   8.488 -0.6484  1.0507  2.0601
13691SOL    HW244351   0.487   1.434   8.575 -0.5463 -0.8552 -0.4255
13692SOL     OW44352   8.212   5.078   8.884  0.6970  0.6798  0.2436
13692SOL    HW144353   8.226   5.171   8.862 -0.0162  0.9282  0.8256
13692SOL    HW244354   8.132   5.077   8.936 -1.1943 -0.6159 -2.4602
13693SOL     OW44355   6.903   7.694  10.917 -0.3999 -0.5808  0.3229
13693SOL    HW144356   6.808   7.706  10.922 -0.7545 -1.9341 -1.9422
13693SOL    HW244357   6.919   7.657  10.830  2.1546 -0.9881  0.8667
13694SOL     OW44358   7.134   5.658   9.869 -0.0260 -0.5178  0.1085
13694SOL    HW144359   7.052   5.705   9.854  0.3916  0.6067  1.1687
13694SOL    HW244360   7.158   5.680   9.959  1.4294 -0.8359 -0.1770
13695SOL     OW44361   0.480   0.391   5.631 -0.2205 -0.4297  0.2652
13695SOL    HW144362   0.561   0.414   5.585  0.5242 -0.1391  1.6651
13695SOL    HW244363   0.439   0.324   5.576  0.2501  0.4252 -1.1809
13696SOL     OW44364   7.223   0.274   0.403  0.1618  0.9394  0.2428
13696SOL    HW144365   7.166   0.350   0.387  1.7618  1.9696 -0.8475
13696SOL    HW244366   7.166   0.209   0.444 -1.6533  2.1145 -0.3272
13697SOL     OW44367   6.584   2.733   4.270 -0.2255  0.1769  0.1272
13697SOL    HW144368   6.603   2.658   4.327  0.5671  0.6269  0.4731
13697SOL    HW244369   6.489   2.732   4.260 -0.0988 -2.2952 -1.8248
13698SOL     OW44370   1.804   6.874   4.174  0.2077  0.7239 -0.2935
13698SOL    HW144371   1.751   6.953   4.186  0.9457  0.8912  2.3633
13698SOL    HW244372   1.882   6.904   4.126  0.4535  1.6073  0.6398
13699SOL     OW44373   3.045  10.817   4.584  0.2479  0.0455  0.0232
13699SOL    HW144374   3.133  10.793   4.614  0.5552  0.2060 -0.7072
13699SOL    HW244375   3.055  10.906   4.549 -0.4989  0.5675  1.1141
13700SOL     OW44376   8.308   5.557   8.925  0.3344  0.5915  0.4308
13700SOL    HW144377   8.258   5.516   8.996  1.4840  0.3391  1.1308
13700SOL    HW244378   8.335   5.641   8.961  0.0656  0.9049 -0.0942
13701SOL     OW44379   8.676   2.386   8.861 -0.1563 -0.3460 -0.3118
13701SOL    HW144380   8.695   2.445   8.934 -1.4589  0.3279 -0.4942
13701SOL    HW244381   8.596   2.340   8.888  0.6177 -1.7572 -0.3390
13702SOL     OW44382   9.107   0.025   3.246 -0.0174  0.0276  0.0871
13702SOL    HW144383   9.184   0.016   3.190 -0.0180  0.8424 -0.0480
13702SOL    HW244384   9.119   0.109   3.290 -2.4140  1.7861 -2.3629
13703SOL     OW44385   6.887   2.897   1.123  0.0246  0.9394  0.4292
13703SOL    HW144386   6.865   2.990   1.135 -0.7609  0.7454  0.5626
13703SOL    HW244387   6.900   2.863   1.211 -1.3706  0.5396  0.5011
13704SOL     OW44388  10.837   4.803   2.124 -0.0374  0.1149  0.3704
13704SOL    HW144389  10.778   4.877   2.112 -1.0565 -0.5462  1.1900
13704SOL    HW244390  10.862   4.778   2.035  1.2463  2.1329  0.1102
13705SOL     OW44391   6.553   7.517   8.086  0.0070 -0.5357  0.4027
13705SOL    HW144392   6.515   7.435   8.055 -1.5903  0.5056 -0.5438
13705SOL    HW244393   6.530   7.520   8.179 -2.4266  0.0713 -0.1344
13706SOL     OW44394   9.084   6.416   4.567  0.3401  0.4035 -0.0607
13706SOL    HW144395   9.060   6.324   4.576 -1.2338  0.8117  0.1936
13706SOL    HW244396   9.104   6.445   4.656  1.3889  0.1824 -0.2126
13707SOL     OW44397   3.556   5.070   0.840  0.1893  0.4225 -0.4733
13707SOL    HW144398   3.564   5.164   0.822 -4.3442  1.2677  0.5925
13707SOL    HW244399   3.537   5.065   0.934 -1.3511 -1.3410 -0.8162
13708SOL     OW44400   3.834   9.876   7.752 -0.1227  0.2638  0.0910
13708SOL    HW144401   3.788   9.877   7.836  1.3577 -0.5122  0.9482
13708SOL    HW244402   3.781   9.932   7.695 -1.3978  0.4495  1.3972
13709SOL     OW44403   6.646   1.694   3.857  0.0720 -0.2979 -0.4078
13709SOL    HW144404   6.687   1.757   3.916 -0.6306 -0.6365  0.4729
13709SOL    HW244405   6.587   1.746   3.802  0.1074 -0.0838 -0.2438
13710SOL     OW44406   8.579   8.709   8.538 -0.2140  0.6099 -0.2915
13710SOL    HW144407   8.580   8.670   8.451 -0.0012  2.0396 -0.9665
13710SOL    HW244408   8.640   8.656   8.589 -0.3768 -0.2729 -1.0015
13711SOL     OW44409   8.951   6.808   0.751 -0.1813 -0.2554 -0.2640
13711SOL    HW144410   8.928   6.740   0.814 -0.7231 -0.0390 -0.2204
13711SOL    HW244411   9.043   6.828   0.769  0.4680 -2.0556 -1.2958
13712SOL     OW44412   7.993   7.338   0.283 -0.4911 -0.0575 -0.1425
13712SOL    HW144413   7.942   7.335   0.202 -2.5186 -0.6176  1.0821
13712SOL    HW244414   7.986   7.428   0.313  1.6821  0.6026 -1.3628
13713SOL     OW44415   5.945   2.396   9.508  0.5573  0.1078 -0.0287
13713SOL    HW144416   5.862   2.437   9.486  0.6032  0.4711  0.4779
13713SOL    HW244417   5.959   2.415   9.601  0.5518 -1.0814  0.2429
13714SOL     OW44418   1.324  10.919   0.851 -0.0700  0.2651  0.4608
13714SOL    HW144419   1.419  10.904   0.855 -0.1382  0.0084  1.8572
13714SOL    HW244420   1.309  10.988   0.916 -0.7529  0.8557 -0.3099
13715SOL     OW44421   7.041   5.541   2.534 -0.2566  0.3612 -0.1764
13715SOL    HW144422   6.974   5.550   2.601 -0.3248  1.2764 -0.3552
13715SOL    HW244423   7.072   5.630   2.518  1.5309 -0.0978  0.4222
13716SOL     OW44424   8.480   2.414   6.754 -0.1482 -0.3305  0.3278
13716SOL    HW144425   8.462   2.403   6.847  1.1403 -0.0869  0.6268
13716SOL    HW244426   8.398   2.446   6.717 -0.2582  1.0380  1.6629
13717SOL     OW44427   1.881   6.694   0.497 -0.6018  0.3147 -0.3873
13717SOL    HW144428   1.794   6.662   0.521 -0.2449 -0.6615 -0.3385
13717SOL    HW244429   1.891   6.776   0.546 -0.8466 -0.4000  0.9141
13718SOL     OW44430   9.887   8.602   4.789  0.1446  0.0465  0.0528
13718SOL    HW144431   9.973   8.584   4.827  1.8513  1.6696 -2.7267
13718SOL    HW244432   9.872   8.530   4.728  0.6179  0.9384 -1.1321
13719SOL     OW44433   6.959   7.632   4.202  0.2095 -0.5525  0.3652
13719SOL    HW144434   6.939   7.617   4.110 -0.4248  0.4087  0.3319
13719SOL    HW244435   7.050   7.662   4.202  0.5736 -1.6042  0.1738
13720SOL     OW44436   3.037   3.892   6.077 -0.1228 -0.3121  0.4020
13720SOL    HW144437   3.130   3.893   6.051 -0.2482 -0.0185 -0.0422
13720SOL    HW244438   3.039   3.880   6.172  0.4419  2.0640  0.7524
13721SOL     OW44439   1.890   0.718   8.068 -0.0330 -0.0028  0.1076
13721SOL    HW144440   1.805   0.725   8.024 -0.2049  0.9883  0.5658
13721SOL    HW244441   1.870   0.687   8.156  0.0986  0.0280  0.1497
13722SOL     OW44442   6.243   6.704   0.456  0.1315  0.1852 -0.8013
13722SOL    HW144443   6.330   6.664   0.457  0.8383  1.6050  0.9959
13722SOL    HW244444   6.258   6.793   0.423 -0.9514 -0.0648 -2.0726
13723SOL     OW44445   2.221   5.246   8.851  0.4192  0.5891 -0.1334
13723SOL    HW144446   2.133   5.242   8.888  0.1981 -0.7590 -0.7314
13723SOL    HW244447   2.277   5.207   8.918  0.1349 -1.1033 -0.8308
13724SOL     OW44448   4.549   5.006  10.036 -0.0401 -0.3268 -0.2345
13724SOL    HW144449   4.508   5.092  10.034  0.8281  0.0826 -2.0383
13724SOL    HW244450   4.477   4.946  10.053 -0.8422  0.6410 -0.1108
13725SOL     OW44451   6.082   4.213   6.298  0.5917 -0.1214 -0.0025
13725SOL    HW144452   6.042   4.256   6.222 -0.5890 -1.4729 -0.1911
13725SOL    HW244453   6.121   4.132   6.263  3.3686  0.9907  0.2218
13726SOL     OW44454   7.895   2.863   8.068  0.3139  0.3664 -0.1678
13726SOL    HW144455   7.924   2.906   7.987  2.3523  0.6073  0.6303
13726SOL    HW244456   7.932   2.775   8.063 -1.0129 -0.2104 -0.2541
13727SOL     OW44457   0.272   7.668   6.846  0.3669  0.1084  0.1578
13727SOL    HW144458   0.324   7.736   6.888  2.4562 -2.3852  1.8798
13727SOL    HW244459   0.305   7.664   6.756  0.8353  0.7277  0.2971
13728SOL     OW44460   4.059   0.391   5.575  0.0053  0.6138  0.3924
13728SOL    HW144461   3.976   0.376   5.530  0.6623  0.4497 -0.7842
13728SOL    HW244462   4.034   0.419   5.663 -1.2980 -0.9298  0.5472
13729SOL     OW44463   0.212   5.365   5.630  0.0413  0.6638  0.3109
13729SOL    HW144464   0.233   5.385   5.721  0.3483 -0.7894  0.5878
13729SOL    HW244465   0.141   5.301   5.635  1.3120 -0.9041 -0.3508
13730SOL     OW44466   1.406   5.968  10.042  0.4013  0.0725 -0.0815
13730SOL    HW144467   1.492   5.928  10.030 -0.7859 -2.5889 -0.3659
13730SOL    HW244468   1.392   5.964  10.137  0.9657  1.4811  0.0919
13731SOL     OW44469   6.879   2.564   4.380 -0.4378  0.1949  0.5255
13731SOL    HW144470   6.803   2.623   4.381 -1.2028 -0.7067 -0.5064
13731SOL    HW244471   6.954   2.621   4.362 -0.8923  1.0737  1.3219
13732SOL     OW44472   8.081   0.173   8.815  0.7558 -0.4569 -0.4308
13732SOL    HW144473   8.151   0.149   8.876  0.4339  0.2253  0.2185
13732SOL    HW244474   8.096   0.116   8.739  1.5243 -0.8946  0.0265
13733SOL     OW44475   3.630   0.559   1.074 -0.6114  0.0555  0.1683
13733SOL    HW144476   3.593   0.546   0.987 -0.7658  0.4237  0.1746
13733SOL    HW244477   3.639   0.654   1.082  1.4731 -0.0619 -0.2988
13734SOL     OW44478   6.708   9.892   5.197  0.0484  0.0009  0.1031
13734SOL    HW144479   6.799   9.865   5.209  0.1944  0.0630 -0.8000
13734SOL    HW244480   6.710   9.987   5.205  0.0662  0.0042  0.0602
13735SOL     OW44481  11.100   2.750   2.171 -0.1414 -0.5361  0.1211
13735SOL    HW144482  11.069   2.771   2.259  2.0831 -2.7246  1.5441
13735SOL    HW244483  11.038   2.684   2.139 -0.5512 -0.2519  0.3292
13736SOL     OW44484   4.443   0.115   2.995  0.0629 -0.1690 -0.7897
13736SOL    HW144485   4.444   0.191   3.053  0.1373  0.3705 -1.4875
13736SOL    HW244486   4.513   0.058   3.029  0.2477  0.2365 -0.4789
13737SOL     OW44487   9.755   0.100   5.694 -0.0413 -0.4611 -0.3919
13737SOL    HW144488   9.760   0.195   5.701  1.5703 -0.4960 -0.6023
13737SOL    HW244489   9.669   0.077   5.728 -0.7343  1.1283 -0.9984
13738SOL     OW44490   8.110   6.751  10.651  0.3890 -0.3483  0.2073
13738SOL    HW144491   8.017   6.746  10.673  0.3711 -1.1443 -0.0254
13738SOL    HW244492   8.137   6.839  10.678 -0.8433  0.5383 -1.3128
13739SOL     OW44493   4.767   7.182  11.246  0.6200  0.4214 -0.1708
13739SOL    HW144494   4.695   7.156  11.188  0.6754  1.0520 -0.5379
13739SOL    HW244495   4.731   7.255  11.297  0.8993  0.5279 -0.1255
13740SOL     OW44496   6.681   8.804  10.703  0.1150 -0.0058 -0.1449
13740SOL    HW144497   6.635   8.886  10.686  0.9612  0.1965 -1.6007
13740SOL    HW244498   6.753   8.829  10.761  1.0965  0.5484 -1.5428
13741SOL     OW44499   6.051   7.538   7.053  0.1693  0.0713  0.1314
13741SOL    HW144500   6.059   7.631   7.030 -3.1694 -0.0570 -2.4831
13741SOL    HW244501   5.961   7.530   7.086 -0.3166 -2.4826 -1.5722
13742SOL     OW44502   5.463   9.616   6.451  0.1292  0.4080  0.3872
13742SOL    HW144503   5.479   9.522   6.456  0.7210  0.4182 -0.9232
13742SOL    HW244504   5.412   9.636   6.530 -0.4793 -1.0997  0.4131
13743SOL     OW44505   6.136   7.396  11.162  0.7213 -0.5257  0.1506
13743SOL    HW144506   6.152   7.314  11.114 -1.1368 -0.7706 -0.1511
13743SOL    HW244507   6.171   7.380  11.249  1.4501 -1.1938 -0.2497
13744SOL     OW44508   7.851  10.308   4.708 -0.8383 -0.1531  0.5594
13744SOL    HW144509   7.784  10.373   4.687 -1.0544 -0.9827 -1.6059
13744SOL    HW244510   7.923  10.358   4.745 -0.2027  1.6814 -2.8120
13745SOL     OW44511   7.752   6.677   4.738  0.4740  0.3357  0.0580
13745SOL    HW144512   7.806   6.603   4.767  2.0953  0.0981 -3.1057
13745SOL    HW244513   7.671   6.636   4.707  0.4666  0.1291  0.3465
13746SOL     OW44514   1.168  10.679  10.943  0.2631  0.3095 -0.2493
13746SOL    HW144515   1.086  10.720  10.969  0.2446  0.1901 -0.1105
13746SOL    HW244516   1.223  10.751  10.912  0.1506  0.4067 -0.2236
13747SOL     OW44517   7.790   7.250   9.323 -0.1780  0.3674 -0.1902
13747SOL    HW144518   7.824   7.339   9.318  2.4293 -0.4910  0.7693
13747SOL    HW244519   7.711   7.252   9.268 -0.3542  3.2781 -0.0098
13748SOL     OW44520   1.869   5.669   8.286 -0.4678  0.0997 -0.5825
13748SOL    HW144521   1.825   5.753   8.289  0.0088  0.3400 -0.1822
13748SOL    HW244522   1.835   5.621   8.362 -0.7667 -0.0857 -0.8312
13749SOL     OW44523   6.153   7.908   6.598  0.1031 -0.0255 -0.1365
13749SOL    HW144524   6.193   7.972   6.539 -1.3507 -0.6966 -1.9559
13749SOL    HW244525   6.156   7.825   6.550 -0.3897 -0.7942  1.0953
13750SOL     OW44526   6.100  10.231   1.439  0.4313  0.7463  0.1679
13750SOL    HW144527   6.139  10.220   1.526  2.4931  0.7434 -0.7035
13750SOL    HW244528   6.070  10.143   1.415  1.6940  0.3154  0.0799
13751SOL     OW44529   5.910   7.343   1.952  0.4315 -0.2857  1.1347
13751SOL    HW144530   5.963   7.423   1.943 -0.5375  0.4447  1.6872
13751SOL    HW244531   5.958   7.277   1.903  2.1891  0.1735  2.1751
13752SOL     OW44532   6.269   9.480   9.742 -0.3025 -0.2556 -0.2395
13752SOL    HW144533   6.270   9.385   9.755  1.4029 -0.5102 -1.8129
13752SOL    HW244534   6.274   9.517   9.830 -1.0663 -1.6162  0.3941
13753SOL     OW44535   0.172   3.304   0.219 -0.3268  0.2629  0.8171
13753SOL    HW144536   0.126   3.290   0.301 -1.3646  1.6417  0.5043
13753SOL    HW244537   0.120   3.257   0.154  0.0815 -0.2096  0.8272
13754SOL     OW44538   8.822   4.078   4.728 -0.2681 -0.1475  0.2549
13754SOL    HW144539   8.730   4.054   4.717 -0.2749 -0.5702  1.1162
13754SOL    HW244540   8.855   4.017   4.795  0.4024  0.5770  0.6033
13755SOL     OW44541   9.237   4.074   2.114  0.1278  0.1354 -0.3949
13755SOL    HW144542   9.194   4.027   2.186 -0.1956  1.3627  0.2286
13755SOL    HW244543   9.296   4.009   2.076 -0.3657 -0.8091  0.3852
13756SOL     OW44544   2.935  11.115  11.094 -0.0143 -0.2565  0.0304
13756SOL    HW144545   2.913  11.134  11.185 -2.2771 -0.2647 -0.4589
13756SOL    HW244546   2.895  11.187  11.044 -2.0451 -2.1007 -1.2091
13757SOL     OW44547   8.764   8.761   0.382  0.7870 -0.2783  0.2058
13757SOL    HW144548   8.836   8.809   0.341  0.3879  0.3763  0.2689
13757SOL    HW244549   8.772   8.672   0.348  1.0035  0.0393 -0.5835
13758SOL     OW44550   4.639   8.807   4.309 -0.8040  0.1141 -0.0498
13758SOL    HW144551   4.714   8.759   4.272 -0.8065 -0.6424  0.8816
13758SOL    HW244552   4.631   8.772   4.398 -0.6557  2.0518  0.7580
13759SOL     OW44553   5.064   4.183   6.680  0.4042 -0.2061  0.1623
13759SOL    HW144554   5.159   4.179   6.691  0.4997  0.3110 -0.4309
13759SOL    HW244555   5.050   4.200   6.587 -0.3459 -2.2079 -0.1442
13760SOL     OW44556   3.066   7.768   2.825 -0.3912 -0.1829  0.0984
13760SOL    HW144557   3.086   7.703   2.757  2.7347  1.4348 -0.6831
13760SOL    HW244558   3.148   7.779   2.872 -1.5133  1.4722  1.7818
13761SOL     OW44559   3.215   5.983   3.792 -0.8661  0.2654 -0.4326
13761SOL    HW144560   3.309   5.998   3.789 -0.9099  0.4651 -0.7570
13761SOL    HW244561   3.188   5.980   3.700 -1.1238 -0.1165 -0.3477
13762SOL     OW44562   9.899   6.019  11.172 -0.3083  0.3024  0.0180
13762SOL    HW144563   9.970   6.043  11.232 -1.1563 -0.3429  1.3232
13762SOL    HW244564   9.934   6.038  11.085  1.5787 -0.2559  0.5972
13763SOL     OW44565   9.625   0.335  10.379  0.4097  0.0260  0.2894
13763SOL    HW144566   9.662   0.422  10.367  0.9681 -0.0024  1.6709
13763SOL    HW244567   9.531   0.347  10.366  0.5361  0.7393  0.0017
13764SOL     OW44568   8.528   6.158  11.336  0.5930  0.3552 -0.5115
13764SOL    HW144569   8.530   6.063  11.324 -0.6286  0.3577 -0.7989
13764SOL    HW244570   8.621   6.182  11.345  0.8840 -0.9304  0.2194
13765SOL     OW44571   1.907   8.899   9.897 -0.2226  0.1578  0.8976
13765SOL    HW144572   1.863   8.876   9.815 -1.7589  2.2835  1.0494
13765SOL    HW244573   1.958   8.821   9.920 -0.1265 -0.6684 -1.8018
13766SOL     OW44574  10.113   3.603   9.492  0.7085 -0.1630 -0.3104
13766SOL    HW144575  10.077   3.687   9.519 -0.2595 -0.8235  0.5438
13766SOL    HW244576  10.144   3.617   9.402 -1.4202  0.5258 -0.9813
13767SOL     OW44577   1.844  10.374   4.829  0.4555  0.2339 -0.5119
13767SOL    HW144578   1.906  10.439   4.794  0.5157  1.6502  2.0135
13767SOL    HW244579   1.893  10.327   4.896 -0.6424  0.1128  0.2355
13768SOL     OW44580   5.772   9.980   4.791 -0.2264  0.4227  0.0931
13768SOL    HW144581   5.700   9.991   4.852  0.1250  0.3967  0.5128
13768SOL    HW244582   5.729   9.960   4.707 -0.7141  0.8096  0.2477
13769SOL     OW44583   0.862   2.019   7.438  0.4001 -0.2738 -0.3493
13769SOL    HW144584   0.906   1.970   7.508  3.8266  3.6283  0.5690
13769SOL    HW244585   0.922   2.013   7.363  0.0932  1.1463 -0.7303
13770SOL     OW44586   7.894   3.117   9.028  0.7256 -0.2999  0.0027
13770SOL    HW144587   7.881   3.189   9.089  0.2935  1.6992 -2.3040
13770SOL    HW244588   7.949   3.154   8.959  0.7065 -2.2671 -1.1443
13771SOL     OW44589   2.494   9.833   9.343 -0.0051 -0.2616 -0.2813
13771SOL    HW144590   2.430   9.886   9.296 -0.4957 -1.1104 -0.6085
13771SOL    HW244591   2.546   9.792   9.273  2.9342  2.6994 -0.0536
13772SOL     OW44592   3.588  10.772   6.512  0.3554  0.1402  0.3758
13772SOL    HW144593   3.624  10.860   6.499  1.2426 -0.1177  1.0003
13772SOL    HW244594   3.609  10.750   6.602 -1.3003 -0.0842  0.7476
13773SOL     OW44595   1.933   0.565   6.893 -0.4667 -0.5073  0.3357
13773SOL    HW144596   1.938   0.599   6.982  0.3249 -0.0109  0.1114
13773SOL    HW244597   1.896   0.477   6.903 -0.9251 -0.2422  1.0901
13774SOL     OW44598   3.176   8.010   7.380 -0.4777 -0.1866  0.2354
13774SOL    HW144599   3.207   8.005   7.471 -1.6793  1.0715  0.7599
13774SOL    HW244600   3.256   8.010   7.327  0.2762 -0.2489  1.3436
13775SOL     OW44601   6.148   4.905   0.921  0.1260  0.1387  0.1592
13775SOL    HW144602   6.219   4.916   0.985  1.9263  0.7371 -1.8045
13775SOL    HW244603   6.135   4.810   0.916  1.0375 -0.0066  0.3344
13776SOL     OW44604   8.692   1.106   6.387 -0.4804 -0.0065 -0.0669
13776SOL    HW144605   8.610   1.115   6.435 -0.3065 -0.5747  0.3536
13776SOL    HW244606   8.667   1.112   6.295 -1.0486 -0.5185  0.0463
13777SOL     OW44607   0.895   8.590   1.126 -0.5828 -0.2155  0.1997
13777SOL    HW144608   0.907   8.624   1.215  0.2952 -1.0990  0.4371
13777SOL    HW244609   0.973   8.537   1.110  0.3872  1.7046 -1.9762
13778SOL     OW44610   9.939   5.720   6.967 -0.0077  0.1818  0.0391
13778SOL    HW144611   9.950   5.631   6.999  1.0810  0.4426  0.4707
13778SOL    HW244612   9.885   5.763   7.033 -0.7560 -0.2219 -0.3058
13779SOL     OW44613   9.103   5.905   6.883  0.5513  0.3241  0.0424
13779SOL    HW144614   9.129   5.940   6.968  0.0359  2.1726 -0.5092
13779SOL    HW244615   9.087   5.982   6.829 -0.7601 -0.7865 -1.2452
13780SOL     OW44616   7.102   5.049   1.571  0.0114 -0.0189  0.4815
13780SOL    HW144617   7.026   5.023   1.519  0.6498  0.1273 -0.5445
13780SOL    HW244618   7.072   5.042   1.662 -1.8041  1.7558  0.0981
13781SOL     OW44619   2.515   7.264   1.827 -0.3487  0.2246  0.3090
13781SOL    HW144620   2.482   7.354   1.829  3.1536  1.6714  0.0437
13781SOL    HW244621   2.582   7.262   1.895  0.4363 -1.8723 -0.4609
13782SOL     OW44622   4.631  10.991   3.789  0.4252  0.0264 -0.3538
13782SOL    HW144623   4.622  10.968   3.881 -1.4798 -1.6380 -0.8890
13782SOL    HW244624   4.544  10.978   3.752  1.1178  0.7359 -2.3810
13783SOL     OW44625   4.659  10.604   1.748  0.0132 -0.5845 -0.7835
13783SOL    HW144626   4.574  10.623   1.787  0.5875  0.1279  0.1626
13783SOL    HW244627   4.638  10.565   1.663 -1.2711 -1.9828  0.1125
13784SOL     OW44628   9.690   1.498   5.412 -0.2583  0.2028  0.2923
13784SOL    HW144629   9.783   1.512   5.398  0.1810 -0.9127  1.8392
13784SOL    HW244630   9.655   1.476   5.326  0.8943  0.6085 -0.3001
13785SOL     OW44631  10.127   6.011   6.497 -0.6640  0.1725 -0.5702
13785SOL    HW144632  10.178   5.932   6.477 -0.7871  0.2962 -1.4002
13785SOL    HW244633  10.176   6.082   6.458 -1.9501  0.1887 -2.2694
13786SOL     OW44634  10.368   4.042   7.884 -0.0418 -0.3367 -0.7071
13786SOL    HW144635  10.417   4.087   7.814 -0.0267  2.8162  1.1285
13786SOL    HW244636  10.433   3.986   7.925  1.3139  1.4533 -0.2546
13787SOL     OW44637   1.397  10.324   4.578 -0.2572  0.3251  0.2799
13787SOL    HW144638   1.367  10.295   4.663  0.9592 -0.8845  0.3292
13787SOL    HW244639   1.433  10.246   4.536 -0.1628  1.0353 -1.0534
13788SOL     OW44640   9.378   6.911   1.788 -0.0494  0.0917  0.1356
13788SOL    HW144641   9.365   6.817   1.773  1.7891 -0.0426 -1.0166
13788SOL    HW244642   9.396   6.947   1.701 -2.9527  2.0015  0.2007
13789SOL     OW44643   9.161   6.661   3.331  0.4145  0.5141  0.1390
13789SOL    HW144644   9.213   6.742   3.329  2.4924 -0.7024  1.5319
13789SOL    HW244645   9.111   6.667   3.413 -0.8357  1.1516 -0.6360
13790SOL     OW44646  10.479   3.003   9.977  0.1615 -0.3042  0.0326
13790SOL    HW144647  10.383   3.007   9.970  0.2398 -1.3534 -2.5410
13790SOL    HW244648  10.495   2.990  10.070 -2.2298 -0.8297  0.4400
13791SOL     OW44649   6.489   7.603   2.762 -0.3980 -0.6875  0.4667
13791SOL    HW144650   6.497   7.599   2.667  1.3003 -0.4045  0.5782
13791SOL    HW244651   6.445   7.687   2.779  1.6877  0.5787  0.0077
13792SOL     OW44652  10.086  10.905  10.112 -0.1231 -0.2273  0.5342
13792SOL    HW144653  10.087  10.889  10.206 -1.6291 -0.7514  0.4897
13792SOL    HW244654  10.178  10.910  10.087  0.3029  0.7079  2.1543
13793SOL     OW44655   6.905  10.316   1.554 -0.0842  0.2305  0.5023
13793SOL    HW144656   6.975  10.366   1.596 -0.8257  3.0152 -1.3200
13793SOL    HW244657   6.859  10.274   1.627  0.2774  2.6952  2.3031
13794SOL     OW44658   9.371   5.108   2.634 -0.1763 -0.0982 -0.2633
13794SOL    HW144659   9.361   5.144   2.722  0.8881 -0.8569  0.1893
13794SOL    HW244660   9.435   5.166   2.592 -0.8040  0.3582 -0.6038
13795SOL     OW44661   8.824   0.863   0.898  0.1647 -0.2195 -0.4123
13795SOL    HW144662   8.878   0.857   0.977  1.3968  2.0678 -1.0167
13795SOL    HW244663   8.879   0.829   0.828  0.2347  0.6029 -0.7664
13796SOL     OW44664   8.742   6.538   7.241 -0.7580 -0.2816  0.1095
13796SOL    HW144665   8.791   6.490   7.307 -0.9595  0.5461  0.8763
13796SOL    HW244666   8.651   6.510   7.253 -0.5967 -1.3284 -0.8869
13797SOL     OW44667  10.921   8.003   3.342  0.1025 -0.3474  0.1393
13797SOL    HW144668  10.853   8.000   3.409  1.2412 -1.6992  1.3016
13797SOL    HW244669  10.903   7.928   3.286  0.3222 -0.3937  0.1298
13798SOL     OW44670   2.345  11.010   7.919 -0.0755  0.4189  0.2120
13798SOL    HW144671   2.395  11.083   7.883 -0.0475  0.0397 -0.5179
13798SOL    HW244672   2.402  10.934   7.911 -0.3386  0.1950  0.4149
13799SOL     OW44673  10.706   7.268   8.642  0.0569 -0.0984 -0.0651
13799SOL    HW144674  10.798   7.263   8.669  0.0935  0.1802 -0.1392
13799SOL    HW244675  10.657   7.279   8.723  0.2807  2.3273 -0.2074
13800SOL     OW44676   6.796   3.759   4.093 -0.4183 -0.1941  0.2880
13800SOL    HW144677   6.705   3.744   4.120 -0.1032 -1.4391  0.7122
13800SOL    HW244678   6.848   3.709   4.155  0.4059 -2.0188 -1.7562
13801SOL     OW44679   4.386   7.977   1.015  0.3027 -0.0384  0.0769
13801SOL    HW144680   4.334   7.955   1.092  1.6074 -3.0220  0.2599
13801SOL    HW244681   4.475   7.987   1.048  0.9115 -1.5271 -0.9932
13802SOL     OW44682   4.194   7.178  10.036 -0.5624 -0.2400  0.2657
13802SOL    HW144683   4.240   7.138   9.962 -0.9259  0.3271 -0.2799
13802SOL    HW244684   4.223   7.128  10.112  0.2520 -0.4797 -0.1878
13803SOL     OW44685   1.389   1.460   6.690 -0.7931  0.0148 -0.3273
13803SOL    HW144686   1.431   1.539   6.655  0.8551 -1.7287 -2.6365
13803SOL    HW244687   1.454   1.424   6.750 -0.2985 -0.9867 -1.4192
13804SOL     OW44688  10.490   9.092   4.651  0.1961  0.4854 -0.4545
13804SOL    HW144689  10.409   9.069   4.607 -0.6892 -1.5420  1.9974
13804SOL    HW244690  10.465   9.159   4.715  0.2541 -0.6212  0.7709
13805SOL     OW44691   1.630   6.892   0.412  0.1345 -0.3602  1.1063
13805SOL    HW144692   1.599   6.982   0.404 -2.5034 -1.0734  2.1287
13805SOL    HW244693   1.689   6.893   0.487 -0.2530  0.4341  1.4094
13806SOL     OW44694   3.088   5.168   7.382 -0.0454  0.1737 -0.1504
13806SOL    HW144695   3.035   5.142   7.457  0.4280  0.5022  0.3080
13806SOL    HW244696   3.143   5.240   7.415  1.3233 -0.7334 -0.3445
13807SOL     OW44697   3.285   8.512   4.513  0.2523  0.1870 -0.3842
13807SOL    HW144698   3.329   8.452   4.451  0.1632  1.0039 -1.2654
13807SOL    HW244699   3.356   8.569   4.544  0.5621 -1.0376  1.3252
13808SOL     OW44700  10.536   8.956   6.675 -0.1295  0.3965  0.2909
13808SOL    HW144701  10.453   8.911   6.690  0.1598 -0.0156  0.6879
13808SOL    HW244702  10.602   8.887   6.680  0.2133  0.6746 -0.3160
13809SOL     OW44703   1.124   3.541  10.938 -0.2165  0.7895 -0.2733
13809SOL    HW144704   1.219   3.534  10.938 -0.2304  0.3878  0.7687
13809SOL    HW244705   1.093   3.450  10.931 -0.4911  0.7351  1.2885
13810SOL     OW44706   7.355   7.976   7.132 -0.1997 -0.2710  0.7462
13810SOL    HW144707   7.281   7.917   7.149 -2.4109  2.0457 -0.2330
13810SOL    HW244708   7.413   7.925   7.075 -2.5552 -1.2246 -0.9654
13811SOL     OW44709   3.048   1.501   8.190 -0.1907 -0.0751 -0.4266
13811SOL    HW144710   3.098   1.486   8.110 -0.4491 -2.0020 -0.2791
13811SOL    HW244711   3.077   1.433   8.250  0.4188  1.6768  1.3722
13812SOL     OW44712   4.239   8.100   1.448 -0.7177 -0.1272  0.3651
13812SOL    HW144713   4.239   8.020   1.396 -1.3675  0.6831 -0.9419
13812SOL    HW244714   4.220   8.170   1.385  2.3435  1.4014  0.9761
13813SOL     OW44715  10.542   4.229   2.222 -0.1308  0.4819  0.3471
13813SOL    HW144716  10.591   4.189   2.150 -1.1756  0.2499 -0.2512
13813SOL    HW244717  10.450   4.209   2.203 -0.5775  1.9964  0.7550
13814SOL     OW44718   4.505   7.648   7.783  0.2622 -0.1578  1.1671
13814SOL    HW144719   4.491   7.742   7.785 -0.3704 -0.1839 -0.3723
13814SOL    HW244720   4.593   7.638   7.745  0.8585 -0.1773  2.5161
13815SOL     OW44721   9.296   8.531   8.023  0.0222  0.0572 -0.2072
13815SOL    HW144722   9.362   8.524   8.092  1.4582  0.4804 -1.4713
13815SOL    HW244723   9.314   8.458   7.965  0.1388  0.8286 -1.1720
13816SOL     OW44724   4.066   3.902   4.829  0.1510 -0.4616  0.0461
13816SOL    HW144725   4.088   3.877   4.740 -1.4610  0.9975 -0.8337
13816SOL    HW244726   4.120   3.979   4.847 -0.1314 -0.2507  0.0034
13817SOL     OW44727   6.204  11.004   1.382  0.1376 -0.0587 -0.1756
13817SOL    HW144728   6.145  11.047   1.320 -1.8942 -0.4863  1.3310
13817SOL    HW244729   6.250  10.938   1.331  0.3082  1.1723 -1.6743
13818SOL     OW44730  10.449   8.660   4.410  0.2233  0.2276 -0.1654
13818SOL    HW144731  10.520   8.717   4.382  1.3394 -0.2045  1.5575
13818SOL    HW244732  10.429   8.607   4.333  1.9679  0.1892 -0.6454
13819SOL     OW44733   2.315   0.180  10.289  0.4936  0.0634 -0.2244
13819SOL    HW144734   2.255   0.109  10.311 -0.4733  0.8372 -0.2731
13819SOL    HW244735   2.326   0.229  10.370 -0.2757  0.8795 -0.5923
13820SOL     OW44736   7.461   3.240  10.856 -0.6608 -0.6769 -0.2424
13820SOL    HW144737   7.489   3.282  10.774 -0.9977  0.4161  0.1804
13820SOL    HW244738   7.543   3.222  10.902 -0.5032  2.3454  0.9106
13821SOL     OW44739  11.184   5.341   9.181 -0.0358  0.5232 -0.0505
13821SOL    HW144740  11.269   5.384   9.186 -0.5234  1.3939  1.9818
13821SOL    HW244741  11.204   5.253   9.148  1.3416  1.3474 -1.5981
13822SOL     OW44742   4.666   9.939   5.275 -0.1899 -0.5614  0.6742
13822SOL    HW144743   4.587   9.994   5.271  0.7848  0.8079 -1.7336
13822SOL    HW244744   4.738  10.001   5.281  0.8063 -1.7223  0.9403
13823SOL     OW44745  10.226   5.557   7.139 -0.1054  0.0363 -0.0238
13823SOL    HW144746  10.244   5.604   7.058  1.7100  0.4387  0.5595
13823SOL    HW244747  10.248   5.619   7.209  3.3528 -1.7936  0.7874
13824SOL     OW44748   2.511   6.623   8.938 -0.6697 -0.0041 -0.5119
13824SOL    HW144749   2.537   6.606   9.029  0.4859 -0.8838 -0.9802
13824SOL    HW244750   2.432   6.675   8.945 -0.8499 -0.4351  1.0125
13825SOL     OW44751   4.017  10.226   9.587 -0.5953  0.0552  0.3043
13825SOL    HW144752   3.956  10.154   9.601 -0.2430 -0.4846 -0.7642
13825SOL    HW244753   4.077  10.194   9.519  1.0061  0.4950  1.4328
13826SOL     OW44754   4.728   5.801   2.824 -0.2020  0.5458 -0.4116
13826SOL    HW144755   4.781   5.774   2.898 -2.3317  1.0059  1.3801
13826SOL    HW244756   4.738   5.897   2.821 -0.0493  0.5219 -0.8137
13827SOL     OW44757  10.422   8.944  10.889 -0.4015 -0.6039  0.1165
13827SOL    HW144758  10.338   8.964  10.849 -0.4825 -0.5534  0.3113
13827SOL    HW244759  10.407   8.864  10.938 -0.4684 -0.3117  0.5724
13828SOL     OW44760  11.140   7.311   9.089 -0.3193 -0.7953  0.0165
13828SOL    HW144761  11.196   7.316   9.011  0.3187 -0.7274  0.4727
13828SOL    HW244762  11.194   7.346   9.159 -0.5251 -1.8123  0.6982
13829SOL     OW44763   2.119   7.267   0.862  0.2725  0.5018  0.1831
13829SOL    HW144764   2.025   7.278   0.851 -0.0920 -0.2432  2.1005
13829SOL    HW244765   2.144   7.331   0.928  0.8031 -0.3866  0.8642
13830SOL     OW44766   3.360   9.177   6.407  0.1622  0.0911 -0.3515
13830SOL    HW144767   3.265   9.177   6.418  0.2470  0.5252  0.3990
13830SOL    HW244768   3.394   9.151   6.493  0.7110 -0.4480 -0.7238
13831SOL     OW44769   0.005  10.478   3.284 -0.4858  0.2223 -0.2574
13831SOL    HW144770   0.023  10.385   3.274 -0.0976  0.0400  1.7255
13831SOL    HW244771   0.088  10.515   3.314 -0.7243  1.1534 -0.7091
13832SOL     OW44772   1.060   3.533   7.210 -0.0865  0.1002  0.1316
13832SOL    HW144773   1.059   3.515   7.116  0.4242  0.3264  0.0833
13832SOL    HW244774   1.040   3.449   7.250 -0.8793  0.1235 -0.1945
13833SOL     OW44775   0.159   2.718   8.738 -0.0664  0.5561 -0.0061
13833SOL    HW144776   0.107   2.682   8.667  1.5304  0.6460 -1.2763
13833SOL    HW244777   0.122   2.804   8.755 -0.8262  0.2958 -0.3171
13834SOL     OW44778   9.659   5.055   3.519  0.1004 -0.6186 -0.3386
13834SOL    HW144779   9.657   4.998   3.442 -0.1132  0.5335 -1.2049
13834SOL    HW244780   9.741   5.033   3.563  1.6309  0.6233 -2.4004
13835SOL     OW44781   6.791   2.783   4.103  0.7409  0.0299 -0.7246
13835SOL    HW144782   6.731   2.762   4.174  1.2225 -2.1973 -0.8805
13835SOL    HW244783   6.809   2.876   4.112  0.1928 -0.0371  1.6050
13836SOL     OW44784   0.801   3.990   1.155  0.4832 -0.2280  0.5662
13836SOL    HW144785   0.837   4.029   1.234  1.1733 -0.5766  0.4284
13836SOL    HW244786   0.724   4.043   1.135  0.3203 -0.1196  1.4480
13837SOL     OW44787   2.792   2.918   0.178 -0.5419  0.4037  0.1558
13837SOL    HW144788   2.792   2.986   0.110  3.2060 -1.0555 -1.5969
13837SOL    HW244789   2.721   2.859   0.153 -0.5610  0.9914 -1.2945
13838SOL     OW44790   7.893   3.834   9.248  0.1924 -0.6125 -0.4577
13838SOL    HW144791   7.945   3.905   9.209 -0.9112  0.8030  0.5180
13838SOL    HW244792   7.803   3.858   9.227 -0.1606 -2.5245 -1.3179
13839SOL     OW44793   3.212   5.488   9.131 -0.7261 -0.5981 -0.2421
13839SOL    HW144794   3.249   5.408   9.094 -0.4583 -1.3880  1.6165
13839SOL    HW244795   3.284   5.528   9.179 -0.8124  0.8872 -1.2817
13840SOL     OW44796   6.220   2.000   1.145  0.3339 -0.1622 -0.8171
13840SOL    HW144797   6.156   1.980   1.078  0.2946 -1.7098 -0.3548
13840SOL    HW244798   6.219   1.924   1.204  1.4928  0.4434  0.0478
13841SOL     OW44799   3.549   7.697   1.715  0.2670  0.1256 -0.1158
13841SOL    HW144800   3.475   7.659   1.666 -0.2389  0.2075  0.5667
13841SOL    HW244801   3.591   7.621   1.755 -0.3378  0.2036  0.6943
13842SOL     OW44802   2.086   1.106   8.065  0.0630  0.2448  0.3802
13842SOL    HW144803   2.060   1.026   8.019 -4.3093  0.1121  2.5503
13842SOL    HW244804   2.080   1.083   8.158  0.7260  2.6068  1.0870
13843SOL     OW44805   6.971   6.526  11.349  0.6849  0.6126 -0.0769
13843SOL    HW144806   7.003   6.465  11.416  1.3406 -0.0997 -1.0113
13843SOL    HW244807   6.969   6.474  11.269 -2.2868  0.7715 -0.2156
13844SOL     OW44808   5.995   8.211   8.800 -0.2962  0.1396  0.0912
13844SOL    HW144809   5.992   8.232   8.706  0.1500 -1.7662 -0.3868
13844SOL    HW244810   5.999   8.116   8.803  0.4816  0.1989  2.0504
13845SOL     OW44811   3.108   8.024   3.875 -0.6082  0.0611 -0.3408
13845SOL    HW144812   3.156   8.087   3.928  1.3568  0.0333 -1.9824
13845SOL    HW244813   3.019   8.059   3.871 -0.2850  1.1511  1.1930
13846SOL     OW44814  10.905   9.253   9.459  0.1811 -0.0866 -0.6168
13846SOL    HW144815  10.849   9.228   9.385 -0.4002 -0.2882 -0.1150
13846SOL    HW244816  10.982   9.197   9.450  0.0094 -0.2753 -0.9357
13847SOL     OW44817   4.329   6.487   3.431  0.0720 -0.0318  0.4229
13847SOL    HW144818   4.424   6.483   3.414 -0.1803 -0.3527 -1.0481
13847SOL    HW244819   4.290   6.493   3.344 -1.3054 -0.6352  0.9798
13848SOL     OW44820   5.218   1.012   8.668  0.2534  0.6171  0.3675
13848SOL    HW144821   5.124   1.022   8.657  0.2297 -1.0704 -1.5273
13848SOL    HW244822   5.249   1.100   8.690 -1.7925  1.0924  1.6280
13849SOL     OW44823   9.782   8.122   6.072  0.3177  0.2715 -0.3720
13849SOL    HW144824   9.751   8.099   6.160  1.0011 -0.1801 -0.2458
13849SOL    HW244825   9.873   8.146   6.083  0.5819 -0.3764 -1.0436
13850SOL     OW44826   1.869  10.636   1.565 -0.1398  0.3934  0.5033
13850SOL    HW144827   1.891  10.575   1.635  0.6183 -0.0102 -0.0852
13850SOL    HW244828   1.846  10.717   1.611  0.1105  0.0617  1.2258
13851SOL     OW44829   7.376  10.823  11.225 -0.1854  0.0832  0.3796
13851SOL    HW144830   7.458  10.830  11.177 -0.4118 -0.6887 -0.1269
13851SOL    HW244831   7.320  10.890  11.186 -0.6218 -1.0241 -0.9749
13852SOL     OW44832   5.306  10.260  10.418  0.1248  0.1413 -0.2456
13852SOL    HW144833   5.338  10.344  10.385 -2.1410  1.2589  0.2282
13852SOL    HW244834   5.284  10.210  10.339 -0.4883  0.8217 -0.5135
13853SOL     OW44835   5.725   5.688   4.278 -0.3574  0.3167 -0.1569
13853SOL    HW144836   5.643   5.678   4.230 -0.3061  1.9129 -0.6627
13853SOL    HW244837   5.784   5.729   4.215  0.2917  0.7645  0.7215
13854SOL     OW44838   2.265   4.988   7.329 -0.1596  0.1868 -0.0682
13854SOL    HW144839   2.232   5.007   7.417 -0.6140 -2.5590  0.4686
13854SOL    HW244840   2.358   4.969   7.341 -0.5467 -1.7749  0.1709
13855SOL     OW44841   3.292   6.812   3.868  0.3184  0.0599 -1.1924
13855SOL    HW144842   3.328   6.771   3.946  0.6868  0.0226 -1.3819
13855SOL    HW244843   3.203   6.778   3.862  0.4646 -0.3500 -1.0864
13856SOL     OW44844   7.676   0.349   7.615 -0.1731  0.5357 -0.4175
13856SOL    HW144845   7.720   0.323   7.534  1.1518 -0.5728  0.6182
13856SOL    HW244846   7.727   0.422   7.648  0.8307 -0.6234  0.6822
13857SOL     OW44847   5.533   4.152  10.173  0.4882 -0.1628  0.4897
13857SOL    HW144848   5.470   4.213  10.212  0.5947 -1.8889  3.7341
13857SOL    HW244849   5.617   4.181  10.207  0.5869 -1.7396  1.6905
13858SOL     OW44850   9.669   3.786   8.443  0.5128  0.1372  0.4520
13858SOL    HW144851   9.705   3.799   8.530 -0.2958  0.5285  0.7398
13858SOL    HW244852   9.624   3.869   8.423  0.7333  0.0731 -0.3551
13859SOL     OW44853   9.365   7.624   2.507  0.5990 -0.6900  0.7670
13859SOL    HW144854   9.278   7.591   2.485 -0.5660  0.4224  3.2721
13859SOL    HW244855   9.386   7.684   2.435 -1.1822 -0.2111  0.5841
13860SOL     OW44856   1.986   6.122   5.469  0.3461 -0.3820  0.1053
13860SOL    HW144857   1.895   6.105   5.443  0.3995 -0.1877 -0.2134
13860SOL    HW244858   2.011   6.046   5.521 -0.1185 -0.2671  0.5016
13861SOL     OW44859   7.348   4.697   2.211  0.2178  0.5635  0.3901
13861SOL    HW144860   7.373   4.676   2.121 -1.3868  1.2940 -0.2857
13861SOL    HW244861   7.290   4.773   2.201  1.8290  2.1048  2.2584
13862SOL     OW44862   8.313   5.107   9.509  0.1709 -0.7631  0.1979
13862SOL    HW144863   8.376   5.172   9.480  1.3433 -0.8597  2.3298
13862SOL    HW244864   8.245   5.157   9.555 -0.4373 -0.8138 -0.6234
13863SOL     OW44865   4.940   3.995   2.699 -0.0992  0.2524 -0.6264
13863SOL    HW144866   5.031   4.002   2.673 -0.3106  0.1552 -1.4359
13863SOL    HW244867   4.928   3.902   2.721  0.6300  0.7197  2.0313
13864SOL     OW44868   3.902   9.302   1.480  0.3999 -0.1226 -0.2494
13864SOL    HW144869   3.923   9.266   1.566 -0.3003  2.8817  1.3220
13864SOL    HW244870   3.817   9.264   1.458  0.3919 -0.6091  0.5867
13865SOL     OW44871   4.680  10.864   3.259 -0.1046 -0.1650  0.7645
13865SOL    HW144872   4.741  10.864   3.185  0.3839  0.4681  1.1598
13865SOL    HW244873   4.728  10.820   3.329  0.3761  1.3501  1.4376
13866SOL     OW44874   6.581   8.517   4.832 -0.5488  0.4116  0.4944
13866SOL    HW144875   6.550   8.433   4.798 -1.0671  0.5255  0.6851
13866SOL    HW244876   6.587   8.503   4.927  2.1951 -0.3482  0.2928
13867SOL     OW44877   8.065   5.609   7.688 -0.6536 -0.1850  0.6321
13867SOL    HW144878   8.028   5.697   7.690 -0.8315 -0.2552  0.4997
13867SOL    HW244879   8.076   5.586   7.780 -0.0603  0.1988  0.6609
13868SOL     OW44880   9.938   0.656   4.688  0.3801  0.7262 -0.4907
13868SOL    HW144881  10.013   0.598   4.674  0.8283  0.5386  2.2233
13868SOL    HW244882   9.965   0.713   4.760 -2.0335  0.7671  0.4711
13869SOL     OW44883  10.045   3.872   9.691  0.0318 -0.1059 -0.2212
13869SOL    HW144884  10.132   3.853   9.658  0.8597  1.1396  1.1573
13869SOL    HW244885  10.050   3.854   9.785 -0.9168  0.8900  0.0391
13870SOL     OW44886   3.758   1.683   7.745  0.1113  0.3499  0.0534
13870SOL    HW144887   3.729   1.716   7.660 -0.6527 -0.3616  0.0267
13870SOL    HW244888   3.700   1.725   7.808  1.0127  1.2837  0.2898
13871SOL     OW44889  10.882   0.828   9.781 -0.0600 -0.5997  0.0729
13871SOL    HW144890  10.896   0.844   9.874 -1.3333 -0.1002  0.1979
13871SOL    HW244891  10.797   0.783   9.777  0.3828 -1.3945 -0.7861
13872SOL     OW44892   7.095  11.355   6.494 -0.3519 -0.2295  0.2581
13872SOL    HW144893   7.178  11.309   6.508  0.7315  2.0197  1.8724
13872SOL    HW244894   7.038  11.325   6.565 -0.4582 -0.7891 -0.0630
13873SOL     OW44895   9.171   9.098   9.163 -0.1494 -0.0249  0.0654
13873SOL    HW144896   9.255   9.063   9.134 -0.2985  0.6401 -1.2161
13873SOL    HW244897   9.186   9.119   9.255  1.0799  0.0435 -0.1225
13874SOL     OW44898  10.684   2.852   4.725 -0.0013  0.3654 -0.2070
13874SOL    HW144899  10.657   2.794   4.653  1.1039  0.0129 -0.3622
13874SOL    HW244900  10.767   2.889   4.695 -0.4631  1.6766  0.1083
13875SOL     OW44901   5.130   0.111   5.150 -0.7844  0.6202 -0.4278
13875SOL    HW144902   5.066   0.074   5.089 -0.4204  0.8166 -0.9354
13875SOL    HW244903   5.215   0.087   5.113 -0.5564  1.0636 -0.1966
13876SOL     OW44904   4.348   3.060   2.073 -0.0835 -0.0915  0.2000
13876SOL    HW144905   4.266   3.092   2.111  0.1325  0.9242 -0.1468
13876SOL    HW244906   4.333   3.064   1.978 -1.0106 -3.6098  0.0727
13877SOL     OW44907   4.319   4.071   7.589  0.6960  0.3222  0.2489
13877SOL    HW144908   4.346   4.020   7.665  3.2702 -0.7084 -1.2107
13877SOL    HW244909   4.338   4.162   7.612  3.3328 -0.1381  0.2496
13878SOL     OW44910   0.470  10.823   4.055  0.3523 -0.0087  0.0932
13878SOL    HW144911   0.446  10.862   4.138  0.8687  0.0211  0.2300
13878SOL    HW244912   0.404  10.856   3.993 -1.5370 -1.9655  0.9379
13879SOL     OW44913   3.358  10.421   9.981 -0.6387 -0.0643 -0.6622
13879SOL    HW144914   3.382  10.330   9.993  0.4239  0.4434  1.7573
13879SOL    HW244915   3.424  10.456   9.921  2.5397  0.3086  2.6865
13880SOL     OW44916   3.644  10.771   8.100  0.2061  0.0538 -0.1818
13880SOL    HW144917   3.606  10.854   8.070  0.5511  0.6236  0.8966
13880SOL    HW244918   3.674  10.728   8.020 -0.2929  0.8124 -0.7902
13881SOL     OW44919   6.243   7.814   4.866 -0.2153  0.2839 -0.0034
13881SOL    HW144920   6.216   7.770   4.947 -0.6866 -0.0005 -0.3060
13881SOL    HW244921   6.163   7.817   4.813  0.0461  0.6273 -0.3863
13882SOL     OW44922   0.453   1.937   1.844  0.0983  0.1913 -0.3741
13882SOL    HW144923   0.363   1.939   1.875  0.9086 -1.3114  2.4725
13882SOL    HW244924   0.500   1.885   1.909  3.0214  0.8035 -1.7918
13883SOL     OW44925   9.482   9.652   4.379  0.5784 -0.3756 -0.2574
13883SOL    HW144926   9.536   9.681   4.453  0.3172 -0.1780 -0.1436
13883SOL    HW244927   9.477   9.728   4.321 -1.2874  0.3160  0.7181
13884SOL     OW44928   2.145   4.277   4.151 -0.2044  0.9588  0.3244
13884SOL    HW144929   2.105   4.361   4.129 -0.1328  0.2529 -3.0860
13884SOL    HW244930   2.227   4.275   4.102 -0.9408 -1.6420 -1.0367
13885SOL     OW44931   6.423   6.987   7.572  0.0490 -0.0625  0.2077
13885SOL    HW144932   6.395   6.972   7.482  0.7790  1.4132 -0.2989
13885SOL    HW244933   6.439   6.900   7.607  0.6823 -0.6359 -1.4031
13886SOL     OW44934   1.412   4.321   6.486  0.5672 -0.1057 -0.0067
13886SOL    HW144935   1.369   4.363   6.412 -2.5755  0.5376  2.0028
13886SOL    HW244936   1.344   4.313   6.553  3.3026 -0.1310  3.0664
13887SOL     OW44937   4.233   9.295   8.590 -0.0464 -0.2567  0.4236
13887SOL    HW144938   4.236   9.391   8.586  0.2626 -0.1913  1.6455
13887SOL    HW244939   4.221   9.267   8.500 -0.0452  0.9370  0.0385
13888SOL     OW44940   0.584   0.054   1.841 -0.1582 -0.1459 -0.3696
13888SOL    HW144941   0.610   0.047   1.749 -0.2279  0.2740 -0.4224
13888SOL    HW244942   0.623  -0.023   1.882  1.0169  0.3576 -0.4905
13889SOL     OW44943   7.102   7.500   7.003 -0.0718  0.4585 -0.4047
13889SOL    HW144944   7.066   7.581   6.968 -0.1154  0.2011 -0.9619
13889SOL    HW244945   7.087   7.435   6.935 -0.7437 -0.2019  0.3417
13890SOL     OW44946   5.467   8.385   3.698 -0.3130 -0.4247  0.3107
13890SOL    HW144947   5.560   8.405   3.706 -0.6587  1.5186 -0.0042
13890SOL    HW244948   5.463   8.317   3.630  0.8031  0.2613 -0.4891
13891SOL     OW44949   2.239   4.723   0.057  0.3022 -0.0753 -0.0641
13891SOL    HW144950   2.296   4.727  -0.019  0.0989  3.5325 -0.1920
13891SOL    HW244951   2.297   4.738   0.131  0.2874 -2.2664  0.4742
13892SOL     OW44952   5.346   6.242   8.032 -0.3280  0.0069 -0.4444
13892SOL    HW144953   5.408   6.186   8.079  0.8689  2.3270  0.8762
13892SOL    HW244954   5.356   6.328   8.071 -3.6153  0.7620 -0.9753
13893SOL     OW44955   1.828   0.633   5.236  0.2157 -0.1793 -0.3931
13893SOL    HW144956   1.853   0.596   5.152 -1.1087 -0.1017 -0.8471
13893SOL    HW244957   1.842   0.563   5.299  1.2720 -0.2172 -0.6617
13894SOL     OW44958   6.275  11.210   9.145  0.0934 -1.0289 -0.1959
13894SOL    HW144959   6.182  11.188   9.132 -0.0249 -1.4105  1.1267
13894SOL    HW244960   6.304  11.242   9.060 -1.8309  1.2595 -0.1101
13895SOL     OW44961  10.606   2.030   5.901 -0.3489  0.0217  0.3703
13895SOL    HW144962  10.613   2.046   5.995  0.4775 -1.8159  0.6487
13895SOL    HW244963  10.695   2.040   5.867 -0.4399 -0.4564 -0.0255
13896SOL     OW44964   8.024   4.248   6.903  0.1271 -0.1672  0.1826
13896SOL    HW144965   7.987   4.220   6.987  1.4204  0.4008  0.9759
13896SOL    HW244966   8.111   4.282   6.926  0.9246 -0.9489 -1.5334
13897SOL     OW44967   0.810   5.640   6.708  0.7708  0.0912 -0.3638
13897SOL    HW144968   0.720   5.626   6.735  1.2504 -1.5941  0.5645
13897SOL    HW244969   0.812   5.616   6.616  0.1427  0.8095 -0.5689
13898SOL     OW44970   6.440   6.203   2.252 -0.1316 -0.0403 -0.1206
13898SOL    HW144971   6.464   6.282   2.204 -0.9803  0.6397  0.5403
13898SOL    HW244972   6.486   6.132   2.207 -0.4794  0.6411 -1.5855
13899SOL     OW44973   1.764   2.152   8.394  0.0468  0.2714 -0.0545
13899SOL    HW144974   1.725   2.070   8.425 -0.8407  0.7718  0.1893
13899SOL    HW244975   1.842   2.164   8.448  0.9806 -1.1159 -1.0302
13900SOL     OW44976   6.609   9.338   1.601 -0.2409  0.5379 -0.1445
13900SOL    HW144977   6.559   9.360   1.523 -0.2609  1.7838  0.2095
13900SOL    HW244978   6.673   9.273   1.570  0.2404  1.5510 -1.3609
13901SOL     OW44979   0.849   6.071   1.436 -0.2268  0.8832  0.0255
13901SOL    HW144980   0.819   5.980   1.428  2.9026 -0.2217 -0.6090
13901SOL    HW244981   0.815   6.100   1.521 -2.2916 -0.4273 -0.2904
13902SOL     OW44982   6.053   9.926   7.869 -0.6469  0.0439 -0.3397
13902SOL    HW144983   6.058   9.917   7.964 -0.9855  0.3026 -0.2973
13902SOL    HW244984   5.987   9.862   7.842  1.2470 -1.9090 -0.6902
13903SOL     OW44985   7.966   7.320   4.846 -0.2267 -0.1577 -0.0801
13903SOL    HW144986   7.872   7.322   4.864 -0.0758 -0.0596  0.7329
13903SOL    HW244987   8.001   7.258   4.909  0.2363 -0.3239 -0.4967
13904SOL     OW44988   4.052   6.240   1.255  0.3193 -0.0437 -0.1388
13904SOL    HW144989   4.006   6.216   1.335 -0.3638 -1.2717 -0.8718
13904SOL    HW244990   4.144   6.219   1.272 -0.0647 -1.9419 -0.2606
13905SOL     OW44991   5.276   7.416   1.728 -1.0450 -0.6428 -0.4430
13905SOL    HW144992   5.220   7.353   1.684 -0.3487 -2.4455  1.1238
13905SOL    HW244993   5.323   7.460   1.657 -4.1382  0.7736 -1.7867
13906SOL     OW44994   5.275   9.481   4.414 -0.0781 -0.2504  0.5016
13906SOL    HW144995   5.250   9.421   4.344 -2.4556 -0.2627  1.2457
13906SOL    HW244996   5.245   9.567   4.384  1.0195  0.1542  0.5202
13907SOL     OW44997   1.151   5.205  11.115  0.8694  0.0569  0.1796
13907SOL    HW144998   1.200   5.148  11.174  3.0900  0.1257 -1.4655
13907SOL    HW244999   1.156   5.161  11.030 -2.0605  0.0565 -0.0704
13908SOL     OW45000   9.378   2.188   0.382 -0.0178 -0.0012 -0.1614
13908SOL    HW145001   9.294   2.215   0.418  0.0254  1.4859 -1.0859
13908SOL    HW245002   9.355   2.132   0.307 -0.2900  1.9942 -1.6422
13909SOL     OW45003   0.492   4.857   1.406  0.4277 -0.2167 -0.2580
13909SOL    HW145004   0.457   4.943   1.380  0.7276 -0.0695 -0.1840
13909SOL    HW245005   0.421   4.817   1.456  0.6953  0.4692  0.7053
13910SOL     OW45006   0.211   9.155   0.033 -0.1013  0.1901 -0.5212
13910SOL    HW145007   0.143   9.143   0.100  0.8150  2.0867  0.8281
13910SOL    HW245008   0.270   9.221   0.070  1.2734  0.2078 -2.5926
13911SOL     OW45009   9.496   9.763   7.681 -0.1120 -0.5719 -0.3151
13911SOL    HW145010   9.412   9.732   7.646  0.3012 -0.7875 -1.1394
13911SOL    HW245011   9.551   9.774   7.604  0.4304  0.1590  0.1704
13912SOL     OW45012   7.288   6.853   5.859  0.0929 -0.3682  0.7803
13912SOL    HW145013   7.352   6.822   5.795 -0.7225 -0.4065 -0.0425
13912SOL    HW245014   7.211   6.877   5.806  0.2071  1.8143  1.4844
13913SOL     OW45015   1.533   7.513   1.540 -0.0336 -0.2243 -0.0545
13913SOL    HW145016   1.481   7.434   1.554  0.0703 -0.1499  0.8291
13913SOL    HW245017   1.623   7.481   1.526  0.2035 -0.2374  1.3500
13914SOL     OW45018  10.714   6.123   0.448 -0.4500  0.4328 -0.9238
13914SOL    HW145019  10.626   6.087   0.435 -0.7083 -0.1332  1.8805
13914SOL    HW245020  10.703   6.192   0.513  1.2774 -0.3328  0.2673
13915SOL     OW45021   5.044   5.401   8.073 -1.3353  0.5962  0.2131
13915SOL    HW145022   4.964   5.448   8.098 -0.2633  1.6447  1.8728
13915SOL    HW245023   5.107   5.422   8.143  1.2122  1.8947 -2.2697
13916SOL     OW45024   2.016   8.512  11.282  0.0212 -0.2094  0.0276
13916SOL    HW145025   2.069   8.592  11.285  0.2361 -0.3424 -0.1733
13916SOL    HW245026   1.962   8.521  11.204 -0.5831  0.1297  0.4808
13917SOL     OW45027   0.915   3.265   6.162 -0.7685 -0.0699  0.2438
13917SOL    HW145028   1.002   3.298   6.140 -0.4514  0.0031  1.5285
13917SOL    HW245029   0.888   3.318   6.237 -2.6250  1.0136 -1.1237
13918SOL     OW45030   1.848   8.574   5.561  0.4354  0.1227  0.3455
13918SOL    HW145031   1.826   8.494   5.514  1.3409 -0.5930  1.1063
13918SOL    HW245032   1.859   8.547   5.652  1.3890  0.9811  0.5124
13919SOL     OW45033   2.958   9.010   0.597 -0.2825  0.0488 -0.0875
13919SOL    HW145034   3.032   9.065   0.622  0.4354 -1.7127  1.9845
13919SOL    HW245035   2.898   9.016   0.672 -2.0760  1.0980 -1.5376
13920SOL     OW45036  11.329   8.178   4.174 -0.0211 -0.0290  0.2358
13920SOL    HW145037  11.233   8.175   4.175 -0.0808  1.2611  1.8767
13920SOL    HW245038  11.351   8.261   4.216  1.8331 -0.9388  1.1760
13921SOL     OW45039   4.113   3.127   1.883  0.0929 -0.4018  0.0996
13921SOL    HW145040   4.186   3.173   1.841 -0.4486  0.4395  0.0702
13921SOL    HW245041   4.060   3.196   1.922 -1.0378 -0.9508 -0.4335
13922SOL     OW45042   8.477   6.716  10.620  0.0425  0.4292 -0.1705
13922SOL    HW145043   8.497   6.788  10.680  0.8357 -0.0297  0.1316
13922SOL    HW245044   8.559   6.666  10.614 -0.3995 -0.2574 -0.6398
13923SOL     OW45045   0.024   9.636   7.881 -0.2647  0.0043  0.0187
13923SOL    HW145046   0.080   9.702   7.841 -0.7527  0.1179 -0.5009
13923SOL    HW245047   0.004   9.576   7.809 -1.4822  0.4244 -0.0129
13924SOL     OW45048   5.662   1.426   4.062 -0.4960 -0.3657  0.5487
13924SOL    HW145049   5.756   1.434   4.082 -0.4969  0.1656  0.3506
13924SOL    HW245050   5.636   1.343   4.103  0.5872 -1.7457 -1.3957
13925SOL     OW45051   3.518   5.546   8.565  0.6059  0.6624 -0.2232
13925SOL    HW145052   3.496   5.504   8.481  0.1441  1.0744 -0.3123
13925SOL    HW245053   3.494   5.481   8.631  1.7664 -0.0051 -0.4362
13926SOL     OW45054   8.117  10.914   5.606  0.1360  0.6044  0.1971
13926SOL    HW145055   8.025  10.942   5.611 -0.5425 -1.5158  0.3380
13926SOL    HW245056   8.151  10.961   5.529 -1.2379  0.9299 -0.2559
13927SOL     OW45057   7.782   6.863   2.918 -0.1762  0.0096  0.7053
13927SOL    HW145058   7.736   6.927   2.972 -1.7483 -0.8091  0.3942
13927SOL    HW245059   7.734   6.781   2.931  1.8672 -1.1769  1.2055
13928SOL     OW45060   8.136   8.785   9.885  0.2402 -0.4805  0.5997
13928SOL    HW145061   8.130   8.852   9.817 -1.0150 -0.6273  0.5288
13928SOL    HW245062   8.117   8.703   9.839 -0.7267 -0.5697  1.1155
13929SOL     OW45063  10.806   9.585   7.885 -0.1394  0.2956 -0.0497
13929SOL    HW145064  10.814   9.589   7.980 -0.7118 -0.4133  0.0432
13929SOL    HW245065  10.712   9.572   7.870 -0.2361  1.7071 -0.7723
13930SOL     OW45066   0.205   7.562   8.414 -0.0123  0.1642 -0.3991
13930SOL    HW145067   0.164   7.532   8.332 -1.6518 -1.0846  0.7860
13930SOL    HW245068   0.252   7.485   8.447  0.0160  0.4208  0.1757
13931SOL     OW45069   6.900   1.261   0.376 -0.4310 -0.5093 -0.2038
13931SOL    HW145070   6.844   1.288   0.303 -0.9690  2.0919  1.0718
13931SOL    HW245071   6.957   1.336   0.392 -0.0714 -1.1535  1.8085
13932SOL     OW45072   7.891   9.301   1.682  0.0115  0.1077 -0.4791
13932SOL    HW145073   7.846   9.383   1.660 -1.9605 -0.5885  0.6957
13932SOL    HW245074   7.835   9.232   1.646  1.2189 -0.7660 -0.7456
13933SOL     OW45075   1.643  10.993   7.918 -0.2634  0.2799  0.3664
13933SOL    HW145076   1.573  10.955   7.971  1.0977 -1.8219  0.7946
13933SOL    HW245077   1.711  10.925   7.916  1.1111  1.6010 -1.3393
13934SOL     OW45078   7.160   4.329   4.120 -0.2293  0.7447 -0.8854
13934SOL    HW145079   7.125   4.413   4.091 -2.5157 -0.3776 -1.6781
13934SOL    HW245080   7.092   4.295   4.179  0.9691 -0.2754 -0.0382
13935SOL     OW45081   1.768  11.272   0.123  0.0224  0.3024  0.3050
13935SOL    HW145082   1.726  11.237   0.202  0.6749  1.8686  1.3822
13935SOL    HW245083   1.861  11.253   0.135  0.2068  1.1326  0.2400
13936SOL     OW45084   6.323   8.843   4.239  0.1360 -0.0351  0.1331
13936SOL    HW145085   6.371   8.807   4.165  0.8177  2.0225 -0.4583
13936SOL    HW245086   6.376   8.821   4.315  0.0471 -1.0820 -0.0868
13937SOL     OW45087   5.105   9.566   7.863 -0.4014  0.2550  0.3492
13937SOL    HW145088   5.101   9.478   7.827  0.0858 -0.3956  1.7838
13937SOL    HW245089   5.047   9.563   7.939 -0.3198  1.1490  0.4601
13938SOL     OW45090   8.482   5.730   1.591 -0.0556 -0.3823  0.5505
13938SOL    HW145091   8.532   5.668   1.645  0.3796 -1.1460 -0.6915
13938SOL    HW245092   8.545   5.796   1.565 -0.0035 -0.6175  0.0750
13939SOL     OW45093   5.538   4.722   3.724  0.3158  0.1502  0.2692
13939SOL    HW145094   5.472   4.785   3.752  2.6539  1.7962  2.6539
13939SOL    HW245095   5.557   4.670   3.802  2.7826  0.7305  0.1547
13940SOL     OW45096   6.998   7.804   6.476  0.8343 -0.1643 -0.0773
13940SOL    HW145097   7.090   7.783   6.463  0.7668 -1.0677  0.7659
13940SOL    HW245098   6.951   7.730   6.437  0.5524 -0.9620  1.6680
13941SOL     OW45099   2.315   6.112   7.518  0.4100  0.1223 -0.1411
13941SOL    HW145100   2.361   6.031   7.537  0.9348  0.5792  0.5722
13941SOL    HW245101   2.362   6.150   7.444  0.8085  0.2926  0.1994
13942SOL     OW45102  10.720   3.787  10.247  0.2923 -0.0676  0.3169
13942SOL    HW145103  10.792   3.724  10.236 -0.6195 -1.2621  0.9190
13942SOL    HW245104  10.761   3.864  10.286  1.7184  0.3405 -1.8010
13943SOL     OW45105  10.200   4.034   4.378 -0.2316 -0.0128 -0.3251
13943SOL    HW145106  10.224   4.122   4.406 -1.8845 -0.2240  2.0029
13943SOL    HW245107  10.145   4.048   4.300  0.1034  0.9437 -0.4005
13944SOL     OW45108   1.592   8.093   4.916  0.8637  0.3158  0.2219
13944SOL    HW145109   1.532   8.156   4.955  0.2657 -0.1642  0.0851
13944SOL    HW245110   1.663   8.146   4.881  0.7088  0.8556  0.7245
13945SOL     OW45111   9.244   9.841  10.685  0.8890  0.0129  0.0394
13945SOL    HW145112   9.198   9.859  10.767  1.2978  2.3428 -0.1962
13945SOL    HW245113   9.277   9.926  10.656  0.0241 -0.5559 -2.9900
13946SOL     OW45114   6.027   3.256   4.659 -0.2387 -0.0082  0.2288
13946SOL    HW145115   5.950   3.215   4.619 -3.5625  2.4564  3.3423
13946SOL    HW245116   6.033   3.215   4.746  1.6037  0.3258  0.2932
13947SOL     OW45117   9.132   1.841   9.167 -0.2855  0.1813  0.1372
13947SOL    HW145118   9.066   1.900   9.131 -0.9183 -0.3757  0.3750
13947SOL    HW245119   9.082   1.778   9.219  0.4113 -0.3998  0.1089
13948SOL     OW45120   3.250   6.411   5.360 -0.0944 -0.1879 -0.5456
13948SOL    HW145121   3.328   6.364   5.329 -0.2671 -0.1083 -1.1191
13948SOL    HW245122   3.281   6.500   5.374  0.0080 -0.2453 -0.4077
13949SOL     OW45123   8.833   2.700   3.358 -0.3164  0.1104  0.2551
13949SOL    HW145124   8.839   2.773   3.297  0.5600 -0.8305 -0.8374
13949SOL    HW245125   8.872   2.733   3.439 -1.5215  1.3870  0.3514
13950SOL     OW45126   8.829   2.892   5.211 -0.2953  0.5958 -0.3096
13950SOL    HW145127   8.809   2.867   5.301 -0.8746  0.7468 -0.3941
13950SOL    HW245128   8.899   2.831   5.185  0.9158  1.4862  0.7119
13951SOL     OW45129  10.810   4.042   0.405  0.3630 -0.1040 -0.2850
13951SOL    HW145130  10.890   4.090   0.427 -0.7745  1.9362 -0.4046
13951SOL    HW245131  10.741   4.087   0.452 -0.9612 -0.8160 -1.4681
13952SOL     OW45132   5.593   2.931   2.876 -0.2812 -0.4654  0.2630
13952SOL    HW145133   5.668   2.914   2.819 -0.2275 -2.2472  0.8057
13952SOL    HW245134   5.627   2.920   2.965 -1.0465 -0.7409  0.5333
13953SOL     OW45135   0.336  10.875   0.418  0.2231 -0.2794 -0.4093
13953SOL    HW145136   0.430  10.892   0.429  0.3420 -0.9591 -0.3387
13953SOL    HW245137   0.303  10.953   0.374  0.0702  1.7944  2.9979
13954SOL     OW45138   2.592   8.216   1.546  0.3621 -0.5448 -0.0269
13954SOL    HW145139   2.545   8.208   1.629  1.9308  1.0003  1.0891
13954SOL    HW245140   2.666   8.155   1.555  1.7279  1.1171  0.6713
13955SOL     OW45141   7.893   8.548   0.920  0.1939 -0.2962  0.2601
13955SOL    HW145142   7.986   8.540   0.942  0.6883 -1.7780 -1.9910
13955SOL    HW245143   7.882   8.493   0.842 -2.8365 -1.0785  1.1197
13956SOL     OW45144   3.793   9.520   5.815 -0.3212  0.2883 -0.9275
13956SOL    HW145145   3.703   9.543   5.838 -0.2480  0.3043 -0.6507
13956SOL    HW245146   3.785   9.438   5.766 -0.3397 -0.8576  0.8733
13957SOL     OW45147   6.890   8.260   1.594  0.1725  0.0944  0.0564
13957SOL    HW145148   6.955   8.190   1.602  0.2493  0.3635  2.2169
13957SOL    HW245149   6.833   8.249   1.670 -1.6524  0.5798 -1.1760
13958SOL     OW45150   2.258   5.304   8.335 -0.5010 -0.0460 -0.2786
13958SOL    HW145151   2.176   5.257   8.352 -1.3071  0.8234 -1.5425
13958SOL    HW245152   2.259   5.316   8.240  1.2637 -0.3139 -0.3175
13959SOL     OW45153   3.870  10.959   1.416 -0.6302  0.2574 -0.1738
13959SOL    HW145154   3.854  10.908   1.495 -0.7932 -0.0636 -0.4104
13959SOL    HW245155   3.815  11.037   1.426 -0.6314  0.2290  0.0403
13960SOL     OW45156  11.055  10.828   9.844  0.4439  0.3777  0.0125
13960SOL    HW145157  11.028  10.770   9.772 -1.2232  2.3337 -1.0500
13960SOL    HW245158  10.981  10.827   9.904  0.1443  1.7615 -0.2943
13961SOL     OW45159   6.521   7.061  10.077 -0.0599 -0.3671 -0.1037
13961SOL    HW145160   6.492   7.133  10.020  0.6809  0.4120  0.4735
13961SOL    HW245161   6.440   7.021  10.108 -0.7619  2.9706  3.0278
13962SOL     OW45162  10.754   5.982   4.556  0.0572  0.1387  0.1354
13962SOL    HW145163  10.687   5.998   4.489  0.0634  1.2271  0.3814
13962SOL    HW245164  10.834   5.966   4.507 -0.3724 -1.2265 -0.1659
13963SOL     OW45165   4.890   6.403  10.412 -0.1698 -0.2455  0.3499
13963SOL    HW145166   4.985   6.418  10.415 -0.3278  0.8420  0.2105
13963SOL    HW245167   4.879   6.337  10.343  0.5473 -1.0435  0.9662
13964SOL     OW45168   7.893   0.845   3.086  0.1426 -0.1888 -0.4163
13964SOL    HW145169   7.889   0.938   3.063  0.6744 -0.1310 -0.2858
13964SOL    HW245170   7.957   0.840   3.157 -0.6594 -0.5192  0.3057
13965SOL     OW45171  10.360   8.392   6.682 -0.2500  0.1451  0.6354
13965SOL    HW145172  10.321   8.310   6.711  0.9237 -0.3070  0.9481
13965SOL    HW245173  10.408   8.425   6.757 -3.3261  2.8625  1.6830
13966SOL     OW45174   5.275   4.975   5.119 -0.2211 -0.2045  0.4670
13966SOL    HW145175   5.271   5.066   5.090 -0.4019 -0.4890 -0.4209
13966SOL    HW245176   5.311   4.980   5.208 -0.1950  0.7250  0.4160
13967SOL     OW45177   6.335   1.780   3.854 -0.1824  0.0408 -0.1229
13967SOL    HW145178   6.337   1.862   3.904  0.6542 -1.1474  1.8901
13967SOL    HW245179   6.387   1.799   3.775  2.0614  0.8133  1.4403
13968SOL     OW45180   0.596   6.628   5.108  0.2040 -0.1540  0.1559
13968SOL    HW145181   0.510   6.649   5.145 -0.3440  0.4491 -1.3893
13968SOL    HW245182   0.655   6.692   5.148  0.0237 -0.7603  1.4546
13969SOL     OW45183   9.732   9.692   5.929 -0.2923 -0.1588 -0.2283
13969SOL    HW145184   9.798   9.702   5.997  0.3701  0.1501 -0.8955
13969SOL    HW245185   9.700   9.603   5.938 -1.8385  0.5282  1.9096
13970SOL     OW45186   8.410  10.050   0.370 -0.1961 -0.2776  0.1552
13970SOL    HW145187   8.389   9.967   0.415 -1.3964 -0.3933 -0.5654
13970SOL    HW245188   8.375  10.118   0.428  0.2478 -0.2997  0.4545
13971SOL     OW45189   4.101   9.780   7.242  0.2071  0.5016  0.1541
13971SOL    HW145190   4.015   9.737   7.239 -0.1617  1.2982 -1.4409
13971SOL    HW245191   4.142   9.744   7.321 -0.9706 -1.0564  0.1079
13972SOL     OW45192   4.365   0.347   1.600 -0.1178 -0.3501 -0.2822
13972SOL    HW145193   4.363   0.404   1.523 -0.5318  2.1679  1.4716
13972SOL    HW245194   4.273   0.328   1.618  0.0327 -1.9772 -1.0765
13973SOL     OW45195   6.849  10.099  10.189  0.2363 -0.1470  0.0098
13973SOL    HW145196   6.758  10.073  10.183  0.1667  0.0865  0.0216
13973SOL    HW245197   6.895  10.041  10.129  0.1729 -0.6779  0.4674
13974SOL     OW45198   2.362   5.424  11.069  0.2074  0.9543  0.1800
13974SOL    HW145199   2.351   5.495  11.006  2.2838  0.3285 -0.9817
13974SOL    HW245200   2.372   5.346  11.015 -2.6990 -0.4637  1.4147
13975SOL     OW45201  10.222   7.266   0.947 -0.2712  0.0906 -0.5116
13975SOL    HW145202  10.161   7.245   0.876  0.8190  0.6396 -1.6432
13975SOL    HW245203  10.166   7.302   1.016 -1.4701 -1.2770 -0.6993
13976SOL     OW45204   0.821  10.781   9.859  0.0867 -0.0305 -0.5770
13976SOL    HW145205   0.873  10.759   9.782  0.0510 -1.3517 -0.2442
13976SOL    HW245206   0.734  10.746   9.840 -0.9598  2.7453 -1.4242
13977SOL     OW45207   1.270   2.575   5.609 -0.2180  0.5993 -0.7325
13977SOL    HW145208   1.186   2.531   5.594 -1.4136  1.4462  2.5178
13977SOL    HW245209   1.336   2.517   5.572 -2.0681 -1.3862 -1.0701
13978SOL     OW45210   2.567   6.962   2.976 -0.2087  0.4138  0.1240
13978SOL    HW145211   2.593   6.894   3.038 -1.9836  0.2771  0.7977
13978SOL    HW245212   2.628   6.954   2.903  0.9816 -0.4310  1.1840
13979SOL     OW45213   0.720   5.264   7.094  0.7239  0.6448 -0.3741
13979SOL    HW145214   0.704   5.349   7.135  1.3814  1.0355 -0.9116
13979SOL    HW245215   0.793   5.227   7.143  1.2084  0.9095 -0.8910
13980SOL     OW45216   3.675   6.876   6.934 -0.2186 -0.6652 -0.1670
13980SOL    HW145217   3.677   6.787   6.898  0.2123  0.0915 -2.1351
13980SOL    HW245218   3.759   6.914   6.910 -1.3075  1.0447 -1.5584
13981SOL     OW45219   7.258   1.842   6.889  0.2252 -0.6037 -0.1750
13981SOL    HW145220   7.168   1.811   6.877  0.4394 -1.3805  0.1596
13981SOL    HW245221   7.263   1.865   6.982  0.5309 -1.1079 -0.0622
13982SOL     OW45222   6.557  10.315   5.016  0.4107 -0.0040 -0.1350
13982SOL    HW145223   6.500  10.379   5.059 -0.0581 -1.5230  1.5985
13982SOL    HW245224   6.531  10.319   4.924 -1.4567  0.4178  0.3591
13983SOL     OW45225  11.245   2.943   8.399 -0.3434  0.5885  0.6563
13983SOL    HW145226  11.308   2.875   8.376  0.6823  1.9760 -0.8261
13983SOL    HW245227  11.177   2.897   8.448 -0.4184 -1.8002 -1.4743
13984SOL     OW45228   0.243   1.590  11.046 -0.6852  0.2969  0.2115
13984SOL    HW145229   0.282   1.661  11.097  1.4053  0.4665 -1.4779
13984SOL    HW245230   0.150   1.611  11.043 -0.1638  2.9444 -0.1150
13985SOL     OW45231   9.793   2.861   7.541  0.2571  0.4723 -0.2362
13985SOL    HW145232   9.758   2.944   7.511  1.2860  1.2656  0.6905
13985SOL    HW245233   9.797   2.869   7.636  2.5777  0.3167 -0.2444
13986SOL     OW45234   0.081   6.260   5.350 -0.1915  0.6782  0.6060
13986SOL    HW145235   0.038   6.249   5.436  0.8679 -1.6497  0.8939
13986SOL    HW245236   0.087   6.172   5.315 -0.0533  1.5327 -1.6550
13987SOL     OW45237   2.014   6.025   0.115 -0.1297  0.1690  0.7538
13987SOL    HW145238   2.105   6.027   0.146  0.1071  2.5400  0.1023
13987SOL    HW245239   1.962   6.010   0.194  0.7753 -0.4729  1.2492
13988SOL     OW45240   9.215   3.885   0.755 -0.1522  0.4790 -0.4754
13988SOL    HW145241   9.282   3.847   0.812 -0.0242  0.8485 -0.3731
13988SOL    HW245242   9.257   3.964   0.719  0.0058 -0.0862 -1.5825
13989SOL     OW45243   7.712   6.638   3.054  0.5522  0.3872  0.0673
13989SOL    HW145244   7.653   6.562   3.058  1.3227 -0.1673  1.8004
13989SOL    HW245245   7.800   6.600   3.064  1.2262  1.2369 -2.0623
13990SOL     OW45246   1.112  10.357   9.830 -0.0928 -0.1970 -0.7411
13990SOL    HW145247   1.064  10.428   9.871  1.1925  0.7209 -0.7643
13990SOL    HW245248   1.084  10.358   9.739  0.2209  0.5606 -0.8340
13991SOL     OW45249   6.463   2.116   1.174 -0.6143 -0.0510  0.8993
13991SOL    HW145250   6.512   2.130   1.093 -1.5797 -0.7403  0.1703
13991SOL    HW245251   6.385   2.067   1.147 -0.5894 -0.9649  2.3595
13992SOL     OW45252   0.612   3.678  11.288 -0.0400 -0.1742 -0.2572
13992SOL    HW145253   0.517   3.679  11.278 -0.0252  1.4754 -0.5700
13992SOL    HW245254   0.626   3.677  11.382 -0.4155  1.6854 -0.1529
13993SOL     OW45255   6.473   2.395   8.788 -0.5148  0.1912  0.0334
13993SOL    HW145256   6.469   2.416   8.694 -1.6379  0.1339  0.0623
13993SOL    HW245257   6.544   2.451   8.821 -0.9136  1.1231 -0.6263
13994SOL     OW45258   3.684   6.579   8.903  0.9518 -0.2450  0.7968
13994SOL    HW145259   3.712   6.608   8.990 -0.4768  1.8454  0.6430
13994SOL    HW245260   3.666   6.660   8.855  0.0207 -1.3714 -0.8687
13995SOL     OW45261   3.387   0.469   5.682 -0.1753  0.0763 -0.0803
13995SOL    HW145262   3.330   0.471   5.759 -1.5032 -0.6216 -1.0118
13995SOL    HW245263   3.355   0.396   5.630  1.8199 -0.5892 -0.4872
13996SOL     OW45264   9.428  10.639   6.139  0.4107 -0.4327 -0.6450
13996SOL    HW145265   9.362  10.697   6.178  0.4108  0.7964 -2.3792
13996SOL    HW245266   9.512  10.674   6.168  0.4094 -2.2433  1.9095
13997SOL     OW45267   0.543  10.295   4.759  0.0068  0.1105  0.1072
13997SOL    HW145268   0.564  10.267   4.670  0.3821 -0.0400  0.2402
13997SOL    HW245269   0.565  10.388   4.760 -2.3642  0.7460 -0.6863
13998SOL     OW45270  10.816  10.641  11.393 -0.2136  0.0323  0.3015
13998SOL    HW145271  10.892  10.696  11.414  0.2595 -0.8188  0.8609
13998SOL    HW245272  10.742  10.702  11.394  0.2352  0.5932  1.3510
13999SOL     OW45273   0.903   7.689   6.338 -0.7573 -0.4953  0.8086
13999SOL    HW145274   0.942   7.768   6.301 -0.1023 -0.9647  0.4741
13999SOL    HW245275   0.815   7.686   6.302 -0.4814 -0.3901  0.1016
14000SOL     OW45276   2.851   4.512   9.099  0.1306  0.2346  0.0667
14000SOL    HW145277   2.807   4.566   9.034  2.1497  1.4146 -0.3619
14000SOL    HW245278   2.898   4.573   9.155 -0.8963 -0.7945  2.2381
14001SOL     OW45279   7.256  10.620   2.641 -0.1575 -0.2029 -0.1469
14001SOL    HW145280   7.203  10.696   2.618 -0.7986 -1.0646 -1.6956
14001SOL    HW245281   7.195  10.546   2.637  0.8353 -1.0292 -0.5338
14002SOL     OW45282   7.444   6.789   2.981 -0.5455  0.2256 -0.1663
14002SOL    HW145283   7.420   6.767   2.891 -0.9115 -0.4691  0.0943
14002SOL    HW245284   7.516   6.731   3.002 -1.4048 -0.6414  0.4681
14003SOL     OW45285   5.592   7.739   2.110 -0.1120 -0.6972 -0.5246
14003SOL    HW145286   5.643   7.738   2.191  0.9019  0.0816 -1.1362
14003SOL    HW245287   5.596   7.649   2.077 -0.9889 -1.1510  0.5493
14004SOL     OW45288   5.596   8.437   6.442 -0.0426 -0.4516  0.0674
14004SOL    HW145289   5.582   8.343   6.427  0.1828 -0.3976 -0.4824
14004SOL    HW245290   5.508   8.474   6.447 -0.1471 -0.4316 -1.4072
14005SOL     OW45291   1.062   5.463   9.492  0.3225  0.0340  0.2408
14005SOL    HW145292   1.011   5.544   9.494 -0.9985 -0.7827  0.8957
14005SOL    HW245293   1.090   5.455   9.401 -1.7999 -0.1018 -0.4620
14006SOL     OW45294   5.623  11.358   1.618 -0.5697  0.4112 -0.5397
14006SOL    HW145295   5.578  11.290   1.667 -1.5776 -0.0151 -1.9574
14006SOL    HW245296   5.557  11.427   1.609 -0.3738  0.5207 -1.1824
14007SOL     OW45297  10.351   8.763   2.343 -0.1460 -0.1879  0.4571
14007SOL    HW145298  10.350   8.816   2.423 -0.1624  1.5440 -0.6443
14007SOL    HW245299  10.425   8.797   2.293 -0.3631 -0.9979 -0.4401
14008SOL     OW45300   5.927   5.225   1.949 -0.1562  0.2761  0.2254
14008SOL    HW145301   5.889   5.170   2.017  0.0079 -1.9973 -1.4232
14008SOL    HW245302   5.857   5.287   1.928 -1.4704 -1.1722  0.1224
14009SOL     OW45303   7.172   0.287   7.654 -0.0060  0.6609 -0.2235
14009SOL    HW145304   7.117   0.209   7.642 -0.6552  0.8905  1.1442
14009SOL    HW245305   7.252   0.267   7.607 -0.1120 -0.8944  0.2145
14010SOL     OW45306   8.972   3.663   2.758 -0.3655 -0.3342 -0.3735
14010SOL    HW145307   8.883   3.629   2.752 -0.5781  0.0161  0.6509
14010SOL    HW245308   9.028   3.585   2.750 -0.7650 -0.5897 -0.7295
14011SOL     OW45309   9.119   2.676  10.422 -0.2483  0.8196  0.1489
14011SOL    HW145310   9.089   2.585  10.432 -0.0965  0.8592  1.1139
14011SOL    HW245311   9.040   2.729  10.438 -0.4298  0.8575 -0.8277
14012SOL     OW45312   2.727   7.392   1.608 -0.2390 -0.2307 -0.3998
14012SOL    HW145313   2.714   7.483   1.636  1.0377 -0.5664  1.4929
14012SOL    HW245314   2.678   7.340   1.672  0.7508 -0.9426 -0.1957
14013SOL     OW45315   0.468   5.040   9.627 -0.1162  0.3134  0.1709
14013SOL    HW145316   0.473   5.076   9.715  0.7468  0.9344 -0.1207
14013SOL    HW245317   0.547   4.985   9.619 -1.3978 -1.7118  0.6126
14014SOL     OW45318   4.836   4.915   7.883  0.4400  0.0456  0.3822
14014SOL    HW145319   4.786   4.875   7.812 -1.5380  2.0842  0.5228
14014SOL    HW245320   4.914   4.950   7.840 -0.9740  1.7096 -0.9750
14015SOL     OW45321   3.622   3.404   6.230 -0.1008 -0.5472  0.2473
14015SOL    HW145322   3.662   3.446   6.154 -1.2409 -1.1258 -0.6937
14015SOL    HW245323   3.655   3.454   6.305  0.6776  0.3174 -0.6476
14016SOL     OW45324   2.872   0.810   3.493 -0.0143 -0.2837  0.2395
14016SOL    HW145325   2.905   0.724   3.516  0.1090 -0.3173 -0.0680
14016SOL    HW245326   2.863   0.809   3.398  0.1033  0.0843  0.2221
14017SOL     OW45327  10.035   4.689   3.390  0.7046  0.1213  0.1301
14017SOL    HW145328  10.017   4.656   3.302 -0.7561 -0.9031  0.7825
14017SOL    HW245329  10.079   4.773   3.375  1.9812 -0.7768 -1.5557
14018SOL     OW45330   6.370   2.551   0.352 -0.2668  0.0017  0.4030
14018SOL    HW145331   6.291   2.526   0.303  1.1045 -1.1324 -1.3775
14018SOL    HW245332   6.436   2.566   0.284  0.5238  3.2060  1.7018
14019SOL     OW45333  10.018   6.014   8.031  0.1764  0.5135 -0.4222
14019SOL    HW145334   9.969   5.938   8.061 -0.3283  1.6597  1.9079
14019SOL    HW245335  10.100   6.011   8.081 -0.9457  2.8124  1.8268
14020SOL     OW45336   6.414   9.618   2.292  0.1159  0.3033 -0.1469
14020SOL    HW145337   6.385   9.708   2.277 -0.4721  0.0135 -0.8304
14020SOL    HW245338   6.355   9.565   2.238 -1.3985 -0.7295  2.3529
14021SOL     OW45339   0.729   4.937   9.617  0.3284 -0.3461  0.2644
14021SOL    HW145340   0.813   4.930   9.661  0.4275 -2.7818 -0.2028
14021SOL    HW245341   0.723   4.859   9.562 -1.1091  1.0434 -1.7361
14022SOL     OW45342   0.704  11.068  10.245 -0.0825  0.2481 -0.0717
14022SOL    HW145343   0.682  11.002  10.310 -0.4410 -0.0308 -0.4698
14022SOL    HW245344   0.768  11.026  10.188  0.5653  0.6438  0.3600
14023SOL     OW45345   9.717   5.498  10.130  0.0046  0.4942 -0.1410
14023SOL    HW145346   9.800   5.476  10.172 -0.1431  0.4036  0.1013
14023SOL    HW245347   9.712   5.593  10.136  0.9539  0.7002 -1.7537
14024SOL     OW45348   5.622   5.831   1.317  0.6786  0.0258 -0.0759
14024SOL    HW145349   5.649   5.860   1.230 -1.0176 -0.8964 -0.9619
14024SOL    HW245350   5.603   5.738   1.307 -2.3959  0.4754  0.4613
14025SOL     OW45351   0.713   3.354   4.401  0.0537  0.1108  0.0902
14025SOL    HW145352   0.679   3.297   4.331 -0.7316  0.7208 -0.0438
14025SOL    HW245353   0.634   3.383   4.447  0.5060  0.4808  0.6285
14026SOL     OW45354   0.914  10.669   2.634  0.2874  0.0990 -0.1986
14026SOL    HW145355   0.958  10.692   2.716  0.0961 -0.2883  0.0143
14026SOL    HW245356   0.821  10.675   2.654  0.2076 -1.5935  0.0924
14027SOL     OW45357   9.596   7.381  11.284  0.3352 -1.1294  0.0275
14027SOL    HW145358   9.653   7.455  11.261 -0.5383 -0.0416  1.1982
14027SOL    HW245359   9.592   7.328  11.204  1.9198 -0.5445 -0.4823
14028SOL     OW45360   6.898   6.974   3.642 -0.5259 -0.2649  0.1005
14028SOL    HW145361   6.918   6.902   3.702  1.7528 -0.5885 -0.9339
14028SOL    HW245362   6.858   7.041   3.697 -1.5597 -1.8253  1.3182
14029SOL     OW45363   3.456   3.965   7.561 -0.4228  0.3014 -0.2864
14029SOL    HW145364   3.399   4.040   7.544 -0.1557  0.5656 -0.0413
14029SOL    HW245365   3.468   3.924   7.475 -0.9603  0.2550 -0.3418
14030SOL     OW45366   6.782   0.957   6.939 -0.7394  0.1355  0.2252
14030SOL    HW145367   6.739   0.920   6.862 -0.3414  1.2436 -0.5513
14030SOL    HW245368   6.827   1.034   6.906  0.3580  0.0084  1.3629
14031SOL     OW45369   2.964   1.510  10.176  0.3909  0.1088 -0.0062
14031SOL    HW145370   3.015   1.566  10.235 -0.3917 -1.2222  2.0377
14031SOL    HW245371   2.911   1.456  10.234 -1.0387 -0.7325 -1.9897
14032SOL     OW45372   4.217  10.943  10.786 -0.4785 -0.6811 -0.3896
14032SOL    HW145373   4.173  10.988  10.858  0.8535  0.6416 -0.3739
14032SOL    HW245374   4.272  10.877  10.828  0.9568  0.6655 -0.1182
14033SOL     OW45375  10.918   7.870   1.594  0.1664 -0.2429  0.1447
14033SOL    HW145376  10.835   7.889   1.550 -0.1381 -2.0436 -0.1222
14033SOL    HW245377  10.959   7.803   1.540  2.1242  1.0393 -0.0613
14034SOL     OW45378   4.037   8.243  10.777  0.6059 -0.3588 -0.0384
14034SOL    HW145379   4.006   8.314  10.833 -3.8728 -1.0541 -1.2852
14034SOL    HW245380   4.066   8.175  10.838 -0.8584  0.2214  1.3516
14035SOL     OW45381   5.423   8.157   4.607  0.3868  0.2290 -0.2905
14035SOL    HW145382   5.399   8.156   4.514  0.3606 -0.6965 -0.2770
14035SOL    HW245383   5.343   8.188   4.651  0.0900 -0.2419 -0.4920
14036SOL     OW45384   3.021   9.609   9.208  0.3936  0.2268 -0.2713
14036SOL    HW145385   3.032   9.525   9.164  1.0027  0.1619 -0.0068
14036SOL    HW245386   3.051   9.674   9.145 -0.2739  0.2666 -0.5538
14037SOL     OW45387   0.715   3.067   9.563 -0.0304 -0.3303 -0.2528
14037SOL    HW145388   0.738   3.011   9.489  0.4154 -1.4956  0.7354
14037SOL    HW245389   0.620   3.057   9.571 -0.1352  0.0986 -0.8883
14038SOL     OW45390   6.639   7.761   1.955 -0.0485  0.1506 -0.3796
14038SOL    HW145391   6.704   7.699   1.988 -0.2858  0.2389  0.2724
14038SOL    HW245392   6.689   7.822   1.901 -0.0081 -1.4182 -2.2262
14039SOL     OW45393   8.111   1.614   3.469  0.0265  0.0188 -0.3077
14039SOL    HW145394   8.113   1.569   3.385 -0.7599 -1.6582  0.5197
14039SOL    HW245395   8.189   1.583   3.515 -0.6029 -0.6418  0.3306
14040SOL     OW45396  10.010  10.700   9.409  0.1770  0.6336  0.2980
14040SOL    HW145397  10.006  10.685   9.314  0.0083  0.5297  0.3209
14040SOL    HW245398   9.930  10.748   9.429 -0.5692 -0.7238  0.6400
14041SOL     OW45399   3.851   3.354   9.825  0.1361  0.9413 -0.1016
14041SOL    HW145400   3.869   3.260   9.826  0.9424  1.0792  2.1312
14041SOL    HW245401   3.761   3.362   9.857 -0.4819  0.8827 -1.7236
14042SOL     OW45402   9.310   3.242   2.841  0.7544 -0.0283 -0.9806
14042SOL    HW145403   9.376   3.311   2.843 -0.1832  0.8875 -0.6523
14042SOL    HW245404   9.360   3.160   2.832  1.8990  0.6577 -0.9780
14043SOL     OW45405   2.767   1.544  10.678 -0.8352 -0.2589  0.1319
14043SOL    HW145406   2.853   1.581  10.657 -2.0342  1.7664 -1.5621
14043SOL    HW245407   2.772   1.524  10.771  0.7641  1.9026  0.5931
14044SOL     OW45408   9.096   1.591   6.855 -0.4983  0.4163 -0.1499
14044SOL    HW145409   9.138   1.676   6.866 -0.1241  0.5036 -1.9082
14044SOL    HW245410   9.048   1.577   6.936 -2.5722  3.4311 -0.7106
14045SOL     OW45411  10.184   9.979   3.464  0.7536  0.1284 -0.3781
14045SOL    HW145412  10.275   9.964   3.440  0.1411 -0.5344 -2.5517
14045SOL    HW245413  10.188  10.023   3.549  3.0799  0.1805 -0.4550
14046SOL     OW45414   2.522   5.108   4.683  0.5660  0.1070 -0.0203
14046SOL    HW145415   2.513   5.134   4.775 -1.5714  1.6765 -0.5784
14046SOL    HW245416   2.531   5.191   4.636 -0.7782 -0.4868 -1.4038
14047SOL     OW45417   6.144   3.335   4.135  0.0555 -0.8142 -0.2343
14047SOL    HW145418   6.118   3.291   4.215 -3.2352 -1.6793 -1.6004
14047SOL    HW245419   6.079   3.404   4.123  0.9124 -0.2082 -1.7617
14048SOL     OW45420   0.496   4.963   7.931  0.5079  0.0501  0.5068
14048SOL    HW145421   0.544   4.880   7.934 -0.4533 -0.5645 -0.6033
14048SOL    HW245422   0.562   5.028   7.908  0.8982 -0.7306 -0.6427
14049SOL     OW45423   3.185   6.221   2.116  0.3568  0.1625 -0.7986
14049SOL    HW145424   3.209   6.310   2.145 -0.8034 -0.2618  1.8062
14049SOL    HW245425   3.266   6.171   2.123  0.5050  0.5012  0.1308
14050SOL     OW45426   1.297   6.341   7.065  0.0614  0.1093 -0.2413
14050SOL    HW145427   1.304   6.337   7.160  0.5934 -0.2330 -0.2885
14050SOL    HW245428   1.204   6.358   7.048 -0.2012 -0.6806  0.3146
14051SOL     OW45429   5.568   4.231   8.609 -0.2836 -0.2343 -0.1579
14051SOL    HW145430   5.546   4.138   8.604  0.1219 -0.3212 -0.4032
14051SOL    HW245431   5.484   4.276   8.615 -0.4731 -0.6396  0.2976
14052SOL     OW45432   4.497   4.308   4.146 -0.2381 -0.1962  0.4397
14052SOL    HW145433   4.484   4.372   4.076 -1.0557 -0.1911  0.5797
14052SOL    HW245434   4.586   4.323   4.177 -0.8726  1.8413  1.4144
14053SOL     OW45435   4.625   7.580   6.065  0.2210  0.5057  0.4481
14053SOL    HW145436   4.651   7.594   6.156 -0.2225 -2.0163  1.0343
14053SOL    HW245437   4.533   7.555   6.070  0.6356 -1.3574 -0.4793
14054SOL     OW45438   1.082   1.389   5.290 -0.2186 -0.6898  1.3477
14054SOL    HW145439   1.055   1.300   5.266  0.1228 -0.3257 -0.6119
14054SOL    HW245440   1.176   1.390   5.273 -0.2234  0.0334  1.3654
14055SOL     OW45441   9.467   5.904  11.266  0.5365  0.3651  0.4300
14055SOL    HW145442   9.501   5.824  11.225  0.4661 -0.2141  1.4538
14055SOL    HW245443   9.546   5.950  11.296  0.5374  0.1386  0.7907
14056SOL     OW45444   8.183  10.394  10.824 -0.2016 -0.2855  0.0105
14056SOL    HW145445   8.130  10.347  10.759 -1.3911  0.4226  0.4499
14056SOL    HW245446   8.120  10.424  10.889  0.7617  0.5255  0.5874
14057SOL     OW45447   5.802   0.384   2.337  0.0348 -0.4264  0.3409
14057SOL    HW145448   5.894   0.358   2.336 -0.3550 -1.9793 -1.1744
14057SOL    HW245449   5.759   0.322   2.395 -0.3199 -0.8642 -0.3685
14058SOL     OW45450   5.860   6.462   9.359 -0.7627  0.2989  0.0374
14058SOL    HW145451   5.844   6.383   9.411 -0.5757  0.0786 -0.2387
14058SOL    HW245452   5.848   6.434   9.268 -2.0153  0.8974  0.0022
14059SOL     OW45453   7.230   7.522   8.351  0.2013  0.2560 -0.2441
14059SOL    HW145454   7.273   7.603   8.325 -1.5014  1.0680 -0.6959
14059SOL    HW245455   7.226   7.470   8.271 -0.5655  0.6267 -0.4541
14060SOL     OW45456   6.576   3.154   3.659  0.3225  0.2137 -0.0996
14060SOL    HW145457   6.513   3.156   3.587  2.2078  0.1948 -1.8308
14060SOL    HW245458   6.582   3.245   3.688  0.5952  0.4731 -0.9469
14061SOL     OW45459   4.520   1.429   7.601 -0.3720 -0.0298  0.3121
14061SOL    HW145460   4.540   1.335   7.601  0.3196  0.1135 -0.1720
14061SOL    HW245461   4.462   1.440   7.676 -0.4138 -0.8366  0.4148
14062SOL     OW45462   7.811   5.824   2.861 -0.3119 -0.0535  0.0791
14062SOL    HW145463   7.896   5.863   2.839 -0.8437  2.6550  2.3241
14062SOL    HW245464   7.822   5.790   2.950 -1.4534 -0.0431  0.2401
14063SOL     OW45465   4.918   2.723  10.775 -0.1620  0.8507  0.0573
14063SOL    HW145466   4.947   2.787  10.840  0.1461  0.0274  0.7409
14063SOL    HW245467   4.959   2.641  10.802  1.7368  0.8714 -2.3532
14064SOL     OW45468   2.204   7.364   2.006  0.5713 -0.0282 -0.2475
14064SOL    HW145469   2.156   7.348   2.088  0.3000 -0.1859 -0.4347
14064SOL    HW245470   2.290   7.395   2.034  0.6420 -0.5348  0.1032
14065SOL     OW45471  10.110   7.372   2.128 -0.0559  0.3428 -0.6189
14065SOL    HW145472  10.039   7.427   2.161 -1.1227 -2.8510  3.0313
14065SOL    HW245473  10.069   7.288   2.110  2.3256 -0.7589 -1.2507
14066SOL     OW45474   8.254   0.216   9.512 -0.3883  0.2702 -0.6125
14066SOL    HW145475   8.199   0.232   9.589 -1.9378 -0.8423 -1.4456
14066SOL    HW245476   8.249   0.122   9.497 -1.8132  0.6648 -3.2374
14067SOL     OW45477   3.644   1.446   9.548 -0.4837 -0.2999  0.6895
14067SOL    HW145478   3.636   1.503   9.624  1.2296  0.7021  0.1525
14067SOL    HW245479   3.725   1.397   9.562 -0.9539 -1.2462  0.2320
14068SOL     OW45480   7.490   6.418   8.555  0.5599  0.2291  0.0983
14068SOL    HW145481   7.543   6.465   8.490  1.6703  1.1442  1.6198
14068SOL    HW245482   7.428   6.367   8.502  1.3645  1.0001 -1.6744
14069SOL     OW45483   2.875   6.005   4.877  0.3717 -0.2122  0.2115
14069SOL    HW145484   2.878   5.921   4.831 -1.5498  0.6851 -1.7346
14069SOL    HW245485   2.813   5.991   4.948 -0.1242 -0.4191 -0.2482
14070SOL     OW45486   2.556   1.749   4.287 -0.0034  0.3592  0.1347
14070SOL    HW145487   2.532   1.673   4.234 -0.5950  0.6256 -0.0010
14070SOL    HW245488   2.527   1.727   4.375 -1.3630  0.9248 -0.1428
14071SOL     OW45489   7.369   8.730   0.026 -0.3077 -0.0023  0.3168
14071SOL    HW145490   7.393   8.822   0.037  0.5320 -0.0044 -1.1641
14071SOL    HW245491   7.280   8.733  -0.008  0.3271  0.3938 -1.4482
14072SOL     OW45492   0.885  10.870   7.566 -0.0159  0.1999 -0.1656
14072SOL    HW145493   0.958  10.928   7.546  0.2484 -0.1324 -0.1652
14072SOL    HW245494   0.918  10.812   7.635  0.2777 -1.0332 -1.3083
14073SOL     OW45495   4.274   8.186   3.810 -0.5397  0.5534  0.0837
14073SOL    HW145496   4.201   8.212   3.866 -0.5985  0.1973  0.1792
14073SOL    HW245497   4.348   8.175   3.870  0.0763  2.6504 -0.2316
14074SOL     OW45498   1.522   4.686   0.911  0.3364  0.7579  0.1020
14074SOL    HW145499   1.566   4.696   0.996  0.1041  0.4405  0.2586
14074SOL    HW245500   1.583   4.633   0.859 -0.1274 -0.2167  0.5248
14075SOL     OW45501   8.197   5.876   5.019  0.5242 -0.3924  0.3181
14075SOL    HW145502   8.168   5.899   5.107  0.7933  0.8320  0.1085
14075SOL    HW245503   8.143   5.801   4.995  0.1991 -0.5206  1.3813
14076SOL     OW45504   2.666   1.889   9.112  0.3150 -0.5716  0.4154
14076SOL    HW145505   2.667   1.926   9.024  1.1576  0.1755  0.7271
14076SOL    HW245506   2.677   1.795   9.099 -1.2568 -0.6667 -0.3511
14077SOL     OW45507   2.106   5.113   9.139 -0.0660  0.2258 -0.0594
14077SOL    HW145508   2.037   5.058   9.177  0.9940 -1.8865 -1.0056
14077SOL    HW245509   2.156   5.144   9.214  1.3808 -3.0425  0.4910
14078SOL     OW45510   3.496   0.730  10.857  0.3050  0.4466 -0.2831
14078SOL    HW145511   3.407   0.721  10.821  0.2396 -0.3799  0.0624
14078SOL    HW245512   3.515   0.823  10.850 -0.9876  0.7996  0.5578
14079SOL     OW45513   7.828   1.689   6.476 -1.0596 -0.0146 -0.1331
14079SOL    HW145514   7.756   1.678   6.413 -1.6173  0.1238  0.4656
14079SOL    HW245515   7.876   1.606   6.471 -0.2374  0.5226 -1.7743
14080SOL     OW45516   7.354   3.332   6.152 -0.1426  0.7909 -0.3837
14080SOL    HW145517   7.375   3.361   6.063  0.9951  0.1089 -0.3549
14080SOL    HW245518   7.431   3.356   6.203 -0.1718 -0.1489  0.1165
14081SOL     OW45519   6.240   6.537   4.380 -0.3101 -0.3026  0.1973
14081SOL    HW145520   6.225   6.467   4.316  0.5386 -0.2907 -0.0205
14081SOL    HW245521   6.250   6.616   4.328 -1.9327  0.1203  0.4753
14082SOL     OW45522   6.893   7.724   3.914  0.3154  0.3130 -0.5246
14082SOL    HW145523   6.819   7.677   3.876  0.2997  0.4212 -0.6270
14082SOL    HW245524   6.885   7.813   3.880  0.5006  0.3211 -0.5474
14083SOL     OW45525   5.310   8.673   2.822 -0.5919 -0.1479  0.3673
14083SOL    HW145526   5.376   8.732   2.858 -0.0674  1.0455 -2.2522
14083SOL    HW245527   5.357   8.622   2.756 -2.4045  1.9192 -2.8224
14084SOL     OW45528   4.662   5.791   7.930 -0.5735  0.1278 -0.0250
14084SOL    HW145529   4.578   5.795   7.975 -0.1968  4.3901  0.6765
14084SOL    HW245530   4.723   5.758   7.996 -1.1115  0.3752  0.6073
14085SOL     OW45531   8.573   2.626   7.823 -0.2931  0.0308  0.1880
14085SOL    HW145532   8.530   2.608   7.740  0.8547 -2.7048  0.0677
14085SOL    HW245533   8.529   2.568   7.886 -0.5868  1.4383  1.3399
14086SOL     OW45534   0.025  10.450   5.195  0.2217 -0.2724  0.1726
14086SOL    HW145535   0.072  10.381   5.243 -1.2004 -1.5896 -0.2745
14086SOL    HW245536   0.001  10.409   5.112  2.1390  1.7878 -1.5345
14087SOL     OW45537   9.161   2.996   2.219 -0.5023 -0.2843 -0.0876
14087SOL    HW145538   9.173   2.908   2.255  1.3349  0.2896  0.8547
14087SOL    HW245539   9.125   3.047   2.292  0.5355  0.2302  0.0846
14088SOL     OW45540   1.330   6.305  11.260 -0.5370 -0.8321 -0.1809
14088SOL    HW145541   1.351   6.356  11.182 -1.7274  0.6733  0.4520
14088SOL    HW245542   1.395   6.332  11.325 -0.6125 -0.8005 -0.1186
14089SOL     OW45543   5.229   4.634   2.200  0.1021  0.5227  0.0539
14089SOL    HW145544   5.228   4.710   2.142 -2.8696  1.0782  0.7036
14089SOL    HW245545   5.185   4.565   2.150  0.7831 -0.1313  0.3248
14090SOL     OW45546   9.623  11.249   8.723 -0.3754  0.9384 -0.1411
14090SOL    HW145547   9.644  11.290   8.639  0.0255  1.2755  0.1226
14090SOL    HW245548   9.701  11.199   8.746 -0.3690  1.0989  0.1830
14091SOL     OW45549   1.209   5.300   7.155  0.2012 -0.1961 -0.4368
14091SOL    HW145550   1.293   5.260   7.133  0.0570 -1.6848  1.4810
14091SOL    HW245551   1.148   5.265   7.090  0.8121 -0.1453 -1.0427
14092SOL     OW45552   4.071   6.453   0.971 -0.4993  0.2904 -0.5252
14092SOL    HW145553   4.136   6.395   0.932 -0.5492 -0.3780  0.3393
14092SOL    HW245554   4.025   6.397   1.034 -1.1754  1.0349 -0.3514
14093SOL     OW45555   6.033   1.526   1.197 -0.0241  0.5871  0.0563
14093SOL    HW145556   6.093   1.600   1.185  1.7965 -0.6623  1.0516
14093SOL    HW245557   6.012   1.497   1.109 -1.8556  3.0546 -0.4268
14094SOL     OW45558   0.389  10.672   9.218 -0.1891  0.1309  0.2130
14094SOL    HW145559   0.298  10.687   9.192 -0.4280  0.7705  1.3218
14094SOL    HW245560   0.411  10.587   9.180 -1.2490 -0.0407 -0.0722
14095SOL     OW45561   7.282   8.802   9.968 -0.1908 -0.2527 -0.1201
14095SOL    HW145562   7.241   8.863  10.028 -0.9734  0.4941 -1.3750
14095SOL    HW245563   7.374   8.831   9.964 -0.2467 -0.0035  0.3141
14096SOL     OW45564   6.668   9.289   0.644 -0.2061 -0.9515 -0.3444
14096SOL    HW145565   6.751   9.316   0.606 -1.0240 -0.2542 -1.7381
14096SOL    HW245566   6.659   9.343   0.723 -0.5555  1.0507 -1.6492
14097SOL     OW45567  11.312   3.242   7.674  0.0471  0.3999  0.0736
14097SOL    HW145568  11.250   3.174   7.648 -0.9673  1.5817 -0.6966
14097SOL    HW245569  11.278   3.276   7.756 -1.3662  2.1951 -1.1596
14098SOL     OW45570   5.451   7.464   6.165 -0.1166 -0.0051  0.5141
14098SOL    HW145571   5.366   7.483   6.125  0.1206 -1.8725 -1.0251
14098SOL    HW245572   5.476   7.546   6.208 -2.5377  0.6831  0.7493
14099SOL     OW45573   9.226   5.690   9.668 -0.0418  0.8323  0.1293
14099SOL    HW145574   9.294   5.728   9.613  1.5550  1.7713  2.6136
14099SOL    HW245575   9.159   5.758   9.674  0.2999  1.1604  0.2402
14100SOL     OW45576   6.042   0.620   0.641 -0.0735 -0.5238 -0.3831
14100SOL    HW145577   5.964   0.565   0.644 -1.3462  1.1883  0.1077
14100SOL    HW245578   6.020   0.688   0.577  0.1513  1.1531  1.2324
14101SOL     OW45579   4.216   8.700   8.238 -0.4467 -0.3479  0.1423
14101SOL    HW145580   4.198   8.646   8.162  0.8540 -2.2530  1.1176
14101SOL    HW245581   4.296   8.748   8.216 -0.7385  0.0248 -0.1245
14102SOL     OW45582   0.015   4.468   5.553  0.4677 -0.1700 -0.7114
14102SOL    HW145583  -0.035   4.483   5.472 -1.4519  0.3488  0.5002
14102SOL    HW245584   0.039   4.375   5.549 -0.5967 -0.4374 -1.3674
14103SOL     OW45585  10.091   5.704   4.196 -0.0097  0.0633  0.5554
14103SOL    HW145586  10.121   5.652   4.122 -0.5780  0.8158 -0.2360
14103SOL    HW245587  10.123   5.658   4.273 -0.1598 -1.2287 -0.1236
14104SOL     OW45588   1.616   6.937   2.859 -0.2885  0.0464  0.5664
14104SOL    HW145589   1.694   6.940   2.803 -1.1284  2.4842 -0.6342
14104SOL    HW245590   1.569   6.859   2.831  0.3549  0.0754 -0.6847
14105SOL     OW45591   2.442  10.800   1.008  0.0458  0.5177 -0.3890
14105SOL    HW145592   2.537  10.803   0.998 -0.0092 -0.4180 -1.2534
14105SOL    HW245593   2.414  10.890   0.995  0.9300  1.0700  1.2478
14106SOL     OW45594   8.391  10.707   4.609  0.3797  0.1622 -0.3586
14106SOL    HW145595   8.468  10.650   4.598  0.7032  0.7979 -1.5108
14106SOL    HW245596   8.402  10.746   4.696 -0.5179 -2.4884  1.0630
14107SOL     OW45597   1.364   8.030   7.050  0.3793  0.4103  0.0557
14107SOL    HW145598   1.287   8.074   7.086 -0.4090  0.8809 -2.0361
14107SOL    HW245599   1.343   8.018   6.957  3.2032  1.4122 -0.8149
14108SOL     OW45600   8.292   0.844   9.991 -0.1125 -0.6715  0.8439
14108SOL    HW145601   8.218   0.798  10.031 -0.5526 -0.5914  0.1209
14108SOL    HW245602   8.369   0.797  10.025 -0.5058 -1.1191  1.1419
14109SOL     OW45603   8.238   4.470  10.106  0.6689 -0.2452 -0.0592
14109SOL    HW145604   8.180   4.531  10.060  0.8972 -0.6132 -0.8581
14109SOL    HW245605   8.199   4.460  10.193 -0.1000  0.0222 -0.3661
14110SOL     OW45606   1.389   7.248   7.288 -0.5821 -0.4228 -0.1613
14110SOL    HW145607   1.429   7.220   7.206 -1.5130 -1.1443 -0.3855
14110SOL    HW245608   1.403   7.343   7.290  1.4658 -0.6791 -0.0144
14111SOL     OW45609   7.545   5.797   7.905 -0.3421  0.5509 -0.2401
14111SOL    HW145610   7.542   5.827   7.996 -0.2716  1.9920 -0.6834
14111SOL    HW245611   7.454   5.776   7.884 -0.1682 -1.2833  0.5883
14112SOL     OW45612  10.881   1.915   8.235 -0.2049 -0.0769  0.0016
14112SOL    HW145613  10.910   1.826   8.216  2.2997 -0.0195  2.8860
14112SOL    HW245614  10.948   1.971   8.196 -0.8461  0.5015 -0.2987
14113SOL     OW45615   7.924   9.782   4.807  0.7979  0.0825 -0.3653
14113SOL    HW145616   7.920   9.868   4.765  1.7052  1.3414  1.9615
14113SOL    HW245617   8.017   9.765   4.819  0.5862 -0.4153  0.7244
14114SOL     OW45618  10.254   2.383   3.999  0.3397  0.5225  0.4376
14114SOL    HW145619  10.243   2.346   3.911  0.0505 -0.1640  0.7568
14114SOL    HW245620  10.167   2.375   4.039  0.7301 -0.1729  1.1636
14115SOL     OW45621  10.296   8.897  10.376  0.0714 -0.1012 -0.6583
14115SOL    HW145622  10.235   8.824  10.385 -0.6563  0.5390 -0.3318
14115SOL    HW245623  10.240   8.975  10.368  0.8409  0.6130  0.6316
14116SOL     OW45624   3.261   3.331   6.547  0.1572 -0.8029  0.3887
14116SOL    HW145625   3.327   3.306   6.482 -0.6427  1.1708 -1.2913
14116SOL    HW245626   3.267   3.426   6.552 -1.0118 -0.7770  1.9350
14117SOL     OW45627   5.125   4.251   8.091  0.1087  0.2769 -0.4587
14117SOL    HW145628   5.208   4.245   8.138 -0.7352  0.7638  1.1537
14117SOL    HW245629   5.118   4.169   8.043 -0.5112 -1.8061  2.8804
14118SOL     OW45630   5.016   2.960  10.529 -0.6286 -0.0908 -0.2678
14118SOL    HW145631   5.035   2.958  10.435 -0.9389 -0.9398 -0.3218
14118SOL    HW245632   5.103   2.957  10.570 -0.5065 -2.3908 -0.5328
14119SOL     OW45633   4.368   1.922   5.088 -0.2282  0.3590  0.3425
14119SOL    HW145634   4.403   1.985   5.024 -2.0111 -0.2110 -1.3043
14119SOL    HW245635   4.274   1.922   5.072 -0.3795 -2.1360  0.8487
14120SOL     OW45636  10.948   8.512   4.084  0.8042 -0.1092 -0.4315
14120SOL    HW145637  11.018   8.548   4.029 -0.0161 -0.4313 -1.7285
14120SOL    HW245638  10.917   8.436   4.036 -0.8958  0.4199 -0.2236
14121SOL     OW45639   9.408   4.973  10.813  0.3405  0.0422  0.5642
14121SOL    HW145640   9.380   4.884  10.836  1.4752 -0.3389  0.5187
14121SOL    HW245641   9.499   4.963  10.787 -0.0849  0.9034 -1.4186
14122SOL     OW45642   9.373   7.645   3.556 -0.3540 -0.1318  0.0554
14122SOL    HW145643   9.306   7.706   3.525  0.8263  0.6998 -0.9750
14122SOL    HW245644   9.410   7.687   3.633  1.0545  0.9711 -1.1446
14123SOL     OW45645   6.921   1.666  10.121  1.0207 -0.0158 -0.7793
14123SOL    HW145646   6.980   1.655  10.046  0.0367 -2.3535 -1.3105
14123SOL    HW245647   6.940   1.590  10.177  0.2259  0.5238  0.2475
14124SOL     OW45648   1.336   6.180   5.781  0.3488 -0.6989  0.3922
14124SOL    HW145649   1.352   6.102   5.834  0.6308 -1.5210 -0.8605
14124SOL    HW245650   1.394   6.170   5.705 -0.0715  0.4259 -0.0992
14125SOL     OW45651   2.605   6.532   2.227 -0.6056  0.0098  0.0314
14125SOL    HW145652   2.531   6.472   2.218  1.1256 -1.9091 -2.9602
14125SOL    HW245653   2.663   6.489   2.290  0.2645 -1.1877 -1.5163
14126SOL     OW45654   6.412   3.235   6.541  0.1224 -0.0193 -0.1501
14126SOL    HW145655   6.399   3.257   6.449  0.5152  2.0142  0.2208
14126SOL    HW245656   6.328   3.257   6.582  0.7975  1.7746  0.3721
14127SOL     OW45657   7.503   9.707   7.319  0.1970 -0.6356 -0.1555
14127SOL    HW145658   7.508   9.756   7.237  1.7884 -0.0102  0.2870
14127SOL    HW245659   7.529   9.618   7.294 -0.7477 -0.8128 -0.5772
14128SOL     OW45660   0.997   0.147   9.349 -0.0550  0.2098 -0.4004
14128SOL    HW145661   0.988   0.082   9.419 -1.7118  1.0488  0.2287
14128SOL    HW245662   1.088   0.175   9.354 -0.1515  0.3532  1.5739
14129SOL     OW45663   2.900   9.269   6.604  0.2106  0.1724 -0.2573
14129SOL    HW145664   2.850   9.188   6.594  0.0022  0.5403 -2.9327
14129SOL    HW245665   2.835   9.333   6.633  0.1344 -0.3363  0.7467
14130SOL     OW45666   1.423   2.220   1.846 -0.0255  0.2833  0.1471
14130SOL    HW145667   1.476   2.151   1.885  0.9000  1.0868  0.3554
14130SOL    HW245668   1.370   2.253   1.919 -1.0723 -0.7175 -0.1242
14131SOL     OW45669   0.549   1.240   1.122  0.6355 -0.5855 -0.1038
14131SOL    HW145670   0.630   1.263   1.076 -0.3849 -0.0525 -1.6750
14131SOL    HW245671   0.565   1.150   1.152  0.8068 -1.5942 -2.8672
14132SOL     OW45672   7.531   6.709   5.404  0.1258  0.2915 -0.0887
14132SOL    HW145673   7.562   6.698   5.314  2.0089 -0.9973  0.6584
14132SOL    HW245674   7.588   6.777   5.440 -0.0358  0.1623  0.4088
14133SOL     OW45675   9.399   2.366   6.279 -0.3776  0.3242 -0.6266
14133SOL    HW145676   9.481   2.374   6.328 -1.2486  0.2615  0.9231
14133SOL    HW245677   9.420   2.307   6.207  1.1813  1.1039 -0.8645
14134SOL     OW45678  10.137   7.859   6.742  0.6015  0.2048 -0.0493
14134SOL    HW145679  10.232   7.857   6.755  0.7617  2.8650 -0.2867
14134SOL    HW245680  10.103   7.907   6.817 -0.5994 -0.8085  0.0882
14135SOL     OW45681   4.681   9.356   7.245 -0.3859  0.5051  0.7555
14135SOL    HW145682   4.623   9.303   7.190  2.6598 -1.1046 -1.1660
14135SOL    HW245683   4.695   9.437   7.195  0.5761  0.0187  0.2122
14136SOL     OW45684  10.525   1.074   5.427 -0.7077  1.2124  0.5030
14136SOL    HW145685  10.608   1.122   5.431 -1.2743  2.2085  0.5023
14136SOL    HW245686  10.495   1.084   5.337 -0.2636 -0.1546  0.1768
14137SOL     OW45687   3.676   9.439   9.257 -0.1859 -0.1673 -0.1934
14137SOL    HW145688   3.762   9.439   9.298 -0.3649 -1.3467  0.1987
14137SOL    HW245689   3.647   9.530   9.264 -0.3221 -0.3340  2.5676
14138SOL     OW45690  11.123   4.016   5.440  0.5029 -0.1278 -0.3037
14138SOL    HW145691  11.090   3.958   5.508  0.2734  0.4602  0.0932
14138SOL    HW245692  11.160   3.957   5.374  0.4791 -0.7109  0.1967
14139SOL     OW45693   2.321   6.734   0.960 -0.0808  0.0814  0.2885
14139SOL    HW145694   2.329   6.798   1.030 -3.3947  0.5074  0.4583
14139SOL    HW245695   2.314   6.786   0.880 -1.2029 -0.1017  0.2467
14140SOL     OW45696   3.804   7.058   0.010  0.2954  0.7603  0.7433
14140SOL    HW145697   3.768   6.978   0.047 -1.0876  0.3420 -1.3615
14140SOL    HW245698   3.873   7.028  -0.049 -1.1711  0.9328 -1.1504
14141SOL     OW45699   6.914   8.214   4.151 -0.1170 -0.0717 -0.1101
14141SOL    HW145700   6.959   8.158   4.214 -1.6140 -2.0413 -0.6655
14141SOL    HW245701   6.835   8.164   4.129 -1.2232  2.0334 -1.1214
14142SOL     OW45702   8.002   6.434   2.185 -0.6608  0.4064  0.4747
14142SOL    HW145703   7.977   6.357   2.235  1.7029 -0.3318  0.6480
14142SOL    HW245704   7.961   6.422   2.099 -1.0475 -0.6033  0.7973
14143SOL     OW45705   3.698   6.095  10.453 -0.0824 -0.0117 -0.1391
14143SOL    HW145706   3.662   6.157  10.389  1.9685 -1.0590 -2.4915
14143SOL    HW245707   3.781   6.136  10.480 -0.5259  0.0095  1.2572
14144SOL     OW45708   6.817   6.474  10.911  0.6912 -0.0842  0.3858
14144SOL    HW145709   6.768   6.556  10.907  1.8615  0.5996 -1.1714
14144SOL    HW245710   6.750   6.406  10.909 -0.3232  0.7941  2.2002
14145SOL     OW45711   3.190  11.061   0.685  0.8432 -0.2131  0.1464
14145SOL    HW145712   3.189  10.965   0.687 -0.9490 -0.2202  0.2436
14145SOL    HW245713   3.234  11.086   0.766  0.1936 -0.9462  0.7394
14146SOL     OW45714   0.795   4.818   0.673 -0.3928  0.1237 -0.1311
14146SOL    HW145715   0.884   4.813   0.638  0.0499  0.0229  0.9616
14146SOL    HW245716   0.773   4.911   0.671 -0.4124  0.1074 -0.7562
14147SOL     OW45717   3.005   1.787   7.405 -0.2828  0.0528 -0.3210
14147SOL    HW145718   3.065   1.781   7.331  0.9848  2.8801  0.3133
14147SOL    HW245719   3.030   1.716   7.463  2.0209  0.6868 -0.4466
14148SOL     OW45720   0.725   8.860   4.398 -0.3669 -0.0427 -0.7038
14148SOL    HW145721   0.796   8.921   4.416  0.4466 -0.6246 -1.8164
14148SOL    HW245722   0.646   8.914   4.398  0.1542  0.7362 -0.1916
14149SOL     OW45723   0.225   5.060   7.917  0.1625 -0.1460  0.0858
14149SOL    HW145724   0.313   5.043   7.949  0.2753  1.4690  0.7307
14149SOL    HW245725   0.238   5.085   7.825  0.5780  1.5931  0.5886
14150SOL     OW45726  10.315   5.912  10.308  0.2786  0.5070 -0.0799
14150SOL    HW145727  10.226   5.894  10.280 -0.1458  0.1736  1.4025
14150SOL    HW245728  10.309   5.922  10.403  2.1215 -1.7261  0.3692
14151SOL     OW45729   8.474   1.626   5.762  0.0271 -0.1079  0.3489
14151SOL    HW145730   8.400   1.613   5.702  0.1487  0.5588  0.0463
14151SOL    HW245731   8.433   1.641   5.847 -0.1505 -0.8732  0.4073
14152SOL     OW45732   0.635   7.938  11.165 -0.0607  0.1795  0.2858
14152SOL    HW145733   0.600   7.928  11.077  0.7731  0.1523 -0.0507
14152SOL    HW245734   0.558   7.955  11.220 -0.7667 -1.1599 -0.2210
14153SOL     OW45735   1.170   9.406   9.296 -0.1919  0.0639  0.2260
14153SOL    HW145736   1.217   9.480   9.257  0.9035 -0.6118  0.2479
14153SOL    HW245737   1.208   9.329   9.255 -2.7165 -0.4535 -1.3406
14154SOL     OW45738   6.464   2.415   6.591 -0.1986 -0.4927 -0.2801
14154SOL    HW145739   6.386   2.454   6.552 -1.7800 -1.5302  1.7152
14154SOL    HW245740   6.520   2.490   6.613 -0.9048  0.2995 -1.1238
14155SOL     OW45741   5.136   1.888  10.225  0.2857  0.4478  0.9183
14155SOL    HW145742   5.064   1.931  10.178  0.6432  1.0450  0.9095
14155SOL    HW245743   5.177   1.832  10.159  0.2245  0.5940  0.7535
14156SOL     OW45744   0.036   2.354  10.662  0.0826 -0.3545 -0.0876
14156SOL    HW145745   0.115   2.301  10.662  0.1118 -0.3227 -0.9404
14156SOL    HW245746   0.029   2.387  10.572 -0.4296  0.3415  0.1977
14157SOL     OW45747   9.684   8.391   1.781  0.5844 -0.0816 -0.8425
14157SOL    HW145748   9.690   8.300   1.751 -1.9086  0.3879 -3.1110
14157SOL    HW245749   9.594   8.399   1.813  0.7798  1.5728 -0.6509
14158SOL     OW45750   6.464  10.258   8.402 -0.2892  0.6446  0.2534
14158SOL    HW145751   6.479  10.345   8.365 -1.2000  0.3855 -0.7975
14158SOL    HW245752   6.462  10.200   8.326  2.1967 -0.6377  1.0595
14159SOL     OW45753   3.547  10.906   9.797  0.2018  0.1835  0.0714
14159SOL    HW145754   3.493  10.869   9.728 -1.0977 -0.2090  1.2693
14159SOL    HW245755   3.533  10.849   9.872 -0.4968  2.0908  1.4493
14160SOL     OW45756   4.018  11.398   2.137 -0.9384  0.3447  0.1898
14160SOL    HW145757   4.028  11.320   2.192 -0.7942 -0.4871 -0.9892
14160SOL    HW245758   4.085  11.459   2.169  0.4640 -0.8701 -0.3117
14161SOL     OW45759   2.240   4.506   6.253 -0.4981 -0.2214  0.2750
14161SOL    HW145760   2.231   4.410   6.247 -2.5449 -0.0568 -0.0985
14161SOL    HW245761   2.183   4.531   6.325 -0.5728  0.7802 -0.1160
14162SOL     OW45762  10.230   2.486   4.692 -0.4123 -0.1706  0.0129
14162SOL    HW145763  10.314   2.443   4.712  0.2636  0.2809 -1.6737
14162SOL    HW245764  10.216   2.545   4.766 -0.1489 -1.5061  1.1860
14163SOL     OW45765   9.763  11.083  10.157 -0.5722  0.6873 -0.0297
14163SOL    HW145766   9.858  11.088  10.154 -0.4075 -1.5576  0.0995
14163SOL    HW245767   9.741  11.079  10.250 -0.6604 -0.5771 -0.1005
14164SOL     OW45768   5.478  10.408   3.782  0.3094 -0.6671 -0.2123
14164SOL    HW145769   5.409  10.465   3.746  1.2356 -0.3508 -1.5818
14164SOL    HW245770   5.472  10.421   3.876 -2.1310 -1.3934 -0.1874
14165SOL     OW45771   4.230   4.914   7.309 -1.0894 -0.3277 -0.1236
14165SOL    HW145772   4.159   4.849   7.306 -2.3618  0.9456  0.9245
14165SOL    HW245773   4.216   4.960   7.392  1.3642 -0.4289  0.4333
14166SOL     OW45774   3.698   9.528   7.144 -0.2915 -0.4750 -0.4080
14166SOL    HW145775   3.754   9.450   7.148  0.6613  0.2435  0.8980
14166SOL    HW245776   3.643   9.514   7.067  1.5720 -1.2993 -1.6664
14167SOL     OW45777   1.401   3.171   5.497  0.3430 -0.3646 -0.2170
14167SOL    HW145778   1.468   3.108   5.523  0.2517 -0.3516  0.0549
14167SOL    HW245779   1.415   3.185   5.403  0.2721 -0.8995 -0.3072
14168SOL     OW45780   5.035   3.092   9.175  0.4903 -0.5391 -0.1548
14168SOL    HW145781   5.099   3.072   9.107  0.5672 -1.2571  0.1152
14168SOL    HW245782   4.958   3.122   9.127  0.8371 -0.1994 -0.5096
14169SOL     OW45783   7.892   3.254  11.309 -0.5316 -0.5378  0.5973
14169SOL    HW145784   7.952   3.311  11.356  0.5567 -1.7895  0.7652
14169SOL    HW245785   7.838   3.314  11.256  0.1793  0.6645  1.2039
14170SOL     OW45786   4.148   9.686   9.746  0.2388  0.1008  0.1059
14170SOL    HW145787   4.079   9.621   9.733 -0.0970  0.3501  0.6251
14170SOL    HW245788   4.218   9.659   9.686 -0.3827 -0.0349 -0.5742
14171SOL     OW45789   3.187   9.672  10.844  0.1665 -0.0063 -0.1967
14171SOL    HW145790   3.147   9.737  10.902  1.0588  0.4374 -0.0714
14171SOL    HW245791   3.281   9.684  10.855  0.3482 -0.9397 -0.6055
14172SOL     OW45792   9.383   3.342   7.667  0.1291  0.3252  0.0567
14172SOL    HW145793   9.474   3.314   7.660 -0.0274  0.2457 -2.2734
14172SOL    HW245794   9.333   3.260   7.665 -0.0400  0.3430  1.6668
14173SOL     OW45795   7.806   5.202   0.349  0.3206 -0.6255 -0.9198
14173SOL    HW145796   7.716   5.221   0.322  0.5506  2.0623 -0.0403
14173SOL    HW245797   7.860   5.256   0.291  1.3732 -1.8468 -1.1195
14174SOL     OW45798   3.859   6.696   3.869  0.0314  0.6823 -0.3716
14174SOL    HW145799   3.788   6.651   3.914 -0.6089  0.1608 -1.8292
14174SOL    HW245800   3.818   6.772   3.828  0.2005  0.1477 -1.5783
14175SOL     OW45801   7.659   7.332  11.040  0.4382  0.1324  0.0939
14175SOL    HW145802   7.592   7.391  11.077  0.6157  0.9233 -0.7958
14175SOL    HW245803   7.664   7.260  11.102 -2.2546 -0.6714 -0.5032
14176SOL     OW45804   8.062   7.093   4.987 -0.6301 -0.3041  0.0789
14176SOL    HW145805   8.052   7.014   5.040 -0.9485 -0.2581  0.0883
14176SOL    HW245806   8.137   7.139   5.027 -1.4314  0.1829  1.0593
14177SOL     OW45807   4.223   6.864   3.727  0.1223 -0.1512  0.0469
14177SOL    HW145808   4.254   6.937   3.674 -0.8158  1.0702  1.1185
14177SOL    HW245809   4.170   6.904   3.795 -1.9489 -1.9506 -0.3777
14178SOL     OW45810   6.039   8.430   9.698 -0.1267  0.1658  0.7107
14178SOL    HW145811   6.045   8.447   9.604 -0.0566 -0.8691  0.5144
14178SOL    HW245812   5.946   8.441   9.719 -0.5490 -1.7381  0.0568
14179SOL     OW45813   0.628   5.641   5.451 -0.4388  0.1825 -0.1988
14179SOL    HW145814   0.642   5.733   5.476  1.1728  0.0225 -0.3912
14179SOL    HW245815   0.583   5.645   5.367 -2.1867  0.7527  0.7018
14180SOL     OW45816   8.677  10.512   4.103  0.3327 -0.4461  0.1427
14180SOL    HW145817   8.763  10.484   4.132 -0.0306 -3.1392 -1.0444
14180SOL    HW245818   8.616  10.464   4.158 -0.4215  0.3135 -0.0046
14181SOL     OW45819   7.004  10.806   0.078  0.4004  0.1124 -0.2873
14181SOL    HW145820   6.996  10.711   0.086  0.0638  0.2828  2.3773
14181SOL    HW245821   7.096  10.821   0.054  0.0424 -0.8758 -2.5660
14182SOL     OW45822  10.415   6.035   8.777  0.8585  0.0312 -0.3596
14182SOL    HW145823  10.451   6.060   8.862 -1.3242  0.4563  0.5032
14182SOL    HW245824  10.417   5.940   8.777  0.7595  0.0263  0.2247
14183SOL     OW45825   0.275   6.408   1.142  0.8875  0.5421 -0.0121
14183SOL    HW145826   0.291   6.437   1.231 -0.0005 -0.3220  0.4398
14183SOL    HW245827   0.187   6.439   1.121  0.3668 -0.7949  0.0792
14184SOL     OW45828   5.463  10.849   3.085  0.7932 -0.5026 -0.0570
14184SOL    HW145829   5.380  10.867   3.040  1.4622 -0.3243 -1.2417
14184SOL    HW245830   5.451  10.762   3.123 -0.4465  0.0879  1.0069
14185SOL     OW45831   5.118   3.057   3.243 -0.6872  0.3408  0.0514
14185SOL    HW145832   5.149   3.082   3.156 -0.6036 -1.0658 -0.3564
14185SOL    HW245833   5.037   3.106   3.255 -0.7998  0.4144 -0.9002
14186SOL     OW45834   4.634   4.710  10.398 -0.9485 -0.0430  0.5266
14186SOL    HW145835   4.592   4.689  10.315 -1.5339  2.1645  0.2124
14186SOL    HW245836   4.656   4.803  10.391  0.1693 -0.1234  2.3447
14187SOL     OW45837   3.727   7.554  10.199 -0.2382 -0.0620  0.2435
14187SOL    HW145838   3.770   7.640  10.201  0.5795 -0.4665  1.5586
14187SOL    HW245839   3.786   7.498  10.149  0.9020 -0.6332  2.1008
14188SOL     OW45840  11.110   3.403   4.424 -0.0809 -0.2343  0.1691
14188SOL    HW145841  11.037   3.389   4.365  0.8213  0.4260 -1.1676
14188SOL    HW245842  11.076   3.381   4.511 -1.6833 -0.4437 -0.4810
14189SOL     OW45843   2.206  10.550  10.004  0.0119  0.2355  0.2164
14189SOL    HW145844   2.244  10.548  10.092 -1.4132  0.2417  0.8664
14189SOL    HW245845   2.187  10.643   9.989  0.1535  0.2197 -0.0525
14190SOL     OW45846  10.326   9.621   2.561 -0.5565  0.3789  0.3900
14190SOL    HW145847  10.246   9.637   2.611  1.0646 -0.3349  3.4267
14190SOL    HW245848  10.379   9.699   2.575 -0.0677  0.1841 -0.3147
14191SOL     OW45849   3.320   6.801   0.183  0.8979  0.5071 -0.2752
14191SOL    HW145850   3.282   6.749   0.113 -1.7506  0.1544  1.2909
14191SOL    HW245851   3.410   6.769   0.191  0.0288 -2.3216 -0.8345
14192SOL     OW45852   7.015  10.721   6.516 -0.0084  0.1739 -0.0115
14192SOL    HW145853   7.007  10.626   6.508 -0.8039  0.1328  0.9604
14192SOL    HW245854   6.967  10.756   6.441 -0.6125 -0.1903  0.1974
14193SOL     OW45855  10.067   0.188   8.409  0.2868  0.4895 -0.4653
14193SOL    HW145856  10.081   0.103   8.367  1.1871 -0.0931  0.9287
14193SOL    HW245857  10.139   0.196   8.472 -0.1908  1.9638 -0.0546
14194SOL     OW45858   8.571   1.358   7.646  0.1574 -0.1906  0.4710
14194SOL    HW145859   8.599   1.276   7.604  0.5565  0.0971  0.1711
14194SOL    HW245860   8.499   1.331   7.705  0.0494 -0.6996  0.1155
14195SOL     OW45861  10.419   1.381   0.134 -0.2138 -0.1186  0.0430
14195SOL    HW145862  10.494   1.427   0.170  0.2819 -2.4620  2.2255
14195SOL    HW245863  10.442   1.289   0.139 -2.7033 -0.8496 -0.5328
14196SOL     OW45864   1.583   6.317   5.012  0.0380  0.8476  0.3154
14196SOL    HW145865   1.658   6.258   5.002  0.2781  1.3873 -1.3115
14196SOL    HW245866   1.618   6.393   5.058  0.0222  0.2796  1.2868
14197SOL     OW45867   7.581   7.250   6.715  0.5108  0.0770 -0.3288
14197SOL    HW145868   7.563   7.157   6.706 -1.1742  0.2804  0.4356
14197SOL    HW245869   7.673   7.255   6.738  0.7424 -1.3629 -0.8563
14198SOL     OW45870   0.662   1.639  10.285  0.6479 -0.1776  0.2934
14198SOL    HW145871   0.575   1.647  10.246  0.2282  0.7298  1.3524
14198SOL    HW245872   0.646   1.604  10.372  1.3430  0.0137  0.5050
14199SOL     OW45873   0.179   6.489   9.679  0.0892 -0.3161  0.3470
14199SOL    HW145874   0.086   6.499   9.657 -0.0827  0.2700  1.2985
14199SOL    HW245875   0.185   6.402   9.718 -0.3571  0.1866  1.6161
14200SOL     OW45876   1.167   6.082   8.350  0.0455  0.0216  0.5029
14200SOL    HW145877   1.239   6.121   8.302 -0.2983 -1.4931 -1.3347
14200SOL    HW245878   1.150   5.999   8.306 -1.2129 -0.8211  2.4096
14201SOL     OW45879  10.089  10.415   7.581 -0.7059  0.2413  0.2226
14201SOL    HW145880  10.031  10.347   7.547  2.0670 -1.6989 -1.0635
14201SOL    HW245881  10.118  10.462   7.503  2.1760 -1.2747  0.2272
14202SOL     OW45882   8.040   8.143   8.506 -0.2161  0.5353  0.1988
14202SOL    HW145883   8.038   8.194   8.587  1.3956  1.8841 -0.5643
14202SOL    HW245884   8.123   8.095   8.509 -0.4202  0.1279 -0.3963
14203SOL     OW45885   5.294   3.925   6.322  0.7573  0.0953  0.2002
14203SOL    HW145886   5.366   3.862   6.325  0.7100 -0.0495 -1.0212
14203SOL    HW245887   5.303   3.977   6.401  1.4694 -0.7243  0.6629
14204SOL     OW45888  10.391   3.747   6.688 -0.1001 -0.2689  0.3352
14204SOL    HW145889  10.408   3.690   6.612 -0.3985  2.4129 -1.8938
14204SOL    HW245890  10.311   3.712   6.726  0.3835 -2.0557 -0.1628
14205SOL     OW45891  10.766   1.744   7.638 -0.0021  0.3324 -0.0399
14205SOL    HW145892  10.759   1.681   7.567 -2.9597 -0.6400  0.9547
14205SOL    HW245893  10.859   1.767   7.642  0.4548 -0.5795 -3.2827
14206SOL     OW45894  10.440   7.497   0.634 -0.3345 -0.0856  0.1677
14206SOL    HW145895  10.384   7.482   0.557 -0.5032  4.0571 -0.7244
14206SOL    HW245896  10.524   7.524   0.598  0.0761  0.4299  1.4531
14207SOL     OW45897   7.322   3.576   7.881  0.9238 -0.1609  0.5003
14207SOL    HW145898   7.306   3.533   7.964 -1.2211  0.5915  0.5503
14207SOL    HW245899   7.308   3.508   7.815  2.3462 -0.6838  0.7002
14208SOL     OW45900   5.488   0.193  10.112 -0.3201  0.2032  0.2277
14208SOL    HW145901   5.544   0.259  10.070  0.4309 -1.4346 -1.5249
14208SOL    HW245902   5.550   0.134  10.156 -1.0409  1.2198  2.7354
14209SOL     OW45903   9.020   7.249   1.061  0.4483 -0.6565  0.2725
14209SOL    HW145904   8.988   7.164   1.029 -0.8837 -0.2991  0.6005
14209SOL    HW245905   9.024   7.239   1.156 -0.0083 -0.2675  0.3385
14210SOL     OW45906   7.750   1.659   5.963 -0.7303  0.0166  1.0532
14210SOL    HW145907   7.692   1.732   5.942  0.0328  0.8542  1.8066
14210SOL    HW245908   7.714   1.622   6.043 -0.5119  0.2404  1.2582
14211SOL     OW45909   3.647   8.911   0.983 -0.4255 -0.0374  0.1464
14211SOL    HW145910   3.583   8.962   0.933  0.8689  0.2053 -1.3639
14211SOL    HW245911   3.650   8.826   0.938  1.2365  0.4076 -0.6695
14212SOL     OW45912   6.775   4.771  10.564  0.1097  1.1275  0.3252
14212SOL    HW145913   6.768   4.838  10.632  1.2145  1.0915  0.4916
14212SOL    HW245914   6.837   4.808  10.500  0.5400  0.3822  0.2974
14213SOL     OW45915   5.954   6.962   4.862  0.4685 -0.2437  0.2494
14213SOL    HW145916   5.976   6.879   4.820 -1.8087 -1.5929  1.4998
14213SOL    HW245917   5.983   6.951   4.953  0.6293  0.5524  0.3008
14214SOL     OW45918   4.950   2.343   2.041  0.0359  0.0770  0.0322
14214SOL    HW145919   4.978   2.269   2.095 -1.1806 -0.9227 -0.6355
14214SOL    HW245920   5.030   2.373   1.998  0.2588 -2.4849 -1.5960
14215SOL     OW45921   2.221   5.769   8.533  0.4963 -0.3350 -0.1615
14215SOL    HW145922   2.235   5.846   8.588  0.7767  0.1758 -0.9380
14215SOL    HW245923   2.178   5.706   8.591 -0.6806  0.7679  0.2096
14216SOL     OW45924   8.338   3.452   4.825 -0.0607 -0.3724  0.2074
14216SOL    HW145925   8.305   3.396   4.895 -0.7598  0.2848  0.4195
14216SOL    HW245926   8.322   3.403   4.744 -0.5449 -0.5404  0.4029
14217SOL     OW45927  11.330   7.902   0.852 -0.0140 -0.3231  0.5275
14217SOL    HW145928  11.351   7.924   0.943  0.4523  2.2061 -0.0926
14217SOL    HW245929  11.234   7.901   0.849 -0.1170  1.9849  0.6565
14218SOL     OW45930   9.044   0.294  10.311  0.3496  0.5313 -0.3301
14218SOL    HW145931   8.967   0.339  10.345  0.3331  0.6655 -0.5456
14218SOL    HW245932   9.025   0.201  10.325  0.9244  0.6334  1.2764
14219SOL     OW45933   5.311   1.675   4.231  0.0372 -0.0433 -0.0495
14219SOL    HW145934   5.336   1.690   4.139 -1.1113  0.2308 -0.3377
14219SOL    HW245935   5.274   1.759   4.259 -0.0783 -0.2816  0.5085
14220SOL     OW45936  10.457   5.545   3.856  0.1678  0.1588  0.6358
14220SOL    HW145937  10.398   5.476   3.824  2.5926 -2.8747  2.1288
14220SOL    HW245938  10.492   5.585   3.777 -0.9761 -0.5928 -0.2971
14221SOL     OW45939   0.906  10.718   5.238  0.0395  0.3970 -0.5006
14221SOL    HW145940   0.982  10.717   5.296  0.7855 -2.3283 -1.3664
14221SOL    HW245941   0.833  10.691   5.293  0.0703  1.0754 -0.1141
14222SOL     OW45942  10.683   2.852  10.370  0.5894 -0.4060  0.3490
14222SOL    HW145943  10.704   2.795  10.296  0.9777  0.2153 -0.0380
14222SOL    HW245944  10.752   2.833  10.434  2.0607  1.1656 -0.6619
14223SOL     OW45945  11.086   6.968   4.370  0.1416  0.8185 -0.0920
14223SOL    HW145946  11.095   6.979   4.464 -0.4610 -0.7225  0.1654
14223SOL    HW245947  11.133   6.887   4.350 -2.0666 -0.3990 -0.6567
14224SOL     OW45948   2.714   1.764   0.714 -0.0019  0.0100 -0.5742
14224SOL    HW145949   2.679   1.722   0.793  1.1627 -1.5697 -0.8714
14224SOL    HW245950   2.638   1.809   0.677 -1.0406 -0.8674  0.3790
14225SOL     OW45951   8.846   1.099   1.935 -0.0310 -0.4806 -0.2023
14225SOL    HW145952   8.844   1.128   2.027  0.2187 -0.7626 -0.1053
14225SOL    HW245953   8.789   1.023   1.933 -0.5230 -0.1144 -0.4141
14226SOL     OW45954   5.221   4.588   4.091  0.4301  0.0041  0.2734
14226SOL    HW145955   5.261   4.544   4.016 -0.3305  1.2552 -0.9178
14226SOL    HW245956   5.224   4.681   4.067 -1.9613  0.2370  0.7244
14227SOL     OW45957   0.653   6.639   5.853 -0.1491  0.4901 -0.7299
14227SOL    HW145958   0.580   6.662   5.911  1.8677 -1.5269  3.0007
14227SOL    HW245959   0.726   6.692   5.885  1.2915 -1.3963 -0.7795
14228SOL     OW45960   4.059  10.434   8.086  0.0685 -0.2251  0.2959
14228SOL    HW145961   4.011  10.475   8.158 -0.5885  1.5457 -1.0590
14228SOL    HW245962   3.991  10.412   8.022  0.5827 -2.2098  0.3750
14229SOL     OW45963   7.447   8.048   1.558 -0.0780 -0.1457  0.7671
14229SOL    HW145964   7.532   8.089   1.573 -0.2922  0.2792  0.8329
14229SOL    HW245965   7.408   8.042   1.645 -0.1130 -0.3367  0.7373
14230SOL     OW45966  10.900   2.144   2.045  0.3465 -0.5874  0.2344
14230SOL    HW145967  10.822   2.199   2.032  0.6829  0.2137  1.4515
14230SOL    HW245968  10.973   2.206   2.047  0.5722 -0.8467  3.2726
14231SOL     OW45969  10.363   8.440   8.575 -0.3833 -0.5230  0.1887
14231SOL    HW145970  10.329   8.435   8.486  0.0041  1.1695 -0.0932
14231SOL    HW245971  10.304   8.501   8.620  0.1828 -0.3441  0.7096
14232SOL     OW45972   9.701   9.697   0.830 -0.4331 -0.2004  0.0046
14232SOL    HW145973   9.698   9.787   0.798  1.1734 -0.4817 -1.0718
14232SOL    HW245974   9.793   9.682   0.849 -0.1519 -2.4648 -2.5244
14233SOL     OW45975   4.856   8.880   3.152 -0.2129 -0.0131  0.0831
14233SOL    HW145976   4.896   8.794   3.158 -0.0189  0.0916  0.3088
14233SOL    HW245977   4.882   8.925   3.233  0.1469  0.4485 -0.2749
14234SOL     OW45978   0.595   4.837   2.619  0.1239  0.4173  0.4575
14234SOL    HW145979   0.582   4.922   2.577 -1.5594 -0.2373 -0.4556
14234SOL    HW245980   0.570   4.773   2.553  2.6562 -0.8979  0.6517
14235SOL     OW45981   0.471   5.211   6.012  0.3687 -0.1617 -0.5572
14235SOL    HW145982   0.469   5.306   6.001  1.5574  0.2040  1.7355
14235SOL    HW245983   0.501   5.178   5.927  0.8728  1.5935 -1.1064
14236SOL     OW45984   9.165   8.078   1.008  0.1643  0.0662  0.3678
14236SOL    HW145985   9.121   8.083   1.093 -1.1689 -0.5749 -0.2595
14236SOL    HW245986   9.160   8.167   0.973 -0.8086 -0.0337  0.2313
14237SOL     OW45987   8.621   4.843   3.546 -0.4463 -0.4363 -0.0641
14237SOL    HW145988   8.696   4.839   3.487  0.0576 -2.6499  0.6153
14237SOL    HW245989   8.615   4.935   3.572  1.1655  0.0297 -1.1894
14238SOL     OW45990   8.444   3.971   2.797 -0.2567 -0.0983  0.3240
14238SOL    HW145991   8.442   4.031   2.722  1.1271 -1.3156 -0.7345
14238SOL    HW245992   8.478   4.025   2.869 -1.3352  1.0128  0.0462
14239SOL     OW45993   6.709   5.279   3.902 -0.4986  1.2084  0.0463
14239SOL    HW145994   6.708   5.331   3.822  0.4403  1.0673 -0.0714
14239SOL    HW245995   6.736   5.341   3.970  0.4590  0.9338 -0.0661
14240SOL     OW45996   2.482   4.734   6.956  0.8809  0.0396 -0.0959
14240SOL    HW145997   2.541   4.785   6.900 -0.2257 -0.9102 -2.2653
14240SOL    HW245998   2.394   4.763   6.930  0.3071 -1.1766  0.4181
14241SOL     OW45999   1.867   9.586   6.429  0.0444 -0.0516  0.3980
14241SOL    HW146000   1.824   9.505   6.458 -0.5760 -0.2045 -0.8563
14241SOL    HW246001   1.823   9.607   6.347 -0.3603  2.0158  1.0915
14242SOL     OW46002   1.467   4.859   5.146 -0.7020  0.1462 -0.0396
14242SOL    HW146003   1.509   4.890   5.227 -1.2560  0.0962  0.2666
14242SOL    HW246004   1.504   4.915   5.077  0.3259 -0.2902  0.1396
14243SOL     OW46005   2.449   3.120   8.664 -0.2317 -0.1010 -0.3222
14243SOL    HW146006   2.484   3.131   8.752 -1.6055 -0.8971  0.3467
14243SOL    HW246007   2.521   3.148   8.606  1.1693 -0.8409  0.9945
14244SOL     OW46008   9.411  10.437   6.310 -0.2500  0.0012 -0.1030
14244SOL    HW146009   9.426  10.522   6.267  0.2410  0.9907  1.9055
14244SOL    HW246010   9.321  10.442   6.341  0.4357  0.7579  1.9332
14245SOL     OW46011   6.698   8.316   0.623 -0.4870 -0.0295  0.1930
14245SOL    HW146012   6.767   8.383   0.622 -0.5026  0.0466  1.6754
14245SOL    HW246013   6.744   8.234   0.603 -0.0467  0.1026  0.6313
14246SOL     OW46014   9.213   8.131   5.792  0.1138 -0.3967 -0.1642
14246SOL    HW146015   9.276   8.147   5.862  0.8654 -0.1168 -0.8953
14246SOL    HW246016   9.140   8.190   5.812  0.4072 -0.1790  0.2761
14247SOL     OW46017   8.492  10.210   2.580 -0.1214  0.1437  0.3143
14247SOL    HW146018   8.427  10.151   2.542  1.1387 -1.2372  0.2090
14247SOL    HW246019   8.531  10.159   2.651  0.3120  1.2340  0.8726
14248SOL     OW46020   0.785   1.840   1.729 -0.1005 -0.2322 -0.0107
14248SOL    HW146021   0.866   1.825   1.678 -0.1286 -0.7824  0.0958
14248SOL    HW246022   0.737   1.905   1.679  0.9155  0.9423  0.4969
14249SOL     OW46023   4.736   6.345   9.275 -0.0611  0.2404  0.0791
14249SOL    HW146024   4.721   6.322   9.367 -1.0859 -0.5031 -0.2531
14249SOL    HW246025   4.693   6.430   9.265  0.3360  0.4809  0.3531
14250SOL     OW46026  10.167   3.724   7.097 -0.0894 -0.6344  0.0328
14250SOL    HW146027  10.160   3.631   7.080  1.5920 -0.5388 -1.5736
14250SOL    HW246028  10.218   3.758   7.023 -3.3212  2.1115 -1.1779
14251SOL     OW46029   1.233   1.972   4.553 -0.4698  0.3194 -0.1114
14251SOL    HW146030   1.245   1.881   4.525  1.0744  0.6952 -0.7637
14251SOL    HW246031   1.295   1.982   4.625 -1.0093  0.7287  0.3051
14252SOL     OW46032   9.045   4.112   7.994  0.1032 -0.5200 -0.2480
14252SOL    HW146033   9.037   4.017   7.993  0.1893 -0.5465  0.5613
14252SOL    HW246034   9.122   4.130   8.048  0.6276 -0.0132 -1.1407
14253SOL     OW46035   0.280  10.239   8.686 -0.1672 -0.2008  0.1751
14253SOL    HW146036   0.249  10.284   8.608 -0.4883  0.0946  0.4677
14253SOL    HW246037   0.221  10.269   8.756 -1.0023 -1.7843  0.2164
14254SOL     OW46038  11.275   2.818   6.173  0.2552  0.7060  0.3429
14254SOL    HW146039  11.206   2.873   6.209 -0.4418  1.4055 -1.8999
14254SOL    HW246040  11.319   2.781   6.250 -0.8081  2.4511  1.8749
14255SOL     OW46041   4.429  10.248   9.655  0.2109 -0.0822 -0.3239
14255SOL    HW146042   4.406  10.192   9.581 -0.8965  0.4952 -0.4402
14255SOL    HW246043   4.373  10.217   9.727 -1.0491  1.3762 -0.6189
14256SOL     OW46044   1.729   1.842   1.540 -0.0609  0.0734  0.5201
14256SOL    HW146045   1.726   1.887   1.456 -0.5106 -0.5150  0.2109
14256SOL    HW246046   1.648   1.869   1.584  0.2080  0.4365  0.7978
14257SOL     OW46047   3.991   3.575   7.413  0.2892 -0.4362 -0.0017
14257SOL    HW146048   3.935   3.500   7.432 -0.4983  0.3353  0.8781
14257SOL    HW246049   3.929   3.644   7.388  0.7678  0.5765  1.4487
14258SOL     OW46050  11.380   0.713   7.199 -0.8130 -0.0753 -0.5302
14258SOL    HW146051  11.410   0.747   7.115 -1.2286 -0.9310 -1.0386
14258SOL    HW246052  11.325   0.783   7.235  2.3416  1.9353  0.8637
14259SOL     OW46053   4.985   8.815   6.768  0.0583 -0.2688 -0.1989
14259SOL    HW146054   4.894   8.792   6.746  0.7198 -2.2108 -1.0835
14259SOL    HW246055   5.020   8.737   6.810  1.1591  0.6852  0.6912
14260SOL     OW46056   8.673   4.023  10.871 -0.1300 -0.6804  0.5880
14260SOL    HW146057   8.717   4.057  10.950 -1.3283  0.2134  0.8998
14260SOL    HW246058   8.720   3.942  10.851  0.6537 -0.5656  1.8159
14261SOL     OW46059   3.630   1.047   9.984  0.4239 -0.3422 -0.2761
14261SOL    HW146060   3.537   1.062  10.001  0.3708 -0.8487 -0.1068
14261SOL    HW246061   3.660   1.129   9.944 -0.2211 -0.3762 -0.8512
14262SOL     OW46062   0.832   3.792   9.970 -0.3152 -0.1001 -0.2703
14262SOL    HW146063   0.911   3.813   9.920  0.3837  0.0510  0.8450
14262SOL    HW246064   0.803   3.875  10.006 -2.3146  0.2360 -2.4464
14263SOL     OW46065   2.724   1.585   8.746  0.2413  0.2589 -0.0754
14263SOL    HW146066   2.685   1.497   8.744  0.6893  0.0748 -0.7053
14263SOL    HW246067   2.648   1.644   8.740 -0.0616 -0.0778  0.3368
14264SOL     OW46068   7.001   4.922   7.077  0.0341 -0.3912  0.5559
14264SOL    HW146069   7.068   4.860   7.049 -0.7228 -0.6283 -0.7936
14264SOL    HW246070   6.919   4.886   7.044 -0.5868  0.6527  0.8911
14265SOL     OW46071   6.670   8.053  10.292 -0.6344  0.4811  0.1966
14265SOL    HW146072   6.718   7.970  10.299 -0.0121  0.7241 -0.8949
14265SOL    HW246073   6.586   8.036  10.333 -0.6332 -0.7955 -0.2792
14266SOL     OW46074   2.239   9.011   0.625 -0.8339  0.0475  0.3108
14266SOL    HW146075   2.144   8.999   0.623 -0.5649 -2.4034 -0.7317
14266SOL    HW246076   2.265   8.977   0.711 -0.8538  0.5706  0.5309
14267SOL     OW46077   5.958  10.168   5.865 -0.2644  0.2948 -0.3441
14267SOL    HW146078   6.037  10.127   5.831  1.4750  1.5452  1.8631
14267SOL    HW246079   5.965  10.260   5.837  0.3485  0.9530  1.7417
14268SOL     OW46080   8.171   5.232   0.723  0.1123  0.1815  0.2230
14268SOL    HW146081   8.146   5.314   0.680  0.9289 -1.1659 -3.2288
14268SOL    HW246082   8.228   5.189   0.659  1.1740 -2.2827  2.6547
14269SOL     OW46083   5.325   4.684  10.987  0.1334  0.2871 -0.4756
14269SOL    HW146084   5.387   4.684  10.914 -1.0546  1.1025 -1.5315
14269SOL    HW246085   5.338   4.599  11.030  1.0173 -0.1134 -1.4988
14270SOL     OW46086  10.308  10.031   1.830  0.0818  0.4945 -0.4375
14270SOL    HW146087  10.268   9.945   1.841 -1.6698  1.1694 -1.0782
14270SOL    HW246088  10.382  10.031   1.890 -0.9148 -0.8507  0.8806
14271SOL     OW46089   5.999   9.159   7.455 -0.0017  0.6232 -0.2339
14271SOL    HW146090   6.088   9.149   7.421  0.3455 -0.2027  0.8587
14271SOL    HW246091   5.988   9.253   7.469  0.4714  0.7902 -0.9214
14272SOL     OW46092   0.655  10.969   6.873  0.3216  0.1970 -0.0901
14272SOL    HW146093   0.703  10.922   6.804  1.4541 -0.5337  1.1330
14272SOL    HW246094   0.571  10.923   6.879 -0.1500  0.8100 -1.5344
14273SOL     OW46095   6.640  11.003   0.227 -0.6147  0.3721 -0.1728
14273SOL    HW146096   6.694  10.986   0.150  0.1271 -1.2851  0.6583
14273SOL    HW246097   6.654  11.095   0.246  0.7440  0.3269 -0.8673
14274SOL     OW46098   1.799   9.819   5.247  0.6539  0.2648 -0.3355
14274SOL    HW146099   1.762   9.852   5.165  0.3456 -2.8953 -1.6104
14274SOL    HW246100   1.889   9.795   5.225  0.1458 -1.9568 -0.2680
14275SOL     OW46101   8.830   7.973   8.085 -0.4924  0.4621 -0.1096
14275SOL    HW146102   8.736   7.976   8.072 -0.3559  1.4502 -1.0033
14275SOL    HW246103   8.852   7.880   8.082 -1.4596  0.2130  0.3281
14276SOL     OW46104   6.109  11.112  11.162 -0.0402 -0.0394 -0.2733
14276SOL    HW146105   6.030  11.136  11.114 -1.1246  0.0878  1.4825
14276SOL    HW246106   6.145  11.196  11.192  0.5297 -0.1256 -0.7012
14277SOL     OW46107   8.977   2.605   6.147  0.3460 -0.2010  0.8126
14277SOL    HW146108   8.945   2.644   6.229  1.0051 -2.2992  2.1548
14277SOL    HW246109   8.905   2.551   6.116  0.4120 -0.0973  0.4724
14278SOL     OW46110  11.075   9.660   4.363  0.5938  0.2991  0.5804
14278SOL    HW146111  11.139   9.731   4.371  0.6106  0.4487 -0.6351
14278SOL    HW246112  11.018   9.669   4.439  0.4828  1.7409  0.3379
14279SOL     OW46113   1.846   8.916   1.866 -0.1452 -0.8595  0.7593
14279SOL    HW146114   1.934   8.950   1.850 -0.3303 -0.5857  0.3151
14279SOL    HW246115   1.823   8.870   1.785 -0.7821 -0.1276  0.5184
14280SOL     OW46116   6.327   5.969   8.102 -0.4981  0.0820 -0.1338
14280SOL    HW146117   6.262   5.957   8.033 -0.9196  2.7144 -0.2953
14280SOL    HW246118   6.408   5.989   8.056 -0.5503  0.8295  0.0715
14281SOL     OW46119   1.807  10.893   1.689  0.6580  0.2657  0.4895
14281SOL    HW146120   1.850  10.884   1.773  0.3430 -0.6428  0.5600
14281SOL    HW246121   1.831  10.981   1.659 -0.0394  0.9890  1.9751
14282SOL     OW46122   6.551   8.816  11.155  0.3586 -0.3120 -0.6082
14282SOL    HW146123   6.542   8.818  11.250  1.5711 -0.6996 -0.4679
14282SOL    HW246124   6.519   8.730  11.129  0.6046 -0.4439 -0.4772
14283SOL     OW46125   2.291   6.260   6.061  0.2026  0.1797  0.2730
14283SOL    HW146126   2.274   6.286   6.151 -2.4581 -0.2734 -0.0291
14283SOL    HW246127   2.237   6.319   6.008  1.6238  0.3710 -1.0457
14284SOL     OW46128   4.422  10.413   5.372  0.0616 -0.5580  0.0877
14284SOL    HW146129   4.460  10.457   5.448 -1.3936 -0.9018  1.0669
14284SOL    HW246130   4.471  10.331   5.365  1.8076  0.5039 -0.8544
14285SOL     OW46131   0.511   5.159   0.681  0.2796  0.2506 -0.3568
14285SOL    HW146132   0.538   5.121   0.764 -1.3280  1.5463  0.8353
14285SOL    HW246133   0.467   5.087   0.635  2.1156 -0.7656 -0.6064
14286SOL     OW46134  11.105   0.015   7.302 -0.2969  0.2564  0.0328
14286SOL    HW146135  11.146   0.003   7.387  1.0255 -0.7202 -0.7111
14286SOL    HW246136  11.042   0.085   7.316  1.2677  1.4776  1.3573
14287SOL     OW46137   6.328   5.402   2.477 -0.7594 -0.1159  0.2677
14287SOL    HW146138   6.329   5.492   2.442 -1.8295  0.3142  1.2694
14287SOL    HW246139   6.319   5.414   2.571 -0.9852 -1.2874  0.4043
14288SOL     OW46140   9.682  11.299   9.504  0.0685  0.3890 -0.0851
14288SOL    HW146141   9.615  11.315   9.438  1.6669  0.9298 -1.6634
14288SOL    HW246142   9.650  11.344   9.582 -2.2684 -0.9533 -0.1661
14289SOL     OW46143   7.323   2.574  10.221  0.3205  0.2000  0.6796
14289SOL    HW146144   7.263   2.618  10.161  0.0113 -0.6455  0.3521
14289SOL    HW246145   7.268   2.542  10.292  0.8451  2.2125  2.0561
14290SOL     OW46146   4.707   4.589   9.515  0.0001  0.2336  0.0339
14290SOL    HW146147   4.703   4.550   9.603 -0.6568 -0.2346 -0.1934
14290SOL    HW246148   4.683   4.680   9.527  0.3746  0.2836  0.4087
14291SOL     OW46149   5.597   2.130   8.028  0.1424 -0.1482 -0.0364
14291SOL    HW146150   5.534   2.181   8.079 -1.4530 -0.4999 -1.5530
14291SOL    HW246151   5.544   2.066   7.980  1.7256 -0.8917 -0.9068
14292SOL     OW46152   1.906  10.388   9.318  0.0725 -0.4573 -0.5196
14292SOL    HW146153   1.946  10.417   9.236  0.5740 -0.0852 -0.1488
14292SOL    HW246154   1.821  10.433   9.321 -0.1220 -0.7795 -1.0170
14293SOL     OW46155   9.733   6.955   2.547  0.0179  0.3457 -0.2437
14293SOL    HW146156   9.719   6.873   2.499  0.2072  0.7505 -1.0060
14293SOL    HW246157   9.785   7.009   2.487 -1.4333  1.6194 -0.4056
14294SOL     OW46158   5.657   7.000   4.723 -0.5993  0.2193  0.0925
14294SOL    HW146159   5.655   7.074   4.663 -3.8756  0.2683  0.0783
14294SOL    HW246160   5.729   6.945   4.692  0.3477  2.1884 -1.3740
14295SOL     OW46161   1.973   3.521   8.883 -0.1200  0.9963 -0.5727
14295SOL    HW146162   2.010   3.605   8.911  1.8151 -0.0230  0.0483
14295SOL    HW246163   2.016   3.502   8.800 -2.1788  1.5937 -1.8816
14296SOL     OW46164   8.473   5.874   7.077 -0.4460  0.1281  0.5048
14296SOL    HW146165   8.496   5.802   7.018  1.3972  0.6736  0.4876
14296SOL    HW246166   8.403   5.921   7.032 -1.4256 -1.3987  0.3495
14297SOL     OW46167   0.236   4.881   9.878 -0.1533  0.3467 -0.3271
14297SOL    HW146168   0.305   4.886   9.945 -1.2946 -0.6493  0.9844
14297SOL    HW246169   0.192   4.966   9.882 -0.4544  0.1628  0.4785
14298SOL     OW46170  10.695   1.107  11.155 -0.0627 -0.0722 -0.0835
14298SOL    HW146171  10.675   1.201  11.154 -3.7983 -0.6701  1.3792
14298SOL    HW246172  10.717   1.086  11.064  0.6640  2.1402 -0.4826
14299SOL     OW46173   0.595   4.401   3.207 -0.4137 -0.0037 -0.4142
14299SOL    HW146174   0.507   4.438   3.201 -1.4095 -2.1511  0.0977
14299SOL    HW246175   0.590   4.320   3.157  1.1242 -0.4261  0.0780
14300SOL     OW46176   3.213   4.559   0.154  0.0381  0.6015  0.4668
14300SOL    HW146177   3.260   4.524   0.079 -0.2741  2.0730 -0.4662
14300SOL    HW246178   3.245   4.649   0.162 -1.1169  0.9808  1.0692
14301SOL     OW46179   7.958   3.922   3.822 -0.0487 -0.0592  0.1915
14301SOL    HW146180   8.039   3.969   3.802 -0.6531  0.8064 -0.3052
14301SOL    HW246181   7.985   3.853   3.883  0.8493  1.0848  1.1558
14302SOL     OW46182   2.920   7.159   4.206 -0.1447 -0.7200  0.3405
14302SOL    HW146183   2.915   7.122   4.118 -1.0379 -0.7511  0.3959
14302SOL    HW246184   2.841   7.212   4.215  0.2530 -0.2098  0.8974
14303SOL     OW46185   2.971   9.384   4.400 -0.6637 -0.1048 -0.0964
14303SOL    HW146186   2.929   9.308   4.359 -0.2000 -0.1297 -0.5404
14303SOL    HW246187   3.063   9.377   4.375 -0.7340  0.9907 -0.7389
14304SOL     OW46188   1.342   8.168   6.295 -0.1094 -0.6867  0.5472
14304SOL    HW146189   1.329   8.233   6.364  0.5236 -0.8030  0.7802
14304SOL    HW246190   1.392   8.214   6.228  0.7236 -1.0422  0.9041
14305SOL     OW46191   5.347   2.095   8.176 -0.0943 -0.4046  0.0557
14305SOL    HW146192   5.300   2.013   8.157 -2.5873  0.2307  2.8061
14305SOL    HW246193   5.388   2.080   8.261  0.1005  0.9280  0.2133
14306SOL     OW46194   4.215   0.003   6.814 -0.5024  0.1294  0.4180
14306SOL    HW146195   4.228  -0.075   6.760 -0.0619  2.6092 -3.3833
14306SOL    HW246196   4.300   0.017   6.857  0.0250 -0.4222 -0.4189
14307SOL     OW46197  10.891   6.801  11.260 -0.4474 -0.2335 -0.1363
14307SOL    HW146198  10.883   6.810  11.165 -1.7028 -0.0486 -0.0299
14307SOL    HW246199  10.821   6.739  11.284  0.2747 -0.7876  0.5933
14308SOL     OW46200   7.878  11.264   0.270 -0.7641 -0.7682  0.0108
14308SOL    HW146201   7.943  11.195   0.264 -1.7135 -1.9286  1.8370
14308SOL    HW246202   7.927  11.341   0.301 -0.2060 -1.5784  1.2238
14309SOL     OW46203   5.143   9.710   5.559  0.3231  0.1479  0.1528
14309SOL    HW146204   5.075   9.649   5.533  0.2276 -0.0558  0.8723
14309SOL    HW246205   5.125   9.730   5.650 -0.0549  1.7865 -0.2446
14310SOL     OW46206   6.465   4.812   3.378  0.2632  0.3827  0.1450
14310SOL    HW146207   6.373   4.817   3.405  0.5575 -1.2085  1.6418
14310SOL    HW246208   6.474   4.725   3.339  0.9086  0.9323 -0.9540
14311SOL     OW46209   1.017   5.663   4.166  0.2065  0.2525 -0.1486
14311SOL    HW146210   1.043   5.578   4.200  2.8162  1.3658  0.8586
14311SOL    HW246211   1.065   5.671   4.083  1.4047  1.4054  0.6184
14312SOL     OW46212   0.773   6.672   9.975  0.4312  0.1727  0.5168
14312SOL    HW146213   0.711   6.636   9.913  0.2339  1.7123 -0.2403
14312SOL    HW246214   0.764   6.617  10.053  0.0040 -1.2106 -0.4672
14313SOL     OW46215   1.449   3.350   9.688  0.1960  0.5028  0.0541
14313SOL    HW146216   1.380   3.401   9.730 -1.1812 -1.0797 -0.1644
14313SOL    HW246217   1.448   3.266   9.735  0.4110 -0.3534 -1.4062
14314SOL     OW46218   0.691   9.741   0.019  0.2826 -0.0583 -0.4967
14314SOL    HW146219   0.752   9.669   0.036 -0.7587 -0.8187  0.1873
14314SOL    HW246220   0.667   9.731  -0.073 -0.1562 -0.8486 -0.3080
14315SOL     OW46221   3.121   4.054   1.487  0.6975 -0.4129 -0.0125
14315SOL    HW146222   3.061   4.102   1.429  1.2110 -1.8996 -1.8514
14315SOL    HW246223   3.067   4.030   1.562 -0.5329 -0.1611 -0.7864
14316SOL     OW46224   9.107   5.378   5.126 -0.0689 -0.6607  0.4531
14316SOL    HW146225   9.178   5.370   5.190  0.3625 -3.9826 -0.2685
14316SOL    HW246226   9.029   5.349   5.172 -0.6415  1.1110  0.6677
14317SOL     OW46227   2.526   9.553   7.513 -0.1397 -0.3167  0.1606
14317SOL    HW146228   2.525   9.627   7.452  2.3420  0.3078  0.7625
14317SOL    HW246229   2.454   9.571   7.574 -0.2012  1.0868 -0.2912
14318SOL     OW46230   2.684   5.855   9.825 -0.1117  0.1444 -0.3396
14318SOL    HW146231   2.654   5.773   9.783 -0.4063 -0.1868  0.4989
14318SOL    HW246232   2.724   5.905   9.754  0.5662 -0.9674 -0.7655
14319SOL     OW46233  10.799   9.080   7.041  0.3108 -0.3450  0.3497
14319SOL    HW146234  10.704   9.075   7.035  0.1942  1.4967 -0.0240
14319SOL    HW246235  10.821   9.037   7.124 -0.7035 -1.8021 -0.0989
14320SOL     OW46236   0.005   5.294   6.599  0.3391  0.0376 -0.3504
14320SOL    HW146237   0.085   5.294   6.652 -0.5516  1.8634  1.0961
14320SOL    HW246238  -0.061   5.253   6.656  0.1485 -1.2313 -1.4408
14321SOL     OW46239   6.532   5.961   1.249 -0.2103  0.7627 -0.6936
14321SOL    HW146240   6.570   5.977   1.163 -0.3961 -1.2341 -1.1872
14321SOL    HW246241   6.531   5.866   1.258  1.7103  0.8578  2.3479
14322SOL     OW46242   0.412   4.287   4.468 -0.0149 -0.2717 -0.6124
14322SOL    HW146243   0.461   4.214   4.508 -0.0702 -0.2922 -0.5824
14322SOL    HW246244   0.343   4.307   4.530  0.4974  0.3573 -0.2301
14323SOL     OW46245   9.661   3.733  10.312 -0.3168 -0.0783 -0.0473
14323SOL    HW146246   9.756   3.745  10.308  0.1529 -2.7839  0.7947
14323SOL    HW246247   9.637   3.704  10.224  0.1766 -2.1829  0.4592
14324SOL     OW46248  10.790   3.801   4.887 -0.3870  0.0546 -0.1485
14324SOL    HW146249  10.831   3.880   4.852 -0.6689 -0.0429 -0.7080
14324SOL    HW246250  10.841   3.781   4.966  0.0762  0.4376 -0.3429
14325SOL     OW46251   8.598   0.842   8.811  0.0778 -0.2356 -0.4333
14325SOL    HW146252   8.590   0.819   8.904 -1.2037 -0.3559 -0.5608
14325SOL    HW246253   8.656   0.775   8.775 -1.1267 -1.4863 -0.1472
14326SOL     OW46254   6.925   2.129   3.932 -0.4911 -0.1358  0.0450
14326SOL    HW146255   6.976   2.122   3.852  2.1346  0.6182  1.5378
14326SOL    HW246256   6.897   2.221   3.935 -0.7615 -0.2137 -0.1115
14327SOL     OW46257  11.251   0.773   7.570 -0.0137 -0.0634  0.7526
14327SOL    HW146258  11.182   0.719   7.532 -1.1022  1.5829  0.2907
14327SOL    HW246259  11.219   0.798   7.656  0.2757  0.2403  0.7756
14328SOL     OW46260   6.668   8.854   3.776  0.2454 -0.2409 -0.3765
14328SOL    HW146261   6.610   8.879   3.704  0.5440  0.2477 -0.4535
14328SOL    HW246262   6.659   8.759   3.782 -0.5663 -0.1662 -0.3798
14329SOL     OW46263   4.235   5.441   4.213  0.3137  0.2307  0.3537
14329SOL    HW146264   4.158   5.417   4.265 -0.8207  1.1241 -0.8293
14329SOL    HW246265   4.209   5.424   4.122  1.6267  0.2717 -0.0522
14330SOL     OW46266   2.804   1.485   8.048  0.3513  0.4842 -0.3772
14330SOL    HW146267   2.762   1.539   8.114 -1.2206 -1.1005  0.0131
14330SOL    HW246268   2.880   1.447   8.092  0.6476  1.2429 -0.2244
14331SOL     OW46269   4.067   2.993  11.228 -0.1891 -0.0887  0.6423
14331SOL    HW146270   4.017   3.001  11.309 -1.1616 -1.2860  0.1964
14331SOL    HW246271   4.159   2.993  11.256 -0.5232 -1.6414  1.8847
14332SOL     OW46272   1.424   1.297   6.003 -0.2374  0.2456 -0.0451
14332SOL    HW146273   1.517   1.308   6.022 -0.4697  1.5733  0.4697
14332SOL    HW246274   1.395   1.384   5.975 -1.6046  0.2038  1.1049
14333SOL     OW46275   5.962  10.628   0.553 -0.1158 -0.1794  0.0137
14333SOL    HW146276   5.947  10.588   0.639  0.3241  0.4839  0.4169
14333SOL    HW246277   5.988  10.718   0.573 -3.1093  0.9970 -0.9335
14334SOL     OW46278   0.399   5.365   5.155 -0.4270 -0.0963 -0.6799
14334SOL    HW146279   0.383   5.338   5.246  0.9582  0.2337 -0.3057
14334SOL    HW246280   0.323   5.333   5.106 -1.1899 -0.2934  0.5901
14335SOL     OW46281   7.822   5.720   9.487 -0.0251 -0.0766  0.1862
14335SOL    HW146282   7.774   5.792   9.529  1.6178  1.5472 -0.5820
14335SOL    HW246283   7.821   5.742   9.394  1.0658 -0.6724  0.0179
14336SOL     OW46284   4.012   7.764   0.068 -0.1860  0.0996 -0.2211
14336SOL    HW146285   4.051   7.727  -0.011 -1.5060 -0.7271 -0.5185
14336SOL    HW246286   4.047   7.711   0.140 -0.9297 -0.7945 -0.5058
14337SOL     OW46287   9.094   3.669   7.714 -0.1644 -0.1747  0.2264
14337SOL    HW146288   9.040   3.593   7.691  0.9140 -0.6934 -0.6944
14337SOL    HW246289   9.148   3.638   7.787  1.2922 -0.8135 -1.0595
14338SOL     OW46290   0.561   8.523   4.719  0.3039 -0.2458 -0.8503
14338SOL    HW146291   0.576   8.526   4.813  0.1438  0.1154 -0.8332
14338SOL    HW246292   0.466   8.531   4.709  0.4491  1.5993 -1.0964
14339SOL     OW46293   9.100   9.161  10.928  0.0966 -0.5062 -0.0951
14339SOL    HW146294   9.142   9.207  10.855 -0.2852  0.3760  0.2313
14339SOL    HW246295   9.007   9.181  10.919 -0.0035 -0.7190  0.4027
14340SOL     OW46296   4.823   7.119   5.388 -0.1967 -0.1757 -0.0762
14340SOL    HW146297   4.748   7.059   5.392 -0.0219 -0.3823  0.1550
14340SOL    HW246298   4.796   7.188   5.328  0.2069 -1.3458 -1.6555
14341SOL     OW46299   8.391   2.128   0.755 -0.2214  0.3615 -0.2413
14341SOL    HW146300   8.400   2.158   0.665 -2.8555  0.9360 -0.3975
14341SOL    HW246301   8.409   2.205   0.808  1.1613  0.0663 -0.2641
14342SOL     OW46302   3.196   0.626   2.818  0.2774 -0.2602  0.1761
14342SOL    HW146303   3.256   0.639   2.891  0.5683 -1.0866  0.1006
14342SOL    HW246304   3.171   0.534   2.824 -0.0758 -0.2132 -0.4758
14343SOL     OW46305   7.204   4.322  10.689 -0.1127 -0.3739  0.0133
14343SOL    HW146306   7.266   4.318  10.762 -1.3088  0.0306  1.0865
14343SOL    HW246307   7.257   4.351  10.615  1.0305 -0.2724  0.8350
14344SOL     OW46308   9.647   6.020   7.263  0.1315 -0.5698  0.1471
14344SOL    HW146309   9.579   6.012   7.195  0.9736  0.5507 -0.8781
14344SOL    HW246310   9.598   6.034   7.344 -0.8985  0.7755 -0.6537
14345SOL     OW46311   5.986   4.320   3.010  0.4406 -0.0385  0.6199
14345SOL    HW146312   6.072   4.306   2.968  0.6678  1.4655  0.5289
14345SOL    HW246313   6.000   4.395   3.068 -0.8104  0.1913  0.6381
14346SOL     OW46314   0.383  11.146   2.742 -0.3687  0.5230 -0.5362
14346SOL    HW146315   0.298  11.141   2.700 -0.4435  0.5816 -0.3921
14346SOL    HW246316   0.375  11.092   2.820  0.1401 -0.5756 -1.2122
14347SOL     OW46317   4.255   4.198   6.219  0.0390 -0.4076  0.3532
14347SOL    HW146318   4.322   4.250   6.264 -1.3298  0.6727  1.2110
14347SOL    HW246319   4.289   4.189   6.130  0.5928  1.5593  0.3048
14348SOL     OW46320   2.482   3.604   4.570  0.4131  0.4923  0.4914
14348SOL    HW146321   2.526   3.540   4.515 -0.7322 -0.7029  0.9017
14348SOL    HW246322   2.493   3.688   4.525 -2.0567 -0.6676 -2.6236
14349SOL     OW46323  10.278   3.257   8.812  0.4702  0.1012 -0.6058
14349SOL    HW146324  10.221   3.283   8.884  0.7280 -0.5565 -0.1490
14349SOL    HW246325  10.219   3.220   8.747  0.3029  0.0814 -0.4410
14350SOL     OW46326   3.014   6.546  10.651 -0.7105  0.1020 -0.1207
14350SOL    HW146327   2.948   6.561  10.718  0.7561 -1.0796  1.6836
14350SOL    HW246328   3.022   6.631  10.606 -2.3314  0.6735  0.5876
14351SOL     OW46329   7.068   3.835   8.973 -0.3656  0.0630  0.3189
14351SOL    HW146330   7.035   3.922   8.953 -0.0504 -0.3996 -2.6851
14351SOL    HW246331   6.993   3.777   8.957 -0.0113 -0.3818  0.2273
14352SOL     OW46332   3.462   0.956   2.949  0.6487  0.2733 -0.6080
14352SOL    HW146333   3.375   0.923   2.972  0.9440  0.1798  0.4226
14352SOL    HW246334   3.521   0.883   2.968  1.1065  0.7950  0.0405
14353SOL     OW46335  10.787   7.664   6.515 -0.0556  0.3791  0.6165
14353SOL    HW146336  10.812   7.616   6.593 -0.0726  1.0052  1.0167
14353SOL    HW246337  10.722   7.609   6.471 -1.3227  0.7837  1.9226
14354SOL     OW46338   6.208   5.787   3.452 -0.2768 -0.0172  0.2492
14354SOL    HW146339   6.121   5.802   3.489 -0.2187 -0.2774  0.4907
14354SOL    HW246340   6.238   5.706   3.493  1.3148  1.5697  2.4496
14355SOL     OW46341   6.243   0.395  10.016 -0.3426 -0.1786 -0.0463
14355SOL    HW146342   6.245   0.312  10.064  1.0216  0.8308  1.7695
14355SOL    HW246343   6.210   0.459  10.079  1.2394  1.1565 -0.4878
14356SOL     OW46344   8.950   7.565   9.424 -0.0488  0.6089  0.2253
14356SOL    HW146345   8.903   7.608   9.495  1.6191  2.2008  0.4684
14356SOL    HW246346   8.939   7.623   9.348  0.8770  0.6541  0.1024
14357SOL     OW46347  11.367   6.895   5.823  0.0351 -0.1489  0.0793
14357SOL    HW146348  11.306   6.925   5.755  0.3934  0.1981 -0.0899
14357SOL    HW246349  11.442   6.953   5.816  0.2243 -0.3294  0.5483
14358SOL     OW46350   4.310   2.304   6.787 -0.2022  0.2224 -0.3081
14358SOL    HW146351   4.304   2.398   6.770  1.3571  0.1986 -1.2060
14358SOL    HW246352   4.295   2.263   6.701 -2.4773 -0.4716  0.3527
14359SOL     OW46353   9.090   1.947   2.191  0.3610  0.3143 -0.2901
14359SOL    HW146354   9.151   1.985   2.253  0.1970 -0.9341  0.6655
14359SOL    HW246355   9.011   1.929   2.243  0.0628 -0.3330 -0.9476
14360SOL     OW46356   0.964   5.218   0.497  0.2041 -0.5443 -0.2607
14360SOL    HW146357   0.885   5.197   0.448 -0.0395  0.6535 -0.4183
14360SOL    HW246358   0.933   5.232   0.587  0.3826 -0.9789 -0.1276
14361SOL     OW46359   2.958   3.910   3.664  0.4796 -0.1488  0.4830
14361SOL    HW146360   2.893   3.858   3.617  0.7603  0.7159 -0.9487
14361SOL    HW246361   3.042   3.866   3.647  0.3309 -1.1878  2.2152
14362SOL     OW46362   1.132   1.852   0.121 -1.0155 -0.2106  0.1819
14362SOL    HW146363   1.144   1.819   0.032 -1.9626  0.9984 -0.4226
14362SOL    HW246364   1.221   1.869   0.153 -0.6724 -0.6444 -0.5280
14363SOL     OW46365   5.483   1.517   7.685  0.0195 -0.5245 -0.0046
14363SOL    HW146366   5.570   1.533   7.648 -0.7954  0.6911 -1.5262
14363SOL    HW246367   5.432   1.481   7.612 -2.1487  3.6058 -0.8115
14364SOL     OW46368   4.445   4.932   2.420  0.3707 -0.0714 -0.4161
14364SOL    HW146369   4.417   5.020   2.444  0.4942 -0.2705  0.4679
14364SOL    HW246370   4.465   4.889   2.503 -1.1461 -1.4379 -0.7007
14365SOL     OW46371   0.262   0.404   3.546  0.3366  0.1577 -0.4532
14365SOL    HW146372   0.240   0.494   3.522 -0.5923 -0.3212 -1.4704
14365SOL    HW246373   0.358   0.401   3.539  0.3028  0.7836 -1.4784
14366SOL     OW46374   0.005   5.827   3.690 -0.6639 -0.0732 -0.3520
14366SOL    HW146375   0.057   5.825   3.610  1.6347 -0.0632  1.0423
14366SOL    HW246376   0.060   5.784   3.756 -3.3098 -1.9900  0.8108
14367SOL     OW46377   1.622   1.951   0.724 -0.0482 -0.2782 -0.3080
14367SOL    HW146378   1.702   1.985   0.684  0.5751 -2.6012 -1.1673
14367SOL    HW246379   1.652   1.906   0.803 -0.4400 -1.4114 -0.7841
14368SOL     OW46380   1.377   6.786   4.590 -0.1847  0.4308 -0.4944
14368SOL    HW146381   1.402   6.807   4.680  0.0479 -0.4639 -0.3427
14368SOL    HW246382   1.429   6.846   4.536 -1.1053  1.7142 -0.0092
14369SOL     OW46383   1.751   4.335   4.668  0.1994 -0.1423  0.6301
14369SOL    HW146384   1.781   4.362   4.755  1.2088 -0.1818  0.3063
14369SOL    HW246385   1.722   4.244   4.680 -0.7497  0.2084  1.1555
14370SOL     OW46386   3.001   4.784   3.131 -0.0694 -0.0163 -0.2367
14370SOL    HW146387   2.992   4.810   3.039 -0.2619 -0.4430 -0.3419
14370SOL    HW246388   2.986   4.690   3.130 -1.0888  0.1341  0.3712
14371SOL     OW46389  11.173   5.572   1.709  0.0924  0.3029  0.8137
14371SOL    HW146390  11.255   5.599   1.750  0.8618 -0.1874 -0.3508
14371SOL    HW246391  11.108   5.633   1.743  1.4682  2.7211 -0.5848
14372SOL     OW46392   9.705   0.776   6.415  0.8020 -0.7123  0.1488
14372SOL    HW146393   9.682   0.717   6.342 -0.6680  0.2016 -0.1642
14372SOL    HW246394   9.704   0.863   6.376  1.0822 -0.3109  1.0285
14373SOL     OW46395   7.000  11.175   9.012  0.0028 -0.3776 -0.7081
14373SOL    HW146396   6.978  11.112   8.943 -0.7393 -0.1719 -0.6718
14373SOL    HW246397   7.084  11.146   9.046 -0.5481 -1.6332 -0.3733
14374SOL     OW46398   1.921   6.241   4.293  0.4303  0.4415  0.6929
14374SOL    HW146399   1.879   6.252   4.378  0.0251  0.1453  0.5333
14374SOL    HW246400   1.893   6.154   4.263 -0.0943  0.8721 -0.1073
14375SOL     OW46401   2.293   7.893   8.648 -0.2762 -0.5468  0.5412
14375SOL    HW146402   2.377   7.855   8.625  1.3145  1.6847  2.2446
14375SOL    HW246403   2.234   7.818   8.657  1.5421 -2.1748 -0.5202
14376SOL     OW46404   9.567   0.180   5.995  0.0168 -0.2898 -0.2813
14376SOL    HW146405   9.483   0.153   6.032 -0.2709  0.2644 -0.5210
14376SOL    HW246406   9.603   0.100   5.957 -0.6284 -0.4307 -0.6113
14377SOL     OW46407  10.228   0.998  10.191  0.1671  0.1084 -0.8474
14377SOL    HW146408  10.231   1.026  10.283  0.6995  0.2411 -0.9024
14377SOL    HW246409  10.223   0.902  10.196 -0.8586  0.1600 -0.6722
14378SOL     OW46410   5.403   5.306  10.508  0.4670 -0.1448 -0.3661
14378SOL    HW146411   5.453   5.274  10.584  1.1181  0.2969 -0.5976
14378SOL    HW246412   5.396   5.400  10.523  0.1947 -0.1247 -0.6217
14379SOL     OW46413   6.353   3.104  10.632  0.5849  0.2040 -0.0051
14379SOL    HW146414   6.384   3.173  10.691 -0.1893  0.0026  0.6462
14379SOL    HW246415   6.263   3.087  10.659  0.7252 -0.9953 -0.2124
14380SOL     OW46416   2.647   8.315   7.201  0.2141 -0.0131  0.5581
14380SOL    HW146417   2.654   8.262   7.121 -1.5194 -0.4419  0.6459
14380SOL    HW246418   2.638   8.251   7.271  0.0261  0.3875  0.8982
14381SOL     OW46419   2.368   9.161   3.011 -0.3007 -0.0014  0.2625
14381SOL    HW146420   2.460   9.145   2.990 -0.5215 -1.0301  0.0152
14381SOL    HW246421   2.357   9.123   3.099 -0.2022  1.2409  0.8395
14382SOL     OW46422  10.689   6.097   3.207  0.1080  0.2564  0.2588
14382SOL    HW146423  10.737   6.180   3.206  0.1062  0.2548  0.0477
14382SOL    HW246424  10.745   6.036   3.159 -0.1664  0.2915 -0.1139
14383SOL     OW46425   3.530   0.756   0.316  0.0710  0.1863 -0.0205
14383SOL    HW146426   3.445   0.800   0.324 -1.3954 -2.4464  0.2412
14383SOL    HW246427   3.569   0.793   0.236 -0.7710  2.2510  0.4604
14384SOL     OW46428  11.171   7.219   7.439  0.2788 -0.1115 -0.6073
14384SOL    HW146429  11.192   7.312   7.445 -1.1179  0.1825  0.1026
14384SOL    HW246430  11.156   7.204   7.345  1.1828  0.1952 -0.8158
14385SOL     OW46431   4.144   9.403   3.286  0.0952 -0.5230 -0.6537
14385SOL    HW146432   4.107   9.379   3.202  1.5488  2.5460 -2.3317
14385SOL    HW246433   4.076   9.456   3.328  0.3440  0.2260 -1.1630
14386SOL     OW46434   8.597   9.227   2.401 -0.0135  0.1779  0.0192
14386SOL    HW146435   8.674   9.197   2.353 -0.8590 -0.9724 -0.6603
14386SOL    HW246436   8.592   9.168   2.477  1.4568  2.1313  1.7591
14387SOL     OW46437   9.549   0.395  11.176 -0.6496  0.1698 -0.4291
14387SOL    HW146438   9.630   0.358  11.211 -1.0334  0.3528  0.6878
14387SOL    HW246439   9.577   0.446  11.099  0.5060  1.4544  0.7909
14388SOL     OW46440   0.575   7.542   6.777 -0.1159 -0.0375 -0.2130
14388SOL    HW146441   0.538   7.601   6.712  1.9080  0.8761 -0.6123
14388SOL    HW246442   0.525   7.461   6.767 -1.3248  0.8049 -1.3327
14389SOL     OW46443   4.547   6.289  11.320  0.1413 -0.5104 -0.5523
14389SOL    HW146444   4.475   6.264  11.377  1.4281 -0.9123  0.9924
14389SOL    HW246445   4.538   6.383  11.309 -0.2052 -0.4430  0.2475
14390SOL     OW46446  10.613  11.331   8.329 -0.4798  0.6653 -0.3344
14390SOL    HW146447  10.655  11.318   8.414  0.9182  0.6929 -0.9914
14390SOL    HW246448  10.652  11.411   8.294 -2.1512  1.5131 -0.3867
14391SOL     OW46449   4.880   6.868   7.592 -0.3489 -0.5903  0.1471
14391SOL    HW146450   4.821   6.826   7.530  1.3028 -3.6278  0.4009
14391SOL    HW246451   4.823   6.902   7.661 -1.9050 -1.4932 -0.6541
14392SOL     OW46452   1.006   8.702   1.968  0.2889 -0.7469  0.4254
14392SOL    HW146453   1.009   8.795   1.948  1.2160 -0.7553  0.4968
14392SOL    HW246454   1.050   8.660   1.895  1.4923 -0.9749  1.2513
14393SOL     OW46455   2.475   2.492   1.981  0.5308  0.7408 -0.2283
14393SOL    HW146456   2.391   2.452   2.004  0.1788  0.4546 -1.8539
14393SOL    HW246457   2.475   2.576   2.026 -1.0668  1.1538 -0.9234
14394SOL     OW46458   7.280  10.838   5.953 -0.2653  0.1753 -0.0106
14394SOL    HW146459   7.358  10.799   5.993  0.5265  1.1480 -0.5799
14394SOL    HW246460   7.304  10.928   5.935 -0.8988  0.0269 -1.8383
14395SOL     OW46461  11.153  11.157  10.998 -0.0321  0.2084  0.5255
14395SOL    HW146462  11.248  11.164  11.009  0.0876 -2.0992  1.5597
14395SOL    HW246463  11.117  11.171  11.086 -0.7173  1.4382  0.0761
14396SOL     OW46464   9.237   1.165  10.510 -0.6815  0.3751  0.2067
14396SOL    HW146465   9.224   1.233  10.576 -1.5612  0.1851  0.2369
14396SOL    HW246466   9.242   1.083  10.560  2.1295  0.5124  0.3558
14397SOL     OW46467   9.301   6.792   5.153  0.2476 -0.2559  0.7704
14397SOL    HW146468   9.386   6.799   5.194 -0.0205  0.0468  1.2774
14397SOL    HW246469   9.302   6.858   5.083  0.6968 -0.7661  0.2838
14398SOL     OW46470   8.696   9.966   3.995  0.5323 -0.2614 -0.5602
14398SOL    HW146471   8.640   9.975   3.918 -1.1668 -0.5927  0.5869
14398SOL    HW246472   8.725   9.875   3.994 -1.2729 -0.8927  0.3137
14399SOL     OW46473   3.552   0.034   2.078  0.0363 -0.6884 -0.1624
14399SOL    HW146474   3.514   0.105   2.027  1.3691  0.9135  0.9684
14399SOL    HW246475   3.568  -0.036   2.014 -0.9841  0.1419 -1.3749
14400SOL     OW46476   8.828   8.754   2.681  0.2757 -0.0253  0.2041
14400SOL    HW146477   8.853   8.766   2.773 -0.2935  0.1368  0.3428
14400SOL    HW246478   8.826   8.659   2.670 -0.5112 -0.0744  0.6182
14401SOL     OW46479   9.380   2.326   7.287 -0.1524 -0.2410  0.0512
14401SOL    HW146480   9.286   2.340   7.302 -0.9230 -1.6609 -2.6537
14401SOL    HW246481   9.410   2.281   7.365 -1.1858  2.0460  1.8931
14402SOL     OW46482   5.142   0.705   0.780 -0.2854  0.5146  0.5655
14402SOL    HW146483   5.129   0.699   0.874 -0.7382  0.1457  0.4841
14402SOL    HW246484   5.137   0.798   0.760  0.2097  0.6265  0.9584
14403SOL     OW46485  10.592   3.721   2.966  0.0253 -0.4269  0.0612
14403SOL    HW146486  10.637   3.734   2.883 -1.2873  2.6251 -0.3271
14403SOL    HW246487  10.501   3.744   2.947 -0.3507  0.1589  2.2899
14404SOL     OW46488   5.224   9.396   5.776 -0.2074 -0.1283 -0.0465
14404SOL    HW146489   5.174   9.319   5.748 -0.8781 -0.0757  0.9455
14404SOL    HW246490   5.180   9.425   5.856  1.3020  0.0219  0.7729
14405SOL     OW46491   9.697   7.706   6.186  0.0514 -0.8695 -0.0715
14405SOL    HW146492   9.613   7.734   6.151 -0.8762 -1.1279  1.8053
14405SOL    HW246493   9.701   7.612   6.168  1.4412 -0.3613 -2.9737
14406SOL     OW46494   3.190   9.266   3.565  0.6397 -0.4169 -0.3654
14406SOL    HW146495   3.284   9.266   3.543  0.3411 -0.1281 -1.7254
14406SOL    HW246496   3.158   9.181   3.534  0.2711 -0.1328 -0.7787
14407SOL     OW46497   0.282   4.936  10.548  0.6647  0.3620  0.0592
14407SOL    HW146498   0.235   4.978  10.476  0.0334  0.4420  0.5040
14407SOL    HW246499   0.360   4.899  10.508  1.8403  2.9303 -0.1462
14408SOL     OW46500   3.835   1.016   8.751  0.2388  0.6275 -0.3204
14408SOL    HW146501   3.817   0.922   8.762 -0.3644  0.5760 -1.6156
14408SOL    HW246502   3.929   1.021   8.735  0.5333  0.3985  1.1298
14409SOL     OW46503   4.924   2.147   8.279 -0.3041  0.5817 -0.1707
14409SOL    HW146504   4.906   2.235   8.244  3.0163  1.2674 -0.5231
14409SOL    HW246505   5.000   2.160   8.336 -0.1001 -2.0123  0.2461
14410SOL     OW46506  11.257   1.426   9.570 -0.0119 -0.1815  0.4182
14410SOL    HW146507  11.171   1.399   9.537 -1.2762  1.6282  1.9268
14410SOL    HW246508  11.297   1.474   9.498 -0.1210 -1.2888 -0.3985
14411SOL     OW46509   1.706   0.100   3.266 -0.0762 -0.0443 -0.1335
14411SOL    HW146510   1.695   0.181   3.217 -1.2704 -1.2077 -1.9015
14411SOL    HW246511   1.720   0.033   3.199 -1.3428 -1.6469  1.1140
14412SOL     OW46512   5.336   3.586   8.822 -0.3059  0.3126  0.6551
14412SOL    HW146513   5.246   3.592   8.854 -0.6927 -0.9331 -0.1132
14412SOL    HW246514   5.357   3.493   8.829 -0.1112  0.0900 -1.8269
14413SOL     OW46515   5.304   9.553   1.643  0.3635 -0.6858  0.3184
14413SOL    HW146516   5.302   9.514   1.730 -1.1388 -2.1665 -0.3195
14413SOL    HW246517   5.300   9.478   1.583  0.8419  0.3149 -1.0350
14414SOL     OW46518   9.626   4.440   7.005  0.2491  0.1028 -0.0370
14414SOL    HW146519   9.697   4.481   7.054  0.0562  1.5133 -0.8740
14414SOL    HW246520   9.558   4.507   7.000  1.0941  0.9396 -4.0109
14415SOL     OW46521   2.682   9.265   3.490  0.0443 -0.1447  0.2281
14415SOL    HW146522   2.739   9.241   3.417  0.2951 -1.2757  0.7663
14415SOL    HW246523   2.627   9.336   3.456  0.3319 -0.4767 -0.9744
14416SOL     OW46524   4.087   7.840   2.852  0.4586 -0.2964  0.1251
14416SOL    HW146525   4.145   7.888   2.794 -0.3097 -0.4308 -0.7776
14416SOL    HW246526   4.145   7.789   2.908  1.3312  1.8866  1.3518
14417SOL     OW46527   6.237   0.174   5.694  0.2096 -0.4467 -0.0952
14417SOL    HW146528   6.322   0.147   5.730  0.3079 -0.3907 -0.2821
14417SOL    HW246529   6.252   0.263   5.663  0.3463 -0.7768 -0.9907
14418SOL     OW46530   1.118   0.538   9.188 -0.4393  0.1879  0.0551
14418SOL    HW146531   1.178   0.490   9.132 -0.7239  0.9590 -0.9262
14418SOL    HW246532   1.160   0.538   9.274  0.6586  0.1774 -0.4726
14419SOL     OW46533   7.475   3.027   5.231 -0.5609 -0.1603 -0.2692
14419SOL    HW146534   7.502   3.028   5.139  1.4125 -3.8170  0.0596
14419SOL    HW246535   7.406   2.961   5.235  0.1990 -0.9256  0.9884
14420SOL     OW46536   7.385   5.508   6.310 -0.0904  0.1280  0.4822
14420SOL    HW146537   7.295   5.496   6.281 -0.7661  2.6050  1.2825
14420SOL    HW246538   7.437   5.504   6.229 -0.7268 -2.3501  0.1247
14421SOL     OW46539   5.028   0.936   0.396  0.4364  0.6650 -0.4193
14421SOL    HW146540   4.934   0.919   0.403  0.8335 -1.0867  1.8477
14421SOL    HW246541   5.063   0.857   0.354  1.1120  0.3788  0.6489
14422SOL     OW46542   5.815   7.010   5.847 -0.0776 -0.6918 -0.0825
14422SOL    HW146543   5.893   7.005   5.792  1.4237  0.6076  1.7938
14422SOL    HW246544   5.750   7.054   5.792  1.4926  0.9463 -0.7403
14423SOL     OW46545   9.555   2.152   7.450  0.4497  0.5889 -0.2731
14423SOL    HW146546   9.613   2.135   7.376  2.3399 -0.1103  1.2819
14423SOL    HW246547   9.527   2.066   7.480  0.6421  0.7882  0.5226
14424SOL     OW46548   8.105  10.685   2.291 -0.2056  0.0723  0.1687
14424SOL    HW146549   8.148  10.663   2.373 -0.1117  2.4079  0.8057
14424SOL    HW246550   8.011  10.678   2.311 -0.1975  1.2682  0.6979
14425SOL     OW46551   2.461   4.158  11.313  0.0854  0.1388 -0.1828
14425SOL    HW146552   2.407   4.224  11.357  0.3750  1.5953 -1.9064
14425SOL    HW246553   2.402   4.119  11.247  0.5872  0.4053 -0.8008
14426SOL     OW46554   9.887   2.245   5.215  0.1594  0.3618  0.8822
14426SOL    HW146555   9.895   2.192   5.136 -1.5600  0.0877  0.8339
14426SOL    HW246556   9.950   2.208   5.276  1.2786  0.3732 -0.2464
14427SOL     OW46557   9.086   8.195   9.944 -0.7703 -0.0535  0.2349
14427SOL    HW146558   9.111   8.109   9.910  1.3440  1.0127 -1.0675
14427SOL    HW246559   9.084   8.252   9.867 -2.2317  1.0911  1.0595
14428SOL     OW46560   7.189   8.276   6.305 -0.7427 -0.6533  0.0757
14428SOL    HW146561   7.274   8.240   6.329 -0.8549 -0.1916  1.1997
14428SOL    HW246562   7.140   8.280   6.387 -0.5701  2.4790  0.1546
14429SOL     OW46563   3.066   1.892   4.443 -0.4154 -0.1843 -0.1970
14429SOL    HW146564   3.125   1.888   4.519 -1.6172 -1.0216  0.7388
14429SOL    HW246565   3.091   1.816   4.390  1.4440  1.2431 -1.4761
14430SOL     OW46566   3.405   6.124  10.162  0.2602  0.4446 -0.2990
14430SOL    HW146567   3.467   6.189  10.194  0.5911 -0.7696  1.6834
14430SOL    HW246568   3.322   6.171  10.157  0.3446  0.9178  1.7650
14431SOL     OW46569   0.286   7.163   6.379  0.3336  0.1563 -0.1715
14431SOL    HW146570   0.345   7.208   6.438  0.1647 -2.4953  2.2371
14431SOL    HW246571   0.296   7.070   6.401 -2.1473 -0.6967 -2.1135
14432SOL     OW46572   0.120  10.504   8.119 -0.1451 -0.3953 -0.2665
14432SOL    HW146573   0.063  10.427   8.122 -1.3809  0.5117  0.1713
14432SOL    HW246574   0.105  10.548   8.202 -0.8159  1.2591 -1.2145
14433SOL     OW46575   7.054   0.892   5.808 -0.5618 -0.2543 -0.3399
14433SOL    HW146576   6.993   0.916   5.738  0.8986 -0.0264 -1.5732
14433SOL    HW246577   7.090   0.808   5.782  0.6615  0.2471 -0.3430
14434SOL     OW46578   6.842   8.963   9.328  0.2971  0.2044 -0.4684
14434SOL    HW146579   6.850   9.045   9.279  0.0847 -0.7998 -2.2638
14434SOL    HW246580   6.933   8.936   9.345  0.3664  0.7861  0.1002
14435SOL     OW46581   2.417   7.746   2.020 -0.0733  0.1673  0.1392
14435SOL    HW146582   2.328   7.766   1.991  0.9006  0.0317 -3.4100
14435SOL    HW246583   2.441   7.819   2.076 -1.4854  1.6509 -1.1030
14436SOL     OW46584   0.343   0.860   5.181 -0.2808  0.1608  0.2042
14436SOL    HW146585   0.316   0.943   5.142 -1.5517 -0.0404  0.6085
14436SOL    HW246586   0.429   0.877   5.218 -0.9210  1.5686  1.0995
14437SOL     OW46587   1.585  11.061  10.744  0.2120  0.0550 -0.0545
14437SOL    HW146588   1.667  11.111  10.744  2.3911 -3.1214  1.4733
14437SOL    HW246589   1.555  11.064  10.834  1.6394 -2.9444  0.6494
14438SOL     OW46590   2.976   9.492   9.681 -0.2177  0.1110  0.4811
14438SOL    HW146591   2.983   9.418   9.741  3.2063  0.7999  1.1341
14438SOL    HW246592   3.009   9.458   9.598 -1.7991  0.0626 -0.1561
14439SOL     OW46593   7.466   4.643   3.063  0.7183 -0.5280 -0.1808
14439SOL    HW146594   7.440   4.715   3.005  2.8461 -0.4435 -1.1485
14439SOL    HW246595   7.525   4.590   3.009  0.8673 -1.7981  1.1843
14440SOL     OW46596  10.848   7.152   8.217 -0.3750  0.4720 -0.0534
14440SOL    HW146597  10.767   7.157   8.267 -0.0450 -1.0409  0.6811
14440SOL    HW246598  10.880   7.242   8.214 -2.2178  1.1657 -0.6292
14441SOL     OW46599  10.448   5.762   8.900 -0.4513  0.1285  0.8849
14441SOL    HW146600  10.365   5.728   8.933  0.3325 -1.5237  1.2540
14441SOL    HW246601  10.496   5.685   8.870  0.5292  1.1660 -0.3289
14442SOL     OW46602   7.154   1.202   8.396 -0.2141 -0.4378 -0.1107
14442SOL    HW146603   7.134   1.278   8.342  0.9558 -1.4061 -1.9931
14442SOL    HW246604   7.180   1.134   8.334 -1.7262 -2.5972  1.4315
14443SOL     OW46605   1.581   8.160   7.237 -0.3283  1.0293  0.0100
14443SOL    HW146606   1.521   8.153   7.163  0.7125 -2.0953 -0.7013
14443SOL    HW246607   1.559   8.084   7.292  2.9832 -0.4225 -0.4183
14444SOL     OW46608   1.738  11.139   7.712  0.7859 -0.4715  0.4055
14444SOL    HW146609   1.737  11.221   7.760  1.1068  0.3860 -1.0078
14444SOL    HW246610   1.696  11.076   7.771 -1.4120  1.1618  0.7201
14445SOL     OW46611   9.640   5.360   6.477 -0.2544 -0.3824 -0.1993
14445SOL    HW146612   9.705   5.415   6.434  1.0109 -1.0577  0.7966
14445SOL    HW246613   9.617   5.406   6.557 -0.4012 -0.5431 -0.1461
14446SOL     OW46614   6.552   7.154   0.962  0.2896  0.5916 -0.3480
14446SOL    HW146615   6.645   7.140   0.944  0.4587 -1.2170  1.5201
14446SOL    HW246616   6.512   7.068   0.948 -0.4817  0.4952  1.9822
14447SOL     OW46617  10.011   0.720   4.967 -0.2547  0.2403 -0.0804
14447SOL    HW146618  10.045   0.634   4.990 -2.4084 -0.1440  1.9546
14447SOL    HW246619  10.089   0.776   4.962  1.0671 -1.5404 -0.2690
14448SOL     OW46620   3.291   9.485   8.658  0.0863  0.4449 -0.1316
14448SOL    HW146621   3.212   9.521   8.618 -0.5205 -1.4591 -0.7734
14448SOL    HW246622   3.288   9.515   8.748 -0.6921  1.4355 -0.4644
14449SOL     OW46623   8.356   5.013   6.348  0.0865 -0.0273  0.3784
14449SOL    HW146624   8.354   4.986   6.440  0.6894 -1.8690 -0.0956
14449SOL    HW246625   8.286   4.963   6.307  0.5848 -0.1313 -0.3691
14450SOL     OW46626   6.233   7.749   6.793  0.2830 -0.3200 -0.7898
14450SOL    HW146627   6.194   7.766   6.879  0.5779 -0.3575 -0.6451
14450SOL    HW246628   6.189   7.810   6.734  0.9460  0.5777 -0.3834
14451SOL     OW46629   9.394   3.520   3.143  0.0741 -0.9115 -0.2861
14451SOL    HW146630   9.457   3.553   3.078 -0.5285 -0.0120 -0.4298
14451SOL    HW246631   9.354   3.599   3.179  0.3586 -1.3921  1.1578
14452SOL     OW46632   3.303   6.474   2.176  0.8949  0.3404  0.0418
14452SOL    HW146633   3.274   6.533   2.107  1.1543  0.7602  0.2921
14452SOL    HW246634   3.393   6.452   2.153 -0.2694 -2.9577 -2.1299
14453SOL     OW46635   7.065   4.584   6.582 -0.0866  0.2102 -0.0058
14453SOL    HW146636   7.063   4.667   6.630 -0.3155  0.0843  0.2071
14453SOL    HW246637   6.973   4.562   6.568 -0.0223  0.1012 -0.2506
14454SOL     OW46638  10.450  10.062   6.987  0.5574 -0.4759 -0.3440
14454SOL    HW146639  10.428   9.979   7.028  1.1218 -0.5235 -0.1319
14454SOL    HW246640  10.371  10.087   6.939 -0.8026  0.4810  2.2188
14455SOL     OW46641   1.281  10.347   0.986 -0.4930 -0.2120  0.8425
14455SOL    HW146642   1.373  10.368   0.969 -0.4419 -1.3807 -0.4282
14455SOL    HW246643   1.232  10.406   0.929 -0.4942 -0.3280  0.7230
14456SOL     OW46644   6.520   0.656   6.791 -0.2585 -0.0475 -0.4335
14456SOL    HW146645   6.470   0.737   6.782  1.3034  0.9001 -0.9266
14456SOL    HW246646   6.539   0.650   6.885 -1.6520 -0.6896 -0.1529
14457SOL     OW46647   9.682   4.283   8.277 -0.0737 -0.0656 -0.3445
14457SOL    HW146648   9.596   4.323   8.292  0.3283  0.5879  0.2596
14457SOL    HW246649   9.725   4.286   8.362  0.6121 -0.2366 -0.6808
14458SOL     OW46650   6.616   4.428   5.067 -0.6606 -0.5594 -0.3524
14458SOL    HW146651   6.678   4.485   5.022 -0.1553 -1.8091 -1.2905
14458SOL    HW246652   6.530   4.464   5.044 -0.4236 -1.1509 -2.3660
14459SOL     OW46653   1.781   6.656   2.513  0.0129  0.6584  0.0250
14459SOL    HW146654   1.766   6.621   2.601  0.1588  0.3233 -0.0823
14459SOL    HW246655   1.873   6.636   2.494  0.1739  1.3388  0.0658
14460SOL     OW46656  10.762   0.834   0.615 -0.1873  0.0117 -0.0669
14460SOL    HW146657  10.791   0.750   0.651 -1.5421 -0.4161  0.0915
14460SOL    HW246658  10.785   0.829   0.522 -0.6155 -0.7261 -0.1455
14461SOL     OW46659   8.425   8.511   0.486  0.2850 -0.2928 -0.1010
14461SOL    HW146660   8.495   8.569   0.517  0.2447  0.9449 -2.1554
14461SOL    HW246661   8.346   8.546   0.527  0.3700  0.6606 -0.7117
14462SOL     OW46662   2.457   0.073   8.581  0.0335 -0.6205  0.3493
14462SOL    HW146663   2.405   0.050   8.658 -0.4135  0.4284  0.3697
14462SOL    HW246664   2.417   0.153   8.547 -0.0246 -1.2622 -1.2037
14463SOL     OW46665   9.361   9.302   8.160 -0.0589 -0.2257  0.7790
14463SOL    HW146666   9.324   9.345   8.083  1.3332  0.6119  0.5505
14463SOL    HW246667   9.298   9.234   8.181 -0.6625 -0.2321 -0.8751
14464SOL     OW46668   6.730   9.632   1.026 -0.3413  0.0910  0.2173
14464SOL    HW146669   6.727   9.646   1.121 -3.3153  2.9024 -0.0944
14464SOL    HW246670   6.801   9.688   0.996  2.0762 -2.4503  0.8435
14465SOL     OW46671   5.585   3.771   2.376 -0.2302  0.3043 -0.4536
14465SOL    HW146672   5.674   3.741   2.394 -0.8973 -1.1783  0.5402
14465SOL    HW246673   5.540   3.764   2.460 -1.3235  0.9709 -0.9559
14466SOL     OW46674   8.026   2.828   7.025  0.3263  0.3435 -0.0186
14466SOL    HW146675   7.936   2.821   6.994  0.9094 -1.4408 -1.4634
14466SOL    HW246676   8.051   2.919   7.006 -0.3858  0.1863 -1.9059
14467SOL     OW46677   8.758   9.093  10.789  0.1485 -0.4899  0.2196
14467SOL    HW146678   8.695   9.057  10.726  0.8982 -0.0441 -0.8017
14467SOL    HW246679   8.775   9.021  10.850 -0.2054 -1.0845 -0.3741
14468SOL     OW46680   8.706   3.028   0.230  0.4944  0.1859  0.4815
14468SOL    HW146681   8.675   3.008   0.319 -0.4433  0.1232  0.1490
14468SOL    HW246682   8.763   3.104   0.242 -1.8094  2.0032  0.8360
14469SOL     OW46683   8.015   3.877   4.516 -0.2374  0.3535 -0.0557
14469SOL    HW146684   7.997   3.960   4.560  1.9884  1.3232 -0.8167
14469SOL    HW246685   8.053   3.821   4.585  0.3874  0.7980 -0.0255
14470SOL     OW46686   5.360   3.839   8.402 -0.1924  0.1324  0.2597
14470SOL    HW146687   5.434   3.887   8.363 -0.2510  0.5764  0.6783
14470SOL    HW246688   5.399   3.788   8.473 -0.2860  0.3972  0.5068
14471SOL     OW46689   2.118   2.648   9.371 -0.2343 -0.5384  0.1546
14471SOL    HW146690   2.070   2.628   9.452 -0.1799  1.0905  0.6300
14471SOL    HW246691   2.081   2.732   9.342  2.0344  0.5919  0.3200
14472SOL     OW46692   3.838   2.275   4.610  0.0097  0.9035  0.0909
14472SOL    HW146693   3.797   2.288   4.696 -0.7466  1.0405 -0.2868
14472SOL    HW246694   3.932   2.271   4.629 -0.2131 -0.3886  1.0938
14473SOL     OW46695   8.795   4.631   6.518  0.1175 -0.0722 -0.7332
14473SOL    HW146696   8.825   4.708   6.469 -1.5293  0.4993 -0.9326
14473SOL    HW246697   8.732   4.666   6.581  1.5572 -0.9109  1.2667
14474SOL     OW46698   5.328   7.716   2.716  0.2809  0.2008  0.6103
14474SOL    HW146699   5.262   7.784   2.730  0.3671 -0.0683  2.4387
14474SOL    HW246700   5.287   7.635   2.746  0.1789 -0.6385 -1.5575
14475SOL     OW46701   7.257  10.302   3.991  0.0735  0.1761  0.6004
14475SOL    HW146702   7.293  10.221   3.954 -1.5728 -0.2764 -0.1175
14475SOL    HW246703   7.333  10.354   4.014  1.1862 -1.6152  1.1707
14476SOL     OW46704   9.754   4.231  10.464 -0.4098 -0.6234 -0.2001
14476SOL    HW146705   9.793   4.263  10.383 -1.1460  0.2278 -0.2243
14476SOL    HW246706   9.829   4.210  10.520  0.0941 -0.7576 -0.9202
14477SOL     OW46707   0.916  10.751   5.726 -0.1750 -0.4446  0.1716
14477SOL    HW146708   0.974  10.785   5.794 -0.1553 -0.6143  0.2399
14477SOL    HW246709   0.864  10.683   5.770  0.2722 -0.9909 -0.1363
14478SOL     OW46710   0.360  11.065   1.259  0.5315 -0.6204  0.7173
14478SOL    HW146711   0.411  11.096   1.183  1.8158 -1.1481  1.3405
14478SOL    HW246712   0.296  11.005   1.222  0.2942  0.1080 -0.0974
14479SOL     OW46713   4.614   5.340   4.260  0.1194  0.3372 -0.4282
14479SOL    HW146714   4.664   5.263   4.287 -0.6301  0.3171  1.0139
14479SOL    HW246715   4.549   5.352   4.330  0.1217  2.1789 -0.6997
14480SOL     OW46716   5.968   1.381   5.682 -0.7135 -0.7064  0.3729
14480SOL    HW146717   5.892   1.412   5.632 -0.3656 -0.8087 -0.2252
14480SOL    HW246718   5.975   1.441   5.755 -0.0433  0.6587 -0.7666
14481SOL     OW46719   8.840   7.785   4.846 -0.0824 -0.0429  0.1642
14481SOL    HW146720   8.789   7.709   4.817 -1.4341  0.7287  0.4317
14481SOL    HW246721   8.870   7.825   4.764 -0.4175 -0.1661 -0.0222
14482SOL     OW46722   6.434   5.697   7.209 -0.1638 -0.1358  0.2492
14482SOL    HW146723   6.465   5.621   7.259 -0.8259  0.0359  0.9328
14482SOL    HW246724   6.342   5.679   7.194  0.0370 -0.2110 -0.9788
14483SOL     OW46725   3.966   8.085   2.554  0.0071  0.3110 -0.4596
14483SOL    HW146726   3.960   8.178   2.531 -1.6232  0.0564 -1.2167
14483SOL    HW246727   3.879   8.063   2.587  0.3725 -0.9611 -0.2764
14484SOL     OW46728   0.329   5.893   8.411 -0.2118 -0.5544  0.2134
14484SOL    HW146729   0.328   5.939   8.495  0.1158 -1.3992  0.6903
14484SOL    HW246730   0.268   5.942   8.356  0.1880  0.5051  0.6755
14485SOL     OW46731   4.615   9.484  10.939  0.0569 -0.4830  0.1063
14485SOL    HW146732   4.567   9.409  10.972 -1.7672 -0.4704 -2.2193
14485SOL    HW246733   4.672   9.448  10.871 -1.1898  0.2049 -1.3765
14486SOL     OW46734   4.461   7.927   2.889 -0.1258  0.1315 -0.4445
14486SOL    HW146735   4.431   7.902   2.976 -0.7545  0.3028 -0.6052
14486SOL    HW246736   4.448   8.022   2.885 -1.1192 -0.0154 -1.0916
14487SOL     OW46737   0.586  10.940   8.040 -0.3683  0.6347  0.4231
14487SOL    HW146738   0.620  11.030   8.040  0.6537  0.2575  0.1159
14487SOL    HW246739   0.610  10.906   8.126 -1.5584  0.9251  0.9023
14488SOL     OW46740  11.081   6.765   0.203  0.1912 -0.2557  0.3413
14488SOL    HW146741  11.121   6.720   0.278 -0.6082  1.5636  1.9437
14488SOL    HW246742  11.031   6.697   0.158  0.6501 -1.3915  1.4980
14489SOL     OW46743   3.047   7.669   1.695 -0.0787 -0.4980 -0.3528
14489SOL    HW146744   3.049   7.595   1.755 -1.0635 -0.3679 -0.1375
14489SOL    HW246745   3.111   7.731   1.730 -0.1959 -0.6903  0.2031
14490SOL     OW46746   2.373   0.089  10.051  0.1885 -0.8609 -0.3019
14490SOL    HW146747   2.399  -0.000  10.073 -0.0610 -1.0032 -0.5590
14490SOL    HW246748   2.355   0.130  10.135 -0.7810 -1.4004 -0.2238
14491SOL     OW46749   8.487   9.358   6.839  0.6965  0.1278 -0.7877
14491SOL    HW146750   8.459   9.322   6.923  0.1947  1.1746 -0.4814
14491SOL    HW246751   8.423   9.324   6.776  1.4265 -1.1449 -0.8659
14492SOL     OW46752   9.738  10.616   3.432  0.1683  0.4531 -0.0024
14492SOL    HW146753   9.714  10.538   3.383 -0.3825 -0.3051  1.4195
14492SOL    HW246754   9.825  10.596   3.467  1.2466  1.5966 -1.8369
14493SOL     OW46755   1.491   3.827   5.137 -0.5459  0.0861  0.4189
14493SOL    HW146756   1.517   3.748   5.090 -0.7826  0.9619 -1.2640
14493SOL    HW246757   1.490   3.896   5.070 -1.0150  1.3795  1.6946
14494SOL     OW46758   4.129   5.173   0.401 -0.0375  0.2427 -0.3922
14494SOL    HW146759   4.203   5.115   0.422 -1.1303 -1.2470 -0.5345
14494SOL    HW246760   4.143   5.198   0.310  0.7234  0.6612 -0.1720
14495SOL     OW46761  10.426   1.667   6.075 -0.1798  0.0926 -0.0099
14495SOL    HW146762  10.514   1.683   6.108 -0.3338  0.1534  0.3798
14495SOL    HW246763  10.381   1.751   6.084 -0.7131 -0.2844  1.1891
14496SOL     OW46764   6.553   5.886   6.508 -0.0137 -0.0328  0.2040
14496SOL    HW146765   6.544   5.793   6.486 -0.2516  0.2031 -0.7267
14496SOL    HW246766   6.486   5.901   6.575 -0.3607 -0.3935 -0.0578
14497SOL     OW46767   1.450   5.575  10.596  0.1057 -1.0878 -0.5907
14497SOL    HW146768   1.401   5.595  10.516 -0.2097 -1.5292 -0.5062
14497SOL    HW246769   1.392   5.520  10.648 -1.3667  2.3026  1.7322
14498SOL     OW46770   9.619  10.755   6.300 -0.6438  0.2418  0.2966
14498SOL    HW146771   9.661  10.715   6.376  0.4434 -1.4616 -1.1307
14498SOL    HW246772   9.592  10.841   6.331  2.4038  0.7839  1.7709
14499SOL     OW46773   1.624   0.445   2.794  0.2826  0.6274 -0.2964
14499SOL    HW146774   1.694   0.509   2.809 -1.0673  1.7748  1.5680
14499SOL    HW246775   1.556   0.494   2.747  0.2155 -0.1245 -0.9951
14500SOL     OW46776   3.900   1.203   2.679  0.2609  0.0665  0.3002
14500SOL    HW146777   3.916   1.195   2.585  2.6033  0.3923  0.6177
14500SOL    HW246778   3.812   1.240   2.685  0.5042  1.1277 -1.7897
14501SOL     OW46779   8.765   6.720  11.029 -0.4367  0.3634  0.4952
14501SOL    HW146780   8.791   6.662  11.101 -0.5821 -0.8786 -0.4135
14501SOL    HW246781   8.699   6.778  11.068  0.5648  0.7128  1.7270
14502SOL     OW46782   8.425   5.562   4.840  0.4315 -0.2745  0.3462
14502SOL    HW146783   8.482   5.579   4.915  1.7976 -0.7367 -0.5401
14502SOL    HW246784   8.410   5.647   4.800  0.1348 -0.0946  0.8413
14503SOL     OW46785   7.276   9.707   2.398  0.6207 -0.2930 -0.2958
14503SOL    HW146786   7.197   9.730   2.348 -0.2049  1.6151  1.7125
14503SOL    HW246787   7.330   9.657   2.336 -1.2446  0.1169 -2.3819
14504SOL     OW46788   7.749   3.981   8.449  0.7538  0.8132  0.4036
14504SOL    HW146789   7.783   4.000   8.361 -0.5657  0.3118 -0.2441
14504SOL    HW246790   7.790   3.898   8.473  0.9829  0.8604  0.1752
14505SOL     OW46791   0.023   3.364   1.658  0.3134 -0.0299  0.2893
14505SOL    HW146792  -0.058   3.352   1.608  0.5458  1.6570 -0.5559
14505SOL    HW246793  -0.006   3.403   1.741  0.2457  0.8326 -0.1214
14506SOL     OW46794   7.740   5.364   7.618 -0.5220 -0.2351 -0.1050
14506SOL    HW146795   7.789   5.360   7.536 -0.5643  1.9600 -0.3011
14506SOL    HW246796   7.693   5.280   7.622  0.5990 -0.9831 -1.5828
14507SOL     OW46797   9.580   1.151   8.210  0.4078  0.0199 -0.4222
14507SOL    HW146798   9.628   1.076   8.244 -1.5755 -1.5318 -0.8814
14507SOL    HW246799   9.633   1.182   8.136  0.0708 -2.5127 -1.8164
14508SOL     OW46800   7.781   4.159   4.103  0.6901 -0.3409 -0.1475
14508SOL    HW146801   7.726   4.117   4.037  0.9672 -1.0455  0.0564
14508SOL    HW246802   7.841   4.090   4.131  1.0154  0.1390  0.3570
14509SOL     OW46803   8.248   1.123   9.440 -0.3282 -0.3091 -0.2836
14509SOL    HW146804   8.310   1.182   9.397  0.6910 -1.1960 -0.0757
14509SOL    HW246805   8.187   1.181   9.485  0.6308  0.5959 -0.1198
14510SOL     OW46806   0.789   8.449   2.355  0.5480 -0.1865 -0.1075
14510SOL    HW146807   0.835   8.519   2.308  1.1123  1.0614  2.1490
14510SOL    HW246808   0.858   8.407   2.407 -0.3857  0.0518  1.3850
14511SOL     OW46809   6.999   1.454   8.635 -0.2076 -0.1024 -0.9097
14511SOL    HW146810   7.083   1.492   8.607 -0.3350  1.3428  0.5323
14511SOL    HW246811   6.953   1.436   8.553  0.6063  1.2069 -1.6979
14512SOL     OW46812   2.033   4.548   9.964  0.8117 -0.2515  0.3617
14512SOL    HW146813   1.984   4.583  10.038  0.5234 -0.6750  0.3710
14512SOL    HW246814   2.079   4.624   9.928  0.4295  0.0813  0.5681
14513SOL     OW46815   2.974   4.572  11.373  0.0246  0.3381  0.1559
14513SOL    HW146816   2.945   4.633  11.441 -0.7061  0.1749 -0.0071
14513SOL    HW246817   3.070   4.571  11.381 -0.0201  0.7805  0.7825
14514SOL     OW46818   2.804   4.035   2.674  0.0428  0.5585 -0.6457
14514SOL    HW146819   2.753   4.062   2.750  0.7851  0.0948  0.0339
14514SOL    HW246820   2.748   3.973   2.628 -0.4926  0.9937 -0.5913
14515SOL     OW46821   2.281   1.075   2.892  0.7743 -0.0354  0.1624
14515SOL    HW146822   2.252   1.132   2.821 -1.3472  0.7526  1.5771
14515SOL    HW246823   2.352   1.123   2.934 -0.2499  1.0815  0.6542
14516SOL     OW46824   7.911  10.301   2.289 -0.2644 -0.2519  0.4393
14516SOL    HW146825   7.857  10.372   2.255 -0.0344  0.4153  1.4354
14516SOL    HW246826   7.885  10.225   2.237  2.0173  1.1796 -3.1708
14517SOL     OW46827   0.933  11.051   7.947  0.6897 -0.2053  0.2803
14517SOL    HW146828   0.954  11.078   7.857  1.6470 -1.1930  0.1810
14517SOL    HW246829   0.846  11.086   7.963  0.9873  1.0000 -0.6150
14518SOL     OW46830   2.861   1.036   8.879 -0.5116 -0.7182 -0.8034
14518SOL    HW146831   2.908   0.957   8.855  0.8270  0.0501 -0.7864
14518SOL    HW246832   2.929   1.098   8.906 -1.3325  1.0353 -2.4714
14519SOL     OW46833   1.197  10.559   4.695 -0.8271 -0.3902 -0.1556
14519SOL    HW146834   1.247  10.579   4.616 -1.3709 -1.9390 -0.9136
14519SOL    HW246835   1.263  10.551   4.764 -0.0727 -1.6858 -0.9970
14520SOL     OW46836   7.825  10.011   7.695 -0.8214 -0.5967 -0.1808
14520SOL    HW146837   7.839   9.940   7.633 -1.7073 -1.5528  0.6794
14520SOL    HW246838   7.764   9.976   7.760  0.8495 -0.0097  1.8384
14521SOL     OW46839  10.181   7.482   6.611 -0.1771 -0.0483 -0.1509
14521SOL    HW146840  10.138   7.425   6.675  0.2125  0.9687  1.0525
14521SOL    HW246841  10.119   7.554   6.597  0.1972  0.2937 -0.0770
14522SOL     OW46842   4.433   2.176  10.297  0.3266  0.2503  0.3486
14522SOL    HW146843   4.463   2.092  10.330 -0.9731 -0.1574  0.5552
14522SOL    HW246844   4.366   2.154  10.231  1.5168  1.0849 -1.2101
14523SOL     OW46845   5.508  11.185   6.515 -1.0047 -0.0656 -0.0599
14523SOL    HW146846   5.447  11.230   6.573 -0.0775 -0.4671  1.2792
14523SOL    HW246847   5.592  11.228   6.530 -0.7467 -0.1621 -1.1426
14524SOL     OW46848   5.762   6.720   5.857  0.6528  0.2029 -0.1699
14524SOL    HW146849   5.684   6.728   5.802  1.1020  0.1621 -0.8280
14524SOL    HW246850   5.793   6.810   5.868  0.8857  0.1645 -0.4745
14525SOL     OW46851   6.433   7.390   4.672 -0.3740  0.2680  0.0614
14525SOL    HW146852   6.470   7.303   4.658 -1.9970 -0.5408  0.4802
14525SOL    HW246853   6.406   7.390   4.764 -0.2350  1.2867  0.1183
14526SOL     OW46854   6.711   9.539   1.808 -0.2632 -0.1768  0.4323
14526SOL    HW146855   6.631   9.505   1.848 -0.2695 -2.4615 -1.3587
14526SOL    HW246856   6.684   9.565   1.720  0.6419  0.6283  0.3779
14527SOL     OW46857  10.138   8.490   5.944 -0.1354 -0.0123 -0.7123
14527SOL    HW146858  10.051   8.472   5.910 -0.3631  0.0009 -0.1518
14527SOL    HW246859  10.185   8.530   5.871 -0.9715  1.0955 -0.6682
14528SOL     OW46860   3.177   9.913  10.129  0.0595  0.2418 -0.1767
14528SOL    HW146861   3.136   9.998  10.143  0.8702  0.6546 -0.1937
14528SOL    HW246862   3.239   9.929  10.057 -0.5086 -0.6142 -0.8741
14529SOL     OW46863   5.323  10.079   5.800 -0.1701  0.1617  0.1215
14529SOL    HW146864   5.388  10.142   5.767 -0.6263  0.5929  0.0323
14529SOL    HW246865   5.333  10.003   5.744  0.1938  0.2616  0.0457
14530SOL     OW46866  10.239   4.729   1.892 -0.3689  0.0951  0.3447
14530SOL    HW146867  10.161   4.748   1.944 -0.2962 -0.6494  0.7358
14530SOL    HW246868  10.226   4.778   1.810 -1.1387  0.1562  0.4982
14531SOL     OW46869   1.859   0.964   7.894 -0.3917 -0.3609 -0.0370
14531SOL    HW146870   1.886   0.879   7.928  0.4935 -0.1959 -0.3072
14531SOL    HW246871   1.934   0.995   7.843 -0.4633  0.8718  0.5755
14532SOL     OW46872   4.885   2.686   4.000  0.4861  0.0021 -0.2021
14532SOL    HW146873   4.919   2.759   3.948  0.0382 -0.4439 -1.1338
14532SOL    HW246874   4.963   2.641   4.032  0.8867 -1.5757 -3.1089
14533SOL     OW46875  11.342   1.821   4.054 -0.1663  0.2505 -0.1843
14533SOL    HW146876  11.342   1.915   4.038 -0.2820  0.0644 -1.2967
14533SOL    HW246877  11.299   1.783   3.978 -1.6836 -0.5854  1.0293
14534SOL     OW46878  11.177   7.192   7.161 -0.9061  0.1218 -0.7877
14534SOL    HW146879  11.205   7.101   7.161  0.6460  0.5717 -1.3401
14534SOL    HW246880  11.238   7.237   7.103 -0.5163  1.8342  0.8444
14535SOL     OW46881   2.333  10.648   1.584  0.4597 -0.4873  0.3920
14535SOL    HW146882   2.425  10.659   1.560  0.2500  1.2992  0.3087
14535SOL    HW246883   2.330  10.669   1.677 -0.3368  2.9967 -0.2749
14536SOL     OW46884   6.272   3.159   3.152 -0.3390 -0.1446  0.0402
14536SOL    HW146885   6.297   3.187   3.063  1.0069 -0.1842  0.3849
14536SOL    HW246886   6.219   3.081   3.138 -0.6566  0.1959 -0.7547
14537SOL     OW46887   0.475   1.854   0.217  0.3836 -0.1702 -0.0292
14537SOL    HW146888   0.550   1.888   0.169  1.8175 -0.1184  2.1243
14537SOL    HW246889   0.458   1.920   0.284 -1.2683 -0.4437 -0.1446
14538SOL     OW46890   1.507   1.411   0.727  0.6038 -0.5245 -0.1651
14538SOL    HW146891   1.569   1.476   0.694  0.7678 -0.8487 -0.4958
14538SOL    HW246892   1.440   1.405   0.659 -0.2700  0.4666  0.5765
14539SOL     OW46893  10.576   7.828   2.028 -0.3230  0.1792  0.5098
14539SOL    HW146894  10.552   7.811   2.120 -2.0242 -0.2577  0.0186
14539SOL    HW246895  10.537   7.755   1.980 -0.6124  1.1260 -0.7159
14540SOL     OW46896   4.556   9.442   3.668  0.0746 -0.1527 -0.3215
14540SOL    HW146897   4.489   9.433   3.735 -0.2148  2.7407 -0.1002
14540SOL    HW246898   4.510   9.426   3.585 -0.5586  0.2822 -0.0661
14541SOL     OW46899  10.643   9.269   3.979 -0.6976 -0.0902 -0.5368
14541SOL    HW146900  10.671   9.264   3.888  0.6470 -0.2431 -0.1405
14541SOL    HW246901  10.603   9.356   3.988 -2.2143 -0.6354 -1.6099
14542SOL     OW46902   2.671   6.586   6.295  0.2231  0.5514 -0.0003
14542SOL    HW146903   2.613   6.646   6.247 -0.8492  0.8492  1.5967
14542SOL    HW246904   2.757   6.600   6.256 -0.7520 -0.0102 -2.5458
14543SOL     OW46905   8.536   3.431   5.580 -0.1160 -0.0771  0.6706
14543SOL    HW146906   8.467   3.497   5.579 -0.6223 -0.5985 -0.1014
14543SOL    HW246907   8.617   3.481   5.587 -0.4072  0.7213 -1.1354
14544SOL     OW46908   6.090   8.741   1.071 -0.1491  0.0376 -0.2429
14544SOL    HW146909   6.022   8.731   1.004 -0.9307 -0.5371  0.6070
14544SOL    HW246910   6.172   8.719   1.025 -0.3474  1.9068 -1.5891
14545SOL     OW46911   6.506  10.593   1.481 -0.1079 -0.0384  0.1740
14545SOL    HW146912   6.441  10.537   1.441  0.7112 -0.1840 -1.0203
14545SOL    HW246913   6.583  10.584   1.425  0.0869  2.1942 -0.0201
14546SOL     OW46914   8.536   9.702   2.696  0.4988 -0.6027  0.2210
14546SOL    HW146915   8.462   9.726   2.751  0.3222  0.6475 -0.5337
14546SOL    HW246916   8.603   9.671   2.757 -0.5255 -1.4735  0.9351
14547SOL     OW46917  10.041  10.772   3.872  0.0358  0.5873  0.0571
14547SOL    HW146918  10.014  10.746   3.960  0.3862  1.6546  0.5061
14547SOL    HW246919   9.969  10.746   3.815 -0.4634  0.4393  0.7485
14548SOL     OW46920   5.894   4.287   4.264  0.0221  0.2678 -0.3739
14548SOL    HW146921   5.975   4.265   4.310  0.8672  0.8994 -1.5183
14548SOL    HW246922   5.847   4.344   4.325  1.9053  2.5055 -0.8848
14549SOL     OW46923   9.681   8.729  10.137 -0.5311 -0.3522  0.2218
14549SOL    HW146924   9.642   8.692  10.215 -1.6765  0.0974 -0.1197
14549SOL    HW246925   9.740   8.797  10.169 -0.0503 -0.9993  0.7393
14550SOL     OW46926   0.916   9.734   6.950 -0.1163 -0.5413  0.0680
14550SOL    HW146927   0.929   9.799   7.018  0.0315  2.2049 -2.3788
14550SOL    HW246928   1.001   9.693   6.939  0.9767  1.8681 -1.1000
14551SOL     OW46929   1.679   5.838   5.953 -0.3898 -0.0465 -0.1669
14551SOL    HW146930   1.615   5.777   5.990  0.7249 -1.3962 -0.3818
14551SOL    HW246931   1.749   5.842   6.018  0.4678 -0.5607 -1.0456
14552SOL     OW46932   4.110  11.207   4.797  0.1910  0.4500 -0.2239
14552SOL    HW146933   4.110  11.299   4.771 -2.8414  0.7328  0.4053
14552SOL    HW246934   4.175  11.202   4.868  0.3363  2.1211 -0.2073
14553SOL     OW46935   8.490   3.605   2.462 -0.0165  0.4135 -0.4461
14553SOL    HW146936   8.455   3.659   2.391 -1.3696 -0.4145 -0.4323
14553SOL    HW246937   8.443   3.635   2.540 -0.7799 -0.7400 -0.4362
14554SOL     OW46938   4.228   6.887   4.578 -0.5209  1.0623 -0.1806
14554SOL    HW146939   4.185   6.967   4.608 -0.5992  1.1854 -0.6151
14554SOL    HW246940   4.298   6.917   4.520  1.9923  1.0348  2.5886
14555SOL     OW46941   3.774   5.998  10.722  0.0960  0.3468  0.0423
14555SOL    HW146942   3.796   6.076  10.774  2.7058  0.6930 -1.3700
14555SOL    HW246943   3.756   6.033  10.634  1.1324 -0.5674 -0.5633
14556SOL     OW46944   4.237   9.798  10.301 -0.1217  0.4566 -0.0929
14556SOL    HW146945   4.308   9.734  10.310 -0.0725  0.4332 -0.6442
14556SOL    HW246946   4.174   9.756  10.243 -1.5276 -0.3358  1.8774
14557SOL     OW46947  11.359  11.022   0.419 -0.1968 -0.0140 -0.5308
14557SOL    HW146948  11.299  11.076   0.471  0.0526 -0.1599 -0.0839
14557SOL    HW246949  11.302  10.967   0.366 -0.6081  3.0944 -3.7430
14558SOL     OW46950  10.697   3.491   5.198  0.0236 -0.2341  0.2809
14558SOL    HW146951  10.645   3.526   5.126  1.2518 -0.2535 -0.6480
14558SOL    HW246952  10.714   3.567   5.254 -1.1479 -0.2673  0.7116
14559SOL     OW46953   3.102   4.929   3.822 -0.3685 -0.0200  0.5439
14559SOL    HW146954   3.108   4.843   3.780 -1.0296 -0.1341  0.6733
14559SOL    HW246955   3.124   4.912   3.914 -1.6140 -0.2674  0.8147
14560SOL     OW46956   1.184   6.651   5.010 -0.1951 -0.1883 -0.4077
14560SOL    HW146957   1.264   6.696   5.038 -0.0649 -0.9818  0.5644
14560SOL    HW246958   1.156   6.698   4.931  1.3117  0.0120 -0.8620
14561SOL     OW46959   6.146   4.493   3.319  0.8273 -0.0729  0.6368
14561SOL    HW146960   6.155   4.438   3.397 -2.4732 -1.8292 -0.0048
14561SOL    HW246961   6.056   4.526   3.323 -0.3585 -2.0966 -3.3652
14562SOL     OW46962   1.096   0.285   3.447 -0.1949  0.5120  0.2710
14562SOL    HW146963   1.186   0.285   3.416 -0.6636  0.5045 -1.1869
14562SOL    HW246964   1.085   0.201   3.491  0.2573  0.1272 -0.3314
14563SOL     OW46965   5.426   6.215   0.418 -0.2511 -0.4911 -0.1029
14563SOL    HW146966   5.382   6.299   0.431  1.1762  0.1629  0.8484
14563SOL    HW246967   5.407   6.191   0.328 -1.4734  0.3675 -0.0986
14564SOL     OW46968   4.090   4.272   9.951  0.0422 -0.0280  0.8615
14564SOL    HW146969   3.998   4.260   9.972 -0.4623  1.3222 -0.3755
14564SOL    HW246970   4.105   4.366   9.964  1.0212 -0.0891  0.2408
14565SOL     OW46971   8.714   7.321   6.650 -0.4220 -0.8887  0.5864
14565SOL    HW146972   8.783   7.266   6.611 -0.1783 -1.0405  1.2254
14565SOL    HW246973   8.759   7.402   6.672 -0.8546 -0.2780 -0.6723
14566SOL     OW46974   9.211   7.318   6.850 -1.0513 -0.0775  0.2562
14566SOL    HW146975   9.294   7.348   6.888  0.6527 -1.1724 -2.2696
14566SOL    HW246976   9.166   7.398   6.824  0.2719  0.5059 -0.3260
14567SOL     OW46977   2.270   1.537   5.885  0.3368 -0.1682  0.7612
14567SOL    HW146978   2.176   1.553   5.889  0.3157  0.1898 -0.6597
14567SOL    HW246979   2.309   1.621   5.862  0.8141 -0.7293 -0.5718
14568SOL     OW46980   9.989   0.750   8.030  0.7940 -0.9104 -0.4364
14568SOL    HW146981   9.931   0.676   8.049  0.0374 -0.3337 -0.4588
14568SOL    HW246982   9.936   0.808   7.975  0.8242  0.4194  0.8988
14569SOL     OW46983   3.191   2.318   5.400 -0.3259 -0.1162 -0.2986
14569SOL    HW146984   3.150   2.401   5.425 -1.1259 -0.0603 -1.6843
14569SOL    HW246985   3.184   2.316   5.304  1.2076 -1.0083 -0.4256
14570SOL     OW46986   7.249  10.048   3.526  0.3064 -0.3568  0.0191
14570SOL    HW146987   7.215  10.095   3.603  2.2207 -0.0214  0.7479
14570SOL    HW246988   7.304   9.979   3.563  1.9178  0.3109 -0.9977
14571SOL     OW46989   7.891   5.253   5.556  0.4885  0.4821 -0.5243
14571SOL    HW146990   7.824   5.232   5.620 -1.0721  1.4721 -1.7573
14571SOL    HW246991   7.915   5.169   5.517  0.3874  0.0606  0.3165
14572SOL     OW46992   4.692   7.443   9.036 -0.1106  0.0052  0.1727
14572SOL    HW146993   4.628   7.468   9.103 -1.3659 -2.0529 -0.1739
14572SOL    HW246994   4.723   7.357   9.064 -0.8473 -1.0172 -1.9702
14573SOL     OW46995   8.651   6.247   5.261  0.3353 -0.0564 -0.2945
14573SOL    HW146996   8.589   6.180   5.234  1.9269 -1.9403  0.4466
14573SOL    HW246997   8.640   6.254   5.355 -0.1004  1.0826 -0.4089
14574SOL     OW46998   2.270   9.485  11.155 -0.2193  0.1266 -0.1783
14574SOL    HW146999   2.290   9.414  11.217  1.7330  0.4158 -0.4195
14574SOL    HW247000   2.298   9.451  11.070 -0.4476  0.7307 -0.4990
14575SOL     OW47001  10.220   6.510   4.114  0.2847 -0.2159  0.0373
14575SOL    HW147002  10.302   6.462   4.125  0.0523 -0.3338  1.3295
14575SOL    HW247003  10.236   6.594   4.156 -0.0377  0.0150 -0.3015
14576SOL     OW47004   4.056   7.000   5.621  0.0822  0.2563 -0.3692
14576SOL    HW147005   4.028   6.920   5.666 -0.1542  0.4384 -0.1870
14576SOL    HW247006   4.033   7.071   5.682  0.6669  0.4330 -0.3492
14577SOL     OW47007   1.583   4.433  11.356 -1.0431 -0.2793 -0.1048
14577SOL    HW147008   1.626   4.349  11.336  0.0165 -0.0158  0.9817
14577SOL    HW247009   1.610   4.491  11.285  0.5579 -0.0807  0.6335
14578SOL     OW47010   8.954   2.650   0.517 -0.3464  0.0176 -0.0691
14578SOL    HW147011   9.045   2.641   0.491  0.2353  0.5069  1.6766
14578SOL    HW247012   8.912   2.693   0.442  0.7436 -0.5394 -1.0427
14579SOL     OW47013   8.765   0.609   8.772  0.3499 -0.2663 -0.8983
14579SOL    HW147014   8.770   0.529   8.721 -0.2751 -1.2005  0.4419
14579SOL    HW247015   8.840   0.605   8.831 -1.6024 -1.7194  1.6706
14580SOL     OW47016   5.216  10.856   1.889 -0.3734 -0.2990  0.8160
14580SOL    HW147017   5.169  10.859   1.805 -1.2916 -0.2607  1.3157
14580SOL    HW247018   5.303  10.824   1.867 -0.1993  0.8816 -0.3315
14581SOL     OW47019  11.349   8.162   3.419 -0.8184 -0.5005 -0.0021
14581SOL    HW147020  11.370   8.072   3.444 -1.4155 -0.5531  0.3153
14581SOL    HW247021  11.325   8.156   3.326 -0.7017 -0.6405 -0.0232
14582SOL     OW47022   2.385  10.993   6.603 -0.5012  0.0214 -0.3722
14582SOL    HW147023   2.362  11.065   6.662  0.0440  0.4958 -0.7245
14582SOL    HW247024   2.398  10.918   6.661  1.1848  0.7519  0.2806
14583SOL     OW47025   4.050   1.054   3.494  0.6062  0.6239 -0.0296
14583SOL    HW147026   3.976   1.090   3.445 -1.2221 -2.5272  0.1769
14583SOL    HW247027   4.105   1.012   3.428 -0.4357 -1.2685  0.2480
14584SOL     OW47028   1.020  10.242   7.104 -0.8194  0.0466  0.1205
14584SOL    HW147029   1.103  10.285   7.124  0.7058 -2.1367 -1.2248
14584SOL    HW247030   0.967  10.311   7.065  0.0539  1.6573  1.6164
14585SOL     OW47031   6.449   6.027   2.801 -0.3455 -0.2277 -0.1887
14585SOL    HW147032   6.396   5.955   2.835 -1.0355  1.3074  2.1243
14585SOL    HW247033   6.388   6.099   2.788  0.9943  1.4998  2.2848
14586SOL     OW47034  11.012   5.821  10.847 -0.0768 -0.1974 -0.3153
14586SOL    HW147035  10.947   5.853  10.910  1.5504 -0.2309  1.4477
14586SOL    HW247036  10.979   5.735  10.821 -0.7447 -0.2107  0.5262
14587SOL     OW47037   1.947  10.532   4.636  0.2831  0.7571  0.4130
14587SOL    HW147038   1.869  10.532   4.580 -0.2971 -1.5762  1.1114
14587SOL    HW247039   2.020  10.530   4.574 -0.3264 -0.8068 -0.3066
14588SOL     OW47040   2.766   9.624   8.134 -0.7806 -0.1394  0.1447
14588SOL    HW147041   2.676   9.606   8.107 -1.1087 -1.2971  1.8152
14588SOL    HW247042   2.757   9.660   8.223  0.4300 -0.8556  0.5810
14589SOL     OW47043   1.813   8.250   6.670 -0.3498 -0.2581  0.0872
14589SOL    HW147044   1.764   8.332   6.668 -1.1830 -0.7423  0.3213
14589SOL    HW247045   1.845   8.243   6.760  1.3590  0.7421 -0.4061
14590SOL     OW47046   7.836   6.360  10.399 -0.5872 -0.0352 -0.2294
14590SOL    HW147047   7.905   6.398  10.453 -0.0895 -0.7744 -0.3369
14590SOL    HW247048   7.756   6.374  10.449 -0.1174 -0.8470  0.7859
14591SOL     OW47049   3.152   4.229   5.163 -0.1361  0.2143 -0.3425
14591SOL    HW147050   3.176   4.145   5.203  1.4558  0.9976  0.4648
14591SOL    HW247051   3.200   4.231   5.081  0.6506  0.7268  0.1099
14592SOL     OW47052   0.210   0.649   9.025 -0.6205 -0.2885 -0.1778
14592SOL    HW147053   0.171   0.610   8.946 -1.6658 -0.0219  0.1906
14592SOL    HW247054   0.296   0.679   8.996 -0.0280 -2.2819 -0.6293
14593SOL     OW47055   1.727  10.282   0.971 -0.1998 -0.4978 -0.1836
14593SOL    HW147056   1.722  10.377   0.981 -0.5611 -0.4925 -0.4267
14593SOL    HW247057   1.680  10.263   0.890  1.0307 -0.7515 -0.8672
14594SOL     OW47058   8.273   0.529   3.340  0.2947 -0.4709  0.2644
14594SOL    HW147059   8.354   0.491   3.306 -0.2172 -0.6572 -0.7826
14594SOL    HW247060   8.215   0.454   3.354 -0.2609 -0.2084 -0.5597
14595SOL     OW47061   4.289   4.349   0.844  0.3153  0.2039 -0.5214
14595SOL    HW147062   4.196   4.330   0.859  0.4866 -0.2149  0.0227
14595SOL    HW247063   4.333   4.315   0.921  0.6703  2.6057  0.4044
14596SOL     OW47064   4.860   1.124   7.860  0.1045  0.0139  0.1191
14596SOL    HW147065   4.816   1.060   7.915 -0.1923 -0.5315 -0.7452
14596SOL    HW247066   4.819   1.208   7.882  0.0974 -0.1748  0.8345
14597SOL     OW47067   6.511   0.832  10.113 -0.2196  0.7639  0.5363
14597SOL    HW147068   6.457   0.837  10.035  0.3255 -2.1226 -0.1190
14597SOL    HW247069   6.596   0.800  10.082  0.9871  2.3901  1.9430
14598SOL     OW47070   8.728  10.041  11.379  0.2297 -0.2839 -0.0786
14598SOL    HW147071   8.720  10.116  11.438 -1.5991 -0.6993  0.2603
14598SOL    HW247072   8.728   9.965  11.436 -0.9064 -0.6629 -0.5659
14599SOL     OW47073   7.272  10.106  10.249  0.8940 -0.3447 -0.1614
14599SOL    HW147074   7.201  10.070  10.197  0.2795  1.3447 -0.5343
14599SOL    HW247075   7.306  10.179  10.197  0.3243  1.3325  1.6983
14600SOL     OW47076  10.143   3.251   2.016 -0.4650 -0.1252  0.1772
14600SOL    HW147077  10.085   3.306   2.070 -1.6385 -0.2700 -0.8908
14600SOL    HW247078  10.113   3.162   2.032  1.3055 -0.4967  1.7482
14601SOL     OW47079   1.511   8.170   4.301 -0.2739 -0.5585  0.2502
14601SOL    HW147080   1.427   8.205   4.329 -0.8634  0.2119 -2.2582
14601SOL    HW247081   1.548   8.237   4.244  1.3289 -1.5628  0.0383
14602SOL     OW47082   9.745   2.822   0.010 -0.6113 -0.0474 -0.3177
14602SOL    HW147083   9.746   2.918   0.010 -0.5993  0.0117 -2.7508
14602SOL    HW247084   9.652   2.800   0.019 -0.5501  0.1388  0.9973
14603SOL     OW47085   3.172   6.041   7.436  0.5960  0.5785 -0.1604
14603SOL    HW147086   3.149   5.986   7.361  0.4818 -0.3041  0.5095
14603SOL    HW247087   3.267   6.034   7.443  0.6347  0.8597 -0.3630
14604SOL     OW47088  11.292   7.615   6.368 -0.0436  0.0281 -0.5057
14604SOL    HW147089  11.305   7.708   6.388 -1.1078 -0.1213  1.1193
14604SOL    HW247090  11.201   7.599   6.392 -0.2827 -1.1407 -2.0888
14605SOL     OW47091   3.929   5.109   1.600 -0.6433  0.0607 -0.1924
14605SOL    HW147092   3.956   5.172   1.533 -0.5692  0.0189 -0.2018
14605SOL    HW247093   3.903   5.163   1.675  0.3550  0.0744  0.1537
14606SOL     OW47094   9.423   0.356   0.521 -0.7228 -0.2780 -0.0611
14606SOL    HW147095   9.461   0.274   0.552 -3.0165 -1.3207  0.1498
14606SOL    HW247096   9.386   0.335   0.435 -0.5692  0.7812 -0.4046
14607SOL     OW47097   5.098   9.069   8.876  0.3654 -0.5242 -0.3825
14607SOL    HW147098   5.021   9.012   8.875  0.9366 -1.3061 -0.7668
14607SOL    HW247099   5.076   9.138   8.938 -0.7488 -0.5904 -0.6770
14608SOL     OW47100   1.060   0.785   3.204  0.9520 -0.4954  0.7987
14608SOL    HW147101   1.150   0.817   3.211  0.8586 -0.4317  2.0107
14608SOL    HW247102   1.066   0.693   3.230  0.8103 -0.7439 -0.0463
14609SOL     OW47103   6.007   1.678   9.516 -0.2949 -0.4811  0.0913
14609SOL    HW147104   6.082   1.677   9.456 -0.7297 -0.8293 -0.4596
14609SOL    HW247105   6.022   1.605   9.575 -0.9765 -1.5696 -1.0245
14610SOL     OW47106   1.303   0.399   4.150  0.5375 -0.1603  0.1112
14610SOL    HW147107   1.232   0.458   4.122 -0.0282 -1.3703 -1.1099
14610SOL    HW247108   1.262   0.341   4.214  1.0139  0.5403  1.0729
14611SOL     OW47109   2.008  11.016  10.874 -0.4271  0.3515  0.0201
14611SOL    HW147110   1.927  11.040  10.920 -0.5676  1.4035 -0.7428
14611SOL    HW247111   1.979  10.975  10.793 -0.2036  0.5026 -0.1401
14612SOL     OW47112   0.236   2.015   4.664 -0.0603 -0.2533  0.0723
14612SOL    HW147113   0.195   1.955   4.601  1.1309  0.0025 -0.9968
14612SOL    HW247114   0.329   2.012   4.643  0.4276 -0.3918  2.0636
14613SOL     OW47115   4.869   5.718   4.786  0.6112  0.1927 -0.1346
14613SOL    HW147116   4.895   5.626   4.781  2.4767  0.7192 -0.7317
14613SOL    HW247117   4.872   5.749   4.695 -1.7008  0.4413 -0.1834
14614SOL     OW47118   5.215   5.311  10.315  0.3496  0.4875 -0.1843
14614SOL    HW147119   5.274   5.272  10.380 -1.4102 -1.0270  0.5944
14614SOL    HW247120   5.224   5.405  10.328  2.3025  0.3011  0.1402
14615SOL     OW47121   1.665   8.155   9.288 -0.3920 -0.2762  0.4820
14615SOL    HW147122   1.754   8.177   9.319 -0.9605  2.1374  0.6186
14615SOL    HW247123   1.619   8.128   9.367 -0.3307  0.5349  0.8094
14616SOL     OW47124   4.915   3.364   5.784 -0.4718  0.0184  0.1464
14616SOL    HW147125   4.887   3.455   5.791 -0.4742  0.2437 -2.0619
14616SOL    HW247126   4.994   3.367   5.730  1.0516 -1.0841  2.1792
14617SOL     OW47127   3.731   0.646   7.613  0.0684 -0.4285  0.5229
14617SOL    HW147128   3.681   0.580   7.567  2.2474 -0.3288 -2.2432
14617SOL    HW247129   3.821   0.612   7.614  1.0636  1.9514 -0.0560
14618SOL     OW47130  10.143   3.026   6.815 -0.4784 -0.4519 -0.3869
14618SOL    HW147131  10.219   3.051   6.867 -1.6720  2.4699  0.1142
14618SOL    HW247132  10.109   2.947   6.858  0.4096  0.0644  1.3337
14619SOL     OW47133   6.107   8.310   2.170 -0.1849 -0.9672  0.0467
14619SOL    HW147134   6.082   8.383   2.226 -2.6032 -0.1525 -1.8778
14619SOL    HW247135   6.187   8.338   2.127 -0.9078  0.4943 -0.4298
14620SOL     OW47136   1.977   3.856   9.606 -0.7990  0.3429 -0.0608
14620SOL    HW147137   2.048   3.860   9.670  0.4422 -1.5194 -1.2210
14620SOL    HW247138   1.946   3.765   9.610  0.1244 -0.1789 -2.8418
14621SOL     OW47139   6.261  10.075   1.944  0.8566 -0.4007 -0.6963
14621SOL    HW147140   6.299  10.004   1.996  0.3022 -0.1991  0.0085
14621SOL    HW247141   6.316  10.151   1.962  0.9440 -0.4444 -0.7775
14622SOL     OW47142   8.778  11.213   0.997 -0.2713 -0.0070  0.1743
14622SOL    HW147143   8.786  11.264   1.077  0.1026 -0.5803  0.5121
14622SOL    HW247144   8.790  11.276   0.926  0.5139  0.3207  0.5888
14623SOL     OW47145   6.932   3.216   5.434 -0.3249 -0.3427 -0.3504
14623SOL    HW147146   6.874   3.228   5.509  3.2931  2.4599  2.4064
14623SOL    HW247147   6.907   3.286   5.374  0.0369  0.7705  0.7532
14624SOL     OW47148   8.964   8.696   3.885  0.4002 -0.0099 -0.4133
14624SOL    HW147149   8.913   8.776   3.868 -1.2685 -1.2844 -1.8078
14624SOL    HW247150   8.942   8.673   3.975 -2.3147 -0.9700 -1.2097
14625SOL     OW47151   0.675   7.126   6.559 -0.6366 -0.5115  0.1046
14625SOL    HW147152   0.716   7.119   6.645  1.3326 -2.5033 -0.9060
14625SOL    HW247153   0.651   7.036   6.536 -1.5993  0.0452 -1.2439
14626SOL     OW47154   6.172   8.877   7.626  0.3289 -0.0689  0.0923
14626SOL    HW147155   6.151   8.784   7.623  2.3065 -0.5450 -0.3226
14626SOL    HW247156   6.246   8.887   7.566 -0.8309  2.0817 -1.1153
14627SOL     OW47157   8.195   0.741   7.766  0.4579 -0.0297  0.1219
14627SOL    HW147158   8.236   0.751   7.680 -1.8221  2.4897 -0.8108
14627SOL    HW247159   8.170   0.649   7.770  1.5392 -0.4330 -1.4466
14628SOL     OW47160   6.243   2.474   8.935  0.0335 -0.5893 -0.2583
14628SOL    HW147161   6.196   2.400   8.973 -0.3714 -0.6831 -0.9144
14628SOL    HW247162   6.332   2.441   8.920  0.6442 -0.0708  2.0049
14629SOL     OW47163   7.846   0.794  10.887  0.2826 -0.2817 -0.4690
14629SOL    HW147164   7.761   0.833  10.867 -0.2392 -0.4983  1.1890
14629SOL    HW247165   7.849   0.716  10.832 -0.7605 -0.4747 -0.2832
14630SOL     OW47166   6.520   9.230   8.706 -0.1355 -0.5517 -0.1608
14630SOL    HW147167   6.562   9.314   8.693 -0.1391 -0.6195 -0.6264
14630SOL    HW247168   6.592   9.167   8.712 -0.1354 -0.5277  0.1090
14631SOL     OW47169   0.678   5.923   5.520 -0.0157  0.1315 -0.4948
14631SOL    HW147170   0.747   5.940   5.456 -0.3039 -0.8323 -1.0917
14631SOL    HW247171   0.691   5.988   5.589 -0.6118  2.1664 -2.2236
14632SOL     OW47172  11.257   8.401  10.839 -0.1139  0.1987  0.0652
14632SOL    HW147173  11.227   8.486  10.872 -1.3915 -0.4743  0.7302
14632SOL    HW247174  11.320   8.423  10.770 -1.9435  1.7301 -1.2340
14633SOL     OW47175   2.981   7.344   2.265  0.0928 -0.2779  0.3529
14633SOL    HW147176   2.891   7.365   2.242 -0.1991 -0.5560  1.1959
14633SOL    HW247177   2.990   7.251   2.243  0.3827 -0.0866 -0.3516
14634SOL     OW47178  10.578   6.788   8.356 -0.6199  0.0079 -0.5239
14634SOL    HW147179  10.602   6.820   8.269  1.0993  0.9453  0.2424
14634SOL    HW247180  10.581   6.865   8.412  1.0054 -0.9934  0.8678
14635SOL     OW47181   3.471   9.369   7.755  0.0426  0.0727 -0.3151
14635SOL    HW147182   3.462   9.407   7.843  1.0137 -2.1120  0.7905
14635SOL    HW247183   3.565   9.359   7.743 -0.1455 -0.8985 -1.0587
14636SOL     OW47184   4.359  10.880   2.381 -0.4156  0.8063  0.2143
14636SOL    HW147185   4.277  10.834   2.367  0.9919 -1.7491 -0.2025
14636SOL    HW247186   4.386  10.908   2.293  0.3714 -0.6514 -0.0381
14637SOL     OW47187   3.637   4.965  10.389 -0.0387 -0.4083  0.2645
14637SOL    HW147188   3.713   4.909  10.378  1.5619  1.3619  1.7148
14637SOL    HW247189   3.672   5.054  10.390 -2.0600  0.4397  1.3731
14638SOL     OW47190   2.291  10.120  10.359  0.2285 -0.2338 -0.5582
14638SOL    HW147191   2.290  10.090  10.450 -0.3694 -0.9258 -0.7890
14638SOL    HW247192   2.199  10.123  10.333  0.4255 -0.7956 -1.3759
14639SOL     OW47193   4.115  11.286   9.509 -0.2398 -0.3460  0.4456
14639SOL    HW147194   4.098  11.355   9.445 -2.1654 -1.2280 -0.0786
14639SOL    HW247195   4.066  11.312   9.587  0.1341 -0.4470  0.7152
14640SOL     OW47196   4.313   6.865   5.750  0.3188 -0.8313 -0.1230
14640SOL    HW147197   4.333   6.876   5.843  1.0530 -0.9689 -0.2605
14640SOL    HW247198   4.373   6.796   5.721  1.1295  0.2192 -1.0360
14641SOL     OW47199  10.039   5.950   4.231 -0.2804 -0.0158  0.4793
14641SOL    HW147200  10.074   5.861   4.219 -0.8366 -0.0946 -0.6717
14641SOL    HW247201  10.059   5.971   4.323  1.2797 -0.6958  0.3268
14642SOL     OW47202   3.963   9.209   1.743 -0.1642  0.0356  0.5045
14642SOL    HW147203   3.909   9.159   1.803 -0.4500  0.6388  0.7561
14642SOL    HW247204   3.974   9.294   1.785 -0.7288  0.6162 -0.4890
14643SOL     OW47205   8.230   3.109   6.574  0.3126 -0.4246 -0.5429
14643SOL    HW147206   8.291   3.156   6.632 -1.5079 -0.6849  1.7545
14643SOL    HW247207   8.270   3.116   6.487  2.2159  1.7487  0.3688
14644SOL     OW47208   6.754   0.662   3.650 -1.0693 -0.2180  0.4345
14644SOL    HW147209   6.797   0.709   3.578  0.9539 -2.0437  0.3177
14644SOL    HW247210   6.661   0.662   3.627 -1.4158  4.3550  0.9251
14645SOL     OW47211   5.855   5.073  10.744  0.1453 -0.3315  0.0919
14645SOL    HW147212   5.852   4.977  10.747  0.2390 -0.3255  0.4044
14645SOL    HW247213   5.874   5.099  10.834  0.5542 -0.0314 -0.0823
14646SOL     OW47214   1.468   2.164   0.328  0.6711 -0.1080 -0.5125
14646SOL    HW147215   1.554   2.206   0.323  0.1978  0.8990 -0.3829
14646SOL    HW247216   1.430   2.174   0.241  0.2685  0.3666 -0.2878
14647SOL     OW47217  10.510   1.586   7.701  0.3407 -0.5003 -0.1401
14647SOL    HW147218  10.583   1.648   7.710 -0.9904  1.0206  0.7664
14647SOL    HW247219  10.535   1.511   7.754  1.4129 -0.1880 -0.1738
14648SOL     OW47220   7.811   8.904   8.703 -0.1198  1.2159  0.5502
14648SOL    HW147221   7.821   8.995   8.730 -0.2737  0.2933  4.4123
14648SOL    HW247222   7.846   8.854   8.777 -2.5472 -1.8491 -0.1422
14649SOL     OW47223   1.683  10.627   4.520 -0.8220 -0.2637  0.5453
14649SOL    HW147224   1.696  10.718   4.493  2.0411 -0.2528  1.5217
14649SOL    HW247225   1.630  10.588   4.452 -1.5715  1.9811 -0.2313
14650SOL     OW47226   0.815   7.147   1.551 -0.4068  0.2033  0.9564
14650SOL    HW147227   0.872   7.109   1.484 -1.1270 -0.9200  0.9554
14650SOL    HW247228   0.868   7.146   1.631  0.5418  1.7741  0.3860
14651SOL     OW47229   7.350   8.210   6.954 -0.0393 -0.0131 -0.3542
14651SOL    HW147230   7.288   8.181   6.887 -1.0501  0.7593  0.2212
14651SOL    HW247231   7.366   8.133   7.007  0.5608 -0.5651 -1.3160
14652SOL     OW47232   4.934   1.528   9.257  0.0703  0.2213 -0.2226
14652SOL    HW147233   4.845   1.509   9.227  0.0969 -1.5053  0.6872
14652SOL    HW247234   4.922   1.567   9.343  0.2191 -2.0541  0.8823
14653SOL     OW47235   7.111   8.908   9.392 -0.1110  0.0586  0.4207
14653SOL    HW147236   7.181   8.852   9.426  0.7406  1.4476  1.0325
14653SOL    HW247237   7.086   8.962   9.467 -1.0427  0.3774 -0.1069
14654SOL     OW47238   2.814   6.896   3.965  0.8265 -0.6190 -0.1150
14654SOL    HW147239   2.761   6.818   3.984  0.6474 -0.3259  0.6072
14654SOL    HW247240   2.751   6.963   3.942  0.9467 -0.5447 -0.2248
14655SOL     OW47241   0.227   5.608   9.914  0.6222 -0.0392 -0.4388
14655SOL    HW147242   0.171   5.666   9.966  1.1717  0.7626 -0.7124
14655SOL    HW247243   0.184   5.603   9.828 -1.1660 -2.6727  0.5055
14656SOL     OW47244   4.250   4.109   1.229  0.1349  0.1769  0.0164
14656SOL    HW147245   4.260   4.138   1.319 -0.0727  2.1479 -0.5453
14656SOL    HW247246   4.171   4.153   1.198  0.5691  0.0691 -1.3126
14657SOL     OW47247   2.882   8.682   6.335 -0.1726 -0.5778  0.6678
14657SOL    HW147248   2.820   8.688   6.262  1.1019  0.1801 -0.3938
14657SOL    HW247249   2.967   8.706   6.297  0.3733  0.8490  2.6284
14658SOL     OW47250   1.647   4.768   3.594  0.1059 -0.4622  0.2687
14658SOL    HW147251   1.662   4.726   3.509  0.7729  0.0320  0.1344
14658SOL    HW247252   1.634   4.695   3.655  0.9348 -0.8646 -0.0189
14659SOL     OW47253   5.503   0.997   3.420 -0.0236  0.6257 -0.3067
14659SOL    HW147254   5.535   1.003   3.330 -1.1799 -1.2098 -0.8811
14659SOL    HW247255   5.518   0.906   3.445  0.5475  1.1750  1.4847
14660SOL     OW47256   7.590   8.860   7.238 -0.3747  0.0752  0.0534
14660SOL    HW147257   7.514   8.813   7.204  0.1473  1.1323 -2.8969
14660SOL    HW247258   7.625   8.802   7.306 -0.7005 -3.0826 -2.2087
14661SOL     OW47259   8.672   5.731  10.665  0.2283  0.1999 -0.2894
14661SOL    HW147260   8.761   5.707  10.691  0.8042  3.0712  0.6699
14661SOL    HW247261   8.684   5.793  10.593 -1.0194  0.4215 -0.3309
14662SOL     OW47262  11.066   0.279   2.996 -0.1063  0.2552 -0.0416
14662SOL    HW147263  11.122   0.356   3.004  0.5232  0.0030 -1.6746
14662SOL    HW247264  11.126   0.204   3.001 -0.6890 -0.1582  1.3598
14663SOL     OW47265   3.041   6.477   7.004 -0.1115 -0.3863  0.2101
14663SOL    HW147266   3.066   6.439   6.920 -1.3166 -0.4258 -0.1476
14663SOL    HW247267   3.083   6.421   7.069 -1.1160 -1.8265 -0.3271
14664SOL     OW47268   7.925   0.080   6.227 -0.0101  0.2344 -0.5152
14664SOL    HW147269   7.982   0.002   6.223  0.3578  0.2562  2.2364
14664SOL    HW247270   7.985   0.154   6.222 -0.1102  0.3007 -0.7304
14665SOL     OW47271   5.567   9.699  10.109  0.0033 -0.5566  0.3518
14665SOL    HW147272   5.634   9.694  10.177 -0.7251  0.6077  1.1993
14665SOL    HW247273   5.609   9.747  10.038  0.0637  0.2676  0.9224
14666SOL     OW47274   3.831   2.470   3.009 -0.4561 -0.2500  0.3631
14666SOL    HW147275   3.773   2.533   3.053 -0.8298 -1.0079  0.9930
14666SOL    HW247276   3.792   2.458   2.922 -1.4687 -0.9834  0.8825
14667SOL     OW47277   6.271   1.662   5.748 -0.2787 -0.8905 -0.1753
14667SOL    HW147278   6.200   1.618   5.795 -0.6172 -0.0688  0.1010
14667SOL    HW247279   6.293   1.602   5.677 -0.3481 -1.7585  0.5091
14668SOL     OW47280   7.698   0.658   8.212 -0.5331 -0.3701 -0.3286
14668SOL    HW147281   7.720   0.611   8.293  0.2291  1.7909  0.8065
14668SOL    HW247282   7.767   0.723   8.203 -1.9176  1.0243 -1.3929
14669SOL     OW47283   3.066   9.211   2.710 -0.1946  0.2469  0.1985
14669SOL    HW147284   2.985   9.213   2.762  0.0138 -0.5118  0.5704
14669SOL    HW247285   3.039   9.172   2.627 -0.0398 -0.8882  0.6635
14670SOL     OW47286   2.757   9.832   1.216  0.1031 -0.0372 -0.0696
14670SOL    HW147287   2.675   9.848   1.170  0.0887  1.0872  0.3084
14670SOL    HW247288   2.761   9.737   1.227 -0.6217 -0.1931 -1.0368
14671SOL     OW47289   1.435   2.703   0.227  0.1105  0.0135  0.2440
14671SOL    HW147290   1.365   2.640   0.244  0.2149  0.5004  2.8956
14671SOL    HW247291   1.389   2.785   0.205 -0.3326  0.7230  3.3670
14672SOL     OW47292   2.969   0.457   1.346  0.0882  0.2979  0.2414
14672SOL    HW147293   2.875   0.476   1.341 -0.5335 -2.0986  1.2101
14672SOL    HW247294   3.000   0.510   1.420 -0.4512  1.1821 -0.1490
14673SOL     OW47295   7.785   2.181   3.119  0.1269 -0.3504  0.2394
14673SOL    HW147296   7.723   2.113   3.145  1.6724 -2.2196 -0.6893
14673SOL    HW247297   7.853   2.179   3.187 -0.5838  1.4158  1.0553
14674SOL     OW47298   5.363   0.735   8.737 -0.6096  0.2840  1.1006
14674SOL    HW147299   5.302   0.801   8.704  0.3261  0.4903 -0.3012
14674SOL    HW247300   5.308   0.660   8.758 -1.3256  0.3221 -0.4995
14675SOL     OW47301   6.593   5.729   7.462 -0.4537 -0.3235 -0.0189
14675SOL    HW147302   6.533   5.672   7.510 -1.1653 -0.5852 -1.1618
14675SOL    HW247303   6.543   5.757   7.385  1.4410 -2.0526 -2.0267
14676SOL     OW47304   2.895   5.730   9.400 -0.0355  0.1512  0.5947
14676SOL    HW147305   2.912   5.639   9.376  0.8937  0.4875 -0.0706
14676SOL    HW247306   2.951   5.746   9.476 -1.2850 -0.2415  1.6340
14677SOL     OW47307  10.030   3.109   8.406  0.0604  0.0552 -0.0256
14677SOL    HW147308  10.121   3.081   8.415  0.8348  2.6383  1.2894
14677SOL    HW247309  10.012   3.102   8.312  1.5104 -0.7809 -0.2751
14678SOL     OW47310   2.008  10.167   2.650 -0.2373  0.4861 -0.0760
14678SOL    HW147311   2.064  10.092   2.670 -1.9153 -0.3315  1.9379
14678SOL    HW247312   1.970  10.146   2.565 -0.1979 -0.6652  0.1685
14679SOL     OW47313   4.385   9.400   4.333 -0.1388  0.0142 -0.6182
14679SOL    HW147314   4.466   9.430   4.372 -0.7107 -1.0574  1.5690
14679SOL    HW247315   4.402   9.308   4.309 -0.9535 -0.5198  0.7575
14680SOL     OW47316   0.741   2.602   6.262 -0.5627 -0.1441 -0.5612
14680SOL    HW147317   0.705   2.684   6.228  0.4991  0.2606 -0.7459
14680SOL    HW247318   0.779   2.558   6.186  3.2081  1.4797  0.1427
14681SOL     OW47319   3.731   8.424   6.584  0.0273 -0.0056 -0.2697
14681SOL    HW147320   3.815   8.455   6.551 -0.3425  0.3274 -0.9115
14681SOL    HW247321   3.699   8.363   6.517  0.6319 -1.6464  0.8552
14682SOL     OW47322   2.588   9.015   7.462 -0.4920 -0.4537  0.1518
14682SOL    HW147323   2.629   8.938   7.424  1.0325 -0.4785  1.6737
14682SOL    HW247324   2.554   8.985   7.547 -0.2006  0.4414  0.6033
14683SOL     OW47325   6.138   7.645   2.740  0.5845  0.3477 -0.0268
14683SOL    HW147326   6.181   7.640   2.654 -0.3213  0.9731 -0.5357
14683SOL    HW247327   6.184   7.716   2.786  2.4527 -1.3190  0.8456
14684SOL     OW47328   5.973   8.746   8.593  0.0816  0.2565 -0.2999
14684SOL    HW147329   5.879   8.750   8.578  0.1510  0.1029 -0.7698
14684SOL    HW247330   5.985   8.782   8.681 -0.5515 -0.9554  0.2977
14685SOL     OW47331   8.323   5.928  10.368  0.1871 -0.5106  0.5976
14685SOL    HW147332   8.288   5.991  10.431 -0.1403 -1.1566  1.0695
14685SOL    HW247333   8.246   5.886  10.330  0.4046 -0.6469  0.3020
14686SOL     OW47334   7.763   3.798   2.497  0.0879 -0.1622 -0.5199
14686SOL    HW147335   7.770   3.880   2.448  1.1909  1.2252  1.7654
14686SOL    HW247336   7.679   3.804   2.543  0.4933  0.0621  0.2158
14687SOL     OW47337  11.393   8.278   6.454 -0.1271 -0.1262 -0.2995
14687SOL    HW147338  11.476   8.312   6.487 -0.2359  1.3467 -1.4452
14687SOL    HW247339  11.362   8.219   6.523  2.6978 -2.1132 -0.5738
14688SOL     OW47340   1.802   1.225   3.977  0.8089 -0.4202 -0.3202
14688SOL    HW147341   1.801   1.131   3.995  0.6248 -0.2788  0.4523
14688SOL    HW247342   1.710   1.248   3.962  0.7368 -0.2182  0.3608
14689SOL     OW47343   3.560   1.225   2.938  0.1636  0.6848 -0.6137
14689SOL    HW147344   3.509   1.146   2.955 -1.0181  1.3611 -0.9021
14689SOL    HW247345   3.561   1.233   2.842 -0.9899  1.7977 -0.5544
14690SOL     OW47346   1.312   4.238   2.703 -0.1467 -0.4673 -0.2616
14690SOL    HW147347   1.400   4.207   2.724 -0.0873 -0.1735 -0.0651
14690SOL    HW247348   1.281   4.180   2.634  0.6311  0.1060 -1.1200
14691SOL     OW47349   3.495   8.892   4.213 -0.1992 -0.5488  0.0827
14691SOL    HW147350   3.485   8.958   4.282 -1.9954 -0.1133 -0.5419
14691SOL    HW247351   3.484   8.941   4.131  2.5854 -0.9352 -0.6239
14692SOL     OW47352   4.437   0.220   9.199  0.2246  0.1031  0.1141
14692SOL    HW147353   4.370   0.285   9.218 -0.2970 -0.4853  0.3174
14692SOL    HW247354   4.473   0.198   9.285 -0.1955 -0.5012  0.1392
14693SOL     OW47355   0.915   4.922   8.498  0.0975 -0.1496 -0.8817
14693SOL    HW147356   0.938   4.858   8.565  0.4428  1.5269  0.6937
14693SOL    HW247357   0.824   4.944   8.516  0.3940  0.8197 -0.4745
14694SOL     OW47358   2.151   9.392   8.138 -0.0710 -0.1179  0.1448
14694SOL    HW147359   2.079   9.334   8.112  0.7013 -0.6798 -0.8177
14694SOL    HW247360   2.164   9.372   8.231 -1.3435  0.2164  0.4161
14695SOL     OW47361   6.793  10.849  11.156  0.3555  0.0396  0.0916
14695SOL    HW147362   6.729  10.891  11.098 -0.9485  0.2759  1.6184
14695SOL    HW247363   6.878  10.868  11.116 -0.4152  1.1780 -1.0991
14696SOL     OW47364   6.757  10.529  11.073  0.3544 -0.0669  0.5829
14696SOL    HW147365   6.688  10.580  11.116  0.5210  1.6701 -1.0664
14696SOL    HW247366   6.810  10.494  11.144 -0.8168  0.5950  1.8212
14697SOL     OW47367   7.339   0.000  10.314 -0.2916 -0.4847 -0.5952
14697SOL    HW147368   7.384  -0.074  10.274  1.9409 -0.0836  0.9501
14697SOL    HW247369   7.377   0.007  10.401 -0.3244  2.4860 -0.6878
14698SOL     OW47370   1.660   4.408   1.458 -0.0100 -0.1772 -0.0041
14698SOL    HW147371   1.675   4.481   1.398  0.4296 -0.4113 -0.1839
14698SOL    HW247372   1.692   4.441   1.543  1.7419 -0.7205 -0.4117
14699SOL     OW47373   1.989   3.010   6.906 -0.3640  0.0959  0.1308
14699SOL    HW147374   2.078   2.976   6.890 -0.3500 -0.2750  0.9508
14699SOL    HW247375   1.988   3.095   6.862  0.8570  0.7262  1.2700
14700SOL     OW47376  11.047   3.478  10.194  0.2182  0.2289 -0.2084
14700SOL    HW147377  10.954   3.491  10.175  0.2798 -0.7658 -1.3021
14700SOL    HW247378  11.067   3.543  10.261 -0.2122  3.5128 -2.9867
14701SOL     OW47379   9.151   2.195   1.569 -0.4119 -0.5369  0.4627
14701SOL    HW147380   9.143   2.123   1.631  0.2142 -1.7248 -0.7967
14701SOL    HW247381   9.186   2.268   1.621  0.2709 -1.5496  1.4626
14702SOL     OW47382   9.526   0.442   7.836  0.0731  0.1349  0.0943
14702SOL    HW147383   9.501   0.436   7.928  0.8487 -0.5716  0.2707
14702SOL    HW247384   9.584   0.518   7.833  1.4876 -0.8758  0.5578
14703SOL     OW47385   7.007   8.849   1.653  0.1415  0.5092 -0.1084
14703SOL    HW147386   7.048   8.927   1.616  1.3221  0.2054  0.5117
14703SOL    HW247387   6.970   8.878   1.737 -0.8907  0.7675 -0.6380
14704SOL     OW47388   9.306   2.668   6.472  0.0017 -0.2495 -0.2295
14704SOL    HW147389   9.382   2.687   6.527  0.1462 -1.2078 -0.0829
14704SOL    HW247390   9.283   2.578   6.494  0.1062 -0.6787 -1.7967
14705SOL     OW47391   9.514   5.395   8.285  0.2341  0.1299 -0.2114
14705SOL    HW147392   9.494   5.482   8.250 -0.3795  1.2945  2.7346
14705SOL    HW247393   9.443   5.339   8.253 -0.6442  1.2496 -0.2686
14706SOL     OW47394   4.578   5.328   7.746  0.8843 -0.1847  0.2797
14706SOL    HW147395   4.629   5.258   7.705  1.9018  2.0762 -2.6546
14706SOL    HW247396   4.495   5.329   7.697  0.6338  0.2277  0.7059
14707SOL     OW47397   9.260   3.900   9.370  0.0082  0.5942  0.1496
14707SOL    HW147398   9.310   3.821   9.350  0.3961  0.7361  0.5627
14707SOL    HW247399   9.267   3.954   9.291  0.0045  0.3541 -0.0137
14708SOL     OW47400   5.258   5.168   0.736 -0.2999  0.3127 -0.4569
14708SOL    HW147401   5.209   5.161   0.818  1.8784  0.9566  0.9977
14708SOL    HW247402   5.240   5.257   0.705 -1.5323 -0.1027 -0.9797
14709SOL     OW47403   6.757   5.285  10.032  0.1072  0.4233 -0.0254
14709SOL    HW147404   6.796   5.269  10.118  0.1917  0.5853 -0.0316
14709SOL    HW247405   6.678   5.336  10.050 -1.7782 -2.3987  0.2557
14710SOL     OW47406   8.370   8.662   4.977  0.3290 -0.9059 -0.0363
14710SOL    HW147407   8.362   8.754   4.952 -0.0160 -1.0219 -0.3710
14710SOL    HW247408   8.463   8.643   4.970  0.2981 -0.8143 -0.8286
14711SOL     OW47409   8.459   2.748   0.652 -0.2584 -0.1719  0.1282
14711SOL    HW147410   8.436   2.767   0.743 -1.7781 -0.2480 -0.2046
14711SOL    HW247411   8.446   2.653   0.643  0.1342 -0.2066 -0.1068
14712SOL     OW47412   9.226   9.410   1.021 -0.1409 -0.5424  0.3915
14712SOL    HW147413   9.254   9.493   1.060 -1.0195  0.2942 -0.6765
14712SOL    HW247414   9.293   9.391   0.955  0.0131 -0.6386  0.5746
14713SOL     OW47415   6.901   7.963  10.998  0.5139  0.3230  0.1834
14713SOL    HW147416   6.907   7.872  10.970  0.3510  0.2022  0.5418
14713SOL    HW247417   6.992   7.990  11.014  0.6936  0.6191 -1.1544
14714SOL     OW47418   8.374  10.177  10.685 -0.3172 -0.2533  0.1243
14714SOL    HW147419   8.328  10.241  10.740  0.9713  0.7347  0.1141
14714SOL    HW247420   8.371  10.214  10.597  2.5370  1.1538  0.4892
14715SOL     OW47421   5.440   1.929   0.332  0.1371  0.8959  0.0136
14715SOL    HW147422   5.499   1.974   0.271  0.5426 -1.1116 -1.1690
14715SOL    HW247423   5.498   1.891   0.398 -0.0378  0.8170  0.1218
14716SOL     OW47424   8.672   1.061   0.808  0.2546 -0.1429  0.5954
14716SOL    HW147425   8.707   0.980   0.846  0.6380 -0.6131 -0.7102
14716SOL    HW247426   8.623   1.033   0.731  0.9519  0.9008 -0.2669
14717SOL     OW47427   7.006   8.904   9.854  0.3501 -0.8758  0.5959
14717SOL    HW147428   7.078   8.905   9.917 -0.3129 -0.1373  1.3783
14717SOL    HW247429   7.022   8.979   9.797  0.6160 -1.1747  0.2758
14718SOL     OW47430  11.312  10.168   5.990 -0.4734 -0.0983 -0.5532
14718SOL    HW147431  11.354  10.208   5.914  3.4870 -0.2221  1.3155
14718SOL    HW247432  11.304  10.076   5.967  2.8935 -0.6144 -0.1842
14719SOL     OW47433   9.602   9.872   3.300  0.3044  0.5332  0.2401
14719SOL    HW147434   9.528   9.841   3.352  1.4566 -0.7519  1.1745
14719SOL    HW247435   9.561   9.919   3.227 -1.4333 -0.2564  0.6402
14720SOL     OW47436  10.756   0.019   9.169  0.2422  0.4695  0.2058
14720SOL    HW147437  10.750   0.070   9.250  2.3931  0.8745  0.1800
14720SOL    HW247438  10.818   0.069   9.115 -0.6390 -0.1431 -1.4194
14721SOL     OW47439   7.068   8.479   0.200 -0.2178  0.2498  0.1790
14721SOL    HW147440   7.069   8.454   0.108 -0.0013 -1.3799  0.5765
14721SOL    HW247441   7.150   8.527   0.213  0.8142 -1.3298 -0.0740
14722SOL     OW47442   3.905   5.574   9.036  0.1059  0.0894 -0.2620
14722SOL    HW147443   3.850   5.616   8.970  1.6774  0.5961 -1.2823
14722SOL    HW247444   3.969   5.641   9.061 -0.6724  0.0575  2.1093
14723SOL     OW47445   1.230   5.388   8.503  0.1067  0.4957  0.4808
14723SOL    HW147446   1.167   5.316   8.497  1.0508 -0.2346 -1.4191
14723SOL    HW247447   1.314   5.344   8.520  0.6332  1.1741 -0.3207
14724SOL     OW47448   9.627   4.125   0.269  0.4033 -0.1385  0.0969
14724SOL    HW147449   9.605   4.203   0.320  1.5716  0.1897  0.1281
14724SOL    HW247450   9.696   4.082   0.320 -2.0379 -2.6950  1.4980
14725SOL     OW47451   0.221  10.673   6.291 -0.0133 -0.0601 -0.4584
14725SOL    HW147452   0.257  10.639   6.373 -0.6814  0.5870  0.1239
14725SOL    HW247453   0.185  10.759   6.314 -0.2793  0.1037 -1.4158
14726SOL     OW47454   5.101   3.011   1.492  0.3410  0.1537  0.1045
14726SOL    HW147455   5.167   3.013   1.562 -1.2711 -0.2550  1.7285
14726SOL    HW247456   5.042   3.084   1.512 -1.2230 -1.1013  0.3325
14727SOL     OW47457   7.206   7.499   9.439 -0.0824  0.0445  0.3066
14727SOL    HW147458   7.297   7.485   9.465  0.2258  1.2563 -0.0503
14727SOL    HW247459   7.210   7.572   9.376 -1.1093 -0.9617 -0.9981
14728SOL     OW47460   3.495   8.937   2.761 -0.6250  0.3371 -0.3032
14728SOL    HW147461   3.448   8.863   2.724  0.1566 -0.4633  0.2556
14728SOL    HW247462   3.523   8.907   2.847  0.0036  1.1526 -0.2112
14729SOL     OW47463   8.781   4.001   3.587 -0.0340 -0.3097  0.8012
14729SOL    HW147464   8.791   3.908   3.607 -1.4137 -0.3983  1.2359
14729SOL    HW247465   8.740   4.004   3.501  1.3391 -0.0466  0.1327
14730SOL     OW47466   1.852   8.098   1.453  0.1425 -0.1053  0.2617
14730SOL    HW147467   1.863   8.013   1.410  2.0791  0.4817 -0.5258
14730SOL    HW247468   1.893   8.161   1.393 -0.4439  1.2727  1.2520
14731SOL     OW47469   4.012   8.079   8.394  0.3063 -0.2698 -0.2539
14731SOL    HW147470   4.065   8.041   8.325  0.5055 -0.5023  0.0267
14731SOL    HW247471   4.041   8.170   8.400 -0.3570  0.0196 -1.1090
14732SOL     OW47472   6.033  10.229  11.097 -0.4050 -0.1602  0.3796
14732SOL    HW147473   6.030  10.321  11.123 -1.5985  0.0740 -0.4700
14732SOL    HW247474   5.994  10.228  11.009  0.2389 -1.3815  0.0902
14733SOL     OW47475   6.108  10.526   0.324 -0.0491 -0.1359 -0.4062
14733SOL    HW147476   6.057  10.569   0.393  0.2303  0.7657 -0.7388
14733SOL    HW247477   6.153  10.454   0.368 -1.2646 -0.6969 -0.0207
14734SOL     OW47478   1.737   1.330   4.983 -0.0164 -0.1625 -0.1154
14734SOL    HW147479   1.698   1.279   4.912  0.3049 -0.2961 -0.1996
14734SOL    HW247480   1.806   1.273   5.018 -0.5395 -0.3197  0.6689
14735SOL     OW47481   0.770  10.341   3.230  1.1460  0.1741  0.1428
14735SOL    HW147482   0.802  10.277   3.294 -0.9962 -1.4826 -0.3274
14735SOL    HW247483   0.815  10.319   3.149  1.9222  0.6085  0.4417
14736SOL     OW47484   3.266   4.645   4.189  0.0820  0.3377 -0.7165
14736SOL    HW147485   3.356   4.617   4.207 -0.6381 -0.5822  1.9962
14736SOL    HW247486   3.232   4.673   4.274 -2.8543 -1.4290 -1.1540
14737SOL     OW47487   7.098   6.680   1.029  0.3240  0.6066  0.2638
14737SOL    HW147488   7.099   6.613   0.960 -1.0120 -0.5561  1.3065
14737SOL    HW247489   7.191   6.702   1.041  0.6763  0.0483 -1.1380
14738SOL     OW47490  11.158   2.269  10.577 -0.2891 -0.2781 -0.4484
14738SOL    HW147491  11.236   2.321  10.560  0.1974  0.1795  2.7474
14738SOL    HW247492  11.183   2.180  10.551  0.1980  0.3516 -2.2851
14739SOL     OW47493   7.975   9.720   7.217 -0.2995  0.0097  0.0474
14739SOL    HW147494   7.925   9.801   7.223  1.1078  0.8358  1.2221
14739SOL    HW247495   8.004   9.716   7.126  0.7585  1.5707  0.2856
14740SOL     OW47496   1.567   3.617   5.932 -0.0774  0.2534  0.3484
14740SOL    HW147497   1.623   3.592   5.858 -0.3677  0.1928  0.1453
14740SOL    HW247498   1.486   3.647   5.891  0.1857  1.3410  0.5901
14741SOL     OW47499   2.009   0.542   7.565 -0.1498 -0.1827  0.6113
14741SOL    HW147500   1.956   0.467   7.594 -0.3044 -0.3620 -0.1292
14741SOL    HW247501   2.010   0.600   7.641 -1.0734 -0.3596  0.7772
14742SOL     OW47502   8.395   9.957  11.210  0.0876  0.2670  0.4979
14742SOL    HW147503   8.405  10.010  11.289 -1.2004  1.4790 -0.1004
14742SOL    HW247504   8.379  10.021  11.141 -0.6110 -0.8646 -0.4253
14743SOL     OW47505   7.587   2.362   8.626 -0.2051 -0.4150  0.1021
14743SOL    HW147506   7.650   2.300   8.661 -0.1776 -0.1781  0.4722
14743SOL    HW247507   7.502   2.326   8.650 -0.2316 -0.9510 -0.7547
14744SOL     OW47508   9.234   5.348   8.864  0.7983  0.2895 -0.4357
14744SOL    HW147509   9.215   5.387   8.779 -0.1817  0.1612 -0.2946
14744SOL    HW247510   9.174   5.393   8.924  0.7207 -0.3669 -0.0123
14745SOL     OW47511   0.956   6.877   8.248  0.3544  0.1014 -0.3176
14745SOL    HW147512   0.985   6.944   8.186  0.1164  0.3274 -0.1864
14745SOL    HW247513   1.029   6.816   8.254 -0.2630 -0.9297 -2.2175
14746SOL     OW47514  10.973  10.244   7.283  0.0057 -0.1288 -0.6781
14746SOL    HW147515  10.921  10.319   7.255 -0.0902 -0.5344 -1.6228
14746SOL    HW247516  10.961  10.241   7.378 -0.2291  0.8642 -0.6661
14747SOL     OW47517   4.662   9.677   7.814 -0.6218  0.9474  0.2125
14747SOL    HW147518   4.682   9.629   7.734 -3.4760 -0.3612  0.1631
14747SOL    HW247519   4.619   9.613   7.870 -2.9905  2.9762  0.8649
14748SOL     OW47520   0.613  10.128   0.982 -0.4208  0.0790  0.5803
14748SOL    HW147521   0.542  10.149   0.922  1.4949 -0.4104 -2.0728
14748SOL    HW247522   0.693  10.140   0.930  1.4413 -0.1260  3.1449
14749SOL     OW47523  10.040  11.147  10.987  0.1738  0.2075 -0.1966
14749SOL    HW147524  10.044  11.242  10.974  1.8831  0.1143 -0.5298
14749SOL    HW247525  10.124  11.115  10.956 -0.5168 -1.4783 -0.4228
14750SOL     OW47526   6.111   7.224   9.530  0.1816  0.3156  0.5366
14750SOL    HW147527   6.085   7.182   9.612 -0.0534 -1.1053 -0.2306
14750SOL    HW247528   6.116   7.317   9.551 -0.6272  0.0628  1.9643
14751SOL     OW47529   9.721   9.546   9.991 -0.4403  0.0931  0.3791
14751SOL    HW147530   9.727   9.457  10.026 -0.0298  0.4299  1.2035
14751SOL    HW247531   9.644   9.583  10.034 -0.6470  0.1147 -0.0103
14752SOL     OW47532   9.213   3.542   6.175  0.1778 -0.1780  0.1122
14752SOL    HW147533   9.150   3.479   6.209 -0.4721  1.4757  2.1548
14752SOL    HW247534   9.237   3.596   6.250  3.2475 -0.0413 -0.8158
14753SOL     OW47535   5.026  10.279   0.134 -0.2622 -0.0208  0.1643
14753SOL    HW147536   4.957  10.333   0.094 -0.9868  0.2446  1.6928
14753SOL    HW247537   5.006  10.190   0.106  0.2447  0.3285 -1.4073
14754SOL     OW47538   7.112   2.399  10.035  0.4603 -0.3187 -0.2418
14754SOL    HW147539   7.033   2.434   9.994 -0.2822 -0.1706  1.2783
14754SOL    HW247540   7.159   2.477  10.066  0.3168 -0.5065  0.4458
14755SOL     OW47541   5.329  10.652   6.584 -0.1595 -0.2503  0.1429
14755SOL    HW147542   5.244  10.608   6.591 -1.6088  1.4285 -4.0217
14755SOL    HW247543   5.374  10.606   6.513  3.0300 -1.7097  2.8362
14756SOL     OW47544   4.159   8.788   6.780  0.5408 -0.1240 -0.2387
14756SOL    HW147545   4.105   8.826   6.710 -1.3721 -1.5269  0.3837
14756SOL    HW247546   4.199   8.711   6.740  0.9655  0.1201 -0.2925
14757SOL     OW47547   9.418   5.032   5.469 -0.7131  0.2827  1.1203
14757SOL    HW147548   9.461   5.109   5.507  0.0150  0.5773 -0.2478
14757SOL    HW247549   9.327   5.058   5.459 -0.3694  1.1825  0.1757
14758SOL     OW47550  11.290   5.142   2.062 -0.2216 -0.9287  0.3655
14758SOL    HW147551  11.367   5.133   2.118 -0.9046 -0.4570  1.4015
14758SOL    HW247552  11.325   5.179   1.981  0.7143 -1.1840  0.6344
14759SOL     OW47553   4.964   8.258   2.288 -0.2623 -0.5517  0.0534
14759SOL    HW147554   4.998   8.271   2.199 -1.9980 -1.1118 -0.7446
14759SOL    HW247555   4.909   8.335   2.303  1.0065  0.1700  1.1772
14760SOL     OW47556   5.139   2.638   5.397 -0.3420  0.5410  0.1124
14760SOL    HW147557   5.230   2.632   5.369 -1.2610 -1.1985 -2.8510
14760SOL    HW247558   5.102   2.710   5.346 -0.6277  1.4515  1.5294
14761SOL     OW47559   3.860   4.417   2.487 -0.0199 -0.3648 -0.2691
14761SOL    HW147560   3.924   4.463   2.434 -0.7400 -1.0578 -1.7867
14761SOL    HW247561   3.776   4.457   2.463 -0.2791 -0.0771  1.0323
14762SOL     OW47562   5.404   6.770   8.054  0.5861  0.1727 -0.0977
14762SOL    HW147563   5.474   6.717   8.017  0.6920 -0.8621  1.4708
14762SOL    HW247564   5.341   6.781   7.983  0.6474 -1.9303 -0.5204
14763SOL     OW47565   1.610   7.441   8.618  0.1014  0.0781 -0.4489
14763SOL    HW147566   1.700   7.429   8.589 -0.3254  0.3987 -1.9966
14763SOL    HW247567   1.558   7.386   8.560 -0.9296  1.7861 -1.2274
14764SOL     OW47568  10.406   3.167  10.794 -0.2536  0.1002 -0.4056
14764SOL    HW147569  10.319   3.128  10.785 -0.2014  0.3607 -2.4306
14764SOL    HW247570  10.463   3.108  10.745  0.6770  0.0833  0.6761
14765SOL     OW47571   6.846   3.507   3.663  0.4605  0.3500  0.6033
14765SOL    HW147572   6.863   3.573   3.596 -0.8892  1.0950  0.9491
14765SOL    HW247573   6.926   3.454   3.667  1.3151  1.5519 -0.1563
14766SOL     OW47574   3.033   3.546  10.187 -0.0769 -0.0686 -0.6322
14766SOL    HW147575   3.102   3.527  10.251 -0.3544 -0.4363 -0.4346
14766SOL    HW247576   2.982   3.617  10.226  0.3214  0.3595 -0.8822
14767SOL     OW47577   2.213   5.227   1.175 -0.1181 -0.5306 -0.0730
14767SOL    HW147578   2.165   5.305   1.205  2.8800  1.1754  0.7447
14767SOL    HW247579   2.238   5.182   1.255 -0.3302 -1.3567 -0.4677
14768SOL     OW47580   2.977   6.134   6.158 -0.3873 -0.2811 -0.2763
14768SOL    HW147581   3.002   6.221   6.128  1.7977 -1.1717 -1.2572
14768SOL    HW247582   2.921   6.100   6.089  0.6123 -0.4800 -1.0071
14769SOL     OW47583   2.106   9.413   8.410 -0.4029  0.2453 -0.0451
14769SOL    HW147584   2.136   9.404   8.500 -1.4692 -0.8342  0.2272
14769SOL    HW247585   2.112   9.507   8.391  2.4577  0.1831  0.1968
14770SOL     OW47586   3.611   8.347   2.704 -0.1129 -0.0041 -0.7065
14770SOL    HW147587   3.560   8.335   2.784  0.7188 -1.2923 -0.3402
14770SOL    HW247588   3.624   8.442   2.697 -0.2201  0.1242  0.6675
14771SOL     OW47589   9.600  10.890   7.090  0.6763  0.0036 -0.1604
14771SOL    HW147590   9.553  10.954   7.144  2.1363  1.0981 -0.1256
14771SOL    HW247591   9.684  10.932   7.071  0.8948 -1.0959 -1.8085
14772SOL     OW47592   8.709  10.404   3.189  0.4860  0.8796  0.2628
14772SOL    HW147593   8.711  10.499   3.198 -1.5247  0.8534  1.6181
14772SOL    HW247594   8.764  10.372   3.261  0.0508  1.0140  0.6614
14773SOL     OW47595   2.018   3.502   1.717  0.6259 -0.1535  0.1533
14773SOL    HW147596   2.103   3.495   1.673  0.9275  0.5351  0.6115
14773SOL    HW247597   1.959   3.448   1.664  1.3097 -0.5079 -0.2618
14774SOL     OW47598   2.850  10.983  10.426  0.2090 -0.3767  0.1446
14774SOL    HW147599   2.925  10.930  10.399 -0.5362 -0.7363 -1.3019
14774SOL    HW247600   2.888  11.056  10.476  1.6543  0.2139 -1.7315
14775SOL     OW47601   5.248   6.887   6.065  0.3109  0.0977 -0.5878
14775SOL    HW147602   5.182   6.893   5.996 -0.4273 -0.0788  0.0847
14775SOL    HW247603   5.264   6.793   6.074 -0.9316 -0.0286  0.6879
14776SOL     OW47604   2.200   0.528   5.861 -0.0803 -0.0471 -0.0303
14776SOL    HW147605   2.219   0.521   5.955  0.1116  0.3564 -0.0362
14776SOL    HW247606   2.137   0.458   5.844  0.4227 -0.5763  0.2532
14777SOL     OW47607   0.889   4.476   3.837 -0.3765  0.3300  0.0779
14777SOL    HW147608   0.959   4.508   3.781 -0.3080  1.2157  0.6463
14777SOL    HW247609   0.811   4.525   3.808 -0.6727 -0.3317 -0.2619
14778SOL     OW47610   7.275  10.963   5.568 -0.2012  0.3852  0.1402
14778SOL    HW147611   7.230  11.019   5.504  0.2537 -1.0017 -1.4632
14778SOL    HW247612   7.288  11.019   5.644 -0.9450  2.0494 -0.9065
14779SOL     OW47613   0.010   9.797   9.026 -0.2744  0.3478 -0.0296
14779SOL    HW147614   0.084   9.761   9.076  0.0278  0.8542 -0.1061
14779SOL    HW247615   0.007   9.743   8.947 -0.3589 -0.0543  0.2479
14780SOL     OW47616   0.485   6.826   9.889 -0.0625 -0.3718  0.3082
14780SOL    HW147617   0.532   6.896   9.843 -0.4075  0.4126  1.1174
14780SOL    HW247618   0.416   6.800   9.828  0.5525 -0.5726 -0.3220
14781SOL     OW47619   1.761   4.786   9.675 -0.2153  0.0249 -0.1280
14781SOL    HW147620   1.773   4.880   9.687 -0.8851  0.1497 -0.4187
14781SOL    HW247621   1.725   4.777   9.587  0.1495 -0.5321 -0.2311
14782SOL     OW47622   1.451  10.724   9.642 -0.0707  0.4257  0.0186
14782SOL    HW147623   1.510  10.799   9.633  3.4454 -1.8129  2.1770
14782SOL    HW247624   1.407  10.740   9.726  1.2296 -0.1676  0.8491
14783SOL     OW47625   3.266   5.219   3.303 -0.5384  0.3256 -0.2894
14783SOL    HW147626   3.214   5.149   3.342  0.5427 -0.2180  0.1965
14783SOL    HW247627   3.202   5.287   3.280 -1.2871  0.4012  1.8396
14784SOL     OW47628   6.268   1.153   4.464  0.1310 -0.1967  0.1877
14784SOL    HW147629   6.247   1.242   4.436 -1.8409 -0.2919  1.2447
14784SOL    HW247630   6.361   1.143   4.442  0.0904  1.6641 -1.0806
14785SOL     OW47631   9.680   4.354  10.843 -0.0453 -0.3597  0.2103
14785SOL    HW147632   9.746   4.313  10.899  1.0650  1.0690 -0.0090
14785SOL    HW247633   9.631   4.280  10.806  0.7842 -1.4123  1.1337
14786SOL     OW47634   5.205   9.447   2.646  0.0311  0.0646  0.1251
14786SOL    HW147635   5.299   9.461   2.657 -0.0679  0.2860  0.6994
14786SOL    HW247636   5.172   9.531   2.613  0.5465 -0.9738 -3.5363
14787SOL     OW47637   8.266  10.022   2.382 -0.3266 -0.1575 -0.4921
14787SOL    HW147638   8.173  10.002   2.393 -0.4150  0.0187 -0.8995
14787SOL    HW247639   8.268  10.092   2.317  0.0843 -0.0794 -0.3978
14788SOL     OW47640   7.061   4.111   1.402 -0.6356 -0.0203 -0.0710
14788SOL    HW147641   7.104   4.184   1.358  0.2231 -0.5118 -0.0755
14788SOL    HW247642   7.006   4.151   1.469 -0.2120  0.6250 -0.1065
14789SOL     OW47643   2.706   4.714  10.866  0.1369  0.5369 -0.0314
14789SOL    HW147644   2.797   4.731  10.887  0.0351  1.2719 -0.1588
14789SOL    HW247645   2.675   4.795  10.827 -0.1644 -0.2081 -1.3843
14790SOL     OW47646   9.109   4.964  10.470  0.4524 -0.1265  0.0399
14790SOL    HW147647   9.038   5.027  10.461 -0.7868 -1.3195  1.0004
14790SOL    HW247648   9.184   5.006  10.427 -0.7970  1.2000 -0.9626
14791SOL     OW47649   6.708   5.960   5.733 -0.5454  0.0333  0.9015
14791SOL    HW147650   6.627   6.011   5.726 -0.2487  0.3637 -0.4238
14791SOL    HW247651   6.680   5.873   5.761 -1.3604  0.1447  0.4575
14792SOL     OW47652   4.163   4.670  10.948 -0.1469 -0.0931  0.2341
14792SOL    HW147653   4.087   4.638  10.998 -0.4226  0.2014  0.0113
14792SOL    HW247654   4.126   4.734  10.888  0.3276  0.2914  0.3436
14793SOL     OW47655   2.882   6.258   5.244 -0.5484  0.2405 -0.0813
14793SOL    HW147656   2.880   6.170   5.281 -0.0430  0.1476 -0.2694
14793SOL    HW247657   2.939   6.251   5.167  0.8869  1.0805  0.8607
14794SOL     OW47658   8.249   0.220   5.579  0.0914  0.1431 -0.1787
14794SOL    HW147659   8.248   0.256   5.667 -2.0561 -0.9649  0.3108
14794SOL    HW247660   8.163   0.241   5.543  0.4340 -0.5925 -1.5229
14795SOL     OW47661   0.035   2.438   6.367 -0.5815  0.1439  0.0682
14795SOL    HW147662  -0.009   2.465   6.447 -2.7665 -1.7455 -0.4216
14795SOL    HW247663   0.103   2.377   6.396 -0.0136  1.0164  0.6128
14796SOL     OW47664   3.635   2.156   9.520 -0.3541  0.1438 -0.4351
14796SOL    HW147665   3.622   2.196   9.606  3.4368 -0.1552  0.4547
14796SOL    HW247666   3.672   2.226   9.466  1.6304 -0.7495 -0.3394
14797SOL     OW47667   5.805   7.570   1.380  0.2994  0.3741  0.6865
14797SOL    HW147668   5.737   7.586   1.315  0.6336  1.6109  0.6263
14797SOL    HW247669   5.777   7.619   1.457  1.6544  1.8481  0.2894
14798SOL     OW47670   5.215   9.051   9.408  0.3012  0.1187 -0.4630
14798SOL    HW147671   5.186   9.021   9.322  2.0496  1.3326 -1.5405
14798SOL    HW247672   5.308   9.028   9.411  0.4248  0.6981  0.8263
14799SOL     OW47673   2.525   3.949   2.800  0.6405 -0.5673 -0.0799
14799SOL    HW147674   2.571   4.015   2.852 -0.1757 -0.1356  0.0953
14799SOL    HW247675   2.503   3.880   2.863  1.8837 -1.2482 -0.3414
14800SOL     OW47676   4.977   8.065   8.234  0.3959 -0.1536  0.3461
14800SOL    HW147677   4.965   7.970   8.226  0.3457 -0.0928 -0.3412
14800SOL    HW247678   4.899   8.103   8.194  1.2396  0.1960 -1.0257
14801SOL     OW47679   0.326   0.259   1.610  0.2098  0.0597 -0.0939
14801SOL    HW147680   0.299   0.169   1.629 -0.3461  0.4875  1.2762
14801SOL    HW247681   0.252   0.313   1.639  0.4459  0.9667 -1.0775
14802SOL     OW47682   9.611   3.792   7.025  0.1883  0.5206  0.7099
14802SOL    HW147683   9.553   3.865   7.001 -0.5620  0.0116  0.9221
14802SOL    HW247684   9.601   3.729   6.953 -0.1290  0.0949  1.1165
14803SOL     OW47685  10.530   0.202  10.722 -0.0957 -0.3780 -0.4007
14803SOL    HW147686  10.536   0.295  10.704 -1.2317  0.0187  1.0438
14803SOL    HW247687  10.619   0.169  10.711  0.1587  0.6896 -1.7710
14804SOL     OW47688   9.288   8.728   7.562 -0.4443 -0.2793  0.4337
14804SOL    HW147689   9.259   8.658   7.503 -0.6886  1.4909 -1.6892
14804SOL    HW247690   9.213   8.743   7.620 -1.9341  0.7409 -1.6231
14805SOL     OW47691   8.017   8.189   4.057 -0.1397  0.1677  0.5508
14805SOL    HW147692   8.008   8.150   4.144  0.6369  0.5885  0.8282
14805SOL    HW247693   8.030   8.282   4.073  4.6262 -0.2170  0.3292
14806SOL     OW47694   8.783   8.205  10.406 -0.0052 -0.3998  0.4408
14806SOL    HW147695   8.719   8.257  10.455 -0.5358  0.7781 -1.3966
14806SOL    HW247696   8.849   8.269  10.378  0.8589 -1.2304  0.5314
14807SOL     OW47697   0.436   3.217   8.603 -0.6893  0.7525  0.0293
14807SOL    HW147698   0.363   3.280   8.601 -0.7216  0.8253  1.9437
14807SOL    HW247699   0.510   3.266   8.566 -1.5928  0.6506 -2.0156
14808SOL     OW47700   5.532   0.084   1.138 -0.1460  0.2897  0.5032
14808SOL    HW147701   5.492  -0.001   1.158 -0.7042  0.0441 -1.3991
14808SOL    HW247702   5.506   0.101   1.047  0.3802  2.2660  0.6843
14809SOL     OW47703  11.211   2.835   4.303 -0.1538 -0.0919  0.4133
14809SOL    HW147704  11.150   2.761   4.306 -1.2814  0.7914  0.1226
14809SOL    HW247705  11.290   2.800   4.261 -0.6886 -1.1136  0.2320
14810SOL     OW47706   2.793   1.673   9.347 -0.3542  0.1874  0.0637
14810SOL    HW147707   2.849   1.737   9.302 -0.7341 -0.1955 -0.9962
14810SOL    HW247708   2.763   1.615   9.277  0.4379 -1.5074  1.0966
14811SOL     OW47709   4.421   8.914  11.048  0.1410  0.6914 -0.2208
14811SOL    HW147710   4.407   8.916  11.143 -1.9143 -2.5495 -0.2918
14811SOL    HW247711   4.502   8.865  11.037 -0.8580 -1.0855 -0.0822
14812SOL     OW47712   7.246   8.332  10.953 -0.3834 -0.0366 -0.2098
14812SOL    HW147713   7.297   8.401  10.911 -0.0227 -0.0811  0.1543
14812SOL    HW247714   7.198   8.291  10.881  0.0618  0.0301 -0.5492
14813SOL     OW47715   1.040  11.211   4.647 -0.3575 -0.5354 -0.1553
14813SOL    HW147716   1.003  11.230   4.560 -0.5598 -1.6692 -0.3305
14813SOL    HW247717   1.135  11.210   4.632 -0.2677  1.3430  0.0828
14814SOL     OW47718   6.850   0.462  10.381 -0.4919 -0.3780 -0.0689
14814SOL    HW147719   6.792   0.536  10.400  0.9260  1.1960 -1.4225
14814SOL    HW247720   6.923   0.501  10.332  1.2625 -2.3992  0.7595
14815SOL     OW47721   7.585   2.245   6.214  0.0727 -0.2163  0.4504
14815SOL    HW147722   7.542   2.259   6.130  0.2943  3.6533  0.7773
14815SOL    HW247723   7.515   2.217   6.273 -0.4664 -1.0482 -0.5435
14816SOL     OW47724   3.107   2.576   5.487 -0.8673  0.0045  0.3529
14816SOL    HW147725   3.191   2.593   5.529 -0.3677  0.4928 -0.8177
14816SOL    HW247726   3.084   2.658   5.443 -1.3919 -0.4667 -0.2797
14817SOL     OW47727   1.234   3.933  10.060 -0.0473  0.3437 -0.0153
14817SOL    HW147728   1.296   3.861  10.048  0.8144  0.8093  1.4733
14817SOL    HW247729   1.210   3.929  10.152 -2.8248 -0.2715 -0.6792
14818SOL     OW47730  10.242   0.910   5.230  0.8760  0.0015 -0.3707
14818SOL    HW147731  10.250   0.844   5.299  1.8459  0.6981  0.2182
14818SOL    HW247732  10.296   0.877   5.158 -0.2240 -0.7794 -0.8621
14819SOL     OW47733   3.251   1.479   5.562  0.4057  0.1810  0.8341
14819SOL    HW147734   3.344   1.461   5.544  0.0922 -0.6889  0.0057
14819SOL    HW247735   3.211   1.393   5.568 -0.4740  0.5622  0.5227
14820SOL     OW47736  11.097   8.802   0.963  0.0199 -0.0222 -0.0941
14820SOL    HW147737  11.031   8.741   0.928 -0.4382  1.3117 -1.7102
14820SOL    HW247738  11.089   8.879   0.907  0.0141  1.8766  2.3570
14821SOL     OW47739   8.066  11.053   6.738  0.1285  0.3746  0.2341
14821SOL    HW147740   8.039  11.092   6.822 -0.7031  1.6869 -0.6062
14821SOL    HW247741   8.030  10.964   6.740  1.5951 -0.2487  1.9695
14822SOL     OW47742   9.044   5.794  10.165 -0.2501 -0.0278 -0.0273
14822SOL    HW147743   9.115   5.830  10.219 -2.6862  1.7746  2.1924
14822SOL    HW247744   9.060   5.832  10.078  0.2641  2.2744  0.9826
14823SOL     OW47745   2.058   9.776   0.203 -0.3962 -0.3029 -0.1129
14823SOL    HW147746   2.078   9.773   0.296  1.8389  0.1109 -0.5160
14823SOL    HW247747   1.986   9.715   0.191 -1.0123 -0.0384  1.9383
14824SOL     OW47748   0.443  11.328   1.352  0.2172 -0.5760 -0.4587
14824SOL    HW147749   0.436  11.234   1.332  0.4545 -0.3616 -1.6385
14824SOL    HW247750   0.357  11.363   1.331 -0.7751 -0.9294  2.5626
14825SOL     OW47751   9.586   0.350   7.219  0.8265 -0.7672  0.2744
14825SOL    HW147752   9.559   0.278   7.277  0.7563 -1.8491 -1.0510
14825SOL    HW247753   9.537   0.335   7.138  2.9520 -0.8964 -1.0445
14826SOL     OW47754   3.147   2.124   8.475 -0.2619  0.0956  0.4991
14826SOL    HW147755   3.238   2.109   8.450 -0.6729  0.3360 -1.3665
14826SOL    HW247756   3.133   2.070   8.553  1.7324  0.8670  1.4383
14827SOL     OW47757   4.522   7.441  10.215  0.1509  0.4198 -0.9459
14827SOL    HW147758   4.583   7.405  10.279  0.6081 -0.1903 -1.7231
14827SOL    HW247759   4.495   7.367  10.162 -0.0961  0.9561 -1.5839
14828SOL     OW47760   5.847   3.259  10.025 -0.5140  0.7884 -0.4716
14828SOL    HW147761   5.778   3.193  10.026 -0.4964  0.7622  0.3376
14828SOL    HW247762   5.862   3.278   9.933 -0.8444  0.0051 -0.6896
14829SOL     OW47763   7.078   0.135   0.617  0.1093 -0.4297  0.0820
14829SOL    HW147764   7.000   0.137   0.562  0.0813 -0.4731  0.1196
14829SOL    HW247765   7.044   0.124   0.706  0.1797 -0.9919  0.0465
14830SOL     OW47766   7.916  10.228   7.466 -0.2077  0.3239 -0.4550
14830SOL    HW147767   7.884  10.161   7.405 -0.8476  1.3612 -1.2928
14830SOL    HW247768   7.862  10.304   7.448  1.1492  1.3802 -0.2157
14831SOL     OW47769   3.907   8.419   8.022 -0.5538  0.8249 -0.3492
14831SOL    HW147770   3.866   8.379   8.098 -2.1431  1.4205 -0.8447
14831SOL    HW247771   3.884   8.512   8.028  0.2107  1.0707 -0.9900
14832SOL     OW47772   4.121   0.168  11.076  0.0059 -0.0833  0.3990
14832SOL    HW147773   4.047   0.183  11.017 -0.2593 -0.7984  0.5300
14832SOL    HW247774   4.089   0.103  11.138 -0.3587  1.9890  2.5197
14833SOL     OW47775  11.222   7.479   1.721  0.5641  0.2656  0.5022
14833SOL    HW147776  11.297   7.495   1.663  1.1673 -0.9552  0.9187
14833SOL    HW247777  11.162   7.427   1.668  0.3167  0.6521  0.3995
14834SOL     OW47778   4.970   9.916   4.190 -0.2477 -0.0708 -0.5661
14834SOL    HW147779   4.924   9.890   4.110  0.7157  1.7858 -1.8150
14834SOL    HW247780   4.929  10.000   4.214  0.8852  0.4311 -0.3492
14835SOL     OW47781   6.527   7.295  10.748  0.2777 -0.8663 -0.1021
14835SOL    HW147782   6.554   7.376  10.791 -0.7222  0.2894 -1.5438
14835SOL    HW247783   6.468   7.253  10.810  0.1136 -0.0425  0.3089
14836SOL     OW47784   1.448   8.919   6.453 -0.4618 -0.3732 -0.5112
14836SOL    HW147785   1.494   9.003   6.441  0.5786 -0.9574 -0.7496
14836SOL    HW247786   1.362   8.944   6.487  0.5952  0.7119  1.6077
14837SOL     OW47787  11.263   6.609   5.340 -0.4501 -0.2904 -0.1664
14837SOL    HW147788  11.198   6.548   5.303 -0.6309  1.0293 -2.2090
14837SOL    HW247789  11.275   6.580   5.430 -2.1479 -1.9940 -0.4259
14838SOL     OW47790  11.374   9.705  10.580 -0.9285  0.2650 -0.5103
14838SOL    HW147791  11.340   9.743  10.661 -1.8995  0.6756 -1.1034
14838SOL    HW247792  11.325   9.623  10.570  0.3622 -0.6397  0.1658
14839SOL     OW47793   2.796   4.478   0.608  0.5878  0.1311 -0.0302
14839SOL    HW147794   2.881   4.433   0.605  0.1583 -0.7342  0.6071
14839SOL    HW247795   2.798   4.536   0.532  2.0873  0.7408  0.4330
14840SOL     OW47796   0.122   8.154   6.101 -0.4919  0.5515 -0.1007
14840SOL    HW147797   0.091   8.065   6.114  0.0442  0.6129  1.9199
14840SOL    HW247798   0.183   8.148   6.027 -1.0417 -0.6007 -0.4708
14841SOL     OW47799   8.270   4.633   9.864  0.2261 -0.7159 -0.0644
14841SOL    HW147800   8.326   4.600   9.793 -1.0634  0.0877 -1.5290
14841SOL    HW247801   8.183   4.600   9.843 -0.6010  1.3406 -0.1190
14842SOL     OW47802   2.926   5.148  11.382  0.5432 -0.4144 -0.2814
14842SOL    HW147803   2.834   5.160  11.356  0.9874  0.8643 -1.3524
14842SOL    HW247804   2.956   5.073  11.330 -0.3681 -2.0747  1.4547
14843SOL     OW47805   7.928   9.816   2.678 -0.3889 -0.1163  0.6875
14843SOL    HW147806   7.991   9.745   2.691 -0.8059 -0.2578  2.1192
14843SOL    HW247807   7.842   9.772   2.678 -0.7707  0.4659  3.0753
14844SOL     OW47808   5.985   1.431   3.387  0.5765 -0.2593  0.5047
14844SOL    HW147809   5.898   1.392   3.398  1.2366 -1.4514  1.7674
14844SOL    HW247810   5.967   1.525   3.377 -0.8332 -0.4443  0.9896
14845SOL     OW47811   3.353   8.307   1.514  0.1390 -0.1055  0.1162
14845SOL    HW147812   3.316   8.393   1.496 -1.7395 -0.7237  0.7108
14845SOL    HW247813   3.444   8.312   1.485  0.1385  2.1398  0.3714
14846SOL     OW47814   5.651   6.629   2.882  0.1127 -0.1307 -0.0586
14846SOL    HW147815   5.733   6.581   2.872 -0.1170 -0.3479 -1.0010
14846SOL    HW247816   5.615   6.597   2.965  1.4032  0.6496  0.8374
14847SOL     OW47817   3.947   9.059   8.535  0.1263 -0.1683 -0.3062
14847SOL    HW147818   3.972   8.970   8.512 -0.5324 -0.4512  0.0507
14847SOL    HW247819   3.961   9.065   8.630 -0.4534 -0.1093 -0.2179
14848SOL     OW47820   1.397   9.767   4.565 -0.3300  0.0358  0.2569
14848SOL    HW147821   1.456   9.756   4.640 -0.6091 -0.8477  0.3570
14848SOL    HW247822   1.324   9.818   4.600  0.1997  0.8504  0.2149
14849SOL     OW47823   2.583   7.652   4.689  0.1227 -0.5754  0.1590
14849SOL    HW147824   2.667   7.635   4.731  0.5276 -0.2225 -0.4934
14849SOL    HW247825   2.601   7.644   4.595 -0.4331  0.0949 -0.0110
14850SOL     OW47826   3.697   0.677   6.242  0.2060  0.0044 -0.0494
14850SOL    HW147827   3.701   0.613   6.171  0.3617  1.1297 -1.0701
14850SOL    HW247828   3.777   0.662   6.292  0.9494  0.3229 -1.1114
14851SOL     OW47829   4.157   2.641   7.656  0.4781  0.2387 -0.9413
14851SOL    HW147830   4.230   2.702   7.651  2.0465 -1.5770 -1.2923
14851SOL    HW247831   4.194   2.562   7.694 -1.4202 -0.6233 -0.7484
14852SOL     OW47832   5.478   9.926   9.796  0.0805  0.5939  0.6646
14852SOL    HW147833   5.559   9.940   9.845 -0.6188  0.1356  1.9738
14852SOL    HW247834   5.423   9.873   9.853 -1.1939  0.9527 -0.1762
14853SOL     OW47835   8.262   9.298   8.970 -0.6388 -0.0572 -0.1419
14853SOL    HW147836   8.334   9.307   9.031  0.1352 -0.7790 -0.9210
14853SOL    HW247837   8.197   9.245   9.016 -1.1317  1.4024  0.9278
14854SOL     OW47838   8.289   3.380  11.057  0.1222  0.6722 -0.4690
14854SOL    HW147839   8.304   3.355  10.966 -0.3650 -1.3068 -0.0602
14854SOL    HW247840   8.376   3.382  11.097  0.2264  0.2282 -0.6715
14855SOL     OW47841   9.465   1.457   8.175  0.3100 -0.7863 -0.1375
14855SOL    HW147842   9.473   1.413   8.260 -0.3484 -0.2919  0.1852
14855SOL    HW247843   9.555   1.473   8.148  0.5527  1.4633  1.7277
14856SOL     OW47844   1.596  11.254   2.111 -0.3206 -0.2327 -0.0295
14856SOL    HW147845   1.629  11.295   2.192 -2.0743  1.1185  0.0585
14856SOL    HW247846   1.620  11.162   2.120  1.5738  0.2936  0.9405
14857SOL     OW47847   0.608   5.393   6.240  0.1182 -0.7490  0.1833
14857SOL    HW147848   0.523   5.401   6.282 -0.0999  1.3814 -0.5170
14857SOL    HW247849   0.606   5.309   6.195 -2.1723 -0.1443 -0.9689
14858SOL     OW47850   2.362   3.359   6.327 -0.1004  0.3433  0.1900
14858SOL    HW147851   2.368   3.381   6.420  0.4306 -0.1411  0.2720
14858SOL    HW247852   2.453   3.352   6.298 -0.1390  3.1695 -1.0224
14859SOL     OW47853   7.238   9.578   7.046  0.0295 -0.3283  0.0591
14859SOL    HW147854   7.298   9.652   7.045 -0.4987  0.1515  1.4378
14859SOL    HW247855   7.170   9.601   6.982  1.6528 -1.2504 -2.1478
14860SOL     OW47856  11.398   8.595   4.080 -0.5965 -0.3441 -0.2319
14860SOL    HW147857  11.395   8.520   4.139 -2.3606 -0.5987 -0.5900
14860SOL    HW247858  11.308   8.605   4.050 -0.3899  1.8379 -0.2936
14861SOL     OW47859   3.792   3.485   3.094 -0.3614 -0.1457 -0.2070
14861SOL    HW147860   3.748   3.493   3.180  0.0162 -1.8087  0.1762
14861SOL    HW247861   3.875   3.443   3.114 -0.9913 -2.1335 -1.5715
14862SOL     OW47862   1.496  10.760   1.225 -0.2814 -0.1648  0.1196
14862SOL    HW147863   1.403  10.749   1.206 -0.4873  0.8361  0.4755
14862SOL    HW247864   1.502  10.762   1.320  0.0527  0.1402  0.0965
14863SOL     OW47865   9.684   9.198   9.480  0.0873  0.0931  0.2183
14863SOL    HW147866   9.642   9.259   9.540  0.5828 -0.3259  1.0089
14863SOL    HW247867   9.705   9.122   9.534  1.7658  0.2515 -0.1446
14864SOL     OW47868   3.463   6.934  10.679  0.8305 -0.3726  0.1106
14864SOL    HW147869   3.529   6.953  10.746  0.2088 -0.5620  0.7918
14864SOL    HW247870   3.504   6.962  10.597  0.0567  3.9097  0.9533
14865SOL     OW47871  10.439   8.398  10.683 -0.8492  0.2291  0.2090
14865SOL    HW147872  10.397   8.457  10.621 -0.4034  0.9636  0.5897
14865SOL    HW247873  10.435   8.444  10.767 -1.0146 -0.5368  0.6339
14866SOL     OW47874   9.416   9.705   3.413  0.2584  0.0096  0.3877
14866SOL    HW147875   9.370   9.675   3.335 -1.2999  1.0887  0.8580
14866SOL    HW247876   9.460   9.627   3.447  1.1435 -0.4450 -1.6402
14867SOL     OW47877   7.129   2.829  10.405  0.5006  0.0714  0.2781
14867SOL    HW147878   7.179   2.749  10.423  1.8349  0.6053 -0.8537
14867SOL    HW247879   7.185   2.879  10.345 -0.8605  1.2891 -0.0291
14868SOL     OW47880   2.802  10.089  10.631 -0.0647 -0.3205  0.2672
14868SOL    HW147881   2.809  10.106  10.725 -1.8538 -1.0993  0.5670
14868SOL    HW247882   2.730  10.145  10.601  0.5291 -0.0316 -0.6715
14869SOL     OW47883  10.991   5.904   8.246  0.0600  0.2596 -0.1339
14869SOL    HW147884  10.997   5.840   8.174  0.0171  0.9141 -0.7340
14869SOL    HW247885  11.005   5.988   8.203 -0.6888  0.7216  0.5233
14870SOL     OW47886   0.406   3.732   3.711  0.1234 -0.7196 -0.1484
14870SOL    HW147887   0.430   3.823   3.728 -0.4756 -0.5279 -0.2881
14870SOL    HW247888   0.320   3.738   3.668 -0.4450 -1.3970  0.8689
14871SOL     OW47889   6.027   4.556   2.521 -0.0094  0.0647  0.0677
14871SOL    HW147890   6.115   4.578   2.490  0.2336 -0.3196  0.4629
14871SOL    HW247891   5.968   4.604   2.463  0.4885  1.9336  1.0027
14872SOL     OW47892   7.245  10.843   3.764  0.9493 -0.4248 -0.2906
14872SOL    HW147893   7.331  10.875   3.791  1.7709 -0.1705 -2.9026
14872SOL    HW247894   7.196  10.834   3.846  2.6814  1.6237  1.1071
14873SOL     OW47895   1.371  10.653   3.779  0.1917 -0.0123  0.0019
14873SOL    HW147896   1.323  10.573   3.756 -0.3194  0.5913 -1.0966
14873SOL    HW247897   1.405  10.636   3.866 -1.1043 -0.8897  0.3628
14874SOL     OW47898   0.129   8.097   5.810 -0.4944  0.3258  0.2569
14874SOL    HW147899   0.134   8.089   5.715 -1.2618 -1.2581  0.3013
14874SOL    HW247900   0.053   8.044   5.834  1.4195 -1.8528  2.0019
14875SOL     OW47901   1.631   5.539   8.971 -0.6400  0.4317  0.2156
14875SOL    HW147902   1.592   5.626   8.959 -1.5889 -0.1591 -1.1326
14875SOL    HW247903   1.700   5.535   8.905 -0.6891  0.1106  0.1819
14876SOL     OW47904   4.475   1.939   9.137  0.2070 -0.6606 -0.1678
14876SOL    HW147905   4.401   1.956   9.079 -0.3393 -0.6128  0.5210
14876SOL    HW247906   4.487   2.022   9.184  0.1160 -0.9462  0.3615
14877SOL     OW47907  11.390   9.475   4.347 -0.5538  0.0127 -0.1028
14877SOL    HW147908  11.436   9.536   4.404  0.4738  0.9101 -1.7945
14877SOL    HW247909  11.308   9.519   4.326 -0.3568  0.2700 -0.3424
14878SOL     OW47910   1.072   0.468   7.037  0.2041 -0.2613  0.3796
14878SOL    HW147911   1.022   0.444   7.114 -0.0665  1.6802  0.8669
14878SOL    HW247912   1.093   0.561   7.049 -0.0086  0.1646 -1.9573
14879SOL     OW47913   8.206   6.983   8.092  0.3877  0.1902 -0.6239
14879SOL    HW147914   8.282   6.943   8.134 -0.6289 -1.3158 -0.1493
14879SOL    HW247915   8.195   6.935   8.010 -1.5735 -1.4891  0.5068
14880SOL     OW47916   2.329   4.422  10.406  0.2730  0.4764  0.1469
14880SOL    HW147917   2.331   4.425  10.310 -1.5725  0.0395  0.0521
14880SOL    HW247918   2.410   4.378  10.430 -0.8451 -2.8005 -1.4467
14881SOL     OW47919   3.648   4.271   8.572  0.0211 -0.0357 -0.9401
14881SOL    HW147920   3.631   4.335   8.641  1.4111 -1.2491  0.6136
14881SOL    HW247921   3.563   4.231   8.554 -0.0746 -1.0695  1.5384
14882SOL     OW47922  10.732   4.998   6.924  0.3388 -0.4862  0.6574
14882SOL    HW147923  10.742   5.040   6.839  0.9692 -2.0964 -0.0925
14882SOL    HW247924  10.724   4.905   6.905  1.2335 -0.9648  2.3855
14883SOL     OW47925   7.455   1.309   3.401  0.3059 -0.0582 -0.1459
14883SOL    HW147926   7.383   1.287   3.461  0.6044 -0.1722  0.1744
14883SOL    HW247927   7.449   1.404   3.390  0.3966 -0.0007  0.2620
14884SOL     OW47928   0.291   0.482   6.468  0.5028 -0.3402  0.1207
14884SOL    HW147929   0.384   0.480   6.445  0.3483 -2.3895 -0.5052
14884SOL    HW247930   0.266   0.390   6.475 -1.5229  0.1661  0.1687
14885SOL     OW47931  10.238   6.998   9.010 -0.4679 -0.0063 -0.5293
14885SOL    HW147932  10.205   7.064   9.071  1.1684  1.3089 -1.0143
14885SOL    HW247933  10.295   6.942   9.064  0.3592  0.6855 -0.6663
14886SOL     OW47934   9.398   5.753   7.657  0.1441 -0.2157 -0.6373
14886SOL    HW147935   9.454   5.713   7.590 -0.9564 -0.1275 -1.6519
14886SOL    HW247936   9.458   5.782   7.725  1.1396 -1.9146 -0.7415
14887SOL     OW47937   2.712  10.864   1.617  0.5875  0.5605 -0.5166
14887SOL    HW147938   2.649  10.793   1.602 -0.3633  1.4102 -0.6911
14887SOL    HW247939   2.762  10.836   1.693  1.0144 -0.8151 -1.2809
14888SOL     OW47940   3.968   2.688   4.271  0.0861 -0.8765 -0.0985
14888SOL    HW147941   4.018   2.680   4.352 -0.3355 -0.6234  0.1889
14888SOL    HW247942   3.950   2.598   4.244  0.2981 -0.9602  0.0436
14889SOL     OW47943   4.319   6.073   7.341  0.5327  0.4423 -0.1589
14889SOL    HW147944   4.387   6.127   7.301  1.3587 -1.4413 -1.4297
14889SOL    HW247945   4.354   6.048   7.426  0.3106  1.5252  0.2703
14890SOL     OW47946   8.953   8.884   8.782  0.9904 -0.3545 -0.0665
14890SOL    HW147947   8.922   8.802   8.820 -0.7003  0.9665  1.6172
14890SOL    HW247948   9.043   8.892   8.811  1.0240 -1.3810  0.1451
14891SOL     OW47949   7.773   9.952  10.720 -0.5353  0.4332  0.3065
14891SOL    HW147950   7.751  10.020  10.784  0.6570  2.0189 -0.8968
14891SOL    HW247951   7.863   9.927  10.741 -0.7595 -0.3776  0.3548
14892SOL     OW47952  10.588   5.401   9.542 -0.6809  0.4199  0.1124
14892SOL    HW147953  10.628   5.407   9.629 -2.5496  0.5852  1.0271
14892SOL    HW247954  10.531   5.324   9.548 -1.3468  0.8342 -0.7263
14893SOL     OW47955   2.230   6.246   6.962  0.6433  0.3201 -0.0820
14893SOL    HW147956   2.313   6.264   6.917  1.9263 -2.3690  0.9642
14893SOL    HW247957   2.178   6.198   6.897  1.5015 -1.3759  0.4381
14894SOL     OW47958   8.487   1.543   1.822 -0.2509 -0.6625  0.1223
14894SOL    HW147959   8.560   1.557   1.882 -1.2548 -3.0253  2.0632
14894SOL    HW247960   8.433   1.622   1.831  1.6156  0.8210 -0.8448
14895SOL     OW47961   7.946  10.052   6.629  0.2047  0.6487  0.5400
14895SOL    HW147962   7.965  10.022   6.718  0.6766  0.7773  0.4875
14895SOL    HW247963   8.010  10.121   6.614  0.4307  0.3084 -0.0705
14896SOL     OW47964  11.368   7.329   7.013  0.2404 -0.4201 -0.3966
14896SOL    HW147965  11.436   7.262   7.009 -0.0519 -0.7271 -0.2657
14896SOL    HW247966  11.416   7.412   7.013  0.6021 -0.6284 -0.5547
14897SOL     OW47967   5.738   8.296   2.755  0.0477 -0.0710  0.7216
14897SOL    HW147968   5.677   8.301   2.682 -0.4919  1.4519  1.2425
14897SOL    HW247969   5.813   8.350   2.729  0.4486 -0.5919  0.7652
14898SOL     OW47970   0.659  10.117   9.272  0.1250  0.9095  0.0658
14898SOL    HW147971   0.705  10.034   9.273  2.9090  2.3310  0.3133
14898SOL    HW247972   0.609  10.118   9.354 -0.7418 -0.8645 -0.3975
14899SOL     OW47973  10.613   9.852   0.508  0.0248  0.1292  0.2262
14899SOL    HW147974  10.534   9.888   0.548  0.7527  1.2936  0.6565
14899SOL    HW247975  10.671   9.834   0.582  0.7795  0.7996 -0.1958
14900SOL     OW47976  11.256  11.392   7.510 -0.3469  0.4797 -0.3510
14900SOL    HW147977  11.302  11.473   7.531  1.3907 -0.1844 -1.4214
14900SOL    HW247978  11.239  11.351   7.595 -0.4981  1.5492  0.1529
14901SOL     OW47979   3.145   3.798   4.444 -0.1765 -0.1039  0.1187
14901SOL    HW147980   3.205   3.872   4.438  1.1421 -0.7492  3.1255
14901SOL    HW247981   3.117   3.782   4.354  2.8668  1.3052 -1.2364
14902SOL     OW47982   0.420   2.478   1.096 -0.3771  0.1398 -0.7086
14902SOL    HW147983   0.437   2.388   1.125 -2.5513  0.0957  0.7327
14902SOL    HW247984   0.505   2.522   1.100  0.1541 -0.9144  2.2339
14903SOL     OW47985   8.962   6.502  10.755 -0.0638 -0.1222 -0.2707
14903SOL    HW147986   8.919   6.418  10.739 -0.6075 -0.5011  2.6398
14903SOL    HW247987   9.054   6.486  10.735 -0.0409 -1.6518  0.8630
14904SOL     OW47988   2.316   8.523   8.562  0.3287 -0.1930 -0.2196
14904SOL    HW147989   2.275   8.605   8.536  1.7207  1.3833  2.2094
14904SOL    HW247990   2.374   8.501   8.489 -1.9410 -0.5155 -2.0595
14905SOL     OW47991   6.369  10.065   7.343 -0.0809  0.1973 -0.1562
14905SOL    HW147992   6.332  10.051   7.430 -0.8904  2.1467 -0.1270
14905SOL    HW247993   6.328  10.000   7.288 -0.8566  0.0375  0.5928
14906SOL     OW47994   1.507   3.700   8.121 -0.3061  0.2408  0.2228
14906SOL    HW147995   1.576   3.666   8.178  0.7795  1.7000 -0.1634
14906SOL    HW247996   1.452   3.752   8.178 -0.2755  0.2145  0.2773
14907SOL     OW47997   2.716   9.808   8.681 -0.1932 -0.0821  0.5214
14907SOL    HW147998   2.719   9.732   8.623  0.8935  0.1566  0.2565
14907SOL    HW247999   2.721   9.883   8.622 -0.2583  0.1794  0.8484
14908SOL     OW48000   2.254   1.152  10.838  0.3815  0.1601  0.1924
14908SOL    HW148001   2.311   1.075  10.829 -1.4628 -1.1237 -1.3779
14908SOL    HW248002   2.241   1.162  10.932  3.2190  0.5863  0.6144
14909SOL     OW48003   3.058   3.446   3.912  0.4380  0.2922  0.2663
14909SOL    HW148004   3.030   3.500   3.838  1.7532 -0.8521 -1.1307
14909SOL    HW248005   3.105   3.505   3.970  1.4248  0.7694 -0.9877
14910SOL     OW48006   7.233   9.189   2.558 -0.3573  0.2634 -0.4344
14910SOL    HW148007   7.319   9.168   2.521 -0.3906  0.7195 -0.7893
14910SOL    HW248008   7.198   9.105   2.587  0.2773  0.0948 -0.1401
14911SOL     OW48009   9.707   7.092   8.599 -0.1199 -0.0380  0.2061
14911SOL    HW148010   9.620   7.072   8.633  0.5538 -1.5895  1.1129
14911SOL    HW248011   9.718   7.032   8.525  0.4249 -0.3337  0.5186
14912SOL     OW48012   3.675   4.969   1.639  0.0901  0.2003  0.5259
14912SOL    HW148013   3.706   4.931   1.721  0.2190  0.5437  0.6369
14912SOL    HW248014   3.741   5.035   1.616  2.1111 -2.3746 -1.7889
14913SOL     OW48015   2.311   2.002   9.302 -0.0501 -0.0918 -0.5371
14913SOL    HW148016   2.286   1.933   9.240 -0.7757 -0.8147  0.5268
14913SOL    HW248017   2.242   2.000   9.369  0.2100  1.3170 -0.2037
14914SOL     OW48018   6.799   4.002   0.500  0.2740  0.0898 -0.0534
14914SOL    HW148019   6.786   3.993   0.595 -1.5434 -1.6256 -0.3870
14914SOL    HW248020   6.755   4.084   0.478  0.2920  0.2643  0.5293
14915SOL     OW48021   1.230  10.428   3.757  0.8506 -0.2389  0.5826
14915SOL    HW148022   1.263  10.375   3.685  0.9012 -0.7800  1.0001
14915SOL    HW248023   1.138  10.402   3.767  0.6625  0.3020  0.2936
14916SOL     OW48024   1.897   4.701   4.322  0.2703 -0.3773 -0.1188
14916SOL    HW148025   1.970   4.658   4.365  0.5093 -0.2531 -0.3965
14916SOL    HW248026   1.819   4.669   4.369  0.4565 -0.9457 -0.1853
14917SOL     OW48027   2.326   6.537   7.371 -0.2650 -0.2840  0.6470
14917SOL    HW148028   2.275   6.478   7.427 -0.1588 -0.9140  0.0939
14917SOL    HW248029   2.417   6.516   7.391 -0.1904  1.1505  1.9600
14918SOL     OW48030   0.759   1.911   1.460  0.2444 -0.3069 -0.6664
14918SOL    HW148031   0.747   1.823   1.496  0.0824  0.8255  2.3208
14918SOL    HW248032   0.816   1.898   1.384 -0.3784 -3.0508 -0.7697
14919SOL     OW48033   0.090   8.726  10.319  0.4903 -1.0166  0.1028
14919SOL    HW148034  -0.003   8.721  10.295  0.6223 -1.4648 -0.3067
14919SOL    HW248035   0.090   8.778  10.400 -0.1598 -1.4005  0.3565
14920SOL     OW48036   1.396  10.326   1.288 -0.6774  0.3914  0.0427
14920SOL    HW148037   1.369  10.374   1.210 -0.9043 -1.0904 -0.8373
14920SOL    HW248038   1.360  10.238   1.276  0.3185 -0.2170  1.2290
14921SOL     OW48039   9.507   0.852   1.288 -0.0847 -0.0913  0.3368
14921SOL    HW148040   9.472   0.818   1.371  0.9674 -1.3639  0.2850
14921SOL    HW248041   9.487   0.946   1.291  1.1393  0.1660  2.6690
14922SOL     OW48042   2.388  10.806   1.851  0.4210  0.2270  0.1074
14922SOL    HW148043   2.333  10.764   1.917  0.0281 -0.0596 -0.3986
14922SOL    HW248044   2.470  10.825   1.897  1.1312 -2.2913  0.0677
14923SOL     OW48045   6.507   7.050   3.903  0.5558 -0.4995 -0.0118
14923SOL    HW148046   6.552   7.042   3.818  0.4363 -1.5176  0.0102
14923SOL    HW248047   6.439   7.115   3.887  0.8200 -0.3440 -0.5731
14924SOL     OW48048   3.286   0.903   5.841 -0.4194  0.2701  0.2682
14924SOL    HW148049   3.289   0.994   5.870  0.9815  0.4966 -0.4623
14924SOL    HW248050   3.368   0.865   5.874 -0.6336 -0.5112 -0.0767
14925SOL     OW48051   3.744   2.064   5.809  0.0925  0.4501  0.3654
14925SOL    HW148052   3.664   2.013   5.816  0.2384 -0.2183 -2.0064
14925SOL    HW248053   3.714   2.153   5.787 -0.0331  0.5769  1.0299
14926SOL     OW48054   1.419   3.857   2.128 -0.2296 -0.0313 -0.0425
14926SOL    HW148055   1.417   3.761   2.124  0.8958 -0.0601 -0.5662
14926SOL    HW248056   1.401   3.885   2.038 -0.7517  0.2543  0.1511
14927SOL     OW48057   9.889   3.681   7.137  0.2161  0.2000 -0.3708
14927SOL    HW148058   9.903   3.587   7.144  1.5719  0.4823  1.4651
14927SOL    HW248059   9.955   3.711   7.075  0.9062  0.1173  0.2965
14928SOL     OW48060   4.423   4.943   9.256  0.5989  0.3040 -0.5573
14928SOL    HW148061   4.335   4.913   9.235  1.1289 -1.2591 -0.6955
14928SOL    HW248062   4.427   5.032   9.223 -0.9397  0.4246 -0.4887
14929SOL     OW48063  10.740   3.763   9.558  0.4832  0.3421 -0.0296
14929SOL    HW148064  10.822   3.740   9.601  0.7219  1.8678  0.3901
14929SOL    HW248065  10.699   3.827   9.616 -2.2357 -2.1064  1.0308
14930SOL     OW48066  10.218   9.162   8.461  0.0057  0.4796 -0.3847
14930SOL    HW148067  10.126   9.141   8.481 -0.2853  0.9944 -1.1372
14930SOL    HW248068  10.252   9.200   8.542 -1.2639  2.9033 -0.8829
14931SOL     OW48069   7.151   1.363   0.973  0.2355  0.0313 -0.5131
14931SOL    HW148070   7.120   1.276   0.998 -1.8230  1.3923  2.2295
14931SOL    HW248071   7.138   1.366   0.878 -1.2301 -2.0806 -0.4584
14932SOL     OW48072   9.140   4.836   9.024 -0.5881 -0.2596 -0.1198
14932SOL    HW148073   9.055   4.854   9.064 -0.5953 -0.1687 -0.1757
14932SOL    HW248074   9.190   4.918   9.034 -0.1859 -0.6031  0.7214
14933SOL     OW48075   2.505   2.595   6.355 -0.1816  0.0016  0.1211
14933SOL    HW148076   2.509   2.682   6.317  0.1525  0.4780  1.1928
14933SOL    HW248077   2.412   2.580   6.372 -0.6805 -1.2518 -3.0734
14934SOL     OW48078   6.236   4.601   9.287  0.3131 -0.5215 -0.3831
14934SOL    HW148079   6.264   4.682   9.246  1.7473  0.3094  1.9872
14934SOL    HW248080   6.303   4.537   9.262  0.3004 -0.4341 -0.6344
14935SOL     OW48081   9.091   6.948   1.778 -0.2990 -0.4029  0.1869
14935SOL    HW148082   9.092   6.863   1.733 -0.1784 -1.2692  1.7831
14935SOL    HW248083   9.172   6.949   1.829  0.6132  1.4585 -1.1658
14936SOL     OW48084   7.323   4.900   3.336  0.4686  0.0755 -0.1508
14936SOL    HW148085   7.317   4.805   3.326  0.7506  0.0288  0.1319
14936SOL    HW248086   7.238   4.932   3.304 -0.6479 -0.4542  2.0590
14937SOL     OW48087   5.005   6.371   1.825  0.2099 -0.3964  0.0375
14937SOL    HW148088   5.032   6.458   1.854  0.1473 -0.8436  1.5008
14937SOL    HW248089   4.931   6.387   1.766  0.5126  0.5567 -0.1019
14938SOL     OW48090   0.403   2.200   7.503 -0.1756 -0.2770 -0.4262
14938SOL    HW148091   0.483   2.164   7.464 -0.1327 -0.3936 -0.2334
14938SOL    HW248092   0.415   2.295   7.500 -0.2267 -0.2805 -0.8086
14939SOL     OW48093   2.159   1.831   5.262  0.3070  0.0030  0.5414
14939SOL    HW148094   2.120   1.918   5.254  0.0667 -0.1954 -0.8860
14939SOL    HW248095   2.197   1.814   5.175  2.5997 -0.2892  1.5070
14940SOL     OW48096   1.989   8.476   3.285  0.7550 -0.3482  0.3959
14940SOL    HW148097   1.904   8.455   3.324 -0.2211  2.9047  0.3196
14940SOL    HW248098   1.994   8.420   3.207 -0.6531 -1.5812  1.1401
14941SOL     OW48099  10.844   5.059   9.577 -0.0834  0.2167 -0.1802
14941SOL    HW148100  10.925   5.050   9.626  0.0913 -1.8455 -0.7444
14941SOL    HW248101  10.867   5.117   9.504  0.4534  0.8731  0.4938
14942SOL     OW48102   2.701   0.915   1.237 -0.2189 -0.0787 -0.4063
14942SOL    HW148103   2.738   0.867   1.311 -1.4371 -1.1539 -0.4446
14942SOL    HW248104   2.672   0.847   1.176 -0.9978  0.7303 -0.9746
14943SOL     OW48105   6.993   9.629  10.437 -0.4660 -0.5051 -0.3936
14943SOL    HW148106   6.986   9.705  10.494  0.5570  0.6115 -1.6791
14943SOL    HW248107   6.920   9.573  10.462 -1.0208  0.7175  0.8493
14944SOL     OW48108   6.505   2.226   7.135  0.2029 -0.0743 -0.0059
14944SOL    HW148109   6.519   2.267   7.049 -0.8688 -0.3432 -0.3259
14944SOL    HW248110   6.431   2.273   7.173  1.0429  0.4352  1.0509
14945SOL     OW48111   3.968   3.351   1.940  0.9351  0.0004 -0.4722
14945SOL    HW148112   3.989   3.443   1.956 -1.1684  0.6380 -1.0019
14945SOL    HW248113   3.892   3.334   1.996  1.5247 -1.5562 -0.0882
14946SOL     OW48114   7.965   9.474  11.330 -0.5652 -0.3420 -0.4671
14946SOL    HW148115   8.024   9.545  11.306 -0.5316  0.3535  1.4460
14946SOL    HW248116   7.902   9.469  11.258  0.6240  0.2653 -1.5700
14947SOL     OW48117   1.008   4.378   2.154  0.7866 -0.0060  0.6949
14947SOL    HW148118   1.076   4.368   2.088  0.5178 -0.2406  0.4496
14947SOL    HW248119   0.947   4.442   2.116 -0.1014 -1.1653  0.0935
14948SOL     OW48120   3.971   3.684   8.916 -0.2239 -0.0853 -0.1911
14948SOL    HW148121   4.061   3.672   8.945 -0.3809 -0.8821 -0.0131
14948SOL    HW248122   3.935   3.751   8.974  0.5793  1.0868 -0.9964
14949SOL     OW48123   2.105   3.516   7.979  0.2736  0.3925 -0.2299
14949SOL    HW148124   2.081   3.597   7.935  1.9738 -0.0172 -2.0735
14949SOL    HW248125   2.075   3.447   7.920  1.7071 -0.1985 -0.3188
14950SOL     OW48126   4.782  10.062   7.200  0.2149 -0.1102 -0.0849
14950SOL    HW148127   4.830  10.142   7.182  2.2684 -1.0205  1.0681
14950SOL    HW248128   4.707  10.065   7.139  0.1548  2.6717  0.0107
14951SOL     OW48129   7.569   9.208   8.706 -0.0099  0.5694  0.2105
14951SOL    HW148130   7.503   9.189   8.772 -0.2108 -1.1979 -0.4463
14951SOL    HW248131   7.527   9.186   8.623  0.2266  2.7451 -0.5584
14952SOL     OW48132   7.530   8.648   4.278 -0.0188 -0.3164 -0.0263
14952SOL    HW148133   7.554   8.688   4.194  2.6076 -0.7431  0.4327
14952SOL    HW248134   7.589   8.688   4.341 -1.3371 -0.6749  1.4888
14953SOL     OW48135   6.373   4.455   2.927  0.0097 -0.0102  0.0748
14953SOL    HW148136   6.327   4.505   2.994  0.8972 -0.2629  0.8986
14953SOL    HW248137   6.386   4.368   2.967 -0.0563 -0.3797 -0.6917
14954SOL     OW48138   7.144   2.569   4.884  0.2507 -0.0623 -0.0890
14954SOL    HW148139   7.116   2.555   4.794 -0.3037  1.8489 -0.2589
14954SOL    HW248140   7.239   2.558   4.881  0.0957 -1.4574 -0.5804
14955SOL     OW48141   5.066   3.679   4.692  0.1112 -0.4414  0.4770
14955SOL    HW148142   5.046   3.610   4.754 -0.7274 -1.9256 -1.3517
14955SOL    HW248143   5.114   3.636   4.621  3.2397  1.6325  1.1219
14956SOL     OW48144   5.227   0.309   9.017  0.1738 -0.3802 -0.5682
14956SOL    HW148145   5.313   0.329   9.054  0.5257 -1.5697 -0.6829
14956SOL    HW248146   5.231   0.341   8.927 -0.3938  1.7704  0.1052
14957SOL     OW48147   6.123   4.349   4.897  0.0898 -0.2938  0.7363
14957SOL    HW148148   6.196   4.312   4.946 -0.7721  0.9454  3.1443
14957SOL    HW248149   6.054   4.360   4.963 -0.6640  2.8470 -0.4163
14958SOL     OW48150   9.211   3.168   1.717 -0.3576  0.6708 -0.1862
14958SOL    HW148151   9.248   3.178   1.804  0.3460  2.7297 -0.6493
14958SOL    HW248152   9.185   3.076   1.711  0.0996  0.3648  1.9626
14959SOL     OW48153  10.739   5.335   4.111  0.6613 -0.0191 -0.1520
14959SOL    HW148154  10.824   5.350   4.071  0.2095 -0.0949 -1.1771
14959SOL    HW248155  10.758   5.290   4.193  1.6084  0.0231 -0.3426
14960SOL     OW48156  11.277   3.770   9.563  0.0839 -0.1711  0.0517
14960SOL    HW148157  11.317   3.771   9.476 -0.2785  0.5922 -0.1198
14960SOL    HW248158  11.341   3.727   9.619  1.0824  0.8752 -0.2492
14961SOL     OW48159   9.566   1.865   5.293  0.3896  0.4439 -0.1736
14961SOL    HW148160   9.506   1.939   5.280  0.9090  0.9734  0.3886
14961SOL    HW248161   9.513   1.788   5.274 -0.7399  0.8511  1.1762
14962SOL     OW48162  10.812   0.611   7.373 -0.2095  0.1011  0.1334
14962SOL    HW148163  10.805   0.689   7.317 -0.4661 -0.5730 -0.7869
14962SOL    HW248164  10.764   0.543   7.326 -2.0892 -0.0141  2.0742
14963SOL     OW48165   8.729   9.312   3.888 -0.7273  0.1664  0.1989
14963SOL    HW148166   8.707   9.232   3.841 -3.8202  1.4386 -0.7773
14963SOL    HW248167   8.753   9.374   3.820  0.7160  0.4017  0.8752
14964SOL     OW48168   0.633   5.003   0.895  0.2513  0.0824 -0.2397
14964SOL    HW148169   0.588   4.919   0.899  0.4963 -0.0068  1.0292
14964SOL    HW248170   0.691   5.003   0.971  1.2031  0.8726 -0.9350
14965SOL     OW48171   3.099  10.510   9.141 -0.2307 -0.4726 -0.0926
14965SOL    HW148172   3.166  10.573   9.165 -0.0377  0.0792 -1.9670
14965SOL    HW248173   3.033  10.561   9.094 -1.2822 -1.2603  0.4701
14966SOL     OW48174   7.716   5.329   4.625  0.2138  0.1289 -0.0415
14966SOL    HW148175   7.798   5.356   4.582  0.8802 -0.6782  0.6899
14966SOL    HW248176   7.675   5.270   4.562  1.3249 -1.2734  0.4876
14967SOL     OW48177   2.590   9.710   6.040  0.0896 -0.2750  0.0680
14967SOL    HW148178   2.575   9.763   6.118 -1.5650 -1.1973  0.4276
14967SOL    HW248179   2.635   9.632   6.072 -0.2248 -0.4694  0.0397
14968SOL     OW48180   8.278   6.219   5.007  0.0067 -0.0176 -0.5379
14968SOL    HW148181   8.356   6.164   5.014  0.1733  0.1319 -1.1391
14968SOL    HW248182   8.250   6.233   5.098  0.6434 -0.1235 -0.3198
14969SOL     OW48183   8.895  10.499   6.402 -0.4699  0.0074  0.4848
14969SOL    HW148184   8.827  10.451   6.449 -0.3911  1.4098  2.1191
14969SOL    HW248185   8.977  10.472   6.444 -0.1590 -0.4223 -0.3752
14970SOL     OW48186   5.724   1.961  10.289  0.7940 -0.4453  0.3072
14970SOL    HW148187   5.798   1.924  10.336  1.3272 -0.1421 -0.2847
14970SOL    HW248188   5.654   1.966  10.354  0.5926 -2.7603  0.3411
14971SOL     OW48189   1.566   5.722   9.192 -0.2153  0.9623  0.1658
14971SOL    HW148190   1.550   5.779   9.117  1.8490  1.3799 -0.0201
14971SOL    HW248191   1.659   5.698   9.185 -0.2177  0.2141  2.0470
14972SOL     OW48192   0.135   6.627   2.295 -0.2192 -0.6194 -0.1368
14972SOL    HW148193   0.128   6.532   2.306 -1.1905 -0.4034  1.3732
14972SOL    HW248194   0.161   6.659   2.381 -0.6209  0.5465 -0.4385
14973SOL     OW48195   6.542  10.369   6.643 -0.0504 -0.2577  0.1420
14973SOL    HW148196   6.574  10.451   6.682  0.5179 -0.7440  0.7117
14973SOL    HW248197   6.494  10.397   6.565 -2.2226  0.8645  1.7691
14974SOL     OW48198   8.098   0.698  10.080 -0.4742  0.4870  0.1984
14974SOL    HW148199   8.015   0.707  10.034 -0.1828  0.9005 -0.2544
14974SOL    HW248200   8.132   0.613  10.051 -1.3223 -0.2848  1.3636
14975SOL     OW48201   6.788   3.046   1.682  0.0332  0.2205 -0.6632
14975SOL    HW148202   6.770   3.008   1.768  1.5924  0.1241 -0.3512
14975SOL    HW248203   6.763   3.138   1.691  2.5682  0.8738  0.7878
14976SOL     OW48204   7.274   9.092   8.696  0.3858 -0.1241  0.1682
14976SOL    HW148205   7.315   9.089   8.610  0.0064  0.4715 -0.0335
14976SOL    HW248206   7.274   9.000   8.725  0.9709 -0.2590 -0.2400
14977SOL     OW48207   0.692   5.118   3.323  0.0117  0.1241  0.0059
14977SOL    HW148208   0.614   5.143   3.373 -0.1237 -1.2415  0.5229
14977SOL    HW248209   0.753   5.085   3.390  0.5611  0.0517 -0.5258
14978SOL     OW48210   4.494   0.363   8.136 -0.2869 -0.5687  0.1670
14978SOL    HW148211   4.497   0.288   8.195  0.9648  0.1217  1.0233
14978SOL    HW248212   4.558   0.343   8.067 -0.2236 -0.4427  0.1892
14979SOL     OW48213   5.579   0.835   7.318 -0.1776  0.2151  0.6681
14979SOL    HW148214   5.629   0.905   7.277  1.2692 -0.6188  0.9152
14979SOL    HW248215   5.594   0.846   7.412  1.8811 -1.5992  0.6577
14980SOL     OW48216   9.404   1.734   9.299 -0.2404 -0.5161  0.2865
14980SOL    HW148217   9.494   1.702   9.287 -0.1114  0.0777 -0.4521
14980SOL    HW248218   9.363   1.670   9.357  0.6635 -0.7936  0.6444
14981SOL     OW48219   5.637   8.387  11.305  0.0854 -0.1048  0.7982
14981SOL    HW148220   5.726   8.396  11.271  0.3689  0.4438  1.6364
14981SOL    HW248221   5.612   8.297  11.285 -0.1482  0.4590 -1.6900
14982SOL     OW48222   0.068   2.520   4.664 -0.1248 -0.4408  0.4243
14982SOL    HW148223   0.094   2.486   4.750  1.6614  0.6906  0.3800
14982SOL    HW248224   0.059   2.614   4.677 -0.8431 -0.3778 -0.4142
14983SOL     OW48225  11.332   3.247   6.159  0.4791 -0.1668  0.4992
14983SOL    HW148226  11.360   3.331   6.122 -0.3194  0.1548  0.6108
14983SOL    HW248227  11.292   3.200   6.086  1.4201 -0.6847  0.3057
14984SOL     OW48228   6.401  10.161   8.099 -0.1225 -0.8160  0.6054
14984SOL    HW148229   6.455  10.084   8.118  0.5531  0.3112  3.9948
14984SOL    HW248230   6.341  10.167   8.173 -0.8767  1.3307 -0.1088
14985SOL     OW48231   0.685  10.724   0.744  0.8836  0.3755 -0.4699
14985SOL    HW148232   0.773  10.690   0.732  0.2528 -0.9644 -1.5949
14985SOL    HW248233   0.646  10.669   0.812  0.8809  0.9236 -0.0182
14986SOL     OW48234   4.992   7.009   9.608  0.1706  0.4767  0.4997
14986SOL    HW148235   4.922   7.024   9.671  1.9022  0.6065  2.5004
14986SOL    HW248236   4.992   6.914   9.595 -0.8933  0.5557 -0.1862
14987SOL     OW48237   1.562   7.382   6.091 -0.2895  0.3630  0.1468
14987SOL    HW148238   1.594   7.464   6.130  0.1934  0.1985  0.0925
14987SOL    HW248239   1.560   7.320   6.165 -1.8553  0.7475  0.4760
14988SOL     OW48240   8.403   9.910   4.130  0.4371 -0.2844 -0.5864
14988SOL    HW148241   8.445   9.960   4.060 -0.4665  0.7256 -0.4312
14988SOL    HW248242   8.399   9.971   4.204 -1.3245 -0.3175 -0.6150
14989SOL     OW48243   1.706   9.198  11.083  0.0097 -0.2468  0.5019
14989SOL    HW148244   1.715   9.290  11.107 -0.4632  1.4898 -4.5867
14989SOL    HW248245   1.796   9.165  11.079  0.4587  0.9979 -0.4495
14990SOL     OW48246  10.579   8.821   2.200 -0.1185  0.0271 -0.6171
14990SOL    HW148247  10.654   8.866   2.238 -1.4336  0.5350  1.5521
14990SOL    HW248248  10.594   8.825   2.106  1.9724  1.1340 -0.2961
14991SOL     OW48249   7.951   2.017   0.302  0.2933  0.6703  0.1917
14991SOL    HW148250   7.929   2.078   0.231  0.7367 -1.5719 -2.0316
14991SOL    HW248251   7.883   1.949   0.297  0.0773  0.6658  2.2762
14992SOL     OW48252   5.751   5.976  11.332  0.4059 -0.0539 -0.1541
14992SOL    HW148253   5.740   6.009  11.421 -0.0530  1.1360 -0.6361
14992SOL    HW248254   5.665   5.942  11.308  0.0820  1.0942 -0.7013
14993SOL     OW48255   0.919   6.244   5.987 -0.3290 -0.4188 -0.3149
14993SOL    HW148256   0.825   6.251   5.971 -0.0093  0.6926 -2.0689
14993SOL    HW248257   0.955   6.217   5.903  1.1961  2.3110 -0.6738
14994SOL     OW48258   3.099   4.957  11.244 -0.1353  0.3827  0.2756
14994SOL    HW148259   3.020   4.930  11.196  0.5103 -0.8760 -0.1044
14994SOL    HW248260   3.168   4.955  11.178  0.4078  0.5215  0.8357
14995SOL     OW48261   3.802   1.327   8.039  0.2450  0.0800  0.1461
14995SOL    HW148262   3.718   1.364   8.065  0.7270  0.9028  0.5598
14995SOL    HW248263   3.779   1.250   7.988 -0.7575 -0.2889  1.1027
14996SOL     OW48264  10.212  11.146   7.064 -0.0768  0.2110 -0.3554
14996SOL    HW148265  10.248  11.221   7.110 -0.3125  0.7410 -1.0021
14996SOL    HW248266  10.162  11.098   7.130 -0.3549  0.9163 -0.0417
14997SOL     OW48267   6.806   6.603   2.441  0.2120  0.6686 -0.1343
14997SOL    HW148268   6.764   6.541   2.500 -1.6869  1.8223 -0.1592
14997SOL    HW248269   6.784   6.689   2.478 -0.0886  1.3831 -1.8917
14998SOL     OW48270  10.634   1.510   0.254 -0.3968  0.1574  0.0005
14998SOL    HW148271  10.722   1.507   0.215 -0.8176 -0.7643 -0.9085
14998SOL    HW248272  10.644   1.568   0.330  1.1771 -0.4980  0.3408
14999SOL     OW48273  10.650   1.319  11.326  0.9151 -0.1048 -0.0945
14999SOL    HW148274  10.623   1.278  11.408  1.0281 -0.9837 -0.4938
14999SOL    HW248275  10.743   1.336  11.338  0.6836  0.8887  0.4197
15000SOL     OW48276   6.511   8.229  10.432 -0.7012  0.1936  0.1967
15000SOL    HW148277   6.451   8.273  10.373 -1.6897 -1.1430  0.1757
15000SOL    HW248278   6.575   8.187  10.375  0.7298  2.1675  0.2331
15001SOL     OW48279   2.959   2.969   2.865 -0.0136  0.4132 -0.1833
15001SOL    HW148280   2.933   2.983   2.774  0.3234  2.2157 -0.0483
15001SOL    HW248281   2.886   3.004   2.916 -0.5411 -1.2642  0.2926
15002SOL     OW48282   2.894   0.224   0.776  0.2921 -0.6447 -0.2199
15002SOL    HW148283   2.986   0.244   0.759 -0.0072 -0.8936 -2.4178
15002SOL    HW248284   2.857   0.307   0.805  0.8170 -0.0584 -1.1706
15003SOL     OW48285   0.063   1.713   7.947 -0.0557  0.2541 -0.1749
15003SOL    HW148286   0.086   1.621   7.929 -1.2960 -0.5741  2.0855
15003SOL    HW248287   0.148   1.757   7.956  0.5619 -0.6588 -1.2662
15004SOL     OW48288  11.380   2.088   7.149  0.0750  0.1243  0.1008
15004SOL    HW148289  11.313   2.078   7.082  0.6492  2.2324 -0.8944
15004SOL    HW248290  11.446   2.022   7.128 -0.5397 -0.3383 -0.3872
15005SOL     OW48291   8.911   2.087   7.899 -0.5591  0.2618  0.1787
15005SOL    HW148292   9.003   2.113   7.900  0.3851 -2.6914 -0.4971
15005SOL    HW248293   8.888   2.078   7.991  0.4240 -0.7792  0.3434
15006SOL     OW48294   5.686  10.764   2.736  0.0148 -0.1560  0.8268
15006SOL    HW148295   5.594  10.744   2.752 -0.8661  0.2241 -2.8275
15006SOL    HW248296   5.717  10.692   2.681  0.8041  1.4267 -0.9311
15007SOL     OW48297   0.397   6.991   8.260  0.3955  0.2300  0.1224
15007SOL    HW148298   0.411   6.897   8.270  0.5098  0.2806  0.4482
15007SOL    HW248299   0.484   7.027   8.248  0.4437  0.3948  0.8812
15008SOL     OW48300   9.252   9.873   9.454  0.1146  0.1791  0.2733
15008SOL    HW148301   9.264   9.965   9.478  0.8442  0.1742 -0.0500
15008SOL    HW248302   9.284   9.867   9.364  0.0630 -0.3903  0.2895
15009SOL     OW48303   6.437   2.688   8.551  1.0047  0.1694  0.0220
15009SOL    HW148304   6.484   2.742   8.615 -0.1807  1.9842 -0.5486
15009SOL    HW248305   6.492   2.690   8.473  1.8774 -1.0621  0.5781
15010SOL     OW48306   7.733   2.416   3.638  0.2651  0.6089 -0.5987
15010SOL    HW148307   7.718   2.505   3.605 -1.9274  0.1426 -0.9805
15010SOL    HW248308   7.646   2.376   3.639  1.0868 -1.2394  0.4568
15011SOL     OW48309  10.839   8.711   4.416 -0.4682 -0.1709 -0.1452
15011SOL    HW148310  10.772   8.779   4.422  2.4642  3.1728 -1.0530
15011SOL    HW248311  10.861   8.692   4.507 -0.2499  1.4349  0.1770
15012SOL     OW48312   1.308   0.580   1.876 -0.7371  0.1117 -0.2070
15012SOL    HW148313   1.335   0.499   1.832  0.9882 -0.2028  1.3090
15012SOL    HW248314   1.248   0.551   1.945  0.3950 -0.0069  0.7660
15013SOL     OW48315   7.410   1.366   2.741  0.0609  0.6483  0.3063
15013SOL    HW148316   7.329   1.396   2.701 -0.2912 -0.7139 -0.0621
15013SOL    HW248317   7.470   1.440   2.733 -1.2115  1.7889  0.8536
15014SOL     OW48318   9.682   6.318   1.943  0.0125  0.3737 -0.4085
15014SOL    HW148319   9.708   6.343   2.031 -1.2669 -0.8391  0.3547
15014SOL    HW248320   9.714   6.228   1.933  0.5877  0.6691 -1.3833
15015SOL     OW48321   9.901   3.899  10.332  0.3168 -0.1852  0.0416
15015SOL    HW148322   9.884   3.978  10.282  1.2943 -0.3396 -0.5660
15015SOL    HW248323   9.996   3.899  10.346  0.0832 -0.1545  1.9018
15016SOL     OW48324   0.802   7.595  10.525  0.3614  0.1182 -0.0635
15016SOL    HW148325   0.828   7.664  10.586 -0.5827 -0.8144  1.4661
15016SOL    HW248326   0.883   7.546  10.508  0.8047  0.9042 -0.2511
15017SOL     OW48327   4.555  11.297  11.235 -0.6909 -0.5276 -0.3736
15017SOL    HW148328   4.518  11.220  11.279 -0.1264  0.8754  2.8336
15017SOL    HW248329   4.525  11.371  11.288  3.3173  1.0061  0.0919
15018SOL     OW48330   7.669   2.025   0.524  0.2181  0.1946  0.3105
15018SOL    HW148331   7.625   2.041   0.607  0.4056 -1.6893  0.8073
15018SOL    HW248332   7.637   2.095   0.466 -0.8999  0.7689  1.5781
15019SOL     OW48333  10.946   6.729   1.447 -0.3056 -0.1079 -0.6917
15019SOL    HW148334  10.899   6.811   1.455 -0.5597 -0.4133  1.6026
15019SOL    HW248335  11.036   6.750   1.470 -0.2417 -0.3554 -0.7075
15020SOL     OW48336   5.458   6.283   2.867  0.0096 -0.4158  0.0129
15020SOL    HW148337   5.536   6.328   2.899  0.3580 -0.4891 -0.7234
15020SOL    HW248338   5.483   6.247   2.782 -0.6786 -0.8522 -0.0162
15021SOL     OW48339   2.835   8.162   4.652  0.2717 -0.5816 -0.6259
15021SOL    HW148340   2.798   8.074   4.659 -0.3656 -0.3286 -0.7717
15021SOL    HW248341   2.925   8.147   4.620  0.0979 -1.1657 -0.8632
15022SOL     OW48342   3.939   0.431   1.431  0.3020 -0.1145  0.1192
15022SOL    HW148343   3.903   0.481   1.504  0.4619 -2.5189  1.9842
15022SOL    HW248344   3.863   0.411   1.376 -0.3253 -0.5777  1.1234
15023SOL     OW48345   8.170   6.485   4.989  0.5881 -0.5214 -0.2896
15023SOL    HW148346   8.174   6.390   4.989 -0.4204 -0.5885 -1.2373
15023SOL    HW248347   8.088   6.505   5.036  1.9113 -0.0055  1.9684
15024SOL     OW48348   4.129   0.473   0.568 -0.6289  0.3748  0.0293
15024SOL    HW148349   4.180   0.462   0.488 -1.8943  1.4036 -0.9755
15024SOL    HW248350   4.046   0.428   0.551 -1.9213  2.6817 -0.3097
15025SOL     OW48351   0.465   5.195   9.397 -0.4499 -0.2210  0.0753
15025SOL    HW148352   0.454   5.135   9.471 -0.4718 -1.0347 -0.5821
15025SOL    HW248353   0.520   5.147   9.334  0.4027  0.8378 -0.0246
15026SOL     OW48354   6.222   6.117  10.489 -0.9650 -0.4885  0.4379
15026SOL    HW148355   6.174   6.074  10.559 -3.3557  0.4055 -0.5589
15026SOL    HW248356   6.168   6.103  10.411  0.4832  0.4585 -0.7806
15027SOL     OW48357   7.838  11.220   1.333  0.1422 -0.0728  0.0245
15027SOL    HW148358   7.876  11.308   1.341  0.2865 -0.0020 -1.2422
15027SOL    HW248359   7.810  11.198   1.422 -1.9158  2.1499  0.0340
15028SOL     OW48360   1.232   0.309   2.834 -0.3816  0.2978 -0.1150
15028SOL    HW148361   1.305   0.277   2.782 -0.8487  0.4222 -0.8605
15028SOL    HW248362   1.154   0.287   2.783 -0.6917  3.9090 -1.4462
15029SOL     OW48363   7.245   6.674   1.948  0.0575  0.2294  0.1787
15029SOL    HW148364   7.280   6.719   1.871  1.3710 -0.7296  0.1755
15029SOL    HW248365   7.322   6.636   1.990 -0.4181  1.8234  2.7236
15030SOL     OW48366   2.208  11.334   7.642 -0.0240 -0.2430 -0.2512
15030SOL    HW148367   2.212  11.324   7.547 -0.6398  0.9874 -0.4229
15030SOL    HW248368   2.286  11.288   7.674  1.0325  0.6354 -1.4715
15031SOL     OW48369   0.531   3.098   6.329 -0.1294  0.4370 -0.3176
15031SOL    HW148370   0.545   3.020   6.275 -0.8438 -0.1019  0.2432
15031SOL    HW248371   0.614   3.109   6.376 -0.9476 -1.8649  1.9198
15032SOL     OW48372   6.179   9.554   7.904 -0.6514 -0.3119  0.4860
15032SOL    HW148373   6.219   9.533   7.988 -0.7599 -3.4223 -0.1134
15032SOL    HW248374   6.252   9.554   7.842 -0.5206  2.2956  0.5252
15033SOL     OW48375   5.740   8.053   9.158  0.5080 -0.2233  0.4727
15033SOL    HW148376   5.754   7.967   9.200  0.7409 -0.3252  0.1899
15033SOL    HW248377   5.731   8.114   9.232 -0.2395 -0.5769  0.6805
15034SOL     OW48378   9.809   2.961   9.312 -0.0248  0.2332 -0.1013
15034SOL    HW148379   9.785   2.966   9.405  0.3797  0.5730 -0.0083
15034SOL    HW248380   9.771   3.041   9.274  0.3217  0.4018 -0.1008
15035SOL     OW48381   4.803   4.094   1.419 -0.7834  0.8027  0.7471
15035SOL    HW148382   4.849   4.155   1.362 -1.9088  2.8866  1.9212
15035SOL    HW248383   4.871   4.039   1.456  0.4680  2.1912  0.5996
15036SOL     OW48384   2.570  11.396   4.497  0.0791 -0.0133 -0.3971
15036SOL    HW148385   2.635  11.354   4.441  2.3534  2.5111  0.1288
15036SOL    HW248386   2.573  11.347   4.578 -1.2548 -2.0114 -1.4739
15037SOL     OW48387   9.486   4.791   5.570  0.0366  0.0251  0.1980
15037SOL    HW148388   9.487   4.876   5.524  1.1953  0.2758  0.6386
15037SOL    HW248389   9.400   4.755   5.552 -0.0957  0.8223 -0.8889
15038SOL     OW48390   3.751  10.573   9.856  0.1410 -0.4556  0.3888
15038SOL    HW148391   3.674  10.539   9.812  0.6130  1.7279 -2.4737
15038SOL    HW248392   3.822  10.560   9.793  1.0961  1.8267  0.8774
15039SOL     OW48393   6.625   0.678   3.414  0.1874  0.1518 -0.0912
15039SOL    HW148394   6.601   0.739   3.345  2.6576  2.3248  0.8217
15039SOL    HW248395   6.707   0.639   3.384 -0.0938 -0.8928  0.4516
15040SOL     OW48396   7.945   8.448   6.303 -0.0795  0.1154 -0.2241
15040SOL    HW148397   7.987   8.376   6.255 -0.3465 -0.4266  0.3430
15040SOL    HW248398   8.006   8.468   6.374 -0.2963  0.0174 -0.0079
15041SOL     OW48399   9.213   2.813   5.581  0.0927 -0.1303 -0.2887
15041SOL    HW148400   9.255   2.899   5.572  1.2472 -0.8405 -2.4548
15041SOL    HW248401   9.185   2.791   5.492  0.0717 -2.1038  0.1637
15042SOL     OW48402   2.582   0.486  10.357  0.1643 -0.1501  0.4409
15042SOL    HW148403   2.569   0.404  10.403  1.4334 -1.6906 -1.7665
15042SOL    HW248404   2.676   0.486  10.335  0.7946  3.0698  2.4276
15043SOL     OW48405  11.001   3.831   8.412 -0.0089  0.2917 -0.7678
15043SOL    HW148406  11.083   3.782   8.407 -1.6224 -2.7843  0.0622
15043SOL    HW248407  11.000   3.868   8.500  1.6284  2.7525 -1.6978
15044SOL     OW48408   9.059   8.090   3.659  0.0368 -0.2362 -0.0556
15044SOL    HW148409   8.996   8.057   3.595 -1.6238 -1.6597  2.1477
15044SOL    HW248410   9.110   8.013   3.684 -1.2360 -0.4136  2.2881
15045SOL     OW48411   8.435   2.202  10.460 -0.2547  0.3316  0.4448
15045SOL    HW148412   8.351   2.208  10.415 -0.9919  0.2377  1.7664
15045SOL    HW248413   8.497   2.245  10.401 -1.0815 -0.2332 -0.8745
15046SOL     OW48414   5.776   7.959   3.443  0.2611  0.6318  0.2532
15046SOL    HW148415   5.749   7.945   3.352  3.1991 -3.6838 -0.2520
15046SOL    HW248416   5.849   8.020   3.437  1.8050 -1.2093 -0.7011
15047SOL     OW48417  10.095   4.567  10.604  0.1908 -0.0657  0.4394
15047SOL    HW148418  10.103   4.519  10.687 -1.2097 -0.0646  0.5961
15047SOL    HW248419  10.123   4.504  10.538  0.1235 -0.4995  0.8135
15048SOL     OW48420   2.416   9.326   7.120  0.6460 -0.5340 -0.1998
15048SOL    HW148421   2.343   9.287   7.169  0.0899  2.6059  1.7519
15048SOL    HW248422   2.494   9.299   7.168  0.1686  1.6883  2.0311
15049SOL     OW48423   9.128   7.143   3.795  0.8118 -0.1209 -0.2114
15049SOL    HW148424   9.199   7.123   3.857 -0.1814  0.4288  1.1571
15049SOL    HW248425   9.157   7.223   3.751  0.8962  0.3017  0.5891
15050SOL     OW48426   4.335   0.840   1.566  0.0726  0.2570  0.0500
15050SOL    HW148427   4.397   0.861   1.635  0.2314 -1.6331  0.5385
15050SOL    HW248428   4.251   0.828   1.612  0.0406 -0.3499 -0.1550
15051SOL     OW48429   6.245   0.481  11.368 -0.6892 -0.1796 -0.2196
15051SOL    HW148430   6.243   0.549  11.435  3.3300 -0.0894  0.0592
15051SOL    HW248431   6.258   0.529  11.286  0.0902 -0.4970 -0.2885
15052SOL     OW48432   6.031   6.451   5.909  0.7484  0.0443  0.3703
15052SOL    HW148433   6.042   6.515   5.838  1.2596  1.0706  1.3487
15052SOL    HW248434   5.937   6.442   5.918  0.6235 -1.5467 -1.6765
15053SOL     OW48435   6.701   5.247   1.208  0.2459 -0.6194  0.4731
15053SOL    HW148436   6.781   5.293   1.181 -1.3068  1.3759 -1.1369
15053SOL    HW248437   6.662   5.218   1.125 -1.1842 -0.6274  1.1261
15054SOL     OW48438   3.832   5.112   5.604 -0.2229  0.7108 -0.1973
15054SOL    HW148439   3.748   5.116   5.649 -0.5765 -0.0745 -0.7573
15054SOL    HW248440   3.864   5.023   5.622  0.8311  1.2183  0.5911
15055SOL     OW48441   2.459   6.947  10.083  0.6063 -0.2474  0.2006
15055SOL    HW148442   2.477   6.854  10.068 -0.7030 -0.9079  2.2642
15055SOL    HW248443   2.521   6.973  10.151 -0.5796 -0.3065  1.3486
15056SOL     OW48444   5.369   9.315  10.967 -0.1259 -0.3546 -0.5337
15056SOL    HW148445   5.379   9.220  10.975 -1.4388 -0.4273  0.5013
15056SOL    HW248446   5.374   9.348  11.057 -0.2390  0.5101 -0.8271
15057SOL     OW48447   3.067   0.946   3.868 -0.9163  0.1919  0.4299
15057SOL    HW148448   3.015   0.961   3.947 -2.1782  0.8521 -0.4764
15057SOL    HW248449   3.043   0.857   3.841  0.0274 -0.2921  1.1309
15058SOL     OW48450   3.031   1.416   0.914  0.2037 -0.3568 -0.3173
15058SOL    HW148451   3.047   1.483   0.847  2.8793 -0.7827 -0.1869
15058SOL    HW248452   3.085   1.443   0.988 -1.3635 -0.8470  1.0779
15059SOL     OW48453   7.622  10.687  10.831  0.1490 -0.1382 -0.0010
15059SOL    HW148454   7.678  10.669  10.908  0.1790  2.3039  0.6473
15059SOL    HW248455   7.645  10.618  10.769  2.2794 -0.5323  1.0909
15060SOL     OW48456   0.446   4.346   0.129 -0.0134 -0.2753  0.4085
15060SOL    HW148457   0.367   4.358   0.076  0.9969 -2.7753 -1.8660
15060SOL    HW248458   0.516   4.383   0.076  0.6654 -0.0739  1.4269
15061SOL     OW48459   8.631   4.984   1.848 -0.2384  0.3484  0.3629
15061SOL    HW148460   8.725   4.991   1.829 -0.4114 -2.3636 -2.1848
15061SOL    HW248461   8.592   5.054   1.795  0.2447  0.7602  0.5368
15062SOL     OW48462  11.378   5.058   7.998 -0.0028  0.3165  0.0434
15062SOL    HW148463  11.465   5.072   7.961 -1.0705  1.5316 -2.2525
15062SOL    HW248464  11.349   4.974   7.960 -0.7792  1.1642 -1.3303
15063SOL     OW48465   3.174   8.964   2.920 -0.2941 -0.4034  0.5858
15063SOL    HW148466   3.130   8.881   2.935 -1.9011  0.4576  0.9110
15063SOL    HW248467   3.183   8.969   2.824  1.1035 -1.5490  0.6274
15064SOL     OW48468   7.636   1.727  11.144 -0.3869 -0.2551  0.1275
15064SOL    HW148469   7.576   1.781  11.195  0.6462 -0.8615  2.0571
15064SOL    HW248470   7.646   1.647  11.194 -0.6657 -1.6503 -1.9092
15065SOL     OW48471   7.405   8.168   6.467  0.1311  0.3915 -0.1522
15065SOL    HW148472   7.462   8.153   6.542  0.6247  1.5693 -0.2692
15065SOL    HW248473   7.323   8.198   6.504  0.6639  1.8545 -0.0799
15066SOL     OW48474   0.562   7.399   6.197 -0.3408 -0.3716 -0.1472
15066SOL    HW148475   0.532   7.489   6.185  3.2208  0.9293 -0.5753
15066SOL    HW248476   0.658   7.406   6.203 -0.0069 -3.9875  1.4436
15067SOL     OW48477   4.316   2.931  10.084  0.0862 -0.3391 -0.3701
15067SOL    HW148478   4.271   2.938  10.168  1.2392  0.3962  0.2196
15067SOL    HW248479   4.264   2.868  10.034 -0.5856 -0.8552  0.9188
15068SOL     OW48480   1.042   9.389   0.897  0.4642 -0.2875 -0.5203
15068SOL    HW148481   1.031   9.484   0.907 -2.0915 -0.6338  0.8910
15068SOL    HW248482   1.076   9.360   0.982 -1.7205 -0.9288  0.1985
15069SOL     OW48483   8.390   9.457   2.033  0.1592 -0.1686 -0.1814
15069SOL    HW148484   8.475   9.428   2.067  0.5561  1.0834 -0.0892
15069SOL    HW248485   8.336   9.466   2.111  0.5036  0.8385 -0.0467
15070SOL     OW48486   5.457   5.941   9.308 -0.2622 -1.0029 -0.0293
15070SOL    HW148487   5.521   5.917   9.241 -0.2848 -0.9011 -0.0873
15070SOL    HW248488   5.507   5.940   9.390 -0.3330 -1.5505  0.0105
15071SOL     OW48489   0.400   9.706   6.836  0.7725  0.2064 -0.2945
15071SOL    HW148490   0.376   9.683   6.747 -0.9867  0.8962 -0.0418
15071SOL    HW248491   0.354   9.641   6.891  0.7306  0.6033  0.1478
15072SOL     OW48492   1.596   7.996  11.141  0.2388 -0.5171 -0.8058
15072SOL    HW148493   1.657   8.003  11.068  0.0775 -0.0318 -0.8961
15072SOL    HW248494   1.652   7.985  11.218  0.3788 -2.9555 -1.1882
15073SOL     OW48495  10.812   3.071   5.350  0.4351 -0.0909  0.7515
15073SOL    HW148496  10.726   3.099   5.320  0.2697 -0.7230  0.6152
15073SOL    HW248497  10.854   3.036   5.271  0.7527  0.0566  0.8524
15074SOL     OW48498  10.438   6.731   7.521 -0.2221 -0.7560  0.0390
15074SOL    HW148499  10.464   6.639   7.523  1.2343 -0.4208  2.5851
15074SOL    HW248500  10.347   6.731   7.551 -1.8036 -1.5788 -4.1518
15075SOL     OW48501   8.030   3.699   7.599  0.5200 -0.7010  0.2500
15075SOL    HW148502   7.936   3.713   7.603  0.4329 -1.3713  0.6471
15075SOL    HW248503   8.052   3.659   7.683  0.7125 -3.1334 -0.8835
15076SOL     OW48504   3.079   7.365   5.195 -0.4846  0.3128 -0.1761
15076SOL    HW148505   3.160   7.315   5.184 -1.0622 -0.7894  0.3923
15076SOL    HW248506   3.108   7.456   5.203  0.7296 -0.0922  0.2969
15077SOL     OW48507   3.285   1.991   8.905 -0.4315  0.0921  0.4502
15077SOL    HW148508   3.345   2.065   8.911  0.3748 -0.5783  0.8314
15077SOL    HW248509   3.252   1.978   8.994  0.4871 -0.8429  0.6807
15078SOL     OW48510   9.675  10.822   9.232 -0.2509 -0.5878 -0.3240
15078SOL    HW148511   9.581  10.818   9.250 -0.3697  1.6436 -0.1922
15078SOL    HW248512   9.709  10.884   9.297  1.5806 -2.2888  0.4796
15079SOL     OW48513   7.801   9.537   7.673 -0.4940 -0.4319 -0.4469
15079SOL    HW148514   7.734   9.471   7.656 -0.2267 -0.6210 -0.7765
15079SOL    HW248515   7.883   9.495   7.646  0.0646 -1.0356  1.9239
15080SOL     OW48516  10.878  10.876   8.501 -0.0364 -0.3830 -0.1881
15080SOL    HW148517  10.799  10.870   8.447 -0.4463  2.2200  0.0254
15080SOL    HW248518  10.908  10.785   8.508 -1.8365 -1.2067 -1.9758
15081SOL     OW48519  10.808   4.054   5.834  0.2666 -0.1981 -0.4209
15081SOL    HW148520  10.733   4.049   5.775  0.9611 -0.9685 -1.2671
15081SOL    HW248521  10.881   4.017   5.784  1.4726  1.5203 -0.0143
15082SOL     OW48522   4.471   6.704   1.554  0.5324  0.0271  0.1723
15082SOL    HW148523   4.403   6.664   1.500 -0.2826  1.0069  0.4310
15082SOL    HW248524   4.432   6.713   1.640  0.4115  1.9600 -0.0328
15083SOL     OW48525  11.369   3.611   0.319 -0.2585 -0.3373 -0.1814
15083SOL    HW148526  11.307   3.538   0.326  2.0998 -2.7980 -2.6729
15083SOL    HW248527  11.421   3.606   0.399  0.8445 -2.4424 -0.9770
15084SOL     OW48528   4.446   1.316   5.979 -0.3474  0.1198 -0.2635
15084SOL    HW148529   4.466   1.261   5.904  2.3225  0.1028  0.3539
15084SOL    HW248530   4.355   1.344   5.966 -0.7339 -1.8448 -2.1940
15085SOL     OW48531   8.550   8.301   9.067 -0.3261  0.3051  0.1158
15085SOL    HW148532   8.457   8.285   9.082 -0.4036  0.1995 -0.4698
15085SOL    HW248533   8.595   8.234   9.118 -0.6145 -0.8862 -1.1562
15086SOL     OW48534   0.655   3.612   1.823  0.5699  0.2329 -0.1337
15086SOL    HW148535   0.591   3.586   1.890  0.3101  0.8308 -0.1442
15086SOL    HW248536   0.628   3.699   1.797  1.0854  0.2798 -0.5237
15087SOL     OW48537   5.556  11.002   1.801  0.1130  0.0467 -0.4439
15087SOL    HW148538   5.538  10.953   1.881  2.0419 -1.1944 -0.7185
15087SOL    HW248539   5.568  10.935   1.733 -1.4342  1.0641 -1.8200
15088SOL     OW48540  10.056   4.186   0.535 -0.8238  0.4209  0.9007
15088SOL    HW148541   9.992   4.122   0.502  1.1899 -0.7586 -1.0222
15088SOL    HW248542  10.135   4.134   0.552  1.5459  2.4583 -2.5597
15089SOL     OW48543   8.005   7.872   1.312  0.3110 -0.2397 -0.2995
15089SOL    HW148544   8.032   7.896   1.223 -1.2466 -1.3008 -1.0962
15089SOL    HW248545   8.077   7.904   1.368  1.5375  0.0511 -1.9581
15090SOL     OW48546  10.993   4.500  11.316 -0.0430  0.0247  0.7059
15090SOL    HW148547  11.029   4.584  11.343 -0.7822  0.4175  0.4794
15090SOL    HW248548  11.069   4.450  11.286  0.0917  1.6658 -2.0162
15091SOL     OW48549   9.102   3.326   6.493 -0.0563 -0.1357  0.2953
15091SOL    HW148550   9.096   3.382   6.571  0.2160 -0.0042  0.2264
15091SOL    HW248551   9.191   3.290   6.497  0.3596  0.7384 -0.5279
15092SOL     OW48552   6.658   1.563  10.032  0.5390  0.3758 -0.8860
15092SOL    HW148553   6.658   1.589   9.940  1.3085  2.7816 -0.2772
15092SOL    HW248554   6.725   1.619  10.073 -0.6489  0.2706  1.3508
15093SOL     OW48555   2.288   9.240   3.422  0.2010  0.2354 -0.2255
15093SOL    HW148556   2.240   9.291   3.487 -0.2220 -0.3205 -0.1004
15093SOL    HW248557   2.323   9.165   3.471  0.5867  0.2570 -0.4654
15094SOL     OW48558   9.846  11.344   6.534 -0.4402 -0.0245  0.2160
15094SOL    HW148559   9.867  11.251   6.548  0.5459  0.1501 -0.0130
15094SOL    HW248560   9.801  11.371   6.614  1.5735 -0.0603  1.4397
15095SOL     OW48561   6.179   9.910   9.605 -0.3754  0.5382  0.1727
15095SOL    HW148562   6.083   9.913   9.608 -0.5302 -0.6956 -1.7517
15095SOL    HW248563   6.203   9.975   9.539 -0.0744 -0.6717 -0.9534
15096SOL     OW48564   7.336   6.175   5.574  0.3548 -0.8927 -0.1327
15096SOL    HW148565   7.264   6.224   5.534  0.6363 -1.5556 -1.4946
15096SOL    HW248566   7.333   6.200   5.666  0.0843  1.1836 -0.6557
15097SOL     OW48567   5.760   3.415  10.759  0.3133  0.4542  0.3065
15097SOL    HW148568   5.843   3.405  10.714  1.1259  0.7087  1.6834
15097SOL    HW248569   5.784   3.446  10.846 -1.2645  1.0421  0.5588
15098SOL     OW48570  10.699   9.390   1.060 -0.2109 -0.2297 -0.0107
15098SOL    HW148571  10.769   9.404   0.996 -0.9441 -1.9396 -1.2609
15098SOL    HW248572  10.744   9.361   1.139  0.5958  0.3113 -0.2608
15099SOL     OW48573   8.193   4.370   4.729  0.4861 -0.1689  0.1216
15099SOL    HW148574   8.252   4.317   4.783  0.2704  0.9667  1.5603
15099SOL    HW248575   8.252   4.425   4.677  0.8052  1.4719  2.0736
15100SOL     OW48576   5.210   6.763   7.861  0.9864 -0.3255 -0.3858
15100SOL    HW148577   5.266   6.786   7.787  0.0505  2.3183 -0.3860
15100SOL    HW248578   5.150   6.838   7.870  1.1073 -0.4987  3.0869
15101SOL     OW48579  10.361   2.492   5.156 -0.3611 -0.1752  0.1897
15101SOL    HW148580  10.416   2.529   5.088  1.0734 -0.6333  1.0442
15101SOL    HW248581  10.420   2.481   5.231 -1.3342 -1.7784  0.7697
15102SOL     OW48582   8.382   6.080   8.655  0.0701  0.2777  0.0874
15102SOL    HW148583   8.372   6.161   8.604  0.6412 -0.9516 -2.1034
15102SOL    HW248584   8.473   6.054   8.640 -0.5022 -1.5345 -0.5123
15103SOL     OW48585   5.922   7.694   6.442 -0.0335  0.5013 -0.3371
15103SOL    HW148586   6.005   7.710   6.397  0.2587 -0.5784 -0.2323
15103SOL    HW248587   5.900   7.604   6.418 -0.7758  0.5135  0.2711
15104SOL     OW48588   9.161   6.704   2.397  0.6618 -0.1916  0.5135
15104SOL    HW148589   9.173   6.799   2.403  1.4483 -0.3176  1.2802
15104SOL    HW248590   9.067   6.691   2.404  0.6740  0.4284  2.7130
15105SOL     OW48591  11.226   5.001   3.561 -0.4779  0.2375 -0.2628
15105SOL    HW148592  11.295   5.055   3.523  0.3444  0.4202  1.4090
15105SOL    HW248593  11.268   4.916   3.576 -1.0660 -0.1252 -0.6763
15106SOL     OW48594   7.822   8.583   7.945  0.4294  0.5791 -0.2219
15106SOL    HW148595   7.765   8.619   8.013 -0.4472 -0.4317 -0.3972
15106SOL    HW248596   7.809   8.641   7.870 -0.2623  0.4444 -0.2116
15107SOL     OW48597   3.145   5.314   5.104  0.6375  0.0937  0.3334
15107SOL    HW148598   3.151   5.301   5.199  1.3440  1.3986  0.4792
15107SOL    HW248599   3.233   5.337   5.076 -0.0669  2.3437 -0.2154
15108SOL     OW48600  11.107   4.882   0.153 -0.6909 -0.1644  0.1384
15108SOL    HW148601  11.015   4.889   0.176 -0.6799 -2.1468  1.0396
15108SOL    HW248602  11.108   4.824   0.077 -0.2273  0.4872 -0.3613
15109SOL     OW48603   0.275   2.134   0.659 -0.8731 -0.7548  0.2179
15109SOL    HW148604   0.364   2.129   0.696  0.2130  0.3435 -2.0216
15109SOL    HW248605   0.265   2.052   0.610 -1.6234 -1.4365  1.4745
15110SOL     OW48606   8.600   4.168   9.022  0.2477 -0.2657 -0.8398
15110SOL    HW148607   8.555   4.184   8.938 -0.7241 -1.9299 -0.6722
15110SOL    HW248608   8.693   4.176   9.001 -0.0111  0.6388 -1.7722
15111SOL     OW48609   1.837   6.930   0.631  0.0686 -0.5730  0.1981
15111SOL    HW148610   1.771   6.925   0.701  0.6485 -0.0009  0.7983
15111SOL    HW248611   1.849   7.023   0.616  0.2818 -0.6862 -0.3650
15112SOL     OW48612  10.687   8.748   9.988  0.1812  0.0395  0.0909
15112SOL    HW148613  10.747   8.823   9.983  1.1190 -0.6721  0.5485
15112SOL    HW248614  10.684   8.725  10.080 -1.3869  0.5109  0.1893
15113SOL     OW48615   3.241   8.226  10.734 -0.1165  0.5048  0.6177
15113SOL    HW148616   3.197   8.306  10.706  0.6754  0.7422  0.0447
15113SOL    HW248617   3.334   8.247  10.731  0.1278 -0.6319 -0.1417
15114SOL     OW48618   1.046  10.612   8.844  0.4278 -0.1214 -0.3961
15114SOL    HW148619   1.111  10.676   8.872  0.6697 -1.1043  1.4261
15114SOL    HW248620   0.975  10.620   8.908  0.5566 -1.7885  0.0018
15115SOL     OW48621   6.085   9.160   4.814 -0.0747  0.4534  0.2491
15115SOL    HW148622   5.998   9.120   4.803 -0.7959  2.0486 -0.2413
15115SOL    HW248623   6.142   9.088   4.839 -1.7278 -0.4997  1.4472
15116SOL     OW48624   8.651   8.697   7.174  0.6735 -0.2640  0.0508
15116SOL    HW148625   8.616   8.722   7.259  0.3753  1.0867 -0.4455
15116SOL    HW248626   8.743   8.723   7.177  0.6420 -0.1412 -0.0767
15117SOL     OW48627   9.641   5.611   6.946 -0.1527  0.2133 -0.4067
15117SOL    HW148628   9.673   5.523   6.967 -0.8049  0.1459  0.3287
15117SOL    HW248629   9.710   5.648   6.890  1.0501 -0.0481  0.8408
15118SOL     OW48630   1.786   5.668   1.443  0.2094 -0.6484 -0.0266
15118SOL    HW148631   1.740   5.610   1.382 -1.0772  0.4381 -0.1235
15118SOL    HW248632   1.796   5.616   1.522 -0.9531 -1.0177 -0.1045
15119SOL     OW48633  11.132   2.173   4.075 -0.3112 -0.0501  0.2584
15119SOL    HW148634  11.101   2.231   4.005  0.0903  0.2015  0.2807
15119SOL    HW248635  11.224   2.197   4.086  0.6188 -2.4228 -1.5044
15120SOL     OW48636   2.318  10.137   1.933 -0.0137  0.3800  0.1428
15120SOL    HW148637   2.322  10.070   1.865 -1.2648 -1.3685  1.6937
15120SOL    HW248638   2.342  10.091   2.014  3.8467  2.8937  0.6805
15121SOL     OW48639   5.241   7.049   4.792  0.2246  0.4748  0.0198
15121SOL    HW148640   5.278   7.067   4.878  1.5436  1.0440 -0.6320
15121SOL    HW248641   5.161   7.000   4.809  0.9395 -0.2061  1.5267
15122SOL     OW48642   3.480   0.285   4.619 -0.2669 -0.1951  0.4396
15122SOL    HW148643   3.479   0.374   4.654  0.5148 -0.0169  0.0159
15122SOL    HW248644   3.395   0.276   4.576  0.3964  1.0691 -1.2601
15123SOL     OW48645   7.314  10.584   8.065  0.1878  0.0716 -0.1592
15123SOL    HW148646   7.400  10.577   8.024  0.1332 -2.0016  0.0075
15123SOL    HW248647   7.270  10.502   8.044 -1.4161  0.7005  0.5483
15124SOL     OW48648   7.416   5.817   9.368  0.0646  0.1273  0.4766
15124SOL    HW148649   7.341   5.780   9.414 -0.8698  0.1572 -0.9742
15124SOL    HW248650   7.382   5.892   9.321  0.5983 -0.8344 -1.5565
15125SOL     OW48651   7.361   2.522   3.544 -0.0063  0.2276  0.4205
15125SOL    HW148652   7.352   2.609   3.584 -0.9037  0.0136  0.7108
15125SOL    HW248653   7.379   2.540   3.452  1.4123  0.7290  0.7798
15126SOL     OW48654   1.426   6.406   8.435 -0.2080 -0.1165 -0.1928
15126SOL    HW148655   1.501   6.355   8.404 -0.1015 -0.8130  1.1506
15126SOL    HW248656   1.461   6.493   8.452  0.4808 -0.6215  1.0910
15127SOL     OW48657   9.599   0.968   9.046 -0.1670  0.3588 -0.3563
15127SOL    HW148658   9.544   0.961   9.123  0.6667  0.1412  0.2319
15127SOL    HW248659   9.556   0.913   8.980  1.2021 -2.8119  1.2026
15128SOL     OW48660  10.697   0.897   9.463  0.6640 -0.1088  0.6208
15128SOL    HW148661  10.667   0.935   9.545  1.6019  1.6219  0.2107
15128SOL    HW248662  10.633   0.927   9.398  0.6414 -0.4039  0.5022
15129SOL     OW48663   3.497  10.397   0.465  0.0509  0.1063 -0.5026
15129SOL    HW148664   3.494  10.329   0.532 -1.5922  0.7518  0.1342
15129SOL    HW248665   3.589  10.421   0.459  0.0880  1.6837  3.2904
15130SOL     OW48666  10.228   9.770   1.801  0.7120  0.1603  0.0518
15130SOL    HW148667  10.172   9.731   1.735  0.3928 -0.6367  0.7786
15130SOL    HW248668  10.296   9.705   1.817  0.7266  0.3026  0.5846
15131SOL     OW48669   0.730  11.192   8.083  0.2421  0.0195 -0.1337
15131SOL    HW148670   0.663  11.253   8.114  0.8407  1.3962 -1.3927
15131SOL    HW248671   0.810  11.220   8.129 -0.1066 -2.1621  2.0430
15132SOL     OW48672   8.979   6.941   9.907  0.1076 -0.0672  0.1963
15132SOL    HW148673   8.951   6.979   9.990  0.3352 -0.4187  0.4358
15132SOL    HW248674   9.069   6.973   9.895 -0.4607  1.2862 -0.7051
15133SOL     OW48675   5.785   9.912  11.207 -0.1897 -0.1802  0.0513
15133SOL    HW148676   5.714   9.857  11.239 -1.2730  0.1892 -1.5803
15133SOL    HW248677   5.817   9.957  11.285 -0.5455 -1.6671  1.1037
15134SOL     OW48678   1.583   0.498   5.352  0.8439  0.1399 -0.8369
15134SOL    HW148679   1.600   0.461   5.439 -0.1740 -0.2538 -0.8038
15134SOL    HW248680   1.659   0.555   5.336  1.1065  0.1239  0.2543
15135SOL     OW48681   2.877   0.323   3.262 -0.1130  0.1622  0.3580
15135SOL    HW148682   2.809   0.386   3.285  0.6754  1.1022  0.2341
15135SOL    HW248683   2.959   0.372   3.272  0.6259 -1.2494  1.5921
15136SOL     OW48684   8.645   8.974   9.058  0.4307  0.5183 -0.4499
15136SOL    HW148685   8.707   9.025   9.110  0.0256  2.7427 -1.9995
15136SOL    HW248686   8.648   9.014   8.971 -2.0458 -0.2761 -0.9803
15137SOL     OW48687  11.143   9.010   2.782 -0.3282  0.5038  0.1766
15137SOL    HW148688  11.108   9.080   2.726 -1.0778 -0.2480 -0.3072
15137SOL    HW248689  11.116   9.033   2.870 -1.0809  0.5204 -0.0556
15138SOL     OW48690  10.276   6.118   3.425 -0.4494 -0.1305 -0.1031
15138SOL    HW148691  10.231   6.058   3.366 -0.1535 -1.3185  0.8382
15138SOL    HW248692  10.302   6.064   3.499  1.3219  0.7943  0.0157
15139SOL     OW48693   2.691   1.675   6.020  0.2808  0.1996  0.1277
15139SOL    HW148694   2.611   1.675   5.967  0.2780 -1.3719  0.0887
15139SOL    HW248695   2.710   1.767   6.034 -1.2570  0.6139 -0.2914
15140SOL     OW48696   1.795   1.199   7.120 -0.0729  0.4250  0.0948
15140SOL    HW148697   1.810   1.193   7.025  0.2722 -0.9600  0.2224
15140SOL    HW248698   1.805   1.293   7.139  1.9795  0.4663 -0.9025
15141SOL     OW48699  11.203   0.603   0.038 -0.0805  0.3144  0.1208
15141SOL    HW148700  11.121   0.587   0.083  0.3579 -0.3784  0.6854
15141SOL    HW248701  11.183   0.591  -0.055 -0.3065 -1.2781  0.3463
15142SOL     OW48702   7.080   6.617   2.710  0.5376  0.4411  0.0791
15142SOL    HW148703   7.141   6.554   2.748  0.3979  1.1543  1.5705
15142SOL    HW248704   7.137   6.685   2.673  0.6601  0.2906 -0.0129
15143SOL     OW48705   8.394  10.294   0.513  0.2499  0.6247 -0.1254
15143SOL    HW148706   8.485  10.324   0.515 -0.0170  1.4345  0.3739
15143SOL    HW248707   8.386  10.236   0.589 -0.0329  1.7733  0.7640
15144SOL     OW48708   3.269   9.390   2.742  0.1376  0.1064  0.4050
15144SOL    HW148709   3.219   9.317   2.705  0.6787 -0.2720  0.4127
15144SOL    HW248710   3.202   9.454   2.766 -0.3722 -0.5129  0.6897
15145SOL     OW48711   0.830   8.484   5.162  0.1157 -0.4903 -0.3932
15145SOL    HW148712   0.892   8.524   5.101  1.3979 -1.5938  0.1359
15145SOL    HW248713   0.866   8.502   5.249 -0.2196 -1.2777 -0.0793
15146SOL     OW48714   3.363  10.277   1.127  1.0108  0.0836  0.1204
15146SOL    HW148715   3.372  10.316   1.040  0.3405  0.8530  0.3786
15146SOL    HW248716   3.390  10.346   1.187 -1.9084  0.8892  0.6739
15147SOL     OW48717  10.143   5.360   4.334  0.3160 -0.4267 -0.6336
15147SOL    HW148718  10.139   5.304   4.411 -2.1921 -1.1691 -1.2199
15147SOL    HW248719  10.228   5.341   4.295  1.9501  0.4197  2.1847
15148SOL     OW48720   0.956   2.073   3.021 -0.3134 -0.3419  0.7924
15148SOL    HW148721   1.022   2.023   2.974 -0.4764  0.6999 -0.6049
15148SOL    HW248722   0.872   2.041   2.987 -0.4703 -0.2538  1.0873
15149SOL     OW48723   7.303   9.327   2.894 -0.3476  0.2637 -0.2926
15149SOL    HW148724   7.352   9.244   2.890 -0.7984 -0.1261  1.4326
15149SOL    HW248725   7.335   9.370   2.974 -0.0733  1.8105 -1.1945
15150SOL     OW48726   6.751  10.683   4.001  0.0269  0.2551 -0.4212
15150SOL    HW148727   6.708  10.598   4.013 -0.3525  0.0866 -2.5458
15150SOL    HW248728   6.684  10.747   4.025  0.3339 -0.0028  1.2578
15151SOL     OW48729   7.029  10.369   3.188 -0.3316 -0.3652  0.3994
15151SOL    HW148730   6.978  10.391   3.266 -1.1018  0.1538 -0.2401
15151SOL    HW248731   7.107  10.425   3.194  0.9952 -2.2737  2.1872
15152SOL     OW48732   9.870   7.011   8.814  0.4978  0.0749 -0.2481
15152SOL    HW148733   9.805   7.046   8.753  0.9211  1.4553  0.0367
15152SOL    HW248734   9.938   6.973   8.758  0.0254 -0.2945 -0.5763
15153SOL     OW48735   7.107   1.307   7.259 -0.6583 -0.4368  0.2865
15153SOL    HW148736   7.142   1.288   7.346 -0.0335 -0.0968  0.1152
15153SOL    HW248737   7.180   1.349   7.213 -1.1981 -0.0084 -0.1802
15154SOL     OW48738   6.992  10.732   4.480  0.7157  0.8253  0.4835
15154SOL    HW148739   6.966  10.743   4.388  1.1457  1.4775  0.4336
15154SOL    HW248740   6.972  10.817   4.520  1.4251  0.8582  0.7709
15155SOL     OW48741   0.038   2.048   8.169 -0.0686  0.2584 -0.1952
15155SOL    HW148742  -0.017   2.037   8.092 -0.6222 -1.3059  0.3796
15155SOL    HW248743   0.035   1.963   8.213  2.1178  0.3978  0.3250
15156SOL     OW48744   9.747   3.459  10.662 -0.0905 -0.3663  0.3423
15156SOL    HW148745   9.666   3.509  10.652  0.0162 -0.1435  0.5955
15156SOL    HW248746   9.754   3.409  10.581  0.3755  0.8502 -0.3978
15157SOL     OW48747   6.826   3.867  10.324 -0.6307  0.2817  0.2545
15157SOL    HW148748   6.844   3.960  10.316 -2.6045  0.6881  0.1974
15157SOL    HW248749   6.833   3.833  10.234  0.2508  0.3064  0.2988
15158SOL     OW48750   1.278   3.449   2.514 -0.1764  0.2988  0.4096
15158SOL    HW148751   1.193   3.407   2.526  0.2048 -0.2530  1.2955
15158SOL    HW248752   1.283   3.468   2.421 -1.4241  0.6655  0.4017
15159SOL     OW48753   3.021   0.765   0.314  0.5174  0.1312  0.6688
15159SOL    HW148754   2.977   0.695   0.267 -0.0367  0.8211  0.1263
15159SOL    HW248755   3.100   0.782   0.262  2.0334 -1.7907  2.1870
15160SOL     OW48756   9.036   3.063   6.561 -0.1116 -0.1911 -0.0928
15160SOL    HW148757   8.966   3.116   6.598  1.2303  0.9814  0.8973
15160SOL    HW248758   9.034   3.081   6.467 -0.4047  0.7319  0.0792
15161SOL     OW48759   9.914   4.048   4.642  0.0238 -0.5041 -0.2415
15161SOL    HW148760   9.874   4.025   4.725 -2.7859  2.7050 -0.4871
15161SOL    HW248761   9.849   4.025   4.576 -0.5783  2.6448 -0.8905
15162SOL     OW48762   2.081  10.423   9.777  0.1060  0.4910 -0.4048
15162SOL    HW148763   2.020  10.418   9.850  2.2407 -2.0065  1.3727
15162SOL    HW248764   2.144  10.490   9.803 -0.0454  0.7980 -0.7973
15163SOL     OW48765   0.163   1.077   6.716 -0.1594  0.1981 -0.6665
15163SOL    HW148766   0.188   0.985   6.723 -0.5903  0.0217 -1.4018
15163SOL    HW248767   0.079   1.082   6.762  0.4100  0.4690  0.3871
15164SOL     OW48768   6.585   4.473  11.289 -0.7330  0.1066  0.0337
15164SOL    HW148769   6.628   4.538  11.233 -0.1102  0.0690  0.4468
15164SOL    HW248770   6.628   4.390  11.267 -0.5330  0.0787  0.4979
15165SOL     OW48771   0.732   5.860   4.663 -0.2285 -0.3770  0.6221
15165SOL    HW148772   0.780   5.886   4.585 -1.1621 -0.2334  0.0821
15165SOL    HW248773   0.799   5.855   4.732  0.6799 -0.9126 -0.2626
15166SOL     OW48774   2.881  11.389   8.372 -0.0002 -0.4453  0.2796
15166SOL    HW148775   2.797  11.402   8.328 -0.5677  0.8796  1.6453
15166SOL    HW248776   2.862  11.407   8.464  2.0786  1.4026  0.4148
15167SOL     OW48777   7.148   2.533   0.505  0.1915  0.4363 -0.1441
15167SOL    HW148778   7.130   2.455   0.454 -0.4406  0.4377  0.0715
15167SOL    HW248779   7.073   2.590   0.490  0.8149  1.1588 -0.5906
15168SOL     OW48780  10.901   1.845   1.972  0.1376 -0.6077  0.3002
15168SOL    HW148781  10.980   1.852   1.919 -0.5881  0.6350 -0.6818
15168SOL    HW248782  10.860   1.763   1.944 -0.7693  0.5131 -1.9140
15169SOL     OW48783   3.184   3.513   0.658 -0.2034  0.0161 -0.4684
15169SOL    HW148784   3.166   3.462   0.579  2.9166  0.1337 -1.3743
15169SOL    HW248785   3.210   3.599   0.626 -2.2575  1.2655  0.9235
15170SOL     OW48786   9.548   8.141   7.803 -0.6444  0.7108 -0.3958
15170SOL    HW148787   9.505   8.220   7.837  0.4394  1.1369  0.0217
15170SOL    HW248788   9.575   8.093   7.881  1.9249  1.7308 -0.5649
15171SOL     OW48789   4.023   4.224  10.898  0.1877 -0.3735  0.1134
15171SOL    HW148790   3.944   4.278  10.899  0.1266 -0.4519  1.5669
15171SOL    HW248791   3.999   4.146  10.948  0.2868 -1.7747 -1.9032
15172SOL     OW48792   8.034   4.422   2.795 -0.5173 -0.1532 -0.1318
15172SOL    HW148793   8.050   4.515   2.807  3.4833 -0.2602 -2.7674
15172SOL    HW248794   7.966   4.418   2.727 -1.1104  0.7833  0.3850
15173SOL     OW48795   4.486   3.323   5.887  0.0704  0.2533 -0.1879
15173SOL    HW148796   4.418   3.258   5.867 -1.1079  0.6619  2.1922
15173SOL    HW248797   4.558   3.271   5.923  0.0372  0.0515 -0.4106
15174SOL     OW48798   4.679   8.568   5.975 -0.1028 -0.6327 -0.2259
15174SOL    HW148799   4.701   8.476   5.989 -0.4939 -0.7452 -0.3495
15174SOL    HW248800   4.658   8.601   6.062  0.9216 -0.4185 -0.0375
15175SOL     OW48801   5.870   4.045   3.460  0.3497  0.7651  0.2931
15175SOL    HW148802   5.843   4.134   3.481 -1.8672  0.0525  0.8123
15175SOL    HW248803   5.808   3.990   3.508  1.5207 -1.0543 -0.1882
15176SOL     OW48804   5.510   2.108   2.141  0.1553  0.2326 -0.0094
15176SOL    HW148805   5.487   2.196   2.113 -0.4407  0.2777  0.6086
15176SOL    HW248806   5.578   2.121   2.207 -1.8970  0.4234  2.1816
15177SOL     OW48807   7.754   2.245   5.454  0.4188 -0.5874  0.2579
15177SOL    HW148808   7.660   2.255   5.470  0.4819 -2.8361  2.6236
15177SOL    HW248809   7.759   2.182   5.381  0.1398  0.6605 -0.8752
15178SOL     OW48810   2.524   6.768   2.318 -0.6865  0.0742  0.4107
15178SOL    HW148811   2.555   6.683   2.289  1.6161  0.6053  1.0770
15178SOL    HW248812   2.533   6.824   2.241 -0.0684  0.1955  0.5651
15179SOL     OW48813   8.022   8.882   1.444 -0.1751  0.0367  0.4105
15179SOL    HW148814   8.047   8.804   1.395 -0.2198  1.0107 -1.2421
15179SOL    HW248815   7.927   8.877   1.450 -0.2090  0.1356 -0.0097
15180SOL     OW48816  10.761   6.821   3.474  0.2093 -0.6242 -0.1925
15180SOL    HW148817  10.757   6.742   3.528  2.0075 -1.7938 -1.6616
15180SOL    HW248818  10.848   6.858   3.491 -0.9882  1.7615  1.3253
15181SOL     OW48819   1.192   6.975  10.555 -0.0524 -0.0371 -0.6713
15181SOL    HW148820   1.103   6.940  10.554  0.8358 -2.8718  2.3564
15181SOL    HW248821   1.243   6.910  10.506  0.7496  0.0096  0.0776
15182SOL     OW48822   5.747   9.859   7.290  0.2411 -0.2201 -0.3090
15182SOL    HW148823   5.728   9.778   7.243 -0.8355  0.2736 -0.7688
15182SOL    HW248824   5.767   9.832   7.379  0.5793 -1.0393 -0.6258
15183SOL     OW48825   6.405  10.288   7.062  0.1079  0.2405  0.1205
15183SOL    HW148826   6.482  10.240   7.089  1.0166  0.5848 -1.6884
15183SOL    HW248827   6.348  10.223   7.021 -0.5126  0.0174  1.3027
15184SOL     OW48828   8.124   1.331   7.479 -0.2589 -0.3764  0.2183
15184SOL    HW148829   8.162   1.251   7.516 -0.9068 -0.8185 -0.0599
15184SOL    HW248830   8.155   1.401   7.537 -2.3084 -1.1971  2.4351
15185SOL     OW48831  10.051  10.504   6.886 -0.7272  0.9587 -0.6887
15185SOL    HW148832  10.012  10.591   6.885  0.8196  1.7638  1.4985
15185SOL    HW248833  10.145  10.519   6.894 -0.4003 -0.9106 -0.4031
15186SOL     OW48834   1.288   1.550   3.104  0.4509 -0.4259  0.1038
15186SOL    HW148835   1.203   1.595   3.109  0.2687 -0.8670  1.4386
15186SOL    HW248836   1.351   1.619   3.084  0.1212  0.3711  1.7074
15187SOL     OW48837   3.045  11.029   9.884 -0.2763  0.0765 -0.1460
15187SOL    HW148838   3.085  11.008   9.969 -0.6579  2.2539  0.6322
15187SOL    HW248839   2.951  11.029   9.901 -0.3203  2.0406 -0.1152
15188SOL     OW48840   7.927   2.190   5.958 -0.3280  0.0501 -0.1308
15188SOL    HW148841   7.859   2.185   5.891  0.9140  2.1522 -1.6809
15188SOL    HW248842   7.895   2.256   6.019 -0.5778 -0.4636  0.3058
15189SOL     OW48843   1.945   9.746   2.108 -0.1150  0.1424 -0.1811
15189SOL    HW148844   1.963   9.833   2.143 -1.1382  0.0162  0.7213
15189SOL    HW248845   1.921   9.761   2.017 -1.0128  0.8942  0.1676
15190SOL     OW48846   3.676   1.537   2.305  0.0703 -0.5611 -0.0457
15190SOL    HW148847   3.673   1.533   2.401 -0.6016  1.1673  0.0359
15190SOL    HW248848   3.623   1.463   2.276 -0.4387 -0.5911  0.9300
15191SOL     OW48849  10.454   2.617   8.121  0.1466 -0.1549 -0.3153
15191SOL    HW148850  10.433   2.592   8.211  0.8970 -0.7636 -0.2979
15191SOL    HW248851  10.533   2.672   8.129 -0.7090  1.1316 -0.4722
15192SOL     OW48852   8.469   1.806  11.272 -0.0143  0.0218  0.1579
15192SOL    HW148853   8.375   1.805  11.292 -0.1300  0.5077 -0.3327
15192SOL    HW248854   8.491   1.899  11.273  0.3802 -0.0710 -0.1248
15193SOL     OW48855  10.499   5.322  10.018  0.3184 -0.0342 -0.6922
15193SOL    HW148856  10.568   5.291   9.960 -0.1059  1.4228 -2.0605
15193SOL    HW248857  10.536   5.401  10.059 -0.5383  0.8367 -1.5390
15194SOL     OW48858   3.025   2.030   6.025 -0.8533  0.0556 -0.0421
15194SOL    HW148859   3.061   2.041   6.113  0.6512  0.4812 -0.6850
15194SOL    HW248860   2.999   2.119   5.999 -1.8430 -0.1576  0.1794
15195SOL     OW48861   1.950  10.643   3.548  0.2530 -0.8494  0.5105
15195SOL    HW148862   1.864  10.625   3.584 -0.9361 -0.8365 -2.1137
15195SOL    HW248863   1.935  10.706   3.478  2.7324  0.9584  1.4235
15196SOL     OW48864   7.611   5.471   9.975  0.8476 -0.6280 -0.7303
15196SOL    HW148865   7.568   5.392  10.007  0.8430 -0.3788 -0.1264
15196SOL    HW248866   7.643   5.446   9.888  0.7310 -1.2533 -0.6017
15197SOL     OW48867   0.375   4.818   1.710  0.1202  0.1402 -0.2727
15197SOL    HW148868   0.310   4.750   1.688  0.3952  0.3600 -1.9197
15197SOL    HW248869   0.330   4.900   1.693  0.1806  0.3476  0.5536
15198SOL     OW48870  11.260   4.632   7.742 -0.2033  0.2927 -0.1755
15198SOL    HW148871  11.173   4.669   7.727 -0.4179 -0.4549 -0.8113
15198SOL    HW248872  11.287   4.670   7.825 -1.3984  0.0432  0.3506
15199SOL     OW48873   1.544   6.654   8.374 -0.3023 -0.7201  0.2608
15199SOL    HW148874   1.559   6.749   8.371 -2.1899 -0.3291  1.5132
15199SOL    HW248875   1.590   6.620   8.298 -0.2569  1.3186 -0.6827
15200SOL     OW48876   6.875   5.583   4.886  0.0209  0.5398 -0.5622
15200SOL    HW148877   6.935   5.656   4.900 -0.4569  0.8007  0.2538
15200SOL    HW248878   6.826   5.577   4.968 -0.0382 -0.6203 -0.6658
15201SOL     OW48879   0.980   3.459   9.253 -0.4355 -0.3335 -0.0166
15201SOL    HW148880   1.018   3.412   9.327  0.5682  1.7250  0.8595
15201SOL    HW248881   0.896   3.492   9.287  0.3979  1.3159  0.5572
15202SOL     OW48882   6.287   8.672   6.384  0.0358  0.4144 -0.0200
15202SOL    HW148883   6.304   8.748   6.440 -0.0519  0.8805 -0.6156
15202SOL    HW248884   6.354   8.609   6.408 -0.6594  0.1820  1.3788
15203SOL     OW48885   5.775  11.032   4.046  1.0597  0.1181  0.0756
15203SOL    HW148886   5.712  10.994   4.107 -0.5425  1.6355 -0.5546
15203SOL    HW248887   5.776  11.126   4.066  2.9508  0.1993 -0.1323
15204SOL     OW48888  10.060   6.891   8.642 -0.5292  0.5192 -0.4987
15204SOL    HW148889  10.153   6.877   8.656 -0.4501  1.2157 -0.2865
15204SOL    HW248890  10.055   6.946   8.563 -0.6941  1.5313  0.2017
15205SOL     OW48891   5.730   7.969   7.828 -0.3340 -0.5015 -0.0483
15205SOL    HW148892   5.656   7.986   7.769 -0.0319  0.1521 -0.2468
15205SOL    HW248893   5.728   7.874   7.841  0.1497 -0.8118 -1.8890
15206SOL     OW48894   2.727   9.556  11.021  0.2755 -0.6391  0.1807
15206SOL    HW148895   2.692   9.487  10.964 -0.3136 -2.3745  2.4985
15206SOL    HW248896   2.822   9.547  11.014  0.2405 -2.6276  1.3814
15207SOL     OW48897   6.263   4.914   4.759  0.0717 -0.7925 -0.2381
15207SOL    HW148898   6.182   4.950   4.795 -0.0213 -2.0347  0.8676
15207SOL    HW248899   6.259   4.936   4.666 -1.4789 -0.7033 -0.1841
15208SOL     OW48900   9.401   1.854   3.864 -0.4114 -0.1485 -0.0314
15208SOL    HW148901   9.378   1.876   3.955  0.6760  1.1477 -0.0352
15208SOL    HW248902   9.385   1.935   3.816  1.1753 -0.1231 -0.5747
15209SOL     OW48903   9.861   4.923  10.938  0.1294 -0.2205  0.9427
15209SOL    HW148904   9.807   4.932  11.016 -0.7799  0.2484  0.2753
15209SOL    HW248905   9.880   5.013  10.911 -1.9794 -0.2620 -0.9826
15210SOL     OW48906   8.383  10.140   0.037  0.0366  0.0180 -0.3240
15210SOL    HW148907   8.347  10.227   0.025 -0.6737 -0.4136 -1.4041
15210SOL    HW248908   8.325  10.099   0.101 -0.8188 -0.3272 -1.3005
15211SOL     OW48909   4.491  10.685   8.155  0.6986 -0.5464 -0.1988
15211SOL    HW148910   4.397  10.696   8.144  0.5309 -0.2057  1.3650
15211SOL    HW248911   4.507  10.702   8.248  2.0802 -2.2355 -0.0679
15212SOL     OW48912  10.868  10.864  11.202 -0.1038  0.0082 -0.9048
15212SOL    HW148913  10.883  10.772  11.179 -0.7879 -0.1919 -0.5832
15212SOL    HW248914  10.774  10.869  11.218 -0.5157  1.3177 -3.3037
15213SOL     OW48915   6.627   6.313   6.968 -0.1710  0.0202 -0.0731
15213SOL    HW148916   6.602   6.226   6.999  0.5358 -0.7790 -1.6546
15213SOL    HW248917   6.546   6.349   6.932 -0.1181 -0.6738 -0.9249
15214SOL     OW48918   2.222   4.619   7.967 -0.0984  0.6898 -0.3564
15214SOL    HW148919   2.312   4.622   8.000  0.3302 -0.2900 -1.3977
15214SOL    HW248920   2.231   4.596   7.875 -1.2891  3.1353 -1.1599
15215SOL     OW48921  10.677   6.236   9.875 -0.5374 -0.1125 -0.1452
15215SOL    HW148922  10.749   6.244   9.938  1.1523  1.7544 -2.1643
15215SOL    HW248923  10.698   6.156   9.827 -1.7010 -1.4079  1.3797
15216SOL     OW48924  10.702   7.146   7.093 -0.3571  0.1566 -0.2454
15216SOL    HW148925  10.714   7.051   7.084  0.3287  0.2933 -0.8826
15216SOL    HW248926  10.761   7.171   7.164  0.5606  0.3085 -1.0409
15217SOL     OW48927   3.437   6.205   5.800 -0.1167 -0.1365 -0.0758
15217SOL    HW148928   3.489   6.231   5.876  0.0059  0.1769 -0.2646
15217SOL    HW248929   3.359   6.262   5.804  0.0831  0.1644 -0.4104
15218SOL     OW48930   5.928   0.628   8.932  0.2858  0.4153 -0.1230
15218SOL    HW148931   5.933   0.724   8.934  1.0871  0.3968 -0.9377
15218SOL    HW248932   5.913   0.606   8.840  1.1046 -0.2777 -0.1054
15219SOL     OW48933   1.471   4.245   1.935  0.2195  0.2682 -0.0183
15219SOL    HW148934   1.442   4.315   1.877  0.0307 -0.3313 -0.6607
15219SOL    HW248935   1.565   4.238   1.918  0.0532 -0.3392 -0.7424
15220SOL     OW48936   4.712   1.987  10.399 -0.1403  0.2356  0.1385
15220SOL    HW148937   4.634   1.965  10.449  1.4247 -1.1944  2.1184
15220SOL    HW248938   4.742   2.070  10.436 -0.2846  0.3905 -0.0881
15221SOL     OW48939   5.333   6.088   3.009 -0.1152  0.3286 -0.1184
15221SOL    HW148940   5.297   6.009   2.968  0.2372  0.1361 -0.0581
15221SOL    HW248941   5.372   6.137   2.937  0.3864  0.0538 -0.0403
15222SOL     OW48942   4.511   8.198   4.014 -0.0463 -0.3606  0.2299
15222SOL    HW148943   4.582   8.259   4.030 -1.8942  1.6823  1.0663
15222SOL    HW248944   4.531   8.123   4.070  2.1651 -0.5171 -0.6707
15223SOL     OW48945   3.332   4.009   2.010  0.0405 -0.0265 -0.0246
15223SOL    HW148946   3.348   3.920   1.979  0.3609 -1.0924  2.8199
15223SOL    HW248947   3.398   4.063   1.966  1.8551 -1.7737  0.4034
15224SOL     OW48948   4.936  10.998   3.886  0.4048  0.0374 -0.3981
15224SOL    HW148949   4.869  10.954   3.938  0.0168  0.2869 -0.6763
15224SOL    HW248950   5.002  11.024   3.949  1.4706 -2.3562 -0.3996
15225SOL     OW48951   1.767  11.380   9.881 -0.6544  0.5593 -0.0793
15225SOL    HW148952   1.794  11.289   9.871 -1.2557  0.4719 -1.0395
15225SOL    HW248953   1.841  11.423   9.925 -0.0268 -0.2116 -0.3692
15226SOL     OW48954  10.130   1.682   0.402  0.4329 -0.4939 -0.2448
15226SOL    HW148955  10.143   1.631   0.482  1.3089  0.7879  0.4622
15226SOL    HW248956  10.142   1.618   0.332  1.9649 -1.1964  0.5926
15227SOL     OW48957   3.773   7.758   3.756  0.1978 -0.1407 -0.1900
15227SOL    HW148958   3.836   7.814   3.800  0.9553 -0.8902 -0.3046
15227SOL    HW248959   3.695   7.760   3.812  0.0271  1.4005 -0.4479
15228SOL     OW48960   8.913   5.574   7.562  0.0190 -0.3318 -0.7077
15228SOL    HW148961   8.838   5.612   7.608  0.6852 -0.3287  0.3975
15228SOL    HW248962   8.898   5.597   7.470 -0.5750  0.9375 -0.3220
15229SOL     OW48963   0.865   5.667   4.898 -0.0517 -0.1699  0.1937
15229SOL    HW148964   0.835   5.679   4.988 -2.2729 -1.0861 -0.3458
15229SOL    HW248965   0.883   5.755   4.866  0.0350  0.2242  1.2977
15230SOL     OW48966   5.395   2.627   0.778  0.2873 -0.1744 -0.1667
15230SOL    HW148967   5.368   2.535   0.778 -1.2231  0.2413  1.0958
15230SOL    HW248968   5.314   2.676   0.768  0.4186  1.0986  3.4605
15231SOL     OW48969   5.620   2.000   8.656  0.1142  0.2260 -0.2127
15231SOL    HW148970   5.643   1.964   8.741 -1.7460 -2.3797 -0.6655
15231SOL    HW248971   5.618   2.095   8.669  0.3989 -0.0712  2.4773
15232SOL     OW48972   4.858  11.015  11.232 -0.0861 -0.4540  0.1204
15232SOL    HW148973   4.914  10.940  11.253  0.3056  0.4861  2.8723
15232SOL    HW248974   4.915  11.078  11.188  0.4533 -0.4276  0.8461
15233SOL     OW48975   2.354   3.610   6.202 -0.1851  0.3462  0.5447
15233SOL    HW148976   2.354   3.527   6.250  0.1914 -0.4569 -0.7783
15233SOL    HW248977   2.346   3.677   6.270 -2.0179 -0.8081  1.5638
15234SOL     OW48978   1.893  10.168   8.139 -0.0687  0.4622 -0.8361
15234SOL    HW148979   1.868  10.231   8.207  1.2269  0.2922 -0.1694
15234SOL    HW248980   1.810  10.137   8.104 -0.8038  0.3704  0.8508
15235SOL     OW48981   3.555   3.351   5.916  0.2520 -0.6083  0.3989
15235SOL    HW148982   3.524   3.265   5.942 -0.2331 -0.7654 -0.6520
15235SOL    HW248983   3.512   3.412   5.976 -1.5400 -0.8875 -0.5314
15236SOL     OW48984  10.676  11.155   9.428 -0.8389 -0.2234 -0.2529
15236SOL    HW148985  10.746  11.218   9.442 -1.4657  0.5946 -0.7615
15236SOL    HW248986  10.695  11.084   9.490  1.4087 -0.8446 -1.5468
15237SOL     OW48987  10.210  11.320   2.726  0.0865  0.3484  0.9165
15237SOL    HW148988  10.238  11.409   2.708 -1.4832  0.6364 -0.2354
15237SOL    HW248989  10.232  11.271   2.647 -2.4184  0.5639 -0.0035
15238SOL     OW48990   5.649   6.597  10.269 -0.2499  0.0554  0.2854
15238SOL    HW148991   5.738   6.623  10.293 -0.7379  1.9633  0.2218
15238SOL    HW248992   5.640   6.623  10.177 -1.3016  1.2472  0.6838
15239SOL     OW48993  10.873  10.960   4.416  0.5074 -0.1969  0.0112
15239SOL    HW148994  10.798  11.017   4.404  0.1244 -0.4099  1.2528
15239SOL    HW248995  10.921  10.998   4.490  1.7893  0.0850 -0.9116
15240SOL     OW48996   5.169  10.640   0.207  0.1065 -0.1938 -0.0641
15240SOL    HW148997   5.262  10.645   0.186 -0.3335 -1.2674 -2.6221
15240SOL    HW248998   5.139  10.561   0.162 -2.0483  0.0768  0.7902
15241SOL     OW48999   3.445  10.077   6.325  0.4437  0.7460 -0.3782
15241SOL    HW149000   3.458   9.983   6.316 -2.9726 -0.1865  2.3998
15241SOL    HW249001   3.390  10.100   6.250 -1.7063 -0.3369  0.7693
15242SOL     OW49002   6.533   7.953   9.418 -0.3124 -0.0930  0.4480
15242SOL    HW149003   6.543   7.922   9.508 -0.3607  1.1902  0.9196
15242SOL    HW249004   6.600   8.020   9.408  1.8512 -2.3541 -1.5560
15243SOL     OW49005   6.487   2.311   1.338  0.4545 -0.1532 -0.2150
15243SOL    HW149006   6.476   2.235   1.281  1.0638 -1.3006  1.1543
15243SOL    HW249007   6.576   2.302   1.372  0.0362  0.4018  1.0715
15244SOL     OW49008   2.536   8.842   0.232 -0.3183  0.2768 -0.1738
15244SOL    HW149009   2.611   8.884   0.273 -1.0307  2.0773 -0.6078
15244SOL    HW249010   2.574   8.770   0.180  1.1702  1.4194 -0.7491
15245SOL     OW49011   3.981   9.386   9.671 -0.4806 -0.1001  0.3743
15245SOL    HW149012   4.001   9.410   9.581 -0.2721 -0.4299  0.3276
15245SOL    HW249013   3.948   9.296   9.665  0.5245 -0.5177  0.7241
15246SOL     OW49014   8.272   7.124   2.527 -0.1799 -0.0226  0.0863
15246SOL    HW149015   8.263   7.084   2.614  1.3007  2.8370  1.7146
15246SOL    HW249016   8.182   7.130   2.495 -0.9426  0.1710  2.1081
15247SOL     OW49017  10.206   7.971   3.938 -0.2026  0.2287  0.1788
15247SOL    HW149018  10.169   7.899   3.887 -0.9005  0.6303  0.1025
15247SOL    HW249019  10.294   7.942   3.961 -0.4047 -0.5602 -0.0280
15248SOL     OW49020   3.780   0.598  10.477  0.1091 -0.8422  0.1230
15248SOL    HW149021   3.867   0.621  10.510 -0.4764  1.3436  0.3434
15248SOL    HW249022   3.725   0.594  10.555 -0.3877 -0.1082 -0.1782
15249SOL     OW49023   6.399   4.772   3.753 -0.3170  1.1248  0.0774
15249SOL    HW149024   6.355   4.801   3.674  0.4274  1.4964 -0.2101
15249SOL    HW249025   6.331   4.729   3.804 -0.3019 -1.4763 -1.8904
15250SOL     OW49026   9.676   1.075  11.159 -0.2935  0.4395 -0.6469
15250SOL    HW149027   9.597   1.021  11.164 -0.1770  0.3352  0.2000
15250SOL    HW249028   9.668   1.137  11.231  0.9934 -0.4106  0.2666
15251SOL     OW49029   1.969   7.569   2.291  0.0333 -0.2810  0.0344
15251SOL    HW149030   1.963   7.645   2.233  0.8826 -1.2690 -1.4036
15251SOL    HW249031   2.062   7.561   2.312 -0.0706 -0.8074  0.3263
15252SOL     OW49032   8.789   0.496   6.689  0.2714 -0.5042  0.1869
15252SOL    HW149033   8.761   0.495   6.597  0.8121  0.3460 -0.0001
15252SOL    HW249034   8.883   0.511   6.685  0.2520 -0.1672  0.8784
15253SOL     OW49035   2.027   8.594   0.175 -0.6226  0.6989 -0.2028
15253SOL    HW149036   1.942   8.560   0.202  0.6236 -1.9807  0.6895
15253SOL    HW249037   2.052   8.540   0.101 -0.5845  2.9489 -1.9635
15254SOL     OW49038   2.382   9.643   5.072  0.4082 -0.0398  0.0575
15254SOL    HW149039   2.414   9.614   4.987  0.2918 -0.5862  0.1989
15254SOL    HW249040   2.327   9.719   5.052 -1.0882 -1.2415 -0.5411
15255SOL     OW49041  11.002  10.413   1.702  0.4897 -0.5773  0.4056
15255SOL    HW149042  10.929  10.471   1.725  0.4148 -0.2205 -0.7115
15255SOL    HW249043  10.967  10.324   1.718  0.0132 -0.3907  0.4300
15256SOL     OW49044   7.626   2.667   5.888  0.0585  0.2624 -0.0569
15256SOL    HW149045   7.719   2.662   5.906  0.3853  1.4751 -1.1765
15256SOL    HW249046   7.593   2.734   5.948 -0.6817 -1.9578  2.2033
15257SOL     OW49047   9.829   3.607   3.462  0.2275  0.5000  0.2741
15257SOL    HW149048   9.776   3.686   3.467 -2.0554 -0.9890  3.5617
15257SOL    HW249049   9.771   3.542   3.421  0.9935 -0.1685  0.2215
15258SOL     OW49050   0.571   6.912   3.414  0.5690 -0.2940 -0.3168
15258SOL    HW149051   0.659   6.940   3.392  0.6717 -1.8957 -2.1869
15258SOL    HW249052   0.582   6.858   3.493  1.3473 -0.8555 -0.7985
15259SOL     OW49053   2.821   7.520   3.229 -0.4426  0.3921 -0.0247
15259SOL    HW149054   2.912   7.547   3.236  0.4127 -2.1934 -0.2438
15259SOL    HW249055   2.809   7.498   3.136 -0.6149 -1.3031  0.3621
15260SOL     OW49056   0.198   2.049   3.340  0.6488  0.0123  0.1288
15260SOL    HW149057   0.129   2.072   3.277  0.4782  0.6390  0.5321
15260SOL    HW249058   0.234   1.967   3.307  1.7581  1.1985 -1.7875
15261SOL     OW49059   7.041   1.708  10.746  0.0296  0.3302 -0.0290
15261SOL    HW149060   7.128   1.670  10.736  0.9985  2.2057  0.8294
15261SOL    HW249061   7.029   1.762  10.667 -0.7573 -0.6186 -0.5785
15262SOL     OW49062   2.248   7.750  11.138 -0.0583 -0.0954  0.6027
15262SOL    HW149063   2.332   7.708  11.155  0.4219  1.3299  2.1667
15262SOL    HW249064   2.259   7.794  11.054 -0.0017 -1.6331 -0.2236
15263SOL     OW49065  10.091   9.551  10.147 -0.0182  0.1034 -0.4440
15263SOL    HW149066  10.035   9.619  10.110  0.7147  0.4526 -0.9321
15263SOL    HW249067  10.133   9.593  10.222 -0.7886 -0.3178  0.2387
15264SOL     OW49068   8.065  10.922   4.848  0.3973 -0.0646  0.8513
15264SOL    HW149069   8.129  10.916   4.777  0.9629 -0.9874  1.4235
15264SOL    HW249070   8.024  10.836   4.851  0.0560  0.1125  1.3518
15265SOL     OW49071   5.603  11.138   5.845  0.1377  0.0417  0.7666
15265SOL    HW149072   5.597  11.064   5.784  1.4920  0.0528  0.5701
15265SOL    HW249073   5.542  11.203   5.811  0.0260 -0.4141  0.0850
15266SOL     OW49074   8.400   2.541   9.531 -0.3807 -0.1725 -0.2418
15266SOL    HW149075   8.418   2.625   9.489  0.0189  0.4676  1.1435
15266SOL    HW249076   8.461   2.480   9.490 -0.5325  0.2480 -1.1163
15267SOL     OW49077   1.088   1.961   6.923 -0.0825 -0.7678 -0.6725
15267SOL    HW149078   1.133   1.887   6.964 -0.9584 -1.6174 -1.2149
15267SOL    HW249079   1.159   2.020   6.897  0.6390 -1.4672 -0.3402
15268SOL     OW49080   9.986   0.638   8.502  0.4507  0.8177  0.3066
15268SOL    HW149081   9.947   0.713   8.456 -0.7034 -0.6377 -1.1891
15268SOL    HW249082  10.080   0.653   8.495  0.2585  1.6588 -0.8214
15269SOL     OW49083   5.164   3.102   0.139  0.1349 -0.0260  0.3745
15269SOL    HW149084   5.127   3.016   0.121 -2.5062  0.9394  0.7159
15269SOL    HW249085   5.131   3.158   0.070  1.0484  0.9239  0.6762
15270SOL     OW49086   9.535   8.403   4.487 -0.0744  0.3167 -0.9369
15270SOL    HW149087   9.499   8.314   4.491  0.6127  0.0062 -1.5477
15270SOL    HW249088   9.458   8.460   4.491 -0.4525 -0.2451  0.9365
15271SOL     OW49089   2.042   8.057   2.464  0.7622 -0.7347  0.4811
15271SOL    HW149090   2.058   8.128   2.403 -0.1334 -2.3908 -1.8325
15271SOL    HW249091   1.947   8.055   2.476  0.8297 -1.1456  1.0273
15272SOL     OW49092   4.652   9.967   8.347 -0.0265 -0.2369 -0.0713
15272SOL    HW149093   4.588  10.034   8.370  0.8271  0.0616  1.5467
15272SOL    HW249094   4.646   9.961   8.251  0.5928  2.9224 -0.4307
15273SOL     OW49095   4.418   5.048   7.933 -0.5038  0.6991 -0.0771
15273SOL    HW149096   4.422   5.133   7.889  0.1832 -0.0722 -1.5672
15273SOL    HW249097   4.476   5.058   8.008 -0.0704  1.4048 -0.4900
15274SOL     OW49098   1.678   1.697  10.574 -0.1555  0.4599  0.3745
15274SOL    HW149099   1.582   1.697  10.578 -0.4367 -0.0949 -3.1252
15274SOL    HW249100   1.704   1.613  10.611 -0.9454  0.6880  1.5245
15275SOL     OW49101   4.486   5.664   2.754 -0.2953 -0.4005 -0.1163
15275SOL    HW149102   4.569   5.708   2.773  0.1730 -0.9393 -0.8454
15275SOL    HW249103   4.456   5.632   2.840  1.8433 -2.9147 -0.1659
15276SOL     OW49104   2.262   5.055   5.480 -0.5148 -0.1034 -0.6957
15276SOL    HW149105   2.253   5.028   5.389 -0.3450  0.4833 -0.8881
15276SOL    HW249106   2.334   5.118   5.480  1.1950 -1.9300  0.2390
15277SOL     OW49107   8.164   1.542  11.331 -0.1279 -0.0869  0.3974
15277SOL    HW149108   8.127   1.506  11.412  0.2116  0.9549  1.0300
15277SOL    HW249109   8.200   1.627  11.356  0.2238  0.1393 -0.7970
15278SOL     OW49110   6.973   7.412  10.761 -0.3981  0.4324  0.1911
15278SOL    HW149111   6.948   7.415  10.669 -0.2664  0.5739  0.1588
15278SOL    HW249112   7.061   7.449  10.763  0.4458 -1.4894  0.0846
15279SOL     OW49113   6.205   8.065   4.196 -0.7296 -0.1495 -0.0024
15279SOL    HW149114   6.227   7.983   4.240 -1.0077  0.8012  2.0171
15279SOL    HW249115   6.122   8.048   4.152  0.6489 -1.7973 -2.1403
15280SOL     OW49116   6.624   0.615  11.002  0.3805  0.0030 -0.1881
15280SOL    HW149117   6.643   0.582  11.090 -0.6669  0.0173  0.0511
15280SOL    HW249118   6.609   0.536  10.950  0.0087  0.0252 -0.1173
15281SOL     OW49119   0.117   2.935   2.948 -0.2008 -0.0149  0.8017
15281SOL    HW149120   0.069   2.855   2.926 -0.1112  0.3537 -0.8689
15281SOL    HW249121   0.051   2.992   2.987 -0.9810  0.1729 -0.7062
15282SOL     OW49122   3.408   6.531   1.669 -0.2368  0.1509  0.1109
15282SOL    HW149123   3.495   6.570   1.672 -0.5277  0.7542  0.8053
15282SOL    HW249124   3.348   6.605   1.660 -0.6417 -0.3119 -1.4701
15283SOL     OW49125   3.524   6.210   4.191  0.3009 -0.1497  0.1384
15283SOL    HW149126   3.493   6.269   4.122  1.0238 -0.9273 -0.8771
15283SOL    HW249127   3.484   6.126   4.170 -0.4367 -0.1249  1.3760
15284SOL     OW49128  10.144   7.625   6.964  0.0029 -0.3086  1.0019
15284SOL    HW149129  10.073   7.575   6.923 -0.4757  1.1346  0.0033
15284SOL    HW249130  10.216   7.618   6.901  0.0589 -0.0367  1.0375
15285SOL     OW49131   5.530   7.308   1.830  0.0106  0.3419  0.0029
15285SOL    HW149132   5.578   7.299   1.747 -2.0268 -1.2668 -1.0898
15285SOL    HW249133   5.454   7.362   1.808 -0.0107  0.7904  1.1071
15286SOL     OW49134   0.868   2.962   0.886  0.4750  0.4038  0.0123
15286SOL    HW149135   0.890   2.984   0.795 -0.7808  2.3540  0.1289
15286SOL    HW249136   0.914   3.028   0.938  1.3645 -0.8266  0.8662
15287SOL     OW49137   9.711   9.244   2.867 -0.0955  0.3285 -0.1948
15287SOL    HW149138   9.661   9.198   2.801  0.3198  0.7216 -0.7928
15287SOL    HW249139   9.645   9.293   2.918 -0.4712 -0.4337  0.0645
15288SOL     OW49140   2.460   8.969   7.138  0.0132  0.2109 -0.0297
15288SOL    HW149141   2.391   9.033   7.157 -0.2913 -0.0360 -0.2951
15288SOL    HW249142   2.443   8.942   7.048 -0.7219 -1.3027  0.5299
15289SOL     OW49143   5.021   9.056   7.905 -0.2037  0.2570 -0.3380
15289SOL    HW149144   4.931   9.081   7.886 -0.5284 -0.7935 -0.2393
15289SOL    HW249145   5.032   9.076   7.998 -0.7672 -0.8139 -0.0230
15290SOL     OW49146   3.712   6.775  10.589 -0.2103  0.3308 -0.2225
15290SOL    HW149147   3.704   6.760  10.683  0.5521 -0.6412 -0.2940
15290SOL    HW249148   3.700   6.869  10.578  1.0379  0.6635  1.0145
15291SOL     OW49149   2.727   2.352  11.306 -0.4915 -0.0067 -0.4896
15291SOL    HW149150   2.677   2.388  11.380 -0.2857  1.8831 -1.2158
15291SOL    HW249151   2.727   2.258  11.321 -1.3732  0.2372  1.3440
15292SOL     OW49152   2.775  10.173  10.223  0.3168 -0.0684 -0.0400
15292SOL    HW149153   2.797  10.186  10.131  1.1135  1.1295  0.2891
15292SOL    HW249154   2.687  10.137  10.222 -0.4602  1.7441 -1.2240
15293SOL     OW49155  10.916   7.228  10.126  0.0995  0.2036  0.1767
15293SOL    HW149156  10.828   7.252  10.157 -0.2061 -0.8867  0.1756
15293SOL    HW249157  10.916   7.254  10.033  0.2962  1.5409  0.5266
15294SOL     OW49158  11.011   5.169   6.856  0.4686  0.4731 -0.5202
15294SOL    HW149159  10.932   5.149   6.805  1.1238  1.8935 -2.2179
15294SOL    HW249160  10.981   5.229   6.924 -0.7647 -2.8156  2.1083
15295SOL     OW49161   8.729   7.407   3.753  0.1658  0.2612 -0.5490
15295SOL    HW149162   8.742   7.319   3.790  1.1362  0.4196 -0.4911
15295SOL    HW249163   8.816   7.435   3.727 -0.1234  1.2618 -0.4719
15296SOL     OW49164   0.874   9.552   9.656 -0.6308 -0.2223 -0.5558
15296SOL    HW149165   0.947   9.506   9.697 -0.5831  0.5197  0.2332
15296SOL    HW249166   0.799   9.532   9.713 -0.6002  0.6809 -0.1734
15297SOL     OW49167  10.170   0.949  11.187 -0.4689  0.0498 -0.1051
15297SOL    HW149168  10.238   1.016  11.183  0.1283 -0.6023 -2.2244
15297SOL    HW249169  10.093   0.991  11.148 -1.0413  0.4484  1.3618
15298SOL     OW49170   2.145   7.179   2.805 -0.3446  0.2133 -0.0615
15298SOL    HW149171   2.214   7.133   2.853 -1.1484 -0.1236  0.8049
15298SOL    HW249172   2.160   7.272   2.825  0.4698  0.2402 -0.7281
15299SOL     OW49173  10.675   1.296   0.459  0.1993  0.6103  0.0508
15299SOL    HW149174  10.715   1.340   0.535 -0.5412 -0.0826  0.8664
15299SOL    HW249175  10.582   1.316   0.466 -0.2490 -1.4090  0.7188
15300SOL     OW49176   4.336   9.559   4.129  0.0389  0.8412 -0.0335
15300SOL    HW149177   4.358   9.498   4.199  0.5639  2.4772  1.2926
15300SOL    HW249178   4.241   9.567   4.133 -0.0018  0.3474 -0.0095
15301SOL     OW49179   7.856  11.002   8.476 -0.1735 -0.5447 -0.5241
15301SOL    HW149180   7.899  10.953   8.546 -1.5344 -1.9498 -0.6229
15301SOL    HW249181   7.766  10.968   8.475 -1.7146  2.9361  0.4088
15302SOL     OW49182   8.519  10.820   5.137 -0.2358 -0.1254 -0.1489
15302SOL    HW149183   8.507  10.915   5.147 -1.3023 -0.0930 -1.4336
15302SOL    HW249184   8.574  10.812   5.059  0.7065 -0.5638  0.5374
15303SOL     OW49185   5.364  11.268   3.046 -0.0982  0.2562 -0.0807
15303SOL    HW149186   5.419  11.220   2.984  1.6020 -1.2044  2.3951
15303SOL    HW249187   5.275  11.237   3.027  0.3969 -0.4166 -1.4953
15304SOL     OW49188   9.705  10.879   5.990  0.4863 -0.0153 -0.0591
15304SOL    HW149189   9.800  10.879   5.972  0.2607 -0.0450 -1.3934
15304SOL    HW249190   9.667  10.841   5.911 -0.7183  0.9067  0.0535
15305SOL     OW49191   0.198   3.924  11.381  0.1967  0.3546 -0.1777
15305SOL    HW149192   0.215   3.832  11.400  1.4139  0.4040 -0.9361
15305SOL    HW249193   0.123   3.922  11.321  0.3144 -0.1409 -0.3108
15306SOL     OW49194   6.259  11.152   7.320  0.0357  0.4512  0.1098
15306SOL    HW149195   6.332  11.205   7.354 -1.3447  1.9194  0.8983
15306SOL    HW249196   6.265  11.070   7.369  1.7599  0.1030 -0.5935
15307SOL     OW49197   6.777   2.774  10.925 -0.0452  0.1802  0.4559
15307SOL    HW149198   6.711   2.758  10.858  1.6731  0.8245 -1.4642
15307SOL    HW249199   6.762   2.864  10.954 -1.2342 -0.3266  1.5148
15308SOL     OW49200   3.128   5.833   0.738  0.2830 -0.3857  0.1352
15308SOL    HW149201   3.121   5.743   0.707  3.7263 -0.3680 -1.0570
15308SOL    HW249202   3.160   5.825   0.828 -0.6051 -0.2992  0.4783
15309SOL     OW49203   4.215  10.413   8.368  0.0567 -0.1252  0.1030
15309SOL    HW149204   4.291  10.464   8.397  0.7049 -0.5146 -0.8450
15309SOL    HW249205   4.149  10.479   8.345  0.7017  0.2838 -0.6339
15310SOL     OW49206  10.000   6.380   7.261  0.1671  0.2510 -0.7083
15310SOL    HW149207  10.089   6.393   7.230  0.4211  0.2486  0.0058
15310SOL    HW249208   9.982   6.455   7.317  0.1973 -0.3974  0.2011
15311SOL     OW49209  10.772   8.367   7.245  0.6046 -0.3841  0.4422
15311SOL    HW149210  10.794   8.356   7.338  0.0707  1.4920  0.8548
15311SOL    HW249211  10.820   8.298   7.200 -1.4721 -3.2909  2.3812
15312SOL     OW49212   3.482   3.731   4.066 -0.1923  0.5556  0.2936
15312SOL    HW149213   3.563   3.767   4.029 -0.2323 -0.7339 -1.1286
15312SOL    HW249214   3.512   3.671   4.135  0.1199 -0.3530 -0.6069
15313SOL     OW49215   4.785   2.332   9.938 -0.3842 -0.1263  0.0121
15313SOL    HW149216   4.735   2.351  10.018 -2.4118  0.3809 -1.3034
15313SOL    HW249217   4.826   2.416   9.916 -1.1144  0.1571 -0.3108
15314SOL     OW49218   0.996   5.004   4.723  0.2149  0.0168 -0.2484
15314SOL    HW149219   0.927   5.042   4.776 -0.2741 -1.4960  0.2700
15314SOL    HW249220   0.991   5.050   4.639 -1.9117 -0.5438 -0.4816
15315SOL     OW49221   5.177   7.598   3.846 -0.1069 -0.2232 -0.6227
15315SOL    HW149222   5.148   7.641   3.766  0.6438 -1.5656 -1.6527
15315SOL    HW249223   5.097   7.586   3.897 -0.5507  0.8886 -1.0170
15316SOL     OW49224   6.384  11.161   9.384  0.1334  0.5768  0.6224
15316SOL    HW149225   6.342  11.187   9.302 -0.0731  1.4812  0.9978
15316SOL    HW249226   6.477  11.155   9.363  0.1283  1.2124  0.4172
15317SOL     OW49227   5.730   3.962   2.912  0.0179  0.3676  0.7227
15317SOL    HW149228   5.713   3.868   2.905  0.8912  0.2553  0.0029
15317SOL    HW249229   5.812   3.969   2.962  1.2771  0.6261 -1.2993
15318SOL     OW49230   5.196   9.270   7.058 -0.2117  0.4335 -0.3525
15318SOL    HW149231   5.199   9.184   7.016 -1.4234  0.9842 -1.6218
15318SOL    HW249232   5.264   9.321   7.014 -0.0793  0.3979 -0.1937
15319SOL     OW49233   5.627   7.618   1.185 -0.2284 -0.2772  0.3007
15319SOL    HW149234   5.694   7.610   1.117  1.2067  2.1588  1.3441
15319SOL    HW249235   5.544   7.617   1.136  0.6710 -0.3944 -1.2989
15320SOL     OW49236   8.149   4.520   3.373  0.1812 -0.1146 -0.1903
15320SOL    HW149237   8.193   4.446   3.331 -0.8902 -0.3833 -0.8897
15320SOL    HW249238   8.075   4.540   3.315 -1.3328 -0.4512  1.5168
15321SOL     OW49239   9.815   7.187   3.409  0.2486 -0.3356  0.4673
15321SOL    HW149240   9.721   7.189   3.425  0.1435 -0.7546 -0.0602
15321SOL    HW249241   9.824   7.152   3.320  0.7397  3.1098 -0.9894
15322SOL     OW49242   3.973   7.475  10.317 -0.6011 -0.9471 -0.2818
15322SOL    HW149243   4.028   7.444  10.390 -1.4003 -1.2600  0.2013
15322SOL    HW249244   3.958   7.568  10.337 -1.2604 -1.1571  0.2589
15323SOL     OW49245   1.469   9.927  10.096 -0.0476 -0.0253 -0.0946
15323SOL    HW149246   1.499  10.016  10.080 -3.0543  1.4300  1.5163
15323SOL    HW249247   1.490   9.911  10.188  1.0727 -1.3019 -0.5422
15324SOL     OW49248   0.053   7.497   0.602  0.3772 -0.7564  0.2644
15324SOL    HW149249  -0.007   7.425   0.621  1.2300 -1.9409 -1.2805
15324SOL    HW249250   0.125   7.486   0.663  0.7285 -1.5274 -0.2707
15325SOL     OW49251   9.207   0.654   9.035  0.3124 -0.7924 -0.2587
15325SOL    HW149252   9.294   0.668   8.999  0.1139  1.2584 -0.0475
15325SOL    HW249253   9.158   0.611   8.965  0.9522 -0.1794 -1.0974
15326SOL     OW49254   0.749   1.335   6.863  0.7471 -0.4196  0.2038
15326SOL    HW149255   0.715   1.409   6.814  0.0553 -0.8638 -0.0052
15326SOL    HW249256   0.683   1.319   6.932  0.0420 -1.8425 -0.7495
15327SOL     OW49257  10.291   5.656   3.487 -0.0385 -0.4327 -0.4007
15327SOL    HW149258  10.319   5.688   3.401 -1.2147  0.0663 -0.6262
15327SOL    HW249259  10.279   5.736   3.539 -0.8666 -0.6249 -0.2788
15328SOL     OW49260   4.492   7.242   4.913  0.5158 -0.0944 -0.0966
15328SOL    HW149261   4.455   7.325   4.883  1.2513  0.6845  1.0667
15328SOL    HW249262   4.587   7.259   4.918  0.5514 -0.5982  1.3248
15329SOL     OW49263   4.764   6.490   1.685 -0.3671 -0.0307  0.0518
15329SOL    HW149264   4.847   6.535   1.672  0.6080 -2.2546 -2.3527
15329SOL    HW249265   4.714   6.547   1.743  2.8498  1.3396  1.6996
15330SOL     OW49266   5.137   1.814   7.885  0.3652 -0.2540 -0.0564
15330SOL    HW149267   5.174   1.840   7.969  0.2147  1.4335 -0.4881
15330SOL    HW249268   5.196   1.746   7.852  1.5283  0.4525  0.5233
15331SOL     OW49269   6.498   2.632   0.577 -0.5337  0.0668  0.1246
15331SOL    HW149270   6.436   2.605   0.509 -0.3660 -2.0617  0.7516
15331SOL    HW249271   6.546   2.553   0.599 -0.7317  0.5892  2.8934
15332SOL     OW49272  10.993   4.541  10.904  0.2004  0.3563  0.5324
15332SOL    HW149273  10.950   4.458  10.920 -0.1012  0.5809  0.9079
15332SOL    HW249274  10.923   4.606  10.910  0.5226  0.6884  0.7926
15333SOL     OW49275  10.017   7.276   3.128 -0.7378  0.2944  0.1191
15333SOL    HW149276   9.945   7.212   3.129  1.0547 -1.8975 -1.3698
15333SOL    HW249277  10.093   7.226   3.098  1.6008  2.3527  2.1659
15334SOL     OW49278   8.472  11.158   5.168  0.1440 -0.3836 -0.1356
15334SOL    HW149279   8.377  11.171   5.166 -0.1476 -2.1983 -2.1042
15334SOL    HW249280   8.498  11.185   5.256 -2.3306 -0.7250  0.7815
15335SOL     OW49281   1.318   7.480   6.533 -0.2142 -0.2403  0.4607
15335SOL    HW149282   1.309   7.571   6.563  0.7829 -0.0773  0.3018
15335SOL    HW249283   1.270   7.429   6.599  1.5329  0.1531  2.1338
15336SOL     OW49284   5.845   3.011   3.014  0.5064  0.3370  0.3238
15336SOL    HW149285   5.839   3.095   3.059 -1.6035 -0.0039  0.7831
15336SOL    HW249286   5.815   2.947   3.079 -1.2980 -0.3322 -1.0787
15337SOL     OW49287   0.922   3.950   0.526  0.7111 -0.4532 -0.5209
15337SOL    HW149288   0.895   4.027   0.476  1.3876 -0.7051 -1.2981
15337SOL    HW249289   0.889   3.966   0.614  0.0799  0.3147 -0.8815
15338SOL     OW49290   3.869   3.970   3.007 -0.1763  0.1810 -0.3855
15338SOL    HW149291   3.885   4.006   3.094 -0.3645 -0.6205 -0.0051
15338SOL    HW249292   3.938   3.905   2.995 -1.4108 -1.2629  0.0862
15339SOL     OW49293   0.899   9.941   4.350  0.5552 -0.2000  0.2989
15339SOL    HW149294   0.804   9.950   4.338  0.6018  0.6007  0.5029
15339SOL    HW249295   0.934   9.938   4.261  0.4731  1.0808  0.2053
15340SOL     OW49296   1.070   7.435  10.570  0.3337  0.3608 -0.2780
15340SOL    HW149297   1.105   7.351  10.598 -0.2039  0.1857 -0.1384
15340SOL    HW249298   1.146   7.482  10.535  0.8602  0.2708  0.7221
15341SOL     OW49299   6.358  10.868   8.524 -0.0063  0.0912 -0.1471
15341SOL    HW149300   6.375  10.960   8.504  0.1550  0.5156  1.7271
15341SOL    HW249301   6.343  10.827   8.439  0.2353  1.7787 -1.0453
15342SOL     OW49302   5.272  11.297  10.362  0.2221 -0.1530 -0.6471
15342SOL    HW149303   5.292  11.384  10.396  0.1896 -0.9554  1.6097
15342SOL    HW249304   5.183  11.304  10.328  1.0358  1.2364 -2.7059
15343SOL     OW49305   4.518   1.704   2.356  0.1771  0.3409 -0.4250
15343SOL    HW149306   4.459   1.648   2.305 -0.2363  0.2574  0.1298
15343SOL    HW249307   4.569   1.642   2.408 -0.6653  0.4821  0.6032
15344SOL     OW49308  10.847   5.127  11.108  0.1565  0.0833  0.0442
15344SOL    HW149309  10.908   5.100  11.040 -0.0888 -0.9508  0.2092
15344SOL    HW249310  10.864   5.067  11.181 -0.1936  0.5962  0.5587
15345SOL     OW49311   7.289   5.142   4.725  0.2878  0.1195 -0.3088
15345SOL    HW149312   7.278   5.237   4.725 -2.1767 -0.1061 -0.0941
15345SOL    HW249313   7.207   5.108   4.691  0.4972 -1.9934  1.0987
15346SOL     OW49314  10.615   3.272   7.173  0.5933  0.1968 -0.3305
15346SOL    HW149315  10.578   3.188   7.147 -0.5299  0.9302 -1.1718
15346SOL    HW249316  10.686   3.249   7.233  0.5467 -1.3577 -0.8332
15347SOL     OW49317   1.506   9.620   3.738 -0.1897 -0.7714 -0.2118
15347SOL    HW149318   1.579   9.642   3.680 -1.4885  1.8286 -1.0109
15347SOL    HW249319   1.449   9.564   3.685 -1.3840  1.6118 -1.5768
15348SOL     OW49320   7.562   1.513   4.070 -0.1045  0.1087  0.5900
15348SOL    HW149321   7.471   1.539   4.055 -0.8190 -2.3689  0.3137
15348SOL    HW249322   7.557   1.441   4.132  1.6273 -0.5736 -0.0051
15349SOL     OW49323   3.518   4.450   1.292  0.3209 -0.2946 -0.0251
15349SOL    HW149324   3.585   4.518   1.292 -0.1404  0.1721 -0.3888
15349SOL    HW249325   3.522   4.412   1.204  1.1263 -1.3082  0.4263
15350SOL     OW49326   1.087   9.112   7.928  0.0424 -0.0544  0.4304
15350SOL    HW149327   1.125   9.161   7.855 -1.9174  1.2906  0.2495
15350SOL    HW249328   1.150   9.124   8.000  1.6608 -0.8416 -0.7967
15351SOL     OW49329   0.466   9.090  10.921 -0.0037 -0.3921  0.1249
15351SOL    HW149330   0.507   9.163  10.874  2.0388 -0.7505  1.2533
15351SOL    HW249331   0.417   9.132  10.991  0.7769 -0.0707  0.4843
15352SOL     OW49332   2.708   8.169   5.120 -0.3043  0.3085 -0.0260
15352SOL    HW149333   2.662   8.226   5.182  0.3537 -0.4434  1.1990
15352SOL    HW249334   2.723   8.088   5.169  1.0190  0.0086 -0.8758
15353SOL     OW49335   0.790  10.078  10.433  0.2567 -0.5269 -0.0143
15353SOL    HW149336   0.866  10.029  10.403 -0.2676 -0.9708 -0.6558
15353SOL    HW249337   0.824  10.165  10.455  0.6078  0.0084 -2.4319
15354SOL     OW49338  10.390   9.210   9.205  0.4601  0.1726  0.2246
15354SOL    HW149339  10.357   9.182   9.120  0.4063  0.6639  0.0776
15354SOL    HW249340  10.475   9.249   9.186  0.8784 -0.5692  0.5280
15355SOL     OW49341   1.029  10.834   2.328  0.2623 -1.0289  0.2464
15355SOL    HW149342   1.066  10.852   2.414  0.7073 -0.2702 -0.0973
15355SOL    HW249343   0.934  10.845   2.341  0.4593  1.2610  0.1630
15356SOL     OW49344   3.994  10.723  10.750  0.6379 -0.3737  0.5435
15356SOL    HW149345   4.076  10.757  10.716 -0.3736  0.1566 -1.5673
15356SOL    HW249346   3.940  10.709  10.672 -0.8725 -1.8096  1.7624
15357SOL     OW49347   5.712   6.971   5.573 -0.1348  0.6056 -0.1079
15357SOL    HW149348   5.677   7.045   5.622  0.9519  1.3976 -0.4948
15357SOL    HW249349   5.795   7.003   5.537  0.1357 -0.6570 -0.6519
15358SOL     OW49350   9.938   4.684   9.888  0.2800 -0.1495 -0.4393
15358SOL    HW149351   9.861   4.740   9.874 -1.3652 -1.7091  1.6985
15358SOL    HW249352  10.006   4.745   9.918 -1.6379  0.7769  2.4393
15359SOL     OW49353   7.074   8.734   6.024 -0.2486  0.4766 -0.0387
15359SOL    HW149354   7.104   8.674   6.092  0.2502  0.0374 -0.6299
15359SOL    HW249355   7.145   8.797   6.013 -0.1896  0.3561 -0.3701
15360SOL     OW49356   0.381   7.034   7.646  0.3896  0.0817  0.3001
15360SOL    HW149357   0.411   7.122   7.622  0.8838  0.0479  0.7738
15360SOL    HW249358   0.302   7.049   7.699  0.2564  0.2205  0.0645
15361SOL     OW49359  10.487   6.129  10.545  0.1895  0.0112 -0.2579
15361SOL    HW149360  10.507   6.123  10.638  1.1481 -2.2924 -0.5266
15361SOL    HW249361  10.432   6.052  10.527 -0.4693  0.7411 -1.4803
15362SOL     OW49362   9.137   6.539  11.370  0.4080 -0.5348  0.0818
15362SOL    HW149363   9.116   6.594  11.446 -1.3196 -1.5253  0.3794
15362SOL    HW249364   9.199   6.474  11.404  0.4201 -0.3680  0.3871
15363SOL     OW49365  10.809  10.676   8.056 -0.4488 -0.0411  0.4326
15363SOL    HW149366  10.777  10.687   7.966  5.4166 -2.3873 -2.4966
15363SOL    HW249367  10.859  10.756   8.073  0.0972 -0.4349  0.7020
15364SOL     OW49368   6.128   8.468  10.241 -0.4691  0.2285 -0.2426
15364SOL    HW149369   6.042   8.445  10.206 -0.6361 -0.9324  0.8507
15364SOL    HW249370   6.139   8.560  10.219 -3.0148  1.0807  1.5859
15365SOL     OW49371   5.730  10.547   3.592 -0.2808  0.2960  0.0484
15365SOL    HW149372   5.682  10.504   3.664 -0.3431  0.6498  0.2251
15365SOL    HW249373   5.801  10.594   3.636 -0.6575  0.9778 -0.0572
15366SOL     OW49374   8.668   2.356  10.406 -0.7446  0.1432  0.3914
15366SOL    HW149375   8.599   2.422  10.393  0.0554  1.2145  1.4250
15366SOL    HW249376   8.719   2.360  10.325  0.3105  2.0653  1.0888
15367SOL     OW49377   5.388   8.782  10.874 -0.0874 -0.5802  0.8731
15367SOL    HW149378   5.321   8.727  10.915 -0.6974 -1.1200 -0.7687
15367SOL    HW249379   5.440   8.720  10.822  1.5834 -0.1364  1.9228
15368SOL     OW49380   2.508   7.956  11.353  0.7897 -0.1427  0.0505
15368SOL    HW149381   2.570   7.893  11.388  0.6918  0.0044  0.4979
15368SOL    HW249382   2.548   7.987  11.272  0.2729 -1.6971 -0.8531
15369SOL     OW49383   5.705   3.316  11.085 -0.3266 -0.1361 -0.0018
15369SOL    HW149384   5.661   3.254  11.144 -1.3061  1.6985  1.3168
15369SOL    HW249385   5.787   3.273  11.062 -0.6864 -1.6589  1.3317
15370SOL     OW49386   9.847   2.904   5.365 -0.0878 -0.0971 -0.2757
15370SOL    HW149387   9.898   2.832   5.329  0.2393  0.9365 -2.0312
15370SOL    HW249388   9.864   2.902   5.459 -1.4408 -3.3108  0.0254
15371SOL     OW49389  11.053   6.329   0.868  0.1004  0.0821  0.5078
15371SOL    HW149390  11.042   6.313   0.774 -0.9126 -0.9516  0.7988
15371SOL    HW249391  11.010   6.256   0.911  2.1001 -0.4310  1.7928
15372SOL     OW49392   1.523   2.583   6.196  0.5188 -0.8550 -0.0402
15372SOL    HW149393   1.595   2.646   6.203 -1.4865  1.6774 -0.6109
15372SOL    HW249394   1.514   2.567   6.102 -1.2621  0.9649 -0.2416
15373SOL     OW49395   7.230   5.518   2.168  0.4125  0.2379  0.4200
15373SOL    HW149396   7.220   5.593   2.226  0.9715  1.0146 -0.4747
15373SOL    HW249397   7.288   5.548   2.098  0.0312 -0.7829 -0.3701
15374SOL     OW49398   8.080   9.608   1.857  0.2729  0.1658 -0.0785
15374SOL    HW149399   8.131   9.528   1.869  1.2939  0.8976  0.6737
15374SOL    HW249400   8.117   9.648   1.778 -0.8865 -0.5557 -1.0197
15375SOL     OW49401   9.271   2.588   5.051  0.1906 -0.0516  0.4762
15375SOL    HW149402   9.317   2.619   4.973 -1.0147  1.5634  0.3423
15375SOL    HW249403   9.333   2.602   5.123  0.8119 -0.2826 -0.0054
15376SOL     OW49404   0.562   4.135   9.750 -0.3182  0.2129  0.1765
15376SOL    HW149405   0.525   4.049   9.767  0.8716 -0.9998 -2.7121
15376SOL    HW249406   0.500   4.196   9.790 -1.1003 -1.9416  2.4436
15377SOL     OW49407   4.891  10.784  10.884  0.0394  0.0580  0.4110
15377SOL    HW149408   4.850  10.736  10.956 -2.5554  0.3326 -0.7783
15377SOL    HW249409   4.884  10.876  10.910 -0.7683  0.1483 -0.1122
15378SOL     OW49410  10.467   4.981   9.789  0.2119 -0.4567 -0.2672
15378SOL    HW149411  10.461   4.891   9.820 -0.7161 -0.4133 -0.3011
15378SOL    HW249412  10.465   4.974   9.694  1.4854 -0.4757 -0.3209
15379SOL     OW49413  11.382   9.845   6.719 -0.0198  0.8632  0.3027
15379SOL    HW149414  11.450   9.887   6.771 -0.2649 -1.8274  3.0584
15379SOL    HW249415  11.320   9.916   6.699  1.5082  2.5591  1.2561
15380SOL     OW49416   8.728   4.577   5.181 -0.3064 -0.4702 -0.2911
15380SOL    HW149417   8.748   4.616   5.096  1.2337  1.0068  0.6924
15380SOL    HW249418   8.639   4.543   5.171 -0.3387  0.0633 -2.3359
15381SOL     OW49419  10.067   8.710   9.732 -0.0819 -0.7302  0.2630
15381SOL    HW149420   9.973   8.720   9.750 -0.1213 -1.0449  0.2390
15381SOL    HW249421  10.084   8.771   9.660 -0.3259 -0.8749  0.0822
15382SOL     OW49422   4.001   4.683   3.576 -0.0387  1.4385  0.4999
15382SOL    HW149423   3.988   4.696   3.482 -0.9767 -1.9416  0.0498
15382SOL    HW249424   4.094   4.699   3.589  1.2116 -2.4621 -2.0302
15383SOL     OW49425   8.289  10.563   2.949 -0.2585 -0.3223  0.2201
15383SOL    HW149426   8.202  10.594   2.974  0.1352  0.1447  1.0680
15383SOL    HW249427   8.336  10.642   2.923  0.4945 -0.2799  1.6100
15384SOL     OW49428   3.414   7.879   4.238  0.7894  0.0644 -0.1673
15384SOL    HW149429   3.429   7.834   4.321 -0.6310 -0.7105 -0.2982
15384SOL    HW249430   3.368   7.960   4.262 -1.2241 -0.9864 -0.2797
15385SOL     OW49431  11.002   0.871   5.490  0.3166 -0.2399  0.6298
15385SOL    HW149432  10.976   0.905   5.576 -1.1017 -0.7676  0.4307
15385SOL    HW249433  10.973   0.780   5.491  0.9862 -0.4741 -0.1365
15386SOL     OW49434   7.536  11.254  10.180  0.3204  0.4618 -0.0660
15386SOL    HW149435   7.586  11.312  10.122  1.7141 -2.3315 -1.8996
15386SOL    HW249436   7.603  11.207  10.230 -0.6969 -0.2718  0.6524
15387SOL     OW49437   9.995  10.270   6.739 -0.4843  0.9663  0.3095
15387SOL    HW149438   9.905  10.250   6.761 -0.6820  2.6221  1.1987
15387SOL    HW249439  10.017  10.346   6.794  1.1135  1.2264 -0.6128
15388SOL     OW49440   1.853   8.934   9.574 -0.0033 -0.1348  0.2061
15388SOL    HW149441   1.842   9.012   9.519 -1.6461 -0.1408  0.4825
15388SOL    HW249442   1.824   8.861   9.519  0.0387 -0.3575  0.4753
15389SOL     OW49443  11.354   4.321   6.980 -0.6508  0.6199 -0.5596
15389SOL    HW149444  11.348   4.289   6.890  0.3817  0.0579 -0.4558
15389SOL    HW249445  11.348   4.416   6.973 -1.7355  0.5174 -1.0988
15390SOL     OW49446   5.613   9.911   4.530  0.2502  0.0301 -0.3902
15390SOL    HW149447   5.664   9.890   4.452 -0.5247 -0.3162 -0.8092
15390SOL    HW249448   5.530   9.945   4.497  0.1516  0.4666  0.2870
15391SOL     OW49449   3.831   2.971   1.698 -0.6067 -0.7710  0.6934
15391SOL    HW149450   3.880   2.950   1.777 -0.7793  1.8466  1.5764
15391SOL    HW249451   3.812   3.064   1.705 -3.1268 -1.0574 -1.0690
15392SOL     OW49452   1.944   4.902   4.601 -0.0736 -0.5028  0.4281
15392SOL    HW149453   1.876   4.835   4.602 -0.1371 -0.4593  1.8226
15392SOL    HW249454   2.013   4.866   4.545 -1.9370  0.2368 -2.5283
15393SOL     OW49455  10.726   2.129  10.885 -0.2216  0.1077  0.0328
15393SOL    HW149456  10.726   2.187  10.809 -0.7077  2.3050  1.6047
15393SOL    HW249457  10.814   2.092  10.888 -0.0391  0.3959 -1.2687
15394SOL     OW49458   1.006   9.613   7.981  0.3605 -0.4082 -0.4697
15394SOL    HW149459   1.057   9.691   7.960  1.7419 -1.2517 -0.3837
15394SOL    HW249460   1.000   9.613   8.076  1.9870 -1.3613 -0.3376
15395SOL     OW49461   8.557   8.766  10.947  0.0432 -0.1184  0.5141
15395SOL    HW149462   8.623   8.811  10.895  0.9325 -2.2912 -0.3786
15395SOL    HW249463   8.482   8.758  10.888  0.6533 -1.5949 -0.1245
15396SOL     OW49464   0.376   4.570   7.851  0.4645  0.1561  0.1410
15396SOL    HW149465   0.409   4.487   7.817  0.9164 -0.2705  1.5746
15396SOL    HW249466   0.322   4.546   7.926  1.2848  1.1791  1.1000
15397SOL     OW49467   8.672   8.123  11.073  0.5301 -0.5566 -0.1850
15397SOL    HW149468   8.580   8.099  11.060 -0.4838  2.8316 -0.4273
15397SOL    HW249469   8.697   8.165  10.990  1.7863 -0.0239  0.4416
15398SOL     OW49470   2.304   6.300   2.686 -0.3069  0.2261 -0.2362
15398SOL    HW149471   2.383   6.305   2.740 -1.9540 -1.4909  2.5151
15398SOL    HW249472   2.274   6.391   2.681  0.5552  0.5868  0.7071
15399SOL     OW49473   2.251  11.322   7.389 -0.3746 -0.5866  0.1429
15399SOL    HW149474   2.174  11.295   7.339  0.1576  1.5253 -2.0545
15399SOL    HW249475   2.321  11.263   7.359 -0.2703  0.0890 -1.0243
15400SOL     OW49476   8.847  10.934   0.874  0.0466 -0.5534 -0.4326
15400SOL    HW149477   8.794  11.012   0.890  0.1373 -0.8311  1.4588
15400SOL    HW249478   8.936  10.967   0.864  0.3397 -0.4435  1.8730
15401SOL     OW49479   4.399   4.584   4.934 -0.1109  0.5850 -0.5174
15401SOL    HW149480   4.394   4.557   4.843 -2.8764 -1.7425  0.1564
15401SOL    HW249481   4.308   4.601   4.959  0.5559  1.1863  1.7930
15402SOL     OW49482   3.592   9.491   8.641 -0.0047  0.4489 -0.1296
15402SOL    HW149483   3.650   9.419   8.617 -0.3143  0.3187 -0.4901
15402SOL    HW249484   3.519   9.485   8.580 -1.1765 -0.3507  1.2697
15403SOL     OW49485   8.661   5.221  10.145 -0.1354 -0.1650  0.0693
15403SOL    HW149486   8.688   5.143  10.193  1.6538  0.4511  0.1345
15403SOL    HW249487   8.711   5.218  10.064  1.5344  1.8706  0.9135
15404SOL     OW49488   2.837  10.630   7.912 -0.3961  0.2014 -0.0497
15404SOL    HW149489   2.855  10.721   7.938 -1.0391  0.1786  0.4813
15404SOL    HW249490   2.767  10.637   7.847 -2.2297 -0.0617  1.8215
15405SOL     OW49491   3.959   9.617   7.921  0.1656 -0.1801 -0.3117
15405SOL    HW149492   4.046   9.628   7.884  1.0449  0.7593  1.8861
15405SOL    HW249493   3.933   9.704   7.950 -0.5657 -0.8183  1.0479
15406SOL     OW49494   8.867   4.614   8.759  0.0052 -0.3857 -0.2245
15406SOL    HW149495   8.818   4.677   8.706  1.0419 -0.6497 -1.5634
15406SOL    HW249496   8.957   4.647   8.759  0.3499 -1.3002 -0.0535
15407SOL     OW49497   9.343   2.689   5.934 -0.5357 -0.3862 -0.3343
15407SOL    HW149498   9.369   2.763   5.988 -0.9969 -0.0700 -0.5364
15407SOL    HW249499   9.312   2.623   5.997 -0.7874 -0.1351 -0.1921
15408SOL     OW49500   4.431   0.515   4.774  0.6370 -0.4610  0.1374
15408SOL    HW149501   4.504   0.576   4.770  0.0486  0.2827  0.4681
15408SOL    HW249502   4.469   0.430   4.754  1.7834 -0.2482  1.3031
15409SOL     OW49503   5.858  10.431   3.965  0.2063 -0.2820 -0.4067
15409SOL    HW149504   5.912  10.402   4.038 -1.8892 -0.3024  1.2178
15409SOL    HW249505   5.794  10.361   3.953 -1.3789  1.0742 -0.2200
15410SOL     OW49506   2.029   4.844   3.513 -0.1143 -0.3582  0.1643
15410SOL    HW149507   2.006   4.936   3.502 -0.1008 -0.3823 -0.0767
15410SOL    HW249508   2.006   4.804   3.430  1.2603 -0.2830 -0.2919
15411SOL     OW49509  10.893   8.440   4.379  0.4996  0.3802  0.3999
15411SOL    HW149510  10.937   8.417   4.298  1.1434 -1.6137  1.2585
15411SOL    HW249511  10.865   8.531   4.367  2.8543  0.9777 -1.0332
15412SOL     OW49512   1.512   5.574   8.172  0.5443 -0.5374  0.3255
15412SOL    HW149513   1.596   5.534   8.195  0.9657  0.0435 -0.1561
15412SOL    HW249514   1.446   5.509   8.196  1.0909 -0.7693  1.2551
15413SOL     OW49515   7.204   4.562   3.854 -0.4486 -0.8377 -0.2004
15413SOL    HW149516   7.216   4.625   3.783 -0.0230 -0.4777  0.1849
15413SOL    HW249517   7.129   4.509   3.827 -1.8438  0.8528  0.1782
15414SOL     OW49518   0.922   8.145   9.905 -0.7856 -0.0862  0.3969
15414SOL    HW149519   0.989   8.199   9.865 -0.2403 -1.1290 -0.1545
15414SOL    HW249520   0.968   8.065   9.930 -1.5289 -0.2457  1.3281
15415SOL     OW49521   4.853   7.401   9.922 -0.0556 -0.3690 -0.1607
15415SOL    HW149522   4.891   7.483   9.889  1.2304 -0.8188  0.1506
15415SOL    HW249523   4.763   7.424   9.942  0.2871  0.9954 -0.0455
15416SOL     OW49524   3.080   6.552   4.611  0.4505  0.2643  0.3062
15416SOL    HW149525   3.085   6.459   4.588  0.4176 -0.0454  1.4709
15416SOL    HW249526   2.992   6.579   4.585 -0.0709 -0.4283  1.2857
15417SOL     OW49527  10.543   7.000   9.312  0.1576 -0.2382 -0.4829
15417SOL    HW149528  10.604   6.950   9.365 -0.0104 -0.0074 -0.0610
15417SOL    HW249529  10.562   7.092   9.334 -0.3483 -0.1657 -0.3333
15418SOL     OW49530   2.604   7.352   1.012  0.9014  0.0617  0.7911
15418SOL    HW149531   2.572   7.413   0.945 -0.6242 -1.1201  0.3911
15418SOL    HW249532   2.697   7.341   0.992  0.5982  0.1793 -0.8154
15419SOL     OW49533   5.527   5.987   7.693 -0.1726  0.0485 -0.8500
15419SOL    HW149534   5.604   6.022   7.648 -0.6543  2.8561  0.2519
15419SOL    HW249535   5.561   5.916   7.748  1.2158 -0.2342 -2.0304
15420SOL     OW49536   4.083   5.763  10.237  0.0333  0.0849  0.0235
15420SOL    HW149537   4.110   5.697  10.301  0.0848 -0.1215 -0.2108
15420SOL    HW249538   4.102   5.846  10.279 -2.3116  0.0240  1.3614
15421SOL     OW49539   0.472   4.017   3.712 -0.1317  0.0626 -0.2211
15421SOL    HW149540   0.565   4.040   3.722  0.2825 -1.8408  0.7084
15421SOL    HW249541   0.429   4.059   3.786  0.2341 -0.2710  0.1819
15422SOL     OW49542   1.313  11.196   3.972  0.0416  0.7975 -0.0856
15422SOL    HW149543   1.249  11.245   3.921 -0.7809  0.1669  0.3118
15422SOL    HW249544   1.378  11.261   3.999  0.1191  1.2583 -1.3415
15423SOL     OW49545   2.020   5.394   3.186  0.0657 -0.0965 -0.2096
15423SOL    HW149546   2.096   5.426   3.234 -1.6681  0.7804  2.1705
15423SOL    HW249547   2.023   5.299   3.197 -0.0933  0.0583  1.4240
15424SOL     OW49548   5.729   4.098   5.276  0.3430 -0.2595  0.2258
15424SOL    HW149549   5.698   4.069   5.191 -1.0590  0.2611  0.5270
15424SOL    HW249550   5.680   4.179   5.293 -0.3129 -1.0004  2.0473
15425SOL     OW49551   2.666  11.297   2.362 -0.0267 -0.1120 -0.1417
15425SOL    HW149552   2.571  11.293   2.359 -0.1202  1.3541 -0.0068
15425SOL    HW249553   2.695  11.211   2.333 -1.3841 -0.3728 -0.7862
15426SOL     OW49554   2.300   1.587   2.361  0.5216  0.7591  0.3100
15426SOL    HW149555   2.266   1.531   2.431  3.6870 -0.2618  1.2011
15426SOL    HW249556   2.295   1.676   2.397  1.3920  0.3224  1.5944
15427SOL     OW49557   5.948   0.224   0.785  0.1972  0.0729  0.0603
15427SOL    HW149558   5.899   0.191   0.861 -1.2543  0.5389 -0.6337
15427SOL    HW249559   5.880   0.254   0.724  1.4000  1.7548 -0.5028
15428SOL     OW49560   1.514   7.221   8.978 -0.2015  0.0961 -0.3471
15428SOL    HW149561   1.530   7.143   9.030 -1.7689 -1.2351 -1.7413
15428SOL    HW249562   1.450   7.272   9.028 -0.2673 -0.2232 -0.1066
15429SOL     OW49563   4.700  11.324   0.268 -0.0073  0.8187  0.4795
15429SOL    HW149564   4.779  11.371   0.295  1.2790 -1.0236  0.1311
15429SOL    HW249565   4.722  11.286   0.183 -0.5415 -1.2885  1.2186
15430SOL     OW49566   6.085   8.482   9.433  0.0055 -0.1870  0.0404
15430SOL    HW149567   6.008   8.489   9.377  0.7466 -0.8185 -1.1228
15430SOL    HW249568   6.115   8.392   9.421  1.5417  0.3466 -0.4153
15431SOL     OW49569   5.857   0.177   7.560  0.0923 -0.3518  0.0013
15431SOL    HW149570   5.896   0.226   7.632  1.2038  0.1318 -0.9121
15431SOL    HW249571   5.766   0.208   7.556  0.4828  0.8488  0.1143
15432SOL     OW49572   3.445   1.435   8.345  0.7432 -0.1345  0.1558
15432SOL    HW149573   3.421   1.343   8.340 -0.5777  0.2454 -1.9162
15432SOL    HW249574   3.398   1.469   8.421 -0.2167 -0.8045 -0.1200
15433SOL     OW49575  11.109  10.186   0.497 -0.1423 -0.1304  0.2820
15433SOL    HW149576  11.023  10.195   0.455  0.1740  1.6462 -0.0436
15433SOL    HW249577  11.129  10.273   0.531  1.9038 -0.2832 -0.3747
15434SOL     OW49578   2.863   6.938   8.232  0.2399 -0.7480  0.3407
15434SOL    HW149579   2.805   6.994   8.180  1.0066  1.8669  2.0885
15434SOL    HW249580   2.810   6.861   8.253 -2.1591  0.8929  0.7326
15435SOL     OW49581   0.242  10.119   0.256  0.2698  0.4044  0.2151
15435SOL    HW149582   0.158  10.117   0.210  0.8489  1.7712 -0.9587
15435SOL    HW249583   0.278  10.031   0.244  0.3649  0.6835 -1.9433
15436SOL     OW49584   5.048   6.563   6.956 -0.4167 -0.1308  0.1895
15436SOL    HW149585   5.059   6.484   6.902 -0.9901  0.4348 -0.7894
15436SOL    HW249586   4.956   6.559   6.984 -0.1091 -0.4453  1.1838
15437SOL     OW49587   6.996   9.863   5.269  0.2838  0.0532  0.1253
15437SOL    HW149588   7.072   9.919   5.252  0.3619  0.3718  1.4266
15437SOL    HW249589   7.029   9.796   5.329  0.7977 -2.8412 -3.0611
15438SOL     OW49590   8.403   4.039   8.721 -0.1974  0.4410  0.4250
15438SOL    HW149591   8.416   4.044   8.626 -1.0821 -0.6097  0.2392
15438SOL    HW249592   8.352   4.118   8.742 -0.2497  0.5288 -0.0163
15439SOL     OW49593   9.457   9.007  11.082  0.2776 -0.2847 -0.2082
15439SOL    HW149594   9.499   8.925  11.107  2.0949  1.0585  1.4065
15439SOL    HW249595   9.529   9.066  11.061 -0.9744  0.9844 -1.2092
15440SOL     OW49596   1.578   0.629   1.977 -0.4535 -0.3141 -0.4922
15440SOL    HW149597   1.484   0.634   1.993 -0.2372  1.1595  0.4549
15440SOL    HW249598   1.586   0.568   1.904 -2.1131 -0.7143 -0.3877
15441SOL     OW49599  10.677   8.280   6.168 -0.0583  0.5218  0.0251
15441SOL    HW149600  10.618   8.352   6.147 -1.7523 -0.4135  1.3262
15441SOL    HW249601  10.715   8.303   6.252  1.4456  1.0793 -0.7659
15442SOL     OW49602   5.485   6.563   8.784  0.3499 -0.7680 -0.0715
15442SOL    HW149603   5.393   6.586   8.770  0.3868 -0.3846  0.2914
15442SOL    HW249604   5.525   6.643   8.818  0.5691 -1.2415  0.8139
15443SOL     OW49605   7.956   7.628   5.453  0.0047 -0.2001  0.0554
15443SOL    HW149606   8.005   7.704   5.422 -0.3776 -0.4950 -1.3491
15443SOL    HW249607   7.976   7.560   5.389 -1.2300 -0.6823  0.1664
15444SOL     OW49608   6.910   1.722   3.731 -0.2177 -0.7561  0.0437
15444SOL    HW149609   6.898   1.753   3.821  2.7111 -0.7647  0.5451
15444SOL    HW249610   6.875   1.793   3.677 -1.3395 -0.4115  1.1689
15445SOL     OW49611   3.212   2.572   3.740  0.0070  0.6833 -0.4373
15445SOL    HW149612   3.302   2.563   3.769 -0.0750  0.7943 -0.1408
15445SOL    HW249613   3.199   2.666   3.729 -0.4565  0.7879  0.7970
15446SOL     OW49614  11.317   9.795   0.757 -0.0912 -0.2155  0.0882
15446SOL    HW149615  11.382   9.827   0.819  0.6634 -0.0291 -0.7610
15446SOL    HW249616  11.351   9.822   0.671 -1.7333  0.6586 -0.3361
15447SOL     OW49617   7.407  11.397   4.540  0.2201 -0.5249  0.3939
15447SOL    HW149618   7.431  11.342   4.466  1.1627  0.2669  0.0733
15447SOL    HW249619   7.491  11.422   4.579 -0.1225  1.1919  0.1308
15448SOL     OW49620   7.101   5.600   0.980 -0.2937 -0.0516  0.4786
15448SOL    HW149621   7.050   5.522   0.959 -2.0634  0.5991  2.0932
15448SOL    HW249622   7.192   5.572   0.974 -0.8487 -1.7720 -0.5776
15449SOL     OW49623   0.292   2.746   5.874  0.4849 -0.7759  0.2996
15449SOL    HW149624   0.359   2.806   5.908  0.1175 -1.4002  2.2405
15449SOL    HW249625   0.334   2.660   5.875 -0.7846 -1.4764  3.2189
15450SOL     OW49626   1.289   8.153   8.773  0.1752 -0.5727 -0.0643
15450SOL    HW149627   1.252   8.160   8.861  0.6654  1.4413  0.0135
15450SOL    HW249628   1.378   8.122   8.787  0.1811 -0.4710  0.1287
15451SOL     OW49629   4.991   9.128   5.701  0.1321  0.0109  0.3246
15451SOL    HW149630   5.065   9.067   5.697 -0.2526 -0.4486  0.2147
15451SOL    HW249631   4.961   9.122   5.792  0.7203  0.7821  0.5744
15452SOL     OW49632   1.134   3.027   6.105 -0.1559  0.0301  0.2361
15452SOL    HW149633   1.224   2.995   6.092 -0.4548 -0.4736 -0.7003
15452SOL    HW249634   1.121   3.088   6.032 -1.0713 -1.0186 -0.4988
15453SOL     OW49635   3.137   1.295   3.785 -0.0656  0.0851  0.4199
15453SOL    HW149636   3.102   1.313   3.872 -0.1383  1.2450  0.1630
15453SOL    HW249637   3.227   1.327   3.787 -0.4016  1.1380 -0.2453
15454SOL     OW49638   3.915  10.597   6.954 -0.5517 -0.1268 -0.2363
15454SOL    HW149639   3.859  10.665   6.992 -2.1180 -0.9799 -0.8986
15454SOL    HW249640   4.002  10.616   6.988 -1.1882  1.3988  0.6713
15455SOL     OW49641   8.882   5.315   9.979  0.1298  0.3411  0.7456
15455SOL    HW149642   8.907   5.271   9.898 -3.7849  0.3641 -0.7073
15455SOL    HW249643   8.901   5.408   9.963  0.4258  0.2061  0.3035
15456SOL     OW49644   6.091   2.289   9.054  0.6412 -0.3582  0.1439
15456SOL    HW149645   6.122   2.295   9.144  1.0395 -1.7541  0.1241
15456SOL    HW249646   6.014   2.232   9.058  0.6298 -0.3925 -0.3908
15457SOL     OW49647   7.101   8.832   4.331 -0.1833  0.2767 -0.9300
15457SOL    HW149648   7.038   8.759   4.336  0.1114  0.0879  0.8081
15457SOL    HW249649   7.056   8.905   4.375  0.7734  0.1381  0.3474
15458SOL     OW49650   1.173   8.540   6.188 -0.1917  0.3513 -0.1605
15458SOL    HW149651   1.204   8.624   6.222 -0.5195  0.2884  0.2978
15458SOL    HW249652   1.189   8.478   6.259  1.0518 -0.1944 -0.8785
15459SOL     OW49653   6.571   1.569   6.067  0.0579  0.0610 -0.1297
15459SOL    HW149654   6.636   1.503   6.041  0.7995  0.2871  1.0661
15459SOL    HW249655   6.488   1.534   6.035  0.3295 -1.7905  1.0242
15460SOL     OW49656   4.089   2.691   1.694  0.6340  0.2845  0.9731
15460SOL    HW149657   4.164   2.646   1.732 -0.3108 -0.1924  2.3118
15460SOL    HW249658   4.022   2.624   1.683  0.4893  0.6264 -0.5565
15461SOL     OW49659   2.206  10.711   2.502  0.0325 -0.0108 -0.2922
15461SOL    HW149660   2.180  10.796   2.466 -0.5679  0.8643  2.0455
15461SOL    HW249661   2.124  10.664   2.515  0.0663  0.3770  1.4796
15462SOL     OW49662  11.299   1.325   6.560 -0.1321  0.4141  0.4339
15462SOL    HW149663  11.369   1.362   6.507 -0.0116 -0.9116 -0.3929
15462SOL    HW249664  11.222   1.378   6.540  0.4103  1.2884  0.6175
15463SOL     OW49665   6.586   4.961   6.561 -0.1223  0.0001  0.1451
15463SOL    HW149666   6.617   4.913   6.485  1.3702  2.1137 -0.6757
15463SOL    HW249667   6.541   5.037   6.525 -1.0025  0.1015  1.3885
15464SOL     OW49668   1.882  11.162   9.238 -0.4810 -0.7235 -0.3780
15464SOL    HW149669   1.860  11.235   9.179 -1.0548 -2.2160 -2.1023
15464SOL    HW249670   1.850  11.191   9.324 -0.6749  1.0564 -1.0029
15465SOL     OW49671   1.384   8.451   5.602  0.1236  0.4127  0.2650
15465SOL    HW149672   1.434   8.389   5.655 -0.5193 -0.7078 -0.3897
15465SOL    HW249673   1.409   8.430   5.512 -0.6854  0.5756 -0.0068
15466SOL     OW49674   2.225   6.197  11.177 -0.3955  0.0315 -0.1232
15466SOL    HW149675   2.272   6.230  11.253 -0.4079  0.7646 -0.4208
15466SOL    HW249676   2.243   6.261  11.108 -0.0726 -0.8243 -0.8468
15467SOL     OW49677   8.349   2.071   8.440  0.1787 -0.2997 -0.2823
15467SOL    HW149678   8.297   1.997   8.472  1.3540 -0.5126  1.2694
15467SOL    HW249679   8.439   2.048   8.462  0.4840  2.0466  1.3284
15468SOL     OW49680   8.989   4.260   5.188 -0.4910 -0.2942  0.2151
15468SOL    HW149681   9.031   4.192   5.136 -0.0560  0.5392 -0.5486
15468SOL    HW249682   8.895   4.243   5.178 -0.3813 -1.5938  1.1613
15469SOL     OW49683   1.198   7.185   9.361  0.6049  0.1276 -0.4909
15469SOL    HW149684   1.237   7.203   9.275  1.3618  1.2675  0.0581
15469SOL    HW249685   1.214   7.265   9.411  0.0464 -0.4678  0.6695
15470SOL     OW49686   1.341   1.235   7.313 -0.3452  0.4504 -0.4432
15470SOL    HW149687   1.275   1.191   7.259 -0.0855  0.0396 -0.4263
15470SOL    HW249688   1.345   1.183   7.393  1.0311 -0.3899 -1.0183
15471SOL     OW49689   5.311   8.822  10.357 -0.3310 -0.3114 -0.1628
15471SOL    HW149690   5.381   8.838  10.294 -0.6363 -3.1939 -1.3884
15471SOL    HW249691   5.355   8.823  10.442  1.1593 -1.5125 -0.8739
15472SOL     OW49692   4.657   2.780   2.606 -0.2896 -0.3988 -0.3040
15472SOL    HW149693   4.639   2.685   2.604 -0.9101 -0.2905 -0.0958
15472SOL    HW249694   4.615   2.813   2.526 -0.4690 -0.2368 -0.1442
15473SOL     OW49695   8.686   1.988   9.717  0.0661  0.1263  0.3167
15473SOL    HW149696   8.663   1.897   9.698  0.2134  0.1065  0.2327
15473SOL    HW249697   8.623   2.039   9.666 -0.0680  0.0727  0.4267
15474SOL     OW49698   7.504   6.896   9.708  0.3527 -0.2553  0.0452
15474SOL    HW149699   7.481   6.986   9.732  1.0146 -0.2664  0.7570
15474SOL    HW249700   7.437   6.842   9.750  0.5045 -0.1525  0.4229
15475SOL     OW49701   8.150   1.422   8.684  0.3214 -0.7412  0.2580
15475SOL    HW149702   8.215   1.353   8.688  0.1922 -0.9896 -1.2865
15475SOL    HW249703   8.139   1.440   8.590 -1.2603 -0.1765  0.5097
15476SOL     OW49704   6.612   7.252   3.610 -0.2622 -0.3028  0.0350
15476SOL    HW149705   6.672   7.260   3.535 -0.8984 -0.3539 -0.4875
15476SOL    HW249706   6.644   7.316   3.673  0.3693 -0.3588 -0.2245
15477SOL     OW49707   8.861   3.048   8.259  0.2247 -0.1325 -0.2727
15477SOL    HW149708   8.795   3.116   8.243 -1.5800 -1.7649 -0.1136
15477SOL    HW249709   8.869   3.001   8.176 -0.5370 -1.3496  0.3082
15478SOL     OW49710   5.197   8.484   0.339  0.1244  0.3078  0.3273
15478SOL    HW149711   5.105   8.504   0.359 -0.0923  0.4210 -0.7371
15478SOL    HW249712   5.246   8.557   0.375 -0.0631 -0.3807  2.0763
15479SOL     OW49713   8.136   4.710   0.447  0.3741 -0.0280 -0.0973
15479SOL    HW149714   8.093   4.637   0.490  0.4214  0.4131  0.7098
15479SOL    HW249715   8.066   4.755   0.399  0.7062 -1.9509 -2.6266
15480SOL     OW49716   6.700   9.064   2.741  0.3384 -0.4674 -0.6720
15480SOL    HW149717   6.622   9.102   2.701 -0.7155 -2.3595 -0.5492
15480SOL    HW249718   6.704   9.104   2.828 -2.7524 -2.9054  0.8311
15481SOL     OW49719   5.166   7.144   7.297  0.0591 -0.1677  0.3689
15481SOL    HW149720   5.094   7.167   7.239  0.3323  0.3471  0.2254
15481SOL    HW249721   5.240   7.127   7.238  0.0302 -0.8140  0.5070
15482SOL     OW49722   9.022   7.495  10.263  0.3396 -0.4914  0.0558
15482SOL    HW149723   8.933   7.530  10.255  0.3155 -1.0182 -3.4025
15482SOL    HW249724   9.079   7.572  10.252  0.2878 -0.5115 -0.3738
15483SOL     OW49725   1.253  10.074   1.052 -0.0523 -0.0513 -0.2253
15483SOL    HW149726   1.238  10.022   0.974 -0.3268  0.2851 -0.4003
15483SOL    HW249727   1.276  10.161   1.019  0.2664 -0.0223  0.0645
15484SOL     OW49728   3.087  11.342   3.536  0.2496 -0.1456 -0.4108
15484SOL    HW149729   3.051  11.265   3.493  1.0358  0.4110 -2.1743
15484SOL    HW249730   3.148  11.307   3.601 -0.1357 -1.0087 -0.5043
15485SOL     OW49731   5.725   2.446   8.204  0.3202  0.1864 -0.6996
15485SOL    HW149732   5.646   2.431   8.256  1.0289 -1.4614 -0.0414
15485SOL    HW249733   5.796   2.452   8.269  0.9331  0.1988 -1.3528
15486SOL     OW49734   1.302   5.069   5.521  0.5820  0.3676  0.6280
15486SOL    HW149735   1.264   5.154   5.499  0.4231 -0.1096 -1.0359
15486SOL    HW249736   1.368   5.090   5.588  1.4885  2.0037 -0.6917
15487SOL     OW49737   3.637   7.766   6.799 -0.7010 -0.4011 -0.2454
15487SOL    HW149738   3.682   7.713   6.733  0.0532 -0.8645  0.6232
15487SOL    HW249739   3.708   7.804   6.851 -1.2939 -0.7553  0.8480
15488SOL     OW49740   1.902   3.480   7.107 -0.2202 -0.0932  0.2501
15488SOL    HW149741   1.868   3.566   7.129 -0.3281  0.0124 -0.3107
15488SOL    HW249742   1.845   3.448   7.037 -0.7913 -1.0476  1.1113
15489SOL     OW49743   0.306   0.617   1.798 -0.3971 -0.4609 -0.3421
15489SOL    HW149744   0.238   0.562   1.837  0.0792 -0.8002  0.0113
15489SOL    HW249745   0.364   0.639   1.870 -1.4769  1.9244 -0.0948
15490SOL     OW49746   4.519  10.451   4.480 -0.1240  0.1095 -0.4096
15490SOL    HW149747   4.494  10.464   4.389 -2.0752  0.4780  0.1400
15490SOL    HW249748   4.558  10.534   4.506  0.6864 -0.0884 -0.9712
15491SOL     OW49749  10.263  10.068   4.353 -0.1789 -0.1359 -0.4174
15491SOL    HW149750  10.322  10.081   4.279  0.3475  0.7871  0.1490
15491SOL    HW249751  10.189  10.127   4.336 -1.2574 -1.6980 -1.4099
15492SOL     OW49752   2.266   2.743   7.485 -0.4231 -0.1969  0.2677
15492SOL    HW149753   2.291   2.821   7.435 -0.6491  0.2402  0.8305
15492SOL    HW249754   2.214   2.777   7.558 -2.5500 -1.0338 -0.7670
15493SOL     OW49755  10.493   1.712   1.860  0.5563 -0.3741 -0.6861
15493SOL    HW149756  10.485   1.799   1.897 -1.2421  0.2469 -2.3412
15493SOL    HW249757  10.403   1.687   1.839  1.0858 -2.4239 -0.7231
15494SOL     OW49758   6.275   9.467   8.705 -0.3907  0.4745 -0.1657
15494SOL    HW149759   6.281   9.394   8.642 -1.3788 -1.0188  1.3724
15494SOL    HW249760   6.247   9.425   8.786  2.6940  2.0206  1.8763
15495SOL     OW49761   1.401   9.249   7.033 -0.1846  0.0034 -0.4715
15495SOL    HW149762   1.485   9.203   7.025  1.1661  2.3105 -0.3307
15495SOL    HW249763   1.395   9.303   6.955 -0.4214  1.5715  0.5792
15496SOL     OW49764   6.363   5.229   5.499 -0.4607 -0.6389 -0.1451
15496SOL    HW149765   6.445   5.222   5.451 -0.7132 -0.3324 -0.6355
15496SOL    HW249766   6.298   5.190   5.440 -0.8750  0.2886 -0.3351
15497SOL     OW49767   5.990   5.335   1.557  0.2105  0.7956 -0.0708
15497SOL    HW149768   5.914   5.326   1.498  0.1252  2.6357 -0.3112
15497SOL    HW249769   5.955   5.315   1.644 -0.2296  0.3440 -0.3437
15498SOL     OW49770   0.962   7.054   1.149  0.1982  0.4179  0.5325
15498SOL    HW149771   0.931   7.072   1.060 -0.0767 -0.6187  0.4034
15498SOL    HW249772   1.015   6.975   1.140 -1.2610 -0.7373  1.5329
15499SOL     OW49773   5.810   9.168   1.505 -0.2029 -0.2067  0.4978
15499SOL    HW149774   5.785   9.076   1.502 -0.4075 -0.1412  0.0830
15499SOL    HW249775   5.751   9.207   1.569 -0.6830 -0.2008  0.0609
15500SOL     OW49776   3.837   2.985   5.085 -0.4108  0.4683 -0.4356
15500SOL    HW149777   3.914   2.945   5.125 -0.1536  2.0806  0.8164
15500SOL    HW249778   3.791   2.913   5.043 -0.7602 -1.4516  2.8807
15501SOL     OW49779   3.094   8.523   4.840  0.0830 -0.5277 -0.4499
15501SOL    HW149780   3.119   8.616   4.840 -0.2404 -0.4380 -0.2644
15501SOL    HW249781   3.022   8.517   4.778  1.2325 -0.9790 -1.7769
15502SOL     OW49782  11.133   0.739   5.749  0.2865 -0.6643  0.2261
15502SOL    HW149783  11.138   0.816   5.805  0.3283 -0.7905  0.3966
15502SOL    HW249784  11.057   0.690   5.783 -2.0956  1.0994 -2.1430
15503SOL     OW49785   2.920   6.826   0.803 -0.4951 -0.4668 -0.6079
15503SOL    HW149786   2.875   6.841   0.886 -1.4536 -0.4900 -1.1079
15503SOL    HW249787   2.981   6.899   0.794 -0.2730 -0.5486  0.1831
15504SOL     OW49788   4.374   4.232   8.123  0.2703  0.0233  0.5562
15504SOL    HW149789   4.377   4.255   8.030  1.5941  3.7883  1.3176
15504SOL    HW249790   4.463   4.203   8.143  0.2320  0.0841  0.8178
15505SOL     OW49791   2.707   0.338   8.429  0.6144  0.4743 -0.3823
15505SOL    HW149792   2.783   0.282   8.446  1.0479  1.3390  0.6558
15505SOL    HW249793   2.714   0.407   8.495 -1.3505  0.2947  0.0659
15506SOL     OW49794   0.892   7.870   0.302 -0.1499  0.1176 -0.5775
15506SOL    HW149795   0.896   7.948   0.247  0.4149  0.2852 -0.3089
15506SOL    HW249796   0.869   7.800   0.242  0.4643  0.3003 -1.0343
15507SOL     OW49797   3.037   0.798   4.783 -0.5726  0.2789 -0.0192
15507SOL    HW149798   3.128   0.770   4.771 -0.4064  0.7880 -0.0169
15507SOL    HW249799   3.029   0.875   4.725 -1.4321 -0.6218 -1.1427
15508SOL     OW49800   3.397   4.008  10.669 -0.4551 -0.0662  0.0751
15508SOL    HW149801   3.313   3.985  10.629 -0.6200 -0.9994  0.8976
15508SOL    HW249802   3.395   4.103  10.679 -0.0283  0.3500 -2.9153
15509SOL     OW49803   7.270   0.046   7.995 -0.4082  0.2535 -0.1049
15509SOL    HW149804   7.209   0.116   8.018 -1.6424 -0.6994 -0.3648
15509SOL    HW249805   7.326   0.084   7.928  0.6834  1.8237  1.6036
15510SOL     OW49806   9.306   3.907   3.488  0.4045  0.5281 -0.3212
15510SOL    HW149807   9.227   3.958   3.501  0.0049 -0.0586 -0.4123
15510SOL    HW249808   9.305   3.841   3.558  0.4247  0.0475 -0.7660
15511SOL     OW49809   7.986   5.252   3.361 -0.4179 -0.2420  0.3265
15511SOL    HW149810   8.064   5.225   3.408 -0.5452 -0.3315  0.4893
15511SOL    HW249811   7.940   5.170   3.341 -0.8515 -0.1480  0.9050
15512SOL     OW49812   3.497   7.764  10.294  0.3538  0.3311 -0.4324
15512SOL    HW149813   3.518   7.846  10.249 -0.3520 -0.1132 -1.6496
15512SOL    HW249814   3.572   7.748  10.351 -0.1585  2.5870  1.0025
15513SOL     OW49815   1.331   0.738   1.624  0.0415 -0.2885 -0.1464
15513SOL    HW149816   1.262   0.722   1.560  0.2308  0.2003 -0.4775
15513SOL    HW249817   1.298   0.699   1.705 -0.6129 -0.0936 -0.3099
15514SOL     OW49818   8.662  11.100   7.451  0.5136  0.1235  0.4917
15514SOL    HW149819   8.688  11.167   7.388  0.7495  1.0023  1.4898
15514SOL    HW249820   8.637  11.025   7.397  0.8492  0.7896 -0.6351
15515SOL     OW49821   8.096   1.362  10.120 -0.3348 -0.3239 -0.1684
15515SOL    HW149822   8.107   1.309  10.200  0.3345  0.1095  0.0337
15515SOL    HW249823   8.052   1.441  10.150 -0.6155 -0.4174 -0.3334
15516SOL     OW49824   5.864   5.094  11.246  0.0734  0.1996  0.1513
15516SOL    HW149825   5.888   5.076  11.337 -1.4469 -1.6949  0.2361
15516SOL    HW249826   5.773   5.124  11.251  0.5153  1.7621 -0.6245
15517SOL     OW49827   7.516   7.086   4.730 -0.0598  0.2899  0.5307
15517SOL    HW149828   7.609   7.078   4.752  1.0021 -0.3137 -3.3706
15517SOL    HW249829   7.492   6.999   4.697 -0.6029  1.5020 -2.6485
15518SOL     OW49830   7.416  11.019   8.086 -0.0806  0.2133 -0.5894
15518SOL    HW149831   7.414  11.029   8.181 -1.6889 -1.0050 -0.4514
15518SOL    HW249832   7.497  11.062   8.059  0.8953 -0.2425  1.4236
15519SOL     OW49833   4.694   1.449   5.871 -0.2368 -0.2763 -0.2542
15519SOL    HW149834   4.768   1.434   5.930 -0.5716  0.1348  0.2789
15519SOL    HW249835   4.629   1.494   5.925  0.6270  2.9981 -1.6291
15520SOL     OW49836   0.871   6.463   5.693  0.5367  0.4013 -0.3774
15520SOL    HW149837   0.925   6.470   5.772  0.8940 -0.4107 -0.5451
15520SOL    HW249838   0.933   6.473   5.621  1.0126 -3.2983 -0.6506
15521SOL     OW49839   9.327   9.331   0.085  0.4226  0.5444  0.3611
15521SOL    HW149840   9.395   9.306   0.148  3.9118  2.4916 -2.2885
15521SOL    HW249841   9.314   9.252   0.032  0.4147  0.0933  1.0166
15522SOL     OW49842   1.556  11.236   9.450 -0.3991 -0.1182 -0.0586
15522SOL    HW149843   1.534  11.330   9.448 -0.2880 -0.0938 -2.0501
15522SOL    HW249844   1.648  11.234   9.476 -1.3382  0.0095  4.0668
15523SOL     OW49845  10.727  10.607   8.302  0.0426 -0.1119 -0.2126
15523SOL    HW149846  10.702  10.694   8.331  2.4086 -0.0160  1.8289
15523SOL    HW249847  10.749  10.617   8.209 -1.5246  0.9965 -0.4967
15524SOL     OW49848   1.584   2.659   0.741 -0.5346 -0.4041  0.5566
15524SOL    HW149849   1.562   2.748   0.714  0.3183  0.3243  2.1163
15524SOL    HW249850   1.518   2.604   0.699 -1.0544  0.9493 -0.4714
15525SOL     OW49851   5.586   1.856   9.880 -0.7599 -0.6167 -0.3281
15525SOL    HW149852   5.664   1.892   9.836 -0.2826  0.4561  1.2880
15525SOL    HW249853   5.512   1.900   9.838 -0.2959  0.6706  0.1458
15526SOL     OW49854   0.587   5.659   0.793  0.3182  0.4478 -0.0688
15526SOL    HW149855   0.603   5.680   0.701 -0.5387  1.6520  0.0416
15526SOL    HW249856   0.654   5.593   0.814 -1.1040 -1.8672 -2.2520
15527SOL     OW49857   5.481  10.717   1.814  0.0542 -0.4508  0.0191
15527SOL    HW149858   5.426  10.657   1.763 -1.4087  0.1541  0.8398
15527SOL    HW249859   5.536  10.660   1.868  1.0725 -1.0846 -1.5972
15528SOL     OW49860   5.478   4.409   4.190  0.1262  0.4239  0.3593
15528SOL    HW149861   5.382   4.407   4.192  0.0911 -2.4344  0.0307
15528SOL    HW249862   5.503   4.418   4.281 -0.5070 -0.3224  0.6277
15529SOL     OW49863  11.168   7.774   2.687 -0.2772 -0.3975 -0.0384
15529SOL    HW149864  11.118   7.706   2.642 -1.5843  0.4762  0.0564
15529SOL    HW249865  11.234   7.725   2.737 -0.1008 -1.4847 -1.2950
15530SOL     OW49866   1.615   5.217  10.656  0.8381  0.2520 -0.1538
15530SOL    HW149867   1.684   5.282  10.666  0.0140  0.9077  1.5003
15530SOL    HW249868   1.660   5.139  10.622  2.0801  1.1806 -0.7036
15531SOL     OW49869   3.224   0.192   6.042 -0.2363 -0.2748 -0.2648
15531SOL    HW149870   3.149   0.136   6.059  0.3786 -0.5437  1.7638
15531SOL    HW249871   3.296   0.155   6.094  0.6352  1.3970 -0.1800
15532SOL     OW49872   4.270   5.450   0.110 -0.1908 -0.0716  0.4078
15532SOL    HW149873   4.291   5.417   0.198 -2.7670  0.4415  1.2875
15532SOL    HW249874   4.288   5.376   0.052  1.2392 -0.5299  1.3748
15533SOL     OW49875   7.720   1.954   5.363  0.2888  0.3213  0.1022
15533SOL    HW149876   7.798   1.912   5.400  0.4194  0.4634 -0.0140
15533SOL    HW249877   7.649   1.892   5.380  0.7000 -0.5584 -1.2238
15534SOL     OW49878   5.724   4.399   6.512 -0.0895 -0.4401  0.4479
15534SOL    HW149879   5.656   4.357   6.459 -0.8960  0.2320  0.9194
15534SOL    HW249880   5.766   4.326   6.558  0.9350 -1.0896 -1.4210
15535SOL     OW49881   2.230   8.342  10.184  0.1293 -0.6177  0.2391
15535SOL    HW149882   2.294   8.280  10.148 -1.6527 -1.0471 -2.5096
15535SOL    HW249883   2.218   8.407  10.114 -0.2300  1.2100  1.8940
15536SOL     OW49884   8.920   3.401   2.213 -0.0599 -0.2312 -0.2202
15536SOL    HW149885   8.917   3.412   2.118  1.1727 -0.0120 -0.2523
15536SOL    HW249886   8.930   3.489   2.248  1.0933 -0.4300  0.0058
15537SOL     OW49887   4.107   9.366   4.476  0.0953  0.5019  0.4595
15537SOL    HW149888   4.198   9.387   4.496  0.2957  0.5324 -0.4588
15537SOL    HW249889   4.069   9.342   4.561  1.1839 -0.3951  0.7150
15538SOL     OW49890   1.917   8.619   4.207 -0.3265 -0.0452 -0.2317
15538SOL    HW149891   1.861   8.691   4.238  0.9044  0.9115 -0.1108
15538SOL    HW249892   1.945   8.646   4.120  3.3001  1.6801  1.2446
15539SOL     OW49893  10.293   1.215  10.050 -0.0569  0.0724 -0.1601
15539SOL    HW149894  10.274   1.146  10.114 -0.1558  0.9709  0.8029
15539SOL    HW249895  10.208   1.237  10.012 -0.1574  0.3083  0.2031
15540SOL     OW49896   4.833   9.084   4.773  0.3133  0.2630  0.5322
15540SOL    HW149897   4.838   9.144   4.847  2.3161  0.4969  0.2619
15540SOL    HW249898   4.860   8.999   4.810  2.3964  0.5982 -0.0900
15541SOL     OW49899   3.988   3.351   8.337  0.4731  0.2537  0.3973
15541SOL    HW149900   4.065   3.406   8.322  1.0140 -0.1285  1.6436
15541SOL    HW249901   3.914   3.407   8.313  1.1485  0.4456 -1.3296
15542SOL     OW49902   6.472   8.751   1.155 -0.1294 -0.1393  0.2383
15542SOL    HW149903   6.537   8.811   1.118  1.6097 -1.8982  0.3067
15542SOL    HW249904   6.395   8.763   1.099  0.5232  1.3771 -0.3934
15543SOL     OW49905   0.682   0.774   2.030  0.3128  0.0006  0.2460
15543SOL    HW149906   0.653   0.740   2.115 -1.4830  1.1765  0.1406
15543SOL    HW249907   0.612   0.833   2.002  0.8741 -0.3531 -2.0702
15544SOL     OW49908   4.395   8.172   8.585 -0.0442  0.5128 -0.2706
15544SOL    HW149909   4.435   8.090   8.616  0.7204  0.7444 -0.6243
15544SOL    HW249910   4.345   8.204   8.661 -0.7553 -0.5164 -0.2724
15545SOL     OW49911   7.396   7.317   2.274 -0.4832  0.1771 -0.0736
15545SOL    HW149912   7.482   7.360   2.274 -0.6859  0.6076 -0.9227
15545SOL    HW249913   7.384   7.288   2.184 -1.0136 -0.3330  0.1578
15546SOL     OW49914   6.152   2.463   8.668  0.2284 -0.2151 -0.5296
15546SOL    HW149915   6.224   2.471   8.730  0.9042  1.5817 -1.4673
15546SOL    HW249916   6.080   2.426   8.719  1.3120 -0.5271  0.8347
15547SOL     OW49917   7.143   8.791   6.413 -0.1675  0.2209 -0.6081
15547SOL    HW149918   7.209   8.856   6.435  1.3743 -0.9259 -1.6070
15547SOL    HW249919   7.093   8.778   6.493  1.6084  0.2611  0.5484
15548SOL     OW49920   0.932  10.599   0.316  0.1982  0.1656 -0.4921
15548SOL    HW149921   0.853  10.615   0.264 -0.8681  1.4924  1.4282
15548SOL    HW249922   0.934  10.504   0.328 -1.3445  0.1339 -0.2434
15549SOL     OW49923   1.871   8.318   4.423  0.2981  0.2021  0.7122
15549SOL    HW149924   1.891   8.261   4.498 -0.6566  0.7866  1.4390
15549SOL    HW249925   1.846   8.402   4.463  0.3719  0.7147 -0.2899
15550SOL     OW49926   2.117  10.038   3.337 -0.0604  0.0080  0.0009
15550SOL    HW149927   2.190   9.994   3.380  1.0292  0.7305 -1.0387
15550SOL    HW249928   2.112  10.123   3.380  2.1274  1.4150 -2.2573
15551SOL     OW49929   7.184   3.338   9.664  0.0445  0.4217  0.8271
15551SOL    HW149930   7.195   3.433   9.660  1.9563  0.2432  0.9264
15551SOL    HW249931   7.167   3.312   9.574 -0.9215  0.8839  0.8627
15552SOL     OW49932   7.050   9.582   1.555  0.2895  0.1317  0.2684
15552SOL    HW149933   6.978   9.643   1.572  0.3160  0.1437  0.3382
15552SOL    HW249934   7.129   9.630   1.579  0.2402 -0.2775  1.3077
15553SOL     OW49935   1.916   9.431  10.394 -0.2104  0.0705  0.4459
15553SOL    HW149936   1.858   9.356  10.382  1.1736 -1.2129  1.4127
15553SOL    HW249937   1.922   9.442  10.489  1.2983  0.0004  0.3862
15554SOL     OW49938   1.078   0.666   8.631  0.3430 -0.1025  0.0420
15554SOL    HW149939   1.053   0.731   8.696 -0.8029 -0.6721  0.1883
15554SOL    HW249940   1.004   0.606   8.627  0.5471 -0.2935 -1.5156
15555SOL     OW49941   8.758   4.247  10.750  0.0349 -0.0232 -0.5023
15555SOL    HW149942   8.707   4.325  10.771  1.0740  0.6480 -0.4030
15555SOL    HW249943   8.699   4.174  10.769 -0.6721  0.7098  0.1984
15556SOL     OW49944  10.645   6.704   5.095 -0.1818 -0.3877  0.1957
15556SOL    HW149945  10.679   6.630   5.045 -0.5308 -1.3113  1.2733
15556SOL    HW249946  10.628   6.771   5.030  0.9552 -0.9434 -0.7117
15557SOL     OW49947   5.381   2.663   6.155  0.0438 -0.1587 -0.4313
15557SOL    HW149948   5.311   2.688   6.095 -0.8504 -2.5271 -0.5155
15557SOL    HW249949   5.450   2.727   6.141 -0.8548  0.3986 -2.6981
15558SOL     OW49950  10.161   7.735   5.449  0.3714  0.3197  0.1288
15558SOL    HW149951  10.213   7.655   5.443 -0.0789  0.0164  0.1750
15558SOL    HW249952  10.222   7.802   5.481  0.2172 -0.5417  2.3822
15559SOL     OW49953   8.754   2.226   0.255  0.9033  0.5793 -0.2238
15559SOL    HW149954   8.668   2.269   0.249  1.0633  0.9270 -0.0227
15559SOL    HW249955   8.765   2.185   0.169 -0.0979 -0.6909  0.2188
15560SOL     OW49956   1.827   1.534   0.936 -0.2179 -0.1523  0.2378
15560SOL    HW149957   1.734   1.559   0.935 -0.2668 -0.2425  1.1577
15560SOL    HW249958   1.836   1.474   0.862 -0.7966  0.1957 -0.1267
15561SOL     OW49959   6.868   5.538   0.232 -0.2220  0.1612 -0.4982
15561SOL    HW149960   6.947   5.518   0.182  0.1367  1.9191 -0.7183
15561SOL    HW249961   6.850   5.630   0.211 -1.0856  0.4202  1.2134
15562SOL     OW49962   9.272   2.828   8.614  0.1079 -0.3442 -0.1548
15562SOL    HW149963   9.315   2.887   8.552  1.0688 -1.7617 -0.8933
15562SOL    HW249964   9.190   2.803   8.571  0.6392 -1.0991 -0.7495
15563SOL     OW49965   0.514   4.291   7.030  0.0562  0.1967  0.7870
15563SOL    HW149966   0.464   4.371   7.010 -0.3417  0.1798  1.6977
15563SOL    HW249967   0.480   4.262   7.114  1.1974 -0.1477  1.1393
15564SOL     OW49968   5.332   9.279  10.290  0.2638 -0.3521 -0.0691
15564SOL    HW149969   5.269   9.248  10.226 -0.9315 -0.5593  1.1670
15564SOL    HW249970   5.393   9.333  10.240  0.6878 -2.2645 -1.7575
15565SOL     OW49971  11.368   7.551   8.628  0.0128  0.7257  0.1428
15565SOL    HW149972  11.403   7.585   8.546  0.4326  1.2414  0.5296
15565SOL    HW249973  11.431   7.485   8.656  0.5187  1.4112  0.6633
15566SOL     OW49974   9.429  10.171   9.880 -0.0918 -0.2788  0.2462
15566SOL    HW149975   9.454  10.144   9.792  0.8045  1.1552  0.0298
15566SOL    HW249976   9.371  10.246   9.867 -0.9721 -0.8358  0.8627
15567SOL     OW49977   3.630   1.048   2.015 -0.4628 -0.3589  0.0449
15567SOL    HW149978   3.642   1.126   1.960  0.2376 -0.5040 -0.0268
15567SOL    HW249979   3.540   1.054   2.047 -0.2569  0.7485  0.4565
15568SOL     OW49980   8.469   2.610   8.071 -0.6402  0.2800 -0.6057
15568SOL    HW149981   8.410   2.538   8.091  0.0368  0.3126  1.8882
15568SOL    HW249982   8.420   2.689   8.094 -0.1784  0.3774  0.1078
15569SOL     OW49983   2.969   5.076   3.150 -0.1981  0.0937  0.2462
15569SOL    HW149984   2.978   5.009   3.218 -1.1298 -0.6148 -0.2877
15569SOL    HW249985   3.007   5.035   3.072 -0.1993  0.4338  0.0672
15570SOL     OW49986   0.141   6.973   8.224 -0.0744  0.0800  0.5551
15570SOL    HW149987   0.124   6.879   8.229 -2.0560  0.3865  0.4179
15570SOL    HW249988   0.236   6.980   8.216 -0.0034 -1.9985 -1.3997
15571SOL     OW49989   9.664   0.477   1.072 -0.0076 -0.2829 -0.7231
15571SOL    HW149990   9.719   0.404   1.101  0.0798  0.8801  2.5196
15571SOL    HW249991   9.592   0.478   1.136 -0.8798  1.4946 -1.6706
15572SOL     OW49992   1.986   6.965   3.969  0.8080 -0.3584  0.0336
15572SOL    HW149993   1.975   7.058   3.951  1.4469 -0.2384  0.2419
15572SOL    HW249994   1.936   6.921   3.901  0.3168  0.1394  0.0672
15573SOL     OW49995  11.104   6.384   3.147 -0.3973 -0.1243 -0.2619
15573SOL    HW149996  11.041   6.349   3.209  0.4224 -2.1157 -0.4725
15573SOL    HW249997  11.053   6.401   3.068 -0.8938 -0.4364 -0.0138
15574SOL     OW49998   6.127   4.795   1.739  0.2139  0.2002  0.0544
15574SOL    HW149999   6.061   4.747   1.789 -0.9636  0.4930 -1.1689
15574SOL    HW250000   6.127   4.883   1.777  1.2965 -0.2972  1.2988
15575SOL     OW50001  10.889  10.049   9.279 -0.3778 -0.6710 -0.5842
15575SOL    HW150002  10.875  10.136   9.243 -0.9666 -0.7601 -0.5722
15575SOL    HW250003  10.943  10.005   9.213  0.8438  0.0421 -0.0966
15576SOL     OW50004   4.648   4.594   7.467  0.4231 -0.0840  0.0944
15576SOL    HW150005   4.685   4.620   7.382  0.9233 -0.9758  0.0287
15576SOL    HW250006   4.560   4.563   7.446  0.3880  0.1019 -0.0388
15577SOL     OW50007   3.738   1.836   2.748 -0.0747 -0.1235  0.6551
15577SOL    HW150008   3.742   1.920   2.794 -1.0341  0.7884 -0.8395
15577SOL    HW250009   3.652   1.801   2.770 -0.6672  0.4638 -0.6234
15578SOL     OW50010   9.453  10.070   0.273 -0.0147  0.2425  0.3167
15578SOL    HW150011   9.403  10.031   0.345  0.2399 -0.0470  0.3417
15578SOL    HW250012   9.414  10.032   0.194  0.2084 -0.0388  0.3394
15579SOL     OW50013   7.211   7.504  10.829  0.6804 -0.0442  0.3826
15579SOL    HW150014   7.234   7.597  10.835  2.0504 -0.3551  0.1250
15579SOL    HW250015   7.290   7.461  10.797 -0.6147 -1.0186 -1.6803
15580SOL     OW50016   4.082   8.651   1.371  0.0951 -0.2398  0.2655
15580SOL    HW150017   4.125   8.606   1.444  0.6944 -0.5384 -0.2555
15580SOL    HW250018   4.019   8.587   1.337 -1.2809  0.4408  1.4543
15581SOL     OW50019   4.017   1.882   1.365  0.0157 -0.4823 -0.4218
15581SOL    HW150020   4.090   1.941   1.347 -0.3372  0.0816 -0.0450
15581SOL    HW250021   4.033   1.850   1.453 -0.9282  0.7807  0.2443
15582SOL     OW50022   9.310   4.510   0.107  0.7216 -0.3141  0.1382
15582SOL    HW150023   9.347   4.500   0.194 -1.5092 -0.6045  1.1295
15582SOL    HW250024   9.381   4.487   0.047  1.8545 -1.6691  1.9052
15583SOL     OW50025   0.807   0.571   8.348  0.2305 -0.1355  0.1777
15583SOL    HW150026   0.762   0.607   8.272  1.8388  0.1533 -0.6809
15583SOL    HW250027   0.844   0.647   8.393 -0.5109 -0.3230  1.1551
15584SOL     OW50028   4.342   1.771  11.389  0.2774 -0.1914 -0.3852
15584SOL    HW150029   4.346   1.838  11.320 -1.3456  0.1271 -0.2070
15584SOL    HW250030   4.433   1.757  11.413  0.9770 -0.7496 -2.9994
15585SOL     OW50031   6.451   0.840  10.943 -0.3851 -0.4609  0.1131
15585SOL    HW150032   6.513   0.769  10.961 -1.3588 -1.2183  0.5936
15585SOL    HW250033   6.496   0.919  10.970  0.1210 -1.0696  1.1159
15586SOL     OW50034   0.865   5.299  10.996 -0.1040 -0.4539 -0.2115
15586SOL    HW150035   0.880   5.286  10.903  1.8911 -0.0976  0.0190
15586SOL    HW250036   0.952   5.298  11.035 -0.7421  1.2010  1.4214
15587SOL     OW50037   3.219   5.340   5.402 -0.0919  0.6317  0.1179
15587SOL    HW150038   3.276   5.268   5.430  1.3375  1.9516  0.8205
15587SOL    HW250039   3.133   5.317   5.435  0.0281 -1.3596 -0.7999
15588SOL     OW50040   8.123   8.936   4.727 -0.1424 -0.1181  0.6318
15588SOL    HW150041   8.129   9.032   4.724  0.0208 -0.1517 -1.0054
15588SOL    HW250042   8.073   8.918   4.807  0.6818  1.2734  1.5161
15589SOL     OW50043   7.069   7.097   3.069 -0.2110 -0.2220  0.1911
15589SOL    HW150044   7.060   7.020   3.013 -0.3690 -1.3320  1.6686
15589SOL    HW250045   7.050   7.064   3.157 -0.1991  1.5024  0.8724
15590SOL     OW50046   2.580   7.054   8.360  0.4974  0.4149  0.2516
15590SOL    HW150047   2.553   6.970   8.399  0.7382 -0.0414 -0.5390
15590SOL    HW250048   2.533   7.058   8.277 -0.5359  1.6991  0.8698
15591SOL     OW50049   4.292   0.405   4.476 -0.0063 -0.5516  0.0015
15591SOL    HW150050   4.292   0.452   4.559 -0.9834  0.9516 -0.8132
15591SOL    HW250051   4.311   0.472   4.410 -2.4598 -1.0445 -1.2980
15592SOL     OW50052   0.627   0.837   5.313  0.0253 -0.2035  0.1523
15592SOL    HW150053   0.571   0.840   5.391 -0.7545  0.0328 -0.4132
15592SOL    HW250054   0.714   0.817   5.348 -0.6369 -1.9448  0.9310
15593SOL     OW50055  11.053   0.165  11.159 -0.2693  0.1695 -0.0192
15593SOL    HW150056  11.146   0.143  11.151  0.4185  2.8550 -0.4241
15593SOL    HW250057  11.024   0.178  11.068 -0.5545  1.1131  0.2010
15594SOL     OW50058   8.930   6.007  10.502  0.4747  0.2021 -0.2077
15594SOL    HW150059   8.936   6.034  10.410 -0.2676  1.2678  0.0250
15594SOL    HW250060   8.838   5.980  10.512  0.8794 -1.2017 -0.0923
15595SOL     OW50061   0.007   6.121  10.989 -0.1879 -0.2099 -0.4873
15595SOL    HW150062  -0.041   6.188  10.941 -0.2975  0.2602  0.2595
15595SOL    HW250063  -0.003   6.042  10.936 -0.7191  0.1760 -0.9804
15596SOL     OW50064   3.256   1.992  10.333  0.6364 -0.1724 -0.0701
15596SOL    HW150065   3.349   1.980  10.353  0.6900  1.9047  1.1816
15596SOL    HW250066   3.252   2.078  10.291 -0.6206 -0.6859 -1.0519
15597SOL     OW50067   9.476   3.661   4.039  0.2351 -0.0359  0.0834
15597SOL    HW150068   9.418   3.649   4.114  0.1360 -0.9208 -0.1308
15597SOL    HW250069   9.506   3.573   4.017  1.5888  0.3924  0.1215
15598SOL     OW50070   8.927   1.562   5.317 -0.7402  0.1598 -0.8426
15598SOL    HW150071   9.011   1.606   5.302 -1.0632  0.6564 -1.1999
15598SOL    HW250072   8.952   1.475   5.348 -0.0783  1.0384  1.2834
15599SOL     OW50073   9.841  10.103   3.890 -0.0723 -0.8093 -0.3205
15599SOL    HW150074   9.782  10.174   3.914 -2.5085 -1.8649 -2.6323
15599SOL    HW250075   9.869  10.124   3.800  0.7280 -1.8200 -0.3318
15600SOL     OW50076   7.257   5.608  10.722 -0.2748 -0.5444 -0.3775
15600SOL    HW150077   7.210   5.525  10.712 -2.4606  0.1876  2.3507
15600SOL    HW250078   7.191   5.668  10.758  1.8642  1.6854  0.0818
15601SOL     OW50079   2.514   3.684   0.851 -0.2831  0.2072  0.2317
15601SOL    HW150080   2.453   3.611   0.838 -0.1793  0.0440  0.6507
15601SOL    HW250081   2.460   3.762   0.838 -0.3307  0.0582 -0.4982
15602SOL     OW50082   4.640   2.969   8.581  0.3080  0.6015 -0.2450
15602SOL    HW150083   4.548   2.941   8.578  0.6868 -0.7228 -0.0563
15602SOL    HW250084   4.635   3.065   8.583 -1.0423  0.5982 -1.3581
15603SOL     OW50085   1.201   4.500   9.836 -0.8455 -0.3338 -0.1612
15603SOL    HW150086   1.291   4.519   9.859 -0.4608 -1.5685 -0.5326
15603SOL    HW250087   1.148   4.556   9.893  0.1401 -0.3228  0.7607
15604SOL     OW50088   5.119   6.484   0.287 -0.3738 -0.0051 -0.0818
15604SOL    HW150089   5.073   6.561   0.255 -2.4537  0.0921  2.7577
15604SOL    HW250090   5.078   6.411   0.241 -2.5261  0.2095  1.3261
15605SOL     OW50091   0.297  10.077   9.789 -0.2782  0.2473 -0.2289
15605SOL    HW150092   0.371  10.133   9.765 -0.3634  0.2641 -0.4567
15605SOL    HW250093   0.308   9.999   9.736 -0.5497  0.3458 -0.4303
15606SOL     OW50094   9.916  10.451   0.444 -0.1372  0.2921  0.0787
15606SOL    HW150095   9.893  10.412   0.529 -1.6953 -0.4624 -0.6618
15606SOL    HW250096  10.006  10.483   0.457 -0.4337  0.4631  2.0910
15607SOL     OW50097   7.709   0.456   7.965  0.2321 -0.2951 -0.1795
15607SOL    HW150098   7.764   0.532   7.949  1.0922 -0.6515  0.9705
15607SOL    HW250099   7.679   0.467   8.056 -0.0238 -1.0744 -0.1623
15608SOL     OW50100   7.674   6.523  11.219 -0.9159 -0.0549  0.3229
15608SOL    HW150101   7.696   6.583  11.290 -2.5024 -0.5838  1.3005
15608SOL    HW250102   7.662   6.438  11.262  1.9091 -1.3111 -1.0947
15609SOL     OW50103   2.312   5.861   1.047 -0.5301 -0.0302  0.0651
15609SOL    HW150104   2.247   5.905   1.101 -0.1795 -0.9411  1.2660
15609SOL    HW250105   2.295   5.768   1.061  0.0844 -0.2871 -0.7889
15610SOL     OW50106   2.019   4.730   7.583  0.4080  0.1348  0.0286
15610SOL    HW150107   2.006   4.637   7.603  0.8343 -0.1474 -0.9194
15610SOL    HW250108   2.034   4.731   7.488  1.3057  1.0775  0.1732
15611SOL     OW50109   1.629   5.298   4.690  0.3919  0.1141  0.4166
15611SOL    HW150110   1.700   5.236   4.705  0.1336 -0.3392 -0.1551
15611SOL    HW250111   1.555   5.243   4.665  0.6172  0.7220 -1.8486
15612SOL     OW50112   8.249   3.557  10.087 -0.5780  0.1122  0.4134
15612SOL    HW150113   8.311   3.539  10.018 -1.8686  1.2930 -1.1297
15612SOL    HW250114   8.164   3.561  10.043 -1.6262 -0.3798  2.2641
15613SOL     OW50115   9.783   8.461   1.525  0.1524 -0.5585  0.0863
15613SOL    HW150116   9.776   8.429   1.615  0.9882 -1.2278 -0.0694
15613SOL    HW250117   9.723   8.406   1.475 -0.2480 -0.2433  0.2124
15614SOL     OW50118   6.163   0.019   2.421 -0.5106  0.4955 -0.2576
15614SOL    HW150119   6.169  -0.065   2.375  0.8165 -1.0021  2.4419
15614SOL    HW250120   6.070   0.028   2.443 -0.5981 -0.5067 -0.1708
15615SOL     OW50121   7.773   2.904  10.909 -0.6075  0.3763  0.0484
15615SOL    HW150122   7.758   2.998  10.917  1.0903  0.6815 -0.0886
15615SOL    HW250123   7.839   2.884  10.975 -1.1180 -0.7715  0.2295
15616SOL     OW50124   5.318   0.768   1.489 -0.0863 -0.1449 -0.3105
15616SOL    HW150125   5.329   0.863   1.497  0.7143 -0.3001  0.5203
15616SOL    HW250126   5.407   0.733   1.483 -0.2500 -1.0263  1.7048
15617SOL     OW50127   2.000   9.593   7.795  0.9896  1.0027  0.0580
15617SOL    HW150128   2.048   9.605   7.877  0.5695 -0.4342  0.5422
15617SOL    HW250129   2.068   9.568   7.732  1.4232  2.8221 -0.2479
15618SOL     OW50130   9.605   6.842   2.267 -0.3001 -0.3102 -0.5288
15618SOL    HW150131   9.616   6.926   2.223  0.2200  0.6241  1.2602
15618SOL    HW250132   9.657   6.781   2.215 -0.9415  0.3812 -2.0414
15619SOL     OW50133  10.544   6.364   2.549  0.2177  0.0082  0.0261
15619SOL    HW150134  10.586   6.447   2.572 -1.8285  0.8572  1.0031
15619SOL    HW250135  10.535   6.367   2.454 -0.1634  1.1235  0.0810
15620SOL     OW50136   1.414   8.209   7.592  0.2807 -0.3208 -0.1717
15620SOL    HW150137   1.424   8.291   7.641  0.6885 -0.0178 -0.7530
15620SOL    HW250138   1.411   8.236   7.500  1.5986 -1.0504 -0.4497
15621SOL     OW50139   2.153   2.159   0.734 -0.0138  0.3313 -0.0771
15621SOL    HW150140   2.211   2.146   0.809 -0.2461  1.7377  0.3795
15621SOL    HW250141   2.155   2.253   0.718 -0.1315  0.0813 -1.7243
15622SOL     OW50142   9.026   7.478   5.252  0.0839  0.7137 -0.1275
15622SOL    HW150143   8.988   7.540   5.315  0.3616  0.8665 -0.1083
15622SOL    HW250144   9.096   7.527   5.210 -1.2688  1.2386 -1.8906
15623SOL     OW50145   3.506   3.026   3.022 -0.1706 -0.7810 -0.3278
15623SOL    HW150146   3.578   3.022   2.960  0.7193  0.0285  0.6251
15623SOL    HW250147   3.512   3.114   3.060 -0.0689 -1.5902  1.6211
15624SOL     OW50148   1.323   5.133   6.346  0.5865  0.0540 -0.0197
15624SOL    HW150149   1.237   5.122   6.305 -0.6312 -0.2028  2.3697
15624SOL    HW250150   1.321   5.222   6.383  2.0640  0.6952 -1.3859
15625SOL     OW50151   3.461   6.424   8.967 -0.0744  0.2440  0.1782
15625SOL    HW150152   3.531   6.481   8.936  1.1861 -1.4256 -0.2243
15625SOL    HW250153   3.502   6.372   9.037 -0.8515 -0.8509 -0.1558
15626SOL     OW50154   0.320  10.814   0.055  0.3329  0.1758  0.1794
15626SOL    HW150155   0.413  10.824   0.074  0.5250  0.6624 -0.9461
15626SOL    HW250156   0.281  10.898   0.079 -0.3427 -0.8836  3.2842
15627SOL     OW50157   3.843   3.674   2.845 -0.6925 -0.1725  0.3960
15627SOL    HW150158   3.937   3.689   2.833 -0.9470 -0.1677 -2.4464
15627SOL    HW250159   3.835   3.633   2.931  2.3546 -3.4104 -0.6039
15628SOL     OW50160   2.770   4.154   8.397 -0.0219 -0.0220  0.1572
15628SOL    HW150161   2.727   4.166   8.482 -1.9067  1.7329 -0.9429
15628SOL    HW250162   2.698   4.154   8.334  1.3983 -0.1464 -1.5340
15629SOL     OW50163   7.029   6.146   4.736  0.3627  0.4987 -0.0421
15629SOL    HW150164   7.102   6.086   4.755 -0.2515 -0.0525  0.6343
15629SOL    HW250165   6.987   6.160   4.821 -1.4239 -0.6513 -0.6865
15630SOL     OW50166   5.121  10.306   2.672 -0.0766  0.2290  0.4449
15630SOL    HW150167   5.155  10.233   2.621  0.2876  0.2189  0.6994
15630SOL    HW250168   5.083  10.365   2.606 -1.8176 -0.9256  0.3606
15631SOL     OW50169   4.012  10.058   0.396  0.6053 -0.2103  0.4340
15631SOL    HW150170   3.935  10.040   0.343  0.2615 -1.3403  1.2841
15631SOL    HW250171   3.995  10.014   0.479  1.7805  0.2751  0.9552
15632SOL     OW50172   7.289   4.010  10.559 -0.1246 -0.1522  0.0627
15632SOL    HW150173   7.327   4.041  10.477 -1.0915 -1.5195 -0.9493
15632SOL    HW250174   7.278   4.089  10.612 -0.7253  0.9589 -1.6437
15633SOL     OW50175   8.131   3.392   0.788 -0.0302 -0.0854 -0.0340
15633SOL    HW150176   8.090   3.469   0.829  1.8127 -0.0554  1.9272
15633SOL    HW250177   8.225   3.408   0.796  0.4884 -3.3003  2.1555
15634SOL     OW50178   1.150   0.755  11.201  0.3636 -0.3234 -0.1192
15634SOL    HW150179   1.080   0.737  11.139  0.8197 -0.6834 -0.5375
15634SOL    HW250180   1.118   0.721  11.285  0.1315 -0.6764 -0.3539
15635SOL     OW50181   4.633   5.941   7.438 -0.1735 -0.3068 -0.4935
15635SOL    HW150182   4.680   5.878   7.493  2.3761  1.0999 -0.9107
15635SOL    HW250183   4.555   5.963   7.488  0.1895 -1.8327  0.8324
15636SOL     OW50184   9.020   3.678   7.235  1.1589  0.2229 -0.1519
15636SOL    HW150185   9.029   3.730   7.316 -3.2476 -1.6816  1.8909
15636SOL    HW250186   9.054   3.592   7.259  4.3237  0.7600 -2.1128
15637SOL     OW50187   7.474   4.326   7.909 -0.0957 -0.1488  0.2000
15637SOL    HW150188   7.525   4.252   7.876  2.2313  0.7438  1.6252
15637SOL    HW250189   7.402   4.335   7.846  0.1693 -2.8905 -0.6131
15638SOL     OW50190   8.714   5.773   9.887 -0.2148  0.1353 -0.0244
15638SOL    HW150191   8.737   5.688   9.850  0.2309  0.6055 -0.8424
15638SOL    HW250192   8.701   5.830   9.812  2.0453  1.4669  0.5118
15639SOL     OW50193   1.840  10.844  10.220 -0.4433  0.2680  0.4800
15639SOL    HW150194   1.877  10.895  10.148 -2.7573  0.7125 -0.4599
15639SOL    HW250195   1.828  10.907  10.291  1.5517 -0.1093  1.2184
15640SOL     OW50196   8.080   5.704   4.240  0.6762 -0.1721  0.2144
15640SOL    HW150197   8.047   5.784   4.280  0.1363 -0.7771  0.9982
15640SOL    HW250198   8.025   5.690   4.163 -0.2868 -0.6572  0.9796
15641SOL     OW50199   2.398   1.777   0.735  0.0666  0.4403  0.5122
15641SOL    HW150200   2.411   1.684   0.720  3.3408  0.6262  1.5370
15641SOL    HW250201   2.430   1.819   0.655 -2.6962  0.7746 -0.5528
15642SOL     OW50202   2.739   9.538   6.178 -1.3861 -0.3959 -0.0595
15642SOL    HW150203   2.728   9.475   6.248 -1.7910  0.2816  0.5013
15642SOL    HW250204   2.832   9.561   6.180 -1.1234 -1.3788 -0.6319
15643SOL     OW50205   4.020   5.056   6.559 -0.0115  0.1200  0.3792
15643SOL    HW150206   4.080   5.075   6.632  1.4209 -1.5099 -0.2930
15643SOL    HW250207   3.947   5.010   6.600  0.6164 -0.4724  0.8593
15644SOL     OW50208   3.823   5.963   3.677  0.0620 -0.9467  0.0243
15644SOL    HW150209   3.743   5.911   3.676 -0.5726 -0.0308 -1.4782
15644SOL    HW250210   3.876   5.927   3.606 -0.8125  0.9561 -1.7237
15645SOL     OW50211   1.914   3.303   1.538  0.4601  0.3768  0.6043
15645SOL    HW150212   1.855   3.228   1.551  1.3600 -0.4251  0.1038
15645SOL    HW250213   1.994   3.265   1.502  1.5225  1.3705  1.8039
15646SOL     OW50214   3.681   7.406   5.410 -0.2877  0.0167 -0.5231
15646SOL    HW150215   3.669   7.347   5.485 -3.5510 -1.0434 -1.6971
15646SOL    HW250216   3.600   7.456   5.406  1.1628  2.4615 -1.4517
15647SOL     OW50217   5.339   4.962   4.404  0.0041 -0.1449 -0.3243
15647SOL    HW150218   5.301   4.933   4.487 -1.3790 -1.2157 -1.2685
15647SOL    HW250219   5.421   5.004   4.428 -0.1515 -0.8119  1.5406
15648SOL     OW50220   9.591   6.639   3.884 -0.0685 -0.0871  0.8773
15648SOL    HW150221   9.573   6.546   3.868  1.9163 -0.2041 -1.3073
15648SOL    HW250222   9.505   6.678   3.899 -1.2445 -1.8481 -0.7620
15649SOL     OW50223   7.291   7.434   9.969 -0.1294 -0.1460 -0.2492
15649SOL    HW150224   7.375   7.435   9.925 -0.3227 -1.6873 -0.7405
15649SOL    HW250225   7.309   7.396  10.056 -0.4870 -1.8900 -0.8837
15650SOL     OW50226   3.720   5.915   8.812 -0.4979  0.6283 -0.0220
15650SOL    HW150227   3.758   5.992   8.770 -0.9373  1.0786  0.3986
15650SOL    HW250228   3.671   5.950   8.886 -0.2370 -0.1054  0.5074
15651SOL     OW50229   1.497   1.827   1.738 -0.4063  0.5994  0.0031
15651SOL    HW150230   1.524   1.876   1.815 -2.0755  0.5744  0.6413
15651SOL    HW250231   1.451   1.750   1.772 -0.1692 -0.0153 -1.0081
15652SOL     OW50232   1.952  10.763   5.805 -0.7362  0.1472 -0.7574
15652SOL    HW150233   1.966  10.856   5.789  0.0366  0.1545 -0.0677
15652SOL    HW250234   1.980  10.720   5.724  0.4766  0.4012 -0.4937
15653SOL     OW50235   5.464   4.717   3.450 -0.0929  0.2617  0.6626
15653SOL    HW150236   5.467   4.731   3.545  1.0946  0.4322  0.6179
15653SOL    HW250237   5.491   4.626   3.438  1.5533  0.7465  0.4096
15654SOL     OW50238   6.978   1.417   0.140 -0.4450  0.1671 -0.0465
15654SOL    HW150239   7.066   1.386   0.119  0.2922  2.7223 -1.1276
15654SOL    HW250240   6.926   1.394   0.063 -0.8206 -1.4883  0.6590
15655SOL     OW50241  10.912   5.740   7.437  0.3022 -0.0036 -0.1691
15655SOL    HW150242  10.858   5.704   7.507 -0.9630  1.5142 -0.3033
15655SOL    HW250243  10.888   5.691   7.359 -1.5528  1.1794 -0.3964
15656SOL     OW50244   6.853   7.824   5.805 -0.2005  0.2620  0.2864
15656SOL    HW150245   6.826   7.814   5.896 -0.5335 -0.1945  0.1343
15656SOL    HW250246   6.867   7.735   5.773 -2.5751  0.2378 -0.8697
15657SOL     OW50247   6.654   3.535   7.215 -0.0035 -0.1493  0.2561
15657SOL    HW150248   6.586   3.546   7.281 -0.7722  0.6896 -0.6373
15657SOL    HW250249   6.736   3.555   7.260 -0.1987 -2.1309  1.6160
15658SOL     OW50250   6.625   5.445   0.334 -0.2069  0.5594  0.6752
15658SOL    HW150251   6.685   5.482   0.269 -0.7115 -0.6736 -0.5462
15658SOL    HW250252   6.594   5.521   0.384  1.5867  1.3149  0.6870
15659SOL     OW50253   8.559   8.995  10.140 -0.2827 -0.0313 -0.0264
15659SOL    HW150254   8.601   8.970  10.058 -0.8547  1.1834 -0.7169
15659SOL    HW250255   8.630   9.027  10.195 -0.3148  3.0896 -1.5941
15660SOL     OW50256   4.638   2.418   5.374 -0.4386  0.2729 -0.6458
15660SOL    HW150257   4.619   2.421   5.467  1.0529  1.9982 -0.3453
15660SOL    HW250258   4.616   2.505   5.341  0.5208  0.2001 -1.5677
15661SOL     OW50259   4.919   0.889   7.549  0.5439 -0.2442  0.1651
15661SOL    HW150260   4.977   0.814   7.566  0.3204 -0.8269 -1.4645
15661SOL    HW250261   4.851   0.882   7.615 -0.2639 -2.3480 -0.7916
15662SOL     OW50262   2.017   7.785  10.321 -0.2653  0.2973 -0.2299
15662SOL    HW150263   2.087   7.720  10.332 -0.7662  0.1266  2.8239
15662SOL    HW250264   2.059   7.859  10.277  1.8582  0.1261  1.3556
15663SOL     OW50265   0.505   9.149   9.070 -0.0071  0.6659 -0.4597
15663SOL    HW150266   0.460   9.131   9.153  2.6364  0.9482  1.1333
15663SOL    HW250267   0.439   9.194   9.017 -2.1146 -0.4279  1.0509
15664SOL     OW50268   6.650   2.650   2.973  0.1367 -0.1578 -0.1690
15664SOL    HW150269   6.569   2.700   2.965  0.6611  0.8741  0.6830
15664SOL    HW250270   6.622   2.561   2.995 -0.7423  0.4691  1.3765
15665SOL     OW50271   9.888   9.749   4.759  0.2053  0.6127 -0.3135
15665SOL    HW150272   9.856   9.837   4.740  2.1995  1.3990 -0.3077
15665SOL    HW250273   9.971   9.743   4.713  2.2665  0.3807  3.0584
15666SOL     OW50274   8.031   4.936   7.732  0.3166 -0.5936 -0.0242
15666SOL    HW150275   8.093   4.872   7.767  2.7134  0.6313 -1.7194
15666SOL    HW250276   8.076   5.020   7.741 -2.1262  0.7283  0.7741
15667SOL     OW50277   4.203   0.877   5.656 -0.2783  0.0423  0.1160
15667SOL    HW150278   4.244   0.791   5.665  1.3056  0.8398  1.1058
15667SOL    HW250279   4.271   0.932   5.618 -1.4752  0.7426 -1.0987
15668SOL     OW50280   9.623   8.564   5.969  0.3204  0.2387 -0.3512
15668SOL    HW150281   9.715   8.544   5.984 -0.1050 -0.5747  1.4064
15668SOL    HW250282   9.578   8.480   5.980 -0.4961  0.2143 -2.9804
15669SOL     OW50283   2.381   4.247   4.028 -0.1044  0.1675 -0.4380
15669SOL    HW150284   2.389   4.154   4.009 -3.2255 -0.5834  1.0612
15669SOL    HW250285   2.395   4.291   3.945  0.9369 -1.6776 -1.2852
15670SOL     OW50286   8.398   1.692   5.369  0.0858  0.1535 -0.6082
15670SOL    HW150287   8.306   1.674   5.385  0.2612  1.2955  2.3340
15670SOL    HW250288   8.419   1.643   5.290 -2.6290 -1.4010 -0.4799
15671SOL     OW50289   8.093  11.229   6.247  0.0864 -0.2377  0.1326
15671SOL    HW150290   8.156  11.166   6.214  1.6830  1.4324 -0.1942
15671SOL    HW250291   8.052  11.185   6.322  1.6690 -1.3791  0.3801
15672SOL     OW50292   2.611   3.130   0.524  0.1545 -0.7516  0.8073
15672SOL    HW150293   2.526   3.173   0.532  0.0680 -1.0714  1.7720
15672SOL    HW250294   2.674   3.199   0.543  0.1024 -0.5701  0.3284
15673SOL     OW50295   7.748   0.472   8.383 -0.3929  0.4949  0.6002
15673SOL    HW150296   7.689   0.450   8.455  1.3418  1.2204  2.3454
15673SOL    HW250297   7.830   0.429   8.405 -0.1127 -0.1432 -1.5420
15674SOL     OW50298   7.562   2.386   5.976  1.0861  0.1223  0.2717
15674SOL    HW150299   7.550   2.402   5.882  1.1532  2.2288  0.5810
15674SOL    HW250300   7.637   2.441   6.000  1.9926 -1.4859  1.3058
15675SOL     OW50301   6.284   3.550   6.382  0.2766 -0.3115  0.0383
15675SOL    HW150302   6.278   3.644   6.363 -0.4731  0.0091  1.6972
15675SOL    HW250303   6.194   3.523   6.397  0.5704 -1.1216  0.3706
15676SOL     OW50304   0.785   2.997   6.408  0.1292 -0.7904  0.0418
15676SOL    HW150305   0.875   2.968   6.392  0.2667 -0.5291  0.3156
15676SOL    HW250306   0.770   2.977   6.501  0.2034 -0.0674  0.2162
15677SOL     OW50307   7.229   2.436   3.902 -0.2889  0.1014  0.3090
15677SOL    HW150308   7.318   2.456   3.874 -0.5438  0.5074 -0.2336
15677SOL    HW250309   7.240   2.397   3.989  0.4954 -1.0444 -0.2848
15678SOL     OW50310   0.308   9.518   1.129  0.3878 -0.0321 -0.0277
15678SOL    HW150311   0.380   9.567   1.170  1.2897 -0.9874 -0.4076
15678SOL    HW250312   0.335   9.508   1.038  0.4511 -1.5925  0.1291
15679SOL     OW50313   4.176   3.249   9.023 -0.8643  0.0613  0.1436
15679SOL    HW150314   4.125   3.168   9.027 -0.3763 -0.3385 -1.2060
15679SOL    HW250315   4.124   3.308   8.969  0.4055 -0.6251 -1.9223
15680SOL     OW50316   0.304   6.159   9.285 -0.0666  0.0905  0.7895
15680SOL    HW150317   0.362   6.083   9.294  0.3128  0.0745 -1.1472
15680SOL    HW250318   0.353   6.232   9.322  1.5674  0.1959 -1.3698
15681SOL     OW50319   4.710   2.915   7.140 -0.3816 -0.0494 -0.3892
15681SOL    HW150320   4.731   2.920   7.233 -1.6546  1.6273 -0.1434
15681SOL    HW250321   4.616   2.929   7.136 -0.4380 -0.7178 -1.9037
15682SOL     OW50322   9.954   8.504   2.384  0.5037 -0.6371  0.6942
15682SOL    HW150323  10.007   8.551   2.320 -0.8548 -1.0396 -0.8035
15682SOL    HW250324   9.994   8.417   2.389  0.1843 -0.8382 -0.1766
15683SOL     OW50325   7.601   1.639   4.568 -0.0699 -0.8991 -0.2381
15683SOL    HW150326   7.669   1.613   4.506 -0.5531 -1.4738 -0.5422
15683SOL    HW250327   7.575   1.727   4.539  0.3056 -0.8122 -0.3203
15684SOL     OW50328   9.378   7.675   1.807 -0.1304 -0.1884 -0.2338
15684SOL    HW150329   9.442   7.643   1.744 -0.6828 -2.8606  0.4327
15684SOL    HW250330   9.406   7.638   1.891 -0.9181  1.0306  0.5990
15685SOL     OW50331   8.173   7.257   0.005  0.4270  0.0377  0.2484
15685SOL    HW150332   8.218   7.265  -0.080 -1.6341 -0.2505 -0.9279
15685SOL    HW250333   8.231   7.202   0.057  1.3832 -0.4216 -1.2379
15686SOL     OW50334   6.620   8.792   8.210 -0.3226  0.0275 -0.2815
15686SOL    HW150335   6.629   8.782   8.305  3.7527  0.1406 -0.4818
15686SOL    HW250336   6.589   8.707   8.180 -1.0275 -0.2259  1.0699
15687SOL     OW50337   1.146   2.474   3.454 -0.2220  0.3607  0.2339
15687SOL    HW150338   1.056   2.441   3.462 -0.0058 -0.1504  0.5819
15687SOL    HW250339   1.191   2.411   3.398  0.0013  0.4461  0.3154
15688SOL     OW50340   7.071  10.603   8.680  0.1562  0.0897  0.7829
15688SOL    HW150341   7.111  10.519   8.657 -0.4702  0.1351 -0.5774
15688SOL    HW250342   7.144  10.665   8.680  0.2972 -0.0552 -0.4431
15689SOL     OW50343   7.858   6.575  11.012  0.1505  0.0640  0.3929
15689SOL    HW150344   7.768   6.555  11.038 -0.0859 -0.7868 -0.9525
15689SOL    HW250345   7.897   6.490  10.993  0.7033  0.5372 -0.6810
15690SOL     OW50346   2.676   9.142   6.822 -0.7895 -0.0050  0.6873
15690SOL    HW150347   2.741   9.137   6.892  1.3826  2.4664 -0.9634
15690SOL    HW250348   2.720   9.108   6.744 -1.6175  1.2415 -0.3833
15691SOL     OW50349   3.809   9.309   5.072 -0.1000 -0.3844  0.0660
15691SOL    HW150350   3.891   9.297   5.120 -0.6387  1.2499  1.4884
15691SOL    HW250351   3.743   9.265   5.125 -0.6383  1.0985  0.6727
15692SOL     OW50352   3.485   0.834   0.832  0.3412 -0.4502  0.0482
15692SOL    HW150353   3.397   0.841   0.869 -0.1510 -1.4763 -0.8815
15692SOL    HW250354   3.489   0.746   0.794  1.3572  0.0005 -0.9564
15693SOL     OW50355   5.987  10.477  11.174  0.1669  0.0122  0.1175
15693SOL    HW150356   6.054  10.534  11.213  0.3259 -0.0372 -0.0810
15693SOL    HW250357   5.960  10.522  11.094  0.2090 -0.1338  0.0201
15694SOL     OW50358   1.787   9.192   2.637  0.0665 -0.0429  0.2071
15694SOL    HW150359   1.826   9.161   2.718 -0.2275 -1.0570 -0.0263
15694SOL    HW250360   1.752   9.279   2.658  0.8482  0.1073  0.8903
15695SOL     OW50361   9.674  10.066   8.184  0.4383  0.5656 -0.1207
15695SOL    HW150362   9.701  10.122   8.257  2.3233  1.7398 -1.5966
15695SOL    HW250363   9.594  10.023   8.214  1.9259 -0.1914  3.2098
15696SOL     OW50364  10.442   3.580   8.393  0.3771 -0.0868  0.1691
15696SOL    HW150365  10.441   3.513   8.462 -0.1797 -2.0582 -1.6272
15696SOL    HW250366  10.519   3.633   8.413 -0.1021 -0.1628  2.6266
15697SOL     OW50367   8.222   9.829   5.561 -0.7624 -0.5224  0.0194
15697SOL    HW150368   8.276   9.846   5.638 -0.6972  0.1955 -0.1794
15697SOL    HW250369   8.160   9.762   5.590  1.1085 -2.4602 -0.1515
15698SOL     OW50370   4.284   6.333   0.869  0.2655 -0.4559 -0.2843
15698SOL    HW150371   4.251   6.362   0.784 -1.1556 -0.5040  0.2154
15698SOL    HW250372   4.309   6.242   0.856 -1.3734 -0.9287 -0.3065
15699SOL     OW50373   8.409   4.381   0.553 -0.4314  0.3790 -0.1612
15699SOL    HW150374   8.357   4.410   0.478 -0.4829  0.0382 -0.2607
15699SOL    HW250375   8.485   4.339   0.514  0.2934  1.5302 -0.0128
15700SOL     OW50376   9.589   4.654  10.167 -0.0716  0.9020 -0.2126
15700SOL    HW150377   9.509   4.621  10.125 -0.3129  1.2098 -0.0087
15700SOL    HW250378   9.556   4.714  10.234  0.2075 -1.2274  1.9480
15701SOL     OW50379   6.391   2.473   0.071 -0.1377 -0.3504  0.3605
15701SOL    HW150380   6.320   2.441   0.014  0.5823 -1.7995  0.2181
15701SOL    HW250381   6.399   2.566   0.049 -0.5333 -0.6515 -1.2127
15702SOL     OW50382   3.996   9.806   3.143  0.2504  0.2102 -0.0980
15702SOL    HW150383   4.011   9.893   3.107 -0.2052  0.4338  0.2268
15702SOL    HW250384   4.007   9.746   3.069  0.0097  0.5957 -0.4496
15703SOL     OW50385   8.382  10.813   2.891  0.0767 -0.0470 -0.4163
15703SOL    HW150386   8.478  10.811   2.893  0.0981 -1.5907 -1.1522
15703SOL    HW250387   8.358  10.896   2.931  1.7098  0.0687  0.3710
15704SOL     OW50388   0.511   2.304   9.217 -0.4151  0.1072  0.1477
15704SOL    HW150389   0.452   2.283   9.289  0.3978 -0.4002  0.6824
15704SOL    HW250390   0.539   2.219   9.183  0.9458  0.3151  0.7001
15705SOL     OW50391   6.813   9.028   6.572 -0.0272  0.6503  0.4081
15705SOL    HW150392   6.766   9.106   6.602 -0.2310 -0.0399  1.9450
15705SOL    HW250393   6.897   9.061   6.541 -1.0058  1.7587 -1.2670
15706SOL     OW50394   6.386   9.498  10.986  0.0057  0.1934  0.2890
15706SOL    HW150395   6.319   9.558  10.954  0.5516  1.1257  0.8342
15706SOL    HW250396   6.336   9.425  11.023 -0.6886  0.5221  0.0298
15707SOL     OW50397   4.055   5.115   9.238 -0.1023  0.5979 -1.2314
15707SOL    HW150398   4.097   5.030   9.222  1.0843  0.9532 -0.1228
15707SOL    HW250399   4.023   5.142   9.151 -1.4678 -1.4429 -1.4315
15708SOL     OW50400   1.522   5.716   9.468 -0.2535  0.4219 -0.0746
15708SOL    HW150401   1.576   5.702   9.390 -1.3858 -2.0400 -0.5090
15708SOL    HW250402   1.501   5.810   9.466  1.9543  0.9617 -1.1933
15709SOL     OW50403   2.486   2.384   0.756  0.4589  0.2294  0.4952
15709SOL    HW150404   2.449   2.362   0.842  1.0859  0.5629  0.8575
15709SOL    HW250405   2.450   2.471   0.736 -2.0141 -1.0115 -0.9337
15710SOL     OW50406   3.586   2.323   7.024  0.2203  0.1178 -0.3650
15710SOL    HW150407   3.605   2.377   6.947  2.2646  0.8081  0.5694
15710SOL    HW250408   3.527   2.377   7.076 -0.8892 -0.2063 -1.2434
15711SOL     OW50409  10.385   4.981   0.940  0.0144  0.4043 -0.2451
15711SOL    HW150410  10.381   5.030   1.022  1.2480  0.9401 -0.4679
15711SOL    HW250411  10.466   4.931   0.946 -0.1120  0.1028 -0.9495
15712SOL     OW50412   9.217   9.667   2.525 -0.4226 -0.2856 -0.2091
15712SOL    HW150413   9.217   9.575   2.552  1.2639 -0.5440 -0.9550
15712SOL    HW250414   9.258   9.666   2.438  0.2554  1.2444  0.0632
15713SOL     OW50415   4.322   9.351   1.122  0.1736 -0.1174  0.6886
15713SOL    HW150416   4.239   9.375   1.163 -0.8424 -1.9636 -0.1800
15713SOL    HW250417   4.388   9.381   1.185 -0.9755  3.0934  0.5441
15714SOL     OW50418   3.659   6.479   3.931  0.1751 -0.1353 -0.3836
15714SOL    HW150419   3.644   6.477   4.026  0.6729  1.3237 -0.2587
15714SOL    HW250420   3.696   6.392   3.912 -1.1516 -0.9395  0.5213
15715SOL     OW50421   5.017   7.338   4.546 -0.4019  0.0716 -0.1743
15715SOL    HW150422   4.985   7.253   4.576  0.8308 -1.2345 -2.3090
15715SOL    HW250423   5.084   7.317   4.482 -0.3662  2.6799 -1.1071
15716SOL     OW50424   8.666  10.512   0.735 -0.2374  0.7659 -0.3367
15716SOL    HW150425   8.653  10.447   0.667 -1.6349  0.5078  0.1443
15716SOL    HW250426   8.758  10.537   0.728  0.0542 -0.4906 -1.2021
15717SOL     OW50427   9.049   8.678   1.899 -0.3390 -0.2353 -0.6571
15717SOL    HW150428   9.004   8.723   1.827  0.7918 -0.7658 -1.7237
15717SOL    HW250429   9.136   8.658   1.865  1.2358  1.8355  1.7268
15718SOL     OW50430   1.036   7.325   0.809  0.7539  0.7565 -0.2440
15718SOL    HW150431   1.001   7.238   0.830  1.2203  0.5937 -0.1182
15718SOL    HW250432   1.120   7.307   0.767  1.5485  1.1638  1.1027
15719SOL     OW50433   7.502   0.878   6.216  0.1678  0.7550  0.5672
15719SOL    HW150434   7.578   0.838   6.175 -1.2939  0.2267 -1.8394
15719SOL    HW250435   7.526   0.970   6.228  0.7405  0.8893 -1.3740
15720SOL     OW50436   6.787   0.828   3.112 -0.2464  0.2796 -0.2696
15720SOL    HW150437   6.803   0.734   3.119  0.3874  0.5270  2.4021
15720SOL    HW250438   6.702   0.842   3.155  0.3898  1.1079  0.7530
15721SOL     OW50439   4.166   3.244   7.677  0.2773  0.2017  0.8682
15721SOL    HW150440   4.169   3.302   7.602 -1.2600 -1.0873 -0.2576
15721SOL    HW250441   4.130   3.162   7.643 -2.2057  0.1239  3.3212
15722SOL     OW50442   9.948   1.984   8.102 -0.0683 -0.2228 -0.1831
15722SOL    HW150443   9.881   1.926   8.140 -0.2208  1.2990  2.0590
15722SOL    HW250444   9.900   2.043   8.045 -0.0895 -1.4069 -1.4391
15723SOL     OW50445   6.354   8.756   3.066 -0.0192 -0.6184  0.2714
15723SOL    HW150446   6.353   8.821   3.136  0.1552  0.4819 -0.7314
15723SOL    HW250447   6.442   8.718   3.069  0.0940 -0.3421  0.4319
15724SOL     OW50448   3.291   7.790   6.193  0.8105 -0.5311  0.2634
15724SOL    HW150449   3.287   7.723   6.261  2.6241 -0.0706  0.8714
15724SOL    HW250450   3.245   7.751   6.119  2.1025 -2.6150  0.4759
15725SOL     OW50451  10.407   5.706   3.235 -0.0706  0.5326 -0.2075
15725SOL    HW150452  10.463   5.783   3.228 -1.1770  1.4330  0.5261
15725SOL    HW250453  10.349   5.711   3.159  0.0276  0.2748 -0.3013
15726SOL     OW50454   6.182  10.911   6.820 -0.1250  0.0330  0.0633
15726SOL    HW150455   6.090  10.890   6.805  0.1790 -0.7784 -0.7385
15726SOL    HW250456   6.231  10.842   6.774  0.8856  0.6210  0.2163
15727SOL     OW50457   6.738  10.272   6.467 -0.4684  0.4786 -0.0248
15727SOL    HW150458   6.665  10.270   6.529  0.0943  2.6945  0.8036
15727SOL    HW250459   6.697  10.272   6.381 -1.6040  3.2358  0.4194
15728SOL     OW50460  11.349   7.582   9.913  0.3658 -0.0293  0.2475
15728SOL    HW150461  11.412   7.631   9.859  2.0650 -0.9802  1.2817
15728SOL    HW250462  11.387   7.582  10.001  0.3785 -2.9833  0.3473
15729SOL     OW50463   3.541  10.102   8.566  1.0416 -0.6064 -1.0129
15729SOL    HW150464   3.618  10.098   8.510  1.8581 -0.0800  0.0342
15729SOL    HW250465   3.563  10.167   8.633  0.9575 -2.6859  1.1498
15730SOL     OW50466   5.860   8.470  11.158 -0.2644 -0.0114 -0.1107
15730SOL    HW150467   5.862   8.474  11.063  0.2521 -1.0661 -0.1627
15730SOL    HW250468   5.898   8.553  11.187  0.1922  0.0370 -0.8280
15731SOL     OW50469   4.649   4.887   3.780  0.4766  0.2249 -0.4050
15731SOL    HW150470   4.653   4.925   3.692 -2.0588 -0.4733 -0.8875
15731SOL    HW250471   4.725   4.829   3.785 -1.8054 -3.5969 -4.1197
15732SOL     OW50472   6.213   8.211   9.701 -0.7666 -0.0404  0.0542
15732SOL    HW150473   6.293   8.226   9.651  0.8855 -0.0836  2.5119
15732SOL    HW250474   6.164   8.293   9.694 -0.1580  0.2638 -0.8582
15733SOL     OW50475   0.684   4.117   8.442  0.1307  0.6912  0.5515
15733SOL    HW150476   0.719   4.142   8.356  0.5693  0.1489  0.5710
15733SOL    HW250477   0.599   4.161   8.446 -0.1803  0.2025 -0.4258
15734SOL     OW50478   8.600   8.509  10.836 -0.3378 -0.0064 -0.4398
15734SOL    HW150479   8.593   8.600  10.867 -2.4286 -0.3370  0.1657
15734SOL    HW250480   8.561   8.456  10.905 -0.4018 -1.2476 -1.3895
15735SOL     OW50481  11.037   2.239   1.082 -0.4617 -0.4445  1.0516
15735SOL    HW150482  11.101   2.187   1.130  0.4354  0.6596  1.0798
15735SOL    HW250483  11.088   2.303   1.033 -1.4259 -0.8546 -0.5713
15736SOL     OW50484   8.257   1.264   3.507 -0.7091  0.1401  0.4498
15736SOL    HW150485   8.270   1.223   3.422 -0.8610  2.8707 -1.0222
15736SOL    HW250486   8.166   1.296   3.504  0.4801  4.0503 -0.3222
15737SOL     OW50487   2.397   6.280   0.886  0.5872  0.6328 -0.0830
15737SOL    HW150488   2.366   6.295   0.796  0.7336 -1.0013 -0.4448
15737SOL    HW250489   2.399   6.367   0.926 -1.0144  1.2098 -1.1635
15738SOL     OW50490   9.791   0.597  10.360 -0.2189 -0.5643 -0.6169
15738SOL    HW150491   9.743   0.679  10.369  1.4716  0.2646  3.0166
15738SOL    HW250492   9.841   0.606  10.279 -1.2554  1.3077 -1.0925
15739SOL     OW50493   1.639   1.443   1.615  0.0420 -0.4876 -0.4728
15739SOL    HW150494   1.654   1.350   1.596  4.2548  0.2085 -1.8025
15739SOL    HW250495   1.666   1.488   1.534 -0.6646  1.9515  0.5637
15740SOL     OW50496   6.494   6.891   9.683  0.4583 -0.0456 -0.5967
15740SOL    HW150497   6.589   6.886   9.669  0.8218  0.0469  1.4979
15740SOL    HW250498   6.475   6.817   9.741 -0.7280  0.0737 -0.8166
15741SOL     OW50499   5.327   5.879  10.456 -0.8563 -0.3265 -0.7529
15741SOL    HW150500   5.388   5.942  10.495  0.4292 -1.7236 -0.4284
15741SOL    HW250501   5.274   5.848  10.529  0.0127 -1.2576 -0.5126
15742SOL     OW50502   2.958   4.779   7.802 -0.6102 -0.3745  0.2608
15742SOL    HW150503   2.933   4.871   7.789 -1.8519 -0.2673  2.8082
15742SOL    HW250504   2.934   4.736   7.720 -1.9705  1.2000 -0.2291
15743SOL     OW50505   3.411   6.286   1.529 -0.1640  0.0085  0.1414
15743SOL    HW150506   3.403   6.364   1.583  0.3388 -0.5980  1.1228
15743SOL    HW250507   3.363   6.218   1.577 -1.7160 -0.0050 -1.3365
15744SOL     OW50508   9.112   2.190   6.785 -0.2035 -0.6527  0.1961
15744SOL    HW150509   9.062   2.109   6.781 -2.6515  0.6959  1.2300
15744SOL    HW250510   9.048   2.257   6.810  1.7145  1.6052 -0.4997
15745SOL     OW50511   4.593   7.461   9.574  0.0114  0.0234  0.6782
15745SOL    HW150512   4.521   7.418   9.620 -1.4977  1.7133  0.0236
15745SOL    HW250513   4.624   7.396   9.511 -2.2350 -0.1820 -0.3285
15746SOL     OW50514   9.155   5.118   5.434  0.5186 -0.0968  0.1501
15746SOL    HW150515   9.104   5.069   5.369 -1.5535  1.9840  0.0820
15746SOL    HW250516   9.110   5.103   5.517  0.6967  0.5369  0.3685
15747SOL     OW50517   0.479   9.688   3.832  0.1567  0.3591 -0.0816
15747SOL    HW150518   0.454   9.746   3.761  1.9352  0.9166 -0.2856
15747SOL    HW250519   0.405   9.692   3.893 -0.1375  2.1383 -0.5071
15748SOL     OW50520   5.376   8.764   3.838  0.0578 -0.1587 -0.3560
15748SOL    HW150521   5.403   8.828   3.773 -1.1400  0.7868  0.0471
15748SOL    HW250522   5.396   8.806   3.922  1.5505 -1.3413 -0.0599
15749SOL     OW50523   9.790   8.452   7.442 -0.1581  0.4163  0.6119
15749SOL    HW150524   9.823   8.500   7.366 -0.4144  2.0802  1.5120
15749SOL    HW250525   9.697   8.474   7.446 -0.4293 -0.6884  0.6714
15750SOL     OW50526   5.169   1.723   4.893 -0.0615  0.4775 -0.1779
15750SOL    HW150527   5.245   1.700   4.946 -0.3445  1.9315  0.8909
15750SOL    HW250528   5.194   1.803   4.847 -1.0928  1.2357  0.5420
15751SOL     OW50529   0.686   0.589  10.912  0.1230  0.0252  0.1239
15751SOL    HW150530   0.678   0.511  10.967  2.3685 -0.2549  0.1179
15751SOL    HW250531   0.770   0.580  10.867 -1.2767  0.5693 -2.9081
15752SOL     OW50532   4.117   2.727  10.614 -0.3775 -0.2962 -1.1399
15752SOL    HW150533   4.100   2.633  10.609  0.2715 -0.3593 -2.8798
15752SOL    HW250534   4.207   2.734  10.645 -0.1594 -0.2823 -1.7656
15753SOL     OW50535   2.174   8.170   5.502  0.2180  0.3163  0.0946
15753SOL    HW150536   2.216   8.245   5.461  0.7184  0.2707  0.5213
15753SOL    HW250537   2.168   8.193   5.595  0.6789 -0.2990  0.2884
15754SOL     OW50538   7.242   2.028   4.216  0.2051  0.6407 -0.5195
15754SOL    HW150539   7.282   2.056   4.298  1.6306  0.5728 -1.1676
15754SOL    HW250540   7.223   1.935   4.230  1.1483  0.4376 -0.5109
15755SOL     OW50541   2.490   4.114   1.180  0.1426 -0.1819 -0.3510
15755SOL    HW150542   2.554   4.114   1.252  0.5476 -0.4243 -0.7073
15755SOL    HW250543   2.409   4.082   1.220  0.6445 -1.3734 -0.2397
15756SOL     OW50544   4.887   4.458   0.070 -0.1400  0.0578 -0.1406
15756SOL    HW150545   4.951   4.494   0.008  1.2338 -0.0731  1.1647
15756SOL    HW250546   4.854   4.534   0.118  2.1565 -0.2230  2.0471
15757SOL     OW50547   4.227   2.119  10.120 -0.2487 -0.0771  0.0549
15757SOL    HW150548   4.250   2.142  10.030  0.1313 -1.5986 -0.2734
15757SOL    HW250549   4.161   2.051  10.111 -0.2158 -0.2356  0.9330
15758SOL     OW50550   9.016   3.702   5.653 -0.3331  0.5439 -0.2074
15758SOL    HW150551   8.990   3.770   5.715  0.8969  1.4220 -0.6294
15758SOL    HW250552   8.938   3.647   5.645 -0.4060  0.1275  2.4368
15759SOL     OW50553   2.152   5.786   7.368  0.8470 -0.1091 -0.2070
15759SOL    HW150554   2.186   5.706   7.328  0.3637 -0.3058 -0.2362
15759SOL    HW250555   2.220   5.851   7.353 -0.3144  0.5378 -3.6811
15760SOL     OW50556   0.607   7.260   4.164  0.3602  0.5038  0.1071
15760SOL    HW150557   0.518   7.237   4.188  0.3733  0.6616  0.3076
15760SOL    HW250558   0.652   7.176   4.154  0.6541  0.4275  1.7608
15761SOL     OW50559   6.918   4.865   9.757  0.4904  0.0233 -0.0896
15761SOL    HW150560   6.979   4.819   9.814  0.6005  0.0759 -0.1659
15761SOL    HW250561   6.876   4.931   9.813 -0.0175 -0.4861  0.1389
15762SOL     OW50562   9.985   2.360   4.021  0.1477 -0.4813  0.1211
15762SOL    HW150563   9.960   2.352   4.113 -0.3056 -0.2052  0.0244
15762SOL    HW250564  10.014   2.451   4.012 -1.7817  0.1246 -0.4692
15763SOL     OW50565   9.977   6.471   5.064  0.2905 -0.4561  0.6017
15763SOL    HW150566   9.947   6.395   5.014  1.8954 -0.8903  0.2219
15763SOL    HW250567  10.041   6.434   5.126  0.1780  0.4250  1.2563
15764SOL     OW50568   6.273   7.974  10.627 -0.0743  0.0600 -0.3901
15764SOL    HW150569   6.342   8.035  10.603 -1.0660  1.0002 -0.9134
15764SOL    HW250570   6.282   7.964  10.722  1.2808 -0.4881 -0.5495
15765SOL     OW50571   9.587  11.365   0.915  0.5446  0.1187 -0.0290
15765SOL    HW150572   9.622  11.444   0.872  1.8544 -0.2546  0.3016
15765SOL    HW250573   9.605  11.295   0.853 -1.8322  0.2249 -0.9244
15766SOL     OW50574   4.287   1.252   1.015  0.2688 -0.6556  0.0214
15766SOL    HW150575   4.272   1.208   1.099  2.7441  0.6724  1.3066
15766SOL    HW250576   4.382   1.265   1.012  0.2793 -0.7481 -3.0910
15767SOL     OW50577   4.341   7.126  11.075 -0.0615 -0.3105 -0.0189
15767SOL    HW150578   4.344   7.074  11.155  1.7847 -0.3559 -0.0759
15767SOL    HW250579   4.429   7.119  11.038 -1.1359 -1.2312 -2.6735
15768SOL     OW50580   8.008   3.009  10.099 -0.1491 -0.1884 -0.8686
15768SOL    HW150581   7.961   2.980  10.177 -0.6589  3.7291  0.5500
15768SOL    HW250582   8.099   3.018  10.128 -0.4119  1.6713 -0.4972
15769SOL     OW50583   8.862   8.798   5.066 -0.1187  0.4341  0.4669
15769SOL    HW150584   8.944   8.748   5.068  1.1255  2.4152  1.4045
15769SOL    HW250585   8.881   8.872   5.009 -0.5904  1.9652  2.2373
15770SOL     OW50586   5.042   2.451  10.951  0.1426 -0.6176  0.2234
15770SOL    HW150587   5.005   2.398  10.880 -1.7006 -1.3094  1.6044
15770SOL    HW250588   5.135   2.457  10.931 -0.2748 -1.0435 -2.0699
15771SOL     OW50589   9.429   4.743   0.413 -0.4618  0.0236 -0.1352
15771SOL    HW150590   9.368   4.816   0.406 -0.5180  0.0648  0.6598
15771SOL    HW250591   9.502   4.766   0.355 -1.2741 -0.1137 -1.2377
15772SOL     OW50592   1.492   1.066   3.521  0.2232 -0.3806  0.1416
15772SOL    HW150593   1.441   0.987   3.538  0.9181 -1.0359 -0.7836
15772SOL    HW250594   1.426   1.133   3.501 -0.4662 -0.2948  2.4390
15773SOL     OW50595   3.591   1.914   1.766 -0.0462 -0.1896 -0.0738
15773SOL    HW150596   3.521   1.915   1.701 -0.6414  1.7187  0.5443
15773SOL    HW250597   3.671   1.925   1.714 -0.4986  1.1414 -0.5216
15774SOL     OW50598   2.110   9.766   8.950  0.1429  0.1013  0.2131
15774SOL    HW150599   2.112   9.861   8.934 -0.8547  0.2098  0.6385
15774SOL    HW250600   2.136   9.728   8.866  0.8736  0.7497  0.1320
15775SOL     OW50601   3.530  10.414   4.331 -0.3016 -0.8141  0.1613
15775SOL    HW150602   3.510  10.356   4.257  2.0128 -2.0709  0.4139
15775SOL    HW250603   3.455  10.405   4.390 -2.9308  1.3385 -2.5495
15776SOL     OW50604   7.859   5.642   9.842 -0.9788 -0.5822 -0.0675
15776SOL    HW150605   7.906   5.720   9.813  0.4272 -1.4316 -0.1742
15776SOL    HW250606   7.912   5.608   9.914 -0.3912 -2.6006 -1.3934
15777SOL     OW50607   4.979   3.661   2.483 -0.0663  0.3313 -0.4934
15777SOL    HW150608   4.904   3.652   2.424 -2.2345 -3.4402  2.3343
15777SOL    HW250609   4.950   3.722   2.550  1.2823  2.3654 -1.6604
15778SOL     OW50610   6.282   2.995   4.902 -0.2463  0.5305  0.0373
15778SOL    HW150611   6.335   3.065   4.864 -0.2700  1.4700  1.6598
15778SOL    HW250612   6.219   3.040   4.958 -2.2786 -0.6159 -1.1950
15779SOL     OW50613   0.588  10.775   3.024 -0.2152 -0.4053 -0.2998
15779SOL    HW150614   0.637  10.806   3.100 -1.0124  0.2639 -0.0421
15779SOL    HW250615   0.630  10.692   3.000  1.1488  0.2504 -0.2169
15780SOL     OW50616   7.936   4.817   8.137 -0.1751 -0.2111  0.2691
15780SOL    HW150617   7.978   4.902   8.121 -1.8118  0.6547  0.3724
15780SOL    HW250618   7.998   4.770   8.193  0.5564  1.1025  0.6048
15781SOL     OW50619   4.792  11.291   8.320 -0.0608  0.2412  0.0415
15781SOL    HW150620   4.718  11.235   8.341  0.3304 -0.7376 -1.0939
15781SOL    HW250621   4.848  11.287   8.398 -0.3104 -0.5028  0.1893
15782SOL     OW50622   8.130  10.840   3.264  0.1118 -0.4194 -0.3383
15782SOL    HW150623   8.088  10.840   3.178 -0.3311  1.7046 -0.1733
15782SOL    HW250624   8.123  10.930   3.294 -0.4239 -1.2311  2.2642
15783SOL     OW50625   6.170   5.637   4.072 -0.2203  0.0031 -0.1854
15783SOL    HW150626   6.089   5.687   4.063 -0.5731 -0.5552 -0.1256
15783SOL    HW250627   6.169   5.606   4.163 -0.1281 -0.3309 -0.2986
15784SOL     OW50628   9.048   7.951   6.056 -0.2366 -0.0772  0.0308
15784SOL    HW150629   9.014   7.926   5.970  0.0299 -2.4677  0.5726
15784SOL    HW250630   9.093   7.873   6.089  3.2174  1.9377  0.6523
15785SOL     OW50631   8.448   4.859  10.265 -0.1197  0.1604 -0.3731
15785SOL    HW150632   8.536   4.839  10.234 -0.0944 -3.0755  1.3984
15785SOL    HW250633   8.391   4.834  10.193  0.2774  0.5595 -0.8416
15786SOL     OW50634   8.486   4.674   8.596  0.1535 -0.0165  0.0847
15786SOL    HW150635   8.566   4.720   8.571  0.5803  1.0223  3.0212
15786SOL    HW250636   8.442   4.733   8.657 -0.9183 -2.1465  1.5041
15787SOL     OW50637   6.407   1.077   7.453  0.0929 -0.0653  0.1569
15787SOL    HW150638   6.420   1.171   7.440  0.3031 -0.2751 -1.2491
15787SOL    HW250639   6.334   1.054   7.395  1.1760 -1.0705 -0.8589
15788SOL     OW50640   2.511   3.623   0.009  0.3811 -0.3569 -0.8201
15788SOL    HW150641   2.538   3.714   0.022  1.2892 -0.7203 -0.0051
15788SOL    HW250642   2.416   3.625   0.016  0.5244  0.0648  2.6279
15789SOL     OW50643   9.432   1.952   4.973  0.4107  0.2247  0.1266
15789SOL    HW150644   9.396   1.964   5.061 -2.2789  0.7228 -0.9394
15789SOL    HW250645   9.447   2.041   4.941  1.4563  0.0466  0.0797
15790SOL     OW50646  10.510   0.374   7.383 -0.4184  0.9154 -0.1529
15790SOL    HW150647  10.433   0.413   7.424  0.0685 -0.5617  2.3864
15790SOL    HW250648  10.563   0.343   7.456  1.4018 -0.3421 -1.8911
15791SOL     OW50649  10.308   3.431  10.844 -0.3838  0.0479 -0.0531
15791SOL    HW150650  10.349   3.351  10.810 -1.5347 -0.7309  0.3100
15791SOL    HW250651  10.250   3.460  10.774  0.8812  1.2475 -0.6376
15792SOL     OW50652   5.299   9.922   7.899  0.3204 -0.5264 -0.2216
15792SOL    HW150653   5.240   9.908   7.973  0.4699  2.0618  0.4840
15792SOL    HW250654   5.342   9.838   7.886 -0.2640 -1.2537  2.1436
15793SOL     OW50655   8.800   6.075   6.408  1.0098  0.1808  0.2945
15793SOL    HW150656   8.845   6.144   6.359  0.1196  0.4394 -0.1923
15793SOL    HW250657   8.865   6.005   6.417  0.9689 -0.2247 -1.9931
15794SOL     OW50658   8.872   3.370   4.959  0.3290  0.0534  0.5324
15794SOL    HW150659   8.915   3.453   4.979  0.9280 -0.3483  0.9436
15794SOL    HW250660   8.879   3.319   5.039  0.4704 -0.6070  0.1114
15795SOL     OW50661   7.467   6.072   3.468 -0.3225  0.0362 -0.4915
15795SOL    HW150662   7.513   6.018   3.532  2.4167  0.7113 -1.7273
15795SOL    HW250663   7.433   6.010   3.404  2.2961 -0.3875 -1.5930
15796SOL     OW50664   4.494   2.100   4.922  0.1204 -0.7313  0.0879
15796SOL    HW150665   4.583   2.125   4.898 -0.2662  0.0884 -0.5577
15796SOL    HW250666   4.456   2.179   4.961 -0.7435 -0.6380 -0.8783
15797SOL     OW50667  11.001   4.056  10.084  0.1752  0.5329 -0.0199
15797SOL    HW150668  10.997   4.134  10.028 -0.2343  0.7001  0.2387
15797SOL    HW250669  10.943   4.076  10.157  2.0000  1.0121  1.3470
15798SOL     OW50670   0.947   8.293   3.826 -0.7046  0.2479  0.3391
15798SOL    HW150671   0.863   8.338   3.818 -0.5413  0.5614  0.3924
15798SOL    HW250672   1.011   8.363   3.837 -0.3177  0.0672 -0.6264
15799SOL     OW50673   4.239   7.840   9.794 -0.4088 -0.0424 -0.0140
15799SOL    HW150674   4.326   7.810   9.769 -0.1164  0.9674 -0.2446
15799SOL    HW250675   4.222   7.797   9.877  0.0208 -0.7821 -0.2991
15800SOL     OW50676   4.381   1.573   3.333  0.3552 -0.0558  0.3334
15800SOL    HW150677   4.459   1.598   3.283 -0.3796  0.9762 -0.3224
15800SOL    HW250678   4.354   1.490   3.294  0.2711  0.3280 -0.4522
15801SOL     OW50679   9.392  11.150   2.068 -0.3357 -0.1083  0.0863
15801SOL    HW150680   9.308  11.132   2.024  0.7445  1.3110 -2.8551
15801SOL    HW250681   9.369  11.206   2.142 -1.9713  0.7550 -1.0089
15802SOL     OW50682   8.475   5.287   5.993  0.5504  0.3888  0.2790
15802SOL    HW150683   8.399   5.235   6.017  1.9251 -2.1223 -0.4169
15802SOL    HW250684   8.531   5.285   6.070  1.8848 -1.7487 -0.6605
15803SOL     OW50685   0.678   9.814  10.000 -0.2754 -0.6265 -0.5595
15803SOL    HW150686   0.770   9.809   9.974 -0.3248 -2.0262 -0.5521
15803SOL    HW250687   0.653   9.723  10.017 -0.9883 -0.0516  1.8419
15804SOL     OW50688   0.010   7.753  11.245  0.6575 -0.1856  0.1639
15804SOL    HW150689  -0.066   7.771  11.190  1.1030  1.4463  0.0272
15804SOL    HW250690  -0.006   7.665  11.280 -2.1551  0.7553  1.5343
15805SOL     OW50691   1.438   8.305   5.011  0.1105 -0.1006 -0.9324
15805SOL    HW150692   1.386   8.371   4.964  0.6312 -0.5104 -2.1323
15805SOL    HW250693   1.510   8.355   5.050  0.2073  0.1338 -1.3941
15806SOL     OW50694   5.298   3.314   5.914  0.0543 -0.2329  0.7286
15806SOL    HW150695   5.306   3.219   5.909  2.3939 -0.0175 -1.8630
15806SOL    HW250696   5.378   3.343   5.957 -1.0760  0.5772  2.3882
15807SOL     OW50697   4.581   3.874   9.971  0.4502  0.1527 -0.0479
15807SOL    HW150698   4.587   3.897  10.064 -1.3408  0.5333  0.0019
15807SOL    HW250699   4.501   3.823   9.964  1.7412 -1.8455 -1.0382
15808SOL     OW50700   9.287   8.690   0.933  0.1742  0.3886  0.0244
15808SOL    HW150701   9.276   8.769   0.881  3.6118  0.1957 -1.2060
15808SOL    HW250702   9.217   8.632   0.903 -1.2949  2.2259 -0.3377
15809SOL     OW50703   0.264   2.203  10.663 -0.0364  0.6626 -0.1083
15809SOL    HW150704   0.278   2.109  10.653 -0.8899  0.6586 -1.6093
15809SOL    HW250705   0.352   2.240  10.663  0.2990 -0.1025  0.2007
15810SOL     OW50706   7.091   2.608   8.353 -0.0630 -0.4972 -0.0141
15810SOL    HW150707   7.069   2.672   8.421 -1.2547  0.1992 -1.0199
15810SOL    HW250708   7.185   2.618   8.340 -0.0266  0.1805  0.7000
15811SOL     OW50709  10.225   0.443   0.623 -0.5707 -0.2464 -0.0749
15811SOL    HW150710  10.226   0.468   0.531 -0.7025  0.9426  0.2319
15811SOL    HW250711  10.287   0.503   0.665 -1.5645  0.1746  0.8365
15812SOL     OW50712   5.528   5.182   1.612 -0.2740  0.2591  0.4487
15812SOL    HW150713   5.577   5.113   1.568  1.4084  1.3618  0.5015
15812SOL    HW250714   5.501   5.241   1.541 -0.1498  0.4898  0.5940
15813SOL     OW50715   8.088   0.495   7.875 -0.5865  0.9159  0.6535
15813SOL    HW150716   8.039   0.415   7.895 -1.7025  1.6655  1.0058
15813SOL    HW250717   8.175   0.478   7.909 -0.2385 -0.8737 -0.9203
15814SOL     OW50718   6.205   4.017  10.624  0.4711 -0.6106 -0.0871
15814SOL    HW150719   6.287   4.065  10.630  1.4066 -2.3170  2.2692
15814SOL    HW250720   6.212   3.967  10.544 -0.0839  2.2070 -2.0485
15815SOL     OW50721   0.331   5.078   1.672  0.0750  0.0066  0.3454
15815SOL    HW150722   0.304   5.139   1.603  0.0865  0.4978  0.7665
15815SOL    HW250723   0.316   5.127   1.754 -1.8907 -1.2802  0.8197
15816SOL     OW50724  10.318   3.008   4.208  0.2709 -0.2435 -0.0944
15816SOL    HW150725  10.294   2.917   4.227 -2.8551  0.4513 -0.2850
15816SOL    HW250726  10.309   3.053   4.292  0.6584  0.1428 -0.2554
15817SOL     OW50727   1.381   9.333   6.329  0.2607  0.4146 -0.7968
15817SOL    HW150728   1.408   9.393   6.398 -0.2614 -2.1993  1.9068
15817SOL    HW250729   1.300   9.369   6.296 -0.7925  0.5910  1.7396
15818SOL     OW50730   7.798   2.565   9.132 -0.6258  0.4871 -0.5773
15818SOL    HW150731   7.768   2.528   9.049  3.1981  0.0339 -1.9806
15818SOL    HW250732   7.809   2.658   9.113  1.6577  0.1589 -1.1992
15819SOL     OW50733  10.166   3.353   9.610  0.5613  0.5057 -0.3897
15819SOL    HW150734  10.169   3.289   9.539  2.1892 -0.8245  0.7973
15819SOL    HW250735  10.147   3.436   9.566 -1.5747 -0.7210 -1.9927
15820SOL     OW50736   6.900   1.390   5.105 -0.0196  0.4686 -0.4289
15820SOL    HW150737   6.948   1.454   5.158  0.2958 -0.1704  0.0558
15820SOL    HW250738   6.855   1.335   5.168  1.5627 -1.2684 -0.7213
15821SOL     OW50739   2.923   6.923   7.354  0.3445 -0.5690 -0.3592
15821SOL    HW150740   2.894   6.872   7.430  0.2340 -1.6307 -1.0852
15821SOL    HW250741   2.963   6.858   7.296  0.2024  0.1801 -1.3180
15822SOL     OW50742   3.611   8.716   3.625 -0.1930  0.2256 -0.2963
15822SOL    HW150743   3.647   8.627   3.625  1.8473  0.9821 -0.0493
15822SOL    HW250744   3.665   8.763   3.688  1.1457  2.4865 -2.8967
15823SOL     OW50745   7.286   9.703   2.032 -0.6713 -0.5039  0.0673
15823SOL    HW150746   7.214   9.667   2.083 -0.2801  0.0197  1.0085
15823SOL    HW250747   7.338   9.627   2.007 -1.7620 -0.9415 -1.0091
15824SOL     OW50748   0.710   4.343   1.951 -0.1622  0.9381 -0.1658
15824SOL    HW150749   0.688   4.275   2.014  2.0469 -0.2811 -0.6012
15824SOL    HW250750   0.703   4.425   2.001  1.4230  0.0204  1.7183
15825SOL     OW50751   7.209   4.374   3.070  0.3720  0.0975 -0.4497
15825SOL    HW150752   7.150   4.363   2.995  0.8010 -0.2328 -0.7459
15825SOL    HW250753   7.292   4.335   3.041  0.3284 -0.7198  0.4671
15826SOL     OW50754   9.600   7.899  11.250 -0.5113 -0.1676 -0.5959
15826SOL    HW150755   9.680   7.950  11.258 -1.0177  0.3784  1.8182
15826SOL    HW250756   9.554   7.937  11.175  0.0504  1.6505 -0.0642
15827SOL     OW50757   1.352  10.121   0.577  0.0737 -0.0882  0.1772
15827SOL    HW150758   1.281  10.064   0.548  0.5303 -0.9136  0.6414
15827SOL    HW250759   1.354  10.110   0.672  1.3376 -0.7261  0.1042
15828SOL     OW50760   2.670   0.174   9.964 -0.2555  0.5258  0.1992
15828SOL    HW150761   2.698   0.084   9.951  0.3662  0.7417  0.0314
15828SOL    HW250762   2.575   0.168   9.975 -0.0591 -0.3021  1.6856
15829SOL     OW50763   9.894   6.815   7.560 -0.5446 -0.1845  0.4062
15829SOL    HW150764   9.980   6.856   7.554  0.7521 -2.7728 -0.0809
15829SOL    HW250765   9.845   6.850   7.486  0.8063 -0.1693 -0.5197
15830SOL     OW50766   0.986   2.611  10.800 -0.0968  0.5600  0.3755
15830SOL    HW150767   1.025   2.527  10.824 -0.4614  0.1983 -0.2702
15830SOL    HW250768   0.899   2.589  10.767 -0.7051  1.3162  1.4007
15831SOL     OW50769   7.454   2.408   8.201  0.4802  0.0506 -0.0590
15831SOL    HW150770   7.414   2.436   8.118  0.6876 -0.3592 -0.2983
15831SOL    HW250771   7.437   2.480   8.261 -2.0966 -0.7986  0.3287
15832SOL     OW50772   8.025   7.469   8.245 -0.5828 -0.0955 -0.2699
15832SOL    HW150773   7.983   7.522   8.177 -1.1937 -2.1394 -1.5995
15832SOL    HW250774   7.968   7.392   8.254  1.0136 -1.2569  0.4725
15833SOL     OW50775  10.103   9.455   1.715  0.0401 -0.3315  0.4822
15833SOL    HW150776  10.072   9.545   1.721 -0.7156 -0.5466 -0.1154
15833SOL    HW250777  10.057   9.408   1.784  1.0900 -0.0960  1.3747
15834SOL     OW50778   2.880   8.858   7.927 -0.6028  0.3206 -0.7944
15834SOL    HW150779   2.922   8.944   7.927  0.7306 -0.2894  0.4408
15834SOL    HW250780   2.948   8.798   7.955 -2.2810 -0.7180  1.3985
15835SOL     OW50781   2.072   0.735  11.142 -0.6764  0.0907  0.3332
15835SOL    HW150782   2.125   0.671  11.190 -1.2858  0.3932  1.4552
15835SOL    HW250783   2.129   0.811  11.133  0.3692 -0.8584 -1.7875
15836SOL     OW50784   4.387   5.747   5.608  0.1037  0.3661  0.2860
15836SOL    HW150785   4.462   5.750   5.667  0.7649 -1.3335 -0.4153
15836SOL    HW250786   4.421   5.776   5.524 -0.0605 -0.2047  0.0157
15837SOL     OW50787   1.711  11.014   5.396 -0.2955  0.4025 -0.6405
15837SOL    HW150788   1.652  11.088   5.387 -1.4342 -0.2953  0.7911
15837SOL    HW250789   1.701  10.985   5.486 -0.5826 -2.0467 -1.3797
15838SOL     OW50790   9.822   7.022   7.179 -0.3674  0.2687  0.0427
15838SOL    HW150791   9.762   6.981   7.116  0.8017 -1.3778 -0.0442
15838SOL    HW250792   9.804   6.978   7.262  1.1777 -0.7784 -0.1363
15839SOL     OW50793   4.890   5.272   5.127  0.5781 -0.5029 -0.1859
15839SOL    HW150794   4.904   5.366   5.116 -0.1917 -0.3697 -0.1231
15839SOL    HW250795   4.813   5.266   5.183  1.0720 -1.1778  0.4269
15840SOL     OW50796   2.659   6.121   3.069 -0.1968 -0.1185  0.0259
15840SOL    HW150797   2.687   6.041   3.024 -0.2289  0.5495 -1.2190
15840SOL    HW250798   2.731   6.183   3.056 -0.1967  0.0916  0.9297
15841SOL     OW50799   4.224   9.507   7.029  0.0568 -0.0052  0.0793
15841SOL    HW150800   4.282   9.473   7.097  0.1845 -0.2805 -0.1610
15841SOL    HW250801   4.252   9.598   7.016  3.2026 -1.1614 -2.8080
15842SOL     OW50802   2.818   1.972   2.442 -0.0121  0.3685 -0.5863
15842SOL    HW150803   2.829   2.051   2.495  1.3679  1.4437 -2.3671
15842SOL    HW250804   2.833   2.000   2.352 -1.2260 -1.5988 -1.4895
15843SOL     OW50805   2.021   6.143   6.794 -0.4624 -0.0048  0.0024
15843SOL    HW150806   2.067   6.128   6.711 -0.7632 -0.7199 -0.0398
15843SOL    HW250807   1.945   6.085   6.790  0.4033 -1.3120  1.4815
15844SOL     OW50808   8.944   3.905   5.837 -0.4112 -0.0269  0.5544
15844SOL    HW150809   8.965   3.998   5.847  0.7877 -0.1788 -0.2656
15844SOL    HW250810   8.989   3.862   5.910  0.7034 -0.1544 -0.1799
15845SOL     OW50811   4.091   0.749   0.867 -0.2211 -0.0947 -0.5467
15845SOL    HW150812   4.114   0.802   0.943 -2.9758  1.7427 -0.8608
15845SOL    HW250813   4.021   0.691   0.899  0.3485 -1.1126 -1.0951
15846SOL     OW50814   7.783  10.813   7.208  0.0585  0.2272 -0.2775
15846SOL    HW150815   7.702  10.819   7.158  0.0943  0.4348 -0.3095
15846SOL    HW250816   7.796  10.719   7.221 -0.7933  0.2203  0.7026
15847SOL     OW50817   6.043   5.220   8.348  0.4012 -0.3455  0.4703
15847SOL    HW150818   6.043   5.301   8.398 -0.3805 -0.3287  0.4488
15847SOL    HW250819   6.020   5.152   8.412 -2.1515 -0.1329 -0.1236
15848SOL     OW50820   1.956   1.869   4.559  0.3458 -0.3416  0.0158
15848SOL    HW150821   1.980   1.826   4.642  2.8244  0.5212 -0.1611
15848SOL    HW250822   2.014   1.829   4.494  1.2872  1.7426 -0.5172
15849SOL     OW50823   0.706   4.845   0.380 -0.0082 -0.9190 -0.3205
15849SOL    HW150824   0.739   4.933   0.362  0.8607 -1.2163 -0.2211
15849SOL    HW250825   0.659   4.854   0.463  2.9418 -1.1755  1.5339
15850SOL     OW50826   2.451   0.859   7.355 -0.3908  0.1585 -0.3148
15850SOL    HW150827   2.425   0.942   7.315  0.5089  1.9676  2.5479
15850SOL    HW250828   2.375   0.834   7.408 -0.9355 -1.3078 -1.7169
15851SOL     OW50829   1.115   2.544   2.332  0.1905  0.7025  0.2944
15851SOL    HW150830   1.175   2.534   2.257  0.5008  0.9944  0.5028
15851SOL    HW250831   1.044   2.598   2.299 -1.2418 -1.6249 -0.6980
15852SOL     OW50832   5.011  11.119   0.112  0.1018  0.6032  0.2296
15852SOL    HW150833   5.019  11.162   0.197 -1.1247  0.8705  0.2353
15852SOL    HW250834   5.030  11.027   0.130 -1.2960  0.4402  1.0599
15853SOL     OW50835   2.267   5.798   5.915 -0.8076  0.7933 -0.7445
15853SOL    HW150836   2.335   5.805   5.848  0.1098  0.5388  0.1337
15853SOL    HW250837   2.213   5.876   5.903  0.3594  1.6333 -0.6972
15854SOL     OW50838   5.344   1.580  10.293  0.1980  0.4723 -0.1805
15854SOL    HW150839   5.337   1.615  10.382  0.5734  0.4721 -0.1478
15854SOL    HW250840   5.438   1.575  10.277  0.1469  1.5575 -1.0054
15855SOL     OW50841   3.016   7.798   1.452  0.1734  0.0993  0.0997
15855SOL    HW150842   3.022   7.741   1.528  0.2516 -0.4287 -0.3000
15855SOL    HW250843   3.099   7.844   1.450  0.4319 -0.3723 -0.0491
15856SOL     OW50844   3.742   5.680   0.479 -0.2539 -0.0155 -0.0562
15856SOL    HW150845   3.772   5.771   0.476  0.7298 -0.3442 -1.4059
15856SOL    HW250846   3.784   5.644   0.557 -0.3137  0.5740  0.2533
15857SOL     OW50847   9.797   0.304  11.203 -0.2300  0.3466  0.2117
15857SOL    HW150848   9.867   0.289  11.140 -2.7653 -0.3244 -2.6824
15857SOL    HW250849   9.804   0.231  11.265  0.3566 -0.8785 -1.2498
15858SOL     OW50850  10.455   0.716   0.381 -0.2629 -0.4126 -0.2938
15858SOL    HW150851  10.494   0.630   0.369  1.8130  0.2600  1.1247
15858SOL    HW250852  10.524   0.770   0.419 -1.5985  1.8099 -0.7789
15859SOL     OW50853   8.539   5.890   5.717  0.7434 -0.1644 -0.1102
15859SOL    HW150854   8.471   5.823   5.714  0.3885  0.1604  0.4765
15859SOL    HW250855   8.615   5.849   5.676  0.0467 -0.3447 -1.2426
15860SOL     OW50856   2.630   7.130   7.293  0.6171 -0.0492 -0.7578
15860SOL    HW150857   2.719   7.113   7.261  0.5522  0.9087 -1.5127
15860SOL    HW250858   2.636   7.119   7.388  1.5166 -0.1060 -0.8098
15861SOL     OW50859  10.659   9.038   2.001  1.0281 -0.6915  0.0152
15861SOL    HW150860  10.673   9.093   1.924 -2.0427 -2.2093 -1.8646
15861SOL    HW250861  10.654   8.949   1.966 -3.2308 -1.2062  1.3169
15862SOL     OW50862   4.388  10.280   7.566 -0.5311 -0.2794  0.0590
15862SOL    HW150863   4.298  10.312   7.571 -0.0069  1.5826 -1.3757
15862SOL    HW250864   4.424  10.320   7.486  2.0130  0.2656  1.3520
15863SOL     OW50865   6.179   1.282   6.393  0.0739 -0.4188 -0.4212
15863SOL    HW150866   6.108   1.218   6.405 -2.6012  2.0311 -2.0326
15863SOL    HW250867   6.170   1.341   6.468 -1.5124  1.4549 -1.9658
15864SOL     OW50868   0.282   1.005   7.316  0.3537  0.2298 -0.1041
15864SOL    HW150869   0.307   0.958   7.237 -1.1558  1.2900 -1.2634
15864SOL    HW250870   0.193   0.974   7.335 -0.8590  2.7595 -1.1226
15865SOL     OW50871   1.006   5.894   5.637  0.4210 -0.2932 -0.4027
15865SOL    HW150872   1.006   5.919   5.544 -0.9466 -0.0313 -0.3523
15865SOL    HW250873   1.073   5.827   5.644 -1.8078 -2.9241 -2.3173
15866SOL     OW50874   7.624   1.599   7.777 -0.7933 -0.0930  0.0494
15866SOL    HW150875   7.714   1.622   7.751 -0.8694 -1.6741 -1.8136
15866SOL    HW250876   7.574   1.680   7.762  0.3235  0.8786  1.3403
15867SOL     OW50877   6.414  10.259   0.204 -0.7928  0.0632  0.1297
15867SOL    HW150878   6.343  10.257   0.140 -1.0656  3.7058  0.0828
15867SOL    HW250879   6.494  10.261   0.152 -0.8130 -0.5612  0.0663
15868SOL     OW50880   0.838   2.943   4.176  0.3937 -0.3077  0.2598
15868SOL    HW150881   0.908   2.878   4.182  0.7406 -0.2125 -2.0156
15868SOL    HW250882   0.879   3.019   4.135 -0.9056 -0.0377 -0.5869
15869SOL     OW50883   0.690   1.056   4.629  0.4706  0.0560  0.0860
15869SOL    HW150884   0.772   1.089   4.591 -0.6219  1.6616 -0.9685
15869SOL    HW250885   0.625   1.067   4.560 -0.9336  0.0690  1.3594
15870SOL     OW50886   1.663   2.112   2.635 -0.6930  0.0528 -0.3512
15870SOL    HW150887   1.752   2.143   2.620 -1.2676  1.6925 -0.6989
15870SOL    HW250888   1.611   2.155   2.566 -1.7776 -0.6970 -0.0312
15871SOL     OW50889   7.707   8.190  10.438  0.4444 -0.4990  0.7948
15871SOL    HW150890   7.714   8.118  10.376  0.1244  0.5122 -0.4628
15871SOL    HW250891   7.719   8.269  10.385 -0.4789  0.4291  1.8994
15872SOL     OW50892   9.683   3.259   4.519  0.0589  0.3188 -0.2095
15872SOL    HW150893   9.591   3.252   4.493 -0.1499  0.0664  0.5881
15872SOL    HW250894   9.683   3.247   4.614  0.7301  1.9299  0.0269
15873SOL     OW50895   0.727   6.252   2.857  0.0796 -0.6366 -0.0811
15873SOL    HW150896   0.681   6.168   2.860 -1.5809  0.2120 -0.1888
15873SOL    HW250897   0.815   6.230   2.826 -0.0314 -2.4239  0.7438
15874SOL     OW50898   8.289   7.373   9.927  0.6004 -0.3998 -0.0295
15874SOL    HW150899   8.291   7.297   9.985  2.6327  1.1593  2.1159
15874SOL    HW250900   8.375   7.375   9.886  0.4683  0.5422 -0.3023
15875SOL     OW50901   9.217   6.306  11.179 -0.1272 -0.0132 -0.2077
15875SOL    HW150902   9.133   6.334  11.144  0.4179  0.4086 -1.2364
15875SOL    HW250903   9.207   6.312  11.274 -0.8571  1.2382 -0.3429
15876SOL     OW50904   3.249   5.775  10.735  0.1044  0.8514  0.3626
15876SOL    HW150905   3.256   5.685  10.704 -2.5296  0.8751 -0.5984
15876SOL    HW250906   3.297   5.828  10.671  0.5562  0.2561  0.2070
15877SOL     OW50907  10.240   0.781  10.929  0.3762 -0.0457 -0.1392
15877SOL    HW150908  10.288   0.839  10.989 -0.8351  1.9522 -1.0255
15877SOL    HW250909  10.233   0.699  10.977  2.8534  0.2235  0.8476
15878SOL     OW50910   8.687   9.524   0.849  0.3354 -0.4854 -0.1014
15878SOL    HW150911   8.609   9.578   0.860  0.6798  0.0870 -0.4671
15878SOL    HW250912   8.657   9.435   0.870 -0.8722 -0.5715 -1.9556
15879SOL     OW50913   2.163   9.687   1.135  0.6277  0.1441  0.0179
15879SOL    HW150914   2.232   9.713   1.075  0.2832  2.4306  0.5107
15879SOL    HW250915   2.122   9.770   1.162 -1.9051 -1.0850  0.2153
15880SOL     OW50916   0.876  10.499   4.261 -0.5400  0.5356 -0.4987
15880SOL    HW150917   0.803  10.552   4.227  0.6063  2.5283 -0.0157
15880SOL    HW250918   0.954  10.546   4.233  0.5495 -0.9450 -0.0343
15881SOL     OW50919  11.070   6.961   8.009 -0.6542  0.3461  0.3067
15881SOL    HW150920  11.017   7.030   7.968  1.2035  2.7444  1.6580
15881SOL    HW250921  11.153   7.005   8.031 -0.2851 -1.6429  3.5163
15882SOL     OW50922   0.225   4.973   6.515 -0.3375  0.3780  0.7016
15882SOL    HW150923   0.303   5.025   6.531 -0.0343  0.1017  0.1490
15882SOL    HW250924   0.217   4.917   6.592  0.5238 -0.2256  0.3640
15883SOL     OW50925   6.556   8.829   4.821  0.1353  0.2084  0.4291
15883SOL    HW150926   6.571   8.740   4.787  1.9018  0.1753  1.1815
15883SOL    HW250927   6.560   8.819   4.916  0.8049  1.1681  0.5096
15884SOL     OW50928   1.482   9.015   1.702  0.3006 -0.2736  0.6770
15884SOL    HW150929   1.489   9.000   1.796 -1.8336 -0.8059  0.7885
15884SOL    HW250930   1.545   8.953   1.664 -1.2793 -2.6190  1.6371
15885SOL     OW50931  10.945  11.298   2.470 -0.1000 -0.4024  0.0683
15885SOL    HW150932  10.940  11.393   2.458  0.5662 -0.4758 -0.9835
15885SOL    HW250933  10.977  11.286   2.559 -1.3632  0.3293  0.6419
15886SOL     OW50934   5.689   2.319   1.773 -0.0411 -0.1096  0.1538
15886SOL    HW150935   5.710   2.345   1.862  0.1814  2.3483 -0.5455
15886SOL    HW250936   5.772   2.321   1.727 -0.3537 -0.0359 -0.4172
15887SOL     OW50937   6.721   5.687  11.346  0.0018  0.0671  0.0319
15887SOL    HW150938   6.648   5.744  11.368 -0.3554  0.1627 -1.3540
15887SOL    HW250939   6.798   5.735  11.376 -0.2359  1.6096 -1.6757
15888SOL     OW50940   3.936   2.371   3.611  0.4793 -0.4772 -0.1193
15888SOL    HW150941   4.024   2.369   3.649  1.1079  0.0523 -1.4776
15888SOL    HW250942   3.927   2.287   3.566 -0.5174 -1.3849  1.6611
15889SOL     OW50943   9.674   7.920   8.962 -0.5628 -0.0028 -0.7307
15889SOL    HW150944   9.586   7.957   8.964 -0.6153 -0.0777 -1.6144
15889SOL    HW250945   9.689   7.896   8.871 -0.5448 -2.2460 -0.1975
15890SOL     OW50946   1.599  10.883   0.926  0.2371 -0.2971 -0.2798
15890SOL    HW150947   1.650  10.865   1.005 -1.2611 -1.8682  0.3901
15890SOL    HW250948   1.621  10.974   0.904  0.2498  0.4190  2.3135
15891SOL     OW50949   6.778  11.180   7.117  0.1139 -0.4201  0.5584
15891SOL    HW150950   6.736  11.131   7.187  1.9179 -0.2013  1.8719
15891SOL    HW250951   6.717  11.251   7.097  0.1213  0.3422  2.9064
15892SOL     OW50952   7.682   5.354   6.942 -0.2716 -0.1247  0.6550
15892SOL    HW150953   7.766   5.351   6.895  0.1585  1.6839  1.2477
15892SOL    HW250954   7.706   5.366   7.034 -1.1761 -0.6110  0.9662
15893SOL     OW50955   9.660   5.107   9.304 -0.0107  0.0788 -0.2703
15893SOL    HW150956   9.751   5.120   9.280  0.3726 -1.5411  0.1442
15893SOL    HW250957   9.663   5.077   9.395 -0.8779 -0.7983 -0.5128
15894SOL     OW50958   3.002   0.163   3.874 -0.7125 -0.4613  0.1915
15894SOL    HW150959   3.047   0.089   3.914  0.2414  0.4143  0.7975
15894SOL    HW250960   2.977   0.219   3.948  0.1747  0.6856 -0.3305
15895SOL     OW50961  11.142   5.490  10.826  0.6442 -0.1624  0.9785
15895SOL    HW150962  11.216   5.479  10.886  0.9839  0.2812  0.6520
15895SOL    HW250963  11.178   5.471  10.739  0.2912 -0.2812  0.8568
15896SOL     OW50964   5.354   6.893   6.348 -0.1996 -0.4138  0.4367
15896SOL    HW150965   5.425   6.938   6.393 -0.3355 -0.4087  0.6443
15896SOL    HW250966   5.345   6.940   6.265  0.2717 -0.6307  0.2613
15897SOL     OW50967   8.171   3.106   0.995  0.1355  0.4075  0.2590
15897SOL    HW150968   8.255   3.100   1.041 -0.5080  1.5231  1.6783
15897SOL    HW250969   8.147   3.198   1.003 -0.9997  0.1927 -0.5539
15898SOL     OW50970   1.973   8.594   7.438 -0.2957  0.1561 -0.3399
15898SOL    HW150971   2.065   8.572   7.429 -0.5559 -0.9692 -0.4733
15898SOL    HW250972   1.943   8.540   7.512 -0.4942  1.6888  0.7538
15899SOL     OW50973  10.874   1.959   6.262  0.3451 -0.4021 -0.2373
15899SOL    HW150974  10.930   1.938   6.336  1.2846 -0.1688 -0.8588
15899SOL    HW250975  10.907   1.904   6.190 -0.8453 -0.9660 -0.3699
15900SOL     OW50976   5.348   6.371   7.061  0.4092  0.3267 -1.0929
15900SOL    HW150977   5.324   6.449   7.112  0.5803  0.9929 -2.0107
15900SOL    HW250978   5.417   6.330   7.112  0.8551  1.1995 -0.9680
15901SOL     OW50979   1.276   6.825   9.999 -0.0444  0.2925  0.0586
15901SOL    HW150980   1.225   6.905   9.990  0.7765  0.7344 -0.8077
15901SOL    HW250981   1.246   6.769   9.928  1.4009  0.9778 -1.1352
15902SOL     OW50982   9.253   5.184   0.779  0.4445 -0.0722  0.6392
15902SOL    HW150983   9.336   5.181   0.827  2.2840 -0.7232 -2.2876
15902SOL    HW250984   9.279   5.197   0.688 -2.5799 -2.0817 -0.6748
15903SOL     OW50985   7.412   4.901   6.065  0.6400 -0.2662 -0.2159
15903SOL    HW150986   7.410   4.931   5.974  0.5004  0.7312  0.1064
15903SOL    HW250987   7.485   4.948   6.104  0.5186 -0.4765  0.2658
15904SOL     OW50988   6.262   1.840   6.100  0.1131 -0.3542 -0.5505
15904SOL    HW150989   6.274   1.760   6.151  1.5741  0.5422  0.6087
15904SOL    HW250990   6.308   1.824   6.018 -1.0895 -1.3120 -1.0666
15905SOL     OW50991   1.875   5.663   9.264  0.1089  0.2653  0.3871
15905SOL    HW150992   1.915   5.595   9.319 -0.0294  0.0426  0.2117
15905SOL    HW250993   1.945   5.688   9.203 -0.1140 -0.3434 -0.1205
15906SOL     OW50994   9.885   8.682   3.085 -0.2038  0.0094  1.0287
15906SOL    HW150995   9.902   8.677   2.991 -0.0598  0.4495  1.0304
15906SOL    HW250996   9.903   8.594   3.117 -0.3377 -0.1644  0.6288
15907SOL     OW50997   8.658   3.229   8.222 -0.1396 -0.3585 -0.4277
15907SOL    HW150998   8.579   3.187   8.187  0.0778 -0.8317 -0.3599
15907SOL    HW250999   8.633   3.257   8.310 -0.6371  0.6824 -0.8839
15908SOL     OW51000   1.366   2.490   3.982  0.1020 -0.6161  0.3053
15908SOL    HW151001   1.360   2.444   4.066  0.4332 -0.9777  0.1333
15908SOL    HW251002   1.277   2.485   3.946 -0.1001 -0.2574  0.7316
15909SOL     OW51003   7.423   0.788   7.455  0.6093  0.2791  0.7169
15909SOL    HW151004   7.484   0.754   7.520  0.2462 -0.0798  0.8767
15909SOL    HW251005   7.436   0.883   7.456  3.4768  0.0432 -1.5737
15910SOL     OW51006   5.974   5.866   4.420 -0.0624  0.1464  0.1727
15910SOL    HW151007   5.965   5.882   4.326 -0.6056 -1.3123 -0.0418
15910SOL    HW251008   5.894   5.902   4.458 -0.4817 -0.4931 -0.0949
15911SOL     OW51009   6.467   5.980   7.227 -0.6692 -0.0397 -0.2951
15911SOL    HW151010   6.431   6.029   7.153  0.9022  0.3117 -0.8471
15911SOL    HW251011   6.464   5.888   7.198 -0.0745  0.0942 -0.8088
15912SOL     OW51012   2.662   0.021  10.785  0.1760  0.1697  0.0001
15912SOL    HW151013   2.660  -0.065  10.827  1.1118  0.5567  0.9066
15912SOL    HW251014   2.624   0.007  10.699  0.1130 -1.1042  0.2149
15913SOL     OW51015   0.807   3.122   1.653 -1.0290  0.3817  0.5335
15913SOL    HW151016   0.754   3.200   1.669 -0.9486  0.6835 -0.5384
15913SOL    HW251017   0.789   3.064   1.727 -1.2189  1.3455  1.2598
15914SOL     OW51018   2.683   5.201   5.829 -0.5390 -0.2384 -0.2834
15914SOL    HW151019   2.678   5.294   5.849 -0.4505 -0.4742  0.9019
15914SOL    HW251020   2.676   5.157   5.914 -0.5785 -1.3155 -0.8182
15915SOL     OW51021   8.216   9.179   5.054  0.0048 -0.0687 -0.0440
15915SOL    HW151022   8.143   9.192   5.114 -0.0706 -0.0360 -0.1435
15915SOL    HW251023   8.206   9.248   4.989  0.8033  0.6941  0.6103
15916SOL     OW51024  10.691   6.335   0.670  0.4020  0.0336 -0.1980
15916SOL    HW151025  10.663   6.410   0.722  0.5645  1.4576 -2.0369
15916SOL    HW251026  10.784   6.326   0.689  0.2835 -0.0041  0.3804
15917SOL     OW51027   1.234   3.668   1.236 -0.2285  0.0385 -0.3491
15917SOL    HW151028   1.222   3.763   1.229  1.7178  0.3287 -0.3049
15917SOL    HW251029   1.279   3.656   1.319  0.0320 -0.8849 -0.6162
15918SOL     OW51030   4.060   5.031   3.496  0.2864  0.2368  0.5569
15918SOL    HW151031   4.013   4.965   3.548  0.2202 -0.0723  0.1035
15918SOL    HW251032   3.992   5.095   3.473 -0.1229 -0.6542 -0.8343
15919SOL     OW51033   5.943   5.273   5.222 -0.1121 -0.1890  0.2463
15919SOL    HW151034   6.035   5.255   5.207 -0.2863 -0.1176 -1.0339
15919SOL    HW251035   5.897   5.195   5.190 -0.5370  0.0464  0.2714
15920SOL     OW51036   5.471   9.283   9.433 -0.0102  0.5421  0.8612
15920SOL    HW151037   5.447   9.256   9.521  0.2362  0.0023  0.7693
15920SOL    HW251038   5.563   9.309   9.440  0.5147 -1.0868  0.4447
15921SOL     OW51039   4.406   5.962   0.976  0.0203  0.1370  0.0134
15921SOL    HW151040   4.437   6.053   0.981  1.9331 -0.4392 -0.7496
15921SOL    HW251041   4.345   5.955   1.050  1.1623  1.5517  1.1703
15922SOL     OW51042   4.691   9.918   7.473  0.0869  0.2086 -0.0019
15922SOL    HW151043   4.751   9.853   7.510 -1.3354 -1.8340 -1.0673
15922SOL    HW251044   4.722   9.929   7.383  0.3532  1.1005  0.1882
15923SOL     OW51045   7.764   1.686   3.773  0.4357  0.4178  0.8474
15923SOL    HW151046   7.727   1.772   3.753 -1.5056 -0.5833 -0.0603
15923SOL    HW251047   7.742   1.671   3.865 -0.4234  0.3197  0.6289
15924SOL     OW51048   9.468   2.254   6.000  0.2583  0.1882 -0.4722
15924SOL    HW151049   9.446   2.163   6.020  0.5121  0.5929  1.9017
15924SOL    HW251050   9.432   2.269   5.912 -2.3322 -1.3636  0.2202
15925SOL     OW51051   5.872   7.081   1.253 -0.1046  0.2170 -0.3063
15925SOL    HW151052   5.841   7.038   1.174 -0.0672 -0.2637 -0.0625
15925SOL    HW251053   5.885   7.172   1.227  3.7971 -0.6129 -2.0395
15926SOL     OW51054  10.020   2.426   1.699 -0.0983  0.1165 -0.1199
15926SOL    HW151055  10.052   2.513   1.674  0.7293 -0.6151 -1.6754
15926SOL    HW251056  10.026   2.374   1.619  0.9099 -1.8265  1.1634
15927SOL     OW51057   9.826   9.339   8.210  0.5238  0.1307  0.2452
15927SOL    HW151058   9.901   9.335   8.151  0.2086 -0.7534 -0.1222
15927SOL    HW251059   9.856   9.388   8.286  1.5758 -0.5129  0.2565
15928SOL     OW51060   7.487   5.990  10.103 -0.1938 -0.8743 -0.1444
15928SOL    HW151061   7.470   5.900  10.129  0.4514 -0.7715  0.6818
15928SOL    HW251062   7.401   6.026  10.082 -1.2791 -0.1878  4.3966
15929SOL     OW51063   4.444   4.693   5.901  0.5534  0.4098 -0.3247
15929SOL    HW151064   4.406   4.636   5.969 -0.3415  0.5851 -0.6593
15929SOL    HW251065   4.471   4.771   5.948  0.2339  0.3976 -0.1161
15930SOL     OW51066   9.834   6.453   8.064  0.2628 -0.1303 -0.4419
15930SOL    HW151067   9.855   6.365   8.096 -2.5136 -0.2898  1.2713
15930SOL    HW251068   9.908   6.507   8.092  0.2763 -1.2470  1.9248
15931SOL     OW51069   8.688   5.156   5.291  0.2721 -0.4265 -0.4311
15931SOL    HW151070   8.732   5.174   5.374  2.1489  0.1703 -1.4666
15931SOL    HW251071   8.671   5.062   5.292  1.2167 -0.6071  0.2165
15932SOL     OW51072  10.766   7.010   2.599 -0.2759  0.2910 -0.0922
15932SOL    HW151073  10.728   6.974   2.679  1.3437  0.1436  0.6365
15932SOL    HW251074  10.849   7.048   2.626 -0.6056  2.0627 -1.3565
15933SOL     OW51075   8.421  11.066  10.932  0.1066 -0.2252  0.2870
15933SOL    HW151076   8.501  11.113  10.953 -0.2302  0.3911  0.1995
15933SOL    HW251077   8.425  10.986  10.984  1.1661 -0.5953 -0.3293
15934SOL     OW51078   2.288   6.794   7.863 -0.4724  0.0458  0.0981
15934SOL    HW151079   2.353   6.731   7.834  0.5107  0.4384  1.3612
15934SOL    HW251080   2.279   6.855   7.790 -0.8954 -1.1102 -0.8434
15935SOL     OW51081   9.627   2.306   0.615 -0.2934  0.4751 -0.0312
15935SOL    HW151082   9.623   2.363   0.538 -1.2170  1.3405  0.6150
15935SOL    HW251083   9.608   2.219   0.582  0.2125  0.6868 -0.9128
15936SOL     OW51084   8.248  10.326   5.830  0.1489 -0.6635 -0.6272
15936SOL    HW151085   8.308  10.383   5.781  0.3989 -0.1805  0.2134
15936SOL    HW251086   8.192  10.286   5.764  0.6776 -0.2587 -1.3264
15937SOL     OW51087   9.204  10.602   2.221 -0.1448  0.2170  0.0477
15937SOL    HW151088   9.160  10.664   2.164 -0.3439 -0.3662 -0.4526
15937SOL    HW251089   9.134  10.548   2.257  0.0552  0.0474  0.1853
15938SOL     OW51090   0.113   1.353   3.140  0.1837 -0.1809 -0.0312
15938SOL    HW151091   0.134   1.394   3.224 -2.7664 -0.3343  0.8745
15938SOL    HW251092   0.188   1.295   3.122  0.8766 -0.1656  2.4976
15939SOL     OW51093   4.729   8.917   6.663  0.5234  0.0364  0.1630
15939SOL    HW151094   4.721   8.937   6.756  0.6592  1.7897 -0.1716
15939SOL    HW251095   4.639   8.919   6.630  0.6550  2.1317 -0.2200
15940SOL     OW51096   5.002  10.600   0.425  0.4478  0.5158  0.3818
15940SOL    HW151097   4.996  10.509   0.398  0.5655  0.2702  1.1512
15940SOL    HW251098   5.068  10.639   0.367 -1.3512  0.7632 -1.6073
15941SOL     OW51099   3.947   1.680   2.509  0.4146 -0.6248 -0.0301
15941SOL    HW151100   3.877   1.616   2.526  0.6870 -0.6036  1.3087
15941SOL    HW251101   3.925   1.754   2.565  0.4298  0.2341 -1.1279
15942SOL     OW51102  11.266   6.523   3.824  0.5049 -0.1679 -0.5212
15942SOL    HW151103  11.260   6.435   3.862  1.0674 -0.6796 -1.5740
15942SOL    HW251104  11.316   6.510   3.743  1.9537  1.3597  0.0674
15943SOL     OW51105   2.194   6.802   2.080 -0.3187  0.3886 -0.2774
15943SOL    HW151106   2.105   6.784   2.112  0.6223 -1.1571  1.6864
15943SOL    HW251107   2.205   6.743   2.005 -0.5297 -0.4047  0.2970
15944SOL     OW51108   4.313   4.193   7.129 -0.1442 -0.1227  0.5381
15944SOL    HW151109   4.225   4.159   7.146  0.2994 -0.9623  1.2498
15944SOL    HW251110   4.366   4.160   7.202  0.0870  3.1279  2.0426
15945SOL     OW51111   0.657   3.225   9.155  0.2965  0.0241 -0.0338
15945SOL    HW151112   0.706   3.155   9.199  0.3469  0.2612  0.2957
15945SOL    HW251113   0.588   3.248   9.217  1.8399  2.0821  1.0687
15946SOL     OW51114   5.635   4.228   7.366  0.7157  0.3597 -0.6352
15946SOL    HW151115   5.724   4.213   7.398  0.6322  0.3604 -0.3988
15946SOL    HW251116   5.579   4.189   7.433  0.4997  1.3478 -0.2224
15947SOL     OW51117   7.816   5.795   5.934 -0.1755  0.3453  0.8384
15947SOL    HW151118   7.863   5.763   6.011 -0.7738 -1.4503  0.5122
15947SOL    HW251119   7.736   5.834   5.970  0.0359  0.4572  1.1932
15948SOL     OW51120   8.248   8.921  11.029 -0.4299 -0.2526  0.5822
15948SOL    HW151121   8.157   8.923  11.057 -0.5638 -0.1904  0.1611
15948SOL    HW251122   8.247   8.873  10.947 -0.2035  0.3993  0.1837
15949SOL     OW51123   5.388   0.786  10.796 -0.4628 -0.0047  0.4023
15949SOL    HW151124   5.329   0.731  10.848  0.5753  1.7361  3.7429
15949SOL    HW251125   5.431   0.725  10.736 -0.9539 -2.4398  2.3718
15950SOL     OW51126   1.089   0.468   4.556  0.0735 -0.6341  0.2007
15950SOL    HW151127   1.099   0.563   4.563 -0.2037 -0.5851 -0.0380
15950SOL    HW251128   0.995   0.453   4.568 -0.4925 -0.5415 -2.9708
15951SOL     OW51129   9.095   7.141   7.237 -0.0613 -0.8625  0.2954
15951SOL    HW151130   9.161   7.122   7.304  0.0370 -1.2880  0.0806
15951SOL    HW251131   9.091   7.236   7.234  2.9027 -0.6887 -1.9769
15952SOL     OW51132   4.319   5.020   8.341  0.5423  0.1744 -0.0403
15952SOL    HW151133   4.370   5.095   8.311  1.0876 -0.2151 -0.1082
15952SOL    HW251134   4.367   4.987   8.417  1.1302 -0.9882 -0.8821
15953SOL     OW51135   1.247   6.364   1.299  0.2849  0.2564 -0.3165
15953SOL    HW151136   1.320   6.320   1.344  0.6270  1.3286  0.2131
15953SOL    HW251137   1.172   6.307   1.314  0.4432  0.4485  1.4347
15954SOL     OW51138   5.319   2.127   9.947  0.0240 -0.4769  0.3028
15954SOL    HW151139   5.248   2.092   9.892 -1.1906  0.2438  1.3595
15954SOL    HW251140   5.294   2.218   9.963  0.0187 -0.8208  2.5298
15955SOL     OW51141   4.037   1.741   7.681  0.2085  0.4568 -0.3759
15955SOL    HW151142   3.944   1.747   7.702 -0.0708 -0.6079 -1.2064
15955SOL    HW251143   4.058   1.826   7.643 -1.2408 -0.3052 -3.1449
15956SOL     OW51144   9.992   1.185   8.069  0.0267 -0.6553  0.3643
15956SOL    HW151145   9.905   1.177   8.030  0.0940 -1.7206  0.3989
15956SOL    HW251146  10.049   1.210   7.997 -0.4603  1.0406  0.5339
15957SOL     OW51147   9.060   1.754   7.332 -0.5296 -0.3845  0.5119
15957SOL    HW151148   9.078   1.783   7.422  0.8453 -0.4835  0.2939
15957SOL    HW251149   8.974   1.713   7.337 -0.2702 -0.8176  1.8843
15958SOL     OW51150  10.838   2.526   9.504  0.6745  0.0858  0.0354
15958SOL    HW151151  10.764   2.531   9.564  1.3946 -1.2401  1.1003
15958SOL    HW251152  10.899   2.465   9.546  0.8534 -1.5729 -2.4093
15959SOL     OW51153   1.200   3.247  10.393  0.1197 -0.2363 -0.0971
15959SOL    HW151154   1.152   3.316  10.439  1.6377 -0.3280  1.7765
15959SOL    HW251155   1.187   3.266  10.300 -0.8673  1.5833  0.3615
15960SOL     OW51156  10.290   5.386   4.903 -0.1557  0.2290  0.2678
15960SOL    HW151157  10.287   5.447   4.830  3.4218  0.0398 -0.1984
15960SOL    HW251158  10.382   5.359   4.909 -1.1498 -3.5112  1.7990
15961SOL     OW51159   9.008   0.851   8.641 -0.4228 -0.4397  0.3826
15961SOL    HW151160   9.044   0.797   8.571  0.1248  1.8584 -1.2305
15961SOL    HW251161   8.991   0.790   8.712 -0.6400 -2.8310 -1.5939
15962SOL     OW51162   0.336   8.949   2.845 -0.0512 -0.4895 -0.0554
15962SOL    HW151163   0.384   9.029   2.824  0.6768 -1.1759 -1.0707
15962SOL    HW251164   0.389   8.878   2.809 -1.2170 -1.3636 -0.1281
15963SOL     OW51165   4.209   9.668   8.156 -0.3559 -0.0623 -0.3655
15963SOL    HW151166   4.248   9.752   8.181 -0.5089  0.0557 -0.5126
15963SOL    HW251167   4.141   9.692   8.092 -0.9151 -0.2261  0.1578
15964SOL     OW51168  10.826   3.331   5.768  0.3844 -0.2361 -0.6381
15964SOL    HW151169  10.735   3.300   5.765 -0.0420  0.5962  1.8721
15964SOL    HW251170  10.855   3.324   5.677 -2.1994 -0.4512 -1.5569
15965SOL     OW51171   9.448   2.629   4.822 -0.8475  0.1802  0.2278
15965SOL    HW151172   9.507   2.625   4.746 -1.9896  0.4556 -0.7142
15965SOL    HW251173   9.490   2.574   4.888  0.2011 -0.0414 -0.5927
15966SOL     OW51174   7.826   6.101   6.569  0.3282 -0.8800  0.0682
15966SOL    HW151175   7.750   6.128   6.621 -1.3006 -1.4528 -1.8806
15966SOL    HW251176   7.901   6.134   6.618 -1.1795  0.1696  1.8268
15967SOL     OW51177   0.808   7.876   7.074  0.0451  0.1144  0.5910
15967SOL    HW151178   0.842   7.822   7.145  0.1692  0.3428  0.7075
15967SOL    HW251179   0.870   7.863   7.002 -0.8307 -1.2020  0.0431
15968SOL     OW51180   6.073   8.267   6.428 -0.2321 -0.3061  0.2183
15968SOL    HW151181   6.128   8.327   6.377 -1.2877  0.5055  0.0056
15968SOL    HW251182   6.131   8.194   6.450  0.2269 -0.7798 -2.2884
15969SOL     OW51183   6.606   8.130   5.322  0.1917  0.0186  0.8884
15969SOL    HW151184   6.570   8.219   5.315  1.3211  0.4614  0.5036
15969SOL    HW251185   6.691   8.142   5.365  0.9620 -0.6992 -0.3643
15970SOL     OW51186   7.436   3.206   8.659 -0.2586  0.6174 -0.2609
15970SOL    HW151187   7.390   3.182   8.578 -1.6777  1.9758  0.0907
15970SOL    HW251188   7.439   3.125   8.710 -0.3692  0.0089 -1.1908
15971SOL     OW51189   5.645   1.031   1.340  0.5445 -0.7551  0.2595
15971SOL    HW151190   5.642   1.025   1.244  0.7229 -1.8156  0.3014
15971SOL    HW251191   5.613   1.119   1.360  1.1170 -0.2859 -0.8052
15972SOL     OW51192   4.614   4.900   1.756  0.4088  0.6940  0.4937
15972SOL    HW151193   4.595   4.806   1.763  0.9537  0.6723  2.3553
15972SOL    HW251194   4.536   4.937   1.714  0.0166 -0.5266  0.1011
15973SOL     OW51195  10.860   5.171   6.037  0.2084 -0.4526  0.3781
15973SOL    HW151196  10.907   5.254   6.031 -1.5011  0.6970  1.9151
15973SOL    HW251197  10.906   5.122   6.106 -0.7853  0.6716  1.8954
15974SOL     OW51198   9.211   6.610  10.034 -0.2828  0.1295 -0.3396
15974SOL    HW151199   9.152   6.535  10.042  1.2487 -0.9993  1.3588
15974SOL    HW251200   9.253   6.598   9.948  1.7758 -2.5318  0.8752
15975SOL     OW51201  10.102   6.603  10.691  0.8305 -0.6393 -0.0596
15975SOL    HW151202  10.132   6.527  10.740  1.2179 -0.4573 -0.0085
15975SOL    HW251203  10.081   6.668  10.758 -0.4878 -1.0456 -0.0544
15976SOL     OW51204   0.032   7.321   8.143 -0.3341  0.0253  0.3399
15976SOL    HW151205  -0.004   7.372   8.215 -0.7378 -0.5684  0.5669
15976SOL    HW251206   0.020   7.376   8.066 -0.2688  0.4967  0.6614
15977SOL     OW51207  10.933   4.075   3.447  0.5989  0.1470  0.5545
15977SOL    HW151208  10.990   4.053   3.373 -0.9971 -1.7803 -0.1754
15977SOL    HW251209  10.973   4.030   3.521  0.0965 -1.1410  0.0605
15978SOL     OW51210   5.679   4.680   0.652  0.5892 -0.9279  0.2183
15978SOL    HW151211   5.627   4.720   0.581  1.4961  0.2275  0.1661
15978SOL    HW251212   5.770   4.698   0.627  1.0029 -2.3921  0.6124
15979SOL     OW51213   8.715   8.980   2.979 -0.1339  0.3377 -0.5990
15979SOL    HW151214   8.642   8.999   3.038 -1.6000  0.3982 -2.3545
15979SOL    HW251215   8.787   9.034   3.013 -0.5452 -0.4585  1.7569
15980SOL     OW51216   5.737   1.064   0.373 -0.5452  0.3810  0.0334
15980SOL    HW151217   5.772   0.982   0.339 -0.2513  0.4934  0.0668
15980SOL    HW251218   5.645   1.064   0.346 -0.9894 -0.7306  1.4340
15981SOL     OW51219   0.166   0.397   2.690  0.4685 -0.2508  0.1946
15981SOL    HW151220   0.191   0.352   2.771 -1.1911  0.6825  1.2968
15981SOL    HW251221   0.247   0.437   2.659  1.9216 -3.4938 -0.6022
15982SOL     OW51222   0.524   7.051   7.931 -0.4825  0.1872  0.7251
15982SOL    HW151223   0.468   7.129   7.929 -0.5141  0.1820  1.2517
15982SOL    HW251224   0.514   7.012   7.844  0.8122  1.6618 -0.1313
15983SOL     OW51225   3.087   2.431   2.767  0.0747 -0.7759 -0.2390
15983SOL    HW151226   3.013   2.485   2.795  0.4659 -1.4201  2.3153
15983SOL    HW251227   3.049   2.368   2.705 -1.8169 -1.7317  1.7495
15984SOL     OW51228   2.435   0.674   8.001  0.6061  0.4677  0.2526
15984SOL    HW151229   2.478   0.748   7.959  0.6483  0.0755 -0.3983
15984SOL    HW251230   2.449   0.689   8.095  2.7494  0.0368  0.0733
15985SOL     OW51231   3.259   2.946   0.367  0.2510  0.1094 -0.3519
15985SOL    HW151232   3.175   2.992   0.363  1.0135  1.6599  0.5377
15985SOL    HW251233   3.267   2.904   0.282 -0.5151  1.6064 -1.2102
15986SOL     OW51234   2.228   6.757   5.588 -0.0005 -0.2860 -0.1996
15986SOL    HW151235   2.146   6.794   5.620  0.8751  0.6433  1.0528
15986SOL    HW251236   2.228   6.777   5.495 -0.6161  0.8532  0.0222
15987SOL     OW51237   0.495   1.606   2.710  0.4610 -0.6286  0.2949
15987SOL    HW151238   0.490   1.510   2.705  0.5498 -0.6429  0.5017
15987SOL    HW251239   0.452   1.635   2.629 -1.5595 -0.7990  1.2416
15988SOL     OW51240   3.425  11.091  10.223  0.4047  0.3385  0.1470
15988SOL    HW151241   3.495  11.033  10.193 -0.7093 -0.5460 -0.8486
15988SOL    HW251242   3.446  11.109  10.315  0.5019 -2.1123  0.6601
15989SOL     OW51243  11.230   0.090   5.574 -0.4254  0.1904 -0.5209
15989SOL    HW151244  11.319   0.101   5.541  0.1609 -0.8007  0.6402
15989SOL    HW251245  11.185   0.039   5.506  0.1827 -0.1244 -0.6944
15990SOL     OW51246   7.591   3.433   4.740  0.7326  0.0047 -0.1925
15990SOL    HW151247   7.649   3.508   4.722 -0.2199  0.4758 -1.5362
15990SOL    HW251248   7.528   3.467   4.803  0.3963  0.3093 -0.6807
15991SOL     OW51249   4.006   6.445  10.890  0.4694 -0.2435 -0.2231
15991SOL    HW151250   3.959   6.373  10.848  0.2388 -1.4624  2.0123
15991SOL    HW251251   4.096   6.414  10.896  0.3436 -0.4226  0.8681
15992SOL     OW51252   3.895   9.137   9.897  0.0877  0.5179  0.2980
15992SOL    HW151253   3.848   9.054   9.910  0.7669  0.4880  2.9623
15992SOL    HW251254   3.987   9.114   9.907  0.6513  1.0048 -2.6286
15993SOL     OW51255  11.244  10.924   5.314 -0.7591  0.7269 -1.2282
15993SOL    HW151256  11.301  10.996   5.340 -0.4686  0.6312 -1.5980
15993SOL    HW251257  11.303  10.855   5.284 -1.0047  0.0706 -0.2355
15994SOL     OW51258   2.648   3.485   9.613  0.3087 -0.3918  0.4140
15994SOL    HW151259   2.684   3.568   9.581  1.1852 -0.7719  0.3627
15994SOL    HW251260   2.577   3.465   9.552 -0.7226  0.8985  1.1305
15995SOL     OW51261   2.517   3.490   5.913  0.2278 -0.5947  0.1101
15995SOL    HW151262   2.496   3.550   5.985  1.8711  1.4856 -1.0389
15995SOL    HW251263   2.522   3.547   5.836 -0.4589 -2.6041 -1.5005
15996SOL     OW51264   2.458   3.604   0.394  0.0228 -0.2241  0.1382
15996SOL    HW151265   2.552   3.614   0.404  0.2533 -1.2270 -0.8393
15996SOL    HW251266   2.420   3.661   0.462  1.2731  1.8226 -0.7900
15997SOL     OW51267   5.116  10.922   4.464  0.2316 -0.3099  0.1207
15997SOL    HW151268   5.127  10.842   4.515 -2.0842 -0.2489  0.8121
15997SOL    HW251269   5.071  10.983   4.523 -2.3422 -0.1496 -1.7985
15998SOL     OW51270   4.773   9.713   0.174 -0.5384  0.4495 -0.2642
15998SOL    HW151271   4.861   9.713   0.137 -0.1290  0.8495  0.6795
15998SOL    HW251272   4.734   9.632   0.142 -0.2977  0.8697 -1.7539
15999SOL     OW51273   4.959   4.488  10.187  0.2353  0.1178  0.6386
15999SOL    HW151274   5.052   4.498  10.169  0.3482  0.6663  1.4668
15999SOL    HW251275   4.916   4.525  10.109  0.6535 -2.5392 -0.9820
16000SOL     OW51276   6.689   1.752   7.591  0.1903  0.3601  0.6845
16000SOL    HW151277   6.765   1.744   7.650  0.9694  1.2636 -0.1692
16000SOL    HW251278   6.650   1.836   7.614 -1.8294 -0.9538  2.5224
16001SOL     OW51279   2.978   8.326  10.902 -0.1841 -0.2433  0.1305
16001SOL    HW151280   3.019   8.411  10.921  1.1387 -0.7675 -0.2230
16001SOL    HW251281   2.988   8.275  10.982 -1.4744  0.1023  0.5274
16002SOL     OW51282   5.081   6.919   4.404 -0.3087 -0.5390 -0.3263
16002SOL    HW151283   5.148   6.985   4.422 -0.4157 -0.4835 -0.1263
16002SOL    HW251284   5.129   6.846   4.365 -0.5121  0.5780 -2.8395
16003SOL     OW51285   0.851   3.002   6.097  0.8878 -0.1741 -0.3332
16003SOL    HW151286   0.859   3.097   6.090 -0.7834  0.1851  1.5131
16003SOL    HW251287   0.905   2.979   6.172  1.7491 -0.7887 -1.1251
16004SOL     OW51288   8.238   0.050  10.092  0.1757  0.0661 -0.1745
16004SOL    HW151289   8.215  -0.015  10.158  0.7182 -1.4213 -1.3958
16004SOL    HW251290   8.172   0.119  10.103 -1.7986 -1.6955 -0.2786
16005SOL     OW51291   9.991  10.787   7.381  0.2044  0.5749  0.3458
16005SOL    HW151292  10.046  10.709   7.386 -0.1752  0.1214 -1.6801
16005SOL    HW251293   9.903  10.756   7.399  0.0433  0.5034 -0.5322
16006SOL     OW51294   9.738   5.738   1.376  0.4464  0.0619  0.0256
16006SOL    HW151295   9.760   5.731   1.469  0.9062 -0.1973 -0.1037
16006SOL    HW251296   9.690   5.657   1.356 -0.7588  0.6668  0.3310
16007SOL     OW51297   4.314   5.413  11.122  0.5830  0.1394  0.4306
16007SOL    HW151298   4.236   5.434  11.174  0.2822 -0.8399  0.3977
16007SOL    HW251299   4.378   5.384  11.187  0.4097 -0.4923  0.3345
16008SOL     OW51300   2.513   8.207   2.712  0.1437 -0.2249  0.4459
16008SOL    HW151301   2.511   8.131   2.771  1.4405  0.1705  1.0429
16008SOL    HW251302   2.430   8.252   2.728  1.0244  0.6492  3.0744
16009SOL     OW51303   4.761  10.349   3.421 -0.1169 -0.1317 -0.2820
16009SOL    HW151304   4.779  10.413   3.490 -2.5293  0.0206  0.2988
16009SOL    HW251305   4.771  10.399   3.339  1.1441  0.1156  0.0021
16010SOL     OW51306   9.116   0.649   1.765 -0.2151 -0.0465 -0.3026
16010SOL    HW151307   9.087   0.569   1.808 -1.7407  0.1993 -0.8164
16010SOL    HW251308   9.204   0.629   1.735 -0.1560 -1.1479  0.5360
16011SOL     OW51309   3.895   8.394   1.335 -0.3715 -0.1296  0.5074
16011SOL    HW151310   3.947   8.361   1.262 -0.7297  1.4280 -0.4910
16011SOL    HW251311   3.922   8.340   1.410 -0.4104 -2.1407 -0.8592
16012SOL     OW51312   2.275   8.795   3.168  0.3810 -0.0747  0.2625
16012SOL    HW151313   2.266   8.890   3.174 -0.1697 -0.1059 -0.0085
16012SOL    HW251314   2.191   8.760   3.197  0.4003 -0.4602 -0.1214
16013SOL     OW51315   6.029  10.569   0.066  0.1019  0.4663  0.4235
16013SOL    HW151316   6.057  10.555   0.157 -1.0400  1.2588  0.9283
16013SOL    HW251317   5.938  10.598   0.074  0.0682  0.7853 -0.9653
16014SOL     OW51318   9.791   4.963   7.773 -0.0282 -0.1375 -0.3568
16014SOL    HW151319   9.832   4.987   7.690 -1.3947  1.6390 -0.5672
16014SOL    HW251320   9.774   4.869   7.765  1.5880 -0.3737 -1.2942
16015SOL     OW51321   7.830   0.956   2.761 -0.2862  0.0512  0.0239
16015SOL    HW151322   7.759   1.003   2.805 -1.1590  0.5463 -1.7991
16015SOL    HW251323   7.814   0.864   2.782 -1.0071  0.2319  0.2963
16016SOL     OW51324   6.014   5.616   0.878  0.2639 -0.3533 -0.0666
16016SOL    HW151325   6.101   5.589   0.910  1.4440  0.0262 -2.7086
16016SOL    HW251326   5.979   5.670   0.948  1.1984 -2.2442  2.0023
16017SOL     OW51327   8.696   9.489   4.866  0.4566  0.5577 -0.1159
16017SOL    HW151328   8.663   9.457   4.782 -0.2639 -1.5758  0.9169
16017SOL    HW251329   8.617   9.512   4.915  0.7937  0.5061  0.4601
16018SOL     OW51330   6.662   1.675   6.340  0.6474 -0.9057  0.2787
16018SOL    HW151331   6.705   1.740   6.283  0.2470 -0.3244  0.6232
16018SOL    HW251332   6.592   1.639   6.286  0.5551 -0.6847  0.2478
16019SOL     OW51333   5.765   3.393   3.584  0.1122  0.3374  0.7246
16019SOL    HW151334   5.762   3.303   3.550  1.8709  1.0669 -1.6377
16019SOL    HW251335   5.845   3.395   3.637  1.5626  1.0943 -1.3690
16020SOL     OW51336   9.731   8.347   4.715 -0.2375  0.5122  0.5349
16020SOL    HW151337   9.709   8.327   4.624  0.2534  2.4765 -0.0524
16020SOL    HW251338   9.807   8.292   4.735  0.6247  1.1949 -0.7668
16021SOL     OW51339   8.848   7.549   9.054 -0.6149  0.2430 -0.4254
16021SOL    HW151340   8.935   7.514   9.073 -0.2140  1.3292 -0.1873
16021SOL    HW251341   8.862   7.611   8.982 -1.3821 -0.3949 -1.1507
16022SOL     OW51342   1.580   5.665   6.517 -0.0029  0.0629 -0.1051
16022SOL    HW151343   1.601   5.752   6.484 -0.5573  0.1146 -0.3347
16022SOL    HW251344   1.569   5.677   6.611 -0.9753  0.4266 -0.2541
16023SOL     OW51345   0.328   6.746  10.445  0.2606 -0.5484  0.2659
16023SOL    HW151346   0.363   6.705  10.365  0.6335  0.1321  0.0790
16023SOL    HW251347   0.325   6.839  10.425 -0.7090 -0.4829  0.6504
16024SOL     OW51348   9.770   2.834  10.204 -0.0972  0.6112  0.0280
16024SOL    HW151349   9.852   2.787  10.190 -1.0722 -1.6141  1.3582
16024SOL    HW251350   9.752   2.825  10.297 -3.1380 -1.3086 -0.6105
16025SOL     OW51351   8.067   6.885   6.808  0.6534  0.4985  0.0951
16025SOL    HW151352   8.132   6.921   6.747  2.3367 -1.3490  0.6944
16025SOL    HW251353   8.102   6.902   6.895 -0.6411  1.1392  0.5280
16026SOL     OW51354   4.402   9.951  10.138  0.0389  0.3499  0.7647
16026SOL    HW151355   4.369   9.937  10.050  1.1276  2.3448 -0.0313
16026SOL    HW251356   4.329   9.928  10.196 -1.1212  0.2398 -0.7023
16027SOL     OW51357  11.216   2.813   3.197 -0.4382 -0.3041 -0.7321
16027SOL    HW151358  11.154   2.850   3.259  0.5447 -2.3993  1.6998
16027SOL    HW251359  11.238   2.886   3.138 -0.9958  1.9977  1.7257
16028SOL     OW51360   5.987   9.118   8.839  0.2578  0.2463  0.0138
16028SOL    HW151361   6.074   9.091   8.813  0.1564 -0.0565 -0.0118
16028SOL    HW251362   5.997   9.151   8.928  0.3194 -0.1816  0.1630
16029SOL     OW51363   8.197   8.398   7.759 -0.5086  0.1854 -0.4887
16029SOL    HW151364   8.150   8.317   7.740 -0.0188 -0.1314 -0.3631
16029SOL    HW251365   8.185   8.412   7.853  1.0786 -0.8410 -0.0796
16030SOL     OW51366   6.826   7.550   8.139  0.1521  0.4457  0.8521
16030SOL    HW151367   6.737   7.538   8.105  0.6206  0.8617 -0.5949
16030SOL    HW251368   6.813   7.581   8.229 -1.1994  1.7208  0.2618
16031SOL     OW51369   6.782   6.116  10.843 -0.1747  0.0952 -0.1975
16031SOL    HW151370   6.842   6.090  10.912  0.1430 -0.3108 -0.6258
16031SOL    HW251371   6.751   6.203  10.870  0.3116  0.1434  0.2126
16032SOL     OW51372   8.197  10.535   6.498  0.1524 -0.1014 -0.2040
16032SOL    HW151373   8.241  10.451   6.483 -0.9532 -0.8518  0.6322
16032SOL    HW251374   8.242  10.572   6.574  0.6917  0.1143 -0.6194
16033SOL     OW51375   7.880   6.757   7.832 -0.2071 -0.2240 -0.2663
16033SOL    HW151376   7.788   6.767   7.806  0.4944 -0.5636 -3.2665
16033SOL    HW251377   7.907   6.676   7.789  1.2181 -0.8282  1.6307
16034SOL     OW51378   1.187   0.427   1.016 -0.3155  0.4129  0.3962
16034SOL    HW151379   1.170   0.350   0.963 -1.9024  1.2664 -0.4349
16034SOL    HW251380   1.134   0.496   0.975  0.4884  1.7545  1.5309
16035SOL     OW51381  10.750   4.232   0.881  0.3088  0.0096 -0.2780
16035SOL    HW151382  10.666   4.188   0.888  0.5801 -0.5014 -0.1981
16035SOL    HW251383  10.795   4.187   0.810  0.0994  0.9844 -1.0561
16036SOL     OW51384   7.939   3.485   6.290 -0.1617  0.7489  0.1355
16036SOL    HW151385   7.968   3.469   6.200 -0.7115  1.1397 -0.1171
16036SOL    HW251386   8.020   3.496   6.340  0.2020 -1.1689  0.0244
16037SOL     OW51387   7.114   6.206   0.774  0.5785  0.0765 -0.0541
16037SOL    HW151388   7.165   6.283   0.749  0.3073  0.4727  0.5831
16037SOL    HW251389   7.034   6.211   0.722  0.9106 -0.2215 -0.6103
16038SOL     OW51390   4.086   6.395   9.394 -0.1260  0.1725 -0.1671
16038SOL    HW151391   4.163   6.451   9.386  0.4041 -0.4960  0.1304
16038SOL    HW251392   4.109   6.316   9.346 -0.7961  0.1223 -0.4258
16039SOL     OW51393   0.634   1.583  10.960 -0.2884  0.3045 -0.1783
16039SOL    HW151394   0.709   1.535  10.923 -0.4158 -0.1094  0.1028
16039SOL    HW251395   0.632   1.665  10.910  0.3828  0.3395 -0.1547
16040SOL     OW51396   2.006   0.100   0.903  0.3241  0.4097  0.2118
16040SOL    HW151397   2.085   0.048   0.920 -0.5220 -0.6983  0.8261
16040SOL    HW251398   2.037   0.191   0.904  1.5911 -0.0002  0.4167
16041SOL     OW51399   5.961   5.312   7.587  0.0500 -0.3396 -0.2474
16041SOL    HW151400   5.920   5.260   7.656  0.1246  1.5541  1.2816
16041SOL    HW251401   5.899   5.382   7.569  1.1306  0.6518 -0.2521
16042SOL     OW51402   9.224   1.045   5.598 -0.6915  0.4420 -0.1374
16042SOL    HW151403   9.229   1.132   5.559 -1.2693  0.8218  0.6250
16042SOL    HW251404   9.132   1.020   5.590 -0.4752 -0.2400 -0.6368
16043SOL     OW51405   8.210   0.808   6.862 -0.2195  0.6923  0.2508
16043SOL    HW151406   8.198   0.776   6.951  1.0423  1.3488  0.6941
16043SOL    HW251407   8.298   0.777   6.837 -0.7168  0.1734 -0.9231
16044SOL     OW51408   7.294   3.784   3.551 -0.1805 -0.2461 -0.0808
16044SOL    HW151409   7.229   3.830   3.604  0.4176  1.5032 -0.8068
16044SOL    HW251410   7.376   3.831   3.566  0.5517 -1.2969 -0.5925
16045SOL     OW51411   8.779   7.847   2.343 -0.3221  0.2326 -0.6254
16045SOL    HW151412   8.870   7.830   2.318 -0.4740 -0.1532 -0.9298
16045SOL    HW251413   8.770   7.943   2.338  0.3431  0.3711  0.4030
16046SOL     OW51414   4.807  10.730   5.515  0.2171 -0.4385 -0.3463
16046SOL    HW151415   4.729  10.679   5.536 -0.1578  0.1498 -0.2895
16046SOL    HW251416   4.879  10.667   5.520  0.6076 -0.0000  5.1495
16047SOL     OW51417   0.088   0.585   4.789 -0.1324 -0.1118  0.3199
16047SOL    HW151418   0.123   0.674   4.794 -0.6003  0.0942 -0.0709
16047SOL    HW251419  -0.007   0.595   4.794 -0.2061 -0.5671 -0.0241
16048SOL     OW51420   5.798   6.856   0.412  0.7621  0.3389 -0.0748
16048SOL    HW151421   5.877   6.848   0.466  0.3944  1.2122  0.6183
16048SOL    HW251422   5.749   6.928   0.451  0.1626  0.5631 -1.1899
16049SOL     OW51423  10.005   8.614   4.359  0.1641  0.3343  0.0891
16049SOL    HW151424  10.029   8.690   4.412 -0.1275  0.0285  0.6612
16049SOL    HW251425   9.934   8.572   4.407 -0.5595  0.4179 -0.8692
16050SOL     OW51426   1.151   3.126   3.829 -0.0056  0.3936 -0.0804
16050SOL    HW151427   1.109   3.109   3.745 -0.0615  0.5428 -0.0816
16050SOL    HW251428   1.204   3.048   3.845 -0.8761 -0.1470  0.2779
16051SOL     OW51429   8.210   6.267   2.684  0.1839  0.3434  0.0544
16051SOL    HW151430   8.207   6.286   2.778 -0.3378  0.0877  0.0942
16051SOL    HW251431   8.235   6.175   2.679 -0.9437  0.0148 -0.0020
16052SOL     OW51432   5.624   6.054   8.608 -0.4407 -0.0785 -0.2292
16052SOL    HW151433   5.570   6.098   8.542  1.5389  1.7888 -0.7117
16052SOL    HW251434   5.628   5.964   8.578  0.3945  0.7049 -2.7383
16053SOL     OW51435  11.191   9.327   2.422  0.1178  0.1049  0.2923
16053SOL    HW151436  11.213   9.293   2.509  0.2730 -2.6298 -0.7244
16053SOL    HW251437  11.262   9.296   2.366 -1.7228 -1.2361 -1.4137
16054SOL     OW51438   8.854   3.727   4.642 -0.0702  0.0363 -0.5293
16054SOL    HW151439   8.759   3.723   4.654 -0.2656 -1.8089 -2.1563
16054SOL    HW251440   8.867   3.705   4.549  1.9579 -0.2290 -0.2166
16055SOL     OW51441   4.723   0.706   4.982  0.7554  0.3065  0.0029
16055SOL    HW151442   4.643   0.658   4.960  1.2257 -0.2694 -0.4824
16055SOL    HW251443   4.693   0.775   5.042  0.2538 -1.4753  1.9293
16056SOL     OW51444   3.858   7.113   3.285  0.5134 -0.7066  0.3699
16056SOL    HW151445   3.922   7.170   3.326  1.7450 -0.5062 -1.6605
16056SOL    HW251446   3.773   7.151   3.307  1.1832  0.1282  1.5503
16057SOL     OW51447   3.964   1.600   5.842 -0.1102 -0.0650  0.2774
16057SOL    HW151448   4.004   1.646   5.769  1.6374 -0.5893  0.8487
16057SOL    HW251449   3.980   1.656   5.918 -0.6957 -0.1672  0.4822
16058SOL     OW51450   1.720   1.648   7.784 -0.4676 -0.4031 -0.0707
16058SOL    HW151451   1.732   1.691   7.699 -0.0797 -2.2201 -1.0060
16058SOL    HW251452   1.777   1.696   7.844  0.9918 -0.4240 -1.3769
16059SOL     OW51453  10.743   5.601   6.465  0.0414 -0.2256 -0.6941
16059SOL    HW151454  10.749   5.588   6.371 -2.2644  1.2885 -1.1147
16059SOL    HW251455  10.652   5.579   6.487 -0.1031  1.5796  0.7726
16060SOL     OW51456   5.092  11.352   2.591  0.2709  0.1100 -0.4003
16060SOL    HW151457   5.043  11.294   2.650  2.6674  0.1415  1.7914
16060SOL    HW251458   5.028  11.378   2.525 -1.7357 -2.4841  0.3383
16061SOL     OW51459   1.784   0.299   6.960 -0.1683 -0.1072  0.1458
16061SOL    HW151460   1.785   0.217   7.011 -0.0967  1.3737  2.6909
16061SOL    HW251461   1.699   0.338   6.980 -0.6253  0.0417 -1.8485
16062SOL     OW51462   3.249   5.752   0.982 -0.2213  0.3090 -0.2312
16062SOL    HW151463   3.320   5.788   1.034 -1.1760  1.3249  0.4147
16062SOL    HW251464   3.257   5.657   0.993  0.1680  0.4651  0.9962
16063SOL     OW51465   0.480   1.332   2.668 -0.0102 -0.0930 -0.2876
16063SOL    HW151466   0.441   1.255   2.710  0.8620 -0.8974 -0.9214
16063SOL    HW251467   0.568   1.304   2.644  1.7639  2.2499  2.7964
16064SOL     OW51468   9.965   4.706  11.312  0.1797  0.4243  0.0007
16064SOL    HW151469   9.979   4.768  11.241  2.6052  1.0159  0.8881
16064SOL    HW251470   9.961   4.620  11.269 -0.8305  0.9604 -1.0208
16065SOL     OW51471   6.047   2.514   6.056 -0.0682  0.1930  0.1218
16065SOL    HW151472   5.973   2.569   6.030  1.4923  2.0330 -0.6849
16065SOL    HW251473   6.120   2.575   6.064  1.6593 -1.7271 -0.2974
16066SOL     OW51474  11.002   7.021   8.757 -0.3644  0.2660  0.0948
16066SOL    HW151475  11.081   6.977   8.788 -0.6302  1.0824  2.1157
16066SOL    HW251476  11.005   7.012   8.662  1.7282 -0.4299  0.1750
16067SOL     OW51477  10.763   3.334   0.413 -0.0183 -0.1714 -0.1868
16067SOL    HW151478  10.723   3.319   0.327  0.9291 -0.1111 -0.6459
16067SOL    HW251479  10.838   3.275   0.415 -0.8004 -1.1853  1.1525
16068SOL     OW51480   6.090  11.069   2.291 -0.5289  0.0215 -0.1721
16068SOL    HW151481   6.130  11.092   2.206  1.6221 -1.8707  0.2296
16068SOL    HW251482   6.007  11.027   2.267 -0.6200  0.7591 -1.2545
16069SOL     OW51483   8.033   9.481  10.626  0.2903  0.6308  0.4624
16069SOL    HW151484   8.015   9.562  10.579  0.4766 -0.7519 -2.1895
16069SOL    HW251485   7.950   9.434  10.626  0.3354  0.5463  1.4007
16070SOL     OW51486   7.058   3.046   4.475 -0.4279 -0.0676  0.3485
16070SOL    HW151487   7.075   3.115   4.412 -0.9186 -0.2133  0.0542
16070SOL    HW251488   7.053   3.091   4.560  0.8912  0.0455  0.3876
16071SOL     OW51489   3.401   9.478   0.017  0.4811  0.0850  0.4144
16071SOL    HW151490   3.379   9.475  -0.077 -0.4050  1.7743  0.5313
16071SOL    HW251491   3.436   9.391   0.036  1.5516 -0.0109 -1.6938
16072SOL     OW51492   4.106  11.160   8.427 -0.7649 -0.7749 -0.0621
16072SOL    HW151493   4.133  11.070   8.409 -2.7426 -1.5745  0.6849
16072SOL    HW251494   4.119  11.206   8.344 -1.4425 -2.1986 -0.9901
16073SOL     OW51495   7.859   9.944   7.132 -0.1375  0.3625  0.0972
16073SOL    HW151496   7.846  10.013   7.198 -0.0081 -0.1206  0.6291
16073SOL    HW251497   7.772   9.908   7.117 -0.1170  0.2630  0.2254
16074SOL     OW51498  10.908   0.210   8.253  0.0551  0.3491  0.2279
16074SOL    HW151499  10.821   0.219   8.290  0.3855  1.6947  0.7193
16074SOL    HW251500  10.917   0.283   8.192 -0.1164 -1.2653 -1.8648
16075SOL     OW51501   2.775   7.150   4.861  0.1358  0.0874 -0.4026
16075SOL    HW151502   2.846   7.202   4.824 -0.5446  0.2362 -1.5443
16075SOL    HW251503   2.769   7.180   4.952  1.7741 -0.2180 -0.1552
16076SOL     OW51504   4.089   0.775   7.064 -0.0738  0.6166 -0.4757
16076SOL    HW151505   4.016   0.800   7.008 -2.1068 -2.5473  0.5096
16076SOL    HW251506   4.151   0.732   7.005 -0.7599  0.0478 -0.7986
16077SOL     OW51507   1.480   6.131   1.961  0.2138  0.0629 -0.3339
16077SOL    HW151508   1.397   6.084   1.963  0.7286 -0.8797 -0.5276
16077SOL    HW251509   1.544   6.069   1.998  0.9531  0.5268 -0.8016
16078SOL     OW51510  10.649   0.005   3.786 -0.8562 -0.3416 -0.3468
16078SOL    HW151511  10.647  -0.085   3.817  0.5523 -0.1859  0.2953
16078SOL    HW251512  10.617   0.057   3.860  0.1057 -0.1801 -0.0266
16079SOL     OW51513   4.697   3.353   6.698 -0.3467  0.5868 -0.7960
16079SOL    HW151514   4.644   3.322   6.624  0.5094  0.2566 -1.2967
16079SOL    HW251515   4.681   3.290   6.768 -0.4491  0.3682 -1.0149
16080SOL     OW51516   9.879   9.836  10.904  0.0415  0.0294  0.0612
16080SOL    HW151517   9.785   9.848  10.890  0.3996  0.1716 -3.0030
16080SOL    HW251518   9.909   9.792  10.824  2.4827 -0.6443  1.2577
16081SOL     OW51519   3.009  10.870   6.513 -0.5528 -0.2687  0.0646
16081SOL    HW151520   3.006  10.951   6.564  1.0603 -1.2049  1.7375
16081SOL    HW251521   3.059  10.893   6.434 -0.9418  0.5888  0.0639
16082SOL     OW51522   3.985   2.797  11.040 -0.6874 -0.0659  0.5361
16082SOL    HW151523   4.077   2.797  11.012 -0.4411 -1.9225  1.1927
16082SOL    HW251524   3.987   2.840  11.125 -0.3749 -0.3168  0.6603
16083SOL     OW51525   6.162   1.754   3.525 -0.2443  0.1455 -0.2032
16083SOL    HW151526   6.090   1.733   3.465 -0.5882  1.1089 -0.1468
16083SOL    HW251527   6.120   1.797   3.599  0.3980  0.8618 -0.2404
16084SOL     OW51528   4.916   0.729   2.064 -0.1131 -0.0222 -0.1614
16084SOL    HW151529   4.885   0.769   1.983  0.1509  1.5613  0.4901
16084SOL    HW251530   4.839   0.729   2.121 -0.3772 -1.4050 -0.4795
16085SOL     OW51531   4.855   5.133   7.625  0.0516  0.8477  0.4905
16085SOL    HW151532   4.894   5.111   7.540  0.1110 -1.4849  1.0775
16085SOL    HW251533   4.922   5.183   7.670  0.6357  0.7251 -0.2189
16086SOL     OW51534   1.315  10.687   7.127  0.6727  0.6971 -0.7062
16086SOL    HW151535   1.247  10.735   7.175 -0.4292 -1.2461 -0.2314
16086SOL    HW251536   1.288  10.693   7.035  0.4099  0.7538 -0.6258
16087SOL     OW51537   0.540   4.880   6.367  0.1772 -0.2278  0.4351
16087SOL    HW151538   0.526   4.935   6.444 -2.6346 -0.7580  0.4400
16087SOL    HW251539   0.567   4.940   6.298 -0.7679  0.8585  0.9782
16088SOL     OW51540   8.160   8.271  10.350 -0.2911  0.8112  0.1770
16088SOL    HW151541   8.161   8.351  10.297  3.9509  0.6040 -0.3376
16088SOL    HW251542   8.137   8.301  10.438  1.6619  2.7795  0.1052
16089SOL     OW51543   3.074   7.527  10.426 -0.3593  0.3788 -0.1746
16089SOL    HW151544   3.093   7.521  10.332  0.5826 -1.0044  0.0750
16089SOL    HW251545   3.026   7.609  10.435 -0.8321  0.3421 -1.9195
16090SOL     OW51546  10.536  10.011   9.514  0.2644  0.4123  0.7430
16090SOL    HW151547  10.531  10.081   9.449  1.1439  0.7467  1.0336
16090SOL    HW251548  10.482  10.042   9.586 -0.7507  0.0229  0.1750
16091SOL     OW51549   3.580   1.632   1.163 -0.1325  0.6019 -0.3396
16091SOL    HW151550   3.491   1.646   1.195 -0.6645  2.0110 -2.2006
16091SOL    HW251551   3.631   1.703   1.202  0.2420 -0.2854  0.8352
16092SOL     OW51552  11.022   7.347  10.527 -0.2424  0.7256 -0.7297
16092SOL    HW151553  10.927   7.338  10.532 -0.2250  0.4673 -0.8121
16092SOL    HW251554  11.037   7.439  10.504 -0.3628  1.6882  2.5680
16093SOL     OW51555   5.220   5.697   2.912  0.1244  0.3888 -0.7092
16093SOL    HW151556   5.198   5.693   3.004 -1.6306  1.0609 -1.0739
16093SOL    HW251557   5.186   5.615   2.875 -0.1976  0.6416 -0.9729
16094SOL     OW51558   9.850   2.652   8.803 -0.0585  0.0440  0.4085
16094SOL    HW151559   9.831   2.731   8.854 -0.6766 -1.6453  2.9473
16094SOL    HW251560   9.867   2.685   8.715 -1.2663  2.9252  1.1230
16095SOL     OW51561   0.062   0.103   5.427  0.1397 -0.2456 -0.1105
16095SOL    HW151562   0.040   0.128   5.337 -0.0121 -0.3991 -0.1171
16095SOL    HW251563   0.149   0.064   5.421 -0.1604 -0.9160 -0.3093
16096SOL     OW51564   5.968   8.164   2.905  0.0090 -0.1327 -0.2755
16096SOL    HW151565   5.987   8.086   2.853  0.7827 -0.9647  1.1991
16096SOL    HW251566   6.016   8.234   2.862  0.5206 -0.7665 -0.7531
16097SOL     OW51567   5.553   0.410   5.249 -0.3494  0.8674 -0.2603
16097SOL    HW151568   5.626   0.360   5.285 -1.4155 -2.1863 -2.0291
16097SOL    HW251569   5.594   0.471   5.188  0.9603  2.2467  1.8352
16098SOL     OW51570   2.168   4.181   6.220  0.6981 -0.5824  0.3926
16098SOL    HW151571   2.261   4.164   6.237  1.0491  0.6022 -0.2361
16098SOL    HW251572   2.140   4.109   6.164  1.0548 -1.3125  1.1328
16099SOL     OW51573   3.068  10.594   3.286  0.3865 -0.1624  0.2035
16099SOL    HW151574   2.979  10.622   3.263  0.4038 -0.0342  0.2928
16099SOL    HW251575   3.056  10.506   3.323  0.5111 -0.9929 -1.6055
16100SOL     OW51576   2.470  11.293   5.593 -0.8145 -0.0334 -0.6576
16100SOL    HW151577   2.486  11.351   5.667  0.6915  0.9131 -1.6659
16100SOL    HW251578   2.375  11.279   5.594 -0.7450 -0.8539  1.9920
16101SOL     OW51579   4.682   1.500   4.724  0.4511  0.1138  0.2330
16101SOL    HW151580   4.712   1.519   4.812 -1.6025 -0.4097  1.1140
16101SOL    HW251581   4.648   1.410   4.729 -0.2764  0.2987 -0.9129
16102SOL     OW51582   0.768   1.414   7.497 -0.0278 -0.2066  0.7745
16102SOL    HW151583   0.685   1.407   7.450 -0.1367 -0.7555  1.0401
16102SOL    HW251584   0.760   1.494   7.548  0.8624  1.5271 -1.6222
16103SOL     OW51585   8.769   1.553   0.461 -0.0938  0.1679 -0.4326
16103SOL    HW151586   8.701   1.571   0.526 -0.1253 -0.3879 -0.3148
16103SOL    HW251587   8.741   1.474   0.416  0.0518  0.4064 -0.9651
16104SOL     OW51588   9.481   1.976   2.253  0.4588 -0.1278  0.4424
16104SOL    HW151589   9.491   1.900   2.196  0.2416 -0.2552  0.5733
16104SOL    HW251590   9.396   1.964   2.295 -0.5761  1.2771 -1.1449
16105SOL     OW51591   6.507   9.245   8.149  0.0595 -0.1715 -0.1307
16105SOL    HW151592   6.552   9.310   8.202  0.5570  1.5558 -2.5371
16105SOL    HW251593   6.462   9.190   8.213  3.1466 -0.2248  2.2574
16106SOL     OW51594   3.069   3.997   2.765 -0.4128  0.3767  0.1973
16106SOL    HW151595   2.974   3.993   2.760 -0.4024  0.4904 -0.1265
16106SOL    HW251596   3.098   3.910   2.735 -0.4071  0.4315  0.0433
16107SOL     OW51597   2.929  10.602   4.708 -0.0821 -0.3182 -0.0767
16107SOL    HW151598   2.950  10.586   4.800 -1.3555  1.0340  0.4880
16107SOL    HW251599   2.964  10.688   4.690 -0.0291 -0.4908 -0.8017
16108SOL     OW51600   0.763   2.484   4.491  0.3024 -0.1425 -0.2380
16108SOL    HW151601   0.778   2.515   4.580 -1.7779 -0.1879  0.1682
16108SOL    HW251602   0.706   2.407   4.501  1.4278 -1.2027 -1.5229
16109SOL     OW51603   3.777   8.533   9.731 -1.0893 -0.1140  0.7241
16109SOL    HW151604   3.766   8.454   9.783 -0.8292 -1.1487 -0.7251
16109SOL    HW251605   3.865   8.525   9.694 -0.5308  1.5276  1.6020
16110SOL     OW51606   0.146   4.379   9.249 -0.3128 -0.6637 -0.8099
16110SOL    HW151607   0.062   4.416   9.222 -1.0786 -0.7078  1.2842
16110SOL    HW251608   0.131   4.284   9.248 -0.4957 -0.6571  0.0606
16111SOL     OW51609   8.825   5.256   8.606  0.5143  0.0072 -0.1754
16111SOL    HW151610   8.881   5.203   8.663  0.6440  0.5988  0.2503
16111SOL    HW251611   8.878   5.332   8.583 -0.1121  0.5818  0.2451
16112SOL     OW51612   5.339   1.742  11.310 -0.3802 -0.4786 -0.0568
16112SOL    HW151613   5.306   1.652  11.306  0.5931 -0.8214 -1.3762
16112SOL    HW251614   5.287   1.789  11.245 -0.5787 -0.2111  0.3012
16113SOL     OW51615  11.146   8.205   5.902  0.1450  0.2324 -0.5000
16113SOL    HW151616  11.168   8.122   5.859  0.4025  0.0671 -0.0534
16113SOL    HW251617  11.140   8.184   5.995 -0.5687  0.5608 -0.4626
16114SOL     OW51618  10.221   5.361   1.908  0.2298 -0.1884  0.3909
16114SOL    HW151619  10.255   5.283   1.952  0.5569  0.0751  0.6118
16114SOL    HW251620  10.252   5.434   1.961 -0.1814  0.0861  0.2531
16115SOL     OW51621   4.035   9.962   6.564  0.3941 -0.1498  0.4785
16115SOL    HW151622   4.009   9.922   6.482  1.1539  0.0965  0.1070
16115SOL    HW251623   3.957  10.008   6.595  0.3980  0.6357 -0.6369
16116SOL     OW51624   3.967   3.891   5.386 -0.6085  0.2574  0.1367
16116SOL    HW151625   3.894   3.906   5.446  0.3103 -1.1879  1.7038
16116SOL    HW251626   3.981   3.976   5.343 -0.6627  1.6799  2.7281
16117SOL     OW51627   3.025   9.314   4.039  0.2655 -0.3940  0.3406
16117SOL    HW151628   3.072   9.398   4.046  0.0103 -0.0530 -1.4535
16117SOL    HW251629   3.080   9.261   3.981 -0.5412 -0.7300 -0.1356
16118SOL     OW51630   7.908   6.611   6.727  0.0328  0.4142 -0.0373
16118SOL    HW151631   7.933   6.545   6.662 -1.4102 -1.3721  1.1274
16118SOL    HW251632   7.882   6.688   6.675  0.1523 -0.5014 -1.5065
16119SOL     OW51633   9.774   6.950   3.871 -0.4383  0.7550 -0.4273
16119SOL    HW151634   9.784   6.883   3.803  0.5369 -0.2859  0.6928
16119SOL    HW251635   9.837   7.018   3.847 -0.7207  0.8202 -1.0224
16120SOL     OW51636   2.972   9.451   3.513 -0.1239  0.0544  0.9662
16120SOL    HW151637   2.918   9.423   3.586  1.2872  0.3976  2.2023
16120SOL    HW251638   3.041   9.384   3.507 -1.1081 -0.8723 -1.1540
16121SOL     OW51639   7.062   5.928   0.190  0.3030 -0.3981  0.4306
16121SOL    HW151640   7.132   5.877   0.231  0.0040 -1.3062 -0.1521
16121SOL    HW251641   6.985   5.872   0.198 -0.3075  0.4889  0.8378
16122SOL     OW51642  11.281  10.016   0.390  0.0958 -0.6002  0.3158
16122SOL    HW151643  11.281  10.045   0.299 -1.1543 -0.3586  0.3715
16122SOL    HW251644  11.222  10.076   0.435  1.6816  0.0648  1.5739
16123SOL     OW51645   4.597  10.170   8.045  0.2963 -0.0752 -0.1898
16123SOL    HW151646   4.585  10.243   8.105  0.4809 -0.1791 -0.0264
16123SOL    HW251647   4.608  10.211   7.959  1.1215  0.1292  0.0001
16124SOL     OW51648  10.533   0.175   4.059  0.2010  0.6188  0.4173
16124SOL    HW151649  10.479   0.240   4.014 -0.4113 -0.3439 -0.2622
16124SOL    HW251650  10.472   0.125   4.113  0.8838  1.5999  2.2042
16125SOL     OW51651  11.332   7.893   1.753  0.4116 -0.3389  0.2555
16125SOL    HW151652  11.399   7.867   1.690 -0.9378  0.3320 -1.5217
16125SOL    HW251653  11.284   7.964   1.710 -0.6700  0.0531  1.9833
16126SOL     OW51654   2.845   2.277   6.652 -0.0417  0.2710  0.3128
16126SOL    HW151655   2.796   2.194   6.652 -1.4829  1.0813 -0.8777
16126SOL    HW251656   2.780   2.343   6.631  1.4878  1.4801 -0.7881
16127SOL     OW51657   7.537   9.912   1.460 -0.1343  0.4326 -0.4941
16127SOL    HW151658   7.470   9.867   1.410 -0.0393  1.5356 -1.6611
16127SOL    HW251659   7.524   9.883   1.550 -0.3924 -1.5023 -1.1107
16128SOL     OW51660   2.542   8.921   8.808  0.3722  0.2665 -0.4358
16128SOL    HW151661   2.544   8.980   8.732 -0.4335  0.1853 -0.5275
16128SOL    HW251662   2.449   8.916   8.832  0.3457 -1.4499 -0.8155
16129SOL     OW51663   8.794   3.378   5.915  0.0406  0.5205 -0.3247
16129SOL    HW151664   8.726   3.320   5.881 -0.4526  0.3751  0.8668
16129SOL    HW251665   8.749   3.461   5.933  0.0036  0.2405  1.0336
16130SOL     OW51666   7.346   3.301   2.646 -0.2610  0.4898 -0.1951
16130SOL    HW151667   7.338   3.215   2.604 -1.7963  0.7092 -0.4092
16130SOL    HW251668   7.409   3.348   2.592  0.8199 -0.5821  0.0877
16131SOL     OW51669   3.791   8.117  10.285 -0.1118  0.7634 -0.2670
16131SOL    HW151670   3.848   8.178  10.238 -0.0834 -0.0884 -1.3898
16131SOL    HW251671   3.836   8.101  10.368 -0.0875  2.1881  0.0052
16132SOL     OW51672   9.120   7.214   7.769  0.0760  0.4078 -0.1446
16132SOL    HW151673   9.034   7.219   7.810 -0.6249  0.3216 -1.5308
16132SOL    HW251674   9.113   7.140   7.708  1.5669 -0.4426  0.6722
16133SOL     OW51675   3.582   4.375  10.161  0.3070 -0.2606 -0.5242
16133SOL    HW151676   3.557   4.348  10.249 -0.5394 -0.2167 -0.7381
16133SOL    HW251677   3.583   4.471  10.164  0.7151 -0.2652 -0.4498
16134SOL     OW51678   7.102   9.758   7.814 -0.2692  0.0081  0.2646
16134SOL    HW151679   7.087   9.666   7.791  0.6581 -0.1909  0.3830
16134SOL    HW251680   7.026   9.783   7.866  0.0552 -1.0733  1.2989
16135SOL     OW51681   6.370   9.712   4.834  0.1490 -0.4312 -0.6285
16135SOL    HW151682   6.355   9.803   4.809  0.9224 -0.4832 -1.3107
16135SOL    HW251683   6.447   9.715   4.890 -0.8238 -0.4743  0.7534
16136SOL     OW51684  10.424   5.532   7.373 -0.5658  0.1895  0.0791
16136SOL    HW151685  10.434   5.446   7.332  1.6140 -0.0570  0.9779
16136SOL    HW251686  10.450   5.594   7.305 -1.1892  0.0939 -0.2577
16137SOL     OW51687   1.853   8.018   8.234 -0.7427 -0.2801  0.3729
16137SOL    HW151688   1.810   8.000   8.318  0.1981 -1.2105  0.6850
16137SOL    HW251689   1.880   7.931   8.203 -0.3178  0.1474 -0.4776
16138SOL     OW51690   5.722   6.699   1.855  0.0298  0.2433  0.3995
16138SOL    HW151691   5.669   6.774   1.827  0.4706  0.6972  0.7416
16138SOL    HW251692   5.706   6.693   1.949 -0.1186 -0.1911  0.3473
16139SOL     OW51693   5.254   9.623   3.901 -0.4984 -0.2099 -0.3275
16139SOL    HW151694   5.258   9.637   3.807  1.3314 -0.8631 -0.3838
16139SOL    HW251695   5.245   9.711   3.938 -2.0681 -0.0053 -1.1018
16140SOL     OW51696   9.002   8.969   5.499 -0.1314  0.0481  0.1293
16140SOL    HW151697   8.914   9.008   5.502 -0.4086 -0.5899  0.4041
16140SOL    HW251698   9.058   9.040   5.467 -0.9637  0.0730 -1.3558
16141SOL     OW51699   2.513   7.257   5.701  0.0728  0.2800  0.7628
16141SOL    HW151700   2.582   7.250   5.636  0.2478 -1.7845  1.1177
16141SOL    HW251701   2.558   7.277   5.783  0.3393 -1.5279  1.0864
16142SOL     OW51702  10.713   9.105   2.648 -0.0349 -0.4729 -0.0859
16142SOL    HW151703  10.805   9.129   2.648  0.2124 -1.1315  2.5120
16142SOL    HW251704  10.671   9.171   2.592  1.9917 -0.3533 -1.5890
16143SOL     OW51705   0.116   1.925   2.291 -0.0857 -0.4167  0.6241
16143SOL    HW151706   0.090   1.836   2.318 -1.6589  0.1278  1.0089
16143SOL    HW251707   0.068   1.939   2.209  1.7942 -0.6659 -0.5971
16144SOL     OW51708   9.731  11.164   5.372  0.4180 -0.2456 -0.6474
16144SOL    HW151709   9.778  11.119   5.442 -0.0361 -1.6884 -1.2324
16144SOL    HW251710   9.698  11.244   5.412  1.1610 -0.4738  0.4619
16145SOL     OW51711   8.035   2.502   2.776 -0.6178  0.0682  0.2044
16145SOL    HW151712   8.070   2.438   2.837  1.8095  0.5880 -0.5175
16145SOL    HW251713   8.009   2.450   2.699  0.0718 -0.1988  0.1454
16146SOL     OW51714   4.750   4.102   2.923  0.7025 -0.3296 -0.1049
16146SOL    HW151715   4.844   4.083   2.920  1.7953  3.9637 -2.4901
16146SOL    HW251716   4.743   4.180   2.979 -1.4649 -0.5367  0.0085
16147SOL     OW51717   4.110   7.981   6.228  0.3005  0.2273  0.1886
16147SOL    HW151718   4.191   7.981   6.178  0.3429 -0.8478  0.2467
16147SOL    HW251719   4.087   8.074   6.236  0.5217  0.4463 -1.4224
16148SOL     OW51720   3.664   2.812   9.018  0.1880  0.3584  0.3024
16148SOL    HW151721   3.683   2.893   9.065 -0.5381 -0.6478  2.4346
16148SOL    HW251722   3.738   2.754   9.039  0.9403  0.5516 -1.5745
16149SOL     OW51723   5.955   1.965   0.614 -0.3369 -0.1479 -0.1542
16149SOL    HW151724   5.929   2.051   0.645 -1.2902 -1.0930  1.7854
16149SOL    HW251725   5.910   1.955   0.530 -2.7219  0.0563  1.0291
16150SOL     OW51726   1.384   8.456   3.491  0.7583  0.0679 -0.0177
16150SOL    HW151727   1.461   8.508   3.512  0.2316  1.1950 -0.7671
16150SOL    HW251728   1.367   8.473   3.398 -0.5123  0.0248  0.1801
16151SOL     OW51729   0.979   1.244   8.865  0.0001  0.0321  0.2641
16151SOL    HW151730   0.972   1.316   8.927 -0.6536 -1.4125  1.9704
16151SOL    HW251731   0.901   1.191   8.880  0.6541 -1.2536 -0.6121
16152SOL     OW51732   3.605   0.030   3.215  0.0797  0.1388  0.0270
16152SOL    HW151733   3.589   0.124   3.213 -2.0599 -0.1761 -0.5225
16152SOL    HW251734   3.538  -0.005   3.273  1.1853 -1.0189  0.6571
16153SOL     OW51735   9.875  10.241   2.983 -0.5487  0.0626  0.5924
16153SOL    HW151736   9.846  10.162   3.029 -0.5972 -0.1237  0.2439
16153SOL    HW251737   9.794  10.290   2.968 -0.7523 -0.6215 -0.6895
16154SOL     OW51738   2.448   7.359   7.347  0.1789  0.3954  0.2885
16154SOL    HW151739   2.517   7.304   7.310 -0.3159 -0.6209  0.8422
16154SOL    HW251740   2.443   7.333   7.439  0.0592  1.5102  0.6086
16155SOL     OW51741   3.124   8.469  10.654  0.1517  0.0171 -0.1568
16155SOL    HW151742   3.177   8.548  10.646 -0.7733  0.5031 -1.9995
16155SOL    HW251743   3.053   8.494  10.713  1.9541 -0.7051  2.5153
16156SOL     OW51744   2.188   1.949   3.880  0.1518  0.1023 -0.1847
16156SOL    HW151745   2.156   1.867   3.843  0.6810  0.2612 -1.0223
16156SOL    HW251746   2.235   1.991   3.808 -0.5755  1.4025  0.0729
16157SOL     OW51747   6.926   1.877  10.526 -0.7478 -0.2374 -0.1058
16157SOL    HW151748   6.850   1.819  10.537 -0.0081 -1.4040 -0.9048
16157SOL    HW251749   6.928   1.897  10.433 -0.3517  0.1830 -0.0092
16158SOL     OW51750   5.413   6.321   8.665 -0.3711 -0.4040 -0.2704
16158SOL    HW151751   5.367   6.272   8.733 -2.3414 -0.9578 -1.8630
16158SOL    HW251752   5.446   6.399   8.709 -1.5536 -0.7523  1.3305
16159SOL     OW51753   5.820   5.713   2.793 -0.2522  0.2332  0.1171
16159SOL    HW151754   5.775   5.725   2.877  0.6041  0.1640  0.5986
16159SOL    HW251755   5.771   5.644   2.749 -0.9018  0.4892  0.4231
16160SOL     OW51756   4.473   8.616  10.940 -0.6980 -0.4057  0.0956
16160SOL    HW151757   4.405   8.612  10.872  0.9075  0.6684 -1.6648
16160SOL    HW251758   4.473   8.707  10.969  0.3256 -0.2512 -0.3377
16161SOL     OW51759   5.037   5.238   8.365  0.0587  0.4776 -0.3020
16161SOL    HW151760   5.111   5.285   8.404 -0.3880  1.7319 -0.9030
16161SOL    HW251761   5.051   5.147   8.390  1.3507  0.8105  0.3015
16162SOL     OW51762   3.601   0.749   5.094 -0.1967 -0.6883 -0.1563
16162SOL    HW151763   3.510   0.779   5.097 -1.1632 -3.3898  2.3418
16162SOL    HW251764   3.650   0.817   5.140 -1.1929  0.0288 -0.1013
16163SOL     OW51765   9.773   3.231   8.774  0.3534  0.7953 -0.1256
16163SOL    HW151766   9.705   3.169   8.750  1.7202 -0.7118 -0.2849
16163SOL    HW251767   9.733   3.317   8.762 -0.7192  0.0180 -2.7547
16164SOL     OW51768   2.143   8.113   0.255 -0.4191  0.3097  0.1471
16164SOL    HW151769   2.181   8.050   0.316 -0.4282  0.4531  0.3034
16164SOL    HW251770   2.091   8.172   0.311 -0.9025  0.0937 -0.0722
16165SOL     OW51771   0.385   5.362   6.410  0.4666 -0.5011  0.0514
16165SOL    HW151772   0.291   5.375   6.392 -0.2971 -1.8320  2.5748
16165SOL    HW251773   0.412   5.443   6.454  0.3778 -0.3009 -0.2613
16166SOL     OW51774   9.254   7.019   9.811  0.0789  1.0474 -0.0538
16166SOL    HW151775   9.323   7.084   9.819  1.4292 -0.5344  2.1115
16166SOL    HW251776   9.292   6.949   9.757 -0.6907  1.1937 -0.8084
16167SOL     OW51777   7.250   1.277   5.484  0.0202 -0.2398 -0.0367
16167SOL    HW151778   7.171   1.240   5.445 -1.3101  0.7339  1.6103
16167SOL    HW251779   7.229   1.370   5.495  1.7424  0.2152 -0.3464
16168SOL     OW51780   3.855   7.533  11.071 -0.0069  0.7479  0.8778
16168SOL    HW151781   3.946   7.512  11.052 -0.1357  1.6090 -0.9014
16168SOL    HW251782   3.858   7.624  11.100 -0.3143  0.8439  0.6120
16169SOL     OW51783   3.267   1.643   7.478 -0.3328 -0.5373  0.2570
16169SOL    HW151784   3.275   1.628   7.384 -1.1398  0.7674 -0.0486
16169SOL    HW251785   3.335   1.588   7.517 -0.8094 -2.0804 -0.9731
16170SOL     OW51786   3.445   1.781   2.963 -0.4832 -0.0539 -0.1959
16170SOL    HW151787   3.535   1.802   2.989 -0.2869 -1.1696  0.0660
16170SOL    HW251788   3.391   1.845   3.008  0.1973  0.8714 -0.6489
16171SOL     OW51789  10.561  10.688   8.949  0.2397 -0.0798  0.0791
16171SOL    HW151790  10.512  10.768   8.966  1.0374  0.3485  0.4218
16171SOL    HW251791  10.567  10.683   8.854  0.1316  0.2395  0.0556
16172SOL     OW51792   8.873   8.907   5.910  0.5365  0.0147  0.0361
16172SOL    HW151793   8.864   9.002   5.909  0.4805  0.0963  2.5542
16172SOL    HW251794   8.943   8.889   5.848  0.0313  1.6050 -1.0569
16173SOL     OW51795   8.614   8.300   5.503 -0.1802 -0.1167  0.5982
16173SOL    HW151796   8.658   8.297   5.418 -0.3064  0.4177  0.5065
16173SOL    HW251797   8.546   8.233   5.498 -0.9272  0.6780 -0.1506
16174SOL     OW51798   6.093   0.087   9.872  0.0603  0.0154  0.0627
16174SOL    HW151799   6.088  -0.007   9.888 -0.9257  0.0196 -0.1901
16174SOL    HW251800   6.002   0.116   9.870  0.2818  0.7025 -1.4866
16175SOL     OW51801  11.151   0.861   9.369 -0.1602  0.0305  0.8601
16175SOL    HW151802  11.093   0.904   9.433  0.4548  0.2911  1.2500
16175SOL    HW251803  11.112   0.774   9.358 -0.5765  0.1653  1.1891
16176SOL     OW51804   2.074   5.596   9.741 -0.5729  0.1394 -0.0489
16176SOL    HW151805   2.126   5.636   9.810  0.0977  0.3685 -0.6669
16176SOL    HW251806   1.985   5.629   9.755 -0.0754  1.7371 -0.4250
16177SOL     OW51807   6.636   7.330   9.590 -0.1108  0.2793 -0.5165
16177SOL    HW151808   6.695   7.317   9.664 -0.4654 -0.8880 -0.4137
16177SOL    HW251809   6.638   7.424   9.574  0.3719  0.4874  0.6477
16178SOL     OW51810  11.145  10.303   9.231  0.0864  0.2284  0.7675
16178SOL    HW151811  11.184  10.273   9.313 -2.7346 -2.2866  1.3493
16178SOL    HW251812  11.069  10.355   9.258  0.1680  0.9216 -0.2776
16179SOL     OW51813   5.183   4.893   3.455  0.2068 -0.6316 -0.1328
16179SOL    HW151814   5.130   4.921   3.380 -0.1000 -1.3607 -0.1998
16179SOL    HW251815   5.197   4.973   3.506 -1.9130 -0.5914  0.4825
16180SOL     OW51816  11.397   2.556   6.612 -0.0951 -0.3782 -0.2631
16180SOL    HW151817  11.431   2.645   6.600 -0.2784 -0.0120  1.7464
16180SOL    HW251818  11.303   2.567   6.622 -0.1396 -0.8170 -0.1937
16181SOL     OW51819   8.697   0.090   9.502 -0.1540  0.4193 -0.0049
16181SOL    HW151820   8.705   0.095   9.407  1.5338  0.8591  0.1265
16181SOL    HW251821   8.696  -0.004   9.521  0.3834  0.3266 -0.4030
16182SOL     OW51822   0.952   9.389   5.957  0.0697  0.2562 -0.6311
16182SOL    HW151823   1.042   9.385   5.988 -1.2668 -0.0903  4.0398
16182SOL    HW251824   0.933   9.300   5.927  0.2191 -0.9444  2.4656
16183SOL     OW51825   0.220   3.993  10.326 -0.2221  0.4531  0.2582
16183SOL    HW151826   0.261   3.908  10.345  0.1568  0.7322  0.7089
16183SOL    HW251827   0.197   3.988  10.233  0.0312 -0.0459  0.2189
16184SOL     OW51828   3.905   0.790   2.866  0.3264  0.4199 -0.0632
16184SOL    HW151829   3.961   0.720   2.832  1.6646  1.4983 -0.1357
16184SOL    HW251830   3.963   0.864   2.879 -0.6713  0.9313  1.9487
16185SOL     OW51831   1.134   0.419   0.494 -0.3368 -0.2768 -0.0150
16185SOL    HW151832   1.073   0.402   0.422  0.9149  0.4840 -1.2961
16185SOL    HW251833   1.127   0.514   0.509 -0.8473 -0.4819  1.1243
16186SOL     OW51834   0.219   6.683   4.835 -0.1910 -0.3409  0.0114
16186SOL    HW151835   0.211   6.736   4.755 -1.7541 -2.3172 -1.2476
16186SOL    HW251836   0.311   6.658   4.839  0.0496  0.3725 -0.7558
16187SOL     OW51837   4.476   3.651   7.369 -0.0125  0.1265 -0.2824
16187SOL    HW151838   4.460   3.724   7.310 -0.7250 -0.0887 -0.3755
16187SOL    HW251839   4.478   3.573   7.313  2.1368  0.1944 -0.3560
16188SOL     OW51840  10.567   8.687   3.448 -0.3507 -0.2447 -0.7732
16188SOL    HW151841  10.643   8.721   3.496 -1.1259  0.9552 -0.3380
16188SOL    HW251842  10.545   8.605   3.493  1.1527 -1.0468 -1.4209
16189SOL     OW51843   9.237   7.929  11.038 -0.3359  0.1441 -0.3012
16189SOL    HW151844   9.213   7.927  11.131 -0.7037 -2.9308 -0.3435
16189SOL    HW251845   9.318   7.879  11.033 -0.7112 -0.3844 -1.6745
16190SOL     OW51846   5.795   5.373   3.624  0.4357  0.1800  0.2794
16190SOL    HW151847   5.785   5.299   3.684 -1.1312  0.8231  0.8922
16190SOL    HW251848   5.854   5.433   3.670  0.0910  0.1938  0.7161
16191SOL     OW51849   5.731   2.547   9.415 -0.2235 -0.2604  0.5237
16191SOL    HW151850   5.767   2.529   9.328  0.0169 -1.0090  0.7714
16191SOL    HW251851   5.649   2.593   9.397  0.2201  0.3201 -0.0761
16192SOL     OW51852   0.369   1.750   5.853 -0.2195 -0.0757 -0.5520
16192SOL    HW151853   0.457   1.719   5.832 -0.7490 -1.0971 -1.3459
16192SOL    HW251854   0.350   1.816   5.786  0.5906  1.4398  0.6539
16193SOL     OW51855   8.558   9.650   4.433  0.1369 -1.1134  0.1062
16193SOL    HW151856   8.591   9.570   4.475  0.0248  0.6651  4.0825
16193SOL    HW251857   8.466   9.631   4.415  0.0144 -1.8431  1.3223
16194SOL     OW51858  10.859   8.725   6.973 -0.3652  0.3368  0.3844
16194SOL    HW151859  10.895   8.782   7.042 -0.7766  0.0904  0.8051
16194SOL    HW251860  10.791   8.674   7.017 -0.0250 -0.4618 -0.0016
16195SOL     OW51861   2.607   9.979   5.109 -0.0030 -0.5044  0.2505
16195SOL    HW151862   2.687  10.000   5.061 -0.1802 -1.0733 -0.3061
16195SOL    HW251863   2.580  10.063   5.148  0.5417 -0.1862 -0.0455
16196SOL     OW51864   2.857   6.454   0.033  0.2454  0.2211 -0.5885
16196SOL    HW151865   2.884   6.414  -0.050 -0.9091 -0.9796 -0.3987
16196SOL    HW251866   2.775   6.411   0.055  0.3139  0.8456  0.9675
16197SOL     OW51867  11.040   4.242   1.453 -0.3848  0.0075 -0.1675
16197SOL    HW151868  10.972   4.285   1.504 -0.0698 -0.1694  0.4101
16197SOL    HW251869  11.028   4.275   1.364 -2.0037 -0.9876 -0.3391
16198SOL     OW51870   0.266   8.123   7.936 -0.4058  0.1064  0.5542
16198SOL    HW151871   0.256   8.086   7.848 -0.5268 -0.7837  0.9280
16198SOL    HW251872   0.313   8.205   7.922  1.2736 -0.9223 -0.1823
16199SOL     OW51873   8.688   0.911   8.172  0.3811 -0.1468  0.2624
16199SOL    HW151874   8.620   0.845   8.182 -0.2774 -0.0414 -2.6426
16199SOL    HW251875   8.745   0.877   8.103  2.7468  0.2626  1.8651
16200SOL     OW51876   3.258   2.391   4.503  0.4100 -0.1543  0.3617
16200SOL    HW151877   3.353   2.403   4.507  0.7582 -1.9656 -1.1838
16200SOL    HW251878   3.242   2.308   4.548 -0.3308 -0.2655 -0.0809
16201SOL     OW51879   6.168   7.527   9.525  0.1457 -0.4911  0.2174
16201SOL    HW151880   6.238   7.543   9.462 -0.1273 -0.5457 -0.0998
16201SOL    HW251881   6.109   7.601   9.514  0.1429 -0.4542  0.4741
16202SOL     OW51882   8.622   1.835   8.093 -0.5510 -0.0190 -0.0866
16202SOL    HW151883   8.673   1.909   8.126  0.4149 -0.8896  0.4391
16202SOL    HW251884   8.595   1.788   8.172  0.7280 -1.4408 -0.4535
16203SOL     OW51885   4.846   9.383  10.099 -0.0138 -0.2883 -0.1629
16203SOL    HW151886   4.908   9.374  10.172 -0.7948 -1.4037  0.3906
16203SOL    HW251887   4.878   9.459  10.050 -0.1252  1.2721  2.0093
16204SOL     OW51888   1.937   2.791   8.635 -0.2719  0.6901  0.1823
16204SOL    HW151889   1.990   2.869   8.652 -1.5157  1.2893  1.4620
16204SOL    HW251890   1.978   2.723   8.689  1.9808 -0.1529 -2.3428
16205SOL     OW51891   5.233   8.253   4.075  0.0893  0.6388  0.5218
16205SOL    HW151892   5.317   8.247   4.121  0.5738 -0.0995 -0.4274
16205SOL    HW251893   5.209   8.163   4.056  0.3925  0.9270 -1.4911
16206SOL     OW51894   9.669   5.945  10.917  0.2929 -0.3682  0.3281
16206SOL    HW151895   9.737   5.989  10.866  0.6370  1.0103  1.8684
16206SOL    HW251896   9.589   5.995  10.899  0.4437  0.2075  1.2100
16207SOL     OW51897   1.928  11.045   0.775 -0.1060 -0.3258  0.1577
16207SOL    HW151898   1.903  10.953   0.773 -1.8159  0.0619  1.0893
16207SOL    HW251899   1.846  11.092   0.795  0.9242  1.2814  0.8880
16208SOL     OW51900  10.296   1.114   8.755 -0.1582  0.7159 -0.1437
16208SOL    HW151901  10.212   1.071   8.768 -1.0236  1.9391 -1.4851
16208SOL    HW251902  10.343   1.057   8.694  0.8909 -1.0744  2.2180
16209SOL     OW51903   5.786   2.823   3.225 -0.3685  0.2902  0.0467
16209SOL    HW151904   5.818   2.736   3.200  0.3296  0.6817 -0.4489
16209SOL    HW251905   5.692   2.811   3.238 -0.4331 -0.3321 -0.9236
16210SOL     OW51906  10.869   5.319   4.353  0.0406  0.3070 -0.4290
16210SOL    HW151907  10.841   5.405   4.385  0.1012  0.1275  0.1241
16210SOL    HW251908  10.963   5.316   4.371 -0.0068  0.0282 -0.2227
16211SOL     OW51909   2.467   7.526   1.181 -0.2384 -0.4230 -0.7184
16211SOL    HW151910   2.481   7.511   1.274  1.9414  1.1570 -0.7311
16211SOL    HW251911   2.535   7.473   1.138  0.2275  0.6041 -1.2771
16212SOL     OW51912  10.769   4.216   1.189  0.3614 -0.4077  0.6682
16212SOL    HW151913  10.693   4.190   1.136 -1.1839  1.1483  2.0300
16212SOL    HW251914  10.802   4.133   1.226 -0.1627 -1.1878 -0.5598
16213SOL     OW51915   5.583   3.624   3.541 -0.0843  0.2311 -0.7223
16213SOL    HW151916   5.530   3.580   3.475  0.1955 -0.5275 -0.4456
16213SOL    HW251917   5.643   3.557   3.573 -0.7319  0.3615  0.8725
16214SOL     OW51918   8.959   0.592   4.091  0.0488 -0.2847 -0.2174
16214SOL    HW151919   8.967   0.686   4.078  0.3259 -0.3510 -0.5210
16214SOL    HW251920   9.049   0.560   4.093 -0.0695 -0.6861 -1.1332
16215SOL     OW51921   2.681   4.026   2.074  0.3051  0.4526 -0.9446
16215SOL    HW151922   2.719   4.019   1.986 -0.2252  0.7740 -1.2027
16215SOL    HW251923   2.709   4.112   2.105  0.5529  0.3098 -0.7640
16216SOL     OW51924   2.423   7.136   7.883 -0.2895  0.1970 -0.5425
16216SOL    HW151925   2.359   7.103   7.820  0.8203 -0.4783 -1.3411
16216SOL    HW251926   2.422   7.072   7.954  1.5686 -1.4682 -1.9008
16217SOL     OW51927  10.932   8.644   0.619  0.1205  0.5839  0.0379
16217SOL    HW151928  10.889   8.572   0.667 -0.6158  1.2293  0.3679
16217SOL    HW251929  10.883   8.650   0.537  0.5494  0.3396 -0.2395
16218SOL     OW51930   9.901   8.186   7.904  0.2790  0.5405  0.6311
16218SOL    HW151931   9.870   8.238   7.830 -0.0091  0.3650  0.6285
16218SOL    HW251932   9.883   8.095   7.879 -0.0380  0.4965  1.0173
16219SOL     OW51933   1.225   6.777   3.738  0.6114  0.1730  0.0050
16219SOL    HW151934   1.294   6.712   3.730  0.2960 -0.2401  0.6069
16219SOL    HW251935   1.251   6.847   3.678 -0.4115 -1.7020 -2.8340
16220SOL     OW51936   1.812   0.610   8.306 -0.1474  0.8273 -0.2783
16220SOL    HW151937   1.736   0.552   8.307  1.1768 -1.1031 -2.2475
16220SOL    HW251938   1.877   0.566   8.361  1.1527 -0.0795 -2.4352
16221SOL     OW51939   4.515   2.021   7.791 -0.1702  0.1702  0.0235
16221SOL    HW151940   4.570   2.034   7.869  0.1416 -0.2419 -0.1228
16221SOL    HW251941   4.433   2.067   7.812  0.4956  1.4574 -0.0620
16222SOL     OW51942   4.634   2.596  10.510  0.1064  0.4125  0.3697
16222SOL    HW151943   4.672   2.683  10.500 -1.1021  0.9549  0.3025
16222SOL    HW251944   4.655   2.551  10.429  0.9441  0.5574  0.5019
16223SOL     OW51945   0.654  10.208   4.017  0.1063  0.1953  0.2623
16223SOL    HW151946   0.711  10.152   3.965  0.4897 -0.0546  0.9449
16223SOL    HW251947   0.569  10.201   3.974  0.8995  1.8380 -1.7355
16224SOL     OW51948   6.482   6.761   7.172  0.3100  0.2497 -0.5011
16224SOL    HW151949   6.401   6.746   7.221  1.2683  3.2064  2.3941
16224SOL    HW251950   6.547   6.705   7.215  0.6557  1.1142  0.1407
16225SOL     OW51951   5.720  10.078   5.961 -0.2445  0.0349  0.2596
16225SOL    HW151952   5.808  10.110   5.940 -0.1636 -0.2989  0.0722
16225SOL    HW251953   5.663  10.153   5.947 -0.0641  0.0838 -0.2360
16226SOL     OW51954   2.621  10.811  10.387 -0.2173 -0.5280  0.4774
16226SOL    HW151955   2.682  10.764  10.329 -0.0736 -0.5077  0.6119
16226SOL    HW251956   2.656  10.900  10.391 -0.6340 -0.3384  0.0143
16227SOL     OW51957   6.733   9.990   2.680  0.6768 -0.2875  0.2572
16227SOL    HW151958   6.679  10.035   2.745  0.0075  0.6131 -0.8989
16227SOL    HW251959   6.673   9.930   2.636  1.0215 -0.5325  0.1154
16228SOL     OW51960   0.677   3.624   3.308 -0.5065  0.7377  0.2564
16228SOL    HW151961   0.606   3.562   3.325  0.8414 -0.9362 -0.0451
16228SOL    HW251962   0.734   3.618   3.385  1.0529 -0.4543 -0.9378
16229SOL     OW51963   1.442   1.967  10.440 -0.1186  0.3568  0.0172
16229SOL    HW151964   1.382   1.958  10.366 -1.2239 -0.0294  0.9372
16229SOL    HW251965   1.390   1.945  10.517  1.3816 -0.6451  0.8037
16230SOL     OW51966   2.146   5.765   5.443  0.0922  0.1053  0.6204
16230SOL    HW151967   2.053   5.785   5.430  0.3653  2.3700  1.7074
16230SOL    HW251968   2.148   5.715   5.525 -0.2104 -0.7838  0.1079
16231SOL     OW51969   2.510   9.546  11.315  0.1636 -0.2645  0.1682
16231SOL    HW151970   2.461   9.516  11.239  2.0591  0.3814 -1.3963
16231SOL    HW251971   2.540   9.466  11.358 -0.1496 -0.6410 -0.3107
16232SOL     OW51972   2.173   7.430   7.961 -0.3214 -0.6909  0.1799
16232SOL    HW151973   2.175   7.408   8.054  0.8175 -1.3800  0.0043
16232SOL    HW251974   2.090   7.395   7.930  0.3738 -2.6690  0.4329
16233SOL     OW51975   9.987   4.290   2.762 -0.1404 -0.4440 -0.4014
16233SOL    HW151976  10.047   4.217   2.770 -0.2884 -0.7043 -1.5040
16233SOL    HW251977  10.032   4.363   2.804  1.2294 -0.4801 -1.7296
16234SOL     OW51978   1.180   2.389   6.303 -0.5043 -0.0368 -0.0270
16234SOL    HW151979   1.127   2.324   6.351 -2.1307  0.5169 -0.9819
16234SOL    HW251980   1.134   2.472   6.319 -0.4103  0.3327 -1.5625
16235SOL     OW51981  10.953   7.350   0.319 -0.3306 -0.0594  0.0701
16235SOL    HW151982  10.987   7.427   0.365  2.2512 -1.9081  1.5660
16235SOL    HW251983  10.939   7.380   0.229 -1.4311  2.6166  1.0309
16236SOL     OW51984   0.752   2.601   8.232  0.9695 -0.1123  0.2532
16236SOL    HW151985   0.684   2.533   8.237 -2.5898  3.1786  1.4933
16236SOL    HW251986   0.781   2.611   8.323  0.3781  0.9247  0.3444
16237SOL     OW51987   7.191   9.673  10.806  0.8759  0.5980  0.1202
16237SOL    HW151988   7.098   9.690  10.824  0.8057  0.0346  0.3236
16237SOL    HW251989   7.205   9.704  10.717 -0.3045 -2.1741 -1.1551
16238SOL     OW51990   1.814   7.404   6.259  0.4825  0.3916 -0.6624
16238SOL    HW151991   1.743   7.390   6.321  1.5670  1.3926  0.8842
16238SOL    HW251992   1.893   7.381   6.307  1.2944  0.0116 -2.0944
16239SOL     OW51993   2.295   2.311   2.014 -0.2598 -0.0998 -0.1355
16239SOL    HW151994   2.351   2.234   2.000 -0.9323 -0.6910  0.3751
16239SOL    HW251995   2.227   2.304   1.947 -1.7354 -1.2997  1.4028
16240SOL     OW51996  10.931   2.418  10.637  0.5617  0.1229  0.2708
16240SOL    HW151997  10.904   2.425  10.545  0.3725  2.1909  0.4354
16240SOL    HW251998  11.001   2.353  10.636 -1.2920 -2.0126 -0.8648
16241SOL     OW51999   0.620   2.240   4.438  0.1922 -0.3665  0.1280
16241SOL    HW152000   0.698   2.228   4.493 -0.4662 -0.9950  0.9335
16241SOL    HW252001   0.599   2.152   4.407  0.9336  0.0494 -1.6946
16242SOL     OW52002   9.657   2.995   2.232  1.1359 -0.0119  0.2490
16242SOL    HW152003   9.657   3.061   2.163  0.9193 -1.5191 -1.2597
16242SOL    HW252004   9.567   2.995   2.265  1.2627  0.7792  0.6237
16243SOL     OW52005   0.365   9.821   9.959  0.4546 -0.5006 -0.0719
16243SOL    HW152006   0.425   9.763   9.912 -0.5154 -0.6035 -1.2118
16243SOL    HW252007   0.389   9.909   9.929  0.5486 -0.4824  0.0582
16244SOL     OW52008   0.611   7.437   4.835  0.2856  0.0225  0.9825
16244SOL    HW152009   0.520   7.438   4.864 -0.6523 -0.2267 -1.6322
16244SOL    HW252010   0.635   7.530   4.826 -0.1428  0.0986  0.5680
16245SOL     OW52011   8.996   1.141  10.799 -0.4076  0.1749  0.0606
16245SOL    HW152012   9.014   1.059  10.844  0.3637 -1.6100 -3.1617
16245SOL    HW252013   8.903   1.136  10.776  0.1700 -1.2046 -2.3960
16246SOL     OW52014   0.881   3.687   0.447 -0.0789  0.4208  0.7735
16246SOL    HW152015   0.902   3.779   0.461 -0.4102  0.7526 -0.7403
16246SOL    HW252016   0.808   3.669   0.505 -0.3104  1.2463  0.7457
16247SOL     OW52017   1.137  10.909   0.030 -0.0819 -0.2329 -0.0657
16247SOL    HW152018   1.105  10.869   0.110  0.8280 -0.8881 -0.0168
16247SOL    HW252019   1.060  10.953  -0.007 -0.6863 -0.5644  0.7638
16248SOL     OW52020   4.218  10.499   5.230 -0.1294  0.2523 -0.0215
16248SOL    HW152021   4.231  10.450   5.148 -0.1970 -2.5499  1.5338
16248SOL    HW252022   4.296  10.478   5.282 -0.7483  0.8469  1.1616
16249SOL     OW52023   0.030   6.239   8.824 -0.0492 -0.0136  0.1741
16249SOL    HW152024  -0.049   6.189   8.803  0.3779  0.8098 -4.2142
16249SOL    HW252025   0.101   6.176   8.818 -0.0031  0.0679 -0.1851
16250SOL     OW52026   6.775   6.416   0.435  0.1431 -0.5252  0.0901
16250SOL    HW152027   6.783   6.322   0.416  1.9881 -0.4427  0.2821
16250SOL    HW252028   6.831   6.458   0.369 -1.5629  0.5516 -0.7251
16251SOL     OW52029   8.464   2.724   0.166  0.1836 -0.5054 -0.3498
16251SOL    HW152030   8.416   2.805   0.149 -3.1343 -2.4801 -1.2414
16251SOL    HW252031   8.426   2.690   0.247 -2.2824 -3.5238 -2.5181
16252SOL     OW52032   5.652   0.990   8.848 -0.0809  0.0809 -0.3575
16252SOL    HW152033   5.613   1.077   8.833  1.0189  0.5380 -0.6425
16252SOL    HW252034   5.643   0.946   8.763 -0.2205  0.0820 -0.3443
16253SOL     OW52035   7.976   2.501   1.182  0.0262  0.7318 -0.1261
16253SOL    HW152036   8.007   2.412   1.200 -0.9869 -0.4739 -3.5343
16253SOL    HW252037   8.031   2.557   1.236  0.5111 -1.9366  2.3852
16254SOL     OW52038   5.159   0.710   5.420 -0.4815  0.3474  0.4665
16254SOL    HW152039   5.192   0.639   5.476 -0.6917 -1.3961 -1.5087
16254SOL    HW252040   5.118   0.666   5.347  0.3388  2.5236 -1.4396
16255SOL     OW52041   3.159  10.591   9.424  0.2674 -0.5952 -0.0261
16255SOL    HW152042   3.240  10.633   9.394  0.8721 -2.3740 -1.0189
16255SOL    HW252043   3.098  10.663   9.437  1.3055  0.6158 -1.5176
16256SOL     OW52044  10.582   1.172   6.162  0.0292  0.3700  0.7501
16256SOL    HW152045  10.650   1.222   6.207  3.0550  0.6898 -3.5864
16256SOL    HW252046  10.601   1.081   6.182  2.7147  0.3628 -1.2730
16257SOL     OW52047   4.117   1.121   3.067  0.3010 -0.3186 -0.1754
16257SOL    HW152048   4.129   1.209   3.104  1.9382 -0.5929  0.0185
16257SOL    HW252049   4.120   1.063   3.143  1.1066 -0.6715 -0.4622
16258SOL     OW52050   6.605   6.501   8.429 -0.1700 -0.2515  0.3157
16258SOL    HW152051   6.661   6.557   8.483 -0.8192  0.1021  0.6455
16258SOL    HW252052   6.522   6.549   8.423 -1.7867 -2.3983  2.9903
16259SOL     OW52053   7.958   2.424   4.593  0.3243 -0.0061  0.3228
16259SOL    HW152054   7.889   2.467   4.542 -0.1306  0.0069  0.9502
16259SOL    HW252055   7.982   2.488   4.660  2.5155  0.9184 -1.2043
16260SOL     OW52056   9.170   5.727   4.055 -0.1962  0.1197  0.0472
16260SOL    HW152057   9.084   5.749   4.018  0.1209  1.0406 -0.1518
16260SOL    HW252058   9.162   5.634   4.078 -1.7487  0.5295  1.3976
16261SOL     OW52059   4.734   2.670   4.316 -0.8249  0.3026  0.9169
16261SOL    HW152060   4.779   2.721   4.383 -1.6069 -0.1640  1.8303
16261SOL    HW252061   4.696   2.596   4.364 -1.7919  0.2036  0.0424
16262SOL     OW52062   6.792   1.438   6.927  0.0030  0.0612  0.2454
16262SOL    HW152063   6.780   1.527   6.892 -0.1593 -0.5534 -1.3499
16262SOL    HW252064   6.736   1.435   7.004 -0.4620  1.1611 -0.0242
16263SOL     OW52065   8.831  11.318   1.768  0.3777 -0.1245  0.3112
16263SOL    HW152066   8.899  11.308   1.702  1.0676  0.3463  0.9272
16263SOL    HW252067   8.752  11.280   1.728  0.8648 -0.1846 -0.6231
16264SOL     OW52068   5.415   5.855   2.166  0.1708 -0.1567  0.3250
16264SOL    HW152069   5.322   5.868   2.187 -0.3668 -1.9125 -0.7846
16264SOL    HW252070   5.417   5.841   2.072  1.5835 -0.1166  0.3321
16265SOL     OW52071   5.689   9.907   3.632  0.3469 -0.2698 -0.4360
16265SOL    HW152072   5.695   9.995   3.670  1.7566 -0.3153 -0.4914
16265SOL    HW252073   5.780   9.877   3.626 -0.0810 -1.5784 -0.7935
16266SOL     OW52074  10.122   0.506   5.029 -0.0863 -0.4366  0.4657
16266SOL    HW152075  10.159   0.438   5.086  1.7071 -0.2224 -0.3767
16266SOL    HW252076  10.149   0.481   4.941 -0.8406  0.4823 -0.0436
16267SOL     OW52077   0.942   7.614   3.587 -0.0066  0.2267  0.1843
16267SOL    HW152078   0.851   7.586   3.593  0.0197 -0.2668 -1.2378
16267SOL    HW252079   0.968   7.590   3.498  1.0875  1.6606  0.0901
16268SOL     OW52080   7.375  10.877   1.509  0.3853  0.1112  0.8121
16268SOL    HW152081   7.286  10.843   1.517  1.3503 -2.5442  1.1533
16268SOL    HW252082   7.417  10.819   1.445  1.0539  3.2149 -1.7904
16269SOL     OW52083   5.551   2.462   2.900 -0.2300 -0.1409 -0.0295
16269SOL    HW152084   5.487   2.530   2.921 -0.2921 -0.3330  0.4037
16269SOL    HW252085   5.499   2.386   2.876 -0.1835 -0.5423  1.0846
16270SOL     OW52086   3.946   8.305  11.320  0.0352 -0.2025 -0.2207
16270SOL    HW152087   3.870   8.350  11.358 -0.3242 -1.2993  0.4021
16270SOL    HW252088   4.017   8.320  11.382  0.2259  0.4548 -0.5863
16271SOL     OW52089   9.005   2.868   7.465 -0.2439  0.4262  0.0038
16271SOL    HW152090   9.053   2.842   7.387 -0.4228  0.3710 -0.0889
16271SOL    HW252091   9.014   2.963   7.469  0.1234  0.3860  0.1519
16272SOL     OW52092   7.389   0.499   9.632 -0.1758 -0.3181  0.1557
16272SOL    HW152093   7.419   0.447   9.557 -2.4871 -2.8142  0.7780
16272SOL    HW252094   7.396   0.590   9.603  1.8152 -1.0470 -1.9316
16273SOL     OW52095   0.264   5.227   1.943 -0.3579  0.2088  0.5385
16273SOL    HW152096   0.185   5.262   1.902 -0.6437  0.9140  1.6407
16273SOL    HW252097   0.233   5.178   2.019  0.2029 -0.3465  0.4138
16274SOL     OW52098   6.411   1.112   0.731  0.3464  0.4702 -0.0173
16274SOL    HW152099   6.359   1.039   0.697 -0.5528  0.9327  0.3470
16274SOL    HW252100   6.501   1.079   0.731  0.2588  0.1319 -1.9625
16275SOL     OW52101  10.343   8.077   2.281 -0.6908 -0.2667 -0.1391
16275SOL    HW152102  10.274   8.031   2.233 -1.6032 -0.7539  1.5599
16275SOL    HW252103  10.407   8.009   2.302 -0.8172 -0.2810  0.2187
16276SOL     OW52104   1.013   8.858  10.869  0.0859 -0.0295 -0.4244
16276SOL    HW152105   0.932   8.807  10.875  0.2748 -0.2616  0.2589
16276SOL    HW252106   1.035   8.878  10.960 -0.1999  1.6352 -0.6844
16277SOL     OW52107   3.789   3.773   1.476 -0.5048  0.0834 -0.2460
16277SOL    HW152108   3.799   3.861   1.514 -0.0147  0.3947 -1.0790
16277SOL    HW252109   3.695   3.765   1.460 -0.4568  0.7813 -0.9198
16278SOL     OW52110   2.282   6.729   9.026 -0.0639 -0.0289  0.2911
16278SOL    HW152111   2.211   6.682   9.069 -0.5294  1.4228  1.1957
16278SOL    HW252112   2.267   6.821   9.049  0.6565  0.6156 -1.5980
16279SOL     OW52113  11.129   4.474   8.805  0.3299 -0.1598  0.0387
16279SOL    HW152114  11.080   4.462   8.886  1.1229 -1.0700  0.4029
16279SOL    HW252115  11.156   4.385   8.780  1.4808  0.2789 -0.3327
16280SOL     OW52116   7.334   3.964   8.349 -0.7976 -0.0848 -0.3173
16280SOL    HW152117   7.393   4.021   8.398 -1.3984  1.2613 -1.0962
16280SOL    HW252118   7.376   3.878   8.352  0.1618  0.3883  0.8533
16281SOL     OW52119  10.274  10.425   1.048 -0.4853  0.5351 -0.2515
16281SOL    HW152120  10.197  10.406   1.102  0.3686  1.0184  1.2058
16281SOL    HW252121  10.348  10.398   1.103  0.4608  2.0369 -0.7418
16282SOL     OW52122   3.996   5.813  11.392 -0.1648 -0.0757  0.0983
16282SOL    HW152123   3.914   5.832  11.439 -0.2868  0.1980 -0.2269
16282SOL    HW252124   3.969   5.756  11.320 -0.0153 -0.2703  0.1943
16283SOL     OW52125   5.557  11.277   2.585  0.5682  0.0732 -0.1458
16283SOL    HW152126   5.598  11.192   2.597  0.8295 -0.0565 -1.7429
16283SOL    HW252127   5.472  11.257   2.546  1.6425  0.5841 -2.9802
16284SOL     OW52128  10.586   1.722   0.098  0.3812 -0.2179  0.7138
16284SOL    HW152129  10.629   1.714   0.012  1.2640  0.5305  1.0712
16284SOL    HW252130  10.602   1.638   0.140 -2.9857 -1.9781 -1.0950
16285SOL     OW52131   0.977   7.261   3.508 -0.5506  0.1742 -0.2642
16285SOL    HW152132   1.057   7.314   3.512 -2.6342  3.6583 -1.1871
16285SOL    HW252133   0.935   7.274   3.593 -2.6493  2.9132 -1.5722
16286SOL     OW52134   7.648   6.893   3.924  0.1788  0.1443  0.4585
16286SOL    HW152135   7.650   6.869   3.832  1.9539  0.2070  0.4444
16286SOL    HW252136   7.734   6.868   3.957 -0.3603  0.2951  2.0628
16287SOL     OW52137  10.380   4.380   5.136 -0.2001  0.1580 -0.2500
16287SOL    HW152138  10.426   4.303   5.167 -1.0759 -0.8563 -1.3620
16287SOL    HW252139  10.367   4.365   5.042 -0.0971  1.8185 -0.5728
16288SOL     OW52140   9.980   6.368   9.796  0.0698 -0.3959  0.1668
16288SOL    HW152141   9.916   6.400   9.859 -0.9087  0.3546 -1.1630
16288SOL    HW252142  10.037   6.443   9.779 -0.3963 -0.2381 -0.7206
16289SOL     OW52143   3.501   9.761   5.386  0.2371 -0.0593  0.2333
16289SOL    HW152144   3.419   9.739   5.429  0.8422  0.7882  1.9240
16289SOL    HW252145   3.543   9.677   5.368 -0.7860 -0.4778 -0.2585
16290SOL     OW52146   8.518   5.613   8.317 -0.1887  0.2112 -0.0481
16290SOL    HW152147   8.549   5.527   8.344 -0.7122 -0.0624 -0.3023
16290SOL    HW252148   8.549   5.673   8.385 -1.5510 -0.4665  1.2238
16291SOL     OW52149   0.942   0.981   2.872  0.0393  0.2339  0.0128
16291SOL    HW152150   1.001   0.913   2.907  0.1509  0.4035  0.1558
16291SOL    HW252151   0.977   1.063   2.907  0.4498  0.4645 -0.9001
16292SOL     OW52152   1.529   4.350   6.809  0.4952 -0.0626  0.5390
16292SOL    HW152153   1.575   4.345   6.893  0.7538 -0.6213  0.3625
16292SOL    HW252154   1.467   4.422   6.821 -2.9008 -3.0302  2.9435
16293SOL     OW52155  11.172   8.625  10.912 -0.5036  0.1358  0.5770
16293SOL    HW152156  11.120   8.675  10.849  1.4846  0.5513 -0.8190
16293SOL    HW252157  11.175   8.680  10.990 -0.6355  0.9437  0.0241
16294SOL     OW52158   6.014   6.468   0.883  0.0159  0.5841  0.1266
16294SOL    HW152159   5.985   6.392   0.833 -0.0676 -0.6800  1.9783
16294SOL    HW252160   6.105   6.482   0.854  0.0649 -0.2904 -0.1821
16295SOL     OW52161   2.754   0.819   4.307  0.1291 -0.3573  0.5686
16295SOL    HW152162   2.823   0.759   4.335  0.7048  0.2130  0.3996
16295SOL    HW252163   2.774   0.901   4.352 -0.4428 -0.1819  0.5174
16296SOL     OW52164   6.408   8.045   3.277 -0.2743  0.5369 -0.0337
16296SOL    HW152165   6.441   8.076   3.361  0.4551 -0.7185  0.1759
16296SOL    HW252166   6.404   7.950   3.287 -2.3186  0.4952 -0.6675
16297SOL     OW52167   9.641   1.348   9.768  0.3365 -0.1054 -0.3484
16297SOL    HW152168   9.616   1.278   9.828 -0.2227  0.6987  0.3789
16297SOL    HW252169   9.737   1.341   9.762  0.2972 -0.8597 -0.2136
16298SOL     OW52170   8.688   6.932   9.350 -0.1863 -0.5459 -0.5361
16298SOL    HW152171   8.597   6.938   9.381  0.1189 -1.3771  0.5860
16298SOL    HW252172   8.683   6.950   9.256 -1.0317  3.3155  0.0493
16299SOL     OW52173   5.996   5.935   5.702 -0.0472 -0.9141  0.2940
16299SOL    HW152174   5.953   5.850   5.704  0.3106 -1.1164 -0.2832
16299SOL    HW252175   6.068   5.928   5.765 -1.5417 -0.1727  2.1890
16300SOL     OW52176   3.579   3.799   1.753  0.0553 -0.3071  0.3072
16300SOL    HW152177   3.547   3.839   1.672  0.6799  1.9090  1.0703
16300SOL    HW252178   3.501   3.762   1.794 -0.4498 -0.4771 -0.7765
16301SOL     OW52179   4.561   3.093   3.788 -0.1750  0.0740  0.1029
16301SOL    HW152180   4.475   3.110   3.827  0.3479  0.5007  1.1252
16301SOL    HW252181   4.591   3.012   3.831  0.6054  0.8008  0.9725
16302SOL     OW52182   2.942   7.393   5.810  0.0161  0.0400  0.0679
16302SOL    HW152183   2.928   7.306   5.773 -0.9847  1.0422 -2.0866
16302SOL    HW252184   2.858   7.437   5.801  0.5761  1.3346  0.8533
16303SOL     OW52185   8.488  10.487   9.756 -0.5183  0.2855  0.6192
16303SOL    HW152186   8.548  10.493   9.830 -1.6703  3.0760  1.4183
16303SOL    HW252187   8.504  10.567   9.705 -1.0231 -0.7065 -1.2060
16304SOL     OW52188   6.119   7.776  11.308 -0.0140  0.1361  0.4458
16304SOL    HW152189   6.054   7.705  11.317 -1.4238  1.5018  1.7704
16304SOL    HW252190   6.102   7.813  11.222 -1.0822  0.5019  0.7891
16305SOL     OW52191   2.038   1.711   5.531 -0.2063  0.1381 -0.0193
16305SOL    HW152192   2.063   1.789   5.581  1.1491  0.6865 -1.4635
16305SOL    HW252193   2.090   1.717   5.451 -0.3716 -2.0562 -0.3430
16306SOL     OW52194  10.777   8.490   2.724  0.4307  0.6631 -0.0796
16306SOL    HW152195  10.718   8.532   2.662  0.7655 -0.1008 -0.9386
16306SOL    HW252196  10.844   8.556   2.742  0.2047  0.9687 -0.3470
16307SOL     OW52197  10.554   9.133   9.588  0.3907  0.3317 -0.4161
16307SOL    HW152198  10.640   9.097   9.611 -0.1255 -0.5021  0.3117
16307SOL    HW252199  10.573   9.216   9.545  1.5759 -0.0590 -0.6951
16308SOL     OW52200   5.557   0.539   4.741  0.0078 -0.1302  0.0268
16308SOL    HW152201   5.616   0.495   4.803  0.8940  1.6199  0.4835
16308SOL    HW252202   5.611   0.607   4.701 -1.6080  1.2793  0.1634
16309SOL     OW52203   2.976   9.814   3.083 -0.7103  0.1304  0.6804
16309SOL    HW152204   2.899   9.763   3.059  0.3443 -1.5342  0.6943
16309SOL    HW252205   3.007   9.852   3.000  0.0629 -1.5330  0.1746
16310SOL     OW52206   6.682   0.575   7.792 -0.6999  0.1688 -0.1867
16310SOL    HW152207   6.640   0.626   7.861 -0.4753  1.6651 -1.1128
16310SOL    HW252208   6.736   0.512   7.838 -0.6984  1.0159  1.0130
16311SOL     OW52209   0.662   8.325   9.553 -0.6553  0.3501 -0.1693
16311SOL    HW152210   0.741   8.379   9.557 -0.5699  0.3457 -1.3779
16311SOL    HW252211   0.674   8.260   9.622  0.1513  0.6706  0.0042
16312SOL     OW52212   8.570   0.291   3.487  0.4293 -0.0741  0.3635
16312SOL    HW152213   8.637   0.308   3.553 -1.0168  2.3054  1.3299
16312SOL    HW252214   8.488   0.287   3.535 -0.2654 -2.2434 -0.8789
16313SOL     OW52215   3.565   1.735   4.210  0.5941  0.4194 -0.1575
16313SOL    HW152216   3.620   1.662   4.182  0.5135  0.0176  0.7166
16313SOL    HW252217   3.547   1.719   4.303  0.3031  1.3743 -0.0295
16314SOL     OW52218   4.463   7.610   8.060  0.3861 -0.2542  0.0787
16314SOL    HW152219   4.371   7.592   8.079  0.4692  0.0036  0.7344
16314SOL    HW252220   4.461   7.654   7.975 -0.0268 -0.9818 -0.3007
16315SOL     OW52221   2.678   9.689   8.362 -0.1462  0.2058 -0.1093
16315SOL    HW152222   2.745   9.670   8.428  0.9926  0.2112 -1.2263
16315SOL    HW252223   2.598   9.648   8.396  0.8932 -1.5785  0.3098
16316SOL     OW52224   5.876   0.615   7.981  0.0301 -0.2351 -0.1136
16316SOL    HW152225   5.872   0.701   8.022 -1.8244 -1.1665  1.8371
16316SOL    HW252226   5.909   0.557   8.050  1.3141 -1.1362 -1.4150
16317SOL     OW52227   4.743   7.879   6.148 -0.2995  0.4928 -0.4155
16317SOL    HW152228   4.689   7.866   6.070  0.0784  1.1133 -0.7920
16317SOL    HW252229   4.743   7.974   6.161  1.5674  0.6264 -1.0665
16318SOL     OW52230   5.412   9.626   9.631 -0.1926 -0.6953  0.3044
16318SOL    HW152231   5.338   9.664   9.584  1.8386  0.1664 -2.4836
16318SOL    HW252232   5.417   9.536   9.599  0.0916 -0.6750  0.2897
16319SOL     OW52233   2.418   5.687  10.150  0.5995 -0.0827  0.3598
16319SOL    HW152234   2.386   5.736  10.226  0.3599 -2.5009  1.9306
16319SOL    HW252235   2.513   5.685  10.161  0.6353  0.2315  0.1356
16320SOL     OW52236   0.658   3.053   2.257 -0.0091 -0.1166 -0.8538
16320SOL    HW152237   0.590   3.085   2.196  0.4500  1.0486 -0.7748
16320SOL    HW252238   0.685   3.131   2.305  0.2015 -0.8905  0.3003
16321SOL     OW52239   4.551   5.752   5.847 -0.4132  0.5935 -0.3926
16321SOL    HW152240   4.557   5.825   5.908  2.1163  0.6570 -0.6052
16321SOL    HW252241   4.627   5.698   5.866 -1.2780 -1.0765 -1.4140
16322SOL     OW52242   3.357   6.984   0.519  0.4638 -0.0397 -0.2435
16322SOL    HW152243   3.274   6.937   0.509 -0.0786  0.8731 -0.2414
16322SOL    HW252244   3.424   6.921   0.495 -0.0731 -1.4569  1.7522
16323SOL     OW52245   5.262   8.190   4.365  0.2510  0.2105  0.1650
16323SOL    HW152246   5.340   8.213   4.315 -0.2770 -1.0256 -1.3118
16323SOL    HW252247   5.206   8.267   4.359  1.1976  0.9870  0.9675
16324SOL     OW52248   1.462   5.819   5.518  0.0808 -0.3096 -0.2825
16324SOL    HW152249   1.445   5.912   5.504 -1.3185 -0.3694  0.8573
16324SOL    HW252250   1.517   5.816   5.596  2.6505 -0.3300 -1.9628
16325SOL     OW52251   8.732   8.575   3.783 -0.0417  0.8212  0.4436
16325SOL    HW152252   8.750   8.527   3.701 -0.0447 -2.0743  1.9998
16325SOL    HW252253   8.819   8.589   3.821 -0.1469  0.1595  0.9499
16326SOL     OW52254   6.093   1.642   3.956 -0.1606 -0.0068  0.4543
16326SOL    HW152255   6.132   1.707   3.897  0.8101 -1.4174 -0.5403
16326SOL    HW252256   6.067   1.570   3.898 -0.3925 -0.8746  1.6003
16327SOL     OW52257   8.861   6.483   5.395  0.5313  0.1660 -0.0395
16327SOL    HW152258   8.810   6.411   5.433  0.7505  0.5392  0.9916
16327SOL    HW252259   8.830   6.489   5.305  2.0776 -2.6775 -0.8889
16328SOL     OW52260   2.934   6.129   6.648 -0.0388 -0.1385  0.2858
16328SOL    HW152261   3.018   6.087   6.667 -1.1985 -2.5252  0.4296
16328SOL    HW252262   2.877   6.105   6.721 -1.7352 -1.2117 -1.3075
16329SOL     OW52263   9.528   9.375   8.344 -0.2984 -0.0536  1.1794
16329SOL    HW152264   9.484   9.341   8.266 -1.1695  1.8769  0.7690
16329SOL    HW252265   9.523   9.303   8.407 -0.9384 -1.1194 -0.0281
16330SOL     OW52266   7.765   4.155   5.408  0.0523  0.1860  0.1337
16330SOL    HW152267   7.698   4.159   5.340  0.4609  1.3873 -0.2281
16330SOL    HW252268   7.839   4.110   5.366  0.5228  1.4443 -0.4477
16331SOL     OW52269   6.848   3.208   9.049 -0.1188  0.4837 -0.3345
16331SOL    HW152270   6.834   3.139   9.114 -0.4598 -0.2840 -1.2003
16331SOL    HW252271   6.762   3.220   9.009  0.4598 -0.4214 -1.9510
16332SOL     OW52272   6.408   1.656   5.321 -0.3837 -0.3090  0.4142
16332SOL    HW152273   6.412   1.745   5.356  0.3659 -0.0702 -0.2561
16332SOL    HW252274   6.489   1.646   5.271 -1.9047 -0.2355 -2.2074
16333SOL     OW52275   2.504   5.381   3.730 -0.0662  0.0752 -0.5454
16333SOL    HW152276   2.443   5.365   3.801 -0.0636  0.1334 -0.5302
16333SOL    HW252277   2.449   5.401   3.655 -0.2090 -2.4055 -1.2182
16334SOL     OW52278   9.228  11.295   8.211  0.5184  0.5038  0.1842
16334SOL    HW152279   9.133  11.302   8.210  0.4585  0.3320 -2.2625
16334SOL    HW252280   9.249  11.259   8.297 -1.7089 -0.3407  0.4377
16335SOL     OW52281   5.618   7.368   5.294 -0.0578  0.0884 -0.1900
16335SOL    HW152282   5.602   7.454   5.255 -0.8033  0.3972  0.7573
16335SOL    HW252283   5.683   7.327   5.236  0.7415  1.5045 -0.3477
16336SOL     OW52284   7.447   4.118  10.889 -0.1110  0.3300  0.1972
16336SOL    HW152285   7.505   4.124  10.965 -1.1879 -0.3894  1.1049
16336SOL    HW252286   7.427   4.025  10.882 -1.7559  0.6390  0.3930
16337SOL     OW52287   9.474   6.615   7.894 -0.1108  0.8120 -0.1969
16337SOL    HW152288   9.426   6.538   7.864 -0.2509  0.9354 -0.2924
16337SOL    HW252289   9.507   6.591   7.980  1.0922  0.1047 -0.8352
16338SOL     OW52290   6.651   9.443   8.271 -0.0027 -0.5280 -0.0415
16338SOL    HW152291   6.718   9.377   8.287  1.2003  1.2777  3.1560
16338SOL    HW252292   6.698   9.516   8.232 -0.7717 -0.4008 -0.7791
16339SOL     OW52293   7.547   4.701   1.744 -0.5166  0.2233  0.1196
16339SOL    HW152294   7.632   4.679   1.707 -0.0752  2.2490 -0.1760
16339SOL    HW252295   7.509   4.762   1.680 -1.6487  0.3242  0.8655
16340SOL     OW52296   4.209   7.283  10.527  0.8011 -0.4567  0.2589
16340SOL    HW152297   4.304   7.276  10.520  0.7732  0.1266 -0.9370
16340SOL    HW252298   4.192   7.377  10.533  0.2565 -0.4832 -0.6402
16341SOL     OW52299   6.652   6.413   8.160 -0.0078  0.1134 -0.1190
16341SOL    HW152300   6.741   6.388   8.184  0.0039 -0.3109 -0.5743
16341SOL    HW252301   6.600   6.397   8.239  0.7691  3.0708  1.1126
16342SOL     OW52302   8.252   6.314  10.551  0.2348  0.5373  0.1653
16342SOL    HW152303   8.269   6.404  10.523 -0.9930  0.9583  0.6999
16342SOL    HW252304   8.210   6.323  10.637 -2.2920 -0.3869 -0.8752
16343SOL     OW52305   8.311  10.278   9.732 -0.4918 -0.8481  0.5555
16343SOL    HW152306   8.366  10.341   9.687  0.5450 -2.2406 -0.2038
16343SOL    HW252307   8.372  10.227   9.785 -0.9250 -2.7014 -0.6311
16344SOL     OW52308   2.320   2.106   3.706 -0.0712 -0.3004 -0.4459
16344SOL    HW152309   2.359   2.189   3.680 -0.1240  0.0370  0.5128
16344SOL    HW252310   2.394   2.045   3.710  1.2725  1.1721  5.0136
16345SOL     OW52311   1.303   8.893   7.295  0.1517 -0.0629  0.3063
16345SOL    HW152312   1.249   8.814   7.288 -0.1602  0.1722 -0.0110
16345SOL    HW252313   1.372   8.880   7.230 -1.0570  0.8081 -1.2259
16346SOL     OW52314   0.006   6.924   0.884 -0.4607 -0.7702  0.3616
16346SOL    HW152315   0.025   6.830   0.883  2.9552 -0.2393 -2.0340
16346SOL    HW252316  -0.078   6.933   0.839 -0.9615 -2.6544  0.8448
16347SOL     OW52317   3.060   6.634   6.479  0.2534 -0.7463 -0.1608
16347SOL    HW152318   2.991   6.630   6.545  0.7859 -4.1275  0.3678
16347SOL    HW252319   3.027   6.582   6.405  1.5900 -1.1473 -0.5103
16348SOL     OW52320   5.744   3.139   2.536  0.2338 -0.1719  0.2535
16348SOL    HW152321   5.827   3.166   2.573  0.1159 -1.2058  1.3341
16348SOL    HW252322   5.678   3.179   2.592  0.0556 -1.9163  1.3742
16349SOL     OW52323  10.970   1.672   1.013 -0.1402  0.4985  0.4379
16349SOL    HW152324  10.894   1.730   1.011 -0.9565 -0.5425 -2.0184
16349SOL    HW252325  11.020   1.694   0.934  1.7771  0.6617  1.6249
16350SOL     OW52326   2.141   5.002   6.066 -0.0913  0.2000  0.3067
16350SOL    HW152327   2.077   5.066   6.096 -1.5503  0.1842 -2.4385
16350SOL    HW252328   2.199   5.053   6.008  0.2990 -0.4489  0.1207
16351SOL     OW52329   1.949  11.250   5.004 -0.6926 -0.2613 -0.2431
16351SOL    HW152330   1.945  11.212   5.091  1.3990 -1.4319 -0.5943
16351SOL    HW252331   1.968  11.176   4.946  0.2212  0.8257 -1.3855
16352SOL     OW52332   6.677   5.007   9.506  0.1521 -0.1499  0.7663
16352SOL    HW152333   6.641   4.951   9.575  1.2693  0.9141  2.2703
16352SOL    HW252334   6.623   5.087   9.509  0.3876  0.0188  0.5892
16353SOL     OW52335   5.677   9.645  10.881 -0.0673  0.0467  0.1176
16353SOL    HW152336   5.617   9.719  10.889 -2.2748 -1.7792  2.0596
16353SOL    HW252337   5.627   9.579  10.833  0.3656 -1.4985  1.7046
16354SOL     OW52338   7.136   9.428   0.045 -0.2269  0.4047  0.3777
16354SOL    HW152339   7.196   9.360   0.076  0.3105  1.0288  0.7335
16354SOL    HW252340   7.161   9.506   0.094 -2.0784  0.4215  1.3705
16355SOL     OW52341   4.389   1.903   3.091 -0.3095  0.1484 -0.2517
16355SOL    HW152342   4.335   1.874   3.164  0.6806 -1.6981 -0.1674
16355SOL    HW252343   4.360   1.850   3.017  1.6948 -1.3357 -0.0572
16356SOL     OW52344   7.697   7.804   6.449  0.3349  0.6211 -0.1626
16356SOL    HW152345   7.677   7.714   6.477  1.1385  0.6615  0.6058
16356SOL    HW252346   7.633   7.823   6.380  1.5174 -1.3394 -1.9220
16357SOL     OW52347   1.702   5.980   9.146  0.1702 -0.4304 -0.0719
16357SOL    HW152348   1.759   6.014   9.077 -0.0773 -0.1939 -0.1637
16357SOL    HW252349   1.683   6.057   9.201  1.6597 -0.9078  1.1971
16358SOL     OW52350   7.320   3.033  10.721  0.0434  0.2974  0.3203
16358SOL    HW152351   7.329   3.105  10.783 -2.0593  1.1592 -0.2942
16358SOL    HW252352   7.298   3.075  10.638 -1.7120 -1.0182  0.0547
16359SOL     OW52353   9.179  11.312   5.413  0.3631 -0.0184 -0.2766
16359SOL    HW152354   9.251  11.249   5.412  2.6632  2.4369 -0.4858
16359SOL    HW252355   9.166  11.334   5.506 -0.2281 -0.5491 -0.2281
16360SOL     OW52356  10.063   8.269   8.762  0.5606  0.6724 -0.2220
16360SOL    HW152357  10.035   8.195   8.815  0.7239 -1.0483 -2.3772
16360SOL    HW252358  10.158   8.264   8.762  0.5828  1.1013 -0.0802
16361SOL     OW52359   4.304   8.903   5.422 -0.3743  0.5265  0.0137
16361SOL    HW152360   4.356   8.956   5.361  0.0206  0.3871  0.2245
16361SOL    HW252361   4.228   8.957   5.441  0.1201  1.1098  0.3803
16362SOL     OW52362   4.284   1.030   6.005 -0.0258 -0.2356 -0.9566
16362SOL    HW152363   4.195   1.006   5.979  0.6678 -2.2821 -1.6947
16362SOL    HW252364   4.321   1.073   5.927 -0.8153  2.1584 -0.1068
16363SOL     OW52365   7.508   0.447   4.041 -0.1675 -0.1722  0.0724
16363SOL    HW152366   7.602   0.441   4.024 -0.2352  0.8530 -0.7986
16363SOL    HW252367   7.469   0.381   3.985  0.0234 -0.5130  0.3394
16364SOL     OW52368   4.094   9.003  10.013  0.2157 -0.5446  0.1339
16364SOL    HW152369   4.127   8.915   9.999 -0.5528 -1.0526  1.3555
16364SOL    HW252370   4.083   9.010  10.108 -2.6727 -0.2432 -0.1283
16365SOL     OW52371   9.915   4.860   5.549 -0.2844  0.1313 -0.6803
16365SOL    HW152372   9.968   4.929   5.508  1.7905 -1.3488 -0.6246
16365SOL    HW252373   9.864   4.824   5.476  1.9178 -1.1518 -1.7118
16366SOL     OW52374  11.130   8.975  10.085  0.2091  0.2837  0.8882
16366SOL    HW152375  11.225   8.990  10.082  0.3221  0.3063  2.9960
16366SOL    HW252376  11.103   9.009  10.170 -1.8187  0.8008  0.1131
16367SOL     OW52377  11.326   8.552   6.533  0.4301 -0.1918 -0.4192
16367SOL    HW152378  11.411   8.590   6.511  1.2633 -1.7115 -0.0033
16367SOL    HW252379  11.326   8.467   6.489 -0.7614 -0.3344 -0.1783
16368SOL     OW52380  11.271   7.983   5.765 -0.1336  0.2979 -0.0020
16368SOL    HW152381  11.263   7.993   5.670  0.0013  0.3868 -0.0055
16368SOL    HW252382  11.263   7.889   5.780  0.5994  0.1995 -0.1813
16369SOL     OW52383   6.234   9.621   0.546 -0.4813 -0.1005  0.3501
16369SOL    HW152384   6.231   9.534   0.506  3.2009 -0.4453  0.4611
16369SOL    HW252385   6.288   9.673   0.486 -1.4138  1.7209  1.0127
16370SOL     OW52386   1.683   1.979  10.573  0.0116  0.1730 -0.1284
16370SOL    HW152387   1.601   1.972  10.525  0.5591  0.1977 -1.0932
16370SOL    HW252388   1.725   1.894  10.562  0.5002  0.4403 -0.3668
16371SOL     OW52389   8.600   5.039   6.918  0.5259 -0.6326 -0.2189
16371SOL    HW152390   8.617   5.110   6.980 -1.4754 -0.3657  0.0654
16371SOL    HW252391   8.654   5.061   6.842 -0.0506  1.2346 -0.1474
16372SOL     OW52392  10.371   7.103   4.624  0.4886 -0.4169  0.0291
16372SOL    HW152393  10.410   7.118   4.710  1.9190  1.4167 -0.8432
16372SOL    HW252394  10.422   7.031   4.587  0.4112 -0.6654  0.4063
16373SOL     OW52395   9.820   9.834   2.332  0.1928  0.2777  0.2475
16373SOL    HW152396   9.877   9.841   2.255  0.6066  3.8302  0.6997
16373SOL    HW252397   9.880   9.819   2.404  0.3223  1.2607  0.3654
16374SOL     OW52398   3.536   9.412   8.280 -0.4057  0.0548 -0.1927
16374SOL    HW152399   3.618   9.459   8.290  0.3151 -1.0696 -0.6249
16374SOL    HW252400   3.557   9.321   8.304 -1.7635 -0.0688  0.6956
16375SOL     OW52401   9.724   5.660   2.462  1.0152 -0.2595  0.0684
16375SOL    HW152402   9.792   5.701   2.515  1.8948  1.2874 -2.1133
16375SOL    HW252403   9.763   5.578   2.431  1.6311  0.2591 -0.5575
16376SOL     OW52404   0.486   4.105   4.790  0.0157 -0.1582 -0.0985
16376SOL    HW152405   0.512   4.126   4.880  0.9520 -1.4143 -0.0537
16376SOL    HW252406   0.557   4.051   4.756  0.1146  1.0213 -1.9183
16377SOL     OW52407   7.373   1.675   5.304 -0.0555 -0.5162 -0.3911
16377SOL    HW152408   7.335   1.754   5.265  0.9524  0.1583 -0.0376
16377SOL    HW252409   7.299   1.613   5.310 -1.0641  0.6950  0.1398
16378SOL     OW52410   6.171   7.267   1.723  0.4935 -0.1360  0.6532
16378SOL    HW152411   6.208   7.223   1.646 -1.4833 -0.0180 -0.4156
16378SOL    HW252412   6.126   7.343   1.688  0.3224  0.4231  2.0505
16379SOL     OW52413   7.045   8.548   7.412 -0.1574  0.0679 -0.5508
16379SOL    HW152414   7.061   8.533   7.505  0.6906  0.2208 -0.6627
16379SOL    HW252415   7.091   8.477   7.368  0.2046  0.5016 -0.8844
16380SOL     OW52416   9.129  10.164  10.667  0.2068  0.4639 -0.3187
16380SOL    HW152417   9.134  10.246  10.717  2.8821 -0.3701  0.9777
16380SOL    HW252418   9.170  10.184  10.583  2.1732  0.2147  0.5128
16381SOL     OW52419   3.834   5.834   2.954  0.1420 -0.3977  0.9922
16381SOL    HW152420   3.868   5.774   2.888  0.8066  0.3295  0.6569
16381SOL    HW252421   3.776   5.893   2.906 -0.9380 -1.1013  1.4140
16382SOL     OW52422   9.864   7.005  10.991  0.0642 -0.2789 -0.6705
16382SOL    HW152423   9.848   6.915  11.019 -1.8424  0.0576 -0.4978
16382SOL    HW252424   9.930   7.038  11.052 -2.3932 -0.2497  2.2204
16383SOL     OW52425   4.124   6.983   0.140  0.3759 -0.1211 -0.0036
16383SOL    HW152426   4.132   7.048   0.069  0.2236 -1.0740 -0.9160
16383SOL    HW252427   4.187   7.012   0.206 -0.5567  1.6418  0.1646
16384SOL     OW52428   0.656   7.717   3.927  0.2041  0.1235  0.2157
16384SOL    HW152429   0.680   7.654   3.995 -0.3332 -0.2594  0.0594
16384SOL    HW252430   0.740   7.746   3.890  0.4773 -0.0454  0.6941
16385SOL     OW52431   2.440   6.401   5.524 -0.0628  0.0809  0.6389
16385SOL    HW152432   2.360   6.384   5.473 -0.0182  0.7209  0.3571
16385SOL    HW252433   2.481   6.475   5.481  2.6127 -2.3938 -1.4930
16386SOL     OW52434   6.065   2.487   7.021 -0.3276  0.8519 -0.0750
16386SOL    HW152435   6.027   2.410   7.063 -0.7013 -0.0907 -2.0125
16386SOL    HW252436   6.027   2.488   6.933  1.3099  2.0063 -0.8378
16387SOL     OW52437   8.859   4.673   9.047  0.4474  0.5283 -0.1906
16387SOL    HW152438   8.905   4.590   9.036  0.6753  0.6571 -0.2206
16387SOL    HW252439   8.868   4.716   8.961  1.8023  1.3221  0.3051
16388SOL     OW52440  10.234   9.298   3.351  0.4977  0.2630  0.2997
16388SOL    HW152441  10.277   9.219   3.317  0.9681  0.6247  0.0367
16388SOL    HW252442  10.187   9.268   3.428  0.0412 -0.4260 -0.2314
16389SOL     OW52443   4.594   0.768  10.754 -0.0253  0.6108  0.0113
16389SOL    HW152444   4.642   0.723  10.823  1.3411  1.5864 -0.2679
16389SOL    HW252445   4.543   0.699  10.711 -1.2098  0.0445  2.1964
16390SOL     OW52446   4.083   6.102   7.518 -0.2302 -0.1813 -0.5291
16390SOL    HW152447   4.082   6.007   7.530 -1.7512 -0.3508 -1.7040
16390SOL    HW252448   4.146   6.117   7.447  0.0628 -0.2967 -0.2941
16391SOL     OW52449   3.375   5.382  11.276 -0.1302  0.1929 -0.0801
16391SOL    HW152450   3.328   5.298  11.276 -0.5446  0.4098  0.6177
16391SOL    HW252451   3.387   5.402  11.369  1.8435 -0.1137 -0.2258
16392SOL     OW52452  11.058   8.566   8.725  0.5782  0.2387  0.0655
16392SOL    HW152453  11.098   8.559   8.639 -0.0142  1.4838 -0.3309
16392SOL    HW252454  11.050   8.660   8.741 -1.2131  0.0413  0.5730
16393SOL     OW52455   8.967   6.098   9.462  0.0121 -0.3383  0.3969
16393SOL    HW152456   8.893   6.048   9.426 -0.6688  0.6269  0.4230
16393SOL    HW252457   8.933   6.187   9.472  0.3132 -0.4543  2.9991
16394SOL     OW52458   2.648   5.446   8.772 -0.5217  0.0518  0.4545
16394SOL    HW152459   2.724   5.444   8.714 -0.8178 -1.2702  0.0697
16394SOL    HW252460   2.608   5.531   8.758 -0.7082 -0.3107 -1.4632
16395SOL     OW52461   3.521   2.509   9.321 -0.7430  0.2423 -0.1836
16395SOL    HW152462   3.557   2.594   9.345 -1.9404  0.4172  1.1033
16395SOL    HW252463   3.596   2.450   9.322 -0.3190  0.7410  1.6820
16396SOL     OW52464   2.067   1.410   2.476  0.5616 -0.0417  0.3066
16396SOL    HW152465   2.012   1.340   2.439  2.8808 -0.9595 -1.6788
16396SOL    HW252466   2.011   1.488   2.473 -1.2045 -1.2586  0.0339
16397SOL     OW52467   9.922   0.423   8.321  0.0488 -0.7446  0.6150
16397SOL    HW152468   9.983   0.350   8.335  1.5468  0.5325  1.0217
16397SOL    HW252469   9.925   0.472   8.404 -0.9653 -0.2400  0.3659
16398SOL     OW52470   8.314   7.398   0.901  0.1825 -0.2895  0.3191
16398SOL    HW152471   8.296   7.305   0.885 -1.0191 -0.2590  1.3029
16398SOL    HW252472   8.397   7.399   0.948  0.7380 -0.7733 -0.6219
16399SOL     OW52473   5.350   4.198   9.583  0.4837  0.3134  0.1900
16399SOL    HW152474   5.376   4.109   9.560  1.0455 -0.0202  1.9664
16399SOL    HW252475   5.370   4.206   9.677  3.0623  3.2050 -0.4547
16400SOL     OW52476   3.293   4.135   7.405  0.3378 -0.1525  0.0731
16400SOL    HW152477   3.252   4.130   7.319 -0.5708  0.2551  0.4686
16400SOL    HW252478   3.229   4.182   7.460  1.7225  1.3765  0.4721
16401SOL     OW52479   4.231   7.792   0.874  0.3509  0.2852  0.4806
16401SOL    HW152480   4.284   7.863   0.911  1.3038 -0.4638  0.5971
16401SOL    HW252481   4.202   7.742   0.951  2.2457 -1.2136  0.2955
16402SOL     OW52482   9.298   3.453   8.944 -0.3717 -0.0740  0.3981
16402SOL    HW152483   9.379   3.437   8.894 -0.3120  0.2058  0.4024
16402SOL    HW252484   9.327   3.459   9.035 -0.3605  0.2740  0.3749
16403SOL     OW52485   5.826   7.444   9.513  0.3499  0.1988  0.0125
16403SOL    HW152486   5.789   7.435   9.601  0.9574  1.5538  0.4273
16403SOL    HW252487   5.804   7.533   9.487 -1.2256 -0.6702 -1.8966
16404SOL     OW52488   8.910   8.693   7.180 -0.1525  0.0133 -0.3334
16404SOL    HW152489   8.942   8.625   7.122 -1.2639 -0.7392 -0.0943
16404SOL    HW252490   8.988   8.727   7.224  0.4737 -0.6964 -0.8883
16405SOL     OW52491   2.283   3.536   1.975 -0.0648 -0.0182 -0.1894
16405SOL    HW152492   2.245   3.568   2.057  0.7804  0.1779  0.1370
16405SOL    HW252493   2.299   3.443   1.991  0.6878  0.1558  0.1023
16406SOL     OW52494   1.769  10.795   1.113  0.2428 -0.0725 -0.2096
16406SOL    HW152495   1.695  10.762   1.163  0.6772 -0.3455  0.2765
16406SOL    HW252496   1.837  10.728   1.124  1.2527  1.0759  1.0463
16407SOL     OW52497   8.464   9.575   8.450 -0.5490  0.3345  0.3705
16407SOL    HW152498   8.546   9.606   8.489  0.1688 -0.1605 -0.7186
16407SOL    HW252499   8.396   9.618   8.502  0.3491 -0.3791  2.2538
16408SOL     OW52500   4.443   3.384   4.378 -0.1083 -0.2126 -0.1954
16408SOL    HW152501   4.391   3.305   4.362  1.5012 -1.7779  1.7922
16408SOL    HW252502   4.500   3.392   4.302 -0.5600 -0.7313 -0.5911
16409SOL     OW52503   7.861   1.061   6.956  0.2329 -0.2735 -0.7130
16409SOL    HW152504   7.780   1.044   7.004  0.0833  0.3781 -0.7214
16409SOL    HW252505   7.852   1.013   6.874 -0.3580  0.1860 -0.9214
16410SOL     OW52506   1.402   0.925   2.957  0.6172 -0.3574 -0.2108
16410SOL    HW152507   1.366   0.975   3.030  0.1042  1.4526 -1.6251
16410SOL    HW252508   1.431   0.992   2.895  4.2572 -1.7158 -0.2424
16411SOL     OW52509   7.800   3.419  11.126  0.0391  0.3345  0.1285
16411SOL    HW152510   7.734   3.488  11.114  1.4328  1.6015 -0.5565
16411SOL    HW252511   7.881   3.457  11.094  1.2483 -0.9989  1.4300
16412SOL     OW52512   9.738   8.820   6.139  0.3796 -0.0932  0.0620
16412SOL    HW152513   9.744   8.900   6.087 -0.3469  0.6451  1.0821
16412SOL    HW252514   9.739   8.750   6.074  3.5600  0.5556 -0.7589
16413SOL     OW52515   6.405   4.094   3.419 -0.7987 -0.1620  0.1737
16413SOL    HW152516   6.365   4.009   3.438 -0.2473 -0.3412  0.5692
16413SOL    HW252517   6.499   4.075   3.412 -0.7395  0.3054 -0.3900
16414SOL     OW52518   9.642   8.521   3.561  0.0516  0.8351  0.0723
16414SOL    HW152519   9.693   8.502   3.640 -0.6365  1.3228  0.6383
16414SOL    HW252520   9.573   8.580   3.590  0.2009  1.5879 -1.0275
16415SOL     OW52521   3.133   0.313   0.754 -0.4027  0.6668  0.5913
16415SOL    HW152522   3.109   0.397   0.792  1.8617  1.6741 -0.0103
16415SOL    HW252523   3.223   0.298   0.784 -0.2928 -0.8723 -0.4013
16416SOL     OW52524   8.357   5.188   0.187  0.2139 -0.1935  0.8759
16416SOL    HW152525   8.295   5.155   0.252  1.2050 -1.9610  0.9797
16416SOL    HW252526   8.429   5.225   0.240  0.3677 -0.3461  0.7738
16417SOL     OW52527   3.948   8.313   0.873 -0.4440  1.0384 -0.0182
16417SOL    HW152528   4.001   8.257   0.931 -0.2050 -0.0924 -1.2579
16417SOL    HW252529   4.005   8.387   0.853  0.9436 -0.3545 -1.6531
16418SOL     OW52530   1.700   3.560   8.949  0.5076  0.0475  0.0136
16418SOL    HW152531   1.786   3.517   8.947  0.3410 -0.3082  0.4682
16418SOL    HW252532   1.659   3.536   8.866  0.1591 -1.2115  0.5275
16419SOL     OW52533   1.328   0.879   6.453  0.4719 -0.4645  0.1508
16419SOL    HW152534   1.368   0.842   6.374  0.9838  0.9955 -0.3129
16419SOL    HW252535   1.290   0.962   6.423 -2.8983 -1.6785  0.5732
16420SOL     OW52536   4.650  10.331   8.321  0.0120  0.0898 -0.1333
16420SOL    HW152537   4.683  10.421   8.317 -0.3354  0.2284  0.0812
16420SOL    HW252538   4.726  10.277   8.299 -0.1194  0.4911 -1.7390
16421SOL     OW52539   2.404   8.719   3.722  0.0738  0.1849 -0.0362
16421SOL    HW152540   2.498   8.703   3.721  0.0160 -0.5472  1.9143
16421SOL    HW252541   2.366   8.638   3.756 -1.1583  0.8822  0.3106
16422SOL     OW52542   1.945   4.219   3.413 -0.0051  0.2260  0.5970
16422SOL    HW152543   1.852   4.231   3.432 -0.0763 -0.1389  0.4814
16422SOL    HW252544   1.967   4.292   3.355 -0.0983  0.5979  1.0197
16423SOL     OW52545   3.783  10.500   4.077 -0.1460  0.3413  0.0949
16423SOL    HW152546   3.713  10.464   4.131  0.7133 -1.4585  0.1095
16423SOL    HW252547   3.857  10.511   4.137  1.0701 -2.4283 -0.6991
16424SOL     OW52548  10.519   0.949   5.824  0.3348  0.0652  0.4119
16424SOL    HW152549  10.607   0.952   5.862  0.2257  0.3378  0.6479
16424SOL    HW252550  10.500   0.855   5.816 -0.4665 -0.0939  2.9899
16425SOL     OW52551   7.821   7.363   6.827 -0.2472  0.0133  0.6251
16425SOL    HW152552   7.896   7.414   6.796 -0.6576 -0.3462 -1.0137
16425SOL    HW252553   7.837   7.275   6.794 -1.9166  0.1689 -0.6843
16426SOL     OW52554   1.604   3.540   0.451 -0.0164 -0.3183  0.1678
16426SOL    HW152555   1.621   3.630   0.478  0.2036 -0.5872  0.9608
16426SOL    HW252556   1.634   3.536   0.360  0.6824  0.2079  0.3689
16427SOL     OW52557   4.585   3.421   0.652 -0.2407 -0.7368  0.2970
16427SOL    HW152558   4.646   3.492   0.631  1.4864 -1.5408  2.2653
16427SOL    HW252559   4.509   3.466   0.691 -0.6847  0.2318 -1.5736
16428SOL     OW52560   7.891   9.098   1.949 -0.5744  0.0832 -0.2374
16428SOL    HW152561   7.915   9.053   2.029 -0.3753  0.7126  0.0590
16428SOL    HW252562   7.818   9.047   1.914  0.0569 -0.8350 -0.2427
16429SOL     OW52563   9.470   1.306   0.574 -0.0168  0.0037 -0.2837
16429SOL    HW152564   9.541   1.317   0.638 -0.4791  3.8506 -0.1526
16429SOL    HW252565   9.401   1.260   0.622  1.1256 -0.7478  0.6866
16430SOL     OW52566   9.659  11.175  10.672 -0.0545  0.3506  0.3499
16430SOL    HW152567   9.589  11.240  10.683 -0.2156 -0.0243  1.7870
16430SOL    HW252568   9.739  11.225  10.689 -0.1667  0.2333  1.2868
16431SOL     OW52569   1.403   1.147   2.784  0.6157 -0.6677  0.1992
16431SOL    HW152570   1.391   1.232   2.826 -0.3159 -1.4094  1.4952
16431SOL    HW252571   1.464   1.164   2.712  0.6851  1.0246  0.6271
16432SOL     OW52572   6.208  11.017  10.512  0.5175 -0.4336  0.2445
16432SOL    HW152573   6.301  11.000  10.531  0.5665  0.2407  0.6511
16432SOL    HW252574   6.201  11.007  10.417  0.6885 -1.9388  0.3673
16433SOL     OW52575   5.047   8.903   9.981  0.4612 -0.0093 -0.4263
16433SOL    HW152576   5.003   8.972  10.031 -1.8495  0.5345 -2.9546
16433SOL    HW252577   5.140   8.913  10.003 -0.1152  1.9947  1.4895
16434SOL     OW52578   7.573   3.564   9.618  0.2855  0.2200  0.2273
16434SOL    HW152579   7.507   3.494   9.620  1.0490 -0.5506  2.8101
16434SOL    HW252580   7.634   3.540   9.687  2.9354  1.2827 -1.6066
16435SOL     OW52581   5.285   1.614   5.814  0.1525 -0.0139  0.4833
16435SOL    HW152582   5.237   1.588   5.892  1.6986  1.3790  1.9764
16435SOL    HW252583   5.224   1.669   5.765 -0.2398  0.6255  1.6579
16436SOL     OW52584   9.391   3.648  10.896  0.4489  0.6158  0.1690
16436SOL    HW152585   9.389   3.581  10.964 -0.7537  1.8777  1.4541
16436SOL    HW252586   9.311   3.634  10.846  1.4695 -0.4866 -1.2167
16437SOL     OW52587  10.907   8.359   0.735 -0.0706  0.1143 -0.2055
16437SOL    HW152588  10.831   8.326   0.784 -0.2383 -0.1242 -0.6145
16437SOL    HW252589  10.919   8.295   0.665  0.7017 -0.0119  0.0331
16438SOL     OW52590   8.845   2.896   8.008 -0.6315 -0.3235 -0.5090
16438SOL    HW152591   8.895   2.814   8.007  0.7271  0.4433  0.6140
16438SOL    HW252592   8.809   2.903   7.920 -0.2166 -1.8006 -0.8228
16439SOL     OW52593   2.074   9.318   1.891  0.4093  0.0330  0.3032
16439SOL    HW152594   2.143   9.313   1.825 -0.5928 -2.6261 -0.7125
16439SOL    HW252595   2.002   9.363   1.847  0.0959 -0.8350 -0.0869
16440SOL     OW52596   5.537   3.978   6.155 -0.7599 -0.3956  0.0416
16440SOL    HW152597   5.537   3.954   6.247  2.2127 -1.2790 -0.0817
16440SOL    HW252598   5.614   4.034   6.144 -0.3963 -1.1957 -2.0511
16441SOL     OW52599   6.959  10.067   5.905  0.0935 -0.1424  0.4469
16441SOL    HW152600   6.913  10.151   5.912  0.6655  0.1852  0.3402
16441SOL    HW252601   6.893  10.002   5.929  0.0138  0.4305  1.9000
16442SOL     OW52602   5.349  10.157   5.468  0.2282  0.5775  0.0861
16442SOL    HW152603   5.425  10.181   5.522  1.8400 -0.1242 -1.7726
16442SOL    HW252604   5.341  10.062   5.479 -0.9037  0.7337  0.8504
16443SOL     OW52605   6.622   3.175   2.815 -0.6610  0.0676 -0.7728
16443SOL    HW152606   6.646   3.198   2.725 -0.2590 -0.2916 -0.7614
16443SOL    HW252607   6.660   3.088   2.829 -2.0094 -0.5550 -0.7668
16444SOL     OW52608   1.924   9.999  10.725 -0.2317 -0.5409  0.8096
16444SOL    HW152609   1.878  10.034  10.648  1.3961 -0.6683 -0.2808
16444SOL    HW252610   1.978  10.072  10.756 -0.6299 -0.5921  1.6337
16445SOL     OW52611   0.339   6.480   5.990 -0.1421 -0.0175 -0.2880
16445SOL    HW152612   0.380   6.558   6.027 -0.5952  0.4432 -0.7343
16445SOL    HW252613   0.350   6.490   5.896 -1.4109  0.2057 -0.4305
16446SOL     OW52614  10.153   2.210   1.541 -0.2889  0.6416 -0.1863
16446SOL    HW152615  10.124   2.123   1.569  1.1036  0.4522  0.7320
16446SOL    HW252616  10.171   2.201   1.447  1.3253 -0.4928  0.2070
16447SOL     OW52617   1.840   1.105   0.249  0.0552 -0.0304 -0.5104
16447SOL    HW152618   1.871   1.089   0.160 -1.6099  2.1116 -1.5517
16447SOL    HW252619   1.891   1.180   0.279 -0.8986  0.6226 -0.4966
16448SOL     OW52620   5.373   3.770  10.063 -0.5798 -0.1719 -0.3640
16448SOL    HW152621   5.448   3.716  10.038  0.2543  0.5961  0.4460
16448SOL    HW252622   5.395   3.804  10.149 -1.5502  0.6560 -0.4248
16449SOL     OW52623   1.510  10.100   4.421 -0.2475 -0.4504  0.2101
16449SOL    HW152624   1.433  10.043   4.419  0.3536 -1.2866 -0.3948
16449SOL    HW252625   1.579  10.047   4.381  0.1196  1.0319 -1.2443
16450SOL     OW52626   8.998   5.561   3.802  0.3050 -0.1487 -0.2947
16450SOL    HW152627   9.073   5.620   3.805 -0.6980  1.1815 -0.3319
16450SOL    HW252628   8.964   5.569   3.713  0.1911 -0.8385 -0.3200
16451SOL     OW52629   0.103   7.650   7.054 -0.1767 -0.1916  0.2278
16451SOL    HW152630   0.080   7.743   7.055 -2.3627 -0.6698 -0.5210
16451SOL    HW252631   0.164   7.642   6.981 -1.0356  0.4389 -0.5792
16452SOL     OW52632   2.330   1.551   0.954  0.6559 -0.1838  0.6271
16452SOL    HW152633   2.419   1.526   0.929  1.1905  0.0300  2.2180
16452SOL    HW252634   2.332   1.647   0.954  0.7370 -0.1745  1.6301
16453SOL     OW52635   8.890   4.046   1.056  0.3439  0.2514 -0.2325
16453SOL    HW152636   8.809   4.094   1.040 -0.0648 -0.9734 -2.2352
16453SOL    HW252637   8.946   4.068   0.981  0.8396 -0.9106 -0.2229
16454SOL     OW52638   7.583   6.274   3.309 -0.5137 -0.2067 -0.2607
16454SOL    HW152639   7.610   6.260   3.218 -1.9921  1.5458 -1.0262
16454SOL    HW252640   7.565   6.186   3.342 -1.5389 -0.7970 -2.2083
16455SOL     OW52641   6.393   9.365   1.428 -0.2601 -0.0242  0.3381
16455SOL    HW152642   6.301   9.343   1.409 -0.3101  2.1435 -2.7218
16455SOL    HW252643   6.439   9.344   1.347  1.2244  2.3310  0.4808
16456SOL     OW52644   8.909   4.276   9.305 -0.6308  0.3126  0.0848
16456SOL    HW152645   8.879   4.187   9.324  0.7930 -0.2949 -0.3538
16456SOL    HW252646   8.942   4.271   9.215 -2.7458  1.9090 -0.8670
16457SOL     OW52647   9.712   3.011  10.459 -0.7459  0.2403 -0.4045
16457SOL    HW152648   9.700   2.918  10.478 -0.0981 -0.0533 -1.3823
16457SOL    HW252649   9.631   3.038  10.416 -0.2850 -0.2950 -1.6442
16458SOL     OW52650  11.306   2.869   7.563 -0.4903 -0.2665 -0.1776
16458SOL    HW152651  11.374   2.928   7.595 -1.3163 -0.8697  3.0604
16458SOL    HW252652  11.295   2.805   7.633 -2.9602 -1.4212 -1.4866
16459SOL     OW52653   5.969   4.365  11.397 -0.5715 -0.0307 -0.0518
16459SOL    HW152654   5.912   4.385  11.471  2.4843  1.8218  2.0174
16459SOL    HW252655   5.986   4.450  11.357 -0.2421 -0.7147 -1.4317
16460SOL     OW52656   4.617   6.466   7.987  0.0265  0.1773  0.0760
16460SOL    HW152657   4.608   6.519   8.065 -0.8843 -0.3117  0.3169
16460SOL    HW252658   4.540   6.408   7.987 -0.7708  1.1191 -1.9034
16461SOL     OW52659   7.408   2.466   4.907 -0.0233  0.3759  0.0826
16461SOL    HW152660   7.503   2.465   4.900 -0.1417  0.6492 -2.8732
16461SOL    HW252661   7.382   2.374   4.903  0.0739  0.3017  0.8877
16462SOL     OW52662   3.205   2.944   6.478 -0.3773  0.0223 -0.7394
16462SOL    HW152663   3.236   2.925   6.567  0.5452  1.3809 -0.7381
16462SOL    HW252664   3.132   3.004   6.491 -0.0714  0.4350 -0.8904
16463SOL     OW52665   9.229   0.434   5.892 -0.7581  0.4095 -1.0031
16463SOL    HW152666   9.200   0.508   5.839  0.1681  0.4922 -1.4239
16463SOL    HW252667   9.325   0.439   5.889 -0.6560  0.7078  1.0768
16464SOL     OW52668   6.044  11.297   1.652 -0.2340 -0.1149  0.3718
16464SOL    HW152669   6.131  11.280   1.617 -1.6143  0.4277 -3.9040
16464SOL    HW252670   5.997  11.214   1.641 -1.3144  0.6583 -1.3451
16465SOL     OW52671   8.819   7.109  10.570 -0.6079  0.1958  0.5172
16465SOL    HW152672   8.769   7.055  10.632 -0.8520 -0.1313  0.0381
16465SOL    HW252673   8.790   7.079  10.484 -0.6278  0.9885  0.2478
16466SOL     OW52674   4.890   6.684   9.509  0.0305 -0.3530 -0.4281
16466SOL    HW152675   4.975   6.672   9.467  0.5458 -0.2088  0.5466
16466SOL    HW252676   4.904   6.661   9.601 -0.5452  1.3384  0.1249
16467SOL     OW52677   2.653   1.446   3.412  0.0058 -0.1206 -0.4528
16467SOL    HW152678   2.620   1.357   3.422  2.7168 -1.0481  1.4744
16467SOL    HW252679   2.728   1.437   3.353  1.6743  0.4265  1.4957
16468SOL     OW52680   2.495   6.573   5.043 -0.6971 -0.0745 -0.0445
16468SOL    HW152681   2.589   6.570   5.028 -0.5543 -1.3482  0.8480
16468SOL    HW252682   2.456   6.574   4.955  0.1468 -0.8666 -0.4476
16469SOL     OW52683  10.188  10.356   8.711  0.0384  0.1623 -0.3966
16469SOL    HW152684  10.183  10.372   8.805 -0.0905 -1.4467 -0.0913
16469SOL    HW252685  10.134  10.424   8.672  2.2693  2.5483  0.4421
16470SOL     OW52686   0.114   5.833   7.176 -0.2933  0.3577  0.4226
16470SOL    HW152687   0.172   5.909   7.177 -0.5499  0.5593  1.8422
16470SOL    HW252688   0.037   5.861   7.226 -1.4595 -0.0387 -1.0765
16471SOL     OW52689   2.087   3.687   4.675  0.3067 -0.0981  0.4451
16471SOL    HW152690   2.054   3.637   4.600 -0.8389  0.8857  0.2601
16471SOL    HW252691   2.180   3.667   4.678  0.2631 -0.5862 -0.8984
16472SOL     OW52692   8.252   9.063   5.902 -0.3232 -0.0592  0.0846
16472SOL    HW152693   8.213   9.052   5.815  0.0840  0.2432 -0.1396
16472SOL    HW252694   8.216   9.146   5.934  1.5676  1.2268 -0.9210
16473SOL     OW52695   6.188   6.316   1.698 -0.3246  0.1033  0.0470
16473SOL    HW152696   6.254   6.267   1.748 -2.0027  1.2147  3.6617
16473SOL    HW252697   6.115   6.255   1.689 -0.4236  0.2566 -0.2100
16474SOL     OW52698   6.726   9.957   1.501 -0.1319  0.4523  0.1007
16474SOL    HW152699   6.800   9.930   1.556 -0.1049  0.2855 -0.0167
16474SOL    HW252700   6.682  10.025   1.551 -0.0378  0.3827  0.2764
16475SOL     OW52701   0.081   7.251   7.378 -0.0121  0.0628 -0.0380
16475SOL    HW152702   0.089   7.262   7.473 -1.0232  0.7761 -0.0216
16475SOL    HW252703   0.045   7.334   7.347  0.0396 -0.2647 -1.0184
16476SOL     OW52704   5.263   0.168   0.636 -0.7507 -0.0302 -0.3036
16476SOL    HW152705   5.296   0.202   0.719  1.5893 -0.8456 -0.8329
16476SOL    HW252706   5.185   0.117   0.660  1.2774 -2.4141  1.8340
16477SOL     OW52707  11.381   5.203   3.479 -0.0012  0.1935  0.6258
16477SOL    HW152708  11.313   5.263   3.510  0.3557  0.7076  0.4328
16477SOL    HW252709  11.407   5.239   3.394  2.0224  1.2725  1.6349
16478SOL     OW52710   7.814   0.254  10.491 -0.4808  0.0125  0.1890
16478SOL    HW152711   7.844   0.181  10.545  1.3166 -0.5367 -1.4286
16478SOL    HW252712   7.746   0.217  10.435  0.6929 -0.5722 -0.8949
16479SOL     OW52713   9.948  10.495   9.778 -0.1823 -0.3028  0.3881
16479SOL    HW152714   9.960  10.537   9.863  3.9825  0.1013 -0.1994
16479SOL    HW252715  10.006  10.419   9.781  3.9359  2.2452 -3.4882
16480SOL     OW52716   4.565   9.935   9.208  0.3211  0.1567  0.2118
16480SOL    HW152717   4.560   9.985   9.127 -1.4914 -1.3428 -0.6856
16480SOL    HW252718   4.553   9.844   9.181  0.1330 -0.4352  2.1255
16481SOL     OW52719   6.451   8.044   8.821 -1.0839  0.2557 -0.4069
16481SOL    HW152720   6.507   8.097   8.878 -0.1721  0.2845 -1.3027
16481SOL    HW252721   6.395   8.108   8.777 -1.1415  0.3219 -0.2373
16482SOL     OW52722   4.703  10.955   0.861  0.6753 -0.1303 -0.1301
16482SOL    HW152723   4.691  10.882   0.921 -2.5289  0.2658 -0.1208
16482SOL    HW252724   4.666  11.031   0.906  0.2108  0.6422 -1.7131
16483SOL     OW52725  10.099   9.568   9.019 -0.4590 -0.7568 -0.5647
16483SOL    HW152726  10.067   9.489   8.977  0.4664 -0.8368 -1.1546
16483SOL    HW252727  10.143   9.537   9.098 -2.0826 -0.6160  0.4335
16484SOL     OW52728  10.356   0.882   3.175  0.4229 -0.0753 -0.1063
16484SOL    HW152729  10.420   0.843   3.235 -2.3432 -0.3489  2.8906
16484SOL    HW252730  10.339   0.969   3.211 -1.1966 -0.1742 -0.5803
16485SOL     OW52731   0.516   3.924   8.319  0.6512  0.6491 -0.2627
16485SOL    HW152732   0.572   3.988   8.362  0.7105  0.5288 -0.1572
16485SOL    HW252733   0.477   3.874   8.392  1.2486  0.0203 -0.3602
16486SOL     OW52734   0.551   0.860   0.629  0.1519  0.1314 -0.2284
16486SOL    HW152735   0.605   0.820   0.697  0.4034  0.1004 -0.4442
16486SOL    HW252736   0.604   0.933   0.597  1.6573 -1.9755 -2.9135
16487SOL     OW52737   0.968   7.118   5.959  0.3354 -0.1183  0.2630
16487SOL    HW152738   0.939   7.207   5.941 -0.0598 -0.4386 -0.7833
16487SOL    HW252739   0.936   7.099   6.047 -2.1921 -0.2480 -0.6133
16488SOL     OW52740   6.221   8.137   4.849  0.4072  0.7126 -0.0027
16488SOL    HW152741   6.180   8.169   4.769  0.8132 -3.1987 -2.0380
16488SOL    HW252742   6.148   8.105   4.902  0.3478 -0.8714 -0.9730
16489SOL     OW52743   3.032   1.750   5.565  0.0474  0.3377  0.5343
16489SOL    HW152744   2.944   1.788   5.570  0.1050  0.4200  1.0372
16489SOL    HW252745   3.023   1.675   5.506 -0.8506 -0.9218  2.1558
16490SOL     OW52746   9.415   5.578   1.063 -0.0871 -0.2474  0.1031
16490SOL    HW152747   9.417   5.631   1.143 -1.4828  1.2635 -0.7884
16490SOL    HW252748   9.322   5.555   1.053  0.4467 -2.7249  0.3157
16491SOL     OW52749   8.178   4.087   7.622  0.2402 -0.3379  0.5363
16491SOL    HW152750   8.220   4.137   7.553 -2.1554 -0.0190 -0.7702
16491SOL    HW252751   8.161   4.151   7.691 -1.7135  0.4806 -0.6281
16492SOL     OW52752   3.609  11.274   1.117 -0.1771  0.6880 -1.1418
16492SOL    HW152753   3.567  11.189   1.105 -0.1980  0.5306 -0.0913
16492SOL    HW252754   3.649  11.294   1.033 -0.0505 -0.4250 -1.3544
16493SOL     OW52755   9.812   5.325   4.936 -0.4460 -0.2197 -0.0799
16493SOL    HW152756   9.749   5.390   4.905 -1.2356 -0.7395  0.3872
16493SOL    HW252757   9.765   5.242   4.932  0.9989 -1.0195 -2.0073
16494SOL     OW52758   5.054   9.746  10.493 -0.3148  0.0241 -0.9820
16494SOL    HW152759   4.996   9.803  10.544 -0.1365  1.2391 -2.0995
16494SOL    HW252760   5.033   9.765  10.402  0.8208 -0.5968 -1.3937
16495SOL     OW52761   4.533   3.906   3.673  0.0552 -0.1147 -0.4412
16495SOL    HW152762   4.621   3.911   3.708  0.4246 -0.2341 -1.3129
16495SOL    HW252763   4.537   3.954   3.590 -1.0226  0.9778  0.1122
16496SOL     OW52764   4.585   2.257   0.969 -0.0565 -0.5497 -0.2055
16496SOL    HW152765   4.630   2.246   0.885  0.0506 -0.1498 -0.2024
16496SOL    HW252766   4.566   2.351   0.974 -2.0031 -0.8687 -0.7749
16497SOL     OW52767  10.680   1.518   8.553 -1.2686  0.1053 -0.2753
16497SOL    HW152768  10.671   1.595   8.497  0.4480  0.8011  0.3321
16497SOL    HW252769  10.771   1.490   8.542 -1.0819 -0.1826  1.5759
16498SOL     OW52770   1.850  10.976   0.070  0.4623 -0.1495 -0.0924
16498SOL    HW152771   1.764  10.964   0.110  0.3232 -3.6040 -1.0929
16498SOL    HW252772   1.903  11.017   0.138 -1.4922  0.4827  1.1383
16499SOL     OW52773   9.508   0.130   7.567 -0.9805  0.4698  0.0400
16499SOL    HW152774   9.588   0.130   7.619 -0.7677 -1.4745 -0.2120
16499SOL    HW252775   9.442   0.092   7.626 -1.2528  0.2820 -0.3830
16500SOL     OW52776   6.665   2.752   6.367 -0.8019  0.0899 -0.5011
16500SOL    HW152777   6.714   2.771   6.447 -0.6153 -0.4449 -0.4857
16500SOL    HW252778   6.689   2.662   6.344 -2.1722 -0.3830 -0.2060
16501SOL     OW52779   1.104   2.505   9.892  0.0073 -0.4167  0.6466
16501SOL    HW152780   1.058   2.515   9.809  0.1766 -0.7056  0.5169
16501SOL    HW252781   1.101   2.411   9.910  0.1966 -0.3880  0.8375
16502SOL     OW52782  10.793  11.013   0.158 -0.2208  0.4241 -0.2031
16502SOL    HW152783  10.848  10.947   0.115 -0.8271 -0.6149  0.5781
16502SOL    HW252784  10.704  10.983   0.143 -0.4577 -0.3669  2.3522
16503SOL     OW52785   7.565   1.675   0.179  0.3461 -0.1265 -0.1939
16503SOL    HW152786   7.563   1.634   0.093  3.2506  0.2674 -0.5382
16503SOL    HW252787   7.569   1.603   0.241 -0.9810 -0.3912 -0.3775
16504SOL     OW52788  11.101   1.816   0.033 -0.1427 -0.4067 -0.7475
16504SOL    HW152789  11.131   1.800   0.123 -1.0962 -1.0927 -0.5380
16504SOL    HW252790  11.172   1.867  -0.007 -0.4203  1.3914  0.8878
16505SOL     OW52791   8.092  10.141   9.645 -0.2911  0.5436  0.4102
16505SOL    HW152792   8.053  10.129   9.732  1.2112 -1.7628  0.8459
16505SOL    HW252793   8.166  10.200   9.660 -0.0277  0.1411  0.7243
16506SOL     OW52794   6.085   1.697  11.202 -0.4092 -0.6743 -0.6983
16506SOL    HW152795   6.024   1.708  11.274 -1.1319  1.9361 -1.5820
16506SOL    HW252796   6.154   1.761  11.219 -1.2606  0.9490 -2.8794
16507SOL     OW52797   7.604   6.379   8.838  0.2955 -0.7832 -0.4774
16507SOL    HW152798   7.627   6.404   8.749 -0.8620 -3.1894 -1.5560
16507SOL    HW252799   7.509   6.383   8.841  0.3676  1.6988  1.5144
16508SOL     OW52800   5.808   5.289   1.361 -0.2141 -0.3400  0.1227
16508SOL    HW152801   5.766   5.206   1.384  0.4276 -0.7174 -0.0525
16508SOL    HW252802   5.829   5.279   1.268  0.4744 -0.2495  0.2651
16509SOL     OW52803  10.270   9.770   0.464 -0.1878  0.2636  0.0395
16509SOL    HW152804  10.301   9.812   0.383  0.0240  0.4350  0.2097
16509SOL    HW252805  10.255   9.679   0.438 -0.1283  0.3187 -0.1975
16510SOL     OW52806   6.991   5.713   3.960 -0.7839  0.2374  0.4593
16510SOL    HW152807   7.044   5.637   3.934 -2.8619 -1.3471  0.5384
16510SOL    HW252808   7.012   5.780   3.896  0.4444 -0.7163 -0.1832
16511SOL     OW52809   0.556   7.890  10.323 -0.5532 -0.6224  0.7396
16511SOL    HW152810   0.517   7.937  10.397  0.6672 -0.4486  1.3035
16511SOL    HW252811   0.550   7.798  10.346 -2.2168 -0.7314  0.0015
16512SOL     OW52812   3.684   5.293   7.653  0.6235 -0.6032 -0.0467
16512SOL    HW152813   3.662   5.228   7.720  0.9530 -2.2964 -1.5204
16512SOL    HW252814   3.766   5.333   7.684  0.6120 -1.1342  0.6975
16513SOL     OW52815   9.209   8.889  10.366  0.0136  0.2346  0.1020
16513SOL    HW152816   9.287   8.923  10.410  0.2736  0.2409 -0.3500
16513SOL    HW252817   9.192   8.805  10.409  0.4081  0.1285  0.0584
16514SOL     OW52818   3.263   6.642   0.510 -0.2391 -0.3843  0.0953
16514SOL    HW152819   3.289   6.612   0.423  1.8241  0.5683  0.3310
16514SOL    HW252820   3.239   6.734   0.498  0.0361 -0.2513  0.5287
16515SOL     OW52821   8.396   7.302  11.201 -0.5163  0.1998  0.1726
16515SOL    HW152822   8.437   7.235  11.255 -0.4865  0.0111 -0.0824
16515SOL    HW252823   8.341   7.253  11.140 -1.6964  0.4807  0.9786
16516SOL     OW52824   3.849   8.775   4.688 -0.1229  0.4818 -0.1137
16516SOL    HW152825   3.793   8.745   4.760 -0.7587  0.5486 -0.5760
16516SOL    HW252826   3.826   8.867   4.677  0.9370  0.8239  0.4802
16517SOL     OW52827  10.056   1.957   1.610 -0.0363 -0.3105 -0.0811
16517SOL    HW152828  10.145   1.964   1.643 -0.1386  3.4360 -0.2125
16517SOL    HW252829  10.054   1.873   1.564  2.6579 -1.6235  1.9235
16518SOL     OW52830  10.652   4.090   8.791 -0.0027 -0.4191  0.2200
16518SOL    HW152831  10.591   4.020   8.818  0.6618 -0.7359  0.9606
16518SOL    HW252832  10.602   4.170   8.802 -0.7238 -0.7560 -0.4725
16519SOL     OW52833   9.867   6.324   5.773 -0.2074 -0.3790  0.0914
16519SOL    HW152834   9.958   6.330   5.802 -0.4355 -1.6222  1.1676
16519SOL    HW252835   9.848   6.230   5.774 -1.9868 -0.0478  1.5148
16520SOL     OW52836  10.436   3.072   9.049 -0.2092  0.1178  0.3055
16520SOL    HW152837  10.381   3.027   8.985  1.5644 -2.4753  0.4879
16520SOL    HW252838  10.500   3.119   8.996 -0.8771  0.9006  0.1619
16521SOL     OW52839   3.413   3.950   9.536 -0.5187 -0.2779 -0.2981
16521SOL    HW152840   3.452   3.986   9.456 -1.3380 -0.6570 -0.8889
16521SOL    HW252841   3.339   4.008   9.555  0.2317  0.3706  0.7459
16522SOL     OW52842  10.429   6.958   3.980 -0.3637  0.3909  0.5265
16522SOL    HW152843  10.519   6.927   3.989 -0.4267  0.5439  1.9419
16522SOL    HW252844  10.437   7.047   3.945 -0.0742 -0.2897 -1.2089
16523SOL     OW52845   8.570   3.464   7.244  0.3153 -0.2478 -0.3222
16523SOL    HW152846   8.481   3.436   7.268 -1.3457  4.1966 -0.3152
16523SOL    HW252847   8.597   3.519   7.318  2.3789 -0.1234 -1.1274
16524SOL     OW52848   4.694   3.299  10.604  0.0508 -0.1129  0.0985
16524SOL    HW152849   4.783   3.331  10.617 -0.1030  0.5642 -0.4714
16524SOL    HW252850   4.695   3.257  10.518  0.3531 -2.0652  0.9973
16525SOL     OW52851   6.872   7.933   9.651 -0.3430  0.0247 -0.7656
16525SOL    HW152852   6.845   7.868   9.586 -1.5561  0.9557 -1.2454
16525SOL    HW252853   6.789   7.968   9.685  0.2778  1.2790 -0.4956
16526SOL     OW52854   9.986   3.100   4.663  0.3359 -0.0004  0.3206
16526SOL    HW152855   9.945   3.082   4.748  0.6062 -0.7666  0.3029
16526SOL    HW252856  10.057   3.161   4.683  0.8249 -0.6908  0.7665
16527SOL     OW52857   3.308   5.861   7.696  0.1076 -0.6047 -0.2292
16527SOL    HW152858   3.313   5.820   7.610  0.3010  0.9494 -0.9998
16527SOL    HW252859   3.230   5.823   7.736 -0.4797 -0.7197 -1.4433
16528SOL     OW52860   6.208   8.054  11.307  0.0305  0.5807 -0.7220
16528SOL    HW152861   6.182   7.964  11.327  0.0041  0.4921 -1.1346
16528SOL    HW252862   6.156   8.078  11.230  1.6865  0.1131 -2.0550
16529SOL     OW52863   4.304   9.280   4.697 -0.2320 -0.1565  0.8374
16529SOL    HW152864   4.375   9.332   4.734 -0.4503  0.4610  0.4063
16529SOL    HW252865   4.228   9.300   4.751 -0.9163  1.8868 -0.7632
16530SOL     OW52866   2.286   8.668   9.440 -0.4907  0.0794 -0.4300
16530SOL    HW152867   2.239   8.586   9.421 -1.0878  0.0526  0.9961
16530SOL    HW252868   2.219   8.724   9.480  0.6474  0.0701  1.6064
16531SOL     OW52869   9.348   1.317  10.757  1.0154  0.0231  0.1901
16531SOL    HW152870   9.376   1.250  10.819  1.7449  0.2639  0.1358
16531SOL    HW252871   9.357   1.400  10.805  0.2773  0.1003  0.2051
16532SOL     OW52872   5.483   7.902   6.586 -0.1512 -0.3922  0.5013
16532SOL    HW152873   5.574   7.872   6.580 -0.3538 -0.9463  0.0881
16532SOL    HW252874   5.456   7.880   6.675 -0.0037 -0.6034  0.4953
16533SOL     OW52875   7.056   9.185   0.823  0.3706  0.5529 -0.3628
16533SOL    HW152876   7.013   9.180   0.738 -0.7373 -0.0654  0.2205
16533SOL    HW252877   7.068   9.279   0.838 -1.0136  0.7495 -0.4220
16534SOL     OW52878  11.344   3.835   8.240  0.3880 -0.4670  0.1804
16534SOL    HW152879  11.330   3.898   8.312  0.9599  1.0015 -0.9360
16534SOL    HW252880  11.279   3.860   8.175 -0.6072 -2.2518  0.4410
16535SOL     OW52881   3.016   8.689   2.790 -0.1963 -0.5985  0.3354
16535SOL    HW152882   3.035   8.607   2.745 -1.5321 -0.5257 -0.4058
16535SOL    HW252883   3.058   8.756   2.736 -0.2307 -0.6783  0.2091
16536SOL     OW52884   2.612   6.702   9.262  0.2061 -0.0731  0.1562
16536SOL    HW152885   2.677   6.645   9.219 -0.2035 -1.0541  0.7959
16536SOL    HW252886   2.651   6.725   9.346  1.9218  3.5518 -1.4263
16537SOL     OW52887   5.702   8.734   5.153  0.4080 -0.4960 -0.2241
16537SOL    HW152888   5.747   8.757   5.072  0.1696  0.0569 -0.2049
16537SOL    HW252889   5.678   8.642   5.142 -1.9108  0.1977 -1.9137
16538SOL     OW52890   1.472   7.508   7.378 -0.2745 -0.2507 -0.0362
16538SOL    HW152891   1.520   7.590   7.365  0.8577 -0.6620  1.2404
16538SOL    HW252892   1.409   7.528   7.448  2.0436 -1.1355  2.5120
16539SOL     OW52893   0.512   2.589  11.196 -0.4248 -0.1294  0.3004
16539SOL    HW152894   0.466   2.673  11.184 -3.1744 -1.6213 -0.3584
16539SOL    HW252895   0.584   2.592  11.133 -0.5424  1.6488  0.1899
16540SOL     OW52896   5.636   5.866   6.293  0.1314 -0.0908  0.6086
16540SOL    HW152897   5.637   5.958   6.317 -0.3670 -0.2616  1.2978
16540SOL    HW252898   5.565   5.859   6.229 -0.0616 -0.0611  0.8195
16541SOL     OW52899   0.604   0.798   9.708 -0.0870  0.0547 -0.4968
16541SOL    HW152900   0.567   0.741   9.641  1.1657  0.2485 -1.3898
16541SOL    HW252901   0.683   0.753   9.738  0.0308  0.5473 -0.0303
16542SOL     OW52902  10.908   0.720   1.249  0.0220 -0.7775  0.7017
16542SOL    HW152903  10.820   0.741   1.218  0.5348 -2.0679 -1.8650
16542SOL    HW252904  10.935   0.799   1.297 -1.4223  0.8771 -1.0093
16543SOL     OW52905   5.268   3.894   1.618  0.6303 -0.4790 -0.0092
16543SOL    HW152906   5.215   3.883   1.697  0.0958  0.9214 -0.1442
16543SOL    HW252907   5.328   3.965   1.640 -0.8597  1.3330 -1.4978
16544SOL     OW52908   4.960   6.431   4.686  0.0602 -0.4434 -0.2323
16544SOL    HW152909   4.953   6.355   4.743  0.7643 -0.7650 -0.5773
16544SOL    HW252910   4.994   6.500   4.743 -1.2327 -0.1676  0.2614
16545SOL     OW52911   5.515   5.886  11.222  0.1445 -0.1869 -0.2118
16545SOL    HW152912   5.483   5.799  11.245  0.6429 -0.3316 -0.0379
16545SOL    HW252913   5.527   5.883  11.127 -0.6050 -0.0416 -0.3164
16546SOL     OW52914   5.478   5.371   1.423  0.6824  0.6139  0.2308
16546SOL    HW152915   5.398   5.419   1.400  0.8176  1.7729  1.9434
16546SOL    HW252916   5.549   5.431   1.401  0.9858  0.2123  0.1268
16547SOL     OW52917   7.092   6.868   3.980  0.1247  0.5116 -0.9879
16547SOL    HW152918   7.016   6.835   3.931 -0.9193  0.8173  0.3866
16547SOL    HW252919   7.129   6.790   4.022 -0.2762  0.5616 -0.5322
16548SOL     OW52920   6.290   3.597   2.178  0.4025 -0.5401 -0.4363
16548SOL    HW152921   6.267   3.637   2.262 -1.0912 -1.5447 -0.3393
16548SOL    HW252922   6.384   3.612   2.170  0.5993 -0.5204  1.4687
16549SOL     OW52923   7.170  11.182   8.059 -0.4824  0.6915  0.1843
16549SOL    HW152924   7.202  11.265   8.024 -0.8615  0.6193 -0.3404
16549SOL    HW252925   7.247  11.125   8.062 -0.7129  0.1553 -2.1090
16550SOL     OW52926   4.764   2.014   0.364 -0.1065 -0.6592 -0.2918
16550SOL    HW152927   4.716   2.071   0.425 -0.6602 -0.4742 -0.8867
16550SOL    HW252928   4.792   1.940   0.417 -1.9626 -1.2874 -0.1365
16551SOL     OW52929   0.265   8.719   0.012 -0.1716 -0.2669 -0.3377
16551SOL    HW152930   0.343   8.772   0.028  0.4446 -0.2470 -2.8587
16551SOL    HW252931   0.193   8.782   0.014 -0.2714 -0.3521  2.4399
16552SOL     OW52932  10.177   2.547   9.988  0.0832  0.1542  0.1940
16552SOL    HW152933  10.268   2.541  10.015 -0.2012 -1.1160  0.9409
16552SOL    HW252934  10.177   2.517   9.897  0.2319 -1.2314  0.6270
16553SOL     OW52935   7.872   4.465   8.767  0.1862  0.5914  0.5381
16553SOL    HW152936   7.925   4.543   8.777  0.9871  0.1205  0.0724
16553SOL    HW252937   7.847   4.440   8.856  0.3072  1.1120  0.7164
16554SOL     OW52938   1.602   6.579  10.613  0.5346 -0.4542 -0.0229
16554SOL    HW152939   1.520   6.593  10.564  0.4616  1.1780  0.5358
16554SOL    HW252940   1.643   6.665  10.616  1.5075 -0.9431  1.0909
16555SOL     OW52941   6.497   4.053   8.040 -0.7372 -0.3574 -0.0959
16555SOL    HW152942   6.509   4.139   8.001  0.3355 -0.0849  0.7956
16555SOL    HW252943   6.470   4.071   8.130  0.4809 -0.9280  0.3994
16556SOL     OW52944   6.291   1.030   7.692 -0.1017  0.2239 -0.4521
16556SOL    HW152945   6.260   1.108   7.737  1.3511 -0.2832  1.5716
16556SOL    HW252946   6.328   1.064   7.609 -2.0103  1.2870 -0.9262
16557SOL     OW52947   1.378   9.890   6.856  0.0014 -0.1738 -0.1436
16557SOL    HW152948   1.302   9.842   6.826 -0.7985  0.1892  1.2015
16557SOL    HW252949   1.360   9.909   6.948  0.6554  1.9383 -0.3919
16558SOL     OW52950   5.192   2.356   9.955 -0.0447  0.0451  0.0599
16558SOL    HW152951   5.267   2.400   9.915  0.2904 -1.2501 -0.8060
16558SOL    HW252952   5.116   2.405   9.923  0.2552 -0.5318 -1.6568
16559SOL     OW52953  10.542   9.156   7.725  0.0116  0.2507 -0.1097
16559SOL    HW152954  10.607   9.131   7.790  0.0801  1.2057  0.1976
16559SOL    HW252955  10.471   9.093   7.736 -0.5194  1.1200  1.7256
16560SOL     OW52956   2.088   2.682   5.636  0.1239 -0.7617  0.2114
16560SOL    HW152957   2.063   2.702   5.546  2.1261 -2.9300 -0.9540
16560SOL    HW252958   2.184   2.674   5.632  0.2030 -1.4687  2.4174
16561SOL     OW52959   0.037  11.360   0.958  0.2687 -0.4385  0.3693
16561SOL    HW152960   0.005  11.270   0.954  0.9644 -0.7403  1.3977
16561SOL    HW252961  -0.031  11.408   1.005 -0.4790 -0.2313 -0.8667
16562SOL     OW52962   6.897   5.198   7.025  0.4920  0.4334 -0.3283
16562SOL    HW152963   6.928   5.108   7.023  1.1484  0.6551 -0.8744
16562SOL    HW252964   6.938   5.238   6.948 -3.3396  0.0485 -2.8487
16563SOL     OW52965   4.636   2.059   4.294 -0.0745 -0.1732  0.2175
16563SOL    HW152966   4.723   2.028   4.268  0.0881 -0.1553  0.7348
16563SOL    HW252967   4.619   2.017   4.379 -1.6725 -2.2710 -1.0365
16564SOL     OW52968   4.316   1.952   6.746 -0.4585  0.2667 -0.0288
16564SOL    HW152969   4.254   1.979   6.814 -0.0445  0.2591  0.3547
16564SOL    HW252970   4.261   1.930   6.671 -0.9632 -0.3471  0.5141
16565SOL     OW52971   5.915   5.153   2.616 -0.5446  0.0898  0.3196
16565SOL    HW152972   5.860   5.222   2.578 -0.2457 -0.1021 -0.4781
16565SOL    HW252973   5.880   5.072   2.579 -0.2354 -0.0978  0.4422
16566SOL     OW52974   0.642   2.868  10.698  0.1180  0.0138  0.1468
16566SOL    HW152975   0.684   2.892  10.780  1.3828  1.2296 -0.8011
16566SOL    HW252976   0.549   2.882  10.713  0.4084  0.9793  1.1202
16567SOL     OW52977   6.983   5.735   6.242  0.5623 -0.1598 -0.3553
16567SOL    HW152978   6.988   5.768   6.153  3.8799  1.4285  0.2666
16567SOL    HW252979   6.964   5.813   6.295 -0.7280 -0.9697  0.4205
16568SOL     OW52980  10.479   4.152  10.217  0.3066  0.6167  0.3738
16568SOL    HW152981  10.420   4.150  10.141 -0.6215  1.1475  1.0493
16568SOL    HW252982  10.491   4.060  10.241  1.6553  0.3608 -1.1766
16569SOL     OW52983   2.005   1.217   8.584  0.0638  0.0523  0.1954
16569SOL    HW152984   2.063   1.277   8.630 -0.1426  0.8293 -0.5218
16569SOL    HW252985   1.918   1.256   8.595  0.1818  1.1820 -2.1751
16570SOL     OW52986  11.327   5.723   8.080 -0.0756 -0.2982  0.1718
16570SOL    HW152987  11.307   5.807   8.037  1.3428 -1.2785 -2.6898
16570SOL    HW252988  11.408   5.740   8.128  0.3224 -0.0542 -0.5653
16571SOL     OW52989   7.936   9.752   3.946 -0.0266  0.2601  0.1317
16571SOL    HW152990   7.881   9.693   3.998  0.9644  0.0305  0.9394
16571SOL    HW252991   7.900   9.839   3.963 -0.3822  0.0726  0.3535
16572SOL     OW52992   1.075   2.288   9.378 -0.2756  0.1826 -0.3874
16572SOL    HW152993   1.011   2.232   9.422  1.0810  0.2343  1.8096
16572SOL    HW252994   1.051   2.377   9.404  0.1008  0.2669 -0.3202
16573SOL     OW52995   5.473   3.739   6.343  0.3410  0.4994  0.1473
16573SOL    HW152996   5.462   3.660   6.396 -2.4079  1.0355  0.5513
16573SOL    HW252997   5.478   3.707   6.253 -2.5752 -0.1855  0.1266
16574SOL     OW52998   7.921   6.937   2.684 -0.4946 -0.4911  1.0448
16574SOL    HW152999   7.863   6.923   2.759  1.3882  0.2684  2.7410
16574SOL    HW253000   7.924   6.852   2.640 -3.3599 -0.3925  0.4480
16575SOL     OW53001   0.470   0.031   2.322 -0.2889 -0.4497 -0.5233
16575SOL    HW153002   0.380   0.020   2.291 -0.0859 -1.3784 -0.8226
16575SOL    HW253003   0.462   0.084   2.401 -0.8956  1.2352 -1.6712
16576SOL     OW53004   3.673   8.399  11.381  0.3957 -0.5629 -0.3083
16576SOL    HW153005   3.629   8.455  11.317  1.1812  0.9839  0.4609
16576SOL    HW253006   3.608   8.332  11.403 -0.2282 -0.5416 -1.9656
16577SOL     OW53007  11.372   9.819   2.115  0.0822  0.0005  0.1364
16577SOL    HW153008  11.393   9.911   2.100  0.9345 -0.3340 -0.8923
16577SOL    HW253009  11.294   9.803   2.063  1.5801 -0.5244 -2.0983
16578SOL     OW53010   9.769   4.465   3.384 -0.4610  0.3418  1.0880
16578SOL    HW153011   9.829   4.429   3.318 -0.6839 -0.1545  1.1528
16578SOL    HW253012   9.806   4.550   3.406  1.1236 -0.6095  2.3052
16579SOL     OW53013   2.202   0.933   9.959  0.0066 -0.5062  0.0324
16579SOL    HW153014   2.264   0.993  10.001  1.4475 -1.6240 -0.4073
16579SOL    HW253015   2.116   0.969   9.980  0.8093  1.6882 -0.2193
16580SOL     OW53016   4.149  10.933   0.626  0.2573  0.0473 -0.3183
16580SOL    HW153017   4.219  10.873   0.651 -0.1934 -0.0396  0.8095
16580SOL    HW253018   4.125  10.907   0.538  2.0790  0.4971 -0.9988
16581SOL     OW53019   5.791   1.269   3.805 -0.0916 -0.3436  0.0413
16581SOL    HW153020   5.715   1.304   3.853 -0.0771  0.6618 -0.6268
16581SOL    HW253021   5.785   1.174   3.816 -0.8809 -0.2152  0.8360
16582SOL     OW53022   0.952   5.569   9.114 -0.0592  0.0308 -0.0685
16582SOL    HW153023   0.993   5.603   9.034 -0.5252 -0.7390 -0.6498
16582SOL    HW253024   0.865   5.542   9.086 -0.7325  1.0074  1.0055
16583SOL     OW53025   4.374   7.048   3.622 -0.0340 -0.1198 -0.0925
16583SOL    HW153026   4.387   7.106   3.547 -0.5537  1.5372  1.0398
16583SOL    HW253027   4.458   7.004   3.634  0.9356  1.6650  0.0182
16584SOL     OW53028   4.678   0.874   8.981  0.2859  0.5547  0.3486
16584SOL    HW153029   4.656   0.820   9.057 -0.0952 -0.7996 -0.6917
16584SOL    HW253030   4.763   0.912   9.002 -0.3949  1.2677  1.9910
16585SOL     OW53031   9.577   8.451   2.666  0.1832  0.0322  0.5225
16585SOL    HW153032   9.672   8.462   2.659  0.3832 -2.1071 -1.3716
16585SOL    HW253033   9.566   8.365   2.709 -0.8456 -0.3389 -0.4485
16586SOL     OW53034   0.749   0.623   0.738  0.6020  0.0436 -0.0714
16586SOL    HW153035   0.806   0.679   0.685  1.5122 -0.6643  0.1223
16586SOL    HW253036   0.706   0.683   0.799  1.1093  0.5968 -0.2475
16587SOL     OW53037   6.704   3.196   8.539 -1.2095 -0.5328 -0.4748
16587SOL    HW153038   6.748   3.137   8.600 -2.0732 -0.4631  0.2327
16587SOL    HW253039   6.658   3.138   8.479 -0.5416 -0.5967 -0.9426
16588SOL     OW53040   9.304   2.467   4.673 -0.7641  0.2544 -0.2165
16588SOL    HW153041   9.357   2.526   4.727 -0.5537  0.1963 -0.3621
16588SOL    HW253042   9.246   2.526   4.624 -1.2736  0.2851  0.4053
16589SOL     OW53043   3.359   5.643   4.480 -0.2707 -0.2359 -0.5619
16589SOL    HW153044   3.454   5.642   4.470 -0.4181 -0.8755 -2.3336
16589SOL    HW253045   3.329   5.566   4.431 -1.8098  1.0171 -1.6972
16590SOL     OW53046   6.941   3.657   3.861  0.2513 -0.1407  0.4827
16590SOL    HW153047   6.886   3.660   3.939 -0.9291  0.9536 -0.3456
16590SOL    HW253048   6.883   3.624   3.792  0.4758  1.4042 -0.4990
16591SOL     OW53049   9.525   6.659   7.538 -0.0101 -0.2466  0.3405
16591SOL    HW153050   9.484   6.706   7.465 -2.3107 -1.9882  0.3703
16591SOL    HW253051   9.547   6.574   7.502  0.4097 -0.5391  1.2626
16592SOL     OW53052   7.600   5.869   2.030  0.3772  0.1215  0.2029
16592SOL    HW153053   7.564   5.853   2.117 -1.8519  0.2528 -0.6263
16592SOL    HW253054   7.529   5.911   1.982  1.0268 -1.2338 -2.1234
16593SOL     OW53055   0.826   2.215   0.374 -0.1250 -0.2698  0.1763
16593SOL    HW153056   0.915   2.195   0.405  0.4744  1.2774 -0.4194
16593SOL    HW253057   0.823   2.311   0.371 -2.3639 -0.2301  1.6711
16594SOL     OW53058  10.526   8.716   1.856 -0.3338  0.1720 -0.1498
16594SOL    HW153059  10.617   8.734   1.881  0.1347 -1.8258 -0.2786
16594SOL    HW253060  10.494   8.656   1.922 -0.7699 -1.0389 -1.4229
16595SOL     OW53061  10.969   5.326   0.995  0.0836 -0.2568 -0.0630
16595SOL    HW153062  11.024   5.247   0.996  1.6935  0.8054 -0.8659
16595SOL    HW253063  10.913   5.317   1.072  0.1133 -2.2412 -0.2021
16596SOL     OW53064   7.606   1.311   7.773  0.4551 -0.0832  0.0592
16596SOL    HW153065   7.606   1.401   7.805  1.8405 -0.3237  0.8238
16596SOL    HW253066   7.623   1.318   7.679 -0.4679  0.4857 -0.0726
16597SOL     OW53067   9.840  10.574   1.843 -0.2534 -0.1480  0.1394
16597SOL    HW153068   9.776  10.643   1.864 -1.9343 -1.6641  0.2329
16597SOL    HW253069   9.898  10.572   1.919 -0.2098  1.1163  0.1571
16598SOL     OW53070   2.070   0.248   3.107  0.0666 -0.7081  0.0299
16598SOL    HW153071   2.141   0.277   3.165 -0.8220  0.7687  0.4450
16598SOL    HW253072   2.046   0.162   3.140  1.3819 -1.0688  0.1316
16599SOL     OW53073   7.598   3.455   6.007  0.6416  0.0205  0.1848
16599SOL    HW153074   7.665   3.397   5.968  2.1040  2.4629 -1.2104
16599SOL    HW253075   7.524   3.450   5.946  1.5292  1.0476 -1.0396
16600SOL     OW53076   0.714   5.973   0.511 -0.2634 -0.1378  0.5122
16600SOL    HW153077   0.638   6.026   0.534 -0.7648 -0.1883 -0.9316
16600SOL    HW253078   0.767   5.971   0.591 -1.2659  0.7567  1.2274
16601SOL     OW53079   5.360   0.237   5.028 -0.0443 -0.5308 -0.2583
16601SOL    HW153080   5.427   0.217   4.963 -0.2543 -2.3364  0.0240
16601SOL    HW253081   5.405   0.291   5.093  0.8517 -0.8328 -0.6096
16602SOL     OW53082   0.557   9.365   1.151  0.4421  0.5001  0.4882
16602SOL    HW153083   0.462   9.374   1.146  0.2416 -1.2237  0.5189
16602SOL    HW253084   0.589   9.404   1.069 -0.3590  0.3363  0.0830
16603SOL     OW53085   9.371  10.705  11.317  0.2816  0.2052  0.1129
16603SOL    HW153086   9.317  10.633  11.283  1.0232 -0.9317  1.2589
16603SOL    HW253087   9.441  10.662  11.366  0.3180  1.7218  1.4769
16604SOL     OW53088   0.029   7.886   3.414  0.3924 -0.3414  0.1493
16604SOL    HW153089   0.098   7.848   3.469 -0.2134 -1.9686 -0.1726
16604SOL    HW253090  -0.052   7.854   3.452 -0.1909  1.0324  0.1329
16605SOL     OW53091   2.119  11.099   0.996 -0.6959  0.1782  0.1738
16605SOL    HW153092   2.078  11.085   1.082 -1.2389  0.5749 -0.0140
16605SOL    HW253093   2.046  11.105   0.935 -0.4882  2.4463  0.0508
16606SOL     OW53094   1.338   2.557   8.121 -0.2038 -0.2511 -0.2966
16606SOL    HW153095   1.354   2.637   8.169 -1.9589  0.2995 -0.5603
16606SOL    HW253096   1.415   2.547   8.064  0.9251  0.1738  1.1053
16607SOL     OW53097   6.780   7.129   3.854 -0.1505  0.0809 -0.7453
16607SOL    HW153098   6.829   7.127   3.936 -1.9991  1.2914  0.4537
16607SOL    HW253099   6.784   7.220   3.826  1.1657 -0.4665 -2.5102
16608SOL     OW53100   2.547   1.727   5.296 -0.5154 -0.0048 -0.6819
16608SOL    HW153101   2.553   1.810   5.248 -1.0174  0.1259 -0.5269
16608SOL    HW253102   2.637   1.699   5.307 -0.2354  1.3241  0.6609
16609SOL     OW53103   6.889  10.393   1.047 -0.0070  0.7446 -0.3606
16609SOL    HW153104   6.854  10.366   1.132 -0.0278 -1.2205 -0.9470
16609SOL    HW253105   6.982  10.410   1.063  0.3441 -1.1369 -0.2124
16610SOL     OW53106   5.528   2.603   4.801  0.4023  0.1796 -0.0016
16610SOL    HW153107   5.589   2.665   4.840  0.4926 -0.7791  1.4682
16610SOL    HW253108   5.540   2.614   4.707  1.1041  1.6850  0.2293
16611SOL     OW53109   1.052   2.078  10.500 -0.5742 -0.0958  0.8259
16611SOL    HW153110   1.011   2.095  10.585 -0.6169  0.9547  0.6118
16611SOL    HW253111   1.125   2.139  10.496 -0.2058 -0.5593  0.3510
16612SOL     OW53112   9.116  10.446   1.242  0.0370  0.5347 -0.0659
16612SOL    HW153113   9.062  10.367   1.245  0.8860 -0.0632 -0.1264
16612SOL    HW253114   9.064  10.508   1.192 -0.3355 -0.2288 -0.6478
16613SOL     OW53115   0.126   1.506   0.666 -0.7827 -0.2828  0.6108
16613SOL    HW153116   0.193   1.565   0.699 -1.5037  0.7893  0.2287
16613SOL    HW253117   0.174   1.440   0.616 -0.0359  0.8471 -0.2150
16614SOL     OW53118   0.990   0.293   8.772  0.2058 -0.2269 -0.3924
16614SOL    HW153119   0.934   0.234   8.823  0.3971 -2.5198 -2.5967
16614SOL    HW253120   1.078   0.258   8.784  0.4332  0.0781 -1.1388
16615SOL     OW53121   9.401   9.912   7.142 -0.2635 -0.7380  0.1847
16615SOL    HW153122   9.405   9.850   7.215 -0.5709 -1.8999 -0.7587
16615SOL    HW253123   9.458   9.874   7.075  1.6912  1.3434  0.5337
16616SOL     OW53124   9.890   5.539   4.634 -0.2673 -0.0880  0.1218
16616SOL    HW153125   9.823   5.473   4.649 -1.4291  0.9072 -0.5447
16616SOL    HW253126   9.879   5.564   4.543  0.4570  0.7050  0.2402
16617SOL     OW53127   4.031   9.660   2.288 -0.5549 -0.0991  0.5059
16617SOL    HW153128   3.987   9.645   2.204  0.4219  2.0655 -0.4675
16617SOL    HW253129   3.966   9.635   2.353 -1.8918 -0.4370 -0.8946
16618SOL     OW53130   9.440   4.407   4.197  0.0461 -0.5502 -0.0848
16618SOL    HW153131   9.495   4.354   4.139 -1.0097  0.5977 -2.2251
16618SOL    HW253132   9.365   4.432   4.143 -0.1531  2.0079  1.2284
16619SOL     OW53133   4.412   4.726   2.049  0.2013 -0.4598 -0.2225
16619SOL    HW153134   4.366   4.810   2.051 -1.9400 -1.5623  0.3053
16619SOL    HW253135   4.382   4.685   1.968  3.4523  0.3347 -2.0227
16620SOL     OW53136   6.769  10.588   5.470  0.0507  0.2567 -0.8067
16620SOL    HW153137   6.711  10.517   5.444  0.9856 -0.4411 -1.0446
16620SOL    HW253138   6.857  10.553   5.456  0.6537  0.0615  2.6012
16621SOL     OW53139   4.500   4.900   7.387 -0.4535 -0.2927  0.0972
16621SOL    HW153140   4.410   4.893   7.357 -0.1529  1.1115 -1.2726
16621SOL    HW253141   4.493   4.904   7.483 -2.0073  1.4052 -0.0344
16622SOL     OW53142   0.239   5.618   3.403 -0.3712  0.2015 -0.0867
16622SOL    HW153143   0.320   5.669   3.394  0.3049 -0.7929  0.1307
16622SOL    HW253144   0.240   5.558   3.328 -0.3502 -0.5487  0.5018
16623SOL     OW53145   6.116   7.118  10.305  0.2349  0.5884 -0.1828
16623SOL    HW153146   6.032   7.113  10.351 -0.7437 -0.9748 -2.0136
16623SOL    HW253147   6.162   7.039  10.332  0.1863  0.3182 -0.8830
16624SOL     OW53148   3.581  10.791   1.695  0.2397 -0.2546  0.1683
16624SOL    HW153149   3.590  10.725   1.626 -1.5010 -0.0089 -0.3356
16624SOL    HW253150   3.670  10.825   1.706  1.0672 -2.1834 -0.0203
16625SOL     OW53151   3.136   6.717   5.376 -0.2609 -0.0968  0.5214
16625SOL    HW153152   3.111   6.657   5.306 -1.5544  2.0144 -0.9476
16625SOL    HW253153   3.180   6.790   5.331 -3.0674  2.3958  1.5163
16626SOL     OW53154   0.716   9.089   6.366  0.7568 -0.3519 -0.1683
16626SOL    HW153155   0.763   9.055   6.442  0.5361  0.9608  0.5848
16626SOL    HW253156   0.689   9.177   6.391 -2.7676 -1.2351 -0.2425
16627SOL     OW53157   0.462   3.132   5.408 -0.3201  0.4196 -0.4017
16627SOL    HW153158   0.549   3.136   5.447 -0.4896 -0.5454  0.0945
16627SOL    HW253159   0.415   3.067   5.460 -0.0754 -2.1320 -3.1381
16628SOL     OW53160   1.454   4.697   8.767 -0.1339 -0.1084  0.0055
16628SOL    HW153161   1.420   4.754   8.698 -1.1080 -0.8626 -0.1536
16628SOL    HW253162   1.549   4.702   8.758 -0.2451  0.2101 -1.0567
16629SOL     OW53163   6.947  10.291   0.405  0.2599 -0.5106  0.6090
16629SOL    HW153164   6.921  10.383   0.411 -2.2831 -1.1766  1.0729
16629SOL    HW253165   7.006  10.278   0.480 -0.1784  0.4997  1.1462
16630SOL     OW53166   9.194   8.765   9.936  0.1949  0.2846  0.6370
16630SOL    HW153167   9.193   8.709   9.859  1.8021  0.6624  0.3036
16630SOL    HW253168   9.218   8.851   9.903  4.5888 -0.2206  1.8396
16631SOL     OW53169   5.248   0.646   1.855  1.0740 -0.5982  0.6072
16631SOL    HW153170   5.331   0.609   1.827 -0.4261 -3.0357 -1.0155
16631SOL    HW253171   5.211   0.581   1.914  1.0999  1.3513  2.9182
16632SOL     OW53172   9.662   5.559   5.638 -0.0938  0.4927 -0.0560
16632SOL    HW153173   9.621   5.628   5.690  0.6132 -0.0675  1.3117
16632SOL    HW253174   9.742   5.537   5.687  0.3235 -0.4447 -1.1130
16633SOL     OW53175  11.127   9.856   1.981 -0.3411  0.8133 -0.7862
16633SOL    HW153176  11.084   9.915   1.918 -2.2365 -0.3301 -0.6497
16633SOL    HW253177  11.055   9.808   2.022  1.0728 -1.0680 -0.3596
16634SOL     OW53178  10.522   6.413   4.903 -0.1408  0.6768  0.0690
16634SOL    HW153179  10.451   6.444   4.846 -1.0001 -0.6509  0.3953
16634SOL    HW253180  10.499   6.323   4.924  1.9188  0.0338 -0.2291
16635SOL     OW53181   6.532  10.493   2.045  0.0685  0.9063  0.0400
16635SOL    HW153182   6.625  10.517   2.042  0.6387 -1.2078 -1.7796
16635SOL    HW253183   6.506  10.510   2.136  1.9713  2.3805  0.3716
16636SOL     OW53184   1.116  11.361   2.721 -0.2708  0.0804 -0.5888
16636SOL    HW153185   1.149  11.284   2.766 -0.8928  0.1230 -0.0528
16636SOL    HW253186   1.146  11.350   2.630  0.1523 -0.4844 -0.3888
16637SOL     OW53187   5.574   2.774   3.602 -0.1522 -0.9720 -0.0860
16637SOL    HW153188   5.505   2.837   3.627 -0.0938 -0.9585  0.0416
16637SOL    HW253189   5.578   2.713   3.675  0.6906 -0.3728  0.3864
16638SOL     OW53190   9.633   3.028  11.021 -0.2483 -0.0538 -0.4494
16638SOL    HW153191   9.715   3.071  10.999 -0.6986  1.2561  0.3356
16638SOL    HW253192   9.660   2.943  11.056  0.7851  0.3688 -0.1712
16639SOL     OW53193  11.051   4.627   6.732 -0.1762 -0.5706  0.0662
16639SOL    HW153194  11.076   4.670   6.814 -1.9938 -0.1368  0.4332
16639SOL    HW253195  11.133   4.592   6.698  0.6799 -0.4894  1.9021
16640SOL     OW53196   6.430   3.685   2.747  0.0969  0.7190  0.2691
16640SOL    HW153197   6.368   3.665   2.677 -0.8449 -0.3920  1.3621
16640SOL    HW253198   6.485   3.607   2.754  2.3249  2.0251 -1.2923
16641SOL     OW53199   3.780   2.705   5.784  1.0003  0.2546 -0.4043
16641SOL    HW153200   3.754   2.689   5.693 -0.9244  0.8530 -0.0167
16641SOL    HW253201   3.853   2.766   5.778  1.9364 -0.9165 -1.5672
16642SOL     OW53202  10.591   1.877   6.414 -0.4495 -0.2226  0.7587
16642SOL    HW153203  10.624   1.955   6.459 -1.0277  0.7644 -0.4788
16642SOL    HW253204  10.633   1.804   6.460  1.3492  0.8624  0.9576
16643SOL     OW53205   1.702   8.334   7.943  0.1518 -0.1609 -0.0225
16643SOL    HW153206   1.684   8.414   7.993 -0.2606 -0.1640 -0.1599
16643SOL    HW253207   1.786   8.304   7.976  1.1113  1.2043 -1.1014
16644SOL     OW53208   6.511   8.813   0.265 -0.2685  0.1027  0.3634
16644SOL    HW153209   6.419   8.840   0.272 -0.0838  0.3327  2.2458
16644SOL    HW253210   6.514   8.727   0.305  0.1634 -0.3646 -0.6541
16645SOL     OW53211  11.219   1.175   2.258 -0.1290 -0.2811 -0.2843
16645SOL    HW153212  11.270   1.118   2.200 -1.5158 -1.3285 -0.5220
16645SOL    HW253213  11.271   1.256   2.264  0.5911 -0.5728 -2.0723
16646SOL     OW53214   4.313   8.277  10.675 -0.2288 -0.3749  0.4846
16646SOL    HW153215   4.223   8.246  10.669 -0.9101  1.7513 -1.3610
16646SOL    HW253216   4.306   8.372  10.679  1.9516 -0.1103 -0.5163
16647SOL     OW53217  10.537   8.789   3.855 -0.4996 -0.4018 -0.4410
16647SOL    HW153218  10.597   8.722   3.887  0.0076  0.4373  0.4234
16647SOL    HW253219  10.454   8.769   3.897 -0.5110 -0.8441 -0.6695
16648SOL     OW53220   2.916  10.610   7.577 -0.3780  0.2029 -0.1542
16648SOL    HW153221   2.824  10.611   7.604 -0.7887  0.8671 -1.4485
16648SOL    HW253222   2.954  10.687   7.618 -0.1585 -0.5608  1.1086
16649SOL     OW53223   8.202   1.659   3.843 -0.5671 -0.6908 -0.0296
16649SOL    HW153224   8.121   1.708   3.833 -1.0071 -1.4737 -0.4292
16649SOL    HW253225   8.225   1.631   3.754 -0.6402 -1.6709  0.2406
16650SOL     OW53226   2.598   8.854   4.938  1.0782  0.5651 -0.5949
16650SOL    HW153227   2.613   8.870   5.031 -2.6944  0.5433  0.2050
16650SOL    HW253228   2.656   8.782   4.916  3.7923  2.0832  1.0510
16651SOL     OW53229   5.109   3.222   1.119  0.1327 -0.1893  0.8978
16651SOL    HW153230   5.202   3.206   1.128  1.1304  2.6393 -2.0216
16651SOL    HW253231   5.088   3.191   1.031 -0.6269  2.6396 -0.0359
16652SOL     OW53232  11.048   8.816  11.099  0.3338  0.3090  0.2725
16652SOL    HW153233  10.969   8.786  11.054  1.1015 -1.5343  0.0422
16652SOL    HW253234  11.039   8.911  11.104 -1.3212  0.2466 -0.8226
16653SOL     OW53235   5.570   1.826   2.152  0.1020 -0.0631 -0.1976
16653SOL    HW153236   5.628   1.854   2.224 -1.5405 -1.3573  1.7632
16653SOL    HW253237   5.543   1.907   2.110  0.5887  0.8145  1.0972
16654SOL     OW53238   5.689   2.571   5.469 -0.1802 -0.7354 -0.0794
16654SOL    HW153239   5.714   2.568   5.377  0.9514  2.8952 -0.0464
16654SOL    HW253240   5.756   2.625   5.511 -2.1681  0.0874  2.3010
16655SOL     OW53241  10.417   0.703   4.695 -0.2162  0.0537 -0.0286
16655SOL    HW153242  10.407   0.736   4.606 -0.6747 -0.7185 -0.2724
16655SOL    HW253243  10.344   0.642   4.707  0.0791 -0.1700  0.7267
16656SOL     OW53244   2.510   7.772   8.539  0.2792  0.4464 -0.1767
16656SOL    HW153245   2.513   7.677   8.531 -0.3543  0.4429 -0.4235
16656SOL    HW253246   2.602   7.799   8.545  0.4268 -0.3694  2.3498
16657SOL     OW53247   0.733   3.557   4.590 -0.1861  0.0849  0.5171
16657SOL    HW153248   0.768   3.502   4.520  0.7437 -0.7619  1.6046
16657SOL    HW253249   0.650   3.516   4.614 -2.0639  2.0514 -2.0116
16658SOL     OW53250   1.122   3.283   4.494  0.4838 -0.7186  0.2676
16658SOL    HW153251   1.187   3.212   4.497  1.4174  0.1311  0.7112
16658SOL    HW253252   1.108   3.306   4.586  1.9778  1.2399  0.0676
16659SOL     OW53253   9.018  10.243  11.041 -0.0554  0.5697 -0.0466
16659SOL    HW153254   9.106  10.214  11.016 -1.1035 -0.2016 -3.4123
16659SOL    HW253255   8.983  10.172  11.094  1.1631  0.7018  0.9751
16660SOL     OW53256   0.044   2.893  11.219  0.6135 -0.5705 -0.7998
16660SOL    HW153257   0.013   2.817  11.267 -0.5658  0.9197  0.9098
16660SOL    HW253258   0.008   2.882  11.131 -1.3374 -0.9448  0.0118
16661SOL     OW53259  11.190   2.418   6.204  0.0668 -0.0209 -0.0829
16661SOL    HW153260  11.195   2.327   6.175 -0.0193 -0.5434  1.4360
16661SOL    HW253261  11.277   2.437   6.240  0.1239  0.5481 -0.5025
16662SOL     OW53262   5.372   0.907   7.780 -0.4600 -0.1864 -0.1957
16662SOL    HW153263   5.391   0.853   7.704 -1.0780  1.3857 -1.5516
16662SOL    HW253264   5.417   0.990   7.762 -0.1675  0.0337  1.4320
16663SOL     OW53265   1.358   0.322  10.585 -0.1026  0.3619  0.5313
16663SOL    HW153266   1.368   0.342  10.678 -0.3252 -0.6023  0.7761
16663SOL    HW253267   1.377   0.228  10.579  2.5540  0.8758 -0.8066
16664SOL     OW53268   1.612   6.476   8.999 -0.7877  0.5566 -0.1773
16664SOL    HW153269   1.676   6.408   9.020 -0.4893  1.0958  0.7467
16664SOL    HW253270   1.535   6.455   9.053 -0.5303  1.1787  0.4594
16665SOL     OW53271   0.860   8.486  10.604 -0.8774  0.4963 -0.2184
16665SOL    HW153272   0.925   8.550  10.573  0.3595 -0.7520 -0.2861
16665SOL    HW253273   0.812   8.460  10.526 -1.3614  1.3092 -0.1978
16666SOL     OW53274   1.787   3.476   2.874 -0.5285  0.0347  0.2108
16666SOL    HW153275   1.692   3.471   2.864 -0.6755  0.0399  1.4179
16666SOL    HW253276   1.821   3.409   2.815 -1.2949 -0.1847  0.0044
16667SOL     OW53277   2.243   7.705   5.549  0.2274  0.2976 -0.3984
16667SOL    HW153278   2.315   7.730   5.608  1.1350 -0.8256 -0.9913
16667SOL    HW253279   2.210   7.623   5.586  0.6680 -0.3080 -1.3279
16668SOL     OW53280   2.377   7.966   1.799  0.4892  0.6333 -0.6541
16668SOL    HW153281   2.349   7.881   1.765  0.5572  0.7966 -1.1326
16668SOL    HW253282   2.295   8.009   1.824  0.5357 -0.0130  0.6726
16669SOL     OW53283  10.490   8.625   8.042 -0.5758 -0.1017 -0.3126
16669SOL    HW153284  10.559   8.672   7.996 -1.5505  1.4262 -0.3021
16669SOL    HW253285  10.535   8.575   8.110  0.9298 -2.5044 -2.8379
16670SOL     OW53286   7.657   4.253   6.387 -0.4501  0.6795 -0.5449
16670SOL    HW153287   7.595   4.246   6.315  0.1413  0.5869 -1.0592
16670SOL    HW253288   7.697   4.340   6.376  0.3726  0.2690 -0.9524
16671SOL     OW53289   1.044   5.153   8.519 -0.1850  0.1427 -0.3588
16671SOL    HW153290   1.000   5.184   8.598  0.5221 -0.8681  0.4655
16671SOL    HW253291   0.997   5.073   8.496  0.2963 -0.1587 -0.3104
16672SOL     OW53292  10.055   3.676   7.417 -0.7594  0.5325  0.2936
16672SOL    HW153293  10.072   3.671   7.323 -2.2983 -0.0795  0.0264
16672SOL    HW253294  10.090   3.593   7.451  1.2187  1.4021  0.5522
16673SOL     OW53295   6.044   2.923   0.217 -0.2799  0.0021  0.5377
16673SOL    HW153296   5.976   2.856   0.211  1.4660 -1.8615  0.4625
16673SOL    HW253297   6.046   2.946   0.310 -1.2240  0.3337  0.4866
16674SOL     OW53298   5.672   8.907   5.801  0.2520  0.6786 -0.3419
16674SOL    HW153299   5.666   8.816   5.770  1.7090  0.5392 -0.3026
16674SOL    HW253300   5.609   8.912   5.872  2.3068 -1.2911  1.8076
16675SOL     OW53301   4.283   9.385   1.864 -0.3484 -0.1892  0.5526
16675SOL    HW153302   4.375   9.364   1.880 -0.0976  1.3562  1.2741
16675SOL    HW253303   4.283   9.429   1.779  0.0911  2.6449  1.9061
16676SOL     OW53304   7.029   2.634   2.469  0.6217  0.4867 -0.3243
16676SOL    HW153305   7.046   2.659   2.378 -0.1603 -0.4161 -0.7276
16676SOL    HW253306   7.103   2.671   2.518  0.0406  2.7343 -1.0210
16677SOL     OW53307   3.497   9.069   8.873 -0.3004 -0.6175 -0.0366
16677SOL    HW153308   3.474   9.130   8.803  0.0565 -0.3162  0.1019
16677SOL    HW253309   3.593   9.069   8.874 -0.1959  1.9409  2.5805
16678SOL     OW53310   1.336   8.234   0.952 -0.4200 -0.1959  0.4100
16678SOL    HW153311   1.316   8.146   0.984 -1.6902 -0.3094 -0.6312
16678SOL    HW253312   1.313   8.232   0.859  2.9711  0.1707 -0.5891
16679SOL     OW53313   8.157   4.688   6.594 -0.5513 -0.2581 -0.5067
16679SOL    HW153314   8.100   4.764   6.582  0.2145  0.6765  1.3945
16679SOL    HW253315   8.099   4.620   6.629 -0.9986 -0.1468 -1.0286
16680SOL     OW53316   4.421  10.293   3.063  0.1218  0.8475  0.3988
16680SOL    HW153317   4.498  10.272   3.010 -0.7962  0.2557 -0.7520
16680SOL    HW253318   4.351  10.306   2.999 -0.7143  1.4828  1.4141
16681SOL     OW53319   6.903   5.617   5.746  0.1360  0.4304 -0.2121
16681SOL    HW153320   6.918   5.668   5.667  0.0628  1.0370  0.1646
16681SOL    HW253321   6.957   5.539   5.735  1.9187  1.5589  0.1564
16682SOL     OW53322   3.206   5.296   6.825  0.0076 -0.5411  0.1618
16682SOL    HW153323   3.299   5.315   6.834 -0.0965 -0.7550  2.1656
16682SOL    HW253324   3.202   5.221   6.767  1.2263 -1.4362  1.1780
16683SOL     OW53325   7.249   4.242   3.345  0.6297 -0.2202  0.1267
16683SOL    HW153326   7.225   4.274   3.257  1.4291  1.6934  0.5447
16683SOL    HW253327   7.167   4.211   3.382  0.3452 -1.4978 -1.4353
16684SOL     OW53328   0.420   6.567   3.537 -0.0038  0.3364 -0.1793
16684SOL    HW153329   0.369   6.488   3.519  0.7282  0.0519 -1.1116
16684SOL    HW253330   0.475   6.578   3.460  1.6419  0.4063  0.9656
16685SOL     OW53331  11.092   1.751  10.575 -0.0234 -0.3865 -0.0505
16685SOL    HW153332  11.164   1.763  10.512 -0.3391  1.2576 -0.1403
16685SOL    HW253333  11.132   1.704  10.648  0.4637 -1.9391 -1.2544
16686SOL     OW53334   7.620   8.320   3.713 -0.6711  0.3010 -0.4439
16686SOL    HW153335   7.706   8.330   3.755 -0.9663 -0.6161  0.4084
16686SOL    HW253336   7.640   8.317   3.619  0.0333  2.0456 -0.3957
16687SOL     OW53337   2.700   7.168   1.446 -0.0865 -0.2653  0.5099
16687SOL    HW153338   2.707   7.256   1.484 -1.1756 -0.2745  0.7726
16687SOL    HW253339   2.629   7.126   1.496 -1.9401 -0.1150 -1.8085
16688SOL     OW53340   2.962   4.592  10.999 -0.1651  0.0510 -0.0361
16688SOL    HW153341   3.006   4.547  10.927 -0.7811  0.6457 -0.8085
16688SOL    HW253342   2.933   4.522  11.057  0.1423 -0.4585 -0.4841
16689SOL     OW53343   1.283   4.736   2.668 -0.3794 -0.5635 -0.1877
16689SOL    HW153344   1.320   4.666   2.614 -1.1850 -1.0210 -0.1571
16689SOL    HW253345   1.193   4.708   2.685 -0.4950  0.1514  0.4015
16690SOL     OW53346   2.048   9.317   9.833  0.0657  0.0894 -0.7523
16690SOL    HW153347   1.957   9.285   9.834  0.1390 -0.1386  0.3188
16690SOL    HW253348   2.092   9.260   9.771 -1.1292  2.0935 -3.6467
16691SOL     OW53349   6.860   2.391  10.859  0.3532  0.5844 -0.1765
16691SOL    HW153350   6.846   2.422  10.948 -0.4112  2.2927 -0.8648
16691SOL    HW253351   6.954   2.401  10.845  0.2809  1.5649 -0.0071
16692SOL     OW53352   2.337   4.806   6.718  0.3940 -0.9930 -0.1223
16692SOL    HW153353   2.340   4.786   6.625  0.3938 -1.2307 -0.0727
16692SOL    HW253354   2.253   4.770   6.748 -0.3941  0.5414 -0.3569
16693SOL     OW53355   5.955   0.182   5.107  0.1433 -0.3354  0.5537
16693SOL    HW153356   5.917   0.126   5.039 -0.2341 -1.3349  1.5560
16693SOL    HW253357   5.943   0.133   5.188 -1.6984  1.9048  1.7633
16694SOL     OW53358   4.851   0.417   3.838  0.1800  0.1234  0.2627
16694SOL    HW153359   4.882   0.392   3.926 -1.0007  1.0781  0.9856
16694SOL    HW253360   4.836   0.334   3.794 -0.2893 -0.4055  1.3716
16695SOL     OW53361   0.013   0.362   9.124  0.3944 -0.0412 -1.0162
16695SOL    HW153362  -0.040   0.352   9.045  1.3724  1.8225 -1.9799
16695SOL    HW253363   0.103   0.347   9.094  0.6488 -0.9718  0.1251
16696SOL     OW53364   8.168   1.669  10.943 -0.4348  0.2584 -0.2551
16696SOL    HW153365   8.263   1.661  10.938 -0.3728  0.5482  0.3477
16696SOL    HW253366   8.136   1.631  10.862  0.2895  1.6043 -1.2058
16697SOL     OW53367   3.943   6.312   7.248  0.2576  0.4089 -0.0655
16697SOL    HW153368   4.022   6.359   7.276 -0.6542  1.2331  1.2342
16697SOL    HW253369   3.909   6.272   7.328 -0.5660 -0.0552 -0.6343
16698SOL     OW53370  10.359   2.061  10.524 -0.3561  0.1579 -0.1858
16698SOL    HW153371  10.373   2.013  10.606  0.0035 -1.4903 -1.1491
16698SOL    HW253372  10.447   2.071  10.487 -0.6538 -0.5218 -1.1014
16699SOL     OW53373  11.271   5.531   8.895  0.4191 -0.2460 -0.2052
16699SOL    HW153374  11.209   5.552   8.965  1.6623  0.6978  0.6419
16699SOL    HW253375  11.272   5.609   8.840  1.9286  0.3370  0.6079
16700SOL     OW53376   5.850   0.214   7.862 -0.5045 -0.2476 -0.5972
16700SOL    HW153377   5.816   0.228   7.951 -0.2509  1.0675 -0.6760
16700SOL    HW253378   5.812   0.131   7.834 -1.7888  0.0470  0.1843
16701SOL     OW53379   0.722   8.739   1.477  0.5712  0.6114  0.7114
16701SOL    HW153380   0.812   8.753   1.448  0.8497 -0.4642  0.9916
16701SOL    HW253381   0.710   8.801   1.548  1.7074 -0.4263  1.8610
16702SOL     OW53382   9.745   1.839   2.020  0.0681 -0.1118  0.2178
16702SOL    HW153383   9.752   1.904   2.090  0.8029 -0.2559  0.2883
16702SOL    HW253384   9.826   1.849   1.970 -0.1691 -0.4377 -0.2377
16703SOL     OW53385   8.930   6.228   8.571 -0.1620  0.0436  0.1934
16703SOL    HW153386   8.849   6.274   8.551 -0.8877 -1.9213 -1.7919
16703SOL    HW253387   9.000   6.292   8.555 -1.0973  0.4482 -2.7831
16704SOL     OW53388   4.835   6.509   5.365  0.0749 -0.3854  0.0985
16704SOL    HW153389   4.822   6.467   5.280 -0.8010 -1.2018  0.6104
16704SOL    HW253390   4.752   6.496   5.411 -0.1914  1.8024  0.3487
16705SOL     OW53391   8.931   8.018   9.450  0.2288  0.2813  0.0706
16705SOL    HW153392   8.940   7.960   9.375  1.7655  0.9402 -0.2861
16705SOL    HW253393   8.837   8.036   9.456  0.2057  1.4305 -2.6484
16706SOL     OW53394   8.742   3.514   2.925 -0.3787 -0.6346  0.3167
16706SOL    HW153395   8.682   3.507   2.850  1.5063  0.8622 -1.4292
16706SOL    HW253396   8.685   3.533   2.999 -2.0759  1.4556 -1.3933
16707SOL     OW53397   6.563   7.363   0.029  0.1513  0.1571  0.1651
16707SOL    HW153398   6.587   7.374   0.121  0.4185  0.3413  0.0736
16707SOL    HW253399   6.590   7.444  -0.013  1.9041 -0.6936 -0.4613
16708SOL     OW53400   2.467  10.732   5.777 -0.0724  0.0991 -0.2885
16708SOL    HW153401   2.389  10.679   5.761 -0.5277 -0.2944  2.6846
16708SOL    HW253402   2.538  10.667   5.784  0.1698  0.2840 -0.9743
16709SOL     OW53403   3.208   6.884   6.874  0.6002  0.5514 -0.0408
16709SOL    HW153404   3.155   6.808   6.848 -0.8660  1.2970  0.6618
16709SOL    HW253405   3.251   6.856   6.955 -0.5958  0.7137  0.6832
16710SOL     OW53406   6.650   1.443   7.184  0.2391  0.2755  0.8530
16710SOL    HW153407   6.681   1.530   7.207  0.9259 -0.4754  2.9670
16710SOL    HW253408   6.712   1.383   7.226 -2.5255 -1.2475  3.1143
16711SOL     OW53409   3.263   5.214   4.793 -0.7058  0.0833  0.2778
16711SOL    HW153410   3.354   5.237   4.814 -0.7631 -0.1193  0.7674
16711SOL    HW253411   3.268   5.176   4.705 -0.2392 -0.3699  0.4912
16712SOL     OW53412   2.803   0.037   4.849 -0.0804  0.5987  0.7224
16712SOL    HW153413   2.895   0.024   4.829 -0.1218  0.1363  0.8227
16712SOL    HW253414   2.802   0.052   4.944 -0.0587  1.1069  0.6453
16713SOL     OW53415   9.463   5.351   8.718 -0.0507  0.1015 -0.4438
16713SOL    HW153416   9.390   5.353   8.780  0.3302 -0.3238  0.0359
16713SOL    HW253417   9.435   5.406   8.645  0.6516  3.1730  1.4124
16714SOL     OW53418   8.205   1.650   4.123  0.4656 -0.1339 -0.1051
16714SOL    HW153419   8.198   1.562   4.161  2.5998 -0.7716 -1.0155
16714SOL    HW253420   8.193   1.636   4.029 -3.6313  1.2607 -0.0241
16715SOL     OW53421   2.662   3.985   9.367 -0.1827  0.2061  0.7045
16715SOL    HW153422   2.567   3.973   9.368 -0.5348  2.5905  0.2866
16715SOL    HW253423   2.677   4.055   9.304  1.9487 -0.6234  0.2164
16716SOL     OW53424   3.470   1.106   1.053 -0.6806  0.0250  0.0760
16716SOL    HW153425   3.452   1.068   1.139 -3.3284  1.7869  0.4213
16716SOL    HW253426   3.530   1.178   1.071 -0.8759  0.1116  0.3909
16717SOL     OW53427   7.666   6.289  11.349  0.1811  0.2296 -0.4799
16717SOL    HW153428   7.700   6.203  11.323 -3.3390 -1.4004 -0.3258
16717SOL    HW253429   7.700   6.303  11.437 -0.6793 -2.0213  0.2752
16718SOL     OW53430   9.517   3.268   9.891 -0.1312 -0.2652 -0.3358
16718SOL    HW153431   9.496   3.186   9.848 -0.3430 -1.3677  1.7087
16718SOL    HW253432   9.610   3.261   9.912 -0.2151 -0.1177  0.0988
16719SOL     OW53433   8.918   4.147   1.533 -0.3069 -0.4123 -0.1994
16719SOL    HW153434   8.843   4.099   1.497 -0.2066 -0.1023 -0.8372
16719SOL    HW253435   8.970   4.080   1.577 -0.0250 -0.9534 -1.3148
16720SOL     OW53436   8.087   5.811  10.234  0.3600 -0.0130 -0.1244
16720SOL    HW153437   8.081   5.875  10.163 -0.1289 -0.0914 -0.1530
16720SOL    HW253438   8.158   5.753  10.207 -1.5773 -1.7026 -1.9088
16721SOL     OW53439   3.890   3.443   8.001 -0.3807 -0.0866  0.0672
16721SOL    HW153440   3.977   3.405   8.014  0.5600  1.8513 -0.2275
16721SOL    HW253441   3.907   3.534   7.978 -2.3706 -0.3830 -3.1212
16722SOL     OW53442   7.663   9.721   0.268  0.0419 -0.2685  0.1788
16722SOL    HW153443   7.753   9.752   0.262 -0.0379  0.2782  1.5488
16722SOL    HW253444   7.615   9.776   0.206  0.5741 -0.2851 -0.2579
16723SOL     OW53445   9.767  10.428  10.897  0.0072  0.0685  0.0931
16723SOL    HW153446   9.717  10.486  10.840 -0.0524  0.1724  0.2544
16723SOL    HW253447   9.758  10.341  10.856  0.5245  0.2592 -0.4376
16724SOL     OW53448   5.007   3.826   5.946  0.7043 -0.0062  0.3682
16724SOL    HW153449   5.091   3.871   5.949  0.5999  0.1361  1.4411
16724SOL    HW253450   4.942   3.895   5.958  0.4918 -0.2911  0.8645
16725SOL     OW53451   2.214   9.637   9.613 -0.1116 -0.8462 -0.4149
16725SOL    HW153452   2.295   9.627   9.663 -1.5276 -1.2981  1.9459
16725SOL    HW253453   2.227   9.582   9.536  2.0847 -0.3311 -0.4841
16726SOL     OW53454   9.451   3.028  10.794 -0.2442  0.3364  0.1001
16726SOL    HW153455   9.501   3.062  10.869 -0.8075  0.8616  0.2458
16726SOL    HW253456   9.515   2.979  10.743  0.6206  1.6476 -0.1428
16727SOL     OW53457   4.168  11.340   4.158  0.4839 -0.2784  0.0442
16727SOL    HW153458   4.239  11.362   4.219  1.0616  0.6517 -0.9242
16727SOL    HW253459   4.139  11.425   4.124 -1.7169 -0.5582  1.0723
16728SOL     OW53460   6.734   1.555   6.603  0.2702  0.4678 -0.0379
16728SOL    HW153461   6.713   1.605   6.682 -1.2992  0.8537 -0.6491
16728SOL    HW253462   6.754   1.622   6.537  1.6997  0.1465  0.0488
16729SOL     OW53463   1.216  10.191   5.570  0.5782 -0.4343 -0.4572
16729SOL    HW153464   1.149  10.179   5.503 -0.7204  1.0070  0.4985
16729SOL    HW253465   1.282  10.246   5.528  0.1235 -0.1220 -0.7758
16730SOL     OW53466   4.791   3.809   5.574  0.2445  0.6345  0.6778
16730SOL    HW153467   4.698   3.808   5.552  0.0141  0.3735  1.6331
16730SOL    HW253468   4.820   3.898   5.556  0.1727  0.3523 -1.0412
16731SOL     OW53469   5.085   9.832   8.727 -0.0833  0.2702 -0.2603
16731SOL    HW153470   5.070   9.884   8.806  0.2459  0.6692 -0.4563
16731SOL    HW253471   5.105   9.744   8.760  3.5163  1.1479  0.3350
16732SOL     OW53472   4.292  10.770   2.804  0.4399  0.0526 -0.4420
16732SOL    HW153473   4.236  10.817   2.865  0.5129 -0.1955 -0.1807
16732SOL    HW253474   4.320  10.837   2.741 -0.7865  0.0094 -1.0502
16733SOL     OW53475   5.020  10.967   9.811 -0.0222  0.0517 -0.3618
16733SOL    HW153476   5.023  10.880   9.770  0.0955  1.0397 -2.5962
16733SOL    HW253477   4.940  11.007   9.776  0.3537  1.1425 -0.0260
16734SOL     OW53478   7.288   7.231   7.621 -0.1579  0.5138  0.6011
16734SOL    HW153479   7.265   7.232   7.528  2.8113 -0.1772 -0.2711
16734SOL    HW253480   7.266   7.318   7.652 -1.4045  0.7004 -0.6961
16735SOL     OW53481   1.806  10.326   8.342 -0.0155  0.3457 -0.0398
16735SOL    HW153482   1.748  10.401   8.353  1.3661  1.2270  1.9991
16735SOL    HW253483   1.775  10.263   8.407  2.0517  1.4067  2.1161
16736SOL     OW53484   2.423   6.343   2.232 -0.4669 -0.2858  0.2430
16736SOL    HW153485   2.449   6.259   2.193 -1.6893 -0.9141  0.7082
16736SOL    HW253486   2.357   6.319   2.297 -0.0097  0.9391  1.1959
16737SOL     OW53487   5.011   8.993   5.168 -0.0449 -0.1405  0.3910
16737SOL    HW153488   5.018   9.006   5.263  0.1523  0.2419  0.3273
16737SOL    HW253489   4.969   9.073   5.137  0.8384  0.1918  0.0303
16738SOL     OW53490   1.434   0.830  11.375 -0.6995  0.1424 -0.0633
16738SOL    HW153491   1.354   0.778  11.367 -1.1395  0.7200  0.3954
16738SOL    HW253492   1.449   0.865  11.287 -1.8998  1.3571  0.1750
16739SOL     OW53493   1.652   1.142   5.448  0.1009 -0.0877  0.4700
16739SOL    HW153494   1.593   1.188   5.508 -1.2062  0.3302 -1.0566
16739SOL    HW253495   1.670   1.206   5.380  0.9138 -0.8010  0.0017
16740SOL     OW53496   1.181   1.614  11.159 -0.7829 -0.2091 -0.3361
16740SOL    HW153497   1.197   1.553  11.231 -2.6752 -0.4206 -0.0563
16740SOL    HW253498   1.261   1.667  11.154 -0.2644 -0.7880  1.3105
16741SOL     OW53499   2.716   6.381   5.088  0.7770  0.3284  0.1183
16741SOL    HW153500   2.640   6.324   5.091  1.3398 -0.4045  0.6964
16741SOL    HW253501   2.764   6.362   5.168  0.9893  1.6115  0.3153
16742SOL     OW53502  10.534   5.177   1.894  0.2778 -0.4536 -0.3232
16742SOL    HW153503  10.484   5.172   1.813  1.0738 -2.1955 -0.7572
16742SOL    HW253504  10.624   5.196   1.865  0.6173 -1.3506  0.1091
16743SOL     OW53505   7.113   4.489   9.834  0.3786  0.0967 -0.0601
16743SOL    HW153506   7.106   4.546   9.910 -0.1065  0.3568 -0.2934
16743SOL    HW253507   7.188   4.523   9.785  1.6405 -0.9849  1.0416
16744SOL     OW53508   5.149  11.010   7.890  0.6657 -0.2284  0.0402
16744SOL    HW153509   5.225  10.952   7.878  0.7690 -0.2414  0.7108
16744SOL    HW253510   5.156  11.039   7.981 -0.9581 -1.4096  0.5832
16745SOL     OW53511   0.745   3.267   4.151  0.0190  0.0907  0.3980
16745SOL    HW153512   0.684   3.289   4.081  0.7125 -0.1920 -0.3097
16745SOL    HW253513   0.819   3.225   4.107  0.1204 -0.8094  1.3797
16746SOL     OW53514   0.696   2.281   2.459 -0.1817  0.0052 -0.3012
16746SOL    HW153515   0.674   2.255   2.369 -0.8737 -0.9373  0.1316
16746SOL    HW253516   0.703   2.377   2.455 -0.7962  0.0208 -1.2293
16747SOL     OW53517   1.999   2.382   0.518 -0.3695  0.0036 -0.2089
16747SOL    HW153518   2.056   2.441   0.567 -0.8414  0.5066 -0.2484
16747SOL    HW253519   1.929   2.439   0.485 -1.7641 -0.8406  1.1411
16748SOL     OW53520   6.197   4.125   4.068 -0.0162 -0.0838  0.2620
16748SOL    HW153521   6.116   4.073   4.075  0.5154 -1.2055 -1.2244
16748SOL    HW253522   6.262   4.073   4.114  0.7007 -1.2439 -1.9069
16749SOL     OW53523   7.001   4.638   7.593  0.0684 -0.1349  0.1756
16749SOL    HW153524   7.039   4.665   7.509 -1.3508 -0.1268 -0.4944
16749SOL    HW253525   6.931   4.702   7.609  0.0732 -0.3692  1.1763
16750SOL     OW53526  10.543   8.628  10.260 -0.0664 -0.0402  0.0435
16750SOL    HW153527  10.480   8.557  10.245 -1.2636  0.2919  2.7999
16750SOL    HW253528  10.511   8.700  10.205 -0.3901 -0.8129 -0.7943
16751SOL     OW53529   3.128   2.671   6.856  0.6417 -0.2368 -0.4253
16751SOL    HW153530   3.083   2.656   6.773  0.2650 -0.7294 -0.1347
16751SOL    HW253531   3.142   2.766   6.859 -1.7143  0.1608  0.1423
16752SOL     OW53532   1.953  11.379   5.348  0.3734  0.8131  0.0401
16752SOL    HW153533   2.018  11.326   5.303  0.6060  1.7345 -0.7267
16752SOL    HW253534   1.987  11.469   5.343 -0.2529  1.1159  0.8901
16753SOL     OW53535   1.817   1.464   7.205 -0.3075  0.4086 -0.2102
16753SOL    HW153536   1.844   1.453   7.296 -0.2055 -0.3466 -0.3192
16753SOL    HW253537   1.879   1.527   7.168  0.5995 -0.4227 -0.1443
16754SOL     OW53538   9.730  10.368   3.672 -0.0406  0.4066 -0.2637
16754SOL    HW153539   9.716  10.354   3.766  1.4099  1.0449  0.0838
16754SOL    HW253540   9.736  10.279   3.636 -1.6789  0.1403  0.0342
16755SOL     OW53541   5.503   1.344   4.914  0.2572 -0.2075 -0.5702
16755SOL    HW153542   5.534   1.348   4.823  2.1405  1.6543  0.0872
16755SOL    HW253543   5.509   1.252   4.937  2.8748 -0.3146 -1.3617
16756SOL     OW53544   4.841   0.696  10.436 -0.1434 -0.4401 -0.4294
16756SOL    HW153545   4.885   0.757  10.496  0.0987 -1.3082  0.2973
16756SOL    HW253546   4.894   0.698  10.357 -0.8112  1.1926 -0.8783
16757SOL     OW53547   7.834   0.172   6.535 -0.2414 -0.0204  0.0347
16757SOL    HW153548   7.840   0.268   6.528 -0.0599 -0.0844 -0.7659
16757SOL    HW253549   7.833   0.142   6.444 -0.7819 -0.7513  0.2772
16758SOL     OW53550   6.456   3.924   5.533  0.8494  0.1248 -0.1531
16758SOL    HW153551   6.515   3.968   5.472  0.5554 -0.7957 -1.1299
16758SOL    HW253552   6.433   3.842   5.489 -1.0056  0.3649  0.2947
16759SOL     OW53553   5.088   6.554   5.986 -0.0644 -0.0805  0.1563
16759SOL    HW153554   5.152   6.505   5.934  0.4737  1.0082 -0.2301
16759SOL    HW253555   5.136   6.583   6.063 -0.9960 -2.1673  1.6326
16760SOL     OW53556   7.491   2.464   3.835 -0.1720  0.4568  0.9090
16760SOL    HW153557   7.566   2.434   3.886 -0.1139  0.7737  1.0136
16760SOL    HW253558   7.516   2.452   3.744  0.5053  1.7257  0.9085
16761SOL     OW53559   4.560  10.526   0.035 -0.4875 -0.0457 -0.0631
16761SOL    HW153560   4.538  10.501  -0.055 -1.4888 -0.2772  0.2370
16761SOL    HW253561   4.497  10.479   0.089  1.6528 -1.9245  0.9614
16762SOL     OW53562  11.250   7.879   2.433  0.7618 -1.0260  0.0464
16762SOL    HW153563  11.255   7.844   2.522  1.9295 -2.9989 -0.7314
16762SOL    HW253564  11.157   7.899   2.420  0.6142 -0.3971  1.7725
16763SOL     OW53565   2.228   4.991   1.729  0.3848 -0.1133 -0.0660
16763SOL    HW153566   2.249   4.925   1.663  0.3860  2.1438 -2.4915
16763SOL    HW253567   2.150   5.035   1.696 -0.7222 -0.0699  2.4177
16764SOL     OW53568   2.077   9.321   5.560  0.0064 -0.5409 -0.2071
16764SOL    HW153569   2.039   9.375   5.490  0.0125  0.6474  0.6594
16764SOL    HW253570   2.125   9.384   5.614  2.1779 -1.8040 -0.5556
16765SOL     OW53571  10.555   5.193   4.774  0.2044 -0.2380 -0.0579
16765SOL    HW153572  10.476   5.142   4.756 -0.8892  1.2549  0.3038
16765SOL    HW253573  10.593   5.210   4.687 -2.1427  2.4361 -0.7027
16766SOL     OW53574   5.794   4.955   9.241  0.0846  0.0583  0.3302
16766SOL    HW153575   5.760   4.937   9.154 -2.6208 -1.3324  1.5628
16766SOL    HW253576   5.737   5.023   9.276 -0.8085 -1.4650  2.0298
16767SOL     OW53577   7.099   8.317  10.429 -0.2402 -0.2663  0.0581
16767SOL    HW153578   7.088   8.222  10.425 -0.0177 -0.2835 -0.0984
16767SOL    HW253579   7.060   8.341  10.513  1.4815 -0.7406  1.0416
16768SOL     OW53580   1.289   0.648  10.980  0.3617 -0.2020 -0.0489
16768SOL    HW153581   1.276   0.669  11.072 -0.8868  0.6071 -0.3885
16768SOL    HW253582   1.225   0.702  10.934 -0.5209 -2.1584 -1.2385
16769SOL     OW53583   0.287   2.056   8.929 -0.2995 -0.0286  0.5344
16769SOL    HW153584   0.359   2.101   8.974  0.0614 -0.9656  0.9058
16769SOL    HW253585   0.330   2.000   8.864 -0.7882  0.8280 -0.5683
16770SOL     OW53586  11.126   6.897  11.086 -0.1702 -0.1284 -0.4630
16770SOL    HW153587  11.120   6.981  11.131  0.1905 -1.0507  1.4093
16770SOL    HW253588  11.107   6.917  10.994  0.1897  2.0185 -0.1114
16771SOL     OW53589   3.478   1.162   7.468 -0.2471  0.6476  0.0815
16771SOL    HW153590   3.562   1.157   7.422 -0.7632  0.9139 -0.9062
16771SOL    HW253591   3.423   1.098   7.424 -0.4794  0.2597  0.9217
16772SOL     OW53592   4.319   7.322   0.163 -0.1133  0.1349 -0.5771
16772SOL    HW153593   4.266   7.337   0.242 -0.1937 -1.7381 -0.2388
16772SOL    HW253594   4.269   7.364   0.093 -0.5265  0.9899  0.1937
16773SOL     OW53595   7.315   8.018   0.404 -0.0602  0.4020 -0.6199
16773SOL    HW153596   7.261   8.024   0.325 -0.0344  1.0483 -0.5930
16773SOL    HW253597   7.373   8.094   0.399  0.5781 -0.0677 -0.4471
16774SOL     OW53598   5.217   0.112   5.517  0.1211  0.2990 -0.4016
16774SOL    HW153599   5.149   0.098   5.584 -0.2160 -0.5643 -0.9052
16774SOL    HW253600   5.174   0.166   5.451  0.2059  0.5034 -0.2879
16775SOL     OW53601   1.645   1.859   4.898  0.5134  0.1251  0.3113
16775SOL    HW153602   1.568   1.835   4.950  1.2353  1.3125  2.0432
16775SOL    HW253603   1.685   1.776   4.875 -0.5504 -0.4772  0.5462
16776SOL     OW53604   2.331   1.073   4.001 -0.0212  0.2006  0.2456
16776SOL    HW153605   2.289   1.142   4.053  2.2372  0.8325  1.3618
16776SOL    HW253606   2.326   1.105   3.911 -2.1133  0.1093  0.3012
16777SOL     OW53607   4.197   3.843   7.797 -0.1881 -0.0988  0.0738
16777SOL    HW153608   4.212   3.772   7.734 -0.0267 -1.5234  1.6286
16777SOL    HW253609   4.285   3.872   7.821 -0.2635  1.2239 -1.1524
16778SOL     OW53610   4.667   1.687   4.190  0.0796  0.3882  0.0257
16778SOL    HW153611   4.625   1.659   4.271  2.3350  0.0593  1.1626
16778SOL    HW253612   4.655   1.613   4.130 -1.5683  0.6139  0.0272
16779SOL     OW53613  11.211   0.089   1.085 -0.2462  0.0452  0.3849
16779SOL    HW153614  11.141   0.090   1.020  0.4000 -1.7236 -0.3894
16779SOL    HW253615  11.167   0.110   1.167 -1.6806 -0.9102 -0.1060
16780SOL     OW53616  10.788   5.784   2.943 -0.0778  0.4099  0.0968
16780SOL    HW153617  10.752   5.781   2.855 -0.9149 -1.5193  0.4461
16780SOL    HW253618  10.791   5.877   2.965 -3.2096  0.7929 -0.6638
16781SOL     OW53619   0.634   3.333   3.869  0.6144  0.9757  0.1275
16781SOL    HW153620   0.718   3.313   3.828 -0.0548  0.6883 -1.1562
16781SOL    HW253621   0.593   3.397   3.810 -0.1123  1.0297  0.6741
16782SOL     OW53622   6.351   7.786   8.805  0.3993  0.7479  0.1458
16782SOL    HW153623   6.409   7.856   8.775  1.4425 -0.9294 -2.0497
16782SOL    HW253624   6.393   7.750   8.882  1.0220  1.1032 -0.0233
16783SOL     OW53625   9.976   5.896   9.594  0.2175 -0.3582  0.4798
16783SOL    HW153626   9.986   5.876   9.501  2.0927 -0.7701  0.7226
16783SOL    HW253627   9.994   5.990   9.600  0.9391 -0.4980  0.5283
16784SOL     OW53628   7.570   7.670   1.324  0.0188 -0.0272  0.1479
16784SOL    HW153629   7.475   7.661   1.321 -0.2335  1.1146  2.6050
16784SOL    HW253630   7.601   7.591   1.367 -0.0300  0.4704  1.1194
16785SOL     OW53631   1.584   3.526   7.550 -0.2421 -0.0169  0.6257
16785SOL    HW153632   1.504   3.529   7.602 -0.4004 -0.4289  0.4108
16785SOL    HW253633   1.589   3.435   7.519 -1.5654  0.7945 -2.2854
16786SOL     OW53634   6.007   5.221   3.421  0.5771  0.0377 -0.5784
16786SOL    HW153635   5.979   5.277   3.349 -0.9110 -1.0323 -0.8644
16786SOL    HW253636   5.969   5.136   3.402  1.6478 -0.7343  0.5635
16787SOL     OW53637  10.400   8.192   8.315 -0.0547  0.1671  0.2781
16787SOL    HW153638  10.461   8.150   8.375  1.3854  0.5544 -0.8430
16787SOL    HW253639  10.423   8.285   8.318 -0.6872  0.3396 -0.0595
16788SOL     OW53640   5.409   8.547  10.201  0.4197 -0.3628 -0.1205
16788SOL    HW153641   5.354   8.470  10.191 -0.3937  0.2089 -0.1445
16788SOL    HW253642   5.348   8.619  10.218  1.2027  0.1547  0.6432
16789SOL     OW53643   7.490   9.212   3.320 -0.1331 -0.0855 -0.2209
16789SOL    HW153644   7.474   9.135   3.375  0.2077  0.3910  0.5822
16789SOL    HW253645   7.487   9.285   3.382  0.1847  0.4734 -0.8603
16790SOL     OW53646   0.081   0.118   1.463 -0.1192  0.1364 -0.2192
16790SOL    HW153647   0.044   0.030   1.456  2.2250 -1.0503  0.9696
16790SOL    HW253648   0.054   0.149   1.549 -1.0644  0.6799 -0.6950
16791SOL     OW53649  10.653   9.863   1.766 -0.5558 -0.5434  0.4128
16791SOL    HW153650  10.634   9.922   1.693 -2.1519  1.0786  2.0421
16791SOL    HW253651  10.623   9.910   1.843 -0.1735 -2.7578  2.0020
16792SOL     OW53652   0.100   7.870   4.600 -0.0829 -0.3338 -0.0844
16792SOL    HW153653   0.136   7.815   4.668  1.0183  0.3377 -0.0930
16792SOL    HW253654   0.102   7.816   4.521  0.3689 -0.4999  0.0397
16793SOL     OW53655   2.867   2.164   8.262  0.3869  0.1097  0.2738
16793SOL    HW153656   2.916   2.084   8.244  0.6965  0.7993 -2.2936
16793SOL    HW253657   2.929   2.235   8.248 -0.6884  0.9096 -0.6478
16794SOL     OW53658   6.724   1.706   5.298 -0.3446  0.0622  0.4603
16794SOL    HW153659   6.710   1.707   5.393 -1.2939 -0.9207  0.3412
16794SOL    HW253660   6.801   1.650   5.286  1.0607  1.8228  0.7686
16795SOL     OW53661   8.572   6.076   9.191  0.0362 -0.3287 -0.2181
16795SOL    HW153662   8.521   6.023   9.129  0.1686  0.2407 -0.8297
16795SOL    HW253663   8.538   6.165   9.180  0.7419 -0.0471 -0.1965
16796SOL     OW53664   6.362   1.617   6.265 -0.3176 -0.2437  0.1266
16796SOL    HW153665   6.365   1.673   6.342  0.2693 -0.0806 -0.0102
16796SOL    HW253666   6.420   1.543   6.286 -0.3040 -0.2943 -0.0825
16797SOL     OW53667   1.091   7.401   2.138  0.0333  0.5482  0.2847
16797SOL    HW153668   1.025   7.350   2.091  2.0092 -1.5813 -0.3765
16797SOL    HW253669   1.135   7.336   2.193  2.0615  1.7362  0.1276
16798SOL     OW53670   8.322   5.733   3.742 -0.3431  0.2883 -0.9991
16798SOL    HW153671   8.403   5.735   3.794  0.5623  0.7688 -2.3675
16798SOL    HW253672   8.334   5.659   3.683  0.8449  2.4654 -3.7600
16799SOL     OW53673   1.901   8.362   1.901 -0.2661  0.4521  0.0168
16799SOL    HW153674   1.808   8.371   1.921 -0.7752  0.2143 -1.9558
16799SOL    HW253675   1.903   8.339   1.808  1.7558 -0.0492  0.1336
16800SOL     OW53676   6.456   0.283   8.431 -0.2189 -0.0775 -0.0905
16800SOL    HW153677   6.370   0.256   8.400 -1.2662  0.5419  2.0448
16800SOL    HW253678   6.439   0.323   8.517  2.3383 -1.0044  0.9427
16801SOL     OW53679   5.832  10.976   2.179  0.2345  0.4131  0.2764
16801SOL    HW153680   5.794  10.889   2.165 -0.4978  0.8242 -0.4129
16801SOL    HW253681   5.835  11.014   2.091 -1.1252  1.7392  0.7689
16802SOL     OW53682   0.026   6.254   2.719 -0.6395  0.1733 -0.1118
16802SOL    HW153683   0.047   6.215   2.804  0.4176  1.4752  0.2608
16802SOL    HW253684   0.095   6.319   2.706  0.1583 -1.0682 -2.7054
16803SOL     OW53685   5.280   9.562  11.200  0.0052 -0.3338 -0.0925
16803SOL    HW153686   5.336   9.639  11.184 -2.2257  1.4224 -0.0025
16803SOL    HW253687   5.299   9.537  11.290 -2.5463  3.2105  1.6424
16804SOL     OW53688  10.904   1.631  10.778 -0.2744 -0.0996 -0.6301
16804SOL    HW153689  10.984   1.588  10.747  0.6860 -0.7818  2.4642
16804SOL    HW253690  10.833   1.580  10.739  0.8423 -2.4818  0.2789
16805SOL     OW53691   4.313   8.350   2.208 -0.0443 -0.1833  0.0199
16805SOL    HW153692   4.227   8.343   2.166  0.3929 -0.9480 -0.7967
16805SOL    HW253693   4.372   8.373   2.136  0.4965 -0.0691  0.4966
16806SOL     OW53694   5.378  11.308   4.618  0.3544 -0.6673 -0.0284
16806SOL    HW153695   5.376  11.403   4.605  1.8902 -0.3198  1.7191
16806SOL    HW253696   5.468  11.284   4.594  0.2697 -1.5052  0.4851
16807SOL     OW53697  10.292   8.718   4.943 -0.4919  0.1378  0.1300
16807SOL    HW153698  10.366   8.767   4.977 -0.6221  0.5075 -0.1110
16807SOL    HW253699  10.309   8.710   4.849  0.1763 -1.4194  0.3663
16808SOL     OW53700  11.292   3.728   7.054  0.0462 -0.2910 -0.5579
16808SOL    HW153701  11.316   3.778   7.132  1.8454 -1.7064 -0.1423
16808SOL    HW253702  11.225   3.666   7.084  1.5795 -1.6455  0.2095
16809SOL     OW53703  10.720   9.217   3.023  0.4749  0.2092 -0.8520
16809SOL    HW153704  10.807   9.257   3.028  0.6883 -0.3879  0.9968
16809SOL    HW253705  10.711   9.169   3.105 -2.2597  1.5675 -0.2331
16810SOL     OW53706   3.465   1.609  11.166  0.2254  0.4214  0.0875
16810SOL    HW153707   3.519   1.591  11.089  0.1745 -0.8669  0.3371
16810SOL    HW253708   3.528   1.621  11.237  0.2094 -0.6773  0.2966
16811SOL     OW53709   6.465   1.854   5.739  1.1133  0.1391 -0.2240
16811SOL    HW153710   6.377   1.818   5.750  1.1745 -0.0543 -0.3578
16811SOL    HW253711   6.452   1.949   5.735  0.6035  0.0406 -2.8244
16812SOL     OW53712   4.964   6.997   0.426 -0.1224  0.6098  0.2675
16812SOL    HW153713   4.914   7.040   0.357  0.3616  0.6663 -0.0517
16812SOL    HW253714   5.026   7.064   0.456  1.0071 -0.0073 -0.6077
16813SOL     OW53715   7.193   0.426   8.333  0.5418  0.2183  0.1885
16813SOL    HW153716   7.270   0.446   8.385  1.2967 -1.6540 -0.1485
16813SOL    HW253717   7.221   0.436   8.243  0.4666 -0.7018  0.0570
16814SOL     OW53718   7.970   1.821   3.625  0.1318 -0.2665  0.6472
16814SOL    HW153719   8.023   1.771   3.564  0.2436 -0.7191  1.1067
16814SOL    HW253720   7.904   1.759   3.656 -3.2194  1.1880 -2.8070
16815SOL     OW53721   0.978  11.161   7.707 -0.4141  0.3647 -0.1368
16815SOL    HW153722   0.967  11.256   7.699 -0.0414  0.3403 -1.0054
16815SOL    HW253723   0.999  11.132   7.618  1.8910 -0.2204  0.5485
16816SOL     OW53724  10.042   9.092   0.980 -0.7193  0.2235  0.0626
16816SOL    HW153725   9.972   9.038   1.017 -1.0725  0.0282 -0.8796
16816SOL    HW253726  10.123   9.046   1.003 -0.9052  0.3203  0.9404
16817SOL     OW53727   4.254   0.523   2.246  0.6141 -0.0318 -0.3395
16817SOL    HW153728   4.329   0.465   2.238  0.0861 -0.9658  1.2235
16817SOL    HW253729   4.291   0.607   2.274  1.3165  0.2956 -2.1126
16818SOL     OW53730   9.928   2.602   0.881  0.5390  0.0761  0.1500
16818SOL    HW153731   9.974   2.610   0.797 -0.6454 -0.6747 -0.6032
16818SOL    HW253732   9.972   2.664   0.939  1.8203  0.1145 -0.8266
16819SOL     OW53733   4.125   9.267   4.219 -0.8018  0.1124 -0.3339
16819SOL    HW153734   4.091   9.351   4.190  0.9162  0.6301 -0.9770
16819SOL    HW253735   4.148   9.280   4.311  0.5065  0.7134 -0.7314
16820SOL     OW53736   3.783   6.955   0.332  0.2966  0.7914  0.5627
16820SOL    HW153737   3.793   7.049   0.317  1.4481  0.7471  0.9684
16820SOL    HW253738   3.796   6.915   0.246 -0.5856  1.0163  0.3147
16821SOL     OW53739   7.123   0.952   6.055  0.0264 -0.1226  0.3794
16821SOL    HW153740   7.089   0.928   5.969 -0.8175  1.5902  0.1893
16821SOL    HW253741   7.105   1.046   6.063 -0.6889 -0.3896  2.7685
16822SOL     OW53742   4.803   4.510   3.548  0.3346 -0.0547 -1.1293
16822SOL    HW153743   4.847   4.476   3.469 -2.4602  1.4491 -3.5519
16822SOL    HW253744   4.715   4.473   3.543 -0.1989  0.8559  0.8020
16823SOL     OW53745   1.769   2.110   3.106 -0.3345 -0.5282  0.1996
16823SOL    HW153746   1.813   2.118   3.190 -1.9026 -1.3721  1.1414
16823SOL    HW253747   1.787   2.020   3.078 -0.1597 -0.3809 -0.1715
16824SOL     OW53748   6.479   1.904   5.448 -0.0932 -0.5844  0.3763
16824SOL    HW153749   6.524   1.918   5.531  1.0801  2.5708 -0.6532
16824SOL    HW253750   6.529   1.955   5.384 -1.7143 -1.8096 -2.0381
16825SOL     OW53751   5.012   5.126   8.789  0.6369 -0.1670 -0.5023
16825SOL    HW153752   5.043   5.039   8.764  1.7578 -0.4262  1.5465
16825SOL    HW253753   5.083   5.185   8.763  0.2023  0.0526 -1.2135
16826SOL     OW53754  10.781   6.724   0.166  0.0331 -0.3419 -0.2341
16826SOL    HW153755  10.699   6.772   0.152  0.4168  0.2575 -0.4595
16826SOL    HW253756  10.775   6.648   0.108 -1.1018 -1.2357  0.9911
16827SOL     OW53757   7.374   3.760   5.884 -0.8814 -0.5262  0.6646
16827SOL    HW153758   7.307   3.828   5.886 -0.7411 -0.3578 -0.1648
16827SOL    HW253759   7.375   3.725   5.974 -1.5843 -0.0587  0.8627
16828SOL     OW53760   4.525   5.531   7.469 -0.2655  0.5124 -0.5324
16828SOL    HW153761   4.492   5.449   7.506  4.5217 -0.9347  1.2023
16828SOL    HW253762   4.542   5.586   7.546  1.3909  1.0705 -1.2742
16829SOL     OW53763   1.149   2.079   5.670  0.0116 -0.2257 -0.5414
16829SOL    HW153764   1.089   2.008   5.650 -0.7719  0.8451 -2.1097
16829SOL    HW253765   1.095   2.145   5.714 -0.0429  0.8279 -2.1422
16830SOL     OW53766   3.467   6.759  10.359 -0.0934 -0.5641  0.2524
16830SOL    HW153767   3.429   6.846  10.351 -1.2065 -0.8978  1.5040
16830SOL    HW253768   3.528   6.766  10.433 -0.1932 -0.8476  0.3638
16831SOL     OW53769   4.169   8.808   0.634  0.1978  0.4003 -0.5563
16831SOL    HW153770   4.086   8.848   0.611 -0.6458  0.2796  1.9148
16831SOL    HW253771   4.227   8.828   0.561 -1.9666  0.5227 -2.3379
16832SOL     OW53772  10.738   5.735   0.773  0.2084  0.6875  0.0956
16832SOL    HW153773  10.791   5.771   0.702  0.7794 -0.6170 -0.1829
16832SOL    HW253774  10.755   5.641   0.769  1.4076  0.6846  2.8552
16833SOL     OW53775   8.865   2.414   4.374 -0.2600  0.5153  0.1973
16833SOL    HW153776   8.842   2.372   4.457 -0.6004 -1.2833 -0.7462
16833SOL    HW253777   8.826   2.357   4.307  0.1882  1.7953 -1.2053
16834SOL     OW53778  10.502   3.760   1.878 -0.1101 -0.4738 -0.7368
16834SOL    HW153779  10.458   3.845   1.872  0.5174 -0.1045 -0.2374
16834SOL    HW253780  10.530   3.741   1.789 -0.4233 -0.2481 -0.8849
16835SOL     OW53781   4.773  11.265   7.356 -0.0983  0.7693  0.1278
16835SOL    HW153782   4.715  11.319   7.302  0.3310 -0.7203 -1.9870
16835SOL    HW253783   4.770  11.179   7.314  2.8652  0.3779  0.5120
16836SOL     OW53784   2.052   3.714   7.813 -0.5159 -0.1747  0.8109
16836SOL    HW153785   1.999   3.780   7.768  2.5612  1.7200 -0.3128
16836SOL    HW253786   2.076   3.652   7.743  1.2400  0.7332  0.5581
16837SOL     OW53787   0.310   8.838  10.890 -0.1993  0.4068  0.7945
16837SOL    HW153788   0.282   8.902  10.955  0.0218  0.8245  0.4798
16837SOL    HW253789   0.402   8.859  10.874 -0.0626 -0.1329  0.8564
16838SOL     OW53790   5.432   9.086   1.086  0.4729  0.6992  0.3706
16838SOL    HW153791   5.362   9.065   1.025 -0.6788 -0.4128  1.9841
16838SOL    HW253792   5.388   9.122   1.163  1.3965 -1.6712  2.1459
16839SOL     OW53793   7.125   2.585   6.304  0.4345  0.6409 -0.0859
16839SOL    HW153794   7.194   2.627   6.252 -1.6060  1.5954 -2.2116
16839SOL    HW253795   7.074   2.658   6.338  1.1661 -0.0069  2.5989
16840SOL     OW53796   9.670   0.234   8.951  0.3709  0.2863  0.1203
16840SOL    HW153797   9.694   0.313   8.998  3.0781 -0.5368  0.2868
16840SOL    HW253798   9.753   0.193   8.928 -0.9210 -2.0172 -0.8299
16841SOL     OW53799   1.887   7.137   8.558  0.5481 -0.1577 -0.3477
16841SOL    HW153800   1.979   7.119   8.538  1.0528  0.5770  1.0800
16841SOL    HW253801   1.879   7.232   8.548  0.6374  0.1432  1.8693
16842SOL     OW53802   4.672   6.152   8.221  0.3259  0.1129 -0.0514
16842SOL    HW153803   4.717   6.183   8.142 -0.2217  0.8875 -0.0726
16842SOL    HW253804   4.662   6.231   8.275  0.0170 -0.2673  0.4523
16843SOL     OW53805   9.749   5.789   7.168 -0.4653  0.1893  0.2667
16843SOL    HW153806   9.731   5.880   7.192 -0.6908 -0.4607  2.8891
16843SOL    HW253807   9.679   5.766   7.107  0.3097  2.0876 -1.4268
16844SOL     OW53808  11.121   2.595   1.025  0.1216 -0.1543  0.1604
16844SOL    HW153809  11.201   2.646   1.018  0.6019 -0.9332 -0.2073
16844SOL    HW253810  11.140   2.513   0.978 -1.0631 -0.1402 -0.3933
16845SOL     OW53811   9.935   6.276  10.567 -0.4613  0.1965 -0.5017
16845SOL    HW153812   9.929   6.212  10.637  2.5657  1.2422  0.8527
16845SOL    HW253813   9.947   6.360  10.611  0.2127  1.0692 -2.2332
16846SOL     OW53814   6.297  10.141   2.358  0.2117  0.2303  0.4707
16846SOL    HW153815   6.262  10.094   2.433  0.9301  0.6830  1.1027
16846SOL    HW253816   6.371  10.192   2.393 -0.3899  1.6466 -0.2401
16847SOL     OW53817   9.558   3.391   0.505 -0.0919 -0.1794 -0.0519
16847SOL    HW153818   9.607   3.430   0.577  1.3600 -3.3183  0.8305
16847SOL    HW253819   9.504   3.324   0.546 -0.1823 -1.1877 -1.7142
16848SOL     OW53820   3.918   6.850   5.222  0.3839 -0.3794  0.2953
16848SOL    HW153821   3.916   6.894   5.307 -0.9010 -0.0725  0.1292
16848SOL    HW253822   3.951   6.916   5.161 -2.0731  0.6487 -0.0603
16849SOL     OW53823   2.436   9.237   7.418  0.1379  0.2034  0.0285
16849SOL    HW153824   2.500   9.308   7.415  0.3102  0.0387 -0.5089
16849SOL    HW253825   2.489   9.157   7.413 -0.1033  0.0649 -0.3926
16850SOL     OW53826   9.680   4.803   2.595  0.3625  0.0536 -0.2560
16850SOL    HW153827   9.731   4.830   2.671  1.3887 -0.5916 -0.6855
16850SOL    HW253828   9.741   4.750   2.543 -0.4350  0.1485 -1.3255
16851SOL     OW53829   3.179   7.700   4.879 -0.2169 -0.0743  0.4008
16851SOL    HW153830   3.101   7.647   4.863  0.4714 -0.7387 -0.9962
16851SOL    HW253831   3.171   7.774   4.819  0.9500 -0.9995 -1.0010
16852SOL     OW53832   6.826  10.593   0.396  0.0253  0.1679  0.3323
16852SOL    HW153833   6.732  10.572   0.403  0.0587  0.3045  1.4052
16852SOL    HW253834   6.833  10.681   0.431  0.9947 -1.0702  3.6236
16853SOL     OW53835  11.348   3.921   7.611  0.0024 -0.0510 -0.0533
16853SOL    HW153836  11.290   3.977   7.560 -1.3694 -1.2178  0.1253
16853SOL    HW253837  11.288   3.872   7.668  1.4391  1.1131  2.6326
16854SOL     OW53838   1.147   1.587   2.313 -0.6922  0.2160 -0.2858
16854SOL    HW153839   1.189   1.502   2.316 -1.8906 -0.4057 -0.2897
16854SOL    HW253840   1.125   1.606   2.404 -0.2753  0.6009 -0.2646
16855SOL     OW53841   8.717   7.158  11.037  0.0955 -0.1534 -0.2357
16855SOL    HW153842   8.723   7.147  11.132 -2.9356  2.0670  0.3615
16855SOL    HW253843   8.745   7.248  11.021  0.6119 -0.5140 -1.4947
16856SOL     OW53844  10.991   5.027  10.883  0.4889 -0.2733 -0.6096
16856SOL    HW153845  10.942   4.947  10.902  1.0263 -0.5920 -0.5279
16856SOL    HW253846  10.953   5.060  10.802 -0.7889  0.2508  0.1687
16857SOL     OW53847   2.183   5.226   9.371 -0.9299 -0.5470 -0.2383
16857SOL    HW153848   2.271   5.219   9.407 -1.4847 -1.1558  1.0795
16857SOL    HW253849   2.126   5.223   9.447 -2.1740 -1.8746 -1.1605
16858SOL     OW53850   8.776   3.587   1.742  0.3050  0.0500 -0.4762
16858SOL    HW153851   8.686   3.554   1.743  0.1127  0.5645 -0.6600
16858SOL    HW253852   8.767   3.680   1.722  0.9278 -0.0633 -1.3171
16859SOL     OW53853   6.262   2.885   3.855  0.4365 -0.4597 -0.2628
16859SOL    HW153854   6.272   2.962   3.911  0.4457  0.0198 -0.9204
16859SOL    HW253855   6.244   2.920   3.768  0.7651 -1.1903 -0.6353
16860SOL     OW53856   6.131   8.489   5.807 -0.4461  0.2707 -0.0662
16860SOL    HW153857   6.170   8.559   5.859  2.5023 -0.9812 -0.4167
16860SOL    HW253858   6.084   8.535   5.737  0.4444  1.8978  0.3613
16861SOL     OW53859   3.040   0.965   5.034 -0.0147 -0.9123 -0.7161
16861SOL    HW153860   2.945   0.975   5.036  0.0941  0.2409  0.6318
16861SOL    HW253861   3.057   0.909   4.958 -1.7532 -1.1023 -1.0111
16862SOL     OW53862   8.016   6.166   7.178  0.2619 -0.3415 -0.3868
16862SOL    HW153863   7.934   6.116   7.169 -0.3439  0.3209  1.0912
16862SOL    HW253864   8.019   6.189   7.271  0.7179  2.0444 -0.9431
16863SOL     OW53865   7.601   7.792   8.714 -0.1056  0.0226 -0.4646
16863SOL    HW153866   7.552   7.874   8.722  0.1752  0.0620  1.4510
16863SOL    HW253867   7.573   7.755   8.631 -1.5102  1.2528 -0.5868
16864SOL     OW53868   4.049   3.196  10.605  0.8155 -0.5321 -1.0389
16864SOL    HW153869   4.039   3.260  10.675  2.5303 -0.8341 -0.4640
16864SOL    HW253870   4.000   3.232  10.531 -0.2822  0.2273  0.0251
16865SOL     OW53871   5.006   8.370   6.205 -0.0648  0.5390 -0.1529
16865SOL    HW153872   4.934   8.367   6.268 -1.1509  0.8288 -1.3369
16865SOL    HW253873   5.033   8.278   6.196  1.1956  0.6322  1.8685
16866SOL     OW53874   7.409   6.628   6.430  0.4715 -0.0434 -0.9062
16866SOL    HW153875   7.359   6.569   6.373  0.9971 -2.8991  1.4010
16866SOL    HW253876   7.343   6.662   6.491  0.4644  0.5042 -1.2098
16867SOL     OW53877  10.479   3.222   4.723 -0.8076 -0.3796  0.0777
16867SOL    HW153878  10.423   3.149   4.695  0.3972 -1.4037  0.2134
16867SOL    HW253879  10.419   3.294   4.739 -1.9449 -1.0359 -1.0670
16868SOL     OW53880   8.862   0.992   5.858 -0.4346 -0.3553 -0.3327
16868SOL    HW153881   8.937   0.982   5.799  0.5251 -1.7137  1.0180
16868SOL    HW253882   8.817   0.907   5.853  0.6279 -1.1447  2.0628
16869SOL     OW53883  11.166   7.647   7.643 -0.3887  0.4544 -0.2212
16869SOL    HW153884  11.114   7.596   7.705 -0.6477 -0.6248 -1.2957
16869SOL    HW253885  11.158   7.738   7.674 -0.0885 -0.1013  1.5929
16870SOL     OW53886  10.282   1.057   0.098  0.2877  0.6586 -0.2086
16870SOL    HW153887  10.198   1.097   0.122  0.0551 -0.0287  0.1664
16870SOL    HW253888  10.288   1.067   0.003 -0.7646 -0.2803 -0.4017
16871SOL     OW53889   3.507   2.401  10.903  0.0157 -0.3358 -0.5082
16871SOL    HW153890   3.493   2.484  10.948  0.9073 -0.2081 -0.4493
16871SOL    HW253891   3.594   2.409  10.865  0.2068 -1.3305 -0.3076
16872SOL     OW53892  11.309   9.526   6.492  0.3236 -0.0813 -0.0994
16872SOL    HW153893  11.355   9.442   6.484  0.9067  0.2223  0.0558
16872SOL    HW253894  11.287   9.533   6.585 -0.2413 -0.3303 -0.2107
16873SOL     OW53895   9.890   5.458   2.406 -0.4014  0.0124  0.0230
16873SOL    HW153896   9.939   5.489   2.329 -1.8398  0.6857 -0.6509
16873SOL    HW253897   9.952   5.466   2.478  0.2421  1.6216 -0.6594
16874SOL     OW53898   2.515   6.773   6.150  0.2619 -0.0498  0.0046
16874SOL    HW153899   2.557   6.853   6.118 -0.0735  0.3300  0.4955
16874SOL    HW253900   2.446   6.755   6.086  0.8361 -0.3888 -0.5276
16875SOL     OW53901  10.845   6.296   1.292  0.3481 -0.5797  0.4200
16875SOL    HW153902  10.835   6.391   1.289  0.1176 -0.5732  1.1896
16875SOL    HW253903  10.846   6.275   1.385  2.3307 -1.1394  0.3246
16876SOL     OW53904   2.017   3.309   4.081  0.2878 -0.3345 -0.0151
16876SOL    HW153905   2.073   3.234   4.062  0.4980  0.1220 -1.2742
16876SOL    HW253906   2.077   3.383   4.090 -0.0133 -0.0785 -0.0843
16877SOL     OW53907   7.821   6.745   8.500  0.6940  0.0366 -0.4881
16877SOL    HW153908   7.872   6.712   8.573  0.6812  2.6177  0.7869
16877SOL    HW253909   7.882   6.745   8.426  1.8490  0.7975  0.4232
16878SOL     OW53910   3.802   1.782   5.403 -0.2014  0.0632 -0.0651
16878SOL    HW153911   3.876   1.784   5.463  0.0623  0.6361 -0.4001
16878SOL    HW253912   3.728   1.755   5.457 -0.3866  2.4874  1.0229
16879SOL     OW53913   2.372   2.219   2.941  0.3713  0.2100 -0.1177
16879SOL    HW153914   2.379   2.237   2.847  1.0908 -1.5509 -0.4490
16879SOL    HW253915   2.462   2.220   2.972  0.2586 -0.5194  0.2662
16880SOL     OW53916   1.490   3.619   5.636  0.5863 -0.7006  0.7028
16880SOL    HW153917   1.475   3.589   5.546  0.5736 -0.4620  0.6244
16880SOL    HW253918   1.474   3.542   5.690 -0.4365 -0.5837  0.5813
16881SOL     OW53919   7.879   2.001   1.156 -0.0165  0.2993 -0.1838
16881SOL    HW153920   7.788   1.971   1.157  0.5484 -1.6225 -1.3623
16881SOL    HW253921   7.882   2.066   1.086 -0.4913  0.4114 -0.1032
16882SOL     OW53922   4.859   1.405  11.331 -0.9238 -0.4333 -0.4002
16882SOL    HW153923   4.913   1.485  11.328 -0.7936 -0.5466 -1.1643
16882SOL    HW253924   4.890   1.353  11.258 -1.2360 -1.0498 -0.0961
16883SOL     OW53925  11.343   8.813   1.512  0.1800 -0.1689  0.1264
16883SOL    HW153926  11.430   8.772   1.508  0.5882  0.6671  0.3055
16883SOL    HW253927  11.360   8.906   1.501 -0.6358  0.0720  0.8717
16884SOL     OW53928   0.712   2.196   1.472 -0.1335 -0.1162  0.1450
16884SOL    HW153929   0.620   2.215   1.487  0.2616  1.7427  0.5780
16884SOL    HW253930   0.722   2.103   1.491 -1.7603 -0.1667  0.8832
16885SOL     OW53931   1.111   0.628   6.243  0.3994  0.4201 -0.6375
16885SOL    HW153932   1.044   0.566   6.274  1.4982 -0.8652 -0.7420
16885SOL    HW253933   1.084   0.713   6.279 -1.1321 -0.1132 -0.4592
16886SOL     OW53934   6.188   7.634   8.356 -0.2680  0.0285  0.2876
16886SOL    HW153935   6.263   7.692   8.362  0.5197 -0.9100 -0.2160
16886SOL    HW253936   6.166   7.631   8.263 -1.0805  0.4673  0.4539
16887SOL     OW53937  10.565   7.280   9.369 -0.2500 -0.3575 -0.0399
16887SOL    HW153938  10.624   7.353   9.388 -0.1561  0.0791 -1.8049
16887SOL    HW253939  10.480   7.322   9.354 -0.3546 -0.6695 -0.3520
16888SOL     OW53940   5.343   1.797   8.413 -0.1897 -0.0234  0.3601
16888SOL    HW153941   5.348   1.892   8.402 -1.0664 -0.2135 -2.8971
16888SOL    HW253942   5.249   1.777   8.407  0.0924 -1.1760 -0.9508
16889SOL     OW53943   4.776  10.336   9.561 -0.3990  0.1196 -0.1834
16889SOL    HW153944   4.695  10.325   9.512 -0.2135 -0.3933 -0.3853
16889SOL    HW253945   4.749  10.331   9.653 -0.3266 -2.3703 -0.2387
16890SOL     OW53946   3.075   4.473  10.236  0.0285 -0.0970  0.6566
16890SOL    HW153947   3.142   4.536  10.261 -0.4053  0.6652 -0.0148
16890SOL    HW253948   2.996   4.526  10.225 -0.1821 -0.6271 -0.6403
16891SOL     OW53949   7.099   1.882   8.748 -0.0280  0.6698  0.4109
16891SOL    HW153950   7.171   1.901   8.808  1.4291  1.6947 -1.5389
16891SOL    HW253951   7.025   1.934   8.780  0.1426 -0.1687  2.2712
16892SOL     OW53952   4.952   0.311   9.541  0.2144  0.1583 -0.6734
16892SOL    HW153953   5.042   0.283   9.526  0.2778 -1.0673  1.5034
16892SOL    HW253954   4.929   0.273   9.626 -2.7437 -0.5643 -1.6625
16893SOL     OW53955   3.729   7.178   7.616  0.3533  0.5420  0.1703
16893SOL    HW153956   3.729   7.272   7.596 -2.4641  0.3681 -1.0711
16893SOL    HW253957   3.743   7.136   7.531 -0.2803 -0.1692  0.4077
16894SOL     OW53958   4.074   5.737   5.926 -0.1165 -0.2284  0.0820
16894SOL    HW153959   4.115   5.653   5.905 -0.9321 -0.2290 -1.6477
16894SOL    HW253960   4.012   5.753   5.854 -3.5660 -0.4547  2.7547
16895SOL     OW53961   5.183   3.875   9.705  0.7399 -0.7462  0.8321
16895SOL    HW153962   5.253   3.896   9.643 -0.8358 -2.0701 -1.5521
16895SOL    HW253963   5.208   3.921   9.785  4.2082 -1.0130  0.0744
16896SOL     OW53964  10.357   8.445   6.215  0.0751  0.0166 -0.5222
16896SOL    HW153965  10.361   8.400   6.300  0.9390 -0.1651 -0.6513
16896SOL    HW253966  10.445   8.482   6.204  0.3185 -0.9106 -1.8581
16897SOL     OW53967   8.685   0.043   9.206  0.1521  0.0565  0.1719
16897SOL    HW153968   8.629   0.091   9.146  0.6552 -1.0656 -1.2512
16897SOL    HW253969   8.773   0.076   9.187  0.0636  1.7478  2.3289
16898SOL     OW53970   3.336   1.203   8.266  0.4555  0.5040 -0.7568
16898SOL    HW153971   3.304   1.267   8.202 -0.9738 -0.2700 -0.8727
16898SOL    HW253972   3.261   1.146   8.281  1.4464 -0.6488 -0.0352
16899SOL     OW53973  10.455   9.844   4.659 -0.4827 -0.0956  0.4507
16899SOL    HW153974  10.461   9.930   4.700 -1.8614  0.2820 -0.1002
16899SOL    HW253975  10.544   9.828   4.625  0.4390 -0.0028  2.6434
16900SOL     OW53976   8.800   7.396   4.244 -0.1892 -0.3763  0.1854
16900SOL    HW153977   8.765   7.307   4.246 -1.6017  0.1594  1.0144
16900SOL    HW253978   8.774   7.429   4.158  1.3521 -1.1134 -0.6021
16901SOL     OW53979   7.111   6.634  10.711 -0.4077 -0.2627 -0.2665
16901SOL    HW153980   7.097   6.594  10.797 -0.5566  0.0624 -0.1387
16901SOL    HW253981   7.105   6.560  10.649 -1.4404 -0.3322 -0.1054
16902SOL     OW53982   4.578  10.624   8.798 -0.3349  0.2504 -0.5014
16902SOL    HW153983   4.664  10.655   8.828 -0.0514  1.4209 -2.3638
16902SOL    HW253984   4.598  10.542   8.752 -0.2676  0.3489 -0.6485
16903SOL     OW53985   7.695   3.986   0.188  1.1564  0.8254  0.0141
16903SOL    HW153986   7.715   3.900   0.151  1.3867  0.4189  1.0366
16903SOL    HW253987   7.609   3.975   0.227  1.7403  0.6484  1.3015
16904SOL     OW53988   8.893  10.620   0.249 -0.3492  0.2871  0.1986
16904SOL    HW153989   8.841  10.666   0.183  0.2037 -0.1010 -0.5194
16904SOL    HW253990   8.958  10.571   0.199 -1.3636 -1.8610  0.8652
16905SOL     OW53991   1.407   0.605   8.197 -0.8408  0.8271  0.3377
16905SOL    HW153992   1.396   0.674   8.132  0.3037 -0.0459 -0.8339
16905SOL    HW253993   1.501   0.589   8.200 -1.1290 -1.3352 -0.1803
16906SOL     OW53994   3.632   3.315   9.400  0.3470 -0.6491 -0.2062
16906SOL    HW153995   3.558   3.330   9.460  0.2746 -1.6389 -0.0191
16906SOL    HW253996   3.673   3.235   9.433  2.0146  0.3269  0.1774
16907SOL     OW53997  10.438  11.165   6.833  0.0718  0.1674  0.2567
16907SOL    HW153998  10.408  11.130   6.749  0.8785 -0.2353  0.1167
16907SOL    HW253999  10.368  11.144   6.894 -0.3210  0.0485 -0.2247
16908SOL     OW54000   0.600   1.636   0.574  0.1834  0.0742 -0.5023
16908SOL    HW154001   0.674   1.603   0.524  0.0987 -2.1296  0.7226
16908SOL    HW254002   0.525   1.586   0.541 -0.2956  0.3845  0.1059
16909SOL     OW54003   6.388   6.578   6.371  0.2800  0.0715 -0.1672
16909SOL    HW154004   6.335   6.553   6.295 -1.2981  0.1004  0.8947
16909SOL    HW254005   6.421   6.495   6.405 -1.4283 -0.2531  0.8123
16910SOL     OW54006   2.003  10.609   6.042  0.0920  0.0862  0.7582
16910SOL    HW154007   2.094  10.629   6.023  0.7229 -2.3613  0.7963
16910SOL    HW254008   1.956  10.629   5.961  0.4674  2.1362  0.9938
16911SOL     OW54009   5.548   6.650   0.069 -0.7938 -0.7930 -0.4109
16911SOL    HW154010   5.521   6.735   0.034 -0.6874 -0.6314 -0.1019
16911SOL    HW254011   5.562   6.666   0.162 -2.2285 -1.4928 -0.0436
16912SOL     OW54012   1.976   0.739   6.429 -0.1567  0.2824  0.0225
16912SOL    HW154013   2.046   0.761   6.490 -0.1690 -0.6515  0.4000
16912SOL    HW254014   1.956   0.647   6.448 -0.0088 -0.1042 -1.5474
16913SOL     OW54015  10.976  10.757   6.116 -0.1189 -0.0685 -0.0132
16913SOL    HW154016  10.932  10.691   6.169  0.2884 -0.5196 -0.2233
16913SOL    HW254017  10.950  10.841   6.154 -0.3379 -0.3643  0.4913
16914SOL     OW54018   3.706   4.524  10.476 -0.1352 -0.0521  0.0503
16914SOL    HW154019   3.769   4.571  10.530  1.0407 -0.8210 -0.6026
16914SOL    HW254020   3.702   4.573  10.394  0.2955 -0.4996 -0.2409
16915SOL     OW54021   2.762   3.674   9.418 -0.0819 -0.1035  0.2865
16915SOL    HW154022   2.715   3.755   9.402  0.5345 -0.0881 -1.6983
16915SOL    HW254023   2.740   3.617   9.344 -0.8256 -1.9380  1.8293
16916SOL     OW54024   0.853  10.721   9.052 -0.7494 -0.0723 -0.3673
16916SOL    HW154025   0.769  10.704   9.010 -0.4258 -3.3869  0.0605
16916SOL    HW254026   0.833  10.727   9.145 -0.6104  0.2463 -0.3540
16917SOL     OW54027   1.702   9.585   7.900  0.0894  0.1660  0.0408
16917SOL    HW154028   1.767   9.560   7.834  0.1699 -0.1547  0.2429
16917SOL    HW254029   1.621   9.542   7.871  0.4481 -1.1308  0.9068
16918SOL     OW54030   2.316   1.248   9.864 -0.5847  0.4428  0.6487
16918SOL    HW154031   2.235   1.241   9.814  0.0450  0.0071 -0.3366
16918SOL    HW254032   2.382   1.204   9.810  0.5656  1.8316  0.8654
16919SOL     OW54033   8.227   6.607  10.850  0.0465 -0.0259  0.3249
16919SOL    HW154034   8.233   6.661  10.771  0.8746 -0.0395  0.3763
16919SOL    HW254035   8.317   6.600  10.881 -0.3355  0.4580  1.5951
16920SOL     OW54036   6.734   7.826   1.674  0.0179  0.8044 -0.3468
16920SOL    HW154037   6.747   7.736   1.646 -1.9977  0.5102 -0.5001
16920SOL    HW254038   6.815   7.850   1.719  0.9200 -0.7736 -1.0552
16921SOL     OW54039   6.670   5.470   0.800  0.2906  0.3116 -0.4193
16921SOL    HW154040   6.724   5.482   0.721  0.8790  2.2796  0.2396
16921SOL    HW254041   6.704   5.534   0.862 -2.0169  0.7701  0.4564
16922SOL     OW54042   3.246   0.091   5.327  0.0387 -0.0229  0.1821
16922SOL    HW154043   3.173   0.123   5.274  0.6249  2.9455  0.9827
16922SOL    HW254044   3.316   0.073   5.264 -0.6438 -0.7246 -0.3875
16923SOL     OW54045   6.708   2.464   0.152 -0.7287 -0.5084  0.1613
16923SOL    HW154046   6.654   2.479   0.074  0.3078 -1.5968 -0.8043
16923SOL    HW254047   6.736   2.552   0.178 -2.3296  0.0134  0.2563
16924SOL     OW54048   9.897   2.786   8.558 -0.1457  0.1397 -0.8571
16924SOL    HW154049   9.933   2.867   8.595 -0.4858 -0.4736  0.8781
16924SOL    HW254050   9.812   2.811   8.522 -0.3002  0.5348 -0.2265
16925SOL     OW54051   6.381   1.347   0.028  0.3735  0.3368 -0.1971
16925SOL    HW154052   6.308   1.408   0.039 -1.4206 -1.8749  1.0543
16925SOL    HW254053   6.381   1.327  -0.066 -0.5062  0.5211 -0.2486
16926SOL     OW54054   6.570   0.565   9.011 -0.2546  0.0743  0.3162
16926SOL    HW154055   6.621   0.555   8.930  0.3918 -0.1370  0.7392
16926SOL    HW254056   6.493   0.615   8.985 -1.0288 -1.6403 -0.8369
16927SOL     OW54057   9.597   3.035   0.113 -0.0517 -0.2586 -0.5792
16927SOL    HW154058   9.518   2.991   0.080 -1.4887  1.0044  1.0159
16927SOL    HW254059   9.600   3.011   0.206  1.3532 -0.1107 -0.5708
16928SOL     OW54060   2.967   8.409   1.764 -0.1683 -0.2319 -0.5243
16928SOL    HW154061   3.043   8.456   1.798 -0.5328  1.3652 -1.7672
16928SOL    HW254062   3.003   8.350   1.697  0.0319  0.3392 -0.9341
16929SOL     OW54063   4.930   1.311   2.391 -0.2214  0.1150  0.2983
16929SOL    HW154064   4.892   1.274   2.471 -0.2479 -0.4516  0.0275
16929SOL    HW254065   4.885   1.266   2.319  1.1046 -0.7364 -0.0279
16930SOL     OW54066   4.680  10.224   1.265 -0.1055  0.1498 -0.0013
16930SOL    HW154067   4.689  10.296   1.329 -1.0504 -1.1901  1.7374
16930SOL    HW254068   4.651  10.268   1.185  1.8872  1.9949  0.1920
16931SOL     OW54069   7.299   9.812   9.358 -0.3285 -0.7893 -0.3453
16931SOL    HW154070   7.249   9.871   9.414 -0.4118 -1.9376  0.8510
16931SOL    HW254071   7.262   9.824   9.270 -0.7651  0.4344 -0.0153
16932SOL     OW54072   7.935   5.192  10.763  0.5306  0.0804  0.4130
16932SOL    HW154073   7.967   5.233  10.843  0.4079  1.3026 -0.1371
16932SOL    HW254074   7.856   5.145  10.790  2.3497 -2.4949  1.6714
16933SOL     OW54075   8.444   1.707   7.685 -0.0208  0.0330 -0.7434
16933SOL    HW154076   8.532   1.706   7.723 -1.0046 -0.8634  1.7429
16933SOL    HW254077   8.459   1.705   7.590  2.6124 -0.0848 -0.4144
16934SOL     OW54078   4.955  10.062   5.284  0.7847  0.3076 -0.2224
16934SOL    HW154079   4.978  10.154   5.270 -2.2721  1.1190 -0.6450
16934SOL    HW254080   5.019  10.013   5.232  3.7306  1.9864  1.5644
16935SOL     OW54081   8.156   2.903   7.876  0.7241  0.1315  0.3787
16935SOL    HW154082   8.179   2.963   7.806 -0.6608 -0.8123 -0.9497
16935SOL    HW254083   8.236   2.894   7.928  1.4326  1.7601 -0.3775
16936SOL     OW54084   7.766   3.380   1.385 -0.0824 -0.3574 -0.0756
16936SOL    HW154085   7.798   3.467   1.409  1.7584 -1.0811  0.2707
16936SOL    HW254086   7.675   3.379   1.416 -0.0549  1.3243  0.1795
16937SOL     OW54087   7.885   7.133   7.180 -0.0551 -0.3900  0.4080
16937SOL    HW154088   7.867   7.083   7.259  3.6355 -1.1236  0.9963
16937SOL    HW254089   7.955   7.193   7.206  0.6064  0.0019 -2.0568
16938SOL     OW54090  11.198   0.677   0.614 -0.0404  0.3489  0.3022
16938SOL    HW154091  11.237   0.612   0.556  0.6525  0.4270  0.6719
16938SOL    HW254092  11.185   0.754   0.559 -0.3809  0.0756 -0.0077
16939SOL     OW54093   1.303   5.413   8.250  0.2313 -0.7422 -0.3382
16939SOL    HW154094   1.294   5.323   8.220  0.5449 -0.9479  0.1746
16939SOL    HW254095   1.257   5.416   8.333 -0.7571 -0.1355 -0.8909
16940SOL     OW54096   8.426   6.621   9.354 -0.1996 -0.2548 -0.3611
16940SOL    HW154097   8.354   6.672   9.391 -0.3686 -1.0739  0.4610
16940SOL    HW254098   8.392   6.587   9.271 -1.1381 -1.4964  0.5082
16941SOL     OW54099   3.784   1.520   9.253  0.1304  0.1148 -0.0757
16941SOL    HW154100   3.844   1.449   9.229 -1.3650 -1.8784  1.6672
16941SOL    HW254101   3.833   1.571   9.317  0.0509 -1.4897  1.3357
16942SOL     OW54102   3.084   4.265   0.073 -0.3813  0.1763 -0.0467
16942SOL    HW154103   3.117   4.280   0.161  0.4831  0.4664 -0.4103
16942SOL    HW254104   3.162   4.247   0.020 -1.0690 -2.9118 -0.2195
16943SOL     OW54105   0.755   6.069   6.221 -0.6180  0.2364 -0.3432
16943SOL    HW154106   0.718   6.072   6.309  0.2877  0.8887  0.0423
16943SOL    HW254107   0.848   6.052   6.235 -0.2051  1.6848 -1.0798
16944SOL     OW54108   8.156   0.043   6.964 -0.6406  0.1862  0.5432
16944SOL    HW154109   8.221   0.034   6.893 -1.3190 -0.8649  0.0242
16944SOL    HW254110   8.186  -0.018   7.031 -1.2888 -0.6025  0.1324
16945SOL     OW54111   3.382   4.504  11.330 -0.4554 -0.0826 -0.2215
16945SOL    HW154112   3.430   4.553  11.263 -0.5164 -0.8649 -0.8525
16945SOL    HW254113   3.368   4.417  11.291 -0.4499 -0.5677  0.8224
16946SOL     OW54114   7.564  10.117   3.941 -0.3043 -0.1860 -0.0581
16946SOL    HW154115   7.567  10.208   3.970 -1.7233 -0.6697  1.8047
16946SOL    HW254116   7.470  10.096   3.940  0.0308 -1.7761  0.0317
16947SOL     OW54117   0.687   8.398   3.863  0.2459  0.1603 -0.2845
16947SOL    HW154118   0.669   8.311   3.899 -1.0820  1.3396  2.1918
16947SOL    HW254119   0.606   8.422   3.817  0.1169  0.5855  0.1592
16948SOL     OW54120   0.882   1.515   2.732 -0.2256 -0.0501 -0.4768
16948SOL    HW154121   0.925   1.577   2.674  0.3262 -1.2198 -1.3530
16948SOL    HW254122   0.925   1.431   2.714  0.2033 -0.4027  1.8572
16949SOL     OW54123   9.425   8.425   9.301 -0.0191  0.2086 -0.1311
16949SOL    HW154124   9.347   8.398   9.253  0.5366 -0.1531 -0.8531
16949SOL    HW254125   9.497   8.382   9.255  0.3489 -2.3220  2.5689
16950SOL     OW54126   8.713   6.354   8.003  0.2089 -0.2069  0.5036
16950SOL    HW154127   8.644   6.295   7.972  0.8809 -1.4810  1.3379
16950SOL    HW254128   8.667   6.423   8.051 -0.5033 -0.9170  0.8493
16951SOL     OW54129   5.533   6.588   7.207  0.4252  0.1311  0.1629
16951SOL    HW154130   5.497   6.550   7.287 -0.8705 -1.7760 -1.2230
16951SOL    HW254131   5.628   6.587   7.221  0.1891  1.0540  2.1362
16952SOL     OW54132   0.154   7.930   8.925 -0.1378 -0.2699 -0.1357
16952SOL    HW154133   0.104   7.976   8.858  1.3676  1.2381 -0.2787
16952SOL    HW254134   0.215   7.876   8.876  0.5872  0.4071  0.0137
16953SOL     OW54135   3.606   4.102   0.795 -0.0776 -0.2150  0.9251
16953SOL    HW154136   3.534   4.155   0.761 -1.5915 -1.9349  1.2752
16953SOL    HW254137   3.598   4.108   0.890 -0.1793 -0.9085  0.9716
16954SOL     OW54138   8.714   1.885  10.862  0.1965 -0.4118  0.3457
16954SOL    HW154139   8.650   1.837  10.915  2.1015 -0.0163  3.2327
16954SOL    HW254140   8.746   1.822  10.798 -1.7080 -1.1270  0.0501
16955SOL     OW54141   2.693   6.276   8.490  0.0468 -0.2518  0.3456
16955SOL    HW154142   2.629   6.230   8.436  1.4997 -2.7386  0.5781
16955SOL    HW254143   2.643   6.343   8.536 -1.6837  0.2753 -2.1297
16956SOL     OW54144   2.542   7.393   3.786  0.1774  0.2777  0.2058
16956SOL    HW154145   2.452   7.365   3.768  0.0874  0.5531  0.2264
16956SOL    HW254146   2.596   7.319   3.758  0.0432  0.7079 -1.2786
16957SOL     OW54147   6.397   4.706   7.470 -0.3476  0.3673  0.2383
16957SOL    HW154148   6.408   4.679   7.379 -0.9226 -1.5105  0.6955
16957SOL    HW254149   6.309   4.743   7.475 -0.7411 -0.5477  0.2455
16958SOL     OW54150   7.502   7.203  10.156  0.2290 -0.5963 -0.3731
16958SOL    HW154151   7.591   7.168  10.156 -0.8069 -3.4893  0.3683
16958SOL    HW254152   7.451   7.138  10.108 -1.7545  0.2505  0.4981
16959SOL     OW54153   0.682   3.353   2.339 -0.1381  0.2072  0.2296
16959SOL    HW154154   0.674   3.401   2.421  0.3509 -1.6718  1.4470
16959SOL    HW254155   0.774   3.363   2.314 -0.6600  2.2131 -1.0701
16960SOL     OW54156   7.278   6.431   8.920 -0.4634 -0.1033  0.8410
16960SOL    HW154157   7.211   6.385   8.869 -0.3276  1.5798 -0.9252
16960SOL    HW254158   7.229   6.471   8.992 -1.3376  0.8101 -0.2302
16961SOL     OW54159   6.352   9.547   6.332 -0.4145 -0.2724 -0.5105
16961SOL    HW154160   6.442   9.578   6.338 -0.1235 -0.7501 -1.9843
16961SOL    HW254161   6.359   9.452   6.344 -1.1247 -0.0246  2.5264
16962SOL     OW54162   2.839   9.571   8.564 -0.5406 -0.0586 -0.3228
16962SOL    HW154163   2.864   9.478   8.566 -1.9306 -0.4442  0.9935
16962SOL    HW254164   2.919   9.617   8.590  0.2731 -0.8444 -1.3641
16963SOL     OW54165   4.950   1.637   6.802 -0.1336 -0.2552  0.1518
16963SOL    HW154166   4.934   1.558   6.751 -1.5358  0.3441 -0.3808
16963SOL    HW254167   4.869   1.652   6.850 -0.6647  1.9686 -1.3016
16964SOL     OW54168   9.685   5.383   5.205  0.2956  0.4433 -0.2100
16964SOL    HW154169   9.739   5.316   5.247  0.3007  0.1163 -0.7177
16964SOL    HW254170   9.681   5.454   5.268  0.8067  0.2178  0.0858
16965SOL     OW54171   3.381   4.440   8.133 -0.6783  0.5270 -0.7197
16965SOL    HW154172   3.419   4.355   8.112 -1.1610  0.3057 -0.7316
16965SOL    HW254173   3.412   4.498   8.064 -0.0947  0.4361 -0.5391
16966SOL     OW54174   1.356   4.654  10.761  0.1830  0.3007  0.0657
16966SOL    HW154175   1.271   4.621  10.731  0.4029  1.4343 -1.9685
16966SOL    HW254176   1.419   4.594  10.722  0.3784  0.1548  0.5988
16967SOL     OW54177   7.503  10.346   9.312  0.2000  0.1118 -0.0133
16967SOL    HW154178   7.509  10.341   9.216 -0.9934 -0.0078 -0.0925
16967SOL    HW254179   7.545  10.429   9.334  0.7675 -0.0037 -0.6072
16968SOL     OW54180   8.016  10.805   9.838  0.5219  0.3722  0.2275
16968SOL    HW154181   7.982  10.716   9.827 -1.5050  0.8672  1.8365
16968SOL    HW254182   8.100  10.804   9.793  0.1658 -2.1044 -0.5487
16969SOL     OW54183   5.369  11.398   3.294  0.1451 -0.1231  0.7116
16969SOL    HW154184   5.460  11.426   3.305 -0.1325  2.3373 -2.1126
16969SOL    HW254185   5.362  11.377   3.201 -2.0175 -0.9805  1.0192
16970SOL     OW54186   4.356   2.246   7.463 -0.2423 -0.5046  0.6978
16970SOL    HW154187   4.379   2.155   7.484 -1.5825 -1.3408 -1.1904
16970SOL    HW254188   4.376   2.254   7.369 -1.5815  0.6828  0.4901
16971SOL     OW54189  10.099  10.100   8.990  0.0479 -0.1971  0.2979
16971SOL    HW154190  10.062  10.028   9.042 -2.4016 -0.1845 -1.2570
16971SOL    HW254191  10.041  10.174   9.007  1.1058  0.7238 -0.0053
16972SOL     OW54192   1.763   3.689   3.065  0.1882 -0.1245 -0.2519
16972SOL    HW154193   1.669   3.703   3.055  0.8107  4.3334 -2.8509
16972SOL    HW254194   1.781   3.610   3.015 -2.1894 -1.7217  1.2167
16973SOL     OW54195   8.715   0.790   7.291 -0.1523  0.7128 -0.0486
16973SOL    HW154196   8.686   0.769   7.202  1.1803  0.4535 -0.4483
16973SOL    HW254197   8.769   0.868   7.280  0.9992 -0.0140  0.3509
16974SOL     OW54198   9.952   4.713   6.950  0.2889  0.3605 -0.8385
16974SOL    HW154199  10.023   4.682   6.895 -0.9485 -2.4898 -1.0018
16974SOL    HW254200   9.878   4.722   6.890 -0.6415 -1.1952  0.0036
16975SOL     OW54201   1.352   3.749   3.710  0.5471  0.3819 -0.6268
16975SOL    HW154202   1.326   3.812   3.643  0.1053  0.2785 -0.5551
16975SOL    HW254203   1.320   3.785   3.792  0.5219  0.1939 -0.5526
16976SOL     OW54204  10.870   7.518   9.127 -0.1273  0.3067 -0.5830
16976SOL    HW154205  10.787   7.503   9.082 -0.4903 -0.4908  0.3067
16976SOL    HW254206  10.937   7.487   9.067 -0.5986 -0.6676 -0.6274
16977SOL     OW54207   2.331   3.443   3.551 -0.1512 -0.2125 -0.1539
16977SOL    HW154208   2.272   3.478   3.484 -1.0202 -0.4508  0.4545
16977SOL    HW254209   2.338   3.350   3.531  1.7020  0.1476 -1.4335
16978SOL     OW54210   0.210   9.090   3.659  0.1716 -0.1244 -0.1103
16978SOL    HW154211   0.285   9.040   3.691  0.0303  0.5128  1.2504
16978SOL    HW254212   0.181   9.042   3.581  0.1463 -2.0801  1.0432
16979SOL     OW54213   8.546   0.274   5.920 -0.1853  0.2688  0.2788
16979SOL    HW154214   8.572   0.198   5.973  0.4114  0.5624  0.4167
16979SOL    HW254215   8.537   0.240   5.831  0.9217  0.1913  0.1769
16980SOL     OW54216  10.418   3.176   8.274 -0.3096  0.0075 -0.6815
16980SOL    HW154217  10.393   3.122   8.349 -0.2888  0.0618 -0.6343
16980SOL    HW254218  10.336   3.215   8.245 -0.3815 -0.3554 -0.9616
16981SOL     OW54219   1.780   2.536   0.584 -0.6141  0.2692 -1.1748
16981SOL    HW154220   1.764   2.540   0.678 -3.5109 -3.9047 -1.2011
16981SOL    HW254221   1.726   2.606   0.548 -1.9779 -0.0187  0.1797
16982SOL     OW54222   0.473   2.526   7.194 -0.9192  0.1070 -0.8339
16982SOL    HW154223   0.533   2.452   7.199 -1.9200 -0.8500 -2.3167
16982SOL    HW254224   0.390   2.492   7.227 -1.5683  0.3536 -2.1596
16983SOL     OW54225   6.445   2.375   6.236 -0.4036 -0.1030  0.2236
16983SOL    HW154226   6.439   2.287   6.273  1.3090 -0.6292 -0.6652
16983SOL    HW254227   6.514   2.369   6.170 -0.8442  1.7064 -0.4633
16984SOL     OW54228   9.544   8.423   3.325  0.0528  0.2140 -0.2622
16984SOL    HW154229   9.575   8.467   3.405  0.1393  1.4270 -0.9446
16984SOL    HW254230   9.468   8.475   3.298 -1.4912 -1.6256  0.3631
16985SOL     OW54231   2.782   9.833   9.545 -0.2437  0.1594  0.4884
16985SOL    HW154232   2.779   9.774   9.470  2.4941  2.3254 -1.5430
16985SOL    HW254233   2.860   9.805   9.594  0.8243  1.7267 -0.2523
16986SOL     OW54234   6.982   2.393   0.795 -0.5162 -0.0454  0.2747
16986SOL    HW154235   6.986   2.384   0.700 -0.1081  0.2128  0.2630
16986SOL    HW254236   7.030   2.317   0.828 -1.7645 -0.8348  0.3101
16987SOL     OW54237   8.728   8.405   8.446  0.1729  0.3526  0.4827
16987SOL    HW154238   8.665   8.394   8.376  2.7999 -1.7635 -1.7793
16987SOL    HW254239   8.719   8.325   8.498 -0.1787  0.8666  1.2320
16988SOL     OW54240  10.385   2.887   7.304 -0.1200  0.1831  0.3322
16988SOL    HW154241  10.397   2.796   7.277  0.2021 -0.1093  1.4164
16988SOL    HW254242  10.305   2.915   7.258 -0.1791 -0.6115 -0.0664
16989SOL     OW54243   6.440   2.452   0.899  0.4434 -0.3922  0.2183
16989SOL    HW154244   6.351   2.454   0.934  0.7475  0.8143  0.9835
16989SOL    HW254245   6.467   2.544   0.895  1.4733 -0.6999 -0.4905
16990SOL     OW54246   5.417   1.185  10.759 -0.0206 -0.5663  0.3241
16990SOL    HW154247   5.332   1.152  10.730  0.3720 -0.6831 -0.7235
16990SOL    HW254248   5.401   1.216  10.848 -2.1406  2.9471 -1.0680
16991SOL     OW54249  10.482   0.680   7.316 -0.1908  0.3115 -0.2380
16991SOL    HW154250  10.484   0.704   7.409 -2.1326  4.4533 -1.0378
16991SOL    HW254251  10.400   0.633   7.305 -0.8739  1.4091 -0.0608
16992SOL     OW54252   2.086   4.237   4.615  0.3984 -0.6882  0.5177
16992SOL    HW154253   2.037   4.319   4.616  0.3871 -0.6673 -0.5964
16992SOL    HW254254   2.159   4.252   4.675  1.1093  0.6086 -0.5946
16993SOL     OW54255   8.918   1.234   7.468 -0.3721 -0.4508  0.6643
16993SOL    HW154256   8.870   1.278   7.397  1.3187 -0.2840 -0.4230
16993SOL    HW254257   8.903   1.290   7.544 -0.7918  0.3256  0.0358
16994SOL     OW54258   7.032   7.003   2.136 -0.3980 -0.4424 -0.4462
16994SOL    HW154259   7.051   7.030   2.046 -2.0092  1.9083 -0.1917
16994SOL    HW254260   7.071   7.072   2.190 -1.0171 -0.8498  0.5504
16995SOL     OW54261   1.177   2.942   7.433  0.4726 -0.0098 -0.1569
16995SOL    HW154262   1.256   2.933   7.487  0.1477 -0.0058  0.3258
16995SOL    HW254263   1.116   2.991   7.487  0.4568  0.7943 -0.8828
16996SOL     OW54264   5.942   9.144   5.939 -0.1012 -0.4874  0.7611
16996SOL    HW154265   6.001   9.175   5.870 -0.1462 -0.0572  0.9119
16996SOL    HW254266   5.936   9.050   5.925 -1.2188 -0.2288 -0.6860
16997SOL     OW54267   9.682   3.108   8.267 -0.1846 -0.7082  0.3096
16997SOL    HW154268   9.747   3.130   8.200  0.3852 -0.5378  0.9031
16997SOL    HW254269   9.676   3.186   8.322 -2.4253  0.0630 -0.8997
16998SOL     OW54270   7.426   6.303   3.686  0.7726 -0.4263  0.0403
16998SOL    HW154271   7.431   6.399   3.690  1.3895 -0.3861 -1.1624
16998SOL    HW254272   7.439   6.282   3.593  0.4956 -1.6760  0.2603
16999SOL     OW54273   3.992  10.331  10.926  0.1142  0.0536 -0.6345
16999SOL    HW154274   3.901  10.358  10.928 -0.3375 -1.1942 -2.1865
16999SOL    HW254275   4.029  10.376  10.850  1.0262  1.1301  0.4020
17000SOL     OW54276   1.641   8.192   0.311 -0.1802  0.4684 -0.0603
17000SOL    HW154277   1.579   8.118   0.311  0.7166 -0.3368  1.3827
17000SOL    HW254278   1.603   8.255   0.371 -0.3946  0.7057 -0.4393
17001SOL     OW54279  10.541   7.142   3.198  0.0608 -0.3072  0.7704
17001SOL    HW154280  10.564   7.087   3.273  2.2185  0.0032  0.3797
17001SOL    HW254281  10.481   7.207   3.234  0.4906 -0.6011  2.0741
17002SOL     OW54282   4.214   3.880   3.390  0.5199  0.4568  0.1013
17002SOL    HW154283   4.271   3.935   3.336 -0.7273  0.0074 -1.7859
17002SOL    HW254284   4.135   3.932   3.403  0.3779  0.1306  0.5617
17003SOL     OW54285   6.018   8.103   9.543  0.0900 -0.4677 -0.2195
17003SOL    HW154286   6.068   8.149   9.610  0.7461 -0.1849 -0.8944
17003SOL    HW254287   6.084   8.061   9.488 -0.4700 -1.4036 -0.1938
17004SOL     OW54288   3.799   1.098   4.549  0.2122  0.3776  0.4732
17004SOL    HW154289   3.829   1.040   4.480  1.8374  1.2043  0.4404
17004SOL    HW254290   3.770   1.040   4.619  2.2561 -0.5198  0.6391
17005SOL     OW54291  11.123   3.775   3.241 -0.1111  0.1180  0.3542
17005SOL    HW154292  11.204   3.732   3.267  0.1451 -0.5235 -1.3744
17005SOL    HW254293  11.062   3.757   3.312  1.4125  1.2067  2.0402
17006SOL     OW54294   7.120   4.696   9.995 -0.3310 -0.3117 -0.2401
17006SOL    HW154295   7.154   4.781  10.024 -0.6532 -0.4790  0.6702
17006SOL    HW254296   7.096   4.652  10.076 -1.1962 -0.8376 -0.7739
17007SOL     OW54297  10.121   5.170   2.359  0.7840  0.0120  0.0579
17007SOL    HW154298  10.066   5.110   2.409 -1.5424  0.2182 -2.0894
17007SOL    HW254299  10.140   5.242   2.420 -0.6614 -0.4489  1.1086
17008SOL     OW54300   2.564   7.665   7.560 -0.0227 -0.1550 -0.4543
17008SOL    HW154301   2.556   7.589   7.617  1.4387 -1.3881 -1.7759
17008SOL    HW254302   2.478   7.673   7.519 -0.5372 -0.3673  0.5434
17009SOL     OW54303   2.283   2.563   1.012  0.5253 -0.2880 -0.2863
17009SOL    HW154304   2.192   2.569   1.040  0.4920  0.8624 -0.5866
17009SOL    HW254305   2.310   2.475   1.036 -1.0361 -1.0919 -1.3492
17010SOL     OW54306  11.267   7.335   4.205  0.3729 -0.0340 -0.7138
17010SOL    HW154307  11.346   7.374   4.166  1.0526 -0.3266  0.3342
17010SOL    HW254308  11.260   7.250   4.163 -0.4419  0.6943 -2.1426
17011SOL     OW54309   3.946   7.911   3.933  0.3700  0.0685  0.3084
17011SOL    HW154310   3.896   7.948   4.006 -0.0536 -0.1873  0.1450
17011SOL    HW254311   4.017   7.862   3.976  0.5719  0.5555  0.5338
17012SOL     OW54312   3.082   8.669   5.091 -0.2128 -0.3710  0.1189
17012SOL    HW154313   3.051   8.579   5.087 -1.2089 -0.0038 -1.0054
17012SOL    HW254314   3.039   8.713   5.018  0.2480  1.0256  0.6446
17013SOL     OW54315   9.666   8.157  10.515  0.3852 -0.2831  0.0540
17013SOL    HW154316   9.665   8.090  10.447  2.3239  0.8147 -1.1414
17013SOL    HW254317   9.612   8.228  10.480 -1.9658 -1.2502  1.4714
17014SOL     OW54318   2.300   0.590   0.968  0.3811 -0.7620 -0.0675
17014SOL    HW154319   2.292   0.623   0.878 -0.4678 -0.3646  0.1468
17014SOL    HW254320   2.376   0.531   0.965  0.1441 -1.0346 -1.1223
17015SOL     OW54321   0.705   3.432   5.673 -0.6725  0.1590  0.3260
17015SOL    HW154322   0.652   3.504   5.705 -1.3472 -0.4769  0.6846
17015SOL    HW254323   0.695   3.364   5.740  0.4173 -0.0554  0.2861
17016SOL     OW54324   0.869  10.853   8.822  0.2785 -0.1758  0.2484
17016SOL    HW154325   0.941  10.795   8.794 -0.8111 -0.8872 -1.1851
17016SOL    HW254326   0.857  10.832   8.915  1.6080 -0.3767  0.4014
17017SOL     OW54327   5.694   1.249   2.704 -0.4570  0.4328 -0.0137
17017SOL    HW154328   5.660   1.180   2.647 -1.3576  1.1465 -0.3838
17017SOL    HW254329   5.649   1.235   2.787 -0.0661  0.1200  0.1446
17018SOL     OW54330   5.545   0.149   7.930 -0.0733 -0.2985  0.2625
17018SOL    HW154331   5.488   0.081   7.896  0.3479 -1.2124  1.3348
17018SOL    HW254332   5.620   0.150   7.870 -0.5070 -0.1337 -0.2798
17019SOL     OW54333   2.868   8.153   6.334 -0.1382 -0.0145 -0.0982
17019SOL    HW154334   2.907   8.212   6.398  1.5087  0.3467 -1.3643
17019SOL    HW254335   2.804   8.206   6.288 -2.0325 -0.5291  1.8056
17020SOL     OW54336   2.818  10.910   3.349  0.2368  0.5836 -0.1745
17020SOL    HW154337   2.743  10.949   3.305  0.0223 -0.6009 -0.9178
17020SOL    HW254338   2.817  10.819   3.320  1.7917  0.4783  0.0391
17021SOL     OW54339   8.373   3.047   8.573  0.3852 -0.2295 -0.2350
17021SOL    HW154340   8.303   2.987   8.546 -1.2604 -0.3869  3.6292
17021SOL    HW254341   8.334   3.134   8.564 -0.4024 -0.3086  1.7405
17022SOL     OW54342   4.611   9.498   4.457 -0.9084 -0.2191  0.0812
17022SOL    HW154343   4.691   9.455   4.488 -0.7965 -0.1608 -0.1237
17022SOL    HW254344   4.609   9.582   4.503 -0.4470  0.1099 -0.4852
17023SOL     OW54345  10.472   3.469   7.292  0.1341  0.0478  0.0234
17023SOL    HW154346  10.475   3.559   7.260  0.1285  0.1394  0.2779
17023SOL    HW254347  10.522   3.419   7.227  0.2288  0.2524 -0.0626
17024SOL     OW54348   9.124   5.285   6.480  0.6646  0.0388  0.1054
17024SOL    HW154349   9.111   5.282   6.385 -0.5131 -0.4921  0.2535
17024SOL    HW254350   9.194   5.349   6.493  1.5129 -0.5700 -1.1754
17025SOL     OW54351   9.496   4.757   2.392  0.4701  0.6391  0.1442
17025SOL    HW154352   9.412   4.759   2.438 -0.4959 -0.4320 -1.4788
17025SOL    HW254353   9.555   4.806   2.449 -1.0546  0.7874  1.7026
17026SOL     OW54354   5.215  10.164   4.201 -0.1520  0.3816 -0.4221
17026SOL    HW154355   5.145  10.128   4.147 -0.9560  0.2576  0.6607
17026SOL    HW254356   5.169  10.215   4.268  0.4519 -2.8666  2.7624
17027SOL     OW54357   2.218   6.793   7.557 -0.2425 -0.2226 -0.3724
17027SOL    HW154358   2.231   6.704   7.524 -0.9725  0.6701 -3.4095
17027SOL    HW254359   2.123   6.806   7.554 -0.1137  0.8088 -0.4663
17028SOL     OW54360   2.760  10.792   1.220 -0.4792 -0.5536 -0.1113
17028SOL    HW154361   2.701  10.831   1.284 -0.7528  0.6806 -1.0771
17028SOL    HW254362   2.770  10.701   1.249 -0.2255  0.0618  1.9243
17029SOL     OW54363   9.101   3.868   6.810  0.1466  0.3102  0.1768
17029SOL    HW154364   9.045   3.858   6.733 -1.2634  0.5677  1.1340
17029SOL    HW254365   9.182   3.905   6.776  0.8227 -2.5092 -1.6568
17030SOL     OW54366   9.959   3.312   3.953  0.2408  0.0006  0.3680
17030SOL    HW154367   9.868   3.291   3.935  0.5277 -0.8467 -0.1574
17030SOL    HW254368   9.962   3.330   4.047 -0.2485 -1.1657  0.6145
17031SOL     OW54369   8.088   4.901  10.115 -0.3353 -0.0337  0.4193
17031SOL    HW154370   8.004   4.888  10.070  0.1389 -2.5679  0.1352
17031SOL    HW254371   8.094   4.829  10.177  1.1575  0.7495  1.2512
17032SOL     OW54372   0.586   0.156   8.988 -0.2709 -0.0464 -0.2599
17032SOL    HW154373   0.567   0.114   9.071  0.6111 -0.6160 -0.3370
17032SOL    HW254374   0.557   0.093   8.922 -3.8229  1.6198 -0.4898
17033SOL     OW54375   6.354   5.492   1.784  0.5345  0.1997  1.0111
17033SOL    HW154376   6.281   5.494   1.846  0.7579  0.3007  1.2692
17033SOL    HW254377   6.324   5.548   1.711 -0.3495 -1.1149  0.3145
17034SOL     OW54378   7.439   7.960   2.072 -0.2022 -0.5164  0.1864
17034SOL    HW154379   7.357   7.961   2.123 -1.5998 -0.3264 -1.9139
17034SOL    HW254380   7.474   7.872   2.084  0.8512  0.1727  3.3075
17035SOL     OW54381   6.082   0.434  10.639 -0.1765  0.1056 -0.1542
17035SOL    HW154382   5.997   0.390  10.632  0.1884 -0.7381  0.4249
17035SOL    HW254383   6.061   0.526  10.651 -1.0682 -0.2270  1.1045
17036SOL     OW54384   0.904   2.344   4.263 -0.5289 -0.0724  0.2454
17036SOL    HW154385   0.960   2.277   4.301 -1.4797 -0.8509  0.3145
17036SOL    HW254386   0.866   2.389   4.338 -0.9241 -0.3495  0.2158
17037SOL     OW54387   3.410   5.376   4.215 -0.3699 -0.4927  0.0643
17037SOL    HW154388   3.457   5.427   4.149 -0.1648  0.3385  0.8271
17037SOL    HW254389   3.365   5.308   4.165 -0.6828  0.4520 -0.9927
17038SOL     OW54390   8.541   4.037   9.577  0.1836  0.5168  0.1350
17038SOL    HW154391   8.544   3.978   9.502 -0.9808  0.8585 -0.1919
17038SOL    HW254392   8.565   3.982   9.651  1.0659  0.1065 -0.4289
17039SOL     OW54393   8.728   1.477   0.968  0.5615 -0.2636  0.2447
17039SOL    HW154394   8.760   1.402   1.017 -1.3468 -0.3505  1.4943
17039SOL    HW254395   8.675   1.526   1.031 -2.8036 -0.8571 -1.8630
17040SOL     OW54396   2.940   4.367  11.176 -0.2100  0.0265 -0.3498
17040SOL    HW154397   2.910   4.290  11.224 -0.3795  0.1543 -0.2500
17040SOL    HW254398   2.959   4.432  11.244  0.0592  0.0301 -0.4245
17041SOL     OW54399   0.994   8.782   8.822 -0.0071 -0.4806 -0.6600
17041SOL    HW154400   1.025   8.871   8.806 -1.0381  0.0078 -0.0498
17041SOL    HW254401   1.060   8.744   8.881  0.4838 -0.1577 -0.9937
17042SOL     OW54402   2.853   4.378   5.640 -0.2691  0.0941 -0.2960
17042SOL    HW154403   2.895   4.458   5.670  0.0144  0.4033 -1.4641
17042SOL    HW254404   2.764   4.383   5.676  0.8317 -1.0180  2.9997
17043SOL     OW54405  11.189  10.856   5.590 -0.4777  0.3656 -0.0719
17043SOL    HW154406  11.221  10.876   5.502 -0.2993  0.3583 -0.0101
17043SOL    HW254407  11.236  10.776   5.615 -0.3160  0.5238  0.1389
17044SOL     OW54408   3.100   6.424   4.857  0.0981  0.2457 -0.0165
17044SOL    HW154409   3.014   6.408   4.897 -0.4267 -0.5042 -1.3860
17044SOL    HW254410   3.081   6.440   4.765  1.3374  1.2679 -0.1292
17045SOL     OW54411   0.646   9.592   2.457 -0.0483  0.0791  0.0371
17045SOL    HW154412   0.616   9.677   2.426 -2.3376 -0.8570 -0.5514
17045SOL    HW254413   0.643   9.599   2.552 -1.2267  0.3942  0.0012
17046SOL     OW54414   7.721   4.566  10.350  0.0484  0.1882  0.1944
17046SOL    HW154415   7.737   4.590  10.441  0.0617 -0.2053  0.2988
17046SOL    HW254416   7.629   4.540  10.348  0.5918 -2.0456  0.6220
17047SOL     OW54417   7.259   2.347  10.692  0.6422  0.1003 -0.7198
17047SOL    HW154418   7.219   2.433  10.703  1.7936  0.6640 -0.7234
17047SOL    HW254419   7.275   2.316  10.781 -1.7501 -1.1342 -0.6303
17048SOL     OW54420   0.186   2.279   1.116  0.2305 -0.2722  0.5442
17048SOL    HW154421   0.269   2.327   1.112 -0.4217  0.8612  0.0857
17048SOL    HW254422   0.187   2.236   1.201  1.4260 -0.5380  0.4150
17049SOL     OW54423   1.778   3.905  10.991  0.3060 -0.4317  0.4473
17049SOL    HW154424   1.835   3.898  11.067  0.2787  0.6847  0.5872
17049SOL    HW254425   1.828   3.957  10.928 -0.5307  0.5649  0.5731
17050SOL     OW54426   7.177   7.144   8.110 -0.0167 -0.3453  0.2848
17050SOL    HW154427   7.135   7.131   8.025 -1.1273  0.4993  0.6689
17050SOL    HW254428   7.268   7.117   8.097 -0.3992 -1.1613 -0.8964
17051SOL     OW54429  10.937   1.843   8.542 -0.5180  0.6653  0.2284
17051SOL    HW154430  10.891   1.832   8.459  1.0211 -0.3338 -0.5376
17051SOL    HW254431  11.008   1.904   8.522  0.7167 -0.6615  0.4068
17052SOL     OW54432   4.374   6.149   1.339 -0.6482 -0.4394 -0.1448
17052SOL    HW154433   4.448   6.186   1.290 -0.9590  0.0996 -0.2197
17052SOL    HW254434   4.353   6.068   1.293 -0.8520 -0.0058 -0.8325
17053SOL     OW54435  10.203   2.182   7.161  0.4035 -0.2922  0.1045
17053SOL    HW154436  10.226   2.216   7.248  1.0020 -3.6586  1.4160
17053SOL    HW254437  10.287   2.163   7.120  0.4659  4.9478 -3.1771
17054SOL     OW54438   4.470   6.416   3.874  0.5177  0.0737 -0.3664
17054SOL    HW154439   4.528   6.340   3.875 -0.3890 -0.6803 -1.6585
17054SOL    HW254440   4.382   6.378   3.865 -0.3300  1.1331  2.4721
17055SOL     OW54441   1.368  10.050   8.132  0.2625  0.0935 -0.2938
17055SOL    HW154442   1.426   9.996   8.078  0.1894 -0.2943  0.0102
17055SOL    HW254443   1.280  10.030   8.099  0.0306 -1.6259  1.2117
17056SOL     OW54444   5.740   4.597   6.227  0.7097 -0.0677 -0.7951
17056SOL    HW154445   5.740   4.663   6.157  1.9873  0.8701  0.0571
17056SOL    HW254446   5.660   4.615   6.277  0.9260  0.6796 -0.7139
17057SOL     OW54447   7.255   0.450   4.188  0.3007 -0.5413 -0.4114
17057SOL    HW154448   7.348   0.434   4.170  0.1577 -1.7719 -0.1556
17057SOL    HW254449   7.233   0.525   4.134  1.9567  1.1193  1.0854
17058SOL     OW54450   6.621   6.568   2.999 -0.1391 -0.3174 -0.5588
17058SOL    HW154451   6.682   6.603   2.934 -0.2778 -0.7529 -0.9227
17058SOL    HW254452   6.664   6.586   3.083  0.1103  0.1130 -0.7712
17059SOL     OW54453  10.913   8.207   7.116  0.1568 -0.0707 -0.0116
17059SOL    HW154454  10.916   8.226   7.023  1.1011  0.6951  0.1598
17059SOL    HW254455  10.995   8.161   7.134 -0.0047 -0.1908  0.4455
17060SOL     OW54456   6.023   8.092   3.400  0.2521  0.1510 -0.7875
17060SOL    HW154457   6.092   8.043   3.446 -0.4109 -0.1197 -0.0446
17060SOL    HW254458   6.044   8.082   3.307  0.0203 -1.7330 -0.6725
17061SOL     OW54459   0.294  10.453  10.485  0.2252 -0.3050 -0.1474
17061SOL    HW154460   0.373  10.400  10.471  1.3316  1.5355 -1.2322
17061SOL    HW254461   0.313  10.536  10.442 -1.4654  0.9828  1.4582
17062SOL     OW54462   4.468   8.698   8.775  0.0632  0.3343  0.1932
17062SOL    HW154463   4.494   8.627   8.833  0.8745 -0.9872 -1.6610
17062SOL    HW254464   4.486   8.778   8.824  0.7929 -0.7203  1.7012
17063SOL     OW54465   7.721   0.883   9.404 -0.3553 -0.0991 -0.0395
17063SOL    HW154466   7.800   0.830   9.400  0.6887  1.4301 -1.2668
17063SOL    HW254467   7.750   0.967   9.439 -1.5516  0.3119  0.0247
17064SOL     OW54468   2.829   9.518   0.821 -0.0052 -0.4492 -0.3979
17064SOL    HW154469   2.860   9.586   0.881 -3.3391 -0.0839  1.1451
17064SOL    HW254470   2.847   9.436   0.867  1.4354 -0.4790 -0.9688
17065SOL     OW54471   8.486   4.357   1.580 -0.1007 -0.0540  0.4026
17065SOL    HW154472   8.471   4.361   1.675  0.4706 -1.3373  0.5715
17065SOL    HW254473   8.507   4.447   1.555  1.5440  0.0018  1.8190
17066SOL     OW54474  11.050   0.099   7.776 -0.1525 -0.1100 -0.0665
17066SOL    HW154475  11.074   0.181   7.734  0.4560 -0.1241  0.2470
17066SOL    HW254476  11.118   0.037   7.749 -0.0322 -0.2431  0.5371
17067SOL     OW54477  10.981   8.888   5.404  0.1551  0.0863  0.4615
17067SOL    HW154478  10.998   8.941   5.325 -1.5856  1.8653  1.1853
17067SOL    HW254479  10.936   8.948   5.463 -3.3519 -2.5338  0.8030
17068SOL     OW54480   7.428   7.070   2.908 -0.4801 -0.1601 -0.4973
17068SOL    HW154481   7.436   7.009   2.981 -0.0854  0.1752 -0.2538
17068SOL    HW254482   7.499   7.047   2.849  2.4285  2.6487  1.5375
17069SOL     OW54483   7.507   7.474   9.381 -0.5079  0.1087  0.7182
17069SOL    HW154484   7.523   7.392   9.335  1.8217  1.1805 -0.5600
17069SOL    HW254485   7.510   7.541   9.313 -1.8035  1.3361  1.8050
17070SOL     OW54486   9.662   1.062   7.537 -0.0675  0.1108 -0.0567
17070SOL    HW154487   9.578   1.069   7.583 -0.6885  0.9075 -1.2631
17070SOL    HW254488   9.652   1.117   7.459  1.5437  0.1318 -0.2905
17071SOL     OW54489   9.614   7.622   0.689 -0.0991  0.2269 -0.1143
17071SOL    HW154490   9.553   7.644   0.759 -0.8215 -0.4867 -0.4980
17071SOL    HW254491   9.581   7.670   0.613  1.1872  1.6958  0.2197
17072SOL     OW54492   0.662   1.608   4.413 -0.7239  0.1221 -0.4787
17072SOL    HW154493   0.652   1.612   4.318 -1.2581 -2.0527 -0.5737
17072SOL    HW254494   0.577   1.635   4.447 -0.8057  0.0864 -0.6513
17073SOL     OW54495   4.955   2.698   1.818  0.5571  0.0831  0.4333
17073SOL    HW154496   4.905   2.766   1.774 -1.5653  0.0342  2.5829
17073SOL    HW254497   4.989   2.643   1.747 -0.1467  1.6869 -1.1985
17074SOL     OW54498   1.133   3.744   8.586  0.1844 -0.4886 -0.6797
17074SOL    HW154499   1.212   3.705   8.549  2.0880  1.7546  0.7734
17074SOL    HW254500   1.129   3.712   8.676 -1.1397 -1.2848 -0.9812
17075SOL     OW54501   0.119   6.087   5.691  0.5032 -0.2206  0.5179
17075SOL    HW154502   0.173   6.014   5.661 -0.2132 -1.4317  2.0335
17075SOL    HW254503   0.164   6.119   5.769 -0.3256 -0.4927  1.1228
17076SOL     OW54504   7.925   5.066   7.028  0.1171  0.2596 -0.2392
17076SOL    HW154505   7.913   5.156   7.060 -2.0321 -0.6158  1.6316
17076SOL    HW254506   8.006   5.037   7.070  0.5174  1.0923 -0.4008
17077SOL     OW54507   8.033   1.192   5.573  0.0027 -0.7572 -0.0896
17077SOL    HW154508   8.013   1.257   5.506  0.0586  0.2506  0.8542
17077SOL    HW254509   8.116   1.221   5.611  1.0775 -2.4789 -0.9791
17078SOL     OW54510   5.895   1.279   5.986  0.7953 -0.6364  0.6211
17078SOL    HW154511   5.963   1.291   6.053 -0.4362 -0.5258  1.8881
17078SOL    HW254512   5.825   1.338   6.012  0.4087 -0.3489 -0.9786
17079SOL     OW54513   8.113   1.807   5.956 -0.4174  0.0903 -0.1433
17079SOL    HW154514   8.173   1.874   5.922  0.3322 -0.1976  0.5679
17079SOL    HW254515   8.048   1.857   6.005  0.6569  0.2709  1.1551
17080SOL     OW54516   6.234   2.826   4.258  0.4732 -0.7870 -0.4257
17080SOL    HW154517   6.167   2.874   4.308  1.0210 -0.6561  0.1900
17080SOL    HW254518   6.271   2.892   4.199  0.5175 -0.6975 -0.2989
17081SOL     OW54519   0.323  11.119   6.479 -0.8987 -0.4347 -0.4155
17081SOL    HW154520   0.245  11.165   6.509 -0.6254 -0.2850  0.0777
17081SOL    HW254521   0.369  11.183   6.425 -0.3333  0.0142  0.5670
17082SOL     OW54522   3.843   4.867   8.388 -0.1112  0.4453 -0.3581
17082SOL    HW154523   3.822   4.959   8.373  1.2605  0.9281  0.5161
17082SOL    HW254524   3.938   4.863   8.387 -0.1455 -0.9955 -0.4752
17083SOL     OW54525  10.739   6.757   9.990  0.2478 -0.5440 -0.0195
17083SOL    HW154526  10.778   6.684  10.039  2.0664  0.5908  0.3058
17083SOL    HW254527  10.674   6.794  10.050 -0.5785 -1.7659 -0.1295
17084SOL     OW54528   2.777   5.123   5.304 -0.4029 -0.4456  0.1146
17084SOL    HW154529   2.822   5.111   5.388 -2.2296 -2.5699  0.8849
17084SOL    HW254530   2.724   5.201   5.317 -0.0202 -0.2585  0.6063
17085SOL     OW54531   5.992   3.944   4.113 -0.4390 -0.0536  0.9918
17085SOL    HW154532   5.985   3.949   4.209 -1.2770 -0.5040  0.9569
17085SOL    HW254533   5.904   3.964   4.081  0.1005  1.2966  0.2533
17086SOL     OW54534   8.459   4.061   0.797 -0.4476 -0.1904 -0.6050
17086SOL    HW154535   8.443   4.011   0.718  1.8437 -1.2944 -0.4644
17086SOL    HW254536   8.555   4.068   0.802 -0.5972  2.4733  0.4822
17087SOL     OW54537   3.749   5.324   4.803 -0.0648  0.4053 -0.2919
17087SOL    HW154538   3.749   5.255   4.737 -1.1108 -0.2516  0.3727
17087SOL    HW254539   3.837   5.321   4.841 -0.3220 -1.1165  0.2658
17088SOL     OW54540  10.055   1.866   2.292  0.9626  0.0510  1.1029
17088SOL    HW154541  10.091   1.834   2.209 -2.3964 -0.2526 -0.3891
17088SOL    HW254542  10.034   1.958   2.275  1.0908  0.2451  1.9561
17089SOL     OW54543   0.184  11.346   7.020 -0.0829 -0.7117 -0.0185
17089SOL    HW154544   0.256  11.364   7.082  1.6055 -2.8324 -1.2423
17089SOL    HW254545   0.126  11.286   7.068 -0.2131 -0.2595  0.4059
17090SOL     OW54546   3.900   1.849   0.925  0.0746 -0.2273 -0.2991
17090SOL    HW154547   3.871   1.758   0.924 -0.3868 -0.1031 -2.4845
17090SOL    HW254548   3.827   1.896   0.967 -0.0263 -0.7481  0.1232
17091SOL     OW54549   5.359   4.461  11.130  0.6573 -0.0457 -0.1438
17091SOL    HW154550   5.363   4.386  11.190 -0.6729  0.0198  0.0629
17091SOL    HW254551   5.448   4.495  11.128  0.5775  0.5451  2.5734
17092SOL     OW54552   6.550   2.901   9.385  0.0856  0.9579 -0.0572
17092SOL    HW154553   6.513   2.866   9.466 -0.6245  0.8077 -0.4374
17092SOL    HW254554   6.522   2.839   9.318  0.0589  1.4747 -0.5239
17093SOL     OW54555   8.427   5.324   4.300  0.4888  0.7180  0.0722
17093SOL    HW154556   8.501   5.380   4.323  1.3316  0.1723 -1.1715
17093SOL    HW254557   8.355   5.385   4.282  0.1257  1.2123  2.7309
17094SOL     OW54558   5.239   2.024   2.143  0.3764 -0.0379 -0.5562
17094SOL    HW154559   5.315   2.081   2.138  0.0791  0.2872 -1.8699
17094SOL    HW254560   5.258   1.964   2.215  0.9498  1.3344  0.4703
17095SOL     OW54561   0.266   3.757   6.453 -0.2977  0.0367  0.4103
17095SOL    HW154562   0.174   3.771   6.432  0.1253 -0.3123 -1.9619
17095SOL    HW254563   0.296   3.841   6.487 -1.3143  0.3546  0.5474
17096SOL     OW54564   1.442   5.552   0.647  0.1932  0.1305 -0.7538
17096SOL    HW154565   1.372   5.614   0.664 -0.9703 -1.1727 -0.6038
17096SOL    HW254566   1.421   5.515   0.561  0.7108 -0.2457 -0.7266
17097SOL     OW54567   5.066   0.417   2.367  0.2407 -0.3187 -0.1085
17097SOL    HW154568   5.123   0.340   2.359  2.2970  0.9757  1.0832
17097SOL    HW254569   5.084   0.450   2.455 -1.9033  0.5639  0.0521
17098SOL     OW54570   2.062   2.421   8.133 -0.2992  0.2987 -0.0399
17098SOL    HW154571   2.115   2.422   8.054  0.1298 -1.5974  0.1598
17098SOL    HW254572   2.100   2.350   8.186  0.5827  2.6140  2.6768
17099SOL     OW54573   1.803   2.075   0.567 -0.2761 -0.2743 -0.2915
17099SOL    HW154574   1.841   2.010   0.509  0.9185  1.5210 -1.6466
17099SOL    HW254575   1.783   2.150   0.510 -0.7693  0.8860  1.3089
17100SOL     OW54576   6.839   8.914   3.153 -0.3776 -0.4645  0.2418
17100SOL    HW154577   6.813   8.847   3.216  1.3424 -0.6284  0.8418
17100SOL    HW254578   6.935   8.918   3.161 -0.2237  0.2837 -1.5964
17101SOL     OW54579  11.190   0.610   4.724  0.1571 -0.1558  1.1338
17101SOL    HW154580  11.169   0.700   4.749 -0.3011 -0.1659  0.7996
17101SOL    HW254581  11.239   0.618   4.643 -0.5240 -0.2369  0.7071
17102SOL     OW54582   3.870   9.923   9.288 -0.1735  0.0344 -0.4866
17102SOL    HW154583   3.918   9.889   9.213 -1.2184  0.7024 -1.5035
17102SOL    HW254584   3.783   9.943   9.253 -0.7415  0.1926  0.9528
17103SOL     OW54585   5.024  10.364   1.272 -0.3427 -0.6785  0.7994
17103SOL    HW154586   5.021  10.446   1.223 -1.9312 -1.5787 -0.7119
17103SOL    HW254587   5.117  10.350   1.290  0.2564 -0.0134 -1.4890
17104SOL     OW54588   6.301   6.163   5.318  0.0686  0.7942 -0.2212
17104SOL    HW154589   6.294   6.247   5.362  1.0517  1.0447 -0.5083
17104SOL    HW254590   6.237   6.167   5.247 -0.5145  0.9452  0.3133
17105SOL     OW54591   9.447   5.978   5.611 -0.0224  0.0882  0.0656
17105SOL    HW154592   9.429   5.884   5.621 -2.5659  0.4904 -0.1062
17105SOL    HW254593   9.495   6.001   5.690 -0.2321 -1.1789  0.5985
17106SOL     OW54594   3.424  10.484   1.274 -0.1576 -0.0391  0.0936
17106SOL    HW154595   3.392  10.489   1.364 -1.5890  0.1585 -0.3991
17106SOL    HW254596   3.376  10.552   1.228 -0.3453 -0.9268 -1.0688
17107SOL     OW54597   7.867   1.950   8.142 -0.0568 -0.0326  0.1980
17107SOL    HW154598   7.928   1.886   8.106 -0.0698  0.1962 -0.2419
17107SOL    HW254599   7.914   1.991   8.214  0.8051  1.0428 -0.9380
17108SOL     OW54600   3.144   5.629   8.281 -0.7240  0.0773 -0.0247
17108SOL    HW154601   3.203   5.562   8.247 -0.5728  0.3055 -0.2136
17108SOL    HW254602   3.202   5.695   8.319 -0.8579  0.2920 -0.1927
17109SOL     OW54603   5.827  10.030   2.944 -0.2376  0.0329 -0.4153
17109SOL    HW154604   5.883   9.962   2.982  0.0821  0.9996  0.9256
17109SOL    HW254605   5.854  10.110   2.988 -0.9164  0.9610 -1.6414
17110SOL     OW54606   9.002   7.307   6.116  0.4140 -0.6099 -0.2600
17110SOL    HW154607   8.994   7.214   6.094 -3.0138 -0.2181 -1.2926
17110SOL    HW254608   9.022   7.307   6.210  1.4118 -2.3624 -0.4264
17111SOL     OW54609   9.826   5.626   6.730 -0.4073 -0.1487  0.0211
17111SOL    HW154610   9.858   5.689   6.795  0.4197 -0.7857  0.2597
17111SOL    HW254611   9.878   5.644   6.652  1.3975 -1.8612  0.7178
17112SOL     OW54612   6.333   9.270  10.630 -0.5118  0.0746  0.1152
17112SOL    HW154613   6.284   9.350  10.651  0.3848  0.5144  0.6158
17112SOL    HW254614   6.422   9.287  10.664 -0.1196 -0.8514 -0.4113
17113SOL     OW54615   3.877   5.848   7.811 -0.1981 -0.1388  0.9208
17113SOL    HW154616   3.782   5.853   7.813 -0.2607 -1.2199  1.3053
17113SOL    HW254617   3.903   5.851   7.903  0.0610 -1.0365  0.8813
17114SOL     OW54618   4.169   2.266   7.006  0.3071 -0.1443 -0.1984
17114SOL    HW154619   4.168   2.171   7.023  2.2548 -0.2154 -0.2268
17114SOL    HW254620   4.234   2.277   6.937  2.5014  1.4707  1.9389
17115SOL     OW54621   5.099   4.787  10.908  0.1993  0.6209 -0.1285
17115SOL    HW154622   5.058   4.823  10.987 -0.9127 -0.1740 -0.3142
17115SOL    HW254623   5.182   4.751  10.938  0.3558  1.4259  0.4436
17116SOL     OW54624   8.323   6.566  10.470  0.0409 -0.2411  0.7326
17116SOL    HW154625   8.370   6.621  10.533 -1.0719  1.4758  0.1374
17116SOL    HW254626   8.380   6.563  10.393  0.2331 -0.1524  0.8714
17117SOL     OW54627   5.315   8.475   6.475 -0.9477 -0.4643 -0.3805
17117SOL    HW154628   5.244   8.538   6.483 -0.3281  0.7650 -3.2610
17117SOL    HW254629   5.302   8.435   6.388  0.1913 -2.4153  0.2806
17118SOL     OW54630   4.950  10.989   1.583  0.4705  0.2861 -0.4934
17118SOL    HW154631   4.954  10.948   1.497  1.8180  0.3528 -0.4893
17118SOL    HW254632   4.980  11.079   1.568 -0.4641  0.6618 -0.1548
17119SOL     OW54633   7.057  10.180   4.603 -0.7260  0.3983 -0.1880
17119SOL    HW154634   7.065  10.264   4.559  0.8675 -0.1733 -1.0757
17119SOL    HW254635   7.003  10.127   4.544 -2.5131  1.0245  0.8017
17120SOL     OW54636   7.853   0.193   9.019 -0.2268 -0.3732 -0.3738
17120SOL    HW154637   7.904   0.231   9.091 -2.4205  1.9206  0.1176
17120SOL    HW254638   7.909   0.123   8.984  1.8650 -0.0762  2.0782
17121SOL     OW54639   4.450   1.292  10.392  1.0191 -0.1320 -0.7019
17121SOL    HW154640   4.420   1.203  10.377  0.1964  0.0901 -0.4186
17121SOL    HW254641   4.449   1.302  10.488 -0.8122  0.8086 -0.7864
17122SOL     OW54642   4.208   8.426   7.360 -0.4301  0.3273 -0.8493
17122SOL    HW154643   4.164   8.381   7.432  0.5659  0.5400 -0.0895
17122SOL    HW254644   4.245   8.505   7.399  1.9885 -0.6117 -1.0612
17123SOL     OW54645   3.344   7.191   8.639  0.3188 -0.2177 -0.2840
17123SOL    HW154646   3.359   7.255   8.570 -1.0231 -0.0615 -0.4636
17123SOL    HW254647   3.288   7.125   8.598 -0.8025  0.0630  0.7254
17124SOL     OW54648   4.780  11.030   5.060 -0.0271  0.1024 -0.5243
17124SOL    HW154649   4.866  11.063   5.088  0.1774 -0.1409 -0.8562
17124SOL    HW254650   4.762  10.957   5.119  0.6308 -0.7274 -1.3129
17125SOL     OW54651   1.343   9.468   3.532 -0.5415 -0.0844  0.5001
17125SOL    HW154652   1.262   9.420   3.549 -0.3887 -0.1471  1.0950
17125SOL    HW254653   1.314   9.554   3.501 -0.8212 -0.3734 -0.0555
17126SOL     OW54654  10.149   3.751   1.762  0.1718  0.4044  0.0321
17126SOL    HW154655  10.178   3.763   1.671  2.5984  0.0915  0.6767
17126SOL    HW254656  10.211   3.802   1.814 -0.6987 -0.0457  1.5779
17127SOL     OW54657   4.807   6.693   7.352  0.0103 -0.0569 -0.8199
17127SOL    HW154658   4.732   6.637   7.371 -0.3814  0.1678 -1.6381
17127SOL    HW254659   4.883   6.637   7.364 -0.1302  0.1566  1.7621
17128SOL     OW54660   3.613   2.892   5.567 -0.2951  0.2484  0.5519
17128SOL    HW154661   3.665   2.812   5.574  0.1319  0.5351  0.7577
17128SOL    HW254662   3.627   2.922   5.477 -2.3833 -1.1724 -0.3338
17129SOL     OW54663   1.860   4.681   4.874  0.4714  0.3283 -0.0772
17129SOL    HW154664   1.765   4.693   4.866  0.3770 -0.7324 -0.7149
17129SOL    HW254665   1.870   4.595   4.915  1.1623  0.4583  0.0379
17130SOL     OW54666   6.355   4.297   2.658 -0.1322  0.5748  0.4681
17130SOL    HW154667   6.338   4.382   2.699 -1.2425  0.9201 -0.6501
17130SOL    HW254668   6.268   4.259   2.645  0.2494  0.0461 -0.6430
17131SOL     OW54669   2.472   4.217   1.478 -0.3048 -0.1746 -0.3029
17131SOL    HW154670   2.421   4.298   1.472  1.2329  0.9007  0.5244
17131SOL    HW254671   2.420   4.152   1.431 -3.3625  0.3639  2.0045
17132SOL     OW54672   4.060   2.953   0.271  0.2952 -0.2669 -0.4095
17132SOL    HW154673   3.975   2.996   0.285  0.0793 -0.1072 -1.9904
17132SOL    HW254674   4.099   3.001   0.198  1.2696 -1.0310 -0.4115
17133SOL     OW54675   1.209   0.042   8.241  0.3278  0.5474 -0.0924
17133SOL    HW154676   1.293   0.070   8.205 -0.2790  1.4211 -0.8787
17133SOL    HW254677   1.185  -0.034   8.188  0.7571  0.1142  0.3291
17134SOL     OW54678   4.999   6.455   3.745 -0.3565 -0.0591 -0.0244
17134SOL    HW154679   5.036   6.522   3.802 -0.1524  0.5280 -0.8227
17134SOL    HW254680   5.066   6.387   3.742 -0.8816 -0.6665  1.3900
17135SOL     OW54681   6.462   7.400   3.402 -0.2650  0.0678  0.6610
17135SOL    HW154682   6.460   7.334   3.471  0.6851 -0.0131  0.6139
17135SOL    HW254683   6.396   7.370   3.339 -0.3997 -0.4144  1.0260
17136SOL     OW54684   3.840   9.060   6.696  0.3464 -0.5622  0.1792
17136SOL    HW154685   3.853   9.050   6.791 -0.0934  1.5520  0.5049
17136SOL    HW254686   3.928   9.074   6.662  0.3054  0.9368  0.6214
17137SOL     OW54687   0.368   2.593   4.015 -0.2261 -0.4048 -0.1394
17137SOL    HW154688   0.353   2.608   3.921  3.9166 -0.6722 -1.0550
17137SOL    HW254689   0.330   2.670   4.057 -0.3638  0.8130 -2.3054
17138SOL     OW54690   1.372   6.373   5.335  0.3659  0.0327 -0.4565
17138SOL    HW154691   1.292   6.407   5.375  0.1054 -0.7151 -0.3448
17138SOL    HW254692   1.361   6.387   5.241  0.7547  1.3096 -0.3425
17139SOL     OW54693   8.861   4.258  10.073  0.3291 -0.1328 -0.0509
17139SOL    HW154694   8.872   4.281   9.981 -1.9421 -0.3371 -0.4429
17139SOL    HW254695   8.850   4.342  10.117 -0.8922 -0.1034 -0.3676
17140SOL     OW54696  10.321  10.703   9.365  0.1922 -0.0484 -0.5265
17140SOL    HW154697  10.231  10.730   9.347  0.5405  2.5074  0.9515
17140SOL    HW254698  10.314  10.610   9.387 -2.3058  0.3130  0.6636
17141SOL     OW54699   5.676   9.017  10.299 -0.3235 -0.0647  0.0126
17141SOL    HW154700   5.754   9.006  10.353 -1.9016 -1.0117  2.2499
17141SOL    HW254701   5.665   9.112  10.292  0.9281  0.0802 -0.2262
17142SOL     OW54702   5.523   5.605   1.927 -0.3037  0.6378 -0.0434
17142SOL    HW154703   5.481   5.565   2.003  2.5960 -1.1834  0.7858
17142SOL    HW254704   5.504   5.545   1.855  1.5666 -0.7858  0.5611
17143SOL     OW54705   0.021   0.904   0.523  0.4884  0.0652 -0.5969
17143SOL    HW154706   0.013   0.923   0.616  0.1539 -1.4057 -0.2913
17143SOL    HW254707   0.112   0.876   0.512  1.4754  3.2224 -1.3565
17144SOL     OW54708   9.109   8.031   8.413 -0.5743  0.3239  0.0764
17144SOL    HW154709   9.188   8.043   8.466 -1.1254 -0.0222  1.0226
17144SOL    HW254710   9.122   8.084   8.335 -0.3549  2.0519  1.2510
17145SOL     OW54711   2.845  11.375  10.466 -0.2888  0.3659 -0.6036
17145SOL    HW154712   2.803  11.308  10.520 -1.8503  2.4129  0.8304
17145SOL    HW254713   2.898  11.426  10.527 -0.3785  1.4276 -1.3889
17146SOL     OW54714   8.891   1.454  10.050 -0.0853 -0.4107  0.3027
17146SOL    HW154715   8.888   1.440   9.955  0.6644  2.1947 -0.1918
17146SOL    HW254716   8.977   1.495  10.066 -0.6764  0.3109  1.8984
17147SOL     OW54717   8.173   7.041   2.010 -0.0852 -0.3886 -0.0413
17147SOL    HW154718   8.255   6.999   2.037 -0.6212 -1.5296 -0.1160
17147SOL    HW254719   8.141   6.986   1.938  0.4907  1.6395 -1.9587
17148SOL     OW54720   0.807   8.764   4.846  0.0177 -0.1099 -0.0199
17148SOL    HW154721   0.811   8.668   4.844  0.5264 -0.0841 -0.3030
17148SOL    HW254722   0.863   8.792   4.774 -0.8374  0.3862 -0.4970
17149SOL     OW54723   5.816  11.298  11.211 -0.3616 -0.3722  0.2886
17149SOL    HW154724   5.816  11.221  11.269  1.4072 -0.4735  0.2060
17149SOL    HW254725   5.847  11.265  11.127 -1.2361  0.1187 -0.2394
17150SOL     OW54726   3.371   1.306   7.151 -0.7428 -0.2326 -0.0053
17150SOL    HW154727   3.409   1.392   7.169 -2.5942  0.6697 -0.1412
17150SOL    HW254728   3.346   1.309   7.059  1.3403 -1.8452 -0.6935
17151SOL     OW54729   8.238   4.051   9.756 -0.4615 -0.3865 -0.8001
17151SOL    HW154730   8.248   4.142   9.784  0.1260 -0.9970  1.1285
17151SOL    HW254731   8.229   4.001   9.837 -1.6979 -1.9762 -1.8309
17152SOL     OW54732   2.344   6.448   8.407  0.3346  0.3029  0.6614
17152SOL    HW154733   2.331   6.354   8.414  2.0090  0.0843  1.1337
17152SOL    HW254734   2.284   6.475   8.337 -1.3839 -0.8105  1.6258
17153SOL     OW54735   1.350   8.460   6.699  0.5877 -0.0780 -0.1568
17153SOL    HW154736   1.359   8.553   6.720 -1.2975  0.5767 -1.9074
17153SOL    HW254737   1.322   8.420   6.781  2.3152  0.6957  0.8654
17154SOL     OW54738   9.848   1.233   0.675  0.1162 -0.1061 -0.6465
17154SOL    HW154739   9.793   1.304   0.708  1.6745  1.2255 -0.7900
17154SOL    HW254740   9.922   1.230   0.736  2.4911  1.6276 -3.2011
17155SOL     OW54741   9.007   4.794   0.905  0.1412 -0.0142  0.4399
17155SOL    HW154742   8.981   4.714   0.859  1.0068  0.2028 -0.4750
17155SOL    HW254743   9.085   4.824   0.857  0.5240  0.7275  1.5024
17156SOL     OW54744   7.992   5.455   8.983  0.1259  0.3935  0.0479
17156SOL    HW154745   7.930   5.528   8.985 -1.5072 -0.9162  0.2706
17156SOL    HW254746   7.941   5.382   8.947  0.7595 -1.3854  2.4618
17157SOL     OW54747   7.249   1.508  10.679  0.2585 -0.7540 -0.3342
17157SOL    HW154748   7.177   1.447  10.694  0.3342 -0.8360 -0.3034
17157SOL    HW254749   7.321   1.473  10.732  0.2153 -0.4771 -0.0883
17158SOL     OW54750   0.879   0.179   8.508 -0.3206 -0.5067  0.0461
17158SOL    HW154751   0.970   0.209   8.505 -0.5033  0.0840  0.2563
17158SOL    HW254752   0.883   0.096   8.556  0.0506 -0.2802  0.4126
17159SOL     OW54753   0.933   6.920   2.837 -0.1758  0.1414  0.1162
17159SOL    HW154754   0.966   7.009   2.821  0.2433  0.2015  1.2131
17159SOL    HW254755   1.002   6.878   2.888 -0.5899 -0.6615  0.0249
17160SOL     OW54756   0.548  10.376   2.964 -0.0244 -0.0170  0.2549
17160SOL    HW154757   0.481  10.330   2.913  0.4280 -0.6711  0.2378
17160SOL    HW254758   0.511  10.384   3.051 -0.5352  0.5236 -0.0026
17161SOL     OW54759   0.854   5.196   2.260  0.2333  0.3402  0.6059
17161SOL    HW154760   0.914   5.155   2.197  1.1695  1.2604  0.8797
17161SOL    HW254761   0.883   5.163   2.345  0.1325  0.5164  0.7080
17162SOL     OW54762   6.084   7.020   5.453  0.0832  0.2387  0.0267
17162SOL    HW154763   6.124   7.104   5.478 -1.0091  1.0215 -0.7520
17162SOL    HW254764   6.000   7.044   5.414  0.1367 -1.1680 -1.0401
17163SOL     OW54765   6.838   6.841   2.169 -0.3666  0.3444 -0.4959
17163SOL    HW154766   6.907   6.907   2.154  0.1882  0.4275  2.0322
17163SOL    HW254767   6.799   6.866   2.253 -0.7903 -2.0016  0.0583
17164SOL     OW54768   4.116   1.838   1.633 -0.2045  0.2194  0.3255
17164SOL    HW154769   4.205   1.805   1.648  0.0053 -0.8392 -2.5322
17164SOL    HW254770   4.062   1.792   1.696  1.2601  1.0802  2.3204
17165SOL     OW54771   7.124   5.942   2.623 -0.2793  0.0071  0.1440
17165SOL    HW154772   7.072   5.979   2.552  1.2022  0.0542 -0.9572
17165SOL    HW254773   7.127   6.012   2.689  0.4776  0.9564 -0.8713
17166SOL     OW54774   0.017   8.048   1.412  0.0611  0.1582 -0.1099
17166SOL    HW154775  -0.078   8.053   1.402  0.2238  0.2182 -1.9389
17166SOL    HW254776   0.030   7.999   1.494 -1.5338  0.0468  0.1020
17167SOL     OW54777   9.566   6.252  11.298 -0.0121 -0.0201 -0.4002
17167SOL    HW154778   9.626   6.321  11.269 -0.5879  0.5187 -0.3281
17167SOL    HW254779   9.623   6.182  11.329  0.5897  0.1816 -1.0311
17168SOL     OW54780   4.312  10.837   8.957 -0.3244  0.2082  0.1483
17168SOL    HW154781   4.403  10.862   8.937  0.2750 -0.8512  1.4204
17168SOL    HW254782   4.309  10.833   9.052 -1.5236 -0.4383  0.0940
17169SOL     OW54783   5.723   7.037   2.246  0.2463 -0.6192  0.0873
17169SOL    HW154784   5.800   6.990   2.213 -0.0292 -1.2273  0.3171
17169SOL    HW254785   5.715   7.112   2.187  0.7849 -0.7618 -0.1788
17170SOL     OW54786   8.992   1.784   6.277  0.0047 -0.0827 -0.2359
17170SOL    HW154787   9.070   1.797   6.331 -0.6894  0.2636  0.6992
17170SOL    HW254788   8.993   1.690   6.256 -1.2314 -0.8724  2.7999
17171SOL     OW54789   8.805   1.181   1.679 -0.0725 -0.5349 -0.0711
17171SOL    HW154790   8.732   1.242   1.690 -1.3792 -1.8828 -0.9190
17171SOL    HW254791   8.829   1.156   1.768  0.6816  1.3755  0.3231
17172SOL     OW54792  11.247   8.175   6.672  0.2353 -0.4585 -0.3122
17172SOL    HW154793  11.246   8.134   6.759  2.9983 -0.2127 -0.0824
17172SOL    HW254794  11.155   8.175   6.645 -1.0001  0.8361  3.2360
17173SOL     OW54795  10.787   2.567  10.837 -0.2276 -0.0571  0.7496
17173SOL    HW154796  10.808   2.512  10.762 -0.0093 -0.3065  0.9918
17173SOL    HW254797  10.845   2.536  10.907 -0.0928  0.4868  0.8853
17174SOL     OW54798   2.817   5.501   1.018  0.7619  0.6601 -0.1000
17174SOL    HW154799   2.860   5.521   1.101  0.8053 -0.3367  0.1418
17174SOL    HW254800   2.793   5.408   1.026  0.9382  0.4977 -1.2749
17175SOL     OW54801   3.817   7.435   7.462  0.3000  0.1562 -0.3830
17175SOL    HW154802   3.800   7.528   7.444 -1.1048 -0.5886 -3.8490
17175SOL    HW254803   3.897   7.435   7.515 -0.5834  3.3520  1.2025
17176SOL     OW54804   0.776   5.532   8.063 -0.0511  0.3831 -0.4905
17176SOL    HW154805   0.705   5.502   8.121 -1.5418  0.8649 -1.9882
17176SOL    HW254806   0.839   5.460   8.064 -0.7117 -0.2167  0.6143
17177SOL     OW54807  11.106   2.806   9.353 -0.2128 -0.0588 -0.0422
17177SOL    HW154808  11.158   2.844   9.282  0.2885 -0.0234  0.3368
17177SOL    HW254809  11.142   2.846   9.432 -1.1479  0.3484  0.1951
17178SOL     OW54810   7.402   0.491   0.536 -0.3706  0.0812  0.0425
17178SOL    HW154811   7.476   0.507   0.476  0.7242  0.1210  1.3497
17178SOL    HW254812   7.325   0.494   0.480  0.5439  0.9647 -1.2358
17179SOL     OW54813   1.262   1.536   2.630  0.0495  0.0460  0.3448
17179SOL    HW154814   1.234   1.509   2.717 -0.4739  0.4696  0.3109
17179SOL    HW254815   1.283   1.454   2.585  1.5906 -0.1111  1.2825
17180SOL     OW54816   8.335   8.569   8.967 -0.6324  0.3644 -0.4808
17180SOL    HW154817   8.411   8.610   8.925 -0.2748 -1.5447 -1.8146
17180SOL    HW254818   8.326   8.484   8.923 -1.5739 -0.8443  1.8585
17181SOL     OW54819   1.477   1.111   2.149 -0.0614  0.4962  0.8362
17181SOL    HW154820   1.402   1.160   2.182 -0.5230 -0.3554  1.0775
17181SOL    HW254821   1.477   1.126   2.055 -0.1462  1.0286  0.9212
17182SOL     OW54822   4.522   1.102   6.185 -0.0742 -0.8629 -0.2088
17182SOL    HW154823   4.528   1.181   6.131 -0.5441 -0.4861  0.2795
17182SOL    HW254824   4.445   1.057   6.153 -0.2235 -0.7539 -0.0019
17183SOL     OW54825   4.884   6.456   7.890  0.0597 -0.0587 -0.8657
17183SOL    HW154826   4.897   6.470   7.796 -2.0145  0.7383 -1.0854
17183SOL    HW254827   4.790   6.465   7.902  0.1245 -1.5032  1.0976
17184SOL     OW54828   5.993   2.633   7.234 -0.1302  0.3063 -0.0968
17184SOL    HW154829   6.022   2.586   7.156 -1.7368 -0.7718 -0.0878
17184SOL    HW254830   5.989   2.566   7.302 -3.7847  0.0118 -0.4007
17185SOL     OW54831   8.834   5.073   2.415 -0.0085 -0.1256 -0.2046
17185SOL    HW154832   8.865   5.156   2.378  0.5667 -0.3793 -0.3162
17185SOL    HW254833   8.780   5.097   2.489  0.9856  0.3329  0.3859
17186SOL     OW54834  10.196  10.441   8.953  0.1523  0.4481  0.3024
17186SOL    HW154835  10.190  10.521   9.005  0.8515  1.5283 -1.2070
17186SOL    HW254836  10.286  10.412   8.963 -0.2185 -0.4667  1.2343
17187SOL     OW54837   9.876   2.525   5.600 -0.0219  0.1774 -0.9255
17187SOL    HW154838   9.782   2.542   5.612  0.1862  2.0516 -1.5800
17187SOL    HW254839   9.901   2.580   5.525  1.7541  0.3318 -0.2675
17188SOL     OW54840   7.018   0.285   9.055  0.0861  0.0711 -0.0362
17188SOL    HW154841   7.033   0.206   9.004  0.9371  0.3338 -0.2123
17188SOL    HW254842   7.044   0.357   8.997  2.6305  0.3076  1.2512
17189SOL     OW54843   1.213   0.208   3.092  0.2131  0.0964 -0.3377
17189SOL    HW154844   1.221   0.220   2.998 -0.2678 -1.7047 -0.6300
17189SOL    HW254845   1.188   0.117   3.104 -0.6417  0.5150  1.4959
17190SOL     OW54846   7.185   3.892   1.190 -0.6549 -0.3236 -0.0976
17190SOL    HW154847   7.128   3.955   1.234  0.2612  0.9754 -0.7016
17190SOL    HW254848   7.202   3.931   1.104  2.3564  0.1662  0.5874
17191SOL     OW54849   7.150   7.126  10.118  0.5329 -0.2016 -0.3151
17191SOL    HW154850   7.240   7.099  10.099  0.3747 -2.0087  1.2332
17191SOL    HW254851   7.101   7.104  10.039  1.6074  2.0727 -1.7302
17192SOL     OW54852   8.033   7.361   8.592 -0.0441  0.0839 -0.4805
17192SOL    HW154853   7.998   7.275   8.567  2.2970 -0.8731 -0.7294
17192SOL    HW254854   8.118   7.366   8.548  0.5222  1.9200  0.7136
17193SOL     OW54855   8.698   4.118  11.145  0.0756 -0.3556  0.2126
17193SOL    HW154856   8.664   4.076  11.224 -0.8621  0.8979  0.5054
17193SOL    HW254857   8.769   4.174  11.177 -0.0048 -0.1926  0.1050
17194SOL     OW54858   8.105   0.858  11.020  0.0851  0.5168 -0.3170
17194SOL    HW154859   8.127   0.774  11.062  0.7176  0.8235 -0.0248
17194SOL    HW254860   8.031   0.837  10.963 -0.3685 -0.0467  0.4601
17195SOL     OW54861   7.290   4.252   6.321 -0.7858 -0.3638 -0.2044
17195SOL    HW154862   7.258   4.231   6.409 -2.1274 -0.4505 -0.6783
17195SOL    HW254863   7.309   4.346   6.324 -3.6495  0.3324 -0.5541
17196SOL     OW54864   8.569   4.226   5.918 -0.0174  0.4488  0.4176
17196SOL    HW154865   8.544   4.247   6.007 -0.4979 -1.6412  0.8229
17196SOL    HW254866   8.628   4.151   5.926  0.3303  0.5260 -0.9973
17197SOL     OW54867   3.693   1.200   8.600 -0.5240  0.2315  0.0390
17197SOL    HW154868   3.611   1.154   8.580 -0.0093 -1.1066  0.9087
17197SOL    HW254869   3.742   1.139   8.655  0.7169  1.3469  0.2086
17198SOL     OW54870   8.278   2.066   4.494  0.2940 -0.0544  0.5719
17198SOL    HW154871   8.245   2.155   4.508  0.9073  0.5966 -1.6736
17198SOL    HW254872   8.242   2.041   4.409  2.7554 -0.6254 -0.3841
17199SOL     OW54873   5.141   5.387   8.689  0.0825 -0.0319 -0.5330
17199SOL    HW154874   5.172   5.411   8.777 -1.8066 -0.3457  0.2471
17199SOL    HW254875   5.085   5.460   8.663  1.2179  0.4280 -1.8482
17200SOL     OW54876   7.100  10.106   3.757 -0.1979 -0.6706 -0.6932
17200SOL    HW154877   7.141  10.070   3.836 -1.6601 -1.9049 -0.4518
17200SOL    HW254878   7.042  10.037   3.727  0.1122 -0.1150 -2.7256
17201SOL     OW54879   0.127   9.465   5.836  0.5459 -0.4815  0.3587
17201SOL    HW154880   0.174   9.538   5.877  2.9726 -1.3742 -0.6271
17201SOL    HW254881   0.158   9.465   5.745 -0.4998 -1.8709 -0.0300
17202SOL     OW54882   8.193   6.285   6.257  0.2956 -0.2150  0.2486
17202SOL    HW154883   8.281   6.320   6.244  1.5444 -1.9139  3.0653
17202SOL    HW254884   8.177   6.296   6.351 -1.4740 -2.1115  0.2404
17203SOL     OW54885   1.385   7.678   3.976 -0.0887  0.6117 -0.2931
17203SOL    HW154886   1.339   7.719   4.049  0.3335  1.2277 -0.3675
17203SOL    HW254887   1.435   7.607   4.016 -0.3963  0.5090 -0.0860
17204SOL     OW54888   0.557   6.407   2.571 -0.0643 -0.4170  0.0208
17204SOL    HW154889   0.608   6.458   2.634  0.6220  0.6175 -1.3295
17204SOL    HW254890   0.614   6.399   2.495 -0.5753 -2.3145 -0.2155
17205SOL     OW54891   0.576  10.767  11.153  0.7054 -0.2592 -0.2362
17205SOL    HW154892   0.524  10.734  11.080  0.6446  0.3279 -0.4579
17205SOL    HW254893   0.579  10.861  11.140  1.8652 -0.2846 -0.2595
17206SOL     OW54894  10.080   5.755  10.779 -0.7160 -0.5726  0.0394
17206SOL    HW154895  10.074   5.849  10.764  0.5377 -0.4718  0.0660
17206SOL    HW254896  10.017   5.716  10.718 -0.7029  0.2398 -0.5000
17207SOL     OW54897   7.874   0.360   0.083  0.7636  0.3559  0.2267
17207SOL    HW154898   7.920   0.365   0.167 -0.5164 -0.9632  1.0560
17207SOL    HW254899   7.803   0.298   0.098 -0.0360  0.7563 -1.5982
17208SOL     OW54900   8.199   3.766  10.643  0.8659 -0.4485 -0.4008
17208SOL    HW154901   8.265   3.748  10.710  0.7719  0.2035 -0.1257
17208SOL    HW254902   8.196   3.862  10.638 -0.8379 -0.4341  0.3506
17209SOL     OW54903   6.391   0.404   1.274  0.3197  0.4719 -0.2636
17209SOL    HW154904   6.335   0.463   1.224 -0.2610  0.3911  0.2745
17209SOL    HW254905   6.376   0.428   1.366  0.2838 -0.3176 -0.0500
17210SOL     OW54906  11.072   4.736   7.486  0.1903  0.2719  0.8416
17210SOL    HW154907  11.083   4.642   7.481  1.0519  0.2846  2.0250
17210SOL    HW254908  11.016   4.749   7.563 -0.3978  0.7048  0.3509
17211SOL     OW54909   5.726   2.595   5.172  0.0376  0.5287  0.0860
17211SOL    HW154910   5.691   2.508   5.154  0.5203  0.1540  0.8907
17211SOL    HW254911   5.798   2.605   5.109  0.2263  0.1865  0.2430
17212SOL     OW54912   5.558   6.903   7.777  0.1630  0.2585  0.0469
17212SOL    HW154913   5.493   6.845   7.737  0.6487  0.0254 -0.4104
17212SOL    HW254914   5.605   6.848   7.839 -0.3705  0.5400  0.7222
17213SOL     OW54915   2.081   9.242   6.436 -0.2100 -0.0321  0.7413
17213SOL    HW154916   2.163   9.198   6.413 -0.2615  0.1292  0.2269
17213SOL    HW254917   2.102   9.294   6.513 -0.2066 -1.1215  1.5044
17214SOL     OW54918  10.678   7.510   7.406 -0.5613  0.0449  0.0450
17214SOL    HW154919  10.604   7.568   7.384  0.7770  1.5328 -0.7433
17214SOL    HW254920  10.745   7.569   7.440  0.5780 -1.1730 -0.0179
17215SOL     OW54921  10.422  11.095   9.471 -0.4842 -0.2087 -0.0493
17215SOL    HW154922  10.515  11.115   9.460 -0.5832 -0.3240 -1.2048
17215SOL    HW254923  10.422  11.018   9.529  0.3659 -2.3086 -2.6165
17216SOL     OW54924   1.673   8.846  10.876  0.0732  0.2798 -0.2314
17216SOL    HW154925   1.716   8.774  10.921 -0.0384  1.3778  1.7186
17216SOL    HW254926   1.579   8.831  10.890  0.0883  2.3558  2.8996
17217SOL     OW54927   6.845   6.048  10.599 -0.5050 -0.3342 -0.0099
17217SOL    HW154928   6.819   6.071  10.689 -0.5594  1.3418 -0.4147
17217SOL    HW254929   6.940   6.059  10.598 -0.6057  0.6926 -0.3922
17218SOL     OW54930   7.736   0.015   9.968  0.5788 -0.4201 -0.4045
17218SOL    HW154931   7.814   0.008  10.024  0.3940  1.4535  0.1469
17218SOL    HW254932   7.706   0.105   9.979 -2.1469 -1.2803  0.0044
17219SOL     OW54933   1.503   2.246  10.490  0.1840  0.1011 -0.0947
17219SOL    HW154934   1.482   2.155  10.508 -0.5255 -0.0097 -1.3521
17219SOL    HW254935   1.524   2.248  10.397  0.9120  1.1024  0.0687
17220SOL     OW54936   4.704   8.897   5.305 -0.2223  0.1398  0.5487
17220SOL    HW154937   4.675   8.815   5.266 -0.4117 -0.4587  1.8904
17220SOL    HW254938   4.763   8.871   5.376  1.0663  1.2389 -0.0755
17221SOL     OW54939   0.631   0.486   3.705  0.1038 -0.4651 -0.1511
17221SOL    HW154940   0.539   0.465   3.716  0.2497 -2.1173 -1.5736
17221SOL    HW254941   0.641   0.503   3.611  0.8831  1.8479  0.2710
17222SOL     OW54942   8.108   0.175   9.741 -0.3982  0.3255 -0.3218
17222SOL    HW154943   8.072   0.225   9.814  0.8560 -0.2282  0.7279
17222SOL    HW254944   8.111   0.085   9.772 -0.1775  0.0170 -1.1962
17223SOL     OW54945   6.337   3.836   3.169  0.0973  0.1264  0.2679
17223SOL    HW154946   6.265   3.817   3.109  0.8675 -3.3044  0.2237
17223SOL    HW254947   6.354   3.753   3.213  2.1117  1.5627  2.4373
17224SOL     OW54948  11.382   7.229   0.677  0.3785 -0.3886  0.4786
17224SOL    HW154949  11.324   7.155   0.693  0.3172 -0.7129 -1.0776
17224SOL    HW254950  11.465   7.204   0.717  0.1833 -1.0450  0.4803
17225SOL     OW54951   5.908   3.252   2.705  0.2774 -0.2772 -0.2190
17225SOL    HW154952   5.883   3.308   2.778  2.1043  0.3693 -0.0368
17225SOL    HW254953   5.935   3.312   2.636  2.2378 -0.8585 -0.0301
17226SOL     OW54954  10.312   9.784   5.865 -0.0315  0.4254 -0.2173
17226SOL    HW154955  10.331   9.817   5.777  0.0252 -0.5761 -0.5882
17226SOL    HW254956  10.397   9.758   5.900 -0.3928 -2.4834 -1.2398
17227SOL     OW54957   1.903   5.585  11.291  0.0329 -0.2325  0.2784
17227SOL    HW154958   1.962   5.617  11.223 -0.3307  2.7197  1.1983
17227SOL    HW254959   1.944   5.504  11.322  4.0220  1.8498  1.1999
17228SOL     OW54960   2.004   4.392   0.638  0.2935  0.7070 -0.2647
17228SOL    HW154961   2.038   4.317   0.685  0.5338  0.3768 -0.9514
17228SOL    HW254962   2.081   4.435   0.602  0.0111 -1.2412 -3.6604
17229SOL     OW54963   3.798   2.580   6.928 -0.7936 -0.0767  0.5569
17229SOL    HW154964   3.854   2.504   6.941  0.2489  0.6221  0.3211
17229SOL    HW254965   3.734   2.552   6.864  0.2913 -0.4158 -0.4187
17230SOL     OW54966   8.632   0.322   0.729  0.1806 -0.1777  0.1871
17230SOL    HW154967   8.590   0.407   0.745 -0.1370 -0.0355 -1.2329
17230SOL    HW254968   8.613   0.271   0.808 -0.6789  0.6562  0.5533
17231SOL     OW54969   2.844   9.673   7.832  0.2480 -0.0520 -0.0324
17231SOL    HW154970   2.792   9.730   7.775 -0.8117 -0.1228  0.8285
17231SOL    HW254971   2.896   9.620   7.772  1.4344  1.9355 -0.8722
17232SOL     OW54972   9.713   3.492   9.812  0.2478  0.0200  0.1426
17232SOL    HW154973   9.727   3.559   9.745 -0.8959 -0.2547 -0.3896
17232SOL    HW254974   9.764   3.417   9.782 -2.0454 -0.9373 -1.7195
17233SOL     OW54975   2.209   7.464  11.368  0.5357 -0.3893  0.2951
17233SOL    HW154976   2.299   7.494  11.359  0.7711 -0.7525  1.3203
17233SOL    HW254977   2.214   7.370  11.350  0.3445 -0.3909  0.2509
17234SOL     OW54978   1.924   0.705   7.792 -1.1365 -0.0135  0.1131
17234SOL    HW154979   1.930   0.647   7.867  0.5887  0.4501  0.3829
17234SOL    HW254980   1.835   0.740   7.795 -1.8175 -1.6929  0.6211
17235SOL     OW54981  10.727  10.357   4.753 -0.0645 -0.8244  0.1443
17235SOL    HW154982  10.664  10.285   4.764 -0.4332 -0.5677 -0.2586
17235SOL    HW254983  10.742  10.361   4.658 -1.8550  1.1448 -0.1147
17236SOL     OW54984   6.008   9.740   7.474 -0.3291 -0.1591  0.0649
17236SOL    HW154985   5.979   9.828   7.495  0.9670  0.3266 -0.1142
17236SOL    HW254986   6.093   9.732   7.516  0.4289 -0.6436 -1.4886
17237SOL     OW54987   4.925   8.472   0.490 -0.3300 -0.5443 -0.1368
17237SOL    HW154988   4.862   8.443   0.424 -0.9085 -3.1759  1.4151
17237SOL    HW254989   4.891   8.557   0.520 -1.1682 -0.2735 -1.7534
17238SOL     OW54990  10.755   2.046   7.609  0.0319 -0.3075 -0.3351
17238SOL    HW154991  10.841   2.009   7.626  0.1053  0.0428  0.0877
17238SOL    HW254992  10.698   1.970   7.592 -0.1023 -0.7299  1.7577
17239SOL     OW54993   5.107   0.760   1.264 -0.0004 -0.0679  0.0702
17239SOL    HW154994   5.080   0.690   1.324  0.8781 -1.0145 -0.5982
17239SOL    HW254995   5.062   0.838   1.296  0.9882 -0.3733  2.3782
17240SOL     OW54996   2.877   5.464   1.607  0.5585  0.0534 -0.0534
17240SOL    HW154997   2.822   5.413   1.668  1.2323 -0.0967  0.4367
17240SOL    HW254998   2.834   5.549   1.602  0.4815  0.0592  0.6156
17241SOL     OW54999   0.426  10.354   7.057  0.0995  0.2666 -0.1210
17241SOL    HW155000   0.518  10.329   7.046  0.4075  1.5823 -0.7317
17241SOL    HW255001   0.429  10.440   7.098 -0.9454 -0.8855  2.6195
17242SOL     OW55002   8.088   1.507   4.461  1.0857 -0.3255 -0.9266
17242SOL    HW155003   8.097   1.460   4.378  1.4126 -2.2598  0.1525
17242SOL    HW255004   8.154   1.469   4.518  1.3761  1.4995  0.0175
17243SOL     OW55005   2.020   9.607   6.132 -0.0236  0.4296  0.3812
17243SOL    HW155006   2.002   9.528   6.183 -1.1180 -0.3405 -1.1036
17243SOL    HW255007   2.111   9.628   6.151  0.7228 -1.9821 -0.1647
17244SOL     OW55008   7.514   7.747   9.911  0.1785  0.0934  0.1827
17244SOL    HW155009   7.451   7.740   9.983  1.1867  0.3743  1.1178
17244SOL    HW255010   7.596   7.714   9.947  1.1394  1.8668 -0.2578
17245SOL     OW55011  10.035   8.108   1.640  0.1307 -0.1089 -0.0450
17245SOL    HW155012   9.958   8.081   1.591  1.3230 -1.1208 -1.4625
17245SOL    HW255013  10.064   8.188   1.597 -0.6142  0.8028  1.0780
17246SOL     OW55014   0.453   0.336   9.378  0.7561  0.1706  0.1576
17246SOL    HW155015   0.416   0.261   9.330  0.7533  0.0707  0.3160
17246SOL    HW255016   0.463   0.404   9.311  0.2675  0.2034  0.1143
17247SOL     OW55017   9.369  10.812   7.330  0.1757 -0.5044  0.0326
17247SOL    HW155018   9.417  10.881   7.283  0.2271 -0.5109  0.0756
17247SOL    HW255019   9.400  10.731   7.291  0.4358 -0.5249  0.2729
17248SOL     OW55020   9.448   5.406   2.242  0.0109 -0.2931  0.3084
17248SOL    HW155021   9.377   5.349   2.211  1.7660 -1.7989 -1.2389
17248SOL    HW255022   9.507   5.414   2.167  0.2484  3.0543  0.6928
17249SOL     OW55023   9.296   9.354   1.349  0.3508  0.0151 -0.1060
17249SOL    HW155024   9.301   9.368   1.255  0.7476 -0.1763 -0.1181
17249SOL    HW255025   9.387   9.365   1.380  0.1919  0.2839  0.2833
17250SOL     OW55026   5.203   7.125   9.818 -0.3054 -0.3495  0.2966
17250SOL    HW155027   5.245   7.081   9.744  0.7864  0.2865  0.5171
17250SOL    HW255028   5.172   7.054   9.874  0.8102 -0.8569  0.2992
17251SOL     OW55029   5.141   6.814   7.014  0.3858  0.1090  0.1011
17251SOL    HW155030   5.103   6.839   7.099  0.4708 -0.0695  0.1918
17251SOL    HW255031   5.114   6.723   7.002 -0.1956  0.3412 -0.3795
17252SOL     OW55032   7.185   3.150   5.393 -0.3076 -0.1684  0.3382
17252SOL    HW155033   7.090   3.160   5.389 -0.2514  0.2495 -0.0847
17252SOL    HW255034   7.214   3.217   5.455 -0.3251 -0.5876  0.8062
17253SOL     OW55035   2.051  11.054   9.054  0.1736 -0.3420 -0.1024
17253SOL    HW155036   2.011  11.086   8.974  0.6032 -1.1063 -0.6364
17253SOL    HW255037   2.008  11.103   9.124  0.6653  1.2045 -0.8564
17254SOL     OW55038   8.303  11.382   5.428  0.2362 -0.2385 -0.5282
17254SOL    HW155039   8.246  11.369   5.352 -0.3952 -0.6864 -0.0011
17254SOL    HW255040   8.255  11.444   5.484 -0.4783 -1.7221  0.6036
17255SOL     OW55041   1.446   6.200   1.602 -0.2630 -0.3926  0.4419
17255SOL    HW155042   1.361   6.240   1.623  0.8118  2.8575 -0.8002
17255SOL    HW255043   1.510   6.257   1.644  1.4837  0.2232 -2.8036
17256SOL     OW55044  11.074   2.062   4.317  0.3922 -0.4977  0.1846
17256SOL    HW155045  11.119   1.977   4.314  1.7189  0.1656  0.4878
17256SOL    HW255046  11.094   2.101   4.232  2.8213  0.9659  1.3361
17257SOL     OW55047   9.820   6.064   0.574 -0.3759 -0.3261 -0.3503
17257SOL    HW155048   9.764   6.011   0.518 -0.1382 -1.3190  0.3245
17257SOL    HW255049   9.909   6.032   0.558 -0.4726 -2.0005  1.9667
17258SOL     OW55050   5.571   9.605   9.425  0.3543  0.9974 -0.4862
17258SOL    HW155051   5.628   9.535   9.455  0.2047  0.5958 -1.1166
17258SOL    HW255052   5.532   9.641   9.505 -1.2842 -1.0977 -0.2606
17259SOL     OW55053   9.023   7.043   6.016  0.3482  0.1386 -0.0662
17259SOL    HW155054   9.101   6.991   6.036  0.8549  0.5106 -0.9989
17259SOL    HW255055   9.017   7.041   5.921 -0.7633  0.1588 -0.0058
17260SOL     OW55056   3.888   0.539   8.216 -0.4597  0.7068  0.4575
17260SOL    HW155057   3.871   0.574   8.128 -0.7204 -2.5538 -0.9102
17260SOL    HW255058   3.810   0.486   8.236  0.3742 -0.0408  1.8993
17261SOL     OW55059   7.626   3.540   1.144 -0.0460 -0.2610 -0.2379
17261SOL    HW155060   7.683   3.616   1.134  0.3424 -0.5455 -0.2216
17261SOL    HW255061   7.610   3.510   1.054  0.8552 -0.9268 -0.1825
17262SOL     OW55062   4.430   5.313   6.590  0.5263 -0.2058  0.6587
17262SOL    HW155063   4.352   5.265   6.616 -0.2694  0.4520 -0.4498
17262SOL    HW255064   4.412   5.404   6.616  1.0033 -0.0759  0.5565
17263SOL     OW55065   5.357   9.579   8.494  0.2604  0.1611  0.1714
17263SOL    HW155066   5.353   9.567   8.589  2.3205  1.0189  0.4257
17263SOL    HW255067   5.333   9.671   8.481  0.7512  0.2645 -0.0353
17264SOL     OW55068   7.155   9.304   3.275 -0.4181 -0.3251  0.0323
17264SOL    HW155069   7.180   9.362   3.347  0.0555  0.6564 -0.8912
17264SOL    HW255070   7.170   9.356   3.196 -1.3465 -1.2199 -0.7661
17265SOL     OW55071   8.325   3.779   2.600  0.5990 -0.3328 -0.5579
17265SOL    HW155072   8.367   3.825   2.673 -0.7493  2.0869 -1.2024
17265SOL    HW255073   8.234   3.806   2.603  0.4167 -0.4688 -2.8754
17266SOL     OW55074   9.981   0.765   3.657  0.6839 -0.1281  0.1373
17266SOL    HW155075   9.924   0.692   3.633  1.5778 -0.3501 -1.4296
17266SOL    HW255076   9.998   0.752   3.751  2.1417 -2.9274 -0.4019
17267SOL     OW55077   0.644   5.323   0.510  0.1745  0.2991 -0.3341
17267SOL    HW155078   0.606   5.265   0.576  0.4324 -0.0263 -0.4661
17267SOL    HW255079   0.569   5.352   0.457 -0.1115  1.0310  0.4541
17268SOL     OW55080  10.823   3.412   7.525 -0.5651  0.2805 -0.2179
17268SOL    HW155081  10.737   3.372   7.540  0.1222 -1.1467  0.1486
17268SOL    HW255082  10.822   3.438   7.433 -1.6703  1.0467 -0.0064
17269SOL     OW55083   5.268   6.394   4.886  0.1661  0.6940  0.1322
17269SOL    HW155084   5.207   6.328   4.855 -0.0031  1.4955 -1.3202
17269SOL    HW255085   5.348   6.345   4.906 -0.0199  0.0135 -0.7188
17270SOL     OW55086   1.755   3.130   7.654  0.3813  0.1976 -0.0866
17270SOL    HW155087   1.828   3.191   7.665 -0.2601  0.8864  0.5039
17270SOL    HW255088   1.702   3.142   7.733 -0.8508  0.3942 -0.9131
17271SOL     OW55089   0.411  11.240   6.263 -0.1344  0.0654  0.6113
17271SOL    HW155090   0.486  11.192   6.299 -1.3191 -1.1034  1.6469
17271SOL    HW255091   0.433  11.252   6.170  1.8794  0.9010  1.1517
17272SOL     OW55092   3.484   5.693   1.608  0.6912  0.3195 -0.0562
17272SOL    HW155093   3.566   5.708   1.562  0.8562  1.2416  0.4888
17272SOL    HW255094   3.416   5.726   1.549  0.8787  1.2355  0.2116
17273SOL     OW55095   3.323   0.452   5.960 -0.0326 -0.0722 -0.2134
17273SOL    HW155096   3.256   0.499   6.010 -0.0722 -1.1337  0.7408
17273SOL    HW255097   3.299   0.360   5.967  0.3787 -0.3028 -1.5854
17274SOL     OW55098   8.356   6.267   7.437 -0.2595  0.1536 -0.1818
17274SOL    HW155099   8.308   6.197   7.393 -1.0338  0.7227 -0.2768
17274SOL    HW255100   8.297   6.297   7.506  0.8328 -0.5412  1.1094
17275SOL     OW55101   1.938   8.050  10.079  0.1057 -0.4692 -0.1960
17275SOL    HW155102   1.977   7.972  10.040  1.6443  0.5076 -0.6830
17275SOL    HW255103   1.899   8.097  10.006  1.8852  0.7287 -0.4403
17276SOL     OW55104   3.827   2.938   4.390 -0.1092 -0.6036  0.4580
17276SOL    HW155105   3.733   2.939   4.371 -0.4445 -1.0037  1.9179
17276SOL    HW255106   3.862   2.866   4.338 -0.2366  0.7163 -1.5521
17277SOL     OW55107   4.971   8.315  10.427 -0.0700  0.0451 -0.8549
17277SOL    HW155108   5.049   8.361  10.458  0.5152 -1.0877 -0.5756
17277SOL    HW255109   4.898   8.368  10.458  0.4917 -0.6171  1.9346
17278SOL     OW55110   5.457   6.976   3.541  0.7141 -0.1646  0.1784
17278SOL    HW155111   5.433   7.064   3.512 -0.2895 -0.2532  0.6717
17278SOL    HW255112   5.379   6.923   3.520  1.2916 -0.9240 -0.0800
17279SOL     OW55113   7.319   4.937   6.623 -0.0851 -0.6662 -0.0693
17279SOL    HW155114   7.295   4.886   6.545  0.5003 -0.1302 -0.6222
17279SOL    HW255115   7.248   5.000   6.633  0.2273 -0.2132 -0.6584
17280SOL     OW55116   4.754   3.606   6.905 -0.0786  0.7466 -0.2922
17280SOL    HW155117   4.707   3.539   6.856  2.1634  0.7201 -2.6274
17280SOL    HW255118   4.699   3.624   6.981 -1.4925 -2.6279 -0.3491
17281SOL     OW55119   4.506   6.304   0.284  0.2323 -0.4819  0.0566
17281SOL    HW155120   4.419   6.299   0.324 -0.7350 -2.3781 -2.0460
17281SOL    HW255121   4.564   6.260   0.347 -0.6533 -0.7770  0.6881
17282SOL     OW55122  10.973   9.528   2.807  0.3358  0.2997  0.7970
17282SOL    HW155123  11.037   9.458   2.796  0.1532  0.3948 -1.3241
17282SOL    HW255124  10.891   9.490   2.778  0.1781  1.2991 -0.1272
17283SOL     OW55125   5.207   2.142   8.501 -0.2542 -0.7856 -0.8590
17283SOL    HW155126   5.168   2.230   8.494 -0.3177 -0.4700  2.2319
17283SOL    HW255127   5.302   2.158   8.495 -0.2949 -0.6050 -1.0452
17284SOL     OW55128   8.120   0.651   7.067  0.2444  0.2351 -0.0754
17284SOL    HW155129   8.031   0.654   7.101  0.3163  0.1934  0.1181
17284SOL    HW255130   8.165   0.586   7.121  0.2435 -0.1520 -0.5315
17285SOL     OW55131   5.574   9.697   9.013  0.5646  0.1877  0.1574
17285SOL    HW155132   5.556   9.789   8.992  0.2126  0.2201  0.5704
17285SOL    HW255133   5.666   9.695   9.037  1.0540  0.1057 -1.5911
17286SOL     OW55134   5.248  11.329  10.974  0.4692 -0.0950 -0.2272
17286SOL    HW155135   5.303  11.311  10.897  1.5676 -2.0867  0.9404
17286SOL    HW255136   5.311  11.345  11.045 -0.5013  0.0278  0.6284
17287SOL     OW55137   3.268   5.738   3.404  0.2714  0.9597 -0.0162
17287SOL    HW155138   3.248   5.677   3.475  1.9180 -1.1686 -1.2697
17287SOL    HW255139   3.182   5.762   3.369 -0.4533 -1.0552  0.2265
17288SOL     OW55140   2.383   0.413   8.231  0.0695 -0.0932  0.0783
17288SOL    HW155141   2.466   0.369   8.215  0.9332  1.0230  1.2689
17288SOL    HW255142   2.364   0.460   8.149  1.2867  0.6822  0.2235
17289SOL     OW55143  10.836   3.479   8.101  0.5354 -0.1661 -0.4441
17289SOL    HW155144  10.854   3.437   8.185 -0.7212 -2.2445 -1.1241
17289SOL    HW255145  10.873   3.419   8.036  1.1342  1.2042 -1.4156
17290SOL     OW55146   7.611  11.072   4.474  0.3535 -0.3840 -0.1625
17290SOL    HW155147   7.547  11.098   4.540  0.1076 -2.4253  0.4669
17290SOL    HW255148   7.690  11.054   4.524  0.0200 -2.4444 -0.2971
17291SOL     OW55149   7.909   7.157   6.662  0.5413 -0.4762 -0.0432
17291SOL    HW155150   7.915   7.085   6.724  1.0029 -0.1269  0.3237
17291SOL    HW255151   7.996   7.164   6.624  1.0740  1.1558  1.3686
17292SOL     OW55152   6.038   4.370   7.625  0.0414  0.0107 -0.2829
17292SOL    HW155153   6.050   4.382   7.720 -0.1177 -0.5210 -0.1936
17292SOL    HW255154   6.127   4.370   7.590  0.1176 -0.0887 -0.0948
17293SOL     OW55155   5.139   0.372   3.502  0.1084  0.3896  0.3245
17293SOL    HW155156   5.080   0.299   3.490 -1.6839  1.7902  0.1464
17293SOL    HW255157   5.126   0.427   3.425  0.4511  1.5256  1.0465
17294SOL     OW55158   6.261   5.263   6.490 -0.0327  0.4105  0.4922
17294SOL    HW155159   6.193   5.207   6.452 -1.6664  1.6339  1.4805
17294SOL    HW255160   6.279   5.224   6.576 -0.7880  1.0619  0.9604
17295SOL     OW55161   9.408   7.653   0.855  0.0873 -0.2462 -0.0026
17295SOL    HW155162   9.325   7.610   0.837 -1.7950  3.1168 -0.0624
17295SOL    HW255163   9.439   7.612   0.936 -1.1940 -2.0645 -0.3743
17296SOL     OW55164   4.777   3.137   9.860  0.4053 -0.6171 -0.5939
17296SOL    HW155165   4.724   3.178   9.928  0.5689 -1.1565 -0.1336
17296SOL    HW255166   4.820   3.063   9.904  2.2309  0.3049 -0.7219
17297SOL     OW55167   7.480   9.604  10.231 -0.4187  0.1074 -0.0021
17297SOL    HW155168   7.437   9.540  10.175 -0.0555 -1.1610  1.1226
17297SOL    HW255169   7.414   9.673  10.243 -1.5539 -0.9952  0.3264
17298SOL     OW55170   1.545   3.555   2.533  0.3346  0.0013  0.0830
17298SOL    HW155171   1.450   3.541   2.538  0.6960 -2.4129  1.5150
17298SOL    HW255172   1.565   3.550   2.440 -0.9120  0.4028 -0.2268
17299SOL     OW55173   9.411   4.559   3.630 -0.5006 -0.7125  0.4115
17299SOL    HW155174   9.406   4.652   3.609 -0.3719 -1.1722 -1.9242
17299SOL    HW255175   9.393   4.554   3.724  0.5236  1.7511  0.8121
17300SOL     OW55176   0.239   5.886   6.105 -0.1625 -0.3383  0.0917
17300SOL    HW155177   0.289   5.833   6.168 -0.8709 -0.4417  0.5864
17300SOL    HW255178   0.194   5.821   6.051 -1.1176 -0.2559  0.7693
17301SOL     OW55179   1.412   0.985   6.920 -0.1040 -0.4231 -0.2315
17301SOL    HW155180   1.421   0.966   7.013 -0.1325 -0.5401 -0.2526
17301SOL    HW255181   1.333   1.039   6.914 -0.5440 -1.0616 -0.2752
17302SOL     OW55182   9.303   7.728   7.758  0.3486 -0.0271 -0.5503
17302SOL    HW155183   9.360   7.803   7.741 -0.9653  1.1229 -0.1237
17302SOL    HW255184   9.351   7.676   7.822  0.5169  1.4518  0.5908
17303SOL     OW55185   9.605   3.362   3.588 -0.5752 -0.0452 -0.0775
17303SOL    HW155186   9.578   3.392   3.501  0.4461  0.2172 -0.3135
17303SOL    HW255187   9.697   3.338   3.578 -0.8465 -1.5015  0.5556
17304SOL     OW55188  10.165   2.670   9.405  0.4221 -0.1111  0.2085
17304SOL    HW155189  10.249   2.649   9.364  0.5467 -1.0824  0.9127
17304SOL    HW255190  10.186   2.736   9.471  0.4927  0.2568 -0.1820
17305SOL     OW55191  10.014   4.938   0.768 -0.6590  0.1927  0.3123
17305SOL    HW155192   9.964   4.991   0.829 -0.3967 -1.4560  2.0419
17305SOL    HW255193   9.950   4.877   0.731 -0.4506 -0.0476  0.3495
17306SOL     OW55194   1.671   6.782   0.172  0.0568  0.2047  0.6365
17306SOL    HW155195   1.750   6.728   0.178 -1.5539 -2.1420  2.5104
17306SOL    HW255196   1.659   6.818   0.260 -0.3194  1.6103  0.0473
17307SOL     OW55197   0.979   3.484   3.385  0.3727 -0.6114 -0.8842
17307SOL    HW155198   0.915   3.540   3.429  1.2549  1.8722 -2.4973
17307SOL    HW255199   0.929   3.409   3.355 -0.8786 -0.7989  1.4595
17308SOL     OW55200  10.196   1.906   1.973  0.4063 -0.3930 -0.3195
17308SOL    HW155201  10.245   1.847   2.030  0.2650  0.2196  0.4566
17308SOL    HW255202  10.115   1.858   1.954  0.3545 -0.5189  0.1829
17309SOL     OW55203   4.102   9.772   5.071 -0.5656 -0.1343  0.5689
17309SOL    HW155204   4.007   9.764   5.071 -0.5618 -0.1719  0.4930
17309SOL    HW255205   4.134   9.691   5.111 -0.4774 -1.0027 -1.1612
17310SOL     OW55206   0.522  10.626   1.708  0.0383 -0.2151  0.1552
17310SOL    HW155207   0.579  10.697   1.677 -1.9032  1.8648  1.0299
17310SOL    HW255208   0.462  10.610   1.636  0.0899 -0.5310  0.1833
17311SOL     OW55209   1.315   7.228   8.347  0.2283  0.2563  0.1899
17311SOL    HW155210   1.408   7.250   8.353  0.3340 -0.3148  0.7271
17311SOL    HW255211   1.274   7.305   8.308  1.2129 -0.2125 -1.9318
17312SOL     OW55212  10.614  10.133   7.980 -0.6553 -0.2437 -0.5913
17312SOL    HW155213  10.581  10.200   8.039  2.6095  0.1554  1.0027
17312SOL    HW255214  10.646  10.181   7.904 -0.1824 -0.1959 -0.3653
17313SOL     OW55215   0.643   7.790   9.360  0.5138  0.1023  0.2973
17313SOL    HW155216   0.561   7.838   9.343  0.6832  0.0282 -0.7985
17313SOL    HW255217   0.624   7.738   9.439 -0.4709  0.1435  0.1047
17314SOL     OW55218  10.038   8.389   6.913  0.1985  0.0426 -0.5558
17314SOL    HW155219   9.945   8.405   6.894 -0.2819 -1.7151  0.2062
17314SOL    HW255220  10.075   8.361   6.829  0.5095  2.4539 -1.3135
17315SOL     OW55221  10.733   1.991  11.130 -0.4010 -0.4891 -0.4992
17315SOL    HW155222  10.706   2.039  11.051  1.9555 -0.7119 -1.5318
17315SOL    HW255223  10.737   2.058  11.198  1.2415  0.5479 -1.5291
17316SOL     OW55224   4.409  11.268   9.509  0.1210  0.2794 -0.1701
17316SOL    HW155225   4.446  11.310   9.431  0.9827  1.6316  0.9197
17316SOL    HW255226   4.350  11.333   9.546  0.8785  0.2588  1.1270
17317SOL     OW55227   3.307   7.633   8.273  0.0500 -0.1966 -0.0768
17317SOL    HW155228   3.242   7.570   8.303  0.8827 -1.4552 -0.8211
17317SOL    HW255229   3.256   7.710   8.248 -1.1105 -0.9928 -0.2470
17318SOL     OW55230   6.553   5.255  11.117 -0.4002 -0.2523 -0.2509
17318SOL    HW155231   6.523   5.324  11.057 -1.5802 -0.0703  0.5215
17318SOL    HW255232   6.495   5.262  11.193  0.9753 -0.5598  0.8721
17319SOL     OW55233   7.212   3.136   8.170 -0.4677 -0.2267  0.3154
17319SOL    HW155234   7.280   3.074   8.198  1.4337  1.5230 -0.1781
17319SOL    HW255235   7.218   3.135   8.075 -1.2267 -0.1206  0.2648
17320SOL     OW55236   3.446   7.211   7.843 -0.2453 -0.3226  0.1539
17320SOL    HW155237   3.423   7.167   7.761 -0.4126  0.9955 -0.5468
17320SOL    HW255238   3.508   7.279   7.816  1.4252 -1.2462  1.4513
17321SOL     OW55239   6.162   9.090   6.836 -0.4984 -0.8781  0.2945
17321SOL    HW155240   6.239   9.077   6.891  1.7909  1.4468 -2.1255
17321SOL    HW255241   6.166   9.019   6.772 -1.8172 -2.1527  1.5328
17322SOL     OW55242   8.169   9.687   5.909 -0.3428  0.1160  0.4375
17322SOL    HW155243   8.098   9.678   5.974  0.1849 -1.4642  0.8421
17322SOL    HW255244   8.135   9.642   5.832 -0.0204 -0.1332  0.4399
17323SOL     OW55245   1.706   2.701   9.024  0.0050  0.4429  0.4622
17323SOL    HW155246   1.708   2.625   9.083  1.0603 -0.2915 -0.4835
17323SOL    HW255247   1.716   2.776   9.083 -1.8224 -0.0522  1.4952
17324SOL     OW55248  10.425   0.238   6.889  0.3192  0.5563  0.6872
17324SOL    HW155249  10.477   0.167   6.853 -0.6801  0.6807 -1.0943
17324SOL    HW255250  10.431   0.226   6.984  0.9083 -1.3434  0.4530
17325SOL     OW55251   9.373   3.020   4.143 -0.0465  0.0318 -0.2358
17325SOL    HW155252   9.315   3.043   4.071  0.0742 -2.7760 -1.3576
17325SOL    HW255253   9.315   3.007   4.218 -0.5867 -0.2928 -0.7027
17326SOL     OW55254   4.150   1.833   9.579 -0.0321  0.8558 -0.7338
17326SOL    HW155255   4.186   1.761   9.529 -1.7938 -1.1567  0.6949
17326SOL    HW255256   4.220   1.860   9.638  0.1544 -0.9431 -0.0659
17327SOL     OW55257   9.605   1.189   4.667  0.2971  0.5692 -0.3468
17327SOL    HW155258   9.585   1.221   4.755  0.5955  1.4871 -0.6004
17327SOL    HW255259   9.682   1.238   4.641  2.1769 -1.9504  0.0949
17328SOL     OW55260   9.313   8.820   8.021 -0.5610  0.6320  0.3570
17328SOL    HW155261   9.300   8.725   8.025 -0.2868  0.5994  0.4875
17328SOL    HW255262   9.408   8.832   8.019 -0.5907  0.9103  0.4935
17329SOL     OW55263   4.445   9.761   5.131  0.3490 -0.0635  0.3353
17329SOL    HW155264   4.425   9.826   5.064  1.1076 -1.3331 -1.2015
17329SOL    HW255265   4.529   9.789   5.167 -0.0176  0.5728  0.7170
17330SOL     OW55266   8.495  10.422   0.944 -0.0173 -0.6790 -0.1035
17330SOL    HW155267   8.543  10.452   0.867  1.0320 -0.2034  0.7117
17330SOL    HW255268   8.499  10.326   0.939 -2.0996 -0.7428 -1.9270
17331SOL     OW55269   9.130   5.419   4.837  0.1051 -0.0484 -0.2060
17331SOL    HW155270   9.223   5.442   4.834  0.2823 -0.4393  1.2619
17331SOL    HW255271   9.118   5.382   4.925 -1.4314 -0.0337 -0.3868
17332SOL     OW55272   3.652   6.500  11.101  0.1226  0.2430 -0.3427
17332SOL    HW155273   3.586   6.550  11.053 -0.2653 -0.6602 -0.7768
17332SOL    HW255274   3.603   6.455  11.170  0.4681  0.4475  0.0454
17333SOL     OW55275   3.798   5.439   9.573  0.2136  0.3841  0.4932
17333SOL    HW155276   3.845   5.430   9.656  0.8054  0.5055  0.1810
17333SOL    HW255277   3.838   5.374   9.515 -0.1121  0.3808  0.2702
17334SOL     OW55278   4.582   8.717   5.557 -0.2064 -0.2069  0.1963
17334SOL    HW155279   4.543   8.631   5.548 -1.3510  0.3868 -0.8128
17334SOL    HW255280   4.534   8.772   5.496 -0.1104  1.3649  1.4664
17335SOL     OW55281   2.536   5.604   4.706 -0.3335  0.8903  0.3283
17335SOL    HW155282   2.536   5.685   4.757  0.8645  0.4650  1.0480
17335SOL    HW255283   2.482   5.624   4.629 -1.9354  1.6542  1.5790
17336SOL     OW55284   6.633   9.252  11.151  0.1761 -0.8175  0.2759
17336SOL    HW155285   6.605   9.198  11.225 -0.2009  0.0799  0.8058
17336SOL    HW255286   6.552   9.277  11.107  0.4533 -2.8534 -1.5940
17337SOL     OW55287   9.815   9.515   2.230 -0.5305 -0.1685 -0.2809
17337SOL    HW155288   9.812   9.429   2.271  0.7239 -0.1690 -0.1251
17337SOL    HW255289   9.856   9.571   2.296 -0.7005  0.3842 -0.6393
17338SOL     OW55290   7.905   3.068   9.640  0.0670  0.1657 -0.0351
17338SOL    HW155291   7.880   3.129   9.572  0.3218  2.7235  2.0068
17338SOL    HW255292   7.998   3.087   9.657  0.2385 -0.9904  0.4583
17339SOL     OW55293   8.625   7.995  10.656 -0.0531 -0.2443 -0.3698
17339SOL    HW155294   8.548   8.041  10.623 -0.5554 -0.2580  0.7446
17339SOL    HW255295   8.616   7.906  10.622 -1.2865 -0.6337  0.8940
17340SOL     OW55296  11.342   6.281   7.417 -0.0796 -0.4043 -0.5909
17340SOL    HW155297  11.356   6.250   7.506 -0.8046 -1.5747 -0.8662
17340SOL    HW255298  11.340   6.376   7.425  2.2926 -0.3758  0.2642
17341SOL     OW55299  11.083   5.322   2.352 -0.1404 -0.4038 -0.6440
17341SOL    HW155300  11.046   5.263   2.287 -0.5310 -0.7224 -0.1418
17341SOL    HW255301  11.011   5.338   2.414  0.7791 -1.7671  0.8658
17342SOL     OW55302   3.195   2.977   5.987 -0.0188 -0.4885  0.0050
17342SOL    HW155303   3.224   2.911   5.924  0.0951 -0.5104  0.0783
17342SOL    HW255304   3.214   2.938   6.072 -3.0973 -1.8504  0.2006
17343SOL     OW55305   2.731  10.181   7.433  0.2945 -0.4395 -0.0791
17343SOL    HW155306   2.804  10.234   7.465 -0.8198  0.4633  1.1209
17343SOL    HW255307   2.753  10.161   7.342 -0.2403  4.1535 -1.4646
17344SOL     OW55308   5.899   0.303   4.502 -0.5127  0.4078  0.4780
17344SOL    HW155309   5.830   0.268   4.559 -0.8720 -0.9465 -0.7351
17344SOL    HW255310   5.976   0.250   4.523 -1.2037 -1.6444 -1.7720
17345SOL     OW55311   6.370  11.109   8.399  0.0277  0.5824 -0.6069
17345SOL    HW155312   6.412  11.184   8.442  1.5165 -1.0177  0.8825
17345SOL    HW255313   6.423  11.094   8.320  0.5524  0.2912 -0.2034
17346SOL     OW55314   9.493   9.054  10.749 -0.5525 -0.3427 -0.3900
17346SOL    HW155315   9.487   9.042  10.844 -0.2336  1.6214 -0.0799
17346SOL    HW255316   9.494   9.149  10.737  3.2253 -0.4406 -2.1119
17347SOL     OW55317   2.892   9.593   1.890 -0.0403  0.2708  0.1207
17347SOL    HW155318   2.968   9.537   1.876 -1.1626 -0.6747 -3.1919
17347SOL    HW255319   2.817   9.535   1.877 -1.3359  1.6153  1.2316
17348SOL     OW55320   2.695   3.127   3.745  0.1193  0.2533 -0.4032
17348SOL    HW155321   2.619   3.172   3.781 -0.2058  0.1114 -0.8958
17348SOL    HW255322   2.687   3.037   3.777 -1.0832 -0.3091 -2.1323
17349SOL     OW55323   7.721   8.849  11.396 -0.2437 -0.0194  0.1853
17349SOL    HW155324   7.700   8.764  11.358  0.1489 -1.6867  3.4120
17349SOL    HW255325   7.816   8.854  11.392 -0.1935 -0.2664  1.0513
17350SOL     OW55326   3.138  11.216   9.294 -0.0304 -0.0338 -0.2650
17350SOL    HW155327   3.203  11.220   9.363 -0.9268  0.3862  0.5831
17350SOL    HW255328   3.064  11.268   9.327 -1.9913 -2.8313  0.1481
17351SOL     OW55329   2.447   3.961   4.916 -0.2472 -0.2002 -0.0149
17351SOL    HW155330   2.460   3.867   4.927 -0.1341 -0.1253  0.5157
17351SOL    HW255331   2.534   3.998   4.922 -0.4212  0.0718  1.2327
17352SOL     OW55332  10.523   4.907  11.016  0.2550  0.2361  0.0266
17352SOL    HW155333  10.464   4.925  10.942 -0.6672 -2.8568 -0.1049
17352SOL    HW255334  10.469   4.861  11.080  2.3490 -2.3367  0.0931
17353SOL     OW55335  10.428   2.105   8.080  1.2420 -0.2566  0.2805
17353SOL    HW155336  10.510   2.107   8.029  1.4472  0.1556  0.6194
17353SOL    HW255337  10.431   2.184   8.133  0.4039 -0.0081 -0.0327
17354SOL     OW55338  10.726  11.305   8.633  0.5718  0.5712  0.3209
17354SOL    HW155339  10.821  11.309   8.621  0.9060  0.7753  2.5911
17354SOL    HW255340  10.711  11.345   8.718 -1.3258 -1.3950  1.0031
17355SOL     OW55341   5.562  11.023   9.624 -0.0603  0.1671 -0.2060
17355SOL    HW155342   5.577  11.089   9.690  1.0374 -0.8542  0.6121
17355SOL    HW255343   5.479  10.983   9.647 -1.5047  2.1899 -1.5693
17356SOL     OW55344   1.645   7.332   6.670 -0.7177  0.5069  0.0802
17356SOL    HW155345   1.675   7.413   6.712 -0.8889 -0.3299  1.9184
17356SOL    HW255346   1.717   7.270   6.682 -1.5520 -0.3279  0.9120
17357SOL     OW55347   5.456   2.381   2.124 -0.2634 -0.1789 -0.0257
17357SOL    HW155348   5.461   2.475   2.142  1.9423 -0.4781  1.2355
17357SOL    HW255349   5.439   2.376   2.030  0.3937  1.4865 -0.2685
17358SOL     OW55350   4.538   9.078   4.241 -0.9669  0.3303  0.1412
17358SOL    HW155351   4.602   9.010   4.263 -0.2697  1.5992  2.3001
17358SOL    HW255352   4.512   9.115   4.325 -1.5633  2.5246 -0.9319
17359SOL     OW55353   2.503   9.643   4.366  0.3374  0.0943  0.2509
17359SOL    HW155354   2.593   9.621   4.392  0.4488  0.0922 -0.1383
17359SOL    HW255355   2.450   9.575   4.408  0.7717 -1.6103 -1.7748
17360SOL     OW55356   3.848   2.228  11.096 -0.6815  0.0461  0.4999
17360SOL    HW155357   3.848   2.219  11.191  0.9826  0.7998  0.6001
17360SOL    HW255358   3.775   2.287  11.078  1.1700  2.9479  1.7156
17361SOL     OW55359   8.258   1.741  10.056  0.1258  0.8119 -0.4201
17361SOL    HW155360   8.326   1.805  10.036  1.7458 -0.4890  0.6974
17361SOL    HW255361   8.305   1.661  10.079 -1.7877 -0.2547  0.0421
17362SOL     OW55362   0.039   1.925   2.900  0.3647 -0.2413  0.4163
17362SOL    HW155363   0.112   1.987   2.910 -0.1444  0.4096  0.2013
17362SOL    HW255364  -0.034   1.968   2.943 -0.1780 -0.3688 -0.3639
17363SOL     OW55365   5.875   5.675   5.722  0.1463 -0.1983 -0.0072
17363SOL    HW155366   5.946   5.611   5.732  0.0882 -0.2215  0.2669
17363SOL    HW255367   5.833   5.652   5.639  2.1684  1.5145 -1.6021
17364SOL     OW55368   2.380   6.400  11.286 -0.0505  0.0049 -0.4927
17364SOL    HW155369   2.315   6.469  11.277 -1.0820 -0.9892 -0.8688
17364SOL    HW255370   2.420   6.415  11.371 -0.4760  0.8805 -0.4437
17365SOL     OW55371   6.023  10.012   5.619  0.2618  0.2519 -1.0096
17365SOL    HW155372   5.929  10.031   5.620  0.1329 -0.3784 -0.6870
17365SOL    HW255373   6.028   9.917   5.608  0.8742  0.3530 -1.7298
17366SOL     OW55374   3.774   2.280   7.921  0.0307 -0.2803 -0.2656
17366SOL    HW155375   3.801   2.310   7.834 -1.3029  1.0109 -0.2757
17366SOL    HW255376   3.827   2.332   7.981 -1.0778  0.9491 -0.3062
17367SOL     OW55377   2.002   3.787   7.490 -0.5290 -0.0472 -0.0138
17367SOL    HW155378   1.963   3.833   7.416 -2.4350  0.6267  1.3292
17367SOL    HW255379   1.946   3.710   7.503  0.3151 -0.6422  0.1932
17368SOL     OW55380   7.339   7.969   7.870 -0.2534  0.0453  0.1013
17368SOL    HW155381   7.424   7.979   7.912 -0.2943 -0.5737  0.3436
17368SOL    HW255382   7.360   7.953   7.778  0.0983 -3.3261  0.6332
17369SOL     OW55383   8.244   5.577   6.112  0.0014 -0.5529  0.3132
17369SOL    HW155384   8.175   5.581   6.177  1.6496 -0.4640  2.1315
17369SOL    HW255385   8.227   5.496   6.064 -0.9387 -0.8926  1.1962
17370SOL     OW55386   2.423   8.752   5.307  0.4539 -0.4467  0.3617
17370SOL    HW155387   2.402   8.743   5.214 -1.1640 -2.1763  0.8244
17370SOL    HW255388   2.490   8.820   5.310 -2.0865  2.3936 -1.7015
17371SOL     OW55389   5.211   0.756   3.576 -0.6767  0.1158 -0.4239
17371SOL    HW155390   5.155   0.731   3.650  0.6279 -1.4040  0.1172
17371SOL    HW255391   5.258   0.676   3.554  1.9218  1.5057 -0.2864
17372SOL     OW55392   6.757   8.172  10.851  0.4964 -0.4178  0.3376
17372SOL    HW155393   6.803   8.104  10.901  2.5942  0.2540 -0.5713
17372SOL    HW255394   6.684   8.126  10.810 -1.2269 -1.0554  3.7719
17373SOL     OW55395  10.171   6.467   8.014  0.3362 -0.0021 -0.3857
17373SOL    HW155396  10.178   6.559   7.988 -1.1206  0.4080  0.5640
17373SOL    HW255397  10.165   6.419   7.931  3.8289  0.3993 -1.0361
17374SOL     OW55398   0.529   4.354   9.490  0.4257 -0.5201  0.1808
17374SOL    HW155399   0.446   4.307   9.498 -0.1429  0.5485  0.8222
17374SOL    HW255400   0.566   4.352   9.578  0.6993 -0.3096  0.0736
17375SOL     OW55401   1.019   5.651   8.866 -0.3350  0.0834  0.2148
17375SOL    HW155402   1.035   5.617   8.778 -0.2598 -0.4378  0.4273
17375SOL    HW255403   0.947   5.714   8.854  0.4277  0.8804 -0.3994
17376SOL     OW55404   5.111   7.116  11.005 -0.0825 -0.0097 -0.0300
17376SOL    HW155405   5.193   7.142  11.046  0.8564 -1.6838 -0.7412
17376SOL    HW255406   5.131   7.109  10.912 -0.9818 -0.6092 -0.1955
17377SOL     OW55407   7.478   1.287   7.331  0.7975  0.0198 -0.3539
17377SOL    HW155408   7.564   1.272   7.291  0.1699 -1.4014 -1.2480
17377SOL    HW255409   7.465   1.211   7.388 -1.2535 -1.5565 -2.7657
17378SOL     OW55410   8.357   0.707   9.057 -0.1052  0.3351 -0.1383
17378SOL    HW155411   8.331   0.639   8.995  1.4193  1.3144 -1.9524
17378SOL    HW255412   8.288   0.773   9.050  0.4050  0.7606 -1.3508
17379SOL     OW55413   5.410   7.267  10.649  0.5148 -0.7245  0.3249
17379SOL    HW155414   5.318   7.241  10.645  1.0186 -2.6182 -0.0524
17379SOL    HW255415   5.457   7.186  10.667  2.4320 -0.5743 -3.1393
17380SOL     OW55416   9.869   7.303   8.565  0.5201 -0.2979 -0.4067
17380SOL    HW155417   9.921   7.283   8.643 -0.5148  1.3108  0.7826
17380SOL    HW255418   9.805   7.232   8.559  0.8430 -0.6256  0.0231
17381SOL     OW55419   9.310  10.303   2.752  0.1164  0.5824  0.3284
17381SOL    HW155420   9.231  10.328   2.704 -0.0897  2.5316  1.5556
17381SOL    HW255421   9.381  10.352   2.710  0.0219  1.8572  1.5931
17382SOL     OW55422   0.030   4.727   7.357 -0.0924  0.7619 -0.1907
17382SOL    HW155423  -0.061   4.701   7.347 -0.3340  1.5240 -0.0181
17382SOL    HW255424   0.039   4.804   7.301  0.9448 -0.3958 -1.7073
17383SOL     OW55425   5.951   4.612   2.786 -0.1389  0.6000  0.9032
17383SOL    HW155426   6.030   4.665   2.793  1.4787 -1.7904  2.0918
17383SOL    HW255427   5.954   4.576   2.698 -0.2079  0.9576  0.7544
17384SOL     OW55428   7.653   5.120   2.998 -0.0539 -0.5043 -0.0241
17384SOL    HW155429   7.604   5.122   3.080  1.0953 -0.9379  0.7076
17384SOL    HW255430   7.654   5.027   2.973 -1.0558 -0.2872 -0.9697
17385SOL     OW55431   2.583   1.533   7.731  0.1607  0.0436  0.1941
17385SOL    HW155432   2.587   1.446   7.771  0.7175  0.1486  0.3828
17385SOL    HW255433   2.672   1.567   7.739  0.1951  0.2291 -0.7885
17386SOL     OW55434   4.982   7.151   6.671 -0.0220 -0.5587 -0.3047
17386SOL    HW155435   5.041   7.132   6.598 -0.7337  0.0080 -1.0455
17386SOL    HW255436   4.955   7.242   6.657 -0.2522 -0.4761  0.6107
17387SOL     OW55437  10.396   6.208   4.388  0.2467  0.0137 -0.5131
17387SOL    HW155438  10.385   6.114   4.376 -1.3280 -0.3168  2.6062
17387SOL    HW255439  10.435   6.217   4.475  2.9864  2.2300 -1.8029
17388SOL     OW55440   5.235  10.515   4.833  0.3961  0.1565 -0.2967
17388SOL    HW155441   5.276  10.516   4.920  1.0378  0.0504 -0.5936
17388SOL    HW255442   5.243  10.424   4.804 -0.0208  0.1440 -0.3692
17389SOL     OW55443   9.979  10.028   5.044 -0.1928 -0.8526 -0.4276
17389SOL    HW155444   9.912   9.963   5.067  0.3144 -1.0961  0.3849
17389SOL    HW255445   9.957  10.053   4.954 -0.6936 -1.7800 -0.5784
17390SOL     OW55446   0.859   9.665   0.287 -0.3467  0.5786 -0.5557
17390SOL    HW155447   0.775   9.636   0.321  0.6584 -1.4083  0.3450
17390SOL    HW255448   0.866   9.622   0.202  0.3282 -0.3702 -0.0347
17391SOL     OW55449  10.991   3.696   1.580 -0.1372  0.4503  0.8222
17391SOL    HW155450  10.946   3.745   1.648  1.2672  0.2135  1.9842
17391SOL    HW255451  11.084   3.719   1.591  0.1108  0.6181 -1.2090
17392SOL     OW55452   1.328  10.606   7.986  0.0432  0.0288 -0.7253
17392SOL    HW155453   1.360  10.516   7.998  0.5329  0.1395 -1.1919
17392SOL    HW255454   1.246  10.608   8.036  1.0245 -0.0870  0.9738
17393SOL     OW55455   0.988   8.241   4.344 -0.3445 -0.5349 -0.2178
17393SOL    HW155456   1.009   8.219   4.253  3.3606  1.1614  0.0405
17393SOL    HW255457   0.904   8.286   4.340 -0.2841 -0.5228 -2.7680
17394SOL     OW55458   0.109   5.604   5.151  0.5734  0.3674  0.1267
17394SOL    HW155459   0.036   5.543   5.140  1.9304 -1.5379  1.0588
17394SOL    HW255460   0.132   5.630   5.062  0.6501 -1.4046 -0.4212
17395SOL     OW55461   0.200   8.145  11.098 -0.1309 -0.1550  0.5555
17395SOL    HW155462   0.166   8.217  11.151 -0.3446 -0.6797  1.1315
17395SOL    HW255463   0.144   8.145  11.020 -0.0607  0.3665  0.4972
17396SOL     OW55464   0.173   0.459   0.552 -0.9346 -0.5935  0.5596
17396SOL    HW155465   0.224   0.395   0.503  1.4199  1.0741  0.6665
17396SOL    HW255466   0.146   0.413   0.632 -0.3857 -1.7894  0.0680
17397SOL     OW55467  10.824   7.961  10.624  0.0064  0.0350 -0.1927
17397SOL    HW155468  10.733   7.936  10.639  0.4591 -1.9217 -0.3872
17397SOL    HW255469  10.833   8.045  10.669 -1.8583  0.2364 -0.0975
17398SOL     OW55470   6.461   5.644   4.451 -0.8183  0.2767  0.5840
17398SOL    HW155471   6.454   5.725   4.501  0.3041  0.5269  0.3711
17398SOL    HW255472   6.511   5.585   4.508  0.6010  0.6134 -0.2552
17399SOL     OW55473   0.789   0.498   7.579 -0.1033 -0.6139  0.4979
17399SOL    HW155474   0.842   0.528   7.505 -0.7678  1.5656  0.8446
17399SOL    HW255475   0.852   0.486   7.651  0.0883  0.9839  0.6262
17400SOL     OW55476   3.268   0.423  10.491 -0.2427 -0.1500  0.2707
17400SOL    HW155477   3.231   0.395  10.575 -0.3425  0.6536  0.5052
17400SOL    HW255478   3.362   0.406  10.499 -0.4163 -1.2632  0.0537
17401SOL     OW55479   5.194   5.532  10.717 -0.1052  0.0283  0.0922
17401SOL    HW155480   5.130   5.602  10.703  0.3557  0.0598 -2.4339
17401SOL    HW255481   5.207   5.530  10.812 -1.7955  1.8426  0.4430
17402SOL     OW55482   1.048   7.037   4.159 -0.1876 -0.0497 -0.2178
17402SOL    HW155483   1.042   6.994   4.074 -0.7707  0.8206 -0.6264
17402SOL    HW255484   1.049   7.130   4.139  2.0143  0.1676  0.5981
17403SOL     OW55485   0.671   0.188   5.237  0.0564 -0.6026  0.1160
17403SOL    HW155486   0.753   0.141   5.253  0.1351  0.2625  2.6875
17403SOL    HW255487   0.698   0.276   5.211  0.0341  0.0956  2.2783
17404SOL     OW55488   9.931   4.485   6.209  0.3055 -0.1966  0.2430
17404SOL    HW155489   9.985   4.550   6.253 -2.5430  1.5878  1.3852
17404SOL    HW255490   9.985   4.452   6.138  1.8779  3.5896 -0.5410
17405SOL     OW55491  11.399   3.915   0.327  0.3326 -0.4584  0.2700
17405SOL    HW155492  11.402   3.819   0.335  0.6246 -0.3945  1.1347
17405SOL    HW255493  11.333   3.932   0.261  0.1225 -1.2567  0.2615
17406SOL     OW55494   0.405  10.494   7.752  0.6476 -0.4511  0.7597
17406SOL    HW155495   0.442  10.517   7.667 -0.7477  1.1740  0.5242
17406SOL    HW255496   0.361  10.410   7.738 -0.3715  0.2530 -0.4025
17407SOL     OW55497   4.048   4.115  11.315 -0.0887  0.2396  0.4468
17407SOL    HW155498   4.011   4.108  11.403 -1.5815  3.3929  0.2093
17407SOL    HW255499   4.041   4.208  11.294  1.4863 -0.2076 -2.5103
17408SOL     OW55500   2.968   9.164   1.700  0.2489 -0.1187  0.0825
17408SOL    HW155501   3.054   9.125   1.709 -0.2723 -1.8207 -1.5309
17408SOL    HW255502   2.915   9.123   1.769  0.6054  0.6705  0.8503
17409SOL     OW55503   3.179   4.988   2.221  0.2544 -0.1832  0.6648
17409SOL    HW155504   3.220   4.944   2.295  1.7364 -1.9361 -1.0822
17409SOL    HW255505   3.191   5.082   2.238  1.0623 -0.5659  2.3293
17410SOL     OW55506   5.898   4.936  10.337  0.2647 -0.2114  0.0307
17410SOL    HW155507   5.965   4.871  10.313  0.1593 -0.3271  0.0501
17410SOL    HW255508   5.815   4.892  10.320  0.1871 -0.3016  0.6142
17411SOL     OW55509   1.252   6.864   0.770  0.0037  0.1009  0.0091
17411SOL    HW155510   1.285   6.845   0.682 -0.6013 -0.7547 -0.0425
17411SOL    HW255511   1.246   6.778   0.812 -1.3700  0.3162  0.2868
17412SOL     OW55512   7.368   3.801   4.934  0.5174  0.5575 -0.1639
17412SOL    HW155513   7.317   3.879   4.952  0.6435  0.2097  1.8670
17412SOL    HW255514   7.398   3.812   4.843 -0.8521  2.0411 -0.4729
17413SOL     OW55515   7.707   3.342   7.495  0.2811  0.2885 -0.3799
17413SOL    HW155516   7.734   3.329   7.586 -1.2379  1.9967  0.3823
17413SOL    HW255517   7.634   3.404   7.501 -1.3191 -1.2325 -2.5856
17414SOL     OW55518   1.931   5.935  11.040 -0.1901 -0.1950  0.4833
17414SOL    HW155519   1.955   5.913  11.130 -2.0353  0.3080  1.1528
17414SOL    HW255520   1.997   5.891  10.986  2.0734  1.0122  2.0984
17415SOL     OW55521   8.819   9.065   1.889 -0.0317 -0.0948 -0.2809
17415SOL    HW155522   8.905   9.051   1.929 -0.4173 -1.9678 -0.0466
17415SOL    HW255523   8.824   9.154   1.854  2.0796 -0.2269 -0.4550
17416SOL     OW55524   6.851   9.192   8.912 -0.3873  0.3446 -0.1108
17416SOL    HW155525   6.805   9.133   8.852 -1.9454  0.9357  0.4309
17416SOL    HW255526   6.906   9.246   8.856 -0.2708 -0.4419 -0.7819
17417SOL     OW55527   1.663   6.500   7.891  0.0640 -0.1955 -0.0289
17417SOL    HW155528   1.667   6.419   7.840  0.5471  0.1493 -0.5471
17417SOL    HW255529   1.599   6.554   7.845 -0.7680 -0.5331  0.7005
17418SOL     OW55530   3.922   8.985   0.307  0.8703  0.0639 -0.1010
17418SOL    HW155531   3.898   8.973   0.215  0.0691 -0.4389  0.1632
17418SOL    HW255532   3.986   9.056   0.306  0.4585  0.4382 -0.9912
17419SOL     OW55533   6.290   4.289   5.619  0.5518  0.1874 -0.6748
17419SOL    HW155534   6.270   4.361   5.680 -2.0264 -0.8796 -0.1223
17419SOL    HW255535   6.380   4.265   5.640  0.1060  0.5312  2.0838
17420SOL     OW55536   4.532   1.566   3.582 -0.2959 -0.2501  0.2242
17420SOL    HW155537   4.492   1.559   3.496 -0.2904  2.2504 -0.0418
17420SOL    HW255538   4.578   1.483   3.594 -1.1167 -1.0438 -1.7308
17421SOL     OW55539   3.595   5.103   0.406  0.4071  0.4219 -0.8512
17421SOL    HW155540   3.607   5.195   0.430  1.2463  0.5630 -1.7362
17421SOL    HW255541   3.512   5.101   0.359 -0.4683  0.4117  0.6599
17422SOL     OW55542   1.557   0.931   5.298 -0.4882 -0.0425 -0.2000
17422SOL    HW155543   1.597   0.993   5.360  0.8226 -1.4530  0.4088
17422SOL    HW255544   1.501   0.876   5.353 -0.0845 -0.6732 -0.4153
17423SOL     OW55545   8.460   2.845  10.969  0.2466 -0.1255 -0.3794
17423SOL    HW155546   8.419   2.770  10.926  0.8971 -0.4505 -0.4522
17423SOL    HW255547   8.528   2.807  11.025 -0.2307  0.3288  0.5379
17424SOL     OW55548   4.481   0.457   0.921 -0.4967 -0.0427  0.4074
17424SOL    HW155549   4.397   0.426   0.888 -0.4209 -0.0752  0.2442
17424SOL    HW255550   4.493   0.542   0.878  0.3635 -0.8028 -0.9303
17425SOL     OW55551   7.995  10.565   3.284  0.3822  0.3007 -0.3646
17425SOL    HW155552   8.019  10.606   3.201 -0.1522  1.3789 -0.0049
17425SOL    HW255553   7.924  10.505   3.262  1.2579 -0.5728 -0.9153
17426SOL     OW55554   6.289   0.817   6.752 -0.2039 -0.2073  0.5592
17426SOL    HW155555   6.297   0.841   6.660 -3.3814  0.2890  0.2907
17426SOL    HW255556   6.328   0.890   6.800  2.3205 -0.8907 -0.3121
17427SOL     OW55557   5.661   4.118   9.652 -0.5462  0.3595  0.8190
17427SOL    HW155558   5.739   4.171   9.665 -0.3473  0.0067  1.1098
17427SOL    HW255559   5.601   4.146   9.722  0.0360 -0.6496  1.7571
17428SOL     OW55560   5.405   8.539   8.603 -0.4051  0.3400  0.0368
17428SOL    HW155561   5.397   8.544   8.508  1.5986  0.9584 -0.1462
17428SOL    HW255562   5.382   8.449   8.625 -0.8779  0.1933 -1.0300
17429SOL     OW55563  10.872   6.260   1.570  0.1796 -0.3156  0.2811
17429SOL    HW155564  10.844   6.348   1.595  0.1826 -0.0988 -0.4395
17429SOL    HW255565  10.841   6.203   1.640 -0.1324  0.2172  0.5775
17430SOL     OW55566   9.740   3.019   6.476 -0.1590  0.2873 -0.3289
17430SOL    HW155567   9.787   3.101   6.466  0.3636 -0.0156 -0.4075
17430SOL    HW255568   9.808   2.956   6.502 -0.7181  0.0901  0.6654
17431SOL     OW55569   2.059   3.080   5.158  0.3837 -0.5090  0.4137
17431SOL    HW155570   2.049   2.990   5.188 -1.0046  0.2321  2.3672
17431SOL    HW255571   2.151   3.101   5.177  0.3945 -1.1336  1.1064
17432SOL     OW55572   4.731   4.262   5.592 -0.0060  0.1819 -0.6285
17432SOL    HW155573   4.758   4.310   5.514  1.1232  0.8531  0.1645
17432SOL    HW255574   4.710   4.329   5.657  1.5814 -0.3532  0.4958
17433SOL     OW55575   4.731   3.067   6.804  0.0487 -0.0981  0.6903
17433SOL    HW155576   4.782   3.081   6.724 -0.0015 -0.7351  0.5393
17433SOL    HW255577   4.645   3.039   6.773  0.1612 -0.7585  0.9706
17434SOL     OW55578   3.346   5.359   8.268  0.3892 -0.3752  0.1888
17434SOL    HW155579   3.317   5.307   8.194  1.9787 -0.7863 -0.1645
17434SOL    HW255580   3.271   5.358   8.329 -1.3184  0.7646 -1.7485
17435SOL     OW55581   0.025   7.184   5.491  0.4670  0.3793  0.1133
17435SOL    HW155582   0.072   7.104   5.465  0.1923 -0.9076  3.1941
17435SOL    HW255583   0.093   7.251   5.499  0.5496  1.0317 -3.8781
17436SOL     OW55584   4.462   1.805   8.664  0.2914 -0.3137  0.5446
17436SOL    HW155585   4.529   1.816   8.732  0.3954 -0.6369  0.4957
17436SOL    HW255586   4.476   1.716   8.631 -0.4310 -0.5366  0.8264
17437SOL     OW55587   7.192   7.881  10.397 -0.3667  0.1451  0.3398
17437SOL    HW155588   7.279   7.920  10.388  0.0558 -0.7419  0.5198
17437SOL    HW255589   7.208   7.787  10.407 -1.3295  0.0078  0.7138
17438SOL     OW55590   3.831  10.897   1.737 -0.8707  0.1662  0.5693
17438SOL    HW155591   3.857  10.835   1.805  0.0247  0.3619  0.4140
17438SOL    HW255592   3.903  10.959   1.732 -0.3820 -0.4763 -1.3399
17439SOL     OW55593   2.180  11.138  10.368  0.6868  0.0579  0.5706
17439SOL    HW155594   2.172  11.045  10.388  1.0427  0.0495  0.6775
17439SOL    HW255595   2.265  11.163  10.403  0.7942  0.3181  0.1233
17440SOL     OW55596  10.305   1.020   9.831  0.7726  0.1468 -0.1518
17440SOL    HW155597  10.300   1.066   9.747 -0.7632 -0.1852 -0.2618
17440SOL    HW255598  10.298   1.089   9.897 -0.8454  0.1690 -0.3157
17441SOL     OW55599   2.800   3.056  10.654 -0.2324 -0.3300 -0.0068
17441SOL    HW155600   2.816   3.076  10.746  2.5032 -1.3737 -0.1584
17441SOL    HW255601   2.846   3.125  10.606  0.3728 -1.0963 -0.5517
17442SOL     OW55602  10.701   3.852   6.865 -0.5122  0.2647  0.2146
17442SOL    HW155603  10.795   3.865   6.850 -0.2607  0.4015  1.7802
17442SOL    HW255604  10.668   3.820   6.781  0.9134  0.3094 -0.3921
17443SOL     OW55605   8.276   7.194   5.648 -0.3474 -0.3411  0.2344
17443SOL    HW155606   8.191   7.212   5.688 -0.0361  1.8019  0.0450
17443SOL    HW255607   8.256   7.133   5.577 -1.9469  1.0121 -0.5605
17444SOL     OW55608   2.272   4.022   9.016  0.3176  0.1658 -0.3569
17444SOL    HW155609   2.222   4.089   9.062  3.2036  0.6954  2.3777
17444SOL    HW255610   2.337   4.071   8.965  2.8354 -0.3754  2.1205
17445SOL     OW55611   0.703   4.456   9.307 -0.0758  0.2289 -0.3267
17445SOL    HW155612   0.694   4.544   9.346 -0.5227  0.4537 -0.9247
17445SOL    HW255613   0.644   4.402   9.359 -0.6051  0.5109 -0.6203
17446SOL     OW55614   8.638  10.381   2.335 -0.5240 -0.2472 -0.3696
17446SOL    HW155615   8.557  10.431   2.338 -1.2136 -1.0718 -2.9800
17446SOL    HW255616   8.611  10.290   2.349  0.4189 -0.2473  1.9443
17447SOL     OW55617   6.989   0.402   0.430  0.0441 -0.4185  0.0476
17447SOL    HW155618   6.895   0.385   0.426  0.1937 -1.1108 -1.2496
17447SOL    HW255619   7.011   0.400   0.523 -1.4586  1.1538  0.4741
17448SOL     OW55620   0.718   6.734   7.445  0.1436 -0.5173  0.0577
17448SOL    HW155621   0.634   6.776   7.428 -0.1628 -1.2992 -0.4345
17448SOL    HW255622   0.713   6.650   7.398  2.0697  0.3805 -1.9372
17449SOL     OW55623   3.991   4.765   0.443  0.0962  0.0703  0.4666
17449SOL    HW155624   3.922   4.832   0.441  1.1396  1.1664 -0.4160
17449SOL    HW255625   3.994   4.737   0.535 -0.0159  1.6432  0.9840
17450SOL     OW55626   0.970   6.359   6.244 -0.8437  0.0352 -0.4003
17450SOL    HW155627   0.997   6.279   6.289  1.8747 -1.0105 -3.4467
17450SOL    HW255628   0.978   6.337   6.151 -1.4893  3.4145 -1.3703
17451SOL     OW55629   6.262  11.055   3.806  0.0550 -0.6706  0.2382
17451SOL    HW155630   6.269  11.042   3.900 -0.3318 -0.3641  0.3101
17451SOL    HW255631   6.277  11.149   3.793 -0.3595 -0.6298  0.0416
17452SOL     OW55632   6.157   4.595   3.070 -0.1440 -0.5215  0.1848
17452SOL    HW155633   6.069   4.633   3.075 -0.6275 -1.4298 -1.0173
17452SOL    HW255634   6.172   4.559   3.157 -0.1151  1.3923  1.0393
17453SOL     OW55635   7.359  11.232   6.797 -0.1882  0.4416 -0.2394
17453SOL    HW155636   7.308  11.186   6.730  0.2379  1.6827 -1.4493
17453SOL    HW255637   7.328  11.194   6.880 -0.4319 -1.4212 -1.1232
17454SOL     OW55638   0.914   4.140   5.108  0.6018  0.5096 -0.3281
17454SOL    HW155639   0.916   4.209   5.174  0.9986  2.3044 -2.1466
17454SOL    HW255640   0.990   4.156   5.053  0.0672 -0.6948 -1.4800
17455SOL     OW55641   4.723   0.068   1.331  0.5293  0.3945 -0.3948
17455SOL    HW155642   4.733   0.161   1.312  1.4703  0.3513 -0.1626
17455SOL    HW255643   4.727   0.062   1.426  2.2484 -0.0571 -0.4758
17456SOL     OW55644   4.547   3.040   5.236 -0.4084 -0.3609  0.2440
17456SOL    HW155645   4.545   3.132   5.260 -1.2021 -0.1892 -0.4565
17456SOL    HW255646   4.610   3.035   5.164  0.2330 -0.5038  0.8040
17457SOL     OW55647   0.865   1.706   8.797 -0.0332 -0.0490 -0.7852
17457SOL    HW155648   0.851   1.706   8.891  1.0034 -0.2245 -0.6227
17457SOL    HW255649   0.881   1.798   8.775  1.9949 -0.2637 -0.4104
17458SOL     OW55650   9.712   4.844   1.134 -0.0110  0.1964 -0.1921
17458SOL    HW155651   9.738   4.757   1.163 -0.5788  0.6390  1.7637
17458SOL    HW255652   9.675   4.829   1.046  1.1889 -1.2895 -0.4975
17459SOL     OW55653   4.063   0.350   9.434 -0.4046  0.0606 -0.1599
17459SOL    HW155654   4.005   0.375   9.362  0.8207  0.7538 -0.9462
17459SOL    HW255655   4.011   0.364   9.513 -1.5345 -0.0163 -0.8698
17460SOL     OW55656   4.501   9.524   6.632  0.2012  0.3396  0.3918
17460SOL    HW155657   4.504   9.447   6.690 -0.4196 -0.1207 -0.1691
17460SOL    HW255658   4.470   9.595   6.689 -2.5516 -0.5737  0.2234
17461SOL     OW55659   2.643   1.630   0.195 -0.3888 -0.6841 -0.7572
17461SOL    HW155660   2.630   1.538   0.216 -0.6286 -0.2686  1.0519
17461SOL    HW255661   2.561   1.673   0.218  0.1892  0.1941 -0.2668
17462SOL     OW55662   0.949   6.773   1.533 -0.6375 -0.2133  0.0717
17462SOL    HW155663   0.884   6.820   1.586  0.4639  1.9537 -0.3784
17462SOL    HW255664   1.010   6.737   1.598 -0.9041 -0.0890  0.3976
17463SOL     OW55665   0.241   7.918   3.980 -0.0494  0.5265  0.3855
17463SOL    HW155666   0.279   7.840   4.021 -1.1563 -0.5326 -0.5208
17463SOL    HW255667   0.317   7.971   3.955  0.7875 -0.7295  0.1553
17464SOL     OW55668  10.061   4.979   9.721 -0.2738 -0.6144  0.3588
17464SOL    HW155669  10.102   4.953   9.803  0.8394 -0.5717 -0.1562
17464SOL    HW255670   9.970   4.998   9.743  0.5707  1.8679  2.0797
17465SOL     OW55671  10.913   9.539  10.557  0.1405  0.4106 -0.0505
17465SOL    HW155672  10.942   9.523  10.468  1.1731  1.7951 -0.0054
17465SOL    HW255673  10.865   9.622  10.551  0.5365  0.7013  0.7363
17466SOL     OW55674   5.150   3.571   9.590  0.3804  0.2266 -0.1167
17466SOL    HW155675   5.232   3.613   9.617  0.5084  0.5332 -0.9519
17466SOL    HW255676   5.132   3.507   9.658  1.6380 -0.2629 -0.2208
17467SOL     OW55677   7.051   8.013   7.070  0.4466 -0.1010  0.6683
17467SOL    HW155678   7.081   7.932   7.112  0.2007 -0.5808 -0.0647
17467SOL    HW255679   7.015   8.065   7.141  1.7572 -0.0916  1.3610
17468SOL     OW55680   9.314   9.136   2.602  0.1141 -0.0614  0.2151
17468SOL    HW155681   9.223   9.131   2.572 -0.2055  1.7869  0.7401
17468SOL    HW255682   9.319   9.073   2.674 -0.5717 -0.6374 -0.2330
17469SOL     OW55683   1.464  10.411   5.121  0.2359 -0.3788  0.8299
17469SOL    HW155684   1.414  10.475   5.071  0.1433 -2.1800 -1.5652
17469SOL    HW255685   1.556  10.432   5.103  0.2360 -0.1518  1.0916
17470SOL     OW55686   4.519   4.922   6.097 -0.7607  0.4427 -0.2514
17470SOL    HW155687   4.477   5.008   6.094 -1.2642  0.3083  1.5461
17470SOL    HW255688   4.611   4.940   6.116 -0.8932  0.6075  0.2631
17471SOL     OW55689   0.279   8.093   1.766 -0.0749 -0.0234  0.2591
17471SOL    HW155690   0.329   8.024   1.810  0.0929 -1.1317 -1.5622
17471SOL    HW255691   0.280   8.166   1.828 -1.4234 -2.0481  2.8571
17472SOL     OW55692   8.243   5.518   2.117 -0.0452  0.4879  0.3303
17472SOL    HW155693   8.225   5.561   2.034 -1.5714  1.0506  0.9081
17472SOL    HW255694   8.337   5.499   2.115 -0.0008  0.7370 -1.3817
17473SOL     OW55695   1.283   7.291   4.391  0.3631  0.2999 -0.2578
17473SOL    HW155696   1.369   7.280   4.349  0.7792  0.9860  0.3848
17473SOL    HW255697   1.238   7.355   4.335  0.2357 -0.1301 -0.6481
17474SOL     OW55698   8.568   4.995   9.331 -0.5744  1.1031 -0.4975
17474SOL    HW155699   8.578   4.900   9.319  0.4681  0.8404  1.8623
17474SOL    HW255700   8.475   5.012   9.316 -1.7336 -1.0546  3.0404
17475SOL     OW55701  10.479   1.804   9.305 -0.4237  0.0221  0.5263
17475SOL    HW155702  10.514   1.798   9.216 -0.2236 -0.8400  0.6531
17475SOL    HW255703  10.422   1.882   9.303 -0.5352 -0.0641 -0.3900
17476SOL     OW55704   8.420   3.914   7.660  0.0280 -0.4667  0.3703
17476SOL    HW155705   8.375   3.844   7.613  0.4692 -1.3532  1.2288
17476SOL    HW255706   8.359   3.987   7.659 -0.1049 -0.5699 -1.2814
17477SOL     OW55707   8.645   7.607   5.162 -0.0585  0.3941 -0.2349
17477SOL    HW155708   8.615   7.653   5.241  0.7420  0.1882  0.2038
17477SOL    HW255709   8.604   7.654   5.090 -1.3482  0.1815  0.3317
17478SOL     OW55710   9.990   8.237   2.704 -0.3710  0.3356 -0.8479
17478SOL    HW155711   9.920   8.177   2.678 -1.1791  1.0902 -0.4884
17478SOL    HW255712   9.985   8.241   2.799  2.1725 -1.9340 -0.4988
17479SOL     OW55713   3.558   8.673   9.381 -0.2492 -0.1225 -0.5818
17479SOL    HW155714   3.632   8.615   9.364 -0.8046 -1.3246  0.8639
17479SOL    HW255715   3.591   8.735   9.447  0.2367  1.0433 -1.8706
17480SOL     OW55716   2.033  10.313   3.375  0.8454  0.5469  0.3429
17480SOL    HW155717   2.060  10.354   3.457 -1.6118  0.2490  1.3937
17480SOL    HW255718   2.007  10.387   3.319 -0.6246  0.6453  1.0993
17481SOL     OW55719   1.807  11.310   8.152 -0.1621 -0.2456  0.3122
17481SOL    HW155720   1.772  11.222   8.166  1.2188 -0.7331  0.8623
17481SOL    HW255721   1.900  11.302   8.171 -0.2026  1.5981  1.5023
17482SOL     OW55722   6.141   5.112  10.956  0.3166  0.1003 -0.2387
17482SOL    HW155723   6.209   5.173  10.986 -0.4109  0.9397 -0.2859
17482SOL    HW255724   6.059   5.160  10.966 -0.4848 -1.5370  1.5603
17483SOL     OW55725   9.318   0.884   9.143 -0.3473 -0.0224  0.6969
17483SOL    HW155726   9.256   0.814   9.165 -0.6365  0.3776  1.1743
17483SOL    HW255727   9.314   0.943   9.218  0.1793  0.3110  0.4645
17484SOL     OW55728   3.855  10.978   5.802  0.2797 -0.2374  0.5897
17484SOL    HW155729   3.923  10.966   5.868  0.3927  1.0268  0.7237
17484SOL    HW255730   3.779  11.009   5.852  1.1238  3.3370 -0.0769
17485SOL     OW55731   3.787   7.753   1.389 -0.2132  0.6433  0.0410
17485SOL    HW155732   3.826   7.822   1.335  0.0759 -0.5748 -1.3716
17485SOL    HW255733   3.694   7.754   1.365  0.3206 -1.6286 -2.6046
17486SOL     OW55734   6.971   2.925   0.117  0.0417 -0.1266 -0.5937
17486SOL    HW155735   7.013   2.954   0.198  0.6673  1.3408 -1.4103
17486SOL    HW255736   6.885   2.967   0.118  0.8528  1.6564 -1.6574
17487SOL     OW55737   4.887   1.723   0.948  0.4040 -0.5417 -0.0590
17487SOL    HW155738   4.844   1.786   1.006  1.5937  0.6040 -0.3927
17487SOL    HW255739   4.852   1.742   0.861  0.8376 -0.2589 -0.1756
17488SOL     OW55740   0.172   6.413   4.373 -0.3156  0.6328  0.4174
17488SOL    HW155741   0.113   6.476   4.415 -0.6813  0.9764 -0.5733
17488SOL    HW255742   0.232   6.386   4.443 -0.0093  2.2476  0.8404
17489SOL     OW55743   4.286   2.579   8.992 -0.2622 -0.3526  0.1522
17489SOL    HW155744   4.243   2.562   8.908 -0.7661 -0.9210  0.5179
17489SOL    HW255745   4.336   2.659   8.978  0.9255 -1.2813 -1.1886
17490SOL     OW55746   2.812  11.282   2.789  0.6197  0.4869 -0.3260
17490SOL    HW155747   2.763  11.211   2.747 -1.7073  1.1884  1.0501
17490SOL    HW255748   2.783  11.361   2.744  0.6642  0.8951  0.3509
17491SOL     OW55749  10.863   0.933   3.775 -0.1782  0.5582  0.1023
17491SOL    HW155750  10.871   1.029   3.772  1.6417  0.4195 -1.3424
17491SOL    HW255751  10.926   0.906   3.843  0.1585  0.3409 -0.2897
17492SOL     OW55752   6.721   6.146   8.273  0.1879 -0.1730 -0.0929
17492SOL    HW155753   6.694   6.106   8.356  1.7137 -1.0679  0.0049
17492SOL    HW255754   6.649   6.127   8.213 -1.3942  1.3133  1.2133
17493SOL     OW55755  11.348   2.716   5.927  0.0331 -0.4853 -0.6781
17493SOL    HW155756  11.337   2.760   6.011 -0.8395 -0.6031 -0.7257
17493SOL    HW255757  11.390   2.632   5.950 -1.3976 -1.0958 -0.1905
17494SOL     OW55758   0.472   2.788   9.395 -0.6928 -0.3538  0.1443
17494SOL    HW155759   0.389   2.835   9.390 -0.4181  0.3971  1.8913
17494SOL    HW255760   0.533   2.843   9.347 -0.2004  1.6410  2.7826
17495SOL     OW55761   6.787   8.066   4.402  0.2194  0.2157  0.3584
17495SOL    HW155762   6.864   8.117   4.430  1.2497 -0.8798 -0.3558
17495SOL    HW255763   6.729   8.066   4.478  1.0424  0.8774  1.0060
17496SOL     OW55764   8.710   3.302   4.307  0.2478 -0.0293  0.3455
17496SOL    HW155765   8.713   3.337   4.396  1.5304 -0.2103  0.3840
17496SOL    HW255766   8.685   3.377   4.253  1.1868  0.5167  0.6506
17497SOL     OW55767  10.169   0.240   7.264  0.0339  0.5507  0.2711
17497SOL    HW155768  10.125   0.316   7.226 -0.5327  0.4900  0.7946
17497SOL    HW255769  10.257   0.242   7.226  0.5053  2.3031  1.3414
17498SOL     OW55770   7.542   3.677   6.747 -0.3972  0.1315 -0.2451
17498SOL    HW155771   7.496   3.707   6.669  0.4607 -0.6469 -1.0846
17498SOL    HW255772   7.517   3.585   6.756 -2.2025  0.7281  1.7041
17499SOL     OW55773  10.461   4.051   2.437  0.2773 -0.4146 -0.4033
17499SOL    HW155774  10.458   4.143   2.463  1.8572 -0.9932  2.1596
17499SOL    HW255775  10.542   4.042   2.387  0.7972 -0.6324  0.4582
17500SOL     OW55776   1.455   7.914   1.990 -0.0151  0.1072  0.3179
17500SOL    HW155777   1.460   7.870   2.075 -0.3904 -1.2817 -0.3462
17500SOL    HW255778   1.523   7.981   1.993  0.4662 -0.4103  1.4386
17501SOL     OW55779   9.620   1.585   9.065  0.1068  0.4112 -0.2292
17501SOL    HW155780   9.628   1.507   9.010 -0.8847  0.1720 -0.0460
17501SOL    HW255781   9.574   1.649   9.011  2.0847  1.3789 -0.8688
17502SOL     OW55782   0.796   1.756   9.955 -0.0681 -0.1877 -0.6003
17502SOL    HW155783   0.787   1.663   9.935 -3.1972 -0.2359  0.4415
17502SOL    HW255784   0.871   1.785   9.902  1.6232 -3.4315 -0.2129
17503SOL     OW55785   6.304  10.426   1.373  0.0839 -0.2663  0.4321
17503SOL    HW155786   6.275  10.355   1.430  1.5559 -1.6819 -0.4962
17503SOL    HW255787   6.296  10.391   1.285  1.8385  0.3038 -0.0054
17504SOL     OW55788   1.285   1.725   2.093 -0.3439 -0.1262  0.1093
17504SOL    HW155789   1.243   1.696   2.174 -0.6074  0.6291  0.2521
17504SOL    HW255790   1.356   1.662   2.079 -0.0082 -0.0091  1.1658
17505SOL     OW55791   3.436   9.044  10.904  0.6241  0.0671 -0.4155
17505SOL    HW155792   3.485   9.121  10.875 -1.0992  0.8464 -1.4517
17505SOL    HW255793   3.348   9.057  10.868 -0.3874 -1.2062  1.4435
17506SOL     OW55794   5.414   7.072   7.216 -0.6113  0.0847  0.1895
17506SOL    HW155795   5.504   7.090   7.245 -0.8047  0.4011  0.5946
17506SOL    HW255796   5.420   6.986   7.173  0.2424  0.9432 -1.4758
17507SOL     OW55797   2.833   3.063  11.176 -0.0496  0.2278 -0.2416
17507SOL    HW155798   2.757   3.068  11.235  0.8342  1.2696  0.8660
17507SOL    HW255799   2.894   3.127  11.211  0.2529  1.4420 -2.7370
17508SOL     OW55800   5.638   7.142   8.673 -0.3969 -0.2761 -0.0488
17508SOL    HW155801   5.613   7.201   8.745  0.0883  0.1069 -0.1871
17508SOL    HW255802   5.580   7.167   8.601  1.5579  1.9510 -1.0067
17509SOL     OW55803   8.163   3.256   7.435  0.0473  0.1835  0.2172
17509SOL    HW155804   8.106   3.183   7.412 -1.3611  1.0655  0.8307
17509SOL    HW255805   8.104   3.329   7.454  1.3904  1.2964  0.3152
17510SOL     OW55806   5.418   6.209  10.375  0.2957  0.0763 -0.0837
17510SOL    HW155807   5.409   6.193  10.469  0.6461  0.6528  0.0501
17510SOL    HW255808   5.328   6.210  10.342  0.2134 -1.0169  0.0915
17511SOL     OW55809   3.654   5.281   3.252  0.0132  0.6058 -0.2771
17511SOL    HW155810   3.607   5.297   3.333 -0.2949  2.3413 -0.7576
17511SOL    HW255811   3.609   5.208   3.212  0.0882 -0.1919  1.0363
17512SOL     OW55812   9.985   0.188  11.029 -0.3637 -0.2678  0.5697
17512SOL    HW155813  10.027   0.102  11.024 -0.8061 -0.4510 -3.8800
17512SOL    HW255814  10.050   0.248  10.991 -0.6734  1.1292  2.1573
17513SOL     OW55815   6.416  10.841   2.129  0.6059 -0.3228 -0.2497
17513SOL    HW155816   6.399  10.925   2.171 -5.3102 -0.1732 -2.1195
17513SOL    HW255817   6.374  10.776   2.186  0.2793 -1.2363 -1.4668
17514SOL     OW55818   6.616   7.366   7.214 -0.1248 -0.0744 -0.0029
17514SOL    HW155819   6.579   7.288   7.258  0.3530  0.0359  0.6080
17514SOL    HW255820   6.601   7.350   7.121 -2.6098  0.4057  0.2344
17515SOL     OW55821   4.931   8.616   6.190 -0.3988 -0.0854  0.4704
17515SOL    HW155822   4.947   8.523   6.174  1.7556  0.0804  1.4120
17515SOL    HW255823   4.840   8.619   6.221 -1.1494 -1.6173 -1.3359
17516SOL     OW55824   3.826   8.537   3.025  0.0521  0.4325  0.0313
17516SOL    HW155825   3.798   8.465   3.080  1.4854 -0.4158 -0.3174
17516SOL    HW255826   3.853   8.605   3.086  0.0891  0.1217  0.3610
17517SOL     OW55827   4.411   3.507   1.469 -0.0507  0.3684  0.1813
17517SOL    HW155828   4.474   3.436   1.476 -0.0976  0.1746 -1.1475
17517SOL    HW255829   4.423   3.541   1.380 -1.5959  0.5213  0.0039
17518SOL     OW55830   0.464   7.081   5.541 -0.0745 -0.4544  0.1808
17518SOL    HW155831   0.466   6.986   5.528  0.4622 -0.3454 -0.5677
17518SOL    HW255832   0.551   7.111   5.516 -0.3569  0.2824  0.0513
17519SOL     OW55833   3.261   3.424  10.387 -0.6329 -0.3122 -0.4046
17519SOL    HW155834   3.254   3.375  10.468  2.1861 -0.7677 -0.3246
17519SOL    HW255835   3.246   3.359  10.318 -1.8320 -0.1734 -0.3002
17520SOL     OW55836   7.277   6.224   6.878 -0.4317 -0.1863  0.4743
17520SOL    HW155837   7.366   6.226   6.913 -0.9415 -0.8621  1.8962
17520SOL    HW255838   7.260   6.314   6.850  0.6693 -0.0421  0.2084
17521SOL     OW55839  10.641   7.359   4.350  0.6116 -0.0347 -0.5744
17521SOL    HW155840  10.572   7.292   4.354 -2.2040  2.6765 -0.1984
17521SOL    HW255841  10.635   7.404   4.434  1.7218  1.3150 -1.1863
17522SOL     OW55842  10.834   1.151   9.961  0.1543  0.4854 -0.0370
17522SOL    HW155843  10.781   1.097  10.020  0.3528  1.0476  0.6760
17522SOL    HW255844  10.770   1.204   9.912  0.0335  1.9598  1.5901
17523SOL     OW55845   4.183   2.703   0.280  0.8253 -0.1205 -0.1021
17523SOL    HW155846   4.107   2.761   0.270  2.2104  1.5321 -2.0547
17523SOL    HW255847   4.146   2.616   0.289 -1.3151  0.7756  0.5125
17524SOL     OW55848  10.203   9.750   4.880  0.1765  0.3400  0.2867
17524SOL    HW155849  10.208   9.744   4.785  1.6399  1.1648  0.2748
17524SOL    HW255850  10.176   9.662   4.908 -0.5078  0.1537 -0.8860
17525SOL     OW55851   1.972  10.965   0.340  0.1971 -1.1409  0.1364
17525SOL    HW155852   1.969  10.872   0.365  0.9440 -1.4924 -0.9850
17525SOL    HW255853   2.058  10.976   0.299 -0.3988 -0.2740 -0.9426
17526SOL     OW55854   8.799   2.132   4.203 -0.3864 -0.7870  0.0577
17526SOL    HW155855   8.814   2.138   4.109  0.3316 -2.2005  0.0553
17526SOL    HW255856   8.853   2.058   4.231 -0.2538 -0.1193  1.6553
17527SOL     OW55857   5.517   5.404   7.414  0.3301  0.0899  0.3112
17527SOL    HW155858   5.527   5.341   7.343  2.0396 -0.8577  1.3324
17527SOL    HW255859   5.521   5.352   7.494 -2.5109  1.0012  1.1806
17528SOL     OW55860  11.034   8.981   9.818 -0.0853  0.4430  0.0748
17528SOL    HW155861  11.117   8.992   9.773  0.9885  1.5068  2.1846
17528SOL    HW255862  11.057   8.975   9.911 -2.1391 -2.3117  0.5189
17529SOL     OW55863   7.963   1.597   6.133  0.0025  0.0807 -0.2413
17529SOL    HW155864   7.933   1.664   6.071 -0.0496 -0.1881 -0.5086
17529SOL    HW255865   8.047   1.568   6.097  0.5351  0.7438  0.4348
17530SOL     OW55866   9.516  10.623   7.167 -0.0427  0.3000  0.0786
17530SOL    HW155867   9.586  10.571   7.206  0.3616  1.0761  0.4263
17530SOL    HW255868   9.563  10.693   7.120 -0.5933  0.9671  0.5147
17531SOL     OW55869   9.310   1.998   5.262 -0.2698 -0.3729  0.2918
17531SOL    HW155870   9.298   2.029   5.352  0.7278 -0.8521  0.6034
17531SOL    HW255871   9.221   1.987   5.229 -0.6942  1.9848  0.4312
17532SOL     OW55872   0.325   8.529   7.523 -0.1595 -0.4215 -0.2040
17532SOL    HW155873   0.303   8.573   7.605  0.1285  0.3536 -0.5405
17532SOL    HW255874   0.309   8.595   7.455 -1.5186 -1.4059 -0.8868
17533SOL     OW55875   1.410   7.223   9.893 -0.4498 -0.1272  0.1685
17533SOL    HW155876   1.412   7.317   9.913  0.8512 -0.1554  0.2428
17533SOL    HW255877   1.334   7.190   9.941  0.0416  0.5976  1.5013
17534SOL     OW55878   6.934   6.578   6.154 -0.0243 -0.2126  0.5960
17534SOL    HW155879   7.012   6.564   6.100  2.1310  0.9578  3.1811
17534SOL    HW255880   6.882   6.640   6.104  0.6633 -1.0163 -1.2052
17535SOL     OW55881   8.476   9.825   0.543 -0.6142 -0.2018 -0.1300
17535SOL    HW155882   8.492   9.731   0.547  0.6319 -0.0577 -1.0638
17535SOL    HW255883   8.555   9.865   0.580  0.2453  0.5023 -2.4870
17536SOL     OW55884   0.290   3.364   1.383  0.1222 -0.4765  0.4408
17536SOL    HW155885   0.214   3.353   1.441 -0.1705  1.4021  0.4904
17536SOL    HW255886   0.267   3.439   1.328  2.4153  0.9693  1.3152
17537SOL     OW55887   5.075   3.922  10.461 -0.4534 -0.0796  0.3772
17537SOL    HW155888   5.048   3.972  10.538  1.0255 -1.6719  2.0359
17537SOL    HW255889   4.996   3.914  10.408 -2.1304 -0.7828  2.8146
17538SOL     OW55890   9.921   6.337  10.174 -0.5856  0.5380 -0.0363
17538SOL    HW155891   9.880   6.411  10.218 -1.4612  0.1181 -0.1066
17538SOL    HW255892  10.003   6.322  10.221 -0.9073  0.8897  0.6437
17539SOL     OW55893   8.531   5.420   1.666  0.4406 -0.3195 -0.0504
17539SOL    HW155894   8.537   5.325   1.653  0.7993 -0.1614 -1.1601
17539SOL    HW255895   8.442   5.442   1.639  0.4610 -0.2948 -0.0966
17540SOL     OW55896   6.518   7.938   3.849 -0.2021  0.5195 -0.9022
17540SOL    HW155897   6.450   7.996   3.883  0.3706  0.3671  0.5508
17540SOL    HW255898   6.482   7.850   3.861  0.1654  0.4477 -0.3099
17541SOL     OW55899   2.000   2.190   7.546  0.4602  0.2444 -0.3964
17541SOL    HW155900   1.958   2.147   7.621 -0.0909  3.3427  1.2645
17541SOL    HW255901   1.932   2.193   7.479  0.3015 -0.7944 -0.3031
17542SOL     OW55902   7.382   5.715   3.766 -0.5137 -0.4686 -0.4336
17542SOL    HW155903   7.331   5.734   3.687 -2.3850  1.1966  1.0474
17542SOL    HW255904   7.329   5.652   3.814  0.1127 -0.7119 -0.0467
17543SOL     OW55905   2.918  10.325   8.287 -0.4238  0.2024 -0.3462
17543SOL    HW155906   2.857  10.371   8.229  0.0379  1.9315  0.4575
17543SOL    HW255907   2.980  10.282   8.228 -0.2531  1.5155 -1.1685
17544SOL     OW55908   3.010   7.009   2.499 -0.3057  0.4203 -0.0831
17544SOL    HW155909   3.091   6.964   2.524 -0.5835 -0.1212 -0.1416
17544SOL    HW255910   2.970   6.950   2.435 -1.8678 -0.4389  1.6053
17545SOL     OW55911  11.148   7.899   3.460 -0.4199  0.0694 -0.1487
17545SOL    HW155912  11.068   7.927   3.416 -2.0309 -1.7170  1.4482
17545SOL    HW255913  11.156   7.959   3.534  1.4673  2.1327 -1.8930
17546SOL     OW55914  10.081   3.269   3.703 -0.4589  0.4869 -0.1963
17546SOL    HW155915  10.050   3.314   3.782  1.8344  1.1467  0.4021
17546SOL    HW255916  10.095   3.178   3.732 -1.8261  0.1448 -0.5100
17547SOL     OW55917   6.350   6.892   3.088  0.5975  0.1403  0.5308
17547SOL    HW155918   6.439   6.921   3.109  1.3546 -1.4034 -0.4426
17547SOL    HW255919   6.308   6.969   3.048 -0.3120  2.6783  5.5229
17548SOL     OW55920   9.412   2.941   1.839  0.4858  0.7267  0.1875
17548SOL    HW155921   9.354   3.008   1.876  1.3625  1.7802 -0.2691
17548SOL    HW255922   9.429   2.971   1.750  0.9310 -0.0925 -0.0136
17549SOL     OW55923   2.243   1.790   4.111 -0.0397 -0.4110  0.0800
17549SOL    HW155924   2.262   1.703   4.075 -0.6175 -0.6106  0.2355
17549SOL    HW255925   2.246   1.848   4.035  0.6153 -0.5235  0.0198
17550SOL     OW55926   1.552   0.732   4.619  0.3753  0.1011  0.1483
17550SOL    HW155927   1.613   0.659   4.607 -0.0946 -0.1576 -0.7006
17550SOL    HW255928   1.517   0.719   4.707  1.7192  0.3935  0.7566
17551SOL     OW55929   6.888   0.121   0.797  0.4702 -0.1923 -0.0518
17551SOL    HW155930   6.851   0.206   0.820  0.5678 -0.6172  1.8122
17551SOL    HW255931   6.813   0.070   0.766  0.1890  0.1581  0.0460
17552SOL     OW55932  10.565   1.464   0.925  0.0918 -0.3983 -0.2005
17552SOL    HW155933  10.557   1.559   0.930 -1.7096 -0.4054 -1.7715
17552SOL    HW255934  10.636   1.449   0.863 -0.2053 -0.0422 -0.6377
17553SOL     OW55935   6.405   1.053   6.815 -0.5936 -0.3524 -0.5741
17553SOL    HW155936   6.499   1.062   6.827 -0.7254 -0.2381  0.5227
17553SOL    HW255937   6.373   1.143   6.806 -0.7815 -0.2507  0.8048
17554SOL     OW55938   1.609   4.813   8.001  0.4831  0.3289  0.4224
17554SOL    HW155939   1.650   4.760   8.070  0.0823 -0.3983  0.1143
17554SOL    HW255940   1.654   4.786   7.921  1.8415  2.0962  0.5340
17555SOL     OW55941   2.604   1.697  11.339  0.1009  0.2586 -0.6675
17555SOL    HW155942   2.614   1.792  11.328  1.2727  0.1479 -0.6948
17555SOL    HW255943   2.629   1.681  11.430 -0.6284  0.0318 -0.5008
17556SOL     OW55944  10.093   2.843   5.995 -0.4107  0.0507  0.2683
17556SOL    HW155945  10.171   2.841   5.940  0.0495  0.5275  0.8991
17556SOL    HW255946  10.035   2.778   5.956  0.0066  0.2072 -0.6384
17557SOL     OW55947   9.056   0.352   1.107  0.2960 -0.3287  0.0305
17557SOL    HW155948   9.022   0.295   1.038 -0.2560 -0.7185  0.6062
17557SOL    HW255949   9.149   0.328   1.114  1.3794  2.2920 -3.0852
17558SOL     OW55950   5.649   7.377   0.874  0.3546  0.6867  0.2307
17558SOL    HW155951   5.737   7.358   0.841 -0.6463 -2.8746 -0.8035
17558SOL    HW255952   5.630   7.305   0.934 -1.9148  1.2827  0.3104
17559SOL     OW55953   0.038   7.521   2.418  0.2470 -0.0999  0.1205
17559SOL    HW155954   0.088   7.602   2.410 -2.7900  1.8835 -0.8032
17559SOL    HW255955   0.024   7.493   2.328  1.3332 -1.7436  0.4386
17560SOL     OW55956   0.974   4.737   8.678  0.1778 -0.1049  0.1700
17560SOL    HW155957   0.890   4.692   8.692 -1.1177  2.1542  0.3494
17560SOL    HW255958   1.040   4.669   8.683 -1.6054 -1.8744  0.7997
17561SOL     OW55959   3.840   9.070   7.937 -0.8876  0.1471  0.5609
17561SOL    HW155960   3.867   9.161   7.945  2.3529 -0.2715 -2.8965
17561SOL    HW255961   3.892   9.024   8.003 -0.2347  0.4452  0.2564
17562SOL     OW55962   1.308   6.562   0.638 -0.0559  1.0041  0.3061
17562SOL    HW155963   1.379   6.500   0.622 -1.8126 -0.8613 -0.8383
17562SOL    HW255964   1.335   6.642   0.594  1.1311  0.2019 -0.4773
17563SOL     OW55965   7.024   6.168   1.335  0.6984  0.4406  0.1750
17563SOL    HW155966   6.932   6.140   1.339  0.7783  0.0677 -0.3661
17563SOL    HW255967   7.029   6.222   1.256  0.5346  2.0670  1.2509
17564SOL     OW55968   4.542   1.230   2.936  0.1243 -0.1573 -0.2649
17564SOL    HW155969   4.626   1.275   2.943 -0.2152  0.5661 -0.7414
17564SOL    HW255970   4.557   1.145   2.978  1.4585 -0.5674 -1.5013
17565SOL     OW55971   7.898   1.247   8.520 -0.3930  0.3092 -0.7918
17565SOL    HW155972   7.879   1.333   8.482  0.7366  0.4527 -1.0510
17565SOL    HW255973   7.993   1.240   8.517 -0.0893  0.7578  2.9719
17566SOL     OW55974  10.048   1.411   1.704 -0.5562  0.3696  0.1445
17566SOL    HW155975  10.095   1.460   1.637 -0.2702 -1.6094 -1.2052
17566SOL    HW255976   9.964   1.388   1.663  0.0727 -1.8351 -0.0498
17567SOL     OW55977   9.429   5.956   4.977 -0.8359  0.0123 -0.1282
17567SOL    HW155978   9.386   5.973   4.894  0.2015  1.5792 -0.3902
17567SOL    HW255979   9.404   5.866   5.000  0.0130 -1.0064 -2.8453
17568SOL     OW55980   7.088   2.728  11.393 -0.1636  0.1141  0.3360
17568SOL    HW155981   7.056   2.703  11.306 -1.0958  0.3838  0.5961
17568SOL    HW255982   7.012   2.766  11.437  0.5026  0.7208  0.9863
17569SOL     OW55983   9.721   8.734   1.559  0.6378  0.1181  0.4824
17569SOL    HW155984   9.726   8.639   1.567 -0.7311 -0.0943 -0.7047
17569SOL    HW255985   9.765   8.753   1.477 -1.2316  0.1942 -0.5596
17570SOL     OW55986   7.699   9.358  10.399 -0.3477  0.1620 -0.2038
17570SOL    HW155987   7.780   9.307  10.395 -0.3255  0.2352 -0.7070
17570SOL    HW255988   7.718   9.438  10.350  0.2440  1.5434  2.1373
17571SOL     OW55989   8.655   7.591   1.856  0.2524  0.0603 -0.2232
17571SOL    HW155990   8.703   7.532   1.916  0.3462 -0.5364 -0.8726
17571SOL    HW255991   8.647   7.673   1.905 -0.3940 -0.6639  0.9472
17572SOL     OW55992  10.943   1.057   4.570  0.8444  0.5604  0.5156
17572SOL    HW155993  10.905   0.975   4.600  2.7520 -0.7529 -0.4250
17572SOL    HW255994  10.870   1.118   4.568 -1.4627 -1.9623 -1.9972
17573SOL     OW55995   2.347   3.568   4.800 -0.3764  0.3284 -0.3469
17573SOL    HW155996   2.406   3.602   4.867 -0.1994  0.4376 -0.5559
17573SOL    HW255997   2.396   3.578   4.718 -0.7475  0.5843 -0.5429
17574SOL     OW55998   8.500   3.602  11.112 -0.4264  0.3777  0.2060
17574SOL    HW155999   8.558   3.526  11.105 -0.7950  0.2418 -2.0661
17574SOL    HW256000   8.455   3.590  11.196 -1.4093 -2.6306 -0.6133
17575SOL     OW56001   9.145   7.830  10.114  0.0176 -0.0586  0.4867
17575SOL    HW156002   9.204   7.760  10.086 -1.0675 -0.7930 -0.0309
17575SOL    HW256003   9.180   7.859  10.198  0.9022 -0.7157  0.3576
17576SOL     OW56004  10.825   7.550   8.194 -0.3524  0.6949 -0.6504
17576SOL    HW156005  10.731   7.535   8.204  0.0365 -2.2166 -0.6504
17576SOL    HW256006  10.866   7.494   8.260  1.4323  1.6787 -0.8296
17577SOL     OW56007   9.602   5.467   7.903  0.2344 -0.2026  0.6687
17577SOL    HW156008   9.598   5.446   7.996  1.2981  0.9514  1.0112
17577SOL    HW256009   9.519   5.437   7.868  0.9445 -3.3241  1.3772
17578SOL     OW56010   7.017   2.816   6.398  0.2862 -1.0876 -0.4483
17578SOL    HW156011   7.071   2.863   6.461  0.8394 -0.8443 -1.0982
17578SOL    HW256012   6.936   2.868   6.394  0.2918 -1.0386 -0.0356
17579SOL     OW56013   5.183   2.203   5.211 -0.3859  0.3006  0.0400
17579SOL    HW156014   5.136   2.282   5.184  2.7289  2.4606  0.4510
17579SOL    HW256015   5.171   2.142   5.139 -0.9279  2.0545 -1.4244
17580SOL     OW56016   6.672   7.918   9.073 -0.3872 -0.6010  0.2546
17580SOL    HW156017   6.714   7.970   9.005 -1.0167 -0.8871 -0.3711
17580SOL    HW256018   6.707   7.830   9.061  0.3086 -0.4385  0.9990
17581SOL     OW56019   4.303   3.791   2.689 -0.1200 -0.2511 -0.0555
17581SOL    HW156020   4.282   3.815   2.599 -0.4338 -3.4657 -0.9727
17581SOL    HW256021   4.399   3.787   2.691 -0.1273 -0.8156 -0.4770
17582SOL     OW56022   0.472   4.447   0.701  0.6051  0.1580  0.1548
17582SOL    HW156023   0.379   4.459   0.720  0.5687  0.9964 -0.4847
17582SOL    HW256024   0.486   4.495   0.620  1.7163  0.4794  0.5235
17583SOL     OW56025   7.656   6.135   7.603  0.1480  0.0170 -0.0767
17583SOL    HW156026   7.603   6.209   7.633 -1.1674 -0.7802 -0.3998
17583SOL    HW256027   7.679   6.089   7.684  0.8350  0.6588  0.1120
17584SOL     OW56028   8.105   3.266   4.596 -0.2919  0.0450 -0.3430
17584SOL    HW156029   8.186   3.262   4.546  0.4936 -0.3284  0.9226
17584SOL    HW256030   8.049   3.198   4.557  0.5619 -0.7071 -0.2849
17585SOL     OW56031  10.897   5.939   6.434  0.1152  0.1552 -0.3709
17585SOL    HW156032  10.950   5.907   6.361 -1.2050  1.2499 -1.8852
17585SOL    HW256033  10.933   6.026   6.453  0.5549 -0.1859  0.4294
17586SOL     OW56034  10.629   8.337   4.294 -0.2241 -0.5989 -0.2543
17586SOL    HW156035  10.563   8.402   4.272  1.0355  0.1576 -1.9828
17586SOL    HW256036  10.692   8.385   4.348 -0.8806 -1.2459  1.1524
17587SOL     OW56037   0.333   5.765   9.571 -0.3113 -0.3707  0.2372
17587SOL    HW156038   0.269   5.710   9.526  1.4054 -1.2794 -1.1781
17587SOL    HW256039   0.353   5.835   9.508 -1.5569  1.2595  1.5503
17588SOL     OW56040  10.268   0.134   6.193  0.3482  0.0183 -0.0444
17588SOL    HW156041  10.173   0.135   6.208  0.5034 -0.5177  1.0659
17588SOL    HW256042  10.305   0.169   6.275  1.0296  3.0966 -1.5013
17589SOL     OW56043   9.445   0.938   0.799  0.8673  0.1153  0.5106
17589SOL    HW156044   9.529   0.964   0.838 -0.6964  3.3309  2.1677
17589SOL    HW256045   9.409   1.020   0.765 -1.4876 -1.2261 -0.4145
17590SOL     OW56046   5.761   8.677   7.079  0.2046 -0.1327  0.1903
17590SOL    HW156047   5.740   8.625   7.001 -0.3310 -4.2229  2.7650
17590SOL    HW256048   5.679   8.720   7.102  0.3758  1.1483 -1.3975
17591SOL     OW56049   8.861  10.195   3.975  0.1329 -0.9401 -0.3437
17591SOL    HW156050   8.801  10.120   3.977 -2.5468  1.0421  0.6247
17591SOL    HW256051   8.833  10.246   3.899  0.7812 -0.0683 -0.0152
17592SOL     OW56052   1.027   5.427   0.349  0.0009  0.0816 -0.1588
17592SOL    HW156053   1.012   5.347   0.398 -2.7135  0.2397 -0.5785
17592SOL    HW256054   1.060   5.490   0.414 -1.2655 -0.3786  0.9715
17593SOL     OW56055  10.873  10.805   5.679 -0.0942 -0.2121  0.4135
17593SOL    HW156056  10.868  10.737   5.747  0.7457 -2.3161 -1.5160
17593SOL    HW256057  10.955  10.788   5.633 -0.7771  0.9383 -1.3553
17594SOL     OW56058  11.123   9.914   7.842  0.0661 -0.8669 -0.4415
17594SOL    HW156059  11.177   9.866   7.779 -1.1925 -0.5928 -1.7711
17594SOL    HW256060  11.137   9.869   7.925  1.7779 -1.2326 -0.8856
17595SOL     OW56061   5.552   7.443   4.370 -0.1938 -0.2191 -0.2525
17595SOL    HW156062   5.531   7.526   4.328 -0.8026  0.1671  0.7887
17595SOL    HW256063   5.639   7.420   4.336  0.1229  1.0021 -0.2923
17596SOL     OW56064   4.846   3.710  10.578 -0.1547 -0.2776 -0.0999
17596SOL    HW156065   4.840   3.769  10.503 -0.3684 -1.4163 -1.0168
17596SOL    HW256066   4.766   3.726  10.627 -0.6870 -0.4715 -0.8751
17597SOL     OW56067   4.931   8.464   1.777 -0.2629 -0.5431  0.3462
17597SOL    HW156068   4.891   8.508   1.703  0.5949 -0.9536 -0.3726
17597SOL    HW256069   5.002   8.412   1.740  0.9960  0.2245  1.5881
17598SOL     OW56070   4.175   6.591   5.235 -0.9724  0.1829 -0.0834
17598SOL    HW156071   4.083   6.613   5.219 -0.7399  0.7288 -0.7107
17598SOL    HW256072   4.187   6.608   5.328 -2.1220 -2.2091  0.5889
17599SOL     OW56073  10.283  10.611  11.074  0.6774 -0.0562 -0.5859
17599SOL    HW156074  10.336  10.647  11.003 -0.0164 -1.1121 -1.6780
17599SOL    HW256075  10.194  10.637  11.054  0.7702  2.5433  1.7632
17600SOL     OW56076   6.959   3.934   2.263  0.0886 -0.7837  0.2709
17600SOL    HW156077   6.938   3.999   2.196  0.6028  0.7551  1.5342
17600SOL    HW256078   7.000   3.862   2.215 -0.1570 -0.0277 -1.1261
17601SOL     OW56079   6.811   7.396   3.797 -0.0720 -0.1019 -0.7512
17601SOL    HW156080   6.771   7.483   3.788 -0.1902 -0.1119 -0.3260
17601SOL    HW256081   6.901   7.414   3.824  0.4673 -0.0493 -2.4454
17602SOL     OW56082  10.663   5.546  10.877 -0.0101  0.4694  0.0294
17602SOL    HW156083  10.577   5.586  10.885  0.5248  1.8859 -0.8522
17602SOL    HW256084  10.685   5.553  10.784  0.5544 -1.0064  0.0091
17603SOL     OW56085   8.490   0.759   7.072  0.0513 -0.0868  0.2491
17603SOL    HW156086   8.495   0.850   7.044 -0.6094  0.1231  0.7816
17603SOL    HW256087   8.471   0.710   6.992 -0.3721  0.3306  0.0910
17604SOL     OW56088   4.592   6.071   9.226  0.5294 -0.1148 -0.3446
17604SOL    HW156089   4.633   6.155   9.203  0.0836 -0.4420 -2.5882
17604SOL    HW256090   4.498   6.087   9.215  0.4202 -0.8024 -0.4410
17605SOL     OW56091   4.278  10.445   9.144  0.5313  0.7077 -0.0399
17605SOL    HW156092   4.271  10.492   9.061 -1.0116  1.2493  0.3670
17605SOL    HW256093   4.242  10.505   9.209 -0.4319 -0.5762  0.6659
17606SOL     OW56094   1.618   7.761   1.441  0.9105  0.0914 -0.2295
17606SOL    HW156095   1.583   7.676   1.468 -0.1636  1.1407  1.9855
17606SOL    HW256096   1.541   7.815   1.427  1.5612  1.4098  1.0279
17607SOL     OW56097   7.937   6.314  10.003 -0.0842  0.3932  0.3106
17607SOL    HW156098   8.032   6.307  10.006 -0.0373  0.9666  0.4104
17607SOL    HW256099   7.910   6.250   9.937  0.4785  1.0542 -0.6009
17608SOL     OW56100   4.644   0.666  10.996  0.2202 -0.4719  0.3651
17608SOL    HW156101   4.698   0.588  11.005  0.3895 -0.3052  0.8272
17608SOL    HW256102   4.655   0.713  11.079 -0.5909 -0.4054  0.4384
17609SOL     OW56103   2.941   6.830   9.599 -0.7007  0.6890 -0.2223
17609SOL    HW156104   3.001   6.902   9.577 -0.4007  0.7761  0.8426
17609SOL    HW256105   2.910   6.851   9.687 -1.2038 -0.1041 -0.2043
17610SOL     OW56106   4.041   8.217   0.273 -0.2311 -0.3633 -0.6804
17610SOL    HW156107   4.044   8.246   0.364 -1.2328  1.5788 -1.2084
17610SOL    HW256108   4.077   8.128   0.275 -0.3163 -0.4107  1.6070
17611SOL     OW56109   7.035   8.591   4.646  0.2685 -0.3717  0.7772
17611SOL    HW156110   6.976   8.571   4.718  1.3068 -1.6669  1.3194
17611SOL    HW256111   7.000   8.542   4.572 -0.7077  0.8316  0.4169
17612SOL     OW56112   1.560  10.878  10.191 -0.1649 -0.0747  0.3574
17612SOL    HW156113   1.651  10.853  10.176  0.0766  0.1507  1.4121
17612SOL    HW256114   1.531  10.913  10.106  0.8626  0.2539  0.1289
17613SOL     OW56115   9.503   6.480   4.195 -0.2689  0.0904 -0.0383
17613SOL    HW156116   9.485   6.407   4.254  0.5509 -0.0689  0.0225
17613SOL    HW256117   9.491   6.443   4.107 -0.8948  0.1713  0.0047
17614SOL     OW56118   4.308   8.895   7.000 -0.2020  0.3442  0.1457
17614SOL    HW156119   4.248   8.880   6.926  0.1278 -1.0571  0.1347
17614SOL    HW256120   4.395   8.884   6.962 -0.0152  0.1853  0.6244
17615SOL     OW56121   6.332   3.247   0.831  0.4505 -0.7155 -0.1888
17615SOL    HW156122   6.240   3.225   0.845  0.5379 -0.4796  0.8093
17615SOL    HW256123   6.374   3.163   0.813  0.1001 -0.8714 -0.2871
17616SOL     OW56124   9.277   5.214   7.454  0.0339 -0.1839  0.1709
17616SOL    HW156125   9.250   5.209   7.362 -0.2733 -1.5572  0.3121
17616SOL    HW256126   9.234   5.139   7.495  0.5777  0.1255  1.3335
17617SOL     OW56127   8.805   6.732   3.248 -0.0968 -0.0289 -0.1889
17617SOL    HW156128   8.858   6.666   3.203 -1.6541 -0.6595 -1.1844
17617SOL    HW256129   8.770   6.686   3.325 -1.1799 -0.3992 -0.8808
17618SOL     OW56130   5.602   7.888   8.739  0.7432 -0.1724  0.0372
17618SOL    HW156131   5.525   7.897   8.796  2.2729  0.3464  2.1527
17618SOL    HW256132   5.674   7.925   8.791  2.7389 -2.1783 -1.1520
17619SOL     OW56133   1.361   1.894   0.241  0.2303 -0.2611 -0.1608
17619SOL    HW156134   1.389   1.903   0.150 -0.4748  1.6971 -0.2139
17619SOL    HW256135   1.421   1.949   0.291 -1.7009  1.7883  0.0477
17620SOL     OW56136   2.973   7.712   5.397 -0.3263  0.2009  0.0164
17620SOL    HW156137   3.037   7.685   5.331 -1.0766 -1.1558 -0.2019
17620SOL    HW256138   3.002   7.668   5.477 -0.4959  0.2931  0.1303
17621SOL     OW56139   2.531  10.295   0.588 -0.9005 -0.1112  0.2700
17621SOL    HW156140   2.598  10.354   0.624  0.7846 -1.4422 -0.5511
17621SOL    HW256141   2.522  10.322   0.497 -1.5247  0.0764  0.3829
17622SOL     OW56142   5.385   2.773   2.538 -0.1573  0.2350 -0.4354
17622SOL    HW156143   5.308   2.719   2.527  0.4116 -1.1812  1.8608
17622SOL    HW256144   5.458   2.718   2.509  0.2790  0.2361  0.5813
17623SOL     OW56145  10.818   5.778   6.992 -0.6244  0.3799 -0.3867
17623SOL    HW156146  10.776   5.835   7.056 -0.4493 -0.4234  0.4539
17623SOL    HW256147  10.829   5.695   7.037  1.4172  0.4139 -0.7512
17624SOL     OW56148   3.543  11.377   4.764  0.0897  0.5318 -0.4830
17624SOL    HW156149   3.487  11.307   4.729 -0.2792  0.6423 -0.1219
17624SOL    HW256150   3.500  11.458   4.736 -1.3244  0.6659  1.8578
17625SOL     OW56151   3.074   2.420   3.546 -0.1379  0.0966 -0.3864
17625SOL    HW156152   3.114   2.468   3.619 -0.2830 -2.1882  1.3089
17625SOL    HW256153   3.148   2.394   3.492  0.4539 -1.5829  1.1431
17626SOL     OW56154  10.002   7.773   3.684 -0.1725  0.2332 -0.3295
17626SOL    HW156155   9.940   7.839   3.717 -1.9149 -2.5356  2.5628
17626SOL    HW256156   9.946   7.702   3.652  1.5573 -1.0861 -0.5642
17627SOL     OW56157   7.186   0.514   2.978  0.0967  0.4265 -0.1749
17627SOL    HW156158   7.109   0.464   2.952  0.0804  0.2772  0.1613
17627SOL    HW256159   7.249   0.449   3.008  0.1028  0.5960  0.1911
17628SOL     OW56160   2.095   6.639   9.794 -0.4739  0.0631  0.4068
17628SOL    HW156161   2.061   6.556   9.761  0.3144  0.0285 -0.3757
17628SOL    HW256162   2.102   6.694   9.716  1.7065 -0.1125  0.4016
17629SOL     OW56163  10.392   9.318   4.363 -0.2989  0.2195  0.4586
17629SOL    HW156164  10.308   9.287   4.328  0.5755 -1.8358  0.0344
17629SOL    HW256165  10.402   9.270   4.445  2.0119 -2.4163 -1.1616
17630SOL     OW56166   1.226   0.843   5.666  0.2409 -0.8791  0.2317
17630SOL    HW156167   1.240   0.772   5.729  0.9601  0.3959  1.5599
17630SOL    HW256168   1.309   0.849   5.618  0.9959  0.4284  1.6041
17631SOL     OW56169   5.319   4.578   4.998 -0.0560 -0.2377  0.6297
17631SOL    HW156170   5.262   4.524   5.053 -3.0008  0.8392 -1.0636
17631SOL    HW256171   5.390   4.520   4.971 -1.0480 -2.1056  1.8472
17632SOL     OW56172   3.241  10.682   1.214  0.6488  0.0053 -0.3050
17632SOL    HW156173   3.182  10.609   1.191  0.1785 -0.2079  1.4629
17632SOL    HW256174   3.184  10.758   1.222  1.0744  0.5059 -1.6415
17633SOL     OW56175   4.389   8.911   8.497  0.0141  0.0006  0.2666
17633SOL    HW156176   4.371   8.944   8.585 -1.1472 -0.7041  0.3196
17633SOL    HW256177   4.446   8.835   8.510  0.9112  0.6626  0.2993
17634SOL     OW56178   7.014   5.044   7.954  0.2258 -0.0069 -0.1334
17634SOL    HW156179   7.009   5.115   8.018 -0.2589 -1.4958  1.5567
17634SOL    HW256180   6.978   4.968   7.999 -0.2461 -1.1173 -2.2295
17635SOL     OW56181   9.856   1.328   8.347 -0.0759 -0.3307  0.1700
17635SOL    HW156182   9.795   1.340   8.274 -0.0197 -0.1031  0.1585
17635SOL    HW256183   9.939   1.361   8.315  0.3203 -1.6118 -0.1749
17636SOL     OW56184   0.299   8.399  10.968  0.4890 -0.8711 -0.3024
17636SOL    HW156185   0.276   8.481  10.923  0.5361 -1.4226 -1.3726
17636SOL    HW256186   0.248   8.332  10.922 -0.9146 -1.2571  1.6648
17637SOL     OW56187   0.490   0.132   6.283  0.6765 -0.6486 -0.0154
17637SOL    HW156188   0.470   0.038   6.292  0.1398 -0.4510  1.0649
17637SOL    HW256189   0.518   0.158   6.371  1.7537  0.0011 -0.5364
17638SOL     OW56190   2.647   0.712   4.766  0.2920 -0.3362  0.4414
17638SOL    HW156191   2.725   0.685   4.718  0.4498  0.3052  0.3340
17638SOL    HW256192   2.588   0.745   4.698  0.0515 -0.5243  0.5580
17639SOL     OW56193   1.868   2.544  10.140 -0.1055  0.1324 -0.3825
17639SOL    HW156194   1.870   2.458  10.098  1.6417  1.4296 -3.2463
17639SOL    HW256195   1.884   2.526  10.233  3.3679 -2.4717 -1.2856
17640SOL     OW56196   7.609   8.132   4.759 -0.0662 -0.2604 -0.6753
17640SOL    HW156197   7.563   8.059   4.801 -0.8513  0.9250  0.6053
17640SOL    HW256198   7.542   8.175   4.705 -0.9932  2.2469  2.1825
17641SOL     OW56199   7.551   5.068   0.227 -0.6015  0.2390 -0.1326
17641SOL    HW156200   7.484   5.130   0.256 -1.1119 -0.2735 -0.1978
17641SOL    HW256201   7.573   5.019   0.306  1.9261  2.3953  0.6435
17642SOL     OW56202   9.216   5.326   1.222  0.0720 -0.1178  0.0204
17642SOL    HW156203   9.267   5.332   1.302  2.7998  0.6045 -1.6430
17642SOL    HW256204   9.185   5.415   1.206 -1.9511 -0.5691  1.0756
17643SOL     OW56205   7.989  10.225   4.087  0.1275 -0.1830 -0.0694
17643SOL    HW156206   8.076  10.257   4.113  0.6700 -0.8577 -0.9685
17643SOL    HW256207   7.947  10.299   4.044  0.4510  0.0029 -0.0676
17644SOL     OW56208   5.071   3.880   7.349 -0.1116  0.2005  0.4253
17644SOL    HW156209   5.077   3.957   7.405 -1.7323  0.5452  0.1837
17644SOL    HW256210   5.046   3.809   7.408  1.0145 -0.0811  0.5863
17645SOL     OW56211   3.465   5.402   6.603 -0.1590  0.0473  0.0567
17645SOL    HW156212   3.399   5.456   6.561  0.7689  0.9773 -0.2333
17645SOL    HW256213   3.446   5.313   6.573 -1.3174  0.2827  0.0500
17646SOL     OW56214   6.753   9.900  11.006 -0.0270  0.0135 -0.3631
17646SOL    HW156215   6.707   9.816  11.001  0.4725 -0.2486 -0.6807
17646SOL    HW256216   6.783   9.905  11.097  0.7474 -0.5980 -0.5717
17647SOL     OW56217   1.034   7.666   2.240 -0.1720 -0.3623 -0.2748
17647SOL    HW156218   1.055   7.577   2.269 -0.3046 -0.6724 -1.1093
17647SOL    HW256219   1.004   7.656   2.150 -2.3687  0.2481  0.3113
17648SOL     OW56220   3.140   4.200  11.068 -0.0324 -0.2962 -0.1268
17648SOL    HW156221   3.091   4.268  11.114  0.1660 -0.0609 -0.2577
17648SOL    HW256222   3.116   4.211  10.975 -2.1138 -2.1366  0.0933
17649SOL     OW56223   1.739   4.620   5.443 -0.2891 -0.1379  0.4611
17649SOL    HW156224   1.797   4.689   5.475  1.4707 -1.7617  1.0312
17649SOL    HW256225   1.797   4.561   5.394 -1.9165 -0.6748 -0.9335
17650SOL     OW56226   9.334   2.688  11.178  0.8018  0.0681 -1.0384
17650SOL    HW156227   9.279   2.612  11.161  1.6402 -0.3212 -2.1241
17650SOL    HW256228   9.293   2.759  11.129 -1.9200  1.2758  2.5802
17651SOL     OW56229   5.602   5.307   2.280  0.4079 -0.0351 -0.1358
17651SOL    HW156230   5.573   5.229   2.328 -0.4302 -0.3621 -1.1286
17651SOL    HW256231   5.547   5.308   2.201  0.0481  1.8493  0.0953
17652SOL     OW56232   6.819   8.477  10.361 -0.2505 -0.5867 -0.0325
17652SOL    HW156233   6.793   8.486  10.452  0.0882 -0.9194  0.0961
17652SOL    HW256234   6.908   8.441  10.364  0.3354  0.7413 -0.4565
17653SOL     OW56235   0.038   1.411   4.634 -0.1380  0.0630  0.4839
17653SOL    HW156236   0.028   1.491   4.685  0.5924  0.2173  0.3975
17653SOL    HW256237   0.044   1.341   4.699  0.4660  0.2226  0.6084
17654SOL     OW56238  11.214   5.754   8.750 -0.3596 -0.3055  0.3637
17654SOL    HW156239  11.128   5.729   8.781 -0.9754  1.7319  0.4443
17654SOL    HW256240  11.198   5.794   8.664  0.6490 -0.8219 -0.0884
17655SOL     OW56241   6.056  10.242   1.054  0.0154  0.6175  0.5096
17655SOL    HW156242   5.992  10.176   1.024  2.0571 -0.7885 -1.0038
17655SOL    HW256243   6.055  10.233   1.149 -1.2367 -0.1557  0.4569
17656SOL     OW56244   9.384   6.609  10.331  0.2178 -0.4566 -0.1403
17656SOL    HW156245   9.445   6.594  10.403  0.8847  0.1166 -0.5717
17656SOL    HW256246   9.340   6.525  10.319 -0.2347 -0.4299  1.2256
17657SOL     OW56247   9.856   5.616   7.353  0.5727  0.2020 -0.1464
17657SOL    HW156248   9.774   5.645   7.391  1.3404  1.3916  0.6928
17657SOL    HW256249   9.848   5.639   7.260  0.2327  0.9858  0.0658
17658SOL     OW56250   6.803   4.201   7.663  0.3768  0.2161  0.0087
17658SOL    HW156251   6.764   4.145   7.597 -1.9079  1.2548  0.4023
17658SOL    HW256252   6.811   4.287   7.621  1.0731  0.3327  0.3557
17659SOL     OW56253   0.081   2.525   6.053  0.2948 -0.0239  0.7205
17659SOL    HW156254   0.121   2.440   6.073  1.4109  0.1173 -0.7407
17659SOL    HW256255   0.092   2.575   6.134  2.6482 -0.1835  0.5780
17660SOL     OW56256  11.208  10.735   6.510 -0.3867 -0.0763  0.6020
17660SOL    HW156257  11.137  10.695   6.560  0.0231 -1.8998 -0.1972
17660SOL    HW256258  11.237  10.808   6.564 -1.8114 -0.2594  1.6771
17661SOL     OW56259  10.238   8.743   6.035 -0.6621  0.5545  0.4361
17661SOL    HW156260  10.294   8.795   6.094  0.0880 -0.0596  0.2778
17661SOL    HW256261  10.264   8.770   5.947 -1.0102  0.6655  0.3650
17662SOL     OW56262   5.490   5.292   7.738  0.1919  0.1228 -0.4286
17662SOL    HW156263   5.524   5.381   7.740  0.2604  0.1018 -0.6327
17662SOL    HW256264   5.556   5.240   7.783 -1.0743  0.5742  2.1268
17663SOL     OW56265   7.153  10.479   1.105  0.0709 -0.0448 -0.5256
17663SOL    HW156266   7.205  10.400   1.118 -1.2263 -1.0712 -1.2720
17663SOL    HW256267   7.177  10.537   1.177  2.2242 -0.4475 -0.8485
17664SOL     OW56268   2.281   4.404   9.138 -0.2548  0.3307  0.0091
17664SOL    HW156269   2.221   4.329   9.144  1.1445 -0.8042  0.6452
17664SOL    HW256270   2.297   4.414   9.044 -0.3966 -0.2310 -0.0837
17665SOL     OW56271   2.447   3.056  11.143 -0.5450 -0.3659  0.4815
17665SOL    HW156272   2.362   3.065  11.100 -0.7639  0.4596  1.0828
17665SOL    HW256273   2.437   2.979  11.200 -1.6821  1.0979  2.3599
17666SOL     OW56274  10.785   6.995   8.941 -0.1403 -0.2398  0.1371
17666SOL    HW156275  10.842   6.996   8.864 -1.7254  0.1219 -1.0846
17666SOL    HW256276  10.822   7.062   8.999  0.3422  0.3835 -0.8632
17667SOL     OW56277   4.865   1.540   1.646  0.4355 -0.0260  0.0669
17667SOL    HW156278   4.876   1.445   1.637 -0.2642 -0.1813  0.7554
17667SOL    HW256279   4.860   1.572   1.556  1.7124 -0.5075 -0.1975
17668SOL     OW56280   4.957   1.387   6.966 -0.2583  0.0140 -0.1781
17668SOL    HW156281   4.882   1.447   6.963  0.1304  0.5697  0.8553
17668SOL    HW256282   5.033   1.443   6.974  0.3014 -0.5469 -1.3236
17669SOL     OW56283   6.765   0.834  10.989 -0.3156 -0.1273 -0.7592
17669SOL    HW156284   6.819   0.795  10.921 -0.8301 -0.9803 -0.6881
17669SOL    HW256285   6.703   0.765  11.014  0.3625 -0.1035  1.1314
17670SOL     OW56286  10.476   9.402   7.627 -0.1082 -0.8682 -0.0039
17670SOL    HW156287  10.515   9.324   7.666  2.6883  0.8821  1.0845
17670SOL    HW256288  10.452   9.457   7.702 -1.0752 -0.2456 -0.7400
17671SOL     OW56289   0.818   8.246   2.174  0.0832 -0.5320  0.0832
17671SOL    HW156290   0.790   8.321   2.226  0.5537 -0.3879  0.1411
17671SOL    HW256291   0.753   8.178   2.191 -2.1612  0.8089 -2.3572
17672SOL     OW56292   9.267   1.399   3.940  0.3381 -0.3430 -0.1297
17672SOL    HW156293   9.347   1.379   3.891  0.4442 -0.6026  0.1483
17672SOL    HW256294   9.237   1.482   3.902  1.2812  0.2826  0.4418
17673SOL     OW56295   5.958   2.789   1.502 -0.0388 -0.1039 -0.0385
17673SOL    HW156296   5.929   2.699   1.488  0.1407 -0.1299 -0.2410
17673SOL    HW256297   5.907   2.841   1.440  2.7585 -0.5380 -2.9394
17674SOL     OW56298   9.199   5.598   2.674 -0.1261 -0.0171 -0.0945
17674SOL    HW156299   9.153   5.590   2.591 -1.2558  0.0562  0.5045
17674SOL    HW256300   9.291   5.608   2.650 -0.5971  1.5875 -1.4007
17675SOL     OW56301   7.970   3.994   4.156  0.6679 -0.4126 -0.5370
17675SOL    HW156302   8.039   3.942   4.198 -0.5273 -0.3420  1.6879
17675SOL    HW256303   7.936   3.937   4.087  0.5650 -1.9268  0.6925
17676SOL     OW56304   2.363   3.838  10.916  0.2746  0.0171  0.4929
17676SOL    HW156305   2.346   3.744  10.906 -2.0198 -0.1111  3.9360
17676SOL    HW256306   2.453   3.843  10.948  0.7580 -0.8885 -0.6597
17677SOL     OW56307   5.294   1.810   2.373 -0.1646  0.0534 -0.3713
17677SOL    HW156308   5.248   1.742   2.324  1.2604  0.2329 -2.0379
17677SOL    HW256309   5.313   1.769   2.458  1.8203 -2.1963 -1.7733
17678SOL     OW56310   7.469   8.969   4.394 -0.2787 -0.8912  0.1442
17678SOL    HW156311   7.402   8.974   4.462 -0.4070 -0.4310 -0.0097
17678SOL    HW256312   7.527   8.898   4.422  0.1831 -0.1294  1.2145
17679SOL     OW56313  10.584   0.267   9.086 -0.0708 -0.5308 -0.0777
17679SOL    HW156314  10.672   0.304   9.094 -0.8794  1.4688  0.0137
17679SOL    HW256315  10.569   0.223   9.170 -0.1620  1.5011  1.0490
17680SOL     OW56316   2.462   5.719   6.287  0.4303  0.2803 -0.2307
17680SOL    HW156317   2.426   5.640   6.246  1.9614 -0.0185 -1.0521
17680SOL    HW256318   2.486   5.692   6.375 -3.5393  1.0985  1.3205
17681SOL     OW56319   4.728   2.846   6.433 -0.2095  0.3520 -0.2730
17681SOL    HW156320   4.769   2.821   6.351  0.5727 -1.1616  0.5382
17681SOL    HW256321   4.634   2.839   6.417 -0.0746  0.5749 -1.1733
17682SOL     OW56322  10.638   4.251   9.938 -0.5657 -0.4552 -0.0278
17682SOL    HW156323  10.544   4.244   9.953 -0.8798  1.7869 -0.4848
17682SOL    HW256324  10.676   4.256  10.025 -0.8196 -1.6327  0.1655
17683SOL     OW56325  11.151   0.892   3.622 -0.3036  0.4220 -0.5498
17683SOL    HW156326  11.072   0.839   3.620  0.3433 -0.5763 -2.3049
17683SOL    HW256327  11.187   0.880   3.710 -1.0909 -0.6647 -0.3664
17684SOL     OW56328   7.498   5.476   9.522  0.5264  0.3293  0.1731
17684SOL    HW156329   7.447   5.536   9.576  0.5040 -1.7408  2.5817
17684SOL    HW256330   7.586   5.478   9.561  1.6097  1.6262 -2.1167
17685SOL     OW56331   8.341   8.512  11.266  0.7177  0.4733 -0.2642
17685SOL    HW156332   8.280   8.453  11.309 -1.7169  1.7395 -1.7028
17685SOL    HW256333   8.371   8.571  11.335 -0.4081  0.3377  0.3761
17686SOL     OW56334   1.201   8.532   3.291  0.8184 -0.3819  0.2324
17686SOL    HW156335   1.111   8.560   3.276  0.0540 -3.3352 -1.6094
17686SOL    HW256336   1.249   8.561   3.213  0.6318 -1.7316 -0.4077
17687SOL     OW56337   2.427   2.046   5.678 -0.6420  0.2455  0.1393
17687SOL    HW156338   2.463   1.958   5.680  0.0071  0.5204  0.8823
17687SOL    HW256339   2.440   2.075   5.587  1.2919  0.4444  0.4403
17688SOL     OW56340   6.457   4.464   8.336  0.0380 -1.1540 -0.0877
17688SOL    HW156341   6.527   4.409   8.301  0.1286 -0.7032 -0.6382
17688SOL    HW256342   6.479   4.475   8.428  1.8933  0.7422 -0.6873
17689SOL     OW56343   3.055  10.443   5.194  0.6638  0.1679  0.5257
17689SOL    HW156344   3.077  10.351   5.182 -0.9853 -0.1742 -0.1185
17689SOL    HW256345   2.960  10.445   5.199  0.6061  1.9280 -0.4104
17690SOL     OW56346  10.347   7.220   5.646 -0.0106  0.0082 -0.0026
17690SOL    HW156347  10.331   7.313   5.629 -1.0262 -0.2246 -0.3577
17690SOL    HW256348  10.261   7.178   5.638  0.7015 -1.2572 -1.7322
17691SOL     OW56349   3.389   2.569   0.596 -0.0871 -0.2331  0.6909
17691SOL    HW156350   3.340   2.620   0.660 -0.6588  1.8128 -1.2623
17691SOL    HW256351   3.329   2.557   0.523  1.9629  1.7863 -1.5094
17692SOL     OW56352   7.645   9.271   5.980  0.3515  0.2066 -0.3437
17692SOL    HW156353   7.584   9.316   5.922 -0.0200  2.4729  1.6278
17692SOL    HW256354   7.727   9.319   5.970  0.2228  0.7903  1.0676
17693SOL     OW56355   3.354  11.234   4.248 -0.3947  0.2481 -0.0898
17693SOL    HW156356   3.407  11.184   4.186 -0.4486 -0.1067  0.1470
17693SOL    HW256357   3.320  11.169   4.309 -0.8290  0.5156 -0.0376
17694SOL     OW56358   2.350   1.089   7.278 -0.3760  0.0017 -0.3165
17694SOL    HW156359   2.411   1.143   7.227 -0.4694  0.5404  0.1327
17694SOL    HW256360   2.335   1.139   7.358 -0.2072 -0.8631  0.2633
17695SOL     OW56361   3.904   4.902  10.369  0.1059  0.0910  0.1285
17695SOL    HW156362   3.958   4.823  10.357  0.1353  0.1358 -0.0271
17695SOL    HW256363   3.939   4.943  10.448  1.1986  0.8535 -0.7260
17696SOL     OW56364   4.767   2.651   2.353  0.1569 -0.2262 -0.7755
17696SOL    HW156365   4.831   2.690   2.294  1.4928 -1.4341 -0.2029
17696SOL    HW256366   4.786   2.557   2.349  0.6556 -0.3117  1.9309
17697SOL     OW56367   6.176   5.531   8.891  0.0501  0.6788 -0.2282
17697SOL    HW156368   6.102   5.592   8.884  1.0246  1.9322  0.0363
17697SOL    HW256369   6.155   5.478   8.968 -0.3408  1.3604  0.1470
17698SOL     OW56370   6.566   4.581   5.606  0.1915  0.1374 -0.1061
17698SOL    HW156371   6.518   4.611   5.529 -2.1347 -0.3823  1.0747
17698SOL    HW256372   6.572   4.486   5.595  0.9534  0.1928 -0.2274
17699SOL     OW56373   0.177   4.459   6.441 -0.1034  0.3476  0.4087
17699SOL    HW156374   0.268   4.460   6.412  0.5217  0.5760  2.2389
17699SOL    HW256375   0.126   4.462   6.360  1.4957 -0.4358 -0.6845
17700SOL     OW56376   6.088   8.904   5.101  0.1864  0.4549 -0.5484
17700SOL    HW156377   6.083   8.822   5.149  1.7962  0.3491 -0.4898
17700SOL    HW256378   6.007   8.908   5.050  0.2173 -1.3151 -0.7797
17701SOL     OW56379   7.585   1.208   8.867  0.3722 -0.2855  0.0098
17701SOL    HW156380   7.656   1.148   8.843  0.1793 -0.6118  0.2389
17701SOL    HW256381   7.562   1.182   8.957 -0.8157 -0.9633 -0.4565
17702SOL     OW56382  10.238   1.871   3.880  0.3919 -0.4341  0.1978
17702SOL    HW156383  10.172   1.938   3.896  3.5599  2.6434  1.5796
17702SOL    HW256384  10.204   1.821   3.805 -2.3411  2.4262 -0.6739
17703SOL     OW56385   7.637   6.162   3.067 -0.7718 -0.9805 -0.3784
17703SOL    HW156386   7.587   6.140   2.988 -0.1316 -3.1128 -0.2501
17703SOL    HW256387   7.694   6.086   3.080  1.1202  0.5330  0.5654
17704SOL     OW56388  10.199   5.789   6.972  0.0987 -0.0758  0.3851
17704SOL    HW156389  10.109   5.767   6.945 -0.6497  2.6824  0.3435
17704SOL    HW256390  10.214   5.877   6.937  1.5131  0.9892  3.3292
17705SOL     OW56391   9.612   3.841   9.031 -0.1636  0.3785 -0.3055
17705SOL    HW156392   9.620   3.761   8.980 -1.1012 -0.1810  0.3827
17705SOL    HW256393   9.702   3.869   9.047  0.2982 -1.8271  1.4103
17706SOL     OW56394   9.040   1.940   5.176 -0.3868 -0.0278 -0.5300
17706SOL    HW156395   9.095   1.862   5.183 -0.3205 -0.1217 -1.8853
17706SOL    HW256396   8.960   1.909   5.132 -0.9659  0.3925  0.1940
17707SOL     OW56397   0.336   4.486   3.138 -0.2422  0.0733  0.7398
17707SOL    HW156398   0.284   4.414   3.175 -0.9957 -0.2266 -0.8340
17707SOL    HW256399   0.277   4.530   3.078  1.0857  0.2126 -0.5135
17708SOL     OW56400  10.758   9.046  10.293 -0.9138 -0.2335 -0.1517
17708SOL    HW156401  10.792   8.961  10.268  1.7881  0.7895 -0.3230
17708SOL    HW256402  10.771   9.101  10.216 -0.4226  0.8749  0.6864
17709SOL     OW56403  11.069  10.301   1.295  0.5760 -0.1179 -0.2443
17709SOL    HW156404  11.001  10.367   1.307  0.0324 -0.6447 -0.3973
17709SOL    HW256405  11.078  10.260   1.381  0.3230 -0.4110 -0.3583
17710SOL     OW56406   8.356   8.857   3.127  0.0330  0.2019 -0.2037
17710SOL    HW156407   8.361   8.836   3.034  1.3704 -2.6014  0.4046
17710SOL    HW256408   8.275   8.815   3.157  0.3662 -0.1867  0.1644
17711SOL     OW56409   8.741   9.113   0.762  0.5215  0.1016  0.1738
17711SOL    HW156410   8.710   9.023   0.768  0.5173  0.0636 -0.3198
17711SOL    HW256411   8.692   9.161   0.828 -0.3787 -0.0134 -0.3901
17712SOL     OW56412  11.022   1.715   7.169  0.5871  0.4639  0.5807
17712SOL    HW156413  11.053   1.706   7.259  1.5055  1.8122  0.4209
17712SOL    HW256414  10.991   1.805   7.163  1.8312  0.8326 -0.8211
17713SOL     OW56415   8.998   0.329   9.396 -0.5441 -0.8874  0.0970
17713SOL    HW156416   8.956   0.357   9.478  0.3628  0.2638  0.1940
17713SOL    HW256417   9.046   0.406   9.367 -2.3411 -0.6446 -2.5332
17714SOL     OW56418   6.760   5.514   8.286 -0.2069  0.0332 -0.1650
17714SOL    HW156419   6.679   5.548   8.247  0.2214  0.3947 -0.7653
17714SOL    HW256420   6.829   5.541   8.225  0.5185  0.7922  0.9320
17715SOL     OW56421   8.105   6.364   3.704  0.3904 -0.0084  0.3411
17715SOL    HW156422   8.088   6.312   3.782 -0.5706 -0.2407 -0.0112
17715SOL    HW256423   8.019   6.382   3.668  0.8636 -1.2457 -1.5552
17716SOL     OW56424   9.626   4.382   5.711 -0.2725  0.2871 -0.0779
17716SOL    HW156425   9.674   4.437   5.650  0.5625 -1.6650 -1.2956
17716SOL    HW256426   9.534   4.398   5.692 -0.0297  0.7938 -0.8345
17717SOL     OW56427   8.607  10.804   0.974 -0.5982  0.0971 -0.3628
17717SOL    HW156428   8.698  10.834   0.970 -0.9163  1.3831  0.9582
17717SOL    HW256429   8.565  10.842   0.897  0.2314 -1.5568 -1.6850
17718SOL     OW56430   1.504   7.269   1.699 -0.4816  0.1186  0.5647
17718SOL    HW156431   1.412   7.292   1.686 -0.3321 -0.3461 -1.6708
17718SOL    HW256432   1.511   7.179   1.667  1.2393  1.0525 -1.9849
17719SOL     OW56433   3.709   0.811   2.372 -0.2103  0.0166  0.0218
17719SOL    HW156434   3.742   0.817   2.461 -0.2371 -0.0681  0.0372
17719SOL    HW256435   3.651   0.887   2.363 -0.7095 -0.3259  0.2887
17720SOL     OW56436   1.743   3.729   9.715  0.1958  0.1879  0.6256
17720SOL    HW156437   1.775   3.749   9.802 -0.9896  1.1419  0.8662
17720SOL    HW256438   1.685   3.801   9.693 -0.3096 -0.5370 -0.5441
17721SOL     OW56439   1.369   2.687   6.946  0.0203  0.1038  0.0099
17721SOL    HW156440   1.412   2.609   6.909 -0.7684 -0.4539  0.2386
17721SOL    HW256441   1.322   2.654   7.023  2.2229  1.3788  2.0096
17722SOL     OW56442   9.424   3.655   5.169 -0.3438 -0.3135 -0.1805
17722SOL    HW156443   9.457   3.728   5.220 -0.1934 -0.3109 -0.2799
17722SOL    HW256444   9.458   3.670   5.081 -2.2088  0.7389 -0.7655
17723SOL     OW56445   4.744   3.928   1.160 -0.1560 -0.1322 -0.4834
17723SOL    HW156446   4.771   4.020   1.153  0.0060 -0.0407  1.0711
17723SOL    HW256447   4.821   3.879   1.130  1.1414  0.1835  2.1046
17724SOL     OW56448   2.447   1.493   5.545 -0.4803  0.0714 -0.1468
17724SOL    HW156449   2.484   1.572   5.585  0.4393 -0.8329  0.8820
17724SOL    HW256450   2.504   1.475   5.470 -1.6922  1.2890 -1.4075
17725SOL     OW56451   0.003  11.081   7.596 -0.0426 -0.2053  0.4224
17725SOL    HW156452   0.081  11.026   7.599  0.5114  0.5998  1.3481
17725SOL    HW256453  -0.029  11.084   7.686 -0.2248  0.7452  0.3455
17726SOL     OW56454   1.052   8.214   0.794 -0.5900  0.1998 -0.2453
17726SOL    HW156455   1.039   8.120   0.799 -1.8741  0.3879  4.1583
17726SOL    HW256456   1.143   8.225   0.768 -0.8512 -2.1127 -2.5387
17727SOL     OW56457   2.985   4.270   1.641  0.7569 -0.5252 -0.6075
17727SOL    HW156458   3.059   4.221   1.606  2.1761  1.0215  0.0827
17727SOL    HW256459   3.013   4.298   1.728 -0.1192  1.1552 -0.8153
17728SOL     OW56460   6.615   3.488   5.496 -0.7237 -0.3123  0.1775
17728SOL    HW156461   6.654   3.573   5.474 -1.1753  0.1333  1.0266
17728SOL    HW256462   6.630   3.434   5.419  0.3925  0.2505 -0.0201
17729SOL     OW56463   1.138   1.697   7.316 -0.8981  0.6794  0.1278
17729SOL    HW156464   1.092   1.753   7.253  1.1262  1.9471 -0.3124
17729SOL    HW256465   1.129   1.743   7.399 -1.8085  0.0686  0.3781
17730SOL     OW56466   7.096   0.609   5.816 -0.0589  0.3458 -0.6007
17730SOL    HW156467   7.183   0.569   5.823  1.0729  2.4047 -1.9729
17730SOL    HW256468   7.051   0.557   5.750 -0.5786 -1.7664  1.2712
17731SOL     OW56469   8.540   7.714  10.503  0.2720 -0.0553  0.1526
17731SOL    HW156470   8.558   7.720  10.409  0.8988  1.6926  0.3575
17731SOL    HW256471   8.610   7.659  10.538  0.9423  0.5777 -0.1803
17732SOL     OW56472   8.759   8.472   2.615 -0.4562  0.3550 -0.8623
17732SOL    HW156473   8.733   8.380   2.616  0.5923 -0.0010  1.5246
17732SOL    HW256474   8.855   8.469   2.608 -0.3559  1.2068 -0.0626
17733SOL     OW56475   2.200   8.307   5.162  0.0089  0.1121  0.2868
17733SOL    HW156476   2.184   8.298   5.068 -1.0580 -1.4577  0.5705
17733SOL    HW256477   2.118   8.278   5.203 -0.5026  3.1756  1.7105
17734SOL     OW56478   2.141   0.770   3.568  0.5693  0.3039  0.3562
17734SOL    HW156479   2.096   0.690   3.543  0.4122  0.6403 -0.4507
17734SOL    HW256480   2.209   0.781   3.502  2.6152 -0.7972  2.1626
17735SOL     OW56481   0.274   3.916   2.795 -0.4850  0.2541  0.1251
17735SOL    HW156482   0.221   3.992   2.772 -1.7218 -0.9925 -1.3541
17735SOL    HW256483   0.241   3.888   2.881  0.1186  1.4613  0.7726
17736SOL     OW56484   5.357   1.860   2.762 -0.0359 -0.1817  0.1422
17736SOL    HW156485   5.417   1.828   2.695 -0.5504 -0.2492 -0.2967
17736SOL    HW256486   5.398   1.939   2.796 -0.3357  0.5292 -1.1060
17737SOL     OW56487   5.190   2.531   8.891 -0.1042  0.1099 -0.3721
17737SOL    HW156488   5.146   2.491   8.816 -0.1367  1.4576 -1.1089
17737SOL    HW256489   5.164   2.477   8.965 -0.5635 -0.8997 -1.2371
17738SOL     OW56490   7.334   0.738   8.460  0.4822  0.3289 -0.0805
17738SOL    HW156491   7.270   0.700   8.520 -0.9677  1.7113 -0.6474
17738SOL    HW256492   7.310   0.831   8.457  1.7539  0.6405 -1.2912
17739SOL     OW56493   5.401   0.447   4.521  0.0763  0.3646 -0.3617
17739SOL    HW156494   5.464   0.447   4.449  1.0594  1.4177  0.4787
17739SOL    HW256495   5.449   0.482   4.595 -1.2920  0.4723  0.5006
17740SOL     OW56496   7.092   4.951   3.830 -0.1940  0.2950  0.4356
17740SOL    HW156497   7.062   5.023   3.886  0.2818  1.1981 -0.4468
17740SOL    HW256498   7.140   4.894   3.890 -2.1823 -0.3303  1.5389
17741SOL     OW56499   8.788   7.862   2.820 -0.0676  0.1241  0.4273
17741SOL    HW156500   8.708   7.866   2.768  0.7619  0.3218 -0.8805
17741SOL    HW256501   8.760   7.883   2.909 -1.5299 -0.2335  0.0765
17742SOL     OW56502   3.818   1.082   9.145  0.1667 -0.7593 -0.0969
17742SOL    HW156503   3.902   1.068   9.103  0.7602 -0.3823  0.9152
17742SOL    HW256504   3.776   0.996   9.147  0.8124 -1.0730 -0.0365
17743SOL     OW56505   1.264   4.145   1.557  0.5270  0.3538 -0.2725
17743SOL    HW156506   1.194   4.116   1.616  0.0553  1.3199 -0.3412
17743SOL    HW256507   1.247   4.238   1.543  2.0422  0.6975 -0.0129
17744SOL     OW56508   2.087   2.045  11.327 -0.7517 -0.0693  0.1054
17744SOL    HW156509   2.150   2.115  11.341  0.1361 -1.1536  1.7497
17744SOL    HW256510   2.138   1.972  11.294 -0.8743 -1.3249  2.4933
17745SOL     OW56511   0.802   4.389   7.870 -0.1446 -0.8233 -0.2691
17745SOL    HW156512   0.712   4.361   7.888 -0.9023  2.1498  1.1820
17745SOL    HW256513   0.798   4.427   7.782 -0.9748  1.4113  0.6552
17746SOL     OW56514   6.889   3.368   6.183 -0.1708  0.1331  0.7497
17746SOL    HW156515   6.910   3.461   6.173  1.2613 -0.2244  0.1784
17746SOL    HW256516   6.968   3.322   6.153 -0.9921 -1.2781  0.6559
17747SOL     OW56517   1.594   2.271   8.655 -0.2801 -0.4819 -0.0827
17747SOL    HW156518   1.612   2.256   8.563 -0.1581  0.9716 -0.3147
17747SOL    HW256519   1.573   2.365   8.661 -2.7529 -1.0217  0.9713
17748SOL     OW56520   5.421   7.711   3.942 -0.0550 -0.1045 -0.5036
17748SOL    HW156521   5.349   7.659   3.906  1.1772 -0.7533 -2.1122
17748SOL    HW256522   5.392   7.802   3.935 -1.2194 -0.4139  0.0612
17749SOL     OW56523   1.559   7.963  10.291 -0.0021 -0.3100  0.3326
17749SOL    HW156524   1.609   8.023  10.237 -1.2740  0.4574 -0.0211
17749SOL    HW256525   1.625   7.918  10.345  1.0427  0.7121 -0.0687
17750SOL     OW56526   2.833   5.768   6.228 -0.3762 -0.1926 -0.1701
17750SOL    HW156527   2.807   5.686   6.271  0.1316 -0.0292  0.4736
17750SOL    HW256528   2.850   5.743   6.138  1.7084 -1.2386  0.4413
17751SOL     OW56529   8.863   8.452   4.944 -0.1074 -0.6526  0.4653
17751SOL    HW156530   8.822   8.380   4.897 -0.5114  1.4289 -2.6850
17751SOL    HW256531   8.953   8.424   4.958 -0.5078 -2.1324  0.1855
17752SOL     OW56532   3.561   3.523   8.013 -0.9599  0.1175 -0.0512
17752SOL    HW156533   3.615   3.598   7.989 -0.4167  0.4298  1.9621
17752SOL    HW256534   3.595   3.451   7.960  0.0830  0.7634 -0.2931
17753SOL     OW56535  10.904   7.918  11.102  0.3718 -0.5299 -0.6234
17753SOL    HW156536  10.977   7.932  11.163 -2.0779  3.2752  1.9075
17753SOL    HW256537  10.926   7.973  11.026  0.2580  0.5690  0.1096
17754SOL     OW56538   9.645   4.864  10.757  0.2885 -0.3940  0.0272
17754SOL    HW156539   9.655   4.780  10.713 -2.5575 -0.8951  0.1716
17754SOL    HW256540   9.719   4.868  10.818  0.2094 -3.0379  0.4077
17755SOL     OW56541  10.431   8.253   6.417  0.5437  0.7219 -0.3433
17755SOL    HW156542  10.472   8.174   6.453 -0.4181  0.8965  1.1995
17755SOL    HW256543  10.400   8.301   6.493 -2.4539  0.6478 -1.3796
17756SOL     OW56544  11.272   7.952   2.159  0.3657 -0.3048 -0.0922
17756SOL    HW156545  11.212   7.878   2.154 -0.1719  0.1720 -0.9134
17756SOL    HW256546  11.299   7.955   2.251  0.8508 -1.8563 -0.1517
17757SOL     OW56547   2.550   8.648   8.113 -0.1364  0.2799 -0.1349
17757SOL    HW156548   2.522   8.567   8.157  0.7717 -0.3491 -0.6855
17757SOL    HW256549   2.483   8.664   8.046 -0.2928 -0.0443 -0.0554
17758SOL     OW56550   5.057   9.933   2.316  0.3501 -0.8684 -0.1983
17758SOL    HW156551   5.104   9.853   2.289  2.8637  0.5362 -0.3022
17758SOL    HW256552   4.988   9.943   2.252  1.3575 -1.8114 -1.4905
17759SOL     OW56553   8.868   1.423   2.352  0.0107  0.1781  0.4525
17759SOL    HW156554   8.780   1.386   2.354  0.6106 -1.4607 -1.1748
17759SOL    HW256555   8.926   1.351   2.378  1.0568  0.4407 -0.9792
17760SOL     OW56556   1.270  11.017   6.020  0.6407 -0.2510 -0.3032
17760SOL    HW156557   1.316  11.088   6.065 -0.3345 -0.5981  1.3685
17760SOL    HW256558   1.230  10.967   6.092  1.5614 -2.6817 -1.3935
17761SOL     OW56559   4.142  11.240   5.585 -0.4015 -0.3698 -0.4222
17761SOL    HW156560   4.150  11.333   5.605 -0.3089 -0.5125  0.2516
17761SOL    HW256561   4.098  11.237   5.500  0.2572  0.2940 -0.7916
17762SOL     OW56562   2.549   1.975  11.305 -0.0052 -0.3121  0.0229
17762SOL    HW156563   2.584   2.043  11.248 -1.5091  1.4511  1.1182
17762SOL    HW256564   2.472   1.942  11.259  1.4624 -2.3633 -1.1577
17763SOL     OW56565   3.197   4.273   3.790  0.3834 -0.1148  1.0038
17763SOL    HW156566   3.142   4.196   3.804 -0.3337 -0.1155 -1.3913
17763SOL    HW256567   3.143   4.346   3.821 -0.1626 -0.3094  0.5367
17764SOL     OW56568   2.696   9.650   6.472  0.1999 -0.1306 -0.0900
17764SOL    HW156569   2.724   9.633   6.562  0.4128 -0.6510 -0.2509
17764SOL    HW256570   2.675   9.563   6.437  2.8559 -0.3101 -1.4636
17765SOL     OW56571   4.236   2.400   0.655 -0.0211 -0.1738 -0.4760
17765SOL    HW156572   4.295   2.381   0.727  0.4199 -0.8795 -1.0110
17765SOL    HW256573   4.156   2.432   0.696  0.1987 -0.6403  0.3140
17766SOL     OW56574   3.821  11.253   2.667  0.8267 -0.0766 -0.1763
17766SOL    HW156575   3.739  11.299   2.646  1.4082  0.4724 -1.3447
17766SOL    HW256576   3.882  11.323   2.692  1.6002 -0.2120 -1.5693
17767SOL     OW56577  10.158   6.645  11.170 -0.6651 -0.0759 -0.0998
17767SOL    HW156578  10.232   6.705  11.161 -0.0577 -0.8194 -0.1819
17767SOL    HW256579  10.084   6.701  11.195  0.0617  0.6029  0.5878
17768SOL     OW56580   8.755   4.025  10.365 -0.2073 -0.5336  0.1037
17768SOL    HW156581   8.668   4.058  10.340  0.2202 -0.6040 -1.5596
17768SOL    HW256582   8.796   4.099  10.410 -0.3074  0.2949 -1.1136
17769SOL     OW56583   3.212   3.037   3.525  0.1642  0.1043  0.3097
17769SOL    HW156584   3.136   3.022   3.582 -0.2843  0.6013 -0.1414
17769SOL    HW256585   3.251   3.118   3.558  1.5331 -1.0292  1.6215
17770SOL     OW56586   4.557   7.700   0.857 -0.5475  0.2671 -0.0174
17770SOL    HW156587   4.496   7.637   0.817 -0.3366 -0.0354  0.1297
17770SOL    HW256588   4.554   7.776   0.799  1.0238 -0.7945 -1.6176
17771SOL     OW56589   4.424   5.541   1.887 -0.1149 -0.6027 -0.1191
17771SOL    HW156590   4.448   5.534   1.980 -0.6717  0.9739  0.1706
17771SOL    HW256591   4.462   5.462   1.847  1.0075 -0.8117  1.2553
17772SOL     OW56592   9.442   5.921   6.852 -0.5983  0.3341  0.1200
17772SOL    HW156593   9.531   5.919   6.817 -1.4012  0.5974 -2.0650
17772SOL    HW256594   9.385   5.917   6.775 -2.5383 -1.9641  1.5242
17773SOL     OW56595   9.462   6.643   1.469 -0.5033  0.0553  0.3651
17773SOL    HW156596   9.410   6.627   1.390  0.4447  1.3037 -0.5396
17773SOL    HW256597   9.547   6.603   1.451 -0.2238  0.4944  0.6944
17774SOL     OW56598  10.302  10.209   9.149 -0.5573 -0.0349 -0.2327
17774SOL    HW156599  10.226  10.248   9.193 -0.4461  0.7267 -0.7014
17774SOL    HW256600  10.266  10.168   9.071 -0.9095 -2.2959  1.0456
17775SOL     OW56601   0.269   7.691   2.140  0.3472 -0.2287  0.1351
17775SOL    HW156602   0.214   7.706   2.217  2.8507 -1.3949  2.3080
17775SOL    HW256603   0.217   7.632   2.085 -0.8873 -0.6975  1.7132
17776SOL     OW56604   4.099   3.244   4.591  0.1760  0.4430 -0.2764
17776SOL    HW156605   4.141   3.256   4.676 -0.0541 -1.5431  0.1641
17776SOL    HW256606   4.024   3.304   4.593 -0.1532  0.0248  1.1600
17777SOL     OW56607   5.966   6.197   7.573  0.4548  0.3592  0.4978
17777SOL    HW156608   6.036   6.131   7.568  1.0342  0.9270  0.8478
17777SOL    HW256609   6.013   6.281   7.581 -0.2545  0.6400  2.0818
17778SOL     OW56610   8.603   3.179   7.832 -0.3480 -0.2324  0.5679
17778SOL    HW156611   8.692   3.146   7.835  1.0555  3.2788  1.6680
17778SOL    HW256612   8.598   3.226   7.748 -0.1746  1.8943  1.6954
17779SOL     OW56613   9.954  11.261   7.831  0.2446  0.8662  0.0185
17779SOL    HW156614  10.022  11.231   7.770 -0.2159 -0.9958  0.3657
17779SOL    HW256615   9.915  11.181   7.865 -1.5501  1.8899  0.4978
17780SOL     OW56616   4.002   9.376   0.188 -0.1687  0.4540  0.4361
17780SOL    HW156617   3.986   9.320   0.112 -2.8106  1.0259  0.4875
17780SOL    HW256618   3.988   9.465   0.156  0.1693  0.8097  1.2427
17781SOL     OW56619   9.614   9.520   0.649  0.3636  0.0552 -0.1482
17781SOL    HW156620   9.645   9.575   0.721 -0.6763  0.7341 -0.1875
17781SOL    HW256621   9.637   9.568   0.570 -0.8160  0.6253 -0.1753
17782SOL     OW56622  11.278   4.758   1.519  0.1913  0.2069 -0.3938
17782SOL    HW156623  11.287   4.676   1.471  0.5966  0.1965 -0.3059
17782SOL    HW256624  11.318   4.824   1.462  0.8733  0.1585  0.0115
17783SOL     OW56625   6.540   2.211   9.987  0.0264  0.3175  0.0023
17783SOL    HW156626   6.450   2.230   9.961 -0.0198 -0.6204 -0.5488
17783SOL    HW256627   6.552   2.118   9.969  1.5715  0.7268 -1.3542
17784SOL     OW56628  10.198   5.550   4.668  0.0906 -0.3473  0.1289
17784SOL    HW156629  10.223   5.638   4.642 -0.3268  0.0016  0.8848
17784SOL    HW256630  10.103   5.547   4.659  0.2580 -1.3289 -1.6916
17785SOL     OW56631   0.772   2.567   2.402 -0.0797  0.4660 -0.0647
17785SOL    HW156632   0.687   2.577   2.358 -1.2272  0.8691  2.1030
17785SOL    HW256633   0.820   2.505   2.347 -1.0414  1.6285 -2.3451
17786SOL     OW56634   0.361   4.173   2.211  0.3535 -0.6248 -0.3332
17786SOL    HW156635   0.336   4.115   2.140 -0.7729  1.8682 -2.1114
17786SOL    HW256636   0.456   4.182   2.203  0.1159  0.6817 -2.5157
17787SOL     OW56637   8.796  10.465   2.125 -0.1985  0.0030  0.0356
17787SOL    HW156638   8.731  10.448   2.193 -0.7317 -2.2124 -0.9380
17787SOL    HW256639   8.762  10.541   2.077 -0.8165  0.3584  1.0037
17788SOL     OW56640   6.949   3.169   8.380 -0.5004  0.3972  0.4441
17788SOL    HW156641   6.873   3.198   8.431 -0.3794  0.4084  0.6180
17788SOL    HW256642   6.973   3.085   8.418  0.0585  0.7591  0.9063
17789SOL     OW56643   9.848   9.675   8.207 -0.0436 -0.4050  0.0243
17789SOL    HW156644   9.934   9.640   8.184 -0.7922 -1.9307 -0.5979
17789SOL    HW256645   9.820   9.724   8.129 -0.0991 -0.6108 -0.0835
17790SOL     OW56646   9.120   1.301   4.149  0.0634 -0.4668  0.1635
17790SOL    HW156647   9.182   1.309   4.077 -0.0245 -0.2067  0.1157
17790SOL    HW256648   9.112   1.389   4.184  1.4149 -0.8858  1.6042
17791SOL     OW56649   5.591  10.499  10.640 -0.3209  0.2086  0.1963
17791SOL    HW156650   5.583  10.420  10.587  1.9603 -0.5519  0.8942
17791SOL    HW256651   5.503  10.513  10.676 -1.6766  0.1178 -2.7865
17792SOL     OW56652   6.365  10.144   9.775  0.3639 -0.0689 -0.1265
17792SOL    HW156653   6.344  10.100   9.692  0.1503 -0.6505  0.2282
17792SOL    HW256654   6.365  10.073   9.840 -2.5184  0.7477  0.9228
17793SOL     OW56655   5.579   1.567   9.015 -0.0067 -0.3766  0.3585
17793SOL    HW156656   5.501   1.575   8.961 -0.5236  0.6714  1.2199
17793SOL    HW256657   5.638   1.512   8.964 -0.7983 -0.1179 -0.8812
17794SOL     OW56658   1.919   7.713   0.038 -0.1363 -0.0494  0.1171
17794SOL    HW156659   1.905   7.791   0.091  0.8292 -0.2455  0.6802
17794SOL    HW256660   1.862   7.725  -0.038  0.3850  1.4447 -0.0623
17795SOL     OW56661   3.976   3.920   1.007  0.1400  0.1080  0.1917
17795SOL    HW156662   3.918   3.916   0.931 -0.0065 -0.2280  0.3198
17795SOL    HW256663   4.005   4.011   1.010 -0.1209  0.2014 -0.0664
17796SOL     OW56664   1.081   4.564   0.926  0.1237 -0.5437 -0.1000
17796SOL    HW156665   1.115   4.651   0.945 -1.5019 -0.0786  0.9057
17796SOL    HW256666   1.058   4.568   0.833  1.6772 -0.5057 -0.5048
17797SOL     OW56667   2.903   5.389   1.340 -0.1937 -0.3300  0.3371
17797SOL    HW156668   2.903   5.400   1.435  1.0966  0.6562  0.2365
17797SOL    HW256669   2.944   5.303   1.326 -1.7509 -1.1832  0.6980
17798SOL     OW56670   7.309   8.358   3.207 -0.0403 -0.5403  0.3031
17798SOL    HW156671   7.333   8.419   3.137 -0.7204 -0.4505  0.1480
17798SOL    HW256672   7.331   8.405   3.288  2.5249 -1.3514  0.1722
17799SOL     OW56673   5.815   3.433   7.470  0.1532  0.3536 -0.6347
17799SOL    HW156674   5.780   3.359   7.520 -0.1172 -0.4196 -1.9369
17799SOL    HW256675   5.740   3.490   7.457  0.5843  1.4497  1.3158
17800SOL     OW56676   4.286  11.082   3.295  0.0096  0.3050  0.6387
17800SOL    HW156677   4.374  11.073   3.330 -0.2234 -0.9175  0.9646
17800SOL    HW256678   4.289  11.038   3.210 -0.4456 -0.3735  0.9621
17801SOL     OW56679   3.306   9.687   6.968 -0.3524 -0.3541  0.4423
17801SOL    HW156680   3.275   9.689   6.877  1.4168 -1.4174 -0.2443
17801SOL    HW256681   3.292   9.775   7.000 -0.0303  0.3528 -1.2470
17802SOL     OW56682   6.582   8.476   7.436  0.0029 -0.6778 -0.3050
17802SOL    HW156683   6.515   8.540   7.413 -0.6100 -1.9611 -2.3487
17802SOL    HW256684   6.661   8.507   7.393 -0.2215 -1.1073 -1.0450
17803SOL     OW56685   0.982  10.672  11.304 -0.4819  0.4535 -0.3064
17803SOL    HW156686   1.024  10.630  11.379 -0.6508 -1.0887 -1.0381
17803SOL    HW256687   1.050  10.727  11.266 -0.5753  1.7633  1.3242
17804SOL     OW56688   4.135   7.429  10.022  0.4852 -0.0406 -0.0910
17804SOL    HW156689   4.175   7.465  10.102 -0.3829  1.1508 -0.1693
17804SOL    HW256690   4.138   7.334  10.035 -1.5811  0.1130  2.3877
17805SOL     OW56691   8.964   5.042  10.730 -0.3142 -0.2111  0.6254
17805SOL    HW156692   8.962   5.071  10.822  1.3680  0.0477  0.6141
17805SOL    HW256693   9.054   5.058  10.702 -0.9982  0.4547 -1.3411
17806SOL     OW56694   3.040   6.525   5.144 -0.5163 -0.2582 -0.4237
17806SOL    HW156695   3.103   6.476   5.091 -0.5555 -0.9271  0.1312
17806SOL    HW256696   2.997   6.458   5.198 -0.7572  0.3568  0.1629
17807SOL     OW56697   0.281   6.927   4.291  0.2203 -0.1745 -0.0670
17807SOL    HW156698   0.303   7.002   4.234 -0.2692 -0.6340 -0.8852
17807SOL    HW256699   0.310   6.851   4.242  1.8420 -0.4865  1.3027
17808SOL     OW56700   1.929   5.149  10.276 -0.4446 -0.1701  0.1288
17808SOL    HW156701   1.951   5.068  10.229 -1.0902 -0.4886  0.3601
17808SOL    HW256702   1.889   5.204  10.209  1.8178  0.7882 -0.5253
17809SOL     OW56703   3.067   4.801   7.389  0.1055  0.1821  0.0744
17809SOL    HW156704   3.118   4.882   7.397  1.0463 -0.5762  3.5864
17809SOL    HW256705   3.102   4.757   7.312 -0.6676  3.1852 -2.1571
17810SOL     OW56706   8.096   0.136   5.058  0.5187  0.2592  0.0892
17810SOL    HW156707   8.060   0.161   4.973  0.6619 -1.1824 -0.4274
17810SOL    HW256708   8.027   0.157   5.120 -0.4219 -0.5794 -0.6416
17811SOL     OW56709   4.279   4.563   6.887 -0.4362 -0.3436  0.2291
17811SOL    HW156710   4.350   4.508   6.920  2.1516  1.5341 -1.7503
17811SOL    HW256711   4.294   4.649   6.927 -0.9703  0.3351 -0.9662
17812SOL     OW56712   7.625   9.775   3.281 -0.0368 -0.1888 -0.0558
17812SOL    HW156713   7.686   9.823   3.337  0.6656 -0.4879 -0.5559
17812SOL    HW256714   7.550   9.834   3.270  1.2330  1.2312 -1.4804
17813SOL     OW56715   0.030   3.423   4.771  0.9813 -0.1989 -0.4807
17813SOL    HW156716   0.082   3.409   4.692  2.3333 -1.4438  0.5804
17813SOL    HW256717  -0.011   3.509   4.758 -0.1322 -1.0227 -3.2032
17814SOL     OW56718   8.542   3.737   1.401  0.2202 -0.5162  0.1515
17814SOL    HW156719   8.537   3.715   1.494  0.2951  0.6044  0.4305
17814SOL    HW256720   8.457   3.778   1.383  0.7034  0.4502  0.0484
17815SOL     OW56721   3.231  11.042   1.509 -0.2473  0.3443  0.4937
17815SOL    HW156722   3.240  11.117   1.568 -0.2193 -0.0920  1.0545
17815SOL    HW256723   3.143  11.049   1.474 -0.0438  0.9562  0.1072
17816SOL     OW56724   8.124   4.009  10.542  0.1609 -0.5000  0.1360
17816SOL    HW156725   8.171   4.084  10.579 -1.1042  0.3212  0.1334
17816SOL    HW256726   8.176   3.983  10.466 -0.0788  1.2401 -0.6669
17817SOL     OW56727   9.854   6.849   3.297  0.1663 -0.4230 -0.0004
17817SOL    HW156728   9.758   6.854   3.298  0.2048  0.9310 -0.7568
17817SOL    HW256729   9.880   6.870   3.386 -0.2535 -1.8536  0.4926
17818SOL     OW56730   4.528   8.597   2.214  0.5552  0.3097 -0.0716
17818SOL    HW156731   4.517   8.522   2.155 -0.0866  0.4475 -0.1355
17818SOL    HW256732   4.608   8.640   2.184  2.2335 -1.6319  1.3880
17819SOL     OW56733   8.368   2.972   6.998 -0.2780  0.7420 -0.4336
17819SOL    HW156734   8.341   2.949   7.087  1.0956 -1.0022 -0.4162
17819SOL    HW256735   8.335   2.901   6.944  0.9735  0.5364 -0.9539
17820SOL     OW56736   1.678   0.906   2.001 -0.5425 -0.7428  0.0773
17820SOL    HW156737   1.676   0.822   1.955 -1.0162 -0.3540 -0.6339
17820SOL    HW256738   1.595   0.908   2.048 -1.1210 -0.1287 -0.9319
17821SOL     OW56739   1.960   4.064   4.833 -0.2170  0.1289 -0.4395
17821SOL    HW156740   1.917   3.981   4.814 -2.7833  1.1923  0.3580
17821SOL    HW256741   2.040   4.062   4.780 -0.6700 -2.4189 -1.1593
17822SOL     OW56742   5.617   7.896   1.322 -0.6520  0.5216  0.0282
17822SOL    HW156743   5.634   7.843   1.244  0.2213  0.6788  0.1096
17822SOL    HW256744   5.526   7.924   1.311 -0.2675  1.3333 -1.4274
17823SOL     OW56745   9.083   4.577   2.566  0.0001  0.1237 -0.1306
17823SOL    HW156746   9.097   4.642   2.497  1.4815 -1.8205 -1.8209
17823SOL    HW256747   8.995   4.543   2.549  0.3779 -0.3894 -1.1988
17824SOL     OW56748   1.808   4.843   7.776 -0.0162 -0.3667 -0.6582
17824SOL    HW156749   1.862   4.817   7.850  1.0024  0.9112 -0.9085
17824SOL    HW256750   1.833   4.782   7.706 -0.9238 -1.5215 -0.0086
17825SOL     OW56751   4.652  10.041   4.293 -0.3700  0.4553  0.7279
17825SOL    HW156752   4.632   9.965   4.239 -0.0129  0.6078  0.3790
17825SOL    HW256753   4.649  10.008   4.383  1.0984 -0.3115  0.5387
17826SOL     OW56754   1.399   2.604   9.626 -0.3328 -0.3673 -0.0997
17826SOL    HW156755   1.411   2.554   9.706  1.9085  0.7372  0.3495
17826SOL    HW256756   1.448   2.685   9.641 -1.9712  0.9915 -1.6303
17827SOL     OW56757   2.117   4.286   9.855 -0.0179  0.8042 -0.5385
17827SOL    HW156758   2.126   4.378   9.877  2.3497  0.0862  2.1077
17827SOL    HW256759   2.062   4.250   9.925  0.0103  0.0201 -0.9103
17828SOL     OW56760   2.620   0.775  10.467  0.3455  0.1890 -0.1447
17828SOL    HW156761   2.585   0.694  10.432 -0.5196  0.4130  0.1702
17828SOL    HW256762   2.694   0.796  10.411 -0.1498 -0.1979 -0.9546
17829SOL     OW56763   5.471   9.449   8.975  0.2390 -0.1920 -0.0064
17829SOL    HW156764   5.485   9.541   8.999 -0.9670  0.4550 -1.5415
17829SOL    HW256765   5.506   9.399   9.048  0.9896  1.4901  0.8463
17830SOL     OW56766   3.271  10.311   0.859  0.6711 -0.1945  0.0941
17830SOL    HW156767   3.225  10.231   0.883  0.2115  0.3885  1.2406
17830SOL    HW256768   3.204  10.380   0.866  0.7002  0.1569 -2.1441
17831SOL     OW56769   9.138   5.840   2.283 -0.1467 -0.2153  0.4110
17831SOL    HW156770   9.090   5.804   2.357  1.8521 -0.4675  1.6402
17831SOL    HW256771   9.207   5.776   2.265  1.0806  1.1364  0.1302
17832SOL     OW56772   4.179  10.172   9.808 -0.0553 -0.0417  0.8644
17832SOL    HW156773   4.131  10.092   9.829  2.6995 -2.0263  0.0803
17832SOL    HW256774   4.132  10.208   9.732 -1.3757 -0.8296  1.2705
17833SOL     OW56775   1.454   4.873   2.488  0.4344 -0.4078  0.3203
17833SOL    HW156776   1.542   4.867   2.526  0.3411  0.3094  0.6607
17833SOL    HW256777   1.398   4.827   2.551  0.8848 -3.1715 -1.1138
17834SOL     OW56778   8.278   6.382   2.192 -0.0634 -0.0911  0.1649
17834SOL    HW156779   8.250   6.401   2.103 -2.2020 -0.1980  0.7669
17834SOL    HW256780   8.197   6.365   2.240  1.0710 -0.6255  2.0025
17835SOL     OW56781   1.441   7.182   5.079  0.0246 -0.4273 -0.7387
17835SOL    HW156782   1.367   7.220   5.125  0.9776  0.0752  0.4533
17835SOL    HW256783   1.495   7.143   5.149  0.6952 -1.0926 -1.6012
17836SOL     OW56784  11.043   4.388   4.440 -0.6255  0.1196  0.9824
17836SOL    HW156785  10.963   4.338   4.427 -1.4490  1.2200  1.6891
17836SOL    HW256786  11.093   4.374   4.359 -1.5217 -0.5756  0.5311
17837SOL     OW56787   0.726   8.353   4.322  0.3676  0.0450 -0.1131
17837SOL    HW156788   0.704   8.391   4.407 -0.2535  1.5770 -0.9179
17837SOL    HW256789   0.694   8.417   4.258  1.8902 -0.4846 -1.4796
17838SOL     OW56790  10.120   5.215   1.544 -0.5455 -0.2123  0.1221
17838SOL    HW156791  10.169   5.259   1.474  0.1356  1.0284  1.3430
17838SOL    HW256792  10.085   5.137   1.502  1.2762 -0.3975 -1.1793
17839SOL     OW56793   7.518   3.480   8.407 -0.2574 -0.5528  0.2462
17839SOL    HW156794   7.498   3.470   8.500 -1.4154  0.2032  0.1072
17839SOL    HW256795   7.458   3.420   8.363  0.5995 -1.2438 -0.0057
17840SOL     OW56796   8.708   9.936   0.979  0.5320  0.3625 -0.5540
17840SOL    HW156797   8.795   9.968   0.954  1.8737 -3.4108 -1.3445
17840SOL    HW256798   8.718   9.904   1.068  0.3235 -1.0465 -1.0039
17841SOL     OW56799   4.951   0.299   4.186 -0.0794 -0.5455  0.1325
17841SOL    HW156800   4.858   0.318   4.198  0.0955  0.4123 -0.0121
17841SOL    HW256801   4.953   0.230   4.119 -0.6214  0.4787 -0.9710
17842SOL     OW56802   0.543   5.828   1.887  0.5738  0.7448  0.7216
17842SOL    HW156803   0.484   5.775   1.941 -0.1086  2.5084  1.7944
17842SOL    HW256804   0.621   5.840   1.942  0.6078  1.1024  0.5943
17843SOL     OW56805   5.158   5.853   1.081 -1.0028 -0.3695 -0.1640
17843SOL    HW156806   5.079   5.891   1.119 -1.4212 -0.3983 -0.9760
17843SOL    HW256807   5.144   5.858   0.986  0.3123  0.3739 -0.3506
17844SOL     OW56808  10.705   8.377   2.385 -0.5324  0.1700  0.4909
17844SOL    HW156809  10.694   8.312   2.454  1.4813  0.5984  1.2712
17844SOL    HW256810  10.648   8.347   2.315 -1.7967 -0.8777  1.9036
17845SOL     OW56811   3.345   5.694   3.940 -0.1426 -0.4967  0.4733
17845SOL    HW156812   3.287   5.673   4.013 -1.0276  0.2524  0.0034
17845SOL    HW256813   3.422   5.638   3.953 -0.9815 -1.5302  1.0852
17846SOL     OW56814   1.848  10.246   9.021  0.1580  0.7095  0.0296
17846SOL    HW156815   1.868  10.201   8.939 -0.6645 -0.5870  0.5126
17846SOL    HW256816   1.933  10.277   9.052  0.7596 -0.4788 -0.3575
17847SOL     OW56817   1.738   3.513   1.496  0.4048 -0.2180 -0.4338
17847SOL    HW156818   1.801   3.578   1.465  0.1660  0.2627  0.0691
17847SOL    HW256819   1.789   3.432   1.503  0.8872  0.0899 -0.3430
17848SOL     OW56820  10.434   5.373   8.046  0.1902 -0.0855 -0.5168
17848SOL    HW156821  10.493   5.448   8.046  0.5825 -0.3627  1.1260
17848SOL    HW256822  10.492   5.297   8.058 -0.3677 -0.4787 -0.2705
17849SOL     OW56823   2.178   2.983   2.331  0.3262 -0.0873  0.6966
17849SOL    HW156824   2.162   2.986   2.236  3.9029 -0.0092 -0.0705
17849SOL    HW256825   2.169   3.074   2.359  0.8356  0.1831  0.0405
17850SOL     OW56826   5.670   6.369   0.196 -0.1346  0.2881  0.1533
17850SOL    HW156827   5.704   6.458   0.201  0.6111 -0.0657  1.7113
17850SOL    HW256828   5.616   6.359   0.274 -0.4952 -0.5264 -0.1836
17851SOL     OW56829   8.570   0.965   5.695 -0.1164 -0.4213 -0.2158
17851SOL    HW156830   8.663   0.959   5.719  0.2789 -0.4228 -1.6456
17851SOL    HW256831   8.527   0.903   5.753  1.1068 -2.0534 -0.9549
17852SOL     OW56832   9.074   4.486   8.454 -0.3513  0.4402 -0.5132
17852SOL    HW156833   9.140   4.494   8.522 -0.9164  0.4061  0.0485
17852SOL    HW256834   9.006   4.548   8.479 -1.2621 -0.6430 -0.2241
17853SOL     OW56835   7.219   7.241  10.970  0.6547  0.0589  0.4499
17853SOL    HW156836   7.146   7.272  10.915  0.2730 -0.9389  0.3819
17853SOL    HW256837   7.297   7.278  10.928  0.4267 -1.1078 -1.1278
17854SOL     OW56838   9.869   9.310   0.928 -0.1166  0.3042 -0.0490
17854SOL    HW156839   9.909   9.366   0.861  0.0114 -0.3356 -0.5121
17854SOL    HW256840   9.936   9.244   0.947 -0.4958 -0.0594  0.0427
17855SOL     OW56841   9.018   8.787   7.667 -0.8712  0.1220  0.4787
17855SOL    HW156842   9.014   8.813   7.759 -2.1019 -1.2820  0.8601
17855SOL    HW256843   8.977   8.860   7.620 -0.4684  0.7304  1.0607
17856SOL     OW56844   2.233   2.737   2.573  0.4683 -0.7745 -0.1469
17856SOL    HW156845   2.273   2.763   2.490 -1.0040  0.1430 -0.6002
17856SOL    HW256846   2.300   2.756   2.639  1.3754 -0.8172 -1.0368
17857SOL     OW56847   7.822   7.244   3.717  0.0410  0.2736 -0.3225
17857SOL    HW156848   7.750   7.288   3.763 -1.1319  0.3877 -2.1735
17857SOL    HW256849   7.887   7.228   3.785 -0.6495  2.4285  0.9670
17858SOL     OW56850   2.476   2.347   8.411 -0.2059  0.1087  0.5281
17858SOL    HW156851   2.404   2.347   8.474 -0.4418 -1.3373  0.2973
17858SOL    HW256852   2.468   2.431   8.365 -2.1966 -0.3255  0.0134
17859SOL     OW56853   8.299  10.008   7.110 -0.2053 -0.1086 -0.1209
17859SOL    HW156854   8.308   9.916   7.134  0.3250 -0.2229 -0.7510
17859SOL    HW256855   8.386  10.035   7.083 -0.1032  0.8903  1.1060
17860SOL     OW56856   1.764   6.565   9.247  0.4595 -0.2825  0.3885
17860SOL    HW156857   1.766   6.492   9.185  0.8159 -0.7587  0.9451
17860SOL    HW256858   1.816   6.534   9.321  1.5193  0.9456  0.1847
17861SOL     OW56859   7.188   5.798   3.161 -0.3586 -0.4212  0.6087
17861SOL    HW156860   7.101   5.815   3.197 -0.6369  2.0148 -0.9614
17861SOL    HW256861   7.172   5.736   3.089 -0.5478 -1.0917  1.2096
17862SOL     OW56862   7.708  10.842   5.143 -0.2722 -0.8193 -0.2849
17862SOL    HW156863   7.624  10.812   5.178  0.2286 -0.5518  1.2201
17862SOL    HW256864   7.750  10.761   5.112 -0.9251 -1.0027 -0.7135
17863SOL     OW56865   3.110   8.351   3.809 -0.5911 -1.0265  0.8158
17863SOL    HW156866   3.143   8.318   3.725 -0.1424  0.1113  0.5340
17863SOL    HW256867   3.166   8.311   3.875  1.6823  1.1535  0.3336
17864SOL     OW56868   2.868   4.757   0.177 -0.6584  0.1591 -0.5912
17864SOL    HW156869   2.802   4.823   0.155 -1.4570  1.1077  3.6936
17864SOL    HW256870   2.950   4.806   0.181 -0.5841  0.0691 -0.9466
17865SOL     OW56871   3.657   6.375   5.558  0.2242  0.3079 -0.0480
17865SOL    HW156872   3.677   6.284   5.580 -0.0093  0.2106 -0.2375
17865SOL    HW256873   3.582   6.370   5.499  0.9391  0.5466 -0.9986
17866SOL     OW56874   7.302   1.139   3.985  0.1208  0.0872  0.1935
17866SOL    HW156875   7.391   1.106   3.974  0.4356  1.0198 -0.0810
17866SOL    HW256876   7.250   1.060   4.004  0.9623 -0.4856  0.1755
17867SOL     OW56877   3.952  10.555   8.309  0.0102  0.4582  0.6737
17867SOL    HW156878   3.952  10.623   8.376 -0.4754  1.1233  0.0051
17867SOL    HW256879   3.865  10.515   8.316 -0.0684  0.5805  0.3887
17868SOL     OW56880   1.252   6.064   9.332 -0.0214 -0.1692  0.0794
17868SOL    HW156881   1.332   6.075   9.281 -1.3920  1.7588 -1.8127
17868SOL    HW256882   1.243   5.969   9.341  2.3533 -0.4390  0.2391
17869SOL     OW56883   5.915  10.359   7.652 -0.6874 -0.2659 -0.3768
17869SOL    HW156884   5.852  10.355   7.724 -0.7033  1.8402 -0.1993
17869SOL    HW256885   5.861  10.359   7.573 -0.8402  0.1072 -0.2757
17870SOL     OW56886   2.774   5.817   2.357 -0.5394  0.1277 -0.2917
17870SOL    HW156887   2.784   5.808   2.451  1.2042 -0.5904 -0.5019
17870SOL    HW256888   2.859   5.789   2.321 -1.3650 -0.2202 -2.0955
17871SOL     OW56889   2.272   5.216   8.055  0.0071 -0.3637 -0.2329
17871SOL    HW156890   2.239   5.130   8.029  0.8585 -0.5365 -0.8073
17871SOL    HW256891   2.345   5.233   7.994 -0.1369  0.7548 -0.1167
17872SOL     OW56892   3.440  11.231   0.557  0.4203 -0.1791  0.4029
17872SOL    HW156893   3.447  11.179   0.637  2.2298  0.7922  0.9309
17872SOL    HW256894   3.360  11.200   0.515  1.0106 -2.8078  1.0588
17873SOL     OW56895   2.519   2.883   6.537 -0.0244  0.4844 -0.2983
17873SOL    HW156896   2.533   2.850   6.448  3.3321 -0.5102  0.4574
17873SOL    HW256897   2.513   2.804   6.590 -0.9584  1.0839  0.5164
17874SOL     OW56898  10.054   0.054   7.990  0.0219  0.3781  0.2417
17874SOL    HW156899  10.018  -0.020   7.940 -1.1214 -0.9796  2.8998
17874SOL    HW256900  10.103   0.014   8.061  1.0453  2.2337  0.6546
17875SOL     OW56901   9.072   0.679   6.117 -0.2525  0.3328 -0.2874
17875SOL    HW156902   9.167   0.669   6.123 -0.3585 -0.9705 -0.4411
17875SOL    HW256903   9.041   0.677   6.208 -0.2339 -0.6613 -0.2860
17876SOL     OW56904  10.640   6.774   8.946  0.4571  0.2820  0.4407
17876SOL    HW156905  10.564   6.786   9.003 -0.6491 -2.6543 -0.2377
17876SOL    HW256906  10.688   6.856   8.952 -1.0235  1.0459  3.4607
17877SOL     OW56907   3.004   7.832   4.059  0.0767  0.3125  0.1997
17877SOL    HW156908   2.963   7.768   4.001 -0.2072 -0.1891  0.9291
17877SOL    HW256909   3.046   7.895   4.001 -2.6767  1.5240 -0.6427
17878SOL     OW56910   6.020   5.835   0.014 -0.2641 -0.0351  0.0780
17878SOL    HW156911   5.932   5.872   0.018 -0.2154 -0.0369  1.8962
17878SOL    HW256912   6.006   5.740   0.009 -0.3565  0.0285 -1.1572
17879SOL     OW56913   0.184   3.128   9.537  0.0374  0.1693  0.1905
17879SOL    HW156914   0.181   3.085   9.623  2.0577  1.7769  1.1833
17879SOL    HW256915   0.168   3.220   9.557  2.0924  0.8167 -0.8803
17880SOL     OW56916  10.494   7.019   6.157 -0.6897  0.3897 -0.3504
17880SOL    HW156917  10.587   7.004   6.170 -1.0734 -1.5338  0.4474
17880SOL    HW256918  10.464   6.945   6.104 -1.7668  0.9864 -0.6102
17881SOL     OW56919   7.238   9.916   1.175 -0.6279  0.1214 -0.1151
17881SOL    HW156920   7.161   9.968   1.151 -0.1194  1.2051  0.4992
17881SOL    HW256921   7.294   9.920   1.097  0.5585  2.7532  0.7396
17882SOL     OW56922   3.470  10.671   8.275 -0.1180  0.4231  0.6077
17882SOL    HW156923   3.561  10.673   8.244 -0.1075  1.7122  0.6425
17882SOL    HW256924   3.421  10.715   8.207 -0.8992 -1.1398  0.1280
17883SOL     OW56925   5.188   6.094   2.484 -0.0370  0.1437 -0.3504
17883SOL    HW156926   5.181   6.059   2.396 -1.8705 -0.6762  0.0716
17883SOL    HW256927   5.098   6.092   2.518  0.8007 -0.9592  2.0411
17884SOL     OW56928   1.632  10.020   0.204  0.6697  0.3464 -0.3695
17884SOL    HW156929   1.692  10.001   0.132  1.6443  0.7209  0.3286
17884SOL    HW256930   1.651  10.111   0.228 -0.6640  0.7064 -0.5871
17885SOL     OW56931   7.169   1.674   5.895  0.2243 -0.7241 -0.1622
17885SOL    HW156932   7.111   1.615   5.846  1.3446 -0.2182 -2.1686
17885SOL    HW256933   7.112   1.744   5.925 -0.8345 -1.9988  0.9160
17886SOL     OW56934   4.940   5.163  11.227  0.1169 -0.1982  0.0709
17886SOL    HW156935   4.932   5.253  11.259 -0.1060 -0.8787  1.9989
17886SOL    HW256936   4.851   5.139  11.202  0.4438  0.7059 -2.3328
17887SOL     OW56937   6.636   1.165   8.631 -0.0944 -0.0040 -0.1100
17887SOL    HW156938   6.717   1.190   8.586  0.0807  1.0172  0.7355
17887SOL    HW256939   6.624   1.231   8.698 -2.5214  0.8304 -1.2336
17888SOL     OW56940   5.998   7.035   2.087  0.5297 -0.5826 -0.0241
17888SOL    HW156941   5.999   7.111   2.028 -0.4648 -0.3530  0.2357
17888SOL    HW256942   6.082   7.039   2.132  1.4286 -0.9178 -1.6064
17889SOL     OW56943   1.465   4.866   9.944 -0.0542 -0.0490  0.2891
17889SOL    HW156944   1.550   4.824   9.963  1.1557  1.3239 -1.7263
17889SOL    HW256945   1.449   4.845   9.852 -0.4762  2.0375 -0.1526
17890SOL     OW56946   1.691   6.626   4.233 -0.0421 -0.2897 -0.3037
17890SOL    HW156947   1.705   6.621   4.328 -0.8887 -1.3698 -0.2100
17890SOL    HW256948   1.726   6.712   4.208  2.1981 -0.8728  0.6128
17891SOL     OW56949   0.731   8.925   3.280 -0.5834 -0.0606  0.2527
17891SOL    HW156950   0.654   8.917   3.336  0.2739  0.5429  1.5536
17891SOL    HW256951   0.806   8.914   3.338  0.3469  1.0169 -0.6786
17892SOL     OW56952   9.446  10.854   0.426 -0.0787  0.6276 -0.0736
17892SOL    HW156953   9.397  10.833   0.346  0.8787 -0.8486 -0.3054
17892SOL    HW256954   9.488  10.938   0.407 -2.2839  1.8605  0.0618
17893SOL     OW56955   0.604   9.623   7.816  0.7998 -0.0914 -0.2197
17893SOL    HW156956   0.513   9.622   7.784  0.8160 -0.7919 -0.2671
17893SOL    HW256957   0.599   9.576   7.899  0.6769  2.0861  1.0700
17894SOL     OW56958  10.828   9.328   6.059 -0.2715  0.4837  0.4978
17894SOL    HW156959  10.877   9.248   6.074  0.7089  0.7198 -1.1726
17894SOL    HW256960  10.894   9.397   6.057 -0.3915  0.6770 -2.8870
17895SOL     OW56961   4.874   2.159   9.745  0.0060  0.2481 -0.1877
17895SOL    HW156962   4.842   2.188   9.660 -1.7079 -2.3320 -0.5448
17895SOL    HW256963   4.834   2.219   9.808 -1.4814  0.1814 -1.0210
17896SOL     OW56964   1.193   2.060   8.643  0.1251 -0.1573 -0.1652
17896SOL    HW156965   1.254   2.065   8.716 -0.1290 -1.6662  0.1765
17896SOL    HW256966   1.221   2.130   8.584  0.4722  0.9502  1.2472
17897SOL     OW56967   0.783  10.475   6.111  0.2887 -0.4652  0.1484
17897SOL    HW156968   0.794  10.427   6.193 -2.6582 -0.9631  0.3501
17897SOL    HW256969   0.792  10.408   6.043  1.7252 -0.2362  0.0927
17898SOL     OW56970   4.876   5.227   6.616  0.1686 -0.2265 -0.3196
17898SOL    HW156971   4.837   5.282   6.548  0.3069  0.6612  0.2946
17898SOL    HW256972   4.802   5.197   6.669  0.2331  0.9058  0.4448
17899SOL     OW56973   2.893   5.768   8.240 -0.5758  0.0105 -0.5058
17899SOL    HW156974   2.975   5.723   8.260 -0.6592  0.2810  0.4498
17899SOL    HW256975   2.851   5.781   8.324 -1.3970  0.2857 -0.9475
17900SOL     OW56976   0.332   1.992   8.476 -0.5398 -0.4638  0.4834
17900SOL    HW156977   0.333   1.960   8.386 -0.6390 -1.5392  0.8465
17900SOL    HW256978   0.424   1.995   8.502 -0.4554  0.5563  0.1234
17901SOL     OW56979   9.039   7.427   2.996  0.4990  0.5938  0.6490
17901SOL    HW156980   9.058   7.417   2.902 -1.0459  1.2018  0.2298
17901SOL    HW256981   9.031   7.521   3.008  0.5266  0.5056  1.3681
17902SOL     OW56982   1.334   1.732   9.131 -0.0615 -0.1539  0.6076
17902SOL    HW156983   1.364   1.647   9.098  1.4016 -0.2865  2.1200
17902SOL    HW256984   1.335   1.789   9.054  0.1071 -1.2061 -0.1982
17903SOL     OW56985   6.412   2.882   5.311  0.1659 -0.0001  0.0695
17903SOL    HW156986   6.389   2.876   5.218 -1.7041 -1.4854  0.5669
17903SOL    HW256987   6.488   2.825   5.321 -0.6313 -1.1691 -0.2905
17904SOL     OW56988   2.252   4.264   4.832  0.1909  0.2941 -0.0433
17904SOL    HW156989   2.293   4.178   4.826  0.6263  0.5254 -0.5062
17904SOL    HW256990   2.205   4.263   4.915 -0.4708 -0.6739 -0.4071
17905SOL     OW56991  10.915   0.321   9.448 -0.0365 -0.1045  0.0864
17905SOL    HW156992  10.853   0.357   9.385 -0.9299  1.2779  1.6351
17905SOL    HW256993  10.921   0.389   9.516  1.3853 -1.2185  1.1406
17906SOL     OW56994   2.143   5.240   9.994  0.2043 -0.6000  0.2636
17906SOL    HW156995   2.225   5.279   9.964 -0.7508  2.1779  0.9977
17906SOL    HW256996   2.161   5.210  10.083  0.1354  1.1240  0.8842
17907SOL     OW56997   7.163   6.544   7.067  0.0717  0.0980  0.0475
17907SOL    HW156998   7.173   6.635   7.094  0.0848 -0.3102  1.4583
17907SOL    HW256999   7.210   6.493   7.133 -0.9983 -1.0298 -0.0188
17908SOL     OW57000   6.335   4.691   9.655 -0.2647 -0.0440 -0.0939
17908SOL    HW157001   6.378   4.772   9.629  0.1421 -0.2600 -0.1031
17908SOL    HW257002   6.397   4.649   9.715 -0.5622 -0.2460  0.0741
17909SOL     OW57003   3.090   8.815   4.838 -0.1627 -0.3880  0.1489
17909SOL    HW157004   3.114   8.863   4.759  0.8916 -1.7002 -0.3757
17909SOL    HW257005   3.054   8.881   4.896 -2.0840  0.4401 -1.8486
17910SOL     OW57006  10.695   1.286   4.495  0.1492 -0.4669 -0.1067
17910SOL    HW157007  10.704   1.362   4.553  2.5670 -0.5906 -0.1794
17910SOL    HW257008  10.731   1.316   4.411 -0.1464 -1.2859 -0.5367
17911SOL     OW57009  10.733  10.018  11.315 -0.6523 -0.1258 -0.0876
17911SOL    HW157010  10.728  10.093  11.375 -2.5949  0.3296 -0.7484
17911SOL    HW257011  10.801   9.962  11.353  0.0848  1.4336  1.0276
17912SOL     OW57012   3.402   5.871   6.355 -0.0612 -0.0744 -0.1408
17912SOL    HW157013   3.453   5.952   6.346  0.8353 -0.6488 -0.3548
17912SOL    HW257014   3.429   5.834   6.439  1.5230 -1.4777 -1.2106
17913SOL     OW57015   8.240   3.355   6.306 -0.7519  0.4090  0.2362
17913SOL    HW157016   8.291   3.416   6.359  1.4992 -0.1880 -1.1076
17913SOL    HW257017   8.239   3.394   6.218  0.8824 -1.4967 -0.6950
17914SOL     OW57018   3.178   2.196  10.520 -0.3404  0.3784  0.7617
17914SOL    HW157019   3.215   2.121  10.473 -0.5763  0.1394  0.9567
17914SOL    HW257020   3.253   2.254  10.536 -0.1454  0.1493  0.6766
17915SOL     OW57021   4.846   4.078  11.100  0.4078  0.3666 -0.4312
17915SOL    HW157022   4.788   4.062  11.175 -0.2937 -2.4690 -1.4494
17915SOL    HW257023   4.790   4.121  11.036 -0.2527 -1.1203 -0.8936
17916SOL     OW57024   0.400   4.269   6.542 -0.4594  1.3099  0.2880
17916SOL    HW157025   0.442   4.246   6.459  0.2572 -1.4233  1.2981
17916SOL    HW257026   0.470   4.311   6.593 -0.1993  0.7989  0.3603
17917SOL     OW57027   9.566   2.038   6.896  0.1365  0.4513 -0.3576
17917SOL    HW157028   9.482   2.083   6.890 -0.4507 -0.5480  0.1750
17917SOL    HW257029   9.627   2.105   6.927 -0.5819  1.0330 -0.1906
17918SOL     OW57030   0.092   1.221   1.394  0.1576  0.1385 -0.3572
17918SOL    HW157031   0.176   1.265   1.396 -0.0003  0.4062  0.6274
17918SOL    HW257032   0.105   1.146   1.335  1.3609 -0.3775  0.5258
17919SOL     OW57033  10.077   5.087   7.843  0.3614 -0.4841 -0.0113
17919SOL    HW157034  10.070   5.146   7.919  2.0555 -1.6713  1.1660
17919SOL    HW257035  10.007   5.114   7.785  1.0513  2.7151  0.4378
17920SOL     OW57036   7.794   4.531   3.123 -0.3843 -0.2236  0.3283
17920SOL    HW157037   7.763   4.493   3.041  1.4918 -0.3518 -0.3692
17920SOL    HW257038   7.762   4.472   3.191 -2.7883  0.3992 -0.1756
17921SOL     OW57039   2.689   3.789  11.215 -0.2763 -0.3992 -0.0680
17921SOL    HW157040   2.687   3.844  11.137  2.9865 -0.7206 -0.5183
17921SOL    HW257041   2.644   3.708  11.188  1.1010 -0.6528 -1.8212
17922SOL     OW57042   1.454   8.068   5.564  0.0886 -0.1469 -0.5334
17922SOL    HW157043   1.426   7.989   5.518 -1.6226 -0.1022  0.3779
17922SOL    HW257044   1.509   8.035   5.636  0.6896 -0.3801 -1.0893
17923SOL     OW57045   9.254   5.587  10.047  0.1348 -0.0089  0.2412
17923SOL    HW157046   9.305   5.631  10.115  2.0051 -1.2470 -0.2763
17923SOL    HW257047   9.171   5.633  10.046  1.1437  1.9706  1.3071
17924SOL     OW57048   0.219   4.892   6.259  0.0010 -0.2309 -0.1698
17924SOL    HW157049   0.142   4.941   6.228 -0.5585 -0.7757  0.3435
17924SOL    HW257050   0.231   4.922   6.349  1.3837  1.0508 -0.7384
17925SOL     OW57051  10.675  10.039   9.990  0.3243  0.5189  0.6531
17925SOL    HW157052  10.683  10.026  10.085  0.8825 -0.1781  0.5211
17925SOL    HW257053  10.690   9.952   9.953  0.3407  0.8351 -0.0885
17926SOL     OW57054   3.589   0.460   4.266  0.5196 -0.7043  0.4976
17926SOL    HW157055   3.645   0.483   4.192 -1.3967  0.9748 -0.5042
17926SOL    HW257056   3.545   0.379   4.240  0.0555 -0.2640 -0.0924
17927SOL     OW57057   8.274   3.297   7.177  0.1002  0.1072  0.3887
17927SOL    HW157058   8.217   3.365   7.140  0.6550 -0.4802 -1.7050
17927SOL    HW257059   8.250   3.293   7.269 -1.9378  1.1780 -0.0311
17928SOL     OW57060   2.291   3.217   5.543 -0.3393 -0.1281  0.5323
17928SOL    HW157061   2.263   3.215   5.634 -1.1388 -0.0830  0.2942
17928SOL    HW257062   2.385   3.198   5.546 -0.3705 -0.1784  1.3542
17929SOL     OW57063   5.997   5.471   3.254  0.1926  0.6395 -0.0365
17929SOL    HW157064   5.971   5.453   3.164 -0.7065  0.2351  0.2902
17929SOL    HW257065   6.084   5.431   3.263 -0.9166 -1.9796  0.1030
17930SOL     OW57066  10.137   2.691   5.379  0.2833 -0.0961  0.1637
17930SOL    HW157067  10.208   2.716   5.438  0.0054  1.1764 -0.0175
17930SOL    HW257068  10.164   2.725   5.294 -0.7092  0.7048  0.1671
17931SOL     OW57069   7.573   4.125  11.131 -0.6519  0.0174 -0.8904
17931SOL    HW157070   7.611   4.039  11.148  1.6132  1.0009 -0.6160
17931SOL    HW257071   7.509   4.137  11.201  1.2241 -0.2252  0.9792
17932SOL     OW57072  11.231   2.999   2.337  0.2866 -0.3065  0.5076
17932SOL    HW157073  11.166   3.005   2.408 -2.0162  1.3459 -1.5702
17932SOL    HW257074  11.187   3.038   2.261  3.3192 -0.2650 -1.3806
17933SOL     OW57075   6.471   3.702  11.013 -0.1395  0.1076  0.7711
17933SOL    HW157076   6.437   3.613  11.011  0.9227 -0.3423  1.5547
17933SOL    HW257077   6.551   3.696  11.065  0.0003  1.5075  0.7649
17934SOL     OW57078   8.522   9.673   1.634  0.2170 -0.3191 -0.0733
17934SOL    HW157079   8.554   9.650   1.721 -2.4104 -0.2275  1.0276
17934SOL    HW257080   8.533   9.593   1.582  1.1328 -0.6129  0.5538
17935SOL     OW57081   0.656   3.052   3.443 -0.3181 -0.0415  0.6302
17935SOL    HW157082   0.643   2.966   3.483  0.5799 -0.4701  0.0258
17935SOL    HW257083   0.739   3.045   3.397 -2.1200 -0.1965 -2.9549
17936SOL     OW57084   7.245   9.099   9.940  0.8197 -0.1139 -0.0245
17936SOL    HW157085   7.329   9.053   9.947  1.1211  0.3161 -0.8059
17936SOL    HW257086   7.234   9.116   9.847 -0.4599 -0.7566 -0.0081
17937SOL     OW57087   1.024   0.466   6.001 -0.5962  0.2671  0.4338
17937SOL    HW157088   0.967   0.431   6.069  0.7085 -0.4600  1.2087
17937SOL    HW257089   1.001   0.559   5.995 -1.7233  0.0247  0.8364
17938SOL     OW57090   1.562   9.741   4.352  0.4254 -0.3915  0.5289
17938SOL    HW157091   1.590   9.827   4.319  1.2571 -1.4032 -1.6371
17938SOL    HW257092   1.509   9.761   4.429  1.1778  2.0151  0.5227
17939SOL     OW57093  11.050   4.010   3.203  0.1766 -0.3174 -0.2201
17939SOL    HW157094  11.125   4.068   3.196 -0.2984  0.1587 -1.7066
17939SOL    HW257095  11.088   3.923   3.214  0.9280  0.0100 -0.1959
17940SOL     OW57096   6.759  11.072   7.484 -0.3074  0.2861 -0.1384
17940SOL    HW157097   6.783  11.159   7.450  0.8513 -0.7050 -2.0636
17940SOL    HW257098   6.843  11.028   7.499 -0.8303 -1.3269 -1.5926
17941SOL     OW57099   6.250   2.978   9.271  0.0811 -0.8114 -0.1403
17941SOL    HW157100   6.338   2.989   9.235 -0.3290 -1.0611 -1.2705
17941SOL    HW257101   6.202   3.056   9.241 -1.0610 -2.3631 -2.6655
17942SOL     OW57102   2.454   7.568   6.052  0.6378 -0.0189  0.3599
17942SOL    HW157103   2.417   7.655   6.036  3.7610  1.2398 -0.7015
17942SOL    HW257104   2.483   7.570   6.143  0.1312 -0.1981  0.5276
17943SOL     OW57105  10.469   7.965   1.610  0.1834 -0.3126  0.6266
17943SOL    HW157106  10.470   7.870   1.620  2.0119 -0.2331  1.7412
17943SOL    HW257107  10.555   7.986   1.574 -0.1922  0.9226  0.3892
17944SOL     OW57108   0.209   8.587   3.692 -0.2362 -0.5974 -0.4995
17944SOL    HW157109   0.144   8.516   3.697 -0.6059 -0.2456 -0.2061
17944SOL    HW257110   0.231   8.605   3.784 -1.7583  1.1141 -0.4160
17945SOL     OW57111   1.244   2.315   3.186 -0.6687  0.5137  0.5770
17945SOL    HW157112   1.310   2.292   3.121 -0.3616  2.6460  0.0726
17945SOL    HW257113   1.162   2.322   3.137 -0.6521  1.0285  0.6197
17946SOL     OW57114   0.415   0.346   4.698 -0.7380  0.1860 -0.6808
17946SOL    HW157115   0.416   0.252   4.716 -4.0628 -0.0240 -1.0724
17946SOL    HW257116   0.364   0.385   4.769 -0.5507  1.5256 -1.2393
17947SOL     OW57117   1.731   4.308   4.225 -0.1876  0.2549 -0.0705
17947SOL    HW157118   1.773   4.284   4.142  0.6567 -0.6655  0.6017
17947SOL    HW257119   1.730   4.227   4.276  0.1919  1.0264  1.1983
17948SOL     OW57120   4.618   7.006   9.574  0.0921  0.0675  0.5252
17948SOL    HW157121   4.685   7.024   9.640  0.7933  0.0982 -0.1850
17948SOL    HW257122   4.612   7.087   9.523 -0.3591  0.0030  0.4688
17949SOL     OW57123   7.239   7.927   3.129  0.3307 -0.0167  0.1632
17949SOL    HW157124   7.229   7.853   3.188  0.4146  0.4632  0.7942
17949SOL    HW257125   7.264   7.888   3.046  0.5900 -0.6824  0.5446
17950SOL     OW57126  10.612   3.931  11.124 -0.1367 -0.4924  0.5481
17950SOL    HW157127  10.546   3.896  11.065  0.1239  0.9144 -0.6557
17950SOL    HW257128  10.662   3.854  11.153 -0.8978 -1.3251 -0.2867
17951SOL     OW57129  10.591   4.684   1.547 -0.6516  0.2163  0.7045
17951SOL    HW157130  10.612   4.643   1.463 -1.3696  0.8394  0.2152
17951SOL    HW257131  10.620   4.620   1.612  1.5078  0.4350  0.0483
17952SOL     OW57132   8.032  11.373   6.609  0.4097 -0.0968  0.2686
17952SOL    HW157133   7.948  11.328   6.605  0.8150 -1.0122  1.3353
17952SOL    HW257134   8.018  11.456   6.565 -1.3055  0.1700  1.2530
17953SOL     OW57135   0.327   3.231   6.525 -0.1301 -0.1730 -0.0410
17953SOL    HW157136   0.244   3.185   6.512 -0.3235  0.0197  0.4921
17953SOL    HW257137   0.379   3.207   6.449 -0.5645 -0.5382 -0.2317
17954SOL     OW57138   4.731   4.679   7.228 -0.1730  0.6545 -0.0627
17954SOL    HW157139   4.716   4.773   7.221  0.7677  0.9165  1.2155
17954SOL    HW257140   4.766   4.654   7.142  0.0708  1.5585 -0.2311
17955SOL     OW57141   5.511   0.246   2.291 -0.4599  0.4777 -0.7341
17955SOL    HW157142   5.555   0.312   2.237  1.7936 -0.7937 -0.5927
17955SOL    HW257143   5.499   0.289   2.376  1.8926  0.4898 -0.3275
17956SOL     OW57144  10.154   1.140   6.222  0.3893  0.3737 -0.5200
17956SOL    HW157145  10.173   1.136   6.128  1.2669  1.3066 -0.4001
17956SOL    HW257146  10.138   1.233   6.239  2.1023  0.5065  0.5779
17957SOL     OW57147   3.494  10.041   2.260  0.1749 -0.0189  0.1885
17957SOL    HW157148   3.555  10.105   2.223  0.7329  0.0859  1.2681
17957SOL    HW257149   3.407  10.074   2.236  0.5066 -0.3865 -1.7294
17958SOL     OW57150   5.786   1.885   8.882 -0.0226 -0.0317  0.2841
17958SOL    HW157151   5.741   1.875   8.966  1.1989 -0.0789  0.9525
17958SOL    HW257152   5.847   1.811   8.878  0.0149  0.0302 -0.6059
17959SOL     OW57153   8.947   3.785   3.346 -0.2068  0.2119 -0.5934
17959SOL    HW157154   8.871   3.830   3.311 -0.3947 -1.0609 -1.9252
17959SOL    HW257155   8.988   3.744   3.270  0.5641 -0.9326  0.3908
17960SOL     OW57156   2.929   5.685   9.745  0.1013 -0.0279 -0.0781
17960SOL    HW157157   2.896   5.721   9.827  0.9810 -0.6152  0.5670
17960SOL    HW257158   2.867   5.615   9.723 -0.3431  0.3767 -0.1084
17961SOL     OW57159   2.830  10.308   2.554 -0.6393 -0.0767  0.2922
17961SOL    HW157160   2.858  10.254   2.628 -1.0175 -1.6635 -0.6674
17961SOL    HW257161   2.898  10.296   2.488 -0.5041  1.0043  0.2241
17962SOL     OW57162  10.647   0.827   5.401 -0.2642 -0.1385 -0.0525
17962SOL    HW157163  10.599   0.910   5.403  0.6053  0.3681  0.7482
17962SOL    HW257164  10.739   0.852   5.394  0.1131 -0.9594  1.3635
17963SOL     OW57165   2.151   2.845   2.995 -0.2557  0.4127  0.4384
17963SOL    HW157166   2.153   2.938   2.975 -0.1029  0.4685  0.7076
17963SOL    HW257167   2.129   2.841   3.088 -0.9156  0.1598  0.2770
17964SOL     OW57168  10.360   7.199  10.911 -0.4438 -0.0678  0.0973
17964SOL    HW157169  10.364   7.269  10.846 -0.9437 -0.1863 -0.0671
17964SOL    HW257170  10.416   7.229  10.982 -0.2704  0.2794 -0.1824
17965SOL     OW57171   1.768   7.839   4.928 -0.0686 -0.2294  0.0012
17965SOL    HW157172   1.763   7.933   4.943 -0.0939 -0.1905 -0.2469
17965SOL    HW257173   1.858   7.825   4.896 -0.2029 -0.2309 -0.3733
17966SOL     OW57174   9.574   5.914   3.882  0.0391  0.2211  0.1584
17966SOL    HW157175   9.544   5.878   3.799 -0.8828  0.7903  0.2303
17966SOL    HW257176   9.535   5.857   3.948 -0.0447  0.3529  0.2236
17967SOL     OW57177   4.226   4.682   5.741  0.2367 -0.5169  0.3750
17967SOL    HW157178   4.295   4.693   5.806  0.0758  1.4068  0.2932
17967SOL    HW257179   4.259   4.727   5.663 -0.2519 -1.3951 -0.3607
17968SOL     OW57180   3.174  10.353   1.856 -0.3398 -0.0935  0.2176
17968SOL    HW157181   3.270  10.349   1.864 -0.1750 -0.3206 -1.5084
17968SOL    HW257182   3.156  10.320   1.768 -1.7958  2.4595 -0.5461
17969SOL     OW57183   4.290   9.717   0.616  0.1945 -0.1818  0.6336
17969SOL    HW157184   4.362   9.744   0.674  1.4312  0.5331 -1.1355
17969SOL    HW257185   4.267   9.797   0.569  0.1088 -1.0145 -0.7697
17970SOL     OW57186   9.987   4.204   5.752  0.1977 -0.1237 -0.1310
17970SOL    HW157187   9.893   4.191   5.757  0.0119  1.5042  2.1072
17970SOL    HW257188  10.023   4.116   5.768 -0.8744 -0.8542 -1.4745
17971SOL     OW57189  11.290   5.543   5.879  0.0275  0.3007 -0.3460
17971SOL    HW157190  11.269   5.534   5.786 -0.6810 -0.4134 -0.1190
17971SOL    HW257191  11.315   5.455   5.907  1.2107  0.6988 -0.0824
17972SOL     OW57192   4.425   6.520   0.130  0.4274  0.4536  0.0364
17972SOL    HW157193   4.449   6.453   0.195  1.0116  1.3869  0.8218
17972SOL    HW257194   4.449   6.603   0.172 -0.1704  1.1490 -0.9622
17973SOL     OW57195   1.079   4.707   1.947  0.0450 -0.5584 -0.1926
17973SOL    HW157196   1.122   4.741   2.025 -1.1100 -0.0869  0.2547
17973SOL    HW257197   0.992   4.748   1.947 -0.1391 -0.8931 -1.4786
17974SOL     OW57198   7.610   0.264   6.746  0.9721 -0.4264  0.2662
17974SOL    HW157199   7.515   0.268   6.750  0.9796 -0.0910  0.1587
17974SOL    HW257200   7.636   0.349   6.710  1.1675 -1.4464 -2.1789
17975SOL     OW57201   9.920   4.919   6.125  0.1028  0.5063 -0.1291
17975SOL    HW157202   9.971   4.838   6.135  0.0147  0.4127 -0.4112
17975SOL    HW257203   9.983   4.984   6.095 -0.4178 -0.3187 -3.4433
17976SOL     OW57204   6.550   4.833   7.625 -0.1761  0.1654  0.3570
17976SOL    HW157205   6.491   4.791   7.562 -0.3528 -0.6567  1.0664
17976SOL    HW257206   6.554   4.773   7.699  0.8409  0.6432  0.7085
17977SOL     OW57207   8.113   8.675   8.794 -0.0567 -0.1702 -0.4937
17977SOL    HW157208   8.204   8.676   8.765 -0.8404  1.0454 -3.2178
17977SOL    HW257209   8.082   8.764   8.778 -1.6040 -0.4154  0.9003
17978SOL     OW57210   3.330   7.290   1.819  0.1723  0.1583  0.2174
17978SOL    HW157211   3.322   7.202   1.783 -0.7656  0.7071 -0.9795
17978SOL    HW257212   3.409   7.286   1.874  0.6288 -1.1935 -0.4841
17979SOL     OW57213   8.570   0.462   1.702 -0.1040  0.2393  0.2190
17979SOL    HW157214   8.664   0.450   1.689 -0.1867  1.0554 -1.4256
17979SOL    HW257215   8.533   0.456   1.614 -1.3262  2.1586  0.5411
17980SOL     OW57216  10.990   3.407   0.663 -0.9538 -0.1485  0.1698
17980SOL    HW157217  10.941   3.335   0.701 -1.2208 -1.1683 -1.9429
17980SOL    HW257218  10.938   3.485   0.682 -1.5611 -0.7401  0.9833
17981SOL     OW57219   8.735   6.573   4.244  0.2059 -0.1081 -0.2122
17981SOL    HW157220   8.802   6.641   4.254 -0.1953  0.2828 -0.1456
17981SOL    HW257221   8.689   6.572   4.329  0.4600 -0.7316 -0.0796
17982SOL     OW57222   5.245   4.803   3.782 -0.0896  0.0189 -0.1714
17982SOL    HW157223   5.182   4.856   3.734  0.2706 -0.5044 -1.2673
17982SOL    HW257224   5.206   4.716   3.785  0.9719 -0.5627 -1.7392
17983SOL     OW57225   5.365   9.633   1.133 -0.3767 -0.0138 -0.1324
17983SOL    HW157226   5.324   9.548   1.120 -2.1272  0.7897 -0.2232
17983SOL    HW257227   5.452   9.625   1.096 -0.2529 -1.9712  0.5130
17984SOL     OW57228   5.822   6.748   7.008 -0.3594  0.2197  0.2676
17984SOL    HW157229   5.867   6.769   7.090  0.9822 -0.2554 -0.3124
17984SOL    HW257230   5.831   6.827   6.955 -0.7356  0.3298  0.3649
17985SOL     OW57231  11.013   6.513   4.365  0.4152 -0.1258  0.3112
17985SOL    HW157232  11.067   6.585   4.332 -0.7383 -0.0079 -1.4889
17985SOL    HW257233  11.076   6.447   4.394  1.4936  1.2932  1.3063
17986SOL     OW57234   3.942   6.944   7.234 -0.1992  0.2390 -0.1290
17986SOL    HW157235   3.919   6.981   7.319 -0.5095  0.5161 -0.3336
17986SOL    HW257236   3.871   6.882   7.214 -1.6184  2.1866 -1.4525
17987SOL     OW57237   6.140   3.166   9.908 -0.2967  0.3215 -0.3952
17987SOL    HW157238   6.085   3.203   9.839  1.0975  1.2797 -1.0167
17987SOL    HW257239   6.191   3.239   9.941 -0.9099 -0.1173  1.6788
17988SOL     OW57240  11.051   4.097   9.023 -0.5086  0.8399  0.0034
17988SOL    HW157241  10.982   4.079   8.959  0.4140 -1.2693 -0.4920
17988SOL    HW257242  11.033   4.038   9.095  0.4945  0.6088  0.0778
17989SOL     OW57243  10.556   1.657  10.351  0.6864 -0.5597  0.1661
17989SOL    HW157244  10.616   1.676  10.279 -0.6462  1.5450 -0.4779
17989SOL    HW257245  10.597   1.698  10.428  0.2562  0.6011 -0.2073
17990SOL     OW57246   5.683   1.062   4.957  0.6196  0.5169 -0.2831
17990SOL    HW157247   5.650   1.098   5.040  1.3613  1.2737 -0.3030
17990SOL    HW257248   5.604   1.047   4.905 -0.0003 -1.4515  1.1185
17991SOL     OW57249   2.742   6.833   2.772  0.5371  0.6383  0.4503
17991SOL    HW157250   2.797   6.864   2.700 -0.4077  2.4595  0.4530
17991SOL    HW257251   2.775   6.745   2.791  0.8731  0.1160 -2.1377
17992SOL     OW57252  11.233   4.119   6.396  0.2576 -0.7214 -0.6951
17992SOL    HW157253  11.177   4.069   6.336  1.5546 -0.8626 -1.8388
17992SOL    HW257254  11.322   4.103   6.364  0.8300  0.8894  0.0154
17993SOL     OW57255  10.720   8.761   6.738  0.4827  0.1988 -0.4273
17993SOL    HW157256  10.682   8.674   6.748 -0.1742  0.5364  0.1842
17993SOL    HW257257  10.775   8.772   6.816 -1.2002  1.1604  0.7059
17994SOL     OW57258   5.295   1.328   8.547  0.1598 -0.2354  0.7950
17994SOL    HW157259   5.231   1.348   8.479  0.5021 -0.2823  0.4540
17994SOL    HW257260   5.358   1.401   8.543  0.6652 -0.6814  0.4613
17995SOL     OW57261   7.499   9.966   9.111  0.0725  0.3541  0.4195
17995SOL    HW157262   7.416   9.919   9.110  0.4422 -0.3077 -0.5841
17995SOL    HW257263   7.549   9.925   9.182 -0.6941  1.2076  1.4735
17996SOL     OW57264   2.197   9.723   4.876  0.0028 -0.2826  0.0459
17996SOL    HW157265   2.194   9.755   4.786 -1.4844 -0.0399  0.1576
17996SOL    HW257266   2.213   9.629   4.868 -0.2836 -0.2864 -0.4908
17997SOL     OW57267   2.823  10.900   7.910  0.3310  0.3650  0.1153
17997SOL    HW157268   2.783  10.943   7.985  0.1002 -2.0228  1.4718
17997SOL    HW257269   2.914  10.929   7.911  0.4126  0.1233  1.5375
17998SOL     OW57270   4.830   3.870   6.817 -0.5253 -0.0339 -0.3727
17998SOL    HW157271   4.791   3.897   6.734 -0.4221 -1.0012 -0.7565
17998SOL    HW257272   4.800   3.780   6.829 -1.4460  0.4536  1.2077
17999SOL     OW57273   4.901   7.826   3.808 -0.3050  0.6233  0.5800
17999SOL    HW157274   4.826   7.871   3.769 -2.7296 -3.4387  0.0633
17999SOL    HW257275   4.959   7.808   3.733  0.4797  2.3432  0.7292
18000SOL     OW57276   4.422   2.522   7.013 -0.2446  0.0652  0.6312
18000SOL    HW157277   4.517   2.526   7.026 -0.2920  0.7612  0.7982
18000SOL    HW257278   4.409   2.547   6.922 -0.2570 -0.2085  0.5571
18001SOL     OW57279   5.055   1.637   1.317 -0.4336 -0.0670 -0.2198
18001SOL    HW157280   5.073   1.544   1.306 -0.1518 -0.2264  1.4210
18001SOL    HW257281   4.961   1.645   1.300 -0.1096 -0.2845 -2.3874
18002SOL     OW57282   1.412   6.522   6.877 -0.2381  0.1152 -0.6895
18002SOL    HW157283   1.457   6.470   6.810 -2.4331  0.5717 -2.6189
18002SOL    HW257284   1.373   6.456   6.935 -1.1047 -0.3893 -1.8107
18003SOL     OW57285   4.025   7.243   3.696  0.0917  0.8073 -0.8113
18003SOL    HW157286   4.090   7.211   3.759  1.9461  1.8861 -2.0907
18003SOL    HW257287   3.986   7.319   3.739 -2.1548 -1.1923  0.9599
18004SOL     OW57288   2.511   7.136   1.186 -0.2993  0.1389  0.1367
18004SOL    HW157289   2.595   7.120   1.230 -0.0482  1.0474  0.0099
18004SOL    HW257290   2.533   7.194   1.113 -1.0602  0.4846  0.1745
18005SOL     OW57291   9.540   7.830   9.272  0.0066 -0.2127  0.0446
18005SOL    HW157292   9.526   7.899   9.208 -0.0458 -0.2631  0.0014
18005SOL    HW257293   9.620   7.785   9.244  0.5709  0.4202  0.5951
18006SOL     OW57294   8.060   8.140   8.142 -0.4679 -0.3580 -0.8249
18006SOL    HW157295   8.077   8.217   8.088  2.1920 -0.4594 -0.3145
18006SOL    HW257296   8.146   8.119   8.180 -1.6346 -2.0563  1.0587
18007SOL     OW57297   1.928  10.436  10.038  0.5186 -0.8214 -0.2815
18007SOL    HW157298   2.018  10.439  10.070  0.8577 -0.2450 -1.2284
18007SOL    HW257299   1.921  10.352   9.993  0.6992 -0.7081 -0.5231
18008SOL     OW57300   0.112   0.490   5.974 -0.2737 -0.2011 -0.5557
18008SOL    HW157301   0.039   0.534   5.931 -0.3153 -0.1357 -0.4176
18008SOL    HW257302   0.190   0.534   5.940 -0.3411  0.3599  0.0161
18009SOL     OW57303   0.741   6.125  10.754  0.1156  0.2960  0.2617
18009SOL    HW157304   0.732   6.126  10.849  0.0862  0.1071  0.2618
18009SOL    HW257305   0.651   6.132  10.721  0.0560 -0.3820  0.2545
18010SOL     OW57306   7.230   9.880   7.335  0.3187 -0.7067 -0.2025
18010SOL    HW157307   7.323   9.901   7.347  0.2015  0.3387 -1.0213
18010SOL    HW257308   7.205   9.836   7.417  1.1787  0.2599  0.6057
18011SOL     OW57309   1.588   6.309   1.795 -0.5984  0.3538  0.1375
18011SOL    HW157310   1.683   6.297   1.792 -0.7798 -1.3692 -0.1598
18011SOL    HW257311   1.558   6.240   1.854 -1.6169  1.3288  0.7897
18012SOL     OW57312   3.837  10.405   6.581 -0.1879  0.7049  0.0267
18012SOL    HW157313   3.765  10.428   6.639 -0.7779  1.2567 -0.9139
18012SOL    HW257314   3.799  10.344   6.518 -0.8977  3.7586 -2.7785
18013SOL     OW57315   9.530   0.578   0.855 -0.1920  0.0450  0.0377
18013SOL    HW157316   9.453   0.574   0.910 -0.1602  1.2401  0.2083
18013SOL    HW257317   9.603   0.583   0.916 -0.1330  1.0298 -0.0949
18014SOL     OW57318   0.060   2.255   4.999 -0.3112  0.2139  0.4926
18014SOL    HW157319   0.112   2.272   5.077  0.2554  0.7191  0.0179
18014SOL    HW257320   0.124   2.249   4.928 -0.8076 -0.3423  0.0791
18015SOL     OW57321   1.281   3.132   9.519  0.3409 -0.0576 -0.0087
18015SOL    HW157322   1.295   3.099   9.608 -0.3097 -2.3458 -0.6916
18015SOL    HW257323   1.367   3.127   9.478  0.7372  1.4276  0.5832
18016SOL     OW57324   2.150   0.309   8.984  0.2671  0.0528 -0.1563
18016SOL    HW157325   2.113   0.309   8.895  1.0955  2.1565 -0.5854
18016SOL    HW257326   2.074   0.313   9.042 -0.2829 -1.2672 -0.7555
18017SOL     OW57327   4.281   0.644   8.253  0.3462  0.0898 -0.2004
18017SOL    HW157328   4.304   0.585   8.325 -0.0029 -0.3628 -0.4566
18017SOL    HW257329   4.263   0.728   8.296 -0.2329 -0.2729  0.2791
18018SOL     OW57330   4.132   6.527   1.779  0.3113 -0.9469 -0.0009
18018SOL    HW157331   4.104   6.540   1.689  2.2198 -1.6998 -0.7466
18018SOL    HW257332   4.059   6.561   1.832 -0.3638  0.5567 -1.7968
18019SOL     OW57333   6.255   2.228  11.323 -0.0551 -0.1965  0.4804
18019SOL    HW157334   6.266   2.133  11.335  3.1995  0.1603  1.2474
18019SOL    HW257335   6.282   2.244  11.233 -0.6050  0.0127  0.3517
18020SOL     OW57336   0.480   1.796   2.304 -0.1563  0.0016  0.5870
18020SOL    HW157337   0.512   1.850   2.376 -0.9290 -0.6010  1.4054
18020SOL    HW257338   0.433   1.724   2.346  0.8337 -1.3223 -0.4666
18021SOL     OW57339   6.450  11.106  10.109 -0.4104 -0.4588 -1.2175
18021SOL    HW157340   6.517  11.114  10.041 -1.9072  0.9738 -2.6183
18021SOL    HW257341   6.429  11.013  10.111  1.7033 -0.9794 -0.6047
18022SOL     OW57342   6.180   3.499   4.667 -0.2858  0.5334 -0.2868
18022SOL    HW157343   6.142   3.414   4.688 -1.5966  1.3315  0.7070
18022SOL    HW257344   6.134   3.527   4.587 -0.8215  0.8786  0.1326
18023SOL     OW57345  10.168   4.611   8.887  0.6117 -0.0875  0.4841
18023SOL    HW157346  10.147   4.675   8.820 -0.6807 -0.4654  0.4996
18023SOL    HW257347  10.088   4.603   8.939  1.6560  0.4182  2.2784
18024SOL     OW57348   4.986   7.028  11.216  0.0116  0.1941 -0.1465
18024SOL    HW157349   5.021   7.080  11.144  0.0686  0.7698  0.2896
18024SOL    HW257350   4.906   7.074  11.242  0.9519  1.0760  1.3697
18025SOL     OW57351   6.896   0.151   1.115  0.1695 -0.2993 -0.0227
18025SOL    HW157352   6.914   0.105   1.034  0.9473 -0.9126  0.4904
18025SOL    HW257353   6.908   0.243   1.094 -0.8420 -0.3480 -0.9088
18026SOL     OW57354   6.002   8.072   5.730  0.6016  0.0106 -0.8357
18026SOL    HW157355   5.917   8.114   5.746  1.5791  1.5281  0.6720
18026SOL    HW257356   5.986   7.979   5.743 -1.0133  0.1507 -1.4992
18027SOL     OW57357   2.533   9.097   8.606  0.1791 -0.5583 -0.1200
18027SOL    HW157358   2.456   9.099   8.548 -0.2913  2.4069  0.4474
18027SOL    HW257359   2.607   9.081   8.547 -0.6056 -0.7163 -1.0860
18028SOL     OW57360   1.527   3.736   3.323 -0.6788 -0.5057  0.2130
18028SOL    HW157361   1.499   3.648   3.295  0.3317 -0.2961 -1.6178
18028SOL    HW257362   1.469   3.795   3.276 -2.1672 -0.1160  2.3595
18029SOL     OW57363   0.009   1.751   7.341  0.0499  0.0710 -0.3386
18029SOL    HW157364   0.044   1.784   7.258  0.5249 -0.3122 -0.2914
18029SOL    HW257365   0.066   1.789   7.408  0.0272 -0.0954 -0.2249
18030SOL     OW57366  10.041   8.183   6.066 -0.0344  0.4301  0.2305
18030SOL    HW157367  10.078   8.118   6.125 -1.1785  0.9018  1.5363
18030SOL    HW257368  10.104   8.256   6.068  0.6961 -0.1734 -0.3692
18031SOL     OW57369   2.702   1.010   2.822 -0.6118  0.3751 -0.4528
18031SOL    HW157370   2.775   1.067   2.796 -0.6738  0.1890 -1.0338
18031SOL    HW257371   2.689   0.952   2.747 -1.6592  0.7102 -0.5448
18032SOL     OW57372   3.056   6.564   7.455  0.1897  0.1409  0.2213
18032SOL    HW157373   3.005   6.646   7.452  1.1841  0.7715  0.2273
18032SOL    HW257374   3.009   6.504   7.397 -1.3291  0.2553  1.2595
18033SOL     OW57375   9.289   9.972   8.592 -0.7026 -0.1942  0.3901
18033SOL    HW157376   9.231  10.046   8.612  0.0855 -0.1138  2.7356
18033SOL    HW257377   9.377  10.005   8.609  0.0365 -0.5869 -2.2723
18034SOL     OW57378   2.920  10.451   1.841 -0.2318 -0.1381 -0.2400
18034SOL    HW157379   3.011  10.427   1.857  0.1932  1.5770  0.1174
18034SOL    HW257380   2.869  10.375   1.871  1.0366 -0.7766  0.3578
18035SOL     OW57381  10.711   5.502   5.578 -0.7382  0.5629 -0.0369
18035SOL    HW157382  10.643   5.558   5.615 -1.1318  1.0072 -1.3740
18035SOL    HW257383  10.729   5.438   5.647 -3.2207 -0.1780  0.0481
18036SOL     OW57384   3.135   3.434   8.282  0.0646 -0.0740  0.1053
18036SOL    HW157385   3.115   3.396   8.368 -0.3108 -1.0939 -0.4201
18036SOL    HW257386   3.121   3.528   8.294  0.0930 -0.1901  1.1801
18037SOL     OW57387   0.205  11.392   4.896 -0.1328 -0.0458  0.2203
18037SOL    HW157388   0.206  11.413   4.990  0.5217  0.0051  0.2076
18037SOL    HW257389   0.129  11.438   4.862 -0.3230  0.0125  0.7090
18038SOL     OW57390   0.346   9.617   9.383 -0.5867  0.1868  0.5636
18038SOL    HW157391   0.438   9.612   9.410 -0.1761 -0.6976 -0.8531
18038SOL    HW257392   0.307   9.536   9.416 -0.5383 -0.0224  0.1164
18039SOL     OW57393   1.554   3.805  10.319 -0.4546  0.3424 -0.1461
18039SOL    HW157394   1.560   3.781  10.227  1.5849 -0.6768  0.1849
18039SOL    HW257395   1.544   3.900  10.319  0.0851  0.4206 -1.4055
18040SOL     OW57396  11.107   1.298   1.489 -0.1693  0.6907 -0.0753
18040SOL    HW157397  11.107   1.269   1.397  0.0673  1.3869 -0.3005
18040SOL    HW257398  11.152   1.382   1.487 -2.7164  2.1451  0.2318
18041SOL     OW57399   3.142   7.731   5.170  0.0126 -0.0766  0.3987
18041SOL    HW157400   3.205   7.723   5.099 -0.3496  0.0044  0.0684
18041SOL    HW257401   3.056   7.734   5.127 -0.4041 -2.3574  0.9229
18042SOL     OW57402  10.312   5.906  10.585  0.0052  0.6328 -0.6720
18042SOL    HW157403  10.370   5.832  10.564 -1.0696 -0.2145 -0.7642
18042SOL    HW257404  10.239   5.866  10.633  0.0659  1.8519  0.4755
18043SOL     OW57405   4.982   2.965   7.597  0.2136 -0.1528  0.8843
18043SOL    HW157406   4.947   2.892   7.648 -1.2425 -1.1494 -1.3630
18043SOL    HW257407   5.040   2.924   7.533  2.0655  1.0733  1.6721
18044SOL     OW57408   8.458   4.462   0.811  0.0405  0.3500 -0.1630
18044SOL    HW157409   8.458   4.393   0.877 -1.0637  1.0012  0.5339
18044SOL    HW257410   8.430   4.418   0.731 -1.3143  0.1108  0.4245
18045SOL     OW57411  11.374  10.486   6.231 -0.0084 -0.3109 -0.3603
18045SOL    HW157412  11.454  10.523   6.267 -0.8423  0.4773  0.7568
18045SOL    HW257413  11.316  10.561   6.218 -0.2683 -0.7582 -1.9895
18046SOL     OW57414   5.861  10.683   6.717  0.0071 -0.6997  0.3535
18046SOL    HW157415   5.945  10.647   6.689 -0.0111  0.2513 -0.9880
18046SOL    HW257416   5.827  10.728   6.640 -1.0048  0.2631  1.3295
18047SOL     OW57417   7.289   7.955   2.625 -0.2910 -0.1795 -0.2140
18047SOL    HW157418   7.240   7.884   2.666 -1.2817  0.4102 -0.3577
18047SOL    HW257419   7.370   7.914   2.596 -0.4673 -1.0551  0.4940
18048SOL     OW57420   6.177   2.681   8.482  0.1516 -0.1256  0.0907
18048SOL    HW157421   6.138   2.631   8.554  0.6516  0.2818  0.6510
18048SOL    HW257422   6.271   2.674   8.496  0.2225  1.1850  0.3269
18049SOL     OW57423   0.282   8.267   7.451 -0.3345  0.1610 -0.0394
18049SOL    HW157424   0.299   8.354   7.485 -0.4854  0.7545 -1.4146
18049SOL    HW257425   0.249   8.282   7.362 -0.5234 -1.2866 -0.2385
18050SOL     OW57426   9.706   6.223   4.060 -0.8035 -0.2262 -0.2738
18050SOL    HW157427   9.798   6.226   4.088 -1.0460 -1.4887  0.7613
18050SOL    HW257428   9.657   6.215   4.142 -1.7380 -1.0825 -0.9098
18051SOL     OW57429  10.387  11.035   4.344 -0.1788 -0.4531 -0.3776
18051SOL    HW157430  10.419  11.116   4.384  1.0284  0.0168 -2.1665
18051SOL    HW257431  10.309  11.012   4.395  1.1911  0.1196  2.1302
18052SOL     OW57432   9.424   7.633   4.461 -0.4098  0.0099  0.2315
18052SOL    HW157433   9.442   7.720   4.495 -0.6491  0.4087 -0.6198
18052SOL    HW257434   9.369   7.591   4.527  0.2976  0.2441  0.9719
18053SOL     OW57435   1.571   1.602   9.836  0.4510 -0.3926 -0.6725
18053SOL    HW157436   1.475   1.606   9.837  0.3657 -2.0663  0.0373
18053SOL    HW257437   1.594   1.575   9.925  1.5304 -0.9388 -1.1094
18054SOL     OW57438   2.923   1.820   8.539 -0.2697 -0.0501  0.3734
18054SOL    HW157439   2.985   1.755   8.508  1.5717  1.1097  1.4129
18054SOL    HW257440   2.963   1.855   8.619 -1.9394  1.2462  0.7090
18055SOL     OW57441   3.611   6.556   5.781  0.0574  0.0082 -0.0252
18055SOL    HW157442   3.518   6.558   5.758 -0.3181 -1.6927  1.1892
18055SOL    HW257443   3.644   6.477   5.740  0.1867 -1.1426  2.1587
18056SOL     OW57444   3.143  10.281   5.773  0.2060  0.4415  0.0833
18056SOL    HW157445   3.121  10.233   5.693  1.9422  2.2670 -1.5744
18056SOL    HW257446   3.238  10.271   5.781  0.3057  1.8310  0.8598
18057SOL     OW57447   6.429   3.022   9.021 -0.2906 -0.0745  0.2693
18057SOL    HW157448   6.385   3.054   8.942 -1.1265  0.7205  1.0365
18057SOL    HW257449   6.463   2.936   8.996 -2.9755 -1.1124 -0.1531
18058SOL     OW57450   8.210  10.992   7.919 -0.1130 -0.1737  0.2276
18058SOL    HW157451   8.245  10.971   7.833 -1.0742  0.1368 -0.2491
18058SOL    HW257452   8.277  11.047   7.959  0.8711 -1.2848  0.1504
18059SOL     OW57453   0.643  11.148   0.021  0.2396 -0.3870  0.2476
18059SOL    HW157454   0.587  11.217  -0.015  1.0797 -0.2139 -0.7816
18059SOL    HW257455   0.663  11.176   0.110 -1.9611 -0.8584  0.9532
18060SOL     OW57456   5.333   3.366   3.498  0.0939  0.2440 -0.2818
18060SOL    HW157457   5.298   3.443   3.542 -1.4236 -0.6142  0.0883
18060SOL    HW257458   5.275   3.354   3.423  0.8591 -0.0416 -0.8426
18061SOL     OW57459   6.684   7.430   0.334 -0.1525 -0.1960 -0.4138
18061SOL    HW157460   6.710   7.501   0.275  0.1758 -0.4121 -0.5306
18061SOL    HW257461   6.711   7.460   0.421  0.8743 -0.5931 -0.5814
18062SOL     OW57462   9.658   5.555   9.097 -0.1048 -0.2399  0.2610
18062SOL    HW157463   9.567   5.548   9.126 -0.1063 -2.0123 -0.0498
18062SOL    HW257464   9.654   5.543   9.002  0.4637 -0.5887  0.2746
18063SOL     OW57465   2.557   2.369   1.771  0.3507  0.0464 -0.3201
18063SOL    HW157466   2.523   2.436   1.829  1.0199 -0.9762  1.3148
18063SOL    HW257467   2.523   2.287   1.806  1.1910 -0.6396 -1.0627
18064SOL     OW57468   1.261   5.332   2.268  0.1362  0.1089  0.4378
18064SOL    HW157469   1.326   5.379   2.216  0.7243  0.3939  1.4127
18064SOL    HW257470   1.270   5.241   2.241  1.1878  0.0934  0.8078
18065SOL     OW57471   1.344   8.457   1.376 -0.5145  0.0965  0.2960
18065SOL    HW157472   1.390   8.452   1.293  0.6291 -2.3435  1.0022
18065SOL    HW257473   1.256   8.424   1.356 -0.3531 -0.1574 -0.0065
18066SOL     OW57474   8.560   8.382   0.722  0.3890  0.2741 -0.3067
18066SOL    HW157475   8.645   8.340   0.708  0.1560 -0.4894  0.4647
18066SOL    HW257476   8.530   8.406   0.635 -0.3914 -3.0019 -1.0645
18067SOL     OW57477   6.112   0.321   8.702 -0.3399  0.4771  0.3448
18067SOL    HW157478   6.056   0.357   8.633 -1.8879 -1.1716  0.6719
18067SOL    HW257479   6.183   0.278   8.654 -0.7029  0.4630 -0.2022
18068SOL     OW57480   8.590   6.244  10.531 -0.1079 -0.3077  0.0216
18068SOL    HW157481   8.590   6.329  10.487 -1.8947 -0.1863  0.2128
18068SOL    HW257482   8.662   6.250  10.594 -0.2913  1.1221  0.1241
18069SOL     OW57483  10.340   2.029   9.268  0.6658  1.2067  0.1831
18069SOL    HW157484  10.401   2.099   9.246  0.4627  1.6243  0.8930
18069SOL    HW257485  10.257   2.075   9.286  0.2930  0.6986 -0.2399
18070SOL     OW57486   1.307   3.229   3.153 -0.3025 -0.7161  0.4544
18070SOL    HW157487   1.268   3.158   3.205 -0.0153 -0.2510  1.3298
18070SOL    HW257488   1.396   3.200   3.136  0.4771  0.2501  2.5217
18071SOL     OW57489   4.460   9.586   8.015  0.0806 -0.0951 -0.2120
18071SOL    HW157490   4.367   9.596   8.035 -0.1277  2.3472 -1.9222
18071SOL    HW257491   4.502   9.659   8.060  1.1331 -0.8780  0.1197
18072SOL     OW57492   0.309   4.325   0.370 -0.4740  0.7543  0.0142
18072SOL    HW157493   0.367   4.334   0.295  1.2212  0.0581  1.1722
18072SOL    HW257494   0.358   4.272   0.433 -1.5044  1.9196  1.9300
18073SOL     OW57495   0.358   3.314   1.054  0.2710 -0.0389  0.6887
18073SOL    HW157496   0.313   3.350   0.978 -0.1712  0.8913  1.3596
18073SOL    HW257497   0.436   3.368   1.063  1.4321 -1.4806 -0.3135
18074SOL     OW57498   0.020   9.173   0.951 -0.2240 -0.3480 -0.0099
18074SOL    HW157499   0.059   9.255   0.921 -0.7028 -0.7800 -1.9171
18074SOL    HW257500  -0.044   9.200   1.017 -1.4084  0.9709 -1.6395
18075SOL     OW57501   3.705   6.424   4.192 -0.0232 -0.5102 -0.5895
18075SOL    HW157502   3.784   6.388   4.232  0.3559  0.4001 -0.5092
18075SOL    HW257503   3.633   6.380   4.238  0.3865  0.7404  1.3528
18076SOL     OW57504   4.614   0.172   5.973 -0.2034  0.3098 -0.1382
18076SOL    HW157505   4.600   0.229   5.897 -0.6501  1.7579  0.9967
18076SOL    HW257506   4.559   0.209   6.042 -0.0065 -1.1312  0.8353
18077SOL     OW57507   9.750   4.863   1.799 -0.0389  0.4456  0.3686
18077SOL    HW157508   9.775   4.909   1.719  0.7637 -0.1426  0.2717
18077SOL    HW257509   9.801   4.782   1.798 -1.4470 -0.4791  0.5222
18078SOL     OW57510   0.215   1.769   7.509 -0.1944  0.6752  0.2227
18078SOL    HW157511   0.230   1.676   7.524  1.7449  1.0419  0.9299
18078SOL    HW257512   0.192   1.804   7.595  0.0246  0.9957  0.1531
18079SOL     OW57513   7.229   3.343   4.725  0.0818 -0.0509 -0.0425
18079SOL    HW157514   7.257   3.296   4.803 -0.0305 -2.1078 -1.1817
18079SOL    HW257515   7.143   3.307   4.705 -0.6534  1.6755 -0.1900
18080SOL     OW57516   2.698   8.957   8.416 -0.3422 -0.0736  0.4037
18080SOL    HW157517   2.700   9.050   8.396 -1.5365 -0.0601  0.2646
18080SOL    HW257518   2.790   8.931   8.421 -0.0021  0.9982 -0.0726
18081SOL     OW57519   6.393   6.555  10.209 -0.2807 -0.2752 -1.1155
18081SOL    HW157520   6.454   6.586  10.276 -0.3272 -0.0544 -1.1743
18081SOL    HW257521   6.335   6.494  10.256  1.1937 -2.0302 -1.4615
18082SOL     OW57522   1.930   9.090   5.602  0.1927  0.2647 -0.2884
18082SOL    HW157523   1.896   9.122   5.518  0.8894 -2.4494 -1.7356
18082SOL    HW257524   1.992   9.158   5.630 -2.3186  2.7154 -0.2965
18083SOL     OW57525   2.469   2.818   5.294 -0.0246 -0.5377 -0.0289
18083SOL    HW157526   2.405   2.755   5.328  0.7594 -0.1294  2.3559
18083SOL    HW257527   2.531   2.832   5.366  0.7877  1.7034 -1.0543
18084SOL     OW57528   9.899   7.627   4.005  0.2719 -0.0909  0.4382
18084SOL    HW157529   9.953   7.549   4.019  0.8744  0.0392 -1.0275
18084SOL    HW257530   9.958   7.701   4.019  0.2909  0.0603 -0.3922
18085SOL     OW57531   1.599   0.263   4.670  0.5997 -0.3701  0.1684
18085SOL    HW157532   1.662   0.214   4.617  0.5628 -0.4645  0.2113
18085SOL    HW257533   1.584   0.207   4.746  2.3055  0.7121  1.3796
18086SOL     OW57534   1.757   3.197   6.507  0.2423 -0.2118  0.1578
18086SOL    HW157535   1.706   3.261   6.556 -1.4222 -0.9445 -0.5120
18086SOL    HW257536   1.734   3.113   6.547  3.9374 -0.3621  2.3776
18087SOL     OW57537   7.736   5.586   3.088  0.0809  0.3144 -0.3018
18087SOL    HW157538   7.648   5.566   3.055 -0.2809  0.8887  0.2872
18087SOL    HW257539   7.749   5.524   3.159  0.0883  0.3284 -0.2913
18088SOL     OW57540   9.180   6.038  10.600 -0.0781  0.5447  0.4070
18088SOL    HW157541   9.210   5.948  10.616  2.2362  1.1594 -0.0927
18088SOL    HW257542   9.090   6.028  10.569  0.4752 -1.6739 -0.6839
18089SOL     OW57543  10.244   5.911   3.614  0.0038  0.5204 -0.3035
18089SOL    HW157544  10.279   5.880   3.697 -1.6334  1.4140  0.7792
18089SOL    HW257545  10.152   5.932   3.633 -0.2689  1.2665 -2.2034
18090SOL     OW57546   4.721   5.951   5.617  0.1566 -0.5439  0.5058
18090SOL    HW157547   4.634   5.976   5.647  0.1549  0.4680 -0.2966
18090SOL    HW257548   4.755   5.894   5.687 -0.1362  1.1294  2.0843
18091SOL     OW57549  10.219   2.188   2.041  0.2212  0.5554 -0.0845
18091SOL    HW157550  10.213   2.093   2.028 -1.4170  0.7979 -1.4210
18091SOL    HW257551  10.183   2.202   2.129  3.3631 -0.2739  1.5113
18092SOL     OW57552  10.014   9.625   9.340 -0.1446  0.6358  0.2180
18092SOL    HW157553  10.097   9.579   9.326  0.1241  0.2139  2.7098
18092SOL    HW257554   9.947   9.559   9.325  0.0433  0.5821 -0.3796
18093SOL     OW57555   6.706   8.463   6.139  0.3615  0.3244  0.3349
18093SOL    HW157556   6.646   8.506   6.077 -0.4592  0.5879  1.2743
18093SOL    HW257557   6.765   8.412   6.085 -0.5650  0.2664 -0.6401
18094SOL     OW57558   3.198   6.154   3.112  0.4941 -0.0328 -0.5838
18094SOL    HW157559   3.218   6.067   3.076  2.5828  0.5059 -0.8397
18094SOL    HW257560   3.259   6.213   3.067  0.3281  1.2917  0.8655
18095SOL     OW57561   6.392   0.158   9.339  0.7930 -0.1639 -0.3096
18095SOL    HW157562   6.326   0.118   9.395  2.0463 -2.3030 -0.2334
18095SOL    HW257563   6.366   0.250   9.332 -1.1459 -0.5423  1.1669
18096SOL     OW57564   0.672   9.524   5.240  0.4912  0.4983 -0.1089
18096SOL    HW157565   0.744   9.586   5.231 -1.1533  2.3953 -1.1473
18096SOL    HW257566   0.674   9.472   5.159  1.1379 -0.0038  0.2209
18097SOL     OW57567   6.001   3.756   6.570  0.0537  0.7912  0.4647
18097SOL    HW157568   5.992   3.739   6.664 -1.8029 -0.1254  0.1886
18097SOL    HW257569   6.018   3.670   6.532 -1.8716  0.6707 -0.2513
18098SOL     OW57570   3.910   0.722   7.303 -0.0452 -1.1380  0.9428
18098SOL    HW157571   3.961   0.727   7.384  1.0863 -2.3906  0.3461
18098SOL    HW257572   3.974   0.740   7.234 -0.9149 -0.4787  0.2901
18099SOL     OW57573   5.408  10.595   0.864  0.7525  0.2292 -0.2736
18099SOL    HW157574   5.489  10.546   0.874  0.2005 -1.0165 -1.5844
18099SOL    HW257575   5.393  10.598   0.770 -1.8204 -1.4879 -0.0248
18100SOL     OW57576  10.840  11.310   2.940  0.7155  0.8899 -0.3576
18100SOL    HW157577  10.907  11.328   3.005  2.9175  0.9273 -2.4782
18100SOL    HW257578  10.812  11.220   2.959  1.4065  0.8580  0.5683
18101SOL     OW57579   8.555   4.419   8.495  0.5303  0.5251 -0.1535
18101SOL    HW157580   8.624   4.467   8.448  0.5703 -0.6803 -1.4061
18101SOL    HW257581   8.494   4.487   8.523  2.3879  1.6728  1.3421
18102SOL     OW57582   2.459   5.864   7.519  0.1825 -0.4901 -0.5410
18102SOL    HW157583   2.436   5.773   7.540  0.3558 -0.6032 -0.8371
18102SOL    HW257584   2.432   5.875   7.428 -0.2477 -0.1067 -0.3736
18103SOL     OW57585   7.114   6.815   7.177 -0.1615 -0.0854 -0.1065
18103SOL    HW157586   7.121   6.896   7.227 -0.3545  0.5556 -1.0774
18103SOL    HW257587   7.027   6.781   7.196 -0.3337  0.2953 -0.2269
18104SOL     OW57588   0.489   2.748   6.695 -0.3006 -0.3727 -0.2577
18104SOL    HW157589   0.578   2.768   6.666  0.0629 -1.3336  0.1703
18104SOL    HW257590   0.500   2.688   6.769 -1.2863  0.0015  0.2160
18105SOL     OW57591   3.654  11.057   5.962  0.0764 -0.0757 -0.0818
18105SOL    HW157592   3.581  11.012   5.918  1.4861 -2.0666 -0.5595
18105SOL    HW257593   3.683  10.995   6.029  0.7639  1.0600  0.6986
18106SOL     OW57594   6.233   3.499   3.006 -0.3061  0.0032  0.4389
18106SOL    HW157595   6.321   3.505   3.045  0.9477 -0.3804 -2.1027
18106SOL    HW257596   6.231   3.411   2.967 -1.6498  0.1947  0.0315
18107SOL     OW57597   5.303   7.677   0.405 -1.0588 -0.4107  0.2708
18107SOL    HW157598   5.282   7.619   0.479 -3.0024  1.1614  1.0123
18107SOL    HW257599   5.222   7.684   0.356 -0.8697  1.6626  0.1967
18108SOL     OW57600   3.120   5.404   4.452  0.0112 -0.4264  0.0128
18108SOL    HW157601   3.141   5.397   4.545 -0.3248 -1.2662  0.0310
18108SOL    HW257602   3.117   5.314   4.421 -0.9526 -0.2137 -0.5659
18109SOL     OW57603   0.726   4.464   4.836 -0.5125  0.1065  0.6715
18109SOL    HW157604   0.710   4.429   4.748  0.4077 -0.2719  0.6492
18109SOL    HW257605   0.641   4.499   4.863 -1.1050 -0.8440  0.1046
18110SOL     OW57606   9.639   4.226   4.522  0.2498 -0.6629 -0.1055
18110SOL    HW157607   9.585   4.161   4.477 -0.7760  1.3827 -2.0487
18110SOL    HW257608   9.699   4.258   4.455  0.8898  0.2427  0.8661
18111SOL     OW57609   6.459   9.817   5.294 -0.3331 -0.6788  0.5695
18111SOL    HW157610   6.539   9.830   5.243 -0.3003 -0.4906  0.6667
18111SOL    HW257611   6.396   9.879   5.257 -0.7555 -1.5354 -0.1795
18112SOL     OW57612   7.054  10.146   2.410 -0.0376  0.0718 -0.4863
18112SOL    HW157613   7.023  10.142   2.501 -0.9673  1.2076 -0.7309
18112SOL    HW257614   7.149  10.155   2.418 -0.2156  1.4764  0.4303
18113SOL     OW57615   2.217   8.472   7.345  0.5840  0.1820 -0.1801
18113SOL    HW157616   2.300   8.498   7.384  1.0031  0.2679 -1.1114
18113SOL    HW257617   2.240   8.411   7.275 -0.1623 -0.0572 -0.2334
18114SOL     OW57618   5.206   3.946   6.936  0.0023  0.3337  0.0525
18114SOL    HW157619   5.197   3.854   6.913  2.0412  0.1829 -0.4103
18114SOL    HW257620   5.239   3.946   7.026  0.7675  0.5595 -0.2190
18115SOL     OW57621   5.112   2.784  11.173 -0.4268 -0.0473 -0.9198
18115SOL    HW157622   5.115   2.690  11.187  0.1549  0.0279 -0.5103
18115SOL    HW257623   5.116   2.822  11.261  1.3935  0.3971 -1.1464
18116SOL     OW57624   4.115   6.687   9.987  0.4359 -0.7111 -0.4777
18116SOL    HW157625   4.039   6.640  10.020 -0.6149  1.7736  0.9464
18116SOL    HW257626   4.186   6.624   9.992 -0.5312 -1.7633  2.8622
18117SOL     OW57627   5.032   2.409   2.857  0.1113 -0.5370 -0.0102
18117SOL    HW157628   5.100   2.469   2.884 -1.5178  1.6563 -0.5005
18117SOL    HW257629   5.067   2.365   2.779  0.6689  1.1373 -0.7334
18118SOL     OW57630  10.255   4.590   7.549 -0.4863  0.1711 -0.5748
18118SOL    HW157631  10.331   4.535   7.568 -1.2722 -0.5799  0.4964
18118SOL    HW257632  10.281   4.642   7.473  0.6420 -0.9599 -0.9812
18119SOL     OW57633  11.291   1.077   6.861 -0.5775  0.0057  0.1957
18119SOL    HW157634  11.236   1.112   6.931  0.9177 -2.0102  2.5307
18119SOL    HW257635  11.229   1.055   6.791 -2.3038  0.8571  1.3707
18120SOL     OW57636   5.220   6.238   6.035  0.0809  0.2825  0.1182
18120SOL    HW157637   5.218   6.280   6.122  1.6898  0.8520 -0.0964
18120SOL    HW257638   5.135   6.194   6.029 -0.4604  1.0266  1.5874
18121SOL     OW57639   2.873   0.154   1.803  0.1508  0.1477  0.0055
18121SOL    HW157640   2.814   0.168   1.878  1.2306  2.0325  0.5509
18121SOL    HW257641   2.960   0.149   1.842  0.5970 -0.2376 -1.0151
18122SOL     OW57642   5.667   2.616   7.387 -0.1071 -0.1420  0.3212
18122SOL    HW157643   5.706   2.593   7.303 -0.4040  1.9774 -0.4587
18122SOL    HW257644   5.741   2.622   7.448  0.2039 -0.7990  0.0207
18123SOL     OW57645   2.667  10.613   4.603  0.0508 -0.0102  0.5359
18123SOL    HW157646   2.752  10.588   4.640  0.6888  0.1055 -0.7717
18123SOL    HW257647   2.684  10.698   4.561  0.1256 -1.3202 -2.3283
18124SOL     OW57648   6.031   3.001   2.484  0.2683 -0.3467 -0.7516
18124SOL    HW157649   6.021   2.943   2.559  2.7601 -0.1007 -0.1483
18124SOL    HW257650   5.992   2.953   2.411 -0.5159 -1.3952  0.3247
18125SOL     OW57651   7.952  10.522   9.912  0.5284 -0.4519  0.3519
18125SOL    HW157652   8.047  10.516   9.908  0.4575 -0.8824 -2.7073
18125SOL    HW257653   7.921  10.435   9.886 -0.6535  0.3783 -1.2323
18126SOL     OW57654   0.342   7.516   3.740  0.0551 -0.0282  0.2679
18126SOL    HW157655   0.261   7.557   3.767  0.2331  0.4362  0.1019
18126SOL    HW257656   0.370   7.465   3.816  0.6052  1.3425  1.0079
18127SOL     OW57657   6.425  10.840   1.546  0.0628 -0.0358 -0.2464
18127SOL    HW157658   6.492  10.895   1.505 -0.1596 -0.3189 -1.0009
18127SOL    HW257659   6.443  10.752   1.514 -0.6099 -0.1297 -0.3790
18128SOL     OW57660   0.507   2.968   4.188 -0.7307  0.6548  0.6542
18128SOL    HW157661   0.503   3.042   4.127  0.7761 -0.2380 -0.6018
18128SOL    HW257662   0.597   2.938   4.183 -1.2978 -1.2463  1.1613
18129SOL     OW57663   0.726   7.376   8.835 -0.3899  0.0542 -0.8184
18129SOL    HW157664   0.717   7.471   8.827  0.5619  0.0547 -2.2198
18129SOL    HW257665   0.740   7.346   8.746  1.3721 -1.1539 -0.1916
18130SOL     OW57666   3.546   9.965   4.807 -0.2847  0.4193  0.1223
18130SOL    HW157667   3.615   9.910   4.844 -1.4784 -1.2930 -0.0823
18130SOL    HW257668   3.584  10.053   4.805  2.3188 -0.6139 -1.0454
18131SOL     OW57669   0.913  10.258   8.889  0.2645 -0.3387 -0.7933
18131SOL    HW157670   0.843  10.285   8.948  1.0425  0.7231 -0.3396
18131SOL    HW257671   0.941  10.173   8.923  0.7660  0.2926  0.4516
18132SOL     OW57672   8.532   5.985   1.420  0.5950 -0.3993 -0.1253
18132SOL    HW157673   8.540   5.926   1.345  1.0428 -0.8999  0.3045
18132SOL    HW257674   8.598   5.954   1.482 -0.5892 -0.7795  0.9940
18133SOL     OW57675   3.048   7.458   0.022  0.1866  0.2709  0.1322
18133SOL    HW157676   3.131   7.422   0.051  1.8238  2.9320 -0.9253
18133SOL    HW257677   3.024   7.404  -0.054  1.9951  0.6542 -0.7617
18134SOL     OW57678   4.190   2.197   9.049 -0.5224  0.1344  0.0398
18134SOL    HW157679   4.126   2.127   9.055  0.3278 -0.9468 -2.1775
18134SOL    HW257680   4.172   2.238   8.964 -0.5825  2.2364  1.0002
18135SOL     OW57681   8.915   6.349   3.171 -0.1730  0.6792  0.4168
18135SOL    HW157682   8.843   6.353   3.234 -1.4290 -0.5729 -0.8350
18135SOL    HW257683   8.909   6.430   3.121 -0.9781  0.4394  0.1006
18136SOL     OW57684   6.399   2.745   0.024 -0.6561 -0.1208 -0.1490
18136SOL    HW157685   6.425   2.764  -0.066 -0.5030 -0.8159 -0.2524
18136SOL    HW257686   6.428   2.822   0.074 -1.1054  0.4460 -0.7523
18137SOL     OW57687   0.008   0.782   9.383 -0.0118 -0.1668  0.2690
18137SOL    HW157688   0.001   0.735   9.466 -0.4604 -0.7277 -0.0800
18137SOL    HW257689  -0.073   0.833   9.377  0.5605  0.8327  0.7418
18138SOL     OW57690  10.026   6.202   1.561  0.0989 -0.1540 -0.0715
18138SOL    HW157691  10.071   6.120   1.539  1.5371  1.0199 -1.7763
18138SOL    HW257692  10.005   6.241   1.476  0.8863  1.9951  0.6500
18139SOL     OW57693   5.045   8.698   9.799  0.2030 -0.5606 -0.2978
18139SOL    HW157694   5.012   8.779   9.839  0.6724  0.0532 -1.1343
18139SOL    HW257695   5.062   8.640   9.874  1.2281  0.6228  0.4218
18140SOL     OW57696   0.925  10.146   6.757 -0.2556 -0.2468  0.3908
18140SOL    HW157697   0.922  10.097   6.839 -2.7953  0.9054  1.0997
18140SOL    HW257698   0.851  10.113   6.706  0.7047 -0.2665 -1.0533
18141SOL     OW57699  10.336   4.216  10.908  0.1547 -0.0642  0.0939
18141SOL    HW157700  10.414   4.164  10.926  0.1312 -0.3309 -0.5372
18141SOL    HW257701  10.312   4.254  10.993  0.6483 -0.4214  0.3985
18142SOL     OW57702  10.206   8.973   2.604  0.9952  0.0736  0.9167
18142SOL    HW157703  10.189   9.006   2.692 -2.9140  1.0291 -0.0271
18142SOL    HW257704  10.192   8.879   2.609  1.9172 -0.0495  1.4788
18143SOL     OW57705   3.435   6.174   7.654  0.6332 -0.3914  0.3107
18143SOL    HW157706   3.359   6.227   7.678  0.1889 -1.3711  1.1733
18143SOL    HW257707   3.475   6.150   7.738  1.4096 -0.5767 -0.1043
18144SOL     OW57708   9.415   0.839   0.542 -0.4704  0.5213 -0.2725
18144SOL    HW157709   9.422   0.864   0.634  1.3079  0.1750 -0.2600
18144SOL    HW257710   9.476   0.766   0.534 -1.6735 -0.3818 -1.4302
18145SOL     OW57711   1.786   0.915   4.006 -0.1369 -0.6719  0.2357
18145SOL    HW157712   1.694   0.894   3.989 -0.0127 -2.5738  1.6547
18145SOL    HW257713   1.830   0.900   3.922 -1.0357 -0.0694 -0.3667
18146SOL     OW57714   3.440   8.550  10.786  0.8974 -0.4418 -0.2057
18146SOL    HW157715   3.406   8.591  10.706  0.9279 -0.5063 -0.2509
18146SOL    HW257716   3.456   8.459  10.762 -0.5116 -0.8510  0.2801
18147SOL     OW57717   4.936   8.474   8.056 -0.2527  0.6133 -0.4265
18147SOL    HW157718   4.974   8.508   7.975 -1.0135  1.3472 -0.4935
18147SOL    HW257719   4.986   8.395   8.076  1.0072  1.3240 -0.7301
18148SOL     OW57720   3.307   1.213  11.176  0.5086  0.1230  0.0615
18148SOL    HW157721   3.320   1.282  11.112  3.0013 -0.6870 -0.4180
18148SOL    HW257722   3.384   1.156  11.166  0.4030 -0.6883  2.9247
18149SOL     OW57723  11.317   3.675   2.800 -0.1025 -0.3323  0.2568
18149SOL    HW157724  11.223   3.656   2.798  0.0753 -1.2134 -0.5094
18149SOL    HW257725  11.326   3.753   2.744 -0.2926 -0.6895 -0.2808
18150SOL     OW57726  10.406  11.213   4.104  0.5979  0.5072 -0.1277
18150SOL    HW157727  10.357  11.166   4.172  0.4435  1.0775  0.1573
18150SOL    HW257728  10.365  11.299   4.100  1.9768  1.2302  0.5721
18151SOL     OW57729   7.089   7.762   4.927  0.4923  0.1000  0.1335
18151SOL    HW157730   7.177   7.740   4.897  0.4919  2.1816 -1.6249
18151SOL    HW257731   7.031   7.708   4.874  0.6273 -2.7197  2.6035
18152SOL     OW57732   3.415   2.129   3.854 -0.0728 -0.1291  0.0443
18152SOL    HW157733   3.334   2.082   3.832 -0.0669  0.4189 -1.2452
18152SOL    HW257734   3.408   2.148   3.948 -1.0974 -0.7213  0.0985
18153SOL     OW57735   2.830   8.063   2.429 -0.5722  0.5988 -0.0962
18153SOL    HW157736   2.840   7.969   2.443  1.0087  0.6913 -0.3804
18153SOL    HW257737   2.822   8.072   2.334  0.5957  0.8253 -0.1896
18154SOL     OW57738   8.882  10.012  11.151  0.2452  0.3759 -0.3296
18154SOL    HW157739   8.841  10.011  11.238 -1.4901  0.1359 -1.0975
18154SOL    HW257740   8.935   9.932  11.149 -1.1439 -0.5946 -0.1043
18155SOL     OW57741   3.586   3.815  10.795 -0.3771  0.6690  0.5931
18155SOL    HW157742   3.584   3.838  10.888  0.9754  1.8553  0.3563
18155SOL    HW257743   3.495   3.827  10.766 -0.3863  2.6704  1.2439
18156SOL     OW57744   1.652  10.367  10.621  0.3287 -0.2555 -0.1290
18156SOL    HW157745   1.562  10.336  10.610  0.4237 -0.3498 -0.6533
18156SOL    HW257746   1.651  10.456  10.586  0.1481  0.2164  1.0175
18157SOL     OW57747   2.894   3.908   9.160  0.4236 -0.3749 -0.6821
18157SOL    HW157748   2.950   3.930   9.235  0.6263 -2.3960 -0.1780
18157SOL    HW257749   2.807   3.940   9.185  0.0304 -2.7395  1.4030
18158SOL     OW57750   6.876   0.685   9.948  0.0117 -0.2956  0.2358
18158SOL    HW157751   6.816   0.694   9.874  0.4608  0.8832 -0.0062
18158SOL    HW257752   6.851   0.756  10.008  2.2340  1.3438 -0.6623
18159SOL     OW57753   1.344  10.094   4.760  0.1824  0.0622  0.0055
18159SOL    HW157754   1.285  10.050   4.699 -2.9713  1.3222  1.8984
18159SOL    HW257755   1.306  10.075   4.846  3.1089  0.2716  1.4387
18160SOL     OW57756   4.091  10.236   6.553  0.0955 -0.3920 -0.1293
18160SOL    HW157757   4.003  10.272   6.551  0.0074 -0.6218 -0.7912
18160SOL    HW257758   4.081  10.151   6.597 -0.2279 -0.9301 -1.1948
18161SOL     OW57759  11.326   8.264   9.740 -0.5078  0.5496  0.8126
18161SOL    HW157760  11.422   8.264   9.733 -0.5321  0.3399  0.4193
18161SOL    HW257761  11.299   8.347   9.701 -0.4475  0.9544  1.6131
18162SOL     OW57762   8.525   2.601  11.311  0.2606 -0.4090  0.4454
18162SOL    HW157763   8.597   2.613  11.250  0.7618 -0.1130  1.0916
18162SOL    HW257764   8.539   2.513  11.348  1.1232  0.2115  1.6428
18163SOL     OW57765   5.803   8.697   4.481  0.1749 -0.4314 -0.0614
18163SOL    HW157766   5.755   8.624   4.521  0.0448 -0.4528 -0.2520
18163SOL    HW257767   5.892   8.665   4.472  0.2454 -0.3632  0.3693
18164SOL     OW57768  11.348   8.650   3.319  0.0455  0.1126  0.0930
18164SOL    HW157769  11.256   8.621   3.310 -0.8381  1.9233  2.3971
18164SOL    HW257770  11.371   8.627   3.409  1.8866 -0.2693 -0.4425
18165SOL     OW57771   8.839   8.728   4.160  0.5280 -0.1121  0.2026
18165SOL    HW157772   8.833   8.818   4.192  1.6602  0.1770 -0.3187
18165SOL    HW257773   8.855   8.676   4.239 -1.5562 -0.0737  0.6933
18166SOL     OW57774   4.376   2.876   4.905 -0.1326 -0.7504  0.1143
18166SOL    HW157775   4.314   2.939   4.941  0.7969  0.6015 -0.5556
18166SOL    HW257776   4.421   2.924   4.835 -0.6472 -2.7134 -1.6745
18167SOL     OW57777   4.688   6.283   1.521 -0.1951  0.1112  0.1447
18167SOL    HW157778   4.723   6.363   1.559 -0.1051 -0.2711  0.8996
18167SOL    HW257779   4.718   6.214   1.580  1.2664 -0.7031 -1.4636
18168SOL     OW57780   4.372   4.569   7.483 -0.5775  0.0474 -0.1245
18168SOL    HW157781   4.315   4.644   7.501  2.1033  2.0173  0.8680
18168SOL    HW257782   4.386   4.572   7.388  2.1779  3.1406  0.1884
18169SOL     OW57783   4.925   0.569   3.599  0.1075 -0.3080  0.3100
18169SOL    HW157784   4.963   0.541   3.516  0.4511  1.3743 -0.1367
18169SOL    HW257785   4.905   0.487   3.645  2.1417 -1.2672 -0.3962
18170SOL     OW57786   8.626   9.219  10.455 -0.2226  0.2293  0.0303
18170SOL    HW157787   8.545   9.269  10.441  0.2485  0.5810 -1.5824
18170SOL    HW257788   8.666   9.213  10.368  0.7417 -1.2423  0.5414
18171SOL     OW57789   6.688   8.284   8.258  0.4708  0.2803  0.0449
18171SOL    HW157790   6.648   8.202   8.232  0.4466  0.6766 -1.2075
18171SOL    HW257791   6.618   8.331   8.305 -0.2064  0.4922 -1.1396
18172SOL     OW57792   9.091   5.798  11.342 -0.5630 -0.8825  0.0317
18172SOL    HW157793   9.073   5.730  11.277 -1.0522 -1.6635  0.9607
18172SOL    HW257794   9.094   5.879  11.291  0.1919 -1.5981 -1.1271
18173SOL     OW57795   0.591   8.803   1.251 -0.1430 -0.5182  0.2742
18173SOL    HW157796   0.506   8.760   1.261 -0.3365 -0.0612  0.6111
18173SOL    HW257797   0.638   8.783   1.333 -0.4445  0.3702  0.6728
18174SOL     OW57798   1.333   0.370   9.082  0.4029  0.2322 -0.0544
18174SOL    HW157799   1.394   0.350   9.012 -0.2506  0.9801 -0.8566
18174SOL    HW257800   1.263   0.305   9.072  0.1251  0.5694 -0.3394
18175SOL     OW57801   3.289   0.174   2.463 -0.6410  0.4187 -0.1300
18175SOL    HW157802   3.254   0.168   2.552 -1.3237 -1.5134 -0.4810
18175SOL    HW257803   3.214   0.197   2.409 -0.8762 -1.1236 -0.5293
18176SOL     OW57804   5.198   5.647   5.774  0.3461 -0.4309  0.6590
18176SOL    HW157805   5.132   5.596   5.726  1.3283  0.0339 -1.2945
18176SOL    HW257806   5.189   5.736   5.740  2.9419 -0.6374 -0.8716
18177SOL     OW57807  10.518   7.973  10.250 -0.3373  0.3469  0.1960
18177SOL    HW157808  10.466   7.973  10.330 -0.4990 -1.1542  0.1310
18177SOL    HW257809  10.548   7.882  10.242  0.2932  0.6490 -1.0459
18178SOL     OW57810   0.683   8.324   8.866  0.3582 -0.2383 -0.1552
18178SOL    HW157811   0.740   8.328   8.790  2.6906  0.4520  1.5134
18178SOL    HW257812   0.738   8.289   8.936 -1.4459 -0.1008  1.4325
18179SOL     OW57813   5.118   5.240   7.714  0.3398  0.5297  0.3877
18179SOL    HW157814   5.151   5.150   7.713  0.9723  0.7475 -0.6299
18179SOL    HW257815   5.122   5.267   7.622 -2.0769  0.8204  0.3059
18180SOL     OW57816   7.704   2.398   8.922 -0.1036  0.5119 -0.4901
18180SOL    HW157817   7.640   2.450   8.873 -0.6682 -0.6259 -1.0015
18180SOL    HW257818   7.663   2.312   8.930  0.0205  0.6287  1.9282
18181SOL     OW57819   6.398   6.536   3.174  0.5671  0.0768 -0.6243
18181SOL    HW157820   6.360   6.569   3.256 -0.5034  0.9544 -1.4533
18181SOL    HW257821   6.491   6.559   3.180  0.8030 -1.1032  0.9410
18182SOL     OW57822   4.135   7.272   4.525 -0.0458 -0.0790  0.2753
18182SOL    HW157823   4.156   7.253   4.616  0.2021  0.4613  0.3393
18182SOL    HW257824   4.100   7.362   4.527 -0.4977 -0.2423 -0.0953
18183SOL     OW57825   5.717   3.211   7.609 -0.3306 -0.5148  0.4195
18183SOL    HW157826   5.638   3.160   7.628 -2.2102  1.4481 -1.6521
18183SOL    HW257827   5.788   3.156   7.642 -2.3936 -3.1918  0.7912
18184SOL     OW57828   8.936  11.379   4.582 -0.6397 -0.0101  0.0497
18184SOL    HW157829   8.879  11.431   4.638 -0.0223  1.6955 -0.8100
18184SOL    HW257830   8.932  11.423   4.497 -0.4681 -1.6929 -0.8811
18185SOL     OW57831   0.347   8.358   7.847  0.0760 -0.1309  0.0939
18185SOL    HW157832   0.328   8.452   7.845 -1.8638 -0.4833 -1.8740
18185SOL    HW257833   0.408   8.344   7.775 -0.3950 -0.4829 -0.2485
18186SOL     OW57834   0.909   3.134   0.433  0.0041 -0.0739 -0.0139
18186SOL    HW157835   0.982   3.173   0.385  0.0611 -1.9939 -1.6458
18186SOL    HW257836   0.831   3.158   0.382 -0.0920 -0.9307 -0.2900
18187SOL     OW57837   7.204   9.947   1.603  0.3291 -0.3433  0.0876
18187SOL    HW157838   7.245  10.030   1.628 -0.9379  0.9617 -1.8530
18187SOL    HW257839   7.144   9.926   1.675  0.7815  0.3230  0.6692
18188SOL     OW57840   8.528   7.382   0.713 -0.0042 -0.3769  0.1028
18188SOL    HW157841   8.433   7.376   0.722 -0.1120  0.8752 -0.0244
18188SOL    HW257842   8.561   7.298   0.745 -1.1066 -0.5551  0.8023
18189SOL     OW57843   1.197   4.555   5.433 -0.3643  0.7548  0.4836
18189SOL    HW157844   1.292   4.571   5.431 -0.4981  1.7375 -2.0593
18189SOL    HW257845   1.160   4.637   5.466 -0.3920  0.8565  0.2001
18190SOL     OW57846   7.478  11.362   5.394 -0.3153  0.4598  0.1602
18190SOL    HW157847   7.552  11.302   5.391 -1.2570 -0.6980 -1.0365
18190SOL    HW257848   7.505  11.436   5.339 -0.5066 -0.5380 -1.3210
18191SOL     OW57849   7.659   7.915   5.192  0.0700  0.1203  0.0050
18191SOL    HW157850   7.747   7.922   5.156  0.2880 -0.7428  0.3473
18191SOL    HW257851   7.651   7.989   5.253  1.5033 -1.1880  1.9038
18192SOL     OW57852   5.181   9.344   5.226 -0.2279 -0.2790  0.8925
18192SOL    HW157853   5.252   9.293   5.186 -0.3959  0.9465 -1.0983
18192SOL    HW257854   5.205   9.351   5.318  0.9110 -2.0610  0.7805
18193SOL     OW57855   7.081   3.192   3.004  0.2223 -0.0192 -0.3563
18193SOL    HW157856   7.142   3.261   2.977  2.7085 -1.1331  1.8943
18193SOL    HW257857   7.041   3.226   3.084  0.2397 -0.5286 -0.1266
18194SOL     OW57858   2.750   4.426   7.086  0.0423  0.2600 -0.1741
18194SOL    HW157859   2.683   4.381   7.035 -0.5907 -0.1314  0.9662
18194SOL    HW257860   2.833   4.399   7.047 -0.2806 -2.2408  0.6910
18195SOL     OW57861   3.201   8.828   9.624  0.5556 -0.0067 -0.2175
18195SOL    HW157862   3.204   8.918   9.593 -1.6568  0.7316  1.4226
18195SOL    HW257863   3.121   8.792   9.587  1.9892 -1.7688 -1.8180
18196SOL     OW57864  10.046   5.595   2.243 -0.4246  0.5486  0.5512
18196SOL    HW157865  10.057   5.685   2.274 -1.1164  0.8656 -0.0973
18196SOL    HW257866  10.126   5.578   2.192 -0.2158  0.7408  0.8095
18197SOL     OW57867   6.986   1.089   4.090  0.5116 -0.3041  0.3520
18197SOL    HW157868   7.024   1.177   4.094  1.5489 -0.6872 -0.4779
18197SOL    HW257869   6.893   1.104   4.072  0.9864  0.6298 -1.5986
18198SOL     OW57870   1.451   3.300   0.421  1.2296 -0.4112  0.0256
18198SOL    HW157871   1.527   3.358   0.415  0.1835  1.0223  0.1328
18198SOL    HW257872   1.413   3.319   0.507 -1.5927  1.9943 -1.5937
18199SOL     OW57873   7.523   8.240  10.104 -0.5146 -0.0045 -0.2874
18199SOL    HW157874   7.501   8.169  10.044 -0.2202 -0.3368 -0.0031
18199SOL    HW257875   7.474   8.220  10.184 -0.3531  0.0615 -0.1721
18200SOL     OW57876   9.231   4.492   7.124 -0.0920 -0.0364 -0.4285
18200SOL    HW157877   9.142   4.512   7.097 -0.2321 -0.6606 -0.4470
18200SOL    HW257878   9.286   4.548   7.070 -0.4212 -0.4237 -1.1706
18201SOL     OW57879   2.671   8.222   3.486  0.3670  0.3092 -0.3159
18201SOL    HW157880   2.636   8.249   3.401  0.3686 -2.6193 -1.3597
18201SOL    HW257881   2.765   8.212   3.471  0.3844 -0.1170  0.0534
18202SOL     OW57882   5.091  11.103   9.124  0.0453  0.5356  0.0500
18202SOL    HW157883   5.091  11.110   9.219 -1.2897  2.4574 -0.0454
18202SOL    HW257884   5.092  11.194   9.093 -1.2429 -0.0039 -1.7370
18203SOL     OW57885   6.111   1.862   4.562 -0.1637  0.0541 -0.2862
18203SOL    HW157886   6.127   1.956   4.573  0.7946  0.0556 -1.5104
18203SOL    HW257887   6.034   1.844   4.617  0.0968  1.3933  0.5558
18204SOL     OW57888   6.824  11.073   7.898  0.1395  0.4373  0.5468
18204SOL    HW157889   6.798  11.135   7.966  1.1093 -0.7348  2.0459
18204SOL    HW257890   6.752  11.073   7.835 -0.9128  1.3218  1.7252
18205SOL     OW57891   1.404   8.606   4.603 -0.2612 -0.0616 -0.3153
18205SOL    HW157892   1.327   8.551   4.592  0.4963 -1.1724 -0.2599
18205SOL    HW257893   1.470   8.567   4.544  0.2527  0.8635 -0.3714
18206SOL     OW57894   1.446   8.397   2.243 -0.6560  0.2144 -0.1865
18206SOL    HW157895   1.441   8.319   2.187  1.3641  0.7054 -1.1299
18206SOL    HW257896   1.491   8.367   2.322  0.7200  0.5375 -0.8268
18207SOL     OW57897  10.435   5.253   1.367 -0.1930 -0.2646 -0.5649
18207SOL    HW157898  10.421   5.180   1.428 -0.5642  1.0757  1.0269
18207SOL    HW257899  10.388   5.327   1.407  0.3927  0.9280 -1.9886
18208SOL     OW57900   1.903   0.475   1.035 -0.8783 -0.1958 -0.1731
18208SOL    HW157901   1.885   0.461   1.128 -1.0388 -0.6300 -0.2703
18208SOL    HW257902   1.862   0.559   1.015 -1.1989 -0.2970  0.0498
18209SOL     OW57903   6.684   9.379   2.187 -0.1130  0.1290 -0.1054
18209SOL    HW157904   6.732   9.458   2.162  1.2389 -0.3368  0.8836
18209SOL    HW257905   6.750   9.309   2.186 -0.8046 -0.5849  1.0575
18210SOL     OW57906  11.289   9.461  10.946 -0.8594 -0.3254  0.9426
18210SOL    HW157907  11.351   9.530  10.921 -0.9508 -0.6361 -0.2033
18210SOL    HW257908  11.210   9.509  10.973 -0.8312  0.0337  0.4144
18211SOL     OW57909   9.226  10.693   7.843  0.0721 -0.5823  0.0571
18211SOL    HW157910   9.227  10.628   7.914 -1.2292  1.0351  1.6573
18211SOL    HW257911   9.209  10.776   7.887 -0.2496  0.5872 -2.1321
18212SOL     OW57912   9.384   9.985   4.658  0.0895  0.0100 -0.2326
18212SOL    HW157913   9.290   9.973   4.670  0.3953 -1.5000  0.8458
18212SOL    HW257914   9.424   9.943   4.734  1.6122  1.5496 -0.1210
18213SOL     OW57915   1.243  10.630   0.874 -0.4388  0.3818  0.4967
18213SOL    HW157916   1.272  10.656   0.787 -1.4781  1.0057  0.3202
18213SOL    HW257917   1.279  10.697   0.932 -1.4136  1.0978  0.2911
18214SOL     OW57918   6.238   5.965   3.827  0.1925  0.5528 -0.1111
18214SOL    HW157919   6.293   5.932   3.898 -0.0569  0.8572  0.2311
18214SOL    HW257920   6.298   6.015   3.771  0.2087  1.1667  0.4430
18215SOL     OW57921   4.632   0.821   9.484  0.3639  0.4405 -0.3001
18215SOL    HW157922   4.585   0.780   9.412 -0.4791  1.4740 -0.3713
18215SOL    HW257923   4.711   0.856   9.443 -0.7280  2.1818 -1.0601
18216SOL     OW57924   6.372   9.232   3.485 -0.0625  0.1357 -0.4372
18216SOL    HW157925   6.293   9.253   3.534 -1.4684 -0.8742 -2.1327
18216SOL    HW257926   6.438   9.211   3.551 -0.7980  2.2150  1.0684
18217SOL     OW57927   3.003   8.518   3.024  0.5625  0.2237 -0.2912
18217SOL    HW157928   2.926   8.463   3.012  1.3341 -0.9796  0.1484
18217SOL    HW257929   3.000   8.580   2.950 -1.5010  1.0604  0.4261
18218SOL     OW57930   4.664  10.927  10.096 -0.5503 -0.1802  0.6295
18218SOL    HW157931   4.754  10.894  10.089 -0.1134  1.3187 -3.6836
18218SOL    HW257932   4.673  11.011  10.140  0.3111  0.2999 -0.4242
18219SOL     OW57933   0.519   4.780   6.674  0.0961  0.0850 -0.1429
18219SOL    HW157934   0.491   4.794   6.765  0.5031 -0.1896  0.0266
18219SOL    HW257935   0.438   4.767   6.625 -0.2224  1.6265 -0.0625
18220SOL     OW57936   9.508   5.783   4.248  0.1464  0.0251  0.0525
18220SOL    HW157937   9.603   5.784   4.244  0.2120  1.5945  1.1538
18220SOL    HW257938   9.481   5.763   4.158  1.5304  1.7493 -0.8194
18221SOL     OW57939   6.167   7.153  11.046 -0.0825 -0.4550 -0.4267
18221SOL    HW157940   6.135   7.097  11.117 -0.5389  0.5962  0.2149
18221SOL    HW257941   6.101   7.143  10.977  0.4349 -1.5887 -0.7894
18222SOL     OW57942  10.188   2.369   5.708 -0.1242  0.1935 -0.1348
18222SOL    HW157943  10.269   2.395   5.752 -0.4011 -1.3407  1.3702
18222SOL    HW257944  10.171   2.280   5.738 -3.0874  0.9020  0.6910
18223SOL     OW57945  11.185   6.303   4.468  0.1392  0.0970 -0.0616
18223SOL    HW157946  11.133   6.242   4.416  0.3600 -0.9710  0.9317
18223SOL    HW257947  11.168   6.279   4.559 -0.5210  2.1534  0.4284
18224SOL     OW57948   5.272   7.642   4.375  0.2961  0.2360 -0.4447
18224SOL    HW157949   5.303   7.665   4.288  1.6047 -0.6154 -0.2257
18224SOL    HW257950   5.238   7.553   4.365 -0.7375  0.6065 -0.3491
18225SOL     OW57951   4.597   1.809   1.345 -0.3730 -0.4303  0.5781
18225SOL    HW157952   4.510   1.773   1.329  0.1031 -1.1978 -0.4048
18225SOL    HW257953   4.581   1.889   1.395 -1.5064 -1.5753  2.1313
18226SOL     OW57954   0.131   3.004   8.708  0.8337 -0.2198  0.0342
18226SOL    HW157955   0.111   3.067   8.639  1.9550 -2.0310 -2.0441
18226SOL    HW257956   0.226   2.993   8.704  0.7581 -1.3875  0.9431
18227SOL     OW57957   7.403   9.398   1.031  0.1810 -0.1126  0.1366
18227SOL    HW157958   7.317   9.428   1.062 -0.6177 -1.2323 -0.8917
18227SOL    HW257959   7.418   9.316   1.078  0.5959 -0.0267  0.1583
18228SOL     OW57960   8.114   6.805   1.375  0.1075 -0.7184  0.5725
18228SOL    HW157961   8.195   6.844   1.407  0.6212 -0.5216 -0.9399
18228SOL    HW257962   8.141   6.739   1.312 -0.9125 -0.0141 -0.6586
18229SOL     OW57963  10.562   4.415   9.234  0.3076  0.8049  0.9253
18229SOL    HW157964  10.542   4.495   9.282 -0.3058  0.8189  0.6451
18229SOL    HW257965  10.478   4.383   9.203  0.7063  0.8801 -0.2880
18230SOL     OW57966   8.129   0.202   7.675 -0.4666 -0.0911 -0.8909
18230SOL    HW157967   8.161   0.113   7.661  1.1771 -0.2329  2.7876
18230SOL    HW257968   8.075   0.196   7.753  1.1963  2.3729  0.5739
18231SOL     OW57969   4.830   6.594   2.108  0.0740  0.2025  0.3725
18231SOL    HW157970   4.821   6.689   2.115 -0.0852  0.4417 -2.0063
18231SOL    HW257971   4.919   6.582   2.074  0.7272 -0.6439  2.2842
18232SOL     OW57972   3.987   0.192   3.885  0.1630 -0.5612  0.5050
18232SOL    HW157973   4.070   0.230   3.914 -0.9885  1.6759  1.0870
18232SOL    HW257974   3.951   0.256   3.823 -0.7725 -1.8831 -0.3899
18233SOL     OW57975   7.226   7.005   9.168 -0.0363 -0.8144 -0.3831
18233SOL    HW157976   7.274   6.932   9.129  1.4191  0.2862 -0.7283
18233SOL    HW257977   7.233   6.990   9.263  0.4371 -1.0100 -0.4464
18234SOL     OW57978   9.478   0.629   4.392 -0.4678  0.0606  0.3777
18234SOL    HW157979   9.431   0.593   4.318  0.4768 -1.9216  0.6907
18234SOL    HW257980   9.420   0.616   4.467 -0.8898  0.9104  0.2124
18235SOL     OW57981   9.943   7.829   9.940  0.3735  0.4056  0.5696
18235SOL    HW157982   9.859   7.832   9.987 -0.5494  0.7256 -1.0178
18235SOL    HW257983   9.918   7.822   9.848  2.1116  0.4006  0.0744
18236SOL     OW57984   9.541   7.015   0.083 -0.0201  0.1150 -0.3271
18236SOL    HW157985   9.555   6.956   0.157 -0.1180  0.2900 -0.1693
18236SOL    HW257986   9.458   7.059   0.101  1.4036  2.4923  1.0756
18237SOL     OW57987   7.715   1.988   7.629 -0.3913  0.4335  0.2919
18237SOL    HW157988   7.667   1.905   7.632  0.7479 -0.2490  0.3977
18237SOL    HW257989   7.752   1.996   7.717 -0.2964  0.9391  0.2045
18238SOL     OW57990   3.245  11.025   0.416  0.1167  0.0886 -0.0406
18238SOL    HW157991   3.235  10.997   0.507 -1.1850  1.1243  0.1707
18238SOL    HW257992   3.303  10.959   0.377  0.7030 -0.3764  1.5216
18239SOL     OW57993   2.456   8.654  10.717 -0.1684  0.0607 -0.3167
18239SOL    HW157994   2.433   8.741  10.751 -0.3670  0.4363 -1.3725
18239SOL    HW257995   2.399   8.643  10.641  3.2053  1.1241 -3.2297
18240SOL     OW57996   4.218   0.286   3.621 -0.7803 -0.2397 -0.1406
18240SOL    HW157997   4.141   0.235   3.596 -0.5070 -0.7981  0.1342
18240SOL    HW257998   4.242   0.333   3.541 -2.1222  0.9072  0.1017
18241SOL     OW57999   6.195  10.111   8.271 -0.1305 -0.3611 -0.1467
18241SOL    HW158000   6.246  10.039   8.308 -0.9790 -0.4011  1.0171
18241SOL    HW258001   6.127  10.069   8.219 -0.2298 -0.3918  0.0044
18242SOL     OW58002   0.700  10.675   1.383  0.0529  0.1399  0.2035
18242SOL    HW158003   0.650  10.599   1.413 -0.1131  0.3708  0.5076
18242SOL    HW258004   0.786  10.638   1.360 -0.4027 -0.3383 -0.8026
18243SOL     OW58005   3.876   1.619   8.054 -0.1641 -0.4045  0.1795
18243SOL    HW158006   3.890   1.564   8.131 -1.4771 -0.0821  0.6710
18243SOL    HW258007   3.784   1.645   8.059  0.0740  0.7194 -0.7775
18244SOL     OW58008   5.693   7.102   2.878  0.3603  0.4899  0.1311
18244SOL    HW158009   5.728   7.083   2.791  1.5731 -0.3590  0.7720
18244SOL    HW258010   5.630   7.031   2.894 -0.8491  1.3831 -0.5657
18245SOL     OW58011   7.583  10.356   8.911 -0.0130  0.1286 -1.0418
18245SOL    HW158012   7.621  10.269   8.925  0.6054  0.6014  0.4273
18245SOL    HW258013   7.655  10.408   8.873  0.5896  0.7707  0.8648
18246SOL     OW58014   7.029   7.596   2.632 -0.7280 -0.0989 -0.0865
18246SOL    HW158015   7.100   7.539   2.660 -2.0727 -1.7029  0.2755
18246SOL    HW258016   7.057   7.631   2.548  1.2272  0.7607  0.8798
18247SOL     OW58017   1.266   7.194   4.859 -0.2642 -0.0184  0.6196
18247SOL    HW158018   1.308   7.159   4.781 -0.6478 -0.1378  0.4654
18247SOL    HW258019   1.329   7.178   4.929 -0.2460 -0.6152  0.4712
18248SOL     OW58020   7.783   2.469   5.282 -0.3666  0.6746  0.5121
18248SOL    HW158021   7.804   2.393   5.336  1.6231 -0.3420 -1.5246
18248SOL    HW258022   7.687   2.476   5.286 -0.5718 -1.7086  1.0564
18249SOL     OW58023   9.623   4.032   3.589 -0.1518  0.2196  0.0762
18249SOL    HW158024   9.546   4.031   3.646  0.6868  1.3834  1.3016
18249SOL    HW258025   9.623   4.121   3.552  2.7618  1.7779  3.3058
18250SOL     OW58026   7.539   6.766   7.583 -0.5539 -0.4338  0.2881
18250SOL    HW158027   7.604   6.832   7.609 -1.1996  0.2297  0.2405
18250SOL    HW258028   7.470   6.816   7.540 -0.1152 -1.3443 -1.6101
18251SOL     OW58029   5.313   4.918   5.974  0.1651 -0.0373 -0.2430
18251SOL    HW158030   5.380   4.985   5.991  0.7925 -0.5029 -0.8487
18251SOL    HW258031   5.361   4.836   5.968 -0.3028 -0.2267 -1.8345
18252SOL     OW58032   9.490  10.326   1.445  0.4558  0.3034  0.0987
18252SOL    HW158033   9.584  10.325   1.424  0.3546 -2.1571 -0.5286
18252SOL    HW258034   9.448  10.331   1.359 -0.0474  2.5555  0.4237
18253SOL     OW58035   0.282   1.461   5.639  0.5555  0.1100 -0.0670
18253SOL    HW158036   0.356   1.416   5.681 -0.2796 -1.5805 -0.3135
18253SOL    HW258037   0.275   1.421   5.552 -0.5237  0.3658 -0.1181
18254SOL     OW58038   7.183   0.142  10.089  0.1258 -0.2918  0.4484
18254SOL    HW158039   7.110   0.203  10.098  0.8196  0.4380  1.2932
18254SOL    HW258040   7.220   0.135  10.177  0.9292 -0.8428  0.0797
18255SOL     OW58041   4.760   6.363   5.140  0.1176  0.3973  0.5346
18255SOL    HW158042   4.840   6.336   5.094  0.7070  1.3447  0.9533
18255SOL    HW258043   4.695   6.297   5.117  0.7231  0.1993 -0.6968
18256SOL     OW58044   0.585   7.730   4.563 -0.1048 -0.3965 -0.5248
18256SOL    HW158045   0.587   7.826   4.568  1.0054 -0.4286  0.1689
18256SOL    HW258046   0.660   7.703   4.616 -0.0770 -1.6339 -1.1724
18257SOL     OW58047   6.973   7.606   1.365 -0.2813  0.0907  0.0284
18257SOL    HW158048   7.037   7.625   1.434 -0.1980  1.0797 -0.3029
18257SOL    HW258049   6.894   7.579   1.412 -0.5686  1.7797  0.6037
18258SOL     OW58050   0.265  11.070   4.095 -0.2859  0.2906  0.2386
18258SOL    HW158051   0.233  10.994   4.048 -1.1604 -0.0759  1.3829
18258SOL    HW258052   0.321  11.034   4.164 -1.4550  0.5854  1.3799
18259SOL     OW58053   9.462   4.454  11.043 -0.0938 -0.4787 -0.1180
18259SOL    HW158054   9.519   4.396  11.094  0.5878 -0.4572 -0.8365
18259SOL    HW258055   9.490   4.441  10.953  2.2512  3.2314 -0.1398
18260SOL     OW58056   7.274   6.509   7.676 -0.0976  0.3560 -0.5518
18260SOL    HW158057   7.273   6.547   7.764 -1.1319  0.4037 -0.5779
18260SOL    HW258058   7.325   6.571   7.624 -0.1617  0.7370 -0.1664
18261SOL     OW58059   0.150  10.982   9.043 -0.0761 -0.1900 -0.1841
18261SOL    HW158060   0.215  11.052   9.048 -0.4062  0.1607 -0.6789
18261SOL    HW258061   0.101  10.989   9.125  0.4409 -0.3909  0.1433
18262SOL     OW58062   6.317  10.451   4.429 -0.5486 -0.2440  0.1542
18262SOL    HW158063   6.256  10.449   4.503 -1.0745 -1.1762 -0.2902
18262SOL    HW258064   6.312  10.363   4.391  1.0802 -0.3515  0.1121
18263SOL     OW58065   1.415   9.276   1.217  0.3316  0.3669  0.4405
18263SOL    HW158066   1.472   9.256   1.143  0.3881  0.9190  0.3328
18263SOL    HW258067   1.425   9.201   1.276 -0.0980 -0.3194 -0.3414
18264SOL     OW58068   9.898   5.751   2.643 -0.1344 -0.7825  0.2576
18264SOL    HW158069   9.955   5.709   2.708 -0.6486  1.1679  2.0866
18264SOL    HW258070   9.818   5.771   2.691 -1.1996 -0.7458 -1.4576
18265SOL     OW58071   7.947   7.144   3.944 -0.0093  0.1996 -0.0299
18265SOL    HW158072   8.025   7.089   3.932  0.2474  0.2219  1.3812
18265SOL    HW258073   7.891   7.094   4.003 -0.7765  0.4881 -0.4979
18266SOL     OW58074  10.660   2.291   2.539  0.3905  0.0335 -0.7265
18266SOL    HW158075  10.608   2.340   2.475  1.1856  0.4531 -1.0658
18266SOL    HW258076  10.683   2.210   2.495  0.5358  0.1168 -0.8065
18267SOL     OW58077   2.390   8.089   7.153  0.2923  0.0498 -0.2267
18267SOL    HW158078   2.394   8.021   7.220  1.3882  1.9179  1.7489
18267SOL    HW258079   2.464   8.069   7.095  0.9638 -0.1390  0.6681
18268SOL     OW58080   9.914   4.330   7.257  0.2634  0.4288 -0.3993
18268SOL    HW158081   9.825   4.295   7.250  1.3258 -2.7280  0.2070
18268SOL    HW258082   9.914   4.381   7.338 -0.9923  0.5655 -0.4636
18269SOL     OW58083   2.395   2.782   3.284 -0.4373  0.1547  0.3230
18269SOL    HW158084   2.423   2.869   3.311 -0.9857  1.0388 -1.7228
18269SOL    HW258085   2.299   2.786   3.285 -0.4643 -0.4268  0.2661
18270SOL     OW58086   8.811   3.501   5.664 -0.3754 -0.1635  0.0403
18270SOL    HW158087   8.823   3.459   5.749 -1.9225  0.2441  0.4818
18270SOL    HW258088   8.846   3.438   5.601  2.0099  0.0651  1.0301
18271SOL     OW58089   4.889   2.000   4.257  0.2656 -0.0048  0.2936
18271SOL    HW158090   4.897   2.055   4.335  0.1625  2.1916 -1.1582
18271SOL    HW258091   4.960   1.936   4.265  2.6287  2.4452  0.4951
18272SOL     OW58092   9.144   1.505   6.611  0.2496 -0.0611 -0.4852
18272SOL    HW158093   9.118   1.544   6.694  0.2695  0.2707 -0.6320
18272SOL    HW258094   9.217   1.447   6.633  0.3574  0.1440 -0.2921
18273SOL     OW58095   4.595   9.655   9.356 -0.4016  0.4696  0.1409
18273SOL    HW158096   4.615   9.719   9.425  2.4805 -0.4935  0.3251
18273SOL    HW258097   4.646   9.685   9.281 -1.5703  0.1283 -0.8112
18274SOL     OW58098   8.586  10.190   8.705 -0.2989  0.9044 -0.2164
18274SOL    HW158099   8.647  10.137   8.756 -0.9579 -1.1565 -1.4526
18274SOL    HW258100   8.537  10.240   8.771 -0.4954 -0.9598  1.1401
18275SOL     OW58101   9.786   6.586   5.485 -0.2629 -0.5801  0.0506
18275SOL    HW158102   9.775   6.491   5.491 -1.2986 -0.4803 -0.1130
18275SOL    HW258103   9.701   6.622   5.510  0.4088  0.3479  1.0956
18276SOL     OW58104   4.128  10.593   3.696  0.1545  0.2740  0.2528
18276SOL    HW158105   4.143  10.685   3.717  1.0617 -0.1795  1.7076
18276SOL    HW258106   4.153  10.546   3.776 -2.8462 -1.0502  0.5336
18277SOL     OW58107   4.038   9.310   4.756  0.2102 -0.5054  0.2021
18277SOL    HW158108   4.020   9.248   4.828  0.1649 -0.7997 -0.0607
18277SOL    HW258109   4.031   9.396   4.797 -2.2131 -0.5598  0.0683
18278SOL     OW58110   4.275   9.859   6.204 -0.4379 -0.5602  0.6325
18278SOL    HW158111   4.248   9.945   6.236  0.0569  0.0679 -0.5810
18278SOL    HW258112   4.246   9.857   6.113 -0.1311 -1.5352  0.5502
18279SOL     OW58113   5.538   4.438   6.948 -0.2594  0.3460 -0.0716
18279SOL    HW158114   5.553   4.349   6.918 -0.9619  0.3615 -0.4850
18279SOL    HW258115   5.555   4.435   7.042  0.9232  0.0608 -0.2722
18280SOL     OW58116   0.856   2.175   9.504  0.1101  0.3566 -0.3339
18280SOL    HW158117   0.786   2.223   9.549 -0.5716 -1.3247  0.5244
18280SOL    HW258118   0.814   2.093   9.477  1.3294  0.0338 -1.3145
18281SOL     OW58119   7.292   6.764   9.751 -0.5861  0.5565 -0.0530
18281SOL    HW158120   7.238   6.762   9.672 -1.0426 -0.1561  0.2730
18281SOL    HW258121   7.230   6.754   9.823 -0.1018  0.5234  0.3626
18282SOL     OW58122   6.557   8.537   4.510 -0.0976  0.1048  0.1040
18282SOL    HW158123   6.502   8.615   4.498  0.5027  0.5182 -0.0119
18282SOL    HW258124   6.574   8.534   4.604 -0.8207 -0.3802  0.2291
18283SOL     OW58125   0.169   9.474   8.020  0.0755 -0.3599 -0.4187
18283SOL    HW158126   0.105   9.531   7.978 -0.1667  0.9968  1.6005
18283SOL    HW258127   0.174   9.507   8.110  4.3961  0.3529 -0.6968
18284SOL     OW58128   1.704   9.253   1.450  0.3561  0.1447  0.1579
18284SOL    HW158129   1.657   9.207   1.381  0.5419  0.4331 -0.1593
18284SOL    HW258130   1.642   9.256   1.523  0.5615 -1.1878  0.4184
18285SOL     OW58131   1.169   6.480   8.331  0.0886  0.5916  0.4621
18285SOL    HW158132   1.251   6.443   8.364 -0.5117 -1.8247 -0.5115
18285SOL    HW258133   1.112   6.482   8.407  0.5981  0.9499  0.8465
18286SOL     OW58134   2.119   9.885   5.905  0.3359 -0.5380  0.1135
18286SOL    HW158135   2.206   9.845   5.901  1.0436  0.9665 -0.1261
18286SOL    HW258136   2.061   9.813   5.930  1.9958 -1.0906  2.8708
18287SOL     OW58137   1.267   0.553   5.432 -0.3175 -0.5452  0.1916
18287SOL    HW158138   1.264   0.486   5.500  0.0924 -0.6357  0.1238
18287SOL    HW258139   1.274   0.505   5.350  2.4397 -0.4543  0.2636
18288SOL     OW58140   9.412  10.479   2.330 -0.1727  0.6090 -0.8569
18288SOL    HW158141   9.342  10.539   2.303 -1.8078 -0.0210  1.6613
18288SOL    HW258142   9.400  10.401   2.276  0.1118  1.3722 -2.0678
18289SOL     OW58143   4.452   4.799   3.396 -0.0720 -0.0382  0.4012
18289SOL    HW158144   4.464   4.766   3.486  0.1767 -1.6901 -0.2021
18289SOL    HW258145   4.393   4.735   3.356 -0.1784  0.6913 -0.6205
18290SOL     OW58146   3.811   1.345   1.516  0.1974  0.2448 -0.0451
18290SOL    HW158147   3.850   1.261   1.494  0.2780  0.1458  0.4605
18290SOL    HW258148   3.863   1.409   1.467  0.3854  0.0340 -0.1245
18291SOL     OW58149   4.070   7.305   0.334 -0.3021  0.0780 -0.0192
18291SOL    HW158150   4.082   7.226   0.386  0.8010 -0.3001 -0.8123
18291SOL    HW258151   4.001   7.283   0.272  0.0412 -0.2847 -0.2743
18292SOL     OW58152  11.329   2.014   3.614  0.3510 -0.2013  0.0722
18292SOL    HW158153  11.303   2.042   3.526 -0.4619 -1.2755 -0.0556
18292SOL    HW258154  11.403   2.070   3.636  1.5055 -0.8394 -1.8944
18293SOL     OW58155   8.663  10.437   9.253 -0.5015  0.1091 -0.0829
18293SOL    HW158156   8.676  10.498   9.326 -1.2580  1.8749 -1.3602
18293SOL    HW258157   8.743  10.384   9.252 -0.5640 -0.1304  2.1349
18294SOL     OW58158   4.284   2.133   7.827  0.6154 -0.3348 -0.3672
18294SOL    HW158159   4.258   2.148   7.918  1.0695 -2.3961  0.1594
18294SOL    HW258160   4.203   2.142   7.777 -0.1006 -1.4447  0.5581
18295SOL     OW58161   0.039  11.365   4.139  0.6596  0.5477  0.3154
18295SOL    HW158162   0.076  11.450   4.159 -2.3529  2.4982 -1.4963
18295SOL    HW258163   0.075  11.342   4.053  0.5964  0.5854  0.2785
18296SOL     OW58164   2.032   1.273   5.448 -0.0605 -0.5360 -0.0921
18296SOL    HW158165   2.114   1.311   5.417  0.0798  0.4915  1.3900
18296SOL    HW258166   2.016   1.318   5.531 -2.0313 -0.8543 -0.2612
18297SOL     OW58167   5.566   7.033   3.171 -0.2922 -0.1809 -0.0673
18297SOL    HW158168   5.482   7.013   3.211 -0.0003 -0.1166  0.6082
18297SOL    HW258169   5.573   6.975   3.096 -1.4721  0.6594 -0.8678
18298SOL     OW58170   4.448   3.945   0.613  0.3665 -0.1458  0.0839
18298SOL    HW158171   4.478   3.930   0.703  1.4343  0.1472 -0.2085
18298SOL    HW258172   4.457   4.039   0.600 -1.0551  0.0102  0.0927
18299SOL     OW58173   3.419   7.492   4.998 -0.3972  0.0228  1.0530
18299SOL    HW158174   3.489   7.553   4.977  0.4994 -1.2418  0.2124
18299SOL    HW258175   3.339   7.536   4.967  0.4087  0.0829 -1.1379
18300SOL     OW58176   0.132   7.354   7.628  0.5121 -0.3467  0.3266
18300SOL    HW158177   0.078   7.432   7.638  1.5012  0.4512 -0.3136
18300SOL    HW258178   0.219   7.388   7.606  1.4776 -1.5505  2.0131
18301SOL     OW58179   7.290   8.352   1.206 -0.0537 -0.0616  0.2225
18301SOL    HW158180   7.310   8.341   1.113  0.0783  1.3621  0.0616
18301SOL    HW258181   7.195   8.362   1.208 -0.1752 -1.1194  0.3708
18302SOL     OW58182   2.448   5.685   4.450 -0.1883  0.2300  0.3440
18302SOL    HW158183   2.410   5.770   4.428 -0.4308  0.6204  2.1865
18302SOL    HW258184   2.526   5.679   4.395  0.2706  2.0029  0.7508
18303SOL     OW58185   1.461   5.841   0.858 -0.2820  0.3167  0.3005
18303SOL    HW158186   1.524   5.777   0.891 -0.7839  0.7215  2.1758
18303SOL    HW258187   1.512   5.900   0.803  0.2194 -1.5808 -1.3747
18304SOL     OW58188   8.776   7.427   8.536  0.1215  0.4773 -0.0538
18304SOL    HW158189   8.760   7.515   8.501 -2.5821  0.1618  0.1914
18304SOL    HW258190   8.747   7.432   8.627 -0.1639 -0.6876 -0.0647
18305SOL     OW58191  10.785   5.926   8.558 -0.7404 -0.1799 -0.4081
18305SOL    HW158192  10.854   5.863   8.579 -1.7086 -0.9826  0.5310
18305SOL    HW258193  10.799   5.997   8.620 -0.2607  0.0408 -0.7716
18306SOL     OW58194   8.393   3.346   5.225  0.5435  0.0213  1.2281
18306SOL    HW158195   8.304   3.340   5.260 -0.0148  0.3388 -0.0794
18306SOL    HW258196   8.406   3.263   5.177 -0.2649  1.2217 -1.2333
18307SOL     OW58197   2.029   0.410  10.725  0.1992  0.3832  0.2068
18307SOL    HW158198   1.965   0.339  10.728 -1.6701  1.8517 -1.8587
18307SOL    HW258199   2.063   0.415  10.815  0.2567 -2.8871  0.4842
18308SOL     OW58200   4.594   4.877   2.653 -0.0362  0.0575  0.2087
18308SOL    HW158201   4.658   4.946   2.672 -0.2866  0.7737 -1.4252
18308SOL    HW258202   4.548   4.864   2.736  0.4910  1.3610  0.7330
18309SOL     OW58203   4.291   3.914  10.592 -0.0014  0.3907  0.1866
18309SOL    HW158204   4.301   3.950  10.680 -0.4566  0.8878  0.0455
18309SOL    HW258205   4.218   3.852  10.599 -1.4456  1.9435 -0.2453
18310SOL     OW58206   7.262   6.657   7.359  0.1714 -0.3536 -0.1421
18310SOL    HW158207   7.321   6.591   7.323 -1.7424 -2.4466  0.3081
18310SOL    HW258208   7.232   6.707   7.282  1.5330 -0.0590 -0.5061
18311SOL     OW58209   1.841   5.765   3.225 -0.3754  0.4370 -0.1913
18311SOL    HW158210   1.894   5.690   3.252 -2.8751 -1.2173  0.5353
18311SOL    HW258211   1.779   5.728   3.162 -0.9847  2.1370 -0.6286
18312SOL     OW58212   0.777   6.166   4.350 -0.0805 -0.5351  0.1857
18312SOL    HW158213   0.776   6.228   4.277  2.1235  0.1526  0.6373
18312SOL    HW258214   0.819   6.088   4.314  0.3654 -0.4495  0.5048
18313SOL     OW58215   6.304   6.014   0.582 -0.3431  0.0049 -0.7159
18313SOL    HW158216   6.381   5.980   0.627 -0.0153  0.4436 -0.9460
18313SOL    HW258217   6.239   5.944   0.590  1.1691 -1.9184 -3.5579
18314SOL     OW58218   1.884   7.671   3.495  0.1042  0.2048  0.5139
18314SOL    HW158219   1.951   7.649   3.559  0.3143 -0.0773  0.2015
18314SOL    HW258220   1.933   7.701   3.418 -0.1673  1.6750  0.8848
18315SOL     OW58221  11.165   8.539   6.254  0.4573 -0.4044 -0.3370
18315SOL    HW158222  11.211   8.622   6.249  1.0338 -0.6618  0.5238
18315SOL    HW258223  11.118   8.541   6.337 -0.1859 -0.6102 -0.6861
18316SOL     OW58224  10.541  10.845   9.295 -0.5098 -1.2134  0.1604
18316SOL    HW158225  10.499  10.921   9.255  0.7549 -0.8583 -0.5595
18316SOL    HW258226  10.469  10.788   9.321 -1.5384  0.5750  1.4639
18317SOL     OW58227   1.635   0.743   1.152  0.1373  0.7077  0.4088
18317SOL    HW158228   1.582   0.687   1.095  0.0038  0.2398  0.9947
18317SOL    HW258229   1.667   0.812   1.093  0.1640  0.1226 -0.2776
18318SOL     OW58230  11.183   5.404   2.981 -0.2605 -0.2599  0.2369
18318SOL    HW158231  11.090   5.385   2.990 -0.8733  1.9726 -0.5751
18318SOL    HW258232  11.226   5.346   3.043 -2.0991 -1.9725  0.0017
18319SOL     OW58233  10.314   8.133   0.457 -0.5397  0.0569  0.0042
18319SOL    HW158234  10.222   8.155   0.470 -0.1762  1.1725  0.7901
18319SOL    HW258235  10.360   8.179   0.527  0.6398 -0.3355 -0.4923
18320SOL     OW58236   2.412   7.456  10.892  0.2876 -0.4006  0.1755
18320SOL    HW158237   2.374   7.408  10.818  0.8557 -0.5437 -0.0345
18320SOL    HW258238   2.436   7.388  10.955 -1.1492 -0.2088  0.9672
18321SOL     OW58239   7.523   1.792   7.607  0.4312  0.8056  0.3531
18321SOL    HW158240   7.505   1.842   7.527 -0.3766  0.0794  0.0728
18321SOL    HW258241   7.470   1.834   7.675  1.0656  1.3795  0.5168
18322SOL     OW58242   4.768   4.610   1.197 -0.1702 -0.2253 -0.3125
18322SOL    HW158243   4.823   4.623   1.274  0.9978 -1.2941 -0.9312
18322SOL    HW258244   4.829   4.616   1.123 -1.2105  0.4407 -1.1501
18323SOL     OW58245   0.010   4.711   3.644 -0.0560 -0.2844  0.2437
18323SOL    HW158246   0.053   4.731   3.727  0.3214 -1.0668  0.2454
18323SOL    HW258247  -0.077   4.681   3.669  0.1662 -0.8287  0.3898
18324SOL     OW58248  10.095   5.021   0.429  0.2418  0.1044 -0.1044
18324SOL    HW158249  10.077   5.025   0.523 -0.4135  0.4781 -0.2373
18324SOL    HW258250  10.032   5.082   0.390  0.9922  0.5120 -0.7202
18325SOL     OW58251   7.074   9.187   6.400  0.0280 -0.4733 -0.0080
18325SOL    HW158252   7.112   9.147   6.479  0.1804 -0.3257 -0.0058
18325SOL    HW258253   7.094   9.125   6.330  1.8617  0.4358 -0.3418
18326SOL     OW58254  10.681   2.537   6.012  0.3171 -0.0481 -0.0533
18326SOL    HW158255  10.774   2.518   6.027 -0.1526 -1.4517  1.3503
18326SOL    HW258256  10.654   2.474   5.945  0.4483  0.6216 -0.7506
18327SOL     OW58257  10.808   4.238   7.561  0.2953 -0.2107 -0.0338
18327SOL    HW158258  10.775   4.188   7.487 -1.2008 -0.5353  0.8122
18327SOL    HW258259  10.768   4.325   7.552 -2.0377 -1.0029  1.7262
18328SOL     OW58260   2.564   7.416   8.772  0.4608 -0.0855  0.3550
18328SOL    HW158261   2.639   7.384   8.823  0.5201 -0.8284 -0.1656
18328SOL    HW258262   2.604   7.460   8.697  0.3830 -0.0323  0.3458
18329SOL     OW58263   9.040  10.331   5.831  0.4498  0.4910 -0.1777
18329SOL    HW158264   9.115  10.358   5.884  0.6459 -0.7479  0.2187
18329SOL    HW258265   9.067  10.349   5.741  0.6310  1.4089  0.0503
18330SOL     OW58266   6.302   3.272  11.363  0.7283  0.1312 -0.6294
18330SOL    HW158267   6.291   3.217  11.440 -5.2602 -1.3566 -2.0619
18330SOL    HW258268   6.355   3.219  11.303  0.5047 -1.2374  0.3467
18331SOL     OW58269   2.523   3.802  10.001  0.1351 -0.1248 -0.0421
18331SOL    HW158270   2.557   3.802  10.091  1.1298 -0.3415 -0.3973
18331SOL    HW258271   2.602   3.795   9.947 -0.5258 -1.3729 -0.8898
18332SOL     OW58272   3.848   5.472   5.928  0.2579 -0.4624 -0.0080
18332SOL    HW158273   3.927   5.472   5.873 -0.2032 -1.5261 -0.7162
18332SOL    HW258274   3.880   5.455   6.016  0.8885 -0.2133 -0.1841
18333SOL     OW58275   0.665  10.330   3.575 -0.4094 -0.7643 -0.2549
18333SOL    HW158276   0.753  10.296   3.563 -0.2627 -0.1115 -1.1636
18333SOL    HW258277   0.618  10.305   3.495 -0.9711 -0.8848  0.1057
18334SOL     OW58278   3.711   1.005   6.606  0.2815 -0.3816  0.2721
18334SOL    HW158279   3.737   0.913   6.597 -1.3043 -1.0494  2.0439
18334SOL    HW258280   3.741   1.030   6.694  0.6228  0.7981 -0.1585
18335SOL     OW58281   9.574   2.516   5.266 -0.0889  0.7764 -0.5217
18335SOL    HW158282   9.654   2.541   5.311  0.0219 -0.7316  0.2030
18335SOL    HW258283   9.513   2.589   5.282  0.3979  0.9070  0.9122
18336SOL     OW58284   3.210   3.648   6.377  0.0434  0.5838  0.1246
18336SOL    HW158285   3.132   3.594   6.379  3.2691 -4.8532 -1.4009
18336SOL    HW258286   3.256   3.627   6.458  1.5385  0.8496 -0.6231
18337SOL     OW58287   3.829   1.936   1.574 -0.0390  0.0026 -0.2164
18337SOL    HW158288   3.866   1.893   1.497 -2.0015 -1.0758 -0.6148
18337SOL    HW258289   3.858   2.027   1.567  1.7953 -0.5984 -0.9078
18338SOL     OW58290   5.620   3.664   4.126  0.1801  0.0332  0.0757
18338SOL    HW158291   5.568   3.738   4.158 -0.6234 -0.2580 -0.5384
18338SOL    HW258292   5.662   3.697   4.047 -1.6323 -0.6996 -1.2416
18339SOL     OW58293   2.905   3.435   9.173 -0.0523 -0.5386  0.1586
18339SOL    HW158294   2.822   3.419   9.129 -0.1559 -2.0934  0.8517
18339SOL    HW258295   2.944   3.348   9.184  2.6949  0.2460 -2.0631
18340SOL     OW58296   2.903  10.355   4.503 -0.2507  0.4573 -0.0523
18340SOL    HW158297   2.844  10.401   4.564  1.0711  2.0172  0.1140
18340SOL    HW258298   2.980  10.333   4.555 -0.0629 -0.2717 -0.6166
18341SOL     OW58299   0.918   2.088   3.326  0.7212 -0.4272 -0.5305
18341SOL    HW158300   0.984   2.021   3.345  0.4741 -1.1526 -2.0625
18341SOL    HW258301   0.923   2.100   3.231  0.2410  1.2062 -0.3753
18342SOL     OW58302   9.266  11.315   7.533  0.3704  0.1884  0.5278
18342SOL    HW158303   9.299  11.396   7.495 -0.6784  0.4801  0.2125
18342SOL    HW258304   9.279  11.249   7.464  0.3812  0.2791  0.4435
18343SOL     OW58305   0.072   7.117   0.129  0.0142 -0.7324  0.4779
18343SOL    HW158306   0.024   7.035   0.139 -2.2422  0.4382 -0.0334
18343SOL    HW258307   0.011   7.184   0.160  2.2913  0.6950  2.2511
18344SOL     OW58308   5.120   7.626   5.011 -0.0178 -0.4185 -0.1445
18344SOL    HW158309   5.187   7.682   4.972  1.1831 -1.6636  0.0585
18344SOL    HW258310   5.131   7.542   4.968 -0.8340 -0.9059  0.5685
18345SOL     OW58311   9.825   3.376   1.738 -0.0943 -0.0572 -0.0922
18345SOL    HW158312   9.919   3.392   1.739  0.1383 -1.2929  0.0001
18345SOL    HW258313   9.803   3.356   1.829 -0.2698 -0.6536 -0.2602
18346SOL     OW58314   2.583  11.060   2.961 -0.6290  0.2204 -0.3913
18346SOL    HW158315   2.579  11.148   3.000 -1.5683  0.8862 -1.9176
18346SOL    HW258316   2.665  11.059   2.913 -0.0174 -0.2029  0.6251
18347SOL     OW58317   2.195   9.283   2.470 -0.3802  0.4874  0.4506
18347SOL    HW158318   2.269   9.253   2.523 -0.3133  0.3862  0.3024
18347SOL    HW258319   2.157   9.355   2.520 -0.1350  0.5893  0.4942
18348SOL     OW58320   9.961  11.152   7.460  0.1798 -0.4506 -0.1123
18348SOL    HW158321  10.017  11.180   7.533  1.7584  0.1535 -1.4970
18348SOL    HW258322   9.879  11.201   7.472  1.7749  2.6464 -0.8053
18349SOL     OW58323   9.126   3.530   1.908  0.1913  0.5745 -0.9338
18349SOL    HW158324   9.138   3.488   1.823 -0.1404 -0.2467 -0.5881
18349SOL    HW258325   9.037   3.506   1.934  1.4110 -2.2076  1.2256
18350SOL     OW58326   9.341  10.318   3.669 -0.8771 -0.2700  0.6263
18350SOL    HW158327   9.344  10.231   3.709 -0.5176 -0.3239  0.4866
18350SOL    HW258328   9.325  10.301   3.576 -1.7665 -0.1425  0.7520
18351SOL     OW58329   3.567   9.409  10.901  0.1494  0.0959  0.0610
18351SOL    HW158330   3.517   9.489  10.888 -0.9819 -0.4326  0.9102
18351SOL    HW258331   3.578   9.372  10.813 -1.2262  0.0942 -0.1326
18352SOL     OW58332   1.122  10.609  10.099 -0.5862  0.6512  0.4725
18352SOL    HW158333   1.109  10.694  10.141  0.2742  1.9024 -1.6301
18352SOL    HW258334   1.216  10.603  10.085 -0.8656  0.6405 -1.8066
18353SOL     OW58335   6.554   2.936   4.502 -0.0235  0.2265 -0.2693
18353SOL    HW158336   6.478   2.990   4.481 -1.0189 -1.0995 -0.2338
18353SOL    HW258337   6.592   2.914   4.416 -0.3706 -0.0632 -0.3480
18354SOL     OW58338   3.467   0.650  11.386  0.3809 -0.7769 -0.2179
18354SOL    HW158339   3.493   0.565  11.424  0.0102 -0.0660  1.7222
18354SOL    HW258340   3.384   0.632  11.342  0.2233 -1.3854  0.3132
18355SOL     OW58341   5.032   8.671   0.014  0.2566  0.5436  0.7663
18355SOL    HW158342   4.949   8.709  -0.013  1.1480  1.5781 -0.6129
18355SOL    HW258343   5.071   8.736   0.072  1.7887  1.8785 -1.6069
18356SOL     OW58344   1.836   1.644   6.550 -0.0535 -0.0611  0.0489
18356SOL    HW158345   1.917   1.663   6.503  0.8134 -0.3935  1.3625
18356SOL    HW258346   1.863   1.587   6.622 -1.3908  0.1392  0.7307
18357SOL     OW58347   2.557  11.008  11.198 -0.1259 -0.0984 -0.2560
18357SOL    HW158348   2.577  11.045  11.284  1.1042 -2.0372  0.3650
18357SOL    HW258349   2.521  11.081  11.148  0.0471  1.3220  1.5806
18358SOL     OW58350   0.844   4.906   7.020 -0.5946  0.1943  0.1329
18358SOL    HW158351   0.829   4.926   7.112  1.4473  2.7591  0.0317
18358SOL    HW258352   0.791   4.969   6.972 -0.3061  0.0440 -0.3954
18359SOL     OW58353   6.561   0.279   5.417 -0.3673  0.1137  0.1765
18359SOL    HW158354   6.531   0.370   5.423  0.9070  0.6062 -0.6198
18359SOL    HW258355   6.623   0.270   5.489 -1.2638 -0.4625  0.9014
18360SOL     OW58356   8.661   5.535   3.644  0.1194 -0.3051  0.1444
18360SOL    HW158357   8.741   5.574   3.611 -0.7846  1.0590 -0.5355
18360SOL    HW258358   8.607   5.521   3.567 -1.2092  1.0072  0.7733
18361SOL     OW58359   1.417   5.583  11.009 -1.1480  0.1996  0.1456
18361SOL    HW158360   1.475   5.629  11.070 -1.0959  2.2535 -1.3294
18361SOL    HW258361   1.471   5.513  10.972 -1.4623 -1.7097  3.0192
18362SOL     OW58362  10.312   4.682   5.662 -0.5598 -0.1478 -0.0028
18362SOL    HW158363  10.266   4.629   5.727 -0.1484  1.2222  1.4755
18362SOL    HW258364  10.245   4.704   5.597 -1.9150  1.2973  1.7814
18363SOL     OW58365   6.913   5.100  10.774 -0.0860 -0.0092  0.0482
18363SOL    HW158366   6.821   5.104  10.745  0.2042 -0.1002 -0.9383
18363SOL    HW258367   6.930   5.007  10.786  0.1112 -0.0614 -0.5926
18364SOL     OW58368   0.932   0.283  10.676  0.2986  0.2865  0.6727
18364SOL    HW158369   1.005   0.266  10.735  0.8897  0.4432 -0.0045
18364SOL    HW258370   0.973   0.302  10.591 -0.5097  0.7137  0.3664
18365SOL     OW58371   7.541   3.982   4.066  0.0663 -0.4966  0.2767
18365SOL    HW158372   7.589   3.942   4.138  2.2708  1.4174  0.0028
18365SOL    HW258373   7.502   4.061   4.104 -3.0889 -1.9658  0.4922
18366SOL     OW58374   8.672   3.598   7.484 -0.2986 -0.0083 -0.0133
18366SOL    HW158375   8.696   3.691   7.478 -0.6500  0.0669 -0.2169
18366SOL    HW258376   8.756   3.553   7.495 -0.1865  0.4066  0.9722
18367SOL     OW58377   4.303   7.894  10.137 -0.1709 -0.0088 -0.2338
18367SOL    HW158378   4.236   7.830  10.116  0.5124 -0.6094 -0.6401
18367SOL    HW258379   4.255   7.972  10.165 -1.0102 -0.7390  0.4129
18368SOL     OW58380   5.813  11.369   9.941  0.2186  0.1366 -0.0820
18368SOL    HW158381   5.870  11.294   9.960 -1.1839 -1.0734 -0.4798
18368SOL    HW258382   5.819  11.423  10.019  1.3897 -0.2824  0.1507
18369SOL     OW58383   1.620   4.328   7.661 -0.0548  0.0010 -0.1045
18369SOL    HW158384   1.683   4.320   7.734 -0.7637  1.0391  0.6492
18369SOL    HW258385   1.579   4.242   7.656  1.2323 -0.6188 -0.4421
18370SOL     OW58386   6.880   6.642  10.131  0.5473 -0.2635 -0.1094
18370SOL    HW158387   6.792   6.616  10.159  0.7227  0.7600  1.5234
18370SOL    HW258388   6.939   6.582  10.175  0.7356  0.1093  0.1554
18371SOL     OW58389   6.924   1.616   7.901 -0.3176  0.4579 -0.2168
18371SOL    HW158390   6.870   1.673   7.956 -2.8770 -0.6568 -1.3853
18371SOL    HW258391   7.014   1.640   7.922 -1.2374  2.5727  1.7404
18372SOL     OW58392   1.651   2.862  10.961  0.0483  0.3158  0.7258
18372SOL    HW158393   1.624   2.770  10.964  0.8690  0.0963  1.7165
18372SOL    HW258394   1.569   2.910  10.973 -0.6613 -0.2230 -1.5607
18373SOL     OW58395   4.130   3.379   0.142 -0.0730  0.5370  0.2729
18373SOL    HW158396   4.211   3.430   0.131 -3.6194  6.7667 -2.9670
18373SOL    HW258397   4.086   3.420   0.216 -2.0096  0.3926 -0.7312
18374SOL     OW58398   2.789   5.182   8.534 -0.2779  0.4631 -0.0893
18374SOL    HW158399   2.772   5.144   8.620 -0.3586  0.5589 -0.0625
18374SOL    HW258400   2.719   5.245   8.521 -0.0721  0.6986 -0.0756
18375SOL     OW58401   3.867  11.154   2.418 -0.2179  0.2106  1.3294
18375SOL    HW158402   3.837  11.063   2.424 -0.3831  0.1822  0.2936
18375SOL    HW258403   3.866  11.185   2.508 -0.6172 -0.6729  1.6467
18376SOL     OW58404   8.708   2.433  11.052 -0.4730  0.1479 -0.3327
18376SOL    HW158405   8.661   2.371  11.107 -1.0235  1.5459  0.8312
18376SOL    HW258406   8.663   2.430  10.967 -1.0740 -0.3475 -0.0022
18377SOL     OW58407   2.568   9.056  11.055 -0.3182  0.0616 -0.4387
18377SOL    HW158408   2.608   9.135  11.093 -1.3767  0.9650 -1.1465
18377SOL    HW258409   2.520   9.016  11.128 -1.7201  1.3779 -0.5804
18378SOL     OW58410   4.292   7.705   3.431  0.3884 -0.0779 -0.0000
18378SOL    HW158411   4.245   7.628   3.463 -0.5385  0.4482 -0.0860
18378SOL    HW258412   4.332   7.676   3.349  1.4851 -0.9723  0.8168
18379SOL     OW58413  10.128   2.586   3.154 -0.7135  0.6149 -0.2826
18379SOL    HW158414  10.192   2.561   3.221 -0.5213  1.4600 -0.1417
18379SOL    HW258415  10.160   2.670   3.121 -1.6353  0.9396 -0.3665
18380SOL     OW58416   5.537   9.233   2.159 -0.1088 -0.5692  0.2881
18380SOL    HW158417   5.539   9.276   2.244 -1.2249 -1.0639  0.5741
18380SOL    HW258418   5.554   9.303   2.096  1.7216 -0.3638  0.9506
18381SOL     OW58419   1.542   7.406   5.671 -0.3058  0.6443 -0.2109
18381SOL    HW158420   1.569   7.333   5.727  1.4780  1.1317 -0.3847
18381SOL    HW258421   1.521   7.476   5.733 -0.8049  0.3886 -0.0848
18382SOL     OW58422   1.139   3.315   3.538 -0.3283  0.8632 -0.1511
18382SOL    HW158423   1.233   3.308   3.523 -0.2587 -1.2611  0.8159
18382SOL    HW258424   1.108   3.377   3.472  1.4881  0.2983 -1.6222
18383SOL     OW58425  10.065  10.421   6.106 -0.2481  0.1302 -0.6307
18383SOL    HW158426   9.975  10.392   6.090  0.1363 -0.9790 -0.9067
18383SOL    HW258427  10.116  10.379   6.037  0.2484  2.2234 -1.6229
18384SOL     OW58428   6.909  10.489  11.304  0.5594  0.3270  0.3713
18384SOL    HW158429   6.895  10.487  11.399 -3.6268  2.5248  0.0321
18384SOL    HW258430   6.963  10.567  11.290 -1.3726  1.8513  0.8938
18385SOL     OW58431   9.402   2.495   0.397  0.2034  0.0703 -0.0553
18385SOL    HW158432   9.309   2.476   0.410  0.1441  1.0844  1.2108
18385SOL    HW258433   9.445   2.411   0.412 -0.6048 -0.8746 -2.5486
18386SOL     OW58434   6.130   5.151   4.902 -0.3071 -0.3542 -0.7740
18386SOL    HW158435   6.162   5.182   4.986  0.1373  0.6914 -1.3068
18386SOL    HW258436   6.084   5.070   4.922  1.6056 -1.2776  0.2014
18387SOL     OW58437   0.381   9.638   2.097  0.0524  1.0589  0.1294
18387SOL    HW158438   0.377   9.706   2.030  0.3454  1.4480  0.4971
18387SOL    HW258439   0.469   9.600   2.088 -0.4816 -0.0167 -0.7813
18388SOL     OW58440  10.652   6.850   4.277 -0.3914  0.0352  0.0824
18388SOL    HW158441  10.682   6.928   4.324 -0.2028 -0.4874  0.8393
18388SOL    HW258442  10.719   6.836   4.210 -0.5279  0.6346 -0.1856
18389SOL     OW58443   7.928   4.436   8.358 -0.4764  0.7117 -0.8047
18389SOL    HW158444   7.865   4.368   8.336  0.0497 -0.3233  0.6554
18389SOL    HW258445   8.012   4.390   8.363 -0.0879  1.4806  0.1053
18390SOL     OW58446   9.729   0.964   0.333  0.9640 -0.9282  0.3668
18390SOL    HW158447   9.742   1.048   0.377  0.3826 -1.2310  1.1356
18390SOL    HW258448   9.649   0.977   0.281  1.8828 -0.4347 -0.9668
18391SOL     OW58449   9.153   6.576   3.068 -0.1473 -0.3566  0.6072
18391SOL    HW158450   9.246   6.558   3.052 -0.0979 -0.6081  1.1534
18391SOL    HW258451   9.150   6.603   3.159 -0.2246  2.3587 -0.1120
18392SOL     OW58452   1.853   1.819   7.949  0.1142  0.5123 -0.2852
18392SOL    HW158453   1.790   1.862   8.007 -2.6399 -1.5275 -1.5407
18392SOL    HW258454   1.880   1.741   7.997  0.6734  0.7041 -0.2862
18393SOL     OW58455   1.681  10.530   7.242  0.3856  0.2332  0.8866
18393SOL    HW158456   1.644  10.617   7.226  0.5129  0.3236  1.0813
18393SOL    HW258457   1.630  10.495   7.315  1.1924  0.6730  1.6771
18394SOL     OW58458   4.994  10.390  10.450 -0.2700  0.7056 -0.0362
18394SOL    HW158459   4.981  10.313  10.395 -1.9845  0.6429  0.3992
18394SOL    HW258460   5.059  10.442  10.403 -0.1129 -0.3530 -1.0327
18395SOL     OW58461   2.679   4.968   9.419 -0.6475 -0.1686  0.1120
18395SOL    HW158462   2.682   4.901   9.487  1.3632 -0.0918  0.1576
18395SOL    HW258463   2.685   5.051   9.466 -1.1760 -0.0262 -0.0633
18396SOL     OW58464   9.527   2.598   9.042  0.1567 -0.2501  0.5337
18396SOL    HW158465   9.519   2.651   8.963 -0.8541 -1.1692 -0.0206
18396SOL    HW258466   9.581   2.649   9.101 -0.2759  1.1050 -0.2129
18397SOL     OW58467   1.521   9.539   0.370  0.6384  0.2296  0.4030
18397SOL    HW158468   1.449   9.527   0.431  0.7968 -0.4970  0.4550
18397SOL    HW258469   1.537   9.633   0.369 -0.2586  0.3886  0.4497
18398SOL     OW58470   2.348   4.332   6.841  0.1117  0.3244 -0.4732
18398SOL    HW158471   2.359   4.288   6.756 -2.5245 -1.7895  0.1728
18398SOL    HW258472   2.257   4.359   6.842  0.6693  2.3505  0.8491
18399SOL     OW58473   7.132   0.431   7.122 -0.8741 -0.8382 -0.9746
18399SOL    HW158474   7.138   0.361   7.058 -0.3071  0.8058 -2.8324
18399SOL    HW258475   7.092   0.504   7.073 -0.3671  0.4936  0.5207
18400SOL     OW58476  10.762   7.697   2.490 -0.2455 -0.6133  0.4219
18400SOL    HW158477  10.696   7.715   2.557  0.0485 -0.9642  0.8172
18400SOL    HW258478  10.841   7.741   2.522 -0.6326  1.0547 -0.7682
18401SOL     OW58479   1.994   2.860   2.569  0.0944 -0.1503 -0.0464
18401SOL    HW158480   2.072   2.806   2.581 -0.1145 -0.2551  0.9106
18401SOL    HW258481   1.995   2.883   2.476  1.1917 -0.2475 -0.0692
18402SOL     OW58482   5.867  11.274   6.986 -0.1879  0.3320  0.0170
18402SOL    HW158483   5.836  11.299   7.074  0.9880 -2.3366  1.3059
18402SOL    HW258484   5.960  11.296   6.987  0.8950 -3.5536  1.1954
18403SOL     OW58485   5.282   7.942   3.130  0.1336  0.6406 -0.2555
18403SOL    HW158486   5.309   8.033   3.144 -0.4500  0.5373  1.8621
18403SOL    HW258487   5.363   7.895   3.110  0.5533  1.4857 -0.5778
18404SOL     OW58488   3.990   7.480   9.430  0.2327 -0.0727 -0.4664
18404SOL    HW158489   3.972   7.469   9.337  1.1675 -0.5337 -0.6051
18404SOL    HW258490   3.965   7.396   9.469 -2.7785  0.9780  0.1784
18405SOL     OW58491   1.340   1.991   9.471 -0.4424 -0.2279 -0.3926
18405SOL    HW158492   1.336   2.011   9.565 -0.3296 -2.0622  0.0346
18405SOL    HW258493   1.341   2.077   9.429  2.4935  0.7364  1.3709
18406SOL     OW58494   6.058   9.909   1.816  0.4128 -0.2592 -0.2905
18406SOL    HW158495   6.094   9.910   1.728 -0.7178 -0.2388 -0.7636
18406SOL    HW258496   6.087   9.992   1.855  0.9057 -0.2667 -0.6359
18407SOL     OW58497   9.962   8.426   3.229 -0.5126  0.1125  0.0470
18407SOL    HW158498   9.928   8.467   3.308 -1.7139 -1.6458  0.5134
18407SOL    HW258499   9.885   8.417   3.172 -0.0560 -0.4399 -0.5014
18408SOL     OW58500   7.807   3.959   7.457  0.7675  0.8252  0.0490
18408SOL    HW158501   7.798   3.879   7.405  1.6980  2.1628 -2.3046
18408SOL    HW258502   7.832   3.928   7.544 -1.0502 -1.5262 -0.1634
18409SOL     OW58503  10.029   1.761   1.430 -0.1576 -0.6277 -0.4846
18409SOL    HW158504  10.059   1.670   1.433 -0.5884 -0.7542  0.2225
18409SOL    HW258505   9.938   1.755   1.399  0.0639 -0.3613 -1.2265
18410SOL     OW58506  10.147   7.659   9.944 -0.0857 -0.1640 -0.2550
18410SOL    HW158507  10.190   7.677  10.028 -0.1241  0.0499 -0.2794
18410SOL    HW258508  10.080   7.728   9.936  0.6345  0.4789 -0.9567
18411SOL     OW58509   4.053   2.533   7.387  0.0367 -0.5495  0.3861
18411SOL    HW158510   4.091   2.522   7.299 -0.1986 -1.7413  0.4119
18411SOL    HW258511   4.129   2.544   7.444  0.2534 -0.9295  0.1801
18412SOL     OW58512   4.079   3.031   7.255 -0.3408  0.4719  0.6873
18412SOL    HW158513   3.992   3.001   7.284 -1.2461  0.8659 -1.4136
18412SOL    HW258514   4.066   3.123   7.231  0.2448  0.1197 -1.1083
18413SOL     OW58515  10.159   5.628   8.356 -0.0039 -0.1797 -0.2139
18413SOL    HW158516  10.227   5.636   8.423 -0.5943  2.4086  0.2000
18413SOL    HW258517  10.204   5.593   8.280  1.5663  0.5100  0.3584
18414SOL     OW58518   1.856   8.678   6.054  0.3119  0.2606  0.1667
18414SOL    HW158519   1.764   8.673   6.081  0.1773  0.5958 -0.2290
18414SOL    HW258520   1.904   8.694   6.136 -0.1115  1.5178  0.1818
18415SOL     OW58521   0.061   7.257   9.178  0.3794  0.8066  0.2798
18415SOL    HW158522   0.097   7.330   9.127 -3.8441  1.7329 -1.8312
18415SOL    HW258523   0.028   7.298   9.258  0.7882  0.6025  0.5567
18416SOL     OW58524   5.407   1.626   8.820  0.2390  0.2158 -0.5757
18416SOL    HW158525   5.459   1.638   8.740 -0.4809 -2.7318 -1.6159
18416SOL    HW258526   5.321   1.662   8.798 -0.7076 -2.6488 -2.1823
18417SOL     OW58527   3.771   2.486   4.008 -0.4456 -0.2784 -0.0566
18417SOL    HW158528   3.859   2.514   3.984 -1.1082  0.5771 -1.6332
18417SOL    HW258529   3.764   2.396   3.973 -0.3142 -0.2166 -0.2450
18418SOL     OW58530  10.668   6.637   9.291  0.5183 -0.6521 -0.3143
18418SOL    HW158531  10.706   6.724   9.303  1.0845 -0.7283 -1.4638
18418SOL    HW258532  10.743   6.577   9.290  0.2291 -1.0157 -0.7374
18419SOL     OW58533   4.641   0.260   0.917  0.2576 -0.2989  0.3453
18419SOL    HW158534   4.716   0.301   0.961  0.8487 -0.5348 -0.4208
18419SOL    HW258535   4.576   0.330   0.909 -0.0279 -0.3342  1.9115
18420SOL     OW58536  10.473   8.111   0.983 -0.2464  0.1171  0.7654
18420SOL    HW158537  10.396   8.136   0.932 -1.0642 -1.7108  0.9893
18420SOL    HW258538  10.547   8.133   0.927 -1.1002 -1.7642 -1.2934
18421SOL     OW58539   4.318   6.427   1.128 -0.0428 -0.2050  0.8530
18421SOL    HW158540   4.308   6.407   1.035 -0.9937 -0.7216  1.0579
18421SOL    HW258541   4.371   6.507   1.129  0.9303 -0.8149 -0.0832
18422SOL     OW58542  10.139   4.094   1.106  0.1233  0.2624 -0.2427
18422SOL    HW158543  10.145   4.037   1.030 -2.2363  0.2646 -0.5020
18422SOL    HW258544  10.141   4.034   1.181 -1.4340 -0.1302 -0.4832
18423SOL     OW58545   0.682  10.447   9.406 -0.0671 -0.1128 -0.2070
18423SOL    HW158546   0.752  10.389   9.375  1.3415  1.4606 -0.0758
18423SOL    HW258547   0.603  10.416   9.360  0.9224 -1.2067 -1.2269
18424SOL     OW58548   5.661   9.411   4.418 -0.0763  0.4901 -0.3273
18424SOL    HW158549   5.712   9.472   4.471 -1.0932  0.6112  0.5433
18424SOL    HW258550   5.707   9.327   4.426  0.0787  0.6315  0.3147
18425SOL     OW58551  10.476   0.976   3.678 -0.0686 -0.5193  0.2092
18425SOL    HW158552  10.510   1.064   3.661  2.2264 -1.7749 -2.4673
18425SOL    HW258553  10.390   0.975   3.637 -1.8780  1.4550  3.4994
18426SOL     OW58554   9.145   4.696  11.152 -0.5271  0.2371  0.2275
18426SOL    HW158555   9.187   4.741  11.225  0.5088  0.2753 -0.3694
18426SOL    HW258556   9.214   4.643  11.114 -0.7432  1.0270 -1.3722
18427SOL     OW58557   7.818  10.768   8.225 -0.0716 -0.6518 -0.3637
18427SOL    HW158558   7.770  10.743   8.146  0.0163 -1.8917 -0.0459
18427SOL    HW258559   7.755  10.754   8.296 -1.0154  2.7912 -0.3349
18428SOL     OW58560   5.574   3.537   4.540  0.9721 -0.1138  0.3509
18428SOL    HW158561   5.540   3.459   4.496  2.9065 -0.4482 -0.7145
18428SOL    HW258562   5.546   3.610   4.485  0.6573 -0.2279  0.3593
18429SOL     OW58563   9.187   0.304  10.626 -0.3855  0.2284  0.4936
18429SOL    HW158564   9.103   0.343  10.604  0.0671 -0.3856 -2.9474
18429SOL    HW258565   9.246   0.378  10.638 -0.5044  0.7437 -1.6091
18430SOL     OW58566   8.757   2.451   6.134 -0.5334  0.3533  0.2582
18430SOL    HW158567   8.773   2.364   6.097  5.1149  0.5732  1.3120
18430SOL    HW258568   8.716   2.434   6.219  1.0311 -1.4368  0.7127
18431SOL     OW58569  11.121   9.359   4.601 -0.0014 -0.1361  0.4511
18431SOL    HW158570  11.064   9.301   4.551 -0.8552  0.0313  1.1972
18431SOL    HW258571  11.209   9.335   4.575 -0.4140 -0.1198 -1.0508
18432SOL     OW58572   6.660   8.083   6.266 -0.5138  0.4280 -0.7240
18432SOL    HW158573   6.630   8.093   6.175  0.8614  2.0806 -1.0573
18432SOL    HW258574   6.741   8.135   6.270  1.5941 -2.6233  0.4409
18433SOL     OW58575   4.414   9.387  11.282  0.1314  0.3521 -0.2055
18433SOL    HW158576   4.371   9.469  11.259  2.3147  1.3485 -0.9446
18433SOL    HW258577   4.435   9.346  11.198 -0.3988 -0.6935  0.1517
18434SOL     OW58578   8.649   5.402   6.172 -0.3703 -0.3032 -0.3551
18434SOL    HW158579   8.645   5.313   6.209  0.7902  0.1973  1.0841
18434SOL    HW258580   8.718   5.445   6.222  0.4523  0.8339 -2.3416
18435SOL     OW58581  10.638  10.881   8.377  0.1280  0.1257  0.1151
18435SOL    HW158582  10.569  10.922   8.428 -1.2891 -0.8135 -0.9473
18435SOL    HW258583  10.613  10.896   8.286  1.2258 -0.4057 -0.3015
18436SOL     OW58584   9.536   6.931   3.671 -0.3664  0.1553 -0.2309
18436SOL    HW158585   9.501   6.943   3.759  2.2388  0.5460  0.8146
18436SOL    HW258586   9.603   6.863   3.680 -0.5241 -0.3304 -2.0892
18437SOL     OW58587   1.452   4.741   9.636  0.2375 -0.5192  0.1782
18437SOL    HW158588   1.359   4.722   9.623  0.1674 -0.2942  0.3546
18437SOL    HW258589   1.497   4.663   9.601 -0.0147 -0.6320  0.0995
18438SOL     OW58590   9.948   5.445  10.711  0.7206  1.0629  0.5412
18438SOL    HW158591   9.900   5.488  10.781  3.2274  2.6189  1.4469
18438SOL    HW258592   9.925   5.495  10.632  0.6092  1.5907  0.9016
18439SOL     OW58593   3.235   4.939   8.404  0.2295  0.3491  0.4578
18439SOL    HW158594   3.304   4.874   8.393 -0.5700 -0.5220  0.4969
18439SOL    HW258595   3.202   4.954   8.315 -0.4225 -0.2493  0.5859
18440SOL     OW58596   4.436  11.094   1.320  0.6104 -0.4085  0.7744
18440SOL    HW158597   4.468  11.180   1.347  1.5846 -0.4744 -0.1056
18440SOL    HW258598   4.341  11.104   1.313  0.5099  0.0683  2.4996
18441SOL     OW58599   0.214   2.280   8.161  0.2644 -0.1408 -0.0529
18441SOL    HW158600   0.176   2.316   8.240 -0.1107  1.0883 -0.7628
18441SOL    HW258601   0.148   2.219   8.127 -0.1411  0.3252 -0.1107
18442SOL     OW58602   1.776   7.509   9.461  0.1370  0.3508 -0.3752
18442SOL    HW158603   1.850   7.525   9.520 -0.1877 -0.1189  0.1749
18442SOL    HW258604   1.750   7.596   9.431  0.5717  0.5628 -0.1535
18443SOL     OW58605   0.674   5.063   8.904  0.6070  0.0646  0.1591
18443SOL    HW158606   0.627   4.990   8.863  0.0497  1.2511 -1.4393
18443SOL    HW258607   0.759   5.064   8.860  0.8120  0.0516  0.5567
18444SOL     OW58608   2.228   6.214   4.356 -0.3935  0.2940  0.0521
18444SOL    HW158609   2.272   6.277   4.299 -0.5294 -0.4418 -0.8779
18444SOL    HW258610   2.136   6.217   4.328 -0.8636  1.3654  1.5629
18445SOL     OW58611   0.661  11.249   0.314 -0.1933  0.1317  0.1734
18445SOL    HW158612   0.605  11.208   0.381 -0.9351  0.2235 -0.3756
18445SOL    HW258613   0.599  11.291   0.254  0.4325 -0.3439 -0.8253
18446SOL     OW58614   1.380   0.277   8.389 -0.3118  0.4293 -0.5538
18446SOL    HW158615   1.319   0.350   8.380 -0.5375  0.2062 -0.8215
18446SOL    HW258616   1.397   0.248   8.299 -0.2207  0.1511 -0.4486
18447SOL     OW58617   0.313   4.176   9.458 -0.1649  1.1491 -0.6293
18447SOL    HW158618   0.370   4.130   9.397  0.2790  1.7975 -0.7157
18447SOL    HW258619   0.292   4.112   9.525  0.7821  0.9390 -0.5228
18448SOL     OW58620   9.728   7.697   5.256 -0.0527  0.9585 -0.5013
18448SOL    HW158621   9.807   7.744   5.283  0.0909  0.7646 -0.5824
18448SOL    HW258622   9.753   7.604   5.259 -0.6997  0.8054  0.8886
18449SOL     OW58623   9.849   8.006  11.234  0.3314  0.1529  0.4611
18449SOL    HW158624   9.876   7.965  11.152 -1.9428 -1.8665  0.6104
18449SOL    HW258625   9.924   7.994  11.292  0.8359 -1.2323 -0.4043
18450SOL     OW58626   0.758   0.570   7.236 -0.2708 -0.2608 -0.2976
18450SOL    HW158627   0.698   0.621   7.291 -0.5564 -0.7479 -0.1515
18450SOL    HW258628   0.741   0.601   7.147  0.5814  0.9264 -0.0703
18451SOL     OW58629   0.612   0.322  11.142 -0.2393  0.7158 -0.0775
18451SOL    HW158630   0.572   0.275  11.069  2.4755 -2.4613  0.2185
18451SOL    HW258631   0.546   0.319  11.211 -1.3645  0.2219 -1.1378
18452SOL     OW58632   4.957  10.278   4.941 -0.2414  0.4131  0.1306
18452SOL    HW158633   5.013  10.248   5.012 -0.1951  0.8268  0.2738
18452SOL    HW258634   4.967  10.373   4.941  1.2460  0.3066 -1.6604
18453SOL     OW58635   5.721   7.077   7.298  0.4778  0.4835  0.0332
18453SOL    HW158636   5.678   7.052   7.380 -2.1109  1.7052 -0.8531
18453SOL    HW258637   5.760   6.996   7.266 -2.0408 -0.9933  0.4507
18454SOL     OW58638   2.514   4.529   2.400  0.2917 -0.0167  0.1317
18454SOL    HW158639   2.476   4.490   2.321 -1.2619 -1.3026  1.4731
18454SOL    HW258640   2.601   4.489   2.407  0.3176 -0.1357 -0.7256
18455SOL     OW58641   0.058  10.002   1.724 -0.0604 -0.2359  0.1237
18455SOL    HW158642   0.065  10.081   1.778 -0.0416 -1.3607  1.8160
18455SOL    HW258643  -0.032  10.001   1.693  0.1193  0.7862 -0.4822
18456SOL     OW58644  10.047   9.060   6.256 -0.0160  0.0501 -0.2451
18456SOL    HW158645   9.974   9.121   6.261  0.5022  0.5892  1.3746
18456SOL    HW258646  10.008   8.974   6.267 -0.4621  0.3041  0.1733
18457SOL     OW58647   9.603   4.940   3.254  0.8597  0.1053  0.0894
18457SOL    HW158648   9.654   4.929   3.174  1.9812  0.4118  0.7370
18457SOL    HW258649   9.631   4.868   3.310  0.3332  0.0931  0.3434
18458SOL     OW58650   0.888  10.029   7.582 -0.0232  0.1623 -0.4397
18458SOL    HW158651   0.976   9.992   7.589  0.8566  2.4306  2.8558
18458SOL    HW258652   0.841   9.992   7.656 -0.8983  1.2244 -0.4445
18459SOL     OW58653   2.525   4.310   9.544  0.3555  0.1210  0.9347
18459SOL    HW158654   2.435   4.339   9.560 -0.2121 -2.1699  2.4204
18459SOL    HW258655   2.525   4.280   9.453 -0.5982 -0.5197  1.1337
18460SOL     OW58656   9.919   1.204   6.691 -0.6881 -0.0073  0.1985
18460SOL    HW158657   9.851   1.138   6.679 -0.3274 -0.1630 -1.0818
18460SOL    HW258658   9.960   1.212   6.605 -0.2862  1.4088  0.5061
18461SOL     OW58659   8.892   0.330   0.643 -0.3829  0.0360  0.0902
18461SOL    HW158660   8.800   0.323   0.667 -0.3871 -1.2880 -0.2238
18461SOL    HW258661   8.907   0.256   0.584  0.1588  1.8460 -2.2006
18462SOL     OW58662   8.822   2.624   0.781  0.4759  0.7043  0.2122
18462SOL    HW158663   8.902   2.596   0.826 -0.8786 -3.5721  0.4672
18462SOL    HW258664   8.843   2.618   0.688  0.4946 -0.5059  0.2756
18463SOL     OW58665   3.839   6.203   7.529  0.3426 -0.1691 -0.0195
18463SOL    HW158666   3.793   6.132   7.483 -1.1101  1.2163 -0.7869
18463SOL    HW258667   3.931   6.177   7.526 -0.1312 -1.9378 -0.4149
18464SOL     OW58668   0.126  10.568   3.634 -0.3775 -0.8781  0.1330
18464SOL    HW158669   0.033  10.581   3.613 -0.1475 -0.1508 -0.4915
18464SOL    HW258670   0.140  10.474   3.625 -0.4811 -0.7140 -2.2985
18465SOL     OW58671   8.013   4.962   9.520 -0.3977 -0.2711 -0.3968
18465SOL    HW158672   8.044   5.042   9.478 -0.4532  0.3657  0.7430
18465SOL    HW258673   7.940   4.990   9.575 -2.1331 -1.5119 -1.9051
18466SOL     OW58674   3.917   7.793   5.502 -0.4722 -0.0833  0.2708
18466SOL    HW158675   3.926   7.707   5.544 -0.8261 -0.0179  0.4753
18466SOL    HW258676   3.876   7.849   5.568 -0.2402  0.2468  0.1399
18467SOL     OW58677  11.174   0.272   0.182  0.1866  0.6964 -0.0902
18467SOL    HW158678  11.267   0.263   0.160 -0.2621 -1.9345 -1.3193
18467SOL    HW258679  11.160   0.207   0.251 -1.0396 -0.0765 -1.0282
18468SOL     OW58680  10.612  10.883   2.716  0.0636 -0.2379  0.8308
18468SOL    HW158681  10.520  10.863   2.698  0.3363 -0.8140  0.0205
18468SOL    HW258682  10.655  10.797   2.721  1.2545  0.0059 -2.6696
18469SOL     OW58683   6.373   8.862   8.553 -0.4044 -0.2043 -0.1589
18469SOL    HW158684   6.300   8.807   8.525  0.3155  0.0396 -2.8200
18469SOL    HW258685   6.422   8.807   8.615 -1.8505 -0.9996  0.3311
18470SOL     OW58686   2.557   4.962  10.433 -0.5914 -0.0654 -0.8470
18470SOL    HW158687   2.586   5.020  10.504  0.1912 -1.8513  0.3852
18470SOL    HW258688   2.463   4.978  10.426 -0.7286  0.0490  0.7553
18471SOL     OW58689  10.515   2.973   3.417 -0.4714  0.3561 -0.6582
18471SOL    HW158690  10.461   2.928   3.483  0.0358  1.6418  0.6872
18471SOL    HW258691  10.463   3.049   3.391  0.3058  1.1706  0.0683
18472SOL     OW58692   4.041   5.115  11.053  0.2703 -0.0018 -0.2370
18472SOL    HW158693   4.104   5.150  10.991  2.1895 -1.7964  0.5658
18472SOL    HW258694   3.983   5.060  11.001 -0.3331  1.2220 -0.8977
18473SOL     OW58695   4.353   7.781   0.574 -0.5342 -0.7456  0.0406
18473SOL    HW158696   4.346   7.706   0.633 -0.8738 -0.3300  0.5308
18473SOL    HW258697   4.423   7.834   0.610  0.6419 -1.4795 -1.0607
18474SOL     OW58698   0.889   7.224   4.740  0.8971 -0.3286  0.2313
18474SOL    HW158699   0.802   7.257   4.718  0.7204 -0.0329  1.3246
18474SOL    HW258700   0.896   7.140   4.694  0.1976 -0.1684 -0.1787
18475SOL     OW58701   7.465   7.720   3.671  0.3602  0.3448 -0.1040
18475SOL    HW158702   7.531   7.651   3.666  0.2902  0.2569  0.1820
18475SOL    HW258703   7.507   7.791   3.720 -0.3009 -0.3490  1.5398
18476SOL     OW58704   8.522   7.449   3.576  0.4368  0.5690 -0.3400
18476SOL    HW158705   8.457   7.382   3.554  0.2502  0.5859  0.1524
18476SOL    HW258706   8.570   7.412   3.650 -0.4725  1.4913  0.7427
18477SOL     OW58707   0.909   4.614   9.650  0.4475 -0.0849  0.5304
18477SOL    HW158708   0.898   4.525   9.684 -2.1448  0.4757  1.3956
18477SOL    HW258709   0.955   4.661   9.720  1.1273 -0.5275  0.3923
18478SOL     OW58710   3.675   0.375   4.815  0.3472  0.3148  0.2824
18478SOL    HW158711   3.604   0.348   4.756  0.3327  0.3527  0.2823
18478SOL    HW258712   3.755   0.352   4.768  0.3359  0.3758  0.2330
18479SOL     OW58713  11.385   3.205   5.757 -0.1381  0.2208  0.5907
18479SOL    HW158714  11.473   3.213   5.794  0.2200  0.6860 -0.3272
18479SOL    HW258715  11.329   3.250   5.821  0.4156  0.7218  0.7422
18480SOL     OW58716   2.593   5.827   3.785  0.3154 -0.7129  0.3919
18480SOL    HW158717   2.501   5.844   3.806 -0.0390 -0.3523 -1.3034
18480SOL    HW258718   2.638   5.909   3.808  0.2665 -0.9477  1.3803
18481SOL     OW58719   4.562   6.783   4.175  0.1261  0.0544  0.4735
18481SOL    HW158720   4.520   6.787   4.089 -0.3538  0.2560  0.7157
18481SOL    HW258721   4.613   6.703   4.173  0.5823  0.3573 -0.2136
18482SOL     OW58722   4.433   3.328   0.329  0.8198  0.4000  0.5258
18482SOL    HW158723   4.410   3.420   0.319  0.5187  0.3499  0.7510
18482SOL    HW258724   4.470   3.322   0.417  1.3460  0.4078  0.3092
18483SOL     OW58725   3.119   4.366   8.750 -0.0645 -0.1580  0.4649
18483SOL    HW158726   3.074   4.449   8.736  3.0545  1.4945 -0.7225
18483SOL    HW258727   3.155   4.373   8.839  2.8117  1.2804 -0.6892
18484SOL     OW58728  10.757   7.741  10.953 -0.2742 -0.0053 -0.1595
18484SOL    HW158729  10.827   7.690  10.912  0.0847  0.0485  0.3787
18484SOL    HW258730  10.802   7.811  11.000 -0.7604  0.8454 -0.9101
18485SOL     OW58731   8.070   5.827   7.078 -0.1353 -0.6776  0.1962
18485SOL    HW158732   8.000   5.794   7.022 -1.0669  0.7532  0.4459
18485SOL    HW258733   8.076   5.920   7.055  1.4767 -0.6969  0.4242
18486SOL     OW58734   2.872   1.088   2.387 -0.1401  0.6726  0.2654
18486SOL    HW158735   2.911   1.006   2.356  1.2808  1.8496 -1.2970
18486SOL    HW258736   2.833   1.127   2.308 -3.1420  0.3567  1.4617
18487SOL     OW58737   2.198   9.480  10.359 -0.1216  0.0922  0.2824
18487SOL    HW158738   2.230   9.544  10.421  1.1941  1.0363 -1.2863
18487SOL    HW258739   2.107   9.505  10.343  0.1722  1.1490  0.2188
18488SOL     OW58740   8.234   4.539   8.652 -0.2430  0.4608 -0.2977
18488SOL    HW158741   8.328   4.551   8.636  0.1050 -1.6772 -0.1923
18488SOL    HW258742   8.229   4.460   8.707 -2.0784  0.8273  0.1298
18489SOL     OW58743   6.251   7.226   0.637  0.2345 -0.5735  0.2910
18489SOL    HW158744   6.188   7.241   0.567 -0.9315 -1.0280  1.2213
18489SOL    HW258745   6.227   7.289   0.705 -0.1158 -1.6877  1.2210
18490SOL     OW58746   5.819  10.416   4.908 -0.1756  0.1648  0.1285
18490SOL    HW158747   5.868  10.496   4.922  0.2315 -0.1488  0.5093
18490SOL    HW258748   5.877  10.361   4.856 -0.2127 -0.1244  0.3932
18491SOL     OW58749   5.078   1.912   8.584 -0.1568  0.3665  0.6241
18491SOL    HW158750   4.987   1.923   8.555 -0.2878  0.2325  0.9771
18491SOL    HW258751   5.122   1.992   8.555 -0.5761  0.8062  1.1785
18492SOL     OW58752   8.180   5.508   4.526 -0.1091 -0.2085  0.4133
18492SOL    HW158753   8.179   5.413   4.535 -0.7855 -0.3466 -0.8613
18492SOL    HW258754   8.091   5.535   4.549 -0.0603  0.0660  0.2843
18493SOL     OW58755   7.709   1.509   6.207 -0.2058 -0.6425 -0.2504
18493SOL    HW158756   7.801   1.536   6.207  0.1930 -1.7670  1.8571
18493SOL    HW258757   7.705   1.438   6.271 -3.0114  1.0646  1.6790
18494SOL     OW58758   0.065   1.162   3.595  0.3461 -0.1394  0.4696
18494SOL    HW158759   0.013   1.100   3.646 -0.5715 -0.1667 -0.4716
18494SOL    HW258760   0.041   1.248   3.630  1.8027 -0.2897  1.9441
18495SOL     OW58761  10.167  10.949   1.146 -0.1739 -0.2793  0.1954
18495SOL    HW158762  10.241  11.009   1.134  1.1699 -1.6909  1.0890
18495SOL    HW258763  10.134  10.932   1.058  1.1294 -0.3100 -0.2944
18496SOL     OW58764   4.848   4.137   4.602 -0.0497  0.3290 -0.7567
18496SOL    HW158765   4.885   4.057   4.640  0.5692  1.2495  0.6804
18496SOL    HW258766   4.917   4.202   4.613 -1.2969  1.5673  0.0367
18497SOL     OW58767   6.774   4.569   2.458  0.2216 -0.0383  0.1308
18497SOL    HW158768   6.822   4.489   2.435 -1.9494 -1.2094 -0.6781
18497SOL    HW258769   6.705   4.538   2.517 -0.0240  1.4334  0.6428
18498SOL     OW58770   6.981   3.269   0.171  0.1936 -0.3354  0.1181
18498SOL    HW158771   6.924   3.219   0.112 -1.3172 -0.2698  1.4588
18498SOL    HW258772   6.921   3.309   0.234  1.6202  0.8879  0.7634
18499SOL     OW58773   2.555   8.332   5.972  0.5748  0.2182 -0.0407
18499SOL    HW158774   2.521   8.374   5.893 -0.4202  0.6973  0.6149
18499SOL    HW258775   2.603   8.256   5.941 -1.2540 -0.5736 -1.0125
18500SOL     OW58776   6.740   3.288   5.645  0.1066 -0.5792  0.1626
18500SOL    HW158777   6.805   3.354   5.672  1.5636 -1.2106 -1.5977
18500SOL    HW258778   6.682   3.335   5.585 -0.4380 -0.2906  0.8950
18501SOL     OW58779   4.231   5.222   7.761 -0.5262 -0.8805  0.0669
18501SOL    HW158780   4.236   5.152   7.695  2.6231 -1.2122  0.5219
18501SOL    HW258781   4.218   5.176   7.844 -1.9273 -0.6226  0.0238
18502SOL     OW58782   8.586   9.250   2.761 -0.3498 -0.5453 -0.1483
18502SOL    HW158783   8.637   9.316   2.714 -2.3402  0.6085 -0.7846
18502SOL    HW258784   8.603   9.268   2.854  2.2193 -1.7160 -0.3169
18503SOL     OW58785   1.029   0.630   0.872  0.3459 -0.4318  0.4584
18503SOL    HW158786   1.106   0.684   0.857 -0.7286  1.2975  0.8860
18503SOL    HW258787   0.979   0.637   0.790 -0.8539  1.0781  1.2729
18504SOL     OW58788   8.297   7.750  10.252  0.2780 -0.5392  0.3045
18504SOL    HW158789   8.226   7.742  10.316 -1.6000 -0.3268 -1.6382
18504SOL    HW258790   8.258   7.799  10.179  2.6789  0.2819 -0.5319
18505SOL     OW58791   3.071  10.721   4.304  0.1932  0.0816 -0.2623
18505SOL    HW158792   3.054  10.752   4.393  1.9598  0.5516 -0.0378
18505SOL    HW258793   3.019  10.642   4.295 -1.1551  0.8228  0.6613
18506SOL     OW58794   6.056   6.524   1.805 -0.2887  0.3580  0.5723
18506SOL    HW158795   6.100   6.455   1.756  0.2613  1.7698 -0.9969
18506SOL    HW258796   5.966   6.525   1.771  0.1240  1.4147 -0.5596
18507SOL     OW58797  11.379   4.524  10.223 -0.1552 -0.1456  0.8810
18507SOL    HW158798  11.310   4.532  10.158 -2.0563 -1.2083  2.6558
18507SOL    HW258799  11.364   4.595  10.284  1.1529  0.3924  0.6151
18508SOL     OW58800   3.451   4.602   6.028 -0.4558 -0.4145  0.7218
18508SOL    HW158801   3.494   4.667   6.083 -0.7194 -0.3080  0.8015
18508SOL    HW258802   3.464   4.519   6.073  0.9678 -0.6157  0.0008
18509SOL     OW58803   9.543   1.428   0.090  0.1034 -0.1435  0.3423
18509SOL    HW158804   9.553   1.430   0.185 -0.9258 -0.3722  0.4612
18509SOL    HW258805   9.532   1.520   0.064  0.0200 -0.1127  0.4870
18510SOL     OW58806   1.850   2.548   4.330 -0.2257 -0.4741 -0.2885
18510SOL    HW158807   1.787   2.562   4.259 -0.0485 -2.7098 -0.9512
18510SOL    HW258808   1.892   2.634   4.340 -2.7170  0.8671 -0.3955
18511SOL     OW58809   3.369   0.563   8.480  0.4401  0.5455 -0.2694
18511SOL    HW158810   3.428   0.593   8.411  0.2696  0.3218 -0.5130
18511SOL    HW258811   3.312   0.638   8.497 -0.1747  0.2787 -1.0790
18512SOL     OW58812   3.642   3.866   8.583 -0.7632 -0.2394  0.1705
18512SOL    HW158813   3.569   3.866   8.521 -0.7120  0.9166  0.0841
18512SOL    HW258814   3.700   3.797   8.552 -1.8545 -1.2232  0.2883
18513SOL     OW58815   5.519   8.306   9.799 -0.4965 -0.2225  0.2942
18513SOL    HW158816   5.600   8.335   9.757 -0.8902  1.0676  0.3828
18513SOL    HW258817   5.530   8.212   9.809 -0.5588 -0.7364 -3.1537
18514SOL     OW58818   0.503  10.851   7.318  0.1535  0.0999  0.0746
18514SOL    HW158819   0.457  10.909   7.379 -0.4424  0.7617 -0.9709
18514SOL    HW258820   0.488  10.890   7.232  0.3212 -1.2293 -0.5875
18515SOL     OW58821   4.837   5.353   4.052 -0.1648 -0.1868  0.2294
18515SOL    HW158822   4.793   5.341   4.137 -0.5862  0.2698  0.0784
18515SOL    HW258823   4.920   5.306   4.062 -0.6537 -1.0234  0.5431
18516SOL     OW58824   4.040   0.535   8.428  0.4063  0.2142  0.2235
18516SOL    HW158825   4.115   0.564   8.377  1.4004 -3.5228 -0.7332
18516SOL    HW258826   3.967   0.535   8.365  0.8385 -1.0508 -0.3088
18517SOL     OW58827   2.992   4.358   8.031 -0.3638 -0.5983 -0.7103
18517SOL    HW158828   3.025   4.284   7.980  1.5795 -1.3355  1.4431
18517SOL    HW258829   2.898   4.361   8.012 -0.6370 -3.9768 -0.4673
18518SOL     OW58830   7.622   9.826   7.070  0.0466 -0.0872  0.2231
18518SOL    HW158831   7.531   9.837   7.041  0.7278  0.5308 -1.8597
18518SOL    HW258832   7.651   9.747   7.026  0.6016 -0.1684  0.7240
18519SOL     OW58833   6.209   3.961   2.309  0.3094 -0.3604 -0.3089
18519SOL    HW158834   6.246   4.048   2.294  0.1726 -0.0780  0.8786
18519SOL    HW258835   6.273   3.916   2.363  0.5773 -1.1654 -1.2752
18520SOL     OW58836   8.906   8.421   3.595 -0.0414 -0.4487 -0.7127
18520SOL    HW158837   8.948   8.375   3.668 -0.9331 -1.1791 -0.6381
18520SOL    HW258838   8.973   8.427   3.528  0.6176 -0.2946 -0.0539
18521SOL     OW58839   1.185  10.602   6.566  0.0383 -0.2396 -0.1338
18521SOL    HW158840   1.118  10.621   6.501 -1.7420 -0.7469  1.4505
18521SOL    HW258841   1.262  10.580   6.515 -1.0960 -0.0394 -2.0512
18522SOL     OW58842   6.700   4.359  10.966  0.0477  0.3545  0.3779
18522SOL    HW158843   6.638   4.364  10.893 -0.8307  0.2928  1.1095
18522SOL    HW258844   6.661   4.412  11.035  0.8419  0.3594  0.8372
18523SOL     OW58845   2.197   1.098   3.733  0.2699 -0.5227  0.7228
18523SOL    HW158846   2.113   1.052   3.744 -0.5246  0.9127  0.8398
18523SOL    HW258847   2.227   1.072   3.645 -1.1944  0.3429 -0.0635
18524SOL     OW58848   6.478   4.750   6.681  0.1075 -0.2795 -0.3909
18524SOL    HW158849   6.390   4.743   6.717  1.0519 -0.4386  2.0624
18524SOL    HW258850   6.482   4.838   6.643 -0.4306  0.6399  1.5569
18525SOL     OW58851  11.177   8.594   5.962 -0.4070  0.2457  0.5654
18525SOL    HW158852  11.175   8.675   6.013  0.2053  0.6518 -0.0225
18525SOL    HW258853  11.098   8.547   5.987 -1.7925  1.9002 -0.4521
18526SOL     OW58854   1.314  10.339  11.128  0.2241 -0.1654 -0.5671
18526SOL    HW158855   1.371  10.304  11.196 -0.7939 -1.4558 -0.3440
18526SOL    HW258856   1.368  10.404  11.082  2.1658 -1.9064 -0.8946
18527SOL     OW58857   5.140   0.328   8.192  0.0927  0.2578  0.0934
18527SOL    HW158858   5.142   0.388   8.267 -1.1294 -1.3547  1.5082
18527SOL    HW258859   5.231   0.323   8.163  0.5553  1.1678  1.2895
18528SOL     OW58860   3.060   7.349   8.699 -0.3772  0.1691  0.0471
18528SOL    HW158861   2.980   7.334   8.750 -0.2566  2.4180  1.0274
18528SOL    HW258862   3.122   7.284   8.731 -1.0568  0.0159  1.1007
18529SOL     OW58863   2.804   1.343  10.342 -0.3283 -0.0755  0.4692
18529SOL    HW158864   2.715   1.313  10.322 -0.4284 -0.6834  1.7259
18529SOL    HW258865   2.829   1.293  10.419  1.0119  0.2952  0.2941
18530SOL     OW58866   7.349   9.557  10.980 -0.0736 -0.7510 -0.5534
18530SOL    HW158867   7.296   9.482  11.006 -0.7243 -0.3104 -0.5943
18530SOL    HW258868   7.295   9.604  10.917 -0.4148  0.6942  0.7519
18531SOL     OW58869   8.473   0.689   6.783  0.1526  0.2115 -0.1165
18531SOL    HW158870   8.474   0.601   6.745  1.0993  0.0214  0.3277
18531SOL    HW258871   8.561   0.723   6.767 -0.3005  1.2110 -0.5692
18532SOL     OW58872   5.656   1.761   9.524 -0.2341  0.5188  0.0765
18532SOL    HW158873   5.705   1.679   9.534  1.1084  1.3502  0.5719
18532SOL    HW258874   5.596   1.763   9.599 -0.6098 -0.2048 -0.1897
18533SOL     OW58875   2.431   8.007   8.182  0.0044 -0.5872 -0.5301
18533SOL    HW158876   2.482   8.023   8.262  3.0150  0.4849 -2.4852
18533SOL    HW258877   2.417   7.913   8.181 -1.5444 -0.4884  1.9713
18534SOL     OW58878   6.077   5.987   0.236  0.7648  0.1031 -0.2021
18534SOL    HW158879   6.152   6.042   0.258  1.3542 -1.6267  2.6366
18534SOL    HW258880   6.101   5.943   0.155  2.3951  0.2960  0.1526
18535SOL     OW58881   2.173   9.315   7.389 -0.2444 -0.1414  0.0898
18535SOL    HW158882   2.179   9.391   7.332 -1.0563  0.4275  0.7373
18535SOL    HW258883   2.263   9.298   7.416  0.0259  0.1815 -0.5759
18536SOL     OW58884  10.690   9.411   6.924 -0.1993  0.1004  0.2461
18536SOL    HW158885  10.687   9.346   6.853 -1.7213 -1.2130  1.4338
18536SOL    HW258886  10.614   9.467   6.908  0.7780  1.2640 -0.4392
18537SOL     OW58887   7.753  10.844   6.190 -0.7476 -0.0658  0.0149
18537SOL    HW158888   7.844  10.868   6.210 -0.4280 -0.6249 -0.6860
18537SOL    HW258889   7.727  10.787   6.263 -0.4095 -0.1810  0.0510
18538SOL     OW58890   5.006   1.581   2.652 -0.5252  0.1153 -0.2265
18538SOL    HW158891   4.952   1.639   2.705 -0.2087  1.1997 -1.0630
18538SOL    HW258892   4.981   1.601   2.561 -0.5340 -1.1798 -0.5327
18539SOL     OW58893   0.460   1.051   9.397 -0.1081 -0.1621 -0.2354
18539SOL    HW158894   0.408   0.977   9.425 -0.8387  0.1796 -0.6608
18539SOL    HW258895   0.398   1.109   9.353  0.4371  0.7373  0.1596
18540SOL     OW58896  10.228   7.137   2.361  0.1811 -0.2396 -0.1833
18540SOL    HW158897  10.307   7.175   2.324  0.1777  0.8876  0.9099
18540SOL    HW258898  10.241   7.140   2.456 -0.7456 -0.9825 -0.0107
18541SOL     OW58899   6.341   2.070  10.755  0.0591  0.2662  0.3461
18541SOL    HW158900   6.284   2.137  10.717  0.1594 -0.3759 -1.0008
18541SOL    HW258901   6.419   2.071  10.700  0.9727  0.4615  1.5853
18542SOL     OW58902   5.203   8.777   3.190 -0.0300  0.2239 -0.0480
18542SOL    HW158903   5.186   8.809   3.101 -0.3149  2.0745  0.6255
18542SOL    HW258904   5.124   8.729   3.214 -0.5720  0.9961 -0.2641
18543SOL     OW58905   8.412   6.274   8.284  0.0699 -0.2736  0.1454
18543SOL    HW158906   8.378   6.185   8.278 -0.9046  0.1384 -0.7100
18543SOL    HW258907   8.340   6.326   8.319 -0.9166  0.9112 -3.1816
18544SOL     OW58908   7.744   8.487   5.051 -0.5437 -0.5431  0.1993
18544SOL    HW158909   7.721   8.394   5.041 -0.3299 -0.6107  0.3218
18544SOL    HW258910   7.751   8.499   5.146  3.1638 -1.3505  0.1685
18545SOL     OW58911   9.210   0.150   9.690 -0.4133  0.1455  0.6821
18545SOL    HW158912   9.219   0.127   9.782 -1.7935 -0.5828  0.6605
18545SOL    HW258913   9.117   0.140   9.671 -0.0440 -0.6448 -1.0215
18546SOL     OW58914  10.946   8.962   6.551  0.0285  0.2192 -0.3324
18546SOL    HW158915  10.941   8.984   6.644 -1.0050  0.5309 -0.4526
18546SOL    HW258916  11.033   8.925   6.541  0.7035  1.4830  0.4852
18547SOL     OW58917   3.213   5.188   8.567 -0.2486  0.3462 -0.2697
18547SOL    HW158918   3.211   5.112   8.510 -0.4051  1.5363 -1.9186
18547SOL    HW258919   3.245   5.154   8.651 -0.6158 -1.5652 -0.8573
18548SOL     OW58920   8.980   2.682   6.409  0.1096 -0.5185  0.3272
18548SOL    HW158921   9.075   2.696   6.412 -0.0968  0.9404  1.7444
18548SOL    HW258922   8.965   2.610   6.470  0.3585 -1.1611 -0.3656
18549SOL     OW58923   7.238   2.336   4.604  0.0536  0.2589  0.2498
18549SOL    HW158924   7.247   2.293   4.689 -1.6905  1.2493  0.9885
18549SOL    HW258925   7.174   2.406   4.619  0.4744  1.1224 -1.6454
18550SOL     OW58926   3.909   4.035   8.289 -0.8079 -0.1242  0.3416
18550SOL    HW158927   3.935   4.061   8.201 -0.8469 -3.0477 -0.6468
18550SOL    HW258928   3.814   4.046   8.291 -0.8295 -0.2277 -0.0599
18551SOL     OW58929   4.802   5.559   8.052  0.1130  0.4138 -0.1189
18551SOL    HW158930   4.836   5.531   7.967  0.0089  2.3141 -0.8425
18551SOL    HW258931   4.729   5.500   8.070  0.9039 -0.7811 -0.7582
18552SOL     OW58932   9.216   2.589   3.891  0.1014  0.2876 -0.0135
18552SOL    HW158933   9.303   2.573   3.856 -0.1226 -2.0165  0.3400
18552SOL    HW258934   9.206   2.526   3.963 -1.9164  0.3492 -0.1715
18553SOL     OW58935  10.483   2.508  10.007  0.8886  0.2566 -0.3911
18553SOL    HW158936  10.503   2.465   9.924  2.0892  0.6725 -0.3312
18553SOL    HW258937  10.550   2.576  10.016  0.2891  0.7433  0.5292
18554SOL     OW58938   8.333   9.825   2.015 -0.4291  0.5316 -0.2052
18554SOL    HW158939   8.344   9.735   2.045  1.0584  1.0593  0.9447
18554SOL    HW258940   8.241   9.845   2.031 -0.7252 -0.6918 -0.2754
18555SOL     OW58941   6.517  11.092   6.057 -0.2829  0.3250 -0.2095
18555SOL    HW158942   6.481  11.012   6.097 -0.7710  0.0619 -1.1475
18555SOL    HW258943   6.604  11.066   6.028  0.5399  0.8326  1.6499
18556SOL     OW58944   3.950   8.051   8.809 -0.2187 -0.5190 -0.6681
18556SOL    HW158945   3.951   8.021   8.718  0.4270 -2.3318 -0.0974
18556SOL    HW258946   3.914   7.977   8.858 -0.4110  0.3758  0.5759
18557SOL     OW58947   7.244   5.382   4.056  0.1285 -0.1187  0.2854
18557SOL    HW158948   7.303   5.307   4.052 -1.5862 -1.6894  2.0398
18557SOL    HW258949   7.291   5.447   4.107  0.7943 -0.9073  0.7066
18558SOL     OW58950  10.455   7.280   7.481 -0.3206  0.1818 -0.2135
18558SOL    HW158951  10.421   7.368   7.464 -2.4250 -0.2967  1.0581
18558SOL    HW258952  10.398   7.222   7.429  0.8959 -0.4604 -0.8620
18559SOL     OW58953   5.578   0.000   2.059  0.2484 -0.1413 -0.0134
18559SOL    HW158954   5.537  -0.057   2.123 -1.9032 -0.0351 -1.2004
18559SOL    HW258955   5.583   0.085   2.102  2.6002 -0.9187  1.4163
18560SOL     OW58956   5.727   3.528   4.969 -0.2966  0.2333  0.8307
18560SOL    HW158957   5.644   3.508   4.926  0.4221  0.3352 -0.6901
18560SOL    HW258958   5.703   3.576   5.048 -1.7494 -1.1256  1.2779
18561SOL     OW58959   5.621   1.062   9.469  0.2661 -0.1286 -0.2666
18561SOL    HW158960   5.666   0.996   9.415 -0.2730  1.5177 -2.9385
18561SOL    HW258961   5.667   1.144   9.449 -1.1241  0.8405  0.3820
18562SOL     OW58962   7.195   5.041   3.584 -0.2779  0.1184 -0.9954
18562SOL    HW158963   7.161   5.117   3.537 -2.3357 -0.4276 -0.4921
18562SOL    HW258964   7.139   5.033   3.661  0.1679 -1.6305 -0.8031
18563SOL     OW58965   5.863   9.032   3.706  0.1423  0.7366  0.0311
18563SOL    HW158966   5.929   9.092   3.741  0.7644  0.0755  0.0054
18563SOL    HW258967   5.871   9.040   3.611  0.4746  0.3481  0.0247
18564SOL     OW58968   9.160   7.853   9.598 -0.0450 -0.2276 -0.5956
18564SOL    HW158969   9.198   7.897   9.674  0.1127  1.6263 -1.6691
18564SOL    HW258970   9.104   7.920   9.558 -0.0317 -1.1082 -2.1605
18565SOL     OW58971   2.074  10.116   3.917  0.1918  0.0475 -0.1167
18565SOL    HW158972   2.063  10.039   3.861 -0.9275  0.1819 -0.1174
18565SOL    HW258973   1.995  10.168   3.900  0.8250  1.0759  0.0577
18566SOL     OW58974   9.516   3.549  10.501 -0.6502  0.2958 -0.3133
18566SOL    HW158975   9.485   3.470  10.457  1.6832 -0.2927 -1.0586
18566SOL    HW258976   9.578   3.587  10.439  0.4006  1.1552  1.2072
18567SOL     OW58977   2.497   7.915   5.644  0.4194  0.0291 -0.4618
18567SOL    HW158978   2.511   7.971   5.567  0.5660  0.5429 -0.0697
18567SOL    HW258979   2.511   7.826   5.612  2.1437  0.3365 -0.6729
18568SOL     OW58980   6.830   4.579  10.099 -0.0978 -0.6175  0.5300
18568SOL    HW158981   6.896   4.592  10.168  1.3999  0.2170 -0.9842
18568SOL    HW258982   6.768   4.651  10.111 -0.0278 -0.6648  1.1984
18569SOL     OW58983   2.652   3.761   7.994  0.0585 -0.0221  0.2611
18569SOL    HW158984   2.632   3.847   8.031  1.2355  0.6345 -0.5398
18569SOL    HW258985   2.686   3.710   8.068 -0.3944  0.2909  0.6878
18570SOL     OW58986   4.463   3.599   5.287  0.6509 -0.0925 -0.9183
18570SOL    HW158987   4.520   3.558   5.222  2.2717  0.3641  0.1745
18570SOL    HW258988   4.380   3.612   5.240  1.5987 -0.2528 -2.7301
18571SOL     OW58989   3.449   3.248   6.368 -0.2052 -0.1380 -0.4267
18571SOL    HW158990   3.475   3.176   6.311  1.4634 -0.4965  0.6892
18571SOL    HW258991   3.511   3.319   6.348  0.5362 -0.3344  1.0064
18572SOL     OW58992   5.582   3.395   9.527 -0.5089  0.0772  0.3645
18572SOL    HW158993   5.578   3.487   9.553  0.3709  0.7887 -1.7591
18572SOL    HW258994   5.544   3.393   9.439  0.8964 -1.2936 -0.2577
18573SOL     OW58995   5.391   5.622   6.267 -0.2683  0.2131  0.1808
18573SOL    HW158996   5.350   5.643   6.183 -3.2067 -1.2161  1.1136
18573SOL    HW258997   5.484   5.609   6.246 -0.8163  0.3191 -2.7373
18574SOL     OW58998   3.550   0.810   5.831  0.7123 -0.1204  0.4069
18574SOL    HW158999   3.565   0.815   5.926  1.1461 -0.1683  0.3438
18574SOL    HW259000   3.583   0.723   5.807  2.0818  0.4893 -0.0378
18575SOL     OW59001   2.170   2.884  11.213 -0.1520  0.6822  0.3259
18575SOL    HW159002   2.169   2.943  11.137 -2.9970  0.9491  0.4627
18575SOL    HW259003   2.171   2.943  11.288  0.1475  0.4753  0.4838
18576SOL     OW59004   0.323  11.344   4.114  0.2352  0.5298 -0.2116
18576SOL    HW159005   0.405  11.381   4.082  0.6779 -0.7179 -0.5761
18576SOL    HW259006   0.334  11.250   4.104 -0.4170  0.2108  1.7548
18577SOL     OW59007   2.029   5.765   1.627  0.1919 -0.1069  0.6577
18577SOL    HW159008   2.047   5.680   1.587  2.1507  1.0340 -1.0803
18577SOL    HW259009   2.099   5.776   1.692  1.2119  1.0029 -0.5745
18578SOL     OW59010   6.780   9.687   7.265  0.7286  0.0934 -0.4353
18578SOL    HW159011   6.763   9.728   7.180 -0.5748  0.6260  0.0529
18578SOL    HW259012   6.788   9.760   7.326 -2.1574 -0.3027  0.5472
18579SOL     OW59013   5.109   6.925  10.306  0.3794 -0.5489 -0.1872
18579SOL    HW159014   5.034   6.975  10.272  0.7375  0.6506  0.7265
18579SOL    HW259015   5.072   6.874  10.379  0.8518  1.8920  1.8794
18580SOL     OW59016   6.445   6.465   1.718  0.1193  0.0819  0.0629
18580SOL    HW159017   6.502   6.388   1.713  0.0321  0.0854 -1.2960
18580SOL    HW259018   6.362   6.435   1.681  1.0943  1.7016 -3.9048
18581SOL     OW59019   5.080   3.508   4.467  0.1297  0.4390  0.6056
18581SOL    HW159020   5.144   3.442   4.496  0.1759  0.0996 -0.2342
18581SOL    HW259021   5.073   3.494   4.373 -0.2923  1.2695  0.5063
18582SOL     OW59022   9.892   8.545   5.863  0.4605 -0.1570  0.1242
18582SOL    HW159023   9.900   8.640   5.857  0.9803 -0.1161  1.1760
18582SOL    HW259024   9.874   8.516   5.773  0.6960  0.8938 -0.2706
18583SOL     OW59025  10.983   3.904   5.694  0.3234  0.5055 -0.3802
18583SOL    HW159026  11.072   3.879   5.720 -0.4740 -2.3437 -0.0038
18583SOL    HW259027  10.951   3.828   5.645 -2.2884  0.9688  0.4672
18584SOL     OW59028   2.655   9.346   3.127  0.2345 -0.2702  0.3931
18584SOL    HW159029   2.707   9.400   3.067 -0.8152  0.7582  0.3736
18584SOL    HW259030   2.680   9.377   3.214 -0.1409  0.0400  0.3921
18585SOL     OW59031   8.470   0.961  11.148  0.0099 -0.2229  1.1769
18585SOL    HW159032   8.443   0.928  11.062 -0.4012 -2.8831  2.2297
18585SOL    HW259033   8.520   1.040  11.129 -0.5678 -0.4095 -1.4515
18586SOL     OW59034   8.990   6.379   6.039 -0.4126 -0.0290 -0.2746
18586SOL    HW159035   9.029   6.297   6.008  0.6620  0.4639 -0.2632
18586SOL    HW259036   8.946   6.416   5.963  3.0390  1.6828 -1.6718
18587SOL     OW59037   6.243   8.803   8.891  0.4687  0.3336 -0.0327
18587SOL    HW159038   6.263   8.896   8.902  0.2823  0.7057 -2.3793
18587SOL    HW259039   6.152   8.802   8.859  0.2402 -0.7086  0.5953
18588SOL     OW59040   2.889   5.633   5.317 -0.6326 -0.0640  0.1955
18588SOL    HW159041   2.871   5.726   5.333 -1.6372 -0.0785 -0.6933
18588SOL    HW259042   2.917   5.629   5.226  1.3090 -0.4226  0.7607
18589SOL     OW59043   2.449   1.645   7.026  0.3251  0.0070  0.3846
18589SOL    HW159044   2.381   1.580   7.042 -0.3876  0.1930 -1.6511
18589SOL    HW259045   2.486   1.620   6.941  0.6014  1.7675 -0.0408
18590SOL     OW59046   6.189   5.810  10.116 -0.1486 -0.1708 -0.1890
18590SOL    HW159047   6.207   5.747  10.186 -0.4334  1.2811  1.2506
18590SOL    HW259048   6.245   5.782  10.044 -1.2284 -2.8333 -0.0927
18591SOL     OW59049   0.286   1.070   1.710 -0.1992  0.2969  0.5033
18591SOL    HW159050   0.270   1.139   1.774 -1.4189  0.5566 -0.0618
18591SOL    HW259051   0.237   1.097   1.633  2.7827  0.9922 -1.2976
18592SOL     OW59052   1.911   7.646  11.054 -0.0682 -0.2557  0.4043
18592SOL    HW159053   2.002   7.621  11.039 -0.1006 -1.2789  1.7209
18592SOL    HW259054   1.892   7.616  11.143 -2.2258 -1.6220 -0.4384
18593SOL     OW59055   8.400   9.756   4.668 -0.2698  0.3998  0.2167
18593SOL    HW159056   8.409   9.818   4.596 -2.0673 -1.2385 -1.5304
18593SOL    HW259057   8.455   9.682   4.643 -2.2844 -0.9568 -0.4730
18594SOL     OW59058   0.525   4.091   1.088 -0.1404  0.6250  0.2433
18594SOL    HW159059   0.498   4.169   1.137  0.6476  1.2093 -0.2184
18594SOL    HW259060   0.478   4.099   1.004 -0.7677  0.1145  0.5398
18595SOL     OW59061  11.375   9.070   1.460  0.2326  0.5345  0.2848
18595SOL    HW159062  11.464   9.096   1.435  0.9413 -1.0477  0.9898
18595SOL    HW259063  11.364   9.105   1.549  0.2226  0.5709  0.2693
18596SOL     OW59064   3.166   2.386   8.835  0.1140  0.6455 -0.0601
18596SOL    HW159065   3.134   2.357   8.750  1.0627 -1.3789  0.2108
18596SOL    HW259066   3.087   2.407   8.884 -0.5799 -0.1869 -0.7713
18597SOL     OW59067   8.539   7.363   9.795  0.0433  0.6411  0.0826
18597SOL    HW159068   8.616   7.341   9.847  0.4812 -0.8146 -1.1153
18597SOL    HW259069   8.558   7.450   9.759 -0.0984  1.4929  1.9646
18598SOL     OW59070   2.211   9.233   8.917  0.2739  0.0187  0.0431
18598SOL    HW159071   2.134   9.232   8.973 -0.0780 -0.9547 -0.4203
18598SOL    HW259072   2.282   9.202   8.973 -0.1041 -1.0890 -0.0712
18599SOL     OW59073   9.512   3.105   3.499  0.1145  0.1064  0.0841
18599SOL    HW159074   9.466   3.188   3.487 -1.8677 -0.9236  0.1284
18599SOL    HW259075   9.605   3.127   3.485 -0.1804  2.5404  1.2587
18600SOL     OW59076   8.199   8.171   9.757 -0.3544  0.3465 -0.3181
18600SOL    HW159077   8.162   8.084   9.744 -0.0255  0.2187 -0.4281
18600SOL    HW259078   8.145   8.229   9.704  1.1915 -0.2238 -2.6696
18601SOL     OW59079  11.058   5.311   1.786 -0.2445  0.4142 -0.0392
18601SOL    HW159080  11.149   5.284   1.791 -0.1902  0.5053 -0.4927
18601SOL    HW259081  11.062   5.406   1.774 -0.3970  0.4128 -0.1030
18602SOL     OW59082   1.000   6.171   2.498 -0.4452  0.3613 -0.3411
18602SOL    HW159083   0.985   6.226   2.421 -0.0521 -1.1559 -1.5490
18602SOL    HW259084   0.975   6.083   2.470  0.6921 -0.4042  0.9332
18603SOL     OW59085   8.044   1.108  11.138 -0.2750 -0.0181  0.0152
18603SOL    HW159086   8.080   1.032  11.093  0.0513  0.8288 -1.2082
18603SOL    HW259087   8.086   1.183  11.096 -0.5350  0.8471  1.2367
18604SOL     OW59088   6.920   6.112   2.478 -0.0303 -0.3399 -0.1724
18604SOL    HW159089   6.867   6.120   2.398  0.4189  1.0989 -0.3646
18604SOL    HW259090   6.856   6.112   2.549 -0.3439  0.9929 -0.4227
18605SOL     OW59091   6.239   6.311  10.204  0.2884 -0.4921  0.0163
18605SOL    HW159092   6.191   6.249  10.148 -0.1068 -0.0302 -0.1642
18605SOL    HW259093   6.322   6.268  10.221 -0.0631 -1.1678  0.0620
18606SOL     OW59094   3.514   0.041   9.415  0.7847  0.8359  0.1820
18606SOL    HW159095   3.450   0.109   9.433  0.6292  0.3687  1.4688
18606SOL    HW259096   3.506   0.025   9.321  0.1980  1.9465  0.0249
18607SOL     OW59097   0.210   2.246   2.398 -0.2922 -0.0593 -0.1649
18607SOL    HW159098   0.256   2.188   2.336 -1.0592 -0.0977 -0.7161
18607SOL    HW259099   0.138   2.283   2.346 -0.6223  0.3290  0.5655
18608SOL     OW59100   5.519   0.729   5.767 -0.7481  0.1766  0.1589
18608SOL    HW159101   5.538   0.758   5.678  1.6080  0.1914  0.6084
18608SOL    HW259102   5.552   0.799   5.823 -0.8191 -0.5095  1.0885
18609SOL     OW59103   7.643   8.458   9.826  0.2038 -0.1098 -0.5167
18609SOL    HW159104   7.674   8.371   9.848  0.5859  0.3884  1.0154
18609SOL    HW259105   7.575   8.478   9.890 -2.2800 -0.5212 -2.8171
18610SOL     OW59106   1.349  10.268   1.657 -0.0071 -0.2179  0.1613
18610SOL    HW159107   1.428  10.232   1.616 -0.0084  0.5076 -0.5164
18610SOL    HW259108   1.381  10.332   1.720 -0.0553  0.3839 -0.4167
18611SOL     OW59109   3.358   8.715   1.085 -0.3295 -0.1267  0.7425
18611SOL    HW159110   3.344   8.645   1.149 -2.0867 -1.6660 -1.1832
18611SOL    HW259111   3.409   8.674   1.015  1.5024  1.5040  1.0466
18612SOL     OW59112   8.916   1.949   9.038 -0.4861  0.1281  0.2934
18612SOL    HW159113   8.909   2.036   8.999 -0.2983 -1.0833 -2.7583
18612SOL    HW259114   8.866   1.954   9.119  0.4388  3.3221  0.7745
18613SOL     OW59115   2.386   3.936   0.961  0.1144  0.4023 -0.0695
18613SOL    HW159116   2.331   4.005   0.926 -0.0562  0.1805 -0.2428
18613SOL    HW259117   2.456   3.982   1.008 -0.2859  0.6787  0.2578
18614SOL     OW59118   7.333   6.367   5.111 -0.3260 -0.2997 -0.3784
18614SOL    HW159119   7.409   6.424   5.118 -0.4677 -0.2846  1.8551
18614SOL    HW259120   7.368   6.282   5.085  0.5663 -0.4263  1.1238
18615SOL     OW59121   9.417   1.389   4.577 -0.1447 -0.6163 -0.1448
18615SOL    HW159122   9.422   1.436   4.494  1.1557  2.0939  1.3345
18615SOL    HW259123   9.504   1.398   4.615 -1.3874  0.6633  2.6999
18616SOL     OW59124   3.486   2.119   2.928  0.0130 -0.1823  0.3403
18616SOL    HW159125   3.497   2.212   2.949  1.2124  0.0715 -1.2294
18616SOL    HW259126   3.429   2.086   2.997 -1.2571  1.9234  0.3952
18617SOL     OW59127   4.338   3.323  10.198  0.0141  0.3670  0.4281
18617SOL    HW159128   4.284   3.391  10.238 -0.7796 -0.3715  0.6498
18617SOL    HW259129   4.280   3.246  10.193  1.1091 -0.5158  0.8645
18618SOL     OW59130   9.613   5.090   6.437 -0.0356 -0.2570  0.2153
18618SOL    HW159131   9.625   5.033   6.361 -2.0725  0.5178 -0.7618
18618SOL    HW259132   9.655   5.172   6.411  0.1181 -0.2986  0.3300
18619SOL     OW59133   2.163   5.911   2.244 -0.4107  0.1098  0.0809
18619SOL    HW159134   2.139   5.946   2.330 -1.2932 -1.2757  0.4386
18619SOL    HW259135   2.174   5.817   2.259 -2.8143 -0.5641 -1.7227
18620SOL     OW59136   0.462   4.562  10.343 -0.6395  0.0269  0.0746
18620SOL    HW159137   0.528   4.530  10.405 -1.1814 -1.8801 -0.2583
18620SOL    HW259138   0.508   4.564  10.258 -0.6486 -0.0797  0.0661
18621SOL     OW59139   5.288   0.588  11.302 -0.5994  0.3521 -0.4351
18621SOL    HW159140   5.304   0.615  11.393  2.8582 -0.1421 -0.7732
18621SOL    HW259141   5.246   0.502  11.310 -1.7916  0.9860  0.6311
18622SOL     OW59142   5.686   8.212   8.752 -0.0467 -0.6802 -0.1560
18622SOL    HW159143   5.627   8.176   8.819  0.0612  1.2279  1.0174
18622SOL    HW259144   5.771   8.173   8.773  0.0798  0.2131  1.1344
18623SOL     OW59145  10.649   4.785   3.162  0.2406 -0.5633 -0.8629
18623SOL    HW159146  10.733   4.821   3.190 -0.9690  2.0553 -0.3098
18623SOL    HW259147  10.644   4.700   3.206  1.4613  0.3780  1.2638
18624SOL     OW59148   4.080   0.064   4.781 -0.5693 -0.8880  0.0029
18624SOL    HW159149   3.987   0.064   4.761 -0.4643 -2.6023 -0.6551
18624SOL    HW259150   4.085   0.082   4.875 -1.4246  1.0343 -0.2734
18625SOL     OW59151   2.472   8.614   2.420  0.6002  0.3238  0.1383
18625SOL    HW159152   2.561   8.579   2.422  0.8491  0.8736 -0.7412
18625SOL    HW259153   2.449   8.628   2.512  1.4045  0.1431  0.3729
18626SOL     OW59154   1.389   8.015   0.550 -0.1160 -0.0563 -0.1706
18626SOL    HW159155   1.335   7.991   0.475  1.2166 -0.5108 -1.0143
18626SOL    HW259156   1.421   7.932   0.585 -0.2747  0.1861  0.5585
18627SOL     OW59157   6.317   0.849   1.213 -0.0483  0.0630 -0.1312
18627SOL    HW159158   6.227   0.860   1.182  0.0919  0.4041 -0.4269
18627SOL    HW259159   6.347   0.938   1.231 -0.5525 -0.1895  2.2530
18628SOL     OW59160   1.660   5.735   4.866 -0.0959  0.4087  0.1494
18628SOL    HW159161   1.599   5.809   4.862  1.0109  1.3235 -0.2433
18628SOL    HW259162   1.647   5.689   4.783  0.3086  1.0756 -0.2952
18629SOL     OW59163   3.113   3.078   4.781  0.2175 -0.0363  0.5028
18629SOL    HW159164   3.085   3.015   4.715 -1.1399 -0.0919  1.0819
18629SOL    HW259165   3.069   3.159   4.757  1.4971  0.5581  0.0899
18630SOL     OW59166   0.828   0.662  10.563 -0.0330 -0.4731  0.0273
18630SOL    HW159167   0.781   0.745  10.560  1.2698  0.2722 -0.9720
18630SOL    HW259168   0.848   0.642  10.472 -0.0204 -1.7111  0.2841
18631SOL     OW59169   4.832   7.925   0.956 -0.4738  0.0226 -0.7027
18631SOL    HW159170   4.789   7.893   1.035  0.8298  0.1949  0.1146
18631SOL    HW259171   4.771   7.988   0.918 -0.6197  0.8633  0.8540
18632SOL     OW59172   7.967   6.073   0.179  0.0646 -0.1017 -0.1276
18632SOL    HW159173   7.945   5.985   0.148  0.9418 -0.0661 -0.9061
18632SOL    HW259174   8.051   6.092   0.138 -0.2479  1.2117 -0.1885
18633SOL     OW59175   8.769   2.751   2.883 -0.2098 -0.5162 -0.6043
18633SOL    HW159176   8.806   2.757   2.795  1.2450  0.7392  0.0419
18633SOL    HW259177   8.840   2.717   2.937 -0.9490 -0.8795  0.1718
18634SOL     OW59178  10.746   9.374   4.375  0.1332 -0.4155 -0.3836
18634SOL    HW159179  10.757   9.281   4.358 -1.0758 -0.3422 -1.8068
18634SOL    HW259180  10.819   9.415   4.328  1.3061 -0.6796  1.1509
18635SOL     OW59181   0.244   4.039   9.699  0.1131  0.4501  0.4191
18635SOL    HW159182   0.201   3.970   9.748  2.4728 -0.2133  1.7271
18635SOL    HW259183   0.280   4.098   9.765  2.5208  0.0778 -0.4494
18636SOL     OW59184   0.970   3.891   9.603  0.2261 -0.0542 -0.0992
18636SOL    HW159185   1.006   3.886   9.692  0.4855 -1.1631 -0.2528
18636SOL    HW259186   1.043   3.868   9.546  0.5705  2.3955 -0.7572
18637SOL     OW59187   4.429   7.173   6.136 -0.3417 -0.2492 -0.2182
18637SOL    HW159188   4.444   7.205   6.047 -0.7713  1.2190  0.2122
18637SOL    HW259189   4.514   7.140   6.165  0.0997  0.4184 -0.7315
18638SOL     OW59190   9.475   3.157   3.790  0.1199  0.0637 -0.4262
18638SOL    HW159191   9.528   3.126   3.864 -0.3917  1.3614  0.5076
18638SOL    HW259192   9.520   3.123   3.713  1.1532 -0.5926  0.4383
18639SOL     OW59193   6.145   0.849   8.719  0.0669  0.0484 -0.2589
18639SOL    HW159194   6.165   0.851   8.813  0.3461 -0.4552 -0.3033
18639SOL    HW259195   6.061   0.894   8.712 -0.0397 -0.0561  0.2578
18640SOL     OW59196   0.190   1.121   9.319 -0.3938 -0.5422 -0.4731
18640SOL    HW159197   0.174   1.058   9.389 -0.0824 -1.7530 -1.4734
18640SOL    HW259198   0.123   1.101   9.253 -1.1571  1.0632 -0.2373
18641SOL     OW59199   6.010   3.447   5.807 -0.5224 -0.9317 -0.4976
18641SOL    HW159200   6.056   3.507   5.749 -2.6769 -1.7471 -3.2946
18641SOL    HW259201   6.079   3.398   5.851  1.2442  1.7955 -0.0117
18642SOL     OW59202   4.886   8.424   3.293  0.1049  0.0471 -0.1413
18642SOL    HW159203   4.861   8.346   3.243  0.6479  0.1733 -0.6198
18642SOL    HW259204   4.915   8.390   3.378  2.9568 -0.5656 -1.2547
18643SOL     OW59205   4.872  10.202   9.208  0.0315  0.2102  0.0952
18643SOL    HW159206   4.803  10.242   9.261 -0.0878  0.1196  0.0068
18643SOL    HW259207   4.847  10.110   9.201  0.2178  0.1551  0.1536
18644SOL     OW59208   5.689   4.073   7.109 -0.8238 -0.3266  0.8478
18644SOL    HW159209   5.641   3.991   7.121 -2.2400  0.0236 -1.6505
18644SOL    HW259210   5.670   4.124   7.187 -1.4838 -1.6249  1.5684
18645SOL     OW59211   7.226   4.822  11.173 -0.3228  0.1559 -0.1613
18645SOL    HW159212   7.170   4.876  11.229  0.4056 -0.1479  0.8899
18645SOL    HW259213   7.212   4.732  11.204  1.3296  0.1471  0.6906
18646SOL     OW59214   6.028   8.684  11.175 -0.1640  0.5113 -0.2481
18646SOL    HW159215   6.094   8.682  11.244  1.0751 -1.7922 -1.3877
18646SOL    HW259216   6.047   8.763  11.125  0.7421  0.6995  0.3736
18647SOL     OW59217  10.104   9.683   6.074  0.4997  0.1333  0.3518
18647SOL    HW159218  10.096   9.775   6.098  0.4382  0.0015  0.8455
18647SOL    HW259219  10.151   9.684   5.990  0.5978  0.6075  0.4095
18648SOL     OW59220   8.985   2.678   7.920 -0.6520 -0.2307 -0.1959
18648SOL    HW159221   8.962   2.668   7.827 -0.1643 -0.7152 -0.2705
18648SOL    HW259222   9.064   2.625   7.930 -0.9778 -0.5704  0.6058
18649SOL     OW59223  11.282   3.558   9.137  0.5821 -0.2478 -0.1101
18649SOL    HW159224  11.282   3.524   9.227 -0.9693 -0.1385 -0.0282
18649SOL    HW259225  11.257   3.483   9.083  1.7064 -0.3626 -0.4913
18650SOL     OW59226   0.435   7.800   9.023 -0.4190 -0.3944  0.8213
18650SOL    HW159227   0.447   7.716   9.069 -2.4150 -0.7048  0.9005
18650SOL    HW259228   0.435   7.865   9.093 -0.6426 -0.5389  0.9579
18651SOL     OW59229   6.705   7.306   5.485 -0.2915  0.2138 -0.4142
18651SOL    HW159230   6.789   7.284   5.446  1.0524  1.6730  1.5184
18651SOL    HW259231   6.714   7.282   5.577 -0.8921  3.0596  0.4824
18652SOL     OW59232   1.645   5.034  10.289  0.2320  0.0652  0.0414
18652SOL    HW159233   1.688   5.110  10.325  0.8773  0.0027 -0.5746
18652SOL    HW259234   1.598   4.994  10.363  0.6345  0.5408  0.5513
18653SOL     OW59235   3.798  10.144   3.605 -0.2874  0.3770 -0.0138
18653SOL    HW159236   3.885  10.108   3.620  0.0261  1.2273  0.3084
18653SOL    HW259237   3.744  10.109   3.676 -0.5565 -1.2209 -0.9728
18654SOL     OW59238   2.031   2.505  11.095 -0.2057  0.0709  0.5514
18654SOL    HW159239   1.967   2.434  11.105  0.8718 -0.7880  1.7054
18654SOL    HW259240   2.088   2.476  11.023 -0.5781  0.4231  0.1087
18655SOL     OW59241  11.077   6.464   9.746  0.3888 -0.0669 -0.3697
18655SOL    HW159242  11.044   6.542   9.791 -0.4125 -0.3005 -0.5428
18655SOL    HW259243  11.091   6.401   9.816  0.7800  0.1401 -0.2592
18656SOL     OW59244   4.266   5.674  11.339  0.1234  0.1848  0.3827
18656SOL    HW159245   4.175   5.704  11.336  0.5195  1.3905 -0.9615
18656SOL    HW259246   4.264   5.596  11.394 -1.3965  1.2712  1.9802
18657SOL     OW59247   9.384   8.538   5.567  0.5612 -0.3248  0.2744
18657SOL    HW159248   9.343   8.451   5.571  1.1537 -0.5836  1.1016
18657SOL    HW259249   9.311   8.599   5.577  0.2922 -0.7669  1.2162
18658SOL     OW59250   5.046   4.338   5.596 -0.4430 -0.5779 -0.2549
18658SOL    HW159251   5.022   4.361   5.685  1.7639 -2.5915  0.9808
18658SOL    HW259252   5.099   4.412   5.565  0.4531 -0.7047  0.8982
18659SOL     OW59253  10.945   2.998   5.124  0.2924 -0.2720 -0.2045
18659SOL    HW159254  10.946   3.090   5.099  0.4972 -0.6063 -1.5128
18659SOL    HW259255  10.899   2.954   5.052  1.9989 -1.4457 -0.6489
18660SOL     OW59256   2.817   2.650   6.181 -0.0138  0.2035 -0.3851
18660SOL    HW159257   2.897   2.613   6.145 -0.3672  0.6010 -1.6186
18660SOL    HW259258   2.794   2.721   6.121 -1.3326  0.0478 -0.0935
18661SOL     OW59259   2.544  11.178  10.595  0.2752  0.3071  0.3926
18661SOL    HW159260   2.550  11.193  10.500  0.7581 -2.5393 -0.1206
18661SOL    HW259261   2.634  11.189  10.626  0.4348 -0.4110  0.2025
18662SOL     OW59262  11.036   9.392  11.157  0.1032  0.2599  0.1468
18662SOL    HW159263  11.048   9.462  11.092 -0.6138  0.6842  0.4606
18662SOL    HW259264  11.111   9.401  11.216 -0.1732  1.0101  0.3963
18663SOL     OW59265   1.944   0.452  11.073 -0.3642 -0.2483 -0.4338
18663SOL    HW159266   2.026   0.416  11.039  0.1202 -0.1299  0.5669
18663SOL    HW259267   1.956   0.452  11.168 -0.7742  1.5322 -0.3483
18664SOL     OW59268   3.662  11.279   7.897 -0.2475 -0.7104 -0.2286
18664SOL    HW159269   3.593  11.330   7.854 -0.1562 -0.9842 -0.7048
18664SOL    HW259270   3.715  11.245   7.825  0.2198 -0.7409  0.1229
18665SOL     OW59271   8.362  10.542   6.005 -0.6929  0.2473 -0.5755
18665SOL    HW159272   8.284  10.569   5.958  0.3684  1.4418 -1.7481
18665SOL    HW259273   8.430  10.603   5.975  0.6475 -0.6465  0.5206
18666SOL     OW59274   7.838   1.241   0.229  0.1583 -0.1291  0.3066
18666SOL    HW159275   7.849   1.170   0.292  0.4928 -0.6577 -0.3413
18666SOL    HW259276   7.825   1.197   0.145 -0.0768  0.5719 -0.0330
18667SOL     OW59277   3.946   0.411   1.986 -0.1249  0.8916  0.5810
18667SOL    HW159278   3.866   0.420   1.935 -1.1451 -0.0115  1.9418
18667SOL    HW259279   3.965   0.500   2.015 -0.2890  1.2048 -0.2447
18668SOL     OW59280   9.462   0.041  10.211  0.3002 -0.5057 -0.4431
18668SOL    HW159281   9.443   0.135  10.217 -1.0640 -0.7769 -0.2597
18668SOL    HW259282   9.505   0.020  10.293  3.1554  0.4648 -1.5502
18669SOL     OW59283   9.398   8.650  10.859  0.2760 -0.1735  0.5065
18669SOL    HW159284   9.445   8.574  10.894  0.3374  0.6724  2.3796
18669SOL    HW259285   9.312   8.646  10.900  0.0937  0.4765  0.2037
18670SOL     OW59286   1.206   8.763   5.981  0.0294  0.4798  0.3980
18670SOL    HW159287   1.224   8.756   6.075  3.3916 -0.8827 -0.2178
18670SOL    HW259288   1.216   8.674   5.947  0.1720  1.1539 -1.4481
18671SOL     OW59289   6.094   5.900   1.664  0.2381  0.7119  0.3587
18671SOL    HW159290   6.028   5.870   1.726 -0.0495  1.1243  0.2648
18671SOL    HW259291   6.067   5.990   1.644 -0.1229  0.3402 -0.9393
18672SOL     OW59292   3.477   5.298   1.207 -0.3160 -0.2538 -0.0218
18672SOL    HW159293   3.420   5.228   1.174  1.2878 -1.3542 -0.6406
18672SOL    HW259294   3.513   5.263   1.288 -0.9882  0.6919  0.6988
18673SOL     OW59295   1.049   4.054   1.678  0.5251  0.0842  0.2744
18673SOL    HW159296   1.017   3.973   1.718 -0.4468  0.0971 -0.4401
18673SOL    HW259297   0.987   4.121   1.706  0.2062  0.2124 -0.7014
18674SOL     OW59298   5.702   8.581   4.035 -0.1231  0.0901  0.0393
18674SOL    HW159299   5.684   8.650   4.099 -2.2595  0.0525 -0.4248
18674SOL    HW259300   5.615   8.550   4.009  0.7245 -0.8733 -1.8405
18675SOL     OW59301   3.206   6.701   1.651  0.7615  0.1194  0.1536
18675SOL    HW159302   3.183   6.617   1.611 -0.4705 -0.1239  1.2974
18675SOL    HW259303   3.195   6.765   1.581  0.2501 -0.4915 -0.3343
18676SOL     OW59304   4.402   7.790   6.303 -0.0041 -0.5886  0.0561
18676SOL    HW159305   4.462   7.777   6.377  2.0957 -2.9799 -1.9097
18676SOL    HW259306   4.434   7.869   6.260  0.1793 -0.4723  0.4043
18677SOL     OW59307   1.381   9.971   8.384  0.1010  0.1227 -0.2911
18677SOL    HW159308   1.387  10.021   8.303 -0.2997  1.3458  0.4053
18677SOL    HW259309   1.346  10.033   8.448 -0.6316 -1.1074  0.5600
18678SOL     OW59310   6.213   3.132   0.196 -0.9222  0.3341  0.2646
18678SOL    HW159311   6.176   3.186   0.266  2.2794 -0.0420  2.4939
18678SOL    HW259312   6.163   3.051   0.199 -1.7004  0.8255  1.2208
18679SOL     OW59313   8.470   9.876   8.825 -0.2814 -0.8026 -0.8635
18679SOL    HW159314   8.560   9.906   8.817 -0.1661 -0.9826 -0.2725
18679SOL    HW259315   8.475   9.797   8.879 -0.9026 -0.1870  0.1328
18680SOL     OW59316   0.785   0.104   4.896  0.4350 -0.7539 -0.1094
18680SOL    HW159317   0.703   0.101   4.944  0.6046 -0.9849  0.1689
18680SOL    HW259318   0.781   0.032   4.834  0.5262 -0.9111  0.0671
18681SOL     OW59319   8.733  10.151   3.512 -0.6840 -0.0148  0.3065
18681SOL    HW159320   8.680  10.198   3.448  0.5269  1.2852  0.2236
18681SOL    HW259321   8.734  10.207   3.590  0.9998  0.2728  0.1195
18682SOL     OW59322   9.782   7.423   1.086  0.4695  0.1165  0.4511
18682SOL    HW159323   9.797   7.346   1.031  0.8521  1.7872 -1.9573
18682SOL    HW259324   9.829   7.405   1.167  2.5539 -1.2089 -0.9630
18683SOL     OW59325   3.964   6.097   5.959  0.1273 -0.2385  0.4318
18683SOL    HW159326   3.919   6.038   6.020 -0.7767 -0.1326 -0.1238
18683SOL    HW259327   3.996   6.040   5.890  1.4498 -0.4066  1.1456
18684SOL     OW59328   0.325   1.817   7.935 -0.7056 -0.5010 -0.6479
18684SOL    HW159329   0.328   1.898   7.884  1.2257 -0.0506  0.1067
18684SOL    HW259330   0.389   1.759   7.892  0.6395 -0.2665  0.9289
18685SOL     OW59331   8.528   6.039   6.320  0.3119 -0.0414 -0.3345
18685SOL    HW159332   8.529   6.045   6.225 -0.2784 -2.4924 -0.5687
18685SOL    HW259333   8.620   6.029   6.345  0.5751  1.7182 -0.5064
18686SOL     OW59334  10.824   4.461   4.968  0.0914 -0.9791 -0.4258
18686SOL    HW159335  10.901   4.515   4.948  0.5068 -0.2454  2.6432
18686SOL    HW259336  10.754   4.524   4.983 -0.7367 -1.5830 -1.6235
18687SOL     OW59337   9.109   1.876   1.106 -0.3536 -0.1766 -0.0752
18687SOL    HW159338   9.203   1.883   1.125 -0.2954 -1.1627  0.0510
18687SOL    HW259339   9.105   1.865   1.011 -0.4716  1.7014 -0.3384
18688SOL     OW59340   2.448   3.121   2.941 -0.3893 -0.0549  0.0157
18688SOL    HW159341   2.522   3.112   3.000  0.6982  2.1846 -0.8791
18688SOL    HW259342   2.483   3.098   2.855 -0.3119  2.2523 -0.6217
18689SOL     OW59343   0.634   5.257   5.021  0.4642  0.2102  0.1772
18689SOL    HW159344   0.674   5.318   4.959  0.8274  0.8490  1.0233
18689SOL    HW259345   0.558   5.304   5.055  1.4237  0.7000  1.7306
18690SOL     OW59346   0.296   7.031  11.328 -0.3403  0.0289  0.3685
18690SOL    HW159347   0.231   7.037  11.397  1.2545  0.0798  1.9323
18690SOL    HW259348   0.325   7.121  11.314  1.3398 -0.2377  1.7051
18691SOL     OW59349   6.670  10.716   7.530 -0.1248  0.3164  0.3456
18691SOL    HW159350   6.658  10.623   7.509 -0.6975  0.8545 -1.9765
18691SOL    HW259351   6.708  10.754   7.451  2.2562  1.6955  2.0359
18692SOL     OW59352   1.792   7.647   3.118  0.2820  0.0645 -0.4306
18692SOL    HW159353   1.749   7.569   3.084  0.4258 -0.6943  1.0314
18692SOL    HW259354   1.794   7.708   3.045 -0.1111 -1.1903 -1.5182
18693SOL     OW59355   5.967   7.259  10.066 -0.6175 -0.5454 -0.5656
18693SOL    HW159356   5.918   7.194  10.016 -0.7576  0.4203 -1.7377
18693SOL    HW259357   5.947   7.239  10.157 -1.0575 -1.8165 -0.9097
18694SOL     OW59358  10.880   3.968   1.359  0.2085 -0.5805  0.0548
18694SOL    HW159359  10.853   3.893   1.413 -1.3970  0.2777  0.5242
18694SOL    HW259360  10.968   3.990   1.391 -0.0564 -1.1046  1.2161
18695SOL     OW59361   5.095   1.017   0.993 -0.2879  0.0915 -0.3836
18695SOL    HW159362   5.177   1.009   1.041 -0.0274  2.2911 -0.3485
18695SOL    HW259363   5.118   1.063   0.912 -1.5165  1.1983 -0.1490
18696SOL     OW59364   8.774   9.677   3.824  0.1892  0.3586 -0.3303
18696SOL    HW159365   8.809   9.614   3.760 -0.0763 -0.5150  0.3594
18696SOL    HW259366   8.790   9.762   3.784 -2.1379 -0.1818 -2.7349
18697SOL     OW59367   0.668   9.705   8.195 -0.2521 -0.2673 -0.3023
18697SOL    HW159368   0.654   9.641   8.126 -2.4006 -1.6454  1.2900
18697SOL    HW259369   0.600   9.771   8.182 -0.5769 -0.4562  0.3684
18698SOL     OW59370   2.041   0.952  10.337 -0.2725  0.3909  0.0012
18698SOL    HW159371   2.059   0.984  10.425 -1.7071 -1.5736  1.0693
18698SOL    HW259372   2.123   0.911  10.310  0.2939  1.3272  0.2344
18699SOL     OW59373   7.230   1.501   6.553  0.0626 -0.0969 -0.1034
18699SOL    HW159374   7.168   1.430   6.538 -2.0095  1.6693 -0.3606
18699SOL    HW259375   7.259   1.489   6.644  0.5133 -1.7782 -0.4356
18700SOL     OW59376   3.470  10.908   0.343 -0.3093  0.3332 -0.0819
18700SOL    HW159377   3.521  10.950   0.412 -0.7729 -1.0630  1.1661
18700SOL    HW259378   3.535  10.870   0.285  0.2834 -2.8872  2.3780
18701SOL     OW59379   7.517   7.620   0.949 -0.0847  0.1657 -0.4820
18701SOL    HW159380   7.497   7.534   0.985  0.8643 -0.2233 -0.8333
18701SOL    HW259381   7.437   7.671   0.959 -0.0675 -0.1416  1.5372
18702SOL     OW59382   2.513   9.467   0.602  0.6102 -0.7004  0.5735
18702SOL    HW159383   2.443   9.503   0.656  0.9302 -0.0173  0.5436
18702SOL    HW259384   2.542   9.541   0.548  0.9132 -1.1433  0.1259
18703SOL     OW59385   0.455   8.261   0.315 -0.4954  0.0873  0.0767
18703SOL    HW159386   0.501   8.201   0.256 -0.4997  1.0670 -0.9744
18703SOL    HW259387   0.386   8.208   0.354 -0.9279 -0.4437 -1.3513
18704SOL     OW59388   9.793   1.101   4.219 -0.0947 -1.0032 -0.4982
18704SOL    HW159389   9.722   1.073   4.277 -0.9925  0.8215 -0.6522
18704SOL    HW259390   9.778   1.052   4.138 -1.7720 -0.0056 -0.8484
18705SOL     OW59391   8.612   8.046   9.600  0.3698 -0.0305 -0.4492
18705SOL    HW159392   8.558   8.087   9.532  0.2635  0.4636 -0.0746
18705SOL    HW259393   8.550   8.023   9.669  0.6985  1.0175  0.2108
18706SOL     OW59394   4.936   1.120   7.002  0.2253  0.1879  0.5414
18706SOL    HW159395   4.918   1.191   7.063 -0.0927  0.9357 -0.4004
18706SOL    HW259396   4.945   1.163   6.917 -0.7806 -0.9697 -0.1795
18707SOL     OW59397  11.071   0.274   6.950  0.6942  0.3205  0.0617
18707SOL    HW159398  11.106   0.351   6.994  0.1614  0.3132  0.5027
18707SOL    HW259399  10.983   0.263   6.986 -0.2924  1.0966 -1.9842
18708SOL     OW59400   8.483   1.096   8.513 -0.2605 -0.0218 -0.7191
18708SOL    HW159401   8.495   1.109   8.419 -4.3291  0.8691 -1.2847
18708SOL    HW259402   8.504   1.004   8.527  0.6852 -0.1065 -2.3925
18709SOL     OW59403  11.197  10.259   3.062 -0.1783  0.6185  0.1457
18709SOL    HW159404  11.117  10.209   3.044  0.3133 -0.0846 -0.1110
18709SOL    HW259405  11.251  10.200   3.113  1.5784 -0.2103 -2.4697
18710SOL     OW59406   2.803   9.638   9.359  0.1700  0.0565 -0.0257
18710SOL    HW159407   2.868   9.665   9.294 -2.0732  0.6266 -2.2135
18710SOL    HW259408   2.777   9.550   9.331 -0.1974 -0.0404  0.6218
18711SOL     OW59409   5.844   5.802   1.058 -1.2829 -0.0272  0.1896
18711SOL    HW159410   5.847   5.893   1.027 -0.3209 -0.2295 -0.3508
18711SOL    HW259411   5.904   5.800   1.133 -3.2142  0.3379  1.8333
18712SOL     OW59412   2.405   4.176   7.312  0.0067 -0.3917 -0.0796
18712SOL    HW159413   2.397   4.091   7.269  0.4942 -0.0806 -0.8160
18712SOL    HW259414   2.349   4.234   7.261 -2.1583 -0.7266  1.7817
18713SOL     OW59415   7.216   3.320   9.379 -0.2188  0.1512 -0.0593
18713SOL    HW159416   7.270   3.315   9.300  0.3134  2.4409  0.1086
18713SOL    HW259417   7.127   3.336   9.346  0.0191  1.2147 -0.2194
18714SOL     OW59418   5.293  10.422   9.283  0.1511 -0.6528 -0.0489
18714SOL    HW159419   5.255  10.348   9.329 -1.3178 -1.0937 -1.8550
18714SOL    HW259420   5.244  10.428   9.201  2.0778  0.5935 -1.2123
18715SOL     OW59421   6.097   6.266   8.526  0.6424  0.4692  0.1808
18715SOL    HW159422   6.130   6.184   8.488  1.1726 -0.0640  1.7158
18715SOL    HW259423   6.175   6.319   8.542  0.4274  0.7085  0.4570
18716SOL     OW59424   4.014   6.865   6.784  0.2981  0.5260  0.0326
18716SOL    HW159425   3.983   6.935   6.841  0.3246 -0.5819  1.4574
18716SOL    HW259426   4.018   6.788   6.840  0.1295 -0.6704 -1.5228
18717SOL     OW59427   7.488  10.387   4.100 -0.5456 -0.0394  0.5331
18717SOL    HW159428   7.559  10.450   4.091  0.7310 -1.3461  0.9560
18717SOL    HW259429   7.491  10.362   4.193 -1.8563  0.2058  0.6518
18718SOL     OW59430   0.003   4.806   5.855 -0.7106  0.4377  0.6038
18718SOL    HW159431  -0.055   4.825   5.781 -0.8333  0.2196  0.6419
18718SOL    HW259432   0.014   4.711   5.853  1.6092  0.6708 -0.8690
18719SOL     OW59433  10.614   0.491   1.026 -0.0217  0.4955  0.1767
18719SOL    HW159434  10.673   0.550   0.979 -0.4016 -0.9929 -2.3531
18719SOL    HW259435  10.527   0.529   1.015 -0.0660  0.3428 -0.0081
18720SOL     OW59436   2.910   8.050   5.825 -0.0767  0.3820 -0.2315
18720SOL    HW159437   2.990   8.025   5.872  0.7945  2.1285 -0.7020
18720SOL    HW259438   2.869   7.967   5.802  0.9497 -0.5499  1.1012
18721SOL     OW59439  10.247   7.048   3.614 -0.2323  0.0516  0.4017
18721SOL    HW159440  10.309   6.987   3.575 -0.3590 -0.4740  0.9936
18721SOL    HW259441  10.191   7.076   3.542  0.0544 -0.2582  0.0573
18722SOL     OW59442   8.570   6.370  10.066  0.2006  0.3609  0.4673
18722SOL    HW159443   8.591   6.379   9.973 -1.5891  1.3915  0.1162
18722SOL    HW259444   8.537   6.281  10.076 -0.6411  0.5946 -0.1351
18723SOL     OW59445   8.557   9.122   3.164 -0.3851  0.1929  0.1853
18723SOL    HW159446   8.470   9.088   3.184 -0.0541 -0.0612  1.2693
18723SOL    HW259447   8.542   9.208   3.126 -1.1295 -0.0534 -0.0844
18724SOL     OW59448   6.860   8.643   8.051 -0.1016 -0.5451 -0.1620
18724SOL    HW159449   6.805   8.650   8.128 -0.4860 -1.0627 -0.3882
18724SOL    HW259450   6.948   8.666   8.082 -0.4673  0.4944  0.1521
18725SOL     OW59451   4.421   0.398   6.833 -0.0003  0.5721 -0.1899
18725SOL    HW159452   4.453   0.471   6.779  0.3072  0.9992  0.5665
18725SOL    HW259453   4.490   0.331   6.826  0.5089  1.0156  0.4580
18726SOL     OW59454   3.247   0.739   9.155 -0.5586  0.2061  0.9835
18726SOL    HW159455   3.213   0.818   9.113  0.0180  0.0096  0.1212
18726SOL    HW259456   3.312   0.771   9.217  0.5802  0.3727 -0.2468
18727SOL     OW59457   6.878   0.928   5.156  0.1489  0.0098  0.1838
18727SOL    HW159458   6.912   0.881   5.232  0.2936  1.2037  0.8846
18727SOL    HW259459   6.899   0.871   5.082  3.3078  0.4284  0.5925
18728SOL     OW59460  10.703  10.665   7.382  0.0220  0.4612 -0.4434
18728SOL    HW159461  10.779  10.609   7.403 -1.3486 -1.1507  0.4458
18728SOL    HW259462  10.730  10.752   7.411  1.5847 -0.0381 -0.2542
18729SOL     OW59463  10.187   3.830   3.162  0.3816  0.5867  0.4399
18729SOL    HW159464  10.230   3.842   3.077  0.1677 -0.4259  0.1825
18729SOL    HW259465  10.099   3.867   3.149 -0.3058 -1.2116 -0.3848
18730SOL     OW59466   3.389   8.943   4.713  0.2027 -0.6853 -0.2616
18730SOL    HW159467   3.302   8.938   4.675 -0.0309 -0.1295  0.1696
18730SOL    HW259468   3.373   8.956   4.807  0.6672  2.1180 -0.4740
18731SOL     OW59469   6.244   7.796   5.490 -0.6329  0.1317  0.2960
18731SOL    HW159470   6.272   7.877   5.533 -0.6375  0.1642  0.2386
18731SOL    HW259471   6.326   7.753   5.465 -0.6348  0.4186 -0.2275
18732SOL     OW59472   4.774   1.012  10.702 -0.1814  0.0742  0.0624
18732SOL    HW159473   4.711   0.941  10.703 -0.4709  0.3316  1.3964
18732SOL    HW259474   4.731   1.084  10.747  0.1802  1.0537 -1.0852
18733SOL     OW59475  11.187   1.936   7.004  0.6724 -0.2604 -0.1051
18733SOL    HW159476  11.200   1.841   7.009 -0.1065 -0.3552  0.2595
18733SOL    HW259477  11.141   1.949   6.921  0.6815 -0.2105 -0.1019
18734SOL     OW59478   6.378   7.367  10.972 -0.5284  0.8331 -0.1164
18734SOL    HW159479   6.334   7.284  10.990  0.8660 -0.4617 -2.1968
18734SOL    HW259480   6.448   7.372  11.036 -0.3692  0.1795 -0.2377
18735SOL     OW59481   1.341   5.153   3.786  0.0012 -0.4122 -0.0483
18735SOL    HW159482   1.302   5.070   3.812  0.6080  0.1701  3.2518
18735SOL    HW259483   1.310   5.216   3.851  3.5656  0.8063  0.7543
18736SOL     OW59484   9.354   3.433  10.323 -0.3301 -0.6499 -0.0465
18736SOL    HW159485   9.366   3.524  10.298 -2.0085 -0.0173  1.2579
18736SOL    HW259486   9.321   3.390  10.244 -0.4905  0.0894 -0.3850
18737SOL     OW59487   1.413   8.273   0.059  0.4419  0.3097  0.5554
18737SOL    HW159488   1.407   8.178   0.049 -0.0042  0.4102 -0.1980
18737SOL    HW259489   1.500   8.295   0.025  0.3321  0.2265  0.2091
18738SOL     OW59490   5.177   5.198   5.334 -0.2743 -0.2431  0.4365
18738SOL    HW159491   5.111   5.136   5.303  0.3979 -1.4834  1.3688
18738SOL    HW259492   5.159   5.279   5.287 -0.2615 -1.5671 -1.9858
18739SOL     OW59493   8.714   1.714   8.923 -0.0552 -0.4466 -0.0400
18739SOL    HW159494   8.661   1.732   9.000  0.1107 -1.4459  0.3173
18739SOL    HW259495   8.769   1.640   8.948  1.4201  0.4505 -0.4341
18740SOL     OW59496   2.812   0.482   2.050  0.3853 -0.2108  0.2656
18740SOL    HW159497   2.760   0.561   2.034  0.0950 -0.5133 -0.2917
18740SOL    HW259498   2.808   0.434   1.968  2.3196  0.1995 -0.1039
18741SOL     OW59499   2.617   6.544   8.317  0.2113 -0.0923  0.0004
18741SOL    HW159500   2.531   6.508   8.339  0.7950 -2.1443 -0.8427
18741SOL    HW259501   2.636   6.508   8.230  0.9090  2.2550 -0.8972
18742SOL     OW59502   7.862   7.122   7.795  0.2062 -0.3373  0.3286
18742SOL    HW159503   7.878   7.204   7.749  0.4693 -0.4855  0.1483
18742SOL    HW259504   7.911   7.131   7.877  0.5947 -0.4865  0.1150
18743SOL     OW59505   7.045   3.508   8.618  0.4807  0.5140  0.6402
18743SOL    HW159506   6.952   3.505   8.598  0.7279 -2.9318 -0.8109
18743SOL    HW259507   7.080   3.575   8.559 -0.8764  0.7019  0.0150
18744SOL     OW59508   7.658   3.663   3.709  0.1950  0.5896 -0.1920
18744SOL    HW159509   7.579   3.611   3.695 -0.3855  1.2852  0.4164
18744SOL    HW259510   7.648   3.738   3.650  0.3884  0.6847 -0.1046
18745SOL     OW59511   1.793   2.284  10.714  0.3472  0.2430 -0.1089
18745SOL    HW159512   1.840   2.205  10.688  0.3562 -0.2772  1.3875
18745SOL    HW259513   1.745   2.310  10.636  0.9108 -0.8280 -0.8365
18746SOL     OW59514  10.513   4.913   0.511  0.3088 -0.0908 -0.2722
18746SOL    HW159515  10.589   4.971   0.506 -0.3279  0.9703  1.4563
18746SOL    HW259516  10.448   4.963   0.561  0.3444 -2.8992  2.9624
18747SOL     OW59517   4.465   1.586  11.159  0.3037 -0.3178  0.3306
18747SOL    HW159518   4.501   1.652  11.219  2.4062 -0.0175 -1.1530
18747SOL    HW259519   4.374   1.612  11.148  0.5426  1.1370  1.3780
18748SOL     OW59520   1.442   0.700   5.217 -0.1540  0.2957 -0.1661
18748SOL    HW159521   1.467   0.629   5.277  0.8813 -0.1853 -1.1337
18748SOL    HW259522   1.510   0.766   5.228 -0.9862  1.0514  0.5521
18749SOL     OW59523   7.237   8.051  10.012 -0.1441  0.1140  0.0891
18749SOL    HW159524   7.180   8.109  10.063  0.3360 -0.9886  1.9927
18749SOL    HW259525   7.179   8.009   9.950 -1.6605 -1.5324  2.4579
18750SOL     OW59526   0.508   4.449   9.774 -0.3953  0.2238  0.4738
18750SOL    HW159527   0.419   4.440   9.740 -0.4628 -1.2451  0.9699
18750SOL    HW259528   0.522   4.543   9.780 -1.8448  0.4790  0.2192
18751SOL     OW59529   2.072  10.402   8.342 -0.2614  0.5118  0.3945
18751SOL    HW159530   1.993  10.351   8.363 -1.0929  0.9220 -1.5675
18751SOL    HW259531   2.105  10.364   8.261  1.0585  0.9499  0.6984
18752SOL     OW59532   9.190   9.396   4.276  0.6074 -0.2174 -0.1284
18752SOL    HW159533   9.246   9.328   4.240 -1.9168 -1.9226 -1.0886
18752SOL    HW259534   9.159   9.444   4.199 -1.5789 -1.2725  0.0253
18753SOL     OW59535   7.479   2.065   7.943 -0.0765  0.1210 -0.3616
18753SOL    HW159536   7.536   2.110   8.005 -0.2013 -0.0473 -0.1271
18753SOL    HW259537   7.398   2.116   7.944 -0.5197 -0.5811  0.5218
18754SOL     OW59538   7.322   5.188   6.349 -0.2724  0.3422 -0.6606
18754SOL    HW159539   7.233   5.224   6.344 -0.1331  0.6044 -1.3265
18754SOL    HW259540   7.361   5.232   6.424 -0.3160  1.1167 -1.0803
18755SOL     OW59541   0.981   7.398   5.166  0.7879 -0.2796 -0.2312
18755SOL    HW159542   1.030   7.394   5.084 -1.4571  2.1996 -1.8688
18755SOL    HW259543   0.891   7.380   5.141  0.0459  0.4593  1.7032
18756SOL     OW59544   0.594   8.016   2.129 -0.6403  0.4353  0.2335
18756SOL    HW159545   0.593   8.020   2.225 -0.3284  1.9120  0.2044
18756SOL    HW259546   0.666   7.958   2.107 -0.2721  0.6368  0.8964
18757SOL     OW59547   0.571   9.447   8.054  0.7285  0.3439  0.0610
18757SOL    HW159548   0.531   9.381   7.997 -0.6169  0.7919  0.4440
18757SOL    HW259549   0.569   9.408   8.141  0.9975  0.4287  0.1048
18758SOL     OW59550  10.385   8.414   2.857 -0.7386  0.6791  0.1247
18758SOL    HW159551  10.352   8.327   2.833  0.2972  0.1400  0.6110
18758SOL    HW259552  10.310   8.472   2.842 -1.6021 -0.3567  0.2318
18759SOL     OW59553   8.732   7.576   3.458  0.0709  0.0721 -1.1522
18759SOL    HW159554   8.666   7.516   3.493  1.5201 -0.5711  0.6170
18759SOL    HW259555   8.739   7.552   3.365 -1.0789 -0.8698 -1.0152
18760SOL     OW59556   1.000   1.103   5.167 -0.1163  0.2671  0.0882
18760SOL    HW159557   0.956   1.021   5.187  0.7012  0.0655  1.1310
18760SOL    HW259558   1.088   1.078   5.139  0.6428  0.8114  1.8442
18761SOL     OW59559   0.981   0.356   4.309  0.1682  0.5937  0.0356
18761SOL    HW159560   0.964   0.262   4.298  1.7986  0.3450 -0.7859
18761SOL    HW259561   1.051   0.361   4.373 -0.7464  1.3530  1.0084
18762SOL     OW59562   0.402   9.376   2.288  0.1693  0.3761  0.6021
18762SOL    HW159563   0.438   9.321   2.219  0.3030 -0.3333  1.2285
18762SOL    HW259564   0.478   9.411   2.333  0.1011  1.6628 -0.2265
18763SOL     OW59565   8.491   7.681   7.557  0.1422 -0.2598  0.0296
18763SOL    HW159566   8.558   7.626   7.517 -1.1537 -0.9868 -1.2420
18763SOL    HW259567   8.463   7.632   7.634  1.1799  0.1512  0.6966
18764SOL     OW59568   7.494  10.347   5.362  0.5025  0.2985 -0.7760
18764SOL    HW159569   7.438  10.422   5.383 -0.7035 -0.7458 -0.0647
18764SOL    HW259570   7.559  10.345   5.433 -0.7185 -0.4839  0.3818
18765SOL     OW59571   7.199  10.871   9.283  0.0507 -0.3208 -0.3558
18765SOL    HW159572   7.265  10.922   9.236 -0.6991  0.9368 -0.0838
18765SOL    HW259573   7.236  10.857   9.370  0.5232 -0.7892 -0.6284
18766SOL     OW59574  10.003   7.464   4.993  0.6376  0.0730 -0.3582
18766SOL    HW159575   9.937   7.426   5.051  1.2808 -0.4670  0.0323
18766SOL    HW259576   9.956   7.484   4.912 -0.6465  2.2886  0.8503
18767SOL     OW59577   4.465   9.293  11.051  0.4139  0.1283 -0.6043
18767SOL    HW159578   4.501   9.214  11.011  0.4358 -0.0499 -0.2433
18767SOL    HW259579   4.371   9.289  11.034  0.7209  1.4431 -3.0244
18768SOL     OW59580  11.182   7.145  10.351  0.2651 -0.0889 -0.6756
18768SOL    HW159581  11.164   7.225  10.301  0.9144  0.2719 -0.3468
18768SOL    HW259582  11.265   7.113  10.316  0.6212  0.0547  0.0241
18769SOL     OW59583   6.107  10.883  11.329  0.0111 -0.2417  0.4217
18769SOL    HW159584   6.014  10.865  11.314 -0.4136  1.9463  0.0261
18769SOL    HW259585   6.129  10.949  11.263  1.7866 -0.4777  0.7221
18770SOL     OW59586  11.011  10.814   4.889  0.6456  0.2991 -0.5757
18770SOL    HW159587  10.938  10.787   4.944  0.5426  1.2791 -0.2159
18770SOL    HW259588  11.084  10.759   4.917  0.1484 -0.4108 -0.6672
18771SOL     OW59589   1.576  10.814   3.683 -0.0312 -0.1343  0.3761
18771SOL    HW159590   1.555  10.906   3.673 -0.2503 -0.2126  0.1076
18771SOL    HW259591   1.496  10.774   3.717 -0.3811 -0.4493 -0.7431
18772SOL     OW59592   4.792   6.583   0.028  0.4098 -0.5819 -0.1209
18772SOL    HW159593   4.783   6.506   0.083  1.1621 -0.2370  0.4914
18772SOL    HW259594   4.706   6.592  -0.015 -0.2180 -0.7924  1.0600
18773SOL     OW59595   0.423   8.753   5.768  0.4687  0.1999 -0.1509
18773SOL    HW159596   0.360   8.824   5.778 -0.5630 -0.3101 -2.3266
18773SOL    HW259597   0.487   8.766   5.838 -0.8695  1.9991  0.7873
18774SOL     OW59598   6.483   6.770   3.725  0.9726  0.1746 -0.3741
18774SOL    HW159599   6.545   6.843   3.722  1.1042  0.2945  2.3896
18774SOL    HW259600   6.535   6.693   3.703  2.5002  0.1428  2.7082
18775SOL     OW59601   6.302   7.881   4.387  0.0443  0.5724 -0.3616
18775SOL    HW159602   6.259   7.797   4.406  0.4889  0.4561  0.1621
18775SOL    HW259603   6.310   7.923   4.473  1.7500  0.2181 -0.3255
18776SOL     OW59604   8.352   0.841   7.981 -0.0859 -0.0795  0.0750
18776SOL    HW159605   8.404   0.904   7.931  0.0822 -1.0439 -1.0096
18776SOL    HW259606   8.286   0.810   7.919 -0.8680 -0.1428  0.9265
18777SOL     OW59607  10.143   5.101   7.323  0.3879 -0.3886  0.7021
18777SOL    HW159608  10.193   5.039   7.269  0.0941 -0.0404  0.0105
18777SOL    HW259609  10.202   5.123   7.395  1.1555 -0.1631  0.0226
18778SOL     OW59610   1.840   3.800   1.482  0.1201 -0.4996  0.7057
18778SOL    HW159611   1.764   3.845   1.444  1.9113  0.6104 -1.8835
18778SOL    HW259612   1.893   3.776   1.406  0.9386 -4.0507  2.1994
18779SOL     OW59613   9.780   9.826   5.110 -0.0683  0.0973 -0.1120
18779SOL    HW159614   9.833   9.779   5.045 -1.3402 -2.0182  0.2940
18779SOL    HW259615   9.708   9.767   5.129 -1.9881  2.4145  0.1944
18780SOL     OW59616  11.081   6.268   6.209 -0.3427  0.4933  0.0372
18780SOL    HW159617  11.116   6.180   6.222 -0.0953  0.6367  0.3501
18780SOL    HW259618  11.150   6.315   6.162  0.6209  1.2676  2.0983
18781SOL     OW59619   6.902   0.836   6.365 -0.1750  0.2451 -0.6814
18781SOL    HW159620   6.856   0.805   6.443 -1.2942  2.9194 -0.1418
18781SOL    HW259621   6.837   0.829   6.295  0.3298 -0.7141 -1.0764
18782SOL     OW59622   6.289   4.484   5.782  0.1395 -0.5581 -0.5252
18782SOL    HW159623   6.306   4.438   5.864  2.3486  0.1433 -0.5414
18782SOL    HW259624   6.265   4.573   5.808 -1.5547 -0.9502 -0.6007
18783SOL     OW59625  10.032   2.045   7.426 -0.2815 -0.4280 -0.0783
18783SOL    HW159626  10.120   2.009   7.432  0.3720  0.9328 -1.0165
18783SOL    HW259627  10.010   2.070   7.516  1.0722  0.9277 -0.0822
18784SOL     OW59628   1.440   1.234   5.593 -0.4929 -0.2979 -0.3673
18784SOL    HW159629   1.384   1.188   5.656 -0.1886  1.0336  0.9072
18784SOL    HW259630   1.379   1.266   5.526 -1.3247  1.2884  1.0902
18785SOL     OW59631   7.844   4.901   1.491 -0.0144  0.6638 -0.5624
18785SOL    HW159632   7.766   4.940   1.531 -0.4267 -1.2641  0.6945
18785SOL    HW259633   7.915   4.960   1.515 -0.9354  1.9582 -0.9113
18786SOL     OW59634  10.497   7.618   6.373 -0.1765  0.5148  0.2162
18786SOL    HW159635  10.469   7.568   6.297 -0.0541 -1.5558  1.4717
18786SOL    HW259636  10.472   7.565   6.449  1.4415  1.5753  1.5809
18787SOL     OW59637   9.848   2.501  10.023  0.3060 -0.7857 -0.2497
18787SOL    HW159638   9.911   2.465   9.960  1.0131  0.7085 -0.4406
18787SOL    HW259639   9.895   2.572  10.067 -1.0275 -0.0522  0.0600
18788SOL     OW59640   6.562   4.836   6.077  0.2546  0.3217  0.3359
18788SOL    HW159641   6.565   4.766   6.142  0.1623 -2.2046 -2.2074
18788SOL    HW259642   6.493   4.810   6.016  0.1379  2.7240 -0.6721
18789SOL     OW59643   4.459   1.328   8.183 -0.2230 -0.2676 -0.4980
18789SOL    HW159644   4.364   1.321   8.192 -0.2600 -4.1689 -1.9091
18789SOL    HW259645   4.492   1.308   8.271 -0.6793 -0.2510 -0.3164
18790SOL     OW59646   6.874   1.195   6.822  0.0382 -0.0309  0.8250
18790SOL    HW159647   6.806   1.188   6.755  1.1429  0.4819 -0.3971
18790SOL    HW259648   6.842   1.261   6.882 -0.4206  0.4120  0.1074
18791SOL     OW59649   5.521   4.971   1.836  0.2066  0.4704  0.0546
18791SOL    HW159650   5.522   5.042   1.772  0.0201  0.7070  0.3141
18791SOL    HW259651   5.545   5.013   1.918 -1.3596  0.5173  0.5048
18792SOL     OW59652   8.882   8.073   2.685  0.6766  0.2331  0.0455
18792SOL    HW159653   8.867   8.006   2.753  1.6554  1.3499  1.4136
18792SOL    HW259654   8.794   8.095   2.654  0.3396 -2.3202 -1.1564
18793SOL     OW59655   5.060   3.524   1.627  0.0067 -0.1221 -0.2142
18793SOL    HW159656   5.101   3.523   1.713  1.4711 -1.3232 -0.8845
18793SOL    HW259657   5.131   3.503   1.566 -0.6059  2.3164 -1.9236
18794SOL     OW59658   1.600   9.237  10.602 -0.1633 -0.0425  0.7285
18794SOL    HW159659   1.664   9.299  10.634 -0.3355 -0.4236  1.8402
18794SOL    HW259660   1.590   9.173  10.672  0.0440 -1.3672 -0.4039
18795SOL     OW59661   1.426   0.769   5.489 -0.0532  0.0058  0.0904
18795SOL    HW159662   1.471   0.708   5.548  0.4273  0.1200 -0.1505
18795SOL    HW259663   1.355   0.718   5.451  0.7154 -0.5875 -0.5793
18796SOL     OW59664   5.488   9.856  10.903  0.1253  0.0379  0.2547
18796SOL    HW159665   5.491   9.903  10.986 -0.5409 -0.5357  0.6096
18796SOL    HW259666   5.398   9.865  10.873  0.6548  1.3261 -1.0589
18797SOL     OW59667   5.727   1.374   0.605 -0.3832  0.0287 -0.6645
18797SOL    HW159668   5.765   1.287   0.594  0.3156  0.4074 -1.3870
18797SOL    HW259669   5.690   1.395   0.519 -0.5433  0.4396 -0.4991
18798SOL     OW59670   7.864   7.591   7.316  0.3667  0.8634 -0.1144
18798SOL    HW159671   7.906   7.537   7.250  0.1898  1.2814 -0.5767
18798SOL    HW259672   7.797   7.640   7.268 -1.3146 -0.4674  0.7608
18799SOL     OW59673   8.249   2.854   4.113 -0.3899  0.4603  0.7714
18799SOL    HW159674   8.157   2.835   4.091  0.0184  0.0149 -0.6260
18799SOL    HW259675   8.243   2.915   4.187 -1.8180  0.9285  0.3151
18800SOL     OW59676   1.549   6.229  10.780  0.1694 -0.1669  0.7663
18800SOL    HW159677   1.597   6.204  10.701 -0.8015 -3.4546  1.0728
18800SOL    HW259678   1.574   6.163  10.845  0.7115  2.2751  3.1853
18801SOL     OW59679   2.752  11.130   6.900 -0.3931  0.1336 -0.5781
18801SOL    HW159680   2.779  11.222   6.903 -1.4643  0.5030 -1.1472
18801SOL    HW259681   2.683  11.129   6.833 -0.5876 -1.0377 -0.3771
18802SOL     OW59682  10.434   8.051   1.868 -0.4106 -0.2765 -0.2561
18802SOL    HW159683  10.425   7.958   1.887 -1.5426 -0.3941 -1.2585
18802SOL    HW259684  10.456   8.054   1.775  0.3162  0.4425 -0.0714
18803SOL     OW59685   7.289   5.335   0.747  0.5780 -0.0779 -0.5493
18803SOL    HW159686   7.354   5.267   0.768 -0.1405 -0.0952  2.0361
18803SOL    HW259687   7.306   5.404   0.811 -1.0592  0.5259 -0.7128
18804SOL     OW59688   5.489   5.803   5.251  0.1162  0.0368 -0.0181
18804SOL    HW159689   5.552   5.847   5.193 -0.4997  0.6840 -0.2111
18804SOL    HW259690   5.459   5.872   5.310 -1.1215 -0.0278 -0.5435
18805SOL     OW59691   0.009   8.951   4.994 -0.4609 -0.2674 -0.1056
18805SOL    HW159692   0.076   8.885   5.014 -0.8021 -1.4019 -2.3851
18805SOL    HW259693  -0.065   8.928   5.051  0.2707 -0.3778  0.8237
18806SOL     OW59694   9.024  11.017   8.596  0.3372 -0.5215 -0.2373
18806SOL    HW159695   9.033  11.024   8.501 -1.4329 -2.9177 -0.6942
18806SOL    HW259696   8.930  11.002   8.609  0.7133 -1.3663  1.7765
18807SOL     OW59697   6.684   2.657   4.699  0.4955  0.4530 -0.1513
18807SOL    HW159698   6.746   2.706   4.645  0.2014  2.5631  1.2984
18807SOL    HW259699   6.656   2.720   4.765 -2.7250 -0.6039 -0.3599
18808SOL     OW59700   9.754   8.521   6.962  0.2591 -0.1186  0.1668
18808SOL    HW159701   9.708   8.484   6.886  0.9924  1.0697 -0.9018
18808SOL    HW259702   9.750   8.452   7.028 -1.0702 -0.9097 -0.6736
18809SOL     OW59703   1.851   0.094   7.407 -0.7807 -0.1977  0.6332
18809SOL    HW159704   1.868   0.000   7.404 -1.6365 -0.3435 -0.0290
18809SOL    HW259705   1.923   0.134   7.358 -0.0037 -0.4306  1.5555
18810SOL     OW59706   1.897   8.765   2.898 -0.5667  0.4504 -0.0369
18810SOL    HW159707   1.873   8.811   2.817  0.1996  2.4923  0.8182
18810SOL    HW259708   1.984   8.729   2.880 -0.1529  1.3843  0.0435
18811SOL     OW59709   5.654   7.254   3.597  0.6853  0.0609 -0.7053
18811SOL    HW159710   5.564   7.223   3.589  1.1868 -1.7775  0.2099
18811SOL    HW259711   5.668   7.265   3.691  2.5850 -3.7669 -0.3398
18812SOL     OW59712   1.834   1.411   6.339  0.4129 -0.0291 -0.7131
18812SOL    HW159713   1.916   1.397   6.388  0.6412  0.5835 -0.9090
18812SOL    HW259714   1.765   1.385   6.400  0.7465 -0.4330 -0.5008
18813SOL     OW59715   4.647  10.697   6.144 -0.3140  0.5520  0.0858
18813SOL    HW159716   4.566  10.652   6.166  0.8006 -0.3362  2.8921
18813SOL    HW259717   4.624  10.790   6.146 -1.8869  0.2976 -2.3972
18814SOL     OW59718   9.232   4.161  11.385  0.0818 -0.1882  0.1536
18814SOL    HW159719   9.169   4.206  11.442 -0.8040 -1.1360 -0.0440
18814SOL    HW259720   9.289   4.113  11.445  0.6595  0.7058  0.3356
18815SOL     OW59721   3.316   8.059   1.282 -0.2162  0.5254 -0.2027
18815SOL    HW159722   3.336   8.015   1.366  0.3603 -1.3428 -1.2407
18815SOL    HW259723   3.234   8.105   1.298  0.2077  0.7489  1.5797
18816SOL     OW59724   7.904   1.792  10.601  0.6911  0.5866  0.6377
18816SOL    HW159725   7.885   1.815  10.692  0.1196  0.2844  0.5959
18816SOL    HW259726   7.826   1.746  10.570  1.6096 -1.0146  0.5671
18817SOL     OW59727   5.372   4.658   7.272 -0.0436 -0.1061 -0.2838
18817SOL    HW159728   5.308   4.635   7.339  1.4943 -1.5278  0.7661
18817SOL    HW259729   5.421   4.578   7.256 -0.4337  0.1125 -3.2945
18818SOL     OW59730   8.507   6.673   1.851  0.6344  0.2436  0.0829
18818SOL    HW159731   8.546   6.742   1.797 -1.5390  1.7630  0.3142
18818SOL    HW259732   8.565   6.665   1.926  2.2715 -0.0245 -1.1470
18819SOL     OW59733   7.960   2.245  10.902  0.0313 -0.5996  0.4180
18819SOL    HW159734   7.953   2.305  10.828 -0.1168 -2.4963 -1.1759
18819SOL    HW259735   7.999   2.166  10.866  0.7057 -1.3183  2.5618
18820SOL     OW59736   2.054  10.269   6.356  0.1684  0.8262  0.2711
18820SOL    HW159737   2.116  10.339   6.375  0.2329  1.0893 -0.8218
18820SOL    HW259738   2.009  10.298   6.277 -0.3178 -0.0357  0.2225
18821SOL     OW59739   6.459   2.906   0.428  0.0255  0.3268  0.6606
18821SOL    HW159740   6.478   2.984   0.480 -1.9759  0.8486  0.7007
18821SOL    HW259741   6.454   2.835   0.493 -1.6098  0.8262  1.1390
18822SOL     OW59742   3.961  10.248   5.647  0.5308 -0.2397 -0.3382
18822SOL    HW159743   3.963  10.320   5.585 -0.3070 -1.1534 -1.4618
18822SOL    HW259744   4.031  10.269   5.710  1.7562  0.4623 -1.8519
18823SOL     OW59745   2.020   6.603   3.247  0.0241 -0.5360 -0.5400
18823SOL    HW159746   1.957   6.673   3.231  0.0389 -0.6617 -1.1849
18823SOL    HW259747   2.005   6.540   3.176 -1.1530 -2.0516  0.9704
18824SOL     OW59748   6.917   8.677   0.328  0.7844 -0.8130  0.3543
18824SOL    HW159749   6.967   8.630   0.261  0.5625  3.5654 -3.4042
18824SOL    HW259750   6.979   8.741   0.362 -0.1652 -0.5562  1.6438
18825SOL     OW59751  10.906   9.410   9.171 -0.5802  0.0380  0.3809
18825SOL    HW159752  10.880   9.473   9.104 -2.7909 -0.8465  0.3198
18825SOL    HW259753  10.997   9.432   9.191 -0.6304  1.8674 -1.1410
18826SOL     OW59754  11.267   7.771  10.967  0.3321 -0.6551  0.5447
18826SOL    HW159755  11.192   7.794  10.913  0.0745 -1.0335  0.7385
18826SOL    HW259756  11.283   7.678  10.948 -0.7824 -1.2597  2.3163
18827SOL     OW59757   9.107   3.036   0.058  0.3043  0.2890  0.2554
18827SOL    HW159758   9.028   3.005   0.014  1.1264 -0.7591 -0.5443
18827SOL    HW259759   9.107   3.131   0.042  0.1078  0.0666 -1.2699
18828SOL     OW59760   3.809   6.033   1.287 -0.3858  0.4825 -0.7793
18828SOL    HW159761   3.843   5.957   1.334  0.5611  0.0630 -2.0913
18828SOL    HW259762   3.827   6.107   1.345 -0.8971 -0.2142  0.3076
18829SOL     OW59763   0.677   5.933   5.983 -0.2251 -0.5026 -0.0056
18829SOL    HW159764   0.621   5.975   5.918 -2.6376 -0.8925  1.7090
18829SOL    HW259765   0.700   6.003   6.044 -1.5537 -0.9560  1.0550
18830SOL     OW59766   3.889   7.345   2.690 -0.6684 -0.7100 -0.3012
18830SOL    HW159767   3.853   7.432   2.670 -0.6518 -0.4069  0.8883
18830SOL    HW259768   3.922   7.353   2.780  0.2937 -1.6503 -0.5435
18831SOL     OW59769   8.129   0.054   0.255  0.4038  0.0566 -0.2485
18831SOL    HW159770   8.119   0.147   0.275 -0.7492 -0.2622  0.7913
18831SOL    HW259771   8.209   0.028   0.300 -0.7233 -0.0300  1.8339
18832SOL     OW59772   3.469   8.018   8.965  0.4674 -0.0834 -0.3182
18832SOL    HW159773   3.421   8.020   9.048  0.6928 -0.6425 -0.1724
18832SOL    HW259774   3.548   7.968   8.984 -0.2474 -1.6436 -1.2712
18833SOL     OW59775   9.794   4.718   2.206  0.0902  0.5708  0.2293
18833SOL    HW159776   9.760   4.796   2.163 -2.4634 -0.8742 -0.5630
18833SOL    HW259777   9.785   4.648   2.141  1.4733 -0.6007  1.2123
18834SOL     OW59778   2.927   3.083  10.911  0.2057 -0.2885 -0.5703
18834SOL    HW159779   2.982   3.004  10.907  1.1179  0.3502 -1.1740
18834SOL    HW259780   2.874   3.072  10.989  0.6472 -1.2981 -0.4027
18835SOL     OW59781   2.494   9.352   9.395 -0.3694  0.4972  0.3874
18835SOL    HW159782   2.464   9.442   9.384 -0.2546  0.4489 -0.4226
18835SOL    HW259783   2.546   9.335   9.316 -2.3801 -1.0732 -0.6802
18836SOL     OW59784   9.079   9.685   5.150  0.2563 -0.0059  0.3902
18836SOL    HW159785   9.020   9.660   5.079  2.3650 -3.8651 -0.2840
18836SOL    HW259786   9.021   9.709   5.222 -2.1857 -2.5766 -0.5351
18837SOL     OW59787   8.506   3.837  10.594 -0.4771  0.1495 -0.3921
18837SOL    HW159788   8.492   3.787  10.513 -0.7658 -0.4867  0.0432
18837SOL    HW259789   8.487   3.775  10.664  0.9341  0.3435  0.1885
18838SOL     OW59790   2.440   5.963   3.564  0.0729 -0.2197 -0.0997
18838SOL    HW159791   2.481   5.877   3.570 -1.9130 -1.2703 -0.5186
18838SOL    HW259792   2.369   5.960   3.628 -1.0406  0.4669 -1.2354
18839SOL     OW59793   0.816   7.998   4.869 -0.3844 -0.2098 -0.7010
18839SOL    HW159794   0.902   7.969   4.899 -0.4753 -0.0949 -0.3209
18839SOL    HW259795   0.826   8.013   4.775  0.0541 -0.0356 -0.6264
18840SOL     OW59796   2.546   5.054   2.927  0.2012 -0.3165 -0.0347
18840SOL    HW159797   2.477   5.121   2.934  0.3351 -0.0561 -1.0799
18840SOL    HW259798   2.562   5.046   2.833  2.6692  0.7088  0.2352
18841SOL     OW59799   2.209   0.967   2.177  0.1602  0.3933  0.9445
18841SOL    HW159800   2.131   0.951   2.124  0.7938  3.0148 -0.9635
18841SOL    HW259801   2.198   1.057   2.209  1.9162  0.4455  1.4914
18842SOL     OW59802  10.760   7.018  11.390  0.1898 -0.3116 -0.8318
18842SOL    HW159803  10.821   6.947  11.373  2.0973  0.7548  1.0139
18842SOL    HW259804  10.776   7.081  11.320 -1.6333 -1.6414 -2.5788
18843SOL     OW59805   8.044   9.757   8.619  0.1202 -0.2610  0.0100
18843SOL    HW159806   8.053   9.786   8.710 -0.1504  1.2174 -0.4001
18843SOL    HW259807   7.997   9.829   8.576  4.2299  1.4012 -2.3335
18844SOL     OW59808   6.966   4.602   9.020 -0.0820  0.3557  0.4909
18844SOL    HW159809   6.986   4.628   9.110 -1.4354  1.3999  0.5222
18844SOL    HW259810   6.995   4.676   8.967  0.1750 -0.0103  0.1141
18845SOL     OW59811   2.628   6.363   6.425  0.1670 -0.0010  0.1353
18845SOL    HW159812   2.688   6.295   6.393 -0.6744 -0.3826 -0.6684
18845SOL    HW259813   2.666   6.445   6.393 -0.2117 -0.3119 -1.1439
18846SOL     OW59814   4.683  10.808   8.399 -0.1886 -0.4383 -0.6367
18846SOL    HW159815   4.680  10.714   8.386 -1.5385 -0.5521  0.2913
18846SOL    HW259816   4.719  10.820   8.487 -0.6597 -0.1324 -0.4784
18847SOL     OW59817   6.480   6.207   4.983 -0.2980 -0.3833 -0.0638
18847SOL    HW159818   6.548   6.248   4.929 -0.8607  2.8080  1.3896
18847SOL    HW259819   6.525   6.181   5.063 -0.4117  0.0010  0.1309
18848SOL     OW59820   7.207   1.859  11.049 -0.3042 -0.1932 -0.7104
18848SOL    HW159821   7.212   1.764  11.060 -0.8020 -0.3182 -1.5246
18848SOL    HW259822   7.185   1.892  11.136 -0.2025 -0.8226 -0.4397
18849SOL     OW59823   9.014   6.575   4.361  0.1872  0.2294  0.0792
18849SOL    HW159824   9.088   6.568   4.301  0.8202 -0.6805  0.9165
18849SOL    HW259825   9.038   6.517   4.434 -1.4942 -0.3430  0.2228
18850SOL     OW59826   5.103   1.006   0.040  0.1470  0.3087 -0.0132
18850SOL    HW159827   5.115   0.972  -0.049  1.8573  2.2107 -0.5961
18850SOL    HW259828   5.009   1.024   0.047 -0.1878 -0.9035 -1.0095
18851SOL     OW59829   9.236   6.879   4.261  0.1696  0.0157  0.7540
18851SOL    HW159830   9.305   6.867   4.327  0.3779 -0.3538  0.4717
18851SOL    HW259831   9.213   6.790   4.234 -0.2779  0.1485  0.7019
18852SOL     OW59832   2.760   5.322   7.499  0.2012 -0.0682  0.1661
18852SOL    HW159833   2.830   5.263   7.527  1.7397  1.5878  0.0051
18852SOL    HW259834   2.706   5.335   7.577 -0.8594 -2.4945 -0.0742
18853SOL     OW59835  10.161   0.925   8.117 -0.2797  0.6665 -0.3515
18853SOL    HW159836  10.220   0.918   8.042 -0.2138 -0.7384 -0.1976
18853SOL    HW259837  10.097   0.856   8.104  0.9819 -1.0646  1.9362
18854SOL     OW59838   4.065   7.494   4.976 -0.7189  0.0259  0.6673
18854SOL    HW159839   4.076   7.575   4.926 -2.0932 -0.8619 -1.2098
18854SOL    HW259840   4.132   7.436   4.941 -0.8726 -0.1962  0.7443
18855SOL     OW59841   6.150   7.762   2.073  0.0712 -0.7611  0.0214
18855SOL    HW159842   6.209   7.758   1.997  0.4692  0.4246  0.2411
18855SOL    HW259843   6.115   7.851   2.071 -2.2866 -1.6447 -0.4998
18856SOL     OW59844   5.964   9.129  11.264  0.0264 -0.4953  0.4130
18856SOL    HW159845   6.026   9.088  11.325  0.6622 -2.3469 -1.3495
18856SOL    HW259846   5.971   9.222  11.282  0.7060 -0.9111  2.6635
18857SOL     OW59847   9.174  11.077   1.943  0.0815 -0.3697 -0.2765
18857SOL    HW159848   9.141  10.991   1.970  0.6986 -0.4580  0.1988
18857SOL    HW259849   9.177  11.072   1.847 -1.2457 -0.3705 -0.3437
18858SOL     OW59850   8.016  11.328   7.647 -0.2671  0.6161  0.8156
18858SOL    HW159851   7.996  11.258   7.708 -1.0087  0.8233  0.8261
18858SOL    HW259852   7.944  11.327   7.584 -0.6132  1.7416  1.1614
18859SOL     OW59853   1.234   8.066  10.111  0.2294 -0.3631 -0.5758
18859SOL    HW159854   1.185   8.091  10.190  0.1721 -0.8885 -0.4352
18859SOL    HW259855   1.183   7.995  10.073  1.9352 -2.4253  0.7490
18860SOL     OW59856   3.440   8.152  10.085 -0.6805  0.6447  0.4584
18860SOL    HW159857   3.393   8.218  10.035 -1.6042 -0.9182 -0.8339
18860SOL    HW259858   3.372   8.106  10.135 -0.6853 -1.6877 -1.4850
18861SOL     OW59859   3.085   3.315   2.381 -0.6574  0.1671  0.0057
18861SOL    HW159860   3.157   3.296   2.441  0.3741  0.7093 -1.0215
18861SOL    HW259861   3.030   3.236   2.383  0.0801 -0.3391  0.6417
18862SOL     OW59862   4.682   1.027   2.556  0.5538  0.2986 -0.3346
18862SOL    HW159863   4.628   0.966   2.606  2.9017 -1.7081 -0.0559
18862SOL    HW259864   4.643   1.027   2.468 -0.8018  0.1294  0.2496
18863SOL     OW59865   1.433   2.758   8.642  0.0570  0.7059 -0.1763
18863SOL    HW159866   1.502   2.770   8.707 -1.2912  0.7704  1.3278
18863SOL    HW259867   1.371   2.829   8.659 -0.8518  0.0957 -0.8202
18864SOL     OW59868   4.024  10.350   0.402 -0.4131  0.5441 -0.2198
18864SOL    HW159869   4.041  10.256   0.397  0.7225  0.7662 -1.0489
18864SOL    HW259870   4.085  10.383   0.468 -1.0389  0.6523  0.3075
18865SOL     OW59871  10.933   9.197   8.444  0.4984  0.0796  0.0380
18865SOL    HW159872  10.908   9.285   8.414  1.4463  0.2118 -0.4290
18865SOL    HW259873  11.029   9.199   8.445  0.5693 -1.3173 -1.1210
18866SOL     OW59874   4.211   3.826   2.445 -0.5738  0.4142  0.6552
18866SOL    HW159875   4.257   3.838   2.362 -0.2206 -0.1276  0.7659
18866SOL    HW259876   4.145   3.760   2.426  0.2711 -0.5729  1.0852
18867SOL     OW59877  11.134   4.104   8.597 -0.2970  0.4565 -0.4513
18867SOL    HW159878  11.156   4.187   8.640 -2.4431  0.8069  0.0382
18867SOL    HW259879  11.096   4.050   8.665  2.0964 -1.4475 -0.4966
18868SOL     OW59880  10.039   4.650   5.674 -0.0007  0.2503 -0.1437
18868SOL    HW159881  10.017   4.737   5.640 -1.5475  0.2387  0.7240
18868SOL    HW259882  10.027   4.591   5.600  1.2233  0.7903 -0.7816
18869SOL     OW59883   1.865  10.334   2.426 -0.2023  0.0799 -0.0362
18869SOL    HW159884   1.901  10.364   2.343 -0.0884 -0.4218 -0.1751
18869SOL    HW259885   1.871  10.238   2.421  0.2535  0.0549  0.7466
18870SOL     OW59886   3.463   1.912   0.405 -0.0012  0.1944 -0.4077
18870SOL    HW159887   3.457   1.947   0.316  0.3670 -0.2857 -0.6266
18870SOL    HW259888   3.436   1.820   0.396 -0.8598  0.3738  0.1397
18871SOL     OW59889   9.361   2.979  10.227  0.0107  0.1528  0.4419
18871SOL    HW159890   9.430   3.031  10.268  0.1000  0.8807 -0.5994
18871SOL    HW259891   9.284   2.994  10.282 -0.4599  2.8909 -0.7914
18872SOL     OW59892   2.586   5.666   5.577  0.3633 -0.3145  0.1631
18872SOL    HW159893   2.504   5.673   5.626 -0.0087 -0.1908 -0.4748
18872SOL    HW259894   2.647   5.722   5.625 -0.2389  0.4979 -0.0067
18873SOL     OW59895   1.002   7.873   5.841  0.1928  0.3242  0.0704
18873SOL    HW159896   1.053   7.794   5.825  2.3671  1.6140  0.2005
18873SOL    HW259897   1.053   7.922   5.906 -0.7307  2.1159 -0.4684
18874SOL     OW59898   3.444   8.362   7.779 -0.1725 -0.4563  0.4331
18874SOL    HW159899   3.433   8.413   7.859  1.1086  0.1936  0.2193
18874SOL    HW259900   3.537   8.371   7.757 -0.5861 -0.2393 -1.3802
18875SOL     OW59901   0.033   0.965   3.963  0.0571  0.3376  0.2844
18875SOL    HW159902   0.000   1.037   3.910 -0.4812 -0.1424 -0.0467
18875SOL    HW259903  -0.027   0.961   4.038 -0.3626 -0.2295 -0.0732
18876SOL     OW59904   4.839   9.481   0.965 -0.1913 -0.0929 -0.2217
18876SOL    HW159905   4.880   9.470   0.879  1.0154  0.5455  0.2416
18876SOL    HW259906   4.912   9.505   1.023 -0.9692 -0.5788  0.9971
18877SOL     OW59907   0.919   8.931   3.046 -0.3997  0.3565  0.0462
18877SOL    HW159908   1.001   8.964   3.080 -0.3268  0.2441 -0.0197
18877SOL    HW259909   0.856   8.943   3.117 -0.2608  0.1696  0.2024
18878SOL     OW59910   4.688   9.278   1.670  0.0861 -1.0220  0.1314
18878SOL    HW159911   4.782   9.292   1.658 -0.2402 -0.6066 -2.6423
18878SOL    HW259912   4.651   9.367   1.671 -0.4266 -1.2223 -0.5694
18879SOL     OW59913   0.514   0.584   0.517  0.0448  0.6418  0.3269
18879SOL    HW159914   0.495   0.494   0.544 -1.8648 -0.2043 -3.3336
18879SOL    HW259915   0.607   0.582   0.492 -0.0531 -0.4016  0.0038
18880SOL     OW59916   4.599   2.547   1.295 -0.3114  0.4306  0.6450
18880SOL    HW159917   4.600   2.643   1.292 -0.4850  0.4547  1.3310
18880SOL    HW259918   4.585   2.526   1.387 -0.9806 -0.2539  0.3917
18881SOL     OW59919   8.132  10.356   2.447 -0.0807 -0.0918  0.2953
18881SOL    HW159920   8.195  10.354   2.375  0.0828  0.4009  0.4219
18881SOL    HW259921   8.050  10.328   2.408 -0.0367  0.3641 -0.1320
18882SOL     OW59922  11.032  11.253   8.720  0.0425 -0.1962 -0.5473
18882SOL    HW159923  10.979  11.217   8.791 -0.3105 -0.8391 -1.1232
18882SOL    HW259924  11.106  11.295   8.765 -1.0295  0.8690  0.2648
18883SOL     OW59925   8.590   4.174   8.077  0.4182  0.0223 -0.6917
18883SOL    HW159926   8.600   4.123   7.996  0.0619 -0.9204 -0.1566
18883SOL    HW259927   8.509   4.140   8.117  0.8786  0.0840  0.3236
18884SOL     OW59928   4.716   4.308   7.533 -0.0412 -0.2063  0.3329
18884SOL    HW159929   4.729   4.311   7.628 -0.7940 -0.8492  0.4647
18884SOL    HW259930   4.641   4.365   7.518  1.3344  1.5741 -0.1437
18885SOL     OW59931   0.843   8.648   0.098 -0.2189  0.2048  0.2575
18885SOL    HW159932   0.760   8.637   0.145  0.9281 -1.4917  2.0390
18885SOL    HW259933   0.853   8.567   0.048 -0.8193  1.4855 -2.1169
18886SOL     OW59934   5.362   8.441   0.778 -0.0965  0.2972  0.2432
18886SOL    HW159935   5.272   8.414   0.762 -0.7411  1.8091  1.1686
18886SOL    HW259936   5.415   8.376   0.731 -1.6800  0.0575 -1.3117
18887SOL     OW59937   8.055   5.191   9.340  0.2686 -0.5060  0.7509
18887SOL    HW159938   8.008   5.270   9.311 -0.6454 -0.8967  1.1583
18887SOL    HW259939   8.058   5.136   9.262  0.1615 -0.4247  0.6886
18888SOL     OW59940   8.601  10.944  10.407  0.1066 -0.1081  0.0833
18888SOL    HW159941   8.542  11.016  10.429  0.5202  0.1894  0.2351
18888SOL    HW259942   8.555  10.865  10.436  1.4581  0.3364  4.1408
18889SOL     OW59943   9.097   8.173   8.947  0.1636 -0.0728 -0.3171
18889SOL    HW159944   9.034   8.120   8.996 -1.7036  0.8266 -1.6293
18889SOL    HW259945   9.139   8.111   8.887 -1.0811 -0.3363 -0.9522
18890SOL     OW59946   7.665   6.957   8.248  0.2210 -0.0486  0.1625
18890SOL    HW159947   7.710   6.940   8.331  2.4357  1.9293 -0.5129
18890SOL    HW259948   7.702   6.893   8.187 -0.4906 -0.6837  0.3789
18891SOL     OW59949   9.674   7.725   2.001 -0.0279  0.4378 -0.2904
18891SOL    HW159950   9.598   7.775   2.031  0.7055  0.0621  2.5416
18891SOL    HW259951   9.737   7.792   1.974 -0.3283  0.9008  0.1257
18892SOL     OW59952   5.541   2.284  10.584  0.2170 -0.0721 -0.3456
18892SOL    HW159953   5.497   2.368  10.579 -0.4748 -0.4012  0.0028
18892SOL    HW259954   5.524   2.254  10.674  1.9572  0.2178  0.1247
18893SOL     OW59955   7.369   2.650   8.312  0.1987  0.1523  0.3448
18893SOL    HW159956   7.377   2.736   8.271  0.5509 -0.8441 -1.7963
18893SOL    HW259957   7.438   2.648   8.378 -0.4612  1.8537  1.1433
18894SOL     OW59958   4.072   4.861  10.776 -0.3145  0.0298  0.2171
18894SOL    HW159959   4.156   4.883  10.735 -0.5167  0.7137  0.1634
18894SOL    HW259960   4.028   4.805  10.712  1.6210 -3.5585  1.7186
18895SOL     OW59961   5.445   1.966   7.251 -0.0286  0.0673 -0.4449
18895SOL    HW159962   5.361   1.975   7.295 -0.2833  0.1438 -0.9466
18895SOL    HW259963   5.456   2.048   7.202  0.2587 -0.0106 -0.5128
18896SOL     OW59964   2.066  10.373   0.964 -0.0154  0.0735 -0.0631
18896SOL    HW159965   2.114  10.349   1.043 -1.0046 -0.3827  0.4108
18896SOL    HW259966   2.036  10.290   0.928  0.7757  0.2456 -1.1565
18897SOL     OW59967   8.718   2.334   8.008 -0.5032 -0.2036  0.0132
18897SOL    HW159968   8.800   2.351   7.962 -0.7278  2.8038  0.5630
18897SOL    HW259969   8.656   2.312   7.939 -0.0481  0.9859 -0.8010
18898SOL     OW59970   3.020   0.840   2.331  0.7992  0.8730 -0.0972
18898SOL    HW159971   3.109   0.870   2.350  0.3553  1.2806  1.4433
18898SOL    HW259972   2.997   0.784   2.404  0.5519 -1.0076 -1.5514
18899SOL     OW59973   9.934   1.459   4.853 -0.0705 -0.3603 -0.3008
18899SOL    HW159974   9.946   1.376   4.901  0.1944 -0.3809 -0.4027
18899SOL    HW259975   9.850   1.493   4.885 -0.7208 -1.2069 -1.0476
18900SOL     OW59976   7.831   4.982   0.787  0.1559  0.0991  0.1350
18900SOL    HW159977   7.905   4.939   0.830 -0.6414  0.1038  1.6004
18900SOL    HW259978   7.842   5.075   0.808 -0.4873  0.0467  0.7509
18901SOL     OW59979   0.785   7.987   5.986 -0.6709 -0.4618 -0.3349
18901SOL    HW159980   0.710   7.983   5.926 -2.3416 -3.5718  1.7162
18901SOL    HW259981   0.858   7.949   5.937 -1.5492 -1.3544 -0.9683
18902SOL     OW59982  10.798   2.999   5.624 -0.4580 -0.3254  0.4668
18902SOL    HW159983  10.802   3.033   5.535 -1.6698  1.0543  0.8876
18902SOL    HW259984  10.870   2.937   5.630  0.6867  0.7968 -0.9513
18903SOL     OW59985   7.983   5.203   7.419 -0.5156 -0.5234 -0.0243
18903SOL    HW159986   8.032   5.270   7.466 -2.2441 -0.2146  1.4435
18903SOL    HW259987   8.033   5.122   7.431 -0.3577 -0.2202  1.4416
18904SOL     OW59988   4.698   8.425   2.923 -0.5663  0.4038  0.6786
18904SOL    HW159989   4.696   8.495   2.988  0.7324  0.7920  0.3482
18904SOL    HW259990   4.791   8.401   2.916 -0.9309 -1.0992  0.5083
18905SOL     OW59991   9.684   3.819   8.085  0.3091  0.0454 -0.2769
18905SOL    HW159992   9.696   3.727   8.108  1.1514  0.4824  1.1013
18905SOL    HW259993   9.592   3.825   8.058 -0.1284 -0.9279  0.9377
18906SOL     OW59994   6.187   2.572  11.316  0.5565 -0.0708  0.2525
18906SOL    HW159995   6.219   2.561  11.226  2.1034  0.9178  0.6421
18906SOL    HW259996   6.251   2.631  11.357  0.4709 -1.3232  2.3141
18907SOL     OW59997   3.001   3.497   6.391 -0.1321  0.3986  0.3196
18907SOL    HW159998   2.965   3.460   6.471  1.5566 -2.8390 -0.2294
18907SOL    HW259999   2.938   3.472   6.323  0.2946 -0.2284  0.1469
18908SOL     OW60000   6.334   5.108   9.961 -0.1886  0.1543  0.0712
18908SOL    HW160001   6.375   5.175  10.015  0.1113 -0.5187  0.6947
18908SOL    HW260002   6.378   5.117   9.876 -0.8486  1.3838 -0.1609
18909SOL     OW60003   8.240   5.061   2.311  0.1529  0.2016 -0.5581
18909SOL    HW160004   8.262   5.033   2.223  0.6165 -0.6132 -0.1975
18909SOL    HW260005   8.169   5.124   2.300  0.9064  0.8894 -1.5688
18910SOL     OW60006   4.207   7.488   6.827 -0.0365 -0.3159 -0.1129
18910SOL    HW160007   4.293   7.455   6.803 -0.1528 -0.3789 -0.4454
18910SOL    HW260008   4.147   7.418   6.805 -0.2184 -0.1134 -0.2639
18911SOL     OW60009   5.312   2.478  10.579  0.0918 -0.8059  0.7398
18911SOL    HW160010   5.217   2.478  10.569  0.0475 -1.7919  1.0240
18911SOL    HW260011   5.345   2.494  10.490 -0.3347 -0.1604  0.6908
18912SOL     OW60012  11.247   1.953  11.195 -0.8776  0.1960 -0.1753
18912SOL    HW160013  11.242   2.045  11.223 -1.4815  0.0069  0.3646
18912SOL    HW260014  11.165   1.938  11.148  0.1581  0.5299 -2.1805
18913SOL     OW60015   3.834   5.730  10.851 -0.3674  0.2792 -0.5146
18913SOL    HW160016   3.814   5.817  10.816  0.2701  1.6117  2.1788
18913SOL    HW260017   3.925   5.715  10.826  0.1778  1.3442  0.7379
18914SOL     OW60018   0.382   7.655   6.587 -0.7848 -0.3010 -0.2891
18914SOL    HW160019   0.391   7.591   6.516 -0.0623  0.7083 -1.1400
18914SOL    HW260020   0.421   7.735   6.552 -0.2823  0.1852  1.3230
18915SOL     OW60021   7.513   0.740   8.863 -0.6621  0.1115 -0.3305
18915SOL    HW160022   7.561   0.732   8.780  1.2711  1.5809  0.5791
18915SOL    HW260023   7.482   0.651   8.881  1.6601 -0.9230 -1.0502
18916SOL     OW60024   2.191   3.607   7.095 -0.0150 -0.0114  0.3630
18916SOL    HW160025   2.273   3.617   7.143  0.4593  1.7955 -0.7385
18916SOL    HW260026   2.155   3.523   7.126  1.3126  0.0401  2.2194
18917SOL     OW60027   1.520   1.046   6.197  0.0693 -0.6703 -0.5843
18917SOL    HW160028   1.566   1.109   6.253  1.4202 -3.0008  1.1134
18917SOL    HW260029   1.572   1.042   6.117 -0.1751  0.5183 -0.8161
18918SOL     OW60030   9.383  10.824   4.024  0.7802  0.0611  0.1307
18918SOL    HW160031   9.368  10.917   4.041 -1.2292 -0.3793  1.1758
18918SOL    HW260032   9.390  10.817   3.929  0.9050  1.2693  0.0437
18919SOL     OW60033   6.524   9.699   6.996 -0.2941 -0.5247 -0.8189
18919SOL    HW160034   6.488   9.656   7.074 -1.7001 -0.2283 -1.2897
18919SOL    HW260035   6.478   9.658   6.923  0.5101 -0.3038 -1.4618
18920SOL     OW60036   3.227   6.671   9.717  0.1271 -0.6632  0.6108
18920SOL    HW160037   3.311   6.703   9.750 -0.6444  1.2206  0.8509
18920SOL    HW260038   3.197   6.609   9.783  2.3070 -3.1422 -0.5338
18921SOL     OW60039   2.813   5.859   5.669  0.6295 -0.2147  0.4617
18921SOL    HW160040   2.819   5.952   5.690  3.3440 -0.3409  0.4715
18921SOL    HW260041   2.837   5.853   5.577 -1.7334 -0.7381 -0.2075
18922SOL     OW60042   2.875   0.839   0.617  0.0258 -0.1154 -0.0712
18922SOL    HW160043   2.846   0.879   0.535  3.3780  0.7533 -0.9634
18922SOL    HW260044   2.875   0.745   0.598 -1.4858 -0.1180 -0.2075
18923SOL     OW60045   1.975   9.391   0.224  0.2427  0.4753  0.5586
18923SOL    HW160046   1.913   9.464   0.214 -0.5661 -0.3940 -1.2507
18923SOL    HW260047   2.050   9.415   0.170  0.0295  0.0360  0.0628
18924SOL     OW60048   4.326   4.727   0.367  0.0004  0.0666 -0.0056
18924SOL    HW160049   4.264   4.661   0.334 -0.5433  1.4377 -1.9328
18924SOL    HW260050   4.379   4.680   0.431 -3.1882 -1.1313  2.0190
18925SOL     OW60051   1.258   9.393   4.986  0.3503  0.1400  0.0274
18925SOL    HW160052   1.272   9.460   4.919  0.9247  0.1489  0.1542
18925SOL    HW260053   1.325   9.327   4.969  0.0187 -0.2273  0.1295
18926SOL     OW60054   6.172   5.863   5.884  0.4300 -0.3321  0.2058
18926SOL    HW160055   6.145   5.824   5.967 -0.3608 -0.9779 -0.3320
18926SOL    HW260056   6.263   5.836   5.872 -0.1261 -2.1648 -0.2081
18927SOL     OW60057   8.122   8.182   0.022 -0.4072 -0.1299 -0.5642
18927SOL    HW160058   8.041   8.189  -0.030  0.5660  0.1070 -2.1144
18927SOL    HW260059   8.168   8.106  -0.015 -1.5289 -2.7027  2.7417
18928SOL     OW60060   3.528   3.086   4.362 -0.0240  0.0128 -0.0494
18928SOL    HW160061   3.540   2.997   4.329 -1.3487 -0.7496  1.3979
18928SOL    HW260062   3.483   3.132   4.290  0.9169 -0.3785 -0.9125
18929SOL     OW60063  10.398   4.579   7.301  0.1683 -0.1000  0.1044
18929SOL    HW160064  10.345   4.500   7.289 -0.7581  0.3974  0.8162
18929SOL    HW260065  10.485   4.554   7.270 -0.9310 -0.2943 -3.2524
18930SOL     OW60066   1.769   0.775   0.591  0.3060 -0.0875 -0.1400
18930SOL    HW160067   1.797   0.864   0.573  1.6540 -0.4515  0.0646
18930SOL    HW260068   1.842   0.736   0.640 -0.5046 -1.1228  0.2866
18931SOL     OW60069   8.748   7.679   6.142  1.1486 -0.1407  0.2930
18931SOL    HW160070   8.794   7.758   6.170  0.2539  0.4447  0.1471
18931SOL    HW260071   8.732   7.631   6.223 -3.4682  2.6155  1.4179
18932SOL     OW60072   0.844   4.210   3.938  0.1399  0.6505 -0.1716
18932SOL    HW160073   0.768   4.214   3.879  0.0408 -1.7756 -0.3038
18932SOL    HW260074   0.910   4.265   3.895 -1.2240  2.1404 -0.4682
18933SOL     OW60075   6.642   1.302   6.690 -0.3519 -0.0316 -0.5186
18933SOL    HW160076   6.580   1.327   6.759  0.4105 -1.0673  0.5801
18933SOL    HW260077   6.664   1.385   6.647 -1.2277  0.5674  0.1476
18934SOL     OW60078   6.711   6.056   7.780 -0.1812  0.1957  0.1534
18934SOL    HW160079   6.768   5.982   7.759 -0.1751  0.4754 -0.8825
18934SOL    HW260080   6.648   6.059   7.709 -1.2839  0.1232  1.0996
18935SOL     OW60081   0.222   8.998   2.142 -0.3132 -0.3133 -0.8077
18935SOL    HW160082   0.160   8.976   2.212 -0.3930  0.6907 -0.5388
18935SOL    HW260083   0.172   8.986   2.061 -0.7408  0.1125 -0.6094
18936SOL     OW60084   2.565   1.997   3.818  0.0809 -0.0822  0.2034
18936SOL    HW160085   2.646   2.031   3.778  0.7682  0.9385  2.3002
18936SOL    HW260086   2.592   1.968   3.905 -1.4779 -1.5789  0.2363
18937SOL     OW60087   2.295   4.753   6.091 -0.3463 -0.2075 -0.1201
18937SOL    HW160088   2.224   4.815   6.106 -0.0837 -0.2666  1.6807
18937SOL    HW260089   2.257   4.668   6.113 -0.2458 -0.4865 -0.9985
18938SOL     OW60090   9.018   7.137   2.577  0.0840 -0.6787  0.0803
18938SOL    HW160091   9.047   7.216   2.622 -0.2455 -0.0734 -0.7461
18938SOL    HW260092   9.010   7.072   2.646 -2.0876  0.6864  1.2344
18939SOL     OW60093   1.293   3.600   2.273  0.1432 -0.3996  0.0792
18939SOL    HW160094   1.353   3.580   2.202 -0.1707  1.5179 -0.7950
18939SOL    HW260095   1.215   3.634   2.230 -1.0556 -1.5184  1.2602
18940SOL     OW60096   3.073  10.512   3.635  0.8173  0.2963 -0.0979
18940SOL    HW160097   3.006  10.542   3.573  0.4245 -0.2060  0.0787
18940SOL    HW260098   3.073  10.578   3.704 -1.2979 -0.9341  1.2075
18941SOL     OW60099   1.952   3.895   1.163  0.6656  0.2135 -0.1799
18941SOL    HW160100   1.960   3.966   1.226 -2.6491 -1.4372  2.3794
18941SOL    HW260101   2.001   3.822   1.202  1.1896  0.0475 -1.1057
18942SOL     OW60102   0.034   3.802   9.312 -0.5079  0.3542  0.0802
18942SOL    HW160103  -0.044   3.824   9.261 -1.3298  0.2066  1.2515
18942SOL    HW260104   0.081   3.739   9.257 -1.4087  0.1473 -0.4720
18943SOL     OW60105   5.998  11.322   9.360 -0.2961  0.2456  0.0731
18943SOL    HW160106   5.998  11.287   9.271  0.2825  0.1638  0.0965
18943SOL    HW260107   5.951  11.256   9.412  0.4040 -0.2972  0.0399
18944SOL     OW60108   7.051   8.218  10.113 -0.0502  0.1481 -0.3779
18944SOL    HW160109   6.957   8.205  10.130 -0.0542  0.6283 -0.0017
18944SOL    HW260110   7.059   8.311  10.095  0.6651  0.5736  1.8518
18945SOL     OW60111   7.979   5.597   1.341 -0.4636  0.5995  0.5600
18945SOL    HW160112   8.070   5.571   1.358 -1.0068 -0.1223  2.7126
18945SOL    HW260113   7.940   5.520   1.299 -0.3456  0.4863  0.6558
18946SOL     OW60114   2.379   3.268  10.360  0.7544  0.7137  0.0897
18946SOL    HW160115   2.411   3.206  10.426  1.4127  0.2638 -0.6343
18946SOL    HW260116   2.447   3.269  10.293 -0.3486  0.3550 -1.0950
18947SOL     OW60117  11.296  10.702  11.305  0.0204 -0.7109 -0.6830
18947SOL    HW160118  11.269  10.772  11.245 -0.3626 -0.0158  0.2699
18947SOL    HW260119  11.391  10.699  11.298 -0.0930 -1.4020 -2.1435
18948SOL     OW60120   7.596   7.710   1.758  0.4699 -0.1418 -0.1953
18948SOL    HW160121   7.558   7.760   1.685  0.9421  1.2103  0.4564
18948SOL    HW260122   7.522   7.694   1.816  0.3470 -0.0047 -0.3109
18949SOL     OW60123  10.102   7.667   4.406  0.3183  0.2007  0.2618
18949SOL    HW160124  10.013   7.637   4.423 -0.4974  1.9095 -0.6729
18949SOL    HW260125  10.105   7.756   4.441  1.3148  0.5605 -0.6617
18950SOL     OW60126   6.745   1.912  10.994 -0.1295 -0.0769  0.1138
18950SOL    HW160127   6.765   1.822  10.969  0.1652  0.3595 -1.3291
18950SOL    HW260128   6.742   1.960  10.911 -3.1049  0.6955  0.5454
18951SOL     OW60129   6.220  11.136   2.962  0.0768  0.5660  0.4146
18951SOL    HW160130   6.145  11.152   3.020  0.6272  0.1101  1.2629
18951SOL    HW260131   6.212  11.203   2.894 -2.4563 -0.8985 -0.8934
18952SOL     OW60132   8.814   1.524  11.175 -0.1306  0.0314  0.5367
18952SOL    HW160133   8.768   1.447  11.209  0.6431  0.1635  1.9554
18952SOL    HW260134   8.897   1.524  11.222  0.4459  0.9845 -0.4441
18953SOL     OW60135  10.992   0.855  10.651 -0.0775  0.2008 -0.2333
18953SOL    HW160136  11.053   0.878  10.721  2.7823 -0.3321 -2.3748
18953SOL    HW260137  10.955   0.939  10.624 -0.2939  0.5507  1.0547
18954SOL     OW60138   6.842   7.658   8.535  1.0668  0.3199 -0.2587
18954SOL    HW160139   6.761   7.611   8.558  0.2347  1.6144 -0.4197
18954SOL    HW260140   6.905   7.589   8.515  0.2393 -0.7415  0.6631
18955SOL     OW60141   8.896   7.394   1.657 -0.0016 -0.3389  0.1933
18955SOL    HW160142   8.904   7.333   1.584 -1.9592  0.2234 -0.5504
18955SOL    HW260143   8.896   7.338   1.735  1.2590 -1.0135 -0.2710
18956SOL     OW60144   7.164   4.180   8.479  0.1024  0.1755  0.4185
18956SOL    HW160145   7.148   4.188   8.573  2.1057 -0.7411  0.9054
18956SOL    HW260146   7.228   4.109   8.472  1.4891  1.4996 -1.4541
18957SOL     OW60147   8.681   5.572   8.577 -0.3313  0.2220 -0.7118
18957SOL    HW160148   8.608   5.618   8.618  0.4747  0.2661  0.7701
18957SOL    HW260149   8.643   5.491   8.544 -0.7261 -0.7585  1.9179
18958SOL     OW60150   0.072   6.292   3.411  0.0760 -0.3490 -0.3057
18958SOL    HW160151   0.135   6.281   3.482 -1.4472 -1.2136  0.9680
18958SOL    HW260152   0.066   6.386   3.397 -2.1705  0.2021  3.2058
18959SOL     OW60153  10.203   6.831   1.380  0.5744 -0.3694 -0.3882
18959SOL    HW160154  10.148   6.829   1.459  1.2175 -1.6669  0.0564
18959SOL    HW260155  10.149   6.875   1.315  0.0632  0.8324  0.7970
18960SOL     OW60156   8.502  11.316   6.156  0.2398  0.1866  0.3467
18960SOL    HW160157   8.517  11.339   6.064 -1.3540  0.0318  0.0057
18960SOL    HW260158   8.520  11.223   6.161  3.3418  0.7122  0.9464
18961SOL     OW60159   6.666   9.469   8.599 -0.0177 -0.2426 -0.1482
18961SOL    HW160160   6.736   9.534   8.598  0.2501 -0.5275  0.1691
18961SOL    HW260161   6.665   9.434   8.510 -1.7674  1.9026 -1.0695
18962SOL     OW60162  10.217   8.127   3.047  0.3461  0.6828 -0.4951
18962SOL    HW160163  10.272   8.132   2.969  0.3696  1.2392 -0.4448
18962SOL    HW260164  10.239   8.206   3.097  0.0378  0.5341 -0.1211
18963SOL     OW60165   0.560   5.159   5.755  0.3674 -0.0650 -0.0996
18963SOL    HW160166   0.504   5.086   5.728 -0.9730  0.6577  0.5921
18963SOL    HW260167   0.518   5.236   5.718  0.3815  0.5854  1.1690
18964SOL     OW60168   2.039   3.681   6.410  0.1584 -0.1134 -0.0024
18964SOL    HW160169   2.127   3.711   6.434 -0.8555  1.7437  1.6542
18964SOL    HW260170   1.992   3.674   6.493 -1.2096 -1.3524 -0.8316
18965SOL     OW60171   0.863   8.583   5.411 -0.3735  0.1857  1.1863
18965SOL    HW160172   0.900   8.665   5.441  1.1524 -0.3121  0.7511
18965SOL    HW260173   0.882   8.520   5.481  0.9924 -0.4112  0.3183
18966SOL     OW60174   6.169   4.780   1.296 -0.0213  0.3528  0.2392
18966SOL    HW160175   6.195   4.838   1.368 -1.0428  0.4447  0.5387
18966SOL    HW260176   6.091   4.820   1.260  0.2901  0.1183 -0.7166
18967SOL     OW60177   6.503   0.115  10.000 -0.5072 -0.3848  0.0542
18967SOL    HW160178   6.580   0.084  10.047 -0.1801  0.7750  0.3077
18967SOL    HW260179   6.530   0.121   9.909 -0.6008 -0.9080 -0.0120
18968SOL     OW60180   4.708   4.685   6.356  0.2705  0.4715 -0.0489
18968SOL    HW160181   4.716   4.762   6.300 -0.2237 -0.4611 -1.4830
18968SOL    HW260182   4.649   4.711   6.426 -1.3637  0.8765 -1.5158
18969SOL     OW60183   7.582   6.996   2.692  0.4934  0.7875  0.1931
18969SOL    HW160184   7.538   6.912   2.681 -0.9738  1.5418  0.0642
18969SOL    HW260185   7.547   7.051   2.621  0.6780  1.7982  0.8693
18970SOL     OW60186   2.514   4.493   8.538 -0.1969 -0.0813  0.1953
18970SOL    HW160187   2.441   4.443   8.574 -1.0758 -0.3117 -1.7754
18970SOL    HW260188   2.472   4.564   8.489  0.8784 -0.2271 -0.9788
18971SOL     OW60189   8.418   4.854   7.003  0.1347  0.2321 -0.5476
18971SOL    HW160190   8.468   4.915   6.948  1.6150 -0.5616 -0.1273
18971SOL    HW260191   8.460   4.859   7.089 -2.8588  2.3453  0.9737
18972SOL     OW60192   5.715   1.492   8.128  0.4490  0.0906  0.2016
18972SOL    HW160193   5.759   1.451   8.052 -0.3930  2.9321 -2.0004
18972SOL    HW260194   5.741   1.584   8.123 -2.3764  1.0395  1.3191
18973SOL     OW60195  11.116   5.741   0.083  0.3490 -0.3218 -0.3408
18973SOL    HW160196  11.061   5.741   0.005 -1.0347 -3.6435  0.4471
18973SOL    HW260197  11.054   5.750   0.156  1.0271 -1.9442  0.4964
18974SOL     OW60198   6.325   5.129   3.710 -0.1830 -0.1150 -0.2664
18974SOL    HW160199   6.402   5.072   3.720 -0.9730 -1.3628 -1.0889
18974SOL    HW260200   6.256   5.084   3.760 -0.3167  1.1797  0.7735
18975SOL     OW60201  10.091   8.706   1.339 -0.0000  0.4845  0.9817
18975SOL    HW160202  10.154   8.761   1.292  0.2495  0.1090  0.8726
18975SOL    HW260203  10.006   8.740   1.312  0.1505  0.7646  0.8518
18976SOL     OW60204   7.497   3.838   1.627  0.1751  0.0862  0.2104
18976SOL    HW160205   7.467   3.838   1.718  0.1004  1.1157  0.1928
18976SOL    HW260206   7.531   3.926   1.613  0.3634 -0.1275 -0.7058
18977SOL     OW60207   5.489   9.914   7.272 -0.0251  0.3628 -0.1113
18977SOL    HW160208   5.465   9.927   7.364  0.2292 -0.6207  0.1127
18977SOL    HW260209   5.585   9.918   7.272  0.0133 -0.4042 -0.1940
18978SOL     OW60210   3.480   8.669   4.603  0.0746 -0.5732  0.1087
18978SOL    HW160211   3.433   8.751   4.611  1.3016  0.1083  0.5234
18978SOL    HW260212   3.561   8.682   4.652  1.5118 -1.0785 -2.0071
18979SOL     OW60213   5.219   0.247  11.293  0.1675 -0.3774  0.4017
18979SOL    HW160214   5.291   0.277  11.238  0.0654  0.0616  0.5058
18979SOL    HW260215   5.261   0.201  11.365  0.3783  0.3891  0.7758
18980SOL     OW60216   1.809   0.923   7.154 -0.4568 -0.5122  0.4702
18980SOL    HW160217   1.743   0.866   7.114 -0.6406 -0.0747  0.1403
18980SOL    HW260218   1.796   1.008   7.112 -0.6584 -0.0371  1.4699
18981SOL     OW60219   2.120   7.722   2.726  0.4583  0.4070  0.1935
18981SOL    HW160220   2.152   7.754   2.641  0.9780  0.5076  0.4213
18981SOL    HW260221   2.039   7.676   2.705  0.6125  0.3779 -0.3675
18982SOL     OW60222   7.467   3.778   0.202  0.6839  0.5732 -0.1945
18982SOL    HW160223   7.440   3.688   0.182  1.6319  0.2716 -0.1592
18982SOL    HW260224   7.385   3.823   0.222  0.3548 -0.8105  1.8753
18983SOL     OW60225   4.289   3.563   1.145 -0.3074  0.5770 -0.3532
18983SOL    HW160226   4.293   3.659   1.149 -0.6257  0.5778 -0.0137
18983SOL    HW260227   4.196   3.542   1.151 -0.1844  0.2125  0.4713
18984SOL     OW60228   7.565   9.580   9.222  0.5196 -0.4088  0.5284
18984SOL    HW160229   7.618   9.653   9.189  0.6199 -0.5997  0.2567
18984SOL    HW260230   7.565   9.591   9.317  1.6297 -0.7904  0.5976
18985SOL     OW60231   0.539   8.685   3.217  0.2401 -0.1548 -0.6122
18985SOL    HW160232   0.460   8.630   3.222  0.5546 -0.5249  0.5203
18985SOL    HW260233   0.507   8.773   3.235  0.3856 -0.6118  2.2475
18986SOL     OW60234   9.854   2.396   6.783  0.2958 -0.0554 -0.7541
18986SOL    HW160235   9.931   2.395   6.725 -0.8105  1.0329 -2.3343
18986SOL    HW260236   9.784   2.360   6.729 -0.8749  1.3598 -0.2252
18987SOL     OW60237   9.299   5.967   0.227 -0.1553  0.0728 -0.0542
18987SOL    HW160238   9.339   5.903   0.168 -0.5838  0.5608 -0.8935
18987SOL    HW260239   9.301   6.049   0.178 -1.4290  0.2802  0.2013
18988SOL     OW60240   5.847   6.572   9.745  0.2366 -0.0564  0.6254
18988SOL    HW160241   5.871   6.483   9.721  1.2058  0.0181  1.2547
18988SOL    HW260242   5.752   6.574   9.738  0.1339 -1.3823  1.4214
18989SOL     OW60243   8.655  10.124   5.754 -0.5229  0.3938  0.0321
18989SOL    HW160244   8.739  10.112   5.799  0.3111 -2.1997 -1.9146
18989SOL    HW260245   8.589  10.110   5.822  0.6677 -2.2633  0.8117
18990SOL     OW60246   3.749   3.064   0.319 -0.1646 -0.4954 -0.0651
18990SOL    HW160247   3.659   3.094   0.304 -0.5414 -1.8533 -0.6649
18990SOL    HW260248   3.792   3.138   0.361 -1.3237  0.5052 -0.5726
18991SOL     OW60249   3.713   8.862   1.712 -0.2651 -0.3499  0.2771
18991SOL    HW160250   3.635   8.855   1.767  0.0018 -1.3190  0.5459
18991SOL    HW260251   3.778   8.806   1.754 -0.0120 -1.0176 -0.9303
18992SOL     OW60252   3.774   8.535   2.055 -0.0687  0.1873 -0.3221
18992SOL    HW160253   3.815   8.449   2.050  0.3980  0.3358  0.5609
18992SOL    HW260254   3.698   8.530   1.998 -1.0183 -1.3668  0.9970
18993SOL     OW60255   6.991   4.832   8.853 -0.7308 -0.2146  0.3562
18993SOL    HW160256   7.065   4.836   8.913 -1.0779 -1.4983  0.9026
18993SOL    HW260257   7.028   4.855   8.768  0.2955 -0.7892  0.6262
18994SOL     OW60258   3.008  11.283   5.472  0.0970 -0.3408 -0.7133
18994SOL    HW160259   3.027  11.191   5.454 -0.2026 -0.6289  0.3818
18994SOL    HW260260   2.913  11.286   5.482  0.2618 -0.3258  1.3079
18995SOL     OW60261   9.094   6.199   4.336 -0.0988 -0.2323 -0.5373
18995SOL    HW160262   9.081   6.119   4.285  1.0969  0.8396 -2.6347
18995SOL    HW260263   9.149   6.172   4.409 -1.1591 -1.6385 -0.2099
18996SOL     OW60264   7.110   8.679   9.042  0.0735  0.2623 -0.5332
18996SOL    HW160265   7.111   8.774   9.055  0.6736  0.0925  0.8324
18996SOL    HW260266   7.196   8.659   9.007  1.2061 -0.1233  2.2617
18997SOL     OW60267   8.982   4.510   3.133 -0.4021 -0.2112  0.2521
18997SOL    HW160268   8.956   4.494   3.042 -2.2380 -0.2838  0.7443
18997SOL    HW260269   8.951   4.599   3.152 -0.1932 -0.2581  0.8500
18998SOL     OW60270   0.807   1.241   7.869 -0.3035  0.1111 -1.0265
18998SOL    HW160271   0.815   1.153   7.904  0.1931  0.0510 -1.2817
18998SOL    HW260272   0.753   1.231   7.790  0.5328 -0.1175 -1.5843
18999SOL     OW60273   6.120   0.042   7.837 -0.2833 -0.4572 -0.6311
18999SOL    HW160274   6.071   0.079   7.910  0.6612 -0.1721 -0.1276
18999SOL    HW260275   6.174  -0.027   7.877  0.9054  0.2977 -0.8855
19000SOL     OW60276   8.118   3.163   3.480 -0.0596 -0.2872  0.6652
19000SOL    HW160277   8.042   3.218   3.461  0.4937  0.2887  0.0406
19000SOL    HW260278   8.186   3.196   3.422  1.0061 -0.0540  2.0079
19001SOL     OW60279   2.506   1.703   8.845 -0.1701 -0.7220  0.1408
19001SOL    HW160280   2.562   1.777   8.823  0.0934 -1.3229 -1.3564
19001SOL    HW260281   2.417   1.733   8.824 -0.1358 -0.6105  0.1558
19002SOL     OW60282   5.089   6.291   8.427  0.1108  0.2146 -0.1512
19002SOL    HW160283   5.085   6.270   8.334 -2.1162 -0.0572 -0.0407
19002SOL    HW260284   5.156   6.359   8.433  0.5144  0.0232 -1.8930
19003SOL     OW60285  11.332   8.819   9.401 -0.1048  0.3057  0.2381
19003SOL    HW160286  11.334   8.876   9.324  1.2848  0.8965  0.6739
19003SOL    HW260287  11.351   8.877   9.474  0.7513 -0.6000  0.7611
19004SOL     OW60288   8.632   3.856   7.229 -0.3880  0.6010  0.7573
19004SOL    HW160289   8.687   3.845   7.306  0.4228 -1.8331 -0.0850
19004SOL    HW260290   8.546   3.822   7.256  0.0214 -0.6979  0.4909
19005SOL     OW60291   6.977   9.157  10.216 -0.3692 -0.3477  0.0750
19005SOL    HW160292   6.930   9.236  10.242 -2.1098 -0.9320 -1.0796
19005SOL    HW260293   7.068   9.174  10.239 -0.7540  1.8284  0.2185
19006SOL     OW60294   8.354   0.423   0.279 -0.3870  0.0359  0.5001
19006SOL    HW160295   8.422   0.379   0.330 -0.2027  1.0500  1.1609
19006SOL    HW260296   8.394   0.504   0.250 -0.4137 -0.6175 -1.5113
19007SOL     OW60297   6.671   1.807  11.256 -0.5181 -0.6811  0.0585
19007SOL    HW160298   6.749   1.794  11.310 -0.1784 -2.2121 -0.7481
19007SOL    HW260299   6.701   1.861  11.183  0.1225 -2.2359 -0.8746
19008SOL     OW60300   8.419   9.329   9.178 -0.7688 -0.4645  0.1521
19008SOL    HW160301   8.367   9.410   9.187  0.1569  0.2174 -0.4301
19008SOL    HW260302   8.383   9.270   9.244 -0.0122  1.2082  2.1721
19009SOL     OW60303   8.168   4.607   8.037 -0.2215 -0.0414  0.4565
19009SOL    HW160304   8.256   4.615   7.998  0.1206 -2.1679  0.6877
19009SOL    HW260305   8.114   4.666   7.984  1.2355  0.9282 -0.0222
19010SOL     OW60306   9.734   4.911   8.401 -0.2433 -0.8918  0.2536
19010SOL    HW160307   9.755   4.941   8.313 -0.6913 -0.2856  0.3431
19010SOL    HW260308   9.689   4.828   8.388  0.9568 -1.5149 -0.0060
19011SOL     OW60309   9.981   3.671  10.504 -0.1900  0.2163  0.5736
19011SOL    HW160310   9.954   3.700  10.417  1.5749  0.5161  0.0854
19011SOL    HW260311  10.007   3.752  10.549  2.5988 -0.2173 -0.0211
19012SOL     OW60312   2.601   7.053   8.813 -0.0726  0.1065 -0.0575
19012SOL    HW160313   2.540   7.125   8.795  1.1967  1.2429 -0.0212
19012SOL    HW260314   2.577   7.022   8.900  0.1731  1.3908  0.4928
19013SOL     OW60315   9.230   2.772   0.161 -0.1957  0.1047 -0.4544
19013SOL    HW160316   9.256   2.815   0.080 -0.0109  1.3129  0.2216
19013SOL    HW260317   9.174   2.835   0.205  1.8622  0.6131  1.5943
19014SOL     OW60318  10.038  10.125   6.512 -0.0941  0.0554  0.0050
19014SOL    HW160319   9.946  10.126   6.487 -0.2371 -1.0563  0.4013
19014SOL    HW260320  10.041  10.167   6.598 -0.1036  0.8362 -0.3734
19015SOL     OW60321   9.141   8.976   6.557  0.2827  1.1645 -0.1921
19015SOL    HW160322   9.165   8.893   6.597 -2.8410  0.6518  0.9033
19015SOL    HW260323   9.213   8.996   6.498  0.9906 -2.4971 -0.7964
19016SOL     OW60324   8.738   6.515   7.677  0.2862  0.2539 -0.3330
19016SOL    HW160325   8.787   6.598   7.683 -0.5352  0.6955  0.4841
19016SOL    HW260326   8.790   6.453   7.727 -0.5415  1.0181  1.5771
19017SOL     OW60327   7.965   1.545  10.345 -0.5071  0.7307 -0.1541
19017SOL    HW160328   7.931   1.483  10.410  0.6458 -1.8050 -1.8352
19017SOL    HW260329   7.887   1.592  10.315 -1.0821  2.0916  3.0027
19018SOL     OW60330   1.370  10.774   1.741 -0.1847  0.2695  0.2494
19018SOL    HW160331   1.398  10.688   1.771 -0.3280  0.4990  1.0648
19018SOL    HW260332   1.442  10.833   1.765  0.1117  0.3098 -0.7103
19019SOL     OW60333   0.156  10.501   9.314  0.0346  0.5247 -0.2723
19019SOL    HW160334   0.068  10.538   9.304 -0.9029 -0.2872  3.4842
19019SOL    HW260335   0.155  10.422   9.259 -0.8708  1.5217 -1.7553
19020SOL     OW60336  10.460   0.935   8.247  0.0677  0.0781 -0.3788
19020SOL    HW160337  10.479   0.870   8.179 -0.3353 -0.7736  0.3091
19020SOL    HW260338  10.463   1.019   8.201 -0.1117 -0.4740 -1.4317
19021SOL     OW60339   5.622  10.733   0.590 -0.1940  0.2419  0.6657
19021SOL    HW160340   5.712  10.763   0.604 -0.5220  1.8714 -0.5564
19021SOL    HW260341   5.572  10.775   0.659 -0.3574  1.0621  0.0529
19022SOL     OW60342   1.720   1.741   2.255 -0.2709 -0.1732  0.1964
19022SOL    HW160343   1.748   1.772   2.169 -0.0848  1.2475  0.7395
19022SOL    HW260344   1.694   1.650   2.241 -1.1124  0.2979 -1.5377
19023SOL     OW60345   7.543   0.781   8.008 -0.0246  0.1238 -0.7010
19023SOL    HW160346   7.608   0.763   8.076 -0.0737  0.7640 -0.4761
19023SOL    HW260347   7.459   0.773   8.053 -0.0289  1.9883 -0.2956
19024SOL     OW60348   1.041  10.738   2.086 -0.8683 -0.0148 -0.0600
19024SOL    HW160349   1.043  10.765   2.177 -0.0888  0.9312 -0.3423
19024SOL    HW260350   0.959  10.774   2.051 -1.1915 -0.4210  0.2649
19025SOL     OW60351   2.235   1.471   2.043  0.2115 -0.1752  0.0267
19025SOL    HW160352   2.221   1.565   2.051  1.8588  0.2561 -1.3503
19025SOL    HW260353   2.329   1.459   2.062 -0.1534 -1.6758  1.0723
19026SOL     OW60354   2.015   0.827   1.372 -0.2387  0.1031  0.3047
19026SOL    HW160355   1.952   0.823   1.300 -0.3611  1.3866  0.3227
19026SOL    HW260356   2.092   0.781   1.338 -0.5749 -0.0056 -0.3418
19027SOL     OW60357   5.216  10.641   3.467 -0.2790 -0.1764 -0.0659
19027SOL    HW160358   5.200  10.720   3.415  1.1539 -0.1614 -0.5180
19027SOL    HW260359   5.273  10.587   3.413  1.9910  0.2206  1.7754
19028SOL     OW60360   6.133   1.769   7.758  0.0918  0.6025  0.4859
19028SOL    HW160361   6.080   1.806   7.687  0.3433 -0.5408 -0.3346
19028SOL    HW260362   6.176   1.844   7.799  1.8795  1.1374 -2.1515
19029SOL     OW60363   3.725   0.380   1.241 -0.1484 -0.1641  0.6698
19029SOL    HW160364   3.753   0.322   1.170 -0.0026 -1.5114  1.7893
19029SOL    HW260365   3.696   0.460   1.196  2.2412  0.0082 -0.7514
19030SOL     OW60366   0.759   4.873   9.987  0.1434  0.2787  0.1316
19030SOL    HW160367   0.788   4.964   9.981  1.8153 -0.2839 -1.5920
19030SOL    HW260368   0.721   4.865  10.074  0.2081  2.5379  0.4296
19031SOL     OW60369   9.418  10.987   9.660 -0.1172  0.4376 -0.3826
19031SOL    HW160370   9.456  11.070   9.690  1.7429 -0.7776  0.8052
19031SOL    HW260371   9.380  10.948   9.739  1.3922 -1.0288 -0.3362
19032SOL     OW60372   6.616   5.856   4.593 -0.0365  0.1286 -0.1231
19032SOL    HW160373   6.706   5.864   4.561  0.9601 -1.6551  1.9871
19032SOL    HW260374   6.621   5.875   4.687 -1.8770  0.0569  0.0343
19033SOL     OW60375   8.969   7.300   8.354  0.0238 -0.3605  0.0825
19033SOL    HW160376   8.983   7.248   8.432 -3.6766 -2.5949 -0.5134
19033SOL    HW260377   8.892   7.353   8.374 -0.1008  0.1263 -1.5491
19034SOL     OW60378   8.447  10.247   8.950  0.1387 -0.3915 -0.0548
19034SOL    HW160379   8.475  10.206   9.032 -1.9913 -1.5425  0.1769
19034SOL    HW260380   8.433  10.339   8.973  1.5680 -0.2548  0.3261
19035SOL     OW60381   3.236   8.652   0.035  0.1262 -0.1598 -0.8127
19035SOL    HW160382   3.274   8.728   0.080 -0.8455  0.0393 -0.3079
19035SOL    HW260383   3.203   8.597   0.106  1.9017 -1.6893 -1.0764
19036SOL     OW60384   1.530   4.507   7.922  0.1755 -0.1955  0.4840
19036SOL    HW160385   1.536   4.540   8.012  0.2656 -0.3037  0.5174
19036SOL    HW260386   1.446   4.540   7.890 -0.5181 -1.3285  1.0833
19037SOL     OW60387   2.465   8.995  10.072  0.1815 -0.3993  0.0064
19037SOL    HW160388   2.471   9.047  10.152  0.5171  0.8502 -0.7913
19037SOL    HW260389   2.393   8.935  10.087 -0.7639  0.8539  0.6929
19038SOL     OW60390   4.546   9.015   4.720  0.6813 -0.0405 -0.0622
19038SOL    HW160391   4.640   9.030   4.723  0.3666  2.1964  1.6485
19038SOL    HW260392   4.508   9.103   4.720 -1.3969 -0.8607  1.1512
19039SOL     OW60393  11.338   5.271   1.828  0.3204 -0.2750  0.0007
19039SOL    HW160394  11.359   5.364   1.815 -0.2451  0.0360  1.2098
19039SOL    HW260395  11.383   5.226   1.756  2.2428  0.7284  0.4977
19040SOL     OW60396   2.133   8.544   8.224 -0.6691  0.1154 -0.1582
19040SOL    HW160397   2.140   8.451   8.203 -0.0904 -0.0962  0.9303
19040SOL    HW260398   2.166   8.552   8.313 -0.7470  1.3635 -0.2170
19041SOL     OW60399   6.615   2.783  10.665  0.2647  0.1978 -0.2997
19041SOL    HW160400   6.560   2.835  10.723  0.9257  0.9289 -0.3159
19041SOL    HW260401   6.684   2.843  10.636  0.5861 -0.4655 -0.9507
19042SOL     OW60402   1.794   8.342   5.021  0.2369  0.3433  0.3044
19042SOL    HW160403   1.834   8.258   5.002 -0.3951  0.0887  0.0730
19042SOL    HW260404   1.866   8.397   5.052  1.2189  0.6007 -2.2607
19043SOL     OW60405   4.338   4.058  11.316  0.5165  0.1296 -0.2854
19043SOL    HW160406   4.364   4.148  11.296 -0.6372  0.7974  1.0504
19043SOL    HW260407   4.242   4.062  11.320  0.4949 -1.0145  0.4773
19044SOL     OW60408   0.516   5.605   3.943  0.0123 -0.4040 -0.4454
19044SOL    HW160409   0.438   5.550   3.948 -0.0854 -0.1548  1.8674
19044SOL    HW260410   0.586   5.551   3.980  0.0636  0.7123  1.1894
19045SOL     OW60411   3.764   6.034  11.192  0.2708 -0.5383 -0.2457
19045SOL    HW160412   3.794   5.947  11.166  1.7607  0.2732 -1.4050
19045SOL    HW260413   3.823   6.095  11.146 -1.4178  1.1059 -0.3870
19046SOL     OW60414   3.902   8.272   9.488  0.3047 -0.2502  0.8919
19046SOL    HW160415   3.936   8.233   9.568  0.4138 -1.1927  0.3940
19046SOL    HW260416   3.809   8.248   9.487  1.1303 -4.0253 -1.3821
19047SOL     OW60417   6.956   6.204   9.654 -0.0636  0.0763  0.4068
19047SOL    HW160418   6.929   6.118   9.621 -0.8739  0.3916  0.2081
19047SOL    HW260419   6.913   6.266   9.595  0.3131  0.6216  0.6975
19048SOL     OW60420   1.416   5.575   6.312  0.1620 -0.1338  0.3944
19048SOL    HW160421   1.345   5.534   6.362 -0.3255  0.4913  0.2321
19048SOL    HW260422   1.467   5.623   6.377  0.2268 -0.2855  0.4572
19049SOL     OW60423   5.136   2.088   9.473 -0.2571 -0.5633 -0.4866
19049SOL    HW160424   5.160   2.173   9.436 -0.9817  0.1092  0.5487
19049SOL    HW260425   5.209   2.030   9.449  0.6025  0.5182 -0.5776
19050SOL     OW60426   0.688   4.611   0.814 -0.5710  0.0940 -0.3109
19050SOL    HW160427   0.633   4.554   0.760  0.2638 -0.4740 -0.5839
19050SOL    HW260428   0.715   4.681   0.755 -2.7099  1.6098  0.3655
19051SOL     OW60429   1.307   5.078   2.136 -0.4301 -0.0319 -0.2894
19051SOL    HW160430   1.251   5.001   2.148  0.3273 -0.6407 -0.6000
19051SOL    HW260431   1.396   5.044   2.141 -0.0806  0.6783 -1.3854
19052SOL     OW60432   1.679   9.969   4.270  0.1951 -0.3353 -0.2523
19052SOL    HW160433   1.742   9.901   4.248 -0.3498 -0.9376  0.0056
19052SOL    HW260434   1.723  10.051   4.248  1.0068 -0.7497 -0.2008
19053SOL     OW60435   7.336   8.748   0.694 -0.1895 -0.0960 -1.0556
19053SOL    HW160436   7.317   8.751   0.788  1.1269 -0.8622 -0.7344
19053SOL    HW260437   7.326   8.838   0.664  1.9275  0.6869  0.3857
19054SOL     OW60438   0.677  11.151   7.277 -0.2034 -0.2431 -0.7203
19054SOL    HW160439   0.693  11.238   7.314 -1.4863  0.2351 -1.2291
19054SOL    HW260440   0.585  11.134   7.296  0.1113 -1.6544 -0.3307
19055SOL     OW60441   1.430   5.256   8.655  0.7308 -0.1970  0.1502
19055SOL    HW160442   1.411   5.166   8.632 -0.1061  0.6059 -2.7660
19055SOL    HW260443   1.383   5.272   8.737 -3.4744 -1.0278 -1.8617
19056SOL     OW60444   0.671   2.316   8.262 -0.0344  0.0386 -0.0779
19056SOL    HW160445   0.629   2.328   8.347 -1.4324 -0.1162 -0.7186
19056SOL    HW260446   0.694   2.223   8.260 -0.3629 -0.0453 -0.0253
19057SOL     OW60447   4.420   0.703   1.841  0.0117 -0.5120 -0.2691
19057SOL    HW160448   4.334   0.664   1.824  0.2660 -0.6388 -1.3394
19057SOL    HW260449   4.415   0.732   1.932 -1.7707  1.0118 -0.7800
19058SOL     OW60450   4.441   6.667   1.098 -0.1035  0.0394  0.0856
19058SOL    HW160451   4.517   6.637   1.049  0.7923 -0.3909  1.6721
19058SOL    HW260452   4.477   6.698   1.181 -1.4486  1.6955  0.1050
19059SOL     OW60453   0.535   9.101   3.359 -0.3033  0.0683  0.6531
19059SOL    HW160454   0.593   9.121   3.285  0.3689 -1.0834  0.8432
19059SOL    HW260455   0.463   9.052   3.321  0.6969 -1.6660  0.9126
19060SOL     OW60456   3.035   0.596   7.389  0.3532  0.2160 -0.3630
19060SOL    HW160457   3.079   0.515   7.364  0.2629  0.0279  0.0706
19060SOL    HW260458   3.100   0.644   7.441 -0.3579 -0.6748  1.4501
19061SOL     OW60459   0.485   5.972   1.420  0.5061  0.5180 -0.3720
19061SOL    HW160460   0.518   5.986   1.509 -1.4665  0.8329  0.3431
19061SOL    HW260461   0.404   5.923   1.431  2.6801 -4.0811 -2.3485
19062SOL     OW60462   8.093   4.386   0.581  0.0625  0.3848 -0.2565
19062SOL    HW160463   8.122   4.329   0.652 -0.9318 -0.5462 -0.5639
19062SOL    HW260464   8.016   4.342   0.545  0.4831  0.8805 -1.8462
19063SOL     OW60465   3.830   6.382   0.254  0.1632  0.1074  0.2558
19063SOL    HW160466   3.876   6.420   0.179  0.1420 -1.6362 -0.6908
19063SOL    HW260467   3.751   6.344   0.217 -0.4919  0.3486  1.3809
19064SOL     OW60468   5.992   0.858   0.856  0.6205 -0.2060 -0.4815
19064SOL    HW160469   5.991   0.936   0.801  0.6782  0.3964  0.3471
19064SOL    HW260470   5.912   0.812   0.832 -0.1210  0.7990 -0.0444
19065SOL     OW60471   3.159   7.058   4.345  0.0917 -0.4874  0.1996
19065SOL    HW160472   3.084   7.097   4.300  0.1541  0.3434  0.8042
19065SOL    HW260473   3.217   7.030   4.274 -0.2351 -0.0369 -0.2467
19066SOL     OW60474   0.094   4.440   9.529 -0.3423 -0.4355  0.3205
19066SOL    HW160475   0.006   4.414   9.501 -0.3264  0.2604 -0.4401
19066SOL    HW260476   0.153   4.381   9.481 -0.4147 -2.1434  2.2330
19067SOL     OW60477   4.591   5.268  10.345  0.2841 -0.0069 -0.2248
19067SOL    HW160478   4.570   5.254  10.437 -0.2805  0.6561 -0.2406
19067SOL    HW260479   4.507   5.290  10.305  0.6306  0.3544 -0.7674
19068SOL     OW60480   2.703  10.032   9.908  0.5120  0.1971 -0.0814
19068SOL    HW160481   2.614  10.052   9.938  0.6645 -0.0627  0.5595
19068SOL    HW260482   2.725   9.950   9.952  0.8474 -0.0576 -0.7062
19069SOL     OW60483   6.364  11.082   6.633 -0.0753 -0.3220  0.1570
19069SOL    HW160484   6.434  11.084   6.698  0.2761 -0.2017 -0.2230
19069SOL    HW260485   6.291  11.038   6.677  0.3509 -0.7473  0.4357
19070SOL     OW60486   8.389   2.402   7.017 -0.1280  0.3246 -0.1234
19070SOL    HW160487   8.399   2.307   7.016  1.7984  0.4480 -2.4233
19070SOL    HW260488   8.295   2.416   7.011 -0.3920 -1.4825 -0.8371
19071SOL     OW60489   1.546   4.208  11.023 -1.4583 -0.3414 -0.1116
19071SOL    HW160490   1.505   4.291  11.001  0.4911  0.5773 -0.4466
19071SOL    HW260491   1.626   4.232  11.069 -1.3369 -2.0732  0.6634
19072SOL     OW60492   4.015   1.768   6.044  0.3325 -0.3083  0.1894
19072SOL    HW160493   4.097   1.807   6.075 -0.3555 -0.6168  2.5896
19072SOL    HW260494   3.947   1.829   6.074 -0.4034 -0.7465 -0.5558
19073SOL     OW60495   8.817   4.369   7.223  0.3529  0.8227 -0.5202
19073SOL    HW160496   8.752   4.319   7.175  0.5010  0.9966 -0.9055
19073SOL    HW260497   8.872   4.302   7.265 -0.7475  0.6693  0.7600
19074SOL     OW60498   8.372   9.507   9.460  0.3488  0.1089 -0.3430
19074SOL    HW160499   8.448   9.556   9.427  0.5214  0.9214  1.1405
19074SOL    HW260500   8.296   9.556   9.429  0.5083  0.9597  0.5771
19075SOL     OW60501   0.112  10.434   0.431 -0.1070  0.0810  0.0801
19075SOL    HW160502   0.040  10.493   0.453 -0.4730 -0.6098  0.8019
19075SOL    HW260503   0.100  10.416   0.338 -1.1006 -0.2945  0.2611
19076SOL     OW60504   8.487   6.997  10.785 -0.1321  0.3702  0.3047
19076SOL    HW160505   8.468   7.085  10.753  0.7450  0.5860  0.3365
19076SOL    HW260506   8.580   7.001  10.811  0.1661 -0.8019 -0.5061
19077SOL     OW60507   3.193   3.737   7.922 -0.1573  0.4561 -0.3314
19077SOL    HW160508   3.194   3.651   7.880 -0.5694  0.4648 -0.3698
19077SOL    HW260509   3.203   3.719   8.015 -2.2933  0.1875 -0.0957
19078SOL     OW60510   9.202   9.006  11.127 -0.0010  0.0634  0.6765
19078SOL    HW160511   9.168   9.056  11.052 -0.5722 -1.4312 -0.1117
19078SOL    HW260512   9.297   9.004  11.113 -0.1634 -0.8410 -0.4681
19079SOL     OW60513   3.768   3.661   8.474 -0.0049 -0.0469  0.1689
19079SOL    HW160514   3.797   3.614   8.553 -1.5452 -0.4882  0.4979
19079SOL    HW260515   3.817   3.618   8.403  0.5675 -0.3907  0.7502
19080SOL     OW60516   6.761   0.020  10.100 -0.1828  0.0577 -0.2030
19080SOL    HW160517   6.839   0.011  10.045 -0.1564 -2.0980  0.0773
19080SOL    HW260518   6.748  -0.068  10.137 -2.8616  0.2781 -0.4262
19081SOL     OW60519   2.795   1.266   4.519  0.2574  0.6421 -0.8957
19081SOL    HW160520   2.763   1.238   4.433  1.3862 -0.5487 -0.9549
19081SOL    HW260521   2.763   1.200   4.579 -1.1982  1.8857 -0.2304
19082SOL     OW60522   0.681   2.128   2.230  0.1082  0.0159  0.5680
19082SOL    HW160523   0.670   2.124   2.135 -0.1355  0.6998  0.5585
19082SOL    HW260524   0.769   2.094   2.246  1.1603  2.2096 -0.1489
19083SOL     OW60525   2.148   5.693   6.615 -0.5884  0.9436 -0.3033
19083SOL    HW160526   2.053   5.684   6.602 -0.4504 -0.6987 -0.3617
19083SOL    HW260527   2.187   5.641   6.545  0.3263  0.5950  0.4461
19084SOL     OW60528   2.641  10.526   6.980  0.4154  0.2967  0.3750
19084SOL    HW160529   2.611  10.472   6.907  1.4705 -0.5687  0.5508
19084SOL    HW260530   2.679  10.464   7.042 -2.3829  0.7137  2.7399
19085SOL     OW60531   1.877   0.263   9.787  0.2919  0.8522  0.1364
19085SOL    HW160532   1.953   0.288   9.839  0.3481 -0.5143  0.7571
19085SOL    HW260533   1.903   0.182   9.742 -0.8690  0.1893  0.6018
19086SOL     OW60534   3.948   5.755   4.295  0.2311  0.3737  0.3786
19086SOL    HW160535   3.914   5.668   4.275  1.5848  0.0866 -0.7872
19086SOL    HW260536   3.976   5.749   4.386 -0.2962 -0.1881  0.5134
19087SOL     OW60537   8.833   8.379   7.309  0.0632  0.2499  0.1751
19087SOL    HW160538   8.794   8.388   7.221 -0.0280  0.9663  0.2761
19087SOL    HW260539   8.795   8.452   7.358  0.8710  0.4326  0.5300
19088SOL     OW60540   1.862  10.880   9.333  0.6418  0.3520  0.0180
19088SOL    HW160541   1.857  10.975   9.325 -1.0028  0.2549 -0.4812
19088SOL    HW260542   1.778  10.849   9.300  0.8246 -1.2390  0.9564
19089SOL     OW60543   5.443   5.420   6.610 -0.1114 -0.2790  0.0268
19089SOL    HW160544   5.426   5.397   6.701  1.7312  0.0529  0.4957
19089SOL    HW260545   5.481   5.508   6.614 -0.3100 -0.1279 -1.0864
19090SOL     OW60546  11.072   3.165   0.385 -0.1643  0.2907 -0.0612
19090SOL    HW160547  11.060   3.131   0.296 -0.0673 -0.4886  0.2182
19090SOL    HW260548  11.036   3.097   0.442 -2.7049  1.8937  0.4334
19091SOL     OW60549   5.818   6.462   1.141  0.1691 -0.1240  0.0631
19091SOL    HW160550   5.776   6.503   1.065 -0.9215  0.6392  1.0466
19091SOL    HW260551   5.894   6.417   1.105  0.2391  1.0584 -1.3460
19092SOL     OW60552   0.789  10.215   4.576 -0.8142 -0.3022 -0.3124
19092SOL    HW160553   0.855  10.266   4.622 -0.9517  0.5009 -0.9693
19092SOL    HW260554   0.805  10.124   4.602 -0.0512 -0.0136  0.2510
19093SOL     OW60555   4.721   2.023   6.064  0.5094 -0.0085 -0.0810
19093SOL    HW160556   4.646   2.083   6.059  0.4584 -0.0944 -0.3788
19093SOL    HW260557   4.787   2.071   6.116  1.1165  1.0219 -1.7225
19094SOL     OW60558   0.159   9.928   8.200 -0.6526  0.1402  0.4826
19094SOL    HW160559   0.220   9.946   8.129 -1.5594 -0.1282 -0.3854
19094SOL    HW260560   0.213   9.888   8.269  0.2435  0.4676 -0.0197
19095SOL     OW60561  11.104   3.679   5.072  0.2897  0.4002  0.5107
19095SOL    HW160562  11.180   3.659   5.128  0.3566 -1.5307 -0.1966
19095SOL    HW260563  11.137   3.744   5.011  1.7786 -1.1837 -0.4800
19096SOL     OW60564   1.739   2.010   1.310 -0.7866 -0.4368  0.2014
19096SOL    HW160565   1.662   2.026   1.254 -1.2898  0.3407  1.0843
19096SOL    HW260566   1.808   1.986   1.249 -0.7916  2.2619 -1.0066
19097SOL     OW60567   4.864   8.334   5.002  0.2265 -0.4943 -0.7210
19097SOL    HW160568   4.877   8.256   5.055 -0.7739  0.0159  0.3242
19097SOL    HW260569   4.773   8.359   5.017 -0.3802 -0.7628 -3.3173
19098SOL     OW60570   6.234   3.126   1.087  0.0287 -0.2268  0.0282
19098SOL    HW160571   6.325   3.142   1.065  0.0828 -0.1532  0.3002
19098SOL    HW260572   6.187   3.129   1.003  0.1751  0.4155 -0.0313
19099SOL     OW60573   5.863   8.929   4.645  0.3663  0.1682 -0.8527
19099SOL    HW160574   5.946   8.930   4.597 -0.9044 -2.6196 -3.4779
19099SOL    HW260575   5.827   8.842   4.627 -2.0245  0.3480  2.2472
19100SOL     OW60576   5.622   9.542   8.042 -0.1408 -1.0144 -0.7912
19100SOL    HW160577   5.623   9.481   8.116  1.9495  0.3092  0.3582
19100SOL    HW260578   5.539   9.525   7.998 -0.9492 -2.6181  1.2139
19101SOL     OW60579  10.911   0.322   2.492  0.2241 -0.5963 -0.2188
19101SOL    HW160580  10.840   0.336   2.554  0.2850 -1.3069  0.0254
19101SOL    HW260581  10.878   0.255   2.432  0.2983 -0.1719 -0.7474
19102SOL     OW60582   3.890   3.162   2.989  0.1128 -0.1766 -0.5421
19102SOL    HW160583   3.873   3.077   3.029  0.8961 -0.7508 -1.3719
19102SOL    HW260584   3.808   3.209   2.997 -0.2764 -0.9386  0.1142
19103SOL     OW60585   7.758   5.064  10.072 -0.5536  0.1930 -0.5655
19103SOL    HW160586   7.755   4.977  10.031  0.4159 -0.7261  1.1817
19103SOL    HW260587   7.790   5.047  10.161  0.9015  2.4743 -0.5716
19104SOL     OW60588   5.134   4.031   1.261 -0.2306  0.2569 -0.5689
19104SOL    HW160589   5.091   3.958   1.216 -0.1839 -1.0927  1.4162
19104SOL    HW260590   5.228   4.010   1.256 -0.2285  0.0349  0.1667
19105SOL     OW60591   9.318   1.820  10.772  0.1844 -0.1835 -0.2310
19105SOL    HW160592   9.317   1.910  10.804 -0.5750 -0.3685  0.2762
19105SOL    HW260593   9.403   1.786  10.800 -0.0767 -0.0390  0.7361
19106SOL     OW60594   1.095   8.659   0.215 -0.5174  0.0723  0.4234
19106SOL    HW160595   1.007   8.674   0.181 -0.6965  0.3790  0.9972
19106SOL    HW260596   1.141   8.613   0.146 -0.9133  0.5600 -0.1730
19107SOL     OW60597   5.375   2.246   6.058 -0.2982  0.0003 -0.0810
19107SOL    HW160598   5.388   2.298   6.138  0.8246  1.9820 -1.4742
19107SOL    HW260599   5.461   2.208   6.040 -0.1758  0.7547 -1.1259
19108SOL     OW60600   4.126   3.610   8.357  0.4468  0.1981  0.3741
19108SOL    HW160601   4.114   3.667   8.281  1.4966  1.7920  1.3332
19108SOL    HW260602   4.115   3.668   8.432 -0.5879 -1.3471  1.4635
19109SOL     OW60603   9.409   3.748   7.789  0.2517 -0.3426  0.0131
19109SOL    HW160604   9.433   3.805   7.862 -0.2654  1.8656 -1.4268
19109SOL    HW260605   9.479   3.761   7.725  0.2982 -1.6388 -0.2203
19110SOL     OW60606   0.999   0.075   1.152  0.0255 -0.0591  0.0528
19110SOL    HW160607   1.030  -0.006   1.110  1.4357 -1.0795  2.8254
19110SOL    HW260608   0.937   0.112   1.089  0.5897 -2.4170 -2.0519
19111SOL     OW60609   5.917   0.312   0.321 -0.2665  0.0789 -0.2517
19111SOL    HW160610   5.987   0.279   0.377 -0.1808  0.4341 -0.1463
19111SOL    HW260611   5.923   0.259   0.241 -0.4297 -0.4682  0.0985
19112SOL     OW60612   1.000   3.672   2.616 -0.5212  0.0159 -0.1559
19112SOL    HW160613   1.036   3.590   2.583  0.6755  0.9843 -1.3490
19112SOL    HW260614   0.994   3.658   2.711 -1.0853 -1.7046 -0.4046
19113SOL     OW60615   9.896   1.505   7.614  0.2992  0.1669 -0.0551
19113SOL    HW160616   9.809   1.506   7.574 -0.5060  0.9380  1.6235
19113SOL    HW260617   9.927   1.415   7.602 -1.7073 -0.7733  1.2647
19114SOL     OW60618   8.115   1.763  10.313 -0.3776 -0.5544  0.2200
19114SOL    HW160619   8.155   1.763  10.226 -2.3772  0.8094 -0.7726
19114SOL    HW260620   8.058   1.686  10.314 -2.6139  0.9718 -0.8892
19115SOL     OW60621   1.386   4.915   3.075  1.1026  0.1656 -0.3363
19115SOL    HW160622   1.386   4.834   3.023 -0.1407 -0.1698  0.1481
19115SOL    HW260623   1.355   4.888   3.162  0.7993  1.1343 -0.1282
19116SOL     OW60624   9.828   4.813   1.503 -0.3755  0.6468 -0.2401
19116SOL    HW160625   9.803   4.751   1.434 -1.3537 -0.9494  1.4833
19116SOL    HW260626   9.892   4.766   1.556 -0.2070  1.5641  0.3886
19117SOL     OW60627   4.564   9.530   0.651  0.1660 -0.4440 -0.0281
19117SOL    HW160628   4.549   9.623   0.667  0.8980 -0.3980  0.4760
19117SOL    HW260629   4.512   9.510   0.573  0.2823  0.4714 -0.3558
19118SOL     OW60630   4.512   9.784   0.772  0.0492  0.1946  0.6134
19118SOL    HW160631   4.529   9.771   0.866  1.3676  0.7608  0.4778
19118SOL    HW260632   4.564   9.861   0.749  1.0541 -0.8911 -0.9324
19119SOL     OW60633   3.135   5.444   8.820 -0.6462  0.2876 -0.1845
19119SOL    HW160634   3.053   5.418   8.862 -1.6590 -1.5411 -2.9404
19119SOL    HW260635   3.108   5.503   8.749  0.7365  1.7085  0.4195
19120SOL     OW60636   5.072   2.346   0.110  0.4145 -0.5682 -0.2008
19120SOL    HW160637   5.087   2.281   0.042  0.3704 -1.1874  0.3716
19120SOL    HW260638   5.018   2.301   0.175 -0.6797  0.4346 -0.3874
19121SOL     OW60639   2.356  10.473   3.166 -0.3696 -0.4360  0.0624
19121SOL    HW160640   2.328  10.513   3.249  1.9030 -0.3585  0.8712
19121SOL    HW260641   2.292  10.503   3.102 -0.6336  1.8016  1.2704
19122SOL     OW60642  10.855   1.721   9.676  0.4431  0.5844  0.0806
19122SOL    HW160643  10.800   1.750   9.749  1.0922  0.7627  0.5139
19122SOL    HW260644  10.796   1.673   9.619  0.1071 -0.4257  1.2266
19123SOL     OW60645   2.425   0.434   7.865  0.5373  0.3443 -0.0953
19123SOL    HW160646   2.420   0.510   7.922 -0.3893 -0.5017  1.0055
19123SOL    HW260647   2.509   0.443   7.820  0.3637  2.0900 -0.1460
19124SOL     OW60648   5.153   6.133   7.276 -0.2408  0.0338  0.1127
19124SOL    HW160649   5.097   6.208   7.256 -0.7391 -0.1537  0.7806
19124SOL    HW260650   5.135   6.113   7.368  0.8894 -0.0664  0.3257
19125SOL     OW60651   3.089   2.387   7.227 -0.3004 -0.2923 -0.4143
19125SOL    HW160652   3.018   2.339   7.271  1.0518 -0.5642  1.6346
19125SOL    HW260653   3.152   2.404   7.297  0.4905  2.2055 -1.6327
19126SOL     OW60654   8.754   7.557  10.258  0.2145 -0.1436 -0.0061
19126SOL    HW160655   8.739   7.495  10.329  1.1762 -2.1290 -1.4451
19126SOL    HW260656   8.666   7.588  10.234 -0.1758 -0.0189  1.5043
19127SOL     OW60657   4.403   4.325   5.283  0.8077  0.1834 -0.0455
19127SOL    HW160658   4.433   4.262   5.217  2.5164 -0.6462  1.4347
19127SOL    HW260659   4.444   4.408   5.258 -0.4486  0.4593 -1.3029
19128SOL     OW60660   4.575  10.235   5.117  0.6651  0.1181  0.0022
19128SOL    HW160661   4.504  10.298   5.107  1.8509  1.6351  0.8270
19128SOL    HW260662   4.626  10.242   5.036  0.4702 -0.2390 -0.1577
19129SOL     OW60663   0.416   1.499   4.738 -0.6677  0.0025  0.4354
19129SOL    HW160664   0.438   1.432   4.673 -1.4797  0.6637 -0.5459
19129SOL    HW260665   0.374   1.451   4.809 -0.7341 -0.6039 -0.0053
19130SOL     OW60666  10.853   5.308   1.324 -0.4285  0.4661  0.1662
19130SOL    HW160667  10.762   5.324   1.348 -0.2682  0.2497  0.9517
19130SOL    HW260668  10.859   5.213   1.313 -0.4477  0.5401 -0.5482
19131SOL     OW60669   3.575   1.458   3.641 -0.4509  0.0492 -0.3133
19131SOL    HW160670   3.605   1.502   3.561  0.9949  0.2268  0.2949
19131SOL    HW260671   3.650   1.405   3.668 -0.7022  0.4584  1.2438
19132SOL     OW60672   4.450  10.303   3.638 -0.3322 -0.6793  0.5142
19132SOL    HW160673   4.464  10.378   3.697  1.3719 -0.3624 -0.2323
19132SOL    HW260674   4.442  10.342   3.551 -1.8242 -1.2258  0.3780
19133SOL     OW60675   8.810   1.713  10.652 -0.0763 -0.2575 -0.0646
19133SOL    HW160676   8.868   1.697  10.578  0.4480  1.7512 -0.1524
19133SOL    HW260677   8.843   1.656  10.721  1.4156  0.1390 -0.4152
19134SOL     OW60678   6.313  10.275   1.143  0.1049  0.5222 -0.1374
19134SOL    HW160679   6.379  10.304   1.080 -0.5322  3.7196  0.4790
19134SOL    HW260680   6.232  10.270   1.092  0.0302  0.8155 -0.0501
19135SOL     OW60681   1.035   9.031   5.377 -0.6276  0.6911 -0.1919
19135SOL    HW160682   1.024   9.111   5.326  2.0510  1.1647 -0.1803
19135SOL    HW260683   1.021   8.960   5.314 -2.2619  1.1503 -0.3779
19136SOL     OW60684   2.439   6.293   9.235  0.0169 -0.5190  0.4395
19136SOL    HW160685   2.450   6.360   9.302 -2.0129  2.6380 -2.1229
19136SOL    HW260686   2.482   6.329   9.157 -1.8511 -1.7728 -1.2616
19137SOL     OW60687   2.566   8.875   4.077 -0.4645 -0.0572  0.0361
19137SOL    HW160688   2.531   8.787   4.063  0.6479 -0.6509  0.8117
19137SOL    HW260689   2.496   8.933   4.048 -0.7568 -1.1814 -1.6583
19138SOL     OW60690   4.549   2.984   3.407  0.1876  0.3190 -0.3692
19138SOL    HW160691   4.459   2.963   3.382 -0.3839  2.2767 -0.1406
19138SOL    HW260692   4.604   2.931   3.350 -1.1150  0.0167 -1.3653
19139SOL     OW60693   3.569   3.834   0.731  0.1519  0.1276 -0.0435
19139SOL    HW160694   3.576   3.926   0.759 -0.3631  0.0470  0.3614
19139SOL    HW260695   3.475   3.819   0.723  0.2085 -0.5604  0.5499
19140SOL     OW60696   8.078   2.399   0.848 -0.0318  0.5476 -0.2321
19140SOL    HW160697   8.111   2.469   0.904  0.0193  1.4132 -1.3061
19140SOL    HW260698   8.036   2.445   0.775  0.2513 -0.5423 -1.1013
19141SOL     OW60699   1.462   7.598   5.863  0.3026 -0.4431  0.5768
19141SOL    HW160700   1.489   7.636   5.947 -0.9504  0.1454  0.7337
19141SOL    HW260701   1.396   7.533   5.887  0.5782 -0.8987  0.1057
19142SOL     OW60702   5.521   2.594  10.948  0.6427 -0.3049  0.3367
19142SOL    HW160703   5.593   2.575  10.888 -0.1362 -1.0342 -0.3982
19142SOL    HW260704   5.564   2.620  11.029  1.7235  0.3615 -0.4265
19143SOL     OW60705   2.128   5.778   4.428 -0.5986  0.4838 -0.1671
19143SOL    HW160706   2.127   5.774   4.524 -1.2126 -0.2483 -0.1960
19143SOL    HW260707   2.213   5.818   4.407 -0.3856  0.4960  0.6747
19144SOL     OW60708   7.959   9.033   3.262 -0.0645 -0.4011 -0.0852
19144SOL    HW160709   7.962   8.985   3.344 -1.1925 -1.6047 -0.7174
19144SOL    HW260710   7.872   9.072   3.260 -0.9290 -2.2505 -1.6810
19145SOL     OW60711   2.767   8.418   9.196  0.2216  0.2578  0.4600
19145SOL    HW160712   2.702   8.487   9.213  0.1769  0.2412  0.3614
19145SOL    HW260713   2.849   8.453   9.230  0.4865  0.9399 -0.8100
19146SOL     OW60714   7.336   3.456   0.428 -0.5031 -0.2636 -0.6325
19146SOL    HW160715   7.323   3.445   0.334  1.0249  1.2187 -1.0620
19146SOL    HW260716   7.258   3.505   0.457 -1.3044 -1.2990 -0.9660
19147SOL     OW60717  11.239   4.923   7.576  0.1114 -0.6328  0.2185
19147SOL    HW160718  11.224   4.846   7.521  2.3617 -0.1645 -1.1970
19147SOL    HW260719  11.235   4.890   7.665 -1.9207 -1.7720 -0.2288
19148SOL     OW60720   5.045   2.251   5.698 -0.1639 -0.0070 -0.3428
19148SOL    HW160721   4.957   2.215   5.689  0.2264 -1.4792  1.1598
19148SOL    HW260722   5.091   2.225   5.619 -1.4694  2.1890 -1.9302
19149SOL     OW60723  10.279   5.126   3.637 -0.7505 -0.0699  0.0053
19149SOL    HW160724  10.257   5.128   3.730 -0.9219  0.0776 -0.0375
19149SOL    HW260725  10.308   5.215   3.618 -1.8914  0.2416 -0.3617
19150SOL     OW60726   4.888   9.371   6.903  0.1375 -0.3663 -0.2027
19150SOL    HW160727   4.975   9.409   6.888  1.3535 -1.9437  2.1539
19150SOL    HW260728   4.893   9.283   6.867 -0.8755 -0.1475 -0.9396
19151SOL     OW60729   2.303   8.071   0.523  0.1037  0.3399  0.0011
19151SOL    HW160730   2.388   8.082   0.480 -0.8455  1.7087 -1.6265
19151SOL    HW260731   2.317   8.105   0.612  1.4304 -0.1268 -0.0081
19152SOL     OW60732   3.510   3.684   3.149 -0.1746  0.3305  0.0088
19152SOL    HW160733   3.546   3.772   3.146 -0.5054  0.5114  0.9182
19152SOL    HW260734   3.514   3.659   3.241  1.4166 -1.2515 -0.4369
19153SOL     OW60735   1.398   0.426  10.840  0.3070 -0.1662  0.1015
19153SOL    HW160736   1.492   0.440  10.838  0.3283  0.1777  2.0765
19153SOL    HW260737   1.363   0.504  10.883 -0.8418 -0.4941 -0.1921
19154SOL     OW60738   9.737   0.428   4.813  0.0603  0.1004  0.0685
19154SOL    HW160739   9.732   0.452   4.906  1.1885  1.3128 -0.1366
19154SOL    HW260740   9.676   0.488   4.770  1.3401  1.2535 -0.2144
19155SOL     OW60741   6.564   1.402   3.378  0.0897  0.1368 -0.0609
19155SOL    HW160742   6.510   1.471   3.417 -0.1917  1.1142 -2.0411
19155SOL    HW260743   6.501   1.343   3.337  0.4302  0.5106 -1.1621
19156SOL     OW60744   7.195   6.724  10.235  0.1447 -0.1426 -0.1892
19156SOL    HW160745   7.245   6.656  10.280 -1.4241  1.2039  4.0784
19156SOL    HW260746   7.112   6.683  10.212 -0.7018  0.0531  2.1585
19157SOL     OW60747   7.159   6.930   6.455  0.1050  0.8359 -0.2573
19157SOL    HW160748   7.217   6.945   6.380  0.5095  0.9330  0.0710
19157SOL    HW260749   7.117   6.846   6.436 -0.6456  1.3940 -1.1312
19158SOL     OW60750   4.549   0.517  10.680  0.6588  0.0632 -0.3041
19158SOL    HW160751   4.567   0.463  10.757  2.8015  1.3993  0.2221
19158SOL    HW260752   4.544   0.455  10.607 -1.1087 -1.2005  0.7957
19159SOL     OW60753   9.846   6.109   9.211  0.7242 -0.0741 -0.2875
19159SOL    HW160754   9.894   6.164   9.274  1.8538 -0.2375 -0.9786
19159SOL    HW260755   9.888   6.126   9.127  0.8658 -1.7166 -0.5849
19160SOL     OW60756   2.923   5.101   5.547 -0.1426 -0.1862  0.5901
19160SOL    HW160757   2.973   5.019   5.536 -0.3451 -0.2669  0.2610
19160SOL    HW260758   2.878   5.090   5.630  2.5903  1.0491  2.3840
19161SOL     OW60759   1.635   7.926   6.553  0.2804 -0.2112 -0.0124
19161SOL    HW160760   1.544   7.907   6.532  1.3208 -3.9304 -2.2351
19161SOL    HW260761   1.638   7.927   6.648 -1.8997 -1.1424  0.1246
19162SOL     OW60762   7.008   6.168   5.764  0.4759 -0.2544 -0.2625
19162SOL    HW160763   7.100   6.168   5.791  0.4407  0.6867 -0.1164
19162SOL    HW260764   6.967   6.101   5.820  1.0250 -0.5052 -0.1582
19163SOL     OW60765   1.754   4.157   5.014  0.0666 -0.0213 -0.3313
19163SOL    HW160766   1.797   4.127   4.934  0.4774  1.1001 -0.5517
19163SOL    HW260767   1.747   4.252   5.003  0.3598  0.1752  1.0752
19164SOL     OW60768   9.236  10.364   9.860 -0.6271 -0.6676 -0.3260
19164SOL    HW160769   9.244  10.449   9.903  1.3710 -1.8453  1.9727
19164SOL    HW260770   9.174  10.377   9.789  0.5725  2.9897 -0.8844
19165SOL     OW60771   9.351   5.328   1.471 -0.4242  0.1832  0.2739
19165SOL    HW160772   9.417   5.261   1.488 -0.6255  0.1093  0.7886
19165SOL    HW260773   9.395   5.411   1.489 -1.0109  0.0634  2.6106
19166SOL     OW60774   2.264   8.042   9.003  0.4637  0.2921 -1.0587
19166SOL    HW160775   2.185   8.095   9.015  0.2691 -0.2418  0.1266
19166SOL    HW260776   2.246   7.961   9.050  0.9079 -0.7049 -2.5384
19167SOL     OW60777   9.579  10.554   0.006 -0.3373  0.0944 -0.2263
19167SOL    HW160778   9.658  10.588   0.047 -1.9988  2.8582  0.9769
19167SOL    HW260779   9.609  10.518  -0.077  2.1990  0.8895  0.2542
19168SOL     OW60780   3.405   9.784   4.634 -0.4126 -0.1850 -0.3392
19168SOL    HW160781   3.374   9.844   4.566 -1.1727  0.8062  0.8186
19168SOL    HW260782   3.470   9.835   4.682 -1.5863  0.0142  1.1094
19169SOL     OW60783   6.335   8.639   9.472 -0.2993  0.0017 -0.4925
19169SOL    HW160784   6.396   8.565   9.476  0.6270  0.6264 -2.1727
19169SOL    HW260785   6.250   8.599   9.451 -0.3282 -0.7875  0.9958
19170SOL     OW60786   5.470   9.211   9.689 -0.7381  0.0288  0.0696
19170SOL    HW160787   5.557   9.171   9.690 -0.0531  1.3985 -0.7794
19170SOL    HW260788   5.458   9.244   9.778  0.1165  0.8066 -0.0844
19171SOL     OW60789   6.132  10.199   4.566  0.2293 -0.2944  0.5629
19171SOL    HW160790   6.186  10.195   4.487 -0.1762 -0.1372  0.2716
19171SOL    HW260791   6.154  10.119   4.614  0.7834 -0.1848  0.4958
19172SOL     OW60792   5.187   0.547   3.295 -0.4605 -0.2556  0.2602
19172SOL    HW160793   5.167   0.600   3.218 -0.2187 -1.2624 -0.5175
19172SOL    HW260794   5.282   0.555   3.306 -0.5015 -0.0734  0.4832
19173SOL     OW60795   0.876   3.406   8.986 -0.1028  0.1018 -0.3679
19173SOL    HW160796   0.797   3.456   8.966 -0.0895  0.2387 -0.0868
19173SOL    HW260797   0.898   3.431   9.076 -0.8973 -1.4746  0.3064
19174SOL     OW60798   1.056   4.907   4.019 -0.0516  0.1745 -0.3182
19174SOL    HW160799   0.997   4.847   4.064 -0.6208  0.6820 -0.3634
19174SOL    HW260800   1.141   4.863   4.017 -0.5072 -0.6992 -0.5265
19175SOL     OW60801   2.011  10.256   1.612 -0.6522 -0.0102  0.4478
19175SOL    HW160802   2.099  10.294   1.606  0.3960 -2.4202 -0.6754
19175SOL    HW260803   1.961  10.319   1.664  1.6404  1.5863  0.8528
19176SOL     OW60804   7.472   9.809   4.476  0.0146 -0.6497  0.3730
19176SOL    HW160805   7.462   9.735   4.536 -0.5128  0.1473  1.2827
19176SOL    HW260806   7.394   9.862   4.489 -0.4890 -0.8459 -1.5870
19177SOL     OW60807   0.867   0.329   4.698  0.4921 -0.0149 -0.1867
19177SOL    HW160808   0.842   0.257   4.757 -0.1209  1.0437  0.8939
19177SOL    HW260809   0.962   0.328   4.699  0.4964 -0.9799 -0.3997
19178SOL     OW60810   8.700   6.592   9.523  0.1189  0.3036  0.4137
19178SOL    HW160811   8.620   6.616   9.477  0.0812 -1.1976 -0.3667
19178SOL    HW260812   8.770   6.638   9.477 -0.0047 -0.5806 -0.7095
19179SOL     OW60813  10.339   9.747   3.820  0.4732 -0.1146  0.4268
19179SOL    HW160814  10.334   9.723   3.727 -1.0584  1.1079  0.1554
19179SOL    HW260815  10.252   9.729   3.855  1.0919 -0.7486  1.6918
19180SOL     OW60816   4.909  10.598   2.288 -0.1797  0.4962  0.4851
19180SOL    HW160817   4.827  10.645   2.275  1.2031  2.4997 -1.8854
19180SOL    HW260818   4.904  10.523   2.228  0.3020  1.5075 -0.8609
19181SOL     OW60819   6.149   6.701   3.213 -0.3635 -0.2406  0.6023
19181SOL    HW160820   6.166   6.640   3.142  0.4197 -0.6356  1.1135
19181SOL    HW260821   6.214   6.770   3.202 -1.6364  0.8683 -0.3423
19182SOL     OW60822   9.151   1.279   7.292 -0.1753 -0.4193  0.3225
19182SOL    HW160823   9.206   1.342   7.339 -0.5317  0.0954  0.0608
19182SOL    HW260824   9.079   1.261   7.353 -0.0867 -0.5628  0.3868
19183SOL     OW60825   5.232  10.782   1.600 -0.3193  0.1959 -0.6572
19183SOL    HW160826   5.241  10.819   1.512  0.7399 -0.5711 -0.8889
19183SOL    HW260827   5.144  10.745   1.601 -0.9340  1.5955 -0.8367
19184SOL     OW60828   6.355   5.075   0.608 -0.0404 -0.4762 -0.4258
19184SOL    HW160829   6.422   5.012   0.633  0.0992 -0.2911 -0.3323
19184SOL    HW260830   6.399   5.135   0.548 -0.1478 -0.4164 -0.4459
19185SOL     OW60831   4.447   1.619   4.601  0.6554 -0.6812  0.1334
19185SOL    HW160832   4.451   1.709   4.635 -0.5662 -0.8544  0.8036
19185SOL    HW260833   4.534   1.584   4.619  0.9078  0.1225  0.5777
19186SOL     OW60834   6.176   9.006   0.017  0.4345  0.4984 -0.3289
19186SOL    HW160835   6.255   8.952   0.011  0.8441  1.2120 -2.1286
19186SOL    HW260836   6.107   8.944   0.039  1.0887 -0.5830 -1.1954
19187SOL     OW60837   1.014   3.180   8.958  0.2647  0.2989  0.2898
19187SOL    HW160838   0.971   3.265   8.963 -1.0219 -0.3552  0.7613
19187SOL    HW260839   0.944   3.118   8.940  1.3345 -0.5528 -1.1595
19188SOL     OW60840  10.110  10.995   7.272  0.6218  0.0492  0.3801
19188SOL    HW160841  10.064  11.063   7.322 -0.0537  1.1000 -1.5795
19188SOL    HW260842  10.064  10.914   7.296 -1.8458  0.9575 -0.9046
19189SOL     OW60843   2.258   1.438   3.712  0.2652 -0.2307 -0.1572
19189SOL    HW160844   2.247   1.490   3.633 -0.8599 -0.9461 -0.4863
19189SOL    HW260845   2.175   1.393   3.723  0.6841 -0.7552  0.9940
19190SOL     OW60846   3.077   6.939  10.417  0.1603 -0.5113 -0.2780
19190SOL    HW160847   3.133   7.013  10.440 -1.8088  1.0621 -0.2739
19190SOL    HW260848   3.036   6.964  10.335  0.4755 -2.2416 -1.0173
19191SOL     OW60849   0.671   7.526   7.041  0.1888  0.1586  0.1313
19191SOL    HW160850   0.756   7.571   7.036 -0.1799  0.7755 -1.1834
19191SOL    HW260851   0.635   7.533   6.952  0.0530 -2.6831 -0.1133
19192SOL     OW60852   9.781   6.183   1.059 -0.6938  0.4062  0.1856
19192SOL    HW160853   9.824   6.141   0.984  0.5667  0.4758  0.8338
19192SOL    HW260854   9.804   6.275   1.051 -0.8591  0.4732  0.4580
19193SOL     OW60855   0.354  10.389   4.426 -0.3112 -0.3281  0.3100
19193SOL    HW160856   0.284  10.416   4.484 -0.2936  0.9737 -0.2362
19193SOL    HW260857   0.372  10.298   4.450 -2.3069 -0.7694  0.3282
19194SOL     OW60858   6.095   6.224   5.110 -0.3741  0.3573 -0.1432
19194SOL    HW160859   6.014   6.220   5.060 -1.6316 -0.8951  1.8653
19194SOL    HW260860   6.075   6.281   5.184  0.4851 -0.1652  0.5117
19195SOL     OW60861   0.821   1.804  11.026 -0.0129  0.1090 -0.0238
19195SOL    HW160862   0.896   1.782  10.971 -0.0213 -2.0164  0.7408
19195SOL    HW260863   0.747   1.811  10.965  0.2197 -0.9392 -0.4400
19196SOL     OW60864   0.683   5.645   3.695 -0.0696  0.5855  0.0775
19196SOL    HW160865   0.763   5.678   3.654  0.4585  0.1159  0.7086
19196SOL    HW260866   0.696   5.661   3.789 -1.3064  1.7415  0.0824
19197SOL     OW60867   7.598  11.394   6.877  0.2071  0.1507 -0.4870
19197SOL    HW160868   7.551  11.452   6.939  0.3276 -1.2100  0.9318
19197SOL    HW260869   7.536  11.324   6.859  0.4511  0.1517 -1.3787
19198SOL     OW60870  11.382   8.370   1.790  0.7112 -0.0492 -0.0951
19198SOL    HW160871  11.321   8.360   1.717  1.5095  0.4919 -0.8637
19198SOL    HW260872  11.379   8.286   1.836  0.9791 -0.7870 -1.3738
19199SOL     OW60873   5.199  11.179   5.763 -0.5470  0.4733  0.6070
19199SOL    HW160874   5.236  11.092   5.752  1.0121  1.2322 -0.8373
19199SOL    HW260875   5.110  11.165   5.792  0.0595 -1.5555  1.6180
19200SOL     OW60876   4.285   4.775   9.499 -0.1333  0.3402  0.1359
19200SOL    HW160877   4.271   4.696   9.447 -1.5960  1.3950 -1.1537
19200SOL    HW260878   4.367   4.811   9.466  0.0449 -0.1228  0.0613
19201SOL     OW60879  10.013   9.839  10.130  0.3609  0.1444  0.2865
19201SOL    HW160880   9.934   9.812  10.177  0.9981 -1.3948  0.5160
19201SOL    HW260881  10.074   9.866  10.198  1.1605 -1.7595  0.3750
19202SOL     OW60882   9.759   4.413   3.961  0.1415 -0.3525  0.5813
19202SOL    HW160883   9.762   4.329   4.007  1.2700 -0.2853  0.6627
19202SOL    HW260884   9.811   4.399   3.882 -0.2915  0.0579  0.2186
19203SOL     OW60885  10.431   2.141   0.174 -0.1637 -0.0798 -0.1962
19203SOL    HW160886  10.459   2.130   0.265  0.4283 -0.5150 -0.4296
19203SOL    HW260887  10.355   2.083   0.165 -1.0296  0.9247  0.3687
19204SOL     OW60888   3.848   3.449   4.184 -0.0875  0.0593  0.2527
19204SOL    HW160889   3.907   3.460   4.258 -0.6561  1.9327  0.4604
19204SOL    HW260890   3.902   3.407   4.117  0.0179 -3.2107  2.1804
19205SOL     OW60891   2.954   5.886   6.437  0.1150 -0.5203  0.1379
19205SOL    HW160892   2.901   5.935   6.499  0.2523 -1.3365  0.9207
19205SOL    HW260893   2.892   5.858   6.370 -0.2528 -0.6085  0.5142
19206SOL     OW60894  10.739  10.340   2.025  0.3084 -0.2622  0.2332
19206SOL    HW160895  10.648  10.367   2.031  0.3361  0.0754 -0.7829
19206SOL    HW260896  10.758  10.338   1.931  1.7881  1.1775  0.4510
19207SOL     OW60897   8.944   9.274   5.620 -0.1741  0.3489 -0.6911
19207SOL    HW160898   9.018   9.282   5.680 -1.0106  0.6820  0.3142
19207SOL    HW260899   8.974   9.320   5.541  0.5431  0.8442 -0.1514
19208SOL     OW60900   7.410   7.264   2.002 -0.2668 -0.2190  0.0658
19208SOL    HW160901   7.431   7.178   1.964 -1.5981 -1.3523  1.7564
19208SOL    HW260902   7.380   7.316   1.927  1.3099 -0.9298 -1.1341
19209SOL     OW60903   7.351   2.261   5.486 -0.5185  0.3991  0.2638
19209SOL    HW160904   7.340   2.168   5.464 -0.9590  0.6948 -0.8183
19209SOL    HW260905   7.313   2.308   5.412  0.9879  1.4504  0.1085
19210SOL     OW60906   6.863   2.443   7.800  0.1441  0.1239 -0.1333
19210SOL    HW160907   6.848   2.349   7.815 -1.3527  0.4154  0.3442
19210SOL    HW260908   6.932   2.466   7.863  1.8176 -1.0036 -1.4821
19211SOL     OW60909  10.238   2.487   2.116  0.3174  0.0613  0.2861
19211SOL    HW160910  10.188   2.405   2.113  0.4915 -0.1123  1.4189
19211SOL    HW260911  10.227   2.518   2.206  0.7025  1.0030  0.0198
19212SOL     OW60912   6.382   2.679   1.271 -0.2777 -0.0245 -0.2514
19212SOL    HW160913   6.350   2.597   1.310  0.0800  0.1900  0.5190
19212SOL    HW260914   6.458   2.701   1.324  0.6332 -0.0712 -1.5054
19213SOL     OW60915   7.755   9.708   4.447  0.0887 -0.2973  0.9270
19213SOL    HW160916   7.761   9.663   4.531  0.1808  0.6010  1.4067
19213SOL    HW260917   7.661   9.713   4.429  0.0678 -0.4574  0.9904
19214SOL     OW60918   1.110  10.331   6.420 -0.5374  0.0583  0.1859
19214SOL    HW160919   1.066  10.413   6.396  0.9504  0.8702  0.0610
19214SOL    HW260920   1.202  10.356   6.427 -0.1395 -1.4984  0.7487
19215SOL     OW60921   4.220   8.571   3.936 -0.1229  0.1968 -0.3764
19215SOL    HW160922   4.238   8.591   4.028  0.9676 -0.6044 -0.3946
19215SOL    HW260923   4.305   8.576   3.893 -0.6334  0.6344 -1.3760
19216SOL     OW60924   8.201   9.849   7.985 -0.6098  0.3776  0.6741
19216SOL    HW160925   8.202   9.757   8.011 -1.8317  0.5505  1.3945
19216SOL    HW260926   8.240   9.895   8.059 -0.9254  0.5326  0.7441
19217SOL     OW60927   7.713   0.449   5.524  0.6313 -1.2027  0.3778
19217SOL    HW160928   7.669   0.520   5.569  0.5863 -1.1886  0.3119
19217SOL    HW260929   7.795   0.437   5.572  2.3220  1.2254 -1.6111
19218SOL     OW60930   8.476   2.592   3.320 -0.2029  0.1716 -0.2919
19218SOL    HW160931   8.549   2.608   3.380 -0.2966  2.8656 -0.7442
19218SOL    HW260932   8.513   2.538   3.250  0.7394 -0.3728  0.6112
19219SOL     OW60933   9.835   5.007  10.137 -0.3082 -0.0012  0.1026
19219SOL    HW160934   9.903   5.044  10.082 -0.8187 -1.2283 -1.4203
19219SOL    HW260935   9.861   4.915  10.149 -2.3780 -0.9334 -1.7894
19220SOL     OW60936   5.163   5.421   5.106  0.3601 -0.1406 -0.0114
19220SOL    HW160937   5.228   5.491   5.105  1.0126 -0.6859  1.4119
19220SOL    HW260938   5.080   5.466   5.123  0.6656  0.3586  0.1842
19221SOL     OW60939   7.687   9.812   9.284 -0.2201 -0.0379  0.3651
19221SOL    HW160940   7.742   9.810   9.206 -1.6284 -3.5722 -0.7604
19221SOL    HW260941   7.747   9.833   9.355  1.4643  1.5239 -1.3831
19222SOL     OW60942   1.946   2.383   3.467 -0.1143  0.0097  0.0559
19222SOL    HW160943   1.988   2.322   3.527 -2.3740 -1.6395  0.0956
19222SOL    HW260944   1.904   2.447   3.525  0.2004  0.1739  0.1057
19223SOL     OW60945   8.384   7.914   6.981  0.0024  0.0765 -0.1366
19223SOL    HW160946   8.344   7.857   7.047  0.3199  0.2067  0.1743
19223SOL    HW260947   8.363   8.003   7.011  0.5602  0.1472  0.0614
19224SOL     OW60948   0.610   1.386   2.109  0.6230 -0.3692 -1.0324
19224SOL    HW160949   0.610   1.351   2.198 -0.7121  2.0261  0.0075
19224SOL    HW260950   0.685   1.445   2.106  1.0818 -0.9867 -1.7388
19225SOL     OW60951   6.190   0.235   0.663 -0.2185 -0.5364  0.1781
19225SOL    HW160952   6.103   0.220   0.699 -0.8462 -1.2957 -1.5233
19225SOL    HW260953   6.225   0.308   0.714 -1.6888 -0.4720  1.1621
19226SOL     OW60954   1.928   3.312   7.319  0.1138 -0.4578 -0.1657
19226SOL    HW160955   1.951   3.227   7.282 -2.4182 -0.2853 -2.4510
19226SOL    HW260956   1.916   3.369   7.243 -1.9113  0.9223  1.0793
19227SOL     OW60957   1.462   0.044   3.353 -0.3070 -0.0852 -0.1323
19227SOL    HW160958   1.452   0.017   3.444 -0.2048 -0.7185 -0.3074
19227SOL    HW260959   1.555   0.066   3.344 -0.4364  0.5757  0.0720
19228SOL     OW60960   4.569   0.763   8.408  0.6111  0.0072  0.1178
19228SOL    HW160961   4.524   0.761   8.493  0.6083 -0.6411  0.1059
19228SOL    HW260962   4.619   0.681   8.406  2.6833  1.1732  0.6074
19229SOL     OW60963   0.648   7.540   5.206 -0.2166 -0.5058  0.1615
19229SOL    HW160964   0.568   7.592   5.206  0.4942  0.7403 -2.2856
19229SOL    HW260965   0.700   7.574   5.133  1.7470 -2.5090  0.4772
19230SOL     OW60966  11.313   7.289   5.969  0.1036  0.1230  0.3220
19230SOL    HW160967  11.369   7.213   5.983 -0.3174  0.1021  2.2452
19230SOL    HW260968  11.286   7.283   5.878  2.6972 -0.1932 -0.4842
19231SOL     OW60969   8.732   3.856   2.971 -0.3447 -0.2841 -0.2839
19231SOL    HW160970   8.736   3.835   2.877 -1.3597 -0.5895 -0.2674
19231SOL    HW260971   8.816   3.825   3.005 -0.7015 -1.9014 -0.7691
19232SOL     OW60972   7.570   6.877   2.330 -0.2420 -0.1110  0.3872
19232SOL    HW160973   7.559   6.911   2.242 -1.1201 -0.3950  0.3689
19232SOL    HW260974   7.599   6.952   2.382 -1.8438  0.6312  0.2929
19233SOL     OW60975   9.068   0.844   7.629  0.4027  0.1342  0.1950
19233SOL    HW160976   9.160   0.821   7.643  0.3846 -0.6414 -0.8595
19233SOL    HW260977   9.047   0.807   7.543 -0.4951  1.5485 -0.2148
19234SOL     OW60978   9.621   6.993  10.606  0.1600  0.3456  0.3391
19234SOL    HW160979   9.607   7.088  10.605  3.5314  0.9870  0.0663
19234SOL    HW260980   9.572   6.960  10.531 -0.4147  2.0145 -0.0623
19235SOL     OW60981  10.185   2.564   1.480  0.0870  0.1703 -0.0404
19235SOL    HW160982  10.245   2.491   1.498  0.4166  0.0986 -1.3205
19235SOL    HW260983  10.242   2.640   1.472  0.0462  0.0811 -1.3748
19236SOL     OW60984   8.546   6.901  11.125 -0.1762  0.4669  0.1009
19236SOL    HW160985   8.514   6.957  11.055 -0.1095  2.4853  1.5957
19236SOL    HW260986   8.493   6.822  11.120 -0.1847  0.5678 -2.1605
19237SOL     OW60987   7.619   4.984   1.036 -0.0939 -0.8049 -0.0766
19237SOL    HW160988   7.619   5.024   1.123 -1.1851 -0.3834 -0.2624
19237SOL    HW260989   7.669   4.903   1.047  0.7826 -0.1849  0.6676
19238SOL     OW60990   6.779   6.649   3.679  0.1429 -0.0860  0.1858
19238SOL    HW160991   6.762   6.634   3.586 -3.1229 -1.1465  0.8049
19238SOL    HW260992   6.789   6.561   3.716 -2.6894 -0.0479  1.3430
19239SOL     OW60993   5.988   8.556   1.408 -0.7386 -0.2620 -0.1635
19239SOL    HW160994   6.045   8.630   1.385 -2.2891  0.7983 -0.7968
19239SOL    HW260995   5.901   8.595   1.416 -1.2755 -1.6746  1.5989
19240SOL     OW60996  10.357   9.845   7.150 -0.2775  0.2953  0.5421
19240SOL    HW160997  10.311   9.802   7.078 -0.8412  0.8451  0.5680
19240SOL    HW260998  10.301   9.829   7.226  0.0145  0.2265  0.7414
19241SOL     OW60999  11.216   8.895   4.305 -0.5303  0.2531 -0.5342
19241SOL    HW161000  11.139   8.852   4.266 -0.5459 -0.6924  0.4775
19241SOL    HW261001  11.290   8.860   4.256 -0.6259 -0.1211 -0.4173
19242SOL     OW61002   0.109   2.437   7.902  0.3298  0.5266 -0.7876
19242SOL    HW161003   0.136   2.380   7.974 -0.3473  0.7913 -0.3193
19242SOL    HW261004   0.140   2.524   7.927 -0.6618  0.7780 -0.3908
19243SOL     OW61005   0.001  10.168   0.111  0.1300  0.2246  0.5166
19243SOL    HW161006  -0.033  10.256   0.094 -0.7053 -0.0976  0.4713
19243SOL    HW261007  -0.042  10.113   0.045  2.3507  0.1174 -0.9430
19244SOL     OW61008  10.294   8.217   5.534 -0.0053 -0.9027  0.0676
19244SOL    HW161009  10.354   8.206   5.460 -2.1388 -1.4566 -1.7137
19244SOL    HW261010  10.269   8.310   5.531 -0.3321 -0.9961 -0.1081
19245SOL     OW61011  11.102   3.535   6.818 -0.0396  0.1360  0.2377
19245SOL    HW161012  11.181   3.588   6.816  1.1515 -1.5611 -1.2714
19245SOL    HW261013  11.119   3.465   6.755 -2.2848 -0.9546  0.7481
19246SOL     OW61014   8.242   1.172   3.259  0.0600  0.0542 -0.4819
19246SOL    HW161015   8.211   1.201   3.173  1.1145  0.1628 -0.8389
19246SOL    HW261016   8.238   1.076   3.254  0.4213  0.0505 -0.7759
19247SOL     OW61017   4.896   2.426   2.292  0.1160  0.2204  0.3315
19247SOL    HW161018   4.976   2.472   2.318 -0.0206 -0.2574  1.6932
19247SOL    HW261019   4.912   2.396   2.203  1.3687  0.3217  0.5150
19248SOL     OW61020   8.651   1.976   7.348  0.4170  0.1044 -0.0150
19248SOL    HW161021   8.683   2.054   7.393 -0.8466 -0.3925  1.8090
19248SOL    HW261022   8.610   2.010   7.268  2.5998  1.0006 -0.8564
19249SOL     OW61023   6.208   0.033   6.060 -0.2316  0.3357  0.3717
19249SOL    HW161024   6.138   0.088   6.024  0.4146  1.3031  0.5495
19249SOL    HW261025   6.283   0.050   6.002 -0.7257 -2.4377 -1.2309
19250SOL     OW61026   9.076   9.450   0.281  0.2959 -0.0064 -0.0300
19250SOL    HW161027   9.136   9.414   0.346 -1.3573 -2.1288  0.4499
19250SOL    HW261028   9.124   9.445   0.198  2.3148  2.4342  0.8582
19251SOL     OW61029   7.887   5.014   3.840 -0.2307  0.1027  0.3313
19251SOL    HW161030   7.893   5.000   3.934 -0.7560  1.6754  0.6438
19251SOL    HW261031   7.934   5.096   3.825 -0.6309  0.1627 -0.6877
19252SOL     OW61032   3.357  11.200   6.288 -0.0885 -0.4813  0.4265
19252SOL    HW161033   3.397  11.123   6.248 -2.0364 -0.8495 -0.9654
19252SOL    HW261034   3.427  11.264   6.292  0.7623 -1.2066 -1.5622
19253SOL     OW61035  10.889   1.016   3.300 -0.8521  0.1482 -0.2456
19253SOL    HW161036  10.971   1.060   3.319 -0.3505 -1.1507  0.7775
19253SOL    HW261037  10.914   0.937   3.252 -1.4548 -0.3501  0.2293
19254SOL     OW61038   9.003   6.941   8.254  0.6318 -0.5506 -0.4964
19254SOL    HW161039   8.999   7.030   8.219  0.4769 -1.1752 -2.1520
19254SOL    HW261040   9.002   6.885   8.177 -0.2442 -2.0301  0.5344
19255SOL     OW61041   9.974  10.194   1.300  0.3097 -0.3965  0.2085
19255SOL    HW161042  10.010  10.201   1.211 -1.0210  0.7304 -0.2784
19255SOL    HW261043   9.937  10.106   1.304  1.2417 -0.8101  0.0012
19256SOL     OW61044   0.519   1.895   4.182  0.5031  0.6326 -0.0488
19256SOL    HW161045   0.426   1.880   4.167  1.0674 -1.8341 -1.8158
19256SOL    HW261046   0.536   1.981   4.145 -1.3381  1.9391  1.9236
19257SOL     OW61047   9.356   3.594   7.555 -0.3585  0.0296  0.0874
19257SOL    HW161048   9.328   3.639   7.635  1.0300  1.7202 -0.3044
19257SOL    HW261049   9.371   3.504   7.582 -1.7396  0.1235  1.2894
19258SOL     OW61050   2.318   3.840   6.633  0.2316 -0.0253 -0.3688
19258SOL    HW161051   2.258   3.904   6.671  0.1407  0.7838 -1.7995
19258SOL    HW261052   2.356   3.795   6.708 -1.5585 -0.0097  0.6140
19259SOL     OW61053   6.941   3.033   5.970  0.0828 -0.7529 -0.7225
19259SOL    HW161054   6.985   3.112   6.004  0.7619 -1.4981  0.1879
19259SOL    HW261055   7.006   2.964   5.980 -1.8022 -2.2833  2.3633
19260SOL     OW61056   0.673   0.265  10.511 -0.1841  0.3012 -0.2033
19260SOL    HW161057   0.757   0.302  10.536 -0.6403  1.4460 -0.2996
19260SOL    HW261058   0.684   0.241  10.419  0.0858  0.2962 -0.1705
19261SOL     OW61059   6.895   5.131   8.775 -0.0523  0.6378 -0.2836
19261SOL    HW161060   6.870   5.096   8.690 -1.5637  0.9049  0.0231
19261SOL    HW261061   6.920   5.054   8.826 -2.9848 -0.0851  0.2625
19262SOL     OW61062   6.943   9.585   3.331 -0.1581 -0.3972  0.2357
19262SOL    HW161063   6.925   9.642   3.256  0.6998  0.9252  1.0045
19262SOL    HW261064   7.023   9.538   3.307  0.0747 -0.0291  0.2839
19263SOL     OW61065   2.555   1.881   1.037  0.0353  0.4731 -0.2378
19263SOL    HW161066   2.644   1.895   1.069 -0.6553  2.0026  1.1602
19263SOL    HW261067   2.557   1.794   0.997  2.3561  0.8552 -1.0639
19264SOL     OW61068   5.064   7.776   2.076  0.6167  0.1154 -0.7148
19264SOL    HW161069   5.026   7.706   2.130 -0.1244  0.0895 -1.2570
19264SOL    HW261070   5.158   7.769   2.091  0.4163  0.3018  0.8106
19265SOL     OW61071   9.404   8.826   5.148  0.0881 -0.0772  0.2363
19265SOL    HW161072   9.411   8.758   5.082 -1.4476  0.2180 -0.2915
19265SOL    HW261073   9.468   8.803   5.215 -0.5638 -2.1815  0.1966
19266SOL     OW61074   9.261   6.849  10.129 -0.5484 -0.2889 -0.5092
19266SOL    HW161075   9.308   6.890  10.057 -0.4834  0.6628  0.0622
19266SOL    HW261076   9.244   6.759  10.098  1.7059 -0.7166 -0.6827
19267SOL     OW61077   7.635   8.980   8.349 -0.5932 -0.8580  0.2323
19267SOL    HW161078   7.657   8.984   8.256 -1.0368 -1.0189  0.1155
19267SOL    HW261079   7.703   8.925   8.388 -0.5310 -0.9717 -0.0367
19268SOL     OW61080   7.237   4.253   8.731  0.0867 -0.2219 -0.5661
19268SOL    HW161081   7.153   4.298   8.743 -0.4531 -1.0905 -0.9686
19268SOL    HW261082   7.302   4.324   8.730 -0.8258  0.6565 -2.2017
19269SOL     OW61083   5.478   0.557   3.815 -0.3527  0.1732 -0.1336
19269SOL    HW161084   5.419   0.552   3.891  0.3774  2.0702  0.6051
19269SOL    HW261085   5.521   0.642   3.823  1.5282 -0.5962 -1.3729
19270SOL     OW61086   4.149   9.481   3.876 -0.0886  0.2074 -0.2214
19270SOL    HW161087   4.162   9.571   3.904 -1.3804  0.4700 -0.4075
19270SOL    HW261088   4.236   9.441   3.883  0.6613  1.6417 -0.8092
19271SOL     OW61089   1.781  11.178   3.292  0.0086  0.0997 -0.2925
19271SOL    HW161090   1.722  11.106   3.270 -0.0822  0.1991 -0.3776
19271SOL    HW261091   1.785  11.231   3.211  0.4234 -0.0521 -0.3705
19272SOL     OW61092   9.087   8.353  10.447  0.0098  0.6491 -0.5216
19272SOL    HW161093   9.081   8.271  10.495 -2.9325  0.9958 -0.1167
19272SOL    HW261094   9.039   8.337  10.366 -0.5916  1.9307 -0.4445
19273SOL     OW61095   0.623   8.827   4.077 -0.2512 -0.7731  0.2323
19273SOL    HW161096   0.689   8.863   4.018  0.4239 -1.4675  0.5549
19273SOL    HW261097   0.630   8.879   4.157 -2.2302  1.2290 -0.7713
19274SOL     OW61098   1.037  10.406  10.912 -0.1680 -0.2434 -0.0425
19274SOL    HW161099   1.047  10.361  10.996 -0.5272  1.2238  0.8230
19274SOL    HW261100   1.106  10.473  10.912 -0.6654  0.2782 -0.5756
19275SOL     OW61101   5.770   4.884   0.393 -0.0191  0.3965  0.1110
19275SOL    HW161102   5.834   4.878   0.464  0.4881  0.9306 -0.2881
19275SOL    HW261103   5.686   4.888   0.438  0.2070 -0.4695  0.6407
19276SOL     OW61104   8.529   1.627   0.279 -0.8324 -0.0522  0.4494
19276SOL    HW161105   8.481   1.710   0.285  1.5208  1.3820  0.4656
19276SOL    HW261106   8.483   1.569   0.339 -3.7413  0.5521 -1.0009
19277SOL     OW61107   4.097   8.942  11.133  0.1297 -0.0475 -0.3494
19277SOL    HW161108   4.142   8.858  11.124 -1.1800 -0.8396  0.1236
19277SOL    HW261109   4.165   9.008  11.119  1.3105 -1.1844 -0.1526
19278SOL     OW61110  10.362  10.761   4.194 -0.4798 -0.0935 -0.1439
19278SOL    HW161111  10.335  10.851   4.209  0.4831 -0.1211  2.2572
19278SOL    HW261112  10.453  10.766   4.165 -0.3973 -0.2967  0.0742
19279SOL     OW61113   3.119   6.258  10.655 -0.1224  0.7106  0.3560
19279SOL    HW161114   3.060   6.216  10.592 -1.3672  1.1884  1.1632
19279SOL    HW261115   3.097   6.351  10.650 -0.5147  0.7145  1.7462
19280SOL     OW61116   5.620   7.497   4.839 -0.4669 -0.4313 -0.0344
19280SOL    HW161117   5.701   7.512   4.887  0.8478 -0.4028 -2.1603
19280SOL    HW261118   5.609   7.576   4.785 -0.6080 -1.4297 -1.5219
19281SOL     OW61119   4.817   1.096   6.184  0.1650  0.0472  0.3977
19281SOL    HW161120   4.722   1.097   6.174  0.2561  1.0630 -0.6804
19281SOL    HW261121   4.839   1.184   6.215  0.7733 -0.0412  0.2434
19282SOL     OW61122   7.537  11.240  11.368 -0.2082  0.2033 -0.3254
19282SOL    HW161123   7.454  11.287  11.356 -0.3325 -0.4693 -2.3467
19282SOL    HW261124   7.519  11.152  11.337  1.4867  0.2716 -1.6266
19283SOL     OW61125   1.759   6.740   9.687  0.1595  0.4141 -0.2661
19283SOL    HW161126   1.766   6.809   9.753  1.0939  0.1719 -0.0967
19283SOL    HW261127   1.704   6.778   9.618  1.0259  1.5014 -0.3832
19284SOL     OW61128   6.636   4.997   3.062 -0.3712 -0.0112 -0.5238
19284SOL    HW161129   6.695   4.927   3.091 -0.3209  0.0389 -0.5034
19284SOL    HW261130   6.621   5.049   3.140  0.6338  0.7481 -0.8183
19285SOL     OW61131   0.695   4.874   4.184 -0.3022 -0.4060 -0.5648
19285SOL    HW161132   0.639   4.884   4.106 -1.5969  0.0850  0.3950
19285SOL    HW261133   0.771   4.824   4.152 -1.7287 -1.9778 -1.7282
19286SOL     OW61134   1.690   8.806   5.772 -0.4328 -0.4652 -0.0127
19286SOL    HW161135   1.644   8.727   5.802  1.4746 -1.3516  0.7155
19286SOL    HW261136   1.775   8.774   5.743  1.0715  1.5242  1.9254
19287SOL     OW61137   1.656   9.032   4.800  0.1482 -0.4184 -0.3742
19287SOL    HW161138   1.735   8.981   4.781 -0.1568 -0.3136 -2.1710
19287SOL    HW261139   1.676   9.119   4.767 -1.2584 -0.8029 -2.4600
19288SOL     OW61140   0.815   7.756   0.043 -0.2630  0.2052  0.4241
19288SOL    HW161141   0.721   7.762   0.063 -1.0324 -3.4546 -1.3034
19288SOL    HW261142   0.830   7.829  -0.018 -2.3417  0.1618 -0.2341
19289SOL     OW61143   3.581   0.589   6.706  0.0699 -1.0009  0.1212
19289SOL    HW161144   3.504   0.599   6.649  1.6371 -0.5667 -2.0798
19289SOL    HW261145   3.614   0.501   6.684  1.7963 -0.0800 -1.1961
19290SOL     OW61146   2.146   2.051   2.914  0.6967  0.5175 -0.5178
19290SOL    HW161147   2.232   2.084   2.888  0.7142  0.1868 -0.8822
19290SOL    HW261148   2.149   2.050   3.010  0.3255  2.5617 -0.4214
19291SOL     OW61149   1.164   9.658   5.151 -0.0727  0.1904  0.0346
19291SOL    HW161150   1.253   9.667   5.116  0.4895 -1.3094  0.9895
19291SOL    HW261151   1.168   9.582   5.209 -1.9398  0.2078  0.2616
19292SOL     OW61152   0.533   1.850   9.979 -0.4008  0.2242 -0.3464
19292SOL    HW161153   0.628   1.839   9.987 -0.6210 -0.6078  1.7630
19292SOL    HW261154   0.498   1.761   9.984 -1.4029  0.6577  1.6666
19293SOL     OW61155   1.207   2.396   3.726  0.6099  0.3991 -0.4004
19293SOL    HW161156   1.201   2.388   3.631  0.1517  1.5876 -0.4879
19293SOL    HW261157   1.241   2.311   3.755 -1.6431 -0.9232 -1.3959
19294SOL     OW61158   3.514  10.643   7.005  0.2381  0.1182  0.6595
19294SOL    HW161159   3.567  10.631   7.084  0.8001  2.7244  0.7680
19294SOL    HW261160   3.427  10.665   7.037  0.6412  1.9239  0.6596
19295SOL     OW61161   2.688   2.660   1.152 -0.3121 -0.0161 -0.2646
19295SOL    HW161162   2.693   2.622   1.065 -2.0453  0.2856 -0.5454
19295SOL    HW261163   2.778   2.685   1.173 -0.1140  2.1369 -2.9999
19296SOL     OW61164   9.204   9.248   2.885  0.1005 -0.0409  0.1851
19296SOL    HW161165   9.193   9.154   2.890 -0.0063 -0.2308 -2.4254
19296SOL    HW261166   9.254   9.271   2.964 -0.6071 -2.1146  1.3017
19297SOL     OW61167   6.849   5.976   6.810 -0.7155  0.0357  0.2281
19297SOL    HW161168   6.899   6.049   6.847 -0.2724 -0.9051  1.5605
19297SOL    HW261169   6.758   5.995   6.833 -0.7385  0.7180 -0.4039
19298SOL     OW61170   8.320   0.354   7.901  0.1807 -0.0710 -0.6049
19298SOL    HW161171   8.294   0.264   7.921 -2.4941  0.7912  0.2032
19298SOL    HW261172   8.300   0.364   7.808 -1.4094  0.2083 -0.2659
19299SOL     OW61173   8.142   5.938   8.682  0.1087  0.1848  0.1748
19299SOL    HW161174   8.079   6.008   8.698  0.1997  0.0134  1.3565
19299SOL    HW261175   8.226   5.982   8.674  0.0271  0.2967 -0.0631
19300SOL     OW61176   3.422   1.717   9.501 -0.8087 -0.3555  0.2291
19300SOL    HW161177   3.479   1.770   9.558 -0.5546 -1.8237  1.3888
19300SOL    HW261178   3.387   1.780   9.438  0.6603  0.9162  0.6228
19301SOL     OW61179   4.625  10.044   2.696 -0.5706 -0.3905  0.2295
19301SOL    HW161180   4.703  10.023   2.645 -0.9869  0.2393 -0.6890
19301SOL    HW261181   4.583   9.960   2.713 -0.4431 -0.6028 -0.5002
19302SOL     OW61182   7.522   4.402   7.484 -0.4287 -0.1282  1.0458
19302SOL    HW161183   7.561   4.346   7.551 -0.9157  0.5133  1.8825
19302SOL    HW261184   7.455   4.348   7.443 -0.2142 -0.4842  1.1625
19303SOL     OW61185   5.694   8.763   6.616  0.5407 -0.1849 -0.0664
19303SOL    HW161186   5.785   8.745   6.638  0.7279  0.5070 -0.2635
19303SOL    HW261187   5.670   8.691   6.556  0.8515 -0.5480  0.2402
19304SOL     OW61188   8.930   5.798   6.412 -0.3433 -0.5148 -0.4799
19304SOL    HW161189   8.856   5.738   6.406 -1.0555  0.3752 -0.7422
19304SOL    HW261190   8.926   5.848   6.331  0.1991 -0.0596 -0.2283
19305SOL     OW61191   8.013   7.035   3.037  0.4496 -0.1533 -0.2914
19305SOL    HW161192   8.017   7.077   3.123  1.3111  1.9702 -1.2865
19305SOL    HW261193   7.920   7.024   3.020  0.2342  0.3989  0.4602
19306SOL     OW61194   4.299   4.547   7.833  0.0289  0.4389 -0.6344
19306SOL    HW161195   4.242   4.471   7.847  1.6822 -0.6493  0.5259
19306SOL    HW261196   4.245   4.622   7.856 -1.1886 -0.4966 -0.3580
19307SOL     OW61197  11.191   1.255   7.610  0.2075  0.3702 -0.1495
19307SOL    HW161198  11.149   1.179   7.571 -0.0330  0.6961 -0.5329
19307SOL    HW261199  11.273   1.221   7.646 -0.1589 -0.1753  0.1826
19308SOL     OW61200   5.178   1.531  10.629 -0.5979  0.7067 -0.0729
19308SOL    HW161201   5.171   1.607  10.572 -0.2083  2.6822  2.3234
19308SOL    HW261202   5.271   1.527  10.652 -0.6886 -0.2510  0.1649
19309SOL     OW61203   0.407   0.948   4.820  0.3926 -0.0450 -0.1911
19309SOL    HW161204   0.323   0.936   4.775  0.2459  0.7679 -0.1448
19309SOL    HW261205   0.389   0.922   4.911  0.3327 -0.3657 -0.2919
19310SOL     OW61206   9.798   5.666   5.092 -0.0422 -0.0803  0.4790
19310SOL    HW161207   9.715   5.620   5.109 -0.4149  0.3736 -0.0656
19310SOL    HW261208   9.864   5.597   5.092 -0.4369 -0.4621  0.8272
19311SOL     OW61209   5.076  10.785   2.418  0.4085  0.0689  0.4460
19311SOL    HW161210   5.082  10.831   2.335 -0.7611 -0.1721  0.2089
19311SOL    HW261211   5.022  10.708   2.399 -0.9687  0.6745  1.6769
19312SOL     OW61212   9.668   1.645   0.575 -0.6505  0.5900 -0.5147
19312SOL    HW161213   9.623   1.684   0.650 -0.7725 -0.7760  0.1565
19312SOL    HW261214   9.749   1.695   0.567 -1.0056  1.2723  0.0244
19313SOL     OW61215   7.504   9.139   4.935 -0.4664  0.4667  0.5333
19313SOL    HW161216   7.503   9.229   4.902  0.2768  0.7705  1.3028
19313SOL    HW261217   7.556   9.144   5.015 -0.3434 -0.6731  0.5312
19314SOL     OW61218   4.673   5.899   1.042 -0.0250 -0.4877 -0.4168
19314SOL    HW161219   4.581   5.905   1.016  0.5581  1.7628 -2.3061
19314SOL    HW261220   4.719   5.872   0.962  1.2058  1.1135 -0.3236
19315SOL     OW61221   9.310   6.088   3.556  0.5244  0.4376  0.2681
19315SOL    HW161222   9.358   6.166   3.582 -0.5105  0.3715  2.6506
19315SOL    HW261223   9.259   6.064   3.633 -0.5410 -1.5886 -0.9606
19316SOL     OW61224   7.022   9.539   4.499  0.2507 -0.6089 -0.2936
19316SOL    HW161225   7.059   9.496   4.577  0.3284 -1.5778 -0.8403
19316SOL    HW261226   6.968   9.471   4.459 -1.9156  0.6623  0.3097
19317SOL     OW61227   1.032   3.765  10.798  0.2945  0.0741  0.3868
19317SOL    HW161228   1.012   3.763  10.705  2.5028 -1.2160 -0.1150
19317SOL    HW261229   1.046   3.674  10.822 -1.1098  0.2727  2.2310
19318SOL     OW61230   3.396  10.080   0.134 -0.0732  0.4676 -0.2138
19318SOL    HW161231   3.362  10.127   0.209  1.4063  0.5070  0.4625
19318SOL    HW261232   3.398  10.144   0.063  0.4888  1.0019  0.2834
19319SOL     OW61233   3.380   4.574   5.569  0.1402 -0.1251  0.7287
19319SOL    HW161234   3.425   4.642   5.519 -0.6765  1.3917  1.9626
19319SOL    HW261235   3.447   4.540   5.629  0.0205  1.2130  1.6609
19320SOL     OW61236   2.248   3.973   8.698  0.1697  0.2898 -0.1125
19320SOL    HW161237   2.178   4.037   8.687 -0.9976 -1.0159 -0.6041
19320SOL    HW261238   2.249   3.953   8.791  1.3824  1.8799  0.2673
19321SOL     OW61239   9.180   1.710   5.228 -0.4983 -0.1011 -0.6154
19321SOL    HW161240   9.184   1.672   5.140  0.6775 -1.5203  0.0196
19321SOL    HW261241   9.266   1.691   5.266 -0.9561  0.5747  0.8150
19322SOL     OW61242   8.119   9.391   6.387  0.3024 -0.4125 -0.1527
19322SOL    HW161243   8.118   9.461   6.322 -1.4300 -0.0661  0.1887
19322SOL    HW261244   8.111   9.310   6.336  1.1461 -0.2850 -0.4863
19323SOL     OW61245   5.494   7.135   8.397 -0.2702 -0.4938  0.1457
19323SOL    HW161246   5.450   7.077   8.335 -1.3382 -1.2289  1.5189
19323SOL    HW261247   5.540   7.198   8.343 -1.2601 -1.0301 -1.3823
19324SOL     OW61248   2.515   9.102   3.615  0.1995 -0.3665  0.5536
19324SOL    HW161249   2.586   9.155   3.578  1.3476 -0.7759  2.0674
19324SOL    HW261250   2.513   9.023   3.561  0.8065 -0.2700  0.3799
19325SOL     OW61251   2.419   0.852   4.641  0.3421  0.9218  0.0113
19325SOL    HW161252   2.357   0.808   4.582  0.8390  2.6306 -1.8566
19325SOL    HW261253   2.365   0.914   4.690  0.3868  1.7853 -0.9910
19326SOL     OW61254   7.304   1.421   6.797 -0.0081  0.3439 -0.2001
19326SOL    HW161255   7.372   1.487   6.810 -0.1041  0.2946  0.6075
19326SOL    HW261256   7.243   1.434   6.870 -1.0865  0.6384 -1.1195
19327SOL     OW61257   4.781   6.122   6.312 -0.1297 -0.0740 -0.0975
19327SOL    HW161258   4.851   6.182   6.337  0.2262 -0.6941  0.4186
19327SOL    HW261259   4.701   6.173   6.323  0.2110  0.4994 -0.2639
19328SOL     OW61260   6.923   9.546   2.336 -0.0259  0.1647 -0.2391
19328SOL    HW161261   6.948   9.455   2.321 -1.4770 -0.3708  0.3383
19328SOL    HW261262   6.939   9.561   2.430  0.4263  0.5803 -0.3799
19329SOL     OW61263   8.000  10.264   6.376  0.2270  0.2492  0.0075
19329SOL    HW161264   7.949  10.338   6.410  0.6156  0.9733 -0.9230
19329SOL    HW261265   8.089  10.297   6.370  0.0631  0.4406 -2.3725
19330SOL     OW61266   4.823   7.314   8.587 -0.3612 -0.5789  0.1048
19330SOL    HW161267   4.857   7.378   8.650 -0.3914 -0.4785  0.0198
19330SOL    HW261268   4.739   7.352   8.558  0.5752  0.3848 -1.5184
19331SOL     OW61269   6.845   4.130  10.292  0.6898 -0.4599  0.2720
19331SOL    HW161270   6.862   4.222  10.310 -0.9955 -0.2090  0.7051
19331SOL    HW261271   6.888   4.114  10.208  0.3259  0.9432 -0.2093
19332SOL     OW61272   4.995   5.466   3.706 -0.4217 -0.2393 -0.3175
19332SOL    HW161273   5.048   5.535   3.667 -0.0207  0.5066  1.4144
19332SOL    HW261274   4.936   5.512   3.766  0.3128 -1.3915  1.4019
19333SOL     OW61275   6.537   0.477   9.979 -0.0749  0.0917  0.6759
19333SOL    HW161276   6.451   0.439   9.993 -0.1071 -1.1826 -2.2372
19333SOL    HW261277   6.595   0.429  10.038 -0.4957 -3.2567 -1.3627
19334SOL     OW61278   9.609  10.978   8.087  0.0807  0.4723  0.0557
19334SOL    HW161279   9.609  10.886   8.058  0.2435  0.7777 -0.9610
19334SOL    HW261280   9.608  10.973   8.182  0.1587 -0.5897  0.0158
19335SOL     OW61281   2.613  10.268   4.805  0.2554  0.1248 -0.4610
19335SOL    HW161282   2.568  10.191   4.770 -0.1342 -0.0565  0.4077
19335SOL    HW261283   2.542  10.326   4.833  0.5520  0.6586 -0.8078
19336SOL     OW61284   8.088   4.720  10.328  0.2477 -0.3205  0.1321
19336SOL    HW161285   8.116   4.640  10.373 -0.2785 -0.6739 -0.1571
19336SOL    HW261286   8.008   4.747  10.374 -0.6112 -0.9930 -0.9085
19337SOL     OW61287   3.196   2.400   0.786 -0.2123  0.1285 -0.4894
19337SOL    HW161288   3.144   2.445   0.719 -1.7554 -0.6750  0.1331
19337SOL    HW261289   3.171   2.442   0.868  2.1819  1.5928 -0.3975
19338SOL     OW61290  10.088   9.175   4.431 -0.2355  0.5318  0.6449
19338SOL    HW161291  10.068   9.230   4.356  2.1714  0.9454  0.2261
19338SOL    HW261292  10.005   9.165   4.476 -1.6754  0.6600 -1.7979
19339SOL     OW61293  10.976  10.845   5.263 -0.0507 -0.6907  0.2119
19339SOL    HW161294  10.924  10.879   5.191 -2.4923  0.8426  2.5404
19339SOL    HW261295  11.058  10.895   5.260 -2.2992  3.5722  1.6792
19340SOL     OW61296   3.436   6.288   4.488 -0.3246 -0.2723 -0.2686
19340SOL    HW161297   3.511   6.237   4.519 -0.2428 -0.2023 -0.3487
19340SOL    HW261298   3.387   6.226   4.433 -0.6133 -0.4719  0.2121
19341SOL     OW61299  10.232   0.235   7.924  0.1062 -0.1495 -0.9833
19341SOL    HW161300  10.169   0.165   7.942 -0.2081  0.0026 -1.4780
19341SOL    HW261301  10.179   0.315   7.923  0.5909  0.2099  0.4280
19342SOL     OW61302   4.712   0.603   5.848  0.4079 -0.2196 -0.3460
19342SOL    HW161303   4.654   0.527   5.841  1.7190 -1.1377 -1.8804
19342SOL    HW261304   4.664   0.664   5.904 -1.7292 -1.2072 -0.9928
19343SOL     OW61305   0.733   2.780   4.998  0.6899 -0.1060  0.3990
19343SOL    HW161306   0.719   2.863   4.952  0.8707 -1.1489 -1.6367
19343SOL    HW261307   0.826   2.782   5.021  0.7813  0.0854  0.0226
19344SOL     OW61308   9.294   2.473   5.540  0.4066 -0.2334 -0.3489
19344SOL    HW161309   9.234   2.414   5.494  1.2867 -1.6387  0.2454
19344SOL    HW261310   9.238   2.543   5.573 -0.3215  0.6959 -3.2207
19345SOL     OW61311   2.690   9.857   8.951  0.0927 -0.5207 -0.6489
19345SOL    HW161312   2.680   9.832   8.859 -1.9668 -0.8222 -0.3855
19345SOL    HW261313   2.693   9.953   8.950 -2.4902 -0.3699 -0.8985
19346SOL     OW61314   1.042   6.437   8.609 -0.2839 -0.2968 -0.4256
19346SOL    HW161315   1.097   6.467   8.681  0.3491 -0.5752 -0.7821
19346SOL    HW261316   1.025   6.344   8.629  0.4271 -0.5469 -0.9560
19347SOL     OW61317   6.121   9.623   3.560 -0.1844 -0.4368  0.3510
19347SOL    HW161318   6.153   9.625   3.469 -0.5755 -0.1764  0.2183
19347SOL    HW261319   6.187   9.573   3.607  0.4720  0.1798  0.0997
19348SOL     OW61320   1.907   9.109   3.523 -0.1881 -0.2312 -0.1809
19348SOL    HW161321   1.989   9.075   3.560  0.2180  0.3634 -0.5257
19348SOL    HW261322   1.841   9.047   3.552  0.6423 -1.7957 -1.4448
19349SOL     OW61323   5.391   2.141   6.389  0.0416 -0.4639  0.3374
19349SOL    HW161324   5.393   2.232   6.357 -0.5974 -0.7471 -0.5454
19349SOL    HW261325   5.303   2.131   6.427 -0.0828 -0.8617 -0.0455
19350SOL     OW61326   5.146   1.811   5.661  0.1920  0.3950  0.3800
19350SOL    HW161327   5.187   1.886   5.703 -1.1163  0.9924  0.6286
19350SOL    HW261328   5.070   1.792   5.715  0.1671 -0.7274 -0.0382
19351SOL     OW61329   9.420   1.405   6.652 -0.0223  0.0421  0.1031
19351SOL    HW161330   9.505   1.436   6.621  0.4928 -1.0410  0.4105
19351SOL    HW261331   9.438   1.321   6.693 -1.1179  0.1833  0.9195
19352SOL     OW61332   4.386   7.721   4.141 -0.7893 -0.1343 -0.2644
19352SOL    HW161333   4.408   7.630   4.125 -0.2933 -0.2736  1.1205
19352SOL    HW261334   4.459   7.771   4.104 -0.8385 -0.3056 -0.6000
19353SOL     OW61335   3.544  11.108   4.060 -0.2915  0.3570  0.5894
19353SOL    HW161336   3.569  11.153   3.979 -1.2859  0.1495  0.1563
19353SOL    HW261337   3.625  11.104   4.111  0.0999  1.4624  0.0773
19354SOL     OW61338   5.166   9.070  10.376  0.4254  0.5207 -0.2714
19354SOL    HW161339   5.232   9.001  10.375 -0.4085 -0.2890 -0.6396
19354SOL    HW261340   5.211   9.147  10.341  1.1138 -0.0737 -0.7166
19355SOL     OW61341   6.425   0.767   7.665 -0.3643  0.6904 -0.1761
19355SOL    HW161342   6.377   0.840   7.624 -3.4339 -0.0095  1.7986
19355SOL    HW261343   6.457   0.804   7.748 -1.8094 -0.1022  0.7657
19356SOL     OW61344   4.557   5.931   0.678  0.3352 -0.2765 -0.4664
19356SOL    HW161345   4.493   5.922   0.607  1.6143 -0.0483 -1.6828
19356SOL    HW261346   4.515   5.991   0.740  0.3806  2.0766 -2.5340
19357SOL     OW61347   8.712   4.839   8.585 -0.7070  0.1561  0.1230
19357SOL    HW161348   8.654   4.872   8.653  1.7763  0.3572  2.3077
19357SOL    HW261349   8.742   4.918   8.539  1.9661  0.7713  2.6160
19358SOL     OW61350   5.711   0.334   4.043  0.0841 -0.3135 -0.6763
19358SOL    HW161351   5.666   0.310   3.962  0.7498 -0.0322 -1.1384
19358SOL    HW261352   5.760   0.413   4.021  0.2319 -0.2009  0.0186
19359SOL     OW61353   5.585   8.344   2.509  0.0926  0.0557 -0.2686
19359SOL    HW161354   5.541   8.288   2.445 -0.7830  0.4944 -0.0622
19359SOL    HW261355   5.668   8.367   2.467 -1.1248  1.6221 -1.9709
19360SOL     OW61356   1.408   4.271   7.953  0.3277 -0.2578  0.1980
19360SOL    HW161357   1.459   4.343   7.916 -0.6185 -0.6930 -2.1126
19360SOL    HW261358   1.458   4.192   7.931 -0.0475 -0.4971  0.2004
19361SOL     OW61359   1.484   8.605   7.904 -0.6168  0.5430 -0.0764
19361SOL    HW161360   1.523   8.692   7.907 -0.0135  0.2936 -0.3887
19361SOL    HW261361   1.536   8.552   7.964 -1.2434  0.4957  0.4329
19362SOL     OW61362  10.252   2.001   0.487  0.8941  0.3936 -0.3492
19362SOL    HW161363  10.259   1.934   0.555  0.0107  0.9131  0.2837
19362SOL    HW261364  10.268   1.955   0.405  3.4720  0.0241  0.2804
19363SOL     OW61365   7.119   7.029   5.290  0.2144 -0.2744  0.0626
19363SOL    HW161366   7.146   6.941   5.264  0.0047 -0.0548 -0.9310
19363SOL    HW261367   7.189   7.086   5.261  1.2394 -0.2645  2.3189
19364SOL     OW61368   4.774   9.718   9.133 -0.6267  0.2701  0.3547
19364SOL    HW161369   4.757   9.745   9.043  3.4143  1.0364 -0.3596
19364SOL    HW261370   4.809   9.629   9.125  0.4548  0.6160  1.0344
19365SOL     OW61371   3.354   4.897   7.797 -0.5275 -0.2878  0.1612
19365SOL    HW161372   3.294   4.972   7.801 -0.4968 -0.1395 -1.5449
19365SOL    HW261373   3.309   4.829   7.847 -0.6386  0.7919  1.5966
19366SOL     OW61374   8.499   8.461   6.203  0.0114  0.3701  0.2962
19366SOL    HW161375   8.443   8.518   6.149  0.0857 -0.3687 -0.5913
19366SOL    HW261376   8.564   8.521   6.241 -0.0640  0.9234 -0.4138
19367SOL     OW61377   5.166   6.424   4.208  0.5030  0.3946  0.0911
19367SOL    HW161378   5.110   6.352   4.236  2.2603 -0.7900  0.7236
19367SOL    HW261379   5.183   6.474   4.288 -0.4989  1.4101 -0.2978
19368SOL     OW61380   9.500   4.843   1.676 -0.2119 -0.2779 -0.0624
19368SOL    HW161381   9.457   4.757   1.684 -0.0078 -0.3214  0.6501
19368SOL    HW261382   9.568   4.842   1.743  1.6049 -0.5937 -1.8111
19369SOL     OW61383   6.566   9.289  10.099 -0.8337  0.2787 -0.0310
19369SOL    HW161384   6.551   9.377  10.134 -1.8820 -0.3579  1.2101
19369SOL    HW261385   6.482   9.264  10.060 -0.7448 -0.4070  0.1918
19370SOL     OW61386   9.586   2.893   5.468  0.3154  0.5627 -0.0556
19370SOL    HW161387   9.519   2.903   5.400  1.5217  3.2352 -0.9971
19370SOL    HW261388   9.665   2.930   5.428  1.9841 -1.0792  1.5674
19371SOL     OW61389  10.800   5.848  11.026 -0.0577  0.3414  0.0990
19371SOL    HW161390  10.755   5.858  11.110 -1.7732 -0.6992 -0.6614
19371SOL    HW261391  10.730   5.844  10.961  1.1772 -0.2073 -1.2537
19372SOL     OW61392   6.305   6.584   3.437 -0.1662 -0.3844  0.4833
19372SOL    HW161393   6.258   6.557   3.516 -1.5613  0.8329  0.1134
19372SOL    HW261394   6.301   6.679   3.437 -1.1909 -0.3685 -1.5961
19373SOL     OW61395   8.000   8.002   2.808  0.7779  0.5297  0.3343
19373SOL    HW161396   7.978   8.060   2.881 -1.0180 -0.0514  0.3070
19373SOL    HW261397   8.000   7.914   2.847  0.6205  0.2972 -0.1808
19374SOL     OW61398  10.161   9.294   6.360 -0.8679  0.2656 -0.5892
19374SOL    HW161399  10.114   9.211   6.358 -2.5639  1.1970 -1.0150
19374SOL    HW261400  10.128   9.338   6.438  1.4619 -0.2077  0.7643
19375SOL     OW61401  10.439   2.754   8.523  0.0077 -0.1868 -0.0485
19375SOL    HW161402  10.500   2.828   8.516  0.3410 -0.5578 -1.6452
19375SOL    HW261403  10.468   2.705   8.600  1.3161  0.0207 -0.3822
19376SOL     OW61404   3.506   3.432   6.992  0.1447 -0.0090  0.0307
19376SOL    HW161405   3.417   3.396   6.990 -1.0476  2.3680  2.8507
19376SOL    HW261406   3.546   3.392   7.070  0.7897  0.5083 -0.0314
19377SOL     OW61407  10.302   1.537   5.488 -0.1577  0.3673 -0.0346
19377SOL    HW161408  10.256   1.620   5.481 -1.9537 -0.7021 -1.6637
19377SOL    HW261409  10.313   1.524   5.583 -2.3993  1.1023  0.3800
19378SOL     OW61410   1.952   7.116  11.015 -0.3581 -0.1485 -0.8255
19378SOL    HW161411   2.025   7.172  10.987  1.0576 -1.4952  0.0157
19378SOL    HW261412   1.892   7.117  10.941 -0.1618  2.0672 -1.0324
19379SOL     OW61413   8.173   6.334   2.946 -0.0329 -0.1433 -0.4401
19379SOL    HW161414   8.180   6.268   3.015 -0.1295 -0.6784 -0.9313
19379SOL    HW261415   8.081   6.360   2.948 -0.5532 -1.6854 -1.7173
19380SOL     OW61416   9.979   3.822   8.174 -0.1122  0.1031 -0.1469
19380SOL    HW161417   9.924   3.753   8.211 -0.3303 -0.1122 -0.8636
19380SOL    HW261418  10.036   3.777   8.111 -1.1153  0.7260 -1.5614
19381SOL     OW61419  11.178   8.744   8.953  0.4875 -0.0194 -0.7124
19381SOL    HW161420  11.207   8.665   8.907  0.3079  0.8537 -2.3640
19381SOL    HW261421  11.086   8.726   8.974  0.7547 -0.6946 -0.0513
19382SOL     OW61422  10.105   4.975   1.392 -0.3844 -0.0014 -0.0698
19382SOL    HW161423  10.041   4.947   1.326  2.0142 -1.8422 -1.7754
19382SOL    HW261424  10.190   4.957   1.352  1.2227 -0.7420  3.3359
19383SOL     OW61425   8.744   6.159   7.248 -0.1538  0.2677  0.8014
19383SOL    HW161426   8.803   6.090   7.277 -1.2837 -0.7201  0.8152
19383SOL    HW261427   8.753   6.161   7.152  0.9253  1.0879  0.9057
19384SOL     OW61428   7.414   7.611   6.598  0.5062  0.7273 -0.0123
19384SOL    HW161429   7.504   7.596   6.628  0.7634 -0.3342 -1.2326
19384SOL    HW261430   7.423   7.656   6.514 -0.0157 -0.7887 -0.9287
19385SOL     OW61431   4.706   1.528   5.008  0.1597  0.0625 -0.2093
19385SOL    HW161432   4.635   1.475   5.044  1.2544 -1.3579 -0.0481
19385SOL    HW261433   4.705   1.609   5.060 -2.3553  0.8156 -1.2937
19386SOL     OW61434   8.233   3.390   5.800  0.4210  0.2003  0.4917
19386SOL    HW161435   8.280   3.474   5.805  2.2427 -0.7231 -0.1859
19386SOL    HW261436   8.298   3.325   5.825 -1.0121 -1.0288  1.1415
19387SOL     OW61437   5.442   7.565   7.931 -0.7817  0.2009  0.3175
19387SOL    HW161438   5.426   7.486   7.983  1.3183 -0.0628  0.6872
19387SOL    HW261439   5.374   7.564   7.863 -0.9838 -1.7860  0.4839
19388SOL     OW61440   9.835   1.804   5.239 -0.2528 -0.5160  0.3942
19388SOL    HW161441   9.783   1.819   5.318  0.3803  1.7077  0.4440
19388SOL    HW261442   9.783   1.843   5.168  0.1161 -0.7105  0.0087
19389SOL     OW61443   5.768   0.044   1.825  0.5391  0.4131 -0.2018
19389SOL    HW161444   5.719   0.038   1.743 -0.4823  0.5468  0.3787
19389SOL    HW261445   5.702   0.070   1.890  1.6874  2.2021  0.3064
19390SOL     OW61446   1.879   3.624   3.515 -0.5275 -0.3102 -0.3415
19390SOL    HW161447   1.814   3.600   3.581  0.4893 -1.1268  0.3840
19390SOL    HW261448   1.922   3.542   3.493  1.7762  0.5088  0.8325
19391SOL     OW61449   3.186   9.631   6.013 -0.0318 -0.6580  0.1574
19391SOL    HW161450   3.225   9.664   5.931 -1.1722  0.3345 -0.0135
19391SOL    HW261451   3.113   9.576   5.984 -1.8272  1.4198  0.4502
19392SOL     OW61452   9.902   5.500  10.310 -0.6882  0.7055 -0.2070
19392SOL    HW161453   9.844   5.522  10.383  0.9456  0.8834  1.0929
19392SOL    HW261454   9.967   5.570  10.309  0.3706 -0.2606 -0.6441
19393SOL     OW61455   3.324   0.944   2.463 -0.5097  0.0583  0.1844
19393SOL    HW161456   3.252   0.915   2.519 -3.3254 -0.8474 -3.4936
19393SOL    HW261457   3.402   0.932   2.517 -2.7745 -1.7691  3.4520
19394SOL     OW61458   7.165   5.429   5.591  0.0296 -0.4513 -1.0458
19394SOL    HW161459   7.106   5.475   5.531  0.6156  1.3553 -0.2856
19394SOL    HW261460   7.237   5.400   5.536 -0.3939 -0.5693 -1.5518
19395SOL     OW61461   7.747   7.280   5.632 -0.6162 -0.6560 -0.8907
19395SOL    HW161462   7.811   7.249   5.697 -0.0137 -1.2100 -1.7224
19395SOL    HW261463   7.693   7.343   5.680  0.2739 -0.5018 -0.0428
19396SOL     OW61464   8.826  10.064  10.839  0.1807  0.1504 -0.2859
19396SOL    HW161465   8.879  10.144  10.835 -0.2828  0.4294 -1.2097
19396SOL    HW261466   8.785  10.067  10.925 -0.6895  1.4768 -0.7126
19397SOL     OW61467   0.272   2.820   4.152 -0.3233 -0.7174 -0.0342
19397SOL    HW161468   0.366   2.841   4.150 -0.3035 -0.7612  0.3981
19397SOL    HW261469   0.229   2.898   4.118  0.0566 -1.9153 -3.6689
19398SOL     OW61470   7.006   5.145   4.658  0.5981 -0.2697 -0.0894
19398SOL    HW161471   6.980   5.078   4.595  1.9470 -2.2104  1.2640
19398SOL    HW261472   6.939   5.213   4.651  0.2334 -0.7999 -2.9328
19399SOL     OW61473   8.181   2.210   7.670  0.0631  0.2634 -0.0587
19399SOL    HW161474   8.250   2.144   7.679  0.2430  0.4259 -0.2665
19399SOL    HW261475   8.175   2.250   7.757  1.6459  1.6719 -0.5513
19400SOL     OW61476   3.099   3.379   1.448 -0.1390  0.2599  0.1712
19400SOL    HW161477   3.125   3.463   1.410  2.4346 -0.7532 -0.5411
19400SOL    HW261478   3.082   3.323   1.372 -1.3550 -0.0284  0.6346
19401SOL     OW61479   4.339  10.009   2.900  0.0495 -0.0720  0.1272
19401SOL    HW161480   4.407  10.041   2.959  0.0598  0.2342 -0.0449
19401SOL    HW261481   4.346   9.914   2.903  0.9270 -0.0320 -0.4006
19402SOL     OW61482  10.301   2.260   0.534  0.3797 -0.1758  0.0879
19402SOL    HW161483  10.387   2.289   0.504  0.9715  0.7904  2.5005
19402SOL    HW261484  10.306   2.165   0.533  0.7429 -0.1817 -1.6330
19403SOL     OW61485   4.243   4.610   1.853  0.2991 -0.6827 -0.1508
19403SOL    HW161486   4.188   4.561   1.914 -0.7880 -0.1848 -0.7126
19403SOL    HW261487   4.202   4.597   1.767 -1.6425  3.3143 -0.0208
19404SOL     OW61488   9.992   7.306   6.269  0.1775  0.3679 -0.1983
19404SOL    HW161489  10.060   7.371   6.285  2.3736 -2.1555  1.5762
19404SOL    HW261490   9.917   7.336   6.321  1.6951  0.7010  1.9008
19405SOL     OW61491  11.393  10.944   2.023 -0.0129 -0.6195 -0.2357
19405SOL    HW161492  11.329  10.960   2.092  2.4965  0.4136  2.0681
19405SOL    HW261493  11.435  10.862   2.048  2.0652  0.5877  0.6053
19406SOL     OW61494   8.117   7.638   3.701 -0.0085  0.1189 -0.4295
19406SOL    HW161495   8.111   7.685   3.618 -1.6121  1.5544  0.4486
19406SOL    HW261496   8.093   7.702   3.767  0.8065 -1.1099  1.1273
19407SOL     OW61497  10.912   0.820  11.119 -0.1907 -0.0956  0.0333
19407SOL    HW161498  10.867   0.882  11.060  1.0481  0.1252 -0.7109
19407SOL    HW261499  10.874   0.735  11.097  0.7884 -0.1384 -1.6834
19408SOL     OW61500   1.504   6.538   7.534  0.1383 -0.1186 -0.5922
19408SOL    HW161501   1.485   6.596   7.460  0.1873 -0.4465 -0.8646
19408SOL    HW261502   1.568   6.476   7.500  0.8803  0.3056 -0.0006
19409SOL     OW61503   4.526   6.425   8.964 -0.0894 -0.0403 -0.6715
19409SOL    HW161504   4.461   6.486   8.930 -1.6734 -1.2141  0.1330
19409SOL    HW261505   4.516   6.429   9.059  0.2065 -1.0910 -0.5803
19410SOL     OW61506  10.350   4.190   1.533  0.1869 -0.2507 -0.7771
19410SOL    HW161507  10.258   4.200   1.560  0.2703  1.7859 -1.0291
19410SOL    HW261508  10.349   4.210   1.439  1.2207  2.9761 -0.2425
19411SOL     OW61509   3.637   5.536   6.771 -0.1940 -0.0440 -0.1333
19411SOL    HW161510   3.591   5.488   6.703 -1.5223  0.9748  0.0191
19411SOL    HW261511   3.666   5.617   6.728  3.3815 -1.4889 -0.8314
19412SOL     OW61512  10.052   9.941   5.828 -0.7552 -0.0073 -0.6817
19412SOL    HW161513  10.050   9.931   5.923 -0.2756  0.6645 -0.5916
19412SOL    HW261514  10.120  10.007   5.813 -0.7733 -0.1699 -1.4949
19413SOL     OW61515   6.119   1.190   1.966 -0.5534 -0.2037  0.0259
19413SOL    HW161516   6.058   1.117   1.974 -1.2955  0.4884  0.8989
19413SOL    HW261517   6.065   1.263   1.935 -1.0026  1.3393  3.8899
19414SOL     OW61518   0.998   8.806   3.374 -0.1908  0.4245  0.3615
19414SOL    HW161519   1.044   8.861   3.311 -0.7130  0.7418  0.2459
19414SOL    HW261520   0.978   8.725   3.326  0.7544  0.0395  0.5928
19415SOL     OW61521   0.655   0.092  10.194 -1.0502 -0.1289  0.5208
19415SOL    HW161522   0.578   0.147  10.179 -1.6512 -0.2595  2.7808
19415SOL    HW261523   0.628   0.005  10.164 -1.3963  0.0403  0.3334
19416SOL     OW61524   8.423   6.826   6.333  0.1702 -0.0952 -0.2675
19416SOL    HW161525   8.509   6.787   6.348  0.1218 -0.6366 -1.3387
19416SOL    HW261526   8.365   6.782   6.396  0.6283  0.1351  0.3224
19417SOL     OW61527   5.189   4.961   7.074  0.2666 -0.1133  0.8148
19417SOL    HW161528   5.276   4.922   7.066 -0.5032 -2.0051  1.1825
19417SOL    HW261529   5.173   4.964   7.168 -0.8222 -1.6590  0.7227
19418SOL     OW61530  10.649   2.429   7.871  0.0039  0.3900 -0.1877
19418SOL    HW161531  10.690   2.407   7.787 -1.7904 -0.1376 -0.9825
19418SOL    HW261532  10.558   2.449   7.848 -0.4342  0.5917  1.6025
19419SOL     OW61533  10.575   6.514   6.695  0.3022 -0.3162  0.1117
19419SOL    HW161534  10.553   6.544   6.783  1.6640  1.0159  0.0504
19419SOL    HW261535  10.493   6.518   6.647  0.0082  1.3902  0.6910
19420SOL     OW61536   3.657   8.484   4.061 -0.8613 -0.4644 -0.1368
19420SOL    HW161537   3.748   8.485   4.032 -1.1348 -2.7863 -1.2784
19420SOL    HW261538   3.655   8.545   4.135  1.2412  0.8441 -1.0794
19421SOL     OW61539   1.783   9.050   5.910  0.1368 -0.1974 -0.5831
19421SOL    HW161540   1.786   8.967   5.862 -1.6473 -0.7163  0.1440
19421SOL    HW261541   1.690   9.065   5.927  0.5707  0.9853  0.9668
19422SOL     OW61542   9.302   0.409   9.722 -0.1777 -0.1856 -0.1441
19422SOL    HW161543   9.247   0.331   9.719  0.8639 -0.9191 -1.7183
19422SOL    HW261544   9.271   0.457   9.799 -3.1449 -0.4363 -1.0361
19423SOL     OW61545   3.396  10.884   2.092  0.4177 -0.2761  0.2922
19423SOL    HW161546   3.350  10.937   2.026 -0.2381 -1.5004 -0.2588
19423SOL    HW261547   3.467  10.941   2.123  1.2951  0.0425 -2.0829
19424SOL     OW61548   2.168   7.072  10.650 -0.3333  0.4320  0.0203
19424SOL    HW161549   2.259   7.058  10.678 -1.0421 -2.6709  1.1100
19424SOL    HW261550   2.174   7.082  10.555  1.3391  3.0115  0.3033
19425SOL     OW61551   6.339   5.630   2.329 -0.1776  0.3475 -0.6218
19425SOL    HW161552   6.326   5.698   2.396 -0.0193  0.3930 -0.6375
19425SOL    HW261553   6.283   5.658   2.256 -1.8192 -0.6729  0.1899
19426SOL     OW61554   8.169   8.044  10.199 -0.2202  0.2530 -0.6267
19426SOL    HW161555   8.101   7.985  10.234 -0.0865  0.5258  0.1129
19426SOL    HW261556   8.164   8.122  10.255  0.2219  0.5699 -1.0229
19427SOL     OW61557  10.555  10.456   3.002  0.2909 -0.1072 -0.1768
19427SOL    HW161558  10.532  10.527   2.942 -1.3979  0.3809  0.9685
19427SOL    HW261559  10.523  10.377   2.959  0.3458  0.0651 -0.5395
19428SOL     OW61560   5.698   7.134   8.077  0.9004 -0.4378  0.1236
19428SOL    HW161561   5.694   7.057   8.134  1.0212 -0.1866  0.4731
19428SOL    HW261562   5.689   7.099   7.988  3.0219 -1.0952  0.1037
19429SOL     OW61563   6.356   9.248   8.497 -0.1832  0.7969  0.0970
19429SOL    HW161564   6.389   9.184   8.435 -0.7623 -0.5195  1.1013
19429SOL    HW261565   6.405   9.233   8.578 -0.5618  1.3906  0.4545
19430SOL     OW61566   8.733  11.348   0.170 -0.9007 -0.7086  0.1978
19430SOL    HW161567   8.798  11.280   0.151 -1.5528 -0.8270 -1.8764
19430SOL    HW261568   8.776  11.430   0.146 -0.4003 -0.4344  1.9345
19431SOL     OW61569   6.536   7.621   1.469 -0.0720  0.2285  0.3619
19431SOL    HW161570   6.588   7.610   1.549 -1.0150 -3.3636  0.6676
19431SOL    HW261571   6.599   7.606   1.398  0.2888  1.0292  0.5031
19432SOL     OW61572   8.470   2.255   0.074 -1.0409  0.4567 -0.2280
19432SOL    HW161573   8.537   2.311   0.113 -0.1681  0.3311 -1.4791
19432SOL    HW261574   8.387   2.292   0.104 -0.4498  1.5958  0.0617
19433SOL     OW61575   3.303  10.858  11.188 -0.5782  0.2388 -0.4084
19433SOL    HW161576   3.275  10.814  11.107 -1.6820 -0.4255  0.3120
19433SOL    HW261577   3.307  10.950  11.164 -3.1619  0.3436 -0.6634
19434SOL     OW61578   2.537   5.482   9.099  0.1883 -0.1928 -0.7653
19434SOL    HW161579   2.529   5.577   9.101 -0.2179 -0.2284  0.5209
19434SOL    HW261580   2.488   5.455   9.021 -1.1312  0.5513 -0.2238
19435SOL     OW61581   8.506   1.086   1.815  0.0800 -0.3980  0.1242
19435SOL    HW161582   8.465   1.107   1.899  1.2620 -0.1157  0.6518
19435SOL    HW261583   8.477   1.156   1.756 -3.6306 -2.4329 -0.7555
19436SOL     OW61584   7.413   7.124   0.140 -0.2710  0.5133 -1.0424
19436SOL    HW161585   7.364   7.050   0.105 -1.5690  1.0281 -0.3940
19436SOL    HW261586   7.375   7.139   0.226  1.2581  0.7507 -0.3676
19437SOL     OW61587   8.561   6.764   5.834 -0.6321  0.3710  0.0979
19437SOL    HW161588   8.621   6.839   5.839  1.1649 -1.0338  0.9640
19437SOL    HW261589   8.524   6.769   5.746  0.6255  1.4241 -0.4151
19438SOL     OW61590  11.087   2.334   8.652 -0.1180  0.1766  0.3889
19438SOL    HW161591  11.053   2.368   8.734  0.9972 -0.7417  1.2539
19438SOL    HW261592  11.138   2.257   8.676 -0.1981 -0.4298 -1.2157
19439SOL     OW61593   8.513   9.566   3.884 -0.6756 -0.7334  0.7594
19439SOL    HW161594   8.485   9.613   3.963 -0.5659 -0.9764  0.9448
19439SOL    HW261595   8.595   9.609   3.859 -2.0503  1.1571 -0.8034
19440SOL     OW61596   1.208   9.183   1.522 -0.0214 -0.1956 -0.1220
19440SOL    HW161597   1.195   9.222   1.608 -0.6149 -0.4419 -0.0933
19440SOL    HW261598   1.174   9.249   1.461  1.0427  0.2796 -0.2213
19441SOL     OW61599   4.333   4.766   7.057 -0.2647 -0.3252 -0.0282
19441SOL    HW161600   4.385   4.703   7.108 -1.2017 -0.7019  0.4787
19441SOL    HW261601   4.360   4.851   7.091  0.9543 -0.4299 -0.6612
19442SOL     OW61602   3.606   4.338   3.166  0.0588 -0.3069 -0.3831
19442SOL    HW161603   3.606   4.433   3.151  0.0471 -0.0661  0.9913
19442SOL    HW261604   3.643   4.301   3.086  0.1080  0.8606 -0.9217
19443SOL     OW61605   8.406   5.018   1.497  0.1096  0.0597  0.4027
19443SOL    HW161606   8.401   4.923   1.497 -1.8521  0.0985 -0.8823
19443SOL    HW261607   8.315   5.047   1.489  0.6659  2.0455  0.6553
19444SOL     OW61608   5.934   9.577   5.910 -0.5058  0.4799 -0.3320
19444SOL    HW161609   6.004   9.544   5.854 -0.6922 -1.0470  0.2757
19444SOL    HW261610   5.929   9.670   5.890  0.9868  0.4209 -1.1452
19445SOL     OW61611   2.030   4.783   9.346 -0.1514 -0.0504  0.3629
19445SOL    HW161612   1.975   4.842   9.295 -1.8804  0.1018  2.2672
19445SOL    HW261613   2.085   4.739   9.281 -1.0299  1.3401 -1.4146
19446SOL     OW61614   5.230   9.873   4.022  0.1729 -0.1282 -0.3028
19446SOL    HW161615   5.260   9.962   4.004  0.4981 -0.1229  0.2474
19446SOL    HW261616   5.161   9.884   4.088  2.0838 -0.4582  1.8614
19447SOL     OW61617   6.607   8.783   1.736 -0.5628 -0.1730 -0.3188
19447SOL    HW161618   6.637   8.746   1.653 -0.9303 -2.6139  0.5411
19447SOL    HW261619   6.512   8.790   1.726 -0.4527  1.0137 -0.6276
19448SOL     OW61620   1.947   6.255   5.826  0.1669  0.6879  0.5095
19448SOL    HW161621   1.860   6.218   5.844  0.0976 -0.6035 -2.0626
19448SOL    HW261622   1.929   6.342   5.790  0.0637  1.0218  1.3242
19449SOL     OW61623   7.760   4.969   5.829  0.2796  0.1326 -0.0344
19449SOL    HW161624   7.847   4.938   5.806  0.0668 -1.3138  0.9729
19449SOL    HW261625   7.755   5.058   5.793  1.8508 -0.0732 -0.8114
19450SOL     OW61626   5.714   9.742   4.274 -0.1288  0.4244 -0.1339
19450SOL    HW161627   5.718   9.666   4.332  0.4839  1.5811  1.4231
19450SOL    HW261628   5.621   9.763   4.267 -0.2431 -0.0238  0.0431
19451SOL     OW61629   3.393   6.814   8.557  0.4752  0.4970 -0.0952
19451SOL    HW161630   3.367   6.778   8.472  0.9860  1.1866 -0.5529
19451SOL    HW261631   3.322   6.875   8.579 -1.2952 -1.9196  1.4994
19452SOL     OW61632   9.843   6.018   8.771  0.1120  0.5601 -0.9843
19452SOL    HW161633   9.860   6.021   8.865  1.2812  0.5087 -1.1781
19452SOL    HW261634   9.930   6.018   8.731 -0.3700  0.5953 -2.0682
19453SOL     OW61635   4.083   8.976   4.430 -0.2067  0.4185 -0.1224
19453SOL    HW161636   4.035   8.924   4.367 -0.9201  1.1899 -0.2414
19453SOL    HW261637   4.022   9.045   4.456 -0.1679 -0.2357  1.8835
19454SOL     OW61638   8.962  10.718   8.139 -0.5547  0.0323 -0.0306
19454SOL    HW161639   9.034  10.655   8.135 -2.5357 -2.5521  2.0206
19454SOL    HW261640   8.923  10.716   8.052  0.9008  0.3673 -0.7259
19455SOL     OW61641   0.566   3.487   3.683 -0.1853 -0.1396 -0.2843
19455SOL    HW161642   0.542   3.570   3.640 -2.3078 -0.7001 -0.2561
19455SOL    HW261643   0.599   3.433   3.611 -1.4347 -0.2244 -0.8244
19456SOL     OW61644   4.870   4.375   5.375  0.3587 -0.2009  0.1654
19456SOL    HW161645   4.943   4.361   5.437 -0.8838 -1.7411  1.3796
19456SOL    HW261646   4.872   4.469   5.357  1.5966  0.0840  1.5216
19457SOL     OW61647   9.682   1.957   4.089  0.1095  0.1412 -0.2517
19457SOL    HW161648   9.723   1.966   4.003 -0.8170  2.7937 -0.5270
19457SOL    HW261649   9.755   1.969   4.151  0.3361  1.4524 -0.7251
19458SOL     OW61650   1.596   9.154   0.224  0.9123  0.0866  0.5183
19458SOL    HW161651   1.676   9.184   0.266  1.0481  1.4637 -0.6417
19458SOL    HW261652   1.624   9.082   0.168  1.3847  0.6326  0.0361
19459SOL     OW61653   6.473   4.282   3.819 -0.1454 -0.4126 -0.1937
19459SOL    HW161654   6.536   4.211   3.824  2.5254  1.5740 -2.1879
19459SOL    HW261655   6.492   4.337   3.895  0.5833  0.1413 -0.7498
19460SOL     OW61656   5.892  10.401   4.437  0.5559  0.0194 -0.1959
19460SOL    HW161657   5.904  10.315   4.476 -0.2581  0.1541  0.3688
19460SOL    HW261658   5.920  10.463   4.505 -1.0891  0.2614  0.3103
19461SOL     OW61659   4.157   7.235   6.758  0.4731  0.6272 -0.2032
19461SOL    HW161660   4.214   7.190   6.821  0.1428  0.2512 -0.1716
19461SOL    HW261661   4.218   7.277   6.696  0.8147  1.4100  0.6399
19462SOL     OW61662   7.684   1.080   8.527 -0.1643  0.2881  0.0108
19462SOL    HW161663   7.748   1.148   8.548 -0.6062  1.1323 -1.1975
19462SOL    HW261664   7.600   1.126   8.529 -0.5280 -0.3504 -0.2741
19463SOL     OW61665   8.298   4.452   4.314  0.3981 -0.5030  0.5028
19463SOL    HW161666   8.292   4.522   4.250  1.1021  0.0848  1.0564
19463SOL    HW261667   8.348   4.383   4.271  1.2531  0.0698  0.5597
19464SOL     OW61668   9.491   5.153   3.702 -0.2602 -0.3283 -0.8364
19464SOL    HW161669   9.444   5.232   3.672 -0.9439 -1.1131 -1.9167
19464SOL    HW261670   9.547   5.130   3.628  0.5516 -0.4050 -0.2106
19465SOL     OW61671   0.253   9.192   6.690  0.1099 -0.0686 -0.4680
19465SOL    HW161672   0.296   9.262   6.640 -0.1143  0.7592  0.4635
19465SOL    HW261673   0.198   9.238   6.754 -1.0244 -1.1077 -0.6612
19466SOL     OW61674  10.705   4.476   7.526 -0.2286  0.0758  0.2607
19466SOL    HW161675  10.733   4.547   7.584 -0.4541 -0.3128  0.8540
19466SOL    HW261676  10.691   4.519   7.441 -1.7789  1.0250  0.9641
19467SOL     OW61677  11.317   5.490   8.588  0.3948 -0.2717 -0.0355
19467SOL    HW161678  11.285   5.529   8.506  0.0176 -0.1363  0.1734
19467SOL    HW261679  11.283   5.547   8.656 -0.5479 -1.2158  0.3033
19468SOL     OW61680   8.956   7.241   3.305 -0.0014 -0.2187 -0.3657
19468SOL    HW161681   8.998   7.213   3.386 -0.0539  1.0713  0.1249
19468SOL    HW261682   8.949   7.161   3.253  0.8151 -0.9036  0.5439
19469SOL     OW61683   3.073   3.690   8.358  0.0958  0.2161 -0.5022
19469SOL    HW161684   2.988   3.735   8.353  0.7049  1.6430  1.1030
19469SOL    HW261685   3.120   3.718   8.280 -0.0838  1.1991 -0.2604
19470SOL     OW61686   2.786   8.210   2.670  0.1821  0.4688  0.0188
19470SOL    HW161687   2.817   8.152   2.600  0.0426  2.6129 -1.9121
19470SOL    HW261688   2.691   8.196   2.673  0.0116  1.3041 -1.1450
19471SOL     OW61689   8.026   5.302  11.007  0.9373 -0.0165  0.0749
19471SOL    HW161690   8.111   5.300  11.051  0.5921 -0.8585  0.7490
19471SOL    HW261691   7.963   5.316  11.078  0.4852  0.1028 -0.3514
19472SOL     OW61692   5.666  11.177   5.506  0.6346 -0.4829  0.4047
19472SOL    HW161693   5.679  11.271   5.518 -0.9394 -0.1825 -0.0099
19472SOL    HW261694   5.626  11.148   5.588  1.4510 -0.8853  0.6759
19473SOL     OW61695  10.460   9.757   9.958  0.2454  0.3275  0.0025
19473SOL    HW161696  10.451   9.830  10.019 -0.0660  0.4675 -0.2080
19473SOL    HW261697  10.554   9.753   9.940  0.5183 -0.5013  1.4331
19474SOL     OW61698   2.298   8.735   6.460 -0.1144 -0.2757 -0.0030
19474SOL    HW161699   2.208   8.764   6.445 -0.3747 -1.1449 -0.1393
19474SOL    HW261700   2.345   8.764   6.382 -0.6790 -1.4712 -0.8150
19475SOL     OW61701   8.206   2.141   6.314 -0.4191  0.5091 -0.1026
19475SOL    HW161702   8.141   2.112   6.250 -1.2891 -1.8221  1.6929
19475SOL    HW261703   8.156   2.153   6.395  1.0746  0.7578  0.8157
19476SOL     OW61704   6.499   8.693  11.392 -0.9102  0.3140  0.0774
19476SOL    HW161705   6.515   8.741  11.473 -1.9964  0.3402  0.3002
19476SOL    HW261706   6.537   8.606  11.407 -1.6227  0.1182  0.8663
19477SOL     OW61707   8.994  10.008   0.942 -0.1588  0.1229  0.3308
19477SOL    HW161708   9.055   9.955   0.891  0.3555  0.8375  0.1869
19477SOL    HW261709   9.011   9.983   1.033 -1.0890 -1.1619  0.1725
19478SOL     OW61710   6.325   5.766  10.878  0.4135  0.0098  0.1741
19478SOL    HW161711   6.331   5.847  10.828 -0.5503 -0.6250 -1.0237
19478SOL    HW261712   6.359   5.698  10.819  1.6848 -0.4230  1.3388
19479SOL     OW61713   2.264   0.738  10.883  0.4726  0.0295 -0.3659
19479SOL    HW161714   2.281   0.695  10.800  1.0294 -0.4363 -0.0198
19479SOL    HW261715   2.280   0.671  10.949 -0.5735  0.2118  0.0966
19480SOL     OW61716   9.986  10.990   6.280  0.1550 -0.0030 -0.1477
19480SOL    HW161717  10.073  10.979   6.319  0.9967  0.2771 -1.8682
19480SOL    HW261718   9.964  10.903   6.246 -0.0640  0.0209 -0.0684
19481SOL     OW61719   6.154   9.624   1.517  0.3687 -0.0186  0.2985
19481SOL    HW161720   6.232   9.655   1.563  0.3346  0.0591  0.3041
19481SOL    HW261721   6.186   9.593   1.433  0.6336 -1.4810  0.9141
19482SOL     OW61722  10.482   7.017   7.770  0.7080 -0.6810 -0.0228
19482SOL    HW161723  10.442   6.936   7.739 -0.2126 -1.1201  2.1424
19482SOL    HW261724  10.508   6.998   7.860 -0.7598  1.7966  1.0206
19483SOL     OW61725   5.764   0.855   0.233  0.0661 -0.5386  0.6004
19483SOL    HW161726   5.846   0.808   0.218 -1.3143 -2.5623 -1.2713
19483SOL    HW261727   5.722   0.859   0.146 -2.8812 -1.8092  1.8156
19484SOL     OW61728   2.233   1.893   8.223  0.0857  0.1056  0.2134
19484SOL    HW161729   2.265   1.830   8.287 -0.8617  1.5675  2.2452
19484SOL    HW261730   2.156   1.932   8.264 -1.5973 -0.0489 -2.5617
19485SOL     OW61731   9.638   6.006   9.979 -0.3081  0.9376  0.0464
19485SOL    HW161732   9.712   6.014   9.919  0.4118  0.1586  0.8110
19485SOL    HW261733   9.663   6.057  10.056  0.6959 -1.5672  1.4732
19486SOL     OW61734   7.034   9.300   2.328  0.0197 -0.4465  0.6133
19486SOL    HW161735   7.093   9.230   2.358  0.9493 -0.6542 -1.5350
19486SOL    HW261736   7.071   9.328   2.244 -0.8466  2.0227  0.9755
19487SOL     OW61737   8.039   1.432   0.151 -0.1554 -0.6330  0.3321
19487SOL    HW161738   8.085   1.465   0.228 -0.7164  0.8498  0.0788
19487SOL    HW261739   7.988   1.358   0.183  2.0401 -2.0651  0.7033
19488SOL     OW61740   7.165   4.343   7.549  0.5045  0.1937  0.5271
19488SOL    HW161741   7.237   4.301   7.502 -0.8870 -2.5817  0.6068
19488SOL    HW261742   7.131   4.408   7.488  0.5914 -1.2674 -1.1902
19489SOL     OW61743   1.796   6.717   5.293  0.1707  0.2245  0.5229
19489SOL    HW161744   1.829   6.767   5.218  0.5560 -0.6403  0.0978
19489SOL    HW261745   1.718   6.672   5.259  0.3632 -0.1926  0.6253
19490SOL     OW61746   2.897   8.609   9.532  0.4057  0.2073 -0.3589
19490SOL    HW161747   2.894   8.704   9.548 -1.6037  0.1505 -0.1952
19490SOL    HW261748   2.806   8.582   9.529  0.7920 -1.2070 -3.7991
19491SOL     OW61749  11.197   7.526   0.298 -0.6054 -0.2823  0.1890
19491SOL    HW161750  11.161   7.599   0.348 -3.2831  1.1052 -3.3734
19491SOL    HW261751  11.288   7.552   0.280 -0.7224  0.8968  1.1690
19492SOL     OW61752   5.279   2.381   2.669 -0.4842 -0.7140  0.1530
19492SOL    HW161753   5.242   2.436   2.601  0.9342 -1.1003 -0.9865
19492SOL    HW261754   5.305   2.300   2.624  1.7665 -0.4438  0.8152
19493SOL     OW61755   5.588   4.764   1.659  0.2662  0.0886  0.4107
19493SOL    HW161756   5.579   4.837   1.721 -1.6555 -0.7306  1.1642
19493SOL    HW261757   5.501   4.755   1.619  0.1313 -2.4448  1.1229
19494SOL     OW61758   9.924   8.239   3.755 -0.2873 -0.0770 -0.2251
19494SOL    HW161759  10.014   8.273   3.757 -0.7581  1.3462 -1.3966
19494SOL    HW261760   9.911   8.214   3.664 -0.3603 -2.4269  0.3790
19495SOL     OW61761   1.632   4.514   6.495 -0.4780  0.3132 -0.2234
19495SOL    HW161762   1.678   4.488   6.415 -0.1037  1.5792 -0.4446
19495SOL    HW261763   1.575   4.440   6.515 -0.9509  0.1653 -1.9339
19496SOL     OW61764   1.747   5.075   3.252  0.6598 -0.0255  0.0785
19496SOL    HW161765   1.812   5.006   3.246 -1.4209 -2.0367 -0.7327
19496SOL    HW261766   1.705   5.076   3.166 -0.5612  1.0029  0.6497
19497SOL     OW61767   5.007   5.188   0.442 -0.3319 -0.3744  0.0992
19497SOL    HW161768   4.968   5.211   0.526  1.1044 -0.0950  0.7118
19497SOL    HW261769   5.006   5.092   0.441 -0.8635 -0.3722  0.1837
19498SOL     OW61770  11.213   5.770   3.513  0.3721 -0.0976  0.5584
19498SOL    HW161771  11.187   5.851   3.470 -1.4520 -1.2086 -0.5660
19498SOL    HW261772  11.256   5.798   3.594  1.2032  1.9849 -0.5413
19499SOL     OW61773   2.884   2.228   7.366  0.0069 -0.0920  0.0172
19499SOL    HW161774   2.802   2.202   7.408 -0.4587  1.8537  0.4053
19499SOL    HW261775   2.952   2.184   7.416 -0.7576 -1.2844  0.0368
19500SOL     OW61776   7.872   3.915   4.965 -0.3214 -0.0356  0.3530
19500SOL    HW161777   7.810   3.874   5.024 -2.2261  0.2133 -1.3461
19500SOL    HW261778   7.958   3.883   4.993 -1.4377 -2.5948  1.0769
19501SOL     OW61779  10.572   2.276   0.965  0.3764  0.0407  0.3451
19501SOL    HW161780  10.650   2.310   0.921  0.0706  1.4612  0.8556
19501SOL    HW261781  10.532   2.353   1.005 -0.2666 -0.9600  1.6867
19502SOL     OW61782   6.019   0.458   8.186 -0.3218 -0.0242  0.6805
19502SOL    HW161783   6.078   0.509   8.242 -0.2704  0.4515  0.1969
19502SOL    HW261784   6.066   0.447   8.104 -0.0837 -1.3865  0.9847
19503SOL     OW61785   6.980   7.758   5.180  0.8390  0.5809 -0.1359
19503SOL    HW161786   7.063   7.744   5.227  1.3138 -1.1755 -1.3804
19503SOL    HW261787   7.006   7.766   5.089 -0.2952  1.0800 -0.4282
19504SOL     OW61788   8.768   0.694   7.547  0.4410 -0.4022 -0.5484
19504SOL    HW161789   8.825   0.770   7.561 -2.2476  1.9113 -1.2337
19504SOL    HW261790   8.714   0.718   7.472 -2.7808 -1.4631  1.2241
19505SOL     OW61791   0.129   3.524   1.241  0.2878 -0.0636 -0.3698
19505SOL    HW161792   0.093   3.481   1.163 -2.4053  0.9253  0.1926
19505SOL    HW261793   0.079   3.606   1.247  2.5611  1.3262  0.7163
19506SOL     OW61794   9.090   2.135   5.986  0.6323 -0.3063  0.1917
19506SOL    HW161795   8.995   2.132   5.988  0.6492 -0.5391  1.0692
19506SOL    HW261796   9.116   2.141   6.078  1.4244  1.4610 -0.0966
19507SOL     OW61797   7.951   4.054   0.253 -0.5482 -0.1792 -0.0506
19507SOL    HW161798   7.982   3.975   0.209 -0.7183  0.4550 -1.3521
19507SOL    HW261799   7.857   4.040   0.265 -0.3917 -0.6267  0.7264
19508SOL     OW61800   2.379   1.945   2.132 -0.2301 -0.3072  0.1381
19508SOL    HW161801   2.470   1.976   2.127 -0.7017  1.0481 -0.3861
19508SOL    HW261802   2.338   2.004   2.195 -1.4317  0.9250 -1.7109
19509SOL     OW61803   3.966   2.669   4.754 -0.2601 -0.2435  0.0123
19509SOL    HW161804   3.887   2.629   4.719 -0.7293  0.6202  0.0603
19509SOL    HW261805   3.955   2.762   4.737  1.1281 -0.1945 -0.7172
19510SOL     OW61806   5.774   3.686  10.577  0.1129 -0.0318  0.6221
19510SOL    HW161807   5.780   3.592  10.598  0.3065  0.1453  1.3928
19510SOL    HW261808   5.828   3.696  10.499  0.4345 -0.4967  0.7735
19511SOL     OW61809  10.458   9.532  11.141  0.2485  0.0159 -0.0043
19511SOL    HW161810  10.470   9.440  11.118 -0.4226  0.1885 -1.1299
19511SOL    HW261811  10.478   9.537  11.234  0.2535 -1.2740  0.0740
19512SOL     OW61812   5.102   1.244   0.820  0.4088  0.1241 -0.5786
19512SOL    HW161813   5.047   1.241   0.741  0.6030  0.1838 -0.7173
19512SOL    HW261814   5.075   1.324   0.865  0.0698 -0.0767 -0.4166
19513SOL     OW61815   9.786   4.345   2.566 -0.4640  0.5795 -0.1203
19513SOL    HW161816   9.861   4.337   2.625 -0.3320 -0.4867 -0.4154
19513SOL    HW261817   9.711   4.323   2.620 -0.3015 -0.8075 -0.4340
19514SOL     OW61818   7.308   7.300   7.098  0.2937  0.0586 -0.0901
19514SOL    HW161819   7.248   7.362   7.057 -1.5331  0.4508  2.8508
19514SOL    HW261820   7.306   7.224   7.041  1.5092  2.0903 -3.0483
19515SOL     OW61821   8.729   2.596   8.114  0.1854 -0.0611  0.3556
19515SOL    HW161822   8.636   2.606   8.091  0.2352 -0.8507 -0.2361
19515SOL    HW261823   8.765   2.544   8.043  0.7445 -1.0774  1.3599
19516SOL     OW61824   3.748  10.115   6.951  0.3976  0.2885  0.2272
19516SOL    HW161825   3.806  10.071   7.012 -0.0075  2.0356  1.9556
19516SOL    HW261826   3.787  10.201   6.937  1.0007 -0.3661 -2.8171
19517SOL     OW61827   9.593  10.159   2.803  0.2672 -0.5024  0.3403
19517SOL    HW161828   9.630  10.236   2.847  0.5729  0.0968 -0.9285
19517SOL    HW261829   9.499  10.177   2.797 -0.0394 -1.2649  2.0326
19518SOL     OW61830   3.798   5.206   9.360 -0.2003  0.1664 -0.1842
19518SOL    HW161831   3.892   5.185   9.365 -0.0047  1.2763  1.3637
19518SOL    HW261832   3.755   5.140   9.414 -0.1365  0.5548  0.3504
19519SOL     OW61833  10.040   1.643   4.700 -0.7071  0.1582  0.6891
19519SOL    HW161834  10.068   1.715   4.755  0.2003 -0.7168  1.4028
19519SOL    HW261835  10.005   1.578   4.761  0.4091 -0.8688  0.2768
19520SOL     OW61836   4.159   3.932   5.938 -0.3050  0.3562  0.0836
19520SOL    HW161837   4.175   3.961   6.028 -0.6562  1.8586 -0.3075
19520SOL    HW261838   4.242   3.943   5.894 -0.4031  0.6128 -0.0347
19521SOL     OW61839  11.040   2.901  11.248  0.3102 -0.2565 -0.0911
19521SOL    HW161840  10.978   2.829  11.242 -0.6570  0.5806 -0.3836
19521SOL    HW261841  11.102   2.874  11.316 -0.9167 -0.7196  0.8773
19522SOL     OW61842  10.200   7.842   5.960 -0.6610  0.5057  0.0044
19522SOL    HW161843  10.280   7.824   6.009 -0.3162  0.4220 -0.5763
19522SOL    HW261844  10.130   7.804   6.012 -0.5617  2.2912  1.5288
19523SOL     OW61845   8.127   9.883   1.026  0.3340 -0.2972 -0.0623
19523SOL    HW161846   8.135   9.976   1.047 -0.2503  0.1097 -1.5398
19523SOL    HW261847   8.179   9.839   1.093 -0.5509  0.9790  1.5573
19524SOL     OW61848   9.999   7.625  11.100 -0.5166 -0.5134 -0.0740
19524SOL    HW161849  10.066   7.617  11.032 -0.3782 -0.8321  0.1012
19524SOL    HW261850  10.048   7.632  11.182 -0.6282  1.1929 -0.1042
19525SOL     OW61851   3.424   8.668   1.357  0.4700  0.2895 -0.4470
19525SOL    HW161852   3.391   8.717   1.432  0.5212 -0.0176 -0.2248
19525SOL    HW261853   3.511   8.704   1.341  1.1870 -0.8425  0.7503
19526SOL     OW61854  10.451   4.197   0.739 -0.4336 -0.3272 -0.2340
19526SOL    HW161855  10.541   4.217   0.714  0.0123 -2.0826 -0.1874
19526SOL    HW261856  10.423   4.272   0.792  1.4198 -0.2729  0.7563
19527SOL     OW61857   3.484   6.831   3.292 -0.1652  0.3646 -0.1227
19527SOL    HW161858   3.393   6.852   3.273  0.0579  1.6466  0.1716
19527SOL    HW261859   3.480   6.747   3.338 -1.0576 -0.4302 -1.5761
19528SOL     OW61860   8.480   1.198   5.811  0.0598  0.0549  0.0534
19528SOL    HW161861   8.490   1.179   5.904  0.7601  0.2812  0.0254
19528SOL    HW261862   8.521   1.123   5.767 -1.7262 -0.8982 -0.1095
19529SOL     OW61863  10.304   5.015   6.728 -0.0591  0.6151 -0.1482
19529SOL    HW161864  10.330   5.022   6.820  1.5030 -0.6768 -0.4328
19529SOL    HW261865  10.224   4.963   6.729  0.0687  0.4192  0.4647
19530SOL     OW61866   5.695   5.989   2.649 -0.1129  0.0625  0.1305
19530SOL    HW161867   5.739   5.954   2.727 -0.5248  0.0369  0.3589
19530SOL    HW261868   5.608   5.947   2.651  0.5123 -1.4150 -1.3764
19531SOL     OW61869   8.910   2.221   1.152  0.0566 -0.4113  0.7172
19531SOL    HW161870   8.871   2.137   1.174 -1.4380  0.4873  1.6432
19531SOL    HW261871   8.967   2.241   1.226  1.0273 -0.9457  0.1348
19532SOL     OW61872   7.188   8.017   8.585 -0.2951 -0.0883  0.6501
19532SOL    HW161873   7.154   8.084   8.645  0.2500 -0.9444  1.9423
19532SOL    HW261874   7.283   8.027   8.589 -0.2549  0.0021 -0.2829
19533SOL     OW61875   1.996   3.769   6.965 -0.6769 -0.3969  0.4916
19533SOL    HW161876   2.060   3.726   7.021 -0.9961  0.0973  1.2430
19533SOL    HW261877   1.914   3.765   7.014 -0.7869  0.7817  0.4293
19534SOL     OW61878   4.819   8.357  11.256 -0.2360 -0.7416  0.5155
19534SOL    HW161879   4.824   8.402  11.340  0.2681  1.3529 -0.5618
19534SOL    HW261880   4.864   8.416  11.195 -0.4911 -2.2463 -1.2007
19535SOL     OW61881   2.758   7.940   6.522 -0.6141  0.1257 -0.2574
19535SOL    HW161882   2.822   7.869   6.512 -1.0665 -0.3662  0.2788
19535SOL    HW261883   2.787   8.007   6.460  0.2813 -0.1905 -0.1994
19536SOL     OW61884   2.931   2.177   4.036 -0.0701  0.2192 -0.6347
19536SOL    HW161885   2.959   2.138   4.120  0.0025  0.1816 -0.6761
19536SOL    HW261886   3.012   2.187   3.986 -0.0575  0.6604 -0.5278
19537SOL     OW61887   7.365   6.545   5.816  0.3584 -0.2240  0.1361
19537SOL    HW161888   7.459   6.540   5.832  0.5603  0.7711 -0.5998
19537SOL    HW261889   7.356   6.544   5.721 -0.3903 -0.5325  0.2010
19538SOL     OW61890   6.397   3.237   2.620  0.3664  1.0137 -0.0076
19538SOL    HW161891   6.484   3.199   2.610  0.5953  1.4489  0.3011
19538SOL    HW261892   6.348   3.206   2.544  0.8897  1.0426 -0.3589
19539SOL     OW61893   9.679   5.861   0.399 -0.2481  0.2961 -0.1901
19539SOL    HW161894   9.605   5.919   0.416 -2.3883 -1.7631 -1.8392
19539SOL    HW261895   9.660   5.781   0.448 -0.9395 -1.5193 -3.1820
19540SOL     OW61896   6.605   7.608   7.039  0.0577  0.2875  0.6520
19540SOL    HW161897   6.616   7.517   7.014 -3.7330  0.1286 -1.1257
19540SOL    HW261898   6.522   7.610   7.088 -0.8337  2.9084 -0.7692
19541SOL     OW61899   3.310   7.109   5.552  0.7028  0.2752  0.0037
19541SOL    HW161900   3.221   7.084   5.526  0.7643  1.4250 -1.4359
19541SOL    HW261901   3.303   7.125   5.646 -0.1899 -1.3516  0.2444
19542SOL     OW61902   5.433   0.251   3.461 -0.0275 -0.7100 -0.1180
19542SOL    HW161903   5.466   0.338   3.483  0.4855 -0.7617 -0.6573
19542SOL    HW261904   5.413   0.256   3.368 -0.7581 -0.9333  0.0218
19543SOL     OW61905   9.823   4.243   4.330 -0.2008  0.6954 -0.0724
19543SOL    HW161906   9.842   4.204   4.244 -0.9473  1.6241 -0.6815
19543SOL    HW261907   9.898   4.220   4.384 -0.0397 -0.4972 -0.7753
19544SOL     OW61908   7.913   8.352   8.323  0.2854  0.3473  0.2465
19544SOL    HW161909   7.980   8.351   8.392 -0.3199 -1.9550  0.8637
19544SOL    HW261910   7.932   8.275   8.270 -2.0979 -0.6371  0.6988
19545SOL     OW61911   4.629   4.879   1.225  0.5975 -0.1597 -0.0825
19545SOL    HW161912   4.721   4.857   1.233  0.7071  0.4370  0.3539
19545SOL    HW261913   4.621   4.915   1.136  0.9730  0.6456  0.2018
19546SOL     OW61914   5.349   9.551   8.749 -0.0059  0.0371 -0.4232
19546SOL    HW161915   5.378   9.494   8.820 -0.4406  1.4465  0.9302
19546SOL    HW261916   5.255   9.562   8.763 -0.0383  0.6150 -1.0061
19547SOL     OW61917  10.411   1.402   3.383 -0.1033 -0.2774 -0.0683
19547SOL    HW161918  10.433   1.463   3.454  0.5009 -2.7268  2.0318
19547SOL    HW261919  10.495   1.360   3.362 -0.9773 -2.7850  1.0668
19548SOL     OW61920   7.859   4.480   1.058 -0.0219  0.3564  0.0295
19548SOL    HW161921   7.843   4.449   0.969  1.0014  1.2035 -0.4810
19548SOL    HW261922   7.951   4.458   1.074 -0.2820 -0.0684  1.0114
19549SOL     OW61923   4.170   1.101   9.106 -0.3330  0.2144  0.7552
19549SOL    HW161924   4.251   1.054   9.084 -1.2078 -0.9083 -0.2281
19549SOL    HW261925   4.199   1.180   9.150  1.2545 -0.7431  1.4989
19550SOL     OW61926   9.890   4.660   1.260 -0.5481 -0.2047  0.5069
19550SOL    HW161927   9.851   4.580   1.294 -0.7190 -1.3028 -2.0239
19550SOL    HW261928   9.953   4.630   1.195  0.9794  1.6853  1.0387
19551SOL     OW61929   6.599  11.279   8.766  0.0677  0.1171  0.7124
19551SOL    HW161930   6.505  11.276   8.748  0.5258 -0.7197 -1.9838
19551SOL    HW261931   6.609  11.241   8.853 -1.9796 -1.0585  0.4830
19552SOL     OW61932   3.310   5.141   1.053 -0.3002  0.2659  0.2185
19552SOL    HW161933   3.298   5.052   1.088 -2.3646  0.2098 -0.4764
19552SOL    HW261934   3.234   5.154   0.996  0.8584  1.8601 -1.0245
19553SOL     OW61935  10.828   7.443   4.026 -0.6396 -0.1065  0.3888
19553SOL    HW161936  10.892   7.467   4.094 -0.2305  0.6798 -0.2641
19553SOL    HW261937  10.743   7.457   4.068 -0.4089  1.4379  0.4080
19554SOL     OW61938   0.419   7.867   6.936 -0.1405  0.0341 -0.4481
19554SOL    HW161939   0.492   7.911   6.893 -1.0774  0.6483 -1.4805
19554SOL    HW261940   0.367   7.938   6.974  1.0263 -0.5094  2.4450
19555SOL     OW61941  11.141   2.520   9.295 -0.2829  0.0144  0.0197
19555SOL    HW161942  11.138   2.615   9.307 -1.1515 -0.1420  1.1237
19555SOL    HW261943  11.049   2.495   9.279  0.1540 -0.4259 -2.1870
19556SOL     OW61944   5.841   2.986   6.650 -0.3143 -0.0211 -0.1858
19556SOL    HW161945   5.828   3.074   6.685 -2.2618 -0.3918  0.1425
19556SOL    HW261946   5.843   2.997   6.555 -0.6711  0.3775 -0.1474
19557SOL     OW61947   7.610   8.979   5.583  0.5588  0.3010 -0.1235
19557SOL    HW161948   7.556   8.969   5.662 -0.2028 -0.9903 -0.7770
19557SOL    HW261949   7.562   8.932   5.515  2.3018 -0.5189 -0.8359
19558SOL     OW61950   8.326   8.358   4.117 -0.0672  0.0016  0.9282
19558SOL    HW161951   8.369   8.394   4.040 -1.6458  0.1432  0.0767
19558SOL    HW261952   8.356   8.268   4.121 -1.7046 -0.7388 -1.2671
19559SOL     OW61953   9.330  10.862   0.139 -0.2121  0.1798 -0.3288
19559SOL    HW161954   9.365  10.773   0.147  0.5283  0.4954  0.0580
19559SOL    HW261955   9.239  10.850   0.111 -0.4152 -0.7263  0.6621
19560SOL     OW61956   1.397   5.781   1.184 -0.5261 -1.0282  0.3161
19560SOL    HW161957   1.364   5.847   1.122 -0.2439 -1.1368  0.0510
19560SOL    HW261958   1.492   5.788   1.178 -0.4824 -0.4948  1.3150
19561SOL     OW61959   9.547   0.616   9.279 -0.1268 -0.6282  0.0187
19561SOL    HW161960   9.539   0.547   9.344  2.1261  0.0090  1.0850
19561SOL    HW261961   9.517   0.695   9.323 -0.8008 -0.5669 -0.5284
19562SOL     OW61962   0.763   1.975   0.720 -0.7035  0.0602 -0.6888
19562SOL    HW161963   0.818   2.043   0.759  1.3979 -1.4906 -0.8149
19562SOL    HW261964   0.824   1.920   0.670 -2.0487 -2.7898  0.5901
19563SOL     OW61965   6.698   4.405   4.739 -0.6306 -0.8891  0.6069
19563SOL    HW161966   6.666   4.474   4.681  0.9615  0.2158  0.9746
19563SOL    HW261967   6.744   4.452   4.809  0.7508 -2.3198  0.7083
19564SOL     OW61968   9.189  10.505  11.253  0.1793 -0.0258 -0.2051
19564SOL    HW161969   9.233  10.424  11.280 -3.8271 -2.1865  0.5774
19564SOL    HW261970   9.130  10.478  11.183 -0.9632  2.3529 -0.2494
19565SOL     OW61971   9.791   9.855   5.382 -0.8133  0.4056  0.3217
19565SOL    HW161972   9.792   9.850   5.286 -2.8923 -2.0033  0.3094
19565SOL    HW261973   9.698   9.859   5.405 -0.4258 -0.3522  2.2449
19566SOL     OW61974   4.455   4.113   4.488  0.5273 -0.2795  0.5615
19566SOL    HW161975   4.530   4.054   4.499  1.2570  0.1260 -1.8196
19566SOL    HW261976   4.433   4.107   4.396 -1.7868  0.3795  1.0162
19567SOL     OW61977  10.787   4.556   0.565 -0.2711  0.4103 -0.4961
19567SOL    HW161978  10.745   4.630   0.609 -2.2429 -1.2699  0.5893
19567SOL    HW261979  10.871   4.546   0.610 -0.5423  1.1844  0.2043
19568SOL     OW61980   0.543   9.132   0.459 -0.3796  0.3838  0.0208
19568SOL    HW161981   0.462   9.094   0.426 -0.4838 -0.3750  1.1100
19568SOL    HW261982   0.608   9.062   0.447 -0.6408 -0.3373  2.3434
19569SOL     OW61983   7.117   6.752   4.655  0.1360  0.1787  0.0021
19569SOL    HW161984   7.188   6.713   4.604 -1.2862 -2.1026 -0.3546
19569SOL    HW261985   7.129   6.717   4.743 -0.6223 -0.3454 -0.0977
19570SOL     OW61986   3.588   7.369   2.939 -0.0475  0.3173 -1.2228
19570SOL    HW161987   3.664   7.420   2.965  0.7457 -0.0079 -2.7740
19570SOL    HW261988   3.613   7.278   2.953 -1.1386  0.2641  0.7005
19571SOL     OW61989   1.726  11.190   1.532  0.1618  0.2611 -0.1486
19571SOL    HW161990   1.763  11.279   1.529  0.2897  0.2549  0.9468
19571SOL    HW261991   1.788  11.140   1.585 -0.3357 -0.2785 -0.0628
19572SOL     OW61992   6.537   4.338   3.183  0.4147 -0.3560 -0.3612
19572SOL    HW161993   6.484   4.404   3.228  0.8670 -1.1394  1.3895
19572SOL    HW261994   6.476   4.266   3.167  0.2134 -0.0144 -1.2096
19573SOL     OW61995   2.053   8.698   9.807 -0.2321 -0.2544 -0.1967
19573SOL    HW161996   2.100   8.744   9.737 -0.6411 -0.0414 -0.3308
19573SOL    HW261997   1.992   8.640   9.760  0.5170 -1.2028 -0.0421
19574SOL     OW61998   1.219   2.572   7.671 -0.3032  0.5363 -0.5288
19574SOL    HW161999   1.284   2.513   7.708 -1.7915 -0.3885  0.7229
19574SOL    HW262000   1.257   2.659   7.684  0.2693  0.0947  1.1118
19575SOL     OW62001   7.521   6.129   6.352 -0.2217  0.0702  0.5462
19575SOL    HW162002   7.487   6.064   6.413 -0.3756 -0.1455  0.2332
19575SOL    HW262003   7.595   6.169   6.398  1.2275 -1.7866 -0.0558
19576SOL     OW62004  11.151   2.836   5.224 -0.3850 -0.0579  0.2929
19576SOL    HW162005  11.081   2.892   5.191  0.8402  2.3243  1.5085
19576SOL    HW262006  11.221   2.843   5.160 -0.2720 -0.3275  0.3829
19577SOL     OW62007   8.649   3.553   7.819 -0.2911 -0.1648  0.0057
19577SOL    HW162008   8.718   3.611   7.787 -0.1069 -0.4908 -0.1919
19577SOL    HW262009   8.604   3.524   7.740 -0.1287 -0.6063  0.0740
19578SOL     OW62010   7.182  10.482   0.635  0.6392 -0.7544  0.5623
19578SOL    HW162011   7.190  10.527   0.551  0.1008  0.4971  1.1685
19578SOL    HW262012   7.134  10.402   0.615  1.9408 -1.2997 -0.5972
19579SOL     OW62013   8.478   8.432   3.873  0.1779 -0.0856 -0.1870
19579SOL    HW162014   8.543   8.499   3.851  0.5572  0.0136  1.1471
19579SOL    HW262015   8.403   8.451   3.816 -0.2619  2.3300  1.0822
19580SOL     OW62016   7.356  11.153   0.228 -0.8545 -0.1355 -0.2219
19580SOL    HW162017   7.267  11.118   0.221 -0.9592  0.3944 -1.9696
19580SOL    HW262018   7.407  11.103   0.164  0.4818 -1.3847  1.7003
19581SOL     OW62019   4.828   1.240   8.356 -0.0940  0.2031  0.6071
19581SOL    HW162020   4.816   1.237   8.451  0.2198  2.7315  0.7859
19581SOL    HW262021   4.905   1.295   8.342 -0.3255  0.1567 -1.1283
19582SOL     OW62022   4.531   0.852   8.126 -0.2272 -0.2663  0.1848
19582SOL    HW162023   4.516   0.816   8.214  1.4636  1.0919  1.0996
19582SOL    HW262024   4.590   0.926   8.140 -4.5788  4.0460 -1.3414
19583SOL     OW62025   9.111   9.249   5.850  0.0871  0.3744 -0.0878
19583SOL    HW162026   9.104   9.336   5.889  2.6314  0.7918 -0.3849
19583SOL    HW262027   9.033   9.203   5.879 -0.3022  2.0889  1.7902
19584SOL     OW62028   3.051   3.019   5.323 -0.3521  0.0471 -0.5100
19584SOL    HW162029   3.087   3.000   5.236 -0.6476 -2.0942 -0.2287
19584SOL    HW262030   3.101   2.961   5.382 -0.7756  0.7985  0.6116
19585SOL     OW62031   5.644   3.689   5.183  0.1372  0.2391 -0.1030
19585SOL    HW162032   5.682   3.769   5.146 -0.3982  0.5421 -0.0022
19585SOL    HW262033   5.585   3.720   5.251  0.7858 -0.2922  0.7222
19586SOL     OW62034   7.918  10.316   3.611 -0.7575 -0.2167 -0.1262
19586SOL    HW162035   7.950  10.406   3.616 -0.4152 -0.1320 -2.6333
19586SOL    HW262036   7.824  10.325   3.599 -0.6593 -0.1691 -0.8715
19587SOL     OW62037  10.984  10.452   8.856  0.1969  0.0086  0.6284
19587SOL    HW162038  10.918  10.485   8.795  1.0409 -0.9409 -0.8652
19587SOL    HW262039  10.956  10.484   8.942 -1.2991  0.9801 -0.1831
19588SOL     OW62040   7.076   0.402   5.346  0.1045  0.6863  0.0906
19588SOL    HW162041   7.133   0.333   5.311  1.0213  1.0532  0.7925
19588SOL    HW262042   7.074   0.468   5.278  0.3233  0.5545 -0.0458
19589SOL     OW62043   2.678   8.263   3.181 -0.4845 -0.3220  0.1675
19589SOL    HW162044   2.613   8.274   3.111 -0.1057  0.0456 -0.1330
19589SOL    HW262045   2.749   8.322   3.156  0.0217 -0.8201  0.4237
19590SOL     OW62046   5.541   3.571   7.111  0.3163  0.6991 -0.5729
19590SOL    HW162047   5.505   3.585   7.199  1.3590 -0.9309  0.1608
19590SOL    HW262048   5.525   3.478   7.094  2.2015  0.4398 -1.1128
19591SOL     OW62049   8.285   8.412  10.812 -0.8411  0.4827 -0.1496
19591SOL    HW162050   8.275   8.492  10.865  1.8502  1.1123 -0.4719
19591SOL    HW262051   8.330   8.351  10.870 -0.6552  0.0768 -0.7212
19592SOL     OW62052   1.104   9.265   7.665 -0.3923  0.1765  0.4276
19592SOL    HW162053   1.117   9.207   7.589 -1.7302 -0.3194  0.5501
19592SOL    HW262054   1.013   9.295   7.656  0.7169  3.6078 -0.5402
19593SOL     OW62055   0.495   8.345   5.198 -0.4886  0.3185 -0.0282
19593SOL    HW162056   0.546   8.275   5.239  0.2127  1.1877  0.6353
19593SOL    HW262057   0.494   8.415   5.263 -4.1879 -0.3154  0.8378
19594SOL     OW62058   0.430   9.568   4.776 -0.0647 -0.0123 -0.3921
19594SOL    HW162059   0.367   9.614   4.831 -0.5839  0.0085 -0.9847
19594SOL    HW262060   0.421   9.476   4.801  0.5942  0.1374  0.4212
19595SOL     OW62061   2.271   9.598   0.427 -0.0064  0.7358 -0.2329
19595SOL    HW162062   2.207   9.669   0.426  0.2378  0.9623  0.2443
19595SOL    HW262063   2.282   9.576   0.519  0.4921  0.5921 -0.3222
19596SOL     OW62064   8.283   8.460   3.381 -0.0582  0.2285 -0.0866
19596SOL    HW162065   8.367   8.472   3.337  0.4223  1.0588  1.0168
19596SOL    HW262066   8.223   8.433   3.311  0.9675  0.2561 -1.0024
19597SOL     OW62067   0.352   5.957   3.712  0.1287 -0.3634  0.1801
19597SOL    HW162068   0.340   5.949   3.807 -1.7282  0.6277  0.0790
19597SOL    HW262069   0.364   5.867   3.683 -0.1599 -0.7794  1.2646
19598SOL     OW62070   4.388   4.511   4.682  0.0025  0.6247  0.5920
19598SOL    HW162071   4.339   4.440   4.640  0.9585  1.1099 -1.4823
19598SOL    HW262072   4.478   4.497   4.654  0.6583  1.1607  2.3361
19599SOL     OW62073   6.054   4.781   3.643 -0.4160 -0.1177 -0.9546
19599SOL    HW162074   6.052   4.708   3.705  0.6438 -0.0855 -0.8614
19599SOL    HW262075   6.006   4.851   3.687  0.6534  0.0307  0.0081
19600SOL     OW62076   6.981   9.525  11.221  0.2001  0.0618  0.0006
19600SOL    HW162077   7.019   9.480  11.296  0.7041 -0.6856 -0.6868
19600SOL    HW262078   6.886   9.519  11.236  0.1971 -2.0805 -0.5074
19601SOL     OW62079   3.342   0.177   9.836 -0.1854 -0.1018  0.5713
19601SOL    HW162080   3.433   0.161   9.860 -0.1291  0.3557  0.6632
19601SOL    HW262081   3.316   0.253   9.888 -0.8038 -0.5907  0.9959
19602SOL     OW62082   9.211  10.040  11.218  0.5764 -0.3505  0.2185
19602SOL    HW162083   9.211  10.058  11.124  0.5068  0.7629  0.4179
19602SOL    HW262084   9.234   9.947  11.225  3.3849  0.1656 -0.7859
19603SOL     OW62085  10.749   4.725   2.511  0.8992 -0.2794  0.4469
19603SOL    HW162086  10.803   4.669   2.566 -0.2518 -0.7669  1.1213
19603SOL    HW262087  10.724   4.669   2.437 -0.8028 -0.9409  1.4539
19604SOL     OW62088   1.171   3.877   0.563  0.6241  0.5235  0.0379
19604SOL    HW162089   1.162   3.786   0.592  0.4617  0.6448  0.3727
19604SOL    HW262090   1.083   3.903   0.539  0.5500  0.8031  0.5851
19605SOL     OW62091   3.151   3.585   2.036  0.1618  0.5245 -0.0911
19605SOL    HW162092   3.156   3.632   2.119 -0.2176 -1.2564  1.0074
19605SOL    HW262093   3.166   3.493   2.060 -0.9218 -0.1672 -1.8509
19606SOL     OW62094   4.401   3.656   8.732  0.8894 -0.0620 -0.2221
19606SOL    HW162095   4.432   3.570   8.760 -0.5559 -0.6423 -0.3589
19606SOL    HW262096   4.400   3.652   8.637  0.0503 -0.1829 -0.2149
19607SOL     OW62097  10.100   1.489   1.406 -0.2212  0.0643 -0.5620
19607SOL    HW162098  10.110   1.495   1.311 -2.5399  0.5414 -0.8331
19607SOL    HW262099  10.045   1.412   1.420  0.8010 -0.5003  0.4791
19608SOL     OW62100  10.332  11.000  10.925  0.8164 -0.0544  0.1996
19608SOL    HW162101  10.330  10.906  10.909  0.1758 -0.1115  0.5699
19608SOL    HW262102  10.405  11.033  10.871  1.2652 -0.8046  0.3464
19609SOL     OW62103   8.087   9.196   5.449  0.3122 -0.1816  0.5025
19609SOL    HW162104   8.143   9.272   5.467  0.8450 -0.6080  0.6714
19609SOL    HW262105   8.031   9.225   5.377  1.4769 -0.0985 -0.4036
19610SOL     OW62106   7.377  10.306   0.111  0.5277  0.4689  0.4486
19610SOL    HW162107   7.323  10.384   0.096  0.9250  0.7146  0.2793
19610SOL    HW262108   7.397  10.274   0.023  0.3162  0.1377  0.5191
19611SOL     OW62109  10.359   1.537   8.367 -0.3891  0.1853  0.0587
19611SOL    HW162110  10.374   1.447   8.396 -2.1794 -0.5708 -1.1539
19611SOL    HW262111  10.294   1.571   8.428 -1.6290 -0.2593 -0.9687
19612SOL     OW62112   6.756   0.865   0.515 -0.2715  0.4365 -0.4029
19612SOL    HW162113   6.783   0.777   0.539 -1.1734  0.5012  0.9435
19612SOL    HW262114   6.785   0.875   0.424  0.7232 -0.8687 -0.2595
19613SOL     OW62115   3.032   2.162  10.994  0.0168  0.3053 -0.0200
19613SOL    HW162116   3.081   2.240  10.966 -1.3698  1.1591 -0.2132
19613SOL    HW262117   3.016   2.114  10.913  2.9426 -1.5151  0.3729
19614SOL     OW62118   6.104   0.279   2.283  0.0772 -0.1050 -0.1370
19614SOL    HW162119   6.171   0.230   2.331 -0.3018 -0.2774  0.2242
19614SOL    HW262120   6.070   0.216   2.219  1.0313  0.3167 -1.0861
19615SOL     OW62121   1.745  10.238   3.561  0.1535  0.1731 -0.4494
19615SOL    HW162122   1.805  10.238   3.635  0.1272  0.1581 -0.4286
19615SOL    HW262123   1.793  10.192   3.492 -0.4875 -1.3559  0.0857
19616SOL     OW62124   7.623   4.355   7.014  0.1680  0.2809 -0.1106
19616SOL    HW162125   7.698   4.298   6.996  1.1697  1.2902  0.6808
19616SOL    HW262126   7.587   4.321   7.096 -0.1051 -0.0573 -0.3669
19617SOL     OW62127   1.627  11.236   4.384  0.9999  0.7710  0.5453
19617SOL    HW162128   1.692  11.245   4.453  1.0614  1.0088  0.4575
19617SOL    HW262129   1.639  11.314   4.329  0.6521  0.8106  0.5216
19618SOL     OW62130  11.253   0.367   6.043  0.1733  0.6229 -0.0703
19618SOL    HW162131  11.280   0.281   6.076  0.6510  1.0791  0.7409
19618SOL    HW262132  11.311   0.383   5.969 -1.2969 -0.6710 -1.5834
19619SOL     OW62133   2.503   8.601   5.646 -0.3687  0.2688 -0.2027
19619SOL    HW162134   2.435   8.590   5.713  0.5534  1.5233  0.9943
19619SOL    HW262135   2.483   8.534   5.580 -2.3583  0.1718  0.4361
19620SOL     OW62136   6.465   7.697  10.749  0.1263 -0.1359  0.2963
19620SOL    HW162137   6.511   7.674  10.829  0.0078  0.8699  0.6720
19620SOL    HW262138   6.519   7.662  10.678  2.1080  1.9868  0.6562
19621SOL     OW62139   8.677   1.991   8.767  0.2530 -0.4194 -0.1702
19621SOL    HW162140   8.608   1.958   8.825  0.6513 -2.0598 -0.5855
19621SOL    HW262141   8.757   1.984   8.819  0.3546 -0.0922 -0.2793
19622SOL     OW62142   2.858   8.010  10.208 -0.1604  0.4763 -0.2680
19622SOL    HW162143   2.896   7.950  10.144 -0.8803  0.3726 -0.6053
19622SOL    HW262144   2.776   8.039  10.168 -0.4218  0.7222  0.4368
19623SOL     OW62145   1.976   4.795   1.302 -0.0707  0.5371  0.4139
19623SOL    HW162146   2.064   4.761   1.316 -0.2003 -0.9016 -1.7682
19623SOL    HW262147   1.986   4.861   1.233 -0.7896 -0.4844 -0.7242
19624SOL     OW62148   2.883   2.803   7.585 -0.2671 -0.3509  0.6290
19624SOL    HW162149   2.816   2.735   7.583 -2.1349  1.2991  2.4599
19624SOL    HW262150   2.834   2.885   7.592  1.9103  1.1510 -0.4142
19625SOL     OW62151   3.782   8.997   1.204 -0.5862 -0.0206 -0.3570
19625SOL    HW162152   3.721   9.056   1.248  0.0506  0.5366 -0.2074
19625SOL    HW262153   3.737   8.973   1.122 -1.0845  0.2129 -0.1576
19626SOL     OW62154   7.740   5.331   6.505 -0.2436 -0.7994 -0.4019
19626SOL    HW162155   7.777   5.352   6.419  1.2353 -0.9177  0.1726
19626SOL    HW262156   7.762   5.239   6.518  0.2998 -0.5594  0.4564
19627SOL     OW62157   9.782  10.991   6.464 -0.3127 -0.2134 -0.2952
19627SOL    HW162158   9.841  11.005   6.390  0.9204 -1.1453  0.4697
19627SOL    HW262159   9.831  11.021   6.541 -0.8805 -0.8799  0.3499
19628SOL     OW62160   2.439   4.792   7.964 -0.8050  0.4133 -0.3598
19628SOL    HW162161   2.463   4.784   7.872  0.1759 -0.3798 -0.0430
19628SOL    HW262162   2.513   4.837   8.004 -0.5983 -0.4967  0.2985
19629SOL     OW62163   4.608   7.685   1.778  0.1340 -0.0060  0.8893
19629SOL    HW162164   4.672   7.671   1.708 -0.9214  1.3963 -0.4196
19629SOL    HW262165   4.653   7.656   1.858  0.8301 -3.1949 -0.4906
19630SOL     OW62166   3.532   1.110   9.692 -0.7476  0.2069 -0.1249
19630SOL    HW162167   3.598   1.176   9.709 -0.9494  0.8419 -1.6965
19630SOL    HW262168   3.454   1.159   9.666 -1.4342 -0.5833  0.3799
19631SOL     OW62169   3.432   2.389   5.204  0.6479  0.1094 -0.1436
19631SOL    HW162170   3.347   2.372   5.163  0.6371 -0.9089  0.2888
19631SOL    HW262171   3.494   2.335   5.154  0.9419  0.3373 -0.0276
19632SOL     OW62172   6.724   6.103   2.668  0.0640  0.3363  0.1276
19632SOL    HW162173   6.629   6.101   2.658  0.1333 -0.6358 -0.4435
19632SOL    HW262174   6.739   6.071   2.757 -0.1362  0.4685  0.2112
19633SOL     OW62175   6.257   9.119   5.384 -0.6673  0.6415  0.1910
19633SOL    HW162176   6.197   9.054   5.421  1.3218 -0.4871  1.6445
19633SOL    HW262177   6.288   9.080   5.302 -0.9710  0.6554  0.0691
19634SOL     OW62178   5.814   8.942   2.522  0.6154 -0.0595  0.1745
19634SOL    HW162179   5.751   8.911   2.586 -0.6024  1.4494 -0.2323
19634SOL    HW262180   5.848   8.863   2.481  0.1120 -0.9674  1.4324
19635SOL     OW62181   4.696   1.111  11.273  0.5696  0.1390  0.6220
19635SOL    HW162182   4.653   1.187  11.235  0.7388 -0.1840 -0.2340
19635SOL    HW262183   4.636   1.038  11.256  0.1128  0.1734  1.9941
19636SOL     OW62184   1.257   1.955   3.647  0.7718  0.9745 -0.3108
19636SOL    HW162185   1.269   1.885   3.582  1.8424  0.3584  0.5299
19636SOL    HW262186   1.169   1.941   3.682  0.8364  0.2876 -0.4245
19637SOL     OW62187   7.303   3.665   3.302  0.2888 -0.3698  0.2825
19637SOL    HW162188   7.289   3.709   3.386  1.3208  0.9408 -0.1860
19637SOL    HW262189   7.397   3.648   3.300  0.4682  0.6484 -1.0632
19638SOL     OW62190   0.160   0.897  10.444  0.0848  0.2572  0.1467
19638SOL    HW162191   0.212   0.913  10.522 -0.0833  1.2781  0.0615
19638SOL    HW262192   0.070   0.894  10.475  0.0723 -0.0046  0.0864
19639SOL     OW62193   8.897   6.756   9.408  0.2657 -0.0263 -0.0672
19639SOL    HW162194   8.831   6.820   9.382  0.8130  1.0791  1.1425
19639SOL    HW262195   8.973   6.778   9.354  0.2989  0.0416  0.0070
19640SOL     OW62196   0.391   3.452   5.720  0.5050 -0.6775  0.1832
19640SOL    HW162197   0.377   3.455   5.625  1.2464  0.2720  0.0928
19640SOL    HW262198   0.424   3.539   5.742 -3.1217  0.4740  1.9046
19641SOL     OW62199   4.223   9.116   7.969 -0.2453  0.2922  0.0112
19641SOL    HW162200   4.247   9.174   8.042 -0.9597 -0.2823  0.7210
19641SOL    HW262201   4.307   9.094   7.929  0.2138  0.2657  0.9391
19642SOL     OW62202  10.535   8.952   2.510 -0.2459 -0.6652 -0.1358
19642SOL    HW162203  10.479   9.028   2.494 -0.1118  0.2263  2.9936
19642SOL    HW262204  10.610   8.988   2.558  1.7721 -2.2520 -1.8832
19643SOL     OW62205   1.245   4.139  11.221 -0.3328 -0.3959  0.5035
19643SOL    HW162206   1.312   4.158  11.286 -0.3811  0.3841  0.3367
19643SOL    HW262207   1.284   4.169  11.138 -0.7533 -0.2424  0.3606
19644SOL     OW62208   6.066   5.865   6.540 -0.5953  0.2145 -0.1246
19644SOL    HW162209   6.066   5.944   6.486 -1.1894  0.2551 -0.0707
19644SOL    HW262210   6.070   5.898   6.630  2.4105  0.1220 -0.1351
19645SOL     OW62211   9.355   5.743   0.065 -0.7628 -0.2410  0.0683
19645SOL    HW162212   9.266   5.739   0.030 -0.0470  0.2070 -1.9664
19645SOL    HW262213   9.405   5.787  -0.004  1.1052 -0.7952  1.0139
19646SOL     OW62214   2.244   3.658   2.223  0.4030  0.5271  0.2992
19646SOL    HW162215   2.277   3.607   2.296  0.0674 -0.2963 -0.1082
19646SOL    HW262216   2.160   3.693   2.253  0.3864  0.3996  0.3986
19647SOL     OW62217   2.660   4.937   0.053  0.1548 -0.7996 -0.2253
19647SOL    HW162218   2.636   5.016   0.005  4.6146  0.6284 -0.6097
19647SOL    HW262219   2.667   4.869  -0.015  3.0117  0.3650 -1.2970
19648SOL     OW62220   8.959  10.622  10.439  0.1822 -0.0046 -0.5632
19648SOL    HW162221   8.957  10.710  10.477 -1.7716 -0.1445 -0.2155
19648SOL    HW262222   8.906  10.630  10.360  0.8617 -0.6546 -1.0936
19649SOL     OW62223  11.089   1.756   9.035 -0.0541  0.3420 -0.7999
19649SOL    HW162224  11.058   1.705   9.110  0.9757 -1.1160 -1.3382
19649SOL    HW262225  11.009   1.776   8.986 -0.4163 -1.4758 -1.0131
19650SOL     OW62226   2.199   1.727   1.605 -0.0030  0.0521 -0.0766
19650SOL    HW162227   2.243   1.782   1.540  2.1889 -0.6617  0.7454
19650SOL    HW262228   2.222   1.638   1.581 -0.4093 -0.3049  0.8240
19651SOL     OW62229   5.813   5.105   2.183 -0.2113 -0.4238  0.1526
19651SOL    HW162230   5.903   5.118   2.213 -0.0411  0.2685 -0.6107
19651SOL    HW262231   5.760   5.107   2.262  0.4312 -0.7194  0.6006
19652SOL     OW62232   6.899   3.083   7.836  0.0845 -0.3181 -0.3537
19652SOL    HW162233   6.895   3.080   7.932  0.6859  3.0977 -0.1196
19652SOL    HW262234   6.911   2.991   7.811 -1.1302 -1.4690  2.7345
19653SOL     OW62235   3.892   6.361   6.056  0.0634 -0.2328 -0.1952
19653SOL    HW162236   3.926   6.277   6.024  0.4273  0.6830 -2.3949
19653SOL    HW262237   3.955   6.390   6.121 -0.4192 -1.9408  1.1110
19654SOL     OW62238   8.690  10.167   2.057 -0.3049 -0.4606  0.2262
19654SOL    HW162239   8.722  10.191   2.144 -0.1661 -0.2521  0.1205
19654SOL    HW262240   8.662  10.076   2.065  2.3639 -1.4024 -0.2189
19655SOL     OW62241   1.748   8.406   1.277 -0.3463 -0.3125 -0.0442
19655SOL    HW162242   1.809   8.476   1.252  0.0071 -0.4512  0.4285
19655SOL    HW262243   1.670   8.423   1.224  0.6613 -1.0511 -1.8655
19656SOL     OW62244   1.917   5.546   7.635  0.5338 -0.0519  0.2437
19656SOL    HW162245   1.934   5.639   7.620  0.5263 -0.5063 -3.4922
19656SOL    HW262246   1.897   5.511   7.548  0.6465 -3.5905  1.4902
19657SOL     OW62247   4.821   1.241   7.245 -0.1480  0.5492 -0.8546
19657SOL    HW162248   4.731   1.258   7.217 -0.0267  2.5884 -0.1850
19657SOL    HW262249   4.833   1.298   7.321  1.0618 -1.2251  0.3637
19658SOL     OW62250   2.454   8.559   6.169 -0.1147 -0.0693 -0.2387
19658SOL    HW162251   2.473   8.488   6.108 -0.2155 -0.2213 -0.0920
19658SOL    HW262252   2.423   8.516   6.248 -4.1700  0.1827 -1.4565
19659SOL     OW62253   9.627   0.321   6.238  0.0814 -0.0934  0.2687
19659SOL    HW162254   9.588   0.277   6.163 -2.0498  0.1463  1.1703
19659SOL    HW262255   9.673   0.251   6.285 -1.0982 -0.8760  0.3047
19660SOL     OW62256   2.448   0.326   7.569  0.0482 -0.8215  0.3192
19660SOL    HW162257   2.382   0.335   7.638 -0.3001 -1.1367  0.0334
19660SOL    HW262258   2.404   0.277   7.500 -0.3327  1.4087 -1.0999
19661SOL     OW62259   3.127   7.476   0.347 -0.1328 -0.0888  0.2389
19661SOL    HW162260   3.180   7.537   0.398 -1.4941 -0.2809  1.9612
19661SOL    HW262261   3.180   7.457   0.270  1.6562  0.8518  1.1816
19662SOL     OW62262  10.667   4.944   7.439 -0.0264 -0.1269 -0.6330
19662SOL    HW162263  10.600   4.919   7.376  0.7906  0.3797 -1.7449
19662SOL    HW262264  10.716   4.864   7.457  1.1241  0.1370 -2.3815
19663SOL     OW62265   6.714   4.829  10.166 -0.0582 -0.0993  0.3709
19663SOL    HW162266   6.771   4.879  10.107 -1.8008  1.5433 -0.0451
19663SOL    HW262267   6.701   4.887  10.241 -2.8423  0.5718 -0.5192
19664SOL     OW62268   1.157   8.228  11.232  0.2361  0.0705  0.0759
19664SOL    HW162269   1.121   8.207  11.146  2.8876 -1.2672 -0.8146
19664SOL    HW262270   1.207   8.308  11.218  0.6973 -0.1635  0.3901
19665SOL     OW62271   9.477   4.115  11.007  0.1050 -0.3833 -0.5600
19665SOL    HW162272   9.511   4.028  10.985 -0.3955 -0.3267 -1.6371
19665SOL    HW262273   9.426   4.141  10.930  0.3217  0.9063 -0.2952
19666SOL     OW62274   5.508   3.255   5.415 -0.4588 -0.2810  0.0161
19666SOL    HW162275   5.576   3.320   5.433 -0.0752 -0.6698 -0.0131
19666SOL    HW262276   5.503   3.203   5.496 -1.5326  0.4583  0.4470
19667SOL     OW62277   0.745   0.588   3.205 -0.2035  0.0843 -0.1702
19667SOL    HW162278   0.746   0.498   3.237  0.4914 -0.4253 -1.5010
19667SOL    HW262279   0.833   0.601   3.169  0.1490  1.7664  1.1734
19668SOL     OW62280   0.046   0.351   4.634 -0.0206 -0.2171  0.4632
19668SOL    HW162281  -0.026   0.334   4.694  0.7288  0.6961  1.6651
19668SOL    HW262282   0.098   0.419   4.677  0.5845  0.4299 -1.1869
19669SOL     OW62283  10.846   5.943   9.199  0.6240 -0.0159  0.2651
19669SOL    HW162284  10.901   5.881   9.247 -0.7380 -1.6602 -0.1990
19669SOL    HW262285  10.770   5.957   9.257 -0.0374 -0.3948 -0.4833
19670SOL     OW62286   1.557  10.889   0.208 -0.4418 -0.0062 -0.3083
19670SOL    HW162287   1.563  10.802   0.247  0.8472 -0.5126 -1.5488
19670SOL    HW262288   1.528  10.873   0.118 -0.1579  0.8291 -0.5577
19671SOL     OW62289   2.668   3.124   0.015  0.1686 -0.7714 -0.2221
19671SOL    HW162290   2.615   3.204   0.018 -2.1926 -2.2408 -0.1887
19671SOL    HW262291   2.757   3.153   0.037 -0.6579  1.7790  0.0589
19672SOL     OW62292   4.431  10.519   8.542 -0.0976  0.3709 -0.7073
19672SOL    HW162293   4.440  10.611   8.566 -3.1126  0.0060  2.8285
19672SOL    HW262294   4.514  10.479   8.569  0.7913  1.8237 -1.1706
19673SOL     OW62295   5.390   2.916   8.558  0.0833  0.1861  0.4336
19673SOL    HW162296   5.320   2.890   8.618 -0.6035 -2.6575 -1.4049
19673SOL    HW262297   5.345   2.939   8.477  1.1307  1.7409  0.2425
19674SOL     OW62298   2.717   4.804   9.633  0.6234 -0.3678 -0.3582
19674SOL    HW162299   2.802   4.780   9.594  1.8173 -2.0961  2.9381
19674SOL    HW262300   2.670   4.721   9.641 -0.6376  0.3155 -0.4089
19675SOL     OW62301   5.958   3.313   1.961  0.0718  0.4903  0.0267
19675SOL    HW162302   6.042   3.353   1.938 -0.0333  0.9825  0.4685
19675SOL    HW262303   5.940   3.251   1.891  0.7957  0.3990 -0.0826
19676SOL     OW62304   0.791  10.803   6.716  0.2734  0.5733 -0.2903
19676SOL    HW162305   0.725  10.734   6.712  1.0028 -0.1146 -0.7254
19676SOL    HW262306   0.857  10.768   6.776  1.0158  0.5611 -1.1061
19677SOL     OW62307   3.853   9.156   9.580  0.1317  0.2436  0.0358
19677SOL    HW162308   3.817   9.095   9.645 -1.4351  0.4567 -0.5820
19677SOL    HW262309   3.849   9.107   9.497  1.3902  0.2452 -0.0359
19678SOL     OW62310  10.026   8.944   8.518  0.6259  0.6927 -0.3173
19678SOL    HW162311   9.985   8.958   8.433  0.0501  0.4089 -0.0970
19678SOL    HW262312   9.962   8.892   8.567  1.2455  0.2534  0.0460
19679SOL     OW62313   2.812   4.106  10.860  0.3975  0.1819  0.2315
19679SOL    HW162314   2.857   4.107  10.775 -0.9704 -0.8900 -0.5385
19679SOL    HW262315   2.792   4.198  10.877 -0.9854  0.2590 -1.5569
19680SOL     OW62316   8.522   4.074   7.387  0.2722  0.7018 -0.0611
19680SOL    HW162317   8.486   3.997   7.344 -1.7589  0.0070  2.6387
19680SOL    HW262318   8.614   4.052   7.402  0.2244 -0.3188 -1.1697
19681SOL     OW62319  11.116   0.077   4.058 -0.7723 -0.3970  0.2603
19681SOL    HW162320  11.157  -0.001   4.020 -0.6768 -0.3278  0.2197
19681SOL    HW262321  11.023   0.056   4.062 -0.7758 -0.4277  0.0413
19682SOL     OW62322   4.568  10.752   1.403 -0.1435 -0.2968  0.1074
19682SOL    HW162323   4.589  10.846   1.400  0.1471 -0.3146  1.3715
19682SOL    HW262324   4.651  10.709   1.421 -0.2698 -0.8184 -0.4964
19683SOL     OW62325   0.525   3.531   8.074  0.5871  0.1135 -0.0709
19683SOL    HW162326   0.528   3.506   8.167 -1.4137  0.1326  0.0410
19683SOL    HW262327   0.469   3.464   8.034  1.4966  0.0612 -1.2935
19684SOL     OW62328   9.271   8.961   1.649  0.4012 -0.2341 -0.2118
19684SOL    HW162329   9.289   8.938   1.740  0.9405 -0.1535 -0.2982
19684SOL    HW262330   9.351   8.939   1.602  0.6547  1.0525 -0.4282
19685SOL     OW62331   9.174   9.058   4.596 -0.2993  0.0609  0.1399
19685SOL    HW162332   9.196   9.149   4.617  2.2441 -0.0775 -1.4650
19685SOL    HW262333   9.193   9.010   4.677  0.6349  0.6828  0.3132
19686SOL     OW62334  10.607   9.752   5.978 -0.6108 -0.7246  0.2236
19686SOL    HW162335  10.621   9.680   6.040 -0.7250 -1.2588 -0.3563
19686SOL    HW262336  10.690   9.759   5.931 -0.7025 -0.6935  0.0652
19687SOL     OW62337   4.278   7.206   3.020 -0.6933  0.0069 -0.3188
19687SOL    HW162338   4.372   7.212   3.005 -0.4199  0.6028  1.4645
19687SOL    HW262339   4.254   7.120   2.985  0.2693  0.3287 -1.8665
19688SOL     OW62340   1.571   6.469   5.497 -0.0792  0.0862 -0.0452
19688SOL    HW162341   1.507   6.522   5.544 -0.3887  0.0880 -0.4572
19688SOL    HW262342   1.518   6.410   5.443  0.2525 -1.2184  1.0296
19689SOL     OW62343   6.647   2.059   0.209  0.3495  0.0561  0.0847
19689SOL    HW162344   6.600   2.024   0.285  2.0083  0.1479  1.1963
19689SOL    HW262345   6.580   2.109   0.161 -0.5151  0.9912  2.1159
19690SOL     OW62346  11.001   9.002   9.070 -0.0245 -0.1711 -0.2554
19690SOL    HW162347  10.957   8.920   9.050 -0.3658 -0.3823  1.2201
19690SOL    HW262348  10.944   9.044   9.135  1.4361  0.0143  0.9464
19691SOL     OW62349   2.663   3.053   2.139 -0.3511 -0.4294  0.0703
19691SOL    HW162350   2.649   3.080   2.048  0.7146 -0.6589 -0.1766
19691SOL    HW262351   2.669   3.136   2.187  3.5799 -0.0136 -0.7886
19692SOL     OW62352   6.978   8.037  10.415 -0.3100 -0.4604  0.1913
19692SOL    HW162353   6.946   7.982  10.344  1.9221 -0.8794 -0.5611
19692SOL    HW262354   7.051   7.987  10.453  0.7381  1.2568  0.5330
19693SOL     OW62355   8.561   6.913   3.467  0.0983 -0.3739  0.0480
19693SOL    HW162356   8.571   6.818   3.479  3.3998 -0.1524 -0.0684
19693SOL    HW262357   8.595   6.929   3.379 -1.5154  0.8356 -0.3970
19694SOL     OW62358   7.141   3.573   2.323  0.0006 -0.0846  0.2971
19694SOL    HW162359   7.139   3.640   2.255  1.6543 -1.6582 -1.4593
19694SOL    HW262360   7.209   3.602   2.383 -0.3202  0.5180  0.3773
19695SOL     OW62361   5.046   2.938   9.665  0.4462  0.7670 -0.0196
19695SOL    HW162362   5.050   2.958   9.758  1.8542  0.8194 -0.0734
19695SOL    HW262363   5.113   2.993   9.625 -0.5670  1.2247 -1.1704
19696SOL     OW62364   0.637   4.388   2.779 -0.0222 -0.7304 -0.0385
19696SOL    HW162365   0.632   4.358   2.688  1.0185  0.4224 -0.4956
19696SOL    HW262366   0.659   4.309   2.829  0.2979 -1.2016 -0.9016
19697SOL     OW62367   9.458   2.585   9.373 -0.2106 -0.2301 -0.1206
19697SOL    HW162368   9.520   2.625   9.311  0.5243  0.3690  0.9695
19697SOL    HW262369   9.477   2.491   9.368 -2.1082 -0.5954 -2.8710
19698SOL     OW62370   9.358   7.103   3.910 -0.0291 -0.7129  0.2677
19698SOL    HW162371   9.418   7.050   3.962 -1.6368 -0.1962  2.8428
19698SOL    HW262372   9.381   7.193   3.932 -1.1755 -0.5048  0.6813
19699SOL     OW62373   4.297   8.780   4.513  0.8019  0.2838 -0.0285
19699SOL    HW162374   4.268   8.780   4.604  0.2156 -2.2720 -0.1410
19699SOL    HW262375   4.234   8.836   4.468 -1.4607 -1.6946  0.4833
19700SOL     OW62376   5.621   8.528  10.024 -0.1786 -0.4696  0.3322
19700SOL    HW162377   5.566   8.555  10.098 -1.6225 -2.6366  0.1263
19700SOL    HW262378   5.559   8.513   9.953  0.5494 -3.4773  0.2257
19701SOL     OW62379   9.842   6.938   2.815  0.2915  0.0571  0.4066
19701SOL    HW162380   9.817   6.937   2.722  1.5588 -3.7713 -0.0477
19701SOL    HW262381   9.922   6.991   2.817  0.1471  0.3410 -0.6513
19702SOL     OW62382   3.329   4.948   7.400 -0.2191 -0.7661 -0.1835
19702SOL    HW162383   3.347   4.875   7.460  1.1696  0.2317  0.6714
19702SOL    HW262384   3.368   5.024   7.443 -0.1095  0.1736 -1.8850
19703SOL     OW62385   7.046   6.463   4.686 -0.2901  0.2479  0.2170
19703SOL    HW162386   7.097   6.463   4.604 -1.6481 -0.1286 -0.6570
19703SOL    HW262387   7.054   6.373   4.718 -0.0521  0.3023  0.3132
19704SOL     OW62388   5.551   7.009   4.149 -0.0182 -0.0802 -0.9610
19704SOL    HW162389   5.541   7.003   4.054  1.2747 -2.1739 -1.0237
19704SOL    HW262390   5.645   7.001   4.164 -0.2378 -0.1263  0.5336
19705SOL     OW62391   5.877   8.464   6.433 -0.5587 -0.4564  0.7715
19705SOL    HW162392   5.784   8.444   6.444 -0.4908 -0.3623  1.5643
19705SOL    HW262393   5.920   8.379   6.429 -0.6440 -0.4985  0.7611
19706SOL     OW62394   6.654   4.280   9.698  0.2429  0.1920 -0.2461
19706SOL    HW162395   6.695   4.347   9.752  0.6165  0.2628 -0.6176
19706SOL    HW262396   6.714   4.268   9.624  1.3143 -2.1555  0.9242
19707SOL     OW62397   1.992   0.112   8.433 -0.1836 -0.2320  0.5863
19707SOL    HW162398   1.935   0.037   8.451 -1.1226  0.2708 -0.1914
19707SOL    HW262399   2.080   0.082   8.459 -0.5502 -1.5578  0.3816
19708SOL     OW62400   9.958   7.316   9.548 -0.4812 -0.1459  0.0955
19708SOL    HW162401   9.937   7.407   9.570 -1.0296 -0.4525  0.8959
19708SOL    HW262402   9.967   7.272   9.633 -0.7628 -0.9562 -0.2829
19709SOL     OW62403  10.781  11.044   1.595  0.2224  0.4067 -0.1940
19709SOL    HW162404  10.841  11.007   1.660 -0.7127 -0.5106  0.1699
19709SOL    HW262405  10.761  10.971   1.537 -1.4960  0.3559  0.4129
19710SOL     OW62406   9.145   2.225   7.573  0.2088 -0.0590 -0.9592
19710SOL    HW162407   9.209   2.293   7.596  0.2238 -0.5619  0.5800
19710SOL    HW262408   9.060   2.264   7.593  0.2797 -1.0387  1.6941
19711SOL     OW62409   9.502  10.540   3.652 -0.2262 -0.6079 -0.1031
19711SOL    HW162410   9.453  10.461   3.677 -0.1004 -0.6915 -0.1185
19711SOL    HW262411   9.593  10.509   3.642 -0.1493 -0.4306  0.0411
19712SOL     OW62412  10.528   2.589   0.644  0.1090 -0.2643  0.5832
19712SOL    HW162413  10.443   2.585   0.687  0.7642 -1.0586  1.8622
19712SOL    HW262414  10.510   2.566   0.553 -1.0050 -0.6697  0.8924
19713SOL     OW62415  10.725   1.603   8.169  0.5074 -0.0284 -0.1828
19713SOL    HW162416  10.816   1.596   8.199  0.1669 -0.1150  0.8794
19713SOL    HW262417  10.729   1.659   8.092  1.0237  3.0818  1.9553
19714SOL     OW62418   0.599   0.319   2.211 -0.0807  0.4096  0.9662
19714SOL    HW162419   0.654   0.396   2.226  0.7918 -0.4142  2.2190
19714SOL    HW262420   0.649   0.266   2.149  0.1066  0.0920  1.3856
19715SOL     OW62421   9.712   1.879   8.679 -0.4053 -0.8898  0.6260
19715SOL    HW162422   9.664   1.956   8.646  0.1430 -0.9608 -0.3507
19715SOL    HW262423   9.778   1.916   8.738  0.7489 -0.4705 -0.8789
19716SOL     OW62424   9.749   7.961   4.362  0.4924 -0.4712 -0.1129
19716SOL    HW162425   9.711   8.040   4.402 -0.6231 -0.8842 -0.3197
19716SOL    HW262426   9.840   7.985   4.343  0.6495  0.1983  1.3656
19717SOL     OW62427   3.484   3.872   9.067  0.5483 -0.6426  0.3865
19717SOL    HW162428   3.397   3.870   9.107  0.6512 -0.5919  0.6133
19717SOL    HW262429   3.467   3.870   8.972  0.2590  0.6243  0.3887
19718SOL     OW62430   7.834   0.466   5.794  0.2386  0.0096  0.4325
19718SOL    HW162431   7.833   0.484   5.888  0.0719  0.6592  0.3101
19718SOL    HW262432   7.927   0.464   5.771  0.2745  1.6436  0.2910
19719SOL     OW62433   5.942   9.779   2.046 -0.5520 -0.2732 -0.6835
19719SOL    HW162434   6.022   9.763   1.997  0.0011 -2.5315  0.8508
19719SOL    HW262435   5.887   9.830   1.985  1.5841  0.4075 -2.1452
19720SOL     OW62436   1.879   2.402   0.900  0.5226 -0.2514 -0.4364
19720SOL    HW162437   1.815   2.381   0.969 -0.3873  0.5581 -1.0032
19720SOL    HW262438   1.943   2.459   0.944  0.5315 -0.5965 -0.0014
19721SOL     OW62439   8.921   1.853   0.006  0.4491  0.0705  0.0144
19721SOL    HW162440   8.842   1.809   0.037 -0.4498  0.4893 -1.5846
19721SOL    HW262441   8.974   1.782  -0.031 -0.5664  0.1392 -1.6717
19722SOL     OW62442   0.432   7.828   1.671  0.1278 -0.3035 -0.6806
19722SOL    HW162443   0.526   7.841   1.656  0.1077  0.5127 -0.1963
19722SOL    HW262444   0.421   7.839   1.765 -0.4319 -0.5826 -0.7086
19723SOL     OW62445   7.684   7.242   0.490  0.0429  0.5100 -0.1492
19723SOL    HW162446   7.618   7.285   0.544  1.0918 -1.1075  2.6377
19723SOL    HW262447   7.765   7.289   0.508  0.2861  0.4007 -0.9107
19724SOL     OW62448   0.640   4.093   2.143 -0.0155  0.4717  0.6846
19724SOL    HW162449   0.679   4.060   2.062 -0.4211  0.1958  0.5965
19724SOL    HW262450   0.706   4.077   2.210  0.3126  0.6737  0.4156
19725SOL     OW62451   4.603   1.491   2.122  0.0476  0.7311  0.6990
19725SOL    HW162452   4.548   1.569   2.130  0.1028  1.2032 -2.2016
19725SOL    HW262453   4.554   1.421   2.164 -1.8737  1.5753 -0.0506
19726SOL     OW62454   2.910   9.917   8.038 -0.1041  0.1281  0.1758
19726SOL    HW162455   2.865   9.966   8.107 -0.0527 -0.8806  0.9499
19726SOL    HW262456   2.984   9.973   8.013  0.7355 -0.1157  1.9843
19727SOL     OW62457   7.652   0.417  10.646 -0.0297  0.1503 -0.4173
19727SOL    HW162458   7.711   0.376  10.583  1.4279  0.9475  0.3761
19727SOL    HW262459   7.697   0.497  10.673 -0.0318 -0.7539  2.5402
19728SOL     OW62460   5.257   7.907   3.436  0.2379 -0.1952  0.7049
19728SOL    HW162461   5.293   7.993   3.458  1.3262 -0.7794  1.2896
19728SOL    HW262462   5.256   7.905   3.340  2.1383 -0.2912  0.6563
19729SOL     OW62463   4.559   6.416   1.313 -0.0882  0.5051  0.7399
19729SOL    HW162464   4.524   6.479   1.376 -2.2499 -0.8378  0.9628
19729SOL    HW262465   4.592   6.344   1.367 -1.4493 -0.4041  0.4171
19730SOL     OW62466   6.945  10.811   1.963  0.0296  0.0632  0.0870
19730SOL    HW162467   7.030  10.779   1.993 -0.1777 -0.6749 -0.1038
19730SOL    HW262468   6.945  10.795   1.869  0.8714  2.8027 -0.4816
19731SOL     OW62469   7.052   7.609  11.393 -0.3393 -0.3960 -0.0245
19731SOL    HW162470   7.075   7.583  11.304 -1.2146  0.3214 -0.4808
19731SOL    HW262471   7.078   7.701  11.399 -0.9657 -0.2243  0.1917
19732SOL     OW62472   4.611  10.657   4.136 -0.1555  0.2685 -0.3695
19732SOL    HW162473   4.696  10.626   4.104 -0.8801 -0.6196 -1.5262
19732SOL    HW262474   4.580  10.587   4.193 -0.2442  0.4490 -0.1958
19733SOL     OW62475   4.155   1.575  10.579 -0.1886 -0.0355 -0.0120
19733SOL    HW162476   4.182   1.608  10.494 -1.4932  0.9781 -0.0692
19733SOL    HW262477   4.113   1.491  10.560 -1.3661  0.6447 -0.5184
19734SOL     OW62478   3.484  10.431   1.868  0.5801  0.1156  0.1164
19734SOL    HW162479   3.506  10.439   1.775 -0.6389  1.1885 -0.1103
19734SOL    HW262480   3.496  10.520   1.902  1.1989 -0.3122  1.0385
19735SOL     OW62481   4.850   7.139   3.492  0.4678 -0.0663  0.2973
19735SOL    HW162482   4.870   7.214   3.548 -1.6114  0.8027 -0.0201
19735SOL    HW262483   4.881   7.165   3.405  0.0499  0.3085  0.2563
19736SOL     OW62484  11.034   2.714  10.185  0.1031 -0.1514 -0.2337
19736SOL    HW162485  11.019   2.801  10.223  2.6380  0.5519 -0.6654
19736SOL    HW262486  10.947   2.679  10.170 -1.0340  2.8308 -1.2210
19737SOL     OW62487   3.657   2.750   9.451 -0.4183 -0.2028  0.0344
19737SOL    HW162488   3.602   2.825   9.472 -0.1052  0.3634 -1.0832
19737SOL    HW262489   3.707   2.734   9.531  0.1907  1.3795 -0.0028
19738SOL     OW62490   1.425   0.033   0.073  0.0328  0.3482 -0.8575
19738SOL    HW162491   1.476  -0.023   0.133  1.1078 -0.0009 -2.0397
19738SOL    HW262492   1.336   0.028   0.106  0.0775 -2.0767 -0.8798
19739SOL     OW62493   8.222   2.877   9.888  0.4151 -0.1676 -0.1012
19739SOL    HW162494   8.257   2.850   9.973  0.9987 -0.6040 -0.4779
19739SOL    HW262495   8.255   2.812   9.826 -2.8610 -1.9841 -0.1908
19740SOL     OW62496   5.633   5.823   8.494  0.3979  0.3115  0.5199
19740SOL    HW162497   5.725   5.801   8.507  0.2042 -0.9930 -0.1658
19740SOL    HW262498   5.609   5.779   8.412 -1.1261 -0.3176  1.2667
19741SOL     OW62499   1.436   3.323   4.835 -0.7608  0.7871 -0.1104
19741SOL    HW162500   1.487   3.243   4.820 -0.2216  1.1465 -0.2459
19741SOL    HW262501   1.345   3.296   4.825 -0.5652  0.2705 -0.5527
19742SOL     OW62502   5.051   0.372   0.905 -0.3749  0.1281 -0.2162
19742SOL    HW162503   5.077   0.355   0.815 -0.9744  1.2246 -0.6156
19742SOL    HW262504   5.102   0.449   0.930  0.1094 -0.4218  0.5450
19743SOL     OW62505   0.286  10.194   4.136  0.3891 -0.5289  0.0109
19743SOL    HW162506   0.250  10.213   4.223 -1.2995 -1.6069 -0.4073
19743SOL    HW262507   0.339  10.271   4.116 -1.6428  1.1622  0.7341
19744SOL     OW62508  10.961   7.450   9.663 -0.0199 -0.2645 -0.4536
19744SOL    HW162509  11.026   7.494   9.717  2.2978 -0.6211 -2.7437
19744SOL    HW262510  10.929   7.518   9.603 -0.5798 -0.4571 -0.3804
19745SOL     OW62511   4.385   9.182   2.562 -0.0987  0.4971  0.2624
19745SOL    HW162512   4.297   9.151   2.584 -0.4656  0.8546 -0.6423
19745SOL    HW262513   4.436   9.167   2.641 -1.4395  2.0758  1.5105
19746SOL     OW62514   2.478   3.705   3.969  0.2579 -0.3638 -0.5372
19746SOL    HW162515   2.414   3.740   4.032  0.4982  0.7777 -0.9116
19746SOL    HW262516   2.505   3.622   4.007  0.1337  0.1380  0.7015
19747SOL     OW62517   9.013   2.954   9.763 -1.0252 -0.4546 -0.6810
19747SOL    HW162518   9.042   2.916   9.680 -0.7425 -0.5225 -0.5534
19747SOL    HW262519   8.975   3.039   9.739 -0.9969 -0.4988 -0.8849
19748SOL     OW62520   0.656   5.124   3.044  0.3043 -0.0610 -0.1880
19748SOL    HW162521   0.674   5.099   3.135  0.4992 -0.8836 -0.4444
19748SOL    HW262522   0.683   5.048   2.992  0.3103  0.4442 -0.9483
19749SOL     OW62523  11.191  10.511   3.140 -0.4793 -0.7859 -0.1678
19749SOL    HW162524  11.263  10.518   3.202  1.0831  1.7962 -2.0721
19749SOL    HW262525  11.189  10.419   3.116  1.1893 -1.1937  1.0632
19750SOL     OW62526   1.732   1.169   9.220 -0.3533 -0.5189  0.0745
19750SOL    HW162527   1.807   1.223   9.195  0.7782 -1.5051  1.2259
19750SOL    HW262528   1.705   1.203   9.306 -1.4050 -0.0112 -0.4369
19751SOL     OW62529   3.026   8.922   0.354 -0.2049  0.8834  0.0599
19751SOL    HW162530   3.070   8.838   0.363 -0.6822  0.6154 -0.0611
19751SOL    HW262531   3.004   8.948   0.443 -2.7490 -0.5878 -0.0322
19752SOL     OW62532   7.346  11.196   9.971  0.2626 -0.7401 -0.2679
19752SOL    HW162533   7.426  11.176  10.021 -0.5431 -2.3789  0.4483
19752SOL    HW262534   7.356  11.288   9.947  2.3760 -0.8936 -0.2195
19753SOL     OW62535  10.715   6.300   7.001 -0.0267 -0.0075  0.4580
19753SOL    HW162536  10.646   6.361   7.026 -0.2509 -0.3022  0.5552
19753SOL    HW262537  10.671   6.216   6.990 -0.3105  0.4103 -2.6297
19754SOL     OW62538   7.002   5.819   2.827 -0.3193  0.8835 -0.1111
19754SOL    HW162539   7.049   5.843   2.747 -1.1985 -3.4717 -2.2461
19754SOL    HW262540   6.910   5.832   2.805 -0.5081  1.6147  1.0331
19755SOL     OW62541   8.364   2.854   3.319  0.3160 -0.1433  0.2498
19755SOL    HW162542   8.398   2.764   3.319  2.0410  0.4728  1.4386
19755SOL    HW262543   8.414   2.899   3.251 -1.6938 -0.4212 -1.5209
19756SOL     OW62544   4.534   0.565   0.345 -0.3565 -0.2418  0.4017
19756SOL    HW162545   4.573   0.499   0.403  1.7352  0.8463  0.3472
19756SOL    HW262546   4.578   0.551   0.261  2.8460  3.2830  1.2265
19757SOL     OW62547   0.486   6.495   7.339 -0.1968  0.1510 -0.5003
19757SOL    HW162548   0.523   6.407   7.326  0.0750  0.2021 -0.0825
19757SOL    HW262549   0.392   6.481   7.336 -0.1705 -0.2556  0.1348
19758SOL     OW62550   6.680   3.559   6.383 -0.3161 -0.6003 -0.1500
19758SOL    HW162551   6.681   3.484   6.442  0.7432  0.9415  1.9117
19758SOL    HW262552   6.760   3.551   6.332  0.7980  0.0858  1.4200
19759SOL     OW62553   1.344   7.582   0.933  0.1117  0.1657  0.3475
19759SOL    HW162554   1.292   7.564   0.855  0.5012 -0.4006  0.2135
19759SOL    HW262555   1.410   7.644   0.904  1.1426 -1.1127 -0.1427
19760SOL     OW62556   9.954   7.229   9.818  0.0195  0.1667 -0.0683
19760SOL    HW162557   9.912   7.146   9.839  0.5380 -0.2140 -0.4861
19760SOL    HW262558  10.047   7.212   9.833  0.1312  0.6511 -0.2143
19761SOL     OW62559   4.224   2.136   3.681  0.2002  0.0519 -0.0128
19761SOL    HW162560   4.244   2.049   3.714 -0.1935  0.0524  0.2351
19761SOL    HW262561   4.199   2.123   3.590  0.4588 -0.0532 -0.0701
19762SOL     OW62562   7.056   2.765   6.063 -0.1098  0.0636  0.0155
19762SOL    HW162563   7.105   2.684   6.048  0.3845  0.8483 -3.5977
19762SOL    HW262564   6.964   2.738   6.054  0.0318 -0.2094 -0.7034
19763SOL     OW62565   8.931   5.181   5.963  0.1224 -0.0297 -0.1536
19763SOL    HW162566   8.929   5.277   5.965 -0.2815  0.0165 -1.8608
19763SOL    HW262567   9.002   5.158   6.023 -0.1307  1.3048  0.7128
19764SOL     OW62568   5.089   7.547   1.414  0.4706 -0.3656 -0.0866
19764SOL    HW162569   5.137   7.609   1.359  0.4279 -0.6494 -0.4460
19764SOL    HW262570   5.137   7.548   1.497  0.4023  0.2351 -0.0460
19765SOL     OW62571   1.211   9.493   7.821 -0.1987  0.3175  0.1480
19765SOL    HW162572   1.165   9.433   7.762  1.0621 -1.5873  0.9887
19765SOL    HW262573   1.147   9.514   7.889 -0.2780 -1.2615  0.6046
19766SOL     OW62574   0.246   7.989   1.254  0.6936 -0.3260 -0.1978
19766SOL    HW162575   0.233   7.963   1.163 -0.3533 -0.8914  0.1009
19766SOL    HW262576   0.158   8.002   1.289  1.0639 -0.4272  0.8238
19767SOL     OW62577  10.414   3.613   8.126  0.0874  0.1118  0.0233
19767SOL    HW162578  10.429   3.614   8.220  0.4312 -0.4532 -0.0160
19767SOL    HW262579  10.498   3.640   8.088  0.1102 -0.1595 -0.1272
19768SOL     OW62580   4.178  11.206   6.632  0.4572 -0.6570 -0.5548
19768SOL    HW162581   4.201  11.131   6.577  0.2196 -0.7319 -0.5515
19768SOL    HW262582   4.085  11.196   6.650  0.8015 -1.3205  0.9457
19769SOL     OW62583   0.130   2.424   1.525  0.8050 -0.0286  0.0382
19769SOL    HW162584   0.195   2.493   1.515 -1.4024  2.0525 -1.1094
19769SOL    HW262585   0.072   2.455   1.594 -1.1341  0.1248 -1.5491
19770SOL     OW62586   1.881   4.012   8.260 -0.7976 -0.4471 -0.0376
19770SOL    HW162587   1.930   3.951   8.316 -1.9168  0.0480  1.5424
19770SOL    HW262588   1.914   3.995   8.172  0.9406 -1.3486  0.7343
19771SOL     OW62589   0.285   6.025   2.301  0.0607 -0.1272 -0.4003
19771SOL    HW162590   0.246   6.082   2.367 -1.2192 -1.4250  0.0425
19771SOL    HW262591   0.366   5.993   2.342 -0.1842 -0.1007  0.1235
19772SOL     OW62592   3.633   2.648   7.754 -0.3110  0.1079  0.1542
19772SOL    HW162593   3.581   2.570   7.738 -0.1022  0.0269 -0.1454
19772SOL    HW262594   3.577   2.704   7.808 -0.5237 -0.1768  0.2323
19773SOL     OW62595   0.028   4.032   3.330  0.2454 -0.1805  0.4336
19773SOL    HW162596   0.093   3.976   3.286  0.9492 -0.0363  1.2513
19773SOL    HW262597  -0.023   3.971   3.384  0.6110 -0.1273  0.8497
19774SOL     OW62598   1.842   8.823   8.810 -0.1046  0.1016 -0.2766
19774SOL    HW162599   1.816   8.863   8.727  0.9450 -0.7194 -1.0159
19774SOL    HW262600   1.780   8.751   8.822 -0.9647  0.8965  0.2428
19775SOL     OW62601   5.541   1.653   9.278 -0.1755  0.2152  0.3798
19775SOL    HW162602   5.548   1.631   9.185  1.9693  0.7414  0.3616
19775SOL    HW262603   5.631   1.649   9.310 -0.9005 -0.2447  2.5263
19776SOL     OW62604   8.718   8.776   6.102  0.3543 -0.3203 -0.2809
19776SOL    HW162605   8.763   8.824   6.032  1.3229  0.5434  0.8814
19776SOL    HW262606   8.674   8.844   6.153  1.8716 -0.5922  1.4792
19777SOL     OW62607   4.991   6.409   1.342  0.0607  0.4024 -0.0231
19777SOL    HW162608   5.009   6.497   1.309  0.1364  0.3335 -0.1633
19777SOL    HW262609   5.070   6.359   1.323 -0.1660  0.1768 -0.3804
19778SOL     OW62610   6.762   0.109  10.709 -0.5637  0.1853 -0.3802
19778SOL    HW162611   6.672   0.118  10.678 -0.4113  0.9307 -0.6137
19778SOL    HW262612   6.795   0.032  10.663 -0.7029  0.6147 -1.2110
19779SOL     OW62613   7.984   3.199   8.432 -0.2588  0.2953 -0.5127
19779SOL    HW162614   7.979   3.111   8.393 -1.0947  0.6987 -1.3405
19779SOL    HW262615   8.067   3.234   8.399 -0.4019  0.1930 -0.9951
19780SOL     OW62616   5.875   4.916   3.327  0.2787  0.2370  0.5505
19780SOL    HW162617   5.830   4.860   3.390  0.1488  1.3338  1.4516
19780SOL    HW262618   5.947   4.862   3.294 -0.4680 -0.8197  0.6056
19781SOL     OW62619   8.228   6.297   9.983  0.1084  0.6722  0.1577
19781SOL    HW162620   8.254   6.304  10.075 -1.0817  0.9532  0.4877
19781SOL    HW262621   8.268   6.373   9.940 -0.1849  1.1183  0.6625
19782SOL     OW62622   5.903  10.426   1.887 -0.4604 -0.0736  0.4544
19782SOL    HW162623   5.858  10.342   1.880 -0.8482  0.2190 -1.1174
19782SOL    HW262624   5.960  10.417   1.963 -1.0823 -1.4657  0.7895
19783SOL     OW62625   3.224   0.298   1.341 -0.0620  1.1609 -0.5287
19783SOL    HW162626   3.232   0.265   1.430 -0.2247  3.1298  0.2624
19783SOL    HW262627   3.130   0.313   1.329 -0.2202 -0.4024 -1.5767
19784SOL     OW62628   5.536   6.459   1.210  0.0278 -0.2485 -0.3945
19784SOL    HW162629   5.631   6.455   1.196  0.0444 -0.9698 -0.1428
19784SOL    HW262630   5.501   6.388   1.156 -0.3907  0.1313 -0.6303
19785SOL     OW62631   7.091   2.445   6.639  0.5153 -0.6122 -0.0679
19785SOL    HW162632   7.039   2.523   6.621  0.4693 -0.8923 -1.2400
19785SOL    HW262633   7.168   2.478   6.684 -0.3322 -0.1077  1.0654
19786SOL     OW62634  11.378  10.661   5.672 -0.6071 -0.1000 -0.1231
19786SOL    HW162635  11.424  10.584   5.638 -0.6683 -0.5188  0.7121
19786SOL    HW262636  11.379  10.649   5.767 -0.3996  1.0603  0.0335
19787SOL     OW62637   2.673   4.422   1.977 -0.4503 -0.0192  0.0480
19787SOL    HW162638   2.689   4.360   2.048 -1.3962 -1.3590 -0.8605
19787SOL    HW262639   2.756   4.468   1.966  0.0449 -0.6038  1.2527
19788SOL     OW62640   7.485   5.760   0.927  0.1970 -0.0965  0.3659
19788SOL    HW162641   7.547   5.734   0.859 -0.1234 -0.9363  0.3834
19788SOL    HW262642   7.438   5.834   0.889 -0.0007 -0.5758 -0.3395
19789SOL     OW62643   8.038   5.994  10.031 -0.0189  0.4412  1.2222
19789SOL    HW162644   8.087   6.068  10.066  0.3219  1.9612 -2.0756
19789SOL    HW262645   7.948   6.026  10.026  0.4478  1.6138 -2.1526
19790SOL     OW62646   4.557   1.941   4.530 -0.3085 -0.2617  0.2811
19790SOL    HW162647   4.473   1.986   4.541 -0.0855  0.2924 -0.2014
19790SOL    HW262648   4.599   1.947   4.616 -0.6548 -0.3122  0.4533
19791SOL     OW62649   6.716   1.043   1.290  0.3434 -0.5559  0.3363
19791SOL    HW162650   6.673   1.103   1.229  0.6604 -0.6642  0.0027
19791SOL    HW262651   6.664   1.049   1.370 -0.5227 -0.9669 -0.1822
19792SOL     OW62652   1.810  11.396   9.073  0.4860  0.1558 -0.1981
19792SOL    HW162653   1.733  11.444   9.104  0.5554 -0.2745  0.6530
19792SOL    HW262654   1.825  11.431   8.985 -0.8604  0.0278 -0.5069
19793SOL     OW62655  10.352   3.859   6.933 -0.5917 -0.2516 -0.0799
19793SOL    HW162656  10.371   3.822   6.847 -1.1666 -1.6451  0.3524
19793SOL    HW262657  10.429   3.912   6.954  1.1692 -2.6077 -0.0413
19794SOL     OW62658  10.347   6.598  10.228 -0.1505 -0.6890 -0.1403
19794SOL    HW162659  10.307   6.542  10.162 -0.7633 -1.2889  0.7208
19794SOL    HW262660  10.309   6.684  10.213 -2.5119 -1.3997  1.1811
19795SOL     OW62661  10.301   1.157   6.787  0.6557  0.4212 -0.5283
19795SOL    HW162662  10.222   1.211   6.784 -1.0738 -1.8460  0.7295
19795SOL    HW262663  10.336   1.159   6.698 -1.2044  0.9560 -1.2862
19796SOL     OW62664   6.929   2.285   0.130  0.1921 -0.1809  1.1036
19796SOL    HW162665   6.839   2.316   0.141  0.5454  1.5830 -0.3696
19796SOL    HW262666   6.921   2.190   0.119 -1.4817 -0.0638  1.0314
19797SOL     OW62667   4.869   3.343  11.194  0.2528  0.0112 -0.1474
19797SOL    HW162668   4.823   3.424  11.173 -2.7176 -1.1472  1.1936
19797SOL    HW262669   4.868   3.293  11.112 -1.2954 -0.1166 -0.0778
19798SOL     OW62670   3.919   5.381   7.791  0.3278 -0.3259  0.1184
19798SOL    HW162671   3.987   5.321   7.761 -0.0930 -0.4297 -0.6771
19798SOL    HW262672   3.928   5.458   7.735 -0.2443 -0.3682 -0.0437
19799SOL     OW62673   1.554   5.332   5.466 -0.0162 -0.4944 -0.0298
19799SOL    HW162674   1.602   5.414   5.453 -0.3806 -0.2353  0.2325
19799SOL    HW262675   1.538   5.299   5.377  0.6184 -0.5681 -0.1161
19800SOL     OW62676   8.421   3.622   5.162 -0.6729  0.6658 -0.3015
19800SOL    HW162677   8.369   3.656   5.234  0.7609 -0.4723  1.3772
19800SOL    HW262678   8.415   3.527   5.170 -1.2160  0.4842 -2.2868
19801SOL     OW62679   2.529  10.019  10.215  0.3571  0.6078  0.0791
19801SOL    HW162680   2.498  10.028  10.125  0.9037  0.4860 -0.1255
19801SOL    HW262681   2.466  10.070  10.267  0.1664  0.8663 -0.3957
19802SOL     OW62682  10.246   0.323   5.194  0.7416  0.1653  0.3342
19802SOL    HW162683  10.200   0.299   5.275  0.9984  3.4374  1.5758
19802SOL    HW262684  10.323   0.371   5.223  1.5558  0.3096 -1.8714
19803SOL     OW62685   5.940   5.185   0.760  0.2526  0.1561 -0.2356
19803SOL    HW162686   5.979   5.102   0.731  0.6868  0.4285 -0.4393
19803SOL    HW262687   5.847   5.176   0.737  0.5330  0.2541 -1.4888
19804SOL     OW62688   6.502  10.308   4.073  0.0929  0.2844  0.0528
19804SOL    HW162689   6.549  10.225   4.072  0.8838  0.7228 -1.0254
19804SOL    HW262690   6.565  10.370   4.112 -1.0620  0.1003  2.4108
19805SOL     OW62691   8.093   6.934   7.077 -0.1423 -0.3451  0.4291
19805SOL    HW162692   8.147   7.007   7.105 -0.0170 -0.4397  0.4328
19805SOL    HW262693   8.079   6.882   7.156  1.3160 -1.3377  0.0789
19806SOL     OW62694   2.146   5.148   2.875 -0.3075 -0.3712 -0.1399
19806SOL    HW162695   2.192   5.070   2.907 -1.1737 -0.8955 -0.1570
19806SOL    HW262696   2.063   5.115   2.840  0.2484  0.2795 -2.2164
19807SOL     OW62697   6.685   1.745   7.159  0.5465  0.0383  0.0748
19807SOL    HW162698   6.735   1.730   7.239 -1.9621 -1.9500  1.4294
19807SOL    HW262699   6.643   1.830   7.172 -0.9864 -0.8790  1.6616
19808SOL     OW62700   4.390  10.795   8.681 -0.1272  0.1982 -0.0957
19808SOL    HW162701   4.360  10.860   8.745 -0.2342  0.0895 -0.0341
19808SOL    HW262702   4.471  10.759   8.719 -0.9215 -0.8700  0.6730
19809SOL     OW62703   0.968   7.761   8.802  0.1885 -0.0448 -0.2810
19809SOL    HW162704   1.028   7.744   8.729 -1.0165  1.1086 -1.6032
19809SOL    HW262705   0.884   7.725   8.774 -0.3439  0.5788  0.4604
19810SOL     OW62706   6.241   2.911  10.402 -0.1517  0.3604  0.4849
19810SOL    HW162707   6.300   2.845  10.438  0.3494  0.2996 -0.3917
19810SOL    HW262708   6.202   2.869  10.325  0.2457  1.1055 -0.1405
19811SOL     OW62709  10.528   0.142   5.224  0.2698 -0.0742 -0.1149
19811SOL    HW162710  10.464   0.084   5.266  0.5056 -0.3882 -0.1837
19811SOL    HW262711  10.578   0.179   5.297  0.0893  0.0761 -0.0686
19812SOL     OW62712   6.382  11.178   9.779  0.0753  0.3101 -0.0424
19812SOL    HW162713   6.351  11.251   9.833 -1.6342 -0.9198  0.7297
19812SOL    HW262714   6.469  11.158   9.814 -1.0130 -0.5185  2.4573
19813SOL     OW62715   3.627   1.584  10.969  0.2143 -0.0116 -0.6893
19813SOL    HW162716   3.711   1.631  10.969  0.2717 -0.1040 -1.2887
19813SOL    HW262717   3.651   1.491  10.971  0.0950 -0.0397  1.1420
19814SOL     OW62718   8.372   9.832   1.178 -0.1549 -0.0799 -0.2861
19814SOL    HW162719   8.363   9.926   1.168 -1.7174 -0.0560  0.9131
19814SOL    HW262720   8.395   9.819   1.270 -0.2944 -0.8672 -0.3507
19815SOL     OW62721   7.211   8.437   2.497  0.0931 -0.0220 -0.1628
19815SOL    HW162722   7.282   8.474   2.445 -0.1349 -0.4991 -0.8245
19815SOL    HW262723   7.236   8.345   2.509  0.5105  0.2511  1.2101
19816SOL     OW62724   4.485   9.467   1.298 -0.2547 -0.1220 -0.1759
19816SOL    HW162725   4.504   9.553   1.336 -0.9414  0.6916 -1.5870
19816SOL    HW262726   4.571   9.431   1.277  0.0018  1.2664 -1.7198
19817SOL     OW62727   3.258   6.648  11.343  0.0650  0.0876 -0.1296
19817SOL    HW162728   3.351   6.632  11.331  0.2655  0.4595  0.8324
19817SOL    HW262729   3.218   6.624  11.259  1.0285 -0.0100 -0.5708
19818SOL     OW62730  11.006   6.973   8.498 -0.9208 -0.0893  0.5690
19818SOL    HW162731  10.992   6.892   8.449 -0.1516  0.0723  0.0550
19818SOL    HW262732  11.055   7.029   8.437  0.2776  0.0300  1.6117
19819SOL     OW62733   6.444   4.878  10.557  0.6166 -0.6976  0.1679
19819SOL    HW162734   6.522   4.932  10.570 -0.0445  0.9075 -1.9378
19819SOL    HW262735   6.436   4.870  10.462 -2.8434  0.9096  0.1856
19820SOL     OW62736   4.437   8.430   6.063 -0.5774 -0.2862  0.3414
19820SOL    HW162737   4.525   8.403   6.039 -0.6216  0.2763 -0.5300
19820SOL    HW262738   4.449   8.493   6.134  0.0479  2.4006 -1.9234
19821SOL     OW62739  10.375   9.792   6.421 -0.6268  0.0177 -0.0444
19821SOL    HW162740  10.288   9.829   6.435 -0.7900 -0.4381  0.1860
19821SOL    HW262741  10.363   9.727   6.352 -0.7229 -0.9200  0.8395
19822SOL     OW62742   7.137   0.995   8.178  0.3522  0.4969 -0.2903
19822SOL    HW162743   7.073   1.039   8.123  0.1468  1.1620  0.4669
19822SOL    HW262744   7.089   0.923   8.219  0.7139 -0.5412 -1.6117
19823SOL     OW62745   6.657   8.388   6.821  0.3311  0.1074  0.0672
19823SOL    HW162746   6.607   8.320   6.866  0.2851 -0.1611 -0.3885
19823SOL    HW262747   6.720   8.419   6.887 -0.3484  0.3654  0.6057
19824SOL     OW62748   5.095   9.359   0.556 -0.1194 -0.1661  0.2927
19824SOL    HW162749   5.139   9.387   0.475  1.2988  0.7561  1.3404
19824SOL    HW262750   5.038   9.287   0.528  0.4201  0.0471 -1.5038
19825SOL     OW62751   4.714   6.173  10.516  0.2997 -0.1650 -0.1145
19825SOL    HW162752   4.740   6.250  10.466  0.2472 -0.7268 -1.0273
19825SOL    HW262753   4.713   6.203  10.607  3.6421  0.0452 -0.0205
19826SOL     OW62754   2.587  10.917   1.980 -0.4544 -0.2235  0.0807
19826SOL    HW162755   2.658  10.872   1.935  1.1332  0.2706  1.9728
19826SOL    HW262756   2.584  11.004   1.941 -0.1303 -0.3008 -0.1140
19827SOL     OW62757  10.815   0.287   6.621 -0.7572  0.1388  0.4022
19827SOL    HW162758  10.898   0.240   6.631  0.0686  1.5858  0.5557
19827SOL    HW262759  10.759   0.226   6.573 -0.0013 -1.3169  1.2993
19828SOL     OW62760   0.207   2.915   3.486  0.1220  0.4478  0.0414
19828SOL    HW162761   0.246   2.853   3.423  0.5402  1.0843 -0.3393
19828SOL    HW262762   0.129   2.870   3.518  0.4693 -0.3222 -0.1504
19829SOL     OW62763   8.297   3.818  10.078  0.0662  0.3829 -0.0313
19829SOL    HW162764   8.388   3.796  10.060 -0.1626  0.5303 -1.5836
19829SOL    HW262765   8.253   3.734  10.086  0.0004  0.2571 -1.3810
19830SOL     OW62766   7.079   9.129   7.224 -0.0702  0.8231 -0.5025
19830SOL    HW162767   7.132   9.084   7.290 -0.9681 -0.8823 -0.8886
19830SOL    HW262768   7.142   9.183   7.176  1.3956 -1.2048 -1.0031
19831SOL     OW62769   8.298  11.343  10.938  0.0300  0.3585 -0.5609
19831SOL    HW162770   8.320  11.366  11.028 -1.3034  2.5382 -0.7319
19831SOL    HW262771   8.296  11.247  10.938  1.6674  0.2609  1.2879
19832SOL     OW62772   4.086   7.509   5.254  0.3783 -0.8853 -0.1003
19832SOL    HW162773   4.077   7.500   5.159 -1.5720  0.2464 -0.0871
19832SOL    HW262774   4.146   7.582   5.266 -0.4137 -0.1606 -0.4968
19833SOL     OW62775  11.071   0.176   6.699  0.3082 -0.0581  0.9783
19833SOL    HW162776  11.085   0.215   6.786  2.1941  1.1558  0.1928
19833SOL    HW262777  11.137   0.217   6.644 -1.6860  0.1978 -1.3862
19834SOL     OW62778   8.990   9.149   0.641  0.4667 -0.1840 -0.2404
19834SOL    HW162779   8.903   9.150   0.683 -0.5711 -2.6662 -2.1065
19834SOL    HW262780   8.983   9.212   0.570  0.6607  0.5556  0.3784
19835SOL     OW62781   3.266   0.019   3.306  0.0132 -0.0975  0.2019
19835SOL    HW162782   3.259   0.114   3.310  0.3729 -0.0608  0.0712
19835SOL    HW262783   3.176  -0.012   3.299 -0.1416  0.2027  0.8262
19836SOL     OW62784   9.297   1.150   0.700  0.4772 -0.5742  0.2338
19836SOL    HW162785   9.260   1.111   0.620  0.1025 -1.0576  0.6361
19836SOL    HW262786   9.221   1.177   0.751  0.7144  1.7647 -0.5169
19837SOL     OW62787   5.055   0.421   6.175  0.1454 -0.4957  0.0038
19837SOL    HW162788   5.023   0.470   6.100  3.0697  0.8482 -0.5014
19837SOL    HW262789   5.080   0.336   6.140  0.1443 -0.3882 -0.2551
19838SOL     OW62790   6.356   6.019   6.093 -0.4382  0.1451  0.4182
19838SOL    HW162791   6.279   6.075   6.080 -0.7439 -0.8202 -2.9555
19838SOL    HW262792   6.421   6.053   6.031  0.2976 -1.6149  0.1635
19839SOL     OW62793   4.169  10.515   0.084  0.4022  0.3743 -0.2658
19839SOL    HW162794   4.189  10.462   0.162  0.0481  0.6955  0.0475
19839SOL    HW262795   4.106  10.463   0.034  1.5516 -0.3852 -0.9664
19840SOL     OW62796  10.374   1.668   6.903  0.2013 -0.5408 -0.0668
19840SOL    HW162797  10.439   1.613   6.859  0.1464 -1.9092  1.4534
19840SOL    HW262798  10.320   1.606   6.953  0.2675  0.8717  1.8844
19841SOL     OW62799  11.223   4.300  10.239  0.0335 -0.1746  0.1405
19841SOL    HW162800  11.291   4.366  10.249 -2.5150  2.4511  1.9187
19841SOL    HW262801  11.238   4.238  10.310 -0.1330  1.1632  1.3988
19842SOL     OW62802   8.723   4.676   3.775  0.1354  0.2817 -0.1825
19842SOL    HW162803   8.741   4.729   3.853 -2.6934 -0.5589  1.1590
19842SOL    HW262804   8.678   4.735   3.716 -0.4414  0.1400  0.1100
19843SOL     OW62805   1.100   2.458   1.284  0.3383  0.4462  0.0540
19843SOL    HW162806   1.076   2.547   1.314 -1.9930 -0.2468  0.4982
19843SOL    HW262807   1.028   2.403   1.316  1.3304 -1.4874 -0.9115
19844SOL     OW62808   8.158   4.951   4.664  0.2602 -0.6097 -0.0732
19844SOL    HW162809   8.250   4.966   4.682  0.0614 -1.6848  2.1989
19844SOL    HW262810   8.153   4.859   4.637 -0.3712 -1.4634  2.5994
19845SOL     OW62811  10.759   5.229   6.432 -0.1150  0.0911 -0.1873
19845SOL    HW162812  10.844   5.272   6.428  0.2399 -0.5386  0.3196
19845SOL    HW262813  10.709   5.266   6.359  0.8996 -0.1976 -1.0488
19846SOL     OW62814   3.686   7.762   7.560  0.4480 -0.0826 -0.0491
19846SOL    HW162815   3.741   7.760   7.639  2.8715  0.1824 -1.6284
19846SOL    HW262816   3.596   7.764   7.594  1.3362 -1.2187  2.6801
19847SOL     OW62817   0.685   3.152   7.988  0.1309  0.0829 -0.2021
19847SOL    HW162818   0.645   3.066   8.002  0.2298  0.1194  0.3451
19847SOL    HW262819   0.777   3.139   8.011  0.2943  0.1693 -0.7858
19848SOL     OW62820   8.033   8.915   4.006  0.8431  0.4415  0.6639
19848SOL    HW162821   8.007   8.950   3.921 -0.8226  0.2354  1.0577
19848SOL    HW262822   8.079   8.833   3.985 -1.0060 -0.4952 -0.0227
19849SOL     OW62823   9.046  10.687  11.036  0.5054 -0.2351 -0.4123
19849SOL    HW162824   9.059  10.687  11.130  0.6088  1.2756 -0.3925
19849SOL    HW262825   8.951  10.693  11.025  0.5106 -0.1377 -0.4008
19850SOL     OW62826   8.646   2.026   0.974 -0.7325 -0.0813 -0.6576
19850SOL    HW162827   8.705   2.026   1.050  0.0050 -0.4617 -1.2170
19850SOL    HW262828   8.658   2.113   0.935  0.5727 -0.6522 -1.5957
19851SOL     OW62829   2.840  11.312   3.730 -0.4388  0.6601 -0.4636
19851SOL    HW162830   2.811  11.318   3.639  1.3449  0.4390 -1.0781
19851SOL    HW262831   2.913  11.374   3.736 -0.2806  0.3791  0.7142
19852SOL     OW62832   0.254   7.363   5.868 -0.8624 -0.3989 -0.6244
19852SOL    HW162833   0.197   7.298   5.910  0.8520 -2.3081 -1.1337
19852SOL    HW262834   0.250   7.343   5.775 -1.4827  1.2566 -1.0037
19853SOL     OW62835   8.786   8.272   4.747  0.0443 -0.4294  0.6070
19853SOL    HW162836   8.843   8.195   4.739  0.4458 -0.1328  0.6114
19853SOL    HW262837   8.826   8.337   4.689 -0.3312 -0.2445  0.5539
19854SOL     OW62838   5.069   5.206   2.347  0.0713 -0.3659  0.4844
19854SOL    HW162839   5.053   5.203   2.441  0.0834 -0.9530  0.4718
19854SOL    HW262840   4.981   5.213   2.308  0.1533  3.0618  0.6112
19855SOL     OW62841   4.723   8.043   4.814 -0.1192  0.1507  0.6755
19855SOL    HW162842   4.749   7.962   4.770  1.1687  2.1579 -2.6233
19855SOL    HW262843   4.783   8.050   4.888  1.1364 -0.9426 -0.1775
19856SOL     OW62844   4.662   9.394   7.914  0.5061 -0.1131 -0.5034
19856SOL    HW162845   4.720   9.437   7.977 -0.1088  1.6791 -1.0726
19856SOL    HW262846   4.583   9.375   7.964  1.2083 -1.7158  0.0441
19857SOL     OW62847   4.579   8.247  11.268  0.3911 -0.2322  0.0211
19857SOL    HW162848   4.671   8.265  11.249  0.7493  0.7328  2.3573
19857SOL    HW262849   4.534   8.330  11.251  0.6159  0.4513  2.4128
19858SOL     OW62850   4.357   2.722   3.022  0.1963  0.3224 -0.0578
19858SOL    HW162851   4.286   2.712   2.959  1.9548 -0.7982 -2.0175
19858SOL    HW262852   4.327   2.788   3.084 -2.6011 -0.2966 -0.6504
19859SOL     OW62853   8.481   6.578   7.791 -0.0915  0.2508  0.8679
19859SOL    HW162854   8.574   6.561   7.773 -0.5074 -0.6837 -0.4922
19859SOL    HW262855   8.435   6.546   7.714 -1.4657  1.8663  0.9476
19860SOL     OW62856   1.728   8.571   2.947 -0.0286  0.2507  0.0815
19860SOL    HW162857   1.760   8.527   2.868  1.3851 -0.6798  1.1186
19860SOL    HW262858   1.781   8.651   2.953 -1.4190  1.2903 -0.8760
19861SOL     OW62859   0.428   7.384   8.452  0.2256  0.4578  0.3927
19861SOL    HW162860   0.442   7.304   8.502 -2.0807 -0.1930  0.1286
19861SOL    HW262861   0.490   7.379   8.379  0.3067 -0.9513  0.5475
19862SOL     OW62862   3.294   6.437   0.880 -0.1560  0.6567 -0.5951
19862SOL    HW162863   3.361   6.490   0.836  0.8151 -0.8409 -0.9675
19862SOL    HW262864   3.211   6.466   0.840  0.2721  2.2005 -0.4553
19863SOL     OW62865   8.703   9.867   5.955  0.2649 -0.3202 -0.1009
19863SOL    HW162866   8.642   9.900   6.021 -0.6894  0.4410 -1.3360
19863SOL    HW262867   8.768   9.936   5.945 -0.8453  0.5687 -1.5373
19864SOL     OW62868  10.012   2.471   7.835 -0.0656 -0.3534 -0.5801
19864SOL    HW162869  10.064   2.547   7.809  0.4000 -1.1930 -2.2083
19864SOL    HW262870  10.068   2.396   7.818 -0.5752 -1.1153  0.8694
19865SOL     OW62871   0.781   9.705   0.702  0.0692 -0.3674  0.4515
19865SOL    HW162872   0.726   9.768   0.656  0.6670  0.2602  0.5883
19865SOL    HW262873   0.786   9.630   0.642 -0.2274 -0.0888  0.0706
19866SOL     OW62874   2.602   8.854   5.581 -0.0746  0.3826  0.3676
19866SOL    HW162875   2.684   8.826   5.539 -0.5499  0.8379 -0.9109
19866SOL    HW262876   2.552   8.773   5.592  0.7761  0.0089  1.7338
19867SOL     OW62877  10.916   0.543  10.782 -0.3286  0.3249 -0.4232
19867SOL    HW162878  10.897   0.537  10.875 -1.2640 -1.3049 -0.6804
19867SOL    HW262879  10.994   0.598  10.777 -0.9364  1.4176  1.2096
19868SOL     OW62880   9.867   2.422   9.657  0.2029 -0.2413 -0.3662
19868SOL    HW162881   9.772   2.413   9.651 -0.0572  1.1318  1.1906
19868SOL    HW262882   9.889   2.386   9.743  1.1857 -1.0520 -0.9365
19869SOL     OW62883   8.417   3.585   3.973 -0.1936  0.4968 -0.4322
19869SOL    HW162884   8.392   3.493   3.978  0.4806  0.3522  0.3189
19869SOL    HW262885   8.448   3.596   3.883 -0.9632  0.1804 -0.7496
19870SOL     OW62886   9.307  10.988   1.192  0.2427  0.5779 -0.0351
19870SOL    HW162887   9.251  10.924   1.235 -0.5951  1.4190  0.1552
19870SOL    HW262888   9.247  11.054   1.159  1.0581  1.0738 -0.5706
19871SOL     OW62889   5.923   8.739   8.023  0.5202  0.6609  0.2954
19871SOL    HW162890   5.839   8.720   7.983  1.2019 -0.4314 -0.6596
19871SOL    HW262891   5.972   8.657   8.018  0.7940  0.5429  3.0649
19872SOL     OW62892   1.398   5.600   5.046  0.7731  0.2719  0.0582
19872SOL    HW162893   1.351   5.647   5.114 -0.9848 -0.6180 -0.4957
19872SOL    HW262894   1.491   5.613   5.068  0.3340  2.6989  0.7386
19873SOL     OW62895   4.308   9.556   3.144  0.3095  0.3560 -0.1916
19873SOL    HW162896   4.244   9.521   3.206  0.4034 -0.0760 -0.3360
19873SOL    HW262897   4.332   9.481   3.089 -0.0361  0.8125 -0.9805
19874SOL     OW62898   3.415   9.366   9.909 -0.1434 -0.0654  0.3891
19874SOL    HW162899   3.450   9.311   9.979 -0.8764 -0.1960  0.6633
19874SOL    HW262900   3.492   9.402   9.865  0.3266  0.0324  1.2760
19875SOL     OW62901   3.871  11.322   1.867  0.1178  0.3192  0.0768
19875SOL    HW162902   3.914  11.254   1.815  0.2958  1.8433 -1.9346
19875SOL    HW262903   3.921  11.326   1.948  1.8803 -0.0745 -0.9240
19876SOL     OW62904   8.155   7.130  11.133 -0.4976  0.6204 -0.6952
19876SOL    HW162905   8.112   7.080  11.202  1.4131  0.0537  0.1499
19876SOL    HW262906   8.190   7.063  11.073 -0.8422  1.0701 -1.4169
19877SOL     OW62907   1.538   5.388  10.861 -0.0449 -0.2065 -0.1557
19877SOL    HW162908   1.537   5.337  10.780  0.0468 -0.1653 -0.1840
19877SOL    HW262909   1.564   5.326  10.929 -1.0869 -0.4690  0.0112
19878SOL     OW62910   9.812   3.867   5.330  0.1723 -0.2402  0.4141
19878SOL    HW162911   9.833   3.777   5.354  0.3214 -0.7390 -1.4112
19878SOL    HW262912   9.886   3.919   5.364  0.4302 -0.9044  0.8823
19879SOL     OW62913   8.759   2.476   1.107  0.0825 -0.2446  0.3173
19879SOL    HW162914   8.782   2.386   1.127 -0.2225 -0.6018 -0.8360
19879SOL    HW262915   8.820   2.501   1.037 -0.4424  0.1236 -0.0128
19880SOL     OW62916   5.828   4.494  10.658 -0.5079 -0.3521 -0.4295
19880SOL    HW162917   5.762   4.516  10.592 -0.3206  0.4007 -0.3674
19880SOL    HW262918   5.899   4.556  10.642 -0.2860 -0.4412  0.2180
19881SOL     OW62919   9.849   6.739   6.168  0.1150  0.5763 -0.5004
19881SOL    HW162920   9.791   6.759   6.241 -0.5642 -2.5091 -0.0832
19881SOL    HW262921   9.936   6.762   6.199 -0.2123 -0.3186  1.1506
19882SOL     OW62922   9.775   5.858   4.183  0.1054  0.3083  0.0941
19882SOL    HW162923   9.768   5.954   4.180 -0.5892  0.2698  0.3600
19882SOL    HW262924   9.867   5.840   4.163 -0.0869  0.9564 -1.5394
19883SOL     OW62925   9.078   6.544   7.579 -0.0896  0.1848 -0.0200
19883SOL    HW162926   8.997   6.523   7.534 -0.3344  2.0575 -0.5685
19883SOL    HW262927   9.097   6.468   7.633 -1.4826 -0.8287 -0.9085
19884SOL     OW62928   8.595   0.245   7.725 -0.4245 -0.3962  0.0945
19884SOL    HW162929   8.607   0.334   7.692 -0.0972 -0.2709  0.5333
19884SOL    HW262930   8.566   0.257   7.815 -1.1310 -0.7324 -0.0850
19885SOL     OW62931   3.402   4.158   4.621  0.6072  0.4335 -0.0027
19885SOL    HW162932   3.325   4.199   4.662 -0.5403 -0.5365 -1.0948
19885SOL    HW262933   3.369   4.075   4.588  1.8109  0.5947 -1.7065
19886SOL     OW62934   7.160   5.606   5.106 -0.1443 -0.6501  0.4239
19886SOL    HW162935   7.102   5.649   5.043 -0.3680 -2.0701 -0.3830
19886SOL    HW262936   7.102   5.572   5.174 -0.0286 -0.2723  0.7199
19887SOL     OW62937   2.354   7.971   6.897  0.5088 -0.0654  0.3307
19887SOL    HW162938   2.417   7.951   6.828  1.7905  0.8241  1.1911
19887SOL    HW262939   2.295   8.035   6.859 -1.3262 -2.5001 -1.2147
19888SOL     OW62940   7.067  10.095   1.978 -0.6335  0.1216 -0.0163
19888SOL    HW162941   7.010  10.126   2.049 -0.1638 -1.1352  0.9437
19888SOL    HW262942   7.155  10.119   2.007 -0.5324  0.6449 -0.7442
19889SOL     OW62943   2.713   0.927   6.297 -0.7306  0.2231  0.1965
19889SOL    HW162944   2.772   0.990   6.339 -1.4558  1.5506 -0.7095
19889SOL    HW262945   2.755   0.908   6.212 -0.7555 -0.1547  0.2667
19890SOL     OW62946   2.898   4.259   9.174 -0.0686  0.0093 -0.3006
19890SOL    HW162947   2.962   4.225   9.111 -1.2683  0.5698 -1.8836
19890SOL    HW262948   2.867   4.340   9.135 -1.2576  0.0954  0.7721
19891SOL     OW62949   2.972   2.989   3.662 -0.2933 -0.0702 -0.5894
19891SOL    HW162950   2.954   2.932   3.737  0.2411  0.0655 -0.3539
19891SOL    HW262951   2.935   3.074   3.686  0.2689  0.0927 -0.2876
19892SOL     OW62952   1.152   9.490   2.388 -0.6675  0.2202  0.1772
19892SOL    HW162953   1.064   9.490   2.351 -1.6780 -0.9060  2.4225
19892SOL    HW262954   1.162   9.578   2.424 -1.1933  0.1222  0.5817
19893SOL     OW62955   5.192   1.273   6.759 -0.2178 -0.3627  0.1291
19893SOL    HW162956   5.119   1.264   6.821 -1.5095  0.0177 -1.2653
19893SOL    HW262957   5.197   1.187   6.717  0.8711 -0.7227  0.9474
19894SOL     OW62958   3.162   2.029   3.791  0.1049  1.0223 -0.3482
19894SOL    HW162959   3.088   2.086   3.771 -1.9291 -1.3763 -0.1026
19894SOL    HW262960   3.152   1.954   3.733 -0.0331 -1.2480  2.3701
19895SOL     OW62961   6.771   9.320   6.433 -0.2988  0.0054 -0.0730
19895SOL    HW162962   6.682   9.306   6.467 -0.8541 -0.1324 -1.5065
19895SOL    HW262963   6.778   9.260   6.359  1.4894 -0.9655  0.8030
19896SOL     OW62964   0.642   6.810   0.950 -0.2566  0.5211 -0.3234
19896SOL    HW162965   0.621   6.893   0.993 -1.1904  0.7760 -1.2098
19896SOL    HW262966   0.652   6.747   1.021 -0.3813  1.2225  0.3228
19897SOL     OW62967   9.004   4.234   2.792 -0.2281 -0.0413  0.4597
19897SOL    HW162968   8.923   4.237   2.741 -1.4162 -0.8714  2.2042
19897SOL    HW262969   9.073   4.231   2.727 -1.5766  0.8300 -1.0910
19898SOL     OW62970   2.798   7.746   2.475 -0.0418  0.0266 -0.0495
19898SOL    HW162971   2.794   7.662   2.521 -0.6989  1.5669  2.9069
19898SOL    HW262972   2.868   7.734   2.410 -0.1080 -2.7531  0.2740
19899SOL     OW62973   8.022   8.883   0.879  0.3878 -0.3036 -0.1329
19899SOL    HW162974   7.970   8.822   0.931  0.3528  0.2305  0.4683
19899SOL    HW262975   7.984   8.878   0.791 -0.8539  0.2540  0.3488
19900SOL     OW62976   2.681   3.843   8.531  0.6404  0.4619  0.7704
19900SOL    HW162977   2.650   3.883   8.612 -2.7872  1.9413 -1.0200
19900SOL    HW262978   2.631   3.762   8.523  4.0852 -2.0466  2.0169
19901SOL     OW62979  10.722   8.283   3.499  0.3588 -0.5659 -0.1907
19901SOL    HW162980  10.695   8.225   3.571  1.1345 -1.0486 -0.2837
19901SOL    HW262981  10.733   8.224   3.424  1.8000 -0.4208 -0.1224
19902SOL     OW62982   0.057   8.603  11.113 -0.2114 -0.2633  0.1720
19902SOL    HW162983   0.047   8.695  11.137 -0.9312 -0.5798  1.1314
19902SOL    HW262984   0.092   8.605  11.024 -2.4077  0.9289 -0.7299
19903SOL     OW62985   7.482  10.333  10.610 -0.1682  0.5542  0.5929
19903SOL    HW162986   7.491  10.289  10.525  2.6065 -1.5141  1.7652
19903SOL    HW262987   7.411  10.287  10.654 -0.9435  0.9610 -0.2164
19904SOL     OW62988   0.827   2.172   4.597 -0.4281 -0.2365 -0.1578
19904SOL    HW162989   0.908   2.120   4.600 -1.6415 -2.1417  2.0198
19904SOL    HW262990   0.822   2.214   4.682 -0.8547  1.3975 -0.9437
19905SOL     OW62991   8.435  11.356   1.283  0.3796  0.2040  0.2502
19905SOL    HW162992   8.360  11.297   1.282  1.9849 -2.0054 -1.6537
19905SOL    HW262993   8.422  11.414   1.208  0.9148 -0.7132 -0.5711
19906SOL     OW62994   6.491   2.379   4.316 -0.1976  0.5692 -0.6910
19906SOL    HW162995   6.468   2.304   4.370 -0.3006  1.1223  0.0437
19906SOL    HW262996   6.481   2.455   4.374  3.5680  0.8815 -0.2184
19907SOL     OW62997   3.977   0.679   6.071  0.2872 -0.8579  0.0429
19907SOL    HW162998   4.015   0.763   6.046 -1.9893  0.1165 -0.3578
19907SOL    HW262999   3.969   0.683   6.166 -0.1275 -0.4679 -0.0057
19908SOL     OW63000   3.558   4.799   6.557 -0.3978  0.4064 -0.1983
19908SOL    HW163001   3.596   4.783   6.470  0.2358  0.0885  0.1312
19908SOL    HW263002   3.466   4.775   6.548  0.0041 -1.1557 -0.3548
19909SOL     OW63003   2.235   8.050   4.239 -0.4132 -0.0467 -0.4226
19909SOL    HW163004   2.257   8.076   4.329 -1.3192 -1.1526  0.1402
19909SOL    HW263005   2.147   8.015   4.245  0.6381 -3.0781 -1.1472
19910SOL     OW63006   2.635  10.800   2.706  0.0264 -0.4439  0.3773
19910SOL    HW163007   2.608  10.742   2.634  1.1529  0.4674 -0.8381
19910SOL    HW263008   2.731  10.796   2.704  0.2856  2.8824 -1.0688
19911SOL     OW63009   6.450   0.543   7.249 -0.1678  0.5339 -0.7903
19911SOL    HW163010   6.496   0.571   7.328  0.7108  0.6393 -1.3216
19911SOL    HW263011   6.448   0.447   7.255  1.5902  0.4018 -1.5158
19912SOL     OW63012  10.698   4.467   8.046 -0.0701  0.2927  0.2115
19912SOL    HW163013  10.645   4.392   8.070 -2.7981  1.0751 -2.7009
19912SOL    HW263014  10.655   4.541   8.090 -1.8811  0.9953 -2.5248
19913SOL     OW63015   4.759   4.028   7.198 -0.3381  0.5856  0.0975
19913SOL    HW163016   4.675   3.984   7.214  0.5197 -1.4922 -0.7632
19913SOL    HW263017   4.816   3.959   7.165  1.1983  2.3224 -1.0775
19914SOL     OW63018   1.014   3.859   3.675  0.0794  0.2239  0.1866
19914SOL    HW163019   0.942   3.874   3.613 -0.6742 -0.6044  0.8529
19914SOL    HW263020   1.016   3.764   3.688  1.4400  0.2065  0.0181
19915SOL     OW63021   1.176   1.548   0.395 -0.1418  0.9195  0.2120
19915SOL    HW163022   1.183   1.624   0.452 -1.1616  1.0839  0.1363
19915SOL    HW263023   1.087   1.551   0.362 -0.1491 -0.2335  0.0901
19916SOL     OW63024   8.729   0.533   0.238 -0.1184 -0.2232  0.0604
19916SOL    HW163025   8.777   0.603   0.284  1.3073 -1.0770 -0.0787
19916SOL    HW263026   8.778   0.520   0.157 -0.9975 -0.6635 -0.4091
19917SOL     OW63027   6.005   1.677   0.699 -0.2411  0.5347  0.1514
19917SOL    HW163028   5.963   1.763   0.688 -0.1623  0.5236 -0.2458
19917SOL    HW263029   6.009   1.642   0.610 -0.5998 -0.0327  0.3571
19918SOL     OW63030   2.104   6.604   5.275 -0.3615  0.9489  0.1225
19918SOL    HW163031   2.061   6.524   5.245  0.3620  0.3504  0.6453
19918SOL    HW263032   2.180   6.573   5.324  0.9325  1.9750 -1.1573
19919SOL     OW63033   2.878   3.917   8.320 -0.1472 -0.2450 -0.3077
19919SOL    HW163034   2.797   3.873   8.346  0.8364 -0.8019  2.0600
19919SOL    HW263035   2.862   4.009   8.337 -0.0075 -0.4543  1.1165
19920SOL     OW63036   0.858   8.380   7.396  0.5145 -0.1578 -0.5856
19920SOL    HW163037   0.775   8.335   7.411  0.6632 -1.1856 -2.5613
19920SOL    HW263038   0.922   8.309   7.384  0.9250  0.5399 -2.8921
19921SOL     OW63039   2.389  10.857  10.516 -0.0208 -0.2303 -0.1789
19921SOL    HW163040   2.458  10.836  10.453  0.3267 -1.0473  0.4647
19921SOL    HW263041   2.433  10.858  10.601 -0.4935  0.8229  0.0683
19922SOL     OW63042   4.790   4.954   3.335  0.1558  0.4632  0.6440
19922SOL    HW163043   4.754   4.896   3.268  0.2440  0.6577  0.4265
19922SOL    HW263044   4.807   4.897   3.410 -1.3230  0.5063  1.0294
19923SOL     OW63045   2.731   2.020   7.158  0.3685 -0.3831 -0.4044
19923SOL    HW163046   2.795   2.032   7.088  0.1663  1.8095 -0.2786
19923SOL    HW263047   2.770   1.955   7.216  1.6794 -0.3705 -1.2401
19924SOL     OW63048   8.293   7.522   5.375 -0.0117 -0.0225 -0.0271
19924SOL    HW163049   8.353   7.450   5.395 -1.4375 -1.1342  0.4896
19924SOL    HW263050   8.322   7.594   5.430  1.4349 -0.1853 -0.5329
19925SOL     OW63051   9.614  10.788  10.956  1.0209  0.1398 -0.0844
19925SOL    HW163052   9.571  10.856  10.904  1.3742  0.8612  0.5440
19925SOL    HW263053   9.602  10.708  10.905  0.5608  0.6602 -0.8208
19926SOL     OW63054   5.084   9.455   5.985  0.3482  0.3068 -0.1890
19926SOL    HW163055   5.002   9.407   5.995 -0.2337  1.2402 -0.3589
19926SOL    HW263056   5.090   9.509   6.064  0.9173  0.0786 -0.0716
19927SOL     OW63057   3.435  11.175   0.831  0.5094 -0.4289 -0.1315
19927SOL    HW163058   3.458  11.125   0.910  2.5848 -1.5663 -1.3759
19927SOL    HW263059   3.448  11.266   0.856  2.4400 -0.8325  0.5040
19928SOL     OW63060   6.695   1.523  10.784 -0.3695  0.4064  0.4695
19928SOL    HW163061   6.682   1.437  10.743  0.2341  1.4244 -1.9691
19928SOL    HW263062   6.606   1.557  10.797 -0.7348 -1.2397  3.1608
19929SOL     OW63063  10.064   1.187  11.074  0.2365  0.1598 -0.2378
19929SOL    HW163064  10.043   1.263  11.020 -2.2892  0.1307  0.5601
19929SOL    HW263065  10.154   1.202  11.102  0.1986  2.2737 -1.0279
19930SOL     OW63066   3.907   8.235   5.323  0.2608  0.3408  0.2622
19930SOL    HW163067   3.900   8.157   5.269 -0.0582  0.5821 -0.0448
19930SOL    HW263068   3.999   8.261   5.316 -0.3223  2.0425 -2.5210
19931SOL     OW63069   3.321  11.367   7.525 -0.0900  0.5770 -0.7234
19931SOL    HW163070   3.346  11.400   7.611 -1.1893  0.3131 -0.2822
19931SOL    HW263071   3.294  11.445   7.477  0.6605  0.7423 -0.8856
19932SOL     OW63072   2.150   6.615   8.792  0.4339 -0.7467  0.2606
19932SOL    HW163073   2.094   6.543   8.820  0.0825 -1.0957 -1.2603
19932SOL    HW263074   2.182   6.654   8.873 -0.5141 -1.7180  1.1205
19933SOL     OW63075   4.895   9.825  10.291 -0.0949 -0.0364  0.2628
19933SOL    HW163076   4.803   9.835  10.267 -0.6837 -2.7770  0.9694
19933SOL    HW263077   4.934   9.780  10.217 -0.0942 -1.5642  1.1425
19934SOL     OW63078   3.270   0.469   9.539 -0.2055  0.4668 -0.3854
19934SOL    HW163079   3.287   0.389   9.589 -0.0081 -0.0489 -1.2471
19934SOL    HW263080   3.302   0.449   9.451  1.1889  1.9874 -0.2843
19935SOL     OW63081   6.736   5.247   4.946  0.3549  0.2351 -0.2071
19935SOL    HW163082   6.707   5.209   4.863  1.1379 -0.1992 -0.2918
19935SOL    HW263083   6.660   5.296   4.978 -0.5319 -1.0244 -0.3210
19936SOL     OW63084   0.576   8.950   0.162  0.0525 -0.0771 -0.4536
19936SOL    HW163085   0.515   9.012   0.204 -0.1983 -1.0662  0.6946
19936SOL    HW263086   0.619   8.906   0.235  1.2970 -0.2409 -1.2579
19937SOL     OW63087   3.329   1.752   1.197 -0.2564  0.3066 -0.8834
19937SOL    HW163088   3.372   1.816   1.141 -0.8992  0.6247 -1.0249
19937SOL    HW263089   3.252   1.724   1.147 -0.1944 -0.2811 -0.6545
19938SOL     OW63090   2.322   2.136   2.349 -0.2294  0.4415 -0.1813
19938SOL    HW163091   2.316   2.230   2.331 -1.5809  0.4079 -0.0250
19938SOL    HW263092   2.321   2.130   2.445 -1.5847  0.2228 -0.1869
19939SOL     OW63093   8.121   4.218   0.878  0.0719 -0.1096  0.6421
19939SOL    HW163094   8.055   4.150   0.867  0.5923 -0.4214 -0.7996
19939SOL    HW263095   8.101   4.258   0.963 -2.3421  0.2079 -0.0010
19940SOL     OW63096   7.476   8.930   1.452 -0.3610  0.3872  0.5521
19940SOL    HW163097   7.441   8.994   1.391 -1.8944 -0.7197  0.2113
19940SOL    HW263098   7.511   8.860   1.396  2.3959  1.3572  0.8699
19941SOL     OW63099   2.590   8.859   0.843 -0.4293  0.3678  0.5173
19941SOL    HW163100   2.660   8.921   0.822 -0.3219  0.1494  0.2426
19941SOL    HW263101   2.574   8.812   0.762 -0.2057 -0.2781  0.8411
19942SOL     OW63102   9.529   1.825  11.388  0.5023 -0.1769  0.1448
19942SOL    HW163103   9.609   1.874  11.405 -0.2223  0.9981  0.3038
19942SOL    HW263104   9.503   1.791  11.474  0.7406 -0.4306  0.1189
19943SOL     OW63105  10.967   9.929   9.736  0.3333  0.2349 -0.1738
19943SOL    HW163106  10.901   9.947   9.669  0.1140  1.8885  0.4501
19943SOL    HW263107  11.050   9.952   9.695  0.3826 -0.3861 -0.4378
19944SOL     OW63108   0.116   6.038   0.089  0.6567 -0.0379  0.5350
19944SOL    HW163109   0.210   6.044   0.068  0.9000 -1.6744  0.9980
19944SOL    HW263110   0.077   6.113   0.043  1.8361 -0.7231 -1.7952
19945SOL     OW63111   8.577   7.695   7.205 -0.3373 -0.2449  0.0038
19945SOL    HW163112   8.593   7.601   7.213 -1.7863 -0.5234 -0.0794
19945SOL    HW263113   8.580   7.728   7.294 -0.8228 -0.5651  0.1449
19946SOL     OW63114   2.185   2.507   3.400  0.2578  0.6680  0.2209
19946SOL    HW163115   2.161   2.590   3.358  0.4423  0.5159 -0.1911
19946SOL    HW263116   2.102   2.464   3.419  0.1206  1.4143  1.3955
19947SOL     OW63117   5.865   5.265  10.059 -0.0928 -0.6020 -0.1023
19947SOL    HW163118   5.889   5.206  10.131 -1.2749 -1.6665 -0.5464
19947SOL    HW263119   5.774   5.290  10.077 -0.2065 -0.4028 -0.9092
19948SOL     OW63120   7.842   6.552   3.621 -0.1469 -0.0977  0.0539
19948SOL    HW163121   7.863   6.639   3.655  0.5107 -0.1372 -0.2299
19948SOL    HW263122   7.797   6.569   3.538 -3.8220  0.0702  1.8843
19949SOL     OW63123   2.170   0.678  10.551  0.7857 -0.2116  0.2893
19949SOL    HW163124   2.242   0.727  10.513 -1.2498  1.4327 -1.6723
19949SOL    HW263125   2.100   0.742  10.565 -0.6306 -1.8582  1.3354
19950SOL     OW63126   5.845   7.447   6.125  0.1216  0.3263  0.1180
19950SOL    HW163127   5.782   7.463   6.196 -0.1020 -0.4612  0.1076
19950SOL    HW263128   5.854   7.352   6.122 -1.6893  0.1468 -2.4518
19951SOL     OW63129   0.060   4.122   4.476  0.8418 -0.3239 -0.1824
19951SOL    HW163130  -0.012   4.164   4.429  1.7710  0.7799 -0.6655
19951SOL    HW263131   0.071   4.175   4.555  0.2348 -1.3233  0.6037
19952SOL     OW63132   4.723   4.231   9.656  0.3668  0.2874 -0.0597
19952SOL    HW163133   4.706   4.140   9.630  0.0218  0.2797  0.1946
19952SOL    HW263134   4.677   4.241   9.739  1.7185  0.2120  0.7385
19953SOL     OW63135   3.700   2.878   0.515  0.3900  0.1973  0.5485
19953SOL    HW163136   3.612   2.867   0.551  0.9373 -0.9301  1.6410
19953SOL    HW263137   3.695   2.956   0.460 -0.7153  1.5653  2.4644
19954SOL     OW63138   7.984   4.241   3.956  0.1903 -0.0866  0.1611
19954SOL    HW163139   7.923   4.241   4.030  0.0050  0.4479  0.0097
19954SOL    HW263140   7.993   4.148   3.933 -2.6964 -0.0420 -1.5581
19955SOL     OW63141   0.855   9.342   4.687  0.0544  0.1021 -0.1630
19955SOL    HW163142   0.787   9.293   4.732 -0.3418 -0.7892 -1.6562
19955SOL    HW263143   0.832   9.335   4.594  1.4765  0.8661 -0.6039
19956SOL     OW63144   3.944   3.593   6.327 -0.1622  0.6726 -0.3521
19956SOL    HW163145   3.922   3.673   6.374  1.6101 -0.3084  2.3647
19956SOL    HW263146   4.033   3.573   6.354 -0.1908 -1.6902 -1.7498
19957SOL     OW63147   0.079  11.147   1.875 -0.1235  0.6583  0.3758
19957SOL    HW163148   0.056  11.078   1.937  1.4725  1.5325  2.0558
19957SOL    HW263149   0.130  11.210   1.927 -0.8342  2.7112 -1.2495
19958SOL     OW63150   9.853   6.007   0.281 -0.2906 -0.1461  0.4312
19958SOL    HW163151   9.930   5.958   0.253  1.0264  0.7804  2.2520
19958SOL    HW263152   9.800   5.943   0.328 -0.1794 -0.5680 -0.0031
19959SOL     OW63153   9.187   5.465   9.325  0.1962  0.6740 -0.0297
19959SOL    HW163154   9.188   5.458   9.420  0.4675  2.4569  0.1394
19959SOL    HW263155   9.098   5.439   9.300  0.6075 -1.4173  0.5154
19960SOL     OW63156   6.783   8.985   8.095 -0.4585  0.2994 -0.9969
19960SOL    HW163157   6.729   9.019   8.024 -1.2086 -1.4040 -1.2746
19960SOL    HW263158   6.734   8.912   8.131  0.9755 -0.3490 -0.2495
19961SOL     OW63159   4.509   1.536   8.547 -0.3224  0.4645 -0.0104
19961SOL    HW163160   4.597   1.548   8.585  0.1322 -1.1724 -0.4694
19961SOL    HW263161   4.472   1.462   8.595 -1.2610  0.8147 -0.1769
19962SOL     OW63162   1.088   6.652  10.152  0.2432  0.3875 -0.1874
19962SOL    HW163163   1.066   6.736  10.112  0.0328  0.0121 -0.8673
19962SOL    HW263164   1.171   6.627  10.112 -0.0103 -0.0278 -0.4744
19963SOL     OW63165  10.177   7.134   6.746 -0.0402  0.0575  0.0488
19963SOL    HW163166  10.197   7.074   6.818 -0.5919 -0.3176 -0.1050
19963SOL    HW263167  10.101   7.095   6.703 -0.6000  1.0307  0.1418
19964SOL     OW63168   5.177   3.078   3.822 -0.1247  0.2170  0.5315
19964SOL    HW163169   5.224   3.065   3.904  1.5383  0.8233 -0.2615
19964SOL    HW263170   5.246   3.096   3.758 -1.3999  0.1970 -0.9111
19965SOL     OW63171   1.755   5.305  10.102  0.9841  1.0216 -0.9988
19965SOL    HW163172   1.690   5.336  10.165 -1.0397 -2.4660 -1.1156
19965SOL    HW263173   1.726   5.341  10.018  2.1341  3.4512 -0.4480
19966SOL     OW63174   1.182   2.414   5.180 -0.2720  0.2617 -0.2526
19966SOL    HW163175   1.240   2.448   5.111 -0.4098  0.6973 -0.1542
19966SOL    HW263176   1.241   2.389   5.251 -0.2422  1.3899  0.1440
19967SOL     OW63177   1.232   6.980   0.030  0.2934 -0.5700 -0.3464
19967SOL    HW163178   1.322   6.962   0.002  0.3938  0.7415 -0.9242
19967SOL    HW263179   1.177   6.946  -0.041  0.2449 -2.3509  0.4915
19968SOL     OW63180   8.090   1.761   9.190  0.4995  0.7577 -0.0945
19968SOL    HW163181   8.002   1.773   9.228 -0.7094 -0.2187 -2.4253
19968SOL    HW263182   8.124   1.850   9.181 -1.5428  1.4283 -1.9311
19969SOL     OW63183   9.053   7.582  11.187  0.3084  0.6251  0.1120
19969SOL    HW163184   9.078   7.490  11.193  0.0282  0.6079  1.1161
19969SOL    HW263185   9.108   7.617  11.116  0.3674 -0.3212 -0.3186
19970SOL     OW63186   6.751   0.875   8.104  0.0477 -0.0367 -0.0549
19970SOL    HW163187   6.701   0.855   8.184  0.5787  0.9865  0.5626
19970SOL    HW263188   6.808   0.799   8.091 -0.9106 -0.7502 -0.1688
19971SOL     OW63189   5.804   0.616   8.687 -0.1193 -0.0511 -0.1449
19971SOL    HW163190   5.757   0.568   8.756 -0.1903  1.1215  0.6446
19971SOL    HW263191   5.853   0.548   8.640  0.5746 -0.8084  1.5769
19972SOL     OW63192   1.456   1.937   3.170  0.0167 -0.3039  0.1617
19972SOL    HW163193   1.405   1.972   3.097  1.6938 -0.3117 -1.0647
19972SOL    HW263194   1.462   2.011   3.232  2.4896  1.3529 -1.8541
19973SOL     OW63195   3.747   5.168   3.824  0.2358 -0.1811 -0.1649
19973SOL    HW163196   3.653   5.159   3.836  0.3374 -1.3413 -0.1173
19973SOL    HW263197   3.764   5.138   3.735  0.0769  4.0334 -1.8284
19974SOL     OW63198   5.603   8.433   5.185  0.3288  0.7227  0.2659
19974SOL    HW163199   5.571   8.428   5.275 -1.6750  1.6376 -0.3550
19974SOL    HW263200   5.603   8.343   5.155 -1.3336  0.6547  0.4215
19975SOL     OW63201   5.052   1.260   4.831 -0.3631 -0.6457  0.4220
19975SOL    HW163202   5.108   1.189   4.864 -1.0171 -0.4955  1.9466
19975SOL    HW263203   5.113   1.333   4.817  0.1641 -1.1917 -0.2263
19976SOL     OW63204   8.917   4.124   8.547  0.4775  0.4196  0.0842
19976SOL    HW163205   8.912   4.085   8.460  1.3893 -0.7588  0.5354
19976SOL    HW263206   8.825   4.136   8.572  0.1803 -0.5341 -0.4805
19977SOL     OW63207   4.486   5.371   5.738 -0.8476  0.3084  0.4697
19977SOL    HW163208   4.555   5.410   5.684 -0.7818 -0.5995 -0.1245
19977SOL    HW263209   4.532   5.336   5.815 -0.3481 -1.7923 -0.7082
19978SOL     OW63210   3.968   1.984   9.424 -0.8595 -0.5731  0.5262
19978SOL    HW163211   3.997   2.000   9.514  1.6126 -0.5034 -0.1940
19978SOL    HW263212   4.043   1.941   9.382 -2.2346 -1.3301 -1.3053
19979SOL     OW63213   2.258   5.515   2.826  0.1034 -0.6973 -0.4522
19979SOL    HW163214   2.181   5.460   2.813 -1.1802  1.0738 -0.7876
19979SOL    HW263215   2.260   5.532   2.920 -0.4722 -0.0328 -0.5483
19980SOL     OW63216   6.944   0.150   8.268 -0.2221  0.3090 -0.2301
19980SOL    HW163217   6.992   0.200   8.202  0.2465  0.8408  0.4958
19980SOL    HW263218   7.012   0.099   8.313 -0.5447 -0.1001 -0.2017
19981SOL     OW63219   4.792   5.169   5.751 -0.0754  0.1304 -0.2830
19981SOL    HW163220   4.864   5.130   5.800 -1.4679 -0.7914  1.1401
19981SOL    HW263221   4.830   5.192   5.666  1.3369 -2.4951 -0.4712
19982SOL     OW63222   4.943   4.629   7.524  0.1611 -0.1545 -0.7620
19982SOL    HW163223   4.958   4.535   7.513  0.6403 -0.1992  0.1617
19982SOL    HW263224   4.848   4.638   7.526  0.1091 -0.5853 -1.1338
19983SOL     OW63225   9.076   1.164  10.281  0.0725 -0.6076 -0.0977
19983SOL    HW163226   9.124   1.162  10.363  0.1376 -0.1720 -0.1212
19983SOL    HW263227   9.142   1.180  10.214 -0.0267 -0.5980 -0.1943
19984SOL     OW63228   5.103  10.193   6.258  0.0941  0.0894 -0.0572
19984SOL    HW163229   5.052  10.274   6.270  0.7724  0.6617 -0.9072
19984SOL    HW263230   5.058  10.147   6.187  0.1823  0.1129 -0.1280
19985SOL     OW63231   3.754   9.794  10.838  0.4089 -0.1446 -0.3621
19985SOL    HW163232   3.780   9.760  10.923  0.5202 -1.9275 -1.0550
19985SOL    HW263233   3.672   9.840  10.854  0.4348 -0.4529  0.7018
19986SOL     OW63234   9.571   1.650   6.179  0.3386 -0.0024  0.0303
19986SOL    HW163235   9.664   1.653   6.159  0.5116 -0.8298  0.6738
19986SOL    HW263236   9.531   1.709   6.115  1.5917  2.5302  1.4170
19987SOL     OW63237   3.218   2.083   7.993 -0.4520  0.0039  0.7919
19987SOL    HW163238   3.201   2.141   7.919  0.6493 -1.2852 -0.5497
19987SOL    HW263239   3.164   2.006   7.976  1.9664 -1.5834 -0.3696
19988SOL     OW63240   8.122   8.304   3.722  0.5637 -0.2955  0.0095
19988SOL    HW163241   8.061   8.241   3.685 -0.0652 -0.6223  1.5423
19988SOL    HW263242   8.190   8.251   3.764 -0.2744 -0.0162  1.8149
19989SOL     OW63243   5.115   9.699   0.838 -0.0623  0.1944  0.0898
19989SOL    HW163244   5.116   9.741   0.923  0.5523  0.7418 -0.1806
19989SOL    HW263245   5.026   9.712   0.805  0.6502  3.3371 -0.9660
19990SOL     OW63246   2.533   0.326   5.715  0.2387  0.1610 -0.5031
19990SOL    HW163247   2.611   0.361   5.757 -0.3888  1.9226 -0.7075
19990SOL    HW263248   2.482   0.288   5.786  1.1470 -0.7913 -0.3361
19991SOL     OW63249   9.872   6.628   4.790 -0.2496 -0.0380  0.2071
19991SOL    HW163250   9.812   6.579   4.845  0.6138  0.2051  1.3972
19991SOL    HW263251   9.939   6.565   4.764 -2.6146 -1.2765 -3.9391
19992SOL     OW63252   0.495   4.232   8.932  0.6357  0.4702  0.1894
19992SOL    HW163253   0.582   4.265   8.908  0.6025  1.3874  1.2764
19992SOL    HW263254   0.473   4.278   9.013 -0.3672 -0.6328  0.5644
19993SOL     OW63255   4.372   2.074   9.483 -0.0861  0.0224  0.2811
19993SOL    HW163256   4.317   2.081   9.561 -0.1480  0.7577  0.1812
19993SOL    HW263257   4.327   2.127   9.417 -0.4487 -1.2325 -0.5033
19994SOL     OW63258   1.462  11.113  10.982  0.5068  0.0023  0.1534
19994SOL    HW163259   1.415  11.067  11.052 -0.2574 -0.6270 -0.7610
19994SOL    HW263260   1.429  11.203  10.986 -0.5683 -0.3542 -0.2679
19995SOL     OW63261   3.639   7.293   8.962 -0.2295 -0.3424  0.3448
19995SOL    HW163262   3.679   7.360   9.018 -0.0731 -1.1610  1.2161
19995SOL    HW263263   3.596   7.344   8.893  1.9252  0.6058 -0.4120
19996SOL     OW63264   2.127   3.357   7.507 -0.1417  0.5840  0.8399
19996SOL    HW163265   2.068   3.359   7.431  0.9838  2.3436 -0.0436
19996SOL    HW263266   2.069   3.336   7.581 -0.9638 -3.2749 -0.6548
19997SOL     OW63267   4.706   6.671   4.794 -0.0502 -0.1529  0.4097
19997SOL    HW163268   4.769   6.633   4.855 -0.9607  0.1443  1.5733
19997SOL    HW263269   4.757   6.690   4.715  1.0918 -0.8084  0.9675
19998SOL     OW63270   7.018   9.131   0.521  0.1639 -0.3853  0.2120
19998SOL    HW163271   6.951   9.114   0.455  1.0031 -0.5750 -0.6032
19998SOL    HW263272   7.006   9.224   0.543  0.4661 -0.0675 -0.8908
19999SOL     OW63273   6.789   9.909  11.278 -0.3152 -0.2156 -0.6036
19999SOL    HW163274   6.703   9.926  11.317 -0.7504 -1.5506 -0.9199
19999SOL    HW263275   6.843   9.983  11.306 -1.7814  1.1023 -1.0908
20000SOL     OW63276   9.757   8.275   0.478 -0.1192 -0.6084 -0.4770
20000SOL    HW163277   9.713   8.293   0.561 -1.6000 -2.3698 -0.8297
20000SOL    HW263278   9.822   8.209   0.500  0.4589 -0.0603 -0.4937
20001SOL     OW63279   0.939   9.870   7.226  0.1695  0.3084 -0.2677
20001SOL    HW163280   1.015   9.849   7.280  0.5071  1.1045 -0.4192
20001SOL    HW263281   0.864   9.852   7.283  0.4526 -0.6044 -0.1637
20002SOL     OW63282   9.238   0.164   0.478  0.0604  0.4206 -0.6826
20002SOL    HW163283   9.185   0.129   0.406 -1.0381  2.0046 -0.7116
20002SOL    HW263284   9.279   0.088   0.517  0.6554 -0.5113 -2.9551
20003SOL     OW63285   8.271   1.022   6.248  0.4181  0.1392 -0.4646
20003SOL    HW163286   8.292   0.945   6.195  0.8810  0.2470 -0.4430
20003SOL    HW263287   8.176   1.017   6.261  0.3318 -0.0006 -1.1176
20004SOL     OW63288   4.550   4.078   5.720 -0.1986 -0.2601 -0.0739
20004SOL    HW163289   4.625   4.138   5.720 -1.5432  1.5253  0.2303
20004SOL    HW263290   4.550   4.040   5.632  0.9651 -0.1923 -0.1214
20005SOL     OW63291   0.475   4.827   6.949 -0.1113  0.5457  0.2222
20005SOL    HW163292   0.452   4.847   7.040  1.0206  1.0394  0.4074
20005SOL    HW263293   0.570   4.838   6.944 -0.1419  0.4504 -1.0050
20006SOL     OW63294   5.961   5.366   4.915  0.3418 -0.1276 -0.6249
20006SOL    HW163295   5.896   5.296   4.904 -0.3017  0.2596  0.5004
20006SOL    HW263296   6.045   5.321   4.913 -0.0468 -0.8981 -0.2420
20007SOL     OW63297   1.106   4.596  10.655  0.4671  0.2782  0.2362
20007SOL    HW163298   1.127   4.529  10.590  3.6748  1.9641 -0.6730
20007SOL    HW263299   1.049   4.657  10.608 -1.3417 -0.9874  0.6576
20008SOL     OW63300   2.401   7.776   7.923  0.6076  0.4757 -0.1723
20008SOL    HW163301   2.387   7.867   7.948 -0.8664  0.5285 -1.0539
20008SOL    HW263302   2.319   7.750   7.881  1.3480 -0.9708 -0.8006
20009SOL     OW63303  10.582   3.085   5.168 -0.5238 -0.5269 -0.6024
20009SOL    HW163304  10.599   3.118   5.080  0.2588  0.7847  0.0093
20009SOL    HW263305  10.524   3.151   5.207  0.3544 -0.3024  0.3611
20010SOL     OW63306   8.012   4.051   8.556 -0.1245 -0.1824 -0.9108
20010SOL    HW163307   8.036   4.114   8.625  1.4207  0.5227 -2.0392
20010SOL    HW263308   7.922   4.026   8.578  0.1388  0.4010  1.0659
20011SOL     OW63309   3.493   2.347   7.708  0.0745 -0.3236  0.8701
20011SOL    HW163310   3.517   2.260   7.739  0.2566  0.7456  4.0535
20011SOL    HW263311   3.414   2.370   7.758 -0.5692  0.9646 -0.6434
20012SOL     OW63312  10.813   0.874   9.173  0.1864  0.4422 -0.2336
20012SOL    HW163313  10.812   0.799   9.114  0.7206  1.1017 -1.1162
20012SOL    HW263314  10.883   0.930   9.139  0.8466  0.6139  1.3346
20013SOL     OW63315   3.584   3.669   3.688  0.8929  0.5733 -0.4015
20013SOL    HW163316   3.633   3.597   3.728 -1.4595 -0.3723  0.9962
20013SOL    HW263317   3.602   3.744   3.744  1.8920  0.6493 -0.7944
20014SOL     OW63318   9.998   4.146  10.610 -0.5384  0.3748  0.1934
20014SOL    HW163319   9.924   4.107  10.657  0.6105 -0.1392  1.6640
20014SOL    HW263320  10.043   4.071  10.569 -1.0296  0.7240 -1.0190
20015SOL     OW63321   1.826   6.305   9.075 -0.0256  0.5866 -0.7166
20015SOL    HW163322   1.884   6.282   9.147 -2.0524 -1.0026  0.5124
20015SOL    HW263323   1.832   6.230   9.015 -0.7072  0.4216 -0.5972
20016SOL     OW63324   1.084   9.538   2.765 -0.1396  0.1256  0.1451
20016SOL    HW163325   1.099   9.454   2.721  0.5822  0.5687 -0.4629
20016SOL    HW263326   1.144   9.599   2.723 -0.6453  0.9547  0.5970
20017SOL     OW63327   2.811   5.610   4.670  0.2677  0.0132  0.1985
20017SOL    HW163328   2.871   5.619   4.744  1.1795 -0.5178 -0.4559
20017SOL    HW263329   2.726   5.592   4.710  0.8886 -1.0141  1.1012
20018SOL     OW63330  10.796   4.881   6.353 -0.0943  0.0047 -0.2706
20018SOL    HW163331  10.787   4.965   6.309 -2.5028  0.0597  0.1564
20018SOL    HW263332  10.890   4.864   6.356  0.4167  2.4727 -0.7230
20019SOL     OW63333   8.109   2.704   9.370  0.1973 -0.0657  0.7093
20019SOL    HW163334   8.105   2.653   9.289  1.4675  1.8618 -0.6456
20019SOL    HW263335   8.018   2.712   9.398 -0.3691 -0.0604 -1.0042
20020SOL     OW63336   1.690   9.816   8.837 -0.6657 -0.1833  0.5295
20020SOL    HW163337   1.752   9.826   8.910 -1.7808 -1.1950  1.6704
20020SOL    HW263338   1.632   9.744   8.864  0.3161 -2.2600 -2.4085
20021SOL     OW63339   1.019   9.414   5.422 -0.3706  0.2970  0.3425
20021SOL    HW163340   0.997   9.502   5.450  1.0222  0.5164  0.8352
20021SOL    HW263341   1.113   9.418   5.401  0.2064 -1.4741  2.2094
20022SOL     OW63342   8.928   1.356   9.796  0.0878 -0.2172  0.1374
20022SOL    HW163343   9.004   1.392   9.751  0.1538  0.8402  1.0376
20022SOL    HW263344   8.959   1.275   9.836 -0.1512 -1.5511 -2.2059
20023SOL     OW63345   6.321  10.756   3.464 -0.0911 -0.5155  0.4333
20023SOL    HW163346   6.291  10.725   3.379 -1.2054 -1.8582  1.2714
20023SOL    HW263347   6.410  10.720   3.472  0.0564 -0.3033 -0.1917
20024SOL     OW63348   6.752   8.183   6.664  0.2787  0.4631  0.0018
20024SOL    HW163349   6.801   8.141   6.735 -1.0417  0.6553  1.0705
20024SOL    HW263350   6.713   8.261   6.704 -1.3328  0.0272 -0.6219
20025SOL     OW63351   7.388   6.015  10.612 -0.7665  0.3949  0.5538
20025SOL    HW163352   7.414   6.090  10.559  0.9683 -0.5465 -0.0020
20025SOL    HW263353   7.376   5.944  10.549  2.2600 -0.9991  1.3780
20026SOL     OW63354  11.177   1.026  10.337 -0.3733  0.5587 -0.3519
20026SOL    HW163355  11.239   1.076  10.284  1.8811 -0.7582  0.8643
20026SOL    HW263356  11.210   1.034  10.427 -0.5084 -2.1701  0.0253
20027SOL     OW63357   3.580   0.548  11.087  0.3359  0.4362  0.0266
20027SOL    HW163358   3.544   0.622  11.038  1.9060  0.6796 -0.8099
20027SOL    HW263359   3.512   0.480  11.080  0.2500  0.6645 -2.0202
20028SOL     OW63360   9.106   5.193   0.278  0.5484 -0.1169 -0.2484
20028SOL    HW163361   9.056   5.196   0.360  0.2613  0.5167 -0.4403
20028SOL    HW263362   9.147   5.279   0.273  1.3897 -0.5149 -0.2671
20029SOL     OW63363   4.043   1.076   9.346 -0.5401 -0.0966 -0.0977
20029SOL    HW163364   3.978   1.006   9.357 -0.4818 -0.5411 -2.0702
20029SOL    HW263365   4.106   1.040   9.283  1.2625  0.5901  1.2096
20030SOL     OW63366   4.798  10.851   8.645  0.0123  0.5918  0.1224
20030SOL    HW163367   4.823  10.934   8.686 -0.3515  0.0566  1.4769
20030SOL    HW263368   4.838  10.784   8.701 -0.6948 -0.1673 -0.2653
20031SOL     OW63369   7.112   8.831   0.480  0.1272 -0.5452  0.4148
20031SOL    HW163370   7.126   8.926   0.481 -0.8897 -0.3714 -0.0348
20031SOL    HW263371   7.080   8.810   0.567 -3.4847  0.2156 -0.5596
20032SOL     OW63372   5.979   8.678   3.065  0.1813  0.7758 -0.2717
20032SOL    HW163373   5.913   8.613   3.089  0.9980  0.1141  0.2728
20032SOL    HW263374   6.014   8.647   2.982 -0.6531  1.4968 -0.9011
20033SOL     OW63375   2.173   6.106   9.354  0.1754  0.2191 -0.0621
20033SOL    HW163376   2.262   6.098   9.388  0.3283 -2.5750 -0.8100
20033SOL    HW263377   2.120   6.056   9.416 -0.9940  2.1483  0.5657
20034SOL     OW63378   8.014   2.556   3.063  0.4013 -0.8906  0.0716
20034SOL    HW163379   8.007   2.547   2.968  0.2008 -0.2250  0.0196
20034SOL    HW263380   8.108   2.567   3.078  0.2771  0.8311 -0.2320
20035SOL     OW63381   6.537   3.937   2.281 -0.0481  0.0285  0.0593
20035SOL    HW163382   6.614   3.893   2.318 -0.7229  1.9433  4.2990
20035SOL    HW263383   6.468   3.924   2.346 -2.3458  1.2699 -1.9688
20036SOL     OW63384   7.526   7.723   8.477 -0.0700  0.2924  0.3775
20036SOL    HW163385   7.452   7.731   8.417 -0.0537  1.5887  0.4926
20036SOL    HW263386   7.602   7.745   8.423 -0.0705  1.6070  0.8624
20037SOL     OW63387   1.631  11.243   6.756 -0.3399 -0.3542 -1.1630
20037SOL    HW163388   1.681  11.198   6.824 -0.4364 -0.7667 -1.3648
20037SOL    HW263389   1.697  11.289   6.704 -0.2926  0.2836 -0.5666
20038SOL     OW63390   6.544   4.724   5.328 -0.0651  0.4907 -0.2416
20038SOL    HW163391   6.467   4.681   5.290 -0.2692 -0.5014  1.1960
20038SOL    HW263392   6.514   4.812   5.349 -0.4523  0.4986 -0.8011
20039SOL     OW63393   0.139  10.135   4.578 -0.8032 -0.2040 -0.3856
20039SOL    HW163394   0.130  10.148   4.672 -0.7883  1.1297 -0.5492
20039SOL    HW263395   0.058  10.169   4.540  0.1408  1.4625 -1.0102
20040SOL     OW63396   4.671   5.932   5.219 -0.1450  0.0497 -0.2126
20040SOL    HW163397   4.691   5.942   5.126  0.2198  0.0730 -0.1336
20040SOL    HW263398   4.738   5.872   5.252  1.2395  1.9178  0.5484
20041SOL     OW63399   0.948  10.962   9.280 -0.1261 -0.0573  0.1766
20041SOL    HW163400   0.861  10.978   9.242  1.0870  0.3450 -2.7452
20041SOL    HW263401   1.005  10.951   9.204  2.6738  1.1463  1.9462
20042SOL     OW63402   4.079   9.169   5.106  0.0285 -0.3485  0.2903
20042SOL    HW163403   4.138   9.233   5.067 -1.6686  1.7334  0.9336
20042SOL    HW263404   4.096   9.175   5.200  0.4714 -1.5245  0.2952
20043SOL     OW63405   6.643   2.287  10.226 -0.4573 -0.3842 -0.2964
20043SOL    HW163406   6.599   2.289  10.141 -0.1827  1.5914 -0.4381
20043SOL    HW263407   6.731   2.257  10.206 -0.9051 -1.6652 -0.4236
20044SOL     OW63408   1.874   8.609   1.122 -0.1194  0.1327  0.3911
20044SOL    HW163409   1.916   8.695   1.133 -0.1205  0.2712 -0.6024
20044SOL    HW263410   1.841   8.610   1.032 -1.2267 -0.4308  0.7761
20045SOL     OW63411   3.378   1.449   2.312  0.2701 -0.2419  0.2636
20045SOL    HW163412   3.358   1.382   2.378 -2.2419 -0.0831 -0.2241
20045SOL    HW263413   3.346   1.531   2.350 -2.1852 -0.2998 -1.4464
20046SOL     OW63414   0.932  10.052   9.068  0.2041  0.4283 -0.0223
20046SOL    HW163415   1.005   9.996   9.045 -0.0876 -0.8121  1.8485
20046SOL    HW263416   0.864   9.992   9.100 -0.0749  1.7796  2.1682
20047SOL     OW63417   5.277   5.292   5.742 -0.4577  0.0827 -0.1444
20047SOL    HW163418   5.356   5.281   5.794  1.0041  0.1384 -2.1993
20047SOL    HW263419   5.212   5.328   5.802  1.2660  0.6218  1.4758
20048SOL     OW63420   2.092   3.164   0.998 -0.0506 -0.2620  0.3055
20048SOL    HW163421   2.046   3.216   1.064  0.0680  0.0161  0.1735
20048SOL    HW263422   2.106   3.079   1.039  0.4360  0.0567  0.8172
20049SOL     OW63423   9.902   0.915   0.720  0.4819 -0.1517 -0.2487
20049SOL    HW163424   9.845   0.883   0.649  0.4694 -0.8981  0.0857
20049SOL    HW263425   9.887   1.009   0.722 -0.0589 -0.2184 -0.7695
20050SOL     OW63426   9.855   5.420   6.114  0.6174 -0.3573  0.2804
20050SOL    HW163427   9.832   5.485   6.180  2.4596 -1.7605  2.4397
20050SOL    HW263428   9.926   5.461   6.064  0.6347 -0.0676  0.5348
20051SOL     OW63429   6.971   1.787   6.921 -0.3527 -0.1893 -0.0476
20051SOL    HW163430   7.001   1.755   7.006 -0.2360 -1.1650 -0.4380
20051SOL    HW263431   6.878   1.766   6.918 -0.2034 -0.8142 -0.4432
20052SOL     OW63432   2.264   7.677   6.474  0.6485  0.1937 -0.0774
20052SOL    HW163433   2.234   7.608   6.414  0.7679  0.7226 -0.7547
20052SOL    HW263434   2.335   7.720   6.427  1.8613 -0.4380  1.1322
20053SOL     OW63435  10.296   9.135   1.913 -0.1718 -0.5647 -0.7263
20053SOL    HW163436  10.205   9.106   1.905 -0.0589 -0.9289 -0.7044
20053SOL    HW263437  10.348   9.060   1.883  0.1049 -0.1820 -1.2204
20054SOL     OW63438  10.507  10.513   5.572  0.0130  0.1079 -0.4595
20054SOL    HW163439  10.425  10.562   5.575  1.6905  3.1371  0.4236
20054SOL    HW263440  10.514  10.473   5.659 -0.5575 -0.2893 -0.5892
20055SOL     OW63441   2.869   5.647   3.018  0.3294 -0.4723  0.1023
20055SOL    HW163442   2.876   5.551   3.023 -0.1199 -0.5444 -0.6155
20055SOL    HW263443   2.928   5.678   3.087  0.6528 -1.2607  0.1942
20056SOL     OW63444   7.364   8.639   8.915 -0.0451 -0.6320  0.3691
20056SOL    HW163445   7.446   8.678   8.884 -0.6742  1.1646  0.8774
20056SOL    HW263446   7.389   8.593   8.995  0.7239 -1.3746 -0.2711
20057SOL     OW63447   0.634   1.689   8.461 -0.1361  0.8429  0.7959
20057SOL    HW163448   0.635   1.710   8.368 -1.2881  2.9776  1.1928
20057SOL    HW263449   0.660   1.597   8.466 -1.4066  0.2678 -1.7416
20058SOL     OW63450   3.596   1.174   6.949 -0.7199 -0.1167 -0.0290
20058SOL    HW163451   3.574   1.105   7.012 -3.2622  0.7662  0.1856
20058SOL    HW263452   3.654   1.233   6.998 -2.0745  0.1725  1.3506
20059SOL     OW63453   5.447   0.113   2.548  0.0515  0.2376  0.4856
20059SOL    HW163454   5.466   0.022   2.573 -1.1683 -0.7035 -1.6802
20059SOL    HW263455   5.390   0.145   2.618  0.2488 -0.7900  1.1444
20060SOL     OW63456   8.745  11.113   5.204 -0.4398 -0.1472 -0.3050
20060SOL    HW163457   8.812  11.071   5.151 -0.9170 -0.2166 -0.8714
20060SOL    HW263458   8.705  11.178   5.145 -2.3833 -1.6381 -0.7648
20061SOL     OW63459  10.782   4.057   6.457 -1.0813  0.1478 -0.1126
20061SOL    HW163460  10.843   4.099   6.398 -0.6747  1.4890  1.1995
20061SOL    HW263461  10.771   3.969   6.422 -0.2282  0.6346 -1.6873
20062SOL     OW63462   6.038   2.288  10.017  0.3154  0.4282  0.1252
20062SOL    HW163463   5.972   2.225  10.047  1.0545 -1.0326 -1.1808
20062SOL    HW263464   6.003   2.323   9.935  1.0493 -0.2372 -0.4935
20063SOL     OW63465   5.448   0.736   7.570  0.0369  0.4148 -0.1106
20063SOL    HW163466   5.507   0.661   7.560  0.2122  0.5948 -0.4773
20063SOL    HW263467   5.380   0.722   7.505  0.9589  1.3901 -1.3396
20064SOL     OW63468   8.849   3.036   5.902  0.2361 -0.4858 -0.2566
20064SOL    HW163469   8.888   2.995   5.825  1.1494 -2.2069  1.0589
20064SOL    HW263470   8.915   3.100   5.931  0.1368 -0.2416 -0.5649
20065SOL     OW63471   1.982   4.591   8.383 -0.4005  0.1084  0.4076
20065SOL    HW163472   2.020   4.679   8.387  0.3626 -0.1313 -1.0757
20065SOL    HW263473   2.004   4.552   8.468  1.0316  0.6344  0.3019
20066SOL     OW63474   7.469   6.122   9.548  0.3981  0.1988  0.4987
20066SOL    HW163475   7.427   6.176   9.616 -0.5243 -0.3755  0.4026
20066SOL    HW263476   7.446   6.165   9.466  0.9477  0.5111  0.5025
20067SOL     OW63477  11.199   4.436   4.727  0.2635  0.0965 -0.3112
20067SOL    HW163478  11.192   4.474   4.639  0.8918  0.6604 -0.1284
20067SOL    HW263479  11.268   4.487   4.769 -0.5883  0.3486  0.7907
20068SOL     OW63480   7.443   9.627   8.009 -0.2561  0.4525  0.1493
20068SOL    HW163481   7.537   9.622   8.025 -0.1722  0.7107 -0.2527
20068SOL    HW263482   7.419   9.715   8.036 -0.3614  0.4224  0.1522
20069SOL     OW63483   1.007   3.845   5.282 -0.8491  0.2517  0.3011
20069SOL    HW163484   0.924   3.821   5.323 -0.7061  1.5109  1.3915
20069SOL    HW263485   1.052   3.899   5.347  0.2429  0.7030 -0.7725
20070SOL     OW63486   1.603   3.803   7.629 -0.4331  0.2754  0.0779
20070SOL    HW163487   1.582   3.712   7.607 -1.4347  0.1295  1.5102
20070SOL    HW263488   1.560   3.855   7.561 -0.9380 -0.2651 -0.0234
20071SOL     OW63489   9.556   8.729   5.734  0.4720  0.4360  0.5169
20071SOL    HW163490   9.545   8.665   5.663 -1.0780  0.4553  0.6864
20071SOL    HW263491   9.597   8.680   5.804 -0.8453 -0.4570  0.7020
20072SOL     OW63492  10.552   2.759   9.408 -0.0799 -0.1814  0.5339
20072SOL    HW163493  10.572   2.830   9.348 -0.8174 -0.3489  0.0838
20072SOL    HW263494  10.576   2.793   9.494  0.6010  0.2052  0.1983
20073SOL     OW63495  10.160   3.987   5.061 -0.3842 -0.1951  0.2895
20073SOL    HW163496  10.213   3.995   4.981  0.3407 -0.4240  0.7326
20073SOL    HW263497  10.077   3.952   5.031 -0.6854  1.1594 -0.5744
20074SOL     OW63498   1.113  10.927   2.564 -0.2060  0.6306 -0.1305
20074SOL    HW163499   1.182  10.993   2.570 -1.3036  1.9297 -1.1071
20074SOL    HW263500   1.105  10.892   2.652  1.2366  0.9118  0.1409
20075SOL     OW63501   7.093   9.449   0.878  0.0025 -0.2364 -0.4513
20075SOL    HW163502   7.084   9.480   0.969  1.1306 -1.5240  0.1338
20075SOL    HW263503   7.151   9.513   0.836 -0.3897  0.2744 -0.2282
20076SOL     OW63504   7.119   3.545   5.052  0.4410  0.2336 -0.7430
20076SOL    HW163505   7.117   3.454   5.083 -0.3546  0.7912  0.9661
20076SOL    HW263506   7.186   3.587   5.105 -0.7671  1.1585  0.1071
20077SOL     OW63507   8.131   7.247   7.210 -0.6515 -0.3696  0.0705
20077SOL    HW163508   8.222   7.234   7.182 -0.8205 -1.3662 -0.0526
20077SOL    HW263509   8.136   7.252   7.306 -0.6107 -1.9280  0.1791
20078SOL     OW63510   9.778   3.511   5.510 -0.2591  0.3101  0.0604
20078SOL    HW163511   9.793   3.438   5.570 -0.8300 -0.0207 -0.1985
20078SOL    HW263512   9.686   3.504   5.486  0.4166 -0.9258 -2.6164
20079SOL     OW63513   1.879   7.320   7.947 -0.0851  0.5309 -0.2754
20079SOL    HW163514   1.879   7.233   7.909  2.2816  0.8185 -1.1080
20079SOL    HW263515   1.854   7.378   7.874 -0.5388  0.6497 -0.0273
20080SOL     OW63516   0.295  11.243   3.812 -0.1782  0.0450  0.1372
20080SOL    HW163517   0.318  11.224   3.903 -0.9169 -1.2440  0.0747
20080SOL    HW263518   0.224  11.183   3.792 -0.5934  0.8891 -1.0478
20081SOL     OW63519  10.507   6.485   0.057  0.2052  0.1714 -0.0546
20081SOL    HW163520  10.514   6.474   0.151 -0.8573  1.2886  0.1828
20081SOL    HW263521  10.417   6.513   0.042  0.7123  1.3270 -1.2440
20082SOL     OW63522   9.213  10.039   3.627 -0.3269 -0.1363 -0.8307
20082SOL    HW163523   9.155  10.108   3.658  0.6298  0.0668  0.6024
20082SOL    HW263524   9.181  10.019   3.539 -1.6346  0.9797 -0.6485
20083SOL     OW63525   4.961   7.362  10.193  0.1598 -0.0637 -0.2824
20083SOL    HW163526   4.937   7.370  10.101 -0.2103  0.0365 -0.1786
20083SOL    HW263527   5.049   7.323  10.192  0.1498 -0.0760 -0.6750
20084SOL     OW63528   7.297  10.877   0.434 -0.3281 -0.2984 -0.3893
20084SOL    HW163529   7.237  10.950   0.419 -1.5882 -1.0570  0.7111
20084SOL    HW263530   7.349  10.905   0.510 -0.1646 -0.1804 -0.5421
20085SOL     OW63531   1.551   9.064   1.338  0.2146  0.2628 -0.8558
20085SOL    HW163532   1.471   9.016   1.317  0.5240 -0.7051  0.0698
20085SOL    HW263533   1.592   9.013   1.408  1.3149  1.0918 -0.8621
20086SOL     OW63534   4.415   8.140   1.696 -0.0088 -0.0176 -0.5463
20086SOL    HW163535   4.386   8.156   1.606 -0.3954  1.2864 -0.2084
20086SOL    HW263536   4.401   8.046   1.710 -1.0144 -0.0135 -1.4586
20087SOL     OW63537   4.892   8.771   1.670  0.8705  0.5886  0.4317
20087SOL    HW163538   4.811   8.769   1.620  0.6418  0.4712  0.7997
20087SOL    HW263539   4.957   8.808   1.610  0.7975 -0.3166 -0.2396
20088SOL     OW63540   9.025   5.050   4.076 -0.0165  0.5015 -0.4950
20088SOL    HW163541   8.969   5.016   4.146  1.0531  0.0037  0.1375
20088SOL    HW263542   9.032   4.977   4.014 -0.9015  0.9165 -1.1003
20089SOL     OW63543   7.483   7.730   5.041  0.4237 -0.0704 -0.2683
20089SOL    HW163544   7.475   7.652   5.095  0.3716 -1.4591 -2.1807
20089SOL    HW263545   7.555   7.780   5.081  0.7891 -1.3189  0.7049
20090SOL     OW63546   3.253   2.863   4.368 -0.3217  0.3357  0.3472
20090SOL    HW163547   3.275   2.831   4.456  0.3859 -2.0796 -0.6223
20090SOL    HW263548   3.334   2.851   4.318 -0.8545  1.2214 -0.7694
20091SOL     OW63549   3.803   3.793   6.543 -0.2709 -0.4584 -0.2039
20091SOL    HW163550   3.863   3.867   6.550 -0.5672 -0.2479  0.1506
20091SOL    HW263551   3.794   3.761   6.633 -1.1199 -0.1430 -0.1678
20092SOL     OW63552   3.574   3.409   4.514 -0.3958  0.3380 -0.0507
20092SOL    HW163553   3.579   3.428   4.608 -1.4738  0.0784  0.0647
20092SOL    HW263554   3.510   3.338   4.507  1.5055 -1.4489 -0.7358
20093SOL     OW63555  10.564   0.985   7.411 -0.1653 -0.3737 -0.0387
20093SOL    HW163556  10.483   0.935   7.423  0.5379 -1.9940 -1.7348
20093SOL    HW263557  10.574   0.993   7.316  1.0426  0.8785  0.1599
20094SOL     OW63558   2.210   2.835   8.761 -0.2907  0.4483 -0.4606
20094SOL    HW163559   2.253   2.834   8.676  0.0665 -0.5107 -0.2749
20094SOL    HW263560   2.198   2.743   8.784  1.3490  0.6042  1.3698
20095SOL     OW63561   8.371   6.172   0.921  0.6092  0.5838  0.2524
20095SOL    HW163562   8.362   6.116   0.998  1.5361 -0.6836 -0.5279
20095SOL    HW263563   8.306   6.242   0.934 -0.3121 -0.4593  1.4317
20096SOL     OW63564   3.173   3.545   5.407  0.0540  0.5956  0.0444
20096SOL    HW163565   3.219   3.520   5.487 -0.6868 -2.3846 -0.3369
20096SOL    HW263566   3.220   3.499   5.337  0.1701  2.4654 -1.1945
20097SOL     OW63567   7.991   5.122   8.527 -0.2069  0.2922 -0.4540
20097SOL    HW163568   7.998   5.206   8.481 -1.0249  0.8956  0.4782
20097SOL    HW263569   8.071   5.076   8.504 -0.5881  0.5331 -2.5146
20098SOL     OW63570   1.019   6.885   9.324  0.0484  0.5414 -0.5418
20098SOL    HW163571   0.983   6.941   9.256 -1.3295  0.0832 -0.2052
20098SOL    HW263572   1.110   6.870   9.297 -0.0592  1.5435 -1.5038
20099SOL     OW63573   4.223  10.798   7.585 -0.6223  0.2294 -0.5741
20099SOL    HW163574   4.287  10.783   7.655 -1.1758 -0.8539 -0.2868
20099SOL    HW263575   4.275  10.829   7.511  0.5831 -2.6869 -1.0683
20100SOL     OW63576   0.943   1.259   2.974 -0.0597  0.3408  0.1287
20100SOL    HW163577   0.974   1.237   3.062  1.5892 -0.1005 -0.5138
20100SOL    HW263578   0.850   1.279   2.985  0.4589  1.9255  2.2302
20101SOL     OW63579   7.489   4.276  10.664  0.1614  0.7195  0.2859
20101SOL    HW163580   7.526   4.220  10.596 -1.1165 -0.7978  0.7727
20101SOL    HW263581   7.500   4.226  10.745  0.5571  1.9630  1.0260
20102SOL     OW63582   3.090   9.323   4.656  0.5920 -0.4703 -0.1882
20102SOL    HW163583   3.029   9.381   4.612  0.3156  0.3213  1.1907
20102SOL    HW263584   3.043   9.239   4.663  0.1208 -0.2096 -0.1988
20103SOL     OW63585   0.104   7.100   7.687  0.3388 -0.2517  0.4431
20103SOL    HW163586   0.120   7.193   7.700  1.8554 -0.4467  0.2047
20103SOL    HW263587   0.010   7.093   7.670  0.1074  1.1537  1.0453
20104SOL     OW63588   9.033   9.123   2.036  0.2138  0.8092  0.3673
20104SOL    HW163589   9.118   9.088   2.062  0.7815  0.8627 -1.3267
20104SOL    HW263590   9.050   9.212   2.006 -0.3872  0.7605 -0.1666
20105SOL     OW63591   8.288   9.041   5.382 -0.3006 -0.4054  0.3720
20105SOL    HW163592   8.264   9.000   5.299  0.2330  1.5235 -0.8001
20105SOL    HW263593   8.208   9.086   5.411 -0.0955  0.1164  0.1417
20106SOL     OW63594  10.855   6.542  10.095 -0.2739 -0.0297  0.3274
20106SOL    HW163595  10.879   6.450  10.089  0.6676  0.2336 -0.1370
20106SOL    HW263596  10.809   6.550  10.179  0.7166 -0.6848  0.9495
20107SOL     OW63597   1.184  10.468   3.376 -0.7739 -0.1840  0.2473
20107SOL    HW163598   1.195  10.510   3.290  1.3017  1.5154  1.2588
20107SOL    HW263599   1.094  10.488   3.401 -0.7288  1.1857 -0.5963
20108SOL     OW63600   0.270   3.201   1.654  0.2895  0.3052 -0.4083
20108SOL    HW163601   0.188   3.248   1.671 -0.3439 -1.6709  2.7749
20108SOL    HW263602   0.243   3.119   1.614  0.7749  0.0074 -0.1420
20109SOL     OW63603   6.404   3.999   1.497 -0.3091  0.1654  0.3016
20109SOL    HW163604   6.416   4.042   1.412 -1.4782  1.4911  0.7834
20109SOL    HW263605   6.483   4.022   1.547 -0.7821  1.5602  0.4490
20110SOL     OW63606   1.271   1.165   6.452  0.3220  0.2932  0.7074
20110SOL    HW163607   1.364   1.184   6.463  0.5488 -0.2342 -0.1703
20110SOL    HW263608   1.232   1.189   6.536  1.0588  1.6013  0.6981
20111SOL     OW63609   0.912  11.022   1.096 -0.1998  0.0049 -0.1769
20111SOL    HW163610   0.958  10.961   1.039  1.7711  0.5719  0.7226
20111SOL    HW263611   0.850  10.968   1.144  2.3914 -1.6313  1.5622
20112SOL     OW63612   0.796   4.009   6.090  0.2671  0.1997 -0.3912
20112SOL    HW163613   0.822   4.054   6.170  0.3859 -0.0828 -0.2686
20112SOL    HW263614   0.756   4.077   6.036 -1.1231  0.1276  0.4817
20113SOL     OW63615   8.874   4.085   7.007  0.3374 -0.5946 -0.3094
20113SOL    HW163616   8.834   4.000   6.989  0.2510 -0.5705 -0.2310
20113SOL    HW263617   8.809   4.149   6.978  0.0698 -0.5550  0.3557
20114SOL     OW63618   7.799   7.821   3.767 -0.3599  0.7266  0.3813
20114SOL    HW163619   7.721   7.874   3.785 -0.5923 -0.0064  1.6176
20114SOL    HW263620   7.871   7.871   3.805 -0.4670  0.5647  0.8013
20115SOL     OW63621   6.235  10.737   2.391  1.0829  0.4559 -0.1400
20115SOL    HW163622   6.254  10.793   2.467  1.2773  1.8972 -1.1915
20115SOL    HW263623   6.316  10.690   2.374  0.9169 -0.1849  0.7657
20116SOL     OW63624   5.952   2.699   9.896  0.3561 -0.2506  0.0595
20116SOL    HW163625   5.868   2.746   9.897 -0.9006 -2.3023  2.1342
20116SOL    HW263626   6.015   2.763   9.929 -0.3729  1.3081 -1.4516
20117SOL     OW63627   6.051   4.963   3.013  0.5658 -0.9855 -0.4080
20117SOL    HW163628   6.145   4.951   3.025  0.8300 -1.4258 -2.4356
20117SOL    HW263629   6.044   5.048   2.969 -0.1651 -0.0978  1.3537
20118SOL     OW63630   8.646   5.773   6.523  0.1081 -0.2638  0.0192
20118SOL    HW163631   8.572   5.813   6.569  0.5923  1.0543 -0.2781
20118SOL    HW263632   8.722   5.821   6.554  0.5905 -0.2145 -1.1825
20119SOL     OW63633   5.587   9.504   7.720  0.0331  0.6383 -0.7905
20119SOL    HW163634   5.550   9.436   7.777 -1.6052  1.6105 -0.6188
20119SOL    HW263635   5.681   9.487   7.720 -0.0426 -0.1261  1.2516
20120SOL     OW63636   0.805   5.140   9.457 -0.0141 -0.4039  0.1054
20120SOL    HW163637   0.791   5.074   9.525 -1.0004  0.8937  1.2350
20120SOL    HW263638   0.832   5.219   9.505 -1.4514  0.7638 -0.8869
20121SOL     OW63639   5.047   1.260   9.523 -0.0836 -0.0088 -0.0637
20121SOL    HW163640   5.142   1.254   9.519 -0.0306  0.3658  0.4340
20121SOL    HW263641   5.017   1.173   9.550  0.3505  0.6421  2.8919
20122SOL     OW63642   3.190  11.345   9.928  0.8288  0.0562 -0.5090
20122SOL    HW163643   3.256  11.413   9.915  1.6336 -0.8555 -1.4300
20122SOL    HW263644   3.202  11.316  10.018  0.8129  0.7873 -0.2689
20123SOL     OW63645   6.710   6.298   4.841  0.2173  0.5643  0.0620
20123SOL    HW163646   6.724   6.383   4.801 -0.3496  0.3712 -0.5736
20123SOL    HW263647   6.677   6.243   4.770  0.3520 -0.1224  0.5146
20124SOL     OW63648   5.059   8.491   7.797  0.4174 -0.5905 -0.2364
20124SOL    HW163649   5.038   8.573   7.753 -2.0406 -0.3556  1.1876
20124SOL    HW263650   5.023   8.423   7.740  1.2375 -0.6307 -0.7331
20125SOL     OW63651   4.893   6.676  11.164  1.0492 -0.3587 -1.1274
20125SOL    HW163652   4.904   6.595  11.114 -2.0178 -0.7127 -1.4377
20125SOL    HW263653   4.855   6.648  11.247  0.4711  0.7132 -1.0126
20126SOL     OW63654   3.237   7.695   2.121  0.6942  0.1612 -0.0285
20126SOL    HW163655   3.289   7.725   2.047  0.1991 -0.2824 -0.5674
20126SOL    HW263656   3.238   7.600   2.115 -2.4239  0.0791 -1.7425
20127SOL     OW63657   2.355   1.834   7.405 -0.6481  0.4551 -0.0246
20127SOL    HW163658   2.292   1.808   7.472 -2.2910  1.5326 -1.0801
20127SOL    HW263659   2.317   1.802   7.323 -0.2074  1.7811 -0.7714
20128SOL     OW63660   2.734   8.296  10.127 -0.3324  0.8327 -0.0491
20128SOL    HW163661   2.710   8.385  10.101 -0.8174  0.6948 -0.0876
20128SOL    HW263662   2.803   8.308  10.193  1.4318  1.1868 -1.8634
20129SOL     OW63663   4.757   1.388   9.473  0.4108 -0.2185  0.3038
20129SOL    HW163664   4.693   1.319   9.488 -0.1054  0.0373 -0.5979
20129SOL    HW263665   4.840   1.342   9.460  0.4724 -0.5383  1.7246
20130SOL     OW63666   8.082   5.506   8.008 -0.0383  0.2980 -0.2459
20130SOL    HW163667   8.041   5.424   7.981  1.2836  0.0195 -1.4850
20130SOL    HW263668   8.114   5.488   8.097 -1.9508  0.3248  0.5034
20131SOL     OW63669   8.359   0.600   5.339  0.1162 -0.5852 -0.3304
20131SOL    HW163670   8.391   0.687   5.316  1.3198 -0.5599  1.2405
20131SOL    HW263671   8.363   0.550   5.258  0.3784  0.5442 -1.0269
20132SOL     OW63672   6.296   2.207   9.921 -0.3145 -0.1900  0.0498
20132SOL    HW163673   6.208   2.210   9.958  0.1815 -2.5755  1.6031
20132SOL    HW263674   6.291   2.141   9.852  0.2481 -0.2646  0.0778
20133SOL     OW63675   7.944   1.963  10.396 -0.4319 -0.5327  0.0369
20133SOL    HW163676   8.004   1.924  10.333 -0.8682  0.2806 -0.9092
20133SOL    HW263677   7.962   1.917  10.478  4.4828  2.4466  1.0156
20134SOL     OW63678   1.432   4.425   4.937  0.4948  0.4980 -0.3716
20134SOL    HW163679   1.388   4.446   5.019  1.8246 -0.1705  0.5571
20134SOL    HW263680   1.380   4.354   4.899 -0.2103  0.9091 -0.1876
20135SOL     OW63681   4.055   1.201  10.848  0.1488 -0.4965  0.2746
20135SOL    HW163682   3.997   1.277  10.849  0.8085  0.0806 -1.3733
20135SOL    HW263683   4.138   1.234  10.883 -0.4681 -1.3538  2.7555
20136SOL     OW63684   1.545   5.511   7.074 -0.2757 -0.9522 -0.4143
20136SOL    HW163685   1.536   5.603   7.099 -0.0272 -1.2637  0.8907
20136SOL    HW263686   1.509   5.462   7.147  1.4180 -1.9318 -0.1754
20137SOL     OW63687   2.176  10.168   8.188 -0.0491  0.1778  0.0690
20137SOL    HW163688   2.093  10.144   8.147  0.2252 -1.0919  0.2125
20137SOL    HW263689   2.183  10.109   8.263  0.9225  0.3461  0.1208
20138SOL     OW63690   9.120   9.783   8.660  0.0897  0.1716 -0.5021
20138SOL    HW163691   9.183   9.843   8.620  1.7808 -1.1013  0.1536
20138SOL    HW263692   9.126   9.703   8.607  0.8822 -0.8215  1.0266
20139SOL     OW63693   5.144   2.200  11.302  0.1326 -0.2798  0.2582
20139SOL    HW163694   5.197   2.150  11.364  0.6095  1.2409  1.1150
20139SOL    HW263695   5.135   2.141  11.226  1.7087 -1.1907  0.7180
20140SOL     OW63696   5.314   3.900  10.993 -0.6713 -0.3884  0.4132
20140SOL    HW163697   5.222   3.896  11.019 -0.6104  0.3541  0.7460
20140SOL    HW263698   5.360   3.933  11.070 -0.4715  1.7755 -0.5813
20141SOL     OW63699   1.549  10.046   7.611 -0.2850 -0.6459 -0.5000
20141SOL    HW163700   1.587   9.961   7.589 -0.3115 -0.9688  0.6395
20141SOL    HW263701   1.621  10.095   7.652 -0.8614 -0.9975  1.0028
20142SOL     OW63702   7.209   6.495   0.800  0.4016  0.1025 -0.2807
20142SOL    HW163703   7.194   6.548   0.722 -1.1094  1.2686  0.7447
20142SOL    HW263704   7.304   6.479   0.801  0.3446 -0.7811 -2.8364
20143SOL     OW63705  10.409   9.550   4.767  0.1521  0.1521 -0.2408
20143SOL    HW163706  10.504   9.541   4.770  0.0784 -0.6209 -0.1171
20143SOL    HW263707  10.393   9.644   4.777  0.8793  0.2242  0.2633
20144SOL     OW63708   4.201   5.696   4.896  0.2620  0.1473 -0.4580
20144SOL    HW163709   4.117   5.703   4.941  0.9106  0.0994  0.8192
20144SOL    HW263710   4.214   5.602   4.883  0.4956  0.0935  0.1219
20145SOL     OW63711   9.206   8.363   0.988 -0.3562  0.1674  0.0322
20145SOL    HW163712   9.267   8.320   0.928 -1.5824 -1.5215 -0.0548
20145SOL    HW263713   9.143   8.407   0.932 -1.3491 -1.1921  0.0495
20146SOL     OW63714   7.665   8.571  11.333  0.0493 -0.6032 -0.2043
20146SOL    HW163715   7.639   8.577  11.241 -1.9363 -0.5382  0.3270
20146SOL    HW263716   7.595   8.522  11.375  0.2132  0.5698  1.5378
20147SOL     OW63717   0.169   3.463   6.361 -0.4545 -0.1256 -0.4149
20147SOL    HW163718   0.082   3.427   6.381 -0.8547 -0.2954 -2.3134
20147SOL    HW263719   0.226   3.386   6.356 -0.2142 -0.0305  0.6265
20148SOL     OW63720   5.179   5.906  11.240 -0.2355  0.1059  0.4804
20148SOL    HW163721   5.267   5.929  11.210  0.0346  0.5306  1.5686
20148SOL    HW263722   5.178   5.928  11.333 -1.0011 -1.3720  0.8520
20149SOL     OW63723   3.958   6.504   5.757  0.0667  0.0581 -0.3717
20149SOL    HW163724   3.919   6.420   5.779 -0.0725  0.5946  1.5769
20149SOL    HW263725   3.886   6.567   5.762  0.2920  0.3980 -1.2051
20150SOL     OW63726   3.346   4.153   0.022  0.2583 -0.3160 -0.6288
20150SOL    HW163727   3.331   4.177   0.113  1.0015  1.2680 -0.8831
20150SOL    HW263728   3.298   4.071   0.010 -0.2620 -0.2897  1.0352
20151SOL     OW63729   7.121  10.657  11.214 -0.6485  0.0786  0.0081
20151SOL    HW163730   7.209  10.631  11.184 -0.5438  0.4378  0.0006
20151SOL    HW263731   7.099  10.733  11.160 -0.2945  0.9822  1.0940
20152SOL     OW63732   9.224   9.808   4.138  0.0997  0.4446 -0.4954
20152SOL    HW163733   9.313   9.834   4.162 -0.3426  0.5423  1.1685
20152SOL    HW263734   9.175   9.890   4.136 -0.7191  0.1353  2.2142
20153SOL     OW63735   7.650   7.589   4.359 -0.0527 -0.2999 -0.1493
20153SOL    HW163736   7.609   7.535   4.427  0.5891 -0.8077 -0.1540
20153SOL    HW263737   7.738   7.607   4.393  0.2000 -0.3742 -0.7481
20154SOL     OW63738   6.175   7.589   1.010 -0.1103  0.3496 -0.2968
20154SOL    HW163739   6.207   7.679   1.016  2.1089 -0.4756  2.3265
20154SOL    HW263740   6.182   7.555   1.099 -2.2780 -2.0239 -0.9179
20155SOL     OW63741   5.803  11.295   6.486 -0.9732  0.2133  0.0704
20155SOL    HW163742   5.840  11.346   6.558  0.5243 -0.6611 -0.0205
20155SOL    HW263743   5.826  11.345   6.408  1.2858 -0.9357 -0.0915
20156SOL     OW63744  11.122  11.078   3.593  1.1659 -0.0489  0.0660
20156SOL    HW163745  11.066  11.074   3.671  0.3409  1.9566 -0.3649
20156SOL    HW263746  11.061  11.073   3.519  1.8070 -0.3882 -0.4579
20157SOL     OW63747  11.232   6.863   8.806  0.0578  0.0574  0.4601
20157SOL    HW163748  11.315   6.881   8.764 -0.2564  0.7967  0.1392
20157SOL    HW263749  11.239   6.772   8.836  1.0059  0.1460  0.5196
20158SOL     OW63750  10.482   9.847   3.186 -0.5933  0.2400  0.4207
20158SOL    HW163751  10.452   9.805   3.106 -1.8769  1.4945  0.2070
20158SOL    HW263752  10.465   9.940   3.173  0.0783  0.5851  1.7712
20159SOL     OW63753   2.322   7.719   1.683  0.0037 -0.2569  0.0365
20159SOL    HW163754   2.381   7.724   1.609  0.4827 -2.0629  0.2454
20159SOL    HW263755   2.327   7.628   1.712  1.0516  0.6981  3.2862
20160SOL     OW63756   9.905  10.488   0.709  0.7391  0.2524 -0.3291
20160SOL    HW163757   9.997  10.470   0.728  1.2215  1.4022 -1.4465
20160SOL    HW263758   9.889  10.575   0.747 -0.2490 -0.4604  0.9483
20161SOL     OW63759   7.861  10.517   6.295  0.3379 -0.5818  0.5168
20161SOL    HW163760   7.786  10.541   6.351  1.0674 -0.4291  1.4543
20161SOL    HW263761   7.822  10.464   6.225 -0.9762  1.3237 -0.2719
20162SOL     OW63762   1.973   7.975   4.249 -0.8093  0.0412  0.3168
20162SOL    HW163763   1.971   8.069   4.230  1.1310 -0.5168 -3.4705
20162SOL    HW263764   1.885   7.945   4.224 -1.1090  0.6817  0.5583
20163SOL     OW63765   6.098  10.810   1.618 -0.2230 -0.3737 -0.2726
20163SOL    HW163766   6.163  10.856   1.564  0.9588  0.1758  1.5249
20163SOL    HW263767   6.091  10.723   1.579  0.9097 -0.1272 -1.0588
20164SOL     OW63768   7.911   4.055   3.120 -0.2668  0.0715  0.0556
20164SOL    HW163769   7.836   4.065   3.177 -1.1264 -0.8607 -0.8692
20164SOL    HW263770   7.905   3.965   3.087  1.4680 -0.1577  0.2539
20165SOL     OW63771   4.255   9.930   5.907  0.2793  0.0997  0.3684
20165SOL    HW163772   4.339   9.972   5.887  1.3833 -1.0266  2.2541
20165SOL    HW263773   4.193   9.969   5.846  2.3915  0.1175 -1.9367
20166SOL     OW63774   1.800   4.815   1.729  0.4574 -0.5491 -0.5649
20166SOL    HW163775   1.793   4.864   1.811  1.0898  0.4519 -1.0933
20166SOL    HW263776   1.879   4.761   1.740  0.3418 -0.6842 -0.3840
20167SOL     OW63777   5.171   1.841   0.471  1.2715  0.3412 -0.4899
20167SOL    HW163778   5.256   1.817   0.436  0.9852 -1.2151 -0.1958
20167SOL    HW263779   5.137   1.907   0.410  2.6877  1.0130 -0.5769
20168SOL     OW63780   7.351   0.907   0.722 -0.0924  0.3823  0.0864
20168SOL    HW163781   7.421   0.850   0.752 -0.1179  0.9853  1.4067
20168SOL    HW263782   7.273   0.875   0.767 -0.2372  1.0213  0.3109
20169SOL     OW63783   7.838   6.185   1.910  0.2942  0.0143  0.3457
20169SOL    HW163784   7.866   6.274   1.886 -1.0501  0.9408  1.9842
20169SOL    HW263785   7.866   6.174   2.001 -0.4489 -0.8405  0.4861
20170SOL     OW63786   5.474   5.856   2.594 -0.1617 -0.0256 -0.3153
20170SOL    HW163787   5.499   5.810   2.514  2.3545  2.3553 -1.0747
20170SOL    HW263788   5.411   5.922   2.565 -1.3155 -0.8752  0.1933
20171SOL     OW63789   6.691   6.164   3.317  0.0311  0.2935  0.2269
20171SOL    HW163790   6.601   6.173   3.286  0.1871 -0.3533 -0.4313
20171SOL    HW263791   6.704   6.239   3.376 -0.8280  0.5670  0.0760
20172SOL     OW63792   7.560   4.106   8.996 -0.3096  0.0090  0.7367
20172SOL    HW163793   7.481   4.074   9.040 -0.8280  0.2569  0.0099
20172SOL    HW263794   7.543   4.090   8.903 -0.6385  2.4122  0.3262
20173SOL     OW63795   1.240   4.715   1.675  0.4066 -0.8748 -0.3079
20173SOL    HW163796   1.198   4.683   1.755 -0.7360  0.2042 -0.4233
20173SOL    HW263797   1.171   4.710   1.608  0.8745 -0.3397 -0.8506
20174SOL     OW63798   6.647   7.579  10.589  0.1780  0.4452  0.1069
20174SOL    HW163799   6.677   7.491  10.565 -0.2892  0.3242 -0.0509
20174SOL    HW263800   6.727   7.632  10.589  0.6037 -0.1736  1.1445
20175SOL     OW63801   6.749   7.382   1.095  0.2843  0.2372  0.0269
20175SOL    HW163802   6.742   7.303   1.149  0.4532  0.3979  0.2812
20175SOL    HW263803   6.767   7.348   1.007 -1.2615 -0.0930 -0.2032
20176SOL     OW63804   4.926  10.708   6.220 -0.4311 -0.0667  0.9173
20176SOL    HW163805   4.836  10.737   6.238  0.3050  2.6162  0.7435
20176SOL    HW263806   4.979  10.751   6.288  0.6881 -2.2379  1.5107
20177SOL     OW63807   6.336   6.497   0.151  0.9028 -0.3834 -0.0147
20177SOL    HW163808   6.283   6.577   0.153  1.5173  0.0248  0.3651
20177SOL    HW263809   6.276   6.428   0.124  0.5364  0.3465 -1.1237
20178SOL     OW63810  10.529   9.653   1.088  0.4772 -0.0200  0.2656
20178SOL    HW163811  10.510   9.600   1.010  0.1978  0.8599 -0.2808
20178SOL    HW263812  10.462   9.721   1.088  0.9425  0.4511  0.8419
20179SOL     OW63813   4.938  10.316   8.030 -0.3902  0.1174 -0.5034
20179SOL    HW163814   4.914  10.275   8.113  1.0247 -2.2035 -1.1454
20179SOL    HW263815   4.951  10.408   8.051  0.3800 -0.4944  1.9429
20180SOL     OW63816   3.548   1.382   8.727 -0.9795 -0.1422  0.0970
20180SOL    HW163817   3.605   1.427   8.790  0.6037  2.1319 -2.7412
20180SOL    HW263818   3.597   1.304   8.701 -0.2619  0.4725 -0.4497
20181SOL     OW63819   7.477   9.573   1.369 -0.0757 -0.9307  0.0832
20181SOL    HW163820   7.539   9.571   1.297 -0.4412  1.4712 -0.3818
20181SOL    HW263821   7.407   9.631   1.339 -1.3773 -1.6771  1.5058
20182SOL     OW63822   8.374   6.811   9.717  0.1633 -0.5334  0.2859
20182SOL    HW163823   8.423   6.844   9.642 -1.7145 -2.5176 -1.9355
20182SOL    HW263824   8.296   6.867   9.721  0.3224 -0.3433  0.8891
20183SOL     OW63825   9.837   5.569  10.899 -0.2868 -0.3837 -0.1222
20183SOL    HW163826   9.863   5.623  10.973  1.2409 -2.7175  1.1483
20183SOL    HW263827   9.760   5.521  10.930 -0.8149  0.0166 -0.7716
20184SOL     OW63828   4.218   6.729  10.265  0.2243  0.1329 -0.4410
20184SOL    HW163829   4.186   6.704  10.179  3.4624 -3.5460 -0.8464
20184SOL    HW263830   4.159   6.684  10.326  0.9937 -1.7420 -0.9948
20185SOL     OW63831   4.590   0.425   3.907  1.0742  0.0213 -0.1113
20185SOL    HW163832   4.555   0.394   3.824  1.4318  0.8423 -0.5801
20185SOL    HW263833   4.685   0.432   3.891  1.3096 -0.9357  0.7332
20186SOL     OW63834  11.015   2.501   8.029 -0.4137 -0.2863  0.3726
20186SOL    HW163835  10.959   2.565   7.983 -0.4698 -0.4245  0.2502
20186SOL    HW263836  11.098   2.504   7.982 -0.8575 -1.3128 -0.4999
20187SOL     OW63837  10.317   7.608   9.297 -0.6091  0.1327 -0.4590
20187SOL    HW163838  10.222   7.617   9.307 -0.5664  0.0998 -0.0005
20187SOL    HW263839  10.331   7.601   9.202 -1.3391 -2.6210 -0.4548
20188SOL     OW63840   2.932   0.400   7.629 -0.2916 -0.0830 -0.0506
20188SOL    HW163841   2.854   0.344   7.638  0.0690 -0.4722  0.7899
20188SOL    HW263842   2.952   0.397   7.536  0.1676 -2.0226  0.0603
20189SOL     OW63843  10.862   7.249  10.760  0.1801  0.4842  0.3189
20189SOL    HW163844  10.935   7.189  10.742 -1.0455 -0.8020 -0.6409
20189SOL    HW263845  10.786   7.207  10.717 -1.6098  0.5888  3.1492
20190SOL     OW63846  10.754   6.847   9.440  0.9443 -0.0156 -0.4667
20190SOL    HW163847  10.846   6.871   9.424  1.5769 -2.2457 -0.4699
20190SOL    HW263848  10.752   6.823   9.533  0.5987 -0.9062 -0.6983
20191SOL     OW63849  10.839   4.358   0.127 -0.2840 -0.0320  0.2066
20191SOL    HW163850  10.784   4.405   0.190 -1.1552  0.4807 -0.9031
20191SOL    HW263851  10.887   4.428   0.081  0.3064 -0.3973  0.2562
20192SOL     OW63852   3.161   8.600   1.861  0.1114 -0.1856 -0.5435
20192SOL    HW163853   3.245   8.558   1.882  0.5681  0.3883 -1.1741
20192SOL    HW263854   3.159   8.677   1.918 -1.8689 -2.2703  2.4867
20193SOL     OW63855   9.352   7.319   7.271 -0.0389 -0.1374  0.4807
20193SOL    HW163856   9.293   7.366   7.330 -2.2492 -2.1597  0.0426
20193SOL    HW263857   9.343   7.227   7.296  1.1219 -0.7564 -1.1785
20194SOL     OW63858   1.637   4.832   1.154  0.1966 -0.4451 -0.4760
20194SOL    HW163859   1.706   4.872   1.101 -1.0383 -1.2746 -2.8591
20194SOL    HW263860   1.575   4.902   1.169  0.9855  0.0288  0.7569
20195SOL     OW63861   0.991   9.009   1.475  0.3623  0.6088 -0.0513
20195SOL    HW163862   0.941   9.069   1.420  0.5344  0.0483 -0.8362
20195SOL    HW263863   1.070   9.058   1.497  1.0139  0.3356 -1.5856
20196SOL     OW63864   5.491   8.796   8.162  0.0272  0.2548  0.5701
20196SOL    HW163865   5.581   8.800   8.129  1.3334 -3.1044  3.1424
20196SOL    HW263866   5.437   8.781   8.084  1.9940  0.0280 -0.8064
20197SOL     OW63867   9.614   6.890   7.695  0.2597 -0.4535 -0.4205
20197SOL    HW163868   9.560   6.818   7.663 -2.4453  1.1802  0.1626
20197SOL    HW263869   9.657   6.924   7.617  0.0362 -1.4754 -1.0041
20198SOL     OW63870   6.416   7.001   6.511 -0.1699 -0.4072 -0.0768
20198SOL    HW163871   6.469   7.079   6.494 -1.1722 -0.1933 -2.6222
20198SOL    HW263872   6.332   7.036   6.541 -1.0435 -0.3784 -2.4119
20199SOL     OW63873   8.595   9.936   4.831 -0.2538 -0.1324 -0.9619
20199SOL    HW163874   8.574   9.843   4.840  1.3756 -0.4085  0.6539
20199SOL    HW263875   8.570   9.975   4.915  2.2676  0.1642 -0.2801
20200SOL     OW63876   9.694   7.973   1.857  0.0370 -0.0787 -0.5504
20200SOL    HW163877   9.727   8.023   1.932 -1.0384  0.7456 -0.6070
20200SOL    HW263878   9.708   8.030   1.781  0.2587 -0.5253 -0.8503
20201SOL     OW63879   5.227   2.985   7.929 -0.0026  0.5541  0.0370
20201SOL    HW163880   5.186   2.906   7.964 -2.0658  1.0307 -1.0998
20201SOL    HW263881   5.293   2.953   7.868 -0.0513 -0.2932  0.4197
20202SOL     OW63882   8.278   3.684   8.789 -0.0640  0.7761 -0.0358
20202SOL    HW163883   8.189   3.701   8.758 -0.6974 -0.6671  0.8833
20202SOL    HW263884   8.290   3.742   8.864 -1.1346 -0.6436  1.2914
20203SOL     OW63885  10.641   2.773  10.824 -0.2006  0.3604 -0.4208
20203SOL    HW163886  10.549   2.750  10.811 -0.4236  0.1755  1.2144
20203SOL    HW263887  10.685   2.688  10.834 -0.0462  0.4747 -0.1239
20204SOL     OW63888   5.763   9.837   2.712 -0.4149  0.2383  0.0499
20204SOL    HW163889   5.789   9.890   2.788  0.5516  0.9590 -0.7680
20204SOL    HW263890   5.713   9.765   2.750  0.9727 -0.0261  1.4966
20205SOL     OW63891   7.653   8.073   2.386 -0.0193  0.2990 -0.1932
20205SOL    HW163892   7.736   8.072   2.434 -1.0032 -0.9477  1.6450
20205SOL    HW263893   7.668   8.015   2.311  0.4429 -0.9471  0.8116
20206SOL     OW63894   6.381   5.980   3.385  0.0279 -0.0331  0.0863
20206SOL    HW163895   6.337   5.897   3.404  0.0202  0.1516  0.8864
20206SOL    HW263896   6.467   5.954   3.354 -0.5628 -0.3963 -1.3373
20207SOL     OW63897   8.934   9.501   0.694  0.9646 -0.8596 -0.2620
20207SOL    HW163898   9.025   9.488   0.723  1.5579  1.9616 -0.5755
20207SOL    HW263899   8.882   9.476   0.769  1.9839 -2.4657 -0.0416
20208SOL     OW63900  11.213   3.331  10.581 -0.1517 -0.4105 -0.3300
20208SOL    HW163901  11.300   3.302  10.552  0.3938  0.8423  0.0113
20208SOL    HW263902  11.180   3.257  10.632  0.3177 -1.2638 -1.1999
20209SOL     OW63903   9.331   3.919   2.660  0.2666 -0.0764 -0.5285
20209SOL    HW163904   9.237   3.926   2.674  0.2534  1.9876 -1.2809
20209SOL    HW263905   9.348   3.975   2.584  2.0286 -0.8707 -0.7656
20210SOL     OW63906   7.552  10.677   7.619 -0.1285 -0.2402  0.0407
20210SOL    HW163907   7.572  10.741   7.551  0.8639  0.8259  1.2737
20210SOL    HW263908   7.473  10.710   7.661  0.0663 -0.1162  0.3154
20211SOL     OW63909   5.984   9.728   4.090  0.5670 -0.0592  0.3800
20211SOL    HW163910   6.039   9.776   4.152  0.1944  0.5872  0.2239
20211SOL    HW263911   5.895   9.737   4.124  0.5112 -0.8184  0.4524
20212SOL     OW63912   5.837   3.808  10.817 -0.2895 -0.5158  0.9233
20212SOL    HW163913   5.793   3.758  10.748 -1.4387  0.6973  0.7364
20212SOL    HW263914   5.927   3.777  10.816 -0.4195 -0.9340 -0.7336
20213SOL     OW63915   8.119   6.596   9.244 -0.1974 -0.2434 -0.0565
20213SOL    HW163916   8.128   6.689   9.227 -1.3352  0.3003  1.9211
20213SOL    HW263917   8.121   6.589   9.340  0.9447 -2.3882 -0.1743
20214SOL     OW63918   3.213   7.646   7.118  0.1223  0.4186  0.1997
20214SOL    HW163919   3.261   7.600   7.049 -0.2778 -0.7356  0.6593
20214SOL    HW263920   3.186   7.729   7.078  0.8200  0.2332 -0.6742
20215SOL     OW63921   4.526   8.577  11.370  0.7635  0.2609  0.1549
20215SOL    HW163922   4.567   8.659  11.398 -0.3491  1.1946 -0.8732
20215SOL    HW263923   4.457   8.562  11.434 -0.6989  1.5154 -1.0758
20216SOL     OW63924  10.330   8.383   7.953 -0.0242 -0.6837  0.0205
20216SOL    HW163925  10.385   8.436   8.011  0.1447 -0.9508  0.1100
20216SOL    HW263926  10.290   8.319   8.011  0.6449 -1.3593 -0.2467
20217SOL     OW63927   2.414   4.368   3.772 -0.2745  0.2555 -0.3471
20217SOL    HW163928   2.453   4.449   3.741  1.7530 -0.1866  0.8827
20217SOL    HW263929   2.452   4.300   3.718 -3.6438  0.1465 -2.9273
20218SOL     OW63930   1.157   8.680   7.333 -0.0446 -0.3979  0.5403
20218SOL    HW163931   1.132   8.610   7.272  1.0209 -0.3629  0.0376
20218SOL    HW263932   1.115   8.656   7.416 -0.9378 -0.8240 -0.0096
20219SOL     OW63933   3.157   1.644   1.716  0.0988  0.2175 -0.0303
20219SOL    HW163934   3.069   1.672   1.741 -0.3491 -2.3055  1.5349
20219SOL    HW263935   3.165   1.669   1.624 -3.0378 -1.1623 -0.8059
20220SOL     OW63936   5.203  10.149   5.089  0.5846 -0.7346 -0.0660
20220SOL    HW163937   5.178  10.068   5.043 -0.0209 -1.0442  0.7790
20220SOL    HW263938   5.297  10.140   5.102  0.4610 -1.5024  0.3802
20221SOL     OW63939   4.606  10.444   2.722 -0.1474 -0.4107  0.2710
20221SOL    HW163940   4.628  10.420   2.632  1.3267  0.2782  0.4141
20221SOL    HW263941   4.511  10.450   2.723 -0.1667 -0.0564 -1.3397
20222SOL     OW63942   2.699   4.298   4.452  0.1126  0.4761 -0.0865
20222SOL    HW163943   2.627   4.353   4.482  1.7242  3.2660 -0.8643
20222SOL    HW263944   2.715   4.327   4.362  0.4419 -2.0457 -0.9082
20223SOL     OW63945   5.751   9.633   6.112  0.1134 -0.7514 -0.0183
20223SOL    HW163946   5.793   9.607   6.030 -0.5238 -0.5575 -0.4102
20223SOL    HW263947   5.824   9.646   6.173  0.5728 -1.1944 -0.4644
20224SOL     OW63948   4.651  10.845   7.750  0.2218 -0.7206 -0.0252
20224SOL    HW163949   4.715  10.808   7.690  0.6119 -1.0629  0.5896
20224SOL    HW263950   4.620  10.924   7.706  0.8695 -0.6959 -0.4517
20225SOL     OW63951   6.097   1.429   9.703 -0.1584  0.5841 -0.0294
20225SOL    HW163952   6.042   1.351   9.699  0.9444 -0.1990 -2.1269
20225SOL    HW263953   6.142   1.430   9.618  0.0697  3.3810  0.0334
20226SOL     OW63954  10.023   7.102   3.813  0.3291  0.8898  0.5380
20226SOL    HW163955  10.035   7.075   3.722 -0.9804 -0.6483  0.7843
20226SOL    HW263956  10.090   7.054   3.862  0.5288  1.1179  0.4908
20227SOL     OW63957   7.210   0.124   0.152 -0.1824  0.0748 -0.1104
20227SOL    HW163958   7.185   0.185   0.082  3.1742  0.8616 -0.7604
20227SOL    HW263959   7.206   0.177   0.232 -0.7559  0.1094 -0.1561
20228SOL     OW63960  11.234  11.291   7.762 -0.1892  0.0836  0.1418
20228SOL    HW163961  11.191  11.217   7.805  0.1880 -0.5063 -0.4794
20228SOL    HW263962  11.288  11.330   7.830 -0.0217 -0.5075  0.3553
20229SOL     OW63963   0.407   4.928   5.653  0.1494 -0.5389  0.7178
20229SOL    HW163964   0.492   4.888   5.633  1.0649  1.3836  0.4322
20229SOL    HW263965   0.371   4.874   5.723  1.3106 -1.7972  0.3955
20230SOL     OW63966   4.758   4.343   8.508 -0.2987  0.5497 -0.4829
20230SOL    HW163967   4.733   4.253   8.530  1.3210  0.1676 -0.0315
20230SOL    HW263968   4.803   4.374   8.586 -0.2719  1.5387 -0.8803
20231SOL     OW63969   2.839   0.975   9.890 -0.2610  0.1046  0.6484
20231SOL    HW163970   2.895   0.958   9.966  2.1676 -1.0529 -1.2364
20231SOL    HW263971   2.839   1.070   9.880  2.3281  0.1362  0.1737
20232SOL     OW63972   2.351  11.042   3.888 -0.5605 -0.6278 -0.2844
20232SOL    HW163973   2.424  11.029   3.827 -1.3502 -0.4848 -1.2883
20232SOL    HW263974   2.349  10.961   3.940  1.6047  0.1989  1.2203
20233SOL     OW63975   2.593   6.087   8.896 -0.0866  0.1021 -0.2702
20233SOL    HW163976   2.637   6.069   8.979  1.0111  1.6609 -0.4680
20233SOL    HW263977   2.523   6.021   8.891  1.2819 -1.5113  0.7495
20234SOL     OW63978   8.065   8.635   3.922  0.5600 -0.3007  0.0949
20234SOL    HW163979   7.980   8.638   3.880 -0.6405  1.3984  2.4297
20234SOL    HW263980   8.059   8.562   3.984 -0.2214  1.3517  2.0806
20235SOL     OW63981  10.452  10.345   8.912  0.1795  0.0005  0.9175
20235SOL    HW163982  10.420  10.265   8.954  0.5658 -0.7396 -0.1685
20235SOL    HW263983  10.503  10.315   8.837 -1.6997  1.2808 -0.9950
20236SOL     OW63984   2.293  10.087   6.089 -0.0871  0.0149  0.4088
20236SOL    HW163985   2.258  10.155   6.031 -1.7103 -1.1144 -0.0093
20236SOL    HW263986   2.360  10.043   6.036 -1.4454 -0.9026 -0.6201
20237SOL     OW63987   1.472   8.917   7.766 -0.5180 -0.5336  0.1800
20237SOL    HW163988   1.415   8.994   7.758  2.3426  1.6177 -1.3401
20237SOL    HW263989   1.490   8.910   7.860 -1.8875 -0.2606  0.4904
20238SOL     OW63990   7.608   4.899   9.462 -0.0507 -0.2792 -0.4663
20238SOL    HW163991   7.697   4.874   9.439  0.3992  1.8292 -1.1777
20238SOL    HW263992   7.602   4.884   9.557  2.0655  2.2673  0.1678
20239SOL     OW63993   9.056   6.392   9.988  0.0387 -0.0884 -0.2785
20239SOL    HW163994   9.107   6.316   9.962  0.9251  0.2325  0.4833
20239SOL    HW263995   9.000   6.361  10.059  0.9104  0.1221  0.5192
20240SOL     OW63996   4.464   2.484   3.114 -0.0855 -0.5530  0.0786
20240SOL    HW163997   4.407   2.528   3.051 -0.4951 -0.6723  0.3629
20240SOL    HW263998   4.552   2.513   3.091 -0.0596 -1.8095 -1.5469
20241SOL     OW63999   3.278   5.676   0.515 -0.4939  0.1598 -0.2837
20241SOL    HW164000   3.186   5.689   0.492 -0.4743 -0.3670 -0.6821
20241SOL    HW264001   3.327   5.700   0.436 -0.3311 -0.2386 -0.3051
20242SOL     OW64002   6.332   2.625   3.768 -0.0628 -0.1003  0.3494
20242SOL    HW164003   6.392   2.641   3.694 -1.2133 -1.8759 -1.0510
20242SOL    HW264004   6.318   2.712   3.805  0.8708  0.8175 -1.2740
20243SOL     OW64005   4.940   3.553   8.482 -0.0880 -0.3114 -0.1155
20243SOL    HW164006   4.987   3.596   8.410  0.9717 -1.1653  0.0377
20243SOL    HW264007   4.848   3.556   8.456  0.1823  0.2324 -1.0598
20244SOL     OW64008   4.167   4.423   3.537 -0.3515 -0.1462 -0.2841
20244SOL    HW164009   4.107   4.497   3.542  1.5951  1.5772 -0.6874
20244SOL    HW264010   4.195   4.421   3.445  0.4515 -0.6866 -0.0412
20245SOL     OW64011   8.885   7.767   4.534  0.0947 -0.0585  0.8253
20245SOL    HW164012   8.932   7.807   4.461 -1.2039 -0.5124 -0.3024
20245SOL    HW264013   8.921   7.678   4.540 -1.2054 -0.7198 -0.6402
20246SOL     OW64014   3.734   1.110   7.363  0.1009  0.1688  0.7377
20246SOL    HW164015   3.822   1.075   7.375 -0.6188 -1.4456  1.5253
20246SOL    HW264016   3.746   1.186   7.305  1.7686 -1.1091 -0.6830
20247SOL     OW64017   8.017   7.086   2.458 -0.2865 -0.2530 -0.2292
20247SOL    HW164018   7.962   7.025   2.507 -0.8234 -0.0057 -0.5146
20247SOL    HW264019   7.990   7.074   2.367 -1.8395  1.8035 -0.1262
20248SOL     OW64020   6.070   5.021   6.877 -0.3282  0.2844 -0.6065
20248SOL    HW164021   6.008   5.007   6.805  1.2230  1.7026 -2.3145
20248SOL    HW264022   6.025   5.084   6.935  0.0207  2.6185 -2.6858
20249SOL     OW64023   4.602   3.517   5.723  0.4334 -0.0939  0.1627
20249SOL    HW164024   4.567   3.459   5.790 -0.3348 -1.3693 -1.2994
20249SOL    HW264025   4.681   3.554   5.763  0.5915 -1.6387  1.3622
20250SOL     OW64026   2.882   0.660   1.708  0.2336  0.0118  0.1563
20250SOL    HW164027   2.852   0.570   1.722  0.7353 -0.3280 -0.8497
20250SOL    HW264028   2.921   0.686   1.792 -3.1676  0.6501  1.6946
20251SOL     OW64029   7.511   3.984   0.402 -0.6577 -0.2817 -0.3209
20251SOL    HW164030   7.425   3.964   0.365  0.4754  0.4287 -3.7897
20251SOL    HW264031   7.522   3.923   0.474 -3.6013 -1.1206 -0.4754
20252SOL     OW64032   4.122   7.750   4.074 -0.3331  0.0246  0.7460
20252SOL    HW164033   4.215   7.730   4.065 -0.2446  1.0256 -1.1092
20252SOL    HW264034   4.110   7.771   4.167  1.4116  0.4964  0.8831
20253SOL     OW64035   5.894   6.742  10.300 -0.3234 -0.2792  0.1906
20253SOL    HW164036   5.946   6.750  10.380 -0.3797 -0.6004  0.2627
20253SOL    HW264037   5.944   6.680  10.246 -0.4368 -0.2945  0.1029
20254SOL     OW64038   2.132   2.771   7.211  0.2093  0.3185 -0.6081
20254SOL    HW164039   2.042   2.757   7.242  0.4221  3.1691  1.7482
20254SOL    HW264040   2.178   2.690   7.234 -1.3062 -0.4286 -0.0461
20255SOL     OW64041   2.889   6.423   7.847  0.1963 -0.0633  0.0656
20255SOL    HW164042   2.893   6.382   7.934  3.1515 -0.6561 -0.2581
20255SOL    HW264043   2.930   6.509   7.858 -0.4211  0.3167 -0.5248
20256SOL     OW64044   2.802   2.656   4.365  0.2222 -0.0150 -0.5902
20256SOL    HW164045   2.870   2.678   4.303  1.7040 -1.3203  0.4868
20256SOL    HW264046   2.778   2.566   4.344  0.9793 -0.5966  0.8676
20257SOL     OW64047   4.528  10.000   5.934 -0.8477  0.7432  0.0258
20257SOL    HW164048   4.531  10.072   5.872 -0.6729  1.3949  0.7775
20257SOL    HW264049   4.538  10.041   6.020 -0.3762 -0.2028  0.4434
20258SOL     OW64050   4.269   6.306   5.227  0.1948 -0.3169 -0.6616
20258SOL    HW164051   4.214   6.266   5.160 -0.7589  0.4509 -0.3570
20258SOL    HW264052   4.238   6.396   5.233  1.4962  0.1499 -0.4841
20259SOL     OW64053   8.458   3.854   3.081  0.0351  0.1349 -0.1547
20259SOL    HW164054   8.522   3.906   3.032  0.8458  0.5337  1.2655
20259SOL    HW264055   8.385   3.914   3.096 -0.3937 -0.1063 -1.1622
20260SOL     OW64056  11.008   1.120   0.463  0.3032 -0.3472 -0.1739
20260SOL    HW164057  10.947   1.064   0.512  0.1131  0.1070  0.1168
20260SOL    HW264058  10.951   1.174   0.408  0.4517 -0.0890 -0.0755
20261SOL     OW64059   3.518   5.849   3.400  0.1234  0.0967 -0.7419
20261SOL    HW164060   3.442   5.790   3.398 -0.1949  0.4830 -3.1489
20261SOL    HW264061   3.512   5.898   3.318  0.7216  3.0739  0.8468
20262SOL     OW64062  10.473   3.619   9.693  0.4125 -0.0748  0.2504
20262SOL    HW164063  10.465   3.627   9.598 -2.2779 -0.3060  0.3948
20262SOL    HW264064  10.497   3.707   9.722  0.6813  0.1365 -0.5803
20263SOL     OW64065   3.893   1.710   9.452  0.4226 -0.6581  0.1824
20263SOL    HW164066   3.810   1.740   9.489  0.0762 -0.4886 -0.7184
20263SOL    HW264067   3.953   1.783   9.465  0.9806 -1.4318  2.5033
20264SOL     OW64068   8.957   5.860   2.092  0.1534 -0.1072  0.5091
20264SOL    HW164069   8.987   5.785   2.041 -1.2940 -0.9113  0.7942
20264SOL    HW264070   9.021   5.868   2.163  1.1791 -0.0917 -0.3921
20265SOL     OW64071   9.953   5.244   6.528 -0.2356  0.1515 -0.1544
20265SOL    HW164072  10.007   5.323   6.535  0.9498 -0.6545  0.0020
20265SOL    HW264073   9.938   5.234   6.434 -0.9544  0.9104 -0.1380
20266SOL     OW64074   1.910  10.318   3.796 -0.8789 -0.3150  0.6878
20266SOL    HW164075   1.954  10.398   3.827 -0.9504  1.0004 -2.2616
20266SOL    HW264076   1.835  10.309   3.855 -1.0607  2.0139  0.9365
20267SOL     OW64077   5.929  11.230  10.980  0.4862 -0.1309 -0.0722
20267SOL    HW164078   5.876  11.211  10.903  0.5626 -0.7189  0.0169
20267SOL    HW264079   5.957  11.321  10.968 -2.3359  1.0005  0.9222
20268SOL     OW64080   0.220   8.654   1.525 -0.3500  0.2727  0.0672
20268SOL    HW164081   0.274   8.578   1.547  1.7554  1.1377 -1.6713
20268SOL    HW264082   0.188   8.636   1.436  0.0260  1.3076 -0.2964
20269SOL     OW64083   0.248   0.595  10.738 -0.1917 -0.4514  0.4444
20269SOL    HW164084   0.315   0.531  10.759  0.9105  0.8355  1.0102
20269SOL    HW264085   0.214   0.567  10.653  1.3732 -0.8965 -0.0746
20270SOL     OW64086   8.484   3.046   3.849 -0.2642 -0.1287  0.6724
20270SOL    HW164087   8.480   2.957   3.884  0.9097  0.0081  1.2028
20270SOL    HW264088   8.402   3.056   3.800  0.4503 -2.2040 -1.1033
20271SOL     OW64089   4.202   9.120   2.175 -0.5722 -0.4183 -0.0628
20271SOL    HW164090   4.122   9.172   2.169 -0.0044  0.5974  0.8393
20271SOL    HW264091   4.222   9.096   2.085 -0.1945  1.9806 -0.6989
20272SOL     OW64092   9.566   6.730   5.064 -0.3477  0.2585  0.0526
20272SOL    HW164093   9.621   6.663   5.103  0.2754  0.5259 -0.3468
20272SOL    HW264094   9.538   6.693   4.980 -0.7565  0.1327  0.2443
20273SOL     OW64095   3.146   9.795   1.675  0.0787 -0.4122  0.2959
20273SOL    HW164096   3.233   9.822   1.645  0.8762 -3.1510 -0.1194
20273SOL    HW264097   3.161   9.763   1.764 -0.7015 -0.0624  0.5575
20274SOL     OW64098   4.858  10.266   4.631  0.2421 -0.2298  0.1732
20274SOL    HW164099   4.855  10.190   4.574 -0.6671 -0.4971  0.5644
20274SOL    HW264100   4.952  10.281   4.647  0.5133 -0.2076 -1.2811
20275SOL     OW64101   3.768   7.208   5.261 -0.1573  0.0242  0.1441
20275SOL    HW164102   3.799   7.136   5.315  1.9598  0.0790 -0.9001
20275SOL    HW264103   3.749   7.278   5.323  1.3913 -0.2002  0.9094
20276SOL     OW64104   1.689  10.136  10.842 -0.3887  0.0180  0.4754
20276SOL    HW164105   1.747  10.125  10.767  0.6511 -0.4514  1.3272
20276SOL    HW264106   1.679  10.231  10.851 -1.5336  0.0666 -0.9886
20277SOL     OW64107   5.041   2.653   0.475  0.2925 -0.1364  0.0704
20277SOL    HW164108   4.960   2.606   0.493  0.2825  0.4192  1.5691
20277SOL    HW264109   5.104   2.583   0.455  0.0855 -0.7517  1.4878
20278SOL     OW64110   3.183   0.675   6.748 -0.2784  0.4515 -0.1543
20278SOL    HW164111   3.206   0.762   6.714 -1.1271  0.8186  0.1792
20278SOL    HW264112   3.245   0.660   6.819  0.9869  0.0250 -1.3035
20279SOL     OW64113   3.480   8.681   7.065 -0.7419  0.3936 -0.0946
20279SOL    HW164114   3.414   8.673   6.996 -1.1580  1.2868  0.1841
20279SOL    HW264115   3.562   8.653   7.024 -0.5892  2.7843 -1.5737
20280SOL     OW64116   8.588  10.267   2.970  0.3299  0.9006  0.3339
20280SOL    HW164117   8.501  10.301   2.950 -0.4526 -0.4300  1.2735
20280SOL    HW264118   8.608  10.301   3.057 -0.2701 -0.5642  1.0912
20281SOL     OW64119   7.402   6.271   8.129 -0.1762  0.1368  0.3205
20281SOL    HW164120   7.325   6.328   8.129 -0.2055  0.0965  0.5688
20281SOL    HW264121   7.371   6.188   8.092 -0.2903  0.0665  0.5775
20282SOL     OW64122   6.552  10.217   6.248 -0.5451 -0.3969  0.2827
20282SOL    HW164123   6.475  10.203   6.303 -1.1590 -1.4930 -0.7937
20282SOL    HW264124   6.572  10.130   6.213 -1.5910  0.5286 -2.9841
20283SOL     OW64125   6.033   6.148   9.924 -0.7391  0.6655 -0.2219
20283SOL    HW164126   6.115   6.110   9.891  0.2355  0.8124  1.8801
20283SOL    HW264127   6.007   6.090   9.995 -0.4763  2.5946  1.5175
20284SOL     OW64128   5.680   7.772   9.237 -0.8376 -0.4931  0.3113
20284SOL    HW164129   5.752   7.792   9.297 -0.1691 -0.0282 -0.6155
20284SOL    HW264130   5.702   7.687   9.201  0.2540  0.4587 -1.3715
20285SOL     OW64131   9.345   8.996   6.343  0.1191 -0.3254  0.1104
20285SOL    HW164132   9.402   9.032   6.411 -0.5268  0.6262  0.1562
20285SOL    HW264133   9.320   9.071   6.290 -2.9124 -0.3005  1.3959
20286SOL     OW64134   1.913   2.402   1.598  0.3035  0.0331 -0.1102
20286SOL    HW164135   1.902   2.349   1.519 -0.0975 -2.1579  1.3399
20286SOL    HW264136   2.006   2.424   1.600  0.3826 -0.1808 -1.0025
20287SOL     OW64137   9.360   8.957   3.794  0.4442  0.3684 -0.0645
20287SOL    HW164138   9.293   8.891   3.775  0.2063  0.9353 -1.3529
20287SOL    HW264139   9.419   8.953   3.718 -0.1399  2.2885 -0.6857
20288SOL     OW64140   6.132  10.063   2.577  0.3033  0.0765 -0.4340
20288SOL    HW164141   6.106   9.974   2.599 -1.2602  0.7747  0.8161
20288SOL    HW264142   6.196  10.087   2.645  0.1017  0.1783 -0.2792
20289SOL     OW64143   1.064   9.598   1.828 -0.4782 -0.2872 -0.6459
20289SOL    HW164144   1.090   9.687   1.806 -0.3614 -0.0969  0.2107
20289SOL    HW264145   1.117   9.576   1.905 -1.3426 -0.6522 -0.1382
20290SOL     OW64146   8.640   8.605   4.985  0.0981  0.2241 -0.3201
20290SOL    HW164147   8.719   8.556   4.965  0.6894  2.3937 -4.1475
20290SOL    HW264148   8.670   8.694   5.001 -1.4552  0.8102 -0.4903
20291SOL     OW64149   1.533   6.365   0.061 -0.0089  0.2994  0.4113
20291SOL    HW164150   1.507   6.453   0.086  0.6664  0.7301 -0.3513
20291SOL    HW264151   1.533   6.315   0.142 -0.9761  0.8514  0.7583
20292SOL     OW64152  10.196  11.003   3.837  0.5298 -0.9001  0.6707
20292SOL    HW164153  10.162  11.067   3.899 -1.8496 -0.1836 -1.2360
20292SOL    HW264154  10.130  10.934   3.835 -0.2974 -0.1669 -2.0840
20293SOL     OW64155   6.585   8.502   9.532 -0.2947  0.4255 -0.0989
20293SOL    HW164156   6.593   8.589   9.572 -1.4092  1.6047 -2.2416
20293SOL    HW264157   6.672   8.463   9.543 -0.5413  0.5239  3.5089
20294SOL     OW64158   9.001   3.095   8.747  0.3529  0.1548 -0.0832
20294SOL    HW164159   9.011   3.108   8.653  0.5054 -0.4575 -0.1570
20294SOL    HW264160   8.912   3.062   8.758  1.1641 -2.2979 -0.3092
20295SOL     OW64161   8.085   1.663   5.075  0.3930 -0.1130  0.3370
20295SOL    HW164162   8.044   1.729   5.019  1.6891  0.5240  0.0745
20295SOL    HW264163   8.015   1.601   5.096 -1.0417  1.7054  1.1495
20296SOL     OW64164   5.435   3.460   8.340 -0.2535 -0.0089 -0.4010
20296SOL    HW164165   5.418   3.444   8.433 -0.0716  0.4839 -0.2806
20296SOL    HW264166   5.382   3.395   8.294 -0.3930 -0.2128  0.0460
20297SOL     OW64167   6.470   2.093   8.690 -0.2437 -0.0178 -0.3858
20297SOL    HW164168   6.416   2.094   8.769  0.0451 -0.9473 -0.1690
20297SOL    HW264169   6.524   2.172   8.696 -0.5041  0.1204  0.1470
20298SOL     OW64170   7.478   7.404   7.734  0.1566  0.1940 -0.3038
20298SOL    HW164171   7.534   7.331   7.708  2.1084  1.7635 -0.7308
20298SOL    HW264172   7.507   7.424   7.823  0.0247  0.8058 -0.4005
20299SOL     OW64173   5.478  11.123   0.487 -0.4084  0.1555 -0.0070
20299SOL    HW164174   5.436  11.101   0.404  0.5000 -1.7312 -0.0305
20299SOL    HW264175   5.548  11.184   0.463 -1.7276  1.6345 -0.2435
20300SOL     OW64176   3.590  10.822   6.791 -0.0037 -0.0805 -0.3007
20300SOL    HW164177   3.582  10.759   6.862 -0.6822  0.4363  0.0950
20300SOL    HW264178   3.506  10.869   6.791  1.0395  1.8815  0.4303
20301SOL     OW64179   0.934   7.592   0.717 -0.5891  0.1740  0.5537
20301SOL    HW164180   0.948   7.508   0.761 -0.4385  0.4907  1.1206
20301SOL    HW264181   0.894   7.569   0.634 -0.3234 -0.4808  0.5981
20302SOL     OW64182   5.526  10.374   8.749 -1.1047 -0.1569  0.0371
20302SOL    HW164183   5.494  10.286   8.728  1.5898 -1.0276 -0.9312
20302SOL    HW264184   5.479  10.398   8.829 -2.3463 -2.2301  0.0121
20303SOL     OW64185  11.115   0.584  11.162 -0.3588  0.4344  0.7428
20303SOL    HW164186  11.114   0.498  11.119  1.1171  0.5622  0.4193
20303SOL    HW264187  11.025   0.616  11.151 -0.7531 -0.7490  0.2355
20304SOL     OW64188   5.738  10.787   7.783 -0.6935  0.0743  0.1016
20304SOL    HW164189   5.661  10.757   7.735 -0.2195 -0.5780 -0.2649
20304SOL    HW264190   5.730  10.747   7.869 -0.3862 -0.6169 -0.1823
20305SOL     OW64191   2.419   5.702   9.497 -0.1387  0.5580  0.2905
20305SOL    HW164192   2.345   5.653   9.463 -0.8357  1.2059  0.8420
20305SOL    HW264193   2.392   5.729   9.585  0.6290  1.0543  0.3898
20306SOL     OW64194   3.967   2.876   7.596 -0.3246 -0.1366  0.3864
20306SOL    HW164195   4.035   2.881   7.528 -0.7174  0.2811  0.0127
20306SOL    HW264196   4.007   2.915   7.673 -0.8000  2.0509 -0.4020
20307SOL     OW64197   1.144   5.071   3.557  0.1327 -0.1606 -0.0534
20307SOL    HW164198   1.224   5.020   3.551  1.2154  1.5445 -1.2062
20307SOL    HW264199   1.161   5.135   3.626 -0.4333 -0.1156  0.0502
20308SOL     OW64200   3.407  10.706   9.352  0.1947 -0.3170  0.1654
20308SOL    HW164201   3.388  10.752   9.271 -0.2629  0.9399  0.9648
20308SOL    HW264202   3.455  10.769   9.406  0.1870 -1.0089  1.0149
20309SOL     OW64203   1.574   7.097   4.631  0.0761 -0.1671 -0.1014
20309SOL    HW164204   1.583   7.063   4.720  0.3032 -0.3731 -0.2036
20309SOL    HW264205   1.479   7.106   4.619 -0.0643 -1.8355 -0.4694
20310SOL     OW64206   2.066   1.949   9.478 -0.0721 -0.3874 -0.9200
20310SOL    HW164207   2.055   1.863   9.437  1.6728 -1.6968  1.1136
20310SOL    HW264208   2.013   1.943   9.558  1.7696 -0.4608  0.3505
20311SOL     OW64209   8.628   8.484   0.200 -0.4089  0.1592  0.4878
20311SOL    HW164210   8.710   8.476   0.248  0.5426  0.8979 -0.9556
20311SOL    HW264211   8.590   8.397   0.202  0.5345 -0.2516  0.9651
20312SOL     OW64212   1.332   2.005   6.436  0.3981  0.1437 -0.8531
20312SOL    HW164213   1.350   1.921   6.395  2.0842  0.5192 -0.9442
20312SOL    HW264214   1.376   2.001   6.521 -0.0563  0.6852 -0.5847
20313SOL     OW64215   1.931   0.313   9.119  0.1261 -0.1631  0.5091
20313SOL    HW164216   1.927   0.340   9.211 -0.3023  0.4813  0.3055
20313SOL    HW264217   1.873   0.373   9.073  0.7655 -0.1210 -0.2735
20314SOL     OW64218   9.918   8.131  10.629  0.1077  0.7142  0.5762
20314SOL    HW164219   9.977   8.206  10.618  1.3826 -0.3147  0.2269
20314SOL    HW264220   9.837   8.159  10.586  0.9753  1.4371 -0.6695
20315SOL     OW64221   1.263   9.416   5.266 -0.4490 -0.1804 -0.2568
20315SOL    HW164222   1.275   9.384   5.177 -2.8685 -1.0799 -0.3437
20315SOL    HW264223   1.294   9.344   5.321  0.2809  0.0372 -0.3836
20316SOL     OW64224   1.634   5.144   8.379 -0.2319 -0.1060  0.4465
20316SOL    HW164225   1.670   5.094   8.305 -2.1488  0.1472 -0.7180
20316SOL    HW264226   1.625   5.233   8.345 -0.1232  0.2610  1.3671
20317SOL     OW64227   4.773   7.929   7.638  0.3285 -0.0605 -0.1873
20317SOL    HW164228   4.726   8.010   7.658 -0.3923 -0.1374 -1.4253
20317SOL    HW264229   4.766   7.921   7.542  1.1619 -1.1189 -0.1768
20318SOL     OW64230   5.158   6.703   2.728  0.2637 -0.2643 -0.0986
20318SOL    HW164231   5.180   6.779   2.782 -2.7379  0.0138  0.9442
20318SOL    HW264232   5.200   6.629   2.773  0.7232  0.3990  0.6061
20319SOL     OW64233   7.562   0.222   7.843 -0.3780  0.0399 -0.1723
20319SOL    HW164234   7.561   0.243   7.750 -0.1439  0.1898 -0.1391
20319SOL    HW264235   7.590   0.303   7.886 -2.0693  0.4954  0.1578
20320SOL     OW64236   2.603   4.347   4.132 -0.0735 -0.7258 -0.6027
20320SOL    HW164237   2.526   4.293   4.116 -0.7433 -0.1664  0.6130
20320SOL    HW264238   2.569   4.436   4.137  0.7596 -0.3962 -0.7149
20321SOL     OW64239   2.033   7.953   6.529  0.0530 -0.0351  0.1817
20321SOL    HW164240   2.033   7.906   6.445  2.2183  1.7141 -0.9160
20321SOL    HW264241   1.971   8.025   6.516 -0.3591 -0.3428  0.4464
20322SOL     OW64242   3.670  11.148   3.286  0.8891  0.7235 -0.3710
20322SOL    HW164243   3.683  11.241   3.304  0.4235  0.9910 -1.3676
20322SOL    HW264244   3.744  11.123   3.230  0.5279  0.7248 -0.8580
20323SOL     OW64245   5.037   4.693   2.691 -0.1513  0.0014 -0.4450
20323SOL    HW164246   5.092   4.678   2.614  0.3640  0.8041 -0.2412
20323SOL    HW264247   5.037   4.788   2.702  1.6149 -0.1689  1.8274
20324SOL     OW64248   0.679  10.197   2.160 -0.5494  0.1230  0.0424
20324SOL    HW164249   0.773  10.213   2.166 -0.8009  1.4323  1.1067
20324SOL    HW264250   0.655  10.227   2.072  0.3363 -2.3250 -1.1272
20325SOL     OW64251  10.477   9.636   7.352  0.3961 -0.1174  0.2244
20325SOL    HW164252  10.463   9.592   7.269  0.0752 -1.2877  0.8658
20325SOL    HW264253  10.404   9.607   7.407  0.9033  0.1855  1.0775
20326SOL     OW64254  11.151   1.495   9.946  0.4574  0.5833 -0.1666
20326SOL    HW164255  11.130   1.583   9.915 -2.7540 -0.1246 -0.4367
20326SOL    HW264256  11.152   1.442   9.867 -0.9842 -0.0996  0.2268
20327SOL     OW64257   8.859   2.560   6.953 -0.1163  0.1158  0.2909
20327SOL    HW164258   8.938   2.538   6.903  1.3807  0.9090  2.1801
20327SOL    HW264259   8.791   2.572   6.886  1.4456 -0.1710 -1.4348
20328SOL     OW64260   5.173   9.178   0.884 -0.4006  0.2527 -0.2305
20328SOL    HW164261   5.198   9.240   0.816  0.3817 -0.6567 -0.7934
20328SOL    HW264262   5.124   9.110   0.838  1.1023 -0.9569 -0.1163
20329SOL     OW64263   5.375   7.370   1.298 -0.0109  0.5920  0.4518
20329SOL    HW164264   5.336   7.299   1.248  0.1574 -1.1931  2.6550
20329SOL    HW264265   5.324   7.447   1.275 -2.9497 -1.0470  0.9921
20330SOL     OW64266   2.841   0.722   3.201  0.1691 -0.4304 -0.0899
20330SOL    HW164267   2.866   0.794   3.143  0.8490 -0.3651  0.2757
20330SOL    HW264268   2.822   0.649   3.141  0.4521 -0.2406 -0.4136
20331SOL     OW64269   4.625   4.082   8.608  0.2489 -0.3507  0.4553
20331SOL    HW164270   4.630   3.986   8.606 -0.4618 -0.3976 -1.4469
20331SOL    HW264271   4.532   4.101   8.618  0.5292  0.2026  2.4792
20332SOL     OW64272   9.395   7.319   9.272 -0.1079  0.0661 -0.1502
20332SOL    HW164273   9.351   7.398   9.239 -0.8742 -0.2219  0.1566
20332SOL    HW264274   9.328   7.275   9.324  1.0748  0.5211  1.8426
20333SOL     OW64275   9.163   6.361   6.322 -0.0839 -0.0136 -0.2516
20333SOL    HW164276   9.115   6.343   6.241  0.8660 -1.4577 -0.5406
20333SOL    HW264277   9.227   6.427   6.298  0.7209 -1.0011 -0.9187
20334SOL     OW64278  11.320   7.979   0.414  0.4375  0.6343 -0.4776
20334SOL    HW164279  11.379   7.948   0.345  2.4194  1.1972  0.8891
20334SOL    HW264280  11.354   7.940   0.494 -0.7524  1.4013  0.4383
20335SOL     OW64281   5.226   1.975   7.000  0.5052 -0.1518  0.2107
20335SOL    HW164282   5.152   1.983   7.060  0.0508 -0.6247 -0.2725
20335SOL    HW264283   5.223   1.884   6.971  0.2571  0.2545 -1.1072
20336SOL     OW64284   8.362   8.009   6.073  0.1876  0.0374 -0.3620
20336SOL    HW164285   8.329   8.092   6.107  0.9634  0.0894  0.2907
20336SOL    HW264286   8.420   7.976   6.142 -0.2946 -1.1707 -0.5074
20337SOL     OW64287   9.068   5.824   4.507 -0.0478  0.1411 -0.2424
20337SOL    HW164288   9.049   5.790   4.420 -1.6423  0.8422 -0.1956
20337SOL    HW264289   9.162   5.840   4.506  0.4800 -2.4602 -0.8677
20338SOL     OW64290   7.565   2.166  10.599 -0.4574  0.6274 -0.0679
20338SOL    HW164291   7.574   2.260  10.617 -0.6137  0.8486 -1.0660
20338SOL    HW264292   7.655   2.134  10.599 -0.3760  0.8513 -0.0846
20339SOL     OW64293   6.413   1.484   7.039 -0.0930  0.4134 -0.5449
20339SOL    HW164294   6.446   1.486   7.129 -1.6127  1.7270  0.0205
20339SOL    HW264295   6.325   1.521   7.044 -0.9479 -1.1834 -2.2903
20340SOL     OW64296   2.370   8.693   7.701 -0.1653 -0.6887 -0.6434
20340SOL    HW164297   2.321   8.639   7.763  1.1733 -1.3088 -0.0792
20340SOL    HW264298   2.460   8.659   7.706  0.3133  0.3672 -1.6768
20341SOL     OW64299   5.873   7.203  10.773  0.7174 -0.1834  0.0417
20341SOL    HW164300   5.849   7.267  10.840 -0.0385 -0.0395 -0.3584
20341SOL    HW264301   5.965   7.222  10.754  0.5825  0.6009  0.1339
20342SOL     OW64302   2.906   1.727   1.545  0.2633 -0.2159  0.1967
20342SOL    HW164303   2.951   1.811   1.533 -0.1718  0.2867  1.8953
20342SOL    HW264304   2.841   1.725   1.475  1.1864  0.2225 -0.6998
20343SOL     OW64305   0.018   3.243   9.103  0.1334 -0.1490 -0.1217
20343SOL    HW164306   0.047   3.158   9.069  1.8701  0.7988 -1.1729
20343SOL    HW264307   0.090   3.272   9.160 -0.0728  0.9606 -0.3959
20344SOL     OW64308   2.837   4.111   9.823 -1.1955  0.0162  0.0317
20344SOL    HW164309   2.844   4.070   9.737 -0.0481  0.6442 -0.1980
20344SOL    HW264310   2.743   4.108   9.844 -1.1085 -3.4697  0.4496
20345SOL     OW64311   9.448   2.196   4.864  0.1215  0.4752 -0.4461
20345SOL    HW164312   9.534   2.208   4.904  1.4340 -4.5748 -1.0400
20345SOL    HW264313   9.457   2.235   4.777  1.8334  0.1168 -0.4665
20346SOL     OW64314   9.680  11.031   5.148 -0.0684  0.0821 -0.5254
20346SOL    HW164315   9.713  11.065   5.231 -1.6850  2.1501 -0.6444
20346SOL    HW264316   9.654  10.941   5.167  2.3512 -0.4884  0.3988
20347SOL     OW64317   1.151   3.629   6.085 -0.5373  0.3971 -0.7595
20347SOL    HW164318   1.196   3.547   6.104  1.5429  1.8958  1.3863
20347SOL    HW264319   1.058   3.608   6.095 -0.0559 -1.6979 -0.2756
20348SOL     OW64320   5.387   4.831   6.792  1.0114 -0.3811  0.4914
20348SOL    HW164321   5.398   4.790   6.878  1.6029  0.4570  0.8336
20348SOL    HW264322   5.295   4.857   6.790  0.6688 -1.5243  0.3391
20349SOL     OW64323   0.428   4.061   3.090  0.1939  0.0711  0.2819
20349SOL    HW164324   0.337   4.087   3.082 -0.5205 -2.1692  0.4865
20349SOL    HW264325   0.432   4.011   3.172  1.4212 -0.5784 -0.1508
20350SOL     OW64326   7.266   1.260   8.833  0.0682  0.0972  0.5129
20350SOL    HW164327   7.183   1.219   8.857 -0.3468  0.5182 -0.1776
20350SOL    HW264328   7.319   1.188   8.797 -0.4590  0.0535 -0.1901
20351SOL     OW64329  10.725   6.781   9.724  0.1717 -0.7321 -0.0373
20351SOL    HW164330  10.737   6.793   9.818  0.5848 -1.5571  0.0250
20351SOL    HW264331  10.634   6.806   9.708  0.7691  1.8514  0.1467
20352SOL     OW64332   2.033  10.181   5.879  0.5335 -0.4146 -0.1674
20352SOL    HW164333   2.009  10.090   5.894 -1.6498 -0.4904 -3.1924
20352SOL    HW264334   1.963  10.231   5.922 -0.8118 -0.4013 -2.2192
20353SOL     OW64335   2.235  11.111   2.856 -0.2742 -0.3957  0.2625
20353SOL    HW164336   2.192  11.066   2.783  0.0589 -0.0263 -0.1731
20353SOL    HW264337   2.227  11.204   2.834 -2.3170 -0.1099  1.9010
20354SOL     OW64338  10.171   3.220   0.295  0.4468 -0.4870 -0.4356
20354SOL    HW164339  10.235   3.264   0.240  0.4647 -0.4709 -0.4013
20354SOL    HW264340  10.170   3.270   0.376  0.8298 -0.8406 -0.2071
20355SOL     OW64341   9.453   5.760   6.438  0.4118  0.0739  0.2395
20355SOL    HW164342   9.490   5.678   6.471  0.3200  0.3671  1.0972
20355SOL    HW264343   9.377   5.733   6.386 -0.0555 -0.3561  1.1234
20356SOL     OW64344   6.766   8.380   7.599 -0.4826  0.3128  0.0747
20356SOL    HW164345   6.802   8.450   7.653 -0.4559 -0.1214  0.6181
20356SOL    HW264346   6.686   8.418   7.561  0.3439  1.1744 -0.8909
20357SOL     OW64347   9.085   6.254   0.759  0.1707  0.0612 -0.2943
20357SOL    HW164348   9.129   6.327   0.803 -2.8506  1.4972  0.6196
20357SOL    HW264349   9.072   6.189   0.828 -1.1067  0.6452  0.0477
20358SOL     OW64350   7.453   1.844  11.305  0.3198  0.0689 -0.2048
20358SOL    HW164351   7.384   1.799  11.354 -2.2750  2.4342 -1.4269
20358SOL    HW264352   7.501   1.893  11.372 -0.6445  0.1611  0.4421
20359SOL     OW64353   6.688   8.035   4.133  0.2011  0.0925 -0.5172
20359SOL    HW164354   6.702   8.034   4.228 -0.1318 -0.7775 -0.4648
20359SOL    HW264355   6.624   7.966   4.118  0.5386 -0.0376 -1.4180
20360SOL     OW64356   8.159  10.343   1.490  0.0461 -0.1227  0.1756
20360SOL    HW164357   8.124  10.378   1.408  0.9324  0.6623  0.1156
20360SOL    HW264358   8.089  10.288   1.525 -0.9160  0.7263 -0.3609
20361SOL     OW64359   0.944   2.598   6.639 -0.1842  0.2037  0.0361
20361SOL    HW164360   0.887   2.521   6.634  1.5725 -1.1040 -0.9739
20361SOL    HW264361   1.004   2.579   6.710 -0.4257  1.1844  0.5257
20362SOL     OW64362  10.944  11.220   7.161  0.0048  0.1600  0.4197
20362SOL    HW164363  10.896  11.264   7.091 -1.6795  0.1244  1.4926
20362SOL    HW264364  11.000  11.288   7.199  0.7077  0.2479 -0.7309
20363SOL     OW64365   0.916   5.875   2.505 -0.1267  0.1610  0.3715
20363SOL    HW164366   0.837   5.928   2.516  0.6798  1.1961  1.4921
20363SOL    HW264367   0.937   5.882   2.412 -0.5666  1.0377  0.3278
20364SOL     OW64368   0.213   9.355   3.204 -0.1558  0.2903 -0.3676
20364SOL    HW164369   0.178   9.399   3.127 -1.0702 -2.0260 -1.3458
20364SOL    HW264370   0.136   9.326   3.253  0.4259  0.4744  0.7096
20365SOL     OW64371   8.466   6.885   0.212  0.2048  0.3222 -0.3218
20365SOL    HW164372   8.401   6.943   0.174 -0.5381  1.0361  1.8992
20365SOL    HW264373   8.417   6.831   0.275  1.4425 -0.3613  0.0942
20366SOL     OW64374  10.631   6.862   6.428 -0.0848 -0.5194 -0.7476
20366SOL    HW164375  10.680   6.837   6.507 -0.9689  1.2378  0.4334
20366SOL    HW264376  10.652   6.954   6.415 -2.3161  0.0566 -0.7061
20367SOL     OW64377   5.127   5.300   7.443 -0.5346 -0.1603  0.0427
20367SOL    HW164378   5.043   5.316   7.401 -0.3590  3.5475  0.7640
20367SOL    HW264379   5.181   5.376   7.419  1.7412 -1.1334  1.6886
20368SOL     OW64380   1.539   9.501  10.080 -0.2656 -0.0438  0.2780
20368SOL    HW164381   1.494   9.487  10.164 -0.4810 -0.1890  0.1390
20368SOL    HW264382   1.615   9.443  10.084  1.1124  1.7203  1.3939
20369SOL     OW64383   7.790   8.598   2.107 -0.3643 -0.1880 -0.1163
20369SOL    HW164384   7.802   8.508   2.077  0.5722 -0.2204  0.3127
20369SOL    HW264385   7.730   8.591   2.181  0.1857 -0.5368  0.3035
20370SOL     OW64386   4.794  10.629   3.912  0.5104  0.7639  0.3072
20370SOL    HW164387   4.794  10.683   3.833  1.4561 -0.6564 -0.7208
20370SOL    HW264388   4.887  10.625   3.937  0.4655 -0.4038  0.3183
20371SOL     OW64389  11.099   3.160   3.187 -0.0845 -0.8155 -0.1250
20371SOL    HW164390  11.095   3.254   3.205  2.1166 -0.7810  0.4925
20371SOL    HW264391  11.076   3.118   3.269 -0.8117 -0.8254 -0.3288
20372SOL     OW64392   4.784   1.276   8.627  0.2925  0.1293 -0.5099
20372SOL    HW164393   4.786   1.370   8.641  1.0009 -0.0849  1.2156
20372SOL    HW264394   4.693   1.251   8.640  0.6164  0.1908  2.6768
20373SOL     OW64395   2.403   7.455   1.633 -0.0154 -0.2962  0.2784
20373SOL    HW164396   2.332   7.428   1.575  1.5449  1.5346 -2.7556
20373SOL    HW264397   2.451   7.374   1.652 -2.1576 -1.3765  1.4904
20374SOL     OW64398   5.824  10.426   5.296  0.0981  0.0553 -0.2160
20374SOL    HW164399   5.878  10.346   5.294 -0.3515 -0.2435 -1.3568
20374SOL    HW264400   5.869  10.484   5.357  1.9419 -0.0226 -1.4509
20375SOL     OW64401   4.095   9.551   4.899 -0.1026  0.1188  0.1721
20375SOL    HW164402   4.091   9.578   4.990 -0.8240  2.7054 -0.5576
20375SOL    HW264403   4.182   9.577   4.870  0.0498 -0.5092  0.0533
20376SOL     OW64404   3.679   1.128   0.108  0.2976  1.2105  0.1247
20376SOL    HW164405   3.684   1.179   0.188 -0.9461  1.4539  0.0636
20376SOL    HW264406   3.712   1.041   0.132  0.7333  1.5263  0.6754
20377SOL     OW64407   9.503   4.930   0.240  0.3094  0.3977  0.1820
20377SOL    HW164408   9.438   4.990   0.202 -0.8325 -1.3009 -0.6611
20377SOL    HW264409   9.587   4.976   0.229 -0.5137  1.8088 -0.4819
20378SOL     OW64410   3.849  11.110   3.097 -0.0597 -0.1674  0.7288
20378SOL    HW164411   3.944  11.115   3.087  0.0428  0.0387  1.6592
20378SOL    HW264412   3.814  11.123   3.009  0.8128 -1.5507  0.1558
20379SOL     OW64413   7.169   6.817   2.272  0.1616  0.1461 -0.0452
20379SOL    HW164414   7.246   6.800   2.217  0.5098 -0.7924  0.7009
20379SOL    HW264415   7.117   6.879   2.221  1.6933  1.2755 -0.3229
20380SOL     OW64416   8.851   9.168   5.881 -0.1085  0.2674  0.0183
20380SOL    HW164417   8.777   9.226   5.899 -0.6373 -0.1942 -0.6149
20380SOL    HW264418   8.876   9.190   5.791 -0.3358 -0.5017 -0.2352
20381SOL     OW64419   1.154   9.953   4.600 -0.4754 -0.1491 -0.3701
20381SOL    HW164420   1.150   9.939   4.506  0.4354  1.6327 -0.7306
20381SOL    HW264421   1.062   9.954   4.629 -0.7259 -1.9830 -0.9716
20382SOL     OW64422  10.413   7.061   8.284  0.6878  0.0845 -0.3489
20382SOL    HW164423  10.484   7.124   8.299 -0.0753  0.9075 -0.0733
20382SOL    HW264424  10.378   7.043   8.372  0.8506 -0.6815 -0.4315
20383SOL     OW64425   0.798   8.576   6.259 -0.0725 -0.0404  0.3084
20383SOL    HW164426   0.829   8.666   6.254 -0.8049  0.2733  1.0596
20383SOL    HW264427   0.719   8.575   6.205  0.0860 -0.3028  0.0788
20384SOL     OW64428   5.498   3.321   7.263 -1.0697 -0.3109 -0.1585
20384SOL    HW164429   5.459   3.234   7.271 -1.0051 -0.2624  0.7856
20384SOL    HW264430   5.483   3.362   7.348 -0.6805  0.4297 -0.4373
20385SOL     OW64431   4.403   2.345   8.279  0.0854  0.2998 -0.3552
20385SOL    HW164432   4.444   2.402   8.344  0.4007 -1.3269  0.9392
20385SOL    HW264433   4.477   2.304   8.233  0.1181 -2.5471  1.9026
20386SOL     OW64434   5.656   6.298  10.050 -0.1545 -0.3442  0.0721
20386SOL    HW164435   5.572   6.333  10.078 -0.4330 -1.4002  0.6040
20386SOL    HW264436   5.690   6.252  10.127  1.6475  1.3610  0.3595
20387SOL     OW64437   1.664   1.968   5.302 -0.8103  0.4481 -0.3188
20387SOL    HW164438   1.695   1.903   5.239 -2.2492 -0.9456  0.3594
20387SOL    HW264439   1.710   1.947   5.383 -0.3646  1.0681 -0.4017
20388SOL     OW64440   8.987   3.980   7.738 -0.1708  0.3410  0.2324
20388SOL    HW164441   9.043   3.952   7.810  1.6555 -2.2367 -1.9702
20388SOL    HW264442   8.991   3.908   7.675 -2.4217  2.0210 -2.0589
20389SOL     OW64443   2.710   9.263   7.221  0.1209  0.1799  0.0259
20389SOL    HW164444   2.714   9.195   7.153 -0.0891  1.8710 -1.7967
20389SOL    HW264445   2.793   9.255   7.268  0.4797 -0.7707 -0.7282
20390SOL     OW64446   9.280   6.224   3.234  0.3563 -0.1095  0.3134
20390SOL    HW164447   9.330   6.145   3.212  2.0477  0.8524  0.5883
20390SOL    HW264448   9.322   6.294   3.184 -0.9691  0.6827  0.2637
20391SOL     OW64449   7.952  10.964   4.164 -0.4940 -0.3424 -0.0185
20391SOL    HW164450   7.924  11.033   4.104  0.1269 -0.5810 -0.5935
20391SOL    HW264451   7.949  10.883   4.112  1.7361 -0.3210 -0.2930
20392SOL     OW64452   6.970  10.040   9.136 -0.1228 -0.3990  0.1331
20392SOL    HW164453   6.982  10.098   9.212 -0.9054  0.4113 -0.3436
20392SOL    HW264454   6.888  10.069   9.096  0.2770 -0.8105 -1.0295
20393SOL     OW64455   4.724  10.043   9.469 -0.0180 -0.1108 -0.5037
20393SOL    HW164456   4.752  10.135   9.466  1.8900 -0.2040  4.6805
20393SOL    HW264457   4.780   9.998   9.406  2.9803  1.5636  0.7961
20394SOL     OW64458   6.783   5.554   6.957  0.4758  0.3869  0.1519
20394SOL    HW164459   6.778   5.599   6.872 -0.1889 -1.2576 -0.7375
20394SOL    HW264460   6.835   5.476   6.939 -0.0930 -0.2365  1.1417
20395SOL     OW64461   0.009  10.859   8.021 -0.5175 -0.6712  0.0036
20395SOL    HW164462   0.034  10.800   7.949 -1.1624  1.7043 -2.3096
20395SOL    HW264463  -0.080  10.833   8.043 -0.3582 -1.3569 -0.1325
20396SOL     OW64464   6.651   3.843  10.651 -0.1921  0.0481 -1.0022
20396SOL    HW164465   6.642   3.931  10.616 -0.1162  0.1653 -0.7287
20396SOL    HW264466   6.729   3.846  10.706 -1.3525  0.3841  0.7049
20397SOL     OW64467  11.322   0.171   8.714  0.3077 -0.8856 -0.1052
20397SOL    HW164468  11.390   0.208   8.658  0.5347 -2.3252 -0.8343
20397SOL    HW264469  11.260   0.130   8.654  0.0389 -1.6177  0.6396
20398SOL     OW64470   1.676   7.624   4.199  0.3220 -0.2492 -0.4820
20398SOL    HW164471   1.732   7.647   4.125  2.5248 -0.9524  0.8768
20398SOL    HW264472   1.650   7.709   4.235  0.8754  0.0993 -0.8738
20399SOL     OW64473   1.885  10.109   7.352  0.3540  0.5099 -0.1506
20399SOL    HW164474   1.959  10.079   7.301 -0.8935  0.8119 -2.2563
20399SOL    HW264475   1.913  10.193   7.389  1.3452  0.2022 -0.1990
20400SOL     OW64476   8.694   6.248   1.785  0.3973  0.0521  0.6046
20400SOL    HW164477   8.755   6.292   1.844  1.7287 -0.1814 -0.5382
20400SOL    HW264478   8.691   6.306   1.708 -0.5391 -0.1340  0.4998
20401SOL     OW64479   7.260   9.687   3.466 -0.1614 -0.1282 -0.1610
20401SOL    HW164480   7.231   9.607   3.510  0.7790 -0.4578 -0.0948
20401SOL    HW264481   7.308   9.736   3.533  1.4313 -0.7172 -0.7998
20402SOL     OW64482   5.534   5.833   6.664  0.3342 -0.2466  0.2167
20402SOL    HW164483   5.594   5.779   6.614  0.4259  1.0306 -1.1049
20402SOL    HW264484   5.506   5.901   6.603 -0.3381  0.7762  1.6086
20403SOL     OW64485   2.259   3.723   1.093 -0.3323 -0.8351 -0.5537
20403SOL    HW164486   2.331   3.661   1.079 -1.8424 -2.3801 -1.8330
20403SOL    HW264487   2.295   3.807   1.064  2.4870 -0.5029  3.2170
20404SOL     OW64488   1.119   1.996  10.946 -0.1408  0.1002 -0.5213
20404SOL    HW164489   1.133   2.046  11.026 -1.7052 -0.9764  0.4827
20404SOL    HW264490   1.155   1.910  10.964 -3.0686 -1.1032  0.2465
20405SOL     OW64491   8.260   8.670   6.203 -0.2850 -0.0980  0.5168
20405SOL    HW164492   8.200   8.682   6.129 -1.7040 -1.6891  1.3205
20405SOL    HW264493   8.262   8.755   6.247 -1.5161  0.1662  0.1105
20406SOL     OW64494   5.104  10.876   1.064 -0.0704  0.3413 -0.1276
20406SOL    HW164495   5.083  10.794   1.018 -0.4727  0.0949  0.4722
20406SOL    HW264496   5.169  10.918   1.009 -0.1102 -0.2227 -0.6246
20407SOL     OW64497   8.654   4.490  10.651  0.0757  0.2465  0.0102
20407SOL    HW164498   8.705   4.517  10.575  0.2836 -1.5186 -0.5201
20407SOL    HW264499   8.582   4.437  10.615 -0.0894 -0.2392  0.9881
20408SOL     OW64500   3.496   3.534   1.876  0.0649  0.3245 -0.5084
20408SOL    HW164501   3.586   3.568   1.868  0.6320 -1.2302 -1.0530
20408SOL    HW264502   3.501   3.469   1.946 -0.6067  0.1172 -0.6467
20409SOL     OW64503  10.488   6.549   9.103  0.1140 -0.1565  0.0518
20409SOL    HW164504  10.546   6.588   9.038 -0.4664  0.3563 -0.1777
20409SOL    HW264505  10.530   6.567   9.187  1.6203 -2.1070 -0.2231
20410SOL     OW64506   5.028   7.809   5.747  0.6183 -0.1657  0.4191
20410SOL    HW164507   5.033   7.876   5.815  1.3204 -0.3423  0.5465
20410SOL    HW264508   5.103   7.753   5.763 -0.6896 -1.8071  1.1667
20411SOL     OW64509   6.549   6.649   8.075  0.1967 -0.0671 -1.0764
20411SOL    HW164510   6.610   6.723   8.074 -0.4616  0.6723  1.8065
20411SOL    HW264511   6.596   6.579   8.120 -0.5730  0.0576 -0.0335
20412SOL     OW64512   5.564   9.265   8.200 -0.0920  0.2400  0.0490
20412SOL    HW164513   5.506   9.208   8.150 -0.8582  1.1989 -0.1927
20412SOL    HW264514   5.651   9.227   8.189 -0.5413 -0.7043 -0.3395
20413SOL     OW64515   0.725   7.016   5.125 -0.5033  0.0537  0.4349
20413SOL    HW164516   0.810   6.972   5.127 -0.1612  0.6925  0.3868
20413SOL    HW264517   0.746   7.107   5.106 -1.2097  0.2059  0.3555
20414SOL     OW64518   0.526   9.914   8.098  0.1008  0.0765  0.2819
20414SOL    HW164519   0.600   9.972   8.081 -0.1817  1.1333  2.3226
20414SOL    HW264520   0.470   9.923   8.020 -0.3013  3.1974  0.7948
20415SOL     OW64521   0.987   8.556   8.616  0.2713 -0.2005 -0.1033
20415SOL    HW164522   0.958   8.468   8.643  0.6908 -0.9277 -1.9084
20415SOL    HW264523   1.009   8.600   8.699  1.5884 -2.3406  0.7704
20416SOL     OW64524   3.842   8.004   6.599  0.0462 -0.2810 -0.2449
20416SOL    HW164525   3.776   8.046   6.653  0.4435  0.3100 -0.2053
20416SOL    HW264526   3.901   7.961   6.662  0.6399  0.5999 -0.1745
20417SOL     OW64527   1.294  10.561   1.483  0.0929 -0.0168 -0.0296
20417SOL    HW164528   1.366  10.623   1.483 -0.0753  0.1963 -0.8633
20417SOL    HW264529   1.336  10.475   1.474  0.2220  0.1854 -1.8081
20418SOL     OW64530   4.562   7.935   0.702  0.8731 -0.5153  0.1927
20418SOL    HW164531   4.585   8.003   0.765  1.3742 -0.1037 -0.4163
20418SOL    HW264532   4.609   7.960   0.622  0.8928 -1.4628 -0.1024
20419SOL     OW64533   1.499   1.817   2.406 -0.1202  0.3754  0.0383
20419SOL    HW164534   1.475   1.760   2.479 -1.3701 -0.2273 -0.8120
20419SOL    HW264535   1.583   1.784   2.376 -0.1446 -0.0921  0.4864
20420SOL     OW64536   6.383   6.209   7.803  0.2875 -0.1075 -0.1671
20420SOL    HW164537   6.405   6.226   7.711  0.2483 -2.3200 -0.6348
20420SOL    HW264538   6.432   6.275   7.852  2.7059 -0.7075 -1.5929
20421SOL     OW64539  10.852   8.603   6.183 -0.3929  0.3529  0.1174
20421SOL    HW164540  10.903   8.539   6.133 -1.5378 -0.8529  0.4480
20421SOL    HW264541  10.884   8.593   6.273 -0.1878  0.6626  0.0839
20422SOL     OW64542   6.093   6.098   6.424  0.0351 -0.3593 -0.3221
20422SOL    HW164543   6.155   6.161   6.460  0.4040  0.8908 -2.9144
20422SOL    HW264544   6.105   6.104   6.329 -1.9396 -2.2900 -0.7722
20423SOL     OW64545   9.071   9.564   4.095 -0.8070 -0.6357  0.2616
20423SOL    HW164546   9.103   9.652   4.114 -0.6365 -0.3983 -1.0262
20423SOL    HW264547   8.977   9.575   4.080 -0.5617 -0.4113 -1.2738
20424SOL     OW64548   4.537  10.011   8.929  0.0504  0.7029 -0.4130
20424SOL    HW164549   4.552   9.920   8.904  1.6517  0.6810  0.4446
20424SOL    HW264550   4.533  10.058   8.846  1.1755  0.0924 -0.8414
20425SOL     OW64551   2.336   2.631   9.582  0.0576  0.6209 -0.2054
20425SOL    HW164552   2.305   2.609   9.494 -0.1409  0.3096 -0.0576
20425SOL    HW264553   2.303   2.720   9.597 -2.1104 -0.2487  0.5519
20426SOL     OW64554   4.536   5.962  10.637  0.3197 -0.0047 -0.5311
20426SOL    HW164555   4.600   5.899  10.603  0.9344  0.4127 -0.1567
20426SOL    HW264556   4.555   6.043  10.591 -0.4385 -0.0567 -0.9713
20427SOL     OW64557  10.080   9.100   9.754 -0.3605  0.4623  0.3475
20427SOL    HW164558  10.079   9.189   9.719  1.5508  0.7916  1.0284
20427SOL    HW264559  10.132   9.050   9.691 -0.0129  0.2235  0.8193
20428SOL     OW64560   9.009   0.670   5.453 -0.4496 -0.0279  0.1164
20428SOL    HW164561   9.060   0.689   5.374  0.9141 -0.8455  0.7793
20428SOL    HW264562   8.953   0.597   5.427 -1.1579  0.7253 -0.5458
20429SOL     OW64563   7.748  11.281   2.347  0.0498  0.4646 -0.0367
20429SOL    HW164564   7.670  11.335   2.364 -0.0343  0.1993  0.4464
20429SOL    HW264565   7.780  11.258   2.434  0.8301  0.7856 -0.2266
20430SOL     OW64566   2.364   8.064   7.498 -0.1050 -0.2173  0.0324
20430SOL    HW164567   2.431   8.034   7.559 -1.4209  0.9801  2.1940
20430SOL    HW264568   2.362   7.997   7.429 -0.2562 -3.0425  2.5804
20431SOL     OW64569   9.441   0.541   6.898 -0.2398  0.3218  0.4165
20431SOL    HW164570   9.384   0.615   6.878 -0.6005 -0.7590 -3.1681
20431SOL    HW264571   9.514   0.550   6.838  0.9982 -0.9149  1.6619
20432SOL     OW64572   2.788   0.996   5.282  0.1375  0.3571 -0.6135
20432SOL    HW164573   2.814   0.945   5.205 -0.7228  0.7856 -1.2210
20432SOL    HW264574   2.749   1.076   5.245  0.0772  0.7546  0.2794
20433SOL     OW64575   5.745   7.230   2.460  0.2753 -0.1267 -0.0693
20433SOL    HW164576   5.777   7.319   2.474  0.1865 -0.1494  0.2837
20433SOL    HW264577   5.754   7.216   2.366  0.4586  0.1902 -0.1001
20434SOL     OW64578   7.327   6.806   3.239  0.4866 -0.1159  0.0614
20434SOL    HW164579   7.385   6.766   3.305 -0.8293 -1.2546  0.5698
20434SOL    HW264580   7.379   6.808   3.159  1.7064  0.1871  0.8324
20435SOL     OW64581   7.319   6.005   4.558  0.8377 -0.2996  0.4745
20435SOL    HW164582   7.412   6.012   4.539  1.0880  3.7664  2.1300
20435SOL    HW264583   7.277   6.018   4.473  1.7828 -0.6629 -0.0622
20436SOL     OW64584   3.487   8.782   1.889 -0.3085  0.3116 -0.1028
20436SOL    HW164585   3.543   8.705   1.877 -2.2344 -0.9764 -1.4626
20436SOL    HW264586   3.496   8.804   1.982  0.3334 -1.5295  0.3119
20437SOL     OW64587   8.251   3.833   3.495  0.5331  0.6842  0.0122
20437SOL    HW164588   8.209   3.779   3.429 -0.6427 -0.1553  1.4057
20437SOL    HW264589   8.201   3.914   3.495 -0.1664  0.2573  0.6360
20438SOL     OW64590   4.137   3.805   7.226 -0.1911  0.9948 -0.1254
20438SOL    HW164591   4.062   3.752   7.200 -0.5570  1.0311  0.7951
20438SOL    HW264592   4.212   3.764   7.183 -0.5556  0.0994  0.0688
20439SOL     OW64593   3.929   2.281  11.347  0.6406  0.0413  0.1168
20439SOL    HW164594   3.940   2.374  11.367  0.8619 -0.4516  2.5046
20439SOL    HW264595   3.998   2.237  11.395  0.3963 -1.4075 -0.7841
20440SOL     OW64596  10.177   0.648   6.152 -0.1569 -0.0967  0.4510
20440SOL    HW164597  10.258   0.658   6.103 -0.1456  0.5418  0.5860
20440SOL    HW264598  10.146   0.737   6.166 -0.8279 -0.3287  0.4960
20441SOL     OW64599   7.197   8.721   0.926 -0.2799 -0.0082  0.2342
20441SOL    HW164600   7.143   8.645   0.905  1.1374 -1.3263  1.1722
20441SOL    HW264601   7.134   8.788   0.952 -1.5311 -1.1371  0.2314
20442SOL     OW64602  11.063   7.893  10.199 -0.3331 -0.1772 -0.2950
20442SOL    HW164603  11.054   7.981  10.163 -2.6517 -0.8992 -1.7032
20442SOL    HW264604  11.000   7.841  10.149 -0.9217 -2.0825  2.2759
20443SOL     OW64605   1.867  11.263   5.558  0.5184 -0.0267 -0.2581
20443SOL    HW164606   1.878  11.169   5.540 -0.8141 -0.1908 -0.2988
20443SOL    HW264607   1.902  11.306   5.480  1.1657 -0.4824 -0.2287
20444SOL     OW64608   4.991   1.685   5.875  0.5016  0.7379  0.0823
20444SOL    HW164609   4.993   1.633   5.956  1.2107  2.2351  1.0585
20444SOL    HW264610   4.936   1.633   5.815  0.7662 -0.8802  1.1717
20445SOL     OW64611   5.873   6.795   6.739  0.3328 -0.3150 -0.2279
20445SOL    HW164612   5.963   6.782   6.709 -0.3120 -1.5720 -1.7835
20445SOL    HW264613   5.831   6.845   6.669 -0.2299  0.0968  0.3926
20446SOL     OW64614   1.584   6.162   8.604  0.0495 -0.1704 -0.3228
20446SOL    HW164615   1.667   6.160   8.652 -0.0073 -0.6849 -0.2419
20446SOL    HW264616   1.607   6.194   8.517  0.3354 -0.3154 -0.3030
20447SOL     OW64617   7.564   9.439   3.038  1.0062  0.0322 -0.3393
20447SOL    HW164618   7.548   9.441   3.133  2.2040  1.4931 -0.1242
20447SOL    HW264619   7.521   9.517   3.005  0.3511 -0.6281 -1.0578
20448SOL     OW64620   2.578   1.282   6.373 -0.0756  0.0080  0.1408
20448SOL    HW164621   2.660   1.291   6.421 -0.3246  0.6293  0.4563
20448SOL    HW264622   2.604   1.248   6.287  0.3572 -1.3221  0.7649
20449SOL     OW64623   2.792   4.280   2.173  0.3375 -0.2142 -0.2524
20449SOL    HW164624   2.877   4.320   2.187  0.3584  0.1160 -1.2503
20449SOL    HW264625   2.748   4.284   2.258  0.9677  0.4288  0.0432
20450SOL     OW64626   6.402   3.360   7.736 -0.4564  0.2810 -0.1882
20450SOL    HW164627   6.432   3.275   7.702  1.3006 -0.0203  1.8780
20450SOL    HW264628   6.350   3.338   7.814 -1.3255  1.0639 -0.5302
20451SOL     OW64629   4.073   6.148   6.665  0.5419 -0.1699 -0.1603
20451SOL    HW164630   3.991   6.142   6.713  0.4867 -1.1103 -0.3572
20451SOL    HW264631   4.073   6.072   6.607  2.2471 -1.0634  0.9229
20452SOL     OW64632   6.813   1.881   3.943 -0.3808 -0.0254  0.4276
20452SOL    HW164633   6.738   1.898   4.000  1.6109  1.4266  2.8235
20452SOL    HW264634   6.859   1.965   3.938 -0.2893 -0.1507 -3.2341
20453SOL     OW64635   8.397   2.427   0.853  0.0530 -0.1377 -0.0734
20453SOL    HW164636   8.337   2.487   0.899  0.8791  1.0315 -0.4943
20453SOL    HW264637   8.396   2.457   0.762 -0.0454 -1.2082 -0.4381
20454SOL     OW64638   7.829   7.134   8.819  0.4710  0.1228  0.4888
20454SOL    HW164639   7.765   7.081   8.773  1.4020 -1.4514  0.9493
20454SOL    HW264640   7.906   7.078   8.827  1.2352  1.2729  1.6522
20455SOL     OW64641   5.202   0.715   4.620 -0.7065  0.1693 -0.2783
20455SOL    HW164642   5.236   0.793   4.576  0.4641  0.0952  0.4529
20455SOL    HW264643   5.221   0.729   4.712 -2.8411  0.1685  0.2113
20456SOL     OW64644   6.062   2.196   7.934 -0.4041 -0.4060  0.2819
20456SOL    HW164645   5.983   2.147   7.909  0.5951 -2.6981  1.3130
20456SOL    HW264646   6.055   2.207   8.028 -0.0209  0.4309  0.2229
20457SOL     OW64647  10.573   6.996   3.452 -0.3887  0.4500  0.2001
20457SOL    HW164648  10.649   6.939   3.466  0.1870  1.2137  0.1938
20457SOL    HW264649  10.498   6.935   3.452  0.1285 -0.2079  1.0385
20458SOL     OW64650   8.781   4.494   4.491  0.3481 -0.8426  0.1329
20458SOL    HW164651   8.858   4.547   4.511  0.8127 -1.7746  0.8610
20458SOL    HW264652   8.714   4.526   4.551 -0.7315  1.8118 -2.2559
20459SOL     OW64653   7.775   6.044   7.149  0.2176 -0.1063  0.1656
20459SOL    HW164654   7.727   6.062   7.230  1.5626  0.8655  0.7929
20459SOL    HW264655   7.739   5.961   7.117 -0.1238 -0.6732  1.9246
20460SOL     OW64656   1.900   8.351   8.930 -0.1799  0.3646  0.6461
20460SOL    HW164657   1.912   8.379   8.839 -1.3056  1.1189  0.7065
20460SOL    HW264658   1.837   8.414   8.966 -1.9823 -1.5781  1.1132
20461SOL     OW64659   2.336   6.884  11.041 -0.3743 -0.4982  0.5198
20461SOL    HW164660   2.342   6.979  11.037  0.1116 -0.5586 -1.4638
20461SOL    HW264661   2.251   6.867  11.082  0.0017  0.7464  1.8982
20462SOL     OW64662   7.972   5.545   2.982 -0.1047 -0.1946  0.0605
20462SOL    HW164663   7.973   5.452   2.959 -0.1126 -1.2021  3.5688
20462SOL    HW264664   7.890   5.557   3.029  0.7038  1.1277  1.2214
20463SOL     OW64665  11.374   9.989   2.758  0.1459  0.1759  0.1572
20463SOL    HW164666  11.368   9.931   2.682 -1.7710 -0.6680  0.8730
20463SOL    HW264667  11.419   9.936   2.824  1.1297  0.6377 -0.1242
20464SOL     OW64668   8.199   1.345  10.805 -0.0563 -0.0935 -0.4552
20464SOL    HW164669   8.289   1.351  10.773  0.3553 -0.9917  0.4897
20464SOL    HW264670   8.157   1.423  10.770  1.5574  1.3025  0.5535
20465SOL     OW64671   0.236   3.828   3.278  0.3111 -0.0809  0.3227
20465SOL    HW164672   0.246   3.848   3.185 -1.7363  2.0353  0.4523
20465SOL    HW264673   0.324   3.833   3.314  0.9258  0.7349 -1.2185
20466SOL     OW64674   9.069   3.294   6.228 -0.3680 -0.1968  0.1406
20466SOL    HW164675   8.974   3.288   6.238 -0.4552  1.4128  0.5932
20466SOL    HW264676   9.101   3.309   6.317  0.1688  0.6400 -0.1854
20467SOL     OW64677  10.079   0.440   7.834  0.8452  0.4090  0.1505
20467SOL    HW164678  10.078   0.519   7.779  2.2657  0.8572  0.7188
20467SOL    HW264679   9.998   0.444   7.884  0.2007  0.7296 -0.8834
20468SOL     OW64680  10.552   2.268   0.474 -0.2184 -1.0504  0.1856
20468SOL    HW164681  10.576   2.178   0.498  0.8359 -0.6141  0.8615
20468SOL    HW264682  10.630   2.302   0.430 -0.4213 -0.3107  0.3841
20469SOL     OW64683  11.055   6.597   0.876  0.2927 -0.5755 -0.2125
20469SOL    HW164684  11.037   6.503   0.865  0.1621 -0.4659 -0.9672
20469SOL    HW264685  11.040   6.635   0.790 -0.9074  0.3594  0.3780
20470SOL     OW64686   6.033   5.521   8.357 -0.4315  0.3893 -0.2975
20470SOL    HW164687   6.075   5.497   8.440  0.1107  0.3074 -0.5923
20470SOL    HW264688   6.095   5.582   8.316  0.7371 -1.8044 -2.0097
20471SOL     OW64689   3.626   5.343   8.364 -0.5018  0.2778  0.2196
20471SOL    HW164690   3.658   5.410   8.304 -0.8604  2.2848  2.1258
20471SOL    HW264691   3.536   5.327   8.338 -0.5253  0.8260 -0.0287
20472SOL     OW64692   4.331   2.664   3.839  0.6318  0.3242 -0.1103
20472SOL    HW164693   4.345   2.570   3.853 -1.4662  0.2499  2.1772
20472SOL    HW264694   4.364   2.680   3.751  1.7163 -2.4036 -0.2958
20473SOL     OW64695   8.753   2.891   5.477  0.3701 -0.4225 -0.1959
20473SOL    HW164696   8.670   2.922   5.442  0.2714  0.4891  0.8084
20473SOL    HW264697   8.736   2.800   5.503 -0.6872  0.1340  1.1632
20474SOL     OW64698  11.255   4.539   9.992  0.3007 -0.2401 -0.0857
20474SOL    HW164699  11.335   4.580   9.960  1.4850 -1.6238  0.9392
20474SOL    HW264700  11.210   4.507   9.914  0.5679  0.8510 -0.6971
20475SOL     OW64701   0.929   0.129   9.822  0.4109  0.1551 -0.8227
20475SOL    HW164702   0.982   0.128   9.743  0.9354  0.4268 -0.4827
20475SOL    HW264703   0.839   0.136   9.791  0.4594 -1.6023 -1.4516
20476SOL     OW64704  10.905   6.913   4.160 -0.3524  0.2492  0.1091
20476SOL    HW164705  10.986   6.949   4.122 -0.0908  0.0337  0.4538
20476SOL    HW264706  10.917   6.924   4.254 -0.8517  0.4733  0.1483
20477SOL     OW64707   8.891   4.512  10.195 -0.1287 -0.3018 -0.0985
20477SOL    HW164708   8.806   4.545  10.168 -0.7332 -0.9833  0.8936
20477SOL    HW264709   8.954   4.562  10.144 -1.1669 -1.4334 -2.6427
20478SOL     OW64710   0.211   6.242   2.443 -0.4896 -0.1110  0.4775
20478SOL    HW164711   0.215   6.316   2.503 -0.7217 -0.9770  1.6072
20478SOL    HW264712   0.136   6.261   2.386  1.0005  1.7278 -0.9627
20479SOL     OW64713   3.278   3.841   3.917 -0.4975 -0.3332  0.0535
20479SOL    HW164714   3.342   3.816   3.984 -0.0588 -0.9082 -0.5726
20479SOL    HW264715   3.330   3.855   3.838 -1.1116 -0.4741 -0.3812
20480SOL     OW64716   0.167  10.436   1.756  0.3414  1.0481 -0.1022
20480SOL    HW164717   0.240  10.399   1.806  0.4281 -0.0886 -1.0316
20480SOL    HW264718   0.208  10.472   1.677 -0.2151 -1.0018 -1.3974
20481SOL     OW64719   3.902  10.957  11.375 -0.1147  0.3024 -0.1643
20481SOL    HW164720   3.868  10.874  11.343  2.4509 -0.6219 -0.6871
20481SOL    HW264721   3.865  11.023  11.315 -1.5933 -0.5138 -0.1819
20482SOL     OW64722   4.985   9.362   8.476 -0.1496  0.0535 -0.6071
20482SOL    HW164723   5.063   9.353   8.529 -0.4221  1.4383  0.0670
20482SOL    HW264724   5.014   9.344   8.386  0.1653 -3.0690  0.0049
20483SOL     OW64725   2.434   5.595   1.463  0.6920  0.1324  0.2954
20483SOL    HW164726   2.496   5.592   1.391  1.2291  0.1169  0.7574
20483SOL    HW264727   2.387   5.678   1.451 -0.8512 -0.9227 -1.4076
20484SOL     OW64728   0.207   1.753   4.951 -0.0404  0.2732 -0.2945
20484SOL    HW164729   0.244   1.841   4.961 -1.3451  0.6956  1.2857
20484SOL    HW264730   0.246   1.703   5.023  1.0682 -0.6232 -1.4710
20485SOL     OW64731   9.470   2.243  11.114 -0.1851 -0.0252  0.0923
20485SOL    HW164732   9.508   2.219  11.029  0.5787 -0.6784  0.6061
20485SOL    HW264733   9.545   2.274  11.166 -0.6169  0.1908  0.5929
20486SOL     OW64734   7.860   5.676   2.320 -0.7213 -0.3972  0.0669
20486SOL    HW164735   7.905   5.683   2.404 -0.0355 -0.0501 -0.3173
20486SOL    HW264736   7.908   5.608   2.272 -2.5724 -2.3261  0.8281
20487SOL     OW64737  10.818   8.009   6.800 -0.1209 -0.1896 -0.2110
20487SOL    HW164738  10.852   8.096   6.818 -2.0429  0.6713 -0.4877
20487SOL    HW264739  10.860   7.984   6.717 -0.1573  0.8319 -0.5537
20488SOL     OW64740   3.339  10.975   7.122  0.2678 -0.8558 -0.5188
20488SOL    HW164741   3.403  11.010   7.060  0.0391 -1.6730 -1.2531
20488SOL    HW264742   3.269  11.040   7.123  0.9328 -0.1271  0.0174
20489SOL     OW64743   7.793   0.879   0.666 -0.1815 -0.1528 -0.1385
20489SOL    HW164744   7.749   0.794   0.666 -0.2632 -0.1771  2.2829
20489SOL    HW264745   7.887   0.858   0.670 -0.2418 -0.2629  3.0477
20490SOL     OW64746   3.815   4.621   6.024  0.0857  0.6816 -0.1010
20490SOL    HW164747   3.758   4.658   6.090  0.1722  1.3452 -0.3921
20490SOL    HW264748   3.839   4.535   6.058 -0.8712  0.5038  0.1408
20491SOL     OW64749   1.105   3.795   7.820  0.8142 -0.0300 -0.2198
20491SOL    HW164750   1.067   3.715   7.858 -1.1411  1.2388  0.6847
20491SOL    HW264751   1.138   3.843   7.896  0.4967  0.7373 -0.5639
20492SOL     OW64752   6.684   7.572   1.257 -0.1924 -0.1216  0.0147
20492SOL    HW164753   6.695   7.499   1.196 -0.0320 -0.4609  0.4435
20492SOL    HW264754   6.701   7.650   1.204  2.3147 -0.5033  0.1174
20493SOL     OW64755   0.700  10.475  10.149 -0.1443  0.1297 -1.2500
20493SOL    HW164756   0.716  10.524  10.230 -0.3851  0.1949 -1.2428
20493SOL    HW264757   0.689  10.384  10.178 -0.3113  0.1655 -1.2023
20494SOL     OW64758   8.369   1.360   0.147 -0.5387  0.3639  0.3152
20494SOL    HW164759   8.334   1.413   0.075  0.0061  2.3900  1.4721
20494SOL    HW264760   8.463   1.357   0.130 -0.7204 -1.7386 -0.6451
20495SOL     OW64761   0.090  10.254   9.156  0.2010 -0.4005 -0.8824
20495SOL    HW164762   0.022  10.190   9.134 -0.1201 -0.4707  0.2774
20495SOL    HW264763   0.159  10.202   9.196  0.0309 -0.0548 -0.1316
20496SOL     OW64764   3.482   1.693   1.521 -0.1895 -0.3595  0.2014
20496SOL    HW164765   3.403   1.689   1.576  0.6362 -0.5534  1.4200
20496SOL    HW264766   3.467   1.629   1.452 -2.0065  1.1057 -0.8726
20497SOL     OW64767   5.397   0.315   8.115 -0.5750 -0.2181 -0.0341
20497SOL    HW164768   5.457   0.287   8.046  0.6296 -2.1536  1.6559
20497SOL    HW264769   5.449   0.376   8.167  0.1953 -2.1903  1.6572
20498SOL     OW64770   1.727   1.452   2.242 -0.3896 -0.1233 -0.5663
20498SOL    HW164771   1.780   1.391   2.294  0.3260  1.0897  0.1815
20498SOL    HW264772   1.743   1.426   2.151 -0.0639 -1.0118 -0.2657
20499SOL     OW64773   7.946   5.355   1.750 -0.3270  0.1251 -0.1650
20499SOL    HW164774   7.900   5.390   1.827 -1.8535 -0.6813 -0.6783
20499SOL    HW264775   7.882   5.359   1.679 -0.4200 -3.1003 -0.4106
20500SOL     OW64776   0.452   6.472   8.845 -0.6927  0.2633 -0.3453
20500SOL    HW164777   0.546   6.481   8.829 -0.1703 -0.4825  1.9742
20500SOL    HW264778   0.423   6.560   8.870 -0.4969  0.3837 -0.5413
20501SOL     OW64779   5.355   9.750   9.272  0.2297  0.4853 -0.2973
20501SOL    HW164780   5.410   9.671   9.271  0.8270  0.8975 -1.3037
20501SOL    HW264781   5.385   9.799   9.348 -0.1861 -0.2723  0.3724
20502SOL     OW64782   8.663   6.739   6.248 -0.1756 -0.5986 -0.7583
20502SOL    HW164783   8.737   6.798   6.234  0.5699 -1.2835  0.1531
20502SOL    HW264784   8.699   6.652   6.235 -0.9002 -0.9328 -0.6016
20503SOL     OW64785   2.043   1.263   2.098 -0.5854 -0.4919  0.0587
20503SOL    HW164786   2.090   1.345   2.083  1.2838 -1.4432  0.5225
20503SOL    HW264787   2.037   1.222   2.012  1.5041 -1.4032  0.2853
20504SOL     OW64788   9.780   3.162   2.623 -0.0101  0.1332  0.2472
20504SOL    HW164789   9.777   3.252   2.591 -1.3292  0.3921  1.0483
20504SOL    HW264790   9.873   3.139   2.621  0.5359  2.0419  1.4583
20505SOL     OW64791  10.773  10.303   1.507 -0.1770  0.0593 -0.3342
20505SOL    HW164792  10.699  10.345   1.464 -0.6020  0.3215  0.6108
20505SOL    HW264793  10.768  10.334   1.598  0.5383 -0.6567 -0.0384
20506SOL     OW64794  10.297   6.904   4.927  0.5335  0.5147 -0.1256
20506SOL    HW164795  10.232   6.847   4.967  2.3041 -0.6593  1.2487
20506SOL    HW264796  10.253   6.943   4.851 -0.4874 -3.5458 -1.8765
20507SOL     OW64797   6.469   2.956   2.740 -0.2966  0.2446  0.0727
20507SOL    HW164798   6.515   2.897   2.800 -0.3186  1.0754  0.9268
20507SOL    HW264799   6.493   3.044   2.770  0.8837  0.7009 -2.0566
20508SOL     OW64800   3.308   1.293   6.662  0.1097  0.2206 -0.4374
20508SOL    HW164801   3.287   1.272   6.753 -0.5221  2.2527 -0.0477
20508SOL    HW264802   3.395   1.333   6.666 -1.1408  3.1900 -0.1642
20509SOL     OW64803  10.156   7.656   4.113 -0.3821  0.4008 -0.4216
20509SOL    HW164804  10.138   7.644   4.206  0.3718  1.3958 -0.1298
20509SOL    HW264805  10.199   7.575   4.086  0.6659  0.6457  0.4417
20510SOL     OW64806   2.238   6.045   8.306  0.0880  0.7643 -0.0809
20510SOL    HW164807   2.202   5.958   8.290  1.4141  0.1725  0.0058
20510SOL    HW264808   2.174   6.088   8.363 -1.0879  0.2418 -0.9649
20511SOL     OW64809   8.838   5.468   1.982 -0.2082 -0.0113 -0.1051
20511SOL    HW164810   8.861   5.380   2.012  0.6115  0.2020 -0.0752
20511SOL    HW264811   8.917   5.520   1.999 -0.3566  0.5198 -0.9870
20512SOL     OW64812   0.054   6.229   4.707 -0.1081 -0.2426 -0.3133
20512SOL    HW164813   0.073   6.276   4.788  3.2198 -1.2634 -0.3426
20512SOL    HW264814   0.090   6.285   4.638  0.2071 -0.9487 -0.7307
20513SOL     OW64815   0.503   7.540   2.977  0.4791  0.0011  0.2577
20513SOL    HW164816   0.417   7.539   2.935 -0.0190  1.2578  1.1839
20513SOL    HW264817   0.522   7.633   2.990  2.5364 -0.1965 -0.9901
20514SOL     OW64818   0.753   7.832   1.920 -0.2196  0.3196 -0.4040
20514SOL    HW164819   0.777   7.746   1.955 -0.5367  1.2368  2.2979
20514SOL    HW264820   0.832   7.886   1.933 -0.8171  1.0520  0.2649
20515SOL     OW64821   3.494  11.031   8.128  0.2436 -0.3098 -0.2226
20515SOL    HW164822   3.465  11.090   8.059  0.2051 -0.4110 -0.2914
20515SOL    HW264823   3.420  10.973   8.143 -0.3989  0.7961  1.0946
20516SOL     OW64824   3.025   8.097   4.344  0.3211 -0.5571 -0.4164
20516SOL    HW164825   2.973   8.044   4.285  0.8475 -0.6533 -0.8032
20516SOL    HW264826   3.029   8.183   4.302 -1.2313  0.0500  0.6151
20517SOL     OW64827   9.689   8.269   0.745  0.0685  0.4109  0.0166
20517SOL    HW164828   9.737   8.259   0.828 -1.0848  0.3077  0.6952
20517SOL    HW264829   9.677   8.179   0.714 -0.0128  0.4124  0.0446
20518SOL     OW64830   2.316  11.187   6.835  0.4789  0.0756 -1.1747
20518SOL    HW164831   2.248  11.131   6.874  2.0437 -0.2649  1.2432
20518SOL    HW264832   2.269  11.265   6.807 -0.8061  0.3945  1.5690
20519SOL     OW64833   7.854   2.557  10.027  0.1349 -0.4870  0.3823
20519SOL    HW164834   7.852   2.514   9.941 -1.0739  0.1131  0.0802
20519SOL    HW264835   7.785   2.513  10.077 -0.0482  0.0313  0.5990
20520SOL     OW64836   2.616   9.149   4.318  0.3251  0.1660 -0.1447
20520SOL    HW164837   2.593   9.236   4.350  0.9491 -0.3892  1.9671
20520SOL    HW264838   2.702   9.160   4.278 -0.3950  0.8442 -1.5618
20521SOL     OW64839   3.822   6.380   6.545  0.9530 -0.1449 -0.4646
20521SOL    HW164840   3.790   6.454   6.494  2.5093 -0.3641 -1.8607
20521SOL    HW264841   3.899   6.414   6.592  0.4668 -0.3603  0.5067
20522SOL     OW64842   8.118   9.344   9.332  0.1627 -0.3648 -0.2599
20522SOL    HW164843   8.187   9.279   9.344  0.1754 -0.6690 -1.8172
20522SOL    HW264844   8.126   9.401   9.409  2.2575 -0.2737 -0.4826
20523SOL     OW64845   1.370   2.786   4.012 -0.0997  0.1317 -0.4080
20523SOL    HW164846   1.411   2.704   4.039  0.9680  1.1214  1.0838
20523SOL    HW264847   1.356   2.835   4.093  1.3602  2.3798 -1.3990
20524SOL     OW64848   5.105   2.835   1.987  0.3338  0.4027 -0.0216
20524SOL    HW164849   5.056   2.791   1.918  1.6930  0.0298 -0.7960
20524SOL    HW264850   5.082   2.789   2.067  0.6611 -0.8402 -0.6128
20525SOL     OW64851   0.452   7.993  10.541  0.3582  0.4402 -0.9086
20525SOL    HW164852   0.476   8.056  10.608  0.6300 -1.1960  0.5918
20525SOL    HW264853   0.356   7.999  10.536  0.2522 -0.0591  0.2942
20526SOL     OW64854   3.245   7.941   5.368 -0.1393  0.0624  0.0689
20526SOL    HW164855   3.179   7.892   5.318 -1.4105  2.2462 -0.5179
20526SOL    HW264856   3.217   7.932   5.459 -0.1150 -0.6301  0.0131
20527SOL     OW64857   4.425   2.634   3.368 -0.3752 -0.0801 -0.1196
20527SOL    HW164858   4.494   2.604   3.426 -0.9080  0.4617  0.8187
20527SOL    HW264859   4.459   2.618   3.280  0.1985 -1.4566  0.3308
20528SOL     OW64860   8.902   5.628  10.425 -0.1877  0.1395  0.0396
20528SOL    HW164861   8.843   5.694  10.387  0.5390 -0.4492 -2.2304
20528SOL    HW264862   8.926   5.572  10.352  0.1742 -1.9805  1.6822
20529SOL     OW64863   5.462   4.289   3.527 -0.1355 -0.9323  0.5025
20529SOL    HW164864   5.456   4.193   3.525  1.5479 -1.0634 -1.5077
20529SOL    HW264865   5.530   4.307   3.592 -0.1377 -1.1226  0.5592
20530SOL     OW64866   5.286   3.961   1.011 -0.3773 -0.1384  0.0474
20530SOL    HW164867   5.329   3.984   0.929  1.4653 -1.2887  0.6374
20530SOL    HW264868   5.346   3.991   1.079 -1.6364  0.3403  0.9827
20531SOL     OW64869   8.075  11.373   9.132 -0.5898  0.3078  0.3421
20531SOL    HW164870   8.000  11.382   9.191 -0.6398 -1.1263  0.5437
20531SOL    HW264871   8.150  11.362   9.190 -0.7109 -1.6778  0.2133
20532SOL     OW64872   7.762   5.525   7.825  0.3811  0.2596  0.0369
20532SOL    HW164873   7.738   5.604   7.777 -3.0149 -0.6252  0.0182
20532SOL    HW264874   7.744   5.454   7.764 -1.1702 -0.7077  1.5133
20533SOL     OW64875   8.509   7.256   6.874  0.1331 -0.3292  0.0671
20533SOL    HW164876   8.547   7.326   6.822  1.3222 -0.9604  0.0361
20533SOL    HW264877   8.432   7.295   6.915  0.2277  0.7046 -0.6953
20534SOL     OW64878   5.447   0.246   9.629  0.3334  0.0077  0.2696
20534SOL    HW164879   5.402   0.169   9.662  0.9406  0.2375  1.7353
20534SOL    HW264880   5.520   0.260   9.691  1.0912  0.9073 -0.7786
20535SOL     OW64881  10.951   6.625   3.317 -0.1636 -0.4806 -0.3102
20535SOL    HW164882  10.982   6.548   3.363 -0.3967 -0.1168  0.4716
20535SOL    HW264883  10.871   6.651   3.364 -0.8968 -0.6024 -1.4471
20536SOL     OW64884   4.757   2.476  10.708  1.0239 -0.1812 -0.2259
20536SOL    HW164885   4.793   2.554  10.751 -1.4579 -0.1936  2.1750
20536SOL    HW264886   4.713   2.509  10.630 -1.4213  1.2164  1.6045
20537SOL     OW64887   1.507   3.619   2.999  0.0108 -0.5489 -0.6765
20537SOL    HW164888   1.474   3.557   2.933 -0.3130 -0.1853 -0.8601
20537SOL    HW264889   1.487   3.577   3.083  0.9359 -1.2813 -0.8025
20538SOL     OW64890   1.966  11.122   1.667  0.0498  0.1959 -0.8234
20538SOL    HW164891   2.050  11.077   1.657 -0.1029 -0.6529  1.1802
20538SOL    HW264892   1.989  11.210   1.696  0.2746  0.7349 -2.5170
20539SOL     OW64893   4.731   4.442   1.992 -0.6027  0.9266  1.1457
20539SOL    HW164894   4.656   4.399   2.033 -0.0768 -2.7030 -1.2071
20539SOL    HW264895   4.807   4.394   2.026 -0.0078 -0.5463 -1.9170
20540SOL     OW64896   6.179   8.608   1.888 -0.1633  0.3547  0.5504
20540SOL    HW164897   6.235   8.683   1.904  0.2182 -0.5607  4.7239
20540SOL    HW264898   6.104   8.643   1.839  1.2928  2.7900 -0.0560
20541SOL     OW64899   9.547   2.554   1.213 -0.3542 -0.0718  0.4684
20541SOL    HW164900   9.584   2.586   1.130 -1.9968  0.4238 -0.1252
20541SOL    HW264901   9.544   2.632   1.269 -1.4774  0.1508  0.1205
20542SOL     OW64902   2.073   7.255   9.588 -0.0256  0.0563 -0.2928
20542SOL    HW164903   2.161   7.235   9.618 -0.0453 -1.0944 -0.9723
20542SOL    HW264904   2.016   7.206   9.647 -0.2939  1.6409  0.8364
20543SOL     OW64905   7.854  10.897  10.881  0.4165  0.7206 -0.1825
20543SOL    HW164906   7.890  10.985  10.886 -0.4424  1.1539 -1.2683
20543SOL    HW264907   7.929  10.840  10.900  0.8305  1.6739  1.2346
20544SOL     OW64908  10.250   2.856   9.564 -0.2963 -0.2535  0.2669
20544SOL    HW164909  10.311   2.922   9.533 -1.4197 -0.8244 -3.6821
20544SOL    HW264910  10.175   2.905   9.597 -0.5892  0.5007 -1.4363
20545SOL     OW64911   5.613   2.195   9.975 -0.5590 -0.2674  0.4973
20545SOL    HW164912   5.531   2.156  10.006 -0.9478  0.2418  0.1281
20545SOL    HW264913   5.590   2.239   9.894  0.3892 -1.3351 -0.3831
20546SOL     OW64914   2.456   8.404  10.361 -0.4761 -0.2096  0.3033
20546SOL    HW164915   2.497   8.331  10.407 -1.5238 -1.7035 -1.0420
20546SOL    HW264916   2.487   8.395  10.270 -1.3341  0.4804 -0.0683
20547SOL     OW64917   0.265   7.984   6.634  0.3322 -0.3578 -0.3831
20547SOL    HW164918   0.352   7.945   6.621  0.1745 -0.2234 -2.0839
20547SOL    HW264919   0.247   8.029   6.552 -0.6658  1.0093  0.5409
20548SOL     OW64920   1.520   0.714   2.374  0.2090  0.0684 -0.2106
20548SOL    HW164921   1.609   0.744   2.393  0.7714 -1.8747  0.5060
20548SOL    HW264922   1.532   0.640   2.315 -0.8937 -0.4587  0.1949
20549SOL     OW64923   0.021  10.399   2.950 -0.0643  0.1890 -0.1729
20549SOL    HW164924  -0.043  10.333   2.976  0.6749 -0.1518  0.8404
20549SOL    HW264925  -0.029  10.481   2.947 -0.2338  0.2454  2.2964
20550SOL     OW64926   2.948   5.807   1.384 -0.3245  0.0313 -0.4072
20550SOL    HW164927   2.926   5.900   1.385 -0.2719  0.0578 -1.1018
20550SOL    HW264928   2.992   5.794   1.300 -0.1412 -0.5773 -0.2215
20551SOL     OW64929   1.200   7.609   5.325 -0.0484  0.1777 -0.0297
20551SOL    HW164930   1.178   7.609   5.419 -2.5508 -1.3692 -0.5232
20551SOL    HW264931   1.277   7.552   5.319  0.7816  1.0955  1.1459
20552SOL     OW64932  10.747  10.210   0.714  0.4796 -0.5620  0.1108
20552SOL    HW164933  10.722  10.258   0.793  0.9542  1.1161 -0.7094
20552SOL    HW264934  10.727  10.118   0.734 -1.8031  0.1180  1.2115
20553SOL     OW64935   7.434   5.864   8.654 -0.5767  0.6780 -0.4376
20553SOL    HW164936   7.409   5.871   8.746 -2.5727 -1.2159 -0.7667
20553SOL    HW264937   7.507   5.802   8.653  0.3251  1.7064 -0.0387
20554SOL     OW64938   5.091   2.219  10.460  0.1091 -0.3011  0.0452
20554SOL    HW164939   5.060   2.198  10.372  1.8234 -0.6452 -0.4970
20554SOL    HW264940   5.172   2.268  10.447 -0.5277  1.2491  1.4170
20555SOL     OW64941   6.857   8.684   4.324 -0.3471  0.4918  0.4861
20555SOL    HW164942   6.797   8.705   4.253  1.6487  2.1857 -0.8109
20555SOL    HW264943   6.830   8.740   4.396 -1.8216 -0.5862  0.8335
20556SOL     OW64944   6.535   1.283   0.394 -0.4262 -0.0179 -0.7607
20556SOL    HW164945   6.582   1.325   0.321  1.8047 -1.3681 -0.2071
20556SOL    HW264946   6.564   1.332   0.472  0.5195 -1.1717 -0.3553
20557SOL     OW64947   5.234   9.389   1.088  0.4822  0.0707 -0.2292
20557SOL    HW164948   5.156   9.444   1.089  0.6835  0.4209 -1.6502
20557SOL    HW264949   5.208   9.309   1.042  0.4511 -0.6346  0.9868
20558SOL     OW64950   1.898   7.347   9.079  0.2769 -0.0811  0.1709
20558SOL    HW164951   1.844   7.273   9.053 -1.1978  0.3076  1.9191
20558SOL    HW264952   1.890   7.350   9.175  0.7446  2.0042  0.1863
20559SOL     OW64953   9.040   2.746   9.018  0.2305 -0.3421 -0.1358
20559SOL    HW164954   8.978   2.683   9.056  1.3290 -1.9821 -0.9089
20559SOL    HW264955   8.992   2.788   8.947 -0.2375 -1.0461 -0.2451
20560SOL     OW64956   5.271   8.750   6.645  0.3388  0.0521  0.5036
20560SOL    HW164957   5.306   8.782   6.562  1.1286 -1.9047  0.0351
20560SOL    HW264958   5.253   8.830   6.696 -0.4331  1.3185 -1.6154
20561SOL     OW64959  11.009   1.768   5.635  0.4471  0.8192 -0.5278
20561SOL    HW164960  11.066   1.778   5.711  1.3575  0.4040 -1.1363
20561SOL    HW264961  11.038   1.687   5.594  0.5302  1.4582 -1.7830
20562SOL     OW64962   9.559   1.254   9.083  0.0143  0.0200 -0.5827
20562SOL    HW164963   9.583   1.322   9.020 -3.5098 -0.8002 -3.1234
20562SOL    HW264964   9.583   1.172   9.041 -1.4749 -0.5051 -0.4777
20563SOL     OW64965   3.339   3.501   5.612  0.1022  0.7375 -0.2210
20563SOL    HW164966   3.411   3.561   5.632  0.6371 -0.3585  1.3055
20563SOL    HW264967   3.367   3.416   5.646 -2.2241  0.4278  1.1963
20564SOL     OW64968   0.132   9.441   1.672 -0.2985  0.7996 -0.0079
20564SOL    HW164969   0.126   9.528   1.632 -1.2518  0.6262 -0.2554
20564SOL    HW264970   0.163   9.385   1.601 -2.2216  0.4438 -0.6276
20565SOL     OW64971  10.138   3.350   9.067 -0.2776  0.1750 -0.2162
20565SOL    HW164972  10.180   3.270   9.099  0.3626 -0.0437 -1.5365
20565SOL    HW264973  10.174   3.420   9.122 -0.9098 -0.4428  1.0024
20566SOL     OW64974  10.324   9.777   8.673 -0.3883 -0.1872 -0.6564
20566SOL    HW164975  10.368   9.855   8.640  0.3873 -0.2258  0.2429
20566SOL    HW264976  10.283   9.804   8.755 -1.7388 -0.2552 -1.2939
20567SOL     OW64977   0.642   1.130   9.583  0.3994 -0.0895  0.2164
20567SOL    HW164978   0.667   1.218   9.555  1.2451 -0.6019 -0.6997
20567SOL    HW264979   0.587   1.097   9.513  0.3147 -0.3996  0.4276
20568SOL     OW64980   1.979   4.042   1.409 -0.1679  0.1775 -0.9082
20568SOL    HW164981   1.914   4.105   1.376  0.1135  1.3757  0.6577
20568SOL    HW264982   1.937   4.004   1.487  1.0144  1.0805  0.2175
20569SOL     OW64983   4.798   0.462   2.248  0.5977  0.3115  0.0520
20569SOL    HW164984   4.875   0.445   2.301  1.1719 -0.3247 -0.9366
20569SOL    HW264985   4.799   0.556   2.231  0.9987  0.3469  0.2847
20570SOL     OW64986   3.974   1.632   9.761  0.1940 -0.1648 -0.4417
20570SOL    HW164987   4.005   1.691   9.691 -0.9743  1.2417  0.1626
20570SOL    HW264988   3.891   1.598   9.728  0.6031 -1.0622 -0.5554
20571SOL     OW64989   6.634   5.541   9.702  0.0396  0.1032  0.3167
20571SOL    HW164990   6.553   5.564   9.747 -0.0920 -0.2508  0.2626
20571SOL    HW264991   6.638   5.602   9.629 -1.3834 -1.3325 -1.0652
20572SOL     OW64992   0.517   7.333   6.611 -0.2449 -0.4646 -0.1636
20572SOL    HW164993   0.590   7.279   6.582  1.0141  0.9379  0.3160
20572SOL    HW264994   0.491   7.383   6.533  0.6339  0.4925  0.1381
20573SOL     OW64995   8.152  10.676   5.688 -0.0993  0.2080 -0.6996
20573SOL    HW164996   8.152  10.768   5.665  0.2372  0.7125  1.1066
20573SOL    HW264997   8.231  10.640   5.648  1.8966  1.6282  1.6398
20574SOL     OW64998   8.119   5.081   6.125 -0.2358  0.9130  0.7438
20574SOL    HW164999   8.102   5.121   6.211 -0.8341  0.6074  0.7721
20574SOL    HW265000   8.046   5.021   6.112  1.6147 -1.7314  1.6167
20575SOL     OW65001   1.856  11.244   7.280 -0.3318  0.2673 -0.0355
20575SOL    HW165002   1.864  11.203   7.366  1.1876  1.2428  0.3123
20575SOL    HW265003   1.821  11.174   7.224  1.5522 -1.3289  0.6703
20576SOL     OW65004  10.128   3.474   8.476 -0.2243 -0.4459 -0.5119
20576SOL    HW165005  10.179   3.488   8.556  0.0222  1.4019 -0.9336
20576SOL    HW265006  10.191   3.484   8.405 -0.8272  0.0912 -0.9819
20577SOL     OW65007   7.705   8.422  10.180  0.0261  0.8538  0.3178
20577SOL    HW165008   7.651   8.500  10.194 -0.1827  1.2517 -2.2762
20577SOL    HW265009   7.646   8.359  10.139  0.6110 -0.1160  0.9280
20578SOL     OW65010   5.913   9.647   6.923 -0.1895 -0.7053 -0.3903
20578SOL    HW165011   5.864   9.652   6.842 -0.3854  0.1828 -0.2287
20578SOL    HW265012   5.877   9.717   6.978  2.2343  1.0343 -0.8242
20579SOL     OW65013   4.152   7.554  10.524  0.3795 -0.4444  0.5452
20579SOL    HW165014   4.092   7.627  10.540 -0.0498 -0.9402  1.2905
20579SOL    HW265015   4.233   7.580  10.569  0.1933 -0.4641  0.9007
20580SOL     OW65016   5.851   4.023   4.688  0.0755  0.1035  0.4900
20580SOL    HW165017   5.944   4.040   4.682  0.1547 -0.6931 -1.4360
20580SOL    HW265018   5.844   3.937   4.731  0.2270  0.1910  0.6865
20581SOL     OW65019   9.694   9.219   3.177 -0.1145 -0.0245  0.8890
20581SOL    HW165020   9.769   9.216   3.118  0.4245 -1.8637  1.5688
20581SOL    HW265021   9.726   9.266   3.254 -0.1611  0.5476  0.5624
20582SOL     OW65022   2.588  10.940   1.379  0.3303 -0.2879 -0.2740
20582SOL    HW165023   2.598  11.033   1.358 -0.6942 -0.3298 -1.0162
20582SOL    HW265024   2.641  10.928   1.457  1.2943  0.7021 -0.7345
20583SOL     OW65025   1.843   6.246  10.810  0.0144  0.1745  0.2605
20583SOL    HW165026   1.763   6.205  10.843  0.7685 -0.5112  1.2732
20583SOL    HW265027   1.893   6.267  10.889 -0.0791  2.5342 -0.2436
20584SOL     OW65028   5.747   9.202   6.460  0.2165 -0.7304 -0.3088
20584SOL    HW165029   5.820   9.189   6.399  0.5549  0.5780 -0.2206
20584SOL    HW265030   5.779   9.268   6.521 -0.3944 -1.4789  0.8518
20585SOL     OW65031   6.968   3.498   5.566  0.3371 -0.2964 -0.2287
20585SOL    HW165032   7.023   3.504   5.488 -0.1900 -1.5876 -0.7380
20585SOL    HW265033   6.945   3.589   5.588  3.1031  0.3308  0.3616
20586SOL     OW65034   1.002   0.932  10.574  0.0685 -0.3772 -0.5732
20586SOL    HW165035   0.951   0.973  10.504  1.7860  2.1822 -0.4606
20586SOL    HW265036   0.935   0.897  10.634 -1.5146  0.9067 -1.4893
20587SOL     OW65037   3.805  10.696   0.564  0.3082  0.3559  0.2558
20587SOL    HW165038   3.762  10.766   0.515  0.7651  0.4968  0.0451
20587SOL    HW265039   3.843  10.740   0.640  0.0334  0.2236  0.4702
20588SOL     OW65040   7.843   3.008   5.433 -0.5293 -0.5270 -0.1966
20588SOL    HW165041   7.880   2.920   5.429  0.9176  0.0609 -0.5157
20588SOL    HW265042   7.919   3.066   5.439 -1.2958  0.8429 -2.2051
20589SOL     OW65043   1.517   4.000   5.752  0.3385  0.0422 -0.8217
20589SOL    HW165044   1.458   4.016   5.679 -1.3797 -3.8877 -0.5127
20589SOL    HW265045   1.583   3.941   5.717 -0.0122 -1.2066  0.5196
20590SOL     OW65046   8.628  11.162   1.687  0.2259  0.1982 -0.0296
20590SOL    HW165047   8.549  11.168   1.634  0.8364 -0.4835 -1.0357
20590SOL    HW265048   8.630  11.072   1.717  0.7897  0.1271 -0.2757
20591SOL     OW65049   3.677   9.982   0.964 -0.7569 -0.4451  0.3579
20591SOL    HW165050   3.656   9.893   0.994 -0.0164 -0.5920  0.4374
20591SOL    HW265051   3.613   9.999   0.895 -1.6295 -0.6054  1.0996
20592SOL     OW65052   1.744   3.217   4.003  0.0595 -0.1045 -0.1286
20592SOL    HW165053   1.816   3.235   4.064  0.5306 -0.5716 -0.5356
20592SOL    HW265054   1.684   3.290   4.014  0.0118 -0.2930  1.0807
20593SOL     OW65055   0.369  10.161  10.229 -0.6043 -0.0877  0.7136
20593SOL    HW165056   0.363  10.192  10.139  2.7726  0.1041  0.4399
20593SOL    HW265057   0.405  10.235  10.278 -1.0238 -0.6729  1.9513
20594SOL     OW65058   2.618   9.998   0.780  0.0229  0.3479 -0.1547
20594SOL    HW165059   2.576   9.932   0.835  0.7569  0.3615  0.4302
20594SOL    HW265060   2.545  10.047   0.741 -0.5148 -0.3809 -0.0817
20595SOL     OW65061   8.065   0.756   7.510 -0.4763 -0.3279  0.1814
20595SOL    HW165062   7.999   0.825   7.503 -1.5170 -1.3370 -0.2318
20595SOL    HW265063   8.017   0.675   7.496  1.0052 -1.0480 -0.9961
20596SOL     OW65064   2.709   9.115   4.939 -0.1640  0.8607 -0.3681
20596SOL    HW165065   2.629   9.157   4.972  1.4919  1.8332  2.8472
20596SOL    HW265066   2.686   9.023   4.929 -1.1447  0.6448  2.8936
20597SOL     OW65067   9.118   2.067   5.722 -0.2251 -0.0656  0.4031
20597SOL    HW165068   9.117   1.972   5.712  1.0441 -0.1361  0.7538
20597SOL    HW265069   9.116   2.081   5.816 -1.5022  0.2935  0.3275
20598SOL     OW65070   4.253   9.856   7.636 -0.4844  0.3672 -0.1532
20598SOL    HW165071   4.335   9.890   7.671 -0.6119 -0.7258  1.3520
20598SOL    HW265072   4.227   9.919   7.569  0.8058  1.5399  0.3923
20599SOL     OW65073   6.846  10.612   1.476 -0.0884 -0.4307  0.0794
20599SOL    HW165074   6.834  10.632   1.384  2.5933  1.6504  0.0409
20599SOL    HW265075   6.889  10.526   1.477 -0.1450 -0.4673 -0.6223
20600SOL     OW65076   8.748   9.897   7.895 -0.0260  0.2693  1.2079
20600SOL    HW165077   8.658   9.865   7.896 -1.0434  2.8592  0.2863
20600SOL    HW265078   8.775   9.897   7.987 -1.3512  0.4324  1.6138
20601SOL     OW65079  10.695   1.883   4.838 -0.5586 -0.6314 -0.4712
20601SOL    HW165080  10.759   1.952   4.822 -0.9947  0.7572  2.9359
20601SOL    HW265081  10.620   1.907   4.783  0.3084  0.0581 -1.3816
20602SOL     OW65082   0.386   1.674  10.164  0.1680  0.3235 -0.3242
20602SOL    HW165083   0.328   1.598  10.156  0.2067  0.2245  0.2833
20602SOL    HW265084   0.331   1.741  10.206  0.9311 -0.3009  1.8178
20603SOL     OW65085   0.176  11.369  10.073  0.1386  0.2154  0.3962
20603SOL    HW165086   0.091  11.404  10.100  0.0080  0.1224  0.1028
20603SOL    HW265087   0.199  11.419   9.995  1.3902  1.8056  1.7062
20604SOL     OW65088  10.037   2.168   2.238  0.1277  0.7473 -0.4219
20604SOL    HW165089   9.965   2.142   2.179  0.1580 -1.7265  0.5034
20604SOL    HW265090   9.994   2.215   2.309 -0.9372 -2.1320  0.9842
20605SOL     OW65091   8.196   6.257   5.973 -0.2198 -0.5658  0.2946
20605SOL    HW165092   8.141   6.210   5.911  1.2367 -0.2557 -1.3117
20605SOL    HW265093   8.145   6.259   6.054 -2.6941  0.0068 -1.1782
20606SOL     OW65094   0.999   3.823   5.956  0.5593  0.2362 -0.1502
20606SOL    HW165095   0.970   3.733   5.973 -0.2026  0.3315 -0.9264
20606SOL    HW265096   0.927   3.878   5.985  0.8705  0.5835 -0.0261
20607SOL     OW65097   4.238   0.923   1.974 -0.2318  0.7112 -0.4798
20607SOL    HW165098   4.276   0.839   1.999 -2.7500 -0.7501 -1.1958
20607SOL    HW265099   4.186   0.949   2.050 -2.2622 -0.2265 -1.4560
20608SOL     OW65100   1.352   7.827   5.488 -0.1760 -0.2476 -0.2406
20608SOL    HW165101   1.264   7.849   5.459  0.0165  1.8417  0.5986
20608SOL    HW265102   1.395   7.790   5.411 -2.1203 -2.5468 -0.3266
20609SOL     OW65103   5.760   7.935   0.509 -0.0317  0.2853 -0.3114
20609SOL    HW165104   5.838   7.982   0.538  0.4448 -0.9023  0.3573
20609SOL    HW265105   5.736   7.978   0.426  1.7534  0.1821 -0.9148
20610SOL     OW65106   3.108   5.541   1.230 -0.3397 -0.3781  0.4571
20610SOL    HW165107   3.041   5.480   1.262 -0.9782 -0.0575 -0.2562
20610SOL    HW265108   3.143   5.581   1.309  0.7320 -2.3002  1.0386
20611SOL     OW65109   8.217   3.701   1.953  0.0653 -0.1333  0.5022
20611SOL    HW165110   8.123   3.700   1.933  0.5286  0.9121 -2.2060
20611SOL    HW265111   8.249   3.783   1.914  2.3266 -1.1483  0.0456
20612SOL     OW65112   0.397  10.045  10.506  0.8630  0.6210 -0.4337
20612SOL    HW165113   0.354   9.960  10.513  1.8925  0.1259  0.2247
20612SOL    HW265114   0.388  10.070  10.414  1.5628 -0.7594 -0.9067
20613SOL     OW65115   0.154   8.112   4.685  0.5307  0.0802 -0.4265
20613SOL    HW165116   0.170   8.022   4.660  0.5757  0.2887 -1.1693
20613SOL    HW265117   0.061   8.126   4.669 -0.0317 -0.5085  1.9091
20614SOL     OW65118   9.561   4.505   0.970 -0.5527  0.1366  0.4127
20614SOL    HW165119   9.652   4.529   0.992  0.0153 -0.3868 -1.2041
20614SOL    HW265120   9.508   4.547   1.038  0.8172  1.4240  0.7473
20615SOL     OW65121   1.156   0.987   6.993  0.4691  0.2539  0.0007
20615SOL    HW165122   1.092   0.999   6.922 -0.6568 -0.3763  0.8873
20615SOL    HW265123   1.141   1.061   7.051  0.2328 -0.1465  0.4503
20616SOL     OW65124   4.258   5.494  10.727  0.0408 -0.4268 -1.0111
20616SOL    HW165125   4.216   5.566  10.775  1.5601  0.5212 -1.0375
20616SOL    HW265126   4.339   5.477  10.775 -1.4564 -4.0153  0.6092
20617SOL     OW65127   5.524   9.031   3.748 -0.1756  0.6651 -0.2017
20617SOL    HW165128   5.591   9.014   3.814 -0.6583 -2.5620 -0.3627
20617SOL    HW265129   5.572   9.035   3.665  0.0025 -0.0068 -0.1373
20618SOL     OW65130  10.048   0.669   7.480  0.2986 -0.4060  0.1091
20618SOL    HW165131   9.972   0.725   7.496  1.9312  1.9316  0.1983
20618SOL    HW265132  10.030   0.627   7.395 -0.8568  0.4677 -0.0979
20619SOL     OW65133   3.864   8.877   7.745 -0.0992 -0.3912  0.0048
20619SOL    HW165134   3.782   8.842   7.710  0.2216 -0.3024 -0.8580
20619SOL    HW265135   3.837   8.952   7.799 -0.6344 -0.7752  0.2790
20620SOL     OW65136   6.985   3.133   3.597 -0.2795  0.1286  0.0662
20620SOL    HW165137   6.935   3.119   3.677 -0.8379  0.8137 -0.1498
20620SOL    HW265138   6.925   3.108   3.527  0.9013 -2.5509 -0.1269
20621SOL     OW65139   0.892   1.489   8.185 -0.3084  0.2529  0.5419
20621SOL    HW165140   0.806   1.447   8.184  0.8153 -2.2588  1.6854
20621SOL    HW265141   0.926   1.470   8.272  2.3510 -0.8698 -0.6558
20622SOL     OW65142   8.217   2.039   9.864  0.0783 -0.5298  0.7954
20622SOL    HW165143   8.205   2.085   9.780  2.4997  2.4032  1.8923
20622SOL    HW265144   8.266   1.960   9.841  1.0700  0.4226 -0.5266
20623SOL     OW65145   1.996   3.231  11.365  0.2715 -0.7886  0.4913
20623SOL    HW165146   2.045   3.151  11.345  1.3200  0.2953 -1.5776
20623SOL    HW265147   2.062   3.289  11.404 -0.0388 -0.2765  0.2555
20624SOL     OW65148   3.774   0.931   0.760  0.0961 -0.4782  0.2713
20624SOL    HW165149   3.684   0.948   0.789 -0.0821 -0.3779 -0.3178
20624SOL    HW265150   3.829   0.960   0.832 -0.2509  1.5037 -0.2154
20625SOL     OW65151   4.150   0.709  10.198  0.0932 -0.0645  0.6311
20625SOL    HW165152   4.124   0.731  10.109  0.2531  0.2427  0.6564
20625SOL    HW265153   4.208   0.634  10.190 -0.5180 -0.5364  0.5433
20626SOL     OW65154   1.427  10.987  10.483 -0.1235  0.2379 -0.8101
20626SOL    HW165155   1.421  10.892  10.471 -2.7468  0.0211  1.3056
20626SOL    HW265156   1.476  10.998  10.564 -1.0836  0.5945 -0.2665
20627SOL     OW65157   1.683  10.396  10.972  0.0422 -0.3633  0.3574
20627SOL    HW165158   1.701  10.410  11.065 -1.1662  0.4544  0.4867
20627SOL    HW265159   1.597  10.434  10.958  0.7778  0.7923 -1.3923
20628SOL     OW65160  11.075   3.809   1.132 -0.2297  0.2768 -0.4921
20628SOL    HW165161  10.982   3.827   1.145 -0.3250  0.8542 -1.8350
20628SOL    HW265162  11.078   3.749   1.057  0.3521 -2.0245  1.2435
20629SOL     OW65163   7.730   1.338  10.712 -0.2227  0.0765  0.1835
20629SOL    HW165164   7.750   1.410  10.771  1.8893 -0.7020  0.5279
20629SOL    HW265165   7.683   1.275  10.765 -2.1631  1.1702 -0.1412
20630SOL     OW65166   9.982   5.955   3.640 -0.2890  0.2105  0.6669
20630SOL    HW165167   9.928   5.980   3.715  2.6322  2.7618  2.1655
20630SOL    HW265168   9.974   6.030   3.580 -1.8074 -1.3706 -1.2361
20631SOL     OW65169   2.858   9.171   4.210  0.0773  0.3053  0.3345
20631SOL    HW165170   2.903   9.235   4.155  0.5360 -1.4311 -1.4154
20631SOL    HW265171   2.867   9.088   4.163 -0.8141 -1.0014  2.3267
20632SOL     OW65172   9.876   8.866   1.023  0.2285  0.0275  0.2441
20632SOL    HW165173   9.806   8.888   0.961 -0.0759 -0.1163  0.5355
20632SOL    HW265174   9.925   8.797   0.979  0.5494  0.5389 -0.2176
20633SOL     OW65175  11.253   5.313   0.295 -0.6493 -0.2721 -0.2008
20633SOL    HW165176  11.281   5.348   0.379 -1.2838 -2.1445  0.8605
20633SOL    HW265177  11.241   5.389   0.239 -1.0984  1.0965  1.6797
20634SOL     OW65178   6.396   6.521  10.616 -0.2682  1.0404 -0.1825
20634SOL    HW165179   6.414   6.436  10.576 -2.4549  0.1124  0.6492
20634SOL    HW265180   6.430   6.514  10.705 -0.2009  1.1293 -0.2014
20635SOL     OW65181   9.818   6.492   3.563  0.0041 -0.1914 -0.0720
20635SOL    HW165182   9.843   6.464   3.651 -0.8745 -1.2733 -0.1425
20635SOL    HW265183   9.901   6.501   3.515  0.4477 -0.1248  0.7016
20636SOL     OW65184   6.461   5.026   4.945 -0.0537 -0.4717 -0.7459
20636SOL    HW165185   6.389   5.005   4.886 -0.5214 -3.9304  0.8338
20636SOL    HW265186   6.418   5.056   5.026  0.3266 -1.0957 -0.3063
20637SOL     OW65187  10.511   5.068   7.104  0.0254 -0.1314  0.1732
20637SOL    HW165188  10.577   5.062   7.035  0.8753  0.5005  0.9095
20637SOL    HW265189  10.441   5.009   7.075  0.2072  0.3729 -1.3861
20638SOL     OW65190   1.643   4.831   4.053  0.5746 -0.3889  0.5544
20638SOL    HW165191   1.556   4.860   4.080 -0.6382  1.7408 -4.3519
20638SOL    HW265192   1.703   4.887   4.102 -1.0801  0.8433  1.2705
20639SOL     OW65193   9.027   3.827   2.125  0.0186 -0.2153  0.1178
20639SOL    HW165194   8.937   3.805   2.099  0.5715 -2.1572 -0.3396
20639SOL    HW265195   9.018   3.872   2.209 -1.3795 -0.2815  0.0238
20640SOL     OW65196  10.846   4.455   1.533  0.0069  0.9112 -0.3072
20640SOL    HW165197  10.801   4.504   1.601  0.5167  1.8527 -0.6288
20640SOL    HW265198  10.809   4.487   1.451  0.5764  1.0000 -0.5328
20641SOL     OW65199   8.030   8.523  11.028  0.2495 -0.3523  0.2250
20641SOL    HW165200   7.991   8.538  11.114 -0.5854 -1.2322  0.0196
20641SOL    HW265201   8.084   8.445  11.039  1.2035  0.2951  0.2637
20642SOL     OW65202  10.280   0.031   4.646  0.0873  0.2713 -0.2002
20642SOL    HW165203  10.230   0.105   4.681 -2.0926 -0.8398 -0.7456
20642SOL    HW265204  10.347   0.014   4.712 -0.3825  1.7306  0.6904
20643SOL     OW65205   5.133   9.922   4.966 -1.0500  0.1587 -0.2700
20643SOL    HW165206   5.176   9.903   4.882 -1.2698 -1.0315 -0.1393
20643SOL    HW265207   5.133   9.837   5.012 -2.6930  0.3427  0.1187
20644SOL     OW65208  10.381   7.369  10.712  0.1140  0.3701  0.2819
20644SOL    HW165209  10.445   7.437  10.733 -0.1743  0.4783  0.8353
20644SOL    HW265210  10.416   7.325  10.635  1.0629  0.1433  0.8357
20645SOL     OW65211   6.446   6.266   9.847  0.3889 -0.0292  0.3363
20645SOL    HW165212   6.535   6.230   9.838  0.4180 -0.0538  0.6967
20645SOL    HW265213   6.454   6.329   9.919 -0.4788 -2.0012  2.2492
20646SOL     OW65214   4.053   8.054  10.129  0.5025  0.7811 -0.3096
20646SOL    HW165215   4.091   8.131  10.085 -0.3533  0.5641 -1.4607
20646SOL    HW265216   3.987   8.022  10.069  0.3100 -0.4192  0.5071
20647SOL     OW65217  10.107   3.049   6.556  0.1921  0.4325  0.1518
20647SOL    HW165218  10.102   3.030   6.649 -0.5302 -0.9925 -0.1522
20647SOL    HW265219  10.089   2.966   6.513  3.1151  0.4218 -1.2875
20648SOL     OW65220   4.048   7.335   2.932 -0.0295  0.2961 -0.2400
20648SOL    HW165221   4.043   7.410   2.992  0.6574  0.8831 -0.8894
20648SOL    HW265222   4.124   7.286   2.961 -0.3038  0.0153  0.0019
20649SOL     OW65223   2.044   5.323   3.965  0.1582  0.2494  0.1150
20649SOL    HW165224   2.040   5.343   4.059 -0.4406 -0.3257  0.2171
20649SOL    HW265225   1.962   5.277   3.947  1.0862 -1.2727 -0.3093
20650SOL     OW65226   0.533   8.426   2.610 -0.3555  0.2163  0.4812
20650SOL    HW165227   0.461   8.371   2.581 -0.1054  0.3189 -0.3922
20650SOL    HW265228   0.519   8.509   2.565 -0.2350  0.5690  1.0828
20651SOL     OW65229   2.214   2.572   6.391 -0.1717 -0.2959  0.1272
20651SOL    HW165230   2.144   2.625   6.428  0.1032  0.6399 -0.6429
20651SOL    HW265231   2.203   2.485   6.430 -0.9290  0.2004  1.0331
20652SOL     OW65232   5.256   7.519   0.629  0.7393 -0.0718 -0.0554
20652SOL    HW165233   5.302   7.435   0.632  3.3529  1.2170 -1.1695
20652SOL    HW265234   5.255   7.549   0.720  0.5959 -0.8645  0.2171
20653SOL     OW65235   1.141   7.136   8.925 -0.5099 -0.1653 -0.2438
20653SOL    HW165236   1.123   7.065   8.864  1.2265 -2.0885  1.3215
20653SOL    HW265237   1.218   7.180   8.889 -0.4173 -0.3170 -0.2321
20654SOL     OW65238  10.590   3.732   5.422  0.4608  1.0369 -0.4529
20654SOL    HW165239  10.496   3.737   5.406  0.2381  2.3674  1.0376
20654SOL    HW265240  10.602   3.655   5.478  0.5054 -0.0888 -1.9432
20655SOL     OW65241   5.019   4.334   4.639  0.0090 -0.5629  0.4153
20655SOL    HW165242   5.003   4.417   4.684  0.7236  0.3644 -0.9626
20655SOL    HW265243   5.099   4.300   4.680  1.5966  1.0775 -1.1498
20656SOL     OW65244   2.907  11.301   2.013  0.7772  0.2675 -0.4762
20656SOL    HW165245   2.935  11.279   2.101  1.5332  1.6137 -0.3566
20656SOL    HW265246   2.971  11.365   1.982 -1.1650  2.1250 -0.8651
20657SOL     OW65247   4.312   3.547   7.119 -0.5031 -0.0530 -0.4515
20657SOL    HW165248   4.217   3.546   7.109 -0.7618 -2.8920  1.3641
20657SOL    HW265249   4.343   3.479   7.060  0.4472  0.7614 -0.9302
20658SOL     OW65250   7.203   0.619   7.419  0.3491 -0.2249 -0.0394
20658SOL    HW165251   7.174   0.596   7.507 -0.4335  1.0078  0.0541
20658SOL    HW265252   7.288   0.661   7.431  0.3218 -0.2133  0.1109
20659SOL     OW65253   3.635   5.642   5.913 -0.1237  0.7743  0.0957
20659SOL    HW165254   3.720   5.601   5.893 -0.8429  0.1695 -2.0028
20659SOL    HW265255   3.616   5.615   6.003  1.2601 -0.2644  0.1122
20660SOL     OW65256   0.259   0.668   2.119 -0.4162 -0.4267  0.0484
20660SOL    HW165257   0.180   0.617   2.102 -0.3596 -1.0455  1.5437
20660SOL    HW265258   0.326   0.603   2.141 -0.2574  0.2436  1.6573
20661SOL     OW65259   0.036  10.848   3.386  0.1458  0.2198 -0.2809
20661SOL    HW165260   0.108  10.786   3.370  0.3011  0.7226 -1.7522
20661SOL    HW265261   0.015  10.838   3.479  2.4875  0.4289  0.3348
20662SOL     OW65262   7.261   1.647   3.360  0.6729  0.4487 -0.2572
20662SOL    HW165263   7.349   1.628   3.393  0.5146 -1.4318 -0.8405
20662SOL    HW265264   7.205   1.648   3.438  1.1676  1.6166  0.1116
20663SOL     OW65265   2.123   2.680  10.035 -0.1131 -0.3022 -0.2246
20663SOL    HW165266   2.118   2.587  10.017  2.8393 -0.8172  1.0735
20663SOL    HW265267   2.033   2.705  10.056 -0.8588 -3.0291  0.2154
20664SOL     OW65268   5.769  10.736   3.353  0.2976  0.3172  0.2768
20664SOL    HW165269   5.781  10.827   3.378  3.6155  0.4025 -1.0300
20664SOL    HW265270   5.790  10.686   3.432  0.7489  0.6853  0.3918
20665SOL     OW65271   7.001   5.196   3.954 -0.4092 -0.1345 -0.0997
20665SOL    HW165272   6.967   5.259   4.018  0.2437  0.4320 -0.2993
20665SOL    HW265273   6.996   5.242   3.870 -0.4940 -0.5751 -0.3394
20666SOL     OW65274   9.154  11.346   0.895 -0.1618  0.9204  0.0043
20666SOL    HW165275   9.120  11.275   0.840 -1.4698 -0.1507  2.0457
20666SOL    HW265276   9.244  11.357   0.867 -0.8988  0.8371 -2.6941
20667SOL     OW65277   3.861   9.749   7.017 -0.1974 -0.1502 -0.1540
20667SOL    HW165278   3.879   9.843   7.012 -0.3243  0.0197  1.7907
20667SOL    HW265279   3.819   9.737   7.102  1.3535 -2.2099  0.4061
20668SOL     OW65280   5.042  10.113   3.996  0.0444 -0.0038 -0.5176
20668SOL    HW165281   5.047  10.068   3.912 -0.1884  0.3222 -0.7087
20668SOL    HW265282   4.948  10.119   4.014  0.0967 -1.7003  0.6532
20669SOL     OW65283   5.965   0.797  10.199 -0.3206 -0.4875  0.6012
20669SOL    HW165284   5.961   0.843  10.116  0.3939  1.4156  1.5626
20669SOL    HW265285   5.877   0.760  10.212 -1.6752  2.5527  0.8125
20670SOL     OW65286   8.728   4.825   0.214  0.3725 -0.5981 -0.2032
20670SOL    HW165287   8.637   4.810   0.240  0.6339 -0.7711  0.6808
20670SOL    HW265288   8.748   4.753   0.155  0.0727 -0.8388 -0.0168
20671SOL     OW65289  11.322   9.413   7.001 -0.3184  0.6598 -0.0073
20671SOL    HW165290  11.313   9.457   7.085 -0.4997 -0.4193  0.5463
20671SOL    HW265291  11.258   9.342   7.003  0.0538  0.2835 -0.8364
20672SOL     OW65292   2.807   7.476   0.148  0.6066  0.1829  0.0389
20672SOL    HW165293   2.898   7.449   0.134  0.7019  0.5498 -0.0661
20672SOL    HW265294   2.802   7.563   0.109 -0.3653 -0.7147 -2.0146
20673SOL     OW65295   1.232   0.267   9.390  0.0646 -0.1290 -0.4163
20673SOL    HW165296   1.243   0.353   9.431 -0.3470  0.3015 -1.1894
20673SOL    HW265297   1.307   0.258   9.331 -1.3522  0.9622 -2.4835
20674SOL     OW65298   1.410   5.087   7.262 -0.1621  0.8336  0.1016
20674SOL    HW165299   1.433   5.173   7.297 -1.0307  0.0778  2.7196
20674SOL    HW265300   1.479   5.029   7.294 -0.4034  0.2771 -0.3678
20675SOL     OW65301   8.850   5.708   9.416 -0.6086 -0.1342  0.1529
20675SOL    HW165302   8.828   5.793   9.378 -0.1087  0.2294  0.6457
20675SOL    HW265303   8.766   5.668   9.437 -0.8452  1.0556  1.6594
20676SOL     OW65304   1.510   1.167   9.089  0.2284 -0.0904 -0.0685
20676SOL    HW165305   1.458   1.105   9.141  0.3691  0.1862  0.4082
20676SOL    HW265306   1.599   1.156   9.122  0.0951  1.0781  0.7228
20677SOL     OW65307   4.379   3.872   4.714 -0.2334 -0.5156  0.0484
20677SOL    HW165308   4.399   3.825   4.795  0.3948  1.1763  0.9244
20677SOL    HW265309   4.396   3.964   4.735 -1.0899  0.0798 -1.6975
20678SOL     OW65310   2.552   0.258  10.945 -0.2699 -0.2758  0.2331
20678SOL    HW165311   2.579   0.189  10.885 -0.8602 -0.5253  0.2534
20678SOL    HW265312   2.603   0.334  10.917  0.4949 -0.7471  0.3015
20679SOL     OW65313   5.815   5.329   5.849 -0.2027  0.0387 -0.0316
20679SOL    HW165314   5.848   5.378   5.924  1.3993  0.8170 -1.2095
20679SOL    HW265315   5.890   5.318   5.792 -1.2518 -1.0741 -1.2670
20680SOL     OW65316   7.717   2.538   3.978  0.2282  0.3657 -0.1567
20680SOL    HW165317   7.792   2.490   3.944  0.4428  1.6753 -1.6433
20680SOL    HW265318   7.731   2.629   3.951 -0.8564  1.0362  1.3480
20681SOL     OW65319   1.129   1.282  11.057  0.3852 -0.2526 -0.1690
20681SOL    HW165320   1.088   1.201  11.086 -0.1557  0.3554  0.8364
20681SOL    HW265321   1.220   1.258  11.040  0.9054 -0.6174  2.5420
20682SOL     OW65322   7.574   1.476   8.861 -0.1972 -0.1767  0.1146
20682SOL    HW165323   7.570   1.381   8.854 -0.5982 -0.1086 -0.8473
20682SOL    HW265324   7.496   1.500   8.911  0.0098 -0.3617  0.5307
20683SOL     OW65325   0.803   3.216   2.751  0.3596  0.1604 -0.1328
20683SOL    HW165326   0.857   3.279   2.798 -0.2531  0.4979  0.1309
20683SOL    HW265327   0.749   3.270   2.692 -0.7326 -0.0406  0.6597
20684SOL     OW65328   6.528   1.512  10.475  0.2026 -0.1731  0.0059
20684SOL    HW165329   6.507   1.520  10.382 -0.8937 -2.5870 -0.0264
20684SOL    HW265330   6.456   1.461  10.512  0.7881  0.4291  2.1365
20685SOL     OW65331   5.189   5.880   0.249  0.6627 -0.0225  0.2571
20685SOL    HW165332   5.181   5.968   0.213  0.7777 -0.6958 -1.4826
20685SOL    HW265333   5.269   5.845   0.211 -0.7099 -1.8011 -1.1697
20686SOL     OW65334   8.213   5.987   3.353  0.0815  0.1834  0.4758
20686SOL    HW165335   8.225   5.897   3.322  1.1108  0.7940 -1.0194
20686SOL    HW265336   8.301   6.024   3.355 -0.3100  1.1321  1.1995
20687SOL     OW65337   2.166   5.490   7.304 -0.5268  0.3070 -0.1844
20687SOL    HW165338   2.205   5.416   7.352  0.0919  0.7907  0.0674
20687SOL    HW265339   2.202   5.483   7.216 -0.4382  0.3335 -0.1499
20688SOL     OW65340   9.105   7.014   3.544  0.6071 -0.3102 -0.2500
20688SOL    HW165341   9.026   6.967   3.571 -0.6272  0.0069 -2.9463
20688SOL    HW265342   9.124   7.072   3.617 -0.6601 -1.5579  1.1666
20689SOL     OW65343   6.197  11.037   8.058  0.1263  0.0150 -0.0309
20689SOL    HW165344   6.117  11.019   8.106 -0.5137  0.6620 -0.8247
20689SOL    HW265345   6.237  10.951   8.046 -0.5354 -0.3356  0.2208
20690SOL     OW65346   5.405   5.761   4.579  0.3381  0.0762 -0.2081
20690SOL    HW165347   5.329   5.735   4.632 -1.1904 -0.0984 -2.3911
20690SOL    HW265348   5.392   5.854   4.561  1.7252  0.5590  1.0109
20691SOL     OW65349   2.273   0.297   4.353  0.4761 -0.2639 -0.3572
20691SOL    HW165350   2.327   0.372   4.378 -0.8511  0.3179  0.8635
20691SOL    HW265351   2.226   0.326   4.275  1.2120 -0.4489 -0.8821
20692SOL     OW65352   6.291   0.684   2.207  0.0788  0.2261  0.2494
20692SOL    HW165353   6.314   0.616   2.144 -1.3063  0.3190 -0.4039
20692SOL    HW265354   6.243   0.638   2.276  0.1249  0.3626  0.3726
20693SOL     OW65355   1.369   7.368   2.351  0.4163  0.0149  0.3578
20693SOL    HW165356   1.414   7.429   2.293 -1.2037  0.5931 -0.3716
20693SOL    HW265357   1.370   7.284   2.305  1.6982 -0.2601  0.8638
20694SOL     OW65358   1.780   3.120   9.349 -0.3350 -0.4672  0.2700
20694SOL    HW165359   1.861   3.165   9.374 -0.4708  0.5215 -0.9447
20694SOL    HW265360   1.810   3.042   9.302 -0.0859 -0.6896  0.7974
20695SOL     OW65361   0.090  10.055   6.164 -0.7028  0.0981 -0.3922
20695SOL    HW165362   0.013  10.069   6.110 -1.0433 -0.6182 -0.0981
20695SOL    HW265363   0.056  10.035   6.251 -0.1841 -0.1709 -0.2452
20696SOL     OW65364   3.054   5.763   3.860 -0.0034 -0.0551  0.2480
20696SOL    HW165365   3.114   5.828   3.897  1.2127 -0.5990 -0.6641
20696SOL    HW265366   3.052   5.783   3.766 -0.6231 -0.5439  0.1485
20697SOL     OW65367   0.502   0.030  10.531  0.2386  0.1509 -0.0996
20697SOL    HW165368   0.549  -0.053  10.546 -0.4352  0.0298  1.4473
20697SOL    HW265369   0.572   0.094  10.515  0.7919 -0.5995 -0.8040
20698SOL     OW65370   2.597  10.155   6.581 -0.2831  0.1600  0.7157
20698SOL    HW165371   2.565  10.239   6.616 -0.5012  1.7249 -2.8134
20698SOL    HW265372   2.531  10.129   6.517  1.3918 -0.9754 -0.6355
20699SOL     OW65373   2.588   2.520  10.334  0.4496  0.0858 -0.3189
20699SOL    HW165374   2.672   2.563  10.351  1.1865 -1.6553  0.7176
20699SOL    HW265375   2.574   2.533  10.241  1.0580  1.7643 -0.2291
20700SOL     OW65376   3.151   3.952   5.259 -0.3310 -0.0147  0.2920
20700SOL    HW165377   3.188   3.920   5.341  0.1304 -0.1339  0.0375
20700SOL    HW265378   3.214   3.927   5.192 -0.9404 -0.3572 -0.1685
20701SOL     OW65379   0.058   4.096   7.176  0.0348  0.5817 -0.4309
20701SOL    HW165380   0.050   4.146   7.257  1.0194  0.5734 -0.3183
20701SOL    HW265381   0.062   4.162   7.107  1.1825  0.6682 -0.2951
20702SOL     OW65382   9.757   8.617   5.300 -0.0788  0.2059  0.0421
20702SOL    HW165383   9.763   8.627   5.205 -1.4674  1.3823  0.0441
20702SOL    HW265384   9.671   8.652   5.322  0.5902  0.8058  1.8379
20703SOL     OW65385   3.421  10.215   0.655 -0.5756 -0.2605  0.1028
20703SOL    HW165386   3.377  10.267   0.722  2.4297  0.7611  1.4768
20703SOL    HW265387   3.452  10.137   0.701 -1.1372 -1.0820 -0.8717
20704SOL     OW65388   0.777   3.483   6.944  0.0543  0.0202 -0.0620
20704SOL    HW165389   0.716   3.543   6.902  0.3344  0.3114 -0.0570
20704SOL    HW265390   0.724   3.437   7.010 -0.2311  0.0318 -0.2812
20705SOL     OW65391   2.526   0.245   2.841 -0.0849  0.3229 -0.2718
20705SOL    HW165392   2.581   0.292   2.903 -0.8082  1.2111 -0.2985
20705SOL    HW265393   2.589   0.204   2.781  0.5502  1.6851 -0.5660
20706SOL     OW65394   5.023   8.169   0.280 -0.2893  0.9217  0.1255
20706SOL    HW165395   5.062   8.134   0.199 -1.2826  2.9334 -1.2968
20706SOL    HW265396   4.981   8.093   0.320  0.4182 -0.1787 -1.1092
20707SOL     OW65397   7.593   4.841   7.450  0.0003  0.2489  0.1001
20707SOL    HW165398   7.655   4.845   7.523  0.0813  0.7078  0.0126
20707SOL    HW265399   7.644   4.873   7.375 -0.5806  1.4870  0.1987
20708SOL     OW65400   3.404   9.681   9.854  0.2443  0.0954 -0.1995
20708SOL    HW165401   3.329   9.625   9.834 -0.8798  1.6513 -0.5438
20708SOL    HW265402   3.445   9.640   9.930 -1.5960 -0.2256  0.6803
20709SOL     OW65403   8.664  10.198   8.013 -0.1315  0.2853 -0.1838
20709SOL    HW165404   8.757  10.182   8.030 -0.7260 -3.5194  0.3340
20709SOL    HW265405   8.637  10.126   7.955 -2.7752  1.2012 -0.2223
20710SOL     OW65406   0.926   7.067   0.866  0.8312 -0.0841  0.0744
20710SOL    HW165407   0.836   7.077   0.835  0.3662  1.7695  1.8279
20710SOL    HW265408   0.953   6.981   0.834 -0.6719  0.3352 -2.6029
20711SOL     OW65409   9.764   6.724   9.030  1.1173  0.2517  0.1951
20711SOL    HW165410   9.859   6.736   9.022  1.0232  1.0563  0.2133
20711SOL    HW265411   9.746   6.643   8.982  1.5762  1.0515 -1.4138
20712SOL     OW65412   2.294   7.266   6.187 -0.3186  0.0959  0.6605
20712SOL    HW165413   2.370   7.211   6.166 -0.1552  0.5048  0.1711
20712SOL    HW265414   2.219   7.219   6.150 -0.0895  0.5726 -0.4362
20713SOL     OW65415   7.685  10.974   6.629 -0.1259 -0.0860 -0.3010
20713SOL    HW165416   7.627  10.985   6.553  0.1053  0.9558 -0.3318
20713SOL    HW265417   7.668  10.884   6.659 -0.7604 -0.2544 -1.1312
20714SOL     OW65418   1.590   4.247   5.413  0.0960 -0.0051  0.1941
20714SOL    HW165419   1.641   4.198   5.348 -0.6933  0.1578 -0.5660
20714SOL    HW265420   1.508   4.199   5.420 -0.2245  0.5478  0.3124
20715SOL     OW65421  10.253  10.711   0.199  0.0421  0.4431 -0.3986
20715SOL    HW165422  10.221  10.695   0.110 -2.5756  1.4302  0.2744
20715SOL    HW265423  10.278  10.803   0.199  0.0969  0.4296 -0.1430
20716SOL     OW65424   8.835   0.482   1.755  0.4690 -0.7707 -0.5044
20716SOL    HW165425   8.807   0.571   1.774 -2.0308 -1.4041 -0.8607
20716SOL    HW265426   8.796   0.429   1.824  0.4399 -1.7858 -1.2672
20717SOL     OW65427   0.942   7.176   7.184  0.6425 -0.0911  0.3550
20717SOL    HW165428   0.855   7.179   7.224 -0.2561 -2.0349 -1.2703
20717SOL    HW265429   0.927   7.199   7.092  1.5416 -1.9662 -0.3091
20718SOL     OW65430   1.200   1.710   4.039 -0.5095  0.9267  0.1578
20718SOL    HW165431   1.131   1.737   4.099  0.1931  2.4808  0.3199
20718SOL    HW265432   1.261   1.784   4.038  1.1072 -0.3425 -0.0505
20719SOL     OW65433   9.668   5.416   2.017  0.4693  0.0742  0.1835
20719SOL    HW165434   9.708   5.342   2.062 -0.2945  0.5990  1.7961
20719SOL    HW265435   9.711   5.493   2.053  1.0654  0.4689 -1.2782
20720SOL     OW65436   1.779   3.155   8.602 -0.0943  0.3215  0.6882
20720SOL    HW165437   1.761   3.081   8.543 -0.0303  3.2160 -3.3847
20720SOL    HW265438   1.874   3.154   8.615  0.1468  0.6760 -0.8983
20721SOL     OW65439   9.474   8.870   0.330  0.3714  0.3716 -0.1909
20721SOL    HW165440   9.490   8.919   0.410 -1.2367  0.8647 -0.1349
20721SOL    HW265441   9.415   8.799   0.357 -1.8502  1.7222 -1.2443
20722SOL     OW65442   5.226   5.088   9.766  0.0472 -0.3806 -0.0246
20722SOL    HW165443   5.138   5.070   9.734 -0.1204  1.9061 -1.0382
20722SOL    HW265444   5.213   5.139   9.846  0.2660  3.2912 -2.1299
20723SOL     OW65445   5.615   2.773   0.786 -0.0197  0.5571 -0.2690
20723SOL    HW165446   5.591   2.865   0.800  0.2826  0.7454 -0.9211
20723SOL    HW265447   5.531   2.727   0.779 -0.1736  0.7757  0.1158
20724SOL     OW65448   6.096   5.376   8.588 -0.3873 -0.4088 -0.0202
20724SOL    HW165449   6.132   5.417   8.666 -1.0157  0.7423 -0.3114
20724SOL    HW265450   6.057   5.294   8.619 -0.6281  0.0358  0.8693
20725SOL     OW65451   5.312   7.006   7.510  0.7019  0.1791  0.3500
20725SOL    HW165452   5.403   7.033   7.521  1.6848 -2.2730 -0.9274
20725SOL    HW265453   5.289   7.035   7.422  0.3758  0.4037  0.5058
20726SOL     OW65454   4.157   8.789   1.132 -0.3035 -0.5462  0.5164
20726SOL    HW165455   4.113   8.773   1.215 -1.2303 -0.7839 -0.0081
20726SOL    HW265456   4.113   8.867   1.096 -0.1426 -0.6459  0.0941
20727SOL     OW65457   1.022   1.819   0.746 -0.5791 -0.5872  0.2156
20727SOL    HW165458   1.050   1.735   0.784 -0.0043 -0.2879  0.4615
20727SOL    HW265459   1.071   1.825   0.664  1.2651  0.6153  1.3264
20728SOL     OW65460   3.451   7.601   2.350 -0.4103 -0.3203  0.0426
20728SOL    HW165461   3.370   7.555   2.330 -0.4598  0.1627 -0.9275
20728SOL    HW265462   3.519   7.548   2.307 -0.4196  0.2392 -0.6865
20729SOL     OW65463   1.136   4.147   3.711 -0.0603 -0.1185  0.5326
20729SOL    HW165464   1.215   4.192   3.739  0.4245  1.1250 -2.4312
20729SOL    HW265465   1.141   4.061   3.753  1.4724  0.8500  2.4915
20730SOL     OW65466   5.288   3.797  11.364 -0.0291 -0.3097  0.0132
20730SOL    HW165467   5.225   3.731  11.335 -1.0653  0.4260  0.5203
20730SOL    HW265468   5.336   3.820  11.285 -1.7710  0.5700 -0.8567
20731SOL     OW65469   9.755   9.087   8.187  0.4253  0.6237  0.3577
20731SOL    HW165470   9.850   9.075   8.177  0.6477  0.4312  2.3127
20731SOL    HW265471   9.746   9.179   8.212  0.1879  0.4281  1.0055
20732SOL     OW65472  10.301   4.140   6.739 -0.3735 -0.5100 -0.3787
20732SOL    HW165473  10.303   4.079   6.665 -0.1193 -0.3359 -0.5173
20732SOL    HW265474  10.212   4.177   6.737 -0.7701 -1.4175  0.1528
20733SOL     OW65475   5.233   6.339   7.588  0.0477  0.1817 -0.3260
20733SOL    HW165476   5.284   6.393   7.649 -0.9234 -0.1353  0.8119
20733SOL    HW265477   5.156   6.312   7.638 -1.0430  0.2977 -1.8582
20734SOL     OW65478   4.217   7.267   0.586 -0.3186  0.6320 -0.0491
20734SOL    HW165479   4.201   7.359   0.564  1.3712  0.8114 -0.6152
20734SOL    HW265480   4.129   7.229   0.591 -1.0204  2.0860 -0.5971
20735SOL     OW65481   1.329   1.735   0.697 -0.4356 -0.1321  0.3431
20735SOL    HW165482   1.404   1.717   0.639 -0.9043 -0.0452 -0.3066
20735SOL    HW265483   1.306   1.826   0.677  1.5984  1.1902  3.2181
20736SOL     OW65484   4.047   1.984   9.937 -0.3604 -0.6293  0.3947
20736SOL    HW165485   3.961   2.018   9.960 -0.2735 -0.7527  0.9060
20736SOL    HW265486   4.075   2.037   9.863 -0.9926 -0.7633  0.0553
20737SOL     OW65487   2.979   6.287   3.698  0.1849 -0.7707 -0.0520
20737SOL    HW165488   2.910   6.295   3.764  0.8911 -0.9052  0.7173
20737SOL    HW265489   3.061   6.296   3.748  0.7304 -0.9444 -0.8996
20738SOL     OW65490   2.771   8.641   2.130  0.1769 -0.3034  0.1712
20738SOL    HW165491   2.857   8.614   2.100  1.0057  3.4511 -1.4222
20738SOL    HW265492   2.765   8.609   2.220  4.2071  1.0731  1.1259
20739SOL     OW65493   2.437   1.852   6.055 -0.2900 -0.2898 -0.0573
20739SOL    HW165494   2.486   1.924   6.094  0.4389 -1.0779  0.5039
20739SOL    HW265495   2.415   1.884   5.967  1.2687  0.0750 -0.3467
20740SOL     OW65496   0.631   5.203   7.815 -0.3015 -0.0646  0.0902
20740SOL    HW165497   0.566   5.258   7.771 -2.0898 -1.9664  0.2373
20740SOL    HW265498   0.701   5.194   7.751 -0.5743  1.2504 -0.4390
20741SOL     OW65499   0.154   0.005   0.718  0.5201  0.5911  0.3371
20741SOL    HW165500   0.098  -0.017   0.792  0.4388 -0.3145  0.0174
20741SOL    HW265501   0.240   0.021   0.757  0.7945 -1.1555  0.5120
20742SOL     OW65502  11.153   1.555  11.274 -0.2019 -0.4594  0.7860
20742SOL    HW165503  11.097   1.570  11.198  2.0510  2.1466 -0.5689
20742SOL    HW265504  11.125   1.621  11.338 -0.2696 -0.7952  1.1055
20743SOL     OW65505   8.095   5.295   2.191 -0.1143 -0.3344 -0.2182
20743SOL    HW165506   8.013   5.333   2.222  0.7075 -0.2345  1.9738
20743SOL    HW265507   8.154   5.370   2.180  0.3112 -0.5991  0.2359
20744SOL     OW65508   2.934   1.728  10.944  0.1322  0.3448  0.3331
20744SOL    HW165509   2.851   1.734  10.991 -0.6573 -0.5206 -0.9095
20744SOL    HW265510   2.999   1.718  11.013 -0.7870  0.9408  1.3271
20745SOL     OW65511   2.116   2.859   0.623 -0.1437  0.0516 -0.0573
20745SOL    HW165512   2.163   2.899   0.696  0.6970 -1.4542  0.2709
20745SOL    HW265513   2.028   2.841   0.657 -0.2002  0.6711  0.1202
20746SOL     OW65514   9.889   2.004  10.018 -0.1275  0.4333  0.3969
20746SOL    HW165515   9.866   2.005   9.925  0.8892 -0.2159  0.1178
20746SOL    HW265516   9.847   1.925  10.052  1.5233 -0.7129 -0.0968
20747SOL     OW65517  10.157   3.178   7.463  0.4918 -0.6835  0.5306
20747SOL    HW165518  10.160   3.136   7.377 -2.9371 -1.7045  0.7547
20747SOL    HW265519  10.179   3.108   7.525  0.1694 -0.7132  0.6148
20748SOL     OW65520   7.671   5.503  10.245 -0.2606 -0.1917 -0.4293
20748SOL    HW165521   7.692   5.523  10.154 -1.5303 -0.8441 -0.8961
20748SOL    HW265522   7.753   5.517  10.293  0.1683  1.1510 -1.5035
20749SOL     OW65523   0.911   4.663   4.095  0.1881  0.5604 -0.2277
20749SOL    HW165524   0.879   4.619   4.174 -0.4324  2.2431  0.5133
20749SOL    HW265525   0.946   4.593   4.041  1.1872 -0.5909  1.8036
20750SOL     OW65526   8.371   8.450  10.553 -0.4042 -0.3057  0.7403
20750SOL    HW165527   8.347   8.420  10.640  1.3749  1.1259  1.7772
20750SOL    HW265528   8.391   8.370  10.505  1.2182 -1.0125  2.4833
20751SOL     OW65529   5.390   4.333  10.321  0.2153 -0.2791 -0.4122
20751SOL    HW165530   5.330   4.316  10.394  1.5937 -2.3892  0.3272
20751SOL    HW265531   5.380   4.426  10.303 -0.8672  0.1045  1.8418
20752SOL     OW65532   8.143   6.708   2.047  0.6117 -0.2152 -0.3892
20752SOL    HW165533   8.100   6.728   1.964  1.9666 -1.1283 -1.3641
20752SOL    HW265534   8.080   6.654   2.094 -0.3297  0.6333 -0.6394
20753SOL     OW65535   1.969   0.958   3.779  0.3493 -0.6094 -0.0863
20753SOL    HW165536   1.947   0.865   3.790 -1.5137 -0.2673 -0.4990
20753SOL    HW265537   1.903   0.990   3.717  0.7744  1.0608  0.2813
20754SOL     OW65538   5.781  10.956   2.464  0.0547 -0.1917  0.2630
20754SOL    HW165539   5.826  10.948   2.379 -0.2837 -0.1339  0.0788
20754SOL    HW265540   5.806  10.876   2.511 -0.5926 -0.7289 -0.2857
20755SOL     OW65541   0.406   0.204   2.562 -0.4562  0.0283 -0.0235
20755SOL    HW165542   0.405   0.299   2.560  0.7148  0.0532 -0.0834
20755SOL    HW265543   0.314   0.178   2.553 -0.8128  1.1498  0.3210
20756SOL     OW65544   4.583  10.417   1.580  0.5944 -0.2172  0.1180
20756SOL    HW165545   4.607  10.396   1.489  2.2053 -2.5994  0.9930
20756SOL    HW265546   4.496  10.379   1.591  0.5447 -0.2374 -0.3251
20757SOL     OW65547   2.378   2.971   1.355 -0.0813  0.2609 -0.2342
20757SOL    HW165548   2.398   2.915   1.430  2.7224  1.8884  0.3723
20757SOL    HW265549   2.354   2.910   1.285  0.3641 -1.5136  1.1011
20758SOL     OW65550   3.869   7.389  10.768 -0.2915  0.4751  0.8056
20758SOL    HW165551   3.934   7.456  10.743 -0.1176 -0.0081 -0.0889
20758SOL    HW265552   3.805   7.437  10.821 -0.7750  1.6390 -0.7241
20759SOL     OW65553   3.577   5.245   2.238 -0.5030 -0.1149 -0.1505
20759SOL    HW165554   3.505   5.249   2.175 -0.5216 -0.8404 -0.1821
20759SOL    HW265555   3.535   5.233   2.323 -0.4393 -0.2036 -0.1304
20760SOL     OW65556   6.446   6.548   8.934 -0.1343  0.6028 -0.2383
20760SOL    HW165557   6.355   6.540   8.905 -0.5780  2.0986  0.6501
20760SOL    HW265558   6.457   6.478   8.998 -0.1108 -0.6753 -1.5729
20761SOL     OW65559   9.090   4.259   6.954  0.2933  0.1473  0.2199
20761SOL    HW165560   9.032   4.189   6.984 -0.0008  0.1359 -0.3682
20761SOL    HW265561   9.052   4.339   6.990  0.0107  0.1212 -0.0213
20762SOL     OW65562  11.351  10.554   7.087 -0.1595  0.0416 -0.4872
20762SOL    HW165563  11.289  10.484   7.109  2.1354 -1.7510  0.7337
20762SOL    HW265564  11.299  10.634   7.093 -2.5104 -1.3858 -0.2143
20763SOL     OW65565   0.518   4.690   8.368  0.0246 -0.3792  0.0750
20763SOL    HW165566   0.583   4.660   8.304  1.5019  1.1507  0.7957
20763SOL    HW265567   0.445   4.723   8.315 -0.7811 -3.1952 -0.7407
20764SOL     OW65568   9.526   8.357  10.405  0.1295  0.0139 -0.2571
20764SOL    HW165569   9.435   8.364  10.434  0.5187 -1.0834  1.3650
20764SOL    HW265570   9.524   8.385  10.313 -1.6397  1.0402  0.0453
20765SOL     OW65571   9.458   6.956   2.491 -0.4114 -0.3476 -0.5792
20765SOL    HW165572   9.542   6.976   2.533 -0.8375 -2.3971  1.4747
20765SOL    HW265573   9.482   6.918   2.407  0.8816 -2.1626  0.5224
20766SOL     OW65574   4.332   4.326   3.125  0.1070 -0.2291 -0.1962
20766SOL    HW165575   4.249   4.323   3.078 -0.5619 -1.1137  1.0025
20766SOL    HW265576   4.326   4.406   3.177 -0.2984 -0.6492  0.4129
20767SOL     OW65577   2.811   1.470   6.174  0.2121 -0.1727 -0.5707
20767SOL    HW165578   2.739   1.523   6.139  0.5418  0.3523 -0.4629
20767SOL    HW265579   2.890   1.515   6.144  0.4950 -0.1216  0.2321
20768SOL     OW65580   8.191   7.992   1.484  0.6252 -0.5043  0.1579
20768SOL    HW165581   8.282   7.961   1.480  0.7301 -0.1039 -0.5589
20768SOL    HW265582   8.199   8.087   1.491  0.2504 -0.4022 -0.7385
20769SOL     OW65583   0.835   4.796   6.645 -0.1044  0.2106  0.3391
20769SOL    HW165584   0.748   4.833   6.654 -0.7358 -1.0148 -0.4285
20769SOL    HW265585   0.844   4.779   6.551  0.7050 -0.2665  0.4938
20770SOL     OW65586  11.201   4.476   8.282 -0.1148  0.5302 -0.1792
20770SOL    HW165587  11.165   4.390   8.302 -0.0425  0.8051  1.2780
20770SOL    HW265588  11.160   4.501   8.200  1.3069 -1.6858 -1.6722
20771SOL     OW65589   2.564   3.565   3.609  0.2569 -0.2520 -0.2984
20771SOL    HW165590   2.621   3.495   3.579  0.1690  0.6834 -2.8705
20771SOL    HW265591   2.476   3.536   3.585 -0.1725 -0.7369  1.7214
20772SOL     OW65592  11.014   9.621   4.649 -0.4216 -0.1434 -0.4271
20772SOL    HW165593  10.942   9.606   4.711  1.1183 -1.6665  1.1375
20772SOL    HW265594  11.056   9.535   4.642  1.6961  0.8656 -0.6590
20773SOL     OW65595   6.544   3.084   0.618 -0.0304 -0.0206 -0.2546
20773SOL    HW165596   6.544   3.060   0.711 -1.1537  0.5900 -0.0727
20773SOL    HW265597   6.625   3.133   0.606  1.1796 -1.8735 -0.1139
20774SOL     OW65598   4.124   6.009   2.683  0.0756 -0.0500 -0.1868
20774SOL    HW165599   4.188   5.963   2.629  0.7972  0.5892  0.1039
20774SOL    HW265600   4.042   5.960   2.670  1.1549 -2.4656  1.4465
20775SOL     OW65601   6.996   3.175   6.904  0.5710 -0.1179  0.3159
20775SOL    HW165602   6.986   3.259   6.860  1.3143 -1.2609 -2.1920
20775SOL    HW265603   7.090   3.163   6.914  0.5920 -1.4278 -1.0601
20776SOL     OW65604   3.190   6.973   3.526 -0.0216 -0.5967  0.1267
20776SOL    HW165605   3.104   7.009   3.507 -0.0302 -1.0693 -0.7420
20776SOL    HW265606   3.174   6.883   3.554 -0.0402  0.1324  2.7433
20777SOL     OW65607   5.070   6.748   0.501  0.0263 -0.7922 -0.8895
20777SOL    HW165608   4.991   6.700   0.475 -1.2485 -0.5569  2.1686
20777SOL    HW265609   5.049   6.840   0.485  0.0791 -0.8013 -1.0133
20778SOL     OW65610   0.630   6.778   7.748 -0.3383 -0.4109  0.2000
20778SOL    HW165611   0.673   6.699   7.781 -1.2618 -1.7333 -1.5943
20778SOL    HW265612   0.639   6.772   7.653  0.5117  2.2382  0.0327
20779SOL     OW65613   3.944   8.912   1.556  0.0096  0.3239 -0.4160
20779SOL    HW165614   3.857   8.909   1.596  0.2902 -0.6319  0.1356
20779SOL    HW265615   3.966   8.821   1.538  0.4168  0.6507 -1.6208
20780SOL     OW65616   5.105   4.465  11.010  0.4688 -0.2076  0.3298
20780SOL    HW165617   5.037   4.530  11.029  0.5181 -0.0292 -0.0900
20780SOL    HW265618   5.183   4.501  11.052  0.3904 -0.2280  0.4947
20781SOL     OW65619   9.215   5.629   3.437  0.7567 -0.3200 -0.3795
20781SOL    HW165620   9.237   5.719   3.413  1.6423 -0.1774  0.8718
20781SOL    HW265621   9.207   5.582   3.354 -2.9207  1.5579 -1.3072
20782SOL     OW65622   7.981   2.453   5.066 -0.1841 -0.3386 -0.2145
20782SOL    HW165623   7.925   2.417   4.998 -1.1874 -0.8916  0.8585
20782SOL    HW265624   7.920   2.481   5.135  0.7445  0.8299  0.1730
20783SOL     OW65625   4.278   1.213   7.140 -0.8254  0.1000 -0.0233
20783SOL    HW165626   4.241   1.225   7.228  0.6646  1.3034  0.4971
20783SOL    HW265627   4.291   1.119   7.132 -1.4962 -0.0829  0.8226
20784SOL     OW65628   4.885   6.230   8.030  0.1357 -0.4982 -0.0379
20784SOL    HW165629   4.879   6.179   7.949  0.2490 -1.8244  0.7689
20784SOL    HW265630   4.899   6.320   8.000 -0.8426 -0.7881 -1.5154
20785SOL     OW65631  11.022   8.902   3.425 -0.2520  0.2939  0.7205
20785SOL    HW165632  10.971   8.877   3.503 -0.5349 -0.8252  0.1980
20785SOL    HW265633  11.072   8.978   3.453 -2.3834  1.6120  1.1927
20786SOL     OW65634   3.539   6.958   6.548  0.2231 -0.2037  0.6267
20786SOL    HW165635   3.618   6.905   6.559  0.1672 -0.2735  0.6946
20786SOL    HW265636   3.501   6.927   6.466  0.6794  0.3675  0.1970
20787SOL     OW65637   2.104   0.346   1.386 -0.5580 -0.9242 -0.3012
20787SOL    HW165638   2.021   0.299   1.381 -0.3252 -1.4853  0.8966
20787SOL    HW265639   2.170   0.279   1.373 -0.2559 -0.6893 -0.0016
20788SOL     OW65640   2.840   0.479  11.303  0.2428  0.6861 -0.1437
20788SOL    HW165641   2.829   0.404  11.245  1.3061  0.5934 -0.2509
20788SOL    HW265642   2.881   0.546  11.249 -2.1986  1.9724 -0.4953
20789SOL     OW65643   3.320   2.056   3.384  0.1527  0.7041  0.0776
20789SOL    HW165644   3.302   1.969   3.418 -0.1794  0.3871 -0.8964
20789SOL    HW265645   3.338   2.109   3.462  1.8809 -0.5594  0.6048
20790SOL     OW65646   0.400   1.511   8.989 -0.3072  0.5712  0.4579
20790SOL    HW165647   0.327   1.455   9.013  0.7936 -1.7173 -1.2172
20790SOL    HW265648   0.474   1.476   9.038  0.7147 -0.5084 -1.7288
20791SOL     OW65649   5.331   9.594   6.960  0.3532  0.2605  0.4817
20791SOL    HW165650   5.342   9.640   6.877 -0.7194 -0.2696  0.0331
20791SOL    HW265651   5.396   9.524   6.958  1.1035  0.9372  0.6001
20792SOL     OW65652   2.139   3.805   8.520  0.4305  0.4078 -0.3445
20792SOL    HW165653   2.193   3.851   8.585  2.0247 -0.6811 -0.8311
20792SOL    HW265654   2.054   3.848   8.525 -0.2614 -0.9671  4.0069
20793SOL     OW65655   3.559   5.926   9.717  0.3597  0.2054  0.0519
20793SOL    HW165656   3.543   5.832   9.720  2.4169 -0.1958 -0.2172
20793SOL    HW265657   3.579   5.950   9.807  0.8997  0.1681 -0.0558
20794SOL     OW65658   4.385   3.719   9.674  0.6878  0.4550 -0.4336
20794SOL    HW165659   4.329   3.743   9.600  0.0120  2.9644  0.7711
20794SOL    HW265660   4.374   3.791   9.736  3.1659 -0.3331  1.0556
20795SOL     OW65661   7.304   4.323   1.153 -0.5344  0.2596 -0.2744
20795SOL    HW165662   7.363   4.259   1.193 -0.9132 -0.2504 -0.5307
20795SOL    HW265663   7.269   4.372   1.227 -1.9129 -1.2613  0.1338
20796SOL     OW65664   7.816   6.066  10.406  0.5521  0.1607 -0.1920
20796SOL    HW165665   7.774   6.111  10.479  0.0946 -0.3215 -0.1519
20796SOL    HW265666   7.865   6.135  10.360  0.7335  0.4893  0.4859
20797SOL     OW65667   1.389   1.537   0.060  0.8756 -0.3338 -0.0542
20797SOL    HW165668   1.455   1.513  -0.005 -0.0703  0.9446 -1.5825
20797SOL    HW265669   1.439   1.569   0.135  1.9826 -0.2028 -0.8229
20798SOL     OW65670   9.848  10.782   3.195  0.2343 -0.2129 -0.5450
20798SOL    HW165671   9.938  10.807   3.215  0.7223 -2.2764  0.1109
20798SOL    HW265672   9.854  10.737   3.110 -0.0664 -0.8347 -0.2467
20799SOL     OW65673  10.609   9.697   0.288 -0.3021 -0.4131 -0.2755
20799SOL    HW165674  10.702   9.700   0.265 -0.6389  0.6767 -1.5807
20799SOL    HW265675  10.605   9.733   0.377  0.5068 -0.4404 -0.2232
20800SOL     OW65676  10.636   4.256   1.489 -0.0379  0.1616  0.3376
20800SOL    HW165677  10.599   4.273   1.402 -0.0528  0.4850  0.4034
20800SOL    HW265678  10.719   4.304   1.488  0.8021 -1.2380 -0.1120
20801SOL     OW65679   9.505   2.220   8.095 -0.3680  0.2799 -0.4464
20801SOL    HW165680   9.523   2.250   8.006  1.4788 -1.7508 -0.8381
20801SOL    HW265681   9.413   2.194   8.093 -0.1124 -0.6464 -2.0881
20802SOL     OW65682   7.427   9.619   9.900  0.1395 -0.5995 -0.2810
20802SOL    HW165683   7.345   9.579   9.930 -1.7558  3.0612  0.0377
20802SOL    HW265684   7.425   9.611   9.805 -0.1286 -1.3238 -0.2179
20803SOL     OW65685   6.029   4.766   7.815  0.9570 -0.6526 -0.5233
20803SOL    HW165686   6.014   4.686   7.865  0.3317 -0.0865  0.2271
20803SOL    HW265687   5.944   4.810   7.814  1.1334 -0.3123 -1.4917
20804SOL     OW65688   3.735  10.484   8.647  0.1605 -0.3125 -0.5716
20804SOL    HW165689   3.681  10.428   8.703  1.2892 -1.0180 -0.1525
20804SOL    HW265690   3.709  10.573   8.669  1.8926 -0.4428  2.5726
20805SOL     OW65691  11.071   6.091   4.286 -0.3875 -0.0957  0.0505
20805SOL    HW165692  10.992   6.146   4.288 -0.0106  0.4483  0.1118
20805SOL    HW265693  11.098   6.093   4.194  0.0397  0.4300  0.1784
20806SOL     OW65694   3.602   6.408   0.609  0.7133  0.3645  0.3359
20806SOL    HW165695   3.597   6.490   0.561 -2.4029  0.3113  0.3409
20806SOL    HW265696   3.629   6.433   0.697 -1.0730  1.6024  0.5930
20807SOL     OW65697   2.005   6.334   4.031 -0.0392  0.5660  0.1713
20807SOL    HW165698   2.091   6.374   4.018 -0.1293  0.6862 -0.0561
20807SOL    HW265699   1.998   6.322   4.125 -0.2735  1.6618  0.3047
20808SOL     OW65700   7.177   4.926   2.185  0.0073 -0.3257 -0.6421
20808SOL    HW165701   7.102   4.968   2.226  0.7023  1.2493 -0.8956
20808SOL    HW265702   7.140   4.876   2.112 -0.8550 -0.1182 -0.3608
20809SOL     OW65703   8.126   3.012  10.355 -0.9416  0.9271  0.1377
20809SOL    HW165704   8.173   3.020  10.438  0.0731 -0.3758 -0.2795
20809SOL    HW265705   8.155   3.088  10.304  2.3220 -0.7534 -0.8230
20810SOL     OW65706   9.128   6.846   0.003 -0.5879 -0.7741  0.2539
20810SOL    HW165707   9.186   6.780  -0.034 -0.4390 -0.7772  0.4868
20810SOL    HW265708   9.076   6.798   0.067  1.0337 -0.2843  2.0502
20811SOL     OW65709  10.173   3.450   7.121 -0.0774  0.3140 -0.6321
20811SOL    HW165710  10.260   3.453   7.080  0.9025 -0.4508  1.2547
20811SOL    HW265711  10.190   3.420   7.210 -2.4013 -0.9210 -0.5221
20812SOL     OW65712  10.021   0.885   6.166  0.1535 -0.2530 -0.0436
20812SOL    HW165713   9.962   0.833   6.111  0.0324 -0.5123  0.3285
20812SOL    HW265714   9.995   0.976   6.150 -0.3674 -0.3658  0.1382
20813SOL     OW65715   8.396   9.062   3.386  0.1700  0.3265  0.0745
20813SOL    HW165716   8.343   8.998   3.435 -1.2088  1.1508 -0.2785
20813SOL    HW265717   8.332   9.125   3.353  1.3087  0.9028 -1.0991
20814SOL     OW65718   3.451   8.438  10.458  0.0476  0.1353 -0.2636
20814SOL    HW165719   3.360   8.429  10.428  0.0938 -1.7728  0.0122
20814SOL    HW265720   3.481   8.519  10.418 -1.2106 -0.1533 -1.9280
20815SOL     OW65721   6.961   7.425   8.504  0.3084  0.0924  0.4321
20815SOL    HW165722   7.049   7.432   8.468 -0.5828  1.0110 -1.7274
20815SOL    HW265723   6.919   7.355   8.453 -0.2200 -0.3940  1.4819
20816SOL     OW65724   7.327   8.575   3.373  0.2284 -0.0395 -0.3385
20816SOL    HW165725   7.244   8.617   3.351 -0.6439 -0.7999  1.2637
20816SOL    HW265726   7.311   8.534   3.458  1.5201 -2.1855 -1.0456
20817SOL     OW65727   7.862  10.668   2.415  0.1476  0.0226  0.1059
20817SOL    HW165728   7.813  10.604   2.467  0.7580 -0.7293 -0.2203
20817SOL    HW265729   7.845  10.752   2.458  0.4221 -0.5436  1.3648
20818SOL     OW65730   2.660   4.930   6.730  0.2010 -0.3995  0.3961
20818SOL    HW165731   2.754   4.915   6.720  0.1863  0.1904 -0.7420
20818SOL    HW265732   2.623   4.912   6.644 -0.6425  0.0167  0.6596
20819SOL     OW65733   6.210   1.401   9.449 -0.2217 -0.7567 -0.5297
20819SOL    HW165734   6.249   1.318   9.475  0.0530 -0.3436  0.4252
20819SOL    HW265735   6.158   1.380   9.371  0.0872 -1.7522 -0.4802
20820SOL     OW65736   3.514   6.504   9.323  0.5481  0.2976  0.0233
20820SOL    HW165737   3.430   6.551   9.328 -0.0341 -0.6235 -0.5893
20820SOL    HW265738   3.493   6.415   9.353  0.5270 -0.8389 -2.9938
20821SOL     OW65739   4.322   7.680   5.875 -0.1281  0.1277  0.7777
20821SOL    HW165740   4.290   7.767   5.853  0.6805  0.4353  0.7935
20821SOL    HW265741   4.378   7.656   5.801  2.5985  1.1575  2.3821
20822SOL     OW65742   7.210   6.153   0.120 -0.0252  0.1637 -0.1558
20822SOL    HW165743   7.290   6.120   0.080  0.6082  1.7140 -0.2657
20822SOL    HW265744   7.158   6.075   0.140  2.0537 -0.9992  1.1186
20823SOL     OW65745   0.625   1.038   2.391 -0.5337 -0.2034  0.6815
20823SOL    HW165746   0.692   0.974   2.412 -2.2054 -1.8196  1.3540
20823SOL    HW265747   0.562   0.991   2.337 -0.8969  1.4075 -0.3757
20824SOL     OW65748   5.085   0.078   4.711  0.3221 -0.3166  0.0887
20824SOL    HW165749   5.083   0.087   4.616 -2.6722  1.3918  0.1800
20824SOL    HW265750   5.137   0.152   4.741 -0.0261  0.0499 -0.1967
20825SOL     OW65751   5.356   1.515   3.888 -0.1729 -0.0927  0.4047
20825SOL    HW165752   5.287   1.525   3.823 -1.7106 -0.0058  2.0021
20825SOL    HW265753   5.416   1.452   3.848 -2.4570 -2.1386 -0.0475
20826SOL     OW65754   5.308   1.230   3.060  0.0030 -0.3189  0.0555
20826SOL    HW165755   5.259   1.159   3.100  0.6187 -0.4448  0.6089
20826SOL    HW265756   5.329   1.289   3.133  0.7894 -0.3397 -0.1418
20827SOL     OW65757   9.510   9.097  10.163 -0.1993  0.3376  0.5261
20827SOL    HW165758   9.523   9.017  10.213  0.2929  0.9568  1.4085
20827SOL    HW265759   9.450   9.072  10.093 -0.5768 -0.6391  1.1809
20828SOL     OW65760   6.880   5.377  10.766  0.1222 -0.2973  0.3082
20828SOL    HW165761   6.944   5.421  10.823 -0.1995  0.0882  0.3749
20828SOL    HW265762   6.905   5.285  10.769 -0.3326 -0.3988  1.6746
20829SOL     OW65763   0.449   0.236  10.096  0.8489  0.0550  0.0637
20829SOL    HW165764   0.418   0.181  10.024  0.6326 -0.0849  0.2630
20829SOL    HW265765   0.523   0.284  10.058 -0.8816  1.9767 -1.0663
20830SOL     OW65766   4.196   5.943   8.321  0.6130 -0.6018 -0.0194
20830SOL    HW165767   4.131   5.987   8.375  0.2496 -1.9321  0.6704
20830SOL    HW265768   4.178   5.972   8.231 -1.9654 -2.1002 -0.0792
20831SOL     OW65769   0.595   6.526   9.807  0.1609 -0.1010  0.0047
20831SOL    HW165770   0.509   6.503   9.842  0.3970  0.5135  1.0207
20831SOL    HW265771   0.577   6.595   9.742  0.0512  1.7591  1.9077
20832SOL     OW65772   6.770   0.023   4.916 -0.3554  0.4694  0.1568
20832SOL    HW165773   6.858  -0.012   4.906 -1.1300 -1.4542 -0.2575
20832SOL    HW265774   6.730  -0.031   4.984 -0.9173  1.9918  1.0975
20833SOL     OW65775  11.173   3.791   2.251 -0.5230 -0.2260 -0.2289
20833SOL    HW165776  11.156   3.762   2.341  0.8382 -2.6413 -0.6460
20833SOL    HW265777  11.086   3.805   2.213 -1.1425 -0.1503  1.1718
20834SOL     OW65778   0.954  10.719   6.126 -0.5901 -0.0917  0.4017
20834SOL    HW165779   0.933  10.812   6.121  2.8093  0.8802  1.5719
20834SOL    HW265780   0.964  10.692   6.035 -0.6522  0.9381  0.0754
20835SOL     OW65781   5.529   9.099   6.240 -0.0060  0.0506 -0.6075
20835SOL    HW165782   5.612   9.141   6.220 -0.4193  2.2438  1.8055
20835SOL    HW265783   5.477   9.109   6.159  0.9995  1.4318 -1.1113
20836SOL     OW65784   2.423   2.167  10.221 -0.3873  0.0228  0.8490
20836SOL    HW165785   2.330   2.148  10.212 -0.2067 -0.2311 -0.6680
20836SOL    HW265786   2.463   2.084  10.246 -0.1034 -0.8324 -2.1379
20837SOL     OW65787   0.364  10.473   3.844  0.2455  0.2345 -0.2162
20837SOL    HW165788   0.338  10.542   3.783  0.7292  0.2131 -0.4482
20837SOL    HW265789   0.281  10.440   3.879 -0.2725 -1.6581 -2.9205
20838SOL     OW65790  10.035   0.108   9.173  0.3173 -0.2780  0.4864
20838SOL    HW165791  10.127   0.116   9.147  0.5132 -2.1446  0.4987
20838SOL    HW265792  10.003   0.198   9.175  2.5322  0.5559  1.9582
20839SOL     OW65793   1.068   2.405  10.214 -0.3273  0.1468  0.4754
20839SOL    HW165794   0.992   2.390  10.270 -0.3488 -1.5058  0.0454
20839SOL    HW265795   1.053   2.492  10.177 -3.4740 -1.1743 -1.7831
20840SOL     OW65796   9.884   4.185   9.947 -0.2768  0.2578 -0.3258
20840SOL    HW165797   9.884   4.257   9.884 -2.8689 -0.2489 -1.0278
20840SOL    HW265798   9.806   4.134   9.925  0.7322 -2.0186  1.0185
20841SOL     OW65799  11.061   4.777  11.312  0.7598  0.1792 -0.5536
20841SOL    HW165800  11.122   4.840  11.274  2.1421 -0.6933  0.1768
20841SOL    HW265801  10.976   4.820  11.306  1.8381  2.8532  1.3938
20842SOL     OW65802   6.140   3.607   8.627 -0.5787  0.0692  0.2488
20842SOL    HW165803   6.134   3.679   8.689 -1.6681  1.6068 -1.5228
20842SOL    HW265804   6.234   3.592   8.616 -0.2492  2.2272 -0.3780
20843SOL     OW65805   9.295   8.346   2.612  0.1475  0.0912  0.1023
20843SOL    HW165806   9.345   8.422   2.582  1.2218 -0.4679  0.4161
20843SOL    HW265807   9.307   8.347   2.707  1.5670 -1.3788 -0.0158
20844SOL     OW65808   8.970  10.685   4.058 -1.0421 -0.3027 -0.0680
20844SOL    HW165809   8.997  10.716   4.145  0.5297 -0.6288 -0.4017
20844SOL    HW265810   8.979  10.589   4.064 -1.3037 -0.3532 -0.4749
20845SOL     OW65811   0.495   5.738   3.406  0.4867  0.0465 -0.1718
20845SOL    HW165812   0.476   5.813   3.350 -1.4641 -1.7462 -2.1358
20845SOL    HW265813   0.583   5.710   3.379 -0.3527 -0.7096 -2.4431
20846SOL     OW65814   1.646   8.247   2.983 -0.2245  0.2120 -0.1168
20846SOL    HW165815   1.575   8.268   2.921 -1.0526 -1.3997  0.2246
20846SOL    HW265816   1.633   8.308   3.056 -1.8082 -0.5887  0.3168
20847SOL     OW65817   3.792   9.095  10.725  0.1314 -0.3544  0.1265
20847SOL    HW165818   3.722   9.137  10.675  0.9018 -0.9001 -1.4833
20847SOL    HW265819   3.868   9.098  10.667  1.4622  0.1658  1.7886
20848SOL     OW65820   8.685   4.612   7.180  0.3112 -0.2004 -0.1607
20848SOL    HW165821   8.594   4.584   7.179  0.7000 -1.5555  0.1899
20848SOL    HW265822   8.733   4.536   7.214  1.6867  0.1474 -1.2434
20849SOL     OW65823   1.420   0.805   7.583 -0.4718 -0.9342  0.2620
20849SOL    HW165824   1.497   0.840   7.626 -1.2324  0.9853  0.1820
20849SOL    HW265825   1.449   0.724   7.541  1.2177 -0.7797  1.0906
20850SOL     OW65826   2.373  11.271   2.025  0.5695  0.1908 -0.0718
20850SOL    HW165827   2.466  11.270   2.002  0.8446 -0.8030  0.9945
20850SOL    HW265828   2.372  11.281   2.120 -0.4085 -0.0423 -0.0466
20851SOL     OW65829  11.267  10.081   9.099  0.5323  0.4693  0.2876
20851SOL    HW165830  11.231   9.999   9.131  0.7008  1.0466  2.0645
20851SOL    HW265831  11.201  10.147   9.121  0.4700  0.8397 -0.9675
20852SOL     OW65832   9.811   3.122  10.185  0.2204  0.0194  0.0705
20852SOL    HW165833   9.799   3.034  10.220  0.9209 -0.1441 -0.0853
20852SOL    HW265834   9.821   3.109  10.091 -0.3271  0.3321 -0.0348
20853SOL     OW65835   7.888   2.905  10.349 -0.7781  0.2848  0.2525
20853SOL    HW165836   7.889   2.827  10.405  0.6493 -0.4526 -0.7370
20853SOL    HW265837   7.979   2.931  10.343 -0.8712  0.2654 -1.8230
20854SOL     OW65838   8.150   4.551   4.977 -0.2306 -0.4281 -0.5711
20854SOL    HW165839   8.062   4.555   4.940  0.0103 -2.3015 -1.4669
20854SOL    HW265840   8.198   4.491   4.919  0.9448 -1.3456  1.2530
20855SOL     OW65841   1.643  11.005   3.991  0.3672  0.2607  0.3148
20855SOL    HW165842   1.623  11.049   3.908  0.5252 -2.5792 -1.3865
20855SOL    HW265843   1.563  10.958   4.013  0.2530  1.1706  1.9448
20856SOL     OW65844   0.881   6.031   1.924  0.4461  0.0582  0.1514
20856SOL    HW165845   0.826   6.037   1.846  1.9802  0.5798 -0.9499
20856SOL    HW265846   0.943   5.960   1.905  1.1061  0.4694  0.6987
20857SOL     OW65847  10.868   2.887   7.177  0.7903  0.1926  0.4779
20857SOL    HW165848  10.916   2.829   7.236  0.5421 -1.2312 -0.6604
20857SOL    HW265849  10.868   2.841   7.093  0.6950  1.9227 -0.5136
20858SOL     OW65850   0.132   9.124   2.529  0.4912  0.0724  0.2154
20858SOL    HW165851   0.089   9.043   2.505 -0.1548 -0.5945  3.2414
20858SOL    HW265852   0.090   9.191   2.474 -1.1566 -1.2019 -0.1485
20859SOL     OW65853  10.807  10.976   5.110 -0.1721 -0.2135  0.4245
20859SOL    HW165854  10.720  10.943   5.133 -0.3556 -0.1542 -0.1584
20859SOL    HW265855  10.799  11.002   5.018  0.6468 -0.8589  0.1514
20860SOL     OW65856  11.044   6.566   5.848  0.1268  0.9018 -0.4230
20860SOL    HW165857  10.958   6.527   5.862  0.3399  0.2511 -0.8599
20860SOL    HW265858  11.026   6.657   5.825 -0.3524  1.2636  1.2436
20861SOL     OW65859   4.397   5.192   6.063  0.0323 -0.9260 -0.2077
20861SOL    HW165860   4.324   5.207   6.004  0.3309  0.4895 -0.2654
20861SOL    HW265861   4.384   5.255   6.134  0.7349 -1.2374  0.2134
20862SOL     OW65862  10.965  10.018   0.101  0.2675  0.0152  0.3455
20862SOL    HW165863  10.913  10.079   0.154  0.5348 -0.1418  0.7842
20862SOL    HW265864  10.969  10.060   0.015  0.2511  0.5116  0.5810
20863SOL     OW65865   3.247   7.212   6.570 -0.1764 -0.5270 -0.2879
20863SOL    HW165866   3.328   7.254   6.540  0.5095 -0.3097  1.7187
20863SOL    HW265867   3.246   7.227   6.664 -2.9766  0.1865 -0.3304
20864SOL     OW65868   1.023   2.085   1.264  0.2588  0.2124 -0.8416
20864SOL    HW165869   1.105   2.052   1.225  1.6647 -0.6739  2.5107
20864SOL    HW265870   0.958   2.017   1.244  1.6343 -1.6636  0.6684
20865SOL     OW65871   6.316   4.649   7.955  0.1811 -0.1930  0.2891
20865SOL    HW165872   6.236   4.700   7.951  1.4402  1.8411 -0.4678
20865SOL    HW265873   6.382   4.710   7.990  1.9317 -0.9960 -1.4231
20866SOL     OW65874   0.441   9.772   3.103 -0.4500  0.2236 -0.2090
20866SOL    HW165875   0.473   9.802   3.188  0.2377  0.5576 -0.5840
20866SOL    HW265876   0.457   9.677   3.104  0.7516  0.4136 -0.4713
20867SOL     OW65877   5.312   3.176   9.917 -0.1355 -0.3933 -0.3724
20867SOL    HW165878   5.358   3.246   9.963 -1.8669  0.8920 -0.5013
20867SOL    HW265879   5.262   3.131   9.985 -0.9448  0.0849 -0.6372
20868SOL     OW65880   3.320   5.464   9.983 -0.5645 -0.1567 -0.4158
20868SOL    HW165881   3.335   5.440   9.892  0.1229  2.3681 -1.0247
20868SOL    HW265882   3.239   5.418  10.007 -0.3561 -1.4313 -2.0336
20869SOL     OW65883   1.104   7.276   6.819 -0.2807  0.2607  0.0856
20869SOL    HW165884   1.195   7.299   6.836 -0.6326  0.0700  2.7857
20869SOL    HW265885   1.100   7.181   6.831 -0.8768  0.3065  0.2987
20870SOL     OW65886  10.365   4.916   1.327 -0.6434 -0.2688  1.1213
20870SOL    HW165887  10.391   4.834   1.285  1.7287 -0.2817  2.4230
20870SOL    HW265888  10.412   4.916   1.410 -1.4406  1.9154  1.6273
20871SOL     OW65889   3.801   0.914   2.614 -0.2386 -0.3539  0.8437
20871SOL    HW165890   3.858   0.980   2.655  1.9853 -1.4317 -0.3237
20871SOL    HW265891   3.797   0.843   2.677 -0.6795 -0.0923  1.1144
20872SOL     OW65892   2.457   7.471   2.113 -0.4582  0.2406  0.0897
20872SOL    HW165893   2.448   7.539   2.179  2.1542 -0.0651  0.8818
20872SOL    HW265894   2.474   7.519   2.031  0.8371  0.5956  0.5423
20873SOL     OW65895   1.647   5.056   7.766 -0.2986 -0.1956 -0.6023
20873SOL    HW165896   1.692   4.973   7.753 -0.8462 -0.7103  0.5713
20873SOL    HW265897   1.711   5.111   7.812 -0.0335 -0.0647 -1.1251
20874SOL     OW65898   6.053   3.653   3.990 -0.1540 -0.1985  0.1683
20874SOL    HW165899   5.991   3.655   3.917 -0.3969  1.1055  0.3789
20874SOL    HW265900   6.036   3.735   4.037  1.5717  0.0804  0.3571
20875SOL     OW65901   0.714   5.531   5.924 -0.6490  0.2436  0.2862
20875SOL    HW165902   0.749   5.600   5.867  1.1978  0.0524  1.0979
20875SOL    HW265903   0.769   5.536   6.003 -1.8653 -0.7816  1.2299
20876SOL     OW65904   1.955   1.232   8.916  0.1945  0.2849 -0.1797
20876SOL    HW165905   1.941   1.302   8.979 -0.3611 -0.5864  0.6995
20876SOL    HW265906   2.050   1.223   8.910  0.2717  1.1525 -0.3619
20877SOL     OW65907   5.394   8.245   7.707  0.6865  0.1916  0.2545
20877SOL    HW165908   5.395   8.205   7.795  1.2687 -0.6397 -0.1138
20877SOL    HW265909   5.357   8.177   7.651 -2.0338  1.5672  0.2121
20878SOL     OW65910  10.337   8.867   9.365  0.0066 -0.1093  0.1331
20878SOL    HW165911  10.427   8.834   9.366  0.7886  1.5975 -2.7481
20878SOL    HW265912  10.283   8.789   9.349  0.9486 -1.0959  1.5068
20879SOL     OW65913   5.127  11.178   2.989 -0.0589 -0.2451  0.0543
20879SOL    HW165914   5.076  11.188   2.909 -0.0925 -1.4188 -0.0915
20879SOL    HW265915   5.061  11.165   3.058 -0.0180 -2.5618 -0.2499
20880SOL     OW65916   0.577   4.069   6.891 -0.9499  0.1139 -0.1782
20880SOL    HW165917   0.552   4.153   6.929 -1.3480 -0.2848  0.4635
20880SOL    HW265918   0.562   4.005   6.961  1.0379 -0.2807 -0.0536
20881SOL     OW65919  10.069   7.990   6.967 -0.0167 -0.4275  0.0214
20881SOL    HW165920  10.108   8.021   7.049 -1.7518 -0.2413  0.8183
20881SOL    HW265921   9.975   8.009   6.976 -0.5601 -2.2900 -1.1352
20882SOL     OW65922   4.858   5.818   8.665  0.6694  0.8575 -0.6619
20882SOL    HW165923   4.801   5.836   8.591  0.3275  0.1428 -0.5789
20882SOL    HW265924   4.814   5.859   8.740  1.4754  2.3865 -0.9869
20883SOL     OW65925  10.829   3.943  10.448 -0.0199 -0.6716 -0.5499
20883SOL    HW165926  10.814   4.034  10.421 -0.4691 -0.7914 -0.7133
20883SOL    HW265927  10.924   3.936  10.456  0.1830 -0.7352 -2.5439
20884SOL     OW65928   8.261   8.332   6.512 -0.2529 -0.1958  0.8367
20884SOL    HW165929   8.221   8.400   6.458  1.1249  0.6358  0.7957
20884SOL    HW265930   8.201   8.322   6.586 -0.7957  0.6274  0.5254
20885SOL     OW65931   1.402   9.363   5.822 -0.3521 -0.8555  0.3140
20885SOL    HW165932   1.359   9.292   5.774 -1.7112 -0.8529  1.4551
20885SOL    HW265933   1.457   9.406   5.757 -0.6155 -2.0598 -0.7498
20886SOL     OW65934   0.403   6.560   8.410 -0.7444 -0.0629  0.2368
20886SOL    HW165935   0.405   6.654   8.428 -0.7155 -0.1273  0.5798
20886SOL    HW265936   0.347   6.524   8.479 -1.7828 -0.1416 -0.6248
20887SOL     OW65937   7.038   2.498   9.532 -0.2885  0.3363  0.0612
20887SOL    HW165938   7.028   2.412   9.574  0.8913  0.3176  0.3373
20887SOL    HW265939   7.014   2.482   9.441 -1.8893  0.1468  0.4969
20888SOL     OW65940   1.639   7.846  10.649 -0.0154  0.0217 -0.1804
20888SOL    HW165941   1.708   7.865  10.586  2.6624 -0.9536  2.2613
20888SOL    HW265942   1.680   7.858  10.735 -2.5240 -1.8011  1.4164
20889SOL     OW65943   3.414   7.742   2.810 -0.1999  0.2258 -0.1198
20889SOL    HW165944   3.507   7.723   2.825 -0.7932 -1.8946  1.4392
20889SOL    HW265945   3.393   7.811   2.873  0.4865  1.3207 -1.0679
20890SOL     OW65946   5.515   5.537  10.838  0.5456 -0.0663  0.0382
20890SOL    HW165947   5.495   5.536  10.932 -3.2007 -1.0479 -0.6098
20890SOL    HW265948   5.499   5.448  10.809  0.4468  0.4765 -1.7180
20891SOL     OW65949   6.252   4.778  10.049  0.0994 -0.4880 -0.0054
20891SOL    HW165950   6.217   4.689  10.054 -2.3292  0.3578 -0.9106
20891SOL    HW265951   6.179   4.832  10.022  1.3405  1.9389  1.1229
20892SOL     OW65952   2.570   2.897   3.916 -0.0990  0.4655 -0.5148
20892SOL    HW165953   2.654   2.852   3.908 -1.1949 -1.9903  0.6818
20892SOL    HW265954   2.522   2.874   3.837 -0.8563 -1.0554  0.3313
20893SOL     OW65955   1.631  11.272   5.295 -0.7199 -0.4997 -0.1531
20893SOL    HW165956   1.722  11.300   5.295 -0.4561 -1.1681  2.0187
20893SOL    HW265957   1.585  11.342   5.342 -1.0507 -0.9113  0.1393
20894SOL     OW65958   6.265   2.537   9.572 -0.0909  0.0393 -0.0691
20894SOL    HW165959   6.266   2.502   9.661  1.2098  0.5375  0.1362
20894SOL    HW265960   6.218   2.471   9.520  0.9026 -1.2481  0.6018
20895SOL     OW65961   1.711   6.722   1.252  0.4623 -0.3339 -0.1217
20895SOL    HW165962   1.738   6.721   1.161  0.1800  0.1185 -0.2150
20895SOL    HW265963   1.623   6.760   1.250  0.0554 -1.2186  0.2330
20896SOL     OW65964   4.008   5.201   2.125 -0.3489  0.8383 -0.1480
20896SOL    HW165965   3.918   5.175   2.108 -0.5395  0.5297  1.2672
20896SOL    HW265966   4.037   5.241   2.042 -1.5975  0.4802 -0.7826
20897SOL     OW65967   3.972   5.282   2.385  0.5589  0.1408 -0.1242
20897SOL    HW165968   3.987   5.257   2.294 -0.5852  2.2203 -0.9690
20897SOL    HW265969   3.951   5.200   2.429  0.7052 -0.8639 -1.8225
20898SOL     OW65970   5.103   6.182   8.921  0.2744  0.8697 -0.5681
20898SOL    HW165971   5.075   6.148   8.836 -0.5513  1.9569 -0.7493
20898SOL    HW265972   5.197   6.167   8.923  0.2710  0.6364 -1.5778
20899SOL     OW65973   0.376   6.099   0.030 -0.5468  0.5213  0.2706
20899SOL    HW165974   0.427   6.080   0.109 -1.1592  0.1306  0.5889
20899SOL    HW265975   0.397   6.190   0.009  0.8398  0.1448 -0.0507
20900SOL     OW65976   3.773   9.726   0.798  0.5353  0.1593 -0.1825
20900SOL    HW165977   3.787   9.631   0.791  0.3364  0.1813 -0.8922
20900SOL    HW265978   3.794   9.746   0.890 -0.3677 -0.7253  0.2290
20901SOL     OW65979   4.019  11.172   8.690  0.2882 -0.2952  0.0910
20901SOL    HW165980   4.061  11.164   8.604 -0.0132  1.3592 -0.2369
20901SOL    HW265981   3.943  11.227   8.674  0.9188  1.0880  1.6402
20902SOL     OW65982   1.968   1.632  10.221  0.3984  0.6907 -0.3531
20902SOL    HW165983   2.059   1.627  10.252  1.0481  0.4898 -2.2001
20902SOL    HW265984   1.973   1.610  10.128 -1.4328  1.5984 -0.6985
20903SOL     OW65985  11.039   8.210   3.481  0.2652 -0.1342 -0.0321
20903SOL    HW165986  11.016   8.231   3.571 -0.1952  0.5613 -0.3012
20903SOL    HW265987  10.981   8.138   3.456  0.9955 -0.9286  0.4972
20904SOL     OW65988   6.372   6.317   1.107 -0.2710  0.1063 -0.0867
20904SOL    HW165989   6.451   6.371   1.098 -1.0104  1.2591  0.1588
20904SOL    HW265990   6.402   6.239   1.154  0.3434  1.4722  1.9375
20905SOL     OW65991   3.205   2.926   9.721 -0.3222 -0.3393 -0.0042
20905SOL    HW165992   3.235   2.849   9.672  0.1280  0.0121 -0.2876
20905SOL    HW265993   3.183   2.892   9.808  3.2497 -0.2542  1.0587
20906SOL     OW65994   3.305   4.072   6.707 -0.2066 -0.0728 -0.4471
20906SOL    HW165995   3.362   4.093   6.781 -1.3258  1.0234  0.1532
20906SOL    HW265996   3.279   4.158   6.672 -0.1668 -0.5695 -1.7413
20907SOL     OW65997   5.476   3.047   4.370  0.0070 -0.3809 -0.0106
20907SOL    HW165998   5.513   3.014   4.452  0.5822  0.0600 -0.0856
20907SOL    HW265999   5.483   3.142   4.377 -0.0124 -0.3398 -0.5383
20908SOL     OW66000   8.435   6.397   1.818  0.6478 -0.1422  0.0472
20908SOL    HW166001   8.490   6.333   1.863  0.2873 -0.6226 -0.1780
20908SOL    HW266002   8.465   6.482   1.850  0.7208 -0.4550  0.8231
20909SOL     OW66003   9.031   6.676   0.169 -0.0757 -0.2651  0.3075
20909SOL    HW166004   9.056   6.688   0.260  0.3972 -1.5653  0.3651
20909SOL    HW266005   8.935   6.677   0.170 -0.0706  0.4458  0.6975
20910SOL     OW66006   7.651   9.529   9.495  0.0865 -0.4385 -0.3009
20910SOL    HW166007   7.728   9.511   9.548  0.2274 -0.6134 -0.5600
20910SOL    HW266008   7.607   9.601   9.539 -0.1438 -1.0017  0.4040
20911SOL     OW66009   6.733  10.261   0.871  0.5090  0.3181 -0.0815
20911SOL    HW166010   6.646  10.298   0.888  0.1657 -1.1289  1.6525
20911SOL    HW266011   6.793  10.320   0.917  0.0876 -0.5101  1.6064
20912SOL     OW66012   4.030   0.305   5.017 -0.2622 -0.2778  0.7487
20912SOL    HW166013   4.065   0.218   5.035  0.3749 -0.0047  0.8830
20912SOL    HW266014   3.966   0.292   4.948 -0.4874 -0.9108  1.0765
20913SOL     OW66015   0.371   8.480   9.893 -0.1389 -0.3647  0.4706
20913SOL    HW166016   0.284   8.498   9.928 -0.0057  0.3763  0.4220
20913SOL    HW266017   0.423   8.454   9.969 -0.3809 -0.7419  0.5105
20914SOL     OW66018   0.504   4.698   3.060 -0.0430 -0.0315  0.4139
20914SOL    HW166019   0.588   4.704   3.105 -0.3407 -0.9206  1.1221
20914SOL    HW266020   0.471   4.611   3.083 -0.9542  0.1400 -0.2109
20915SOL     OW66021  10.122   0.122   0.118  0.0181 -0.1415 -0.2656
20915SOL    HW166022  10.191   0.057   0.130 -1.1001 -1.2006  0.6922
20915SOL    HW266023  10.165   0.196   0.075  1.4343 -1.3151 -0.9393
20916SOL     OW66024   7.728   7.646  11.178 -0.5963  0.2186  0.0329
20916SOL    HW166025   7.726   7.640  11.082 -1.7354  0.1428  0.0495
20916SOL    HW266026   7.686   7.565  11.208  0.3436 -0.0683  0.6171
20917SOL     OW66027   2.224   8.957   2.305 -0.4765 -0.4318 -0.4565
20917SOL    HW166028   2.140   9.000   2.292 -0.6326 -0.8397 -0.8339
20917SOL    HW266029   2.213   8.905   2.385  0.0396  1.0011  0.5758
20918SOL     OW66030  10.437   2.669  10.329  0.0360  0.1493 -0.1332
20918SOL    HW166031  10.493   2.643  10.256  0.2176  0.0983  0.0238
20918SOL    HW266032  10.490   2.731  10.379 -0.5528  1.1799 -0.7510
20919SOL     OW66033   6.544   9.316  10.785 -0.2047 -0.8704  0.3753
20919SOL    HW166034   6.471   9.349  10.837 -0.1543 -0.8706  0.4459
20919SOL    HW266035   6.620   9.363  10.817 -0.1858 -0.8152  0.2489
20920SOL     OW66036   5.691   5.723   3.657  0.4628  0.1833  0.1247
20920SOL    HW166037   5.735   5.683   3.581  0.1015  0.3588 -0.1808
20920SOL    HW266038   5.762   5.742   3.718  1.0308  1.7826 -0.9620
20921SOL     OW66039   8.476   8.208   8.186 -0.0383 -0.2193 -0.4289
20921SOL    HW166040   8.464   8.276   8.253 -0.2995  0.0661 -0.7674
20921SOL    HW266041   8.402   8.148   8.199  1.4869 -1.8461  1.5115
20922SOL     OW66042   8.874   1.650   5.555  0.5591  0.6141 -0.1898
20922SOL    HW166043   8.892   1.627   5.464  0.7605  0.3980 -0.0977
20922SOL    HW266044   8.778   1.654   5.560  0.4974 -0.4070 -0.1712
20923SOL     OW66045   4.154  10.683   7.087 -0.6302  0.9381  0.4241
20923SOL    HW166046   4.198  10.641   7.161 -0.2703  0.5039 -0.0218
20923SOL    HW266047   4.153  10.776   7.109 -0.8145  0.7763  1.1165
20924SOL     OW66048   8.827   6.917   1.896 -0.9396  0.6425 -0.5847
20924SOL    HW166049   8.917   6.915   1.863 -1.0391  0.9591 -0.8758
20924SOL    HW266050   8.836   6.944   1.987 -0.6058 -0.8674 -0.1347
20925SOL     OW66051   2.736   2.336   9.099  0.0144  0.1611  0.6022
20925SOL    HW166052   2.797   2.290   9.157  0.4254  2.6476  2.3033
20925SOL    HW266053   2.741   2.288   9.016  2.4681 -1.1436  1.3976
20926SOL     OW66054   2.222   1.205   8.852  0.0122  0.1099  0.0366
20926SOL    HW166055   2.221   1.109   8.854  0.5108  0.0880 -0.5744
20926SOL    HW266056   2.233   1.227   8.760 -3.2999  0.8150 -0.3150
20927SOL     OW66057   2.419  10.789   6.826  0.3709 -0.3719  0.8203
20927SOL    HW166058   2.396  10.697   6.808  0.5043 -0.3111  0.3482
20927SOL    HW266059   2.454  10.787   6.915 -1.1535 -0.5283  1.4597
20928SOL     OW66060   0.790  10.441   0.882 -0.4740 -0.9377  0.4358
20928SOL    HW166061   0.863  10.425   0.942 -1.0168  0.0663  1.3987
20928SOL    HW266062   0.806  10.381   0.809  1.8248 -0.1108  0.1700
20929SOL     OW66063   1.296   3.498   8.079 -0.3873 -0.3160  0.2646
20929SOL    HW166064   1.376   3.551   8.083 -1.8190  1.9344  0.4632
20929SOL    HW266065   1.302   3.440   8.155  1.0847 -0.2887  0.2008
20930SOL     OW66066   4.628   7.225   6.766  0.3132 -0.1107  0.1237
20930SOL    HW166067   4.615   7.201   6.675 -0.3818  0.9094 -0.0496
20930SOL    HW266068   4.708   7.278   6.766  1.1940 -1.3942  0.3454
20931SOL     OW66069   1.456   3.176   9.986  0.0882  0.7526  0.5335
20931SOL    HW166070   1.377   3.137   9.949  1.2731  0.2846 -1.7057
20931SOL    HW266071   1.483   3.116  10.055  0.0339 -0.6308 -0.6134
20932SOL     OW66072   9.894   6.968   9.882 -0.4897  0.0100 -0.5636
20932SOL    HW166073   9.943   6.964   9.800  3.1547 -2.0203  1.4499
20932SOL    HW266074   9.870   6.878   9.901  1.1325 -0.0502  1.7428
20933SOL     OW66075   7.252   0.491   6.243  0.0550 -0.4552  0.7110
20933SOL    HW166076   7.181   0.513   6.304  0.1316 -1.6399  1.2597
20933SOL    HW266077   7.261   0.568   6.188 -1.9058 -0.4035  0.3944
20934SOL     OW66078   7.323   6.309   1.225 -0.9447  0.7016  0.4755
20934SOL    HW166079   7.282   6.317   1.311  0.2348  0.8866  1.0361
20934SOL    HW266080   7.347   6.216   1.218 -3.4658  0.0433 -0.8327
20935SOL     OW66081   8.041  10.655   3.032  0.4392 -0.2489  0.1685
20935SOL    HW166082   7.959  10.631   2.989  0.5098  2.1202 -1.4182
20935SOL    HW266083   8.046  10.750   3.024  2.1309 -0.0491  2.5042
20936SOL     OW66084   9.508   6.761   8.860 -0.3581  0.3674  0.7117
20936SOL    HW166085   9.590   6.760   8.909  0.2307 -0.5293 -0.2601
20936SOL    HW266086   9.452   6.698   8.904 -0.4623  0.8423  1.2646
20937SOL     OW66087   2.714   9.472   2.246 -0.3622  0.2557 -0.3373
20937SOL    HW166088   2.650   9.505   2.309 -0.9459 -1.4683 -0.0006
20937SOL    HW266089   2.680   9.388   2.218  0.3787  0.5525 -2.2701
20938SOL     OW66090   5.542   2.735   8.396 -0.7497  0.1829 -0.0330
20938SOL    HW166091   5.523   2.814   8.446  1.1588  0.7455 -0.0934
20938SOL    HW266092   5.612   2.761   8.336  0.6724 -1.7690  0.6681
20939SOL     OW66093   5.483  10.045   4.002 -0.2199 -0.4074  0.2393
20939SOL    HW166094   5.424  10.120   4.005 -1.6395 -1.4865  0.6993
20939SOL    HW266095   5.566  10.077   4.037 -0.2361  1.3732 -1.2127
20940SOL     OW66096   4.668   8.090   7.426  0.4048 -0.2425  0.0266
20940SOL    HW166097   4.582   8.080   7.467  1.5179 -0.3510  2.5166
20940SOL    HW266098   4.702   8.173   7.461  0.3274  1.1866 -2.9768
20941SOL     OW66099   3.542   3.791   2.320  0.5924  0.2129  0.1100
20941SOL    HW166100   3.606   3.725   2.347 -1.2696 -1.4550  0.6472
20941SOL    HW266101   3.586   3.840   2.251  2.9503  0.0727  1.4174
20942SOL     OW66102   4.141   3.379  10.918 -0.4354  0.0506 -0.3488
20942SOL    HW166103   4.113   3.427  10.996 -0.1944 -2.1459  1.1608
20942SOL    HW266104   4.222   3.423  10.891  1.2100 -0.9522  2.5285
20943SOL     OW66105   3.111   5.549   0.668 -0.1508 -0.1136  0.0975
20943SOL    HW166106   3.118   5.504   0.752  1.4055  0.9203  0.5709
20943SOL    HW266107   3.198   5.588   0.654 -0.8840  1.2020 -1.1375
20944SOL     OW66108   7.985  10.959   0.589  0.0459  0.5421  0.0466
20944SOL    HW166109   8.039  11.024   0.544  1.5620 -1.0336 -0.5173
20944SOL    HW266110   7.898  10.969   0.549  0.1072  2.4747  0.2938
20945SOL     OW66111   2.503   6.234   7.242  0.2124 -0.2080  0.5110
20945SOL    HW166112   2.534   6.222   7.152 -1.5318 -0.8058 -0.0510
20945SOL    HW266113   2.550   6.167   7.293  1.2300  0.1528  0.0761
20946SOL     OW66114   6.220   2.765   5.790 -0.0132  0.3285  0.2382
20946SOL    HW166115   6.171   2.709   5.729 -1.3291  0.7274  0.8718
20946SOL    HW266116   6.306   2.725   5.796 -0.5851 -1.0233 -0.1440
20947SOL     OW66117  11.053   6.302   0.577  0.7168 -0.2017 -0.4667
20947SOL    HW166118  11.046   6.338   0.489 -1.8961  0.2467 -0.1604
20947SOL    HW266119  11.067   6.208   0.564  1.4788  0.0133 -1.3217
20948SOL     OW66120   6.547   6.132   5.433  0.6179  0.0007  0.4873
20948SOL    HW166121   6.528   6.147   5.525 -1.5451 -2.6150  0.5826
20948SOL    HW266122   6.461   6.133   5.390  1.5710  1.2137 -1.5544
20949SOL     OW66123   2.052   2.799   4.611  0.2455 -0.2522  0.0792
20949SOL    HW166124   2.147   2.798   4.607  0.2162 -0.2576 -0.8089
20949SOL    HW266125   2.024   2.797   4.519 -0.6000  0.4871  0.3079
20950SOL     OW66126  10.664   3.676   3.548 -0.6416 -0.2003 -0.1137
20950SOL    HW166127  10.630   3.755   3.590 -0.5734 -0.3738  0.2647
20950SOL    HW266128  10.594   3.648   3.489 -0.8874 -0.1794  0.1717
20951SOL     OW66129   0.438   5.799   3.000  0.0128 -0.2107  0.1564
20951SOL    HW166130   0.472   5.888   2.994 -0.9757  0.1386 -0.4079
20951SOL    HW266131   0.348   5.805   2.969 -0.7649 -1.0284  2.0870
20952SOL     OW66132   5.639   4.609   2.073  0.0639  0.2684 -0.3356
20952SOL    HW166133   5.701   4.550   2.031 -0.0754  0.1362 -0.3551
20952SOL    HW266134   5.555   4.592   2.030 -0.3066 -0.6069  0.6743
20953SOL     OW66135   7.936  10.571   8.400  0.0484 -0.8627 -0.3294
20953SOL    HW166136   8.013  10.548   8.453  1.3262  1.7699 -0.8566
20953SOL    HW266137   7.968  10.639   8.341 -2.7797  0.6020 -0.3192
20954SOL     OW66138   7.950   8.618  11.289  0.2683 -0.5422  0.1265
20954SOL    HW166139   7.866   8.577  11.311  0.2392 -1.6829 -1.9526
20954SOL    HW266140   8.014   8.570  11.342 -0.2147 -0.5930  0.6834
20955SOL     OW66141   2.487  11.206  10.073  0.1017  0.0848 -0.0970
20955SOL    HW166142   2.548  11.218  10.001 -0.2283  0.1339 -0.3709
20955SOL    HW266143   2.472  11.111  10.076 -0.3338  0.1407 -0.4675
20956SOL     OW66144   6.469   0.354  11.234 -0.2433 -0.0353 -0.2738
20956SOL    HW166145   6.390   0.381  11.280 -0.0449 -1.6475  1.1258
20956SOL    HW266146   6.444   0.351  11.142 -2.0654 -1.3182  0.2225
20957SOL     OW66147   3.222   5.899   3.029 -0.5963  0.6323 -0.3991
20957SOL    HW166148   3.193   5.834   2.965 -0.6414 -2.4138  2.4681
20957SOL    HW266149   3.152   5.902   3.094  0.5491  1.6830  0.8658
20958SOL     OW66150   1.004   4.771   1.501  0.0460  0.0221  0.6016
20958SOL    HW166151   0.973   4.694   1.454  0.8275  0.6752 -1.1010
20958SOL    HW266152   0.925   4.822   1.519 -0.3021 -0.3826  0.2194
20959SOL     OW66153   0.670   3.710   8.227  0.0526  0.8495 -0.6540
20959SOL    HW166154   0.605   3.777   8.245 -1.3611  0.3376 -3.3264
20959SOL    HW266155   0.624   3.645   8.174  2.1141 -0.8145 -0.5645
20960SOL     OW66156   0.289   2.331   4.095  0.6441 -0.1723  0.5580
20960SOL    HW166157   0.314   2.345   4.186 -0.9252  0.0923  0.9732
20960SOL    HW266158   0.320   2.410   4.050  0.3160  0.2725  1.0978
20961SOL     OW66159   4.781   6.455   7.070  0.1421 -0.3411  0.0949
20961SOL    HW166160   4.707   6.395   7.057 -0.7988  0.9038 -0.4970
20961SOL    HW266161   4.740   6.538   7.096  1.4456 -0.1268  1.6420
20962SOL     OW66162   5.087   9.861   3.468 -0.1823 -0.0325 -0.0788
20962SOL    HW166163   5.129   9.947   3.473  0.2255 -0.1552 -1.0395
20962SOL    HW266164   5.045   9.860   3.382 -1.3902 -0.2656  0.5046
20963SOL     OW66165   3.979   5.151   5.950  0.2624  0.2361  0.2325
20963SOL    HW166166   3.956   5.110   5.867  0.2827  0.9625 -0.1434
20963SOL    HW266167   4.074   5.156   5.949  0.2347  0.9060 -0.0430
20964SOL     OW66168   9.495   8.022   7.138 -0.0998  0.1315  0.3542
20964SOL    HW166169   9.581   7.994   7.109  0.9826  2.9435  0.5665
20964SOL    HW266170   9.493   8.001   7.231  0.2137 -0.2122  0.2863
20965SOL     OW66171  10.985  10.968   1.744  0.3997 -0.2170  0.1442
20965SOL    HW166172  11.080  10.972   1.753  0.4442 -0.1665 -0.3168
20965SOL    HW266173  10.951  10.985   1.832  0.7840  0.8781  0.0947
20966SOL     OW66174   3.515   0.147  10.857  0.8198 -0.1507 -0.0716
20966SOL    HW166175   3.510   0.111  10.946 -1.6609 -1.7860 -0.7637
20966SOL    HW266176   3.575   0.089  10.811  2.5315  1.0067  0.5705
20967SOL     OW66177   9.521   6.486  10.073  0.2808  0.0504 -0.2082
20967SOL    HW166178   9.524   6.478  10.168  0.4862 -1.3891 -0.3088
20967SOL    HW266179   9.428   6.498  10.052 -0.1624 -2.3192  0.0487
20968SOL     OW66180   4.689   6.103   4.580  0.1321 -0.1056  0.1100
20968SOL    HW166181   4.729   6.172   4.525 -0.2592  0.9161  1.0676
20968SOL    HW266182   4.620   6.149   4.628 -0.7716 -1.3930  0.0732
20969SOL     OW66183   5.571  11.235   9.406 -0.2669 -0.3878 -0.3740
20969SOL    HW166184   5.557  11.167   9.472  0.7966  1.5370  2.0044
20969SOL    HW266185   5.644  11.203   9.354 -0.8995 -1.8122 -0.4252
20970SOL     OW66186   6.424   4.869   5.797  0.3881  0.2082  0.1049
20970SOL    HW166187   6.358   4.817   5.843  2.1135 -1.5428  0.7555
20970SOL    HW266188   6.388   4.881   5.709 -2.0760  1.9110  1.2355
20971SOL     OW66189   3.041   1.406  10.687 -0.4636  0.3738 -0.1286
20971SOL    HW166190   3.041   1.501  10.689  1.1340  0.3918  1.0401
20971SOL    HW266191   2.949   1.382  10.675 -1.2821  2.0619  2.0471
20972SOL     OW66192  11.212  11.369   3.248  0.7543  0.2613  0.6523
20972SOL    HW166193  11.251  11.370   3.336 -0.4108  1.7215  1.1870
20972SOL    HW266194  11.218  11.459   3.218 -0.1494  0.0588 -0.1753
20973SOL     OW66195   8.320   7.863   7.426 -0.1908  0.3247 -0.4484
20973SOL    HW166196   8.358   7.784   7.466 -0.3846  0.7489  0.6026
20973SOL    HW266197   8.290   7.834   7.340  0.7974 -0.4723 -0.5474
20974SOL     OW66198   9.366   8.075   3.406 -0.3057 -0.0978 -0.4981
20974SOL    HW166199   9.349   8.005   3.343  0.9522 -2.4029  1.5385
20974SOL    HW266200   9.327   8.043   3.488  1.0076  1.1990  0.6857
20975SOL     OW66201   3.821   0.573   1.624 -0.0487 -0.5042 -0.2056
20975SOL    HW166202   3.766   0.650   1.606 -0.5674 -0.8112  0.0474
20975SOL    HW266203   3.784   0.535   1.704 -0.2316 -1.4167 -0.7151
20976SOL     OW66204   3.394   5.354   8.728  0.3297  0.4549 -0.3911
20976SOL    HW166205   3.408   5.260   8.739  1.0274  0.6854  0.8349
20976SOL    HW266206   3.300   5.366   8.743  0.6882  0.3205  2.7032
20977SOL     OW66207   9.038   3.437   8.772 -0.2592 -0.2921 -0.2574
20977SOL    HW166208   8.991   3.401   8.847 -1.1518  1.3115 -0.0011
20977SOL    HW266209   9.127   3.401   8.780 -0.4785 -0.5744  1.2620
20978SOL     OW66210   3.113   6.339   3.325 -0.2146 -0.3398 -0.0978
20978SOL    HW166211   3.138   6.261   3.276  0.4430 -0.1999  0.0147
20978SOL    HW266212   3.119   6.410   3.261 -2.4458 -0.5826 -0.6762
20979SOL     OW66213  10.803   6.773   1.101  0.0352  0.3118  0.1708
20979SOL    HW166214  10.709   6.754   1.103 -0.0577  0.8115  1.0198
20979SOL    HW266215  10.810   6.863   1.134  0.6871  0.8128 -1.2228
20980SOL     OW66216  10.621  10.355   2.655 -0.4652  0.1407 -0.4685
20980SOL    HW166217  10.652  10.313   2.735  0.7420 -0.0815 -1.0190
20980SOL    HW266218  10.684  10.327   2.588 -1.2188  0.6424 -1.4060
20981SOL     OW66219   6.792   9.413   0.876  0.0812  0.2467  0.3238
20981SOL    HW166220   6.884   9.430   0.858 -0.3970  0.7351 -1.9397
20981SOL    HW266221   6.763   9.490   0.926  0.6840  0.5297  0.2383
20982SOL     OW66222  10.770   9.389  11.074  0.1233  0.0444  0.0121
20982SOL    HW166223  10.859   9.360  11.098  0.0471 -0.3398 -0.1542
20982SOL    HW266224  10.726   9.308  11.048 -0.3236  0.2149  0.2404
20983SOL     OW66225   5.658   5.186   9.671  0.9012 -0.1143 -0.1565
20983SOL    HW166226   5.672   5.121   9.740 -0.5890 -0.8955 -0.5400
20983SOL    HW266227   5.708   5.263   9.699  0.2265 -0.3590  1.8577
20984SOL     OW66228   8.522   3.512   6.662 -0.1791  0.0702 -0.5552
20984SOL    HW166229   8.535   3.464   6.581 -0.9654 -1.5112  0.2157
20984SOL    HW266230   8.582   3.587   6.656  2.1974 -1.7681 -1.1585
20985SOL     OW66231   2.579   2.019   9.660  0.1409 -0.4282 -0.8303
20985SOL    HW166232   2.552   1.953   9.723  3.1884 -1.5016 -0.4867
20985SOL    HW266233   2.562   1.979   9.575 -1.2682 -0.1578 -0.7016
20986SOL     OW66234   0.417   0.495   7.621  0.3850 -0.0933 -0.3328
20986SOL    HW166235   0.372   0.512   7.704 -0.0983 -2.3677 -0.0693
20986SOL    HW266236   0.499   0.543   7.627 -0.0155  0.4351  1.1171
20987SOL     OW66237   3.834   3.606  10.588  0.2092 -0.1733  0.0904
20987SOL    HW166238   3.786   3.656  10.522  0.2215 -0.3603 -0.0614
20987SOL    HW266239   3.775   3.604  10.663 -0.7888 -1.8977 -0.6899
20988SOL     OW66240   9.756   0.049   0.256  0.2160  0.4696 -0.5046
20988SOL    HW166241   9.699  -0.028   0.253  3.0305 -1.8182  0.4218
20988SOL    HW266242   9.771   0.064   0.349  1.5336  0.6746 -0.7367
20989SOL     OW66243   0.921   4.862  11.382 -0.2119  0.1117  0.2295
20989SOL    HW166244   0.845   4.815  11.346  1.6452 -0.7108 -3.0007
20989SOL    HW266245   0.938   4.818  11.465 -1.6367 -1.5055 -0.2567
20990SOL     OW66246   9.577   2.880   7.097  0.0617  0.3627  0.3515
20990SOL    HW166247   9.598   2.827   7.173  0.7212 -1.6633 -1.1437
20990SOL    HW266248   9.521   2.824   7.043  3.1258 -0.0902 -2.6772
20991SOL     OW66249   4.637   8.745   3.640  0.6255  0.2977  0.0440
20991SOL    HW166250   4.591   8.670   3.601 -1.2739  0.9940  0.8521
20991SOL    HW266251   4.617   8.818   3.582 -0.0756  0.7908  0.8821
20992SOL     OW66252   6.091   2.231   3.767 -0.9728  0.1958  0.1679
20992SOL    HW166253   6.119   2.317   3.736  1.1548 -1.0699 -1.7095
20992SOL    HW266254   6.004   2.246   3.804 -0.3210  3.2799  0.7280
20993SOL     OW66255   3.003   8.472   9.315 -0.2025  0.2492  0.4723
20993SOL    HW166256   2.963   8.495   9.399  0.5020  0.8784  0.6438
20993SOL    HW266257   3.066   8.542   9.298  0.0895 -0.1864 -0.2972
20994SOL     OW66258   6.102   4.288   2.571  0.6799 -1.0052 -0.4456
20994SOL    HW166259   6.049   4.367   2.560 -0.5031 -1.4717  1.4618
20994SOL    HW266260   6.067   4.226   2.507 -1.7431 -1.5907  1.3279
20995SOL     OW66261   6.983   2.773   2.969  0.7667 -0.0967  0.0837
20995SOL    HW166262   6.919   2.719   2.923  0.8417  0.9849 -1.3715
20995SOL    HW266263   7.061   2.718   2.976  0.1446 -0.9245  0.5911
20996SOL     OW66264  10.315   1.573   4.776  0.1142 -0.6312  0.5069
20996SOL    HW166265  10.236   1.626   4.769  0.3453 -0.4521 -1.1504
20996SOL    HW266266  10.368   1.616   4.843 -0.4923  0.1933  0.4644
20997SOL     OW66267  11.070   2.218  10.159 -0.9204 -0.2662 -0.0427
20997SOL    HW166268  11.000   2.216  10.224 -0.2305 -0.3636  0.7113
20997SOL    HW266269  11.037   2.164  10.087 -2.0175  0.4869 -0.1377
20998SOL     OW66270   6.015   0.584   5.643  0.2916  0.2337 -0.0127
20998SOL    HW166271   6.002   0.660   5.586  2.5857  1.1226  0.5186
20998SOL    HW266272   5.927   0.560   5.672 -0.7061  1.2089 -2.0574
20999SOL     OW66273   0.922   1.542   4.299 -0.6034 -0.2050  0.8842
20999SOL    HW166274   0.888   1.585   4.220  0.4557 -0.5734  0.1938
20999SOL    HW266275   0.886   1.592   4.372 -2.2135 -0.3129  0.1882
21000SOL     OW66276   0.196   4.571   3.496 -0.0064 -0.9965  0.1492
21000SOL    HW166277   0.233   4.656   3.474  0.7784 -0.6856  2.4193
21000SOL    HW266278   0.112   4.591   3.538  0.2883 -1.3050  0.9057
21001SOL     OW66279   8.730   0.034   7.625  0.5037 -0.1133 -0.0067
21001SOL    HW166280   8.682   0.102   7.673 -1.0738 -1.0580 -0.1943
21001SOL    HW266281   8.691  -0.048   7.654 -0.3731 -0.7297 -2.7149
21002SOL     OW66282   5.516   5.284   6.150  0.4327 -0.3627 -0.4546
21002SOL    HW166283   5.555   5.369   6.169  2.1485 -0.8996 -1.3359
21002SOL    HW266284   5.431   5.286   6.195  0.8901  1.3810  0.4425
21003SOL     OW66285   9.250  11.392   4.334  0.2828  0.2630 -0.5338
21003SOL    HW166286   9.300  11.363   4.410 -0.1134  0.3577 -0.2295
21003SOL    HW266287   9.313  11.437   4.279  0.0776  2.6940  1.0509
21004SOL     OW66288   5.244   6.657   1.684  1.4283 -0.1870 -0.6182
21004SOL    HW166289   5.276   6.640   1.596  1.5254 -0.6342 -0.4987
21004SOL    HW266290   5.304   6.609   1.741  0.9221 -0.5185 -0.3542
21005SOL     OW66291   9.993   4.072   4.183 -0.2642 -0.2115 -0.8907
21005SOL    HW166292   9.928   4.009   4.149 -1.4825  0.8940 -0.7081
21005SOL    HW266293  10.014   4.127   4.107  0.5496 -0.6088 -0.9670
21006SOL     OW66294   3.283  10.064   4.914 -0.2714  0.6547 -0.1329
21006SOL    HW166295   3.373  10.036   4.930  0.9899  3.5793 -1.3018
21006SOL    HW266296   3.234   9.983   4.902  1.9824 -1.0755  1.4310
21007SOL     OW66297  10.300   6.194   6.351 -0.4028  0.5875  0.1064
21007SOL    HW166298  10.308   6.281   6.311  0.7738  0.0062 -1.0126
21007SOL    HW266299  10.353   6.199   6.431  0.2833  0.7100 -0.3420
21008SOL     OW66300   3.803   0.477  10.934 -0.1893  0.2437 -0.0690
21008SOL    HW166301   3.725   0.486  10.988  0.2209 -2.6540  1.2219
21008SOL    HW266302   3.859   0.551  10.958 -0.4631 -0.3765  2.8106
21009SOL     OW66303   9.398  10.716   1.512 -0.0955 -0.7306 -0.3679
21009SOL    HW166304   9.356  10.631   1.500 -0.3797 -0.5356 -0.7907
21009SOL    HW266305   9.381  10.763   1.431  0.1793 -0.3180 -0.1928
21010SOL     OW66306   1.504   9.028  11.220  0.6794  0.4320  0.1308
21010SOL    HW166307   1.535   9.098  11.163  0.1388 -0.8297 -1.8005
21010SOL    HW266308   1.577   9.014  11.281  0.8659  2.5165  0.4681
21011SOL     OW66309   7.380   2.902   8.189  0.0595  0.4670  0.0031
21011SOL    HW166310   7.308   2.893   8.126 -0.4621 -0.7976  0.7373
21011SOL    HW266311   7.459   2.891   8.136 -0.3434  0.3326 -0.5782
21012SOL     OW66312  11.028  10.582   9.712  0.4718  0.8338 -0.1203
21012SOL    HW166313  10.949  10.546   9.671  0.1829  1.6289 -0.2693
21012SOL    HW266314  11.099  10.560   9.651  0.5094 -0.5861  0.3959
21013SOL     OW66315   5.458   3.649   1.656 -0.4097 -0.0998  0.1074
21013SOL    HW166316   5.401   3.718   1.621  1.1263  1.4064  0.4318
21013SOL    HW266317   5.457   3.662   1.751  0.0057 -0.4110  0.1595
21014SOL     OW66318  11.327   7.081   8.125  0.8886  0.2709 -0.0377
21014SOL    HW166319  11.399   7.023   8.151  1.5060 -0.4105 -2.9442
21014SOL    HW266320  11.370   7.164   8.104  0.0287  1.9802  3.9359
21015SOL     OW66321   0.721   3.539   1.514  0.6651  0.4876  0.5889
21015SOL    HW166322   0.650   3.565   1.573  0.2442  1.5251 -0.3202
21015SOL    HW266323   0.796   3.524   1.571  0.1213  0.9205  1.4334
21016SOL     OW66324   1.480   8.767   9.183  0.1631 -0.4338 -0.3821
21016SOL    HW166325   1.409   8.779   9.246 -1.2977  0.5375 -2.1010
21016SOL    HW266326   1.443   8.707   9.118  1.3604 -0.8521 -0.6975
21017SOL     OW66327   9.323   0.610   8.400  0.5839 -0.3103 -0.2050
21017SOL    HW166328   9.338   0.658   8.318  0.3169 -1.5016 -0.9822
21017SOL    HW266329   9.230   0.588   8.398  0.8465 -1.5002 -0.2498
21018SOL     OW66330   4.226   0.256   8.460  0.2265 -0.4978  0.2978
21018SOL    HW166331   4.138   0.231   8.488  0.2286 -1.2261 -0.3019
21018SOL    HW266332   4.227   0.238   8.366  0.9697 -0.3514  0.2700
21019SOL     OW66333  10.985   5.732   2.233 -0.0137  0.0512  0.7518
21019SOL    HW166334  10.896   5.704   2.257  0.0142 -0.3534  0.3817
21019SOL    HW266335  11.014   5.783   2.309 -0.1525 -0.7260  1.3473
21020SOL     OW66336   4.579   2.528   1.017 -0.1531 -0.0794  1.0037
21020SOL    HW166337   4.569   2.548   1.110 -1.1989 -0.5535  1.0101
21020SOL    HW266338   4.515   2.585   0.974  1.9646  1.9468  0.2932
21021SOL     OW66339   5.089   1.382   3.338  0.2839  0.4983 -0.2108
21021SOL    HW166340   5.182   1.392   3.317  0.2640  0.7192 -0.1929
21021SOL    HW266341   5.089   1.346   3.427  0.3723 -0.6010 -0.6334
21022SOL     OW66342   3.161   8.989   9.273  0.6197 -0.4639 -0.3653
21022SOL    HW166343   3.230   8.997   9.206 -1.1016 -0.5220 -2.2399
21022SOL    HW266344   3.154   8.895   9.290  1.5172 -0.3980  0.4285
21023SOL     OW66345   9.466   8.112   6.845 -0.8022  0.3937  0.5699
21023SOL    HW166346   9.491   8.089   6.935 -1.5166 -1.5611  0.3074
21023SOL    HW266347   9.442   8.205   6.850 -0.7091  0.3557  2.3597
21024SOL     OW66348   2.817   3.263   8.385  0.0984  0.0399  0.0114
21024SOL    HW166349   2.909   3.275   8.408  0.0912 -0.2998  0.2220
21024SOL    HW266350   2.778   3.349   8.397 -0.3642 -0.4950  3.3656
21025SOL     OW66351   6.764   4.572   6.098 -0.0934 -0.3663  0.1448
21025SOL    HW166352   6.812   4.653   6.081 -1.4545  1.0290  2.4208
21025SOL    HW266353   6.707   4.561   6.022 -0.0774  0.9711 -0.0724
21026SOL     OW66354  10.499   6.537   3.377  0.5350  0.1806 -0.1337
21026SOL    HW166355  10.486   6.450   3.340  1.2206 -0.8076  1.8416
21026SOL    HW266356  10.589   6.538   3.409  1.1048  2.2257 -1.5477
21027SOL     OW66357   8.971   4.042   1.936 -0.3263  0.7432  0.0311
21027SOL    HW166358   9.024   3.987   1.994  1.0617  2.3492  0.3643
21027SOL    HW266359   8.904   3.983   1.902  0.1203 -0.7549  1.6025
21028SOL     OW66360   9.537   9.774   0.175  0.2588  0.3281 -0.1437
21028SOL    HW166361   9.451   9.800   0.144  0.2000  0.1861 -0.0996
21028SOL    HW266362   9.595   9.846   0.150  0.3484 -0.0970 -1.2230
21029SOL     OW66363   8.893   5.473   8.060  0.4729 -0.6139 -0.0957
21029SOL    HW166364   8.806   5.491   8.095  0.9131  0.1154  0.6710
21029SOL    HW266365   8.877   5.419   7.982 -0.6204 -0.9926  0.3655
21030SOL     OW66366  10.348   1.164   4.940 -0.1582  1.0454  1.1334
21030SOL    HW166367  10.426   1.183   4.888 -0.3964 -1.9321 -0.5161
21030SOL    HW266368  10.277   1.205   4.891 -0.3173 -1.3277 -0.7959
21031SOL     OW66369   5.751   2.003   7.499 -0.1061 -0.6399  0.3110
21031SOL    HW166370   5.732   2.097   7.496 -1.1820 -0.8383  0.5261
21031SOL    HW266371   5.694   1.965   7.432  0.5796 -1.1109 -0.0200
21032SOL     OW66372   3.123   7.325   5.984 -0.1244  0.7452  0.1971
21032SOL    HW166373   3.062   7.336   5.911 -0.7234 -0.5535  0.4753
21032SOL    HW266374   3.081   7.261   6.041  1.3901 -0.0176  0.5133
21033SOL     OW66375   8.352   7.243   6.268 -0.2062 -0.4327  0.5028
21033SOL    HW166376   8.285   7.307   6.247  0.6048  0.3691  0.3140
21033SOL    HW266377   8.389   7.273   6.352  0.2827 -0.5477  0.3364
21034SOL     OW66378  11.344   4.471  11.070  0.2374  0.2285  0.1239
21034SOL    HW166379  11.334   4.562  11.098  0.0293  0.1740  0.2238
21034SOL    HW266380  11.283   4.462  10.997 -1.4564 -0.4642  1.5432
21035SOL     OW66381  11.028   9.689   8.245 -0.0833 -0.2390  0.5298
21035SOL    HW166382  11.040   9.689   8.340  0.3292 -0.2408  0.4778
21035SOL    HW266383  11.112   9.719   8.210 -0.6775  1.1585  0.2214
21036SOL     OW66384  11.001   7.922   0.813  0.1571 -0.2478  0.0585
21036SOL    HW166385  10.947   7.847   0.786  0.2469  0.2310 -1.5787
21036SOL    HW266386  10.937   7.986   0.844 -0.3263  0.4604 -2.2200
21037SOL     OW66387   9.560   0.306   0.223  0.1640  0.7367  0.1607
21037SOL    HW166388   9.618   0.232   0.203  0.9731  1.9065 -2.1974
21037SOL    HW266389   9.619   0.375   0.253 -0.3214  1.0900  0.2990
21038SOL     OW66390   6.990   0.931   7.720  0.4432 -0.6512 -0.0735
21038SOL    HW166391   6.925   0.860   7.715 -0.1410 -0.2964  1.5767
21038SOL    HW266392   7.058   0.897   7.777 -0.2965  0.3954  1.5135
21039SOL     OW66393   9.877   9.531   4.913 -0.1026 -0.5556 -0.3266
21039SOL    HW166394   9.878   9.597   4.844 -1.3023  0.6526  0.7568
21039SOL    HW266395   9.964   9.536   4.953  0.0589 -0.1566 -0.7272
21040SOL     OW66396   2.837   2.541   1.853  0.5924 -0.7664 -0.5133
21040SOL    HW166397   2.861   2.496   1.934  0.1094  0.6241  0.4454
21040SOL    HW266398   2.786   2.477   1.804  2.6115 -2.3389 -0.6929
21041SOL     OW66399   0.972   4.151  11.293 -0.0911  0.1726 -0.3691
21041SOL    HW166400   1.049   4.099  11.270 -0.3382 -1.0188  1.3360
21041SOL    HW266401   1.005   4.216  11.354 -0.0396  1.1851 -1.4460
21042SOL     OW66402   3.162   2.709   1.642  0.5587 -0.2712 -0.3710
21042SOL    HW166403   3.241   2.658   1.659  0.6533  0.5018  1.7692
21042SOL    HW266404   3.192   2.800   1.637  0.0402 -0.1402 -1.5776
21043SOL     OW66405   7.086   2.840   0.637 -0.0424 -0.3679 -0.4769
21043SOL    HW166406   6.991   2.849   0.640 -0.1555 -1.6855  1.0402
21043SOL    HW266407   7.117   2.885   0.715  0.4819 -0.8491 -0.3987
21044SOL     OW66408   0.002   5.441   4.029  0.1321  0.4809 -0.3400
21044SOL    HW166409  -0.092   5.460   4.033 -0.2117 -1.2341  1.4087
21044SOL    HW266410   0.043   5.515   4.074 -0.4396  0.9016 -0.4958
21045SOL     OW66411  10.645   3.332   8.309 -0.1661  0.0048 -0.5887
21045SOL    HW166412  10.628   3.410   8.256 -1.3651  0.0889 -0.1117
21045SOL    HW266413  10.566   3.279   8.300 -0.0354 -0.3776  0.4089
21046SOL     OW66414   4.294   2.239   9.870  0.0662  0.4430 -0.4102
21046SOL    HW166415   4.386   2.213   9.871  0.2827  1.0612 -1.7689
21046SOL    HW266416   4.275   2.258   9.778 -1.6483 -0.4244 -0.2689
21047SOL     OW66417   0.017   6.880   4.230 -0.2377  0.1504 -0.5343
21047SOL    HW166418   0.099   6.900   4.275 -1.6071  1.8294  1.4062
21047SOL    HW266419   0.043   6.835   4.150  2.5219  0.1754  0.2723
21048SOL     OW66420   9.168   5.780   8.685  0.1464 -0.8351  0.0024
21048SOL    HW166421   9.098   5.845   8.683  0.9654  0.0490 -1.2273
21048SOL    HW266422   9.243   5.824   8.645  1.8109 -1.3349  2.3289
21049SOL     OW66423   6.673   7.923   8.693  0.4370  0.5922  0.5145
21049SOL    HW166424   6.600   7.983   8.710 -0.5572 -0.1241 -0.9421
21049SOL    HW266425   6.684   7.875   8.774 -0.3654  1.0880  0.9325
21050SOL     OW66426   0.184   8.446   2.276 -0.0639  0.4703  0.8698
21050SOL    HW166427   0.226   8.413   2.196 -1.0985 -2.3236  1.3986
21050SOL    HW266428   0.256   8.485   2.326  0.6887  1.8520 -1.1366
21051SOL     OW66429   8.288   9.690   3.622  0.4058  0.4255 -0.7071
21051SOL    HW166430   8.268   9.614   3.677 -1.3314  0.3214 -1.4346
21051SOL    HW266431   8.373   9.720   3.654  0.2569 -0.6786  0.8555
21052SOL     OW66432   7.826   0.090   2.733 -0.0055 -0.1487 -0.5932
21052SOL    HW166433   7.844   0.126   2.820 -0.4977 -0.6207 -0.2907
21052SOL    HW266434   7.911   0.060   2.701  0.2290  0.3239 -0.4126
21053SOL     OW66435   0.335   3.406   0.024  0.8126  0.8532  0.2709
21053SOL    HW166436   0.275   3.387   0.096  0.4420  1.9502  0.2644
21053SOL    HW266437   0.381   3.323   0.009  1.3807  0.7514  2.2068
21054SOL     OW66438  10.985   5.793   1.698  0.1347  0.3599  0.2880
21054SOL    HW166439  10.949   5.829   1.779  2.6858  0.9266  1.2706
21054SOL    HW266440  10.917   5.808   1.632 -1.2797  1.5376  1.9282
21055SOL     OW66441   9.711   8.928   7.812 -0.0507  0.1774 -0.5895
21055SOL    HW166442   9.706   9.023   7.809  0.4703  0.3378  1.7143
21055SOL    HW266443   9.802   8.908   7.786 -0.3471  0.2216 -1.7303
21056SOL     OW66444   1.149   6.327  10.942 -0.8290  0.2373 -0.5543
21056SOL    HW166445   1.227   6.380  10.961  0.1089 -1.2603  0.0215
21056SOL    HW266446   1.109   6.313  11.028 -1.3740  0.4636 -0.7713
21057SOL     OW66447   1.701  10.150  11.151  0.5752 -0.1789  0.2555
21057SOL    HW166448   1.672  10.164  11.061  2.4360  0.0927 -0.3489
21057SOL    HW266449   1.718  10.238  11.185  1.2140 -0.3448  0.3813
21058SOL     OW66450   0.988   7.557   9.171 -0.2166  0.0938 -0.7400
21058SOL    HW166451   0.954   7.486   9.227 -0.5971  0.6442 -0.2662
21058SOL    HW266452   0.916   7.620   9.167  0.9030  1.5566  0.7551
21059SOL     OW66453   6.053   7.961   8.483  0.6062 -0.6642  0.1422
21059SOL    HW166454   6.148   7.972   8.475  0.5318 -0.8898 -1.4249
21059SOL    HW266455   6.016   8.039   8.442  0.1102 -0.8006  0.3223
21060SOL     OW66456   1.564   1.686   6.593  0.2877 -0.2028 -0.0232
21060SOL    HW166457   1.552   1.776   6.625 -0.7957 -0.2344 -0.2800
21060SOL    HW266458   1.658   1.677   6.580  0.5327  0.5187  1.0934
21061SOL     OW66459   1.604   8.560   5.838 -0.2730 -0.1796  0.3838
21061SOL    HW166460   1.669   8.492   5.853 -0.0328 -0.3002 -1.0568
21061SOL    HW266461   1.525   8.513   5.810 -0.5032  0.0523  0.6421
21062SOL     OW66462   2.783   4.109   0.807  0.2224  0.7093  0.0720
21062SOL    HW166463   2.744   4.187   0.768  0.0049  1.4113  1.6465
21062SOL    HW266464   2.745   4.036   0.757 -0.4133  1.5416 -0.6964
21063SOL     OW66465   2.881   1.164   0.507  0.1394  0.0856  0.4233
21063SOL    HW166466   2.860   1.082   0.462  0.6671 -0.4172  1.0719
21063SOL    HW266467   2.913   1.222   0.438  2.1367 -1.0825  0.2791
21064SOL     OW66468   6.079   3.116   0.871  0.3940 -0.2003 -0.0140
21064SOL    HW166469   5.987   3.132   0.891  0.6608  0.4612  0.7672
21064SOL    HW266470   6.078   3.057   0.796 -0.6655 -0.5381  0.2494
21065SOL     OW66471  10.326  11.104  10.520  0.4427  0.3981 -0.0090
21065SOL    HW166472  10.299  11.176  10.578 -0.8771 -0.3767  0.3835
21065SOL    HW266473  10.410  11.075  10.554 -0.3181 -0.0627  1.5799
21066SOL     OW66474   1.960   3.133   3.369  0.6057 -0.2479 -0.0601
21066SOL    HW166475   2.051   3.121   3.343  0.5092 -0.0874 -0.4721
21066SOL    HW266476   1.959   3.115   3.463  1.5712  2.4583  0.5360
21067SOL     OW66477   7.992   8.849   5.078  0.2498  0.3315 -0.3545
21067SOL    HW166478   7.983   8.769   5.025  1.2549  0.8447 -1.3235
21067SOL    HW266479   7.902   8.877   5.094 -0.0878 -0.3706 -0.9599
21068SOL     OW66480   1.708   2.788   3.864  0.7636  0.5761  0.2162
21068SOL    HW166481   1.788   2.737   3.872  0.1985  0.0063  3.9893
21068SOL    HW266482   1.641   2.724   3.839  1.0948  0.7219 -1.1365
21069SOL     OW66483   6.279   5.302   3.029  0.4321 -0.0960 -0.3735
21069SOL    HW166484   6.190   5.304   2.992 -0.0165  1.2074  0.6878
21069SOL    HW266485   6.271   5.345   3.114  1.5540 -2.5234  1.0478
21070SOL     OW66486   9.579   6.870   3.273  0.7946  0.1278 -0.2414
21070SOL    HW166487   9.579   6.952   3.224  2.3120  1.5736  2.0080
21070SOL    HW266488   9.497   6.871   3.323  1.5085  1.0639  0.9492
21071SOL     OW66489   8.585   0.115   0.893  0.1410  0.2756 -0.4004
21071SOL    HW166490   8.622   0.063   0.823 -0.4650 -0.8563  0.0942
21071SOL    HW266491   8.659   0.136   0.950  0.5674  0.8928 -1.1687
21072SOL     OW66492   2.819   0.296   9.761  0.0061 -0.2442  0.2432
21072SOL    HW166493   2.744   0.280   9.818 -0.4719  0.2171 -0.2455
21072SOL    HW266494   2.808   0.233   9.690 -0.1826  0.1499 -0.0771
21073SOL     OW66495   9.901   0.504   6.624 -0.1723  0.2762  0.0812
21073SOL    HW166496   9.908   0.419   6.668 -0.9841 -0.2194 -0.6924
21073SOL    HW266497   9.979   0.510   6.569  0.0791  0.2088  0.4306
21074SOL     OW66498   5.064   4.165   8.409  0.4041  0.8469 -0.8824
21074SOL    HW166499   5.048   4.087   8.462  0.4539  1.7115  0.4424
21074SOL    HW266500   4.985   4.174   8.355 -0.7157  1.2856  0.7598
21075SOL     OW66501   7.119   7.518   3.827  0.4657 -0.2999 -0.0277
21075SOL    HW166502   7.053   7.588   3.834 -0.2984 -1.1094  1.4678
21075SOL    HW266503   7.201   7.561   3.849  0.1584  0.3394 -0.1001
21076SOL     OW66504   1.914  10.761   4.285 -0.3685 -0.3347 -0.0054
21076SOL    HW166505   1.856  10.837   4.282 -1.2526 -1.0299 -1.7927
21076SOL    HW266506   1.985  10.783   4.225 -0.0738 -0.5147  0.2707
21077SOL     OW66507   5.099   9.809   6.184 -0.2651  0.2651  0.5403
21077SOL    HW166508   5.136   9.721   6.197  0.4752  0.4957  0.0702
21077SOL    HW266509   5.157   9.850   6.120  0.3768  1.6825  1.9647
21078SOL     OW66510   9.257   3.219   9.646 -0.0103  0.7554 -0.1790
21078SOL    HW166511   9.169   3.256   9.645  0.1392  1.1386  0.2605
21078SOL    HW266512   9.253   3.149   9.712  0.3484  1.6542  0.8275
21079SOL     OW66513   2.041   8.744  10.481 -0.2802  0.3305  0.1593
21079SOL    HW166514   2.038   8.655  10.445  1.2812  0.1489  0.3962
21079SOL    HW266515   1.978   8.743  10.553 -0.6029 -0.4528 -0.1255
21080SOL     OW66516   3.281   5.605   5.485 -0.4847 -0.1557  0.2138
21080SOL    HW166517   3.281   5.510   5.483  1.7187 -0.2984  2.5573
21080SOL    HW266518   3.298   5.631   5.394 -1.9273 -1.8872 -0.6207
21081SOL     OW66519   8.659   5.950   3.811  0.3661  0.9190  0.1641
21081SOL    HW166520   8.676   6.029   3.759 -0.6837  0.3008 -1.1761
21081SOL    HW266521   8.568   5.959   3.840  0.5264  0.6256  0.7731
21082SOL     OW66522  10.812   5.440   3.402  0.2031  0.0194  0.1881
21082SOL    HW166523  10.764   5.446   3.485  1.4464 -0.1334  0.9496
21082SOL    HW266524  10.753   5.478   3.337  0.7481  4.1319  1.7782
21083SOL     OW66525   9.417  10.718   9.781  0.2871 -0.1626 -0.3589
21083SOL    HW166526   9.345  10.674   9.826  0.9547 -0.7919  0.1300
21083SOL    HW266527   9.422  10.675   9.696 -0.2024  0.1862 -0.5608
21084SOL     OW66528   4.996   3.061   5.252 -0.0271  0.6060 -0.3108
21084SOL    HW166529   5.072   3.067   5.309 -0.1664 -1.7400  0.2073
21084SOL    HW266530   5.022   3.107   5.172  0.9644  2.0465  0.7836
21085SOL     OW66531   9.525  10.835   4.263  0.2445 -0.5369  0.2032
21085SOL    HW166532   9.457  10.888   4.304 -0.0455 -0.5793 -0.2114
21085SOL    HW266533   9.487  10.810   4.178  0.8629 -0.3775 -0.1219
21086SOL     OW66534   5.459   3.126   5.685  0.1536  0.2702 -0.2984
21086SOL    HW166535   5.388   3.077   5.726  0.9895 -1.2717 -0.6388
21086SOL    HW266536   5.539   3.077   5.706  1.0291  1.4818 -0.6502
21087SOL     OW66537   7.857   7.899   7.851  0.1875  0.3699  0.1978
21087SOL    HW166538   7.800   7.953   7.797 -1.0421 -1.1529 -0.0903
21087SOL    HW266539   7.931   7.877   7.794 -0.1875  0.2958 -0.2644
21088SOL     OW66540   1.905  11.364   6.373  0.2293  0.2761 -0.2523
21088SOL    HW166541   1.975  11.306   6.343  0.1515 -0.4388  0.8873
21088SOL    HW266542   1.946  11.450   6.379  1.5183 -0.3906  1.8745
21089SOL     OW66543   3.146   4.136   7.925 -0.1439  0.5405  1.0502
21089SOL    HW166544   3.074   4.087   7.965 -0.2578  0.3378  0.6007
21089SOL    HW266545   3.225   4.099   7.965 -0.1926 -0.4237  0.2887
21090SOL     OW66546   8.796   5.630   4.515  0.0216 -0.8153  0.4176
21090SOL    HW166547   8.865   5.612   4.451  0.5888 -0.5095  0.9366
21090SOL    HW266548   8.842   5.670   4.589 -0.3908 -2.4861  1.6335
21091SOL     OW66549   0.061   1.736   3.745 -0.2707  0.4367 -0.3802
21091SOL    HW166550   0.129   1.696   3.799  0.0177  1.6259  0.1731
21091SOL    HW266551   0.084   1.828   3.741 -2.6966  1.2192  1.1873
21092SOL     OW66552   5.392   1.605   5.002  0.2577  0.2282 -0.2111
21092SOL    HW166553   5.421   1.589   5.091 -0.0573  1.1569  0.0737
21092SOL    HW266554   5.421   1.528   4.953  2.1717  0.5776  0.2897
21093SOL     OW66555   4.302   0.627   4.310  0.0321 -0.7123  0.4930
21093SOL    HW166556   4.208   0.628   4.330  0.0805  1.6749  0.8612
21093SOL    HW266557   4.306   0.622   4.215 -0.5507  1.0401  0.3439
21094SOL     OW66558   9.053   8.567   8.741 -0.1888  0.3519 -0.8709
21094SOL    HW166559   9.125   8.630   8.745  0.2508 -0.1926  2.5840
21094SOL    HW266560   9.087   8.495   8.687  0.6681  1.4287 -1.8138
21095SOL     OW66561   4.260   5.483   7.686  0.0895 -0.4100  0.6882
21095SOL    HW166562   4.255   5.393   7.718 -0.4328  0.1109  2.1778
21095SOL    HW266563   4.174   5.501   7.648 -0.1029 -0.2872  1.1674
21096SOL     OW66564   8.640   9.766   3.196 -0.1824  0.0921 -0.0855
21096SOL    HW166565   8.594   9.845   3.169 -1.6765 -0.3318  1.0932
21096SOL    HW266566   8.591   9.695   3.155 -2.2741 -0.5423  3.1066
21097SOL     OW66567   4.042   0.029   2.455  0.1055 -0.3814  0.0647
21097SOL    HW166568   3.959   0.042   2.502 -0.7595 -1.2584 -1.1674
21097SOL    HW266569   4.090  -0.034   2.509 -0.3064 -0.3681  0.4550
21098SOL     OW66570   1.916   9.256   4.810  0.5636  0.1552 -0.3379
21098SOL    HW166571   1.977   9.257   4.736 -1.4034  0.9897 -2.0350
21098SOL    HW266572   1.917   9.165   4.840  1.5845 -0.1433 -1.2122
21099SOL     OW66573   4.085   2.247   1.029  0.1701  0.4541  0.1209
21099SOL    HW166574   4.073   2.334   1.068 -1.4430  0.5330 -0.4753
21099SOL    HW266575   4.069   2.187   1.102 -1.8774  0.6244 -0.1222
21100SOL     OW66576   2.920  10.946   8.504 -0.8443  0.4645 -0.2124
21100SOL    HW166577   2.938  10.857   8.474 -3.2052  0.0254 -0.5683
21100SOL    HW266578   2.862  10.983   8.437 -0.7638  1.8810  0.4605
21101SOL     OW66579   1.773   6.220   9.573  0.1671 -0.7203  0.2928
21101SOL    HW166580   1.785   6.230   9.667 -0.0475  1.0530  0.1771
21101SOL    HW266581   1.678   6.218   9.561  0.1445  0.8793  0.0020
21102SOL     OW66582   9.384   6.226   2.963  0.0971  0.3435 -0.3326
21102SOL    HW166583   9.389   6.196   2.872  0.2835 -0.2816 -0.1205
21102SOL    HW266584   9.474   6.247   2.986  0.5406 -2.2181  0.5923
21103SOL     OW66585   9.647   5.456   0.050 -0.0655  0.5911 -0.4375
21103SOL    HW166586   9.668   5.460  -0.043 -0.8939  0.5042 -0.6357
21103SOL    HW266587   9.552   5.468   0.054 -0.3173 -1.2166  0.2410
21104SOL     OW66588   2.519   9.555   8.101 -0.0686 -0.0185 -0.1109
21104SOL    HW166589   2.480   9.512   8.024  0.8151  0.2513 -0.7263
21104SOL    HW266590   2.503   9.494   8.173 -0.2762 -0.6163 -0.6557
21105SOL     OW66591   1.506   6.749  10.142  0.3025 -0.6793 -0.3042
21105SOL    HW166592   1.511   6.783  10.053 -0.3998  2.1119  0.6084
21105SOL    HW266593   1.428   6.790  10.179  1.8819  0.1940  2.3178
21106SOL     OW66594   7.105   6.628   5.261  0.3054 -0.2117  0.4652
21106SOL    HW166595   7.106   6.535   5.241  1.2080  0.0317 -0.7179
21106SOL    HW266596   7.048   6.635   5.338 -1.2310 -1.4961 -0.4996
21107SOL     OW66597  11.350   4.545   0.091  0.3693  0.5731 -0.5566
21107SOL    HW166598  11.344   4.586   0.177 -1.2250  1.0674 -0.8609
21107SOL    HW266599  11.310   4.459   0.103 -0.1606  0.7702 -0.8597
21108SOL     OW66600   8.590   4.348   7.844  0.9023 -0.2928  0.2775
21108SOL    HW166601   8.592   4.328   7.937  1.0721  2.3646  0.9165
21108SOL    HW266602   8.637   4.276   7.803  1.7051 -1.0054  2.3499
21109SOL     OW66603   1.160   8.483   1.074 -0.2451  0.3477  0.2632
21109SOL    HW166604   1.175   8.463   0.982 -0.2617 -1.5477  0.6210
21109SOL    HW266605   1.181   8.576   1.083 -0.3559  0.5934 -1.6588
21110SOL     OW66606   3.522   5.212  10.527  0.2607 -0.2297  0.2451
21110SOL    HW166607   3.594   5.154  10.503  1.0570  1.1536 -0.8208
21110SOL    HW266608   3.564   5.295  10.550 -0.9489  0.5027 -0.0750
21111SOL     OW66609   8.591   2.411   9.157  0.4092 -0.4725  0.7835
21111SOL    HW166610   8.555   2.408   9.246 -0.9172 -0.7517  0.2512
21111SOL    HW266611   8.544   2.343   9.110  2.7845 -1.9845  0.4490
21112SOL     OW66612   9.958   4.720   5.121 -0.0581 -0.6547 -0.3989
21112SOL    HW166613  10.014   4.647   5.147  2.0434  0.1848 -2.2774
21112SOL    HW266614  10.015   4.797   5.127 -1.4034  0.4295 -1.0947
21113SOL     OW66615   0.778   2.219   6.249  0.2677 -0.0280  0.3466
21113SOL    HW166616   0.706   2.270   6.285 -1.0614 -1.5728 -0.0044
21113SOL    HW266617   0.761   2.216   6.155 -0.3435 -2.0206  0.4772
21114SOL     OW66618   6.087   5.781   7.704 -0.2847 -0.3034  0.1546
21114SOL    HW166619   6.075   5.849   7.770 -0.5113 -0.8227  0.6510
21114SOL    HW266620   6.001   5.740   7.696 -1.2327  1.8293 -2.8125
21115SOL     OW66621   8.448   2.099   3.722  0.3629 -0.0802  0.2932
21115SOL    HW166622   8.354   2.093   3.708  0.4027  1.0653 -0.5931
21115SOL    HW266623   8.462   2.186   3.759  0.8816 -0.9924  2.3872
21116SOL     OW66624   5.494   7.381   3.319 -0.0007 -0.4572  0.2719
21116SOL    HW166625   5.412   7.351   3.280  0.1513  0.0914 -0.5057
21116SOL    HW266626   5.562   7.329   3.276  0.0510 -1.0362  1.0457
21117SOL     OW66627   5.716   8.064   1.672  0.0885 -0.3683 -0.3110
21117SOL    HW166628   5.686   8.014   1.748 -0.5554 -0.1822 -0.4366
21117SOL    HW266629   5.811   8.060   1.677  0.1004  0.6663  1.1911
21118SOL     OW66630   7.752  11.135   2.120  0.6523 -0.0488  0.1954
21118SOL    HW166631   7.723  11.189   2.046 -2.4973 -1.5848  0.1326
21118SOL    HW266632   7.776  11.199   2.187  2.1472  1.3766 -1.5898
21119SOL     OW66633  10.293   5.353   6.920  0.0482  0.4243 -0.1526
21119SOL    HW166634  10.201   5.363   6.895  0.5966 -0.1052 -2.7088
21119SOL    HW266635  10.338   5.331   6.838  2.2139 -0.9939  1.2941
21120SOL     OW66636   4.627   0.703   6.761 -0.1881  0.2591 -0.1404
21120SOL    HW166637   4.616   0.616   6.723 -0.1750  0.2901 -0.2143
21120SOL    HW266638   4.694   0.691   6.829  1.0198  0.5338 -1.2393
21121SOL     OW66639   0.017  10.628  10.633  0.2751  0.5703  0.4015
21121SOL    HW166640  -0.050  10.610  10.699  0.2682 -1.1097 -0.0225
21121SOL    HW266641  -0.033  10.644  10.553  0.3365  0.7907  0.4069
21122SOL     OW66642   8.661  10.754   7.481  0.1077  0.2372  0.0924
21122SOL    HW166643   8.659  10.846   7.506  0.8234  0.5230 -0.8485
21122SOL    HW266644   8.710  10.752   7.399 -2.7196 -0.5535 -1.7101
21123SOL     OW66645   5.089   2.939   4.709 -0.6866  0.0625  0.0545
21123SOL    HW166646   5.136   2.939   4.793  2.2973  0.6184 -1.4991
21123SOL    HW266647   5.024   3.009   4.718  2.0552  2.7043  0.7136
21124SOL     OW66648   5.294  10.387   6.184  0.1739 -0.2505  0.2505
21124SOL    HW166649   5.314  10.338   6.104  0.2616 -0.3038  0.3046
21124SOL    HW266650   5.235  10.330   6.233 -0.9761  0.3479 -0.3918
21125SOL     OW66651   7.051   7.473   1.017  0.3263 -0.2576 -0.5462
21125SOL    HW166652   7.005   7.526   1.081  1.8021 -0.5887  0.8665
21125SOL    HW266653   6.984   7.445   0.955 -0.8834  1.2833  0.0263
21126SOL     OW66654   2.601   7.596   7.954  0.2895 -0.5557 -0.2759
21126SOL    HW166655   2.641   7.656   8.017 -0.6595 -0.0427 -0.1275
21126SOL    HW266656   2.522   7.643   7.924  1.2474 -0.3188 -2.6382
21127SOL     OW66657  10.432   3.249   5.907  0.0123 -0.2354  0.0700
21127SOL    HW166658  10.511   3.218   5.862  1.2401  1.3143  1.0250
21127SOL    HW266659  10.444   3.344   5.913 -1.2920 -0.1238  1.4304
21128SOL     OW66660   9.914   7.788   6.034 -0.8098 -0.5974  0.3645
21128SOL    HW166661   9.849   7.850   6.066 -1.3925 -2.0235  2.1255
21128SOL    HW266662   9.873   7.749   5.956  0.1494  2.1117 -1.6338
21129SOL     OW66663   7.724   6.875   5.523 -0.4511  0.6291 -0.2526
21129SOL    HW166664   7.816   6.896   5.509 -0.4866  1.1964  0.3044
21129SOL    HW266665   7.720   6.842   5.612 -0.4304 -1.6698 -1.0438
21130SOL     OW66666   6.244   5.074   9.174 -0.8894 -0.0477 -0.2017
21130SOL    HW166667   6.281   5.156   9.142  1.6436 -1.7272 -1.9147
21130SOL    HW266668   6.197   5.099   9.254  2.0455  2.6873  0.8684
21131SOL     OW66669   8.260   8.047   3.748 -0.4427  0.3334  0.3252
21131SOL    HW166670   8.302   8.031   3.664 -1.4151  1.2874 -0.3835
21131SOL    HW266671   8.321   8.014   3.813  1.0384  0.9830 -0.6854
21132SOL     OW66672   5.810   5.455   7.040  0.0299 -0.1132 -0.1386
21132SOL    HW166673   5.795   5.499   7.124  1.3201  0.2409 -0.0654
21132SOL    HW266674   5.739   5.392   7.032 -0.4524  0.2785  0.9367
21133SOL     OW66675  10.963   5.406   5.996 -0.4463  0.0835 -0.2811
21133SOL    HW166676  10.985   5.475   6.059 -0.2539 -0.4401  0.2264
21133SOL    HW266677  11.002   5.435   5.914  1.8894 -0.6555  0.5104
21134SOL     OW66678   5.345   6.559   1.462  0.2301 -0.3808  0.4635
21134SOL    HW166679   5.419   6.620   1.453 -2.1846  2.5439 -1.2500
21134SOL    HW266680   5.346   6.508   1.381  0.0400  0.0793  0.1674
21135SOL     OW66681   8.883   0.750   0.341  0.3999  0.3547 -0.1228
21135SOL    HW166682   8.968   0.763   0.382  0.9027  1.0299 -1.3256
21135SOL    HW266683   8.874   0.824   0.280 -1.0725  0.3332  0.0282
21136SOL     OW66684   3.312   1.766   5.666  0.2131 -0.0445 -0.3736
21136SOL    HW166685   3.312   1.686   5.718  1.2904 -0.7482 -1.3910
21136SOL    HW266686   3.223   1.773   5.632 -0.1254 -0.3208  0.4282
21137SOL     OW66687  10.668   1.256   1.120  0.2428  0.2588 -0.0165
21137SOL    HW166688  10.736   1.317   1.092  0.6767  0.1962  0.8556
21137SOL    HW266689  10.652   1.278   1.212 -0.9064  0.2568 -0.1994
21138SOL     OW66690   5.829  10.421   8.931 -0.0701 -0.3098  0.0817
21138SOL    HW166691   5.797  10.413   8.841  1.1127 -0.2192 -0.3612
21138SOL    HW266692   5.825  10.514   8.949 -0.6603 -0.3653  0.2673
21139SOL     OW66693  10.900   5.005   1.744 -0.1981  0.0836 -0.1417
21139SOL    HW166694  10.894   4.910   1.740 -1.5528  0.1489 -0.0161
21139SOL    HW266695  10.991   5.024   1.720  0.5742 -1.3165  1.4702
21140SOL     OW66696   9.235   2.907   2.585 -0.2201  0.1013 -0.5296
21140SOL    HW166697   9.186   2.984   2.556 -1.4922 -0.6831 -0.4926
21140SOL    HW266698   9.327   2.935   2.579 -0.6599  1.8577  0.1390
21141SOL     OW66699   5.835   5.947   9.781 -0.0684 -0.2882  0.3671
21141SOL    HW166700   5.924   5.913   9.794  0.0967 -0.0687 -0.1909
21141SOL    HW266701   5.786   5.874   9.743  0.2452  0.0274 -0.6789
21142SOL     OW66702   6.023   9.286   9.946  0.2264 -0.4142 -0.2340
21142SOL    HW166703   6.096   9.236   9.911  0.4285  0.6213 -1.3730
21142SOL    HW266704   6.063   9.349  10.007  0.4217  0.6870 -1.4530
21143SOL     OW66705   7.062  10.241   0.659 -0.1195  0.7882  0.2837
21143SOL    HW166706   7.143  10.241   0.710 -1.0379 -2.3831  2.0371
21143SOL    HW266707   7.066  10.160   0.608 -2.6041 -0.1011  1.3399
21144SOL     OW66708   0.195   7.151   9.696 -0.0683 -0.0487 -0.0430
21144SOL    HW166709   0.106   7.176   9.669 -0.0689  0.5994  0.5059
21144SOL    HW266710   0.182   7.080   9.759  0.0182 -3.0148 -3.1169
21145SOL     OW66711   7.238   8.245   5.809 -0.2051  1.2532  0.1665
21145SOL    HW166712   7.151   8.256   5.769 -0.7056 -1.0671  0.4658
21145SOL    HW266713   7.238   8.155   5.842  2.8467  0.6953 -1.0431
21146SOL     OW66714   7.315   7.868   9.578 -0.1012 -0.1283  0.3333
21146SOL    HW166715   7.342   7.853   9.488 -0.6093  2.5871 -0.3570
21146SOL    HW266716   7.390   7.914   9.618 -1.0281  1.4672  0.3323
21147SOL     OW66717   4.224   0.099   1.236  0.1391  0.6318  0.3358
21147SOL    HW166718   4.233   0.084   1.331 -1.2358  1.6401  0.6528
21147SOL    HW266719   4.271   0.181   1.221 -2.2829  2.1875  0.7626
21148SOL     OW66720   0.948   4.135   2.526 -0.2021 -0.3380  0.4193
21148SOL    HW166721   0.972   4.211   2.579  1.4126  0.0896 -0.8341
21148SOL    HW266722   1.009   4.066   2.554 -0.5786 -0.6756  0.4178
21149SOL     OW66723   1.059  10.396   5.693  0.5312 -0.2536  0.0284
21149SOL    HW166724   1.098  10.462   5.635  0.1413  0.4960  0.6099
21149SOL    HW266725   1.070  10.314   5.645 -0.7158  0.4700 -1.5933
21150SOL     OW66726   3.704   2.883   8.733 -0.3246  0.3049 -0.4900
21150SOL    HW166727   3.620   2.854   8.695 -0.8807  1.0897  0.1087
21150SOL    HW266728   3.694   2.869   8.827 -0.3091  1.6676 -0.2705
21151SOL     OW66729   6.616   5.621  10.902 -0.0010  0.1221  0.3189
21151SOL    HW166730   6.602   5.530  10.877  0.7284  0.1969 -0.4420
21151SOL    HW266731   6.585   5.627  10.992  3.2504 -1.8213  1.7748
21152SOL     OW66732   0.543   3.038   7.005  0.6307 -0.3134 -0.0278
21152SOL    HW166733   0.534   3.071   6.916 -2.2145  1.4828  0.7568
21152SOL    HW266734   0.562   2.945   6.995 -0.6814 -0.3976 -2.5671
21153SOL     OW66735   3.810   2.770   3.434 -0.1327  0.4263  0.1700
21153SOL    HW166736   3.838   2.717   3.509 -0.6219  0.0887  0.1215
21153SOL    HW266737   3.861   2.738   3.361 -0.4036  0.0344  0.1480
21154SOL     OW66738   1.378   1.407   9.183 -0.4104 -0.1028 -0.2620
21154SOL    HW166739   1.407   1.327   9.139 -0.9146  0.7161 -2.1754
21154SOL    HW266740   1.396   1.391   9.276  2.4786 -1.1792 -0.8961
21155SOL     OW66741   9.765   5.242   5.424 -0.0640  0.5784  0.7814
21155SOL    HW166742   9.817   5.192   5.488 -0.8196 -1.1786  0.0914
21155SOL    HW266743   9.685   5.265   5.471 -1.1347 -1.7208  0.2079
21156SOL     OW66744   2.343   3.111   6.178  0.2991 -0.1351  0.3614
21156SOL    HW166745   2.337   3.204   6.200  0.2147 -0.5852  2.4721
21156SOL    HW266746   2.295   3.067   6.248 -1.3225 -1.6992 -1.5916
21157SOL     OW66747  10.293   4.045   0.578  0.2546 -0.2598 -0.1590
21157SOL    HW166748  10.350   4.101   0.630  0.6496 -0.7180 -0.0874
21157SOL    HW266749  10.339   4.035   0.495 -0.1210  0.0393 -0.4032
21158SOL     OW66750   7.144   6.607   3.253  0.4825  0.2347 -0.0321
21158SOL    HW166751   7.114   6.600   3.163  0.2226  0.6950  0.0104
21158SOL    HW266752   7.210   6.676   3.251  2.7280 -1.8331 -0.3971
21159SOL     OW66753   0.979   3.497   7.543 -0.1850 -0.2865  0.0759
21159SOL    HW166754   0.956   3.435   7.473  0.2008 -0.0998 -0.2219
21159SOL    HW266755   0.948   3.455   7.623  1.4810 -1.6221  0.0776
21160SOL     OW66756   4.573   1.186   9.432  0.2154 -0.1102 -0.9296
21160SOL    HW166757   4.560   1.093   9.415 -0.5609 -0.1055 -0.4099
21160SOL    HW266758   4.547   1.230   9.351  0.5405 -0.3377 -1.1597
21161SOL     OW66759  11.233   5.853   2.084 -0.2403 -0.0205 -0.1623
21161SOL    HW166760  11.224   5.888   2.173 -0.3347 -0.6343  0.0787
21161SOL    HW266761  11.269   5.925   2.033 -0.0784  0.3054  0.4026
21162SOL     OW66762   9.438   4.938   9.255  0.2101  0.2376 -0.1673
21162SOL    HW166763   9.354   4.984   9.261 -0.3129 -0.6108 -0.6709
21162SOL    HW266764   9.504   5.007   9.258 -0.5659  1.1108 -1.7432
21163SOL     OW66765   5.274   1.481  11.309 -0.2796 -0.2959  0.4071
21163SOL    HW166766   5.233   1.464  11.225 -0.4303  0.7105  0.2668
21163SOL    HW266767   5.217   1.437  11.373 -0.5216 -0.5108  0.0422
21164SOL     OW66768   6.955   2.557   5.732  0.1602  0.1352 -0.6273
21164SOL    HW166769   6.978   2.539   5.823  0.1469 -1.9274 -0.9873
21164SOL    HW266770   7.011   2.631   5.707 -0.6348  1.4990  1.3401
21165SOL     OW66771   2.061   0.577  10.057 -0.0757 -0.0038  0.1744
21165SOL    HW166772   2.121   0.622   9.997 -0.2679 -0.9574 -0.7731
21165SOL    HW266773   1.974   0.595  10.022 -0.1584 -1.0407 -0.2079
21166SOL     OW66774   0.664   1.459   7.985 -0.9436  0.3967  0.6860
21166SOL    HW166775   0.733   1.405   7.946 -1.1414  1.9351 -2.0769
21166SOL    HW266776   0.590   1.400   7.997 -0.7482 -0.2656 -1.0841
21167SOL     OW66777   2.607   7.226   6.386 -0.0976  0.8682  0.0208
21167SOL    HW166778   2.620   7.218   6.481 -0.7075 -0.7870 -0.0117
21167SOL    HW266779   2.550   7.303   6.376 -0.0141  1.0713  0.9817
21168SOL     OW66780   9.948   6.806   4.550 -0.0269  0.3026  0.4339
21168SOL    HW166781   9.991   6.878   4.596 -0.7045  1.1854 -0.2676
21168SOL    HW266782   9.893   6.764   4.616  2.1509 -1.1424  1.4786
21169SOL     OW66783  10.690  10.063  10.250  0.6269  0.2276  0.2505
21169SOL    HW166784  10.743   9.987  10.273  3.4534  0.8890 -3.2271
21169SOL    HW266785  10.698  10.122  10.325  2.0089 -1.1246  1.2148
21170SOL     OW66786   9.360   4.577   8.941  0.2934 -0.0285  0.8610
21170SOL    HW166787   9.279   4.624   8.958  0.6174  0.3374  1.4174
21170SOL    HW266788   9.428   4.633   8.978  0.8435 -0.1174  0.0045
21171SOL     OW66789   6.490   7.682   6.782 -0.0779 -0.0951  0.1771
21171SOL    HW166790   6.405   7.724   6.792 -0.7643 -1.7066  1.7066
21171SOL    HW266791   6.531   7.691   6.868  0.2013 -1.5394  0.2232
21172SOL     OW66792   1.071   0.775   3.543  0.1072 -0.2347  0.5708
21172SOL    HW166793   1.049   0.682   3.545  0.8487 -0.4141  1.3778
21172SOL    HW266794   0.990   0.819   3.569 -0.8145 -0.4957 -1.6214
21173SOL     OW66795   1.341   1.524   3.830  0.4776  0.2608  0.3862
21173SOL    HW166796   1.311   1.470   3.756  0.8468 -0.1264  0.5185
21173SOL    HW266797   1.262   1.572   3.857  0.4667  0.8453 -0.6218
21174SOL     OW66798   1.729   4.882   6.934 -0.2019 -0.1546  0.0614
21174SOL    HW166799   1.673   4.948   6.894  1.6110  0.5568 -1.4517
21174SOL    HW266800   1.708   4.801   6.888 -0.7214 -0.1295  0.2481
21175SOL     OW66801   2.369   8.810   6.219  0.2492 -0.0111  0.4222
21175SOL    HW166802   2.406   8.881   6.167  0.7581 -0.5456  0.0431
21175SOL    HW266803   2.398   8.730   6.175  0.3203 -0.4678  1.2715
21176SOL     OW66804  10.728   7.280   1.815  0.3442  0.0951 -0.1475
21176SOL    HW166805  10.776   7.326   1.884 -1.5180 -1.5951  2.4696
21176SOL    HW266806  10.636   7.284   1.843 -0.3588 -1.6381 -1.9650
21177SOL     OW66807   6.079   6.493   7.933 -1.1474  0.0134  0.2838
21177SOL    HW166808   6.074   6.446   8.016 -0.7357 -1.1574 -0.3409
21177SOL    HW266809   6.172   6.515   7.923 -1.2849  0.6692  0.4086
21178SOL     OW66810   5.549   7.050   1.504  0.4222 -0.2574  0.3216
21178SOL    HW166811   5.593   7.122   1.458  0.0678 -0.5803 -0.5404
21178SOL    HW266812   5.458   7.079   1.511  0.2246 -0.7245 -0.2561
21179SOL     OW66813   1.732   4.660   8.184  0.1983 -0.2829 -0.0719
21179SOL    HW166814   1.663   4.602   8.218 -1.8377  2.3258  0.5196
21179SOL    HW266815   1.813   4.620   8.215 -1.2314 -1.4110  2.5467
21180SOL     OW66816   5.698   0.657   0.599 -0.2037  0.1620 -0.0127
21180SOL    HW166817   5.761   0.670   0.528  0.9970 -0.7031  0.8641
21180SOL    HW266818   5.636   0.593   0.565  0.4354 -0.3367 -0.2507
21181SOL     OW66819   1.619   2.955  10.427  0.0507 -0.1935  0.1452
21181SOL    HW166820   1.530   2.971  10.396  0.0803  1.5740  0.8440
21181SOL    HW266821   1.646   3.037  10.468  2.3004 -0.4358 -0.6922
21182SOL     OW66822   0.849   8.215  10.837 -0.0600  0.0081 -0.1853
21182SOL    HW166823   0.825   8.260  10.756 -1.2063 -0.2913 -0.0259
21182SOL    HW266824   0.809   8.129  10.829 -0.2521  0.0015  0.7354
21183SOL     OW66825   7.915   4.108  11.167  0.4211 -0.2255  0.0098
21183SOL    HW166826   8.001   4.123  11.129  0.2151  1.1050  0.0064
21183SOL    HW266827   7.891   4.020  11.139  1.2202 -0.1148 -1.0749
21184SOL     OW66828   9.107   3.503   0.810  0.3468  0.4900  0.6488
21184SOL    HW166829   9.142   3.570   0.869 -0.5750  0.8867  0.7691
21184SOL    HW266830   9.160   3.425   0.826  0.4683  0.7632  1.5866
21185SOL     OW66831   1.473   3.507  10.336  0.4406  0.3291 -0.4789
21185SOL    HW166832   1.498   3.596  10.363  1.9411  0.1874 -1.3015
21185SOL    HW266833   1.539   3.483  10.271  0.0388 -1.3949 -0.2757
21186SOL     OW66834   0.588   1.769   2.032  0.2774 -0.3822 -0.2938
21186SOL    HW166835   0.559   1.769   2.124 -1.6689 -3.6020 -0.7433
21186SOL    HW266836   0.665   1.712   2.031 -0.0593 -0.8376 -0.7167
21187SOL     OW66837   0.709   8.973   9.576  0.2443 -0.3404 -0.1950
21187SOL    HW166838   0.659   8.948   9.498 -2.7229  0.1216  1.4260
21187SOL    HW266839   0.720   9.068   9.567  0.0046 -0.3042 -0.1139
21188SOL     OW66840   8.996   0.921   5.531 -0.0740  0.8499 -0.1940
21188SOL    HW166841   8.945   0.967   5.464  2.0270  2.8438 -0.5410
21188SOL    HW266842   8.979   0.828   5.515 -3.8740  1.3521  0.0135
21189SOL     OW66843   6.109   9.062   4.445  0.3597 -0.0949  0.1075
21189SOL    HW166844   6.105   9.056   4.349  0.7649  0.4967  0.0529
21189SOL    HW266845   6.078   9.150   4.465 -0.0709 -0.3444  0.5457
21190SOL     OW66846   3.079   7.112   9.502  0.0868 -0.3835  0.0824
21190SOL    HW166847   3.143   7.182   9.488 -1.2336  1.1292  1.2609
21190SOL    HW266848   3.026   7.111   9.422  0.0534  0.0481  0.0967
21191SOL     OW66849   8.923  11.130  11.215  0.2057 -0.3476  0.2134
21191SOL    HW166850   8.845  11.122  11.161 -0.6037 -1.4870  1.5012
21191SOL    HW266851   8.989  11.077  11.170  0.5984  1.4294 -1.4176
21192SOL     OW66852   4.552   4.955   4.106  0.1612 -0.0817 -0.4895
21192SOL    HW166853   4.591   5.003   4.033  1.4070 -1.1877 -0.6073
21192SOL    HW266854   4.576   5.006   4.183  0.5795  0.0555 -0.7031
21193SOL     OW66855   3.954   5.488   6.953  0.4672 -0.6723  0.3178
21193SOL    HW166856   3.910   5.426   6.895 -0.4861 -1.1838  1.5569
21193SOL    HW266857   3.884   5.526   7.006  1.1253  0.9757  0.0551
21194SOL     OW66858   2.993   5.901  10.569  0.2225 -0.6292  0.3718
21194SOL    HW166859   3.058   5.831  10.571  1.6763  0.5842 -1.1644
21194SOL    HW266860   2.967   5.913  10.660  0.5721 -2.5638  0.7679
21195SOL     OW66861   6.900   9.342   2.573 -0.1559 -0.4277 -0.2357
21195SOL    HW166862   6.975   9.367   2.626 -1.3411  1.5560  0.6256
21195SOL    HW266863   6.937   9.303   2.494  1.9450  3.3142 -1.3419
21196SOL     OW66864   7.910  10.025   4.692  0.0984  0.3650 -0.1408
21196SOL    HW166865   7.894  10.119   4.695  0.2489  0.3823  0.1054
21196SOL    HW266866   7.918  10.005   4.598 -0.0938  0.5684 -0.2006
21197SOL     OW66867   9.991   3.961   1.981  0.0938  0.0961  0.4510
21197SOL    HW166868   9.907   4.003   2.003 -0.3892 -0.2694 -0.6386
21197SOL    HW266869  10.016   4.002   1.898 -0.6089 -2.0273 -0.8845
21198SOL     OW66870   2.897   5.668   2.008  0.3743  0.2191  0.2359
21198SOL    HW166871   2.834   5.738   1.991  0.7097  0.2866 -0.7989
21198SOL    HW266872   2.956   5.670   1.933  0.5378 -1.0146  0.3052
21199SOL     OW66873   9.225   5.454   4.275 -1.2365 -0.0926 -0.4448
21199SOL    HW166874   9.207   5.388   4.208 -0.9405  1.2517 -1.9387
21199SOL    HW266875   9.320   5.448   4.288 -1.5834 -2.0279  1.7724
21200SOL     OW66876   5.909   2.826   9.443  0.1736 -0.0474  0.2158
21200SOL    HW166877   5.990   2.797   9.485 -0.4109  0.2452  1.5998
21200SOL    HW266878   5.881   2.751   9.390  0.4164 -0.8286  1.1556
21201SOL     OW66879  10.087   8.687  10.412 -0.1467 -0.0493  0.6073
21201SOL    HW166880  10.086   8.654  10.502 -0.2195  1.3158  1.1259
21201SOL    HW266881   9.998   8.719  10.397  0.3985  1.6884  0.8304
21202SOL     OW66882   5.927   4.028   9.012 -0.0338 -0.4050  0.1951
21202SOL    HW166883   5.864   3.956   9.016  0.3542 -0.7733 -0.1963
21202SOL    HW266884   5.900   4.079   8.936 -0.8058  0.3490  0.9460
21203SOL     OW66885   0.762   3.110   7.320  0.2493 -0.0161  0.1809
21203SOL    HW166886   0.743   3.107   7.414  0.5601  0.5629  0.2625
21203SOL    HW266887   0.740   3.199   7.294  0.2555 -0.1480 -0.2815
21204SOL     OW66888   9.728   5.659   8.513  0.0329  0.1058  0.1408
21204SOL    HW166889   9.703   5.638   8.603 -0.7022  0.4483  0.0202
21204SOL    HW266890   9.656   5.711   8.479  0.5495  0.4368 -0.4786
21205SOL     OW66891   5.131  10.929  10.266 -0.1587 -0.8070  0.0219
21205SOL    HW166892   5.061  10.881  10.309 -1.1031  1.6574  1.4792
21205SOL    HW266893   5.210  10.902  10.312 -0.8289 -0.1147  1.6679
21206SOL     OW66894   2.718   9.779   1.776 -0.0196 -0.1197  0.1177
21206SOL    HW166895   2.652   9.721   1.739  0.4856 -0.4365 -0.3073
21206SOL    HW266896   2.773   9.721   1.830 -0.0182  0.1169  0.3706
21207SOL     OW66897  10.378   1.402   1.491  0.1530  0.2237  0.1590
21207SOL    HW166898  10.436   1.358   1.430  1.9110  3.0662 -0.4288
21207SOL    HW266899  10.324   1.460   1.436 -1.6708 -0.6519  0.9241
21208SOL     OW66900   9.367   8.885   4.427 -0.1207 -0.1396  0.1261
21208SOL    HW166901   9.352   8.790   4.428 -0.2716 -0.1312 -0.7271
21208SOL    HW266902   9.286   8.923   4.462 -0.7015 -0.2616 -1.0371
21209SOL     OW66903   1.705   0.420   2.496 -0.0184  0.8878 -0.3930
21209SOL    HW166904   1.735   0.493   2.551  1.0025  0.0973  0.1271
21209SOL    HW266905   1.681   0.462   2.413 -1.3499  2.0742  0.5402
21210SOL     OW66906   0.343   2.532   0.589 -0.5333 -0.4474 -0.7625
21210SOL    HW166907   0.436   2.513   0.604 -0.6102 -1.2218 -1.1793
21210SOL    HW266908   0.309   2.452   0.549 -1.1033  0.2764 -1.7698
21211SOL     OW66909   8.916   1.465   5.775  0.1008  0.0381 -0.0043
21211SOL    HW166910   8.934   1.504   5.690  0.2523  0.0822  0.0480
21211SOL    HW266911   8.867   1.532   5.822 -0.3722 -0.1541 -0.2156
21212SOL     OW66912   2.829  11.077   9.460  0.1064  0.2013 -0.4945
21212SOL    HW166913   2.767  11.015   9.498 -1.3146  1.2256 -1.0331
21212SOL    HW266914   2.828  11.057   9.366  0.5474  0.2726 -0.5165
21213SOL     OW66915   0.151   0.756   3.857 -0.3920  0.0175  0.9076
21213SOL    HW166916   0.092   0.684   3.832 -1.3902  0.7928  0.9409
21213SOL    HW266917   0.097   0.812   3.913  0.8598 -0.0399  2.2218
21214SOL     OW66918   3.439   3.082   0.039 -0.0629  0.4816  0.2389
21214SOL    HW166919   3.489   3.002   0.056 -0.6447 -0.8485 -3.4177
21214SOL    HW266920   3.479   3.119  -0.040 -1.8505  2.0456 -0.0084
21215SOL     OW66921  10.487  10.147  11.187  0.0282 -0.2528  0.4516
21215SOL    HW166922  10.545  10.114  11.257  0.4424 -1.0480 -0.2566
21215SOL    HW266923  10.400  10.117  11.212  0.4396 -2.2976 -0.3743
21216SOL     OW66924   7.632   3.263   4.361  0.3141 -0.5853 -0.3276
21216SOL    HW166925   7.558   3.256   4.300 -0.8314 -2.1873  1.1482
21216SOL    HW266926   7.596   3.236   4.446  2.2887 -0.1352  0.7191
21217SOL     OW66927   3.589   9.003  10.051 -0.5408 -0.2361 -0.0821
21217SOL    HW166928   3.517   8.981   9.992 -0.7456 -0.8820  0.3964
21217SOL    HW266929   3.663   8.952  10.017  0.0225  1.2797 -1.2519
21218SOL     OW66930   1.144   8.346   9.094  0.1754 -0.1049 -0.3293
21218SOL    HW166931   1.158   8.256   9.064 -0.0020 -0.2010 -0.1272
21218SOL    HW266932   1.205   8.356   9.168  1.0047  0.3060 -1.0441
21219SOL     OW66933   0.832  10.310   0.638  0.0806 -0.2117 -0.1412
21219SOL    HW166934   0.780  10.250   0.584 -0.8478 -0.8007  1.3397
21219SOL    HW266935   0.922  10.283   0.625 -0.1440 -0.4612 -1.2377
21220SOL     OW66936   5.164   2.110   0.372 -0.4687 -0.0106  0.0994
21220SOL    HW166937   5.102   2.167   0.418  0.2257  1.5524 -0.8320
21220SOL    HW266938   5.250   2.147   0.390  0.0514 -1.0601 -0.1305
21221SOL     OW66939   1.984   1.747   6.775 -0.2050  0.1215 -0.3491
21221SOL    HW166940   2.039   1.712   6.704 -0.3227  0.4414 -0.6037
21221SOL    HW266941   2.014   1.702   6.853 -0.8578 -1.1076 -0.7762
21222SOL     OW66942   1.551   1.193  11.375  0.6702 -0.0991 -0.1066
21222SOL    HW166943   1.580   1.123  11.433  0.3136  0.6741  1.0472
21222SOL    HW266944   1.632   1.226  11.336  1.2052  0.7005  1.5428
21223SOL     OW66945   7.717   0.100   7.227  0.4809  0.4341  0.0025
21223SOL    HW166946   7.638   0.054   7.256 -0.3108  1.7878  0.0792
21223SOL    HW266947   7.705   0.111   7.133 -0.9483  3.3188  0.4225
21224SOL     OW66948   7.214   6.048   8.035 -0.2699  0.3199  0.0651
21224SOL    HW166949   7.192   5.955   8.041 -0.1166  0.3539  2.1192
21224SOL    HW266950   7.147   6.091   8.089  1.1584  1.0771  1.3005
21225SOL     OW66951   3.134   2.324   9.206  0.6363  0.1124  0.2151
21225SOL    HW166952   3.144   2.361   9.294 -0.3794  0.7739  0.0702
21225SOL    HW266953   3.209   2.358   9.158  1.6548 -0.9018  1.0084
21226SOL     OW66954   0.462   1.203  11.154  0.8038 -0.0854 -0.0675
21226SOL    HW166955   0.447   1.133  11.092  1.8323  0.0842 -0.5374
21226SOL    HW266956   0.460   1.283  11.101 -0.6468  0.2886  0.5058
21227SOL     OW66957   0.924   6.449   3.730  0.0704  0.3289  0.1757
21227SOL    HW166958   0.970   6.419   3.652  0.7241 -1.2882  1.1477
21227SOL    HW266959   0.842   6.486   3.696 -0.0315 -1.0762 -1.2214
21228SOL     OW66960   8.242   7.572   7.386  0.7224 -0.1175  0.0247
21228SOL    HW166961   8.234   7.480   7.412 -0.1597  0.0206  0.2648
21228SOL    HW266962   8.332   7.596   7.409  1.7302 -1.5529 -2.0912
21229SOL     OW66963   8.287   4.355   6.948  0.3033 -0.2863 -0.2543
21229SOL    HW166964   8.276   4.432   7.004 -0.4875 -0.6487  0.0988
21229SOL    HW266965   8.326   4.390   6.868 -1.0087  0.6593 -0.5113
21230SOL     OW66966   7.829   6.940  10.968 -0.8026 -0.5648  0.1314
21230SOL    HW166967   7.853   7.033  10.970 -1.3030 -0.4522  1.4126
21230SOL    HW266968   7.734   6.939  10.969 -0.8472 -1.0857 -1.5258
21231SOL     OW66969   1.579   6.985   1.579 -0.3503  0.2204 -0.2319
21231SOL    HW166970   1.510   7.023   1.525  0.0851 -1.3752 -1.9838
21231SOL    HW266971   1.571   6.891   1.567  0.8164 -0.1119  1.2241
21232SOL     OW66972  10.345   1.467   5.179  0.1093  0.0702 -0.0078
21232SOL    HW166973  10.336   1.503   5.267  1.6528  0.5046 -0.0032
21232SOL    HW266974  10.313   1.377   5.186 -0.0381  0.1919  0.9247
21233SOL     OW66975   0.597   0.357   8.456 -0.0074  0.2940 -0.5593
21233SOL    HW166976   0.543   0.301   8.513 -1.1214  1.1136 -0.7786
21233SOL    HW266977   0.535   0.394   8.393  0.9009  0.9066 -1.1192
21234SOL     OW66978   2.604   1.870   4.047 -0.0848  0.3917  0.1928
21234SOL    HW166979   2.545   1.866   4.123 -2.0228  0.4100 -1.2328
21234SOL    HW266980   2.615   1.779   4.021 -0.0693  0.4418  0.0249
21235SOL     OW66981   5.062  10.718   5.744  0.1730 -0.3923  0.2673
21235SOL    HW166982   4.967  10.705   5.747 -0.0884  1.3578  0.7171
21235SOL    HW266983   5.092  10.697   5.832  0.1786 -0.7471  0.1819
21236SOL     OW66984   1.306   1.078   0.031  0.6292 -0.0487  0.0932
21236SOL    HW166985   1.360   0.999   0.027  0.7641  0.0546 -0.1661
21236SOL    HW266986   1.369   1.150   0.029  0.4976  0.0668  0.1315
21237SOL     OW66987  11.146   7.594   2.175  0.2507 -0.4232  0.5862
21237SOL    HW166988  11.135   7.585   2.081 -0.0026  1.2801  0.4243
21237SOL    HW266989  11.079   7.537   2.213 -1.2354  0.6726 -0.3085
21238SOL     OW66990   9.898   3.371   8.359 -0.3507 -0.1232  0.0563
21238SOL    HW166991   9.917   3.277   8.361 -0.0879 -0.1439 -1.8884
21238SOL    HW266992   9.970   3.411   8.408  0.4757 -0.8125 -0.5719
21239SOL     OW66993   0.771   6.920  10.079 -0.5955 -0.6295  0.3604
21239SOL    HW166994   0.763   6.835  10.036  0.5045 -1.5517  1.8797
21239SOL    HW266995   0.725   6.910  10.162  0.6638 -0.2135  1.1483
21240SOL     OW66996   7.669   9.017   6.417 -0.2693 -0.6160 -0.8015
21240SOL    HW166997   7.737   9.082   6.400  0.8170 -1.3519  0.5780
21240SOL    HW266998   7.632   9.041   6.502 -0.7077 -1.0912 -0.8472
21241SOL     OW66999   7.928   0.997   7.492  0.0182  0.2592 -0.4798
21241SOL    HW167000   8.013   1.015   7.450  1.2925 -0.8919  1.4739
21241SOL    HW267001   7.937   1.033   7.580 -0.3757 -2.4174  0.7587
21242SOL     OW67002  11.379   6.815   7.415 -0.1219  0.7494 -0.3158
21242SOL    HW167003  11.409   6.892   7.368  0.6197 -0.6879 -2.3790
21242SOL    HW267004  11.329   6.766   7.351 -2.0374  0.2906  1.4295
21243SOL     OW67005   0.993   2.533   9.375  0.0973 -0.6672 -0.7031
21243SOL    HW167006   1.054   2.604   9.355  0.3276 -0.7503 -0.2847
21243SOL    HW267007   0.923   2.543   9.309 -0.3085  0.4642 -0.1246
21244SOL     OW67008   1.064  11.116   6.915 -0.1162  0.0540 -0.5846
21244SOL    HW167009   1.008  11.153   6.846 -2.0179  0.2558  0.9613
21244SOL    HW267010   1.008  11.053   6.959  0.8268  0.4061  1.1818
21245SOL     OW67011   0.146   7.113   8.484 -0.3720  0.6715 -0.4741
21245SOL    HW167012   0.128   7.053   8.411 -0.5925 -2.7704  2.1612
21245SOL    HW267013   0.241   7.108   8.496 -0.4613  0.3550  0.1262
21246SOL     OW67014   0.432   3.783   8.560 -0.1389  0.4155  0.3315
21246SOL    HW167015   0.403   3.862   8.606  0.7005  0.7907  0.2342
21246SOL    HW267016   0.488   3.738   8.623 -0.0874  0.2321  0.1562
21247SOL     OW67017   4.343   8.292   4.520  0.0423  0.3500  0.1332
21247SOL    HW167018   4.340   8.263   4.612 -0.8709  1.2998  0.4219
21247SOL    HW267019   4.393   8.373   4.522 -0.4333  0.6513 -0.1275
21248SOL     OW67020   6.432   8.042   1.846 -0.2240  0.4342  0.0779
21248SOL    HW167021   6.476   8.052   1.930 -0.4855  2.6744  0.0085
21248SOL    HW267022   6.397   7.953   1.848  1.3309 -0.2161  1.5448
21249SOL     OW67023   7.342   7.986   1.827 -0.4076 -0.2948  0.4315
21249SOL    HW167024   7.285   7.912   1.845  0.4234 -0.6557  1.7228
21249SOL    HW267025   7.410   7.981   1.894  0.2480  1.0384 -0.0902
21250SOL     OW67026   6.716   4.529   9.093  0.5248 -0.1896 -0.4860
21250SOL    HW167027   6.734   4.549   9.185 -0.8903  0.1467 -0.2562
21250SOL    HW267028   6.796   4.556   9.047  1.3820 -0.6593  0.6623
21251SOL     OW67029   1.922  10.988   8.531 -0.0450  0.3369  0.5249
21251SOL    HW167030   2.007  11.011   8.568  1.0402  0.5755 -1.9407
21251SOL    HW267031   1.924  10.893   8.524  0.3466  0.3930 -0.2146
21252SOL     OW67032   9.110   8.224   2.235  0.2325 -0.6710  0.3125
21252SOL    HW167033   9.090   8.197   2.325 -1.3579  2.3574  0.9894
21252SOL    HW267034   9.051   8.172   2.181  1.3771 -2.7135  0.9106
21253SOL     OW67035   7.877   2.822   9.071 -0.0211  0.2986 -0.3873
21253SOL    HW167036   7.968   2.807   9.047 -0.2933  0.8351 -1.8161
21253SOL    HW267037   7.880   2.896   9.132  0.4029  1.1131 -1.3772
21254SOL     OW67038   6.619  11.156  10.544  0.1748 -0.2249 -0.6527
21254SOL    HW167039   6.565  11.085  10.510  0.9988 -1.8633  1.2366
21254SOL    HW267040   6.667  11.117  10.617  1.3675  2.0553 -0.1088
21255SOL     OW67041   3.872   1.940  11.235  0.2280 -0.3924  0.3634
21255SOL    HW167042   3.872   2.009  11.169  0.2469 -1.6422 -0.9923
21255SOL    HW267043   3.800   1.963  11.294 -1.2374 -0.3853 -1.3461
21256SOL     OW67044   5.830  11.352   1.441  0.3598 -0.4035  0.7130
21256SOL    HW167045   5.892  11.393   1.501 -1.7616  0.2416  2.6022
21256SOL    HW267046   5.753  11.333   1.495 -0.9530 -1.5544 -1.4099
21257SOL     OW67047   4.023   8.705   9.095  0.3475 -0.5048 -0.0132
21257SOL    HW167048   3.981   8.714   9.180 -1.3087 -3.5151 -0.3834
21257SOL    HW267049   4.054   8.614   9.093  0.4842 -0.4683 -2.5346
21258SOL     OW67050  10.853   2.489   5.519 -0.6624  0.2208  0.3716
21258SOL    HW167051  10.888   2.400   5.515 -3.7538 -1.0636 -1.4071
21258SOL    HW267052  10.854   2.519   5.428  1.0743  2.4357  1.0253
21259SOL     OW67053   5.268   0.165  10.406 -0.1984  0.1840 -0.6877
21259SOL    HW167054   5.341   0.210  10.364  0.5000 -1.2476 -1.0608
21259SOL    HW267055   5.212   0.236  10.438 -0.5126  1.3725 -3.5272
21260SOL     OW67056  10.580   3.904   7.968  0.1387  0.0749 -0.8205
21260SOL    HW167057  10.599   3.811   7.956 -2.4507 -0.5314 -0.6825
21260SOL    HW267058  10.663   3.941   7.997  1.0121 -2.3533  0.0620
21261SOL     OW67059   6.438   5.639   3.252  0.1918 -0.6525  0.4116
21261SOL    HW167060   6.504   5.663   3.318  0.1582 -0.5700  0.4157
21261SOL    HW267061   6.447   5.706   3.184 -2.4209  1.6943  2.1310
21262SOL     OW67062   3.731   5.712   8.560  0.5352  0.3789  0.0535
21262SOL    HW167063   3.789   5.708   8.636  0.6332 -1.5147 -0.0619
21262SOL    HW267064   3.660   5.651   8.580  0.0575  0.5698 -0.9724
21263SOL     OW67065   8.427   4.797   1.963  0.3026 -0.3761 -0.5625
21263SOL    HW167066   8.409   4.860   2.032  0.4005 -0.5230 -0.4012
21263SOL    HW267067   8.481   4.845   1.900 -0.5485  0.0357 -1.0021
21264SOL     OW67068   5.932   2.319   8.785 -0.0626 -0.7151 -0.2025
21264SOL    HW167069   5.915   2.272   8.866  0.9531 -0.0877  0.3992
21264SOL    HW267070   5.890   2.267   8.717  0.7427 -2.3257  0.4810
21265SOL     OW67071   2.221   6.313  10.672  0.1657 -0.6945 -0.2588
21265SOL    HW167072   2.224   6.394  10.621  0.0900 -0.5983 -0.1116
21265SOL    HW267073   2.141   6.269  10.645 -0.2510 -0.2965  0.2987
21266SOL     OW67074   6.034   0.371   1.759  0.3927 -0.3826  0.3024
21266SOL    HW167075   6.067   0.285   1.783  5.1187  0.9471 -0.4196
21266SOL    HW267076   6.042   0.424   1.838  1.9030  0.4454 -0.3778
21267SOL     OW67077   2.956   3.719   6.674 -0.6149  0.3899 -0.0199
21267SOL    HW167078   2.936   3.629   6.698  1.1132  0.3949  1.7542
21267SOL    HW267079   2.874   3.754   6.640 -1.5268 -1.6094 -0.0124
21268SOL     OW67080   8.900   2.756  10.566  0.7170 -0.1836 -0.5950
21268SOL    HW167081   8.890   2.666  10.596  2.2297  0.3107  1.6172
21268SOL    HW267082   8.814   2.795  10.579  0.3221 -1.0314 -0.5929
21269SOL     OW67083   0.203   6.822  10.124  0.3829 -0.2393 -0.5192
21269SOL    HW167084   0.183   6.881  10.197 -1.4688  0.7983 -1.8078
21269SOL    HW267085   0.289   6.787  10.146  0.9123  1.8064  1.0275
21270SOL     OW67086   4.408   4.001   1.576 -0.2572 -0.0117 -0.3724
21270SOL    HW167087   4.402   3.909   1.550 -0.3545 -0.2378  0.4254
21270SOL    HW267088   4.320   4.036   1.558 -0.4285 -0.2560 -0.0289
21271SOL     OW67089   6.238   8.874   4.614  0.5803  0.0505 -0.0818
21271SOL    HW167090   6.282   8.914   4.689  0.0417  0.0858  0.2229
21271SOL    HW267091   6.192   8.947   4.572 -0.2550 -0.2090  0.3668
21272SOL     OW67092   4.352   9.186   4.072 -0.5265 -0.3052 -0.0982
21272SOL    HW167093   4.408   9.155   4.144 -0.2402  0.4772  0.0253
21272SOL    HW267094   4.282   9.235   4.116 -2.0189 -2.2744 -0.1618
21273SOL     OW67095   7.958  10.444   2.772 -0.2950 -0.2234  0.1507
21273SOL    HW167096   7.906  10.506   2.823 -0.4241 -0.6376  0.5273
21273SOL    HW267097   7.945  10.471   2.681 -0.3563  0.2944  0.3114
21274SOL     OW67098  10.050   5.967   4.518 -0.0426 -0.0091 -0.2499
21274SOL    HW167099   9.979   5.941   4.576 -1.9346  1.2865 -1.8758
21274SOL    HW267100  10.123   5.910   4.543 -2.7013 -4.2252 -1.0986
21275SOL     OW67101   4.702   8.736  10.536 -0.6040  0.0830  0.3290
21275SOL    HW167102   4.611   8.751  10.511 -0.2654  0.8296 -0.5027
21275SOL    HW267103   4.726   8.654  10.492 -0.8108 -0.0160  0.3984
21276SOL     OW67104   8.158  10.236   8.935 -0.0857 -0.2495  0.0370
21276SOL    HW167105   8.252  10.222   8.930  0.2914  1.4482  1.4530
21276SOL    HW267106   8.124  10.203   8.852  1.6720 -1.3804 -0.2831
21277SOL     OW67107  11.255   6.334   0.111 -0.0789 -0.3723  0.2291
21277SOL    HW167108  11.284   6.250   0.075 -0.2863  0.2464 -1.4795
21277SOL    HW267109  11.294   6.399   0.053 -2.8142  0.5694 -0.6955
21278SOL     OW67110  10.948   7.622  10.309 -0.0219 -0.1949  0.2036
21278SOL    HW167111  10.977   7.704  10.269  1.5301 -0.1459  1.3122
21278SOL    HW267112  11.029   7.571  10.319 -1.1728 -2.9212 -2.6483
21279SOL     OW67113   6.783   0.671   6.579  0.7446 -0.1244  0.4446
21279SOL    HW167114   6.725   0.625   6.518 -0.1809  1.1830  0.2843
21279SOL    HW267115   6.791   0.611   6.654 -1.3088 -0.1415  0.7240
21280SOL     OW67116   3.832   0.788   8.508  0.2082 -0.6755 -0.1335
21280SOL    HW167117   3.788   0.862   8.466 -2.3747 -0.9007  1.9186
21280SOL    HW267118   3.849   0.726   8.437  0.4611  0.9406 -1.5419
21281SOL     OW67119   4.293   5.594   2.464 -0.4228  0.6420  0.1128
21281SOL    HW167120   4.275   5.521   2.524 -3.7351  1.1034 -0.1049
21281SOL    HW267121   4.260   5.563   2.380  0.2806  1.5539 -0.5101
21282SOL     OW67122   4.493   9.709   6.838  0.0158  0.5259  0.3643
21282SOL    HW167123   4.521   9.715   6.929 -0.2202  1.5523  0.3814
21282SOL    HW267124   4.549   9.772   6.792  0.0038  0.1498 -0.1715
21283SOL     OW67125   6.590   6.905   1.150 -0.2417  0.1336 -0.5178
21283SOL    HW167126   6.679   6.870   1.153 -0.8691 -1.5162 -0.0460
21283SOL    HW267127   6.564   6.898   1.058  0.1412  0.7097 -0.6732
21284SOL     OW67128   5.521   4.605   4.562 -0.2993  0.0203  0.2393
21284SOL    HW167129   5.469   4.632   4.486 -0.1242 -0.1055  0.0722
21284SOL    HW267130   5.582   4.678   4.576 -1.0727  0.5523  0.9630
21285SOL     OW67131   6.760   5.203   0.273 -0.1199  0.3197 -0.0058
21285SOL    HW167132   6.746   5.229   0.182  0.2708  0.9233  0.1017
21285SOL    HW267133   6.737   5.281   0.324  2.3268  0.9536  0.2511
21286SOL     OW67134   9.515   8.884   2.062 -0.1206  0.0870 -0.3395
21286SOL    HW167135   9.509   8.880   2.158  0.3924  0.1332 -0.3013
21286SOL    HW267136   9.604   8.917   2.045 -0.7284  1.5693 -0.7989
21287SOL     OW67137  10.916   9.292  10.170  0.2476  0.1046  0.2644
21287SOL    HW167138  10.910   9.231  10.097  2.3378 -0.5146  0.5392
21287SOL    HW267139  10.959   9.241  10.239 -1.3364  0.7826  1.8319
21288SOL     OW67140   1.811   8.955   8.166 -0.6409 -0.4475  0.0834
21288SOL    HW167141   1.726   8.914   8.150  0.5899 -2.6945 -1.1480
21288SOL    HW267142   1.874   8.885   8.156  1.4439  1.2923  0.3151
21289SOL     OW67143  10.004   0.063   7.118 -0.0074  0.2449  0.3256
21289SOL    HW167144  10.049   0.101   7.193  0.9662  0.7334 -0.4791
21289SOL    HW267145  10.074   0.037   7.059 -0.7656  2.1552 -1.5261
21290SOL     OW67146   8.012   1.105   0.841  0.4346 -0.0866  0.5114
21290SOL    HW167147   8.008   1.020   0.886  0.5964  0.0505  0.7883
21290SOL    HW267148   8.034   1.167   0.910  0.3638  0.1746  0.2984
21291SOL     OW67149   5.932   8.264  11.311 -0.2903  0.1400 -0.6797
21291SOL    HW167150   5.923   8.334  11.246  0.0914  1.0781  0.2351
21291SOL    HW267151   5.928   8.183  11.260  1.1404  0.8598 -2.0355
21292SOL     OW67152   2.576   4.151   8.149  0.3189  0.0499  0.0421
21292SOL    HW167153   2.564   4.058   8.131 -1.3424  0.3533 -0.6181
21292SOL    HW267154   2.488   4.188   8.144  0.8761  1.5738  0.8406
21293SOL     OW67155   3.253   8.475  11.008 -0.3051 -0.1536 -0.3317
21293SOL    HW167156   3.239   8.556  11.056  1.4251 -0.6423  1.1386
21293SOL    HW267157   3.320   8.496  10.943 -0.4905 -0.2101 -0.5448
21294SOL     OW67158   7.467   3.408   6.695 -0.2230  0.2105 -0.4190
21294SOL    HW167159   7.384   3.375   6.659 -0.6244  0.4066  0.2956
21294SOL    HW267160   7.534   3.351   6.658 -0.8164 -0.8235  0.0483
21295SOL     OW67161   2.457   1.041  10.063  0.1866  0.0465 -0.6186
21295SOL    HW167162   2.440   1.111  10.000 -0.1417 -0.5236 -1.1728
21295SOL    HW267163   2.459   0.961  10.010  2.5908 -0.1829 -0.3127
21296SOL     OW67164   2.430   9.357   8.666 -0.7661  0.1905  0.0341
21296SOL    HW167165   2.495   9.288   8.651 -0.0185  1.2365 -1.8954
21296SOL    HW267166   2.346   9.311   8.664 -0.2883 -0.6838 -1.2728
21297SOL     OW67167   2.349   1.500   1.556 -0.0056  0.1006 -0.1861
21297SOL    HW167168   2.431   1.464   1.522 -0.0298  0.7053 -0.9148
21297SOL    HW267169   2.287   1.427   1.552  0.5412 -0.4285  0.5916
21298SOL     OW67170   6.534   0.589   0.312  0.2459  0.5154 -0.2039
21298SOL    HW167171   6.491   0.633   0.385  0.1935 -0.3953  0.3310
21298SOL    HW267172   6.572   0.660   0.260  0.0480  1.1918  0.5597
21299SOL     OW67173   2.531   7.150   9.474  0.5023 -0.4155 -0.0072
21299SOL    HW167174   2.553   7.057   9.487  2.7593  0.1108  0.3806
21299SOL    HW267175   2.611   7.197   9.498 -0.6832  1.6684  0.0590
21300SOL     OW67176   1.266   7.609   6.274 -0.0642  0.1962  0.5293
21300SOL    HW167177   1.183   7.572   6.245 -0.5163  1.1230  0.5929
21300SOL    HW267178   1.292   7.555   6.349 -0.6140 -0.0915  0.5185
21301SOL     OW67179   7.318   1.641   4.884 -0.0789  0.0674  0.0593
21301SOL    HW167180   7.410   1.639   4.909  0.0631  1.1983 -0.3176
21301SOL    HW267181   7.302   1.555   4.844  0.8429 -0.0864  0.0066
21302SOL     OW67182   9.846   4.805   0.215  0.6928  0.2098 -0.1665
21302SOL    HW167183   9.772   4.743   0.209  1.8813 -1.6367  2.3065
21302SOL    HW267184   9.805   4.890   0.230 -0.9609 -0.2234 -1.8131
21303SOL     OW67185   5.602   7.171   9.151  0.8198  0.3784  0.2911
21303SOL    HW167186   5.568   7.174   9.062 -1.7180  2.1370  1.2009
21303SOL    HW267187   5.655   7.251   9.159  1.7369 -0.2073  0.1221
21304SOL     OW67188   7.499   3.954   7.436 -0.4442  0.3286 -0.5019
21304SOL    HW167189   7.586   3.993   7.438  0.2891 -1.2562  0.1273
21304SOL    HW267190   7.463   3.970   7.523 -0.1134 -0.4366 -0.2194
21305SOL     OW67191   4.921   5.341   1.307  0.3564 -0.6423 -0.1587
21305SOL    HW167192   4.927   5.377   1.396 -1.2048 -0.2845 -0.1642
21305SOL    HW267193   4.960   5.409   1.252  0.4358 -0.4265  0.1540
21306SOL     OW67194   3.603   4.060   7.776 -0.0293  0.2667  0.2215
21306SOL    HW167195   3.694   4.044   7.751 -0.4625 -1.1998 -0.5139
21306SOL    HW267196   3.551   4.033   7.700 -1.0921  1.0996  0.6164
21307SOL     OW67197   5.563   0.339  11.386  0.1894  0.4014 -0.0458
21307SOL    HW167198   5.612   0.278  11.331 -0.7872 -0.2415 -0.2227
21307SOL    HW267199   5.520   0.397  11.324  1.3324  1.4882  0.1237
21308SOL     OW67200   8.073   4.440   3.806  0.0413 -0.3174 -0.4771
21308SOL    HW167201   8.038   4.358   3.841 -1.2813 -0.0125 -1.0353
21308SOL    HW267202   8.147   4.413   3.751 -0.8987 -1.2318 -1.3416
21309SOL     OW67203   2.288   4.109   9.710  0.5471  0.0444 -0.7052
21309SOL    HW167204   2.253   4.183   9.761  0.2452  0.1442 -1.0584
21309SOL    HW267205   2.285   4.138   9.619  1.2807 -0.0598 -0.7679
21310SOL     OW67206   3.684   3.399   9.137  0.3009 -0.2379 -0.2145
21310SOL    HW167207   3.638   3.421   9.218 -0.8214 -2.8124 -0.0314
21310SOL    HW267208   3.663   3.470   9.077 -0.2372  0.8780  1.2352
21311SOL     OW67209   3.327   6.394  10.399 -0.3273  0.4187  0.1313
21311SOL    HW167210   3.276   6.315  10.384  0.9186 -0.3560 -0.0708
21311SOL    HW267211   3.400   6.388  10.338  1.2775  0.3691  1.9717
21312SOL     OW67212   4.740   1.702   1.822  0.1012 -0.1682  0.1751
21312SOL    HW167213   4.802   1.773   1.841 -0.5300  0.7026 -0.9561
21312SOL    HW267214   4.780   1.653   1.750  0.3075 -0.7059  0.6387
21313SOL     OW67215   3.625  11.022  10.995  0.4013  0.3812 -0.5039
21313SOL    HW167216   3.649  11.089  10.932 -2.1866 -0.2294 -2.3118
21313SOL    HW267217   3.659  10.941  10.958 -0.9177  0.0524 -1.0456
21314SOL     OW67218   3.243   4.953   4.150 -0.0295 -0.0432 -0.4030
21314SOL    HW167219   3.332   4.919   4.146  0.4969  1.3110 -0.8605
21314SOL    HW267220   3.190   4.878   4.174  1.0720 -1.1663 -1.3167
21315SOL     OW67221   7.865   8.895   4.233 -0.0600  1.1615 -0.3653
21315SOL    HW167222   7.916   8.892   4.151  0.6399 -2.4094  0.0315
21315SOL    HW267223   7.930   8.913   4.300  0.3955 -1.1282 -0.1127
21316SOL     OW67224   6.638   3.996   9.939  0.3486  0.0760 -0.1657
21316SOL    HW167225   6.583   3.960   9.869  1.6938 -0.2580 -1.0807
21316SOL    HW267226   6.727   3.989   9.905  0.8296  2.4957  0.4352
21317SOL     OW67227   4.111   7.625   1.065 -0.2081  0.2845 -0.3610
21317SOL    HW167228   4.183   7.566   1.087  0.3496  0.9882 -0.2719
21317SOL    HW267229   4.114   7.693   1.132  0.0292  1.1611 -1.2342
21318SOL     OW67230   8.094   4.039   2.021  0.2258 -0.4607  0.9151
21318SOL    HW167231   8.138   4.108   2.072  0.4202 -0.7680  1.1670
21318SOL    HW267232   8.158   4.013   1.955  0.1718 -0.4349  0.8531
21319SOL     OW67233   2.349   2.715   4.751 -0.2185  0.2448 -0.1621
21319SOL    HW167234   2.308   2.718   4.837 -0.5834  0.3162 -0.3366
21319SOL    HW267235   2.347   2.805   4.720 -0.9349  0.0782 -0.6325
21320SOL     OW67236   0.164   9.406  10.567 -0.0999 -0.5759 -0.3964
21320SOL    HW167237   0.224   9.442  10.502  1.6310 -0.5654  1.1163
21320SOL    HW267238   0.090   9.467  10.568  0.9341  0.7436 -0.7137
21321SOL     OW67239   0.609   2.708  10.129  0.2093  0.3884 -0.0538
21321SOL    HW167240   0.547   2.641  10.100 -0.6809  1.8078 -1.5929
21321SOL    HW267241   0.567   2.750  10.204  1.0040 -1.0527  1.2587
21322SOL     OW67242   8.341   1.241   8.714  0.4212 -0.0099 -0.4156
21322SOL    HW167243   8.412   1.188   8.678  0.8285  0.6622 -0.6260
21322SOL    HW267244   8.331   1.210   8.804  0.4213 -0.6688 -0.6395
21323SOL     OW67245   6.611   6.984   3.588  0.4459  0.3967 -0.4801
21323SOL    HW167246   6.666   6.978   3.509  1.7630  0.9771  0.3552
21323SOL    HW267247   6.605   7.078   3.606 -1.5128  0.3988 -0.9881
21324SOL     OW67248   6.958   1.408   9.126 -0.0702  0.2042 -0.6434
21324SOL    HW167249   7.013   1.448   9.193  0.2228  0.1968 -0.8785
21324SOL    HW267250   6.998   1.323   9.109  0.2907  0.5075 -1.3580
21325SOL     OW67251   6.574   4.927   4.172  0.3021 -0.3144 -0.3716
21325SOL    HW167252   6.664   4.931   4.138  0.0642 -0.7994 -1.0712
21325SOL    HW267253   6.528   4.999   4.129  0.2988 -0.1988 -0.1762
21326SOL     OW67254   5.933   6.751   7.642 -0.1136  0.1993 -0.0509
21326SOL    HW167255   5.881   6.824   7.610  0.8030  0.8568 -0.0578
21326SOL    HW267256   5.872   6.676   7.642 -1.1446  1.0155  0.2496
21327SOL     OW67257   9.845   1.017   9.384 -0.0597  0.3603 -0.0537
21327SOL    HW167258   9.777   1.075   9.351 -0.9583 -0.8935 -0.4798
21327SOL    HW267259   9.811   0.987   9.468 -0.8520 -1.5721 -1.0159
21328SOL     OW67260   1.937  10.393   5.448  0.0599 -0.2502  0.6655
21328SOL    HW167261   1.900  10.309   5.421  1.6921 -0.9079  0.3786
21328SOL    HW267262   2.016  10.403   5.396 -0.5930  1.9594 -0.0159
21329SOL     OW67263  11.235   4.935   1.731  0.1962  0.5827 -0.2009
21329SOL    HW167264  11.208   4.868   1.668 -0.6400  1.0858 -0.3862
21329SOL    HW267265  11.263   5.009   1.676  0.7479  0.5332  0.0076
21330SOL     OW67266   2.068   5.117   4.369  0.2602  0.5568  0.0048
21330SOL    HW167267   2.092   5.049   4.432  1.6158  1.4651  0.5278
21330SOL    HW267268   2.081   5.076   4.284  1.2321  0.1826  0.3106
21331SOL     OW67269   3.586   6.713   4.752  0.3709 -0.4992  0.3699
21331SOL    HW167270   3.660   6.713   4.813  0.9867  1.3414 -0.3303
21331SOL    HW267271   3.540   6.795   4.768  2.0716  1.4255 -3.3303
21332SOL     OW67272   8.025   5.562  10.063  0.5974 -0.0667  0.4334
21332SOL    HW167273   8.111   5.598  10.046 -0.6573  1.4062 -4.3602
21332SOL    HW267274   8.029   5.472  10.031  0.3573  0.0742 -0.0123
21333SOL     OW67275  10.810   7.819   5.442  0.5509  0.2984  0.0634
21333SOL    HW167276  10.726   7.816   5.488 -0.6766  1.2789 -1.9768
21333SOL    HW267277  10.800   7.890   5.379  2.0133 -1.1517 -1.9242
21334SOL     OW67278   7.386   3.789  11.158 -0.3748  0.1142  0.2766
21334SOL    HW167279   7.401   3.788  11.063 -1.7389  1.6500 -0.0133
21334SOL    HW267280   7.291   3.795  11.167 -0.2210  0.7734  1.7241
21335SOL     OW67281   4.611   0.953   5.417  0.1248  0.3576 -0.4796
21335SOL    HW167282   4.591   0.869   5.458 -3.1585  0.8344 -0.7974
21335SOL    HW267283   4.683   0.934   5.357 -0.5825 -2.2584 -0.6277
21336SOL     OW67284   9.387   4.042   8.245 -0.3444  0.0985 -0.3059
21336SOL    HW167285   9.464   4.055   8.301 -0.9068  0.8244  0.3133
21336SOL    HW267286   9.367   4.130   8.212  0.5958 -0.4344 -2.5157
21337SOL     OW67287   0.004   6.365   9.355  0.0045 -0.6417  0.4621
21337SOL    HW167288  -0.055   6.441   9.361 -0.0011 -0.6039 -0.0583
21337SOL    HW267289   0.039   6.369   9.266  1.4425 -0.1776  1.0148
21338SOL     OW67290   1.509   4.852   7.495 -0.1438  0.2207 -0.2134
21338SOL    HW167291   1.582   4.852   7.556 -0.6653  5.7410  0.9770
21338SOL    HW267292   1.547   4.878   7.411 -0.4900  3.1505  0.4188
21339SOL     OW67293   8.800   0.587   1.057  0.1456 -0.6608  0.1086
21339SOL    HW167294   8.800   0.526   1.131  0.6413 -1.4132 -0.5036
21339SOL    HW267295   8.850   0.662   1.088 -1.6142  0.0732  1.3589
21340SOL     OW67296   5.242   6.879   0.834 -0.3222 -0.1150  0.0767
21340SOL    HW167297   5.283   6.793   0.826  1.0898  0.4743  0.5791
21340SOL    HW267298   5.189   6.888   0.755  0.5508 -0.9257 -0.6273
21341SOL     OW67299   3.604  10.384   5.636 -0.0369  0.0130  0.1991
21341SOL    HW167300   3.663  10.309   5.627 -0.4372 -0.3664  0.7147
21341SOL    HW267301   3.579  10.406   5.546  1.3199  0.5279 -0.0727
21342SOL     OW67302   4.432   5.337   9.461 -0.3733 -0.5086  0.2622
21342SOL    HW167303   4.474   5.420   9.439  1.4345 -1.2723  0.6424
21342SOL    HW267304   4.384   5.313   9.382  0.1644  0.2410 -0.3087
21343SOL     OW67305   4.969   0.287   7.962 -0.8469  0.3592 -0.5465
21343SOL    HW167306   4.983   0.314   8.053  0.4370  0.0276 -0.6215
21343SOL    HW267307   4.943   0.195   7.969  0.5601 -0.0564 -0.5601
21344SOL     OW67308   4.613   7.757  10.670 -0.1512  0.0869  0.0239
21344SOL    HW167309   4.644   7.687  10.728 -0.8690 -0.3157 -0.0714
21344SOL    HW267310   4.682   7.765  10.605 -0.0706 -0.5564  0.0192
21345SOL     OW67311   9.811   6.245   7.398  0.4346  0.1076  0.2302
21345SOL    HW167312   9.892   6.286   7.368  1.0652  0.6658  2.5010
21345SOL    HW267313   9.811   6.158   7.358  1.9149  0.2715 -0.1832
21346SOL     OW67314   1.094   8.160   7.468  0.3073  0.0764  0.0403
21346SOL    HW167315   1.160   8.090   7.472  1.1985  0.8655 -0.3296
21346SOL    HW267316   1.033   8.139   7.538  0.7137 -0.9223  0.1162
21347SOL     OW67317   2.088  10.055   3.064 -0.2498 -0.2082 -0.5437
21347SOL    HW167318   2.109  10.029   3.154 -0.3296  0.2297 -0.3984
21347SOL    HW267319   1.993  10.061   3.062 -0.2296  0.1309 -0.5593
21348SOL     OW67320   9.630  10.652  10.099  0.6982 -0.4272  0.1292
21348SOL    HW167321   9.572  10.689  10.165  1.7684  0.3640  0.6491
21348SOL    HW267322   9.613  10.558  10.102  0.0168 -0.2901  0.8292
21349SOL     OW67323   3.228   4.856   5.119 -0.1137 -0.8820 -0.6358
21349SOL    HW167324   3.166   4.910   5.070 -0.1211 -1.0824 -0.8521
21349SOL    HW267325   3.312   4.901   5.109 -0.3242 -0.2809  0.1645
21350SOL     OW67326   3.340  10.731   9.071 -0.4563 -0.0967 -0.2714
21350SOL    HW167327   3.310  10.820   9.085 -1.5385 -0.4238 -0.4174
21350SOL    HW267328   3.273  10.691   9.016 -0.4978 -1.2849  0.5884
21351SOL     OW67329   8.577   9.408   0.346  0.2585 -0.7959 -0.3679
21351SOL    HW167330   8.553   9.482   0.401 -2.0786 -1.2459 -0.6461
21351SOL    HW267331   8.622   9.347   0.405  2.7812  1.0113 -0.2756
21352SOL     OW67332   7.335   0.759   8.166  0.3816  0.8453  0.1089
21352SOL    HW167333   7.311   0.851   8.174 -0.1391  0.6322  1.3145
21352SOL    HW267334   7.307   0.720   8.249 -0.4795 -0.6433 -0.8445
21353SOL     OW67335   3.853   3.834   1.811 -0.4711 -0.2109  0.4178
21353SOL    HW167336   3.759   3.825   1.796 -0.6790 -2.0785  2.3700
21353SOL    HW267337   3.862   3.834   1.906  1.6453 -2.3486  0.3034
21354SOL     OW67338   3.943   7.529   6.303  0.1185 -0.0719  0.1297
21354SOL    HW167339   3.903   7.452   6.344 -0.5458 -0.3625 -1.0096
21354SOL    HW267340   3.994   7.493   6.230  0.7372  0.4790  0.2894
21355SOL     OW67341   3.043   4.004  10.015 -0.1824  0.0093  0.1408
21355SOL    HW167342   3.123   4.057  10.017 -0.5122  0.4952  1.9849
21355SOL    HW267343   2.992   4.041   9.942  0.2565  1.2549  0.4350
21356SOL     OW67344   5.327   6.108   9.144  0.5441 -0.2020 -0.7210
21356SOL    HW167345   5.378   6.077   9.218  1.4920  0.3242 -1.1274
21356SOL    HW267346   5.236   6.086   9.165  0.9363 -1.1294  0.0329
21357SOL     OW67347   0.280   1.390   0.209  0.0474  0.3155 -0.2112
21357SOL    HW167348   0.304   1.315   0.155 -0.9339 -0.4216  0.3448
21357SOL    HW267349   0.305   1.466   0.156 -0.7917 -0.3832 -1.6680
21358SOL     OW67350   6.582   7.689   7.901  0.0888 -0.2801  0.1967
21358SOL    HW167351   6.564   7.606   7.946 -1.0186 -0.4778 -0.5622
21358SOL    HW267352   6.581   7.666   7.808  0.5272  0.4585  0.0016
21359SOL     OW67353  11.216   0.057   6.301  0.2007 -0.3689  0.1589
21359SOL    HW167354  11.270   0.094   6.230  0.3696 -0.3138  0.3148
21359SOL    HW267355  11.268  -0.016   6.335  0.0924 -0.4338  0.1872
21360SOL     OW67356   4.006   0.891  10.355 -0.6096 -0.0624  0.3122
21360SOL    HW167357   3.916   0.893  10.322 -0.5450 -2.5176 -0.2119
21360SOL    HW267358   4.052   0.835  10.294  1.4336  1.4835  0.3403
21361SOL     OW67359   2.100   3.593   3.856 -0.0883 -0.1015 -0.3803
21361SOL    HW167360   2.013   3.564   3.885  0.0039  0.1528  0.1639
21361SOL    HW267361   2.154   3.587   3.935  0.2784  0.1789 -0.6104
21362SOL     OW67362   0.606   5.051   1.676  0.4637  0.3799 -0.0610
21362SOL    HW167363   0.518   5.013   1.680  0.8204 -0.7833 -1.9714
21362SOL    HW267364   0.624   5.079   1.766 -1.5019 -0.1532  0.5488
21363SOL     OW67365   0.259   6.248  11.063  0.1946  0.1384  0.2066
21363SOL    HW167366   0.266   6.290  10.977  1.2545 -1.0429 -0.3131
21363SOL    HW267367   0.176   6.200  11.060  1.0511 -1.3611 -0.8711
21364SOL     OW67368   0.966   6.048   7.744  0.9381  0.0882  0.2432
21364SOL    HW167369   0.987   5.955   7.733  1.9889  0.3082  0.2831
21364SOL    HW267370   1.017   6.075   7.820 -0.4151  0.3886  1.0755
21365SOL     OW67371   3.245   1.740   8.767  0.5818  0.5092 -0.2419
21365SOL    HW167372   3.262   1.816   8.822  0.3296 -0.1769  0.8213
21365SOL    HW267373   3.153   1.720   8.782 -0.0031  1.3753 -2.3265
21366SOL     OW67374   0.233  10.329   2.453 -0.0047 -0.4085  0.4981
21366SOL    HW167375   0.194  10.301   2.536 -1.1738 -1.9603 -0.5253
21366SOL    HW267376   0.179  10.403   2.425  0.0416 -0.2446  0.8349
21367SOL     OW67377  10.492   2.113   4.445  0.0723  0.1626 -0.4184
21367SOL    HW167378  10.437   2.184   4.412  0.1744  1.9593  2.9202
21367SOL    HW267379  10.580   2.136   4.416  0.0010  1.0484  0.0305
21368SOL     OW67380   3.481   3.668   2.662 -0.5759 -0.1629  0.7294
21368SOL    HW167381   3.498   3.600   2.727  0.6674 -0.9319 -0.3559
21368SOL    HW267382   3.566   3.709   2.648 -1.2544  1.4693  1.1629
21369SOL     OW67383   7.331   5.140   7.618 -0.4295 -0.1332  0.3792
21369SOL    HW167384   7.295   5.066   7.668 -0.3743  0.6986  1.6926
21369SOL    HW267385   7.255   5.195   7.600 -0.5547 -0.7414 -1.0548
21370SOL     OW67386   4.914   0.734   7.927  0.4507  0.9510 -0.4959
21370SOL    HW167387   5.003   0.768   7.917 -0.6813  4.0315 -1.1285
21370SOL    HW267388   4.914   0.692   8.013  2.4094  1.1798 -0.3269
21371SOL     OW67389   2.461   6.315  10.848  0.7193 -0.2920  0.1117
21371SOL    HW167390   2.431   6.262  10.773  1.4678 -2.2199  1.0935
21371SOL    HW267391   2.498   6.394  10.808 -0.0632 -0.6709 -1.4661
21372SOL     OW67392   8.000   8.879   2.451  0.4493 -0.0748 -0.6420
21372SOL    HW167393   8.095   8.872   2.453  0.6379  1.9912  1.9222
21372SOL    HW267394   7.983   8.953   2.392  0.1839 -1.8015 -2.9060
21373SOL     OW67395   3.778   6.661  10.343 -0.1256 -0.0121 -0.3049
21373SOL    HW167396   3.736   6.700  10.420 -1.0693 -0.7976 -0.3846
21373SOL    HW267397   3.720   6.684  10.270 -1.1013 -2.0502 -0.2529
21374SOL     OW67398   9.862   9.560   6.953 -0.4262  0.1995  0.1331
21374SOL    HW167399   9.920   9.486   6.968  0.0151  0.2214 -1.2913
21374SOL    HW267400   9.913   9.621   6.900 -2.0985 -0.3587 -2.3051
21375SOL     OW67401   3.696   8.379   0.556 -0.3363 -0.1528 -0.3807
21375SOL    HW167402   3.645   8.369   0.476  0.2904 -3.0682 -0.5220
21375SOL    HW267403   3.667   8.307   0.612  0.8893  0.4447  1.0955
21376SOL     OW67404   8.182   9.636  11.326 -0.1916 -0.2896 -0.4257
21376SOL    HW167405   8.256   9.603  11.275 -0.2017  0.7596 -1.1354
21376SOL    HW267406   8.223   9.680  11.401 -0.0882  0.3084 -0.8284
21377SOL     OW67407   0.589   1.970   2.517  0.3238 -0.6846 -0.2650
21377SOL    HW167408   0.534   2.034   2.562 -0.1210 -1.7646  0.7856
21377SOL    HW267409   0.678   2.007   2.521 -0.1660  0.7001 -1.2917
21378SOL     OW67410   2.053   1.756   2.297  0.6998 -0.1637 -0.0786
21378SOL    HW167411   2.098   1.825   2.346 -0.5487  0.1002  0.7767
21378SOL    HW267412   2.008   1.705   2.365 -0.0096 -0.5955 -0.8581
21379SOL     OW67413   9.376   7.995   1.874 -0.2076 -0.1618 -0.2120
21379SOL    HW167414   9.458   8.033   1.841 -1.1573  2.7965  0.4654
21379SOL    HW267415   9.325   7.977   1.795 -0.4872  2.0608 -0.6274
21380SOL     OW67416   6.976   5.407   6.845  0.1426  0.0009 -0.3601
21380SOL    HW167417   7.054   5.377   6.797  0.1595 -2.9968  1.2474
21380SOL    HW267418   6.927   5.459   6.782  2.0495 -0.4526 -2.3408
21381SOL     OW67419   3.848   4.936  10.946 -0.6176  0.0914 -0.1161
21381SOL    HW167420   3.924   4.897  10.902  1.5541  1.6683  2.0007
21381SOL    HW267421   3.803   4.985  10.878  1.7301  1.1795 -0.9904
21382SOL     OW67422   3.091  11.330   2.261  0.2358  0.4831 -0.8560
21382SOL    HW167423   3.005  11.368   2.276 -0.8463 -1.2570 -2.2597
21382SOL    HW267424   3.126  11.379   2.187 -0.5566 -0.2851 -1.7617
21383SOL     OW67425   9.402   9.959   9.252  0.0469 -0.5164  0.1649
21383SOL    HW167426   9.471   9.972   9.317  0.4799 -0.1922 -0.3470
21383SOL    HW267427   9.449   9.944   9.170 -0.4922 -1.0726 -0.0438
21384SOL     OW67428   8.399   3.428   9.129  0.2493  0.7736  0.1654
21384SOL    HW167429   8.479   3.410   9.178 -0.2783  0.0255  0.7766
21384SOL    HW267430   8.423   3.498   9.069  1.4085  0.4305  0.2092
21385SOL     OW67431   5.527   9.944  10.282 -0.2836  0.6214 -0.1429
21385SOL    HW167432   5.435   9.936  10.307 -0.4206  1.0122 -0.5214
21385SOL    HW267433   5.570   9.871  10.327 -0.5351  1.2363  1.1645
21386SOL     OW67434   2.933   6.594   6.224  0.0735  0.6787  0.2966
21386SOL    HW167435   2.972   6.672   6.261  0.6274  0.5924 -0.0783
21386SOL    HW267436   2.947   6.603   6.129 -1.3413  0.9189  0.0846
21387SOL     OW67437  10.806   0.277   0.171 -0.1133 -0.7354  0.5752
21387SOL    HW167438  10.793   0.300   0.079 -3.2134  0.7456  1.2532
21387SOL    HW267439  10.880   0.330   0.200 -0.6645  0.6427 -0.4741
21388SOL     OW67440   8.464   4.123   2.573  0.1518  0.2657  0.0851
21388SOL    HW167441   8.372   4.118   2.546  0.0963  1.2152  0.0442
21388SOL    HW267442   8.511   4.074   2.506 -0.1533  1.2377 -0.8707
21389SOL     OW67443   4.280   9.402   7.782  0.3135 -0.2747  0.2180
21389SOL    HW167444   4.279   9.497   7.774 -1.4159 -0.1825  1.0694
21389SOL    HW267445   4.249   9.385   7.871  0.0709 -1.6378 -0.1017
21390SOL     OW67446   7.056   9.939   0.626  0.0173  0.5574 -0.5442
21390SOL    HW167447   7.104   9.933   0.544  0.3655  2.8900 -0.5911
21390SOL    HW267448   6.991   9.869   0.622  1.1214 -0.4173 -2.0455
21391SOL     OW67449   2.127   5.425  11.243  0.0251 -0.6021  0.3400
21391SOL    HW167450   2.215   5.400  11.216  0.7679 -0.7623  2.6672
21391SOL    HW267451   2.108   5.504  11.192  1.0367 -1.1852 -1.0011
21392SOL     OW67452  10.179   4.342  10.433  0.0624 -0.1032  0.5181
21392SOL    HW167453  10.252   4.280  10.437 -1.0461 -1.3906  1.6473
21392SOL    HW267454  10.102   4.288  10.415 -0.9569  0.8938  1.7075
21393SOL     OW67455   7.993   8.797   3.422  0.1582  0.0601  0.2633
21393SOL    HW167456   7.957   8.716   3.457 -1.4292  0.8973  0.6524
21393SOL    HW267457   8.052   8.768   3.352  0.1097 -1.4470  0.8073
21394SOL     OW67458  10.907   6.321   2.366  0.2302 -0.5565 -0.0703
21394SOL    HW167459  10.835   6.366   2.410  0.0759 -1.0366  0.1739
21394SOL    HW267460  10.864   6.251   2.317  0.2389  0.7141 -2.0373
21395SOL     OW67461   6.122   4.512   5.165 -0.1476  0.5793 -0.7375
21395SOL    HW167462   6.183   4.582   5.187 -0.9934  1.0116  0.3370
21395SOL    HW267463   6.177   4.438   5.138  0.9509  0.4732  1.5586
21396SOL     OW67464   7.010   0.809   7.320 -0.1072  0.3106  0.0472
21396SOL    HW167465   7.074   0.746   7.352  0.3639  1.2957  1.1466
21396SOL    HW267466   7.042   0.833   7.233  2.7338  2.8495  1.5882
21397SOL     OW67467  10.464   4.935   8.840 -0.2534 -0.1633  0.6106
21397SOL    HW167468  10.448   4.882   8.919 -1.3218  0.3172  0.7289
21397SOL    HW267469  10.544   4.983   8.860  1.5933 -2.7387 -0.0465
21398SOL     OW67470   3.220   3.293  11.088  0.4822  0.1899  0.5022
21398SOL    HW167471   3.302   3.258  11.055 -0.2368 -0.7243 -0.3426
21398SOL    HW267472   3.209   3.377  11.043  1.5360  0.9170  1.5325
21399SOL     OW67473   9.011   8.081  10.493 -0.0727  0.8714 -0.3021
21399SOL    HW167474   8.925   8.099  10.457 -0.7494  3.1054  2.1454
21399SOL    HW267475   8.997   8.010  10.556 -0.1935  1.4165  0.2910
21400SOL     OW67476   7.905   1.477   6.677 -0.5165  0.6888  0.3808
21400SOL    HW167477   7.934   1.500   6.765  1.8892 -0.9157  0.1178
21400SOL    HW267478   7.956   1.534   6.619  2.1955 -1.9391 -0.0787
21401SOL     OW67479   4.295   3.015   8.598  0.0961 -0.8649  0.7652
21401SOL    HW167480   4.203   3.001   8.579  0.0780 -0.0597  0.2143
21401SOL    HW267481   4.335   2.928   8.592 -0.4150 -1.0451 -0.1797
21402SOL     OW67482   0.304   5.282   9.155 -0.2257 -0.0545  0.7716
21402SOL    HW167483   0.298   5.274   9.251 -2.2720 -0.8708  0.6274
21402SOL    HW267484   0.337   5.196   9.127 -0.1506 -0.0005  0.6960
21403SOL     OW67485   4.264   0.309   2.437 -0.6206  0.1181 -1.1043
21403SOL    HW167486   4.257   0.320   2.532  1.1685 -1.6030 -0.6915
21403SOL    HW267487   4.215   0.382   2.400 -2.0136  0.4106  1.1323
21404SOL     OW67488   4.454   5.412   9.027  0.0592 -0.3210 -0.2158
21404SOL    HW167489   4.375   5.405   9.081  0.0822 -1.0157 -0.2592
21404SOL    HW267490   4.484   5.501   9.040 -0.3034 -0.2823  0.4108
21405SOL     OW67491   5.217   8.350  10.208  0.4642  0.1764  0.0261
21405SOL    HW167492   5.135   8.314  10.176  0.3692 -0.2891  0.7531
21405SOL    HW267493   5.216   8.332  10.302  1.4899 -0.0402  0.0155
21406SOL     OW67494   1.762   2.926  10.714 -0.3364  0.3657  0.3747
21406SOL    HW167495   1.740   2.894  10.801 -3.0407  1.8924  0.3534
21406SOL    HW267496   1.678   2.932  10.669  0.5375  3.1023 -1.1008
21407SOL     OW67497   4.076  10.962   2.678  0.5449 -0.0334  0.3816
21407SOL    HW167498   4.072  10.917   2.762 -0.0012 -1.9184 -0.5877
21407SOL    HW267499   4.087  10.892   2.614  0.0264  1.2567 -1.1912
21408SOL     OW67500   7.337   5.973   4.194 -0.1485 -0.4085  0.1197
21408SOL    HW167501   7.384   6.054   4.174  1.0527 -1.5011 -1.7738
21408SOL    HW267502   7.247   5.991   4.169 -0.3710  1.0046  1.7460
21409SOL     OW67503   0.830  11.365   5.297  0.0561  0.4731 -0.0218
21409SOL    HW167504   0.917  11.327   5.304 -0.2858 -0.2714  0.3807
21409SOL    HW267505   0.777  11.295   5.258 -0.4977  0.6771  0.3536
21410SOL     OW67506   1.052   8.605   9.027  0.3524 -0.1568 -0.2818
21410SOL    HW167507   0.958   8.605   9.047  0.7438  1.7700  1.8345
21410SOL    HW267508   1.080   8.516   9.047 -0.9099 -0.6356 -0.5116
21411SOL     OW67509  10.595   4.932   6.529 -0.9197 -0.0837  0.6586
21411SOL    HW167510  10.669   4.891   6.484  0.7283  0.5442  2.6744
21411SOL    HW267511  10.631   5.011   6.568 -2.6631  0.2379  1.7371
21412SOL     OW67512   0.785   1.233   6.037 -0.8288 -0.1252  0.2165
21412SOL    HW167513   0.787   1.317   5.991 -3.7497  0.1927  0.5358
21412SOL    HW267514   0.710   1.186   6.000 -0.5934 -1.6943  1.5818
21413SOL     OW67515   3.616   6.894   2.703 -0.4549 -0.8552  0.0689
21413SOL    HW167516   3.686   6.856   2.650 -0.7742 -0.2989 -0.7728
21413SOL    HW267517   3.543   6.834   2.693  0.1300 -1.8904  1.6307
21414SOL     OW67518   7.836   6.224   8.987  0.3711 -0.5867 -0.1926
21414SOL    HW167519   7.882   6.276   9.054  1.8913  0.6938 -2.1376
21414SOL    HW267520   7.811   6.288   8.920  2.6105 -2.2821 -2.8605
21415SOL     OW67521   2.106   5.073   1.980 -0.3686 -0.0293 -0.6501
21415SOL    HW167522   2.164   5.048   1.907 -0.4781  0.2968 -0.8502
21415SOL    HW267523   2.108   4.997   2.038  0.5290  0.1063 -0.4838
21416SOL     OW67524  10.943   2.002   3.079  0.0178 -0.8199 -0.2465
21416SOL    HW167525  11.024   2.051   3.063 -0.9276  1.5417  1.5369
21416SOL    HW267526  10.880   2.068   3.107 -1.4799 -3.0065  2.0141
21417SOL     OW67527   4.273   7.696  10.831  0.1524 -0.2568  0.1289
21417SOL    HW167528   4.305   7.743  10.908  1.4537 -1.6885  0.5062
21417SOL    HW267529   4.351   7.680  10.778 -0.4421 -0.8930 -0.5773
21418SOL     OW67530   6.068   6.006  10.689 -0.7275  0.6161 -0.1337
21418SOL    HW167531   6.035   6.035  10.774 -0.7855 -0.4563  0.2173
21418SOL    HW267532   6.081   5.912  10.699  0.0776  0.6154 -1.0478
21419SOL     OW67533   6.317   7.682   1.310 -0.6525  0.2551 -0.0591
21419SOL    HW167534   6.387   7.689   1.374 -0.9978  2.3407  0.1708
21419SOL    HW267535   6.350   7.727   1.232 -0.4003 -1.8754 -1.2626
21420SOL     OW67536   9.153  10.533   8.077  0.0131 -0.7583 -0.2181
21420SOL    HW167537   9.191  10.460   8.126  1.4507 -0.7844 -1.2950
21420SOL    HW267538   9.084  10.494   8.024 -0.3525 -1.0315  0.4524
21421SOL     OW67539   6.456  10.829   7.721  0.4775  0.2041  0.2784
21421SOL    HW167540   6.480  10.921   7.737  1.0367 -0.0599  0.9833
21421SOL    HW267541   6.539  10.784   7.707  0.1189  0.5436 -4.6253
21422SOL     OW67542   8.919   7.696   0.782  0.0141 -0.5871 -0.0248
21422SOL    HW167543   8.911   7.610   0.822 -0.6838 -0.9427 -0.8961
21422SOL    HW267544   8.831   7.716   0.749  0.0376  0.6786  0.5858
21423SOL     OW67545  11.190   1.904   5.472  0.2803  0.2735 -1.1125
21423SOL    HW167546  11.173   1.927   5.380  2.1693 -1.8699 -2.0816
21423SOL    HW267547  11.119   1.845   5.495 -0.5146  1.2493 -0.9613
21424SOL     OW67548   4.941   5.171  10.316  0.4170  0.5458 -0.4618
21424SOL    HW167549   5.035   5.183  10.310  0.3483  1.1216 -0.4184
21424SOL    HW267550   4.927   5.127  10.400  0.7982 -1.2863 -1.3027
21425SOL     OW67551   9.097   6.874  10.995 -0.2189 -1.1811 -0.0021
21425SOL    HW167552   9.089   6.942  10.928 -0.3992  0.1454  1.3203
21425SOL    HW267553   9.021   6.817  10.981 -1.1104 -0.0273  0.0296
21426SOL     OW67554  10.119   5.806   7.243 -0.1423  0.4529 -0.1071
21426SOL    HW167555  10.110   5.899   7.266  0.0189  0.7766 -1.3057
21426SOL    HW267556  10.120   5.805   7.148 -1.0956 -0.8763 -0.1339
21427SOL     OW67557   8.250   0.809   5.669 -0.0826 -0.3128  0.5536
21427SOL    HW167558   8.272   0.804   5.762  2.1607  1.1738  0.1653
21427SOL    HW267559   8.314   0.753   5.626  1.5669  2.0997 -0.3757
21428SOL     OW67560   2.057   2.172   1.049  0.2741  0.8484  0.1528
21428SOL    HW167561   2.009   2.165   0.966  1.4136 -2.7136 -0.3641
21428SOL    HW267562   2.015   2.108   1.106  2.5731 -0.3485  0.6065
21429SOL     OW67563   4.838   7.313   5.631  0.1209  0.4970  0.2425
21429SOL    HW167564   4.818   7.258   5.706 -0.0629 -0.9412 -0.8120
21429SOL    HW267565   4.825   7.256   5.555  0.7477  1.7610 -0.8661
21430SOL     OW67566   4.052   2.114   2.861 -0.4589 -0.2081 -0.8365
21430SOL    HW167567   3.998   2.035   2.857 -1.6320  0.6253 -2.4465
21430SOL    HW267568   4.115   2.103   2.790  1.7493 -1.2712  1.1519
21431SOL     OW67569   3.948  10.040  10.648  0.2470 -0.1156  0.0505
21431SOL    HW167570   4.021  10.064  10.705  1.9121 -1.3560 -1.4468
21431SOL    HW267571   3.946   9.945  10.650 -0.7600 -0.1219 -0.6528
21432SOL     OW67572   7.160   3.257  11.303 -0.8417 -0.3448  0.3070
21432SOL    HW167573   7.139   3.236  11.394 -1.7087  0.3384  0.2718
21432SOL    HW267574   7.254   3.276  11.304 -0.1568 -3.1455  0.5303
21433SOL     OW67575   4.347   5.988   6.359 -0.1502  0.5980  0.4272
21433SOL    HW167576   4.427   6.035   6.334 -0.0473 -0.1496 -0.7300
21433SOL    HW267577   4.337   6.004   6.453  0.6697  1.7268  0.3326
21434SOL     OW67578   3.914   7.167   3.982 -0.3445 -0.4209  0.0192
21434SOL    HW167579   3.866   7.102   4.034  0.5951  0.0925  1.5820
21434SOL    HW267580   3.925   7.241   4.041 -1.2967  1.1648 -1.6953
21435SOL     OW67581   8.446  10.629   1.094 -0.3825 -0.3110 -0.1570
21435SOL    HW167582   8.502  10.696   1.054 -1.5842  0.7342 -0.1359
21435SOL    HW267583   8.450  10.555   1.034  0.3961  0.0339 -0.5459
21436SOL     OW67584   3.097   6.296   4.556 -0.5826  0.8940  0.2501
21436SOL    HW167585   3.121   6.262   4.642 -3.3973  0.6252  1.0126
21436SOL    HW267586   3.145   6.240   4.495  1.0240  0.7142  1.5743
21437SOL     OW67587   4.986   9.529  10.653  0.0124  0.0815  0.3296
21437SOL    HW167588   4.981   9.593  10.582  0.6563 -0.8949 -0.6180
21437SOL    HW267589   5.048   9.567  10.715 -0.3733  0.8315  0.2708
21438SOL     OW67590   3.540   3.403   5.081  0.0742  0.2782  0.3029
21438SOL    HW167591   3.556   3.484   5.131  0.0127  0.7369 -0.4049
21438SOL    HW267592   3.627   3.366   5.068  0.2154  0.7768 -0.2507
21439SOL     OW67593   8.481   5.081   1.102 -0.0600 -0.0725  0.1507
21439SOL    HW167594   8.387   5.064   1.097 -0.1956  0.7472 -0.2451
21439SOL    HW267595   8.491   5.143   1.174  0.1921 -0.1793  0.2130
21440SOL     OW67596   4.185   4.958   3.241 -0.8605 -0.9809  0.0347
21440SOL    HW167597   4.151   5.002   3.319 -1.2553 -0.2300 -0.5479
21440SOL    HW267598   4.279   4.975   3.242 -1.1143  0.6210 -0.6222
21441SOL     OW67599   1.711   8.763   0.922  0.0655  0.7595  0.2889
21441SOL    HW167600   1.616   8.752   0.928  0.1962 -0.0595  1.0086
21441SOL    HW267601   1.743   8.679   0.891  0.5814  0.9710  0.2337
21442SOL     OW67602   8.250  10.566   2.609  0.3432 -1.0440 -0.1817
21442SOL    HW167603   8.236  10.479   2.571  0.7604 -1.1836 -0.0188
21442SOL    HW267604   8.340  10.564   2.640  0.5340 -0.3635 -0.6726
21443SOL     OW67605   1.765   3.459   0.688 -0.4314 -0.0012  0.0766
21443SOL    HW167606   1.700   3.506   0.636  0.8289  0.4643 -1.1354
21443SOL    HW267607   1.780   3.377   0.640  2.2314  1.2937 -1.5467
21444SOL     OW67608   0.923   4.269   4.828  0.4310 -0.4789  0.1914
21444SOL    HW167609   0.915   4.294   4.735  0.6853 -0.1515  0.2562
21444SOL    HW267610   0.881   4.341   4.875  0.3630 -0.6136  0.3352
21445SOL     OW67611   5.974   1.033   5.321 -0.2445 -0.2235  0.2921
21445SOL    HW167612   6.019   0.964   5.371  1.3467  1.0357  0.6904
21445SOL    HW267613   6.042   1.070   5.265 -0.7615  1.6940  0.8482
21446SOL     OW67614   1.541   8.367   9.154  0.5005  0.9935  0.6549
21446SOL    HW167615   1.495   8.375   9.238  2.0463  0.2196  1.6162
21446SOL    HW267616   1.618   8.313   9.174  1.4255  1.6185 -1.0454
21447SOL     OW67617   7.531   5.688   5.018 -0.9831  0.3935  0.7341
21447SOL    HW167618   7.580   5.770   5.020  1.0146 -0.7451  1.2447
21447SOL    HW267619   7.582   5.631   4.960 -2.3267 -0.4878  0.3817
21448SOL     OW67620   8.591   2.411  10.808 -0.1967  0.8289 -0.0564
21448SOL    HW167621   8.659   2.360  10.764 -0.4614 -0.3845  0.8864
21448SOL    HW267622   8.509   2.377  10.773 -0.4398 -0.5551  1.6930
21449SOL     OW67623  10.348  10.625   4.566  0.5065  0.1131  0.5841
21449SOL    HW167624  10.293  10.654   4.492  0.4403 -0.5439  0.3684
21449SOL    HW267625  10.331  10.689   4.635  0.7465  0.8734 -0.0441
21450SOL     OW67626   1.342   5.665   5.856  0.5871 -0.3871  0.2236
21450SOL    HW167627   1.410   5.693   5.917 -0.1414 -1.2797  1.4971
21450SOL    HW267628   1.326   5.573   5.878 -0.5410 -0.3876 -0.4990
21451SOL     OW67629   8.827   6.169   2.073  0.2042 -0.6299 -0.0506
21451SOL    HW167630   8.842   6.109   2.000 -2.5080 -0.1287 -1.1193
21451SOL    HW267631   8.792   6.248   2.033 -0.7667 -0.0975  1.7185
21452SOL     OW67632   0.821  10.495   9.929  0.4760 -0.5266  0.4331
21452SOL    HW167633   0.774  10.481  10.011  1.5463 -0.9460  0.9830
21452SOL    HW267634   0.870  10.576   9.943 -3.0236  2.2540 -1.5272
21453SOL     OW67635  11.162  10.227   2.377  0.5543  0.1685  0.1923
21453SOL    HW167636  11.103  10.301   2.394 -1.6056 -1.2125 -0.8138
21453SOL    HW267637  11.250  10.265   2.382 -0.4533  2.9166 -0.7570
21454SOL     OW67638   3.528   6.563   3.373 -0.1024 -0.3974  0.3797
21454SOL    HW167639   3.550   6.541   3.283 -0.3943 -2.3826  0.7464
21454SOL    HW267640   3.536   6.480   3.421 -3.4390 -0.2028  1.4940
21455SOL     OW67641  10.763   1.740  10.201 -0.3023  0.0175  1.2718
21455SOL    HW167642  10.761   1.699  10.115  0.5451  0.8493  0.8414
21455SOL    HW267643  10.850   1.718  10.236 -0.9220 -0.9795  2.2600
21456SOL     OW67644   6.167  10.557   9.207  0.0023  0.2116 -0.0484
21456SOL    HW167645   6.140  10.633   9.258 -0.2239  0.4670 -0.5421
21456SOL    HW267646   6.197  10.593   9.124  0.5086 -0.1890 -0.0465
21457SOL     OW67647   2.413   2.102   0.878  0.3423 -0.2329 -0.8873
21457SOL    HW167648   2.412   2.047   0.799 -1.1801 -3.3640  1.1150
21457SOL    HW267649   2.497   2.082   0.919  0.7912  0.8051 -1.2508
21458SOL     OW67650   1.016   8.679   2.921 -0.1521 -0.0988  0.7957
21458SOL    HW167651   0.971   8.652   2.842 -0.6425 -0.7352  1.2778
21458SOL    HW267652   0.951   8.730   2.970  0.1662  0.3434  0.7634
21459SOL     OW67653   3.675   9.512   6.419  0.3087 -0.2384  0.3799
21459SOL    HW167654   3.708   9.574   6.483  1.7677 -1.2064  0.6054
21459SOL    HW267655   3.700   9.426   6.453 -0.1054 -0.8537 -0.8065
21460SOL     OW67656   1.608   3.286   3.075  0.4027  0.0931  0.1332
21460SOL    HW167657   1.600   3.191   3.087  0.0925  0.0077 -0.6332
21460SOL    HW267658   1.697   3.298   3.042  0.3294  0.0186 -0.1021
21461SOL     OW67659   5.338   8.553   2.027 -0.1857  0.1315  0.1684
21461SOL    HW167660   5.322   8.460   2.011  1.9921 -0.2690 -0.0175
21461SOL    HW267661   5.433   8.559   2.037 -0.5025  1.9239  2.9816
21462SOL     OW67662   6.830   9.506   7.875 -0.3674 -0.8648 -0.2046
21462SOL    HW167663   6.784   9.468   7.800 -1.3342 -1.1848  0.5396
21462SOL    HW267664   6.920   9.477   7.865 -0.5250 -1.0550 -1.1445
21463SOL     OW67665   5.434   6.495   7.800  0.8422 -0.2483 -0.2663
21463SOL    HW167666   5.488   6.420   7.824  0.1643 -0.7048 -0.1386
21463SOL    HW267667   5.350   6.477   7.841  1.1794  1.4526  1.2913
21464SOL     OW67668   9.553  10.776   6.830 -0.2282  0.1945  0.0858
21464SOL    HW167669   9.576  10.838   6.899 -0.7888  0.9914 -0.4170
21464SOL    HW267670   9.458  10.786   6.820 -0.1778 -0.0310 -0.6738
21465SOL     OW67671  10.246   9.753   6.916 -0.3919 -0.2640 -0.5703
21465SOL    HW167672  10.259   9.795   6.831  0.4745 -0.0845 -0.3542
21465SOL    HW267673  10.159   9.714   6.909 -0.5982  0.2878 -1.3096
21466SOL     OW67674   5.576   0.596   8.006  0.2946  0.5004 -0.4703
21466SOL    HW167675   5.523   0.522   7.976  2.2099 -1.9772  1.7973
21466SOL    HW267676   5.657   0.589   7.956  0.4387  1.2041 -0.3472
21467SOL     OW67677   2.098   6.648   9.239 -0.2001 -0.6146 -0.3640
21467SOL    HW167678   2.042   6.646   9.316 -1.7068  0.4749 -1.3520
21467SOL    HW267679   2.046   6.696   9.174  2.0928  0.8876 -1.1966
21468SOL     OW67680   9.934   4.355   5.082 -0.4605  0.4640  0.2016
21468SOL    HW167681   9.923   4.407   5.002  0.3877 -0.6901 -0.7096
21468SOL    HW267682  10.023   4.375   5.111  0.2360 -1.1223 -0.6964
21469SOL     OW67683   1.474  11.281   3.625  0.3420 -0.2495  1.1704
21469SOL    HW167684   1.390  11.289   3.579  0.0244  0.5409  1.8744
21469SOL    HW267685   1.482  11.362   3.676  2.7436  0.9676 -0.8721
21470SOL     OW67686   3.472   2.002   0.169 -0.3071  0.0123 -0.1230
21470SOL    HW167687   3.533   2.073   0.149 -0.5230  0.8644  2.0390
21470SOL    HW267688   3.422   1.991   0.088  0.7231  1.3021 -0.9835
21471SOL     OW67689   9.391  10.173   6.333 -0.3839  0.0666  0.0534
21471SOL    HW167690   9.412  10.264   6.314  0.3928 -0.1897 -0.3744
21471SOL    HW267691   9.314  10.154   6.278 -0.6631  0.5109  0.2877
21472SOL     OW67692   9.081   3.974   1.655 -0.4377  0.0218 -0.1182
21472SOL    HW167693   9.010   3.924   1.695  0.6148  0.0541  1.9661
21472SOL    HW267694   9.160   3.923   1.677  0.5181  1.8091  0.8077
21473SOL     OW67695   6.117   5.056   1.867 -0.2867 -0.1021 -0.0712
21473SOL    HW167696   6.169   5.052   1.947 -1.4458 -2.2859  0.6496
21473SOL    HW267697   6.048   5.119   1.886  0.3893  0.6355  0.0103
21474SOL     OW67698   0.414  11.178   1.004 -0.6055 -0.2566  0.4157
21474SOL    HW167699   0.496  11.227   1.003  0.7785 -2.2706  2.5479
21474SOL    HW267700   0.435  11.096   0.960 -2.3429  0.2611 -1.5029
21475SOL     OW67701   5.215  10.911   3.012 -0.0832 -0.0465 -0.4171
21475SOL    HW167702   5.188  11.002   3.000 -0.2945 -0.1383 -0.6423
21475SOL    HW267703   5.147  10.860   2.968 -0.2636 -0.3395  0.1809
21476SOL     OW67704   6.298  10.399   6.821  0.5886 -0.3466  0.4064
21476SOL    HW167705   6.362  10.383   6.752  0.6592 -1.1059  0.6438
21476SOL    HW267706   6.339  10.365   6.900 -0.0560 -0.7143  0.5879
21477SOL     OW67707   7.424   5.373   8.309 -0.5137 -0.0916  0.1193
21477SOL    HW167708   7.462   5.441   8.366 -0.5515  0.4572 -0.5003
21477SOL    HW267709   7.382   5.422   8.238 -0.6680 -0.7629 -0.2581
21478SOL     OW67710   1.210   2.377  10.461  0.1077  0.4111  0.3586
21478SOL    HW167711   1.183   2.394  10.371  0.4183  0.7141  0.3201
21478SOL    HW267712   1.305   2.392  10.460  0.2453 -0.3686  0.5477
21479SOL     OW67713   7.394  10.813  10.732 -0.2059  0.1774  0.3558
21479SOL    HW167714   7.351  10.742  10.685  1.7955 -0.3180 -0.8895
21479SOL    HW267715   7.473  10.773  10.769  0.2923  1.4558  0.7317
21480SOL     OW67716   4.696   0.127   1.824 -0.0092 -0.2734 -0.1397
21480SOL    HW167717   4.752   0.203   1.808 -0.7642  0.6171  1.2591
21480SOL    HW267718   4.610   0.164   1.843 -0.4023 -1.4853  0.5482
21481SOL     OW67719   4.659   3.757  10.781  0.5328  0.8751  0.6669
21481SOL    HW167720   4.569   3.764  10.816 -0.9699 -0.1445 -2.6504
21481SOL    HW267721   4.701   3.692  10.837 -1.8011 -0.8951  0.4926
21482SOL     OW67722   7.260   1.837   8.172 -0.8558  0.6622  0.5121
21482SOL    HW167723   7.312   1.868   8.246 -0.0889  0.0827  0.2238
21482SOL    HW267724   7.199   1.909   8.153 -0.0417  1.4194  0.7300
21483SOL     OW67725   2.018   2.793   5.380 -0.0511 -0.1289  0.0727
21483SOL    HW167726   2.041   2.792   5.287 -0.4586  0.0363 -0.0340
21483SOL    HW267727   1.972   2.876   5.392 -0.8759 -0.5966  0.1977
21484SOL     OW67728   6.824   5.971   4.984 -0.4707 -0.4708 -0.1038
21484SOL    HW167729   6.741   5.942   4.945 -0.8661  1.5041 -0.8590
21484SOL    HW267730   6.804   5.985   5.076 -0.9827 -0.0551 -0.2734
21485SOL     OW67731   0.071   8.020   9.821 -0.2804  0.0819  0.5217
21485SOL    HW167732   0.149   8.043   9.872  0.0389 -1.7718  0.9652
21485SOL    HW267733   0.011   8.093   9.834  1.3634  1.5441  0.1819
21486SOL     OW67734   3.668   5.384  10.720  0.2368 -0.1619 -0.2469
21486SOL    HW167735   3.692   5.420  10.806  3.0642  0.6816 -1.2665
21486SOL    HW267736   3.688   5.291  10.726  0.2582 -0.1373  0.0538
21487SOL     OW67737   2.827   2.809   2.546 -0.3309 -0.1108  0.0019
21487SOL    HW167738   2.778   2.728   2.536 -0.3198 -0.1658  0.3973
21487SOL    HW267739   2.897   2.788   2.607 -0.9974  0.4894  1.0037
21488SOL     OW67740   4.629   5.283   2.700 -0.2876  0.1804 -0.2032
21488SOL    HW167741   4.680   5.225   2.758 -0.3263  0.0182 -0.3327
21488SOL    HW267742   4.642   5.370   2.738  0.8824  0.2821 -0.7893
21489SOL     OW67743   4.954   2.891   3.825  0.7198  0.5368 -0.3575
21489SOL    HW167744   4.975   2.860   3.737  1.1095  1.0748 -0.4610
21489SOL    HW267745   5.003   2.973   3.833  1.6271 -0.0956  0.7938
21490SOL     OW67746   2.163  10.711   7.008  0.2212  0.2797 -0.0977
21490SOL    HW167747   2.126  10.648   7.070 -1.3792  0.8770 -0.4031
21490SOL    HW267748   2.254  10.721   7.036  0.2734 -1.5092  0.4796
21491SOL     OW67749   6.976   3.876   9.446 -0.1138 -0.1726 -0.5068
21491SOL    HW167750   6.990   3.797   9.393  2.3722 -0.9076  1.0612
21491SOL    HW267751   6.939   3.844   9.528  0.4994  0.3168 -0.0270
21492SOL     OW67752  11.392   0.387   1.325 -0.7946 -0.7644  0.0461
21492SOL    HW167753  11.428   0.299   1.310  1.7848  0.3972 -1.3371
21492SOL    HW267754  11.301   0.380   1.297 -1.2801 -3.4205  1.8281
21493SOL     OW67755   8.348   5.550   7.953 -0.2265 -0.3456  0.3200
21493SOL    HW167756   8.333   5.522   7.862 -1.6347  0.2691  0.3240
21493SOL    HW267757   8.264   5.533   7.996  0.2282 -0.0229  1.3429
21494SOL     OW67758   5.671   0.375   9.749  0.5606  0.1129 -0.1843
21494SOL    HW167759   5.753   0.331   9.725 -0.4344 -0.2528 -3.3816
21494SOL    HW267760   5.660   0.442   9.682 -2.3538 -0.6756 -0.6180
21495SOL     OW67761   8.913   6.689   6.554  0.2811 -0.4303 -0.0095
21495SOL    HW167762   9.001   6.651   6.554  0.3597 -0.2526  0.3328
21495SOL    HW267763   8.925   6.775   6.513  0.1598 -0.6385 -0.4954
21496SOL     OW67764   6.240   9.612   3.324  0.0065 -0.6300 -0.3633
21496SOL    HW167765   6.281   9.534   3.287 -1.8495 -1.0609 -1.6283
21496SOL    HW267766   6.312   9.675   3.332  1.2535 -1.9464 -0.7231
21497SOL     OW67767  10.305   8.221   3.916  0.4940 -0.2193 -0.6703
21497SOL    HW167768  10.377   8.209   3.979  0.2940  0.5947 -0.2725
21497SOL    HW267769  10.258   8.138   3.917  0.8306 -0.4096 -0.1698
21498SOL     OW67770   5.166   5.151   1.282  0.1404 -0.2543  0.4289
21498SOL    HW167771   5.222   5.207   1.230 -0.4847 -0.7492 -0.8206
21498SOL    HW267772   5.080   5.195   1.281 -0.3439 -1.1794 -0.5276
21499SOL     OW67773   7.244   9.600   6.091  0.5342 -0.1217  0.6393
21499SOL    HW167774   7.214   9.510   6.107  1.9314 -0.6021  0.7042
21499SOL    HW267775   7.282   9.598   6.004  1.8690  0.0337  1.1955
21500SOL     OW67776  10.635   1.672   4.588 -0.0423  0.9701  0.1853
21500SOL    HW167777  10.618   1.747   4.646 -0.4561  1.8007 -0.9796
21500SOL    HW267778  10.654   1.711   4.503 -0.9952 -0.2584 -0.6306
21501SOL     OW67779   6.379  10.744   1.887 -0.0488  0.1069  0.0005
21501SOL    HW167780   6.410  10.771   1.973 -0.6524  0.3661  0.1408
21501SOL    HW267781   6.285  10.759   1.890 -0.3615 -1.6825 -0.0492
21502SOL     OW67782  10.274   0.163   0.585  0.1594  0.0581  0.3563
21502SOL    HW167783  10.192   0.125   0.553  0.3165  0.5041 -0.6104
21502SOL    HW267784  10.247   0.248   0.621  0.3255  0.6992 -0.9671
21503SOL     OW67785  10.338   2.556   8.355 -0.3098  0.4353  0.0534
21503SOL    HW167786  10.362   2.482   8.409 -1.7462  0.4186  0.7004
21503SOL    HW267787  10.363   2.633   8.406  1.3985  0.4447 -0.7182
21504SOL     OW67788   5.416   1.066   8.401  0.0575 -0.2097  0.2399
21504SOL    HW167789   5.487   1.130   8.394  0.1903 -0.4399 -0.5275
21504SOL    HW267790   5.352   1.108   8.459 -0.4324  1.1531 -1.2351
21505SOL     OW67791   6.946   2.509   8.919  0.1488  0.4515 -0.5494
21505SOL    HW167792   6.960   2.602   8.939  3.5961 -0.2628  0.9571
21505SOL    HW267793   6.989   2.495   8.835 -0.6741  0.2624 -0.9489
21506SOL     OW67794   1.498   3.223   3.697 -0.2646  0.3004 -0.5518
21506SOL    HW167795   1.486   3.315   3.721  0.1766  0.0986  0.5274
21506SOL    HW267796   1.476   3.175   3.777  1.2009 -0.4205 -0.5379
21507SOL     OW67797   5.799   7.249   5.128 -0.5612 -0.1601 -0.1249
21507SOL    HW167798   5.744   7.196   5.070 -0.7277  0.9072 -0.9800
21507SOL    HW267799   5.857   7.297   5.069  0.7069 -0.5984  0.7221
21508SOL     OW67800   6.964   7.534   9.082  0.3232  0.0595  0.0201
21508SOL    HW167801   6.941   7.508   8.993  3.1826 -0.0961 -0.7732
21508SOL    HW267802   7.012   7.459   9.117  2.6077  1.5096  0.2236
21509SOL     OW67803  10.428   6.476   5.910 -0.5555  0.3514 -0.3225
21509SOL    HW167804  10.492   6.406   5.925 -1.5634 -0.7573 -1.0333
21509SOL    HW267805  10.343   6.433   5.918 -1.2799  1.9610  1.4238
21510SOL     OW67806   1.027   1.340   4.149 -0.3447  0.6540  0.0563
21510SOL    HW167807   0.994   1.408   4.207  0.7056  1.0222  0.2278
21510SOL    HW267808   1.119   1.329   4.173 -0.0654  0.3442 -1.0868
21511SOL     OW67809   6.355   7.523   8.717 -0.3223 -0.2716 -0.3816
21511SOL    HW167810   6.284   7.485   8.664 -1.5162 -0.6649  1.4317
21511SOL    HW267811   6.327   7.613   8.733 -0.3659 -0.3900  0.2304
21512SOL     OW67812   4.816   7.854   4.481 -0.3556 -0.3088 -0.1070
21512SOL    HW167813   4.783   7.944   4.474 -2.9175 -1.1803 -0.3722
21512SOL    HW267814   4.904   7.863   4.519 -0.7189  2.2669  0.2840
21513SOL     OW67815   2.889   3.054   8.820 -0.0741  0.0370  0.4905
21513SOL    HW167816   2.934   3.045   8.904  0.2505  0.2231  0.3351
21513SOL    HW267817   2.958   3.071   8.757 -0.3421  0.1295  0.2194
21514SOL     OW67818   0.156   4.562   6.700  0.0245 -0.3225 -0.3349
21514SOL    HW167819   0.070   4.523   6.683 -0.0111  0.4497 -2.0515
21514SOL    HW267820   0.209   4.536   6.625  1.2152 -0.5089  0.5524
21515SOL     OW67821   5.683   4.254   2.464 -0.6218  0.0934 -0.1765
21515SOL    HW167822   5.624   4.179   2.469 -0.6894  0.1158 -0.6187
21515SOL    HW267823   5.769   4.216   2.446 -0.3222 -0.0106  1.3627
21516SOL     OW67824   9.153  10.998   4.423 -0.2113 -0.2174  0.0505
21516SOL    HW167825   9.094  11.054   4.474 -0.0176  0.1248 -0.1021
21516SOL    HW267826   9.212  11.059   4.379 -1.0790 -0.4354 -1.4753
21517SOL     OW67827   6.865   6.843   1.780 -0.2600 -0.6144  0.2050
21517SOL    HW167828   6.908   6.780   1.722 -0.7907 -0.1524 -0.7116
21517SOL    HW267829   6.839   6.791   1.856  0.9645 -1.1090  0.3032
21518SOL     OW67830   2.636   8.493   3.982  0.2185  0.8261 -0.3012
21518SOL    HW167831   2.565   8.548   4.016  0.4512  0.3181  1.1113
21518SOL    HW267832   2.659   8.437   4.057  0.5793 -0.5720 -1.4163
21519SOL     OW67833   8.673  10.319   0.525 -0.4193  0.2183 -0.1773
21519SOL    HW167834   8.722  10.367   0.457 -1.6742  2.6632  0.5570
21519SOL    HW267835   8.738  10.260   0.564  0.6445 -0.3379 -2.5948
21520SOL     OW67836  11.060   7.862  10.460  0.3260  0.1853  0.2571
21520SOL    HW167837  10.982   7.901  10.500 -0.2536 -1.2167  0.5582
21520SOL    HW267838  11.050   7.879  10.366  0.3256  1.1410  0.4205
21521SOL     OW67839   1.594   6.575   6.509  0.4788  0.0646  0.4632
21521SOL    HW167840   1.688   6.573   6.492  0.8256 -1.6106  2.1231
21521SOL    HW267841   1.576   6.490   6.550 -1.8290  0.2227 -0.0858
21522SOL     OW67842   3.795   0.861   1.755 -0.8822 -0.3879  0.1309
21522SOL    HW167843   3.717   0.817   1.789 -2.0374  1.8105  0.5268
21522SOL    HW267844   3.761   0.935   1.705  0.9538  0.5220  0.1293
21523SOL     OW67845   5.488   2.115   4.343 -0.0305  0.2977  0.4242
21523SOL    HW167846   5.534   2.071   4.270  0.4707 -0.1901  1.0216
21523SOL    HW267847   5.509   2.062   4.419 -1.9559 -0.1927  0.6572
21524SOL     OW67848   2.598   3.074  10.877  0.0942 -0.2297 -0.2930
21524SOL    HW167849   2.648   2.995  10.855  0.7907  0.5297 -1.6028
21524SOL    HW267850   2.594   3.075  10.972  1.3341 -1.0887 -0.2083
21525SOL     OW67851   0.271   6.640   6.508  0.2203  0.6100 -0.4825
21525SOL    HW167852   0.298   6.552   6.534 -1.1207 -0.0362 -1.1602
21525SOL    HW267853   0.184   6.651   6.548  0.6475  1.9066  0.1641
21526SOL     OW67854  10.506   2.048   8.524 -0.1197 -0.7951 -0.1530
21526SOL    HW167855  10.423   2.048   8.477 -0.7475  1.4213  0.8146
21526SOL    HW267856  10.573   2.035   8.456 -1.1567 -0.5317 -1.2487
21527SOL     OW67857   1.895   0.203   5.583 -0.0994 -0.1200  0.1320
21527SOL    HW167858   1.940   0.281   5.614  1.7881 -1.5793  1.2766
21527SOL    HW267859   1.934   0.131   5.633 -0.3257 -2.0516 -2.2698
21528SOL     OW67860  10.561   8.249  11.087  0.2658  0.6532 -0.7624
21528SOL    HW167861  10.488   8.192  11.064  0.0862  0.4658  0.2268
21528SOL    HW267862  10.595   8.279  11.002 -2.1988  2.3783 -1.2342
21529SOL     OW67863  10.295   3.778   7.855 -0.0954 -0.4778  0.0992
21529SOL    HW167864  10.374   3.749   7.811 -0.9415  0.6152 -2.2999
21529SOL    HW267865  10.299   3.874   7.853 -1.4997 -0.3950 -0.1384
21530SOL     OW67866   1.437  10.200   2.848 -0.5104  0.3217  0.3455
21530SOL    HW167867   1.383  10.197   2.926  0.9562  1.1958  1.4368
21530SOL    HW267868   1.470  10.290   2.844  1.1833 -0.2740 -0.0392
21531SOL     OW67869   9.655   7.577   2.795  0.1805 -0.3811 -0.0683
21531SOL    HW167870   9.617   7.615   2.874 -2.1146 -2.2556 -0.1772
21531SOL    HW267871   9.689   7.492   2.823  0.6497 -0.4622 -0.8441
21532SOL     OW67872   4.235   9.894   7.006  0.1112 -0.0864  0.3030
21532SOL    HW167873   4.239   9.855   7.093  0.3255 -1.5143 -0.3241
21532SOL    HW267874   4.213   9.822   6.948  2.1195  0.3420 -1.1254
21533SOL     OW67875   5.365   3.616   0.558 -0.3496 -0.4511  0.4521
21533SOL    HW167876   5.285   3.576   0.592  0.3384 -2.3064  0.0343
21533SOL    HW267877   5.334   3.688   0.503 -1.7067 -0.8095  0.6986
21534SOL     OW67878   1.166   5.409   9.234  0.3552  0.2087 -0.0521
21534SOL    HW167879   1.117   5.469   9.178  0.1297  0.6860  0.6435
21534SOL    HW267880   1.227   5.365   9.174 -0.7368 -0.2258 -0.8912
21535SOL     OW67881   1.353   0.322   1.466 -0.0087 -0.1181  0.2674
21535SOL    HW167882   1.321   0.250   1.412  1.2872 -0.2735 -0.3414
21535SOL    HW267883   1.308   0.399   1.432 -0.7761 -0.5141  0.3686
21536SOL     OW67884   7.470   3.316  11.280 -0.1734 -0.1112  0.0575
21536SOL    HW167885   7.524   3.274  11.347  0.8788 -0.9958 -1.2759
21536SOL    HW267886   7.426   3.243  11.236 -0.2080  0.3768 -0.7346
21537SOL     OW67887  10.359   3.095   6.951  0.5490 -0.1565  0.0417
21537SOL    HW167888  10.406   3.143   6.882 -1.9692  0.8642 -1.0681
21537SOL    HW267889  10.428   3.046   6.996  2.4665 -0.0375 -2.4962
21538SOL     OW67890   8.040  10.246  11.224 -0.3110 -0.5907 -0.2069
21538SOL    HW167891   8.083  10.166  11.255 -2.3120 -1.9557 -0.7249
21538SOL    HW267892   7.950  10.237  11.256 -0.0140  2.7756  2.0255
21539SOL     OW67893   5.629   3.256   0.188  0.3860  0.2675  0.4060
21539SOL    HW167894   5.674   3.259   0.273  0.0838  1.1057  0.5482
21539SOL    HW267895   5.626   3.163   0.166  0.5634  0.0468  1.2604
21540SOL     OW67896   9.195   0.071   4.773 -0.3699 -0.6674 -0.4817
21540SOL    HW167897   9.143   0.145   4.805  0.4629  0.0583 -0.7952
21540SOL    HW267898   9.146  -0.006   4.802 -1.1761 -0.0024 -0.0319
21541SOL     OW67899   1.117   0.649   4.114  0.4934 -0.0597 -0.0064
21541SOL    HW167900   1.029   0.628   4.083  0.8921 -0.2903 -1.0160
21541SOL    HW267901   1.103   0.709   4.187 -0.4908  0.1917 -0.3877
21542SOL     OW67902   8.374   8.805   2.856 -0.2412 -0.0768  0.0466
21542SOL    HW167903   8.332   8.735   2.806 -1.2212  1.1333 -0.8799
21542SOL    HW267904   8.368   8.882   2.800  1.3351  0.6325  0.7967
21543SOL     OW67905   8.375   1.817   6.721 -0.5033 -0.0118  0.2153
21543SOL    HW167906   8.282   1.797   6.721 -0.2233 -1.6951 -1.9938
21543SOL    HW267907   8.392   1.855   6.635  0.8224  0.4312  0.6474
21544SOL     OW67908   1.583   6.646   3.091  0.3687 -0.0875  0.9159
21544SOL    HW167909   1.585   6.701   3.013  1.5133 -1.4265 -0.0355
21544SOL    HW267910   1.512   6.584   3.075  0.6567 -0.4163  0.9036
21545SOL     OW67911   6.722  11.095   4.511 -0.0870  0.5617 -0.0884
21545SOL    HW167912   6.793  11.032   4.515 -0.3023  0.3765  1.2988
21545SOL    HW267913   6.763  11.179   4.529 -0.1888  0.4572  0.6953
21546SOL     OW67914   9.410   1.261   6.315 -0.2035 -0.2735  0.3577
21546SOL    HW167915   9.463   1.314   6.375  0.4858 -1.9131  1.2519
21546SOL    HW267916   9.332   1.238   6.365 -1.8895  2.1508 -0.9631
21547SOL     OW67917  10.560   0.147   9.982  0.0345 -0.2358 -0.0570
21547SOL    HW167918  10.505   0.145  10.060  0.5006  0.4523  0.3021
21547SOL    HW267919  10.517   0.087   9.921  0.3826 -1.8626  1.2040
21548SOL     OW67920   5.992   1.392   4.410  0.2806  0.1963  0.7559
21548SOL    HW167921   6.088   1.402   4.412  0.5259 -1.8163  0.4210
21548SOL    HW267922   5.965   1.439   4.331  0.9696  0.8640  0.9008
21549SOL     OW67923   4.875   6.736   4.612 -0.1085 -0.4231 -0.1376
21549SOL    HW167924   4.957   6.695   4.583 -0.0838 -0.0883 -0.5633
21549SOL    HW267925   4.902   6.823   4.642  0.2511 -1.5808  3.2905
21550SOL     OW67926   4.397   9.910   2.328  0.4743  0.6557 -0.8192
21550SOL    HW167927   4.467   9.869   2.379 -0.7366 -0.1066  0.3019
21550SOL    HW267928   4.325   9.848   2.332 -0.9862  2.2985 -0.1528
21551SOL     OW67929   7.958  11.112   5.917  0.2049  0.1509  0.9362
21551SOL    HW167930   7.951  11.017   5.911 -2.0977  0.3151  0.1062
21551SOL    HW267931   8.051  11.128   5.932  0.8443 -2.1695 -0.0575
21552SOL     OW67932   8.302  10.286   5.297 -0.4756  0.0213  0.2219
21552SOL    HW167933   8.347  10.215   5.343 -0.3558  0.3967  0.6963
21552SOL    HW267934   8.228  10.309   5.353 -0.2859  0.5325  0.2754
21553SOL     OW67935   5.478   5.137   9.085  0.2649 -0.0843 -0.1247
21553SOL    HW167936   5.520   5.077   9.023  0.9894 -0.8350  1.0583
21553SOL    HW267937   5.390   5.101   9.097 -0.8317  1.4886 -2.6033
21554SOL     OW67938   7.843   1.867   5.759  0.2102  0.6914  0.9133
21554SOL    HW167939   7.892   1.804   5.813 -0.7475 -1.4567 -0.6091
21554SOL    HW267940   7.767   1.889   5.812 -0.5528 -1.1415  0.6639
21555SOL     OW67941   2.724  10.053   8.222 -0.6777  0.2558 -0.2023
21555SOL    HW167942   2.654  10.073   8.159 -0.2745 -0.8433 -1.0430
21555SOL    HW267943   2.695  10.092   8.304 -2.3526 -0.2746 -0.5050
21556SOL     OW67944  11.283   9.547   2.965 -0.2129 -0.6065 -0.4973
21556SOL    HW167945  11.206   9.588   3.005  1.1577  0.3157  1.3283
21556SOL    HW267946  11.295   9.593   2.882  0.8692  2.3306  1.1615
21557SOL     OW67947  10.228   1.469   7.955  0.1433 -0.5627  0.6861
21557SOL    HW167948  10.303   1.510   7.998  0.7116 -0.1768 -0.6264
21557SOL    HW267949  10.207   1.528   7.882  0.2191 -1.9728 -0.5358
21558SOL     OW67950   7.612   3.132   6.067 -0.0454 -0.7926  0.0438
21558SOL    HW167951   7.548   3.204   6.069  0.5521 -0.2563 -0.0343
21558SOL    HW267952   7.610   3.101   5.977  2.1948  1.4252 -0.8845
21559SOL     OW67953   0.880  10.052   0.894  0.2138  0.4029  0.2608
21559SOL    HW167954   0.919  10.000   0.964  0.1254  0.3000  0.2346
21559SOL    HW267955   0.933  10.031   0.817 -0.7731 -0.8649 -0.1072
21560SOL     OW67956   2.526   8.057   0.364  0.3004  0.8649  0.5126
21560SOL    HW167957   2.510   7.966   0.340 -1.2465  0.5172  2.5595
21560SOL    HW267958   2.530   8.104   0.281 -0.0425 -0.8769 -0.5353
21561SOL     OW67959   2.580   4.483   2.824 -0.3426 -0.2986  0.2571
21561SOL    HW167960   2.576   4.578   2.831  0.4363  0.0088 -2.3994
21561SOL    HW267961   2.674   4.462   2.832 -0.5802 -0.9569  1.6030
21562SOL     OW67962   0.931   1.054   8.644 -0.5704  0.1289  0.3381
21562SOL    HW167963   0.960   0.981   8.699 -0.2965  1.0005  1.3565
21562SOL    HW267964   0.989   1.126   8.666  0.9259 -0.0180 -2.5752
21563SOL     OW67965   9.538   3.805   8.711 -0.0665 -0.4038  0.4257
21563SOL    HW167966   9.491   3.805   8.627  1.3034  1.5369 -0.4134
21563SOL    HW267967   9.490   3.867   8.765 -0.2532 -0.7618  0.6773
21564SOL     OW67968   3.290   9.670   5.782  0.2088 -0.0934 -0.8291
21564SOL    HW167969   3.242   9.618   5.718  1.1073 -0.3668 -1.3102
21564SOL    HW267970   3.365   9.705   5.733  1.8613 -1.6579  0.3971
21565SOL     OW67971   1.792   1.370   3.600 -0.2080 -0.3636  0.6320
21565SOL    HW167972   1.859   1.389   3.534 -0.0425  0.0357  0.9121
21565SOL    HW267973   1.840   1.329   3.672 -0.0613  0.9754  1.3255
21566SOL     OW67974   3.269   0.176   7.942 -0.6691 -0.1398 -0.1684
21566SOL    HW167975   3.276   0.255   7.889  1.7709 -0.3133 -0.2237
21566SOL    HW267976   3.240   0.206   8.028 -1.8966  0.5029 -0.7884
21567SOL     OW67977   2.716   2.326  10.468  0.2346 -0.1501 -0.3634
21567SOL    HW167978   2.666   2.389  10.417  1.9100  0.8528 -0.8538
21567SOL    HW267979   2.715   2.361  10.557 -0.8620 -0.7490 -0.1213
21568SOL     OW67980   1.626   0.493  10.626 -0.2933  0.5939 -0.0164
21568SOL    HW167981   1.555   0.432  10.642 -0.5179  0.4722 -1.3521
21568SOL    HW267982   1.684   0.447  10.565  0.0616  1.3166 -0.2381
21569SOL     OW67983   4.854   1.866   4.976  0.0871 -0.1199  0.3393
21569SOL    HW167984   4.810   1.823   5.049 -0.3001  0.9402  0.7542
21569SOL    HW267985   4.878   1.795   4.917 -1.0479 -0.8336  0.7134
21570SOL     OW67986   5.545   2.142  11.044  0.0053  0.2704  0.2265
21570SOL    HW167987   5.498   2.137  11.127  1.6703 -1.3692  1.1289
21570SOL    HW267988   5.634   2.167  11.068  0.6994 -0.9404 -0.9654
21571SOL     OW67989   0.486   0.884   3.199 -0.2587  0.3621 -0.0447
21571SOL    HW167990   0.578   0.906   3.212 -0.2957  0.8278 -0.5350
21571SOL    HW267991   0.484   0.837   3.115 -0.0767 -2.2334  1.3254
21572SOL     OW67992   4.492   3.767   8.994  0.4513 -0.2784 -0.1479
21572SOL    HW167993   4.500   3.682   9.039  2.2196 -0.3694 -0.5666
21572SOL    HW267994   4.555   3.762   8.923  0.7618  1.4916 -0.0250
21573SOL     OW67995   6.493   9.509  10.308 -0.1904  0.2868  0.4188
21573SOL    HW167996   6.522   9.583  10.255  0.5881 -0.8588 -0.8435
21573SOL    HW267997   6.563   9.496  10.372 -0.2976  0.6038  0.6001
21574SOL     OW67998   5.424   2.252   0.425 -0.0017 -0.5229 -0.2229
21574SOL    HW167999   5.468   2.277   0.344 -0.3223  1.0579  0.0646
21574SOL    HW268000   5.469   2.301   0.493 -1.3622  0.1735  0.2240
21575SOL     OW68001   2.514   2.020   1.417  0.2841 -0.1235 -0.0926
21575SOL    HW168002   2.482   1.943   1.370  1.2061  0.7486 -2.2862
21575SOL    HW268003   2.446   2.037   1.483  0.9066 -3.8288  1.8090
21576SOL     OW68004   2.075  10.567   6.585  0.6432  0.7905 -0.3515
21576SOL    HW168005   2.082  10.659   6.558  1.0614  0.3097 -1.9895
21576SOL    HW268006   2.105  10.518   6.508  2.0381 -0.6805  1.0768
21577SOL     OW68007   1.360  11.176   5.262  0.3608  0.0423 -0.1716
21577SOL    HW168008   1.351  11.081   5.254 -0.5972  0.0033  1.0398
21577SOL    HW268009   1.454  11.191   5.265  0.5619 -0.7309 -1.6532
21578SOL     OW68010   0.683   7.242  10.647  0.5586 -0.2643  0.4914
21578SOL    HW168011   0.719   7.183  10.714  0.7036 -0.1262  0.5369
21578SOL    HW268012   0.687   7.329  10.688  1.6386 -0.0275 -0.0905
21579SOL     OW68013   7.673   4.131   4.994  0.3158 -0.2180  0.6910
21579SOL    HW168014   7.619   4.122   5.072  0.8198 -0.7237  0.9845
21579SOL    HW268015   7.742   4.066   5.004  0.0088 -0.7559 -0.4985
21580SOL     OW68016   2.812   2.265   0.426  0.0365 -0.1003  0.0616
21580SOL    HW168017   2.904   2.244   0.410 -0.0557  0.5116 -1.3602
21580SOL    HW268018   2.804   2.358   0.404 -0.8697 -0.0798  0.4174
21581SOL     OW68019   4.083   9.225   8.797  0.3432 -0.1690  0.2211
21581SOL    HW168020   4.004   9.264   8.759  0.6003 -0.8419 -1.0512
21581SOL    HW268021   4.152   9.244   8.734  0.8987 -0.8477  0.6106
21582SOL     OW68022   5.390   1.277   4.588  0.6225  0.3075  0.7005
21582SOL    HW168023   5.482   1.304   4.590 -0.1950  3.5111  2.1611
21582SOL    HW268024   5.345   1.349   4.545 -1.2014 -1.5106 -0.6291
21583SOL     OW68025   4.791  10.313   3.115  0.0325 -0.3193  0.2483
21583SOL    HW168026   4.769  10.272   3.031  0.2434  1.9807 -1.0311
21583SOL    HW268027   4.732  10.388   3.121  2.8138  2.0829 -0.0114
21584SOL     OW68028   3.007   4.264   0.621 -0.1215 -0.1285 -0.1965
21584SOL    HW168029   3.069   4.239   0.690 -0.7056  0.0420  0.3992
21584SOL    HW268030   2.937   4.199   0.626  1.1234 -1.7581 -2.4425
21585SOL     OW68031   5.852   5.772  10.697  0.3632  0.5207  0.8745
21585SOL    HW168032   5.813   5.718  10.766 -0.3139  0.1266  0.1990
21585SOL    HW268033   5.812   5.858  10.708  2.2561  1.2665  2.6516
21586SOL     OW68034   0.031   4.774   7.922 -0.4483 -0.1439 -0.1452
21586SOL    HW168035   0.058   4.773   8.014 -0.2240 -1.2155 -0.2148
21586SOL    HW268036   0.113   4.766   7.873 -0.4706  1.3540 -0.4818
21587SOL     OW68037  10.696   6.205   1.080 -0.4893 -0.1357  0.2287
21587SOL    HW168038  10.754   6.149   1.029  0.0682  1.1469 -0.5775
21587SOL    HW268039  10.755   6.256   1.135 -0.9403  0.2322  0.3725
21588SOL     OW68040   0.117  10.433   3.989  0.5793  0.0867  0.6155
21588SOL    HW168041   0.182  10.376   4.031 -0.3166 -1.1677  0.3587
21588SOL    HW268042   0.040  10.428   4.046 -0.3960 -1.0541 -0.7253
21589SOL     OW68043   8.490   6.090   3.345 -0.3128 -0.2371  0.7583
21589SOL    HW168044   8.527   6.009   3.381  1.8712  0.8488  1.1728
21589SOL    HW268045   8.539   6.105   3.264 -0.5304  0.7601  0.7905
21590SOL     OW68046   3.834   7.780   4.828  0.2057 -0.4000  0.2116
21590SOL    HW168047   3.793   7.699   4.860 -0.0946 -0.4155 -0.1990
21590SOL    HW268048   3.888   7.752   4.754 -0.1954 -0.1833 -0.1750
21591SOL     OW68049  10.898   8.267   6.813  0.1348 -0.5371 -0.0181
21591SOL    HW168050  10.924   8.357   6.834  1.3659 -0.9855  0.4298
21591SOL    HW268051  10.940   8.249   6.729 -1.7461 -0.0333 -1.1258
21592SOL     OW68052  10.589   5.306   3.633 -0.6804  1.0348 -0.3644
21592SOL    HW168053  10.611   5.309   3.726  0.4710  0.8315 -0.6120
21592SOL    HW268054  10.577   5.213   3.615 -1.5191  1.1241 -0.2899
21593SOL     OW68055   2.951   3.624   9.884 -0.1073 -0.2949  0.1572
21593SOL    HW168056   2.972   3.549   9.827  0.4469 -0.3300  0.3978
21593SOL    HW268057   2.984   3.599   9.970  0.3256  0.3349  0.1835
21594SOL     OW68058   4.696   5.637  10.544  0.2605  0.1794  0.6951
21594SOL    HW168059   4.643   5.651  10.623  1.4306  0.7868  1.4028
21594SOL    HW268060   4.659   5.559  10.504 -1.0149  0.4509  1.2922
21595SOL     OW68061   8.627   7.804   7.964 -0.0346 -0.4660 -0.2459
21595SOL    HW168062   8.571   7.854   7.906 -0.6943 -0.5167  0.3428
21595SOL    HW268063   8.711   7.799   7.917 -0.5216 -0.4364 -1.1543
21596SOL     OW68064   1.586   1.783   8.892  0.0855  0.2654 -0.0047
21596SOL    HW168065   1.507   1.756   8.846 -0.2478  0.1455  0.6153
21596SOL    HW268066   1.637   1.831   8.827 -0.0334 -0.5144 -0.6880
21597SOL     OW68067   3.536   6.614   3.086  0.3889  0.0974  0.2778
21597SOL    HW168068   3.452   6.654   3.061  0.8703  0.8789 -0.1511
21597SOL    HW268069   3.568   6.575   3.005  0.6365  0.1837  0.3331
21598SOL     OW68070   9.510   8.583   0.745 -0.5379 -0.0255  0.1947
21598SOL    HW168071   9.521   8.673   0.775  0.2229 -0.2355  0.5529
21598SOL    HW268072   9.427   8.555   0.785 -0.9957  0.6447 -0.2641
21599SOL     OW68073   4.490   1.142  10.652 -0.2391  0.0816 -0.5632
21599SOL    HW168074   4.513   1.087  10.577 -0.7532 -0.1944 -0.5235
21599SOL    HW268075   4.569   1.193  10.669 -0.1697  0.2848 -1.4128
21600SOL     OW68076   7.212   0.501  10.033  0.3235 -0.6274 -0.2534
21600SOL    HW168077   7.222   0.592  10.007  1.2133 -0.8983 -0.9019
21600SOL    HW268078   7.119   0.482  10.022  0.3900 -0.2419 -1.6236
21601SOL     OW68079   2.828  10.569   0.842 -0.1186  0.3207 -0.0073
21601SOL    HW168080   2.837  10.504   0.773  1.7447  1.2844 -0.7485
21601SOL    HW268081   2.741  10.606   0.829 -0.4216 -0.6450 -0.8110
21602SOL     OW68082   4.499   8.559   0.869 -0.2834  0.3763  0.4747
21602SOL    HW168083   4.445   8.620   0.919 -0.9858 -0.8374  1.2609
21602SOL    HW268084   4.523   8.492   0.933 -0.0766 -0.5032 -0.5126
21603SOL     OW68085   9.130   9.437   4.847  0.3373 -0.3629 -0.6246
21603SOL    HW168086   9.170   9.359   4.809  0.8075 -0.3759 -0.1186
21603SOL    HW268087   9.148   9.506   4.783  2.0674 -0.1504  0.0339
21604SOL     OW68088   7.410   8.311   4.573  0.1961  0.3776 -0.0829
21604SOL    HW168089   7.497   8.350   4.565 -0.0511  1.7418  2.6791
21604SOL    HW268090   7.355   8.363   4.514  0.7281  1.3395  0.2490
21605SOL     OW68091   8.661   6.517   3.084 -0.6808  1.0319  0.0622
21605SOL    HW168092   8.642   6.503   2.992  0.5658 -0.2892 -0.0261
21605SOL    HW268093   8.729   6.585   3.085  0.7607 -0.3422 -0.1593
21606SOL     OW68094   5.290  10.622   3.714  0.1953 -0.4391  0.2389
21606SOL    HW168095   5.198  10.623   3.739  0.1979 -0.9697  0.2930
21606SOL    HW268096   5.291  10.650   3.622 -0.1598 -1.6997 -0.1670
21607SOL     OW68097   7.072   5.440   9.590  0.1509 -0.3272 -0.1838
21607SOL    HW168098   7.132   5.508   9.623 -0.4631  0.3571 -0.4416
21607SOL    HW268099   7.014   5.422   9.664 -0.9894  0.9386 -0.7145
21608SOL     OW68100   9.210   6.856  10.637  0.2673  0.0837  0.2570
21608SOL    HW168101   9.159   6.932  10.665 -0.1782 -1.1693  3.1444
21608SOL    HW268102   9.160   6.819  10.564 -0.4183  1.5327 -0.0417
21609SOL     OW68103  11.291   4.533   1.358  0.1678 -0.3474  0.8978
21609SOL    HW168104  11.248   4.475   1.421  0.1852 -0.3612  0.8974
21609SOL    HW268105  11.291   4.484   1.276 -0.6272  0.0120  0.6751
21610SOL     OW68106   7.553  10.970   9.300  0.4552 -0.5665  0.1182
21610SOL    HW168107   7.532  10.894   9.353 -0.7834 -0.2425  0.1271
21610SOL    HW268108   7.597  11.030   9.360 -1.5250  0.0775  1.0104
21611SOL     OW68109   0.670   5.379   1.899  0.1660 -0.6753 -0.2613
21611SOL    HW168110   0.654   5.392   1.806  0.8136  1.3923 -0.1237
21611SOL    HW268111   0.590   5.409   1.942 -1.1698 -3.9193 -0.1556
21612SOL     OW68112   2.821   2.340   3.623 -0.5514 -0.2282 -0.4331
21612SOL    HW168113   2.904   2.353   3.576 -0.8760 -1.7575 -1.5151
21612SOL    HW268114   2.761   2.403   3.584  0.0027  0.6834  0.1518
21613SOL     OW68115   2.249   0.183   1.157 -0.0647 -0.6123 -0.2814
21613SOL    HW168116   2.257   0.098   1.113  1.3811 -0.7043  0.1095
21613SOL    HW268117   2.158   0.186   1.186  0.2982 -3.0011  1.5316
21614SOL     OW68118   0.374   2.957   7.515 -0.4217  0.3597  0.5658
21614SOL    HW168119   0.336   3.041   7.491  0.1783  0.2007 -1.0475
21614SOL    HW268120   0.444   2.942   7.451 -1.6089 -2.1274 -0.3005
21615SOL     OW68121   8.956   9.213   1.478 -0.4198  0.0383 -0.2956
21615SOL    HW168122   8.937   9.131   1.432  0.5011 -0.1774 -0.2983
21615SOL    HW268123   9.020   9.257   1.423  1.9162 -0.9332  1.4874
21616SOL     OW68124   4.460   7.872   3.149 -0.1833  0.1277 -0.0236
21616SOL    HW168125   4.387   7.893   3.207 -1.8544 -2.8571 -0.8224
21616SOL    HW268126   4.476   7.778   3.163  2.5263  0.3467 -0.9995
21617SOL     OW68127   4.568   8.951   7.891  0.4129  0.1120 -0.2250
21617SOL    HW168128   4.659   8.978   7.890 -0.2893  3.2321  2.7646
21617SOL    HW268129   4.521   9.022   7.848 -0.7265 -1.2501 -1.3463
21618SOL     OW68130  11.301   8.246   8.354  0.0273  0.0910 -0.3376
21618SOL    HW168131  11.259   8.315   8.303  0.5353 -0.5857 -1.7142
21618SOL    HW268132  11.290   8.167   8.302 -0.0882 -0.7835  0.9723
21619SOL     OW68133   5.808   6.994   6.554  0.7976 -0.2109 -0.1329
21619SOL    HW168134   5.774   7.045   6.480  0.1431  0.5505  0.6720
21619SOL    HW268135   5.900   6.980   6.533  1.1085  1.6659 -0.1915
21620SOL     OW68136   8.434   3.693   4.906 -0.8607  0.5143 -0.3108
21620SOL    HW168137   8.452   3.685   5.000  0.1139  1.8207 -0.3500
21620SOL    HW268138   8.388   3.613   4.883  0.4217 -0.6321  0.9381
21621SOL     OW68139   1.910   2.203   2.618  0.4186 -0.3335  0.1518
21621SOL    HW168140   1.954   2.287   2.632  0.9096 -0.8034  1.6932
21621SOL    HW268141   1.974   2.149   2.573  0.8744 -0.5091  0.9833
21622SOL     OW68142   6.474   5.056   1.292  0.0712  0.2999  0.3617
21622SOL    HW168143   6.392   5.101   1.310  0.2166  0.6078  0.2653
21622SOL    HW268144   6.542   5.122   1.308  0.3252 -0.0739  0.8578
21623SOL     OW68145   0.046   1.663   3.038 -0.2268  0.4197 -0.5684
21623SOL    HW168146  -0.033   1.609   3.036 -0.0584  0.1403  0.2265
21623SOL    HW268147   0.026   1.735   2.977 -0.3552 -0.6354 -1.8149
21624SOL     OW68148  10.768   9.192   5.780 -0.1663  0.1249  0.1673
21624SOL    HW168149  10.839   9.180   5.844 -0.2174 -1.1879  0.0063
21624SOL    HW268150  10.714   9.261   5.818  1.7683  2.0083 -0.2426
21625SOL     OW68151  10.322   7.036  11.396 -0.3016  0.0602 -0.4536
21625SOL    HW168152  10.388   7.094  11.434  0.9266  0.3655 -2.8247
21625SOL    HW268153  10.240   7.061  11.439  0.7078  1.4313  0.7687
21626SOL     OW68154   9.196   1.862   8.291 -0.1841 -0.3636 -0.3209
21626SOL    HW168155   9.166   1.780   8.253 -2.9365  0.1328  0.5971
21626SOL    HW268156   9.265   1.836   8.352  0.4173 -1.7245 -1.5199
21627SOL     OW68157   5.122   0.757   9.965 -0.2836 -0.5702  0.2479
21627SOL    HW168158   5.202   0.750  10.017  0.2628 -0.2204 -0.5288
21627SOL    HW268159   5.148   0.731   9.876 -0.4977  1.6153 -0.5081
21628SOL     OW68160   6.017   8.655   3.451  0.2377 -0.3616 -0.0501
21628SOL    HW168161   5.976   8.586   3.398  1.8697 -0.3670 -1.3942
21628SOL    HW268162   6.085   8.610   3.501 -0.4913 -0.1452  1.1679
21629SOL     OW68163   3.806   9.078   3.442 -0.3476  0.2071 -0.4635
21629SOL    HW168164   3.847   9.165   3.440 -0.6564  0.3483 -1.6523
21629SOL    HW268165   3.804   9.055   3.535  1.0421  0.8457 -0.2355
21630SOL     OW68166   3.730   8.033   2.183 -0.9135 -0.0135 -0.0121
21630SOL    HW168167   3.686   8.067   2.261  0.2870  0.3003  0.5484
21630SOL    HW268168   3.823   8.033   2.205 -0.5156  0.3516 -1.5387
21631SOL     OW68169   7.485   3.821   9.693 -0.1092  0.2446  0.4520
21631SOL    HW168170   7.520   3.732   9.687 -1.0635 -0.2170  1.4526
21631SOL    HW268171   7.437   3.834   9.612 -0.8914 -0.5838  0.7656
21632SOL     OW68172   4.385   9.341   3.438 -0.0704 -0.0399  0.4309
21632SOL    HW168173   4.450   9.280   3.405 -0.5513 -0.0898 -0.4658
21632SOL    HW268174   4.303   9.315   3.395 -0.2574  1.2954 -0.0739
21633SOL     OW68175   0.344   3.388  10.798 -0.1203  0.2451 -0.3216
21633SOL    HW168176   0.402   3.366  10.725  0.4117  0.4136  0.0432
21633SOL    HW268177   0.389   3.459  10.844  0.0701 -0.5514  0.7730
21634SOL     OW68178  10.699   7.188   2.118  0.1395 -0.2049  0.2554
21634SOL    HW168179  10.634   7.185   2.048  0.4520 -2.1872  0.0119
21634SOL    HW268180  10.728   7.280   2.120 -2.0768  0.5585 -0.1293
21635SOL     OW68181   9.889   0.072   5.441  0.0754  0.1824  0.2074
21635SOL    HW168182   9.853   0.084   5.529  0.4192 -0.1552  0.3955
21635SOL    HW268183   9.812   0.066   5.385 -0.1438  1.0928  0.3836
21636SOL     OW68184   5.845   8.186   2.212  0.4898  0.5272 -0.1183
21636SOL    HW168185   5.798   8.219   2.135 -0.5926 -0.0603  0.2646
21636SOL    HW268186   5.935   8.216   2.200  0.3304  0.4924 -1.5777
21637SOL     OW68187   8.973   2.030   7.188 -0.3456 -0.3071 -0.2974
21637SOL    HW168188   8.920   1.984   7.123 -1.2990  0.0380  0.2181
21637SOL    HW268189   8.956   1.984   7.270  0.0527 -0.1085 -0.1002
21638SOL     OW68190   6.039   4.578  10.132  0.2721  0.0149  0.6165
21638SOL    HW168191   5.964   4.626  10.098  0.6749 -0.6618 -1.3609
21638SOL    HW268192   6.051   4.506  10.070  2.2790 -0.1454  1.1319
21639SOL     OW68193  10.746   5.659  10.398  0.1377  0.1592 -0.5303
21639SOL    HW168194  10.747   5.600  10.473 -1.0520  1.3964  0.4851
21639SOL    HW268195  10.838   5.661  10.369  0.8251  0.4538  1.5211
21640SOL     OW68196   7.299   6.991  10.958  0.3639  0.0586  0.3886
21640SOL    HW168197   7.259   6.944  10.884  0.1150  0.3184  0.3550
21640SOL    HW268198   7.256   7.077  10.958  1.0519  0.4077  0.2493
21641SOL     OW68199   7.379   7.063   5.378 -0.1671 -0.6298 -0.5230
21641SOL    HW168200   7.470   7.050   5.404 -0.0099 -1.6968 -1.5202
21641SOL    HW268201   7.351   6.978   5.344 -1.2352 -0.0683 -1.1119
21642SOL     OW68202   0.247   4.945   3.085 -0.4468  0.2475 -0.2049
21642SOL    HW168203   0.279   5.033   3.104 -0.9111  1.0965 -2.8785
21642SOL    HW268204   0.168   4.959   3.033  0.4728 -1.6409 -2.3125
21643SOL     OW68205   0.333   2.947   3.720 -0.3886  0.1873  0.1827
21643SOL    HW168206   0.407   2.886   3.725  1.0438  1.8539  0.2516
21643SOL    HW268207   0.290   2.926   3.637  1.2611  0.3523 -0.7530
21644SOL     OW68208   6.026   4.488   0.726 -0.4570 -0.0549 -0.1465
21644SOL    HW168209   6.069   4.428   0.787  0.3936  0.5406 -0.1446
21644SOL    HW268210   6.096   4.544   0.694 -1.3479  1.5000  0.4813
21645SOL     OW68211   9.162   7.936   9.876  0.6370 -0.2721  0.1475
21645SOL    HW168212   9.137   7.897   9.959 -1.7268  1.8628  0.5543
21645SOL    HW268213   9.256   7.920   9.870  1.1091  0.2777  3.7006
21646SOL     OW68214   4.782   8.063   2.084 -0.6612  0.1822  0.4537
21646SOL    HW168215   4.693   8.035   2.105 -1.0713  0.0340 -1.2664
21646SOL    HW268216   4.772   8.117   2.005  0.8784 -0.8025 -0.4644
21647SOL     OW68217  10.310   1.518   7.350 -0.2658  0.6661 -0.3902
21647SOL    HW168218  10.255   1.591   7.379  0.4867  0.3982  1.9058
21647SOL    HW268219  10.399   1.555   7.347  0.0837 -0.0648  0.5401
21648SOL     OW68220   5.380   7.212   2.879 -0.0129  0.7490  0.0043
21648SOL    HW168221   5.396   7.118   2.870 -0.6173  0.6737 -0.3335
21648SOL    HW268222   5.465   7.252   2.863 -0.0035  0.3276 -1.1635
21649SOL     OW68223   7.100   3.103  10.554  0.4792  0.5580  0.1674
21649SOL    HW168224   7.110   3.008  10.540 -2.5698 -0.3080  2.5765
21649SOL    HW268225   7.063   3.135  10.472 -0.5712 -0.8320  0.0451
21650SOL     OW68226   3.492   3.354  10.995 -0.3848 -0.3041  0.2943
21650SOL    HW168227   3.540   3.394  11.068  0.2670 -1.8057  0.7430
21650SOL    HW268228   3.558   3.344  10.926 -1.0325  1.2358 -0.5950
21651SOL     OW68229   4.418   1.943   5.417 -0.4514  0.3004  0.2630
21651SOL    HW168230   4.461   1.977   5.495 -1.0768  0.4908  0.5321
21651SOL    HW268231   4.477   1.964   5.345 -1.0746  2.5029  0.3350
21652SOL     OW68232   3.659   5.630   4.524 -0.5701 -1.0382  0.3202
21652SOL    HW168233   3.639   5.540   4.501 -2.0668 -0.2338 -1.8654
21652SOL    HW268234   3.694   5.669   4.444  0.5530  0.2197  1.3510
21653SOL     OW68235   7.153   5.519   3.843 -0.0066  0.3640  0.0010
21653SOL    HW168236   7.120   5.459   3.776  0.2127  0.0109  0.2015
21653SOL    HW268237   7.158   5.465   3.922  1.5617  0.2566 -0.1423
21654SOL     OW68238   6.647  10.077   9.383 -0.5090  0.1166 -0.1040
21654SOL    HW168239   6.691  10.131   9.317  0.1301 -1.3265 -0.9072
21654SOL    HW268240   6.582  10.027   9.333 -0.3725 -0.6202  0.4406
21655SOL     OW68241   1.943   8.395  10.068 -0.1822  0.4894 -0.3286
21655SOL    HW168242   1.942   8.489  10.049 -1.0793  0.2379 -1.6444
21655SOL    HW268243   2.036   8.375  10.082 -0.0624  1.7226  0.8633
21656SOL     OW68244   9.513   7.025   5.467  0.0188 -0.5625  0.2663
21656SOL    HW168245   9.596   7.033   5.513  0.3171 -0.3818 -0.2940
21656SOL    HW268246   9.462   6.964   5.521  0.3747 -0.3952  0.8014
21657SOL     OW68247   4.673   0.680   3.314 -0.7459 -0.2476  0.8533
21657SOL    HW168248   4.683   0.688   3.409 -0.4115 -0.4363  0.8338
21657SOL    HW268249   4.642   0.766   3.286 -0.9199 -0.2127  1.1408
21658SOL     OW68250   6.666   2.067   4.735  0.6186 -0.1979  0.1460
21658SOL    HW168251   6.670   2.155   4.770  0.2952  0.3309 -1.0906
21658SOL    HW268252   6.572   2.046   4.733  0.7206 -0.7546  0.8599
21659SOL     OW68253   4.073   7.033   8.027  0.0756 -0.1800  0.2034
21659SOL    HW168254   3.994   7.030   7.972  0.1102  2.0889 -0.0659
21659SOL    HW268255   4.135   6.974   7.984 -0.7090 -0.2756 -0.8321
21660SOL     OW68256   9.396   9.611   1.069  0.0076  0.0202  0.1730
21660SOL    HW168257   9.480   9.569   1.052  0.1351 -0.1252  1.1343
21660SOL    HW268258   9.364   9.635   0.982  1.3916  0.7716 -0.1551
21661SOL     OW68259  10.893   8.453   1.131  0.3963  1.1783  0.3886
21661SOL    HW168260  10.961   8.393   1.160  0.1601  0.5317 -0.3694
21661SOL    HW268261  10.940   8.521   1.083  0.5269  0.8469  0.0467
21662SOL     OW68262   4.671   6.877   0.523 -0.0955  0.0158 -0.7377
21662SOL    HW168263   4.725   6.950   0.556 -1.1592  0.8877 -0.8781
21662SOL    HW268264   4.734   6.807   0.507  1.0335  1.0603 -1.0478
21663SOL     OW68265   2.924   8.270   8.167  0.1348  0.8583  0.1486
21663SOL    HW168266   2.873   8.351   8.174 -2.2698 -0.6552  2.0510
21663SOL    HW268267   2.971   8.264   8.251 -0.0581  0.1206  0.2158
21664SOL     OW68268   2.160  10.792   8.218 -0.4691  0.4042  0.1668
21664SOL    HW168269   2.094  10.788   8.288 -0.9971  1.6756 -0.2253
21664SOL    HW268270   2.156  10.883   8.187  2.0559  0.7671  0.6837
21665SOL     OW68271   8.877   3.023   7.003  0.5627 -0.5836 -0.1273
21665SOL    HW168272   8.808   3.053   7.063  0.1303  1.3341 -1.4878
21665SOL    HW268273   8.903   2.937   7.037 -0.2234  0.0767  2.2944
21666SOL     OW68274   0.757   5.090   4.818  0.4154  0.0823  0.2603
21666SOL    HW168275   0.681   5.047   4.856 -0.1264  0.0375 -0.8177
21666SOL    HW268276   0.754   5.180   4.851  0.7598 -0.3174  1.4096
21667SOL     OW68277   1.390   0.771   7.994 -0.0496  0.2535  0.5576
21667SOL    HW168278   1.381   0.863   7.971  0.4692 -0.4609 -3.1780
21667SOL    HW268279   1.327   0.726   7.937  1.9368 -1.8905 -0.0968
21668SOL     OW68280   2.716   0.225   0.068 -0.5174  0.4931  0.7566
21668SOL    HW168281   2.669   0.297   0.027  0.5677  0.6777 -0.2173
21668SOL    HW268282   2.808   0.248   0.058 -0.1835 -0.3634  1.6799
21669SOL     OW68283   9.735   5.846  10.227 -0.0672 -0.3314 -0.7092
21669SOL    HW168284   9.733   5.941  10.216 -1.4571 -0.2590 -0.0780
21669SOL    HW268285   9.828   5.825  10.236  0.2199  1.0737 -0.0699
21670SOL     OW68286   9.054   2.493   8.868  0.0417  0.2626  0.1801
21670SOL    HW168287   9.065   2.587   8.882 -1.1110  0.6251 -1.1031
21670SOL    HW268288   9.064   2.455   8.955  0.0552  1.6176  0.8096
21671SOL     OW68289   2.955   0.092   0.542  0.4540 -0.1919  0.3763
21671SOL    HW168290   2.919   0.132   0.621 -0.7595  0.1658 -0.3391
21671SOL    HW268291   2.981   0.004   0.570 -0.4368 -0.2582  1.0667
21672SOL     OW68292   0.621   7.014   9.725 -0.0275  0.1136 -0.4431
21672SOL    HW168293   0.679   6.978   9.657  1.3541 -1.0029  1.2428
21672SOL    HW268294   0.540   7.036   9.678  1.0446 -0.1139 -2.5336
21673SOL     OW68295   4.275   7.307   8.949 -0.4683 -0.2917  0.2736
21673SOL    HW168296   4.323   7.355   9.017  1.3490 -1.9860  0.2755
21673SOL    HW268297   4.209   7.257   8.998  0.5246 -1.1409  0.7940
21674SOL     OW68298   8.091   7.665  10.431 -0.8497 -0.0824 -0.3751
21674SOL    HW168299   8.021   7.703  10.485 -1.3676 -1.9448  0.3637
21674SOL    HW268300   8.165   7.655  10.491 -0.6293  0.0355 -0.6292
21675SOL     OW68301   1.948   6.137   1.379 -0.1814 -0.4279  0.4310
21675SOL    HW168302   1.920   6.216   1.425 -2.4595 -0.8032 -0.1773
21675SOL    HW268303   1.930   6.066   1.441 -1.6421 -0.7780 -0.3694
21676SOL     OW68304   2.012   1.091   7.328  0.2460 -0.7822 -0.0884
21676SOL    HW168305   1.966   1.027   7.382  1.2744 -0.8108  0.7913
21676SOL    HW268306   1.943   1.133   7.276 -0.4551 -2.5713 -0.6793
21677SOL     OW68307   2.146   4.295   1.672 -0.1458 -0.6767  0.2435
21677SOL    HW168308   2.193   4.215   1.697 -0.1674 -1.0603 -0.9071
21677SOL    HW268309   2.059   4.265   1.646 -0.7596 -0.0663  1.4860
21678SOL     OW68310   4.244   5.322   9.221  0.1843  0.2016 -0.3107
21678SOL    HW168311   4.182   5.249   9.223 -0.5912  0.8516  0.2151
21678SOL    HW268312   4.196   5.393   9.180  0.1283  1.0858  1.2043
21679SOL     OW68313  11.026   3.328   8.234 -0.3084 -0.2830 -0.5094
21679SOL    HW168314  10.989   3.240   8.240  1.1218 -0.8404  1.6290
21679SOL    HW268315  11.120   3.314   8.247 -0.1163  1.6045  0.3738
21680SOL     OW68316   2.631   4.342   7.348  0.3470 -0.0726 -0.1803
21680SOL    HW168317   2.681   4.354   7.267  0.5867 -1.7761 -0.3180
21680SOL    HW268318   2.562   4.281   7.324  0.5597 -0.7725  0.9411
21681SOL     OW68319   6.556   0.466   9.487 -0.2666  0.0835  0.5712
21681SOL    HW168320   6.615   0.502   9.420  1.3418 -1.2606  1.1696
21681SOL    HW268321   6.487   0.423   9.436  1.0102 -1.0582 -0.3129
21682SOL     OW68322   2.367   1.785   5.790 -0.5260 -0.2410 -0.2003
21682SOL    HW168323   2.355   1.809   5.698  0.5352 -1.5023 -0.6905
21682SOL    HW268324   2.458   1.757   5.796 -1.1618 -2.3023  0.7329
21683SOL     OW68325   8.965   2.085   1.969 -0.2152  0.1011  0.1924
21683SOL    HW168326   9.000   2.033   2.042 -2.0169 -0.9006  0.3850
21683SOL    HW268327   8.908   2.149   2.011  0.5482  1.0607 -0.1941
21684SOL     OW68328   9.817   0.082   6.307 -0.5305  0.6915 -0.1537
21684SOL    HW168329   9.808  -0.005   6.268  0.1248  0.9764 -0.9730
21684SOL    HW268330   9.828   0.065   6.401 -1.6818 -0.0300 -0.1219
21685SOL     OW68331   0.595   3.905  10.607  0.1473 -0.1929 -0.0882
21685SOL    HW168332   0.622   3.988  10.645 -1.1925  0.1837  0.1035
21685SOL    HW268333   0.533   3.868  10.671 -0.0131 -0.8767 -0.6204
21686SOL     OW68334   3.849   8.246   8.244  0.5371 -0.5117  0.1895
21686SOL    HW168335   3.875   8.292   8.324  1.8777 -1.0765  0.0962
21686SOL    HW268336   3.897   8.164   8.246  0.1332 -0.7959 -0.9182
21687SOL     OW68337   6.510   1.078  10.306  0.3144  0.1601  0.2886
21687SOL    HW168338   6.484   1.014  10.239 -0.1764  0.7039 -0.0465
21687SOL    HW268339   6.563   1.141  10.259 -0.8216  1.0775  0.1872
21688SOL     OW68340   3.436   6.692   2.725 -0.3376  0.1682  0.0953
21688SOL    HW168341   3.398   6.735   2.802 -0.0062  1.2659 -0.3348
21688SOL    HW268342   3.419   6.599   2.739 -1.8008  0.4884  0.6682
21689SOL     OW68343   3.510   9.822   2.090  0.1836 -0.4654  0.3895
21689SOL    HW168344   3.587   9.807   2.145  2.1089  1.9156 -1.4197
21689SOL    HW268345   3.478   9.909   2.115 -0.4797 -0.4439 -0.4649
21690SOL     OW68346   2.376   5.103   0.188 -0.2691 -0.0011 -0.2339
21690SOL    HW168347   2.316   5.146   0.127  0.6375  0.1456 -1.0529
21690SOL    HW268348   2.396   5.170   0.253 -2.9338 -0.7847  1.5682
21691SOL     OW68349   6.741   3.075   6.907  0.3141  0.2803 -0.0721
21691SOL    HW168350   6.687   3.140   6.862  0.0373 -0.0132 -0.1691
21691SOL    HW268351   6.825   3.119   6.921 -0.2847  1.1142  1.0254
21692SOL     OW68352   2.641   1.793   8.546 -0.8094 -0.0061  0.1550
21692SOL    HW168353   2.724   1.746   8.553 -0.5563  0.2644 -0.8165
21692SOL    HW268354   2.660   1.881   8.580 -0.8556 -0.1297  0.4964
21693SOL     OW68355  10.832   3.550   2.324 -0.5412 -0.0296 -0.1692
21693SOL    HW168356  10.745   3.587   2.341 -0.5475 -0.4354  0.7728
21693SOL    HW268357  10.892   3.625   2.328 -0.3094 -0.2131  3.5355
21694SOL     OW68358   2.303   0.462   7.244 -0.2893  0.2598 -0.4036
21694SOL    HW168359   2.284   0.370   7.261  0.2393 -0.0159 -1.2394
21694SOL    HW268360   2.391   0.462   7.205 -0.4611  1.0690 -0.8167
21695SOL     OW68361   4.165   6.123   2.275 -0.6860 -0.7300 -1.0270
21695SOL    HW168362   4.254   6.154   2.291 -1.2597 -0.0564  1.2772
21695SOL    HW268363   4.110   6.200   2.285 -1.5447 -1.0878 -2.6739
21696SOL     OW68364   6.802   6.961   2.948 -0.1000  0.6247 -0.1084
21696SOL    HW168365   6.893   6.980   2.928 -0.2208  1.0877 -0.2341
21696SOL    HW268366   6.758   7.046   2.945 -0.1538  0.7290  2.0633
21697SOL     OW68367   6.323   7.276   4.010 -0.4959  0.5780  0.3293
21697SOL    HW168368   6.313   7.324   3.928  0.8306  0.0812 -0.1488
21697SOL    HW268369   6.387   7.327   4.060  0.7616 -0.5304 -0.0938
21698SOL     OW68370   4.952   9.118   6.719 -0.0357 -0.0380  0.8193
21698SOL    HW168371   4.908   9.041   6.683 -1.1006 -0.9161  3.7211
21698SOL    HW268372   4.896   9.192   6.694  0.6013 -0.2081 -1.3459
21699SOL     OW68373   5.521   4.220   1.098  0.1125 -0.3314 -0.5167
21699SOL    HW168374   5.612   4.222   1.068  0.2153 -1.9665 -0.3868
21699SOL    HW268375   5.477   4.284   1.043  1.4300  0.8940 -0.2250
21700SOL     OW68376   3.708   0.122   6.653  0.0480  0.1846 -0.0093
21700SOL    HW168377   3.748   0.177   6.585  0.9728 -2.9369 -2.1984
21700SOL    HW268378   3.766   0.133   6.729  3.0526 -1.2050 -1.8871
21701SOL     OW68379   3.313   8.564   7.920 -0.1040  0.9415  0.6812
21701SOL    HW168380   3.259   8.499   7.964 -0.5592  0.9551  0.1673
21701SOL    HW268381   3.272   8.573   7.833  1.1447  0.4272  0.0145
21702SOL     OW68382   7.582   6.300   2.400 -0.4183  0.2353 -0.3100
21702SOL    HW168383   7.508   6.312   2.460 -1.3568  0.5658 -1.4847
21702SOL    HW268384   7.564   6.216   2.357  0.9364 -0.6477  0.7920
21703SOL     OW68385   1.871   2.534   7.049  0.2885  0.2271 -0.4670
21703SOL    HW168386   1.839   2.533   7.139 -0.1450  0.7989 -0.6142
21703SOL    HW268387   1.960   2.499   7.055 -0.0532 -0.5884  0.0583
21704SOL     OW68388   5.825   4.304   2.760  0.2303 -0.2223  0.6478
21704SOL    HW168389   5.846   4.301   2.853  2.2135 -3.6702  0.2651
21704SOL    HW268390   5.879   4.235   2.721 -2.6193 -0.8964 -2.6255
21705SOL     OW68391   2.554   9.269   0.012 -0.3011 -0.0028 -0.1820
21705SOL    HW168392   2.469   9.225   0.004 -0.0342 -0.6826  0.6673
21705SOL    HW268393   2.575   9.264   0.105  0.3950  0.6954 -0.2956
21706SOL     OW68394   0.355   1.278  10.336 -0.4036  0.4511 -0.0812
21706SOL    HW168395   0.300   1.336  10.284  0.8095  2.3884  0.6926
21706SOL    HW268396   0.325   1.190  10.314 -0.1396  1.1337 -3.8671
21707SOL     OW68397   1.701   9.744   5.948  0.0952  0.1559 -0.0466
21707SOL    HW168398   1.706   9.782   5.861 -0.2884  1.3640  0.4449
21707SOL    HW268399   1.760   9.797   6.001 -0.7442  0.3173  0.7404
21708SOL     OW68400   7.545   7.737   7.718  0.3600 -0.8630  0.0131
21708SOL    HW168401   7.576   7.794   7.648 -1.7890  1.1690  0.5967
21708SOL    HW268402   7.478   7.683   7.677 -0.9148  0.3434  0.4534
21709SOL     OW68403  10.249   7.872   8.513 -0.3826 -0.2474 -0.4872
21709SOL    HW168404  10.197   7.795   8.490  1.3766 -1.7590  0.3566
21709SOL    HW268405  10.199   7.916   8.581 -0.6674 -1.5439  0.1527
21710SOL     OW68406   5.908   1.065  10.497 -0.0702  0.5118  0.2469
21710SOL    HW168407   5.923   1.134  10.432 -0.1995  0.0800 -0.2434
21710SOL    HW268408   5.825   1.089  10.538 -0.1752  0.5823 -0.0043
21711SOL     OW68409   7.949   7.058  10.650  0.5527 -0.1080  0.0867
21711SOL    HW168410   7.930   7.152  10.652  1.6125  0.1029  0.6299
21711SOL    HW268411   7.937   7.029  10.740 -3.0496 -1.2259 -0.5659
21712SOL     OW68412   1.390   2.484   4.794 -0.0783 -0.0999 -0.2274
21712SOL    HW168413   1.382   2.544   4.869  2.6259 -0.5184  0.4941
21712SOL    HW268414   1.343   2.405   4.822 -1.6188  0.7856 -0.2165
21713SOL     OW68415   9.690   7.005   4.558  0.0118 -0.0187 -0.2256
21713SOL    HW168416   9.635   6.947   4.611  0.6720 -1.5238 -1.0991
21713SOL    HW268417   9.722   6.949   4.487  2.9998  0.6408  0.4445
21714SOL     OW68418   8.230  10.504   9.943 -0.6215 -0.6039 -0.6779
21714SOL    HW168419   8.286  10.486   9.868 -0.1047  1.1905 -0.7631
21714SOL    HW268420   8.270  10.454  10.015  1.2435  0.7357 -0.6986
21715SOL     OW68421   0.201  10.826   5.454  0.5462  0.4186 -0.3806
21715SOL    HW168422   0.288  10.787   5.447  0.7646  0.6489  0.7697
21715SOL    HW268423   0.165  10.789   5.535 -0.1392  0.8702 -0.4717
21716SOL     OW68424   1.942   9.749   3.342 -0.4803  0.4481  0.1000
21716SOL    HW168425   1.968   9.723   3.430  1.9401  0.9780 -0.3702
21716SOL    HW268426   2.016   9.802   3.311 -1.5303  0.7462 -2.0296
21717SOL     OW68427   5.972   5.107   6.601 -0.1463 -0.0355 -0.5322
21717SOL    HW168428   5.987   5.106   6.506  2.4048 -2.2273 -0.2290
21717SOL    HW268429   5.975   5.200   6.625 -0.5060  0.5382 -2.5487
21718SOL     OW68430   1.476   5.849   8.163  0.2494 -0.0854 -0.2112
21718SOL    HW168431   1.456   5.851   8.069 -1.2264  0.0981  0.0755
21718SOL    HW268432   1.510   5.761   8.179  2.8677  0.6226 -1.3147
21719SOL     OW68433   6.162   9.263   1.999 -0.0175 -0.3691 -0.4308
21719SOL    HW168434   6.154   9.285   1.906 -1.4154  0.7708 -0.0726
21719SOL    HW268435   6.141   9.170   2.004 -0.4338 -0.3209 -1.1895
21720SOL     OW68436  10.822   7.608   1.639  0.4100 -0.4401  0.5255
21720SOL    HW168437  10.884   7.536   1.643  0.4255 -0.6493 -1.9936
21720SOL    HW268438  10.745   7.572   1.595 -2.1703 -0.5414  4.6167
21721SOL     OW68439   7.884   8.159   2.490 -0.1730 -0.0730 -0.4475
21721SOL    HW168440   7.940   8.216   2.437 -1.5193  0.7762 -1.0090
21721SOL    HW268441   7.930   8.075   2.492  1.5502  0.8333 -0.1277
21722SOL     OW68442   1.472   9.584   2.234  0.5207  0.5643 -0.7009
21722SOL    HW168443   1.440   9.497   2.214  3.1739 -0.9512  0.9794
21722SOL    HW268444   1.510   9.576   2.322  2.6443  2.8493 -1.2801
21723SOL     OW68445   1.405   3.799   6.610 -0.2176 -0.6379 -0.6410
21723SOL    HW168446   1.375   3.825   6.697  1.4666 -1.3222  0.1923
21723SOL    HW268447   1.326   3.800   6.556 -1.2746 -0.0514  0.8458
21724SOL     OW68448   6.940   3.089   8.104  0.1644  0.1527  0.3369
21724SOL    HW168449   7.018   3.107   8.157  0.1239 -2.0385  1.2452
21724SOL    HW268450   6.874   3.149   8.139  0.5705 -0.1733  1.7678
21725SOL     OW68451   9.254   5.643   6.243  0.2757  0.6370 -0.3784
21725SOL    HW168452   9.163   5.672   6.244  0.5279  1.6839 -2.3572
21725SOL    HW268453   9.248   5.547   6.234 -0.5729  0.4818  1.4154
21726SOL     OW68454   2.549   6.993  11.262 -0.1268  0.4123 -0.6657
21726SOL    HW168455   2.481   6.927  11.246 -0.7941  0.4935  1.5441
21726SOL    HW268456   2.530   7.063  11.198 -0.8511 -0.4642 -1.4371
21727SOL     OW68457   4.869   1.533   2.183  0.0740  0.1521  0.3630
21727SOL    HW168458   4.901   1.464   2.242  1.6478  0.1775 -0.4157
21727SOL    HW268459   4.780   1.507   2.162  0.3744 -1.2259  0.7078
21728SOL     OW68460  10.386   3.097   2.056  0.0618  0.5354 -0.8898
21728SOL    HW168461  10.464   3.152   2.053  0.1038  1.1116  3.6007
21728SOL    HW268462  10.313   3.157   2.045  0.1817  0.9718  0.5700
21729SOL     OW68463   6.940   2.158   7.161 -0.2651 -0.3645 -0.4375
21729SOL    HW168464   6.948   2.210   7.240 -1.4944  1.0402 -1.1942
21729SOL    HW268465   6.918   2.070   7.193  2.1415 -0.5591  0.8630
21730SOL     OW68466   0.074   2.237   0.847 -0.2925  0.5320  0.3038
21730SOL    HW168467   0.120   2.283   0.917  1.9906 -0.6367 -0.3203
21730SOL    HW268468   0.128   2.252   0.769 -2.0212  0.6627 -0.9278
21731SOL     OW68469   6.029   3.452   0.863  0.3521 -0.1785  0.1634
21731SOL    HW168470   5.966   3.441   0.791 -0.6604  0.6740  0.8888
21731SOL    HW268471   6.076   3.532   0.842 -0.4994  0.5210  0.8130
21732SOL     OW68472   8.959   2.672  11.299 -0.1300  0.0702 -0.0656
21732SOL    HW168473   8.945   2.604  11.234  1.9675 -1.0360  0.5682
21732SOL    HW268474   9.039   2.647  11.344  0.1679  2.4442  0.8708
21733SOL     OW68475   9.620   9.473   1.047 -0.4106  0.2035 -0.3973
21733SOL    HW168476   9.674   9.522   1.110  0.2236  0.2908 -0.9981
21733SOL    HW268477   9.683   9.419   0.999 -1.0961 -1.2266  0.2577
21734SOL     OW68478   7.305   8.408   7.137 -0.0206 -0.0352 -0.0609
21734SOL    HW168479   7.319   8.329   7.084 -1.1653  0.4201 -1.0794
21734SOL    HW268480   7.270   8.374   7.220 -1.7184 -0.5867 -0.9361
21735SOL     OW68481   4.359   1.362   3.153 -0.3866 -0.6619  0.1814
21735SOL    HW168482   4.375   1.314   3.072  0.8782  0.2380 -0.1261
21735SOL    HW268483   4.350   1.294   3.220  0.6865 -1.3620 -0.3555
21736SOL     OW68484   9.211  11.337   9.886 -0.2629  0.6281 -0.1602
21736SOL    HW168485   9.290  11.298   9.849  0.7581  1.2246  1.2938
21736SOL    HW268486   9.141  11.276   9.862  0.5885  0.1505 -1.5929
21737SOL     OW68487  10.907  10.751   6.393  0.1519  0.0866 -0.1282
21737SOL    HW168488  10.859  10.795   6.464  0.8754  1.6302 -0.5443
21737SOL    HW268489  10.988  10.802   6.385  0.6426 -0.8473 -1.2218
21738SOL     OW68490   1.595  10.500   4.780 -0.4071 -0.4569 -0.1435
21738SOL    HW168491   1.615  10.552   4.702 -0.7521 -0.8281 -0.4830
21738SOL    HW268492   1.675  10.448   4.795 -0.0997  0.0829  0.1372
21739SOL     OW68493   6.204   9.637   1.238 -0.3060  0.2297 -0.0807
21739SOL    HW168494   6.244   9.563   1.191 -0.7832 -0.2786  0.2872
21739SOL    HW268495   6.121   9.652   1.191  0.0025  0.8378 -0.4342
21740SOL     OW68496   5.974   2.120   1.561  0.2376 -0.2003  0.2410
21740SOL    HW168497   6.006   2.140   1.473  1.9508 -1.0427  0.6391
21740SOL    HW268498   5.950   2.205   1.598  1.9876  0.4928 -0.1225
21741SOL     OW68499   8.127   9.168   0.632  0.0183 -0.0658  0.2815
21741SOL    HW168500   8.135   9.262   0.615  0.0963 -0.1020  0.1161
21741SOL    HW268501   8.138   9.127   0.546 -0.1952 -0.2155  0.3237
21742SOL     OW68502   7.653   8.137   6.076  0.2879 -0.0501  0.3207
21742SOL    HW168503   7.587   8.081   6.116 -0.1520 -0.4581 -0.9407
21742SOL    HW268504   7.658   8.213   6.134 -2.0263  0.4715 -0.0674
21743SOL     OW68505   4.696   0.713  10.019  0.0843 -0.3908  0.0590
21743SOL    HW168506   4.685   0.692  10.112  0.3087 -1.4541 -0.1398
21743SOL    HW268507   4.708   0.628   9.977 -0.0153  0.0842 -0.9469
21744SOL     OW68508   6.296   9.965   0.264 -0.1630 -0.0562  0.2443
21744SOL    HW168509   6.299  10.052   0.224 -0.2040 -0.6093 -0.9928
21744SOL    HW268510   6.266   9.982   0.354  0.3150  1.2498  0.1840
21745SOL     OW68511   8.063   3.851   2.686 -0.2504  0.1381 -0.0904
21745SOL    HW168512   8.008   3.773   2.690  0.2255 -0.1929  0.2100
21745SOL    HW268513   8.091   3.865   2.777 -0.1536  0.5276 -0.1762
21746SOL     OW68514   4.264   5.187  10.367  0.0223 -0.3690 -0.2070
21746SOL    HW168515   4.221   5.171  10.283  2.7148 -0.1634 -1.7562
21746SOL    HW268516   4.314   5.107  10.384  1.1705  0.3887  0.0926
21747SOL     OW68517   9.893   5.700   1.615  0.0024  0.5229 -0.5639
21747SOL    HW168518   9.971   5.645   1.613 -0.8702 -0.7425 -1.4532
21747SOL    HW268519   9.849   5.676   1.697  0.1962  0.7528 -0.3897
21748SOL     OW68520   0.619   0.564   1.333 -0.0528 -0.6641 -0.7884
21748SOL    HW168521   0.686   0.503   1.365 -0.3271 -1.4688 -1.6961
21748SOL    HW268522   0.536   0.517   1.344 -0.3165 -0.2784 -1.0765
21749SOL     OW68523   4.165   1.968   2.388 -0.1791  0.5555  0.5944
21749SOL    HW168524   4.232   2.011   2.335 -1.0557  1.5272  0.2369
21749SOL    HW268525   4.188   1.991   2.478  2.3882 -2.5948  0.9428
21750SOL     OW68526   3.222   4.399   1.146  0.0024 -0.1432  0.0603
21750SOL    HW168527   3.208   4.307   1.125  2.1377 -0.6390  0.6610
21750SOL    HW268528   3.167   4.415   1.222 -2.1724 -0.2506 -1.3898
21751SOL     OW68529   5.640  10.619   4.707 -0.6967 -0.0532  0.3037
21751SOL    HW168530   5.656  10.586   4.795 -0.6419  0.4331  0.4775
21751SOL    HW268531   5.629  10.540   4.654  1.5259 -0.4309  0.3060
21752SOL     OW68532   8.561   3.869   7.883 -0.7060  0.0088 -0.0281
21752SOL    HW168533   8.503   3.823   7.943  0.0425 -1.5266 -0.4342
21752SOL    HW268534   8.509   3.879   7.803 -1.0237  0.2797  0.2087
21753SOL     OW68535   5.136   9.790   1.682 -0.3786  0.0222  0.2499
21753SOL    HW168536   5.051   9.762   1.716 -1.6638  0.2067 -2.5552
21753SOL    HW268537   5.184   9.708   1.669 -0.3738 -0.1337  1.1996
21754SOL     OW68538   0.280   8.063   0.476  0.1817  0.1860  0.8636
21754SOL    HW168539   0.204   8.098   0.522  0.5944 -0.4878  2.1214
21754SOL    HW268540   0.299   7.980   0.521 -0.1272 -1.1407 -1.3395
21755SOL     OW68541   5.821   0.479   5.380  0.0239  0.4426  0.0262
21755SOL    HW168542   5.808   0.573   5.393  0.4603  0.5916 -0.5615
21755SOL    HW268543   5.890   0.474   5.313  0.4124 -0.2965  0.4753
21756SOL     OW68544  11.046   1.335   4.327 -0.0867  0.6984 -0.0712
21756SOL    HW168545  10.995   1.350   4.406 -0.1202 -1.1299  0.2907
21756SOL    HW268546  11.105   1.264   4.349 -0.6040 -0.3736 -1.8870
21757SOL     OW68547   3.263   6.755   4.634  0.0772  0.0483  0.7549
21757SOL    HW168548   3.198   6.685   4.643  0.4575 -0.3466  0.4728
21757SOL    HW268549   3.346   6.709   4.626  0.1943  0.4611 -0.9138
21758SOL     OW68550   6.439   4.665   7.189  0.1128  0.1216  0.8194
21758SOL    HW168551   6.459   4.758   7.200  2.0221 -0.0708 -0.5134
21758SOL    HW268552   6.508   4.632   7.130 -1.3709 -1.8049  0.0384
21759SOL     OW68553   6.451   6.050   0.089 -0.3107  0.3377 -0.1017
21759SOL    HW168554   6.535   6.093   0.106 -0.7012  1.1168 -0.1258
21759SOL    HW268555   6.395   6.075   0.162 -0.1525 -1.2413  0.6130
21760SOL     OW68556   9.542   1.733   0.801 -0.7488 -0.4511 -0.4368
21760SOL    HW168557   9.536   1.828   0.810 -0.7723 -0.6155  2.0254
21760SOL    HW268558   9.610   1.708   0.864  1.3732 -1.8557 -3.0581
21761SOL     OW68559   9.132   6.505   0.532 -0.1624 -0.1704  0.2120
21761SOL    HW168560   9.158   6.590   0.569 -0.6643  1.1760 -2.3367
21761SOL    HW268561   9.046   6.521   0.494 -1.0376 -2.3166  1.1274
21762SOL     OW68562   6.976   7.867   1.205  0.0680  0.2449 -0.2410
21762SOL    HW168563   6.996   7.809   1.278 -0.7215  1.7849  1.2864
21762SOL    HW268564   6.880   7.869   1.202  0.0544 -1.0910 -2.4455
21763SOL     OW68565   3.308   7.187   5.815  0.1434 -0.5387  0.1572
21763SOL    HW168566   3.240   7.213   5.878  0.6651 -0.8343  0.8494
21763SOL    HW268567   3.389   7.188   5.865  0.3485 -2.3673 -0.0690
21764SOL     OW68568  11.134   5.759   0.719 -0.0862  0.7066 -0.0625
21764SOL    HW168569  11.151   5.701   0.793  1.7253 -0.4416 -1.3080
21764SOL    HW268570  11.129   5.846   0.758  0.0597  0.0419  1.5036
21765SOL     OW68571   7.250   1.672  11.393 -0.2003 -0.1364 -0.3250
21765SOL    HW168572   7.190   1.689  11.467 -0.0296 -2.2457  0.3685
21765SOL    HW268573   7.277   1.581  11.405  1.6562  0.1780 -1.7253
21766SOL     OW68574   6.227   6.742   1.845  0.7954 -0.0571 -0.4897
21766SOL    HW168575   6.187   6.658   1.823 -1.7445  1.0020 -0.2510
21766SOL    HW268576   6.154   6.803   1.849  2.3370  1.8247  1.0857
21767SOL     OW68577   8.863   2.378  10.195 -0.0540  0.5283 -0.6237
21767SOL    HW168578   8.863   2.474  10.190 -1.9540  0.4963 -2.7235
21767SOL    HW268579   8.855   2.349  10.104 -0.9563 -1.5955  0.0652
21768SOL     OW68580   3.291   6.800   2.929  0.0364 -0.3330 -0.0822
21768SOL    HW168581   3.213   6.785   2.982 -0.7304 -0.1230 -1.1141
21768SOL    HW268582   3.299   6.896   2.925 -0.2175 -0.3273 -0.7337
21769SOL     OW68583   1.104   8.509   7.140 -0.0171 -0.5950 -0.3333
21769SOL    HW168584   1.047   8.434   7.158 -1.2231  0.3351 -0.1265
21769SOL    HW268585   1.068   8.548   7.060  0.2827  0.0571 -0.1576
21770SOL     OW68586   5.389  10.348   4.087  0.1836  0.3940 -0.1455
21770SOL    HW168587   5.354  10.276   4.140  0.1081  0.2677 -0.3663
21770SOL    HW268588   5.383  10.425   4.144  0.1539  0.2476  0.0492
21771SOL     OW68589   8.126   6.941   4.744  0.1473  0.5159  0.0609
21771SOL    HW168590   8.079   7.007   4.796  0.4134  1.4481 -0.8493
21771SOL    HW268591   8.066   6.919   4.673 -0.4339 -1.1546  1.0140
21772SOL     OW68592   7.442   3.537   1.690 -0.0750  0.6355  0.2389
21772SOL    HW168593   7.392   3.563   1.767 -1.0438 -0.5945  0.0564
21772SOL    HW268594   7.416   3.599   1.622  0.1110  1.1780  0.6571
21773SOL     OW68595   7.302   3.335   9.122  0.1739  0.3319  0.3389
21773SOL    HW168596   7.265   3.359   9.037 -1.2138  0.5013  0.9724
21773SOL    HW268597   7.360   3.408   9.143  1.8316 -0.4562 -1.1751
21774SOL     OW68598   7.993   7.703   0.729  0.6547 -0.0977 -0.2693
21774SOL    HW168599   8.012   7.796   0.720  1.1792 -0.1814 -0.0673
21774SOL    HW268600   7.898   7.698   0.741  0.6682  0.4308  0.0557
21775SOL     OW68601   2.348   4.507   8.889 -0.3257 -0.1401  0.6942
21775SOL    HW168602   2.406   4.580   8.867  0.0463 -0.1094  1.7056
21775SOL    HW268603   2.327   4.467   8.805  2.1716 -0.9172  0.3576
21776SOL     OW68604   3.133   5.607   0.144  0.5156  0.3672 -0.4387
21776SOL    HW168605   3.227   5.622   0.152  0.3788  1.3675 -0.5347
21776SOL    HW268606   3.096   5.643   0.224  0.0486  1.7599 -1.2372
21777SOL     OW68607  10.878   0.403   6.287  0.2789  0.2206 -0.3276
21777SOL    HW168608  10.878   0.344   6.212  0.6529 -0.0536 -0.1153
21777SOL    HW268609  10.939   0.363   6.350 -0.9841 -0.2316  0.6615
21778SOL     OW68610   3.874  11.189   7.280 -0.7507  0.0328  0.5101
21778SOL    HW168611   3.882  11.094   7.276  0.9303  0.1644 -2.2327
21778SOL    HW268612   3.965  11.220   7.283 -1.2725  1.5595  1.5131
21779SOL     OW68613   8.916   3.176   3.977 -0.3171 -0.3515  0.1163
21779SOL    HW168614   8.841   3.124   3.948 -1.1373  0.8109  0.1011
21779SOL    HW268615   8.936   3.232   3.902 -1.1248  1.2021  1.0333
21780SOL     OW68616   1.348  10.270   2.199  0.7967  0.5121  0.6229
21780SOL    HW168617   1.358  10.293   2.291 -1.2437  2.7372  0.3872
21780SOL    HW268618   1.317  10.350   2.157  1.1149 -0.5968 -1.9155
21781SOL     OW68619  10.183   6.010   3.095 -0.6496 -0.1731  0.2489
21781SOL    HW168620  10.229   6.066   3.033 -0.0809 -0.2958  0.5506
21781SOL    HW268621  10.091   6.021   3.074 -0.5199  0.5438  0.0234
21782SOL     OW68622   7.782   7.695   1.175 -0.0410 -0.0473  0.2196
21782SOL    HW168623   7.698   7.693   1.221 -0.1701  2.0595  0.1337
21782SOL    HW268624   7.786   7.610   1.130 -2.8090  0.3605 -0.9888
21783SOL     OW68625   6.881   4.221  10.740  0.1359  0.2708 -0.2531
21783SOL    HW168626   6.961   4.193  10.785 -0.9191 -0.2955  1.3755
21783SOL    HW268627   6.822   4.248  10.811 -1.6826 -0.8646 -1.2484
21784SOL     OW68628   8.540   9.719   6.983  0.3105  0.0565 -0.2392
21784SOL    HW168629   8.573   9.787   7.041 -0.0701 -0.2552  0.3582
21784SOL    HW268630   8.619   9.677   6.948  0.5431  0.7244 -0.5189
21785SOL     OW68631   1.388  11.136   9.219  0.3115 -0.4208  0.2710
21785SOL    HW168632   1.433  11.206   9.172  2.0702 -1.4430  0.3549
21785SOL    HW268633   1.418  11.145   9.310  1.5604 -2.0391  0.0392
21786SOL     OW68634   1.171   0.013   3.806 -0.3369 -0.8293 -0.1029
21786SOL    HW168635   1.219   0.095   3.818  1.2684 -1.8540  0.8635
21786SOL    HW268636   1.080   0.036   3.821  0.0486  0.8382 -0.1696
21787SOL     OW68637   4.094   6.022   6.232  0.1479 -0.1812 -0.0529
21787SOL    HW168638   4.045   6.091   6.276  0.8094  0.4186 -0.2561
21787SOL    HW268639   4.176   6.014   6.281 -0.4840 -1.8046  0.8400
21788SOL     OW68640   9.078   0.548   8.818 -0.2502  0.0547  0.2605
21788SOL    HW168641   9.141   0.476   8.833  1.9432  2.3010  2.8905
21788SOL    HW268642   9.090   0.570   8.725  0.8197 -1.3806  0.0099
21789SOL     OW68643   9.225   6.786   0.538  0.1422  0.0435 -0.3548
21789SOL    HW168644   9.205   6.878   0.555 -2.8128 -0.6926  0.8595
21789SOL    HW268645   9.250   6.783   0.446 -1.4460  1.8572 -0.9072
21790SOL     OW68646   7.190   5.462   5.848 -0.1631 -0.5345 -0.2320
21790SOL    HW168647   7.181   5.470   5.753  0.6684  3.2241 -0.1419
21790SOL    HW268648   7.284   5.471   5.865 -0.3864 -0.2601  0.9800
21791SOL     OW68649   2.477   9.218   6.497  0.0078  0.7588  0.1322
21791SOL    HW168650   2.410   9.202   6.563 -0.0552 -0.8312 -0.2881
21791SOL    HW268651   2.428   9.249   6.420 -0.1088  0.8402  0.2400
21792SOL     OW68652   8.212   6.849   9.148  0.6483  0.4723 -0.3554
21792SOL    HW168653   8.242   6.875   9.235 -0.9496  0.1393  0.3388
21792SOL    HW268654   8.289   6.855   9.093  1.8060  0.2378  1.1854
21793SOL     OW68655   1.066   3.508   0.557  0.0719  0.0555  0.8399
21793SOL    HW168656   1.142   3.511   0.499 -0.3314  0.0789  0.3167
21793SOL    HW268657   1.011   3.581   0.530 -1.7544 -1.8880 -1.0258
21794SOL     OW68658   4.951   7.663  10.119  0.0292  0.4754  0.2316
21794SOL    HW168659   4.949   7.579  10.166  1.8431  1.0699  1.4820
21794SOL    HW268660   5.043   7.687  10.118 -0.4544  2.4446 -0.1221
21795SOL     OW68661   3.523   4.747   5.041  0.4515  0.3948  0.1501
21795SOL    HW168662   3.522   4.822   4.981 -0.5491  0.4968  0.2779
21795SOL    HW268663   3.473   4.680   4.995 -0.6651  0.6030  1.0149
21796SOL     OW68664   6.613   5.443   4.606  0.3400  0.0211 -0.2203
21796SOL    HW168665   6.559   5.473   4.679 -0.5490 -3.0273  0.4952
21796SOL    HW268666   6.702   5.470   4.630 -0.0075 -0.4543  1.7525
21797SOL     OW68667   1.512   0.129   3.729  0.3139  0.0087 -0.4370
21797SOL    HW168668   1.562   0.199   3.687  1.4298 -0.8806 -0.6395
21797SOL    HW268669   1.434   0.173   3.764  0.0945  1.0517 -2.0911
21798SOL     OW68670   1.288   4.780   4.071  0.1517  0.4152 -0.4477
21798SOL    HW168671   1.344   4.857   4.074 -0.4985  0.9825 -1.9229
21798SOL    HW268672   1.286   4.748   4.161  2.7116  0.4451 -0.3251
21799SOL     OW68673   9.176   4.473   1.989  0.2681  0.2027 -0.1544
21799SOL    HW168674   9.214   4.446   2.072 -0.8489  0.2371  0.3919
21799SOL    HW268675   9.132   4.394   1.956 -0.8490  0.6657  0.1975
21800SOL     OW68676  11.149   5.353   3.529  0.1475  0.1332 -0.2734
21800SOL    HW168677  11.170   5.444   3.551 -0.2472  0.4189 -1.0364
21800SOL    HW268678  11.066   5.337   3.575 -0.2013  0.4316 -0.7806
21801SOL     OW68679   2.988   7.549   9.514  0.0539 -0.0424  0.3267
21801SOL    HW168680   3.083   7.560   9.505  0.2931 -0.8469  1.6121
21801SOL    HW268681   2.958   7.523   9.427  1.1463 -0.5791  0.0980
21802SOL     OW68682   4.948   6.128   5.714 -0.1265 -0.1506  0.4597
21802SOL    HW168683   4.856   6.145   5.733 -0.4815  0.5968 -1.7254
21802SOL    HW268684   4.994   6.207   5.744 -0.5463  0.5968 -0.8217
21803SOL     OW68685   6.963   2.224   9.260  0.1689  0.3311 -0.2630
21803SOL    HW168686   6.968   2.160   9.188  1.3016 -0.1459  0.2225
21803SOL    HW268687   6.923   2.176   9.332 -0.4821  0.6572 -0.4024
21804SOL     OW68688   9.564   7.596   1.621 -0.5297  0.5111  0.5167
21804SOL    HW168689   9.597   7.513   1.655  0.3127  1.0444  1.0530
21804SOL    HW268690   9.593   7.597   1.529  0.3307  0.6405  0.7799
21805SOL     OW68691   1.349   0.928   4.794 -0.4072 -0.3273 -0.3624
21805SOL    HW168692   1.382   0.999   4.738  0.8311 -0.1669  0.5178
21805SOL    HW268693   1.277   0.889   4.744  0.1984  0.2589 -1.7564
21806SOL     OW68694  10.014   0.391   0.224 -0.0011 -0.1269  0.1923
21806SOL    HW168695  10.031   0.312   0.172 -0.3280 -0.4017  0.5001
21806SOL    HW268696  10.012   0.461   0.159 -0.5632 -0.4877 -0.1993
21807SOL     OW68697   0.654   4.556   6.630  0.0017  0.2446  0.3493
21807SOL    HW168698   0.695   4.528   6.712  0.8827 -0.7812 -0.4154
21807SOL    HW268699   0.594   4.626   6.656  1.0147  0.6363  1.7282
21808SOL     OW68700   8.793   9.355   9.974 -0.0418  0.2489 -0.4230
21808SOL    HW168701   8.875   9.314  10.000 -0.5874  0.3597  1.6746
21808SOL    HW268702   8.762   9.302   9.900  0.6748 -1.3620  0.3852
21809SOL     OW68703   8.374   6.058   0.643  0.1000 -0.4888 -0.0751
21809SOL    HW168704   8.325   6.069   0.724 -0.2682  0.3403 -0.3977
21809SOL    HW268705   8.306   6.054   0.575  0.4584  0.4265 -0.5026
21810SOL     OW68706   8.255   8.917   5.147  0.2877 -0.0271 -0.2124
21810SOL    HW168707   8.171   8.871   5.143  0.4450 -0.5462  1.5506
21810SOL    HW268708   8.234   9.007   5.121 -0.9791  0.0277  0.8840
21811SOL     OW68709   5.555   5.259   5.819  0.1414  0.0271 -0.2924
21811SOL    HW168710   5.521   5.338   5.778  2.1338  1.1962  0.2140
21811SOL    HW268711   5.637   5.285   5.860 -0.3221 -1.7213  2.0247
21812SOL     OW68712   4.583   1.938   6.757  0.3156 -0.0003  0.5174
21812SOL    HW168713   4.490   1.945   6.736  0.6694 -2.1555 -2.6972
21812SOL    HW268714   4.626   1.991   6.690  1.4215 -1.1540  0.2756
21813SOL     OW68715   3.588  10.816   9.525 -0.4592  0.1842  0.0146
21813SOL    HW168716   3.684  10.817   9.525 -0.3941  2.0330  1.8553
21813SOL    HW268717   3.564  10.753   9.592 -0.5986 -0.8372 -0.9576
21814SOL     OW68718  10.637   4.010   3.421  0.0953  0.1572  0.1327
21814SOL    HW168719  10.650   3.941   3.357  0.0157  0.2591  0.0045
21814SOL    HW268720  10.702   4.077   3.398  0.3206  0.0261  0.3937
21815SOL     OW68721   9.622   5.666   9.393 -0.1205 -0.6893 -0.0628
21815SOL    HW168722   9.553   5.625   9.342  1.5233 -1.0920 -2.1238
21815SOL    HW268723   9.621   5.619   9.476 -2.1222 -0.8384 -0.1202
21816SOL     OW68724   5.246   1.059   7.190 -0.2923  0.0632 -0.4192
21816SOL    HW168725   5.263   1.132   7.132  0.0815  0.9442  0.7526
21816SOL    HW268726   5.151   1.049   7.189 -0.4980  1.6151  0.5993
21817SOL     OW68727   8.408   6.969   6.043  0.1598  0.3431 -0.2232
21817SOL    HW168728   8.445   7.001   5.961  0.1548  2.2354  0.4509
21817SOL    HW268729   8.326   6.927   6.018  0.2954  0.6435 -1.2224
21818SOL     OW68730  11.283   8.939   9.116 -0.4623  0.6192 -0.7429
21818SOL    HW168731  11.226   9.015   9.115 -0.8047  0.3616 -0.9679
21818SOL    HW268732  11.260   8.890   9.037 -0.4502  0.1323 -0.4512
21819SOL     OW68733   7.727   8.741   1.011  0.5752  0.0695  0.3279
21819SOL    HW168734   7.769   8.659   0.985  2.4048  0.7683  0.8488
21819SOL    HW268735   7.710   8.786   0.928  2.1432  0.3172  0.0991
21820SOL     OW68736   4.448  10.699   3.254 -0.0824  0.3605  0.5274
21820SOL    HW168737   4.358  10.733   3.251 -0.7040 -1.0474  1.6461
21820SOL    HW268738   4.500  10.770   3.290 -0.9717  0.8109  0.9397
21821SOL     OW68739   1.679   6.107  10.575  0.7184 -0.1946 -0.4010
21821SOL    HW168740   1.717   6.185  10.535  0.6500  0.5244  0.8800
21821SOL    HW268741   1.672   6.044  10.503  0.8818  0.9323 -1.4314
21822SOL     OW68742   6.555   6.520   6.133 -0.1670  0.0115  0.3572
21822SOL    HW168743   6.622   6.550   6.195 -0.6325 -0.4854  1.1169
21822SOL    HW268744   6.481   6.578   6.149  0.2561  0.9373 -0.8861
21823SOL     OW68745   4.645   1.257   1.324 -0.2088 -0.5392 -0.3908
21823SOL    HW168746   4.719   1.273   1.384 -1.5241 -0.7148  1.3641
21823SOL    HW268747   4.635   1.162   1.323 -1.5761 -0.4479  0.9430
21824SOL     OW68748   1.477   1.704   3.004  0.4530  0.0331 -0.1036
21824SOL    HW168749   1.483   1.734   2.914  1.7855 -1.2880 -0.5052
21824SOL    HW268750   1.497   1.782   3.057 -0.5327  0.8597 -0.9096
21825SOL     OW68751   8.217   5.205   5.038  0.0504 -0.2252  0.3729
21825SOL    HW168752   8.253   5.276   5.092 -1.7350  0.9143  0.1390
21825SOL    HW268753   8.223   5.239   4.949  0.0214 -0.7717  0.1602
21826SOL     OW68754   0.900   0.727   1.075 -0.3161 -0.3562  0.4009
21826SOL    HW168755   0.941   0.682   1.001  1.4645 -1.3678  1.8967
21826SOL    HW268756   0.851   0.798   1.036  0.2888 -1.0446 -1.7717
21827SOL     OW68757   6.193   9.353   0.887  0.6673 -0.3904 -0.3885
21827SOL    HW168758   6.212   9.287   0.820 -0.3870 -1.9637  0.7933
21827SOL    HW268759   6.105   9.385   0.864  1.6272  1.5475 -1.6417
21828SOL     OW68760   5.775   5.969   5.045 -0.4091 -0.7353 -0.2884
21828SOL    HW168761   5.814   5.918   5.116 -0.1950 -0.8560 -0.4907
21828SOL    HW268762   5.693   5.923   5.025 -1.0473 -0.0367  0.6630
21829SOL     OW68763  10.593   1.157   6.623 -0.3724 -0.0773  0.5575
21829SOL    HW168764  10.651   1.098   6.672 -0.2930 -1.3095 -0.9293
21829SOL    HW268765  10.653   1.215   6.576 -0.4383  0.6424  1.3266
21830SOL     OW68766   7.096   6.377   3.820  0.0915 -0.6752  0.1106
21830SOL    HW168767   7.105   6.463   3.859 -1.1622 -1.0675  1.3205
21830SOL    HW268768   7.175   6.330   3.846  0.0811 -0.3677  0.6990
21831SOL     OW68769   6.305   5.105   1.671 -0.7341 -0.5079 -0.0598
21831SOL    HW168770   6.310   5.182   1.613 -0.1232 -0.8857 -0.5288
21831SOL    HW268771   6.225   5.118   1.721 -1.8630 -0.6796 -1.7431
21832SOL     OW68772   7.853   5.813   7.688 -0.2576  0.5467 -0.0553
21832SOL    HW168773   7.832   5.885   7.748 -0.0788  0.3938  0.1914
21832SOL    HW268774   7.774   5.803   7.635 -0.4523  0.6199  0.2157
21833SOL     OW68775  10.568   1.827   0.370 -0.5726  0.1688  0.6233
21833SOL    HW168776  10.567   1.805   0.277 -1.4359 -0.0866  0.6841
21833SOL    HW268777  10.545   1.745   0.414  0.1966  0.1959  1.0875
21834SOL     OW68778   4.002   8.640   0.311  0.6106 -0.0476 -0.0112
21834SOL    HW168779   3.924   8.626   0.364  2.1462  0.9387  2.7441
21834SOL    HW268780   3.973   8.629   0.221 -2.1190 -2.1749  1.0041
21835SOL     OW68781   7.891   6.371   8.732 -0.3872 -0.1949 -0.3818
21835SOL    HW168782   7.870   6.291   8.683  0.8756 -0.8847  0.1774
21835SOL    HW268783   7.983   6.361   8.755 -0.5608  0.8403  0.8074
21836SOL     OW68784   1.443   2.068   8.766 -0.4621  0.0784 -0.0526
21836SOL    HW168785   1.475   2.144   8.717  1.4756 -0.1794  0.7309
21836SOL    HW268786   1.514   2.005   8.760 -0.0283  0.1090  3.2285
21837SOL     OW68787   2.059   7.736  10.734  0.1212  0.6485  0.5915
21837SOL    HW168788   2.078   7.667  10.797 -0.4601 -0.4082 -0.3454
21837SOL    HW268789   1.969   7.762  10.753 -1.2877 -1.9457 -1.7272
21838SOL     OW68790   7.757   0.454   1.101 -0.2823  0.2633  0.5165
21838SOL    HW168791   7.764   0.372   1.150 -0.5228  0.1341  0.3354
21838SOL    HW268792   7.707   0.432   1.023  0.8903  0.2571 -0.2632
21839SOL     OW68793   2.463   8.563   1.611  0.2038 -0.1929  0.2002
21839SOL    HW168794   2.489   8.492   1.670 -1.4308  0.1041  1.3470
21839SOL    HW268795   2.425   8.519   1.536 -2.9671 -0.6647  1.8995
21840SOL     OW68796   3.161   0.188   8.344 -0.9642  0.5039 -0.0095
21840SOL    HW168797   3.121   0.141   8.418 -1.8190  0.0105 -0.7617
21840SOL    HW268798   3.211   0.121   8.297 -1.1430  0.6236 -0.3697
21841SOL     OW68799  10.243   2.505  10.395  0.4313 -0.1428 -0.2843
21841SOL    HW168800  10.194   2.565  10.451 -0.3161 -1.8904  1.0187
21841SOL    HW268801  10.313   2.559  10.358  0.2944  1.3374  1.4586
21842SOL     OW68802  10.235   6.029   1.104 -0.1556  0.5529 -0.1522
21842SOL    HW168803  10.326   6.045   1.126  0.7689 -2.8661 -0.8284
21842SOL    HW268804  10.187   6.042   1.186  1.6834 -1.9463  1.4557
21843SOL     OW68805   0.676   5.161   2.540 -0.2274  0.1332  0.5106
21843SOL    HW168806   0.665   5.210   2.458 -0.6177 -0.4497  0.2087
21843SOL    HW268807   0.754   5.107   2.525 -3.1189 -3.9928 -1.5894
21844SOL     OW68808   4.821   1.791   8.477  0.7978  0.7128 -0.4594
21844SOL    HW168809   4.758   1.849   8.435 -0.1196  1.6797  2.1063
21844SOL    HW268810   4.825   1.821   8.568 -0.7820 -3.9830  1.4687
21845SOL     OW68811   0.629   0.062   8.364 -0.3323  0.2125 -0.6847
21845SOL    HW168812   0.670  -0.018   8.331 -1.0549 -1.2686  1.7350
21845SOL    HW268813   0.698   0.128   8.358  1.3319 -1.3562  0.0719
21846SOL     OW68814   9.333   6.753   9.684 -0.4126  0.0687 -0.3543
21846SOL    HW168815   9.294   6.668   9.705 -2.3263  1.0888  0.4083
21846SOL    HW268816   9.343   6.752   9.589  0.2014 -1.2294 -0.3010
21847SOL     OW68817   3.688   0.326   8.507 -0.0320 -0.4104  0.0110
21847SOL    HW168818   3.715   0.316   8.598 -1.4388  1.9005  0.7751
21847SOL    HW268819   3.593   0.319   8.509 -0.0251 -1.2654 -1.4506
21848SOL     OW68820  10.557   6.649   1.113  0.5620 -0.4879  0.6494
21848SOL    HW168821  10.503   6.649   1.193  0.0772 -0.0287  0.3286
21848SOL    HW268822  10.512   6.590   1.054  0.7768 -0.6205  0.6181
21849SOL     OW68823   7.988  10.832   8.643  0.5198  0.0052 -0.0268
21849SOL    HW168824   8.001  10.738   8.637  0.4546  0.0076 -0.2132
21849SOL    HW268825   7.972  10.848   8.736 -0.0813 -0.2467 -0.0847
21850SOL     OW68826   6.614   5.101   7.704  0.2455  0.4170  0.3583
21850SOL    HW168827   6.595   5.008   7.707  0.1964  0.4465  2.7726
21850SOL    HW268828   6.707   5.106   7.680  0.0404 -0.1735 -0.6279
21851SOL     OW68829   5.521   1.661   6.281 -0.4560  0.3639  0.3717
21851SOL    HW168830   5.605   1.619   6.258  0.2429  1.0756  1.5495
21851SOL    HW268831   5.542   1.754   6.284 -1.5835  0.6590 -0.4648
21852SOL     OW68832   4.508   9.803   6.337  0.0500 -0.6497  0.0129
21852SOL    HW168833   4.530   9.874   6.397 -1.5318  0.1596 -0.2911
21852SOL    HW268834   4.418   9.822   6.310  0.3068 -1.6237 -1.7039
21853SOL     OW68835   8.207   9.978   3.208 -0.2275  0.4163 -0.6109
21853SOL    HW168836   8.142   9.927   3.159  0.2488 -0.3802 -0.4277
21853SOL    HW268837   8.155  10.028   3.271 -0.8200  1.1914 -1.6758
21854SOL     OW68838   2.934   5.219   3.561 -0.2126 -0.5983 -0.0856
21854SOL    HW168839   2.933   5.232   3.466  1.9032 -0.1608 -0.0897
21854SOL    HW268840   2.870   5.150   3.576  0.5585 -1.8116 -2.0098
21855SOL     OW68841   8.165   7.010   7.485  0.4149 -0.5843 -0.1989
21855SOL    HW168842   8.210   7.089   7.454  0.0289 -0.8552 -1.5322
21855SOL    HW268843   8.074   7.038   7.497  0.7530 -0.2016  1.8613
21856SOL     OW68844   1.926   8.887   7.426 -0.0563  0.2169 -0.2466
21856SOL    HW168845   2.001   8.936   7.460  0.3894 -1.0640  0.7124
21856SOL    HW268846   1.957   8.796   7.424 -0.9237 -0.0746 -1.7538
21857SOL     OW68847   8.873   7.958   3.478 -0.1175 -0.7175  0.0560
21857SOL    HW168848   8.782   7.957   3.450 -0.3005  1.4610  0.4482
21857SOL    HW268849   8.873   7.910   3.561 -1.1117  0.2052  0.6019
21858SOL     OW68850   0.649   1.474  11.221  0.4322 -0.0772 -0.1455
21858SOL    HW168851   0.734   1.473  11.264  0.9689 -2.2887 -1.1599
21858SOL    HW268852   0.659   1.539  11.151  0.1363  2.1642  1.7514
21859SOL     OW68853  11.163   3.781   4.493  0.3113  0.5327  0.0170
21859SOL    HW168854  11.256   3.802   4.503  0.7718  0.0051 -2.4845
21859SOL    HW268855  11.120   3.865   4.477  0.8247  0.5199 -1.5591
21860SOL     OW68856  11.255   4.373  10.571 -0.2153  0.4515  0.0040
21860SOL    HW168857  11.240   4.439  10.503 -0.8695  1.7087  1.3443
21860SOL    HW268858  11.189   4.306  10.554 -0.6397  0.9509 -0.3404
21861SOL     OW68859   7.693   6.789   6.106 -0.5153  0.3613 -0.2592
21861SOL    HW168860   7.645   6.795   6.189 -0.4479  1.9673 -0.2941
21861SOL    HW268861   7.723   6.699   6.102  0.4355  0.5177  2.0191
21862SOL     OW68862   9.780   4.440   4.758 -0.0219  0.2938 -0.4391
21862SOL    HW168863   9.811   4.520   4.801 -0.7006  1.1393 -1.4549
21862SOL    HW268864   9.690   4.461   4.731 -1.0228 -1.5872  1.1851
21863SOL     OW68865  10.055   2.756   1.079 -0.2535  0.3109  0.1026
21863SOL    HW168866  10.138   2.802   1.068 -1.5821  2.4868 -2.0415
21863SOL    HW268867  10.016   2.796   1.157  0.7026 -0.8202  1.2015
21864SOL     OW68868  10.424   6.636   1.608 -0.3264  0.3057  0.3501
21864SOL    HW168869  10.454   6.702   1.545  1.3933  0.8867  1.7010
21864SOL    HW268870  10.349   6.595   1.565 -1.4206  3.0377 -0.6103
21865SOL     OW68871   4.184   9.275   6.878 -0.1061  0.3364  0.5835
21865SOL    HW168872   4.196   9.360   6.921  0.6893 -0.1966  1.4534
21865SOL    HW268873   4.090   9.268   6.866 -0.2741  0.9197  1.4151
21866SOL     OW68874   5.917   4.913   8.394 -0.3233  0.2660  0.7814
21866SOL    HW168875   5.904   4.820   8.372  0.6090 -0.0065  1.2996
21866SOL    HW268876   5.948   4.911   8.485 -0.1658  1.0735  0.7468
21867SOL     OW68877   5.492   8.052   9.846 -0.0381 -0.4662  0.3125
21867SOL    HW168878   5.424   8.046   9.913  1.1212 -1.9324  1.4398
21867SOL    HW268879   5.461   7.997   9.774 -0.6826  0.0596  0.1743
21868SOL     OW68880   3.188   0.865   2.674 -0.0087 -0.8506  0.9219
21868SOL    HW168881   3.187   0.943   2.730  1.1564 -0.9216  1.0672
21868SOL    HW268882   3.169   0.792   2.733 -1.0666 -0.6929  0.7919
21869SOL     OW68883   7.758   5.202   4.248  0.1882 -0.3262 -0.7709
21869SOL    HW168884   7.781   5.262   4.319  1.8094 -1.2282 -0.4708
21869SOL    HW268885   7.765   5.255   4.169 -0.1147  0.3083 -0.3823
21870SOL     OW68886   0.810   4.163   6.314 -0.1987  0.2007  0.1540
21870SOL    HW168887   0.904   4.169   6.296 -0.4275  1.1798 -0.7764
21870SOL    HW268888   0.793   4.231   6.380 -0.3824  0.5276 -0.2286
21871SOL     OW68889   9.039   0.539   0.170 -0.3860 -0.6875  0.0952
21871SOL    HW168890   9.134   0.533   0.177 -0.5903 -3.3111  3.3902
21871SOL    HW268891   9.015   0.609   0.231 -0.6190 -2.8286  2.6624
21872SOL     OW68892   2.633   9.160  10.311 -0.0749  0.0677 -0.8954
21872SOL    HW168893   2.683   9.115  10.379 -0.3284 -0.1460 -0.8492
21872SOL    HW268894   2.545   9.123  10.317 -0.1708  0.2496 -1.1533
21873SOL     OW68895   4.223  10.030   0.833 -0.6328 -0.0016 -0.7633
21873SOL    HW168896   4.148  10.087   0.815 -0.3037  0.3436 -1.0551
21873SOL    HW268897   4.241   9.988   0.748  0.4392  1.0444 -1.0689
21874SOL     OW68898   7.161   9.375   4.685 -0.2506 -0.1045  0.4173
21874SOL    HW168899   7.180   9.408   4.773  1.0745 -0.5586  0.3267
21874SOL    HW268900   7.144   9.281   4.698  2.8074 -0.8473 -0.0652
21875SOL     OW68901  11.380   8.458   7.361  0.5887  0.5434  0.4195
21875SOL    HW168902  11.389   8.458   7.266  1.2393  1.5327  0.4610
21875SOL    HW268903  11.330   8.379   7.381  1.0842 -0.0685 -0.6822
21876SOL     OW68904   3.144   3.605   1.330 -0.4342 -0.1127 -0.1836
21876SOL    HW168905   3.192   3.670   1.279  1.7111 -1.6595 -0.2778
21876SOL    HW268906   3.123   3.651   1.412  0.2531  0.9508 -0.5768
21877SOL     OW68907   9.817   2.161   1.013 -0.1685  0.1444  0.0480
21877SOL    HW168908   9.885   2.216   1.052  0.6969 -0.7246 -0.1747
21877SOL    HW268909   9.822   2.180   0.919 -0.1664  0.0062  0.0202
21878SOL     OW68910   9.201   7.678   1.476 -0.0948  0.1856 -0.5148
21878SOL    HW168911   9.151   7.676   1.394  0.2812 -1.1848 -0.7331
21878SOL    HW268912   9.262   7.605   1.468  1.2142  1.1611  0.2130
21879SOL     OW68913   6.729   9.496  10.874 -0.3521  0.8507  0.6090
21879SOL    HW168914   6.809   9.521  10.828  1.7215 -2.0633  2.2911
21879SOL    HW268915   6.754   9.494  10.966 -2.0770 -0.9926  1.1049
21880SOL     OW68916   2.566  10.586  10.525 -0.4904 -0.5068  0.2024
21880SOL    HW168917   2.613  10.657  10.482 -1.9102  0.3645  0.0422
21880SOL    HW268918   2.617  10.508  10.503 -1.6318 -0.3232 -4.0731
21881SOL     OW68919   2.569   2.883  11.377  0.2257  0.0744  0.1032
21881SOL    HW168920   2.509   2.886  11.451 -0.7581 -1.6279 -0.5704
21881SOL    HW268921   2.603   2.973  11.370 -3.3956  1.5606 -0.4539
21882SOL     OW68922  10.793   7.274   3.101  0.0464 -0.0178 -0.5673
21882SOL    HW168923  10.733   7.321   3.043 -1.5737  0.3614  1.2995
21882SOL    HW268924  10.735   7.224   3.159  1.5464  0.0513  1.0663
21883SOL     OW68925   8.432   3.131   9.812  0.0175 -0.0598  0.1480
21883SOL    HW168926   8.426   3.120   9.907 -0.5678  0.1305  0.1356
21883SOL    HW268927   8.478   3.214   9.800 -1.4552  0.8168  0.2884
21884SOL     OW68928   2.847   5.860   5.119  0.1746  0.0278 -0.6442
21884SOL    HW168929   2.845   5.909   5.201 -1.6678  1.0380 -1.2294
21884SOL    HW268930   2.789   5.785   5.134  0.5279 -0.2655 -0.7419
21885SOL     OW68931   4.072   7.925   8.609  0.2734 -0.9346 -0.4470
21885SOL    HW168932   4.047   7.974   8.530  0.7210 -0.2068 -0.1487
21885SOL    HW268933   4.168   7.928   8.609  0.2738 -0.9108  0.1357
21886SOL     OW68934   0.716   2.485   9.315 -0.5171  0.0584  0.3727
21886SOL    HW168935   0.647   2.487   9.382 -1.9144  0.8469 -1.0190
21886SOL    HW268936   0.690   2.414   9.256  0.1863 -0.0114  0.1370
21887SOL     OW68937   6.196   1.355   3.568 -0.4318  0.1055  0.6957
21887SOL    HW168938   6.136   1.375   3.639 -0.1737  1.5703  0.5300
21887SOL    HW268939   6.159   1.400   3.492  1.2653  1.7702  0.7783
21888SOL     OW68940  10.562   9.648   5.401 -0.5973  0.5464  0.7447
21888SOL    HW168941  10.626   9.579   5.382  0.2232  1.3759  0.4050
21888SOL    HW268942  10.514   9.659   5.319  0.1372  1.2531  0.3999
21889SOL     OW68943   8.367   1.825   7.035  0.1900  0.0574 -0.1767
21889SOL    HW168944   8.395   1.743   6.994 -0.7222 -0.3144 -0.0757
21889SOL    HW268945   8.279   1.807   7.066 -0.1506  1.1918 -0.4493
21890SOL     OW68946   6.832   9.243   3.833  0.5318  0.0320  0.1231
21890SOL    HW168947   6.882   9.260   3.912 -0.6676  1.5076  0.6178
21890SOL    HW268948   6.872   9.165   3.795 -0.1712 -2.0569  3.3034
21891SOL     OW68949   7.296   6.431   2.208 -0.2733  0.0120  0.2053
21891SOL    HW168950   7.343   6.512   2.187 -0.3928  0.2407  0.8013
21891SOL    HW268951   7.217   6.460   2.253  0.2163 -0.4682  1.4263
21892SOL     OW68952   9.459   4.063   8.804 -0.4193 -0.2949  0.5571
21892SOL    HW168953   9.420   4.140   8.846 -0.1337 -0.5187  1.2398
21892SOL    HW268954   9.395   4.037   8.738 -0.1494  1.0282 -0.2660
21893SOL     OW68955   8.567   6.188   3.098  0.1577  0.0680 -0.1047
21893SOL    HW168956   8.650   6.235   3.090 -2.2922  4.9495 -1.0385
21893SOL    HW268957   8.539   6.173   3.008 -1.7259  2.4352 -0.0191
21894SOL     OW68958   8.468   4.776   0.348  0.1381 -0.2238  0.1713
21894SOL    HW168959   8.494   4.695   0.392 -1.4981 -1.4874 -1.0353
21894SOL    HW268960   8.407   4.818   0.409 -1.4111 -1.5103 -0.4130
21895SOL     OW68961   1.534   9.683   7.597 -0.2711 -0.3026 -0.5249
21895SOL    HW168962   1.547   9.606   7.653  0.0011  0.5981  0.7137
21895SOL    HW268963   1.622   9.718   7.585 -0.5762  0.9637  0.6678
21896SOL     OW68964   1.634   7.737   4.708  0.2602  0.0545 -0.1029
21896SOL    HW168965   1.563   7.798   4.688 -0.1598 -0.1421  0.7317
21896SOL    HW268966   1.674   7.772   4.788 -0.9188 -1.5212  1.2498
21897SOL     OW68967   2.565   1.744   1.656  0.1295  0.6111  0.3403
21897SOL    HW168968   2.475   1.767   1.632  0.9721  4.8285  0.5424
21897SOL    HW268969   2.572   1.766   1.749  0.9631 -1.4627  0.8349
21898SOL     OW68970   1.231   2.295   1.469 -0.4635  0.3644  0.2117
21898SOL    HW168971   1.204   2.350   1.396  2.9910 -1.1573 -2.5271
21898SOL    HW268972   1.287   2.352   1.523 -1.2814  0.9198  0.4837
21899SOL     OW68973   6.123   4.802   7.520  0.7359  0.0051 -0.3863
21899SOL    HW168974   6.171   4.885   7.514 -1.0460  1.0382 -0.8228
21899SOL    HW268975   6.113   4.787   7.615 -1.8360  2.1093 -0.2048
21900SOL     OW68976   4.665  10.334   9.808 -0.4832  0.1042  0.3932
21900SOL    HW168977   4.635  10.385   9.883 -2.3673 -0.8834  0.3829
21900SOL    HW268978   4.587  10.287   9.779  0.5880 -0.7881 -1.1858
21901SOL     OW68979   2.617   8.507   9.543  0.1098  0.0675  0.5008
21901SOL    HW168980   2.547   8.553   9.590 -1.3406 -0.4477 -1.0199
21901SOL    HW268981   2.590   8.415   9.545  0.5179 -0.0870 -0.4354
21902SOL     OW68982   5.677   8.016   7.118 -0.0821 -0.7714 -0.2563
21902SOL    HW168983   5.736   8.073   7.168 -0.7783  0.2749 -0.5927
21902SOL    HW268984   5.732   7.980   7.048  0.8010 -1.9353  0.9801
21903SOL     OW68985  11.015   4.574   5.647  0.2125  0.1458  0.3413
21903SOL    HW168986  11.005   4.485   5.612 -0.6702  0.1134  0.6349
21903SOL    HW268987  11.020   4.562   5.741 -0.0327  0.4148  0.3890
21904SOL     OW68988   3.706   7.083   6.284  0.4490  0.1009 -0.6102
21904SOL    HW168989   3.702   7.000   6.236  0.2163 -0.8980  1.0498
21904SOL    HW268990   3.626   7.129   6.259 -0.5956 -1.1992  0.1719
21905SOL     OW68991   8.997  10.257   5.462  0.0877 -0.4535  0.3058
21905SOL    HW168992   9.007  10.311   5.383  0.5749  1.9370  1.9050
21905SOL    HW268993   8.907  10.225   5.458 -0.2204  0.4766 -0.7343
21906SOL     OW68994  10.547   4.505   5.340  0.7423 -0.1678 -0.3196
21906SOL    HW168995  10.554   4.601   5.343 -0.0205 -0.0770 -1.0568
21906SOL    HW268996  10.529   4.485   5.248 -0.1085 -0.9470  0.0028
21907SOL     OW68997   2.498  11.199   7.737 -0.1751  0.3896  0.2186
21907SOL    HW168998   2.546  11.264   7.789  1.8341 -1.0405  0.3016
21907SOL    HW268999   2.520  11.222   7.646 -0.2397  0.3898  0.2033
21908SOL     OW69000   3.870   6.594   8.625  0.4502  0.0741 -0.3510
21908SOL    HW169001   3.808   6.578   8.696  0.7678 -0.4636 -0.1883
21908SOL    HW269002   3.897   6.684   8.637  2.2389 -0.6518  1.6130
21909SOL     OW69003   7.810   0.796  10.428 -0.1836  0.1579 -0.5524
21909SOL    HW169004   7.804   0.732  10.357 -1.0294  0.6074 -0.8952
21909SOL    HW269005   7.812   0.742  10.508  1.5533 -0.3815 -0.9189
21910SOL     OW69006   6.542   7.591   7.392 -0.5123 -0.1018  0.1908
21910SOL    HW169007   6.457   7.635   7.401  0.9615  2.6924  2.1021
21910SOL    HW269008   6.533   7.538   7.314 -4.2041 -0.4289  0.6377
21911SOL     OW69009   5.361   8.972   8.320  0.6201  0.0437 -0.6391
21911SOL    HW169010   5.416   8.907   8.276  0.7513  0.7381 -1.5178
21911SOL    HW269011   5.422   9.035   8.356  0.4182  0.8686 -1.6977
21912SOL     OW69012   4.113   3.644   0.588  0.2967  0.0220 -0.5275
21912SOL    HW169013   4.114   3.715   0.652 -0.8396  0.3230 -0.8256
21912SOL    HW269014   4.072   3.571   0.634  1.2871 -0.4117 -0.2854
21913SOL     OW69015   0.483   2.304   0.165  0.0379 -0.6099 -0.3648
21913SOL    HW169016   0.529   2.387   0.178  1.7746 -1.0121 -2.9328
21913SOL    HW269017   0.505   2.252   0.241  0.6541  0.5759  0.2975
21914SOL     OW69018  10.845   0.643  10.406 -0.1438  0.3614 -0.5902
21914SOL    HW169019  10.836   0.672  10.497 -0.9891 -1.0461 -0.1964
21914SOL    HW269020  10.894   0.713  10.363 -1.6368  2.1060  0.4211
21915SOL     OW69021   7.703   3.663   4.218 -0.6425  0.2418 -0.2064
21915SOL    HW169022   7.706   3.750   4.259  1.2345  1.1187 -2.0439
21915SOL    HW269023   7.778   3.617   4.255  0.4838  0.7031 -1.8002
21916SOL     OW69024  10.232   7.153   5.245 -0.5263 -0.0646 -0.2231
21916SOL    HW169025  10.199   7.092   5.179  2.4777 -1.4687 -0.5935
21916SOL    HW269026  10.230   7.238   5.202 -2.3202 -0.2758 -0.6407
21917SOL     OW69027  10.889   5.985   3.419  0.0057  0.4600 -1.1067
21917SOL    HW169028  10.978   5.953   3.434  0.5650  1.8641 -1.2607
21917SOL    HW269029  10.874   5.967   3.326 -0.1868 -0.4996 -0.8977
21918SOL     OW69030  10.352  10.951   7.383 -0.2690 -0.1040 -0.2119
21918SOL    HW169031  10.386  10.912   7.302  1.0218 -2.1565  1.2008
21918SOL    HW269032  10.257  10.948   7.373 -0.3676 -4.4056 -0.0738
21919SOL     OW69033   1.013   5.532   4.720  0.1107 -0.8041 -0.0111
21919SOL    HW169034   0.962   5.570   4.791  0.9506  0.8084 -0.2154
21919SOL    HW269035   1.104   5.545   4.748  0.4319 -1.0245 -0.9383
21920SOL     OW69036   0.968   9.749   9.946 -0.0214  0.1230 -0.1422
21920SOL    HW169037   1.057   9.718   9.959 -0.7013 -1.8160  0.1899
21920SOL    HW269038   0.970   9.791   9.860  0.5281 -2.8996 -1.7611
21921SOL     OW69039   2.267   8.364   1.471  0.6630 -0.5442  0.0291
21921SOL    HW169040   2.303   8.301   1.534  0.5133 -2.5702 -1.8149
21921SOL    HW269041   2.300   8.335   1.386 -1.3088  0.4795 -1.1603
21922SOL     OW69042   9.452   1.788   5.528  0.1385 -0.2859  0.1028
21922SOL    HW169043   9.520   1.785   5.462  0.4839 -1.5049  0.4792
21922SOL    HW269044   9.434   1.881   5.542  0.3016 -0.0070 -1.4379
21923SOL     OW69045   9.759   3.524   3.803 -0.1968  0.4004  0.3391
21923SOL    HW169046   9.840   3.549   3.847 -0.5101  2.4481 -0.1239
21923SOL    HW269047   9.770   3.555   3.713 -1.3363  0.3675  0.1713
21924SOL     OW69048   9.325   4.474   6.235 -0.2255  0.1657  0.2324
21924SOL    HW169049   9.255   4.470   6.300 -1.0581 -0.1189 -0.6691
21924SOL    HW269050   9.287   4.520   6.160  0.4069 -0.3818 -0.4406
21925SOL     OW69051   7.555   6.968  11.000  0.0333 -0.2656  0.0862
21925SOL    HW169052   7.568   7.012  11.083 -0.5718 -2.0103  1.1590
21925SOL    HW269053   7.462   6.978  10.981 -0.0204 -0.6875  0.1160
21926SOL     OW69054   4.972  10.511   9.757 -0.1498 -0.4679  0.1373
21926SOL    HW169055   4.904  10.448   9.733  1.2388 -1.1672 -2.4312
21926SOL    HW269056   4.999  10.485   9.845 -1.9832 -1.2507  0.5121
21927SOL     OW69057   6.183   4.504   8.247 -0.4574 -0.3955  0.0188
21927SOL    HW169058   6.273   4.473   8.253 -1.1714 -2.8477 -0.7396
21927SOL    HW269059   6.133   4.445   8.303 -1.7273  0.2655 -0.3685
21928SOL     OW69060   3.750   4.150  10.266 -0.0758 -0.0074 -0.4875
21928SOL    HW169061   3.685   4.197  10.213 -0.1632  0.2130 -0.1882
21928SOL    HW269062   3.764   4.068  10.220 -0.6944 -0.1287 -0.4712
21929SOL     OW69063   0.203   8.256   8.868  0.2841 -1.0315 -0.5184
21929SOL    HW169064   0.126   8.214   8.829  0.3440 -0.6216 -1.0859
21929SOL    HW269065   0.253   8.289   8.793  1.4657 -2.0501 -0.2067
21930SOL     OW69066   3.950   7.071   7.474 -0.4232 -0.5490 -0.1630
21930SOL    HW169067   3.955   7.111   7.561 -0.3097  1.6976 -1.1432
21930SOL    HW269068   4.022   7.111   7.425 -1.1782 -0.9111 -1.6220
21931SOL     OW69069   6.108   5.570  10.962  0.4256 -0.3064  0.5870
21931SOL    HW169070   6.164   5.599  10.890  0.3779 -0.5024  0.4717
21931SOL    HW269071   6.019   5.585  10.931  0.3802  2.4571  1.7378
21932SOL     OW69072   9.324   6.483   9.818 -0.3044 -0.3077  0.2769
21932SOL    HW169073   9.398   6.433   9.851 -0.0282 -1.1982 -1.5954
21932SOL    HW269074   9.289   6.431   9.746 -2.3910  0.3782  0.7052
21933SOL     OW69075   6.869   0.623   5.980 -0.1895 -0.2503 -0.5224
21933SOL    HW169076   6.944   0.628   5.921 -0.7159 -0.0441 -1.2005
21933SOL    HW269077   6.885   0.546   6.034 -0.1309 -1.0140 -1.5822
21934SOL     OW69078   7.911  10.627   4.826  0.0002 -0.5423  0.0560
21934SOL    HW169079   7.875  10.670   4.748 -1.7726 -1.3568  0.3564
21934SOL    HW269080   7.983  10.574   4.792  1.2039  1.3708 -0.5410
21935SOL     OW69081   0.493   3.426   4.551 -0.5751 -0.1121 -0.0775
21935SOL    HW169082   0.440   3.503   4.530  1.6392  1.6598  0.4508
21935SOL    HW269083   0.451   3.388   4.628 -0.0704  2.4256  1.5943
21936SOL     OW69084   8.849   3.724   4.345  0.0003 -0.2268  0.3389
21936SOL    HW169085   8.869   3.793   4.282  0.9794 -0.6898  0.1220
21936SOL    HW269086   8.927   3.669   4.346 -0.7605 -1.3453  0.4856
21937SOL     OW69087   4.923   2.786   5.269 -0.0137 -0.2359 -0.2678
21937SOL    HW169088   4.953   2.873   5.242 -1.0649  0.7086  1.3792
21937SOL    HW269089   4.863   2.758   5.200 -1.6219  1.5136  0.3049
21938SOL     OW69090   4.492   7.750   1.279 -0.6503 -0.4422 -0.4975
21938SOL    HW169091   4.478   7.678   1.217 -0.4716 -0.5373 -0.4292
21938SOL    HW269092   4.405   7.787   1.292 -0.7167 -0.5317 -0.6724
21939SOL     OW69093  11.256  10.527   3.591  0.5958 -0.0807 -0.2669
21939SOL    HW169094  11.220  10.590   3.528  0.3934  0.0358 -0.0365
21939SOL    HW269095  11.240  10.442   3.551 -1.2993 -0.1321  0.4945
21940SOL     OW69096   7.847   3.437   6.928  0.0947 -0.3642 -0.5102
21940SOL    HW169097   7.814   3.459   6.841 -0.4516  0.3997 -0.1190
21940SOL    HW269098   7.937   3.408   6.913  0.3511  0.7305 -1.2370
21941SOL     OW69099   0.405   7.725   4.075  0.0858  0.3108 -0.0208
21941SOL    HW169100   0.442   7.742   4.162  0.9431  0.3322 -0.3748
21941SOL    HW269101   0.481   7.725   4.016 -0.2826 -1.2338 -0.5530
21942SOL     OW69102   5.006  11.268   1.634  0.5013 -0.0593  0.0880
21942SOL    HW169103   5.063  11.260   1.711 -1.0021 -0.2876  1.2267
21942SOL    HW269104   5.059  11.317   1.571  1.3990  1.1502  1.6820
21943SOL     OW69105   3.226   6.647   2.382  0.5267  0.1680  0.0856
21943SOL    HW169106   3.207   6.571   2.436 -1.4959 -0.5336 -1.4894
21943SOL    HW269107   3.246   6.611   2.295  0.7484  1.3829 -0.3887
21944SOL     OW69108   9.028   1.638   8.583 -0.2202 -0.3240  0.2887
21944SOL    HW169109   8.954   1.646   8.523  0.7412  0.4441 -0.8491
21944SOL    HW269110   9.006   1.696   8.656 -0.2772  0.7623 -0.5635
21945SOL     OW69111   5.097   9.569   8.822  0.2676  0.2912  0.0505
21945SOL    HW169112   5.018   9.543   8.776  1.0665  0.5131 -1.5359
21945SOL    HW269113   5.098   9.517   8.902 -1.6573  0.5802  0.2921
21946SOL     OW69114   2.632   7.912  10.006 -0.2492  0.2258  0.3010
21946SOL    HW169115   2.652   7.823   9.977 -1.6923  0.2177 -0.7395
21946SOL    HW269116   2.594   7.900  10.093  1.4130  0.0252  1.0487
21947SOL     OW69117   7.917   4.188   4.418 -0.0200 -0.2814 -0.4459
21947SOL    HW169118   7.831   4.227   4.399 -0.4966 -1.1378 -0.1235
21947SOL    HW269119   7.974   4.221   4.349 -1.0620 -1.1870 -1.7922
21948SOL     OW69120   0.642   6.763   8.066  0.0841 -0.6279 -0.4062
21948SOL    HW169121   0.661   6.856   8.079  0.8244 -0.9046  0.6303
21948SOL    HW269122   0.547   6.757   8.067  0.0180  0.1623 -0.8722
21949SOL     OW69123   2.238  10.652   9.581  0.0226 -0.6526  0.2105
21949SOL    HW169124   2.250  10.575   9.525 -0.3995 -1.1246  0.7492
21949SOL    HW269125   2.153  10.687   9.555 -0.1691 -0.8665  0.5375
21950SOL     OW69126   5.367   9.807   3.067  0.1483  0.2051 -0.0315
21950SOL    HW169127   5.331   9.827   2.980 -1.4858  1.6199  0.8995
21950SOL    HW269128   5.314   9.860   3.127  1.3790 -0.5722  1.8171
21951SOL     OW69129   6.587   0.669   8.566 -0.3499 -0.2430 -0.0415
21951SOL    HW169130   6.646   0.714   8.627 -2.7491  2.0430  0.7956
21951SOL    HW269131   6.575   0.731   8.494 -1.9479 -0.4806 -0.0171
21952SOL     OW69132   1.509  11.169   7.254  0.0906  0.1117  0.0667
21952SOL    HW169133   1.486  11.258   7.226 -1.0664 -0.4180 -0.7494
21952SOL    HW269134   1.517  11.175   7.349 -3.7008  0.3730  0.5179
21953SOL     OW69135   6.313   1.650   4.601  0.2788 -1.0672 -0.1973
21953SOL    HW169136   6.323   1.625   4.692  1.1617 -0.3507 -0.0872
21953SOL    HW269137   6.254   1.725   4.602  1.6072  0.0004 -0.0403
21954SOL     OW69138   3.176   0.444  10.213 -0.4777 -0.0378 -0.8064
21954SOL    HW169139   3.216   0.386  10.278  1.1650  2.0543  0.2040
21954SOL    HW269140   3.236   0.441  10.139 -0.2803  0.4679 -0.6734
21955SOL     OW69141   9.625   6.068   2.192  0.3827  0.4229  0.4962
21955SOL    HW169142   9.560   6.138   2.198  1.8247  1.8655 -0.0117
21955SOL    HW269143   9.612   6.030   2.105 -1.2890 -0.9087  1.2683
21956SOL     OW69144   8.985   8.406   8.370 -0.3477 -0.6633 -0.5288
21956SOL    HW169145   8.897   8.404   8.407 -0.5351  0.6872 -0.8387
21956SOL    HW269146   8.975   8.452   8.287  0.7486  0.0968 -0.2665
21957SOL     OW69147  11.397   1.291   4.009 -0.3838 -0.6872 -0.2507
21957SOL    HW169148  11.320   1.266   3.957 -0.8434 -0.0411  0.1046
21957SOL    HW269149  11.376   1.379   4.041  0.1198 -0.8753  0.5982
21958SOL     OW69150   6.501   9.070   0.590  0.5344 -0.0857 -0.0115
21958SOL    HW169151   6.419   9.119   0.599  1.3011  1.2366  0.1049
21958SOL    HW269152   6.568   9.133   0.616  1.4619 -1.6949  1.7132
21959SOL     OW69153   3.181   6.113   5.328  0.1222 -0.0575 -0.0697
21959SOL    HW169154   3.157   6.201   5.360  1.6938  0.0252  0.9720
21959SOL    HW269155   3.110   6.057   5.360 -0.1359  0.5948  0.5522
21960SOL     OW69156   2.806   8.043   0.768  0.9372  0.3341 -0.2880
21960SOL    HW169157   2.786   7.983   0.696 -2.7459  0.7868  0.1846
21960SOL    HW269158   2.721   8.075   0.796  2.5496  3.1620  1.7666
21961SOL     OW69159  10.506   0.229   2.576  0.1258  0.4200 -0.1893
21961SOL    HW169160  10.435   0.212   2.639  0.6648 -1.5677 -0.0687
21961SOL    HW269161  10.577   0.171   2.603  0.5743 -0.1022 -2.2934
21962SOL     OW69162   0.491  11.151   9.240 -0.7803 -0.3248 -0.3010
21962SOL    HW169163   0.482  11.106   9.324  1.7993  0.9452  0.7714
21962SOL    HW269164   0.476  11.244   9.261  1.5575  0.2304 -0.8020
21963SOL     OW69165   4.686  10.635  10.525  0.2795 -0.3058 -0.0507
21963SOL    HW169166   4.594  10.658  10.538 -0.0499 -2.6234  2.5493
21963SOL    HW269167   4.734  10.708  10.564 -0.3976  0.7694 -1.1423
21964SOL     OW69168  11.354   0.030   3.492 -0.2358 -0.0280  0.5006
21964SOL    HW169169  11.385   0.116   3.466  0.5036  0.1150  1.7273
21964SOL    HW269170  11.432  -0.026   3.483 -0.5808 -0.4528  0.1733
21965SOL     OW69171   2.437   4.098  10.831 -0.3803  0.6917 -0.6968
21965SOL    HW169172   2.528   4.077  10.851 -1.0947 -1.4475  0.6410
21965SOL    HW269173   2.388   4.019  10.855 -2.6431  1.9153 -0.9881
21966SOL     OW69174   2.227   2.399  10.938 -0.1705 -0.3805  0.3594
21966SOL    HW169175   2.259   2.310  10.924 -0.3399 -0.2368 -1.0293
21966SOL    HW269176   2.216   2.435  10.850  1.0916  1.4527  0.8922
21967SOL     OW69177   7.464   4.956   3.613 -0.2158 -0.5349  0.4415
21967SOL    HW169178   7.524   5.005   3.669  0.5599  0.0662 -0.8723
21967SOL    HW269179   7.380   5.000   3.624 -0.3794 -1.1913  2.0572
21968SOL     OW69180   6.129  10.986   8.892 -0.0435 -0.2431 -0.2520
21968SOL    HW169181   6.052  10.946   8.852  0.1557 -1.1312  0.2185
21968SOL    HW269182   6.202  10.934   8.860  0.1481 -0.7484  0.9639
21969SOL     OW69183   2.647   0.139  10.274 -0.2899 -0.6630 -0.2122
21969SOL    HW169184   2.733   0.096  10.268  0.6363  1.2768 -2.6013
21969SOL    HW269185   2.658   0.221  10.226 -2.7923  0.9146  1.6604
21970SOL     OW69186   6.543   2.676   2.644 -0.0927  0.7608  0.2325
21970SOL    HW169187   6.581   2.629   2.718  0.6867  0.4859 -0.3299
21970SOL    HW269188   6.618   2.696   2.587 -0.7430  0.4915 -0.7421
21971SOL     OW69189   7.405   5.246   1.130  0.6948  0.5563  0.5354
21971SOL    HW169190   7.353   5.255   1.210  0.1877 -0.5527  0.3448
21971SOL    HW269191   7.366   5.172   1.084  1.4493  0.7143 -0.3879
21972SOL     OW69192   0.925   7.470  10.136  0.2667 -0.1651 -0.4377
21972SOL    HW169193   1.009   7.431  10.158  0.0312 -0.6998 -0.4922
21972SOL    HW269194   0.864   7.397  10.131 -0.3693  0.3004  0.3689
21973SOL     OW69195   5.580   6.593   3.475  0.0943 -0.5863 -0.0282
21973SOL    HW169196   5.542   6.510   3.445 -0.8714 -1.2454  2.7653
21973SOL    HW269197   5.547   6.658   3.413  0.1861 -2.1306 -1.7803
21974SOL     OW69198   3.900   9.289   6.130  0.1644  0.0230 -0.1031
21974SOL    HW169199   3.861   9.300   6.044 -1.4699  1.5864  0.7716
21974SOL    HW269200   3.967   9.357   6.135 -0.4574  0.6215  0.2237
21975SOL     OW69201   0.996   7.748   5.227 -0.8079 -0.0523  0.0102
21975SOL    HW169202   1.060   7.679   5.242 -1.8810 -0.9870  0.4636
21975SOL    HW269203   0.954   7.724   5.144 -1.5502 -0.2594  0.4359
21976SOL     OW69204   7.723   1.080   9.991  0.3654  0.0086 -0.4639
21976SOL    HW169205   7.805   1.032   9.997 -0.1410 -0.9093 -0.7332
21976SOL    HW269206   7.750   1.172   9.982  1.3399  0.0306  1.8647
21977SOL     OW69207   8.105   3.411   9.086  0.4521  0.3665 -0.4499
21977SOL    HW169208   8.198   3.433   9.095  0.6206 -0.1927 -0.7472
21977SOL    HW269209   8.082   3.370   9.169  0.2941  1.0902 -0.1251
21978SOL     OW69210  10.233   6.043   7.486 -0.2266 -0.4036  0.2377
21978SOL    HW169211  10.304   5.995   7.529  0.6054  0.5178 -0.0841
21978SOL    HW269212  10.182   6.081   7.558  1.4987  1.6279  0.4633
21979SOL     OW69213   3.058   6.345   8.077  0.4723 -0.1983  0.4178
21979SOL    HW169214   3.095   6.400   8.146 -1.5086  1.5585  0.1635
21979SOL    HW269215   3.002   6.283   8.123  0.5110 -0.1564  0.5215
21980SOL     OW69216   8.548   5.661   9.480 -0.6539  0.0577 -0.0613
21980SOL    HW169217   8.507   5.631   9.399  0.1104 -0.3733 -0.2960
21980SOL    HW269218   8.503   5.743   9.500 -0.3784  0.5361 -1.2956
21981SOL     OW69219   1.219   1.105   9.496  0.1064  0.2291  0.1819
21981SOL    HW169220   1.280   1.179   9.495  2.8752 -1.8463 -1.0973
21981SOL    HW269221   1.215   1.079   9.588  1.0395  0.5654  0.3336
21982SOL     OW69222   1.981   3.799   5.522  0.0940  0.5248 -0.4492
21982SOL    HW169223   1.907   3.859   5.517 -0.8006 -0.5682 -0.6870
21982SOL    HW269224   1.945   3.714   5.498  1.6250  0.1237 -1.4905
21983SOL     OW69225  10.424   7.340   8.012  0.0601  0.3851  0.0293
21983SOL    HW169226  10.378   7.331   7.929 -1.6351  3.3629  0.4882
21983SOL    HW269227  10.516   7.333   7.990 -0.4173 -2.6619 -1.4296
21984SOL     OW69228   4.940  10.506   8.684  0.7782  0.1914 -0.3683
21984SOL    HW169229   4.896  10.576   8.732  0.8929 -0.5564  0.8658
21984SOL    HW269230   5.033  10.526   8.692  0.7889  0.1895 -0.4802
21985SOL     OW69231   3.024   1.664   4.707  0.1552 -0.4348  0.3390
21985SOL    HW169232   3.003   1.629   4.621 -0.0339 -0.8245  0.5402
21985SOL    HW269233   2.992   1.755   4.705 -1.5300 -0.9733  0.6081
21986SOL     OW69234   3.787   0.114   6.991 -0.4956  0.1156  0.1946
21986SOL    HW169235   3.810   0.207   6.990  1.5491 -0.3225  1.2708
21986SOL    HW269236   3.835   0.076   6.918 -0.7511 -0.2217  0.1995
21987SOL     OW69237   6.882   9.563   5.113 -0.0769  0.8090 -0.4493
21987SOL    HW169238   6.924   9.588   5.031  0.8885 -0.7410 -0.4631
21987SOL    HW269239   6.927   9.615   5.179  0.5412  0.5832 -0.6849
21988SOL     OW69240   9.913   9.345   9.358  0.0248  0.5071 -0.4136
21988SOL    HW169241   9.952   9.303   9.281  2.0212 -1.3752  1.4615
21988SOL    HW269242   9.847   9.283   9.389  1.7594 -0.5597  1.3675
21989SOL     OW69243   7.816  11.143   1.616  0.5882 -0.0189 -0.7072
21989SOL    HW169244   7.723  11.157   1.634  0.3145 -1.3135 -1.0305
21989SOL    HW269245   7.851  11.109   1.698  1.0549  1.5889 -0.2086
21990SOL     OW69246  10.228   0.262   9.502  0.0381 -0.4387 -0.4924
21990SOL    HW169247  10.197   0.342   9.459 -1.2092  0.0613  1.2567
21990SOL    HW269248  10.149   0.211   9.519  0.3840 -0.2792  1.8497
21991SOL     OW69249  10.712   3.175   2.199  0.1546 -0.6076  0.5977
21991SOL    HW169250  10.776   3.245   2.214  0.5114 -0.3884 -1.6357
21991SOL    HW269251  10.757   3.112   2.143 -1.7706 -0.0293 -1.7882
21992SOL     OW69252   0.057   8.275   0.641  0.0105 -0.0700  0.2954
21992SOL    HW169253  -0.036   8.296   0.632  0.1492 -0.0552 -1.7153
21992SOL    HW269254   0.100   8.331   0.575  1.3515 -0.6909  0.6045
21993SOL     OW69255   9.429   6.098  10.835 -0.2213  0.3733  0.6724
21993SOL    HW169256   9.379   6.123  10.758 -0.5968 -0.5218  0.6164
21993SOL    HW269257   9.442   6.180  10.883  0.7135  1.0875 -0.7302
21994SOL     OW69258   7.503   2.841   6.095 -0.5298 -0.0646  0.0669
21994SOL    HW169259   7.533   2.924   6.134 -2.3813  0.3954  0.6032
21994SOL    HW269260   7.424   2.865   6.046  0.9160 -0.8742 -2.9028
21995SOL     OW69261  10.474   9.044  10.559 -0.4020 -0.0932  0.6117
21995SOL    HW169262  10.437   9.025  10.645 -1.1797  0.3369  0.3732
21995SOL    HW269263  10.431   8.982  10.500 -1.8526  1.3765  0.0832
21996SOL     OW69264   2.862   3.395  10.066 -0.2363  0.5064  0.3761
21996SOL    HW169265   2.843   3.336  10.138  1.0182  0.2154  0.4929
21996SOL    HW269266   2.927   3.456  10.101 -1.4264  1.9193  0.2276
21997SOL     OW69267   7.849   1.987   7.850  0.1671  0.3288 -0.7787
21997SOL    HW169268   7.815   1.950   7.932  0.8406  0.7282 -0.3156
21997SOL    HW269269   7.944   1.991   7.862  0.3378 -0.1052 -1.7873
21998SOL     OW69270  10.090   5.103   8.277 -0.7222 -0.5201  0.7130
21998SOL    HW169271  10.067   5.185   8.322  0.2261  0.3413 -0.3149
21998SOL    HW269272  10.066   5.119   8.186  1.2605 -0.6318  0.1302
21999SOL     OW69273  11.018  10.119   6.039 -0.8092 -0.2761 -0.3036
21999SOL    HW169274  10.976  10.159   5.963 -2.1348  1.0388  1.0301
21999SOL    HW269275  11.096  10.171   6.054 -0.2979 -0.8254 -1.0106
22000SOL     OW69276   2.705   4.874   9.111  0.5853 -0.0880 -0.1785
22000SOL    HW169277   2.633   4.930   9.139  1.6183  1.2046  0.0304
22000SOL    HW269278   2.764   4.872   9.186  0.1509 -2.2705  0.1623
22001SOL     OW69279   9.242   8.943   4.857 -0.2105  0.3896 -0.2049
22001SOL    HW169280   9.172   9.004   4.881 -0.5397 -0.3815  0.8327
22001SOL    HW269281   9.226   8.866   4.910 -0.7328 -1.2649 -2.6182
22002SOL     OW69282   7.221  11.002   1.265  0.1929 -0.7922 -0.4766
22002SOL    HW169283   7.194  11.092   1.283  0.9082 -0.1517 -2.3942
22002SOL    HW269284   7.307  10.995   1.307  0.3133 -0.4499 -0.6609
22003SOL     OW69285   1.946   2.080   8.172 -0.2522 -0.3440 -0.2823
22003SOL    HW169286   1.857   2.049   8.187  0.2748 -1.4215  0.8355
22003SOL    HW269287   1.953   2.088   8.077 -1.4545 -0.4777 -0.3992
22004SOL     OW69288   8.587   8.589   6.602  0.0601  0.2429  0.7014
22004SOL    HW169289   8.492   8.588   6.609 -0.1165 -0.8964 -1.1414
22004SOL    HW269290   8.605   8.560   6.512  2.0691  2.8960  0.1079
22005SOL     OW69291   2.594   2.983   0.869  0.5264  0.8464  0.0812
22005SOL    HW169292   2.509   2.949   0.841  0.3070  1.3223  0.1483
22005SOL    HW269293   2.658   2.933   0.819  0.3370 -1.1894  1.7742
22006SOL     OW69294   5.220   5.375   3.468 -0.1002  0.2939 -0.2109
22006SOL    HW169295   5.297   5.344   3.420 -1.6725 -1.1721 -1.9688
22006SOL    HW269296   5.212   5.467   3.444  0.9532  0.3959 -0.2068
22007SOL     OW69297   9.964   4.329   3.797  0.2072  0.1061 -0.3305
22007SOL    HW169298   9.997   4.413   3.764 -0.4043  0.4050 -0.1915
22007SOL    HW269299   9.980   4.267   3.726 -0.2697  0.5543 -0.8308
22008SOL     OW69300   3.679   5.961   7.486  0.2073 -0.0294 -0.7289
22008SOL    HW169301   3.596   5.965   7.437 -1.0586 -2.6131  0.9682
22008SOL    HW269302   3.652   5.955   7.578  2.4161  1.7420  0.1307
22009SOL     OW69303   8.013   1.018   9.991  0.2076 -0.3071  0.4856
22009SOL    HW169304   8.063   1.079   9.937  0.9373  0.1187  1.5970
22009SOL    HW269305   8.075   0.947  10.010 -0.1934 -0.6912  0.3630
22010SOL     OW69306   3.258  10.365   7.452 -0.3293 -0.0104  0.2796
22010SOL    HW169307   3.310  10.444   7.462 -1.6258  1.4654 -3.3361
22010SOL    HW269308   3.311  10.307   7.398 -0.2945 -0.7312  1.0657
22011SOL     OW69309  10.737   5.795   8.983 -0.0796  0.4795 -0.2795
22011SOL    HW169310  10.741   5.826   8.893  1.1335  0.7157 -0.1577
22011SOL    HW269311  10.768   5.868   9.036  1.5572 -0.4538  0.1153
22012SOL     OW69312   3.182   4.127   1.089  0.3256  0.1100  0.1021
22012SOL    HW169313   3.181   4.038   1.125  0.3234  0.3034  0.5822
22012SOL    HW269314   3.098   4.135   1.044  0.3779 -0.1736 -0.0494
22013SOL     OW69315  10.380  10.439   4.060  0.3685 -0.6634  0.1473
22013SOL    HW169316  10.383  10.428   4.155  0.4495 -0.6828  0.1428
22013SOL    HW269317  10.293  10.473   4.042  1.0575  1.4149  0.4478
22014SOL     OW69318   4.327   3.308   0.925  0.2514  0.1159 -0.1267
22014SOL    HW169319   4.329   3.232   0.867 -0.5960  0.3425 -0.4747
22014SOL    HW269320   4.249   3.295   0.980  1.3353 -0.3616  1.3507
22015SOL     OW69321   6.651   8.002   4.641  0.1956  0.5476 -0.2234
22015SOL    HW169322   6.556   8.004   4.652  0.1470  0.3775 -0.5955
22015SOL    HW269323   6.686   8.017   4.729 -0.1745 -0.4720  0.1031
22016SOL     OW69324   7.331   3.530   0.134  0.8255  0.6558 -0.2334
22016SOL    HW169325   7.307   3.439   0.151  1.9645  0.8402  3.3633
22016SOL    HW269326   7.363   3.531   0.044 -0.2457 -2.2120 -0.7503
22017SOL     OW69327   1.140   1.832   7.570 -0.0103  0.3979 -0.0714
22017SOL    HW169328   1.079   1.879   7.627  0.8806  2.1332 -0.4714
22017SOL    HW269329   1.185   1.771   7.627 -0.3223  0.9115  0.7352
22018SOL     OW69330   8.148   0.903   6.589 -0.4031 -0.0309  0.5051
22018SOL    HW169331   8.174   0.989   6.621 -0.0930 -0.5116  1.6058
22018SOL    HW269332   8.169   0.843   6.662 -0.8564 -0.9923 -0.1343
22019SOL     OW69333   7.160   1.085   5.183  0.0410 -0.1441 -0.5934
22019SOL    HW169334   7.102   1.132   5.243 -0.9326  0.3190 -1.8572
22019SOL    HW269335   7.112   1.005   5.161  0.1588 -0.0714 -1.1352
22020SOL     OW69336   4.792   6.952   3.212  0.6265 -0.7993 -0.0698
22020SOL    HW169337   4.706   6.942   3.253  0.4093  2.0440  0.3337
22020SOL    HW269338   4.819   7.041   3.234  2.8423 -0.9586 -1.8058
22021SOL     OW69339   4.002   5.391   0.538 -0.2408  0.4653 -0.2765
22021SOL    HW169340   4.048   5.307   0.535  0.4568  0.8359 -0.3936
22021SOL    HW269341   3.932   5.383   0.473  1.2154  0.7443 -1.9663
22022SOL     OW69342   9.077   3.383   5.263 -0.0093  0.2686 -0.0661
22022SOL    HW169343   9.167   3.376   5.293 -0.4050 -1.2420  0.8622
22022SOL    HW269344   9.084   3.426   5.177  1.6004  0.0232 -0.0904
22023SOL     OW69345   9.177   7.414   4.874 -0.9065 -0.3262 -0.3212
22023SOL    HW169346   9.123   7.337   4.856 -0.7346 -1.2765  2.6715
22023SOL    HW269347   9.164   7.431   4.967  0.5232  2.1673 -0.4878
22024SOL     OW69348   2.260   8.831  10.113 -0.0516  0.2658  0.5964
22024SOL    HW169349   2.211   8.789  10.043 -4.1394  1.6394  2.3109
22024SOL    HW269350   2.286   8.759  10.171 -0.3726 -0.4952 -0.1924
22025SOL     OW69351   3.365   0.361  11.103  0.3991 -0.4390  0.0464
22025SOL    HW169352   3.421   0.297  11.147  1.5841  0.1050 -0.6298
22025SOL    HW269353   3.277   0.341  11.134  1.0417 -0.8619  1.7059
22026SOL     OW69354   5.490   0.751   6.604  0.3212 -0.5824 -0.2334
22026SOL    HW169355   5.535   0.827   6.568  0.3842  0.4690  1.9201
22026SOL    HW269356   5.533   0.676   6.563  0.8082  0.5007 -1.7822
22027SOL     OW69357   3.372   3.005   1.013  0.2469 -0.3208 -0.0637
22027SOL    HW169358   3.328   2.920   1.013  0.6318 -0.5206 -0.3760
22027SOL    HW269359   3.435   3.000   0.941 -0.1801  0.4619 -0.5026
22028SOL     OW69360   1.036   1.491   6.971 -0.2655  0.5508  0.0738
22028SOL    HW169361   0.979   1.463   6.900 -0.5761 -0.6632  0.7568
22028SOL    HW269362   1.100   1.548   6.930 -1.9269  1.9295 -0.7227
22029SOL     OW69363   3.272   5.567   6.526  0.5190 -0.1402 -0.2634
22029SOL    HW169364   3.252   5.615   6.445  1.9647  0.3825 -0.3568
22029SOL    HW269365   3.191   5.568   6.576 -0.3420 -0.2713 -1.6060
22030SOL     OW69366   5.051   7.360   7.447  0.1126  0.0744  0.5216
22030SOL    HW169367   5.090   7.276   7.420 -0.1301  0.2554 -0.4361
22030SOL    HW269368   5.109   7.426   7.409 -0.8953  0.3450 -0.5857
22031SOL     OW69369   2.039  10.572   1.849 -0.0950 -0.4878  0.2503
22031SOL    HW169370   2.121  10.533   1.879 -0.7357 -1.3100  0.9969
22031SOL    HW269371   1.980  10.498   1.836 -1.4655  0.1825  2.0743
22032SOL     OW69372   1.096   4.004   8.545  0.0093 -0.0441 -0.6410
22032SOL    HW169373   1.173   4.060   8.549 -0.4632  0.8234 -2.4990
22032SOL    HW269374   1.126   3.919   8.578  1.5333  0.4869 -0.5843
22033SOL     OW69375   5.005   4.154   7.171  0.4186  0.5460  0.0814
22033SOL    HW169376   4.918   4.132   7.205  1.1217 -1.3497  0.7701
22033SOL    HW269377   4.995   4.150   7.076 -0.1422 -0.1003  0.1602
22034SOL     OW69378  10.169  11.384  11.006  0.3515 -0.2460  0.1515
22034SOL    HW169379  10.219  11.461  10.978  0.4962 -0.8383 -1.3126
22034SOL    HW269380  10.233  11.326  11.046  0.8598 -0.9226 -1.5522
22035SOL     OW69381  10.608  10.264   0.983 -0.0980 -0.2245  0.6913
22035SOL    HW169382  10.572  10.285   1.069  1.0426 -0.2153  1.1774
22035SOL    HW269383  10.602  10.168   0.978  0.8829 -0.3297  1.2716
22036SOL     OW69384   8.311   3.700   9.364  0.3707  0.2821 -0.0498
22036SOL    HW169385   8.298   3.792   9.342  0.4475  0.2532 -0.2130
22036SOL    HW269386   8.332   3.657   9.281 -0.3991 -0.0128 -0.1099
22037SOL     OW69387  11.325  11.351   2.945 -0.1997  0.3156  0.0980
22037SOL    HW169388  11.235  11.345   2.977 -0.5356  0.4036 -0.8000
22037SOL    HW269389  11.319  11.401   2.863  0.9949  2.6642  1.3128
22038SOL     OW69390   6.380   4.504   2.206 -0.4912  0.1806  0.3951
22038SOL    HW169391   6.456   4.450   2.188  0.4381  0.9542  1.7619
22038SOL    HW269392   6.413   4.574   2.263 -1.7065  1.9894 -1.0062
22039SOL     OW69393   7.779   9.165   7.008  0.0329 -0.0423 -0.0562
22039SOL    HW169394   7.812   9.246   7.049 -1.8493  0.0393  1.4646
22039SOL    HW269395   7.683   9.173   7.015 -0.2399 -1.5064 -1.7176
22040SOL     OW69396   5.435   4.443   0.446  0.1240 -0.2375 -0.6632
22040SOL    HW169397   5.460   4.463   0.536  0.2612  2.0290 -1.1450
22040SOL    HW269398   5.402   4.526   0.412  2.4972 -0.2977 -3.4935
22041SOL     OW69399   5.557   5.059   2.091  0.2308  0.0134  0.4629
22041SOL    HW169400   5.526   5.012   2.169  0.7121  0.6204  1.0225
22041SOL    HW269401   5.632   5.110   2.121  0.6869 -0.0687 -0.4951
22042SOL     OW69402   0.365   5.628  10.222 -0.7614 -0.4328  0.3493
22042SOL    HW169403   0.381   5.708  10.172  0.8220 -0.7342  0.3159
22042SOL    HW269404   0.299   5.653  10.287 -2.4500  0.1053 -1.4915
22043SOL     OW69405   7.399   9.597   6.446 -0.0093 -0.1945 -0.7378
22043SOL    HW169406   7.376   9.536   6.516  0.6615  1.2375  0.7929
22043SOL    HW269407   7.322   9.596   6.388 -0.8717 -0.8960  0.3701
22044SOL     OW69408   3.098   1.454   9.944 -0.0622  0.8663  0.4291
22044SOL    HW169409   3.036   1.413  10.005 -0.5723  1.1975  0.1395
22044SOL    HW269410   3.159   1.502  10.001 -0.7160  1.4265  0.6775
22045SOL     OW69411   9.226   9.834   6.219 -0.1918 -0.3428 -0.5340
22045SOL    HW169412   9.165   9.857   6.149  0.2341 -1.3810 -1.2831
22045SOL    HW269413   9.312   9.854   6.183  0.0133 -0.5930 -0.1899
22046SOL     OW69414   6.830   0.062  10.429  0.2836 -0.1488  0.3883
22046SOL    HW169415   6.827  -0.029  10.400  0.0055  0.2277 -0.8146
22046SOL    HW269416   6.913   0.096  10.396 -1.0512  0.9435 -2.1772
22047SOL     OW69417   7.131   9.676   8.933 -0.5974  0.1500  0.0020
22047SOL    HW169418   7.072   9.601   8.928 -2.1038  1.3441 -1.1255
22047SOL    HW269419   7.089   9.743   8.878  2.3948  0.6786 -1.8345
22048SOL     OW69420   3.162   1.216   2.970  0.2281 -0.2916 -0.2855
22048SOL    HW169421   3.178   1.205   3.064 -0.3064  0.0089 -0.1552
22048SOL    HW269422   3.138   1.128   2.940  0.6018 -0.4300 -0.1820
22049SOL     OW69423   8.758   5.869   2.967 -0.2882 -0.2989  0.0169
22049SOL    HW169424   8.724   5.823   3.044 -1.5240 -1.1055 -0.9701
22049SOL    HW269425   8.763   5.961   2.994  0.4555 -0.7240  1.4258
22050SOL     OW69426   9.153   9.738   3.709 -0.0700 -0.1665 -0.1227
22050SOL    HW169427   9.185   9.657   3.748  1.6702 -0.0037 -1.1333
22050SOL    HW269428   9.223   9.802   3.724 -0.9922  0.9006 -0.2056
22051SOL     OW69429   1.649   2.203   9.667 -0.0389 -0.4187  0.3303
22051SOL    HW169430   1.663   2.293   9.699 -0.8089 -0.4269  0.7173
22051SOL    HW269431   1.736   2.163   9.669  0.2173  0.1435  0.7039
22052SOL     OW69432   1.648   9.630   1.002  0.0118 -0.4959  0.3589
22052SOL    HW169433   1.571   9.590   1.041  0.4706 -0.5917  1.1927
22052SOL    HW269434   1.615   9.707   0.955 -0.6598 -0.8948  0.1708
22053SOL     OW69435   9.884  11.330   9.796 -0.2252 -0.6577  0.3048
22053SOL    HW169436   9.841  11.409   9.830  0.1843  0.3990 -1.4629
22053SOL    HW269437   9.876  11.266   9.866 -0.1430  1.1017  2.0071
22054SOL     OW69438   7.580   8.594   5.621  0.2506  0.5054  0.1590
22054SOL    HW169439   7.611   8.507   5.647 -0.3220  0.3825  0.4549
22054SOL    HW269440   7.606   8.652   5.692 -1.1825  0.1974  0.9712
22055SOL     OW69441   5.965   8.421   3.250 -0.5997  0.2704 -0.0805
22055SOL    HW169442   5.951   8.420   3.155 -0.0678  0.0336 -0.1586
22055SOL    HW269443   6.011   8.340   3.269 -1.4221 -0.0753  0.5014
22056SOL     OW69444   6.594   5.914   6.961 -0.2120 -0.1898 -0.0160
22056SOL    HW169445   6.525   5.960   7.008  0.1057 -0.0031  0.2716
22056SOL    HW269446   6.650   5.877   7.030  0.2538  0.0820 -0.2464
22057SOL     OW69447   4.820   4.229   8.256  0.5747  0.0096  0.0974
22057SOL    HW169448   4.797   4.286   8.329 -0.4204 -0.3408  0.0803
22057SOL    HW269449   4.826   4.287   8.180 -0.8262  0.0639  0.0032
22058SOL     OW69450   1.991   4.505   5.075  0.2441  0.3145 -0.0671
22058SOL    HW169451   1.937   4.516   5.154  0.8057  2.2046  0.1051
22058SOL    HW269452   1.999   4.410   5.064 -0.5887  0.0137  1.6353
22059SOL     OW69453  10.103   3.670  10.025 -0.0538 -0.3835  0.3104
22059SOL    HW169454  10.068   3.758  10.017  0.9885  0.0671  0.4914
22059SOL    HW269455  10.109   3.639   9.934 -0.9578 -0.5003  0.2825
22060SOL     OW69456   0.728   3.543   9.344  0.5235 -0.1676  0.3445
22060SOL    HW169457   0.750   3.624   9.390  1.9807  0.0729 -0.6815
22060SOL    HW269458   0.699   3.483   9.412 -3.3120  1.9816  0.8572
22061SOL     OW69459   4.846   4.982   0.622 -0.0316  0.3020 -0.3239
22061SOL    HW169460   4.772   4.925   0.643 -1.0619  1.2244 -1.3219
22061SOL    HW269461   4.820   5.068   0.654  1.2678  0.3735  0.6495
22062SOL     OW69462   7.713  11.093   0.714 -0.1799  0.0637 -0.3866
22062SOL    HW169463   7.667  11.105   0.797 -0.6386  0.2775 -0.6635
22062SOL    HW269464   7.805  11.107   0.735  0.0041 -2.1634  0.5531
22063SOL     OW69465   8.948   4.690   7.533 -0.4191 -0.5239  0.0091
22063SOL    HW169466   8.895   4.737   7.469 -1.1437 -0.3543  0.7027
22063SOL    HW269467   8.886   4.630   7.575 -0.7996  1.5318  2.7167
22064SOL     OW69468   0.249   0.522  10.256 -0.4934 -0.0648 -0.3479
22064SOL    HW169469   0.196   0.597  10.229 -0.8591  0.5146  1.7658
22064SOL    HW269470   0.205   0.489  10.335  1.0308 -0.9776  0.1590
22065SOL     OW69471   4.786   2.378   5.136  0.3935  0.4951 -0.2755
22065SOL    HW169472   4.792   2.283   5.130  1.6203  0.4874  0.7000
22065SOL    HW269473   4.733   2.394   5.215  0.1599  0.6290 -0.4572
22066SOL     OW69474   8.823  10.249   6.253 -0.9318  0.1217  0.3961
22066SOL    HW169475   8.879  10.201   6.314  1.6383  0.4035 -1.5715
22066SOL    HW269476   8.765  10.182   6.216 -0.6270 -0.5622  1.1290
22067SOL     OW69477   7.623   1.697   9.138 -0.1827 -0.2918  0.2530
22067SOL    HW169478   7.599   1.630   9.202 -1.5564 -0.7962 -0.7430
22067SOL    HW269479   7.547   1.703   9.080  0.7143  0.7035 -0.8694
22068SOL     OW69480  11.243   5.051   9.206 -0.1221 -0.2566  0.2368
22068SOL    HW169481  11.306   4.983   9.231 -0.9931 -0.2992  2.6188
22068SOL    HW269482  11.158   5.008   9.213 -0.6348  0.8319  0.9586
22069SOL     OW69483   1.261   1.893   9.941  0.4201 -0.1348 -0.2327
22069SOL    HW169484   1.224   1.920  10.025 -0.8017  0.9164 -1.0451
22069SOL    HW269485   1.341   1.945   9.932 -0.5056  1.2843 -0.5824
22070SOL     OW69486  10.063   3.508   1.835 -0.6529 -0.5007  0.5282
22070SOL    HW169487  10.121   3.466   1.898 -1.3446 -0.8702  0.9278
22070SOL    HW269488  10.108   3.590   1.813  0.3888 -1.1279  0.2344
22071SOL     OW69489   9.261   9.719   1.267  0.3574  0.3583  0.0116
22071SOL    HW169490   9.285   9.692   1.356  0.7936 -1.8231 -0.7082
22071SOL    HW269491   9.311   9.661   1.210 -1.8225 -0.0198 -1.6299
22072SOL     OW69492   8.156   7.320   9.673  0.3750  0.9011 -0.3528
22072SOL    HW169493   8.080   7.267   9.697  1.1543  0.5494  1.5725
22072SOL    HW269494   8.218   7.306   9.744  2.3036  1.0949 -1.9145
22073SOL     OW69495   0.533   9.783   0.976 -0.4923  0.4985  0.2792
22073SOL    HW169496   0.531   9.695   1.015  0.3067  0.0336 -0.7084
22073SOL    HW269497   0.573   9.838   1.044  1.4131 -0.4128 -0.0449
22074SOL     OW69498   0.139   4.758   0.341  0.9584 -0.4699  0.2505
22074SOL    HW169499   0.064   4.779   0.285 -1.0596 -1.4062  2.4294
22074SOL    HW269500   0.192   4.697   0.288  0.6048  0.7550 -1.5934
22075SOL     OW69501   1.475   4.525   5.481  0.1407  0.2772 -0.3956
22075SOL    HW169502   1.525   4.447   5.459 -0.3706 -0.0231 -0.4973
22075SOL    HW269503   1.541   4.592   5.498  0.5675  0.2918 -2.0155
22076SOL     OW69504   0.071   3.167   1.113 -0.2334  0.5125  0.3839
22076SOL    HW169505   0.053   3.074   1.099 -0.1313  0.4385  0.7469
22076SOL    HW269506   0.163   3.176   1.091 -0.4904  0.7409 -0.7004
22077SOL     OW69507   2.332   8.073   3.163 -0.0037 -0.1554  0.2599
22077SOL    HW169508   2.364   8.130   3.232 -1.2316  1.5671 -0.5174
22077SOL    HW269509   2.240   8.097   3.153 -0.1876 -1.2873 -1.0769
22078SOL     OW69510   4.333   8.735   2.329 -0.3721 -0.0758  0.4723
22078SOL    HW169511   4.330   8.680   2.407  1.2278  0.6473  1.0816
22078SOL    HW269512   4.389   8.686   2.268 -0.3928  0.0696  0.3366
22079SOL     OW69513   0.967   6.502   4.197  0.1257 -0.1963 -0.4881
22079SOL    HW169514   0.932   6.551   4.122  0.2331  0.3092 -0.2130
22079SOL    HW269515   0.930   6.414   4.187 -1.3816  0.3515 -0.1169
22080SOL     OW69516   5.522   6.330   3.384  0.0082  0.1739 -0.2804
22080SOL    HW169517   5.608   6.340   3.342  0.4969 -2.2982 -0.0353
22080SOL    HW269518   5.488   6.248   3.350 -1.1574 -0.1467  1.5050
22081SOL     OW69519   1.446   8.889   4.966  0.2464  0.0604  0.6049
22081SOL    HW169520   1.510   8.935   4.912 -0.5713  0.1610 -0.3122
22081SOL    HW269521   1.395   8.958   5.008  1.7943  0.0129  2.7167
22082SOL     OW69522   8.579  11.037   3.661  0.6072 -0.3406 -0.9687
22082SOL    HW169523   8.583  10.967   3.725  1.1295 -0.1180 -0.7534
22082SOL    HW269524   8.487  11.065   3.662  0.7659  0.1999  0.2701
22083SOL     OW69525   9.872   5.753   3.465 -0.0241 -0.7644  0.2047
22083SOL    HW169526   9.859   5.812   3.539 -1.2452 -0.1650 -0.4674
22083SOL    HW269527   9.968   5.745   3.458  0.1537  0.5965  0.7299
22084SOL     OW69528   7.028  10.402   8.924  0.2880 -0.1955  0.7392
22084SOL    HW169529   7.077  10.466   8.873  1.5319 -1.8492 -0.2292
22084SOL    HW269530   7.078  10.321   8.916 -1.3523 -1.3663  1.7178
22085SOL     OW69531   7.980   2.899   0.938 -0.2005  0.4177  0.0058
22085SOL    HW169532   8.012   2.810   0.923 -1.2941  0.0472 -0.2216
22085SOL    HW269533   8.059   2.952   0.942  0.4430 -0.4511 -0.6120
22086SOL     OW69534  10.338   1.427   4.441 -0.5342  0.3979 -0.0255
22086SOL    HW169535  10.413   1.476   4.472  0.3642  1.2837 -3.2189
22086SOL    HW269536  10.268   1.492   4.432  0.1991  0.9353 -2.7637
22087SOL     OW69537   4.499   0.489   3.386 -0.2111 -0.2002 -0.3154
22087SOL    HW169538   4.454   0.558   3.434  0.4685 -0.9866  1.5210
22087SOL    HW269539   4.557   0.536   3.326  0.4497  0.8531  1.0912
22088SOL     OW69540   5.944   8.885   0.123 -0.4914 -0.4011  0.4126
22088SOL    HW169541   5.945   8.792   0.146  0.5319 -0.9552 -1.6579
22088SOL    HW269542   5.853   8.903   0.100 -0.4209 -1.3130 -0.6475
22089SOL     OW69543   5.443   3.905   7.758 -0.0979  0.0870 -0.4040
22089SOL    HW169544   5.382   3.942   7.822 -1.4528  1.2069 -2.2503
22089SOL    HW269545   5.514   3.869   7.811 -1.6946 -0.0676  1.7799
22090SOL     OW69546   1.239   9.105   4.301  0.1405  0.4197 -0.0443
22090SOL    HW169547   1.161   9.161   4.302 -1.1755 -1.2720 -1.5686
22090SOL    HW269548   1.211   9.025   4.346  2.0955  1.0139  2.4216
22091SOL     OW69549   4.138  11.200   8.146  1.0112 -0.6582 -0.6379
22091SOL    HW169550   4.120  11.290   8.119  1.0618 -0.6761 -0.7303
22091SOL    HW269551   4.059  11.152   8.122  0.6039 -0.4601  0.2585
22092SOL     OW69552   1.215   7.944   3.646 -0.1091 -0.1088 -0.0041
22092SOL    HW169553   1.147   7.997   3.687 -2.0125 -2.6790  0.4696
22092SOL    HW269554   1.176   7.914   3.564  1.4656  0.3820 -0.9642
22093SOL     OW69555   1.959   7.575   8.957 -0.0588  0.5595 -0.1212
22093SOL    HW169556   2.050   7.600   8.941  0.4974 -1.8018 -0.9563
22093SOL    HW269557   1.963   7.505   9.022 -1.3293  0.5876  0.0296
22094SOL     OW69558  10.146   1.718   8.104 -0.7797 -0.1921 -0.3582
22094SOL    HW169559  10.170   1.792   8.049  0.4296 -0.8435 -0.7392
22094SOL    HW269560  10.229   1.679   8.130 -1.3479 -2.9311 -2.2390
22095SOL     OW69561   4.161   4.881   0.028 -0.4389 -0.4785 -0.4925
22095SOL    HW169562   4.209   4.820  -0.029 -1.5990 -0.3524 -1.6693
22095SOL    HW269563   4.128   4.826   0.099  1.7783 -0.4869  0.6251
22096SOL     OW69564   1.305   3.493   9.392 -0.0314  0.2045 -0.2813
22096SOL    HW169565   1.395   3.514   9.369  0.0222 -0.7176 -0.9859
22096SOL    HW269566   1.313   3.425   9.459 -0.2098  0.4889  0.0351
22097SOL     OW69567  11.021   3.285   7.652  0.2323 -0.0679 -0.2163
22097SOL    HW169568  10.959   3.335   7.599 -0.8467 -0.8411  0.2750
22097SOL    HW269569  11.055   3.219   7.592  1.0617  0.7422 -0.6526
22098SOL     OW69570   5.801   2.860   2.685 -0.4089 -0.3959 -0.1283
22098SOL    HW169571   5.799   2.942   2.635  0.1703 -0.2165  0.1444
22098SOL    HW269572   5.893   2.842   2.699 -0.5388  0.1387  1.8125
22099SOL     OW69573   6.817   6.781   7.110 -0.0236 -0.5347  0.0641
22099SOL    HW169574   6.824   6.715   7.041 -0.5161 -0.6317  0.1018
22099SOL    HW269575   6.753   6.843   7.076  1.0169  0.3663 -0.3228
22100SOL     OW69576   2.476  10.681   2.514  0.0460  0.0228  0.1534
22100SOL    HW169577   2.497  10.747   2.449  0.8503 -1.0982 -0.7784
22100SOL    HW269578   2.381  10.682   2.521  0.0335  1.0255 -0.0974
22101SOL     OW69579   5.451   6.564   1.842  0.1673 -0.1903 -0.1666
22101SOL    HW169580   5.538   6.597   1.864  0.0922  0.5031 -0.8423
22101SOL    HW269581   5.436   6.491   1.902  1.0194 -0.0148  0.2672
22102SOL     OW69582   8.778   9.832   8.508 -0.5267  0.1133 -0.0003
22102SOL    HW169583   8.728   9.901   8.465  0.4537  0.5541 -0.4705
22102SOL    HW269584   8.844   9.807   8.443  1.4550  1.2843  1.4474
22103SOL     OW69585   4.555   6.231   3.106  0.4503 -0.4677 -0.1356
22103SOL    HW169586   4.459   6.227   3.100  0.4567 -0.5037 -0.2219
22103SOL    HW269587   4.585   6.218   3.016  0.5407 -0.6084 -0.0861
22104SOL     OW69588   5.195   8.653   1.802  0.4154 -0.1821  0.7793
22104SOL    HW169589   5.223   8.609   1.882 -0.9740 -2.2659  0.2018
22104SOL    HW269590   5.101   8.638   1.798  0.2369  1.0652 -0.5661
22105SOL     OW69591   4.523   3.554   3.465  0.1043  0.2049 -0.1642
22105SOL    HW169592   4.482   3.470   3.447  0.5219 -0.0469  0.0489
22105SOL    HW269593   4.456   3.605   3.511  0.5045 -0.7143  1.4933
22106SOL     OW69594   8.459   5.797   2.217 -0.5204 -0.4787  0.6350
22106SOL    HW169595   8.512   5.839   2.149 -0.0071 -0.3030  1.1405
22106SOL    HW269596   8.373   5.838   2.209 -0.5217 -0.5891 -0.0263
22107SOL     OW69597   9.122   0.981   6.129 -0.4444  0.3195  0.0429
22107SOL    HW169598   9.102   0.929   6.051 -1.3910  0.0560  0.4446
22107SOL    HW269599   9.206   1.024   6.109  0.2112 -1.1070 -0.4285
22108SOL     OW69600   4.357   3.224   1.808 -0.4293  0.3199  0.0380
22108SOL    HW169601   4.305   3.258   1.735 -1.1865 -0.7771  0.0481
22108SOL    HW269602   4.435   3.280   1.810 -0.0611 -0.0435 -2.0457
22109SOL     OW69603  10.012   0.934   8.547 -0.1489 -0.0539 -0.1154
22109SOL    HW169604  10.097   0.944   8.504 -0.8120  1.4693 -1.1813
22109SOL    HW269605  10.026   0.967   8.635  0.7046 -1.1775  0.1944
22110SOL     OW69606   7.565  11.303   0.543 -1.0422  0.3425 -0.0069
22110SOL    HW169607   7.633  11.361   0.511 -2.2551  0.9818 -1.5721
22110SOL    HW269608   7.606  11.254   0.614  0.9282  0.9247 -0.6879
22111SOL     OW69609   7.674   3.762   7.003  0.1157  0.0884 -0.5062
22111SOL    HW169610   7.588   3.745   6.963  0.4789 -2.0704 -0.5122
22111SOL    HW269611   7.735   3.758   6.929  0.4842 -1.1027 -0.1622
22112SOL     OW69612   3.622  10.609   4.852 -0.2792  0.7139 -0.2233
22112SOL    HW169613   3.630  10.689   4.800  1.6009  0.3260 -0.6284
22112SOL    HW269614   3.656  10.540   4.794  1.9794  0.2848  1.4727
22113SOL     OW69615   4.939   8.202   0.848 -0.1868 -0.5015  0.4297
22113SOL    HW169616   4.984   8.126   0.813  1.2123  0.8273 -0.7733
22113SOL    HW269617   4.846   8.186   0.829  0.3554 -0.5541 -2.6130
22114SOL     OW69618  10.382   6.632   2.019  0.7351 -0.6871 -0.1501
22114SOL    HW169619  10.412   6.625   2.110 -0.3052  1.5932  0.4527
22114SOL    HW269620  10.455   6.672   1.972  1.2378 -1.7799 -0.3407
22115SOL     OW69621   5.541   6.508   9.059  0.6249 -0.0968 -0.5346
22115SOL    HW169622   5.621   6.561   9.063  0.7690 -0.2973 -0.7520
22115SOL    HW269623   5.519   6.505   8.966 -0.4225  1.1175 -0.3637
22116SOL     OW69624   7.196  10.591   0.387 -0.3640  0.5894  0.3382
22116SOL    HW169625   7.187  10.686   0.382 -0.5827  0.6318  1.4132
22116SOL    HW269626   7.237  10.566   0.304  0.5226  1.7157  0.4213
22117SOL     OW69627   9.179   9.627   1.644  0.9204 -0.6727 -0.2051
22117SOL    HW169628   9.199   9.559   1.708  1.6982 -1.2188 -0.9901
22117SOL    HW269629   9.250   9.619   1.579 -1.0209 -1.6927 -2.3548
22118SOL     OW69630   6.014   6.821   7.917  0.0899  0.4273 -0.2336
22118SOL    HW169631   6.019   6.838   7.823  1.0210 -0.5806 -0.3808
22118SOL    HW269632   6.022   6.727   7.925 -1.3431  0.3464  0.7921
22119SOL     OW69633  11.392   3.108   8.073 -0.0118  0.4162  0.8105
22119SOL    HW169634  11.485   3.103   8.051 -0.0886  0.9358  0.3484
22119SOL    HW269635  11.367   3.017   8.092  0.2559  0.0561 -0.4629
22120SOL     OW69636   3.506  10.632   2.603  0.1441 -0.4463 -0.7388
22120SOL    HW169637   3.421  10.674   2.601  0.7630  0.9551  0.4078
22120SOL    HW269638   3.568  10.704   2.619  1.3131 -1.6879  0.6006
22121SOL     OW69639   9.236   0.499   7.198  0.5625 -0.4153  0.1922
22121SOL    HW169640   9.165   0.541   7.248  0.3620  2.5564 -2.2867
22121SOL    HW269641   9.308   0.561   7.202  2.1616 -2.2061  0.4874
22122SOL     OW69642   4.552   1.506   2.535  0.0390  0.0318 -0.2569
22122SOL    HW169643   4.461   1.480   2.550 -0.1410  0.6147 -0.3078
22122SOL    HW269644   4.590   1.512   2.623  0.1474 -0.6089 -0.2545
22123SOL     OW69645   8.217   4.789   3.824  0.2772  0.2064  0.2970
22123SOL    HW169646   8.247   4.721   3.763  0.4540 -0.9693  1.6428
22123SOL    HW269647   8.239   4.871   3.780  1.6439 -0.6048 -0.6291
22124SOL     OW69648   0.337   8.256   8.592  0.6588 -0.4595  0.1091
22124SOL    HW169649   0.417   8.206   8.577  0.4482 -0.5313 -0.8161
22124SOL    HW269650   0.367   8.344   8.616  1.0194 -0.2591 -1.0290
22125SOL     OW69651   7.650  10.697   6.401 -0.8556  0.4861 -0.3551
22125SOL    HW169652   7.668  10.715   6.494 -2.6980  0.3455  0.0801
22125SOL    HW269653   7.566  10.651   6.402 -0.8194  0.3332 -2.0962
22126SOL     OW69654   0.552   5.566   6.792  0.6085 -0.6605  0.4778
22126SOL    HW169655   0.476   5.605   6.750  0.6229  0.0053  1.0602
22126SOL    HW269656   0.565   5.483   6.746 -0.7340 -0.9897  0.6619
22127SOL     OW69657   1.465   7.932   4.637 -0.1267  0.1948  0.2914
22127SOL    HW169658   1.386   7.983   4.657 -1.4290 -1.2015 -1.0016
22127SOL    HW269659   1.515   7.987   4.577 -0.5026  0.7806  0.5105
22128SOL     OW69660   0.341   3.625   8.331 -0.0179  0.1354 -0.5067
22128SOL    HW169661   0.369   3.672   8.409  0.3222 -0.8051 -0.0419
22128SOL    HW269662   0.369   3.534   8.346 -2.4251 -0.6654 -0.4464
22129SOL     OW69663   2.777   3.465   7.872 -0.0148 -0.2378  0.0152
22129SOL    HW169664   2.770   3.370   7.863  1.2213 -0.1714 -2.2950
22129SOL    HW269665   2.853   3.479   7.928 -0.4977 -0.5792  0.7775
22130SOL     OW69666   1.977   0.625   0.721 -0.0047  0.2269  0.2439
22130SOL    HW169667   2.049   0.683   0.696  0.1492  1.0381  2.3458
22130SOL    HW269668   2.019   0.549   0.760 -0.2640 -0.1305 -0.1598
22131SOL     OW69669   3.218   0.897  10.936 -0.1214  0.3087 -0.2748
22131SOL    HW169670   3.275   0.885  11.012 -0.1281 -0.2833 -0.3558
22131SOL    HW269671   3.162   0.971  10.959 -2.5575 -1.9501  1.8345
22132SOL     OW69672   4.881   8.177  10.991 -0.6053  0.7056  0.4059
22132SOL    HW169673   4.846   8.123  11.062 -2.0780  0.4999 -0.4518
22132SOL    HW269674   4.827   8.256  10.992 -0.8879  0.5363 -0.7342
22133SOL     OW69675   1.555   6.830   6.425  0.2327  0.5201  0.4016
22133SOL    HW169676   1.462   6.849   6.411  0.1070 -0.2036  0.1999
22133SOL    HW269677   1.555   6.747   6.474  0.7865 -0.5015 -1.2221
22134SOL     OW69678   3.562   6.284   9.163  0.1572 -0.1172 -0.6551
22134SOL    HW169679   3.631   6.234   9.207 -0.2655  0.7489  1.0590
22134SOL    HW269680   3.555   6.365   9.213 -3.6267 -1.0799  0.6941
22135SOL     OW69681   0.027   6.093   9.267 -0.6522 -0.5191  0.2003
22135SOL    HW169682   0.003   6.183   9.289 -2.2047 -0.6546 -0.8161
22135SOL    HW269683   0.121   6.097   9.252 -0.4683  0.6598  1.3962
22136SOL     OW69684   8.533   4.036   3.429  0.3993  0.0998 -0.1630
22136SOL    HW169685   8.470   3.974   3.464  0.2566 -0.2644 -1.0384
22136SOL    HW269686   8.509   4.120   3.468 -0.1033 -0.1916  0.1557
22137SOL     OW69687   4.316   8.731   3.344 -0.0087 -0.0774 -0.3397
22137SOL    HW169688   4.391   8.777   3.306 -1.4980  1.4115 -1.6843
22137SOL    HW269689   4.245   8.795   3.339 -1.8069 -1.9996 -0.7779
22138SOL     OW69690   7.891   9.868   0.196  1.2414  0.1143  0.2480
22138SOL    HW169691   7.851   9.948   0.229  0.4054 -0.9354  1.9055
22138SOL    HW269692   7.890   9.879   0.101  0.9847  1.9732  0.4154
22139SOL     OW69693   8.564   0.018   5.318  0.2480 -0.1069 -0.1480
22139SOL    HW169694   8.476   0.023   5.355 -0.0452  2.4636 -1.0110
22139SOL    HW269695   8.611   0.091   5.359  0.8820  0.7694 -2.3193
22140SOL     OW69696   5.217   3.118   5.435  0.3244  0.0640  0.1450
22140SOL    HW169697   5.223   3.170   5.515  1.1107  0.6296 -0.2653
22140SOL    HW269698   5.293   3.061   5.438 -0.7743 -1.4607  0.8243
22141SOL     OW69699   6.900   0.647   0.764 -0.5006  0.0493 -0.2625
22141SOL    HW169700   6.826   0.589   0.787 -0.1252 -0.0730  0.6922
22141SOL    HW269701   6.961   0.590   0.718 -0.7846  0.0382 -0.6332
22142SOL     OW69702   2.770   5.101   0.805  0.1158  0.3457 -0.1386
22142SOL    HW169703   2.763   5.011   0.775 -0.9910  0.6895 -0.9907
22142SOL    HW269704   2.818   5.146   0.735  0.2969  0.4940  0.0812
22143SOL     OW69705  11.157   5.563   4.011  0.1155  0.3718 -0.4304
22143SOL    HW169706  11.171   5.601   3.924 -1.0473  2.0341  0.0409
22143SOL    HW269707  11.174   5.635   4.072 -0.6218 -0.3017  0.6225
22144SOL     OW69708   3.798   7.132   2.549 -0.3074 -0.2027  0.0001
22144SOL    HW169709   3.702   7.125   2.552 -0.3128 -0.9538 -1.1476
22144SOL    HW269710   3.818   7.204   2.608 -1.5843 -0.0321  0.2721
22145SOL     OW69711   0.133   6.690   8.265 -0.1989  0.3015 -0.8102
22145SOL    HW169712   0.114   6.605   8.227  0.4258  0.3548 -1.2713
22145SOL    HW269713   0.143   6.674   8.359  0.3230 -0.2146 -0.9449
22146SOL     OW69714   0.624   8.342   1.839 -0.5012 -0.4745  0.0985
22146SOL    HW169715   0.631   8.247   1.829 -3.1515 -0.7940  0.6021
22146SOL    HW269716   0.590   8.373   1.755 -2.4475 -0.3948  0.8740
22147SOL     OW69717   6.814   4.980   4.052 -0.5188 -0.1506 -0.0704
22147SOL    HW169718   6.884   4.948   4.109 -1.1516 -0.8720  0.3115
22147SOL    HW269719   6.850   5.060   4.012 -0.3962  0.9207  2.0474
22148SOL     OW69720   8.081   2.724   5.748  0.1878  0.3238 -0.0179
22148SOL    HW169721   8.152   2.699   5.807 -0.2090 -0.0667  0.2947
22148SOL    HW269722   8.022   2.777   5.802 -1.2842 -1.7580  0.5673
22149SOL     OW69723   2.104   8.013  10.695 -0.0119  0.5435  0.0599
22149SOL    HW169724   2.100   8.029  10.789  0.0022  0.8717  0.0044
22149SOL    HW269725   2.023   7.967  10.674 -0.5059  1.3993  0.0510
22150SOL     OW69726   2.164  11.114   8.641 -1.0217  0.2964  0.0831
22150SOL    HW169727   2.230  11.144   8.578 -0.8722  2.7689  1.2949
22150SOL    HW269728   2.212  11.054   8.698 -0.8686 -1.0418 -1.3859
22151SOL     OW69729   3.549   0.040   5.425  0.5469 -0.5740  0.2602
22151SOL    HW169730   3.511  -0.047   5.418 -0.1377 -0.1931 -1.0770
22151SOL    HW269731   3.633   0.026   5.469  0.3233 -1.8578  0.3160
22152SOL     OW69732   5.119   4.044   5.482 -0.1072 -0.3649  0.2232
22152SOL    HW169733   5.110   4.125   5.533 -2.8492  0.8933 -1.9966
22152SOL    HW269734   5.086   3.975   5.540  0.6702  0.2954  1.5280
22153SOL     OW69735   5.945  10.625  10.949  0.4253  0.7184 -0.3263
22153SOL    HW169736   5.917  10.606  10.860  0.2623 -0.8799  0.0264
22153SOL    HW269737   5.930  10.719  10.960  1.7713  1.2448 -2.4287
22154SOL     OW69738   7.638  11.318   8.941 -0.2051 -0.1224 -0.5829
22154SOL    HW169739   7.637  11.284   9.030 -1.9174  0.6881 -0.2497
22154SOL    HW269740   7.626  11.413   8.951 -4.2039 -0.3151 -1.6789
22155SOL     OW69741   7.823   7.423   3.019 -0.2210 -0.2712  0.1578
22155SOL    HW169742   7.888   7.485   2.986 -0.4578 -0.4184 -0.6310
22155SOL    HW269743   7.756   7.478   3.059 -0.9222  0.0939 -1.4115
22156SOL     OW69744   1.826   6.894   8.397 -0.4707  0.3830 -0.2994
22156SOL    HW169745   1.843   6.802   8.419  0.9684  0.0572 -2.5393
22156SOL    HW269746   1.875   6.943   8.463  1.1796 -0.5088 -0.8110
22157SOL     OW69747  10.566   2.594   0.315  0.1603 -0.2269  0.5768
22157SOL    HW169748  10.580   2.611   0.222 -1.7379  0.2507  0.3406
22157SOL    HW269749  10.619   2.516   0.333 -1.4002 -1.8868 -1.5265
22158SOL     OW69750   8.790   2.073   5.286  0.3213 -0.3213 -0.2565
22158SOL    HW169751   8.749   2.160   5.289 -2.8279 -1.6630 -0.5821
22158SOL    HW269752   8.860   2.077   5.351 -0.8959  1.9200  1.0293
22159SOL     OW69753   7.517   1.321  10.194  0.0596  0.3161  0.2579
22159SOL    HW169754   7.593   1.289  10.244  0.1439  0.1618  0.0317
22159SOL    HW269755   7.441   1.295  10.246  0.1966  1.6695  1.1864
22160SOL     OW69756   1.317   6.700   2.318  0.1448  0.0015  0.6212
22160SOL    HW169757   1.333   6.690   2.224  3.1403 -0.8881  1.1143
22160SOL    HW269758   1.403   6.685   2.358 -0.3497  3.3487  3.3443
22161SOL     OW69759   1.114   2.069   2.590  0.6396 -0.6269  0.4731
22161SOL    HW169760   1.030   2.028   2.569 -0.6476 -0.4763  4.5385
22161SOL    HW269761   1.107   2.158   2.556 -1.6458 -0.0569  2.2591
22162SOL     OW69762   8.766  10.722   8.559  0.5509  0.2972 -0.2608
22162SOL    HW169763   8.729  10.795   8.509  1.0155  0.8467  0.1764
22162SOL    HW269764   8.792  10.762   8.642 -2.0101 -0.9301  1.2685
22163SOL     OW69765  11.043   9.214   5.707 -0.5309  0.0207 -0.1624
22163SOL    HW169766  10.950   9.226   5.686 -0.4810  0.1600 -0.3062
22163SOL    HW269767  11.070   9.299   5.743 -0.2515  0.2455 -0.8958
22164SOL     OW69768   0.734   0.323   7.987  0.4997 -0.2028 -0.1139
22164SOL    HW169769   0.716   0.252   7.925  1.5934 -0.2837 -0.3543
22164SOL    HW269770   0.704   0.402   7.942  1.6885 -0.2036 -0.9648
22165SOL     OW69771   8.098   0.310   2.805  0.5140  0.0033  0.1990
22165SOL    HW169772   8.085   0.328   2.711  1.3225 -0.1535  0.0509
22165SOL    HW269773   8.143   0.225   2.807 -0.4201 -0.4945  0.7766
22166SOL     OW69774  11.151   0.918   8.764  0.2745  0.4407 -0.1928
22166SOL    HW169775  11.077   0.872   8.724  0.4327 -1.2476  1.3391
22166SOL    HW269776  11.211   0.849   8.791  1.4392  1.6673  0.4858
22167SOL     OW69777   3.965  11.187  10.545 -0.0321 -0.4717 -0.0195
22167SOL    HW169778   4.041  11.131  10.562 -1.3864 -2.7485 -1.0698
22167SOL    HW269779   3.932  11.209  10.632 -0.0690 -2.2024  0.4311
22168SOL     OW69780  11.324   5.531   2.753 -0.6527  0.7494 -0.2342
22168SOL    HW169781  11.293   5.475   2.824 -0.2352  0.5880 -0.1763
22168SOL    HW269782  11.307   5.481   2.674  1.0734 -0.1220 -0.0942
22169SOL     OW69783   7.668   0.924   7.819 -0.5972 -0.1441  0.1536
22169SOL    HW169784   7.638   0.890   7.904 -1.3996  0.8949  0.3072
22169SOL    HW269785   7.729   0.993   7.841 -0.9432  0.2491 -0.1071
22170SOL     OW69786   8.453   8.799   9.678  0.0101 -0.6170  0.8681
22170SOL    HW169787   8.449   8.716   9.629 -0.2916  0.2790 -0.7078
22170SOL    HW269788   8.526   8.846   9.639  0.7594 -0.4811  2.3716
22171SOL     OW69789   7.953   6.553   6.256 -0.1368 -0.2327 -0.0819
22171SOL    HW169790   7.907   6.633   6.280  1.3604 -0.1261  2.8433
22171SOL    HW269791   8.032   6.583   6.210  0.4565  0.0562  1.0679
22172SOL     OW69792   2.407   5.384   4.301 -0.5657  0.2052  0.6058
22172SOL    HW169793   2.447   5.429   4.226 -0.7987  2.5661  1.8077
22172SOL    HW269794   2.321   5.423   4.309 -1.1591 -1.1570  1.1844
22173SOL     OW69795   9.671  10.731   6.575 -0.2384 -0.1434  0.1381
22173SOL    HW169796   9.616  10.729   6.654 -0.3298 -0.1229  0.0752
22173SOL    HW269797   9.717  10.815   6.580 -2.1586  1.0542 -1.1187
22174SOL     OW69798   0.841   9.946   6.182 -0.1173  0.1796 -0.2261
22174SOL    HW169799   0.889   9.998   6.246 -0.0334 -0.9887  0.6775
22174SOL    HW269800   0.894   9.868   6.170  0.3641  0.7699 -2.4571
22175SOL     OW69801   3.558   4.390   3.673 -0.1659 -0.1694  0.1342
22175SOL    HW169802   3.510   4.309   3.692  1.0777 -0.5687  1.7880
22175SOL    HW269803   3.536   4.449   3.745 -0.0497  0.5161 -0.3776
22176SOL     OW69804   0.322   7.824   8.509  0.0122  0.5999  0.3799
22176SOL    HW169805   0.272   7.753   8.467 -0.7145  1.2979  0.0262
22176SOL    HW269806   0.344   7.790   8.596  0.9017 -0.5916 -0.2853
22177SOL     OW69807   3.134   8.203   3.330  0.9140  0.1500 -0.7079
22177SOL    HW169808   3.205   8.268   3.329  1.9914 -0.9359  0.2500
22177SOL    HW269809   3.177   8.121   3.305  0.0714 -0.5898  0.1897
22178SOL     OW69810   8.332   3.664   8.369 -0.1709 -0.1913  0.7509
22178SOL    HW169811   8.277   3.734   8.406  0.2208  0.1026  0.7790
22178SOL    HW269812   8.379   3.628   8.445  0.9883  0.7249  0.4974
22179SOL     OW69813   3.577   7.297   3.317 -0.1588 -0.1497  0.3805
22179SOL    HW169814   3.510   7.363   3.303  0.0367  0.2957  1.3835
22179SOL    HW269815   3.545   7.246   3.391 -0.0620 -0.8513 -0.0563
22180SOL     OW69816   2.225   0.583   1.732 -0.8849 -0.1883  0.2171
22180SOL    HW169817   2.176   0.514   1.688 -2.3988  1.4090 -0.7496
22180SOL    HW269818   2.290   0.537   1.786 -1.5248 -2.3049 -0.7340
22181SOL     OW69819   6.548   4.823   8.759 -0.6077 -0.1414 -0.1654
22181SOL    HW169820   6.605   4.758   8.717 -0.1921  0.4297 -0.5124
22181SOL    HW269821   6.504   4.775   8.829 -0.8847 -0.9816 -0.8976
22182SOL     OW69822   3.421   7.643   8.671  0.3649 -0.2132  0.1004
22182SOL    HW169823   3.443   7.580   8.603 -1.3235 -0.0338 -0.6628
22182SOL    HW269824   3.336   7.614   8.704 -0.0566  1.1819  0.3097
22183SOL     OW69825   9.531   8.575   2.253  0.6276 -1.1867  0.2291
22183SOL    HW169826   9.456   8.541   2.203 -0.0387 -0.6235  0.8157
22183SOL    HW269827   9.598   8.593   2.187 -0.3696 -0.0853 -0.5275
22184SOL     OW69828   0.265   1.217   0.990  0.3580 -0.4335  0.4136
22184SOL    HW169829   0.224   1.303   1.005  0.0850 -0.7030  1.2343
22184SOL    HW269830   0.342   1.217   1.046  1.4926  0.0461 -1.0802
22185SOL     OW69831   8.594   1.237   9.499 -0.8342  0.1163 -0.7123
22185SOL    HW169832   8.549   1.222   9.416 -0.0506  0.7842 -1.2662
22185SOL    HW269833   8.678   1.276   9.475  1.4772 -3.7847  0.0691
22186SOL     OW69834   4.986   4.832   8.604 -0.1873 -0.5445  0.4896
22186SOL    HW169835   5.032   4.817   8.687  2.1340  2.1421 -0.1794
22186SOL    HW269836   5.003   4.753   8.553  0.1632 -1.3250  1.7736
22187SOL     OW69837   6.151   6.165   5.979 -0.0463 -0.5557 -0.3554
22187SOL    HW169838   6.056   6.176   5.975 -0.0147  0.5594  1.2635
22187SOL    HW269839   6.170   6.099   5.911 -2.0307 -1.2718 -0.2842
22188SOL     OW69840   6.619   0.930   5.248 -0.8974  0.3252 -1.1609
22188SOL    HW169841   6.704   0.922   5.207  0.7683 -0.3314  2.1087
22188SOL    HW269842   6.579   0.843   5.240  1.6137 -1.4742  2.6832
22189SOL     OW69843  10.737   1.941   3.268 -0.0552 -0.1668  0.3194
22189SOL    HW169844  10.683   1.956   3.191  1.4633 -2.7468 -1.3734
22189SOL    HW269845  10.827   1.941   3.235  0.7234 -0.4144  2.2815
22190SOL     OW69846   2.843   6.920   1.473 -0.2999 -0.0828 -0.3035
22190SOL    HW169847   2.819   6.875   1.555 -0.1154 -0.4208 -0.4324
22190SOL    HW269848   2.809   7.009   1.484  0.4780  0.1257  0.4944
22191SOL     OW69849  11.100  10.593  10.007  1.3214  0.0808 -0.2404
22191SOL    HW169850  11.044  10.622   9.935 -0.3321 -3.2420 -0.5230
22191SOL    HW269851  11.081  10.654  10.078 -0.8240  0.5727 -1.1384
22192SOL     OW69852   3.161   7.916   4.721 -0.3174  0.5779  0.0464
22192SOL    HW169853   3.234   7.952   4.671  1.1567  0.4350  1.9622
22192SOL    HW269854   3.103   7.877   4.655  1.8793 -0.2749 -1.4854
22193SOL     OW69855   5.527   6.033   4.031 -0.3418 -0.1107 -0.2939
22193SOL    HW169856   5.470   6.110   4.041 -1.9388 -1.3128  0.3605
22193SOL    HW269857   5.499   5.993   3.949  1.2392  0.5455 -1.2057
22194SOL     OW69858   5.942   0.728   7.330 -0.0564 -0.3964 -0.4010
22194SOL    HW169859   5.915   0.745   7.239  2.9535 -1.1433 -1.5690
22194SOL    HW269860   5.984   0.809   7.358  2.6580 -1.3801 -1.2693
22195SOL     OW69861   3.054   5.098   4.954  0.3840  0.4645 -0.1750
22195SOL    HW169862   3.123   5.157   4.923 -1.2113  2.5624  0.0306
22195SOL    HW269863   3.015   5.145   5.028  1.4604 -2.5757  2.5434
22196SOL     OW69864  11.026   3.239   2.946 -0.2559  0.6387  0.3219
22196SOL    HW169865  11.074   3.230   2.863  0.3102  0.9048  0.6137
22196SOL    HW269866  11.076   3.186   3.008  1.6284  3.4309  1.4403
22197SOL     OW69867   5.174   2.845   7.437 -0.0865 -0.3965  0.2439
22197SOL    HW169868   5.162   2.821   7.345  0.4582  2.3450 -0.6240
22197SOL    HW269869   5.254   2.799   7.464  0.5276 -0.1335 -1.0805
22198SOL     OW69870   7.220   3.341   8.356  0.2620  0.1957 -0.2739
22198SOL    HW169871   7.230   3.248   8.335  0.1286  0.3877 -1.1881
22198SOL    HW269872   7.146   3.343   8.418  0.1337 -0.2821 -0.4053
22199SOL     OW69873   5.996  11.287   1.945  0.4931  0.2177 -0.2576
22199SOL    HW169874   6.054  11.211   1.949 -0.7692 -0.8319 -0.9315
22199SOL    HW269875   5.908  11.249   1.941 -0.1274  1.6837 -1.3964
22200SOL     OW69876   5.853   6.815   7.292  0.3595 -0.1839  0.4342
22200SOL    HW169877   5.947   6.835   7.297  0.5041  0.3714 -2.6427
22200SOL    HW269878   5.848   6.720   7.304  1.2678 -0.1654  1.0354
22201SOL     OW69879   3.132   3.982   9.337  0.2871 -0.2122 -0.0815
22201SOL    HW169880   3.100   3.928   9.409 -0.6525 -0.2914 -0.5437
22201SOL    HW269881   3.174   4.057   9.380 -1.2119  0.2897  0.5570
22202SOL     OW69882   6.102   7.972  10.325  0.3618  0.4004  0.7517
22202SOL    HW169883   6.079   8.044  10.267 -0.5016 -0.4338  0.0395
22202SOL    HW269884   6.162   7.918  10.274  1.0652  0.6329  1.3096
22203SOL     OW69885  10.584   0.491   6.841  0.3227  0.2682 -0.3432
22203SOL    HW169886  10.575   0.419   6.902 -0.2670  0.4190 -0.2472
22203SOL    HW269887  10.522   0.557   6.872 -1.0477 -0.2080 -1.8939
22204SOL     OW69888   3.107   7.382   4.557  0.4344  0.0414  0.0106
22204SOL    HW169889   3.150   7.297   4.567 -1.5826 -1.3014 -1.5536
22204SOL    HW269890   3.141   7.416   4.474 -0.6631 -0.5768 -0.7382
22205SOL     OW69891  10.633   2.423   9.090  0.2978  0.0746 -0.3715
22205SOL    HW169892  10.652   2.418   8.996  2.8496 -1.6085  0.1295
22205SOL    HW269893  10.716   2.445   9.130 -0.3463 -0.8808  1.6255
22206SOL     OW69894   9.195   3.784   5.109 -0.2333  0.1329 -0.0956
22206SOL    HW169895   9.275   3.733   5.115 -0.9167 -1.2526 -1.7087
22206SOL    HW269896   9.160   3.787   5.198  1.4062  0.4825  0.5577
22207SOL     OW69897   0.424   0.477   2.583 -0.7897 -0.4804 -0.1755
22207SOL    HW169898   0.428   0.571   2.565  1.7068 -0.3396  0.6769
22207SOL    HW269899   0.507   0.457   2.627 -2.7829 -2.3606  3.2693
22208SOL     OW69900   3.142   2.720   7.291 -0.2310  0.1884  0.4750
22208SOL    HW169901   3.175   2.718   7.201 -0.1742  0.1305  0.4975
22208SOL    HW269902   3.187   2.649   7.335  1.7678  1.8540  1.2511
22209SOL     OW69903   9.248  10.272  10.153 -0.5759 -0.1220 -0.1663
22209SOL    HW169904   9.259  10.227  10.069 -1.4276  0.9736 -0.8966
22209SOL    HW269905   9.225  10.362  10.129 -1.9062 -0.0455  1.2145
22210SOL     OW69906   3.200   9.929   0.943  0.1516  0.1634  0.2814
22210SOL    HW169907   3.140   9.984   0.893  0.3291  0.4719  0.4082
22210SOL    HW269908   3.146   9.895   1.016 -0.6292 -1.7789 -1.1145
22211SOL     OW69909   2.239   7.271   6.480 -0.3758 -0.6957 -0.3284
22211SOL    HW169910   2.256   7.273   6.386 -0.5080  1.6252 -0.3507
22211SOL    HW269911   2.308   7.325   6.518 -0.3390 -1.5912  0.9354
22212SOL     OW69912   2.485   0.117   0.842 -0.5933 -0.1121  0.2648
22212SOL    HW169913   2.488   0.188   0.905  2.1854  0.9002 -0.8225
22212SOL    HW269914   2.556   0.058   0.869  0.1478 -0.0522 -1.3785
22213SOL     OW69915   0.992  11.393  11.059 -0.1993 -0.1248 -0.4274
22213SOL    HW169916   1.083  11.420  11.072 -0.5844  0.9160  0.2679
22213SOL    HW269917   0.986  11.372  10.966  0.2687  1.7743 -0.9172
22214SOL     OW69918   8.390   1.747   4.303  0.0020  0.3404 -0.6635
22214SOL    HW169919   8.362   1.761   4.394  0.1290 -2.4238 -0.1137
22214SOL    HW269920   8.308   1.732   4.255  0.0595 -0.5241 -0.5084
22215SOL     OW69921  10.742   9.419   1.993  0.3640  0.0272  0.1259
22215SOL    HW169922  10.762   9.352   1.927  0.5908 -1.2162  1.4094
22215SOL    HW269923  10.650   9.442   1.977 -0.1148 -1.5512  0.4545
22216SOL     OW69924   8.182  11.339   9.471 -0.0246 -0.0573  0.1656
22216SOL    HW169925   8.171  11.248   9.498 -0.9536  0.0682  0.2318
22216SOL    HW269926   8.094  11.376   9.473  0.1224  0.4504 -1.2612
22217SOL     OW69927   1.752  10.285   0.282 -0.2021  0.6052  0.1546
22217SOL    HW169928   1.666  10.290   0.324 -0.0898 -0.9699  0.6452
22217SOL    HW269929   1.774  10.375   0.260 -2.0367  1.0100 -0.1012
22218SOL     OW69930   7.357  11.286   4.836  0.2037  0.0141 -0.0937
22218SOL    HW169931   7.313  11.328   4.911 -0.1321 -0.3641 -0.0778
22218SOL    HW269932   7.315  11.324   4.759  0.3284  0.1636 -0.0900
22219SOL     OW69933  10.242  10.239   1.414 -0.2193 -0.4692  0.3961
22219SOL    HW169934  10.188  10.217   1.338 -2.6463  1.7737  1.3199
22219SOL    HW269935  10.203  10.189   1.486  1.3941 -1.7501  0.4410
22220SOL     OW69936   6.171   6.748   5.013  0.1317  0.0711 -0.1433
22220SOL    HW169937   6.200   6.689   5.083  0.0330 -0.5200 -0.5898
22220SOL    HW269938   6.075   6.745   5.018  0.1065  1.5952  0.9773
22221SOL     OW69939   8.776  10.026   4.272 -0.1738  0.4384  0.8692
22221SOL    HW169940   8.724   9.976   4.209  2.3685 -1.0591 -0.2166
22221SOL    HW269941   8.816  10.096   4.220  2.7599 -1.4087  0.3853
22222SOL     OW69942   6.743   3.258   0.517 -0.2129  0.1432  0.1355
22222SOL    HW169943   6.701   3.325   0.571 -1.8290  1.7451 -2.8335
22222SOL    HW269944   6.810   3.306   0.467 -0.8748 -0.5373 -1.4807
22223SOL     OW69945   9.322   7.728   9.435 -0.2118 -0.2048 -0.1348
22223SOL    HW169946   9.371   7.796   9.390  3.0350 -1.5637  1.0379
22223SOL    HW269947   9.263   7.775   9.493  0.4558  1.5683 -0.8395
22224SOL     OW69948   0.450  11.331   0.161  0.1847  0.2271  0.0351
22224SOL    HW169949   0.437  11.324   0.066 -0.2914 -0.1334  0.1205
22224SOL    HW269950   0.430  11.422   0.182 -0.7837  0.0508 -0.0605
22225SOL     OW69951   5.946   5.601   6.583  0.4052 -0.5581  0.3885
22225SOL    HW169952   5.990   5.684   6.601 -1.8701  1.1305 -1.2372
22225SOL    HW269953   5.998   5.560   6.514  0.6740  0.3034  0.0681
22226SOL     OW69954   6.806   2.379   3.848 -0.5501  0.0802 -0.6361
22226SOL    HW169955   6.832   2.414   3.763 -1.2155  0.2382 -0.7852
22226SOL    HW269956   6.748   2.446   3.885 -1.7036 -0.7696 -0.8501
22227SOL     OW69957   8.824   8.141   9.133 -0.8683  0.2161 -0.2525
22227SOL    HW169958   8.809   8.054   9.096  0.0873 -0.0779  0.0299
22227SOL    HW269959   8.774   8.141   9.215  1.2498 -1.0758  1.1280
22228SOL     OW69960   0.809   4.311   7.196 -0.3737  0.0499  0.3749
22228SOL    HW169961   0.739   4.373   7.217 -0.4435  0.2941 -0.5365
22228SOL    HW269962   0.837   4.276   7.280  0.4327  2.1485  1.0409
22229SOL     OW69963   2.730   0.123   3.199 -0.1600  0.3558  0.4625
22229SOL    HW169964   2.791   0.183   3.241 -0.2872 -0.0088  1.1776
22229SOL    HW269965   2.643   0.159   3.220 -0.2111  0.8267 -0.4792
22230SOL     OW69966   1.379   0.048  10.571  0.0510  0.0481  0.0378
22230SOL    HW169967   1.468   0.026  10.598  0.4768  1.7965  0.2088
22230SOL    HW269968   1.379   0.041  10.476  0.3182 -0.0913  0.0485
22231SOL     OW69969   0.525   5.987   7.238  0.0771  0.4848  0.3999
22231SOL    HW169970   0.488   5.901   7.218 -0.0856  0.9354 -1.3937
22231SOL    HW269971   0.497   6.004   7.329 -2.5290 -0.0426 -0.2080
22232SOL     OW69972   6.589   6.607   0.908 -0.4243 -0.1866  0.3610
22232SOL    HW169973   6.626   6.607   0.995 -1.3215  0.4992  0.7603
22232SOL    HW269974   6.661   6.580   0.851  0.7719  1.3625  1.0524
22233SOL     OW69975   5.102   4.099   9.183 -0.2787 -0.0703  0.4696
22233SOL    HW169976   5.086   4.191   9.204  1.3210 -0.2759  2.9953
22233SOL    HW269977   5.022   4.070   9.139 -1.4882  2.0804  1.1030
22234SOL     OW69978   9.656  11.161   0.307 -0.4881  0.3316  0.5415
22234SOL    HW169979   9.703  11.114   0.238  0.7457  3.9818 -1.3594
22234SOL    HW269980   9.564  11.155   0.281 -0.2919 -0.4181 -0.0182
22235SOL     OW69981   0.054   7.709   5.793  0.0455 -0.4269 -0.4704
22235SOL    HW169982   0.070   7.753   5.709  0.4515 -0.2759 -0.3183
22235SOL    HW269983   0.134   7.659   5.809 -0.5486 -1.4942 -0.8037
22236SOL     OW69984   2.118   2.782  10.844 -0.5288 -0.2100 -0.2813
22236SOL    HW169985   2.119   2.700  10.794  0.4379 -1.6325  1.8750
22236SOL    HW269986   2.042   2.773  10.902  0.5059 -0.3928  1.1083
22237SOL     OW69987   1.531   0.508   9.832  1.0749  0.4906 -0.3519
22237SOL    HW169988   1.455   0.545   9.787  1.1022  1.2969  0.2475
22237SOL    HW269989   1.584   0.469   9.762  0.8488  1.2472 -0.9560
22238SOL     OW69990  11.185   8.305   9.328  0.0708  0.1244  0.6742
22238SOL    HW169991  11.093   8.312   9.352  0.3465 -2.3609  2.9071
22238SOL    HW269992  11.231   8.358   9.394  0.3271 -0.0469  0.6359
22239SOL     OW69993   7.705   7.558   3.672  0.2561 -0.0660  0.0452
22239SOL    HW169994   7.761   7.633   3.691 -0.6723  0.5630  0.3946
22239SOL    HW269995   7.712   7.546   3.578 -1.3231  1.9406 -0.3994
22240SOL     OW69996   8.652  11.182   5.451  0.5510  0.2775 -0.1726
22240SOL    HW169997   8.628  11.262   5.405  0.9867 -0.6556 -2.1479
22240SOL    HW269998   8.724  11.146   5.400  1.4376 -0.5864  1.5829
22241SOL     OW69999   0.422   0.192   9.628  0.3810 -0.2913 -0.1697
22241SOL    HW170000   0.361   0.258   9.661  0.7264  1.0096 -2.0242
22241SOL    HW270001   0.429   0.210   9.534  1.2014 -2.4023 -0.5783
22242SOL     OW70002   9.129   1.559  10.008  0.2018 -0.1544 -0.3956
22242SOL    HW170003   9.127   1.614   9.930 -1.8958  0.0428 -0.2522
22242SOL    HW270004   9.222   1.546  10.026  0.7619  2.4099 -1.0842
22243SOL     OW70005   6.267   7.111   8.169  0.0940  0.0847  0.2675
22243SOL    HW170006   6.216   7.030   8.170 -0.0688  0.1840  0.1267
22243SOL    HW270007   6.337   7.096   8.233 -0.1266 -0.0415  0.4820
22244SOL     OW70008   0.319   9.725   0.799 -0.2876 -0.7222 -0.2987
22244SOL    HW170009   0.353   9.747   0.712 -1.8076  0.3272 -0.6760
22244SOL    HW270010   0.381   9.766   0.860 -0.2156  0.1455 -0.9338
22245SOL     OW70011   6.709   0.419   8.490  0.8502 -0.2210 -0.1678
22245SOL    HW170012   6.640   0.355   8.469  1.2482 -0.5920 -0.3584
22245SOL    HW270013   6.663   0.503   8.493  0.3093 -0.5222  0.1595
22246SOL     OW70014   6.426   2.869  10.850 -0.3347 -0.7200  0.2153
22246SOL    HW170015   6.348   2.814  10.844 -1.5263  0.9233 -0.4485
22246SOL    HW270016   6.393   2.957  10.831  1.8166 -0.0749 -0.7739
22247SOL     OW70017   9.061   8.917  10.780 -0.4052  0.5115  0.0584
22247SOL    HW170018   9.007   8.922  10.701 -0.7606 -0.9169  0.1933
22247SOL    HW270019   9.040   8.998  10.828 -1.8406  0.3626 -0.2685
22248SOL     OW70020   3.812   0.058  10.166  0.3699 -0.2841  0.0337
22248SOL    HW170021   3.773   0.131  10.215 -0.4412 -0.4061 -0.4191
22248SOL    HW270022   3.754   0.046  10.091  1.2823 -0.4755 -0.6574
22249SOL     OW70023   6.915   6.224   4.990  0.2007 -0.4956 -0.0381
22249SOL    HW170024   6.894   6.130   4.995  0.1806 -0.4366  1.8914
22249SOL    HW270025   6.842   6.262   4.941  0.1215 -1.4577 -0.7024
22250SOL     OW70026   7.518   8.867   9.281 -0.1398 -0.2119  0.6195
22250SOL    HW170027   7.489   8.783   9.315 -2.9151  0.4768  0.2073
22250SOL    HW270028   7.482   8.871   9.192  1.0328  0.8941  0.1571
22251SOL     OW70029  10.240   2.314   1.807 -0.4641  0.0563  0.1601
22251SOL    HW170030  10.151   2.331   1.775 -0.6462 -0.8980  0.1327
22251SOL    HW270031  10.226   2.262   1.887  0.0993 -1.6181 -0.7918
22252SOL     OW70032   3.933   6.033   4.398  0.3107  0.3592 -0.7716
22252SOL    HW170033   3.862   6.059   4.339 -0.3276 -0.9375 -0.6072
22252SOL    HW270034   3.917   5.941   4.416  1.2456  0.4008  0.4029
22253SOL     OW70035   8.981   2.659   3.000  0.3863 -0.0419 -0.1631
22253SOL    HW170036   9.023   2.739   2.967 -1.0840  0.8821  0.1359
22253SOL    HW270037   9.043   2.589   2.977  1.1754  1.0261 -1.4782
22254SOL     OW70038   0.903   1.643   9.544 -0.3070 -0.1902  0.5332
22254SOL    HW170039   0.923   1.736   9.548  0.0411 -0.2793  0.9198
22254SOL    HW270040   0.841   1.628   9.615  2.4885 -0.9379  3.0032
22255SOL     OW70041   8.680   4.325   5.014 -0.0860 -0.2218  0.0429
22255SOL    HW170042   8.602   4.378   4.995 -0.0036  0.5501  1.6804
22255SOL    HW270043   8.745   4.356   4.951 -0.5364  0.4644 -0.1066
22256SOL     OW70044   5.327   4.221   4.032  0.2873  0.0458  0.3260
22256SOL    HW170045   5.341   4.308   3.995 -1.8031  0.0559 -0.6034
22256SOL    HW270046   5.295   4.168   3.959 -0.0496 -1.0406  1.2237
22257SOL     OW70047   6.581   7.161   2.345 -0.1564 -0.2761  0.2940
22257SOL    HW170048   6.636   7.218   2.399  1.1878 -0.4522 -0.8400
22257SOL    HW270049   6.517   7.126   2.406 -0.0374  1.2047  1.3392
22258SOL     OW70050   8.632   5.120   4.442 -0.7521 -0.3168 -0.5040
22258SOL    HW170051   8.652   5.042   4.494 -1.4669 -0.7513 -0.8536
22258SOL    HW270052   8.687   5.189   4.479 -1.6255 -0.4697  1.1992
22259SOL     OW70053   3.691   1.367   4.064  0.3888 -0.5905  0.5134
22259SOL    HW170054   3.755   1.360   3.994 -1.0233 -1.0642 -0.7815
22259SOL    HW270055   3.733   1.424   4.129  2.2668 -1.2337 -0.0678
22260SOL     OW70056   4.949   8.216   1.171 -0.2091  0.3423  0.2817
22260SOL    HW170057   4.876   8.275   1.186  1.2574  2.4670 -0.3997
22260SOL    HW270058   4.949   8.201   1.077 -0.3249 -0.4475  0.3997
22261SOL     OW70059   8.689   7.829   1.962 -0.3541 -0.2403 -0.3491
22261SOL    HW170060   8.769   7.851   2.009  0.6321  0.1062 -2.0807
22261SOL    HW270061   8.656   7.914   1.930 -1.8561 -0.2858  0.9579
22262SOL     OW70062   3.376   6.327   8.136 -0.4277 -0.4532 -0.3259
22262SOL    HW170063   3.347   6.237   8.118 -0.4613 -0.3389 -0.8727
22262SOL    HW270064   3.323   6.381   8.077  1.1928 -0.2836 -1.6907
22263SOL     OW70065   3.309   9.694   7.324  0.4184  0.2589 -0.0518
22263SOL    HW170066   3.275   9.663   7.407  2.7203 -0.2289  0.7913
22263SOL    HW270067   3.287   9.624   7.262  0.4893 -0.3610  0.6046
22264SOL     OW70068   7.795   9.534   1.513 -0.0832 -0.5663 -0.6626
22264SOL    HW170069   7.722   9.546   1.453  0.7478  2.8501 -1.1593
22264SOL    HW270070   7.861   9.486   1.462 -0.0904  0.7096 -1.9305
22265SOL     OW70071   9.759   8.522   1.232 -0.7164  0.6695 -0.2504
22265SOL    HW170072   9.840   8.473   1.222  0.4539  2.1037  1.5869
22265SOL    HW270073   9.705   8.468   1.290 -0.0684  0.8191  0.5027
22266SOL     OW70074  11.376   8.005   2.886  0.0938 -0.0617 -0.2689
22266SOL    HW170075  11.302   8.026   2.943 -1.1346  0.4682 -1.9910
22266SOL    HW270076  11.377   7.909   2.881 -0.5765 -0.0652 -0.3572
22267SOL     OW70077  10.864  10.366   3.740 -0.3634 -0.1407  0.1811
22267SOL    HW170078  10.931  10.315   3.787 -1.2933  1.0129  3.0157
22267SOL    HW270079  10.902  10.454   3.733 -0.2653 -0.2836 -1.2759
22268SOL     OW70080   2.110   3.087   1.512  0.4005 -0.3381  0.1677
22268SOL    HW170081   2.164   3.039   1.575  1.8749 -1.5492 -1.9158
22268SOL    HW270082   2.156   3.170   1.500  0.7990 -0.6081 -0.2049
22269SOL     OW70083   3.852   7.762   3.509  0.2570 -0.0064 -0.2408
22269SOL    HW170084   3.803   7.773   3.591 -0.9245  0.3118 -0.9627
22269SOL    HW270085   3.826   7.675   3.477  0.2468  0.1146 -0.5687
22270SOL     OW70086   5.248   7.380   4.349  0.3359  0.0788 -0.2598
22270SOL    HW170087   5.241   7.292   4.312  0.9270 -0.0539 -0.0675
22270SOL    HW270088   5.341   7.391   4.366  0.2696  0.7646 -0.3296
22271SOL     OW70089   1.672  10.297   3.967  0.3552 -0.5516 -0.6513
22271SOL    HW170090   1.656  10.204   3.984 -1.1111 -0.3540 -0.8086
22271SOL    HW270091   1.585  10.338   3.973  0.9894  0.8345 -0.4393
22272SOL     OW70092   1.462   9.735   2.832  0.4389  0.0011  0.3643
22272SOL    HW170093   1.544   9.701   2.866  2.0304  1.5379 -1.6895
22272SOL    HW270094   1.483   9.823   2.799 -2.4317  1.2023  1.3499
22273SOL     OW70095   8.645   4.882   1.277 -0.0854  0.2248 -0.0584
22273SOL    HW170096   8.583   4.946   1.311 -1.0918 -0.4760 -0.5046
22273SOL    HW270097   8.688   4.926   1.204 -0.3996  0.5681 -0.0385
22274SOL     OW70098   9.603   8.365   8.472  0.3575 -0.4709  0.0905
22274SOL    HW170099   9.692   8.344   8.501  0.6786  1.6936  0.8338
22274SOL    HW270100   9.568   8.421   8.541 -0.1997  1.7856 -1.8967
22275SOL     OW70101   3.806   4.473   0.962  0.6446 -0.0147  0.3052
22275SOL    HW170102   3.857   4.437   0.890 -1.6923  0.5833 -1.7680
22275SOL    HW270103   3.730   4.415   0.970 -0.5103  1.4355  0.4045
22276SOL     OW70104  10.774   2.999   7.424  0.3684  0.0550 -0.2103
22276SOL    HW170105  10.798   2.952   7.345  1.7364  0.7828 -0.2526
22276SOL    HW270106  10.849   3.055   7.443  0.0507 -0.0789  1.5888
22277SOL     OW70107   4.617   5.690   6.694  0.1925 -0.1778 -0.1255
22277SOL    HW170108   4.665   5.663   6.616 -0.9349 -0.4932 -0.7220
22277SOL    HW270109   4.598   5.783   6.680 -0.7739 -0.4431 -0.6481
22278SOL     OW70110  11.229   6.697   4.313 -0.1090 -0.3797  0.5902
22278SOL    HW170111  11.290   6.760   4.275 -0.7533  0.7205  1.3540
22278SOL    HW270112  11.285   6.635   4.361  0.5219 -0.4052 -0.1606
22279SOL     OW70113   9.762   0.940   9.639  0.0258  0.1083  0.1729
22279SOL    HW170114   9.830   0.947   9.707  0.9271 -0.1497 -0.6802
22279SOL    HW270115   9.681   0.923   9.688  0.7027 -0.3695  1.1678
22280SOL     OW70116   0.061   3.653   0.602 -0.3511 -0.1166 -0.6234
22280SOL    HW170117   0.069   3.714   0.676  0.2141 -1.0943  0.1359
22280SOL    HW270118  -0.008   3.592   0.630  2.2772 -2.6759  0.7292
22281SOL     OW70119   8.425   0.923   7.607 -0.1481  0.0539 -0.1721
22281SOL    HW170120   8.403   0.862   7.537  0.3122  0.1335 -0.3941
22281SOL    HW270121   8.457   0.867   7.678  0.7438  0.0591 -0.5573
22282SOL     OW70122   2.473   0.854   2.190 -0.3705 -0.1269 -0.0954
22282SOL    HW170123   2.543   0.914   2.167 -0.8843  1.6923  2.6301
22282SOL    HW270124   2.392   0.903   2.173 -0.9841 -1.4551 -1.2749
22283SOL     OW70125   4.708   5.856   3.557  0.1372 -0.5008 -0.2115
22283SOL    HW170126   4.799   5.876   3.577 -0.1230  0.4638  0.0473
22283SOL    HW270127   4.694   5.767   3.590  0.4931  0.0045  1.3527
22284SOL     OW70128   7.840   7.401   1.131  0.4104  0.4774 -0.4227
22284SOL    HW170129   7.845   7.306   1.122  0.9027  0.4590 -0.0208
22284SOL    HW270130   7.928   7.427   1.160  0.2992  1.0623 -0.5950
22285SOL     OW70131   3.892   1.088   6.835  0.0978  0.0571 -0.5986
22285SOL    HW170132   3.836   1.161   6.860  0.9303  0.7498 -0.6857
22285SOL    HW270133   3.981   1.124   6.841  0.5329 -1.0203 -0.4140
22286SOL     OW70134   8.003   0.505   0.683 -0.8349  0.4617  0.0918
22286SOL    HW170135   8.045   0.510   0.597 -2.1237  0.7100 -0.5342
22286SOL    HW270136   8.071   0.534   0.744  0.4742 -0.8230 -0.6954
22287SOL     OW70137   5.415   9.306   1.534  0.1766 -0.4188 -0.2008
22287SOL    HW170138   5.363   9.226   1.542  1.1463 -0.8980  2.0631
22287SOL    HW270139   5.434   9.313   1.440 -3.3267 -0.5664 -1.0424
22288SOL     OW70140   6.935   2.079   6.033 -0.3121  0.2304  0.1938
22288SOL    HW170141   6.931   2.171   6.005 -0.5451 -0.0470 -0.7132
22288SOL    HW270142   7.009   2.076   6.094 -1.1008  1.2838  1.2636
22289SOL     OW70143   8.715  10.756  11.137 -0.3420 -0.1829  0.5427
22289SOL    HW170144   8.693  10.847  11.160  1.4573  0.6632 -0.8488
22289SOL    HW270145   8.737  10.715  11.221  0.0231  1.0196  1.0643
22290SOL     OW70146   0.613   2.449   8.803 -0.0160  0.2727 -0.2376
22290SOL    HW170147   0.521   2.464   8.778 -0.5078 -1.0315  0.6842
22290SOL    HW270148   0.652   2.536   8.802 -1.3374  0.8898 -0.3861
22291SOL     OW70149   2.027   3.551   9.216 -0.1761 -0.4224  0.2723
22291SOL    HW170150   1.952   3.502   9.182 -0.7151  1.0093 -0.7356
22291SOL    HW270151   1.994   3.593   9.295 -0.9415  1.2942 -0.8786
22292SOL     OW70152   3.608   1.265   4.338  1.2158 -0.5073 -0.5597
22292SOL    HW170153   3.628   1.285   4.247  1.4329 -1.0515 -0.6370
22292SOL    HW270154   3.692   1.241   4.377  1.4216  1.3090  0.2252
22293SOL     OW70155   0.243   6.364  10.824 -0.0944 -0.0348 -0.2615
22293SOL    HW170156   0.322   6.412  10.800 -0.2899  0.7621  0.6421
22293SOL    HW270157   0.183   6.431  10.859 -0.9498 -0.7096 -0.3880
22294SOL     OW70158   9.843  11.051   6.982  0.0573  0.4325  0.0053
22294SOL    HW170159   9.932  11.085   6.992  0.9262 -1.3835 -0.9996
22294SOL    HW270160   9.787  11.127   6.993  1.5976  1.3363  2.4817
22295SOL     OW70161   0.591   4.632  10.114 -0.4697  0.7028  0.1062
22295SOL    HW170162   0.551   4.633  10.027  1.4006 -0.3138 -0.8479
22295SOL    HW270163   0.685   4.625  10.096 -0.1053 -0.5856  2.2195
22296SOL     OW70164   5.431   8.606   7.581  0.1613  0.6070  0.2224
22296SOL    HW170165   5.352   8.612   7.528  0.8700 -1.1980 -1.1543
22296SOL    HW270166   5.402   8.573   7.666 -0.8399  2.3631  0.6040
22297SOL     OW70167  11.203   7.609   8.105 -0.0997  0.0706 -0.3585
22297SOL    HW170168  11.159   7.694   8.109  1.2069  0.7814 -0.6269
22297SOL    HW270169  11.276   7.623   8.045 -0.1113 -1.3708 -0.7266
22298SOL     OW70170   4.514   7.690   6.847  0.2163 -0.4093  0.0607
22298SOL    HW170171   4.483   7.777   6.819  1.1545 -0.1851 -0.3143
22298SOL    HW270172   4.480   7.680   6.935 -2.6518 -1.0275 -1.0041
22299SOL     OW70173   7.279   3.641   5.243  0.3696 -0.0111 -0.1213
22299SOL    HW170174   7.262   3.576   5.311 -1.3017  0.6275  0.1145
22299SOL    HW270175   7.364   3.679   5.266  0.1931 -0.3525  1.1591
22300SOL     OW70176   3.765   3.114  10.391  0.4332  0.0912 -0.2460
22300SOL    HW170177   3.845   3.095  10.342  1.9017 -1.4555  2.5347
22300SOL    HW270178   3.783   3.196  10.436 -0.1314  0.4578 -0.6658
22301SOL     OW70179   8.423   4.023   5.206 -0.3353  0.2727 -0.3161
22301SOL    HW170180   8.441   4.054   5.294 -1.4482  0.1827 -0.0428
22301SOL    HW270181   8.505   3.982   5.178  0.0725  0.4238  0.6188
22302SOL     OW70182   2.931  10.560   2.878  0.1513  0.1361  0.4221
22302SOL    HW170183   2.836  10.550   2.879  0.1950 -0.2912  1.7921
22302SOL    HW270184   2.945  10.653   2.862 -0.4471 -0.0464 -1.4016
22303SOL     OW70185   9.266  10.944   7.581 -0.6226  0.1301 -0.0414
22303SOL    HW170186   9.290  10.952   7.674  0.9209 -0.7407 -0.3279
22303SOL    HW270187   9.326  10.878   7.547 -1.6753 -0.1209 -1.5018
22304SOL     OW70188   9.798   2.113   4.887  0.6794  0.0031 -0.1583
22304SOL    HW170189   9.878   2.119   4.940  0.9015  1.1925 -0.5970
22304SOL    HW270190   9.828   2.123   4.797 -0.1262  2.9376 -0.2277
22305SOL     OW70191   3.047  10.101   0.790  0.3449  0.1592  0.0148
22305SOL    HW170192   2.954  10.099   0.812  0.3976 -1.5925  0.2351
22305SOL    HW270193   3.049  10.123   0.696 -0.3315 -0.3446 -0.1220
22306SOL     OW70194   2.316  10.855   5.110 -0.2959 -0.1137 -0.2824
22306SOL    HW170195   2.321  10.857   5.205  0.4631  0.6820 -0.3220
22306SOL    HW270196   2.387  10.912   5.081 -0.2459 -0.6804 -1.3370
22307SOL     OW70197   7.811  10.277   6.649 -0.5610 -0.0383  0.6888
22307SOL    HW170198   7.740  10.289   6.586  0.1872 -0.9061 -0.3546
22307SOL    HW270199   7.844  10.189   6.631 -0.1319 -0.1859  2.1059
22308SOL     OW70200  10.494  11.161   8.622 -0.3347 -0.0491 -0.7501
22308SOL    HW170201  10.445  11.242   8.636 -1.3534 -0.6598 -0.7155
22308SOL    HW270202  10.586  11.188   8.629 -0.6639  0.9690 -0.0114
22309SOL     OW70203   2.857  10.487  10.708 -0.4675 -0.6156 -0.6055
22309SOL    HW170204   2.886  10.542  10.636 -1.0295 -0.6390 -0.8557
22309SOL    HW270205   2.788  10.537  10.751  0.8469  0.0410  0.8321
22310SOL     OW70206   9.068   7.132   9.673  0.2886 -0.0906 -0.2536
22310SOL    HW170207   8.993   7.080   9.643  0.4650  0.9473 -2.7397
22310SOL    HW270208   9.114   7.075   9.734 -3.0342 -0.4026  2.1956
22311SOL     OW70209   0.262   4.744   5.779  0.1046 -0.1774  0.0750
22311SOL    HW170210   0.263   4.709   5.868 -0.7550 -0.0356  0.1463
22311SOL    HW270211   0.173   4.776   5.766  0.6488  1.2311 -0.2915
22312SOL     OW70212  10.776   7.054   4.393 -0.1815 -0.4001 -0.1570
22312SOL    HW170213  10.787   7.144   4.361  1.2350  0.1367  1.6784
22312SOL    HW270214  10.799   7.058   4.485  2.1831 -3.0773 -0.4960
22313SOL     OW70215   6.035   9.763  11.276  0.2206 -0.5046 -0.6768
22313SOL    HW170216   6.040   9.859  11.286  3.1879 -0.5633 -0.7441
22313SOL    HW270217   5.987   9.750  11.194  0.0894  0.9564 -0.8606
22314SOL     OW70218   6.283   5.161   6.740 -0.1135 -0.2968  0.1652
22314SOL    HW170219   6.193   5.145   6.767  0.2873 -0.6079  1.3824
22314SOL    HW270220   6.324   5.203   6.815  0.6725  0.1547 -0.4970
22315SOL     OW70221   1.190   9.033   2.505  0.2334 -0.4508  0.1563
22315SOL    HW170222   1.270   9.061   2.549  0.0409 -0.0633  0.2612
22315SOL    HW270223   1.143   8.982   2.571  0.3106 -0.5300  0.1500
22316SOL     OW70224   0.139   3.936   8.032  0.0229 -0.0271  0.0776
22316SOL    HW170225   0.049   3.904   8.037  0.4515 -1.1136  2.2603
22316SOL    HW270226   0.192   3.859   8.054  1.3236  1.2318  1.5465
22317SOL     OW70227   7.289   9.346   1.347  0.0110 -0.0527 -0.7919
22317SOL    HW170228   7.356   9.392   1.396 -1.6612  0.2498  1.3490
22317SOL    HW270229   7.329   9.262   1.324  1.7965  0.9427 -1.4523
22318SOL     OW70230   6.025   6.101   9.447 -0.0286 -0.6654 -0.0703
22318SOL    HW170231   6.014   6.108   9.353 -2.3608  0.1411  0.1704
22318SOL    HW270232   5.982   6.018   9.470  0.5036 -0.8465  0.2900
22319SOL     OW70233   8.959   7.500   4.565 -0.1400  0.2559 -0.1337
22319SOL    HW170234   9.015   7.464   4.633 -0.7585 -0.1959  0.1548
22319SOL    HW270235   8.880   7.445   4.568 -0.1321  0.1503 -1.2894
22320SOL     OW70236   6.636   6.536   7.320 -0.2267  0.3366 -0.2317
22320SOL    HW170237   6.575   6.468   7.292 -0.5879  0.0603  1.1984
22320SOL    HW270238   6.598   6.572   7.400  1.0693  0.7186  0.2344
22321SOL     OW70239   3.219   0.643   4.596  0.6954  0.2552 -0.0522
22321SOL    HW170240   3.243   0.607   4.511  0.0212 -0.1635 -0.0701
22321SOL    HW270241   3.282   0.713   4.611  2.4381 -1.3223  0.2796
22322SOL     OW70242   5.882  10.833   5.879  0.2508 -0.3437  0.5290
22322SOL    HW170243   5.890  10.928   5.869  1.5176 -0.6074 -1.3216
22322SOL    HW270244   5.790  10.815   5.858 -0.0606  0.4714  1.1182
22323SOL     OW70245   8.036   9.111  10.002 -0.1393 -0.1805 -0.6640
22323SOL    HW170246   7.954   9.064  10.020 -0.0257 -0.1167  0.0483
22323SOL    HW270247   8.081   9.114  10.086  0.3264  0.3103 -0.9228
22324SOL     OW70248   6.684   7.221   6.074  0.6658 -0.1328  0.1012
22324SOL    HW170249   6.629   7.152   6.112  0.6091 -0.3311 -0.3354
22324SOL    HW270250   6.749   7.239   6.141  0.6988 -0.6352  0.2073
22325SOL     OW70251   3.265   1.952   6.236  0.6878 -0.0044 -0.1408
22325SOL    HW170252   3.213   1.937   6.314 -0.2644  0.8723 -0.5914
22325SOL    HW270253   3.329   2.018   6.262 -0.1029  0.8350 -0.2941
22326SOL     OW70254   7.081   4.079   2.466  0.5997 -0.0201 -0.7063
22326SOL    HW170255   7.060   4.029   2.387  0.4788  0.3471 -0.9114
22326SOL    HW270256   7.148   4.028   2.510 -0.9527 -1.4354  0.1537
22327SOL     OW70257  11.167   4.601   3.740 -0.1261 -0.3352  0.3693
22327SOL    HW170258  11.074   4.611   3.721 -0.3749 -0.0503  1.6181
22327SOL    HW270259  11.173   4.515   3.782  0.4217 -1.0049 -1.0092
22328SOL     OW70260  10.502   3.289   3.406 -0.2480 -0.2272 -0.4949
22328SOL    HW170261  10.481   3.272   3.314 -1.6614 -0.2538 -0.1884
22328SOL    HW270262  10.594   3.263   3.414 -0.3845 -1.1983 -1.6594
22329SOL     OW70263   4.254   7.172   3.832 -0.4070  0.4755 -1.0835
22329SOL    HW170264   4.302   7.131   3.759  0.2741 -0.9063  0.0897
22329SOL    HW270265   4.304   7.147   3.910 -0.7980  2.4144 -0.1745
22330SOL     OW70266   9.294   9.439   7.884  0.0149 -0.3939 -0.2776
22330SOL    HW170267   9.343   9.382   7.825  2.2226  1.3554 -0.2647
22330SOL    HW270268   9.276   9.518   7.832  0.0233  0.2667  0.6958
22331SOL     OW70269   0.377  10.882  10.558 -0.4871 -0.0926  0.2270
22331SOL    HW170270   0.291  10.846  10.534 -0.6210  0.3480  0.0431
22331SOL    HW270271   0.372  10.974  10.533  1.0088 -0.6352 -2.4718
22332SOL     OW70272   6.894   1.637  10.960 -0.1402  0.1380  0.1651
22332SOL    HW170273   6.832   1.611  10.892 -0.1605  1.0684 -0.1931
22332SOL    HW270274   6.960   1.689  10.914  1.2718 -1.3625  0.4429
22333SOL     OW70275   6.977   1.506   4.656 -0.0742 -0.4436 -0.7465
22333SOL    HW170276   7.055   1.464   4.619 -0.1369 -1.4712  0.2436
22333SOL    HW270277   6.935   1.548   4.581  0.6495 -1.1058 -1.5549
22334SOL     OW70278   3.426  10.061   3.146  0.4604 -0.2168 -0.0884
22334SOL    HW170279   3.451  10.148   3.114 -2.7560  1.5051  1.5743
22334SOL    HW270280   3.433  10.069   3.242 -2.6191 -0.7131  0.2739
22335SOL     OW70281   7.070   5.281   3.411 -0.3368  0.0065 -0.3072
22335SOL    HW170282   6.977   5.282   3.388 -0.5008 -0.5857  0.2940
22335SOL    HW270283   7.114   5.250   3.332 -0.8545 -1.6170 -0.0107
22336SOL     OW70284  11.172   9.449   9.180 -0.4045 -0.6328  0.1191
22336SOL    HW170285  11.255   9.458   9.133 -1.6523  0.6462 -2.0014
22336SOL    HW270286  11.189   9.382   9.247  2.5635  0.2577  0.3830
22337SOL     OW70287   9.827   4.364   6.836  0.0964  0.3113  0.3958
22337SOL    HW170288   9.798   4.387   6.747  0.4554  0.0305  0.1994
22337SOL    HW270289   9.752   4.381   6.892  0.7630  3.4166  0.5075
22338SOL     OW70290   9.494   6.566   3.364 -0.4917  0.5076 -0.3389
22338SOL    HW170291   9.456   6.578   3.277 -0.3427  1.3848 -0.2957
22338SOL    HW270292   9.444   6.626   3.420 -1.8809 -1.4396  0.5857
22339SOL     OW70293   3.986   1.843   2.856 -0.0450  0.9025  0.2239
22339SOL    HW170294   3.975   1.826   2.949 -0.5043  2.3781  0.4668
22339SOL    HW270295   3.900   1.829   2.818  0.6572 -2.2353 -0.4798
22340SOL     OW70296   8.068   1.341   7.900 -0.1048  0.1570  1.3029
22340SOL    HW170297   8.113   1.416   7.939 -2.0971  2.0702  0.2214
22340SOL    HW270298   8.015   1.305   7.971 -0.6809  1.1094  1.3880
22341SOL     OW70299   9.676   2.737  10.501  0.1195  0.1821 -0.5895
22341SOL    HW170300   9.585   2.708  10.508 -0.0191  0.6903 -0.1303
22341SOL    HW270301   9.728   2.658  10.515 -0.2451 -0.4116 -2.3612
22342SOL     OW70302   3.816   9.727  11.128 -0.0897  0.6732  0.3867
22342SOL    HW170303   3.746   9.682  11.176 -0.8119  0.5121 -0.7818
22342SOL    HW270304   3.856   9.658  11.075 -0.4183  1.1461 -0.5095
22343SOL     OW70305   7.042  10.275   4.159 -0.1609  0.5579  0.3485
22343SOL    HW170306   7.101  10.287   4.084 -0.7234 -0.5832 -0.3145
22343SOL    HW270307   7.053  10.354   4.211  1.3506  0.7374 -0.1758
22344SOL     OW70308  10.755   5.686   2.661 -0.0431  0.3384  0.0028
22344SOL    HW170309  10.792   5.713   2.576  0.6438  0.0059  0.1881
22344SOL    HW270310  10.825   5.635   2.702 -0.9443 -0.8344  0.1110
22345SOL     OW70311  11.253   9.655   3.661 -0.3548  0.0515 -0.6914
22345SOL    HW170312  11.305   9.603   3.722  0.3103 -0.3001 -1.5359
22345SOL    HW270313  11.233   9.736   3.708 -1.7090 -1.0880  0.7778
22346SOL     OW70314   2.747   3.086   4.467 -0.1309  0.1105  0.3567
22346SOL    HW170315   2.675   3.146   4.485 -0.1760 -0.3657  1.9862
22346SOL    HW270316   2.801   3.131   4.403 -0.4476  1.6624  1.1286
22347SOL     OW70317   9.158   0.830   5.883 -0.3473  0.4234 -0.2063
22347SOL    HW170318   9.170   0.769   5.810  1.9583  0.5219  0.0230
22347SOL    HW270319   9.119   0.778   5.952  2.2299 -1.1033  0.2385
22348SOL     OW70320   0.802   2.438   6.041  0.6012 -0.5860  0.0814
22348SOL    HW170321   0.882   2.490   6.030 -1.0450  2.0228 -0.4154
22348SOL    HW270322   0.761   2.438   5.954 -1.0117  0.0973  0.7978
22349SOL     OW70323   0.103   4.215   5.533 -0.4559 -0.2214 -0.5593
22349SOL    HW170324   0.193   4.212   5.500 -0.7031 -2.7473 -1.2808
22349SOL    HW270325   0.084   4.124   5.556 -2.8299  0.2449 -0.4467
22350SOL     OW70326   9.456   9.065   9.149  0.6056  0.1031 -0.1944
22350SOL    HW170327   9.527   9.045   9.209 -0.5029 -0.8074  0.8789
22350SOL    HW270328   9.499   9.101   9.072  2.1384  0.5057  0.8041
22351SOL     OW70329   9.113   3.631   9.049 -0.5448  0.0135  0.3160
22351SOL    HW170330   9.149   3.567   8.988  1.7756  1.2601  0.2558
22351SOL    HW270331   9.128   3.593   9.136  1.4930  0.6622  0.3226
22352SOL     OW70332   7.431   1.918   4.477 -0.1998 -0.4571  0.4261
22352SOL    HW170333   7.366   1.879   4.535  0.0954  2.5348  3.0599
22352SOL    HW270334   7.394   2.003   4.454  1.8689  0.4782  0.3591
22353SOL     OW70335   6.273   1.808   7.491  0.2752  0.0031  0.1888
22353SOL    HW170336   6.314   1.894   7.501 -0.3553  0.1758  1.3808
22353SOL    HW270337   6.182   1.822   7.517  0.3022 -1.1476  0.9272
22354SOL     OW70338   3.081   2.676   5.832  0.0315  0.2021 -0.5197
22354SOL    HW170339   3.068   2.633   5.917  0.8217  0.4146 -0.2759
22354SOL    HW270340   3.021   2.631   5.773 -1.1024  0.5776  0.3171
22355SOL     OW70341   9.745   3.885   9.942  0.8795  0.1730 -0.6794
22355SOL    HW170342   9.720   3.806   9.990  0.5714  0.8867  0.3654
22355SOL    HW270343   9.693   3.882   9.862  0.7136 -0.5680 -0.5538
22356SOL     OW70344  10.615   7.286   8.348 -0.0040  0.5335  0.4805
22356SOL    HW170345  10.638   7.319   8.434  2.1449  0.7417 -0.1053
22356SOL    HW270346  10.587   7.363   8.299 -0.3153  0.5737  0.7270
22357SOL     OW70347   8.063   0.128   2.570 -0.1754 -0.8637 -0.8489
22357SOL    HW170348   8.132   0.153   2.507 -1.3837  2.6300 -1.0040
22357SOL    HW270349   7.997   0.084   2.516  0.5535 -1.4936 -1.2535
22358SOL     OW70350   4.251   6.827   2.169 -0.6429  0.0361  0.1070
22358SOL    HW170351   4.174   6.824   2.225  0.1316 -0.2111  1.2011
22358SOL    HW270352   4.293   6.742   2.181  0.7022  0.7830  0.8717
22359SOL     OW70353   1.440  10.528   3.437  0.6114 -0.0960  0.2093
22359SOL    HW170354   1.348  10.516   3.415  0.3828  1.6518  0.0622
22359SOL    HW270355   1.478  10.441   3.431 -0.0990 -0.3235 -3.9636
22360SOL     OW70356   3.478   6.568  10.182  0.3200  0.3854 -0.3008
22360SOL    HW170357   3.475   6.615  10.266 -1.7664 -0.8343  0.3848
22360SOL    HW270358   3.516   6.631  10.121 -2.3928  3.1031  0.5169
22361SOL     OW70359   5.380   3.935   9.510 -0.1095  0.0763  0.4364
22361SOL    HW170360   5.462   3.944   9.461 -0.1675  0.1531  0.3538
22361SOL    HW270361   5.328   3.872   9.459 -0.3975  0.5799  0.0973
22362SOL     OW70362   3.344   2.409   6.670 -0.1809  0.2356 -0.0877
22362SOL    HW170363   3.312   2.372   6.752 -0.2924  0.9507  0.1940
22362SOL    HW270364   3.268   2.407   6.611  0.6041 -3.0646 -1.2001
22363SOL     OW70365   9.790   1.954   3.798 -0.3738  0.2360  0.1793
22363SOL    HW170366   9.870   2.006   3.806 -0.6141  0.7162 -0.4083
22363SOL    HW270367   9.743   1.995   3.724 -0.5593 -0.8245 -0.3034
22364SOL     OW70368   6.765   9.133   1.528  0.1667  0.3738 -0.3171
22364SOL    HW170369   6.851   9.161   1.499  0.6548 -0.1138  0.6002
22364SOL    HW270370   6.781   9.094   1.614 -0.9793  0.3426 -0.1077
22365SOL     OW70371  10.271   0.933   4.607 -0.0149  0.1552  0.0998
22365SOL    HW170372  10.321   1.015   4.608  0.5419 -0.1687 -0.1805
22365SOL    HW270373  10.185   0.958   4.575  0.0927  0.6617  0.1855
22366SOL     OW70374   3.902   0.066   6.265  0.5423 -0.4778 -0.2560
22366SOL    HW170375   3.811   0.096   6.269 -0.2411 -2.6393 -0.4115
22366SOL    HW270376   3.925   0.075   6.172 -0.2150 -1.7112 -0.5938
22367SOL     OW70377   3.383   1.486   3.079  0.0772  0.0995 -0.2023
22367SOL    HW170378   3.339   1.405   3.106  0.3519 -0.5942 -1.7238
22367SOL    HW270379   3.328   1.556   3.114  0.1546 -0.7134  1.6607
22368SOL     OW70380   2.980   6.174  10.427 -0.4453  0.4399 -0.4148
22368SOL    HW170381   2.897   6.168  10.380 -0.3247  0.7799 -0.6706
22368SOL    HW270382   2.989   6.088  10.469 -1.2167  0.6079  0.1153
22369SOL     OW70383   6.816  10.167   6.817 -0.0483  0.4376  0.3300
22369SOL    HW170384   6.839  10.259   6.800  0.0591  0.0969 -1.5480
22369SOL    HW270385   6.851  10.150   6.904 -1.0265  2.4756  1.1985
22370SOL     OW70386   2.167   6.922   9.964 -0.1173  0.0795 -0.0943
22370SOL    HW170387   2.208   7.008   9.964  1.1347 -0.4900 -1.0457
22370SOL    HW270388   2.181   6.888  10.052  1.7309 -0.2071 -0.4722
22371SOL     OW70389   3.367   1.965   2.234  0.1237 -0.3698  0.0584
22371SOL    HW170390   3.441   1.950   2.175 -0.1323  1.2779 -0.7469
22371SOL    HW270391   3.349   2.059   2.226 -1.0661 -0.4510  1.4255
22372SOL     OW70392   5.903   8.396   8.963 -0.1371 -0.0674 -0.6215
22372SOL    HW170393   5.819   8.355   8.981 -0.3388  0.5153 -0.1970
22372SOL    HW270394   5.946   8.337   8.902  0.9175 -2.5849  2.2738
22373SOL     OW70395   7.304   0.231   6.718 -0.4266 -0.3929 -0.1907
22373SOL    HW170396   7.249   0.242   6.796 -1.2258  0.0962 -0.8189
22373SOL    HW270397   7.277   0.301   6.659 -0.2960 -1.1631 -1.1827
22374SOL     OW70398   4.486  11.319   1.469 -0.2748 -0.1291  0.7463
22374SOL    HW170399   4.410  11.376   1.480  1.1535  1.7743  1.2553
22374SOL    HW270400   4.547  11.346   1.537  1.8436  0.0788 -1.1160
22375SOL     OW70401   6.243   7.219   8.505  0.4495  0.3749 -0.1352
22375SOL    HW170402   6.223   7.311   8.520 -0.5320  0.2636 -0.6887
22375SOL    HW270403   6.296   7.218   8.426  1.2017  0.5308  0.3615
22376SOL     OW70404   0.354   4.711   8.154 -0.3940  0.0708 -0.9484
22376SOL    HW170405   0.324   4.623   8.133 -1.9623  0.2498  0.3646
22376SOL    HW270406   0.278   4.767   8.140 -0.5256  0.6757  1.6316
22377SOL     OW70407   3.838   6.447   9.743  0.6879  0.1505 -0.1031
22377SOL    HW170408   3.820   6.387   9.670  0.0857  0.1958 -0.0012
22377SOL    HW270409   3.933   6.446   9.752  0.7671  0.0883 -0.8489
22378SOL     OW70410   8.022   1.351   5.352  0.3875 -0.4335 -0.5623
22378SOL    HW170411   7.995   1.436   5.385  1.2181  0.1834 -1.3965
22378SOL    HW270412   7.975   1.342   5.269 -1.1791 -1.6704  0.4170
22379SOL     OW70413   7.714   4.747   4.689  0.0588 -0.3699 -0.1900
22379SOL    HW170414   7.744   4.837   4.691  0.3503 -0.4759  0.2033
22379SOL    HW270415   7.625   4.752   4.654  0.3078  0.0021 -0.7866
22380SOL     OW70416   4.943   7.847   6.408 -0.3668  0.0317 -0.0295
22380SOL    HW170417   5.020   7.794   6.428  0.4717  1.0623 -0.4820
22380SOL    HW270418   4.916   7.882   6.493  1.3484  1.9036 -0.1874
22381SOL     OW70419   2.847   7.522   0.435  0.1565 -0.3240  0.0280
22381SOL    HW170420   2.943   7.517   0.432  0.1015 -1.9820 -0.0551
22381SOL    HW270421   2.819   7.494   0.348 -0.4193 -2.2383  0.7714
22382SOL     OW70422   0.218  11.273   8.509 -0.6261  0.1289 -0.0446
22382SOL    HW170423   0.253  11.357   8.539  1.6588 -0.4758 -0.8426
22382SOL    HW270424   0.277  11.207   8.546 -1.6388 -1.0505 -0.4670
22383SOL     OW70425   6.925   4.251   1.603 -0.1376  0.5261  0.1495
22383SOL    HW170426   6.968   4.191   1.664 -1.7476 -0.9163 -0.0572
22383SOL    HW270427   6.846   4.280   1.650 -0.6941  0.4481 -0.7133
22384SOL     OW70428   1.460   3.554   5.357  0.7550  0.0034  0.4288
22384SOL    HW170429   1.549   3.526   5.335  0.6729  1.0315 -1.3805
22384SOL    HW270430   1.432   3.607   5.282 -1.3202 -0.1298  1.0530
22385SOL     OW70431  11.269   5.388   1.534  0.3300  0.1405  0.0757
22385SOL    HW170432  11.324   5.426   1.465 -0.4251  0.2831 -0.4651
22385SOL    HW270433  11.238   5.463   1.585 -1.9180  0.4232 -1.5563
22386SOL     OW70434   8.620  10.267  10.855 -0.4263  0.8817 -0.0143
22386SOL    HW170435   8.626  10.234  10.944  0.0233 -1.2624 -0.7898
22386SOL    HW270436   8.535  10.235  10.823  0.4966 -0.5810 -1.1481
22387SOL     OW70437   0.782   2.420   4.039 -0.6663  0.5455  0.3682
22387SOL    HW170438   0.828   2.409   4.122  0.0102 -1.0589 -0.1841
22387SOL    HW270439   0.753   2.511   4.040 -0.8238  0.5180  2.4203
22388SOL     OW70440   3.210   6.528   8.645 -0.1924  0.0243 -0.1547
22388SOL    HW170441   3.131   6.478   8.661  0.1469 -0.9824 -1.4319
22388SOL    HW270442   3.195   6.612   8.689 -1.3809 -0.6449  0.7762
22389SOL     OW70443   9.024   1.866   0.338  0.0506  0.8040 -0.2695
22389SOL    HW170444   8.937   1.830   0.323  0.2670  0.2153 -0.1685
22389SOL    HW270445   9.010   1.958   0.358 -0.5740  0.6383  0.0638
22390SOL     OW70446   2.021   1.289   4.715  0.5464  0.0757  0.6433
22390SOL    HW170447   2.006   1.262   4.625  0.4467  1.6292  0.1605
22390SOL    HW270448   2.026   1.207   4.765 -0.4058 -0.7774 -0.6026
22391SOL     OW70449   1.107   7.063   8.106  0.2250  0.9088 -0.8835
22391SOL    HW170450   1.083   7.155   8.117 -1.0927  0.7536 -2.1238
22391SOL    HW270451   1.198   7.065   8.078  0.2258  1.8419 -0.8423
22392SOL     OW70452   3.759   8.065   8.531 -0.3949 -0.3965  0.2552
22392SOL    HW170453   3.844   8.042   8.493 -0.6514 -1.5577  0.3489
22392SOL    HW270454   3.715   8.113   8.462  0.5037  0.6240  0.3659
22393SOL     OW70455   2.993  10.189   8.530  0.1893  0.2978  0.3850
22393SOL    HW170456   2.987  10.247   8.454 -0.0560  0.0327  0.1980
22393SOL    HW270457   3.085  10.193   8.555  0.6300 -0.7943 -0.8886
22394SOL     OW70458   1.860   9.417   8.708 -0.4602  0.0524  0.3227
22394SOL    HW170459   1.847   9.438   8.800 -1.2521  0.1856  0.1848
22394SOL    HW270460   1.885   9.500   8.668 -1.0467  0.1892  0.2444
22395SOL     OW70461   4.505   5.592   4.897  0.2906 -0.1953  0.5274
22395SOL    HW170462   4.486   5.505   4.861 -0.5211  0.1650  0.0569
22395SOL    HW270463   4.489   5.652   4.824  0.0659  0.4205  1.0749
22396SOL     OW70464   0.443   2.183   3.942 -0.4359  0.3944 -0.4403
22396SOL    HW170465   0.530   2.176   3.983 -0.6681 -0.1458 -0.0242
22396SOL    HW270466   0.391   2.232   4.005  0.0254  2.2932 -1.4712
22397SOL     OW70467   7.899   6.892   0.944  0.0361 -0.2556 -0.2956
22397SOL    HW170468   7.835   6.934   0.886 -0.4743 -0.5357  0.0520
22397SOL    HW270469   7.939   6.824   0.891  0.2321  0.0903 -0.5954
22398SOL     OW70470   0.951  10.464   4.545 -0.3071  0.2460  0.2708
22398SOL    HW170471   0.975  10.412   4.622  1.6450  1.3773  0.4853
22398SOL    HW270472   1.034  10.477   4.498 -1.4324 -0.3925 -2.0598
22399SOL     OW70473   7.005   8.356   6.775 -0.0115 -0.4134 -0.2769
22399SOL    HW170474   6.968   8.277   6.814 -0.1044 -1.4233 -2.2890
22399SOL    HW270475   6.979   8.427   6.835 -1.3727 -1.6748  0.6907
22400SOL     OW70476   6.458   7.988  11.179  0.3484  0.4198  0.1181
22400SOL    HW170477   6.478   7.910  11.232  0.1595 -0.7646 -1.5018
22400SOL    HW270478   6.385   8.029  11.225 -0.8502 -1.4427 -0.0152
22401SOL     OW70479   3.573   3.519   4.206  0.6332 -0.0015  0.0159
22401SOL    HW170480   3.660   3.493   4.177 -0.8718 -3.5391 -2.1086
22401SOL    HW270481   3.557   3.467   4.285 -0.2358 -1.1229 -0.8456
22402SOL     OW70482   2.348   7.402   3.513 -0.4073  0.3058  0.4896
22402SOL    HW170483   2.345   7.351   3.432 -0.9983 -1.6622  1.6846
22402SOL    HW270484   2.380   7.487   3.486  2.4754 -1.2036 -1.3797
22403SOL     OW70485   6.524   7.883   9.679  0.0210 -0.7771 -0.1219
22403SOL    HW170486   6.534   7.886   9.775  0.9433 -0.9041 -0.2061
22403SOL    HW270487   6.430   7.894   9.665  0.0097  0.3907  0.7406
22404SOL     OW70488  10.324   1.928   6.820  0.0878  0.2049  0.6043
22404SOL    HW170489  10.236   1.930   6.856  0.4868  0.8762  1.5722
22404SOL    HW270490  10.353   1.837   6.831 -0.3118  0.0902  0.7010
22405SOL     OW70491   0.971   0.904  10.148  0.0363  0.6248  0.3412
22405SOL    HW170492   1.026   0.982  10.137 -0.5280  1.2114  1.5228
22405SOL    HW270493   1.005   0.862  10.227  0.8884 -0.8305 -0.7467
22406SOL     OW70494   8.055   0.453   5.411 -0.2662  0.0342 -0.1268
22406SOL    HW170495   8.055   0.511   5.487  0.8068 -0.0588 -0.0393
22406SOL    HW270496   8.035   0.366   5.448 -0.7518  0.1488 -0.1049
22407SOL     OW70497   5.604   8.836   2.719  0.4782 -0.4866  0.1156
22407SOL    HW170498   5.540   8.857   2.787  0.0301  0.9308 -0.6915
22407SOL    HW270499   5.578   8.750   2.687 -1.0022  0.0219 -0.1308
22408SOL     OW70500   4.316   6.776   4.326 -0.1698 -0.3569  0.4567
22408SOL    HW170501   4.396   6.801   4.281 -1.0899  0.7654 -0.5998
22408SOL    HW270502   4.346   6.724   4.401  1.5080 -0.2521 -0.1099
22409SOL     OW70503   7.342   2.615   7.057  0.0497  0.0595 -0.2454
22409SOL    HW170504   7.319   2.541   7.112 -0.4616 -0.7932 -1.5719
22409SOL    HW270505   7.438   2.620   7.063 -0.0153  0.2385  0.9984
22410SOL     OW70506   1.470   4.880   0.288  0.1743  0.2198 -0.4909
22410SOL    HW170507   1.472   4.793   0.247 -1.2026  0.6346 -1.5127
22410SOL    HW270508   1.497   4.864   0.379 -1.7688 -1.5990 -0.1462
22411SOL     OW70509   6.889   1.312   9.916  0.3609  0.7700 -0.2402
22411SOL    HW170510   6.934   1.299   9.999 -0.6513  2.3589  0.6160
22411SOL    HW270511   6.958   1.308   9.849  1.2210 -0.2761  0.6970
22412SOL     OW70512   7.944   7.571   1.407  0.2639  1.0855  0.3398
22412SOL    HW170513   7.911   7.628   1.337  0.2628  1.5592  0.7156
22412SOL    HW270514   7.869   7.517   1.431  0.6674 -0.1321 -1.0340
22413SOL     OW70515   7.982   3.670   3.371 -0.0248  0.7221 -0.1379
22413SOL    HW170516   7.928   3.737   3.329  0.6118  0.5368 -1.2951
22413SOL    HW270517   7.962   3.678   3.464 -0.9252  1.6460 -0.3885
22414SOL     OW70518   4.958  10.967   3.618  0.0089  0.0672  0.1745
22414SOL    HW170519   4.935  11.002   3.704  0.5888  3.3913 -0.8859
22414SOL    HW270520   5.052  10.950   3.623 -0.0273 -0.1051  0.2904
22415SOL     OW70521   2.989   4.186   8.907  0.0325  0.0879 -0.1387
22415SOL    HW170522   3.046   4.109   8.910 -0.9851 -0.7996 -1.9473
22415SOL    HW270523   3.032   4.245   8.845 -0.0414  0.2784 -0.0099
22416SOL     OW70524   5.273   5.729   1.740  0.0572  0.1261  0.3181
22416SOL    HW170525   5.307   5.742   1.652 -0.8750 -1.1297 -0.2585
22416SOL    HW270526   5.302   5.806   1.789  1.6638  0.2301 -0.7431
22417SOL     OW70527   6.089   3.831   5.128 -0.8980  0.3278 -0.1800
22417SOL    HW170528   6.170   3.840   5.179 -0.9432 -0.6803  0.0911
22417SOL    HW270529   6.092   3.903   5.065  0.1555  0.3676 -0.0959
22418SOL     OW70530  10.672   2.586   7.278 -0.0975  0.0597  0.1851
22418SOL    HW170531  10.731   2.558   7.208 -0.9801 -0.7040 -0.2824
22418SOL    HW270532  10.603   2.636   7.233  0.9953  2.3349  0.9071
22419SOL     OW70533   0.078   0.437   7.342 -0.0068  0.1890  0.0808
22419SOL    HW170534   0.057   0.371   7.275  1.6490  1.1461 -1.4675
22419SOL    HW270535   0.169   0.461   7.324 -0.2593  2.1926  1.2124
22420SOL     OW70536   8.997   8.845   0.307  0.2276 -0.4534 -0.2395
22420SOL    HW170537   8.986   8.940   0.299 -0.5041 -0.4510  0.6531
22420SOL    HW270538   9.060   8.822   0.238  0.6643  0.7208 -0.2496
22421SOL     OW70539   3.055   5.949   0.197 -0.1033  0.0050  0.0118
22421SOL    HW170540   2.991   5.919   0.132 -0.0413  0.2895 -0.1808
22421SOL    HW270541   3.035   6.042   0.209 -0.7177 -0.2547  1.0937
22422SOL     OW70542   4.946   0.616   1.539  0.1648 -0.2059 -0.2690
22422SOL    HW170543   5.013   0.663   1.589 -0.5414  0.7593 -0.2057
22422SOL    HW270544   4.981   0.527   1.530  1.5547  0.3335 -0.4444
22423SOL     OW70545   3.683   9.577   3.859 -0.3452 -0.5527 -1.3309
22423SOL    HW170546   3.594   9.560   3.890  0.2433  0.1421  0.8746
22423SOL    HW270547   3.736   9.506   3.897  0.2651 -0.1866 -1.4789
22424SOL     OW70548  11.318   5.080   6.111 -0.3755 -0.1323 -0.0371
22424SOL    HW170549  11.410   5.108   6.108 -0.8840  1.5562 -0.7126
22424SOL    HW270550  11.295   5.084   6.204 -0.3017  1.2880 -0.0714
22425SOL     OW70551   4.339   5.354   8.572 -0.1921  0.3244  0.1480
22425SOL    HW170552   4.308   5.441   8.595  0.9084  1.0195 -0.8668
22425SOL    HW270553   4.395   5.328   8.645  1.4626  1.5508 -0.6043
22426SOL     OW70554   2.459   9.721   3.947 -0.0166  0.0098  0.3713
22426SOL    HW170555   2.456   9.815   3.964  0.7658  0.0592  0.2889
22426SOL    HW270556   2.386   9.705   3.887  0.4191  0.7423 -0.3839
22427SOL     OW70557   1.866   8.830   6.901 -0.0115  0.6083  0.4721
22427SOL    HW170558   1.859   8.899   6.968  0.0771  0.9524  0.1305
22427SOL    HW270559   1.840   8.873   6.820 -1.3035 -0.1137  0.4630
22428SOL     OW70560   3.631  11.186   7.155  0.3476 -0.4690  0.0850
22428SOL    HW170561   3.721  11.186   7.186  0.2050  1.1144  0.5795
22428SOL    HW270562   3.579  11.203   7.233 -0.2214  0.7836 -0.5501
22429SOL     OW70563   3.599   7.527   1.220 -0.2030  0.5224  0.2689
22429SOL    HW170564   3.612   7.497   1.130  1.5373 -2.2167  1.2940
22429SOL    HW270565   3.504   7.521   1.234 -0.8645  3.3645 -1.9928
22430SOL     OW70566   7.732   7.886   9.239 -0.3231  0.1411  0.6013
22430SOL    HW170567   7.651   7.864   9.193  0.0034 -1.2399  0.6529
22430SOL    HW270568   7.737   7.821   9.310  2.5013 -2.0339 -1.3731
22431SOL     OW70569   4.020   7.880   8.137 -0.0877  0.0275  0.1869
22431SOL    HW170570   4.080   7.806   8.138  0.3622  0.3792 -0.1244
22431SOL    HW270571   3.943   7.850   8.186  0.8813  0.0162  1.8050
22432SOL     OW70572   2.943   1.718   2.165 -0.4525  0.0422 -0.3637
22432SOL    HW170573   3.020   1.774   2.178 -1.0359  0.8282 -0.2436
22432SOL    HW270574   2.926   1.721   2.071  0.4658 -1.2308 -0.5970
22433SOL     OW70575   3.130   1.867   2.266 -0.4607  0.3062  0.2141
22433SOL    HW170576   3.222   1.892   2.263 -0.7111  1.2039 -1.0800
22433SOL    HW270577   3.111   1.852   2.358  0.9190  0.3239  0.5164
22434SOL     OW70578   8.341   1.487   4.977 -0.1101  0.4999  0.1299
22434SOL    HW170579   8.252   1.521   4.990  0.2449  1.6294 -0.2606
22434SOL    HW270580   8.381   1.492   5.064 -0.7362 -1.0138  0.5400
22435SOL     OW70581   4.894   3.096   1.264 -0.3304 -0.1662  0.0421
22435SOL    HW170582   4.959   3.114   1.197 -0.1760  1.4130  0.5813
22435SOL    HW270583   4.934   3.127   1.345 -1.0641 -0.7833  0.6597
22436SOL     OW70584   7.512   2.198   0.343 -0.0835 -0.1842 -0.4429
22436SOL    HW170585   7.478   2.260   0.279  1.3648  1.0657 -0.0600
22436SOL    HW270586   7.458   2.120   0.332 -0.4938  0.3349 -2.5169
22437SOL     OW70587   4.014   2.303   4.929 -0.1552 -0.0245 -0.0566
22437SOL    HW170588   4.079   2.273   4.865 -0.0444  1.1079 -0.4956
22437SOL    HW270589   4.005   2.229   4.989  0.1168 -0.9229 -1.0789
22438SOL     OW70590   9.074   4.052   3.579 -0.3384 -0.1928 -0.0947
22438SOL    HW170591   9.054   4.138   3.542  1.5312  0.4040  0.1695
22438SOL    HW270592   8.988   4.011   3.593 -1.2163  1.0256 -1.5935
22439SOL     OW70593   8.850   0.567   5.985 -0.2316  0.2919 -0.2174
22439SOL    HW170594   8.858   0.472   5.977 -1.4715  0.1333  0.0845
22439SOL    HW270595   8.937   0.598   6.009 -0.2098 -0.9905  1.5656
22440SOL     OW70596   0.488  11.329  11.012 -0.3583 -0.0333  0.4742
22440SOL    HW170597   0.576  11.358  10.989 -0.1473 -0.2213  1.0149
22440SOL    HW270598   0.465  11.265  10.945 -0.0333 -0.0694  0.3957
22441SOL     OW70599   8.883   6.608   9.932 -0.1291  0.2425  0.0245
22441SOL    HW170600   8.923   6.694   9.945 -1.6118  1.0501 -0.5050
22441SOL    HW270601   8.956   6.550   9.910  0.8871  1.3735  0.3500
22442SOL     OW70602   1.734   8.734   2.465  0.1405  0.1848 -0.1045
22442SOL    HW170603   1.765   8.799   2.402  0.1554  0.7626  0.4951
22442SOL    HW270604   1.674   8.679   2.414  0.5041  0.3560 -0.7380
22443SOL     OW70605   3.887   9.393   3.943  0.5618 -0.0607 -0.4449
22443SOL    HW170606   3.875   9.381   4.037 -1.9671 -0.7143 -0.7845
22443SOL    HW270607   3.982   9.402   3.932  1.0301 -1.1756  2.0133
22444SOL     OW70608   5.791   3.280   5.116  0.0965  0.4200 -0.1488
22444SOL    HW170609   5.777   3.315   5.204 -0.3201  0.2054 -0.1280
22444SOL    HW270610   5.761   3.349   5.058 -1.0109 -0.0006 -0.1060
22445SOL     OW70611   4.050   1.539   0.793 -0.2941 -0.4510 -0.5094
22445SOL    HW170612   3.956   1.554   0.782  0.0488  1.3139 -1.2972
22445SOL    HW270613   4.077   1.496   0.712  0.2154  2.5955 -2.1235
22446SOL     OW70614   5.978   5.921   8.370 -0.2052  0.6479  0.1481
22446SOL    HW170615   5.966   6.013   8.347  2.0011  0.9324 -0.0122
22446SOL    HW270616   5.953   5.874   8.290  0.1474  1.2008 -0.2970
22447SOL     OW70617   9.055   9.616   2.964 -0.2631 -0.7317  0.3270
22447SOL    HW170618   9.009   9.654   3.039  0.3024 -0.3909  0.5024
22447SOL    HW270619   9.038   9.522   2.972  0.0743 -0.7391  1.0851
22448SOL     OW70620   7.803  10.641  11.079 -0.0414  0.2139  0.3106
22448SOL    HW170621   7.877  10.599  11.035 -0.3226 -0.8405  0.8152
22448SOL    HW270622   7.775  10.577  11.145 -0.8138  0.9882  0.7474
22449SOL     OW70623   7.759   9.102   4.410  0.4504  0.6461 -0.0219
22449SOL    HW170624   7.753   9.020   4.360 -1.0424  0.7503 -0.0540
22449SOL    HW270625   7.780   9.169   4.345  1.1899  0.3634 -0.0751
22450SOL     OW70626   5.383   7.278   2.119 -0.3700  0.2647 -0.8550
22450SOL    HW170627   5.386   7.228   2.038  2.9367  2.1155 -2.0878
22450SOL    HW270628   5.407   7.367   2.093  3.3872  0.4596  2.2937
22451SOL     OW70629   8.863   2.707   5.719 -0.0404 -0.1480 -0.3420
22451SOL    HW170630   8.946   2.661   5.733  1.4950  2.1218 -1.3064
22451SOL    HW270631   8.888   2.799   5.709 -2.5614  0.4671 -1.9259
22452SOL     OW70632   9.822   3.942   6.966 -0.6027 -0.0632  0.5740
22452SOL    HW170633   9.890   3.958   7.031 -0.0876 -0.3142  0.1126
22452SOL    HW270634   9.751   3.900   7.014  0.4017 -1.6950  0.6938
22453SOL     OW70635   5.506   5.765   7.510 -0.2355  0.0203  0.0994
22453SOL    HW170636   5.555   5.846   7.524 -0.9611  0.5158 -0.1243
22453SOL    HW270637   5.548   5.724   7.435 -1.5786  1.6340 -1.6567
22454SOL     OW70638   1.267   7.135   2.181 -0.4091  0.0568 -0.5426
22454SOL    HW170639   1.226   7.055   2.214 -1.6676  0.6342 -0.6648
22454SOL    HW270640   1.288   7.115   2.090  0.0870 -0.4262 -0.3279
22455SOL     OW70641  11.034   0.476   4.933  0.1435  0.2891 -1.3032
22455SOL    HW170642  11.129   0.482   4.923  0.2658 -0.1278 -0.4286
22455SOL    HW270643  11.002   0.450   4.846  1.0375 -1.9060 -1.0125
22456SOL     OW70644  10.697   5.619   1.944  0.6266  0.6374  0.0403
22456SOL    HW170645  10.678   5.687   2.009 -1.7513  0.2135 -0.1385
22456SOL    HW270646  10.779   5.580   1.974  0.6591  1.8148  1.6161
22457SOL     OW70647  10.272  10.735   0.598  0.2017  0.4811 -0.2021
22457SOL    HW170648  10.309  10.768   0.680  0.2570 -1.2588  0.5116
22457SOL    HW270649  10.197  10.682   0.625 -1.1155  1.6236 -1.4440
22458SOL     OW70650   1.710   3.213   3.490 -0.3958 -0.5365  0.0567
22458SOL    HW170651   1.659   3.290   3.463  0.8304  1.0631  2.0075
22458SOL    HW270652   1.771   3.199   3.418 -1.7600 -0.8050 -1.0984
22459SOL     OW70653   3.820   2.230   9.101  0.2715 -0.1666  0.1718
22459SOL    HW170654   3.780   2.260   9.020  2.2955  0.0731 -0.8001
22459SOL    HW270655   3.788   2.140   9.112 -0.3525 -0.0532 -0.6351
22460SOL     OW70656   5.980   8.396   0.182 -0.5128  0.0947 -0.1777
22460SOL    HW170657   6.053   8.427   0.128  0.5652 -0.6881  0.7721
22460SOL    HW270658   5.943   8.323   0.133  0.2821 -0.4328 -0.0153
22461SOL     OW70659  11.126  11.147   0.588 -0.1129  0.0020  0.3182
22461SOL    HW170660  11.053  11.168   0.530 -1.3557 -0.3239  1.6920
22461SOL    HW270661  11.136  11.224   0.644  0.7075  0.0935  0.0685
22462SOL     OW70662   5.939   0.705   1.911 -0.1719 -0.1860  0.3176
22462SOL    HW170663   5.977   0.618   1.924 -0.4675 -0.4634 -0.5776
22462SOL    HW270664   5.845   0.692   1.926 -0.5549 -0.5538 -2.0102
22463SOL     OW70665   7.862   7.361   3.471 -0.4748  0.1671 -0.4982
22463SOL    HW170666   7.881   7.341   3.562 -2.6286  1.4347  0.2949
22463SOL    HW270667   7.769   7.340   3.460 -0.6811  1.5986 -1.9245
22464SOL     OW70668  11.391   8.426   4.292 -0.1855  0.4863 -0.0624
22464SOL    HW170669  11.481   8.452   4.310  0.3895 -0.9266 -0.7427
22464SOL    HW270670  11.351   8.414   4.379  0.4762  0.4639  0.2414
22465SOL     OW70671   1.799  10.836   3.870 -0.3634  0.7947 -0.9078
22465SOL    HW170672   1.768  10.902   3.932 -1.8410 -0.0847 -0.6496
22465SOL    HW270673   1.745  10.849   3.792  0.4193  0.8921 -1.4449
22466SOL     OW70674  11.014   7.103   3.336 -0.1156  0.9162 -0.0470
22466SOL    HW170675  11.101   7.139   3.351  1.2927 -2.7026  1.7062
22466SOL    HW270676  10.976   7.096   3.424 -0.6495 -0.8438 -0.3818
22467SOL     OW70677   0.829   5.452   0.671 -0.5147  0.8220  0.5680
22467SOL    HW170678   0.818   5.440   0.765 -0.5300  0.7750  0.5603
22467SOL    HW270679   0.754   5.408   0.632  0.7937 -1.4382  0.4021
22468SOL     OW70680   2.765  10.497  11.256 -0.2680 -0.1006  0.0176
22468SOL    HW170681   2.686  10.461  11.214 -0.4271 -2.3005  1.9697
22468SOL    HW270682   2.748  10.590  11.262 -2.1035 -0.3204 -0.8691
22469SOL     OW70683   0.452  10.396   1.832 -0.5231 -0.1890  0.1549
22469SOL    HW170684   0.543  10.364   1.833 -0.3139  0.2832  2.7713
22469SOL    HW270685   0.459  10.484   1.794 -0.1339 -0.6914 -0.9944
22470SOL     OW70686   3.109   9.421   5.599  0.4489 -0.3830  0.1130
22470SOL    HW170687   3.088   9.393   5.688  0.2058 -0.2464  0.1012
22470SOL    HW270688   3.024   9.421   5.554  0.3751  0.8190  0.2357
22471SOL     OW70689   4.781   7.082   9.767  0.1737 -0.5406 -0.4516
22471SOL    HW170690   4.779   7.177   9.778  1.2388 -0.3928 -1.3347
22471SOL    HW270691   4.745   7.048   9.849  1.2915  0.6110  0.5756
22472SOL     OW70692   0.616   7.887   2.394  0.9335  0.0151  0.0068
22472SOL    HW170693   0.594   7.829   2.467 -1.6565  0.6855 -0.1527
22472SOL    HW270694   0.620   7.974   2.433  0.6863  0.2283 -0.4368
22473SOL     OW70695   9.257   7.732   0.298 -0.5949  0.1057  0.0840
22473SOL    HW170696   9.215   7.801   0.247  0.5173 -0.6143 -1.9084
22473SOL    HW270697   9.273   7.661   0.235  0.1201 -1.1685  1.6138
22474SOL     OW70698   4.333   4.829   6.273  0.1437  0.6999  0.7920
22474SOL    HW170699   4.394   4.813   6.202  0.3402  0.2327  1.0626
22474SOL    HW270700   4.343   4.754   6.331 -0.8780  0.4701  0.7038
22475SOL     OW70701   0.553   8.891   8.340  0.1659  0.0240 -0.5828
22475SOL    HW170702   0.507   8.930   8.267 -1.2453 -1.5504 -0.6045
22475SOL    HW270703   0.631   8.851   8.301 -0.7808 -1.1559 -1.3487
22476SOL     OW70704   7.712   1.195   3.371  0.0981 -0.7028  0.3977
22476SOL    HW170705   7.679   1.140   3.300 -0.3016 -0.2168  0.1968
22476SOL    HW270706   7.636   1.245   3.400  0.1621 -1.2037  1.4731
22477SOL     OW70707   6.799   1.775   8.113  0.1791  0.2574  0.1613
22477SOL    HW170708   6.842   1.775   8.199  0.3056  2.5613  0.1585
22477SOL    HW270709   6.706   1.767   8.132  0.0932  1.9896  0.6528
22478SOL     OW70710   9.274   8.567  10.405 -0.2662  0.5001  0.1633
22478SOL    HW170711   9.212   8.495  10.413  0.7667 -0.2370  2.1398
22478SOL    HW270712   9.254   8.625  10.478  2.2962 -0.5608  1.8310
22479SOL     OW70713   4.125  11.104   6.281  1.0426 -0.1319  0.1178
22479SOL    HW170714   4.162  11.059   6.357  0.6536 -1.2765 -0.3515
22479SOL    HW270715   4.039  11.134   6.310  0.4387 -1.5161 -0.1750
22480SOL     OW70716  10.873   3.397   3.145 -0.9373 -0.6796 -0.2570
22480SOL    HW170717  10.937   3.359   3.084 -1.1173  0.2371 -1.0499
22480SOL    HW270718  10.904   3.486   3.159 -1.6630 -0.4494 -0.0976
22481SOL     OW70719   3.442   8.218   8.595  0.2228  0.3082 -0.3419
22481SOL    HW170720   3.527   8.221   8.639  0.6323 -1.8832 -0.8513
22481SOL    HW270721   3.464   8.204   8.502 -0.6536  3.2266 -1.0974
22482SOL     OW70722   6.533   5.593   3.956  0.5669 -0.7086  0.7927
22482SOL    HW170723   6.442   5.573   3.935  0.4617  1.2645 -1.0270
22482SOL    HW270724   6.554   5.535   4.029 -2.3830 -0.6683  1.8335
22483SOL     OW70725   5.203   0.438   7.858  0.4119 -0.5046  0.6176
22483SOL    HW170726   5.134   0.380   7.891  1.2395 -0.9996  1.5051
22483SOL    HW270727   5.188   0.521   7.902 -1.2452  0.2649 -1.2231
22484SOL     OW70728   4.199   9.738   3.764  0.0530 -0.1638 -0.5193
22484SOL    HW170729   4.210   9.801   3.692  0.4471 -0.0919 -0.3980
22484SOL    HW270730   4.240   9.780   3.839  1.0210 -0.8806 -0.6171
22485SOL     OW70731   5.820   5.864   6.972 -0.4790 -0.8079 -0.0694
22485SOL    HW170732   5.726   5.848   6.978 -0.2733 -2.0395  0.0630
22485SOL    HW270733   5.828   5.959   6.977 -1.6469 -0.7354  0.7998
22486SOL     OW70734   3.143  10.406   3.008 -0.1522 -0.0564 -0.2191
22486SOL    HW170735   3.057  10.434   2.976  0.2487  1.9363  0.3314
22486SOL    HW270736   3.188  10.487   3.031  2.3724 -0.9455 -1.6658
22487SOL     OW70737   8.134   1.788   0.687  0.0672 -0.2625  0.2703
22487SOL    HW170738   8.071   1.854   0.716 -0.9101 -0.2557 -1.7459
22487SOL    HW270739   8.125   1.786   0.592  2.6505 -0.7469 -0.0355
22488SOL     OW70740   4.144   5.501  10.289 -0.1894 -0.0307  0.4772
22488SOL    HW170741   4.092   5.442  10.344 -0.4222 -3.2217 -2.7937
22488SOL    HW270742   4.085   5.529  10.220  1.1304  0.3750 -0.5351
22489SOL     OW70743   2.452   3.624   9.804  0.1459 -0.7077 -0.0635
22489SOL    HW170744   2.527   3.565   9.811 -0.2301 -1.1384  0.3629
22489SOL    HW270745   2.453   3.674   9.886  1.2679  0.8716 -0.9726
22490SOL     OW70746   8.079   0.782   0.661  0.2731 -0.4761  0.3716
22490SOL    HW170747   8.142   0.809   0.594 -0.2904 -0.8944 -0.3321
22490SOL    HW270748   8.130   0.782   0.742  0.0766  3.7950  0.7012
22491SOL     OW70749   6.722   3.298   7.813 -0.0058  0.2750  0.2234
22491SOL    HW170750   6.787   3.367   7.798  0.7052 -0.7684 -1.9944
22491SOL    HW270751   6.775   3.219   7.823 -0.8761 -0.3161  0.2063
22492SOL     OW70752   0.080   6.722   9.256 -0.0239 -0.1507 -0.3400
22492SOL    HW170753   0.007   6.782   9.267 -1.5600 -1.8099 -0.9250
22492SOL    HW270754   0.158   6.774   9.277 -1.2449  2.0256 -0.9019
22493SOL     OW70755   7.442   4.682   9.987  0.4484 -0.5288  0.1532
22493SOL    HW170756   7.491   4.614   9.940  0.5138  0.2693 -0.9638
22493SOL    HW270757   7.350   4.658   9.975  0.3964  0.4322 -1.6327
22494SOL     OW70758   2.348   0.222   2.232 -0.4922 -0.1610  0.4576
22494SOL    HW170759   2.317   0.252   2.317 -0.1946  0.1252  0.4637
22494SOL    HW270760   2.390   0.298   2.193  0.9172 -0.7504  0.7789
22495SOL     OW70761   7.408   4.055   3.167 -0.3224  0.4814  0.7863
22495SOL    HW170762   7.347   4.111   3.216 -1.3625 -2.3762  3.0570
22495SOL    HW270763   7.479   4.114   3.142 -1.2613  2.7851  3.0532
22496SOL     OW70764   4.063   6.888   3.499 -0.0061  0.2928  0.9084
22496SOL    HW170765   3.977   6.860   3.466  0.5578 -1.0814  0.5725
22496SOL    HW270766   4.081   6.830   3.573  0.7155  0.4733  0.8824
22497SOL     OW70767   4.159   1.741   1.054 -0.4093 -0.0671 -0.2091
22497SOL    HW170768   4.127   1.831   1.045 -1.4965 -0.6368 -3.0823
22497SOL    HW270769   4.130   1.698   0.974  2.1637 -2.3615 -0.0202
22498SOL     OW70770   7.285   7.392   1.796  0.2524  0.3148  0.4337
22498SOL    HW170771   7.195   7.367   1.780  0.1499 -0.0514  1.4811
22498SOL    HW270772   7.337   7.337   1.737 -0.1838  0.1395  0.2172
22499SOL     OW70773   6.156   8.318   9.196 -0.0084 -0.4753  0.0129
22499SOL    HW170774   6.158   8.343   9.104  0.3335  1.5193  0.5191
22499SOL    HW270775   6.141   8.223   9.195  2.4804 -0.9470 -2.1264
22500SOL     OW70776   2.539   6.549   1.667 -0.2076  0.6066 -0.2643
22500SOL    HW170777   2.555   6.522   1.757 -1.0713  1.7175  0.2591
22500SOL    HW270778   2.446   6.574   1.666  0.1287  1.9389 -1.0863
22501SOL     OW70779   6.815   3.552   0.160  0.3350  0.3208 -0.2943
22501SOL    HW170780   6.725   3.585   0.159  0.4165  0.5974  0.7365
22501SOL    HW270781   6.832   3.529   0.068 -1.3989 -1.4583 -0.2526
22502SOL     OW70782   1.352   3.962   1.905 -0.0688  0.1646  0.6229
22502SOL    HW170783   1.337   4.056   1.895 -0.0057  0.1423  0.3146
22502SOL    HW270784   1.424   3.942   1.845 -0.7927 -0.2714 -0.1230
22503SOL     OW70785   6.986   3.457   2.603  0.2935  0.9079 -0.1890
22503SOL    HW170786   6.991   3.431   2.511  1.6226  0.9967 -0.1693
22503SOL    HW270787   7.003   3.375   2.651  0.4795  1.0256 -0.0512
22504SOL     OW70788   1.225   4.393   1.506 -0.1512 -0.6164 -0.2170
22504SOL    HW170789   1.139   4.434   1.519 -0.7065 -0.9731 -2.4166
22504SOL    HW270790   1.231   4.379   1.412  2.2725 -0.7720 -0.0914
22505SOL     OW70791   9.256  10.115   1.114 -0.3255 -0.4551  0.3887
22505SOL    HW170792   9.182  10.125   1.174 -0.8931  0.3298 -0.4076
22505SOL    HW270793   9.240  10.180   1.045  0.4853 -1.0830 -0.4202
22506SOL     OW70794   4.891   7.128   7.165  0.1878  0.1194 -0.2699
22506SOL    HW170795   4.910   7.046   7.211  0.0605  0.4648  0.4137
22506SOL    HW270796   4.879   7.102   7.074 -2.1112 -0.9964  0.2725
22507SOL     OW70797   0.269  10.513   0.806  0.3488 -0.5242 -0.0171
22507SOL    HW170798   0.274  10.583   0.741 -0.0605 -0.5031 -0.0274
22507SOL    HW270799   0.270  10.432   0.755  0.2887 -0.5139 -0.0335
22508SOL     OW70800   5.802   6.631   2.343  0.0547  0.3949 -0.0899
22508SOL    HW170801   5.833   6.668   2.260 -1.0635  0.7452 -0.3670
22508SOL    HW270802   5.856   6.673   2.409  1.1231 -0.0627 -0.6460
22509SOL     OW70803  10.474   7.077   9.926  0.2225  0.0569 -0.0573
22509SOL    HW170804  10.563   7.067   9.959  0.6774  3.3917  0.0742
22509SOL    HW270805  10.483   7.086   9.832  0.1542  1.2162  0.0341
22510SOL     OW70806   6.454  10.100   8.628 -0.2953  0.2696 -0.0465
22510SOL    HW170807   6.451  10.143   8.543 -1.3004  0.0978 -0.1079
22510SOL    HW270808   6.514  10.027   8.617 -0.6056  0.1088 -0.6731
22511SOL     OW70809   6.197  10.207   3.912 -0.2394 -0.4832 -0.4005
22511SOL    HW170810   6.136  10.239   3.846  0.4447  0.7781 -0.4395
22511SOL    HW270811   6.150  10.135   3.955 -1.4784  0.0176 -0.8808
22512SOL     OW70812   0.842   9.941   1.648  0.1697  0.4146  0.1761
22512SOL    HW170813   0.864   9.985   1.730  0.2165 -0.1802  0.4948
22512SOL    HW270814   0.921   9.944   1.595  0.0291  1.1211  0.0055
22513SOL     OW70815   4.785   4.112   0.460 -0.3402 -0.5075  0.3618
22513SOL    HW170816   4.779   4.069   0.545 -0.8044 -1.2218 -0.0288
22513SOL    HW270817   4.874   4.146   0.457 -1.4298  3.2830  2.9150
22514SOL     OW70818  11.302   6.506   7.615  0.0037 -0.3230  0.0274
22514SOL    HW170819  11.374   6.555   7.574  0.9243 -0.6868  1.1611
22514SOL    HW270820  11.269   6.564   7.683 -0.2394 -0.4743  0.0382
22515SOL     OW70821   0.693   7.151   5.416  0.8106  0.5562 -0.2503
22515SOL    HW170822   0.749   7.174   5.490  0.3129  2.6002 -0.4494
22515SOL    HW270823   0.739   7.079   5.373  1.6034 -0.0067  1.4657
22516SOL     OW70824   5.959   4.879   8.665 -0.7158 -0.3147 -0.0052
22516SOL    HW170825   6.032   4.817   8.668  0.3345  0.9248  0.9112
22516SOL    HW270826   5.914   4.867   8.748 -0.8105 -0.2061 -0.0418
22517SOL     OW70827   2.461   0.542   6.884  0.1172 -0.3401  0.6204
22517SOL    HW170828   2.454   0.633   6.855  0.0031 -0.1865  1.1114
22517SOL    HW270829   2.543   0.538   6.933  0.3922 -0.6367  0.1503
22518SOL     OW70830  11.392   7.149   2.074  0.0889 -0.3840  0.0518
22518SOL    HW170831  11.458   7.111   2.015  1.2169  1.4879  0.0140
22518SOL    HW270832  11.430   7.232   2.101 -1.4046 -0.1762  1.6750
22519SOL     OW70833   8.545   6.769   9.916 -0.2658  0.2159  0.1867
22519SOL    HW170834   8.476   6.770   9.850 -1.3960 -1.6320  1.2580
22519SOL    HW270835   8.609   6.834   9.885 -0.7066 -0.6076 -2.7207
22520SOL     OW70836   1.841   4.254   1.647  0.2135  0.3389 -0.3751
22520SOL    HW170837   1.794   4.191   1.703  1.4012  0.1372  0.4329
22520SOL    HW270838   1.800   4.338   1.666  1.1584  0.4429  1.5469
22521SOL     OW70839   6.302   9.224   9.777 -0.1972  0.3592  0.3584
22521SOL    HW170840   6.398   9.234   9.777 -0.1670  0.3715 -1.1633
22521SOL    HW270841   6.287   9.140   9.733 -0.8931  0.3008  0.7004
22522SOL     OW70842   7.069   0.249   9.411  0.3029  0.3243 -0.3575
22522SOL    HW170843   7.087   0.206   9.327  1.9216 -0.3435  0.2858
22522SOL    HW270844   6.975   0.236   9.425  0.3586 -1.2372 -1.1627
22523SOL     OW70845   9.140   0.931  10.950 -0.4797  0.2718  0.2824
22523SOL    HW170846   9.072   0.962  11.009 -0.9929 -0.2985  0.0017
22523SOL    HW270847   9.165   0.845  10.984  0.0187  0.4236  0.3151
22524SOL     OW70848   2.945   0.550   6.773 -0.0592  0.0489 -0.8717
22524SOL    HW170849   3.029   0.591   6.753  0.3455  0.3469  1.2591
22524SOL    HW270850   2.968   0.462   6.803 -0.1337  1.1526  2.8199
22525SOL     OW70851   4.740   3.961   6.236  0.2173  0.4195 -0.2245
22525SOL    HW170852   4.666   3.919   6.191 -1.5717  1.1300  1.8464
22525SOL    HW270853   4.807   3.893   6.242 -0.1340 -0.1783 -2.3975
22526SOL     OW70854   6.966   3.414   7.729 -0.4235  0.0409 -0.0486
22526SOL    HW170855   6.931   3.503   7.720  0.0455  0.3609  1.1228
22526SOL    HW270856   7.029   3.420   7.801 -0.0335 -1.1420 -0.2690
22527SOL     OW70857   6.578   2.293  10.899 -0.0733  0.0659  0.3696
22527SOL    HW170858   6.662   2.336  10.920  1.2416 -1.6997 -0.9496
22527SOL    HW270859   6.551   2.334  10.816 -1.2679  1.5872  1.4637
22528SOL     OW70860   4.591   5.841   3.307  0.2676  0.4153 -0.1493
22528SOL    HW170861   4.529   5.913   3.301  1.2791  1.2038 -1.6306
22528SOL    HW270862   4.626   5.846   3.396  0.2064  1.6536 -0.1873
22529SOL     OW70863   2.027   3.715   0.859  0.2440  0.0008 -0.1835
22529SOL    HW170864   2.078   3.734   0.938 -0.8262  0.7544  0.3584
22529SOL    HW270865   1.964   3.648   0.886  0.8240 -0.8102 -0.8034
22530SOL     OW70866   3.063   0.634  10.373 -0.4734 -0.0974  0.5948
22530SOL    HW170867   3.082   0.585  10.453 -1.5106 -0.1116  0.8479
22530SOL    HW270868   3.101   0.581  10.303 -0.7469 -0.7871  0.9543
22531SOL     OW70869   2.076   3.953  10.056 -0.0261 -0.0210 -0.2838
22531SOL    HW170870   2.008   4.017  10.034 -1.2952 -1.0870  0.4100
22531SOL    HW270871   2.109   3.923   9.971 -0.8040  0.1173 -0.6418
22532SOL     OW70872   6.161   3.709   9.724  0.0531  0.5386  0.2851
22532SOL    HW170873   6.126   3.681   9.808  0.0734 -0.3682  0.0012
22532SOL    HW270874   6.125   3.797   9.711  0.5271  0.9219  1.4998
22533SOL     OW70875   1.871   6.267   7.250 -0.5788  0.3969 -0.5304
22533SOL    HW170876   1.931   6.213   7.302  1.9691  0.5723 -3.0661
22533SOL    HW270877   1.805   6.205   7.218 -0.1975 -0.3487  0.0991
22534SOL     OW70878   5.451   5.076   1.351 -0.2931  0.4619  0.6184
22534SOL    HW170879   5.431   5.169   1.360  0.1534  0.6578 -0.3190
22534SOL    HW270880   5.388   5.044   1.285  1.4602  0.7803 -1.3155
22535SOL     OW70881   8.257   7.498   8.081  0.6976 -0.1016 -0.9490
22535SOL    HW170882   8.264   7.411   8.043  2.0280 -0.2897 -0.3306
22535SOL    HW270883   8.163   7.513   8.092  0.4497 -1.3584 -1.2597
22536SOL     OW70884   0.832   6.398   9.671  0.0404  0.1771 -0.0532
22536SOL    HW170885   0.745   6.399   9.712 -0.8171 -0.2190 -1.7860
22536SOL    HW270886   0.864   6.488   9.679 -0.1740  0.1668  1.2471
22537SOL     OW70887   8.524   4.708  10.727  0.6420 -0.0919  0.3661
22537SOL    HW170888   8.537   4.766  10.653 -0.4316 -0.4828 -0.1423
22537SOL    HW270889   8.584   4.635  10.712 -0.7512 -1.0017 -1.0209
22538SOL     OW70890   4.836   5.486   2.397  0.4021 -0.2301  0.0767
22538SOL    HW170891   4.756   5.525   2.431  0.5299  0.2434 -0.1631
22538SOL    HW270892   4.832   5.395   2.426  0.0654 -0.0643  0.5748
22539SOL     OW70893   0.213   1.565   1.334 -0.1145 -0.2991 -0.2029
22539SOL    HW170894   0.272   1.495   1.363 -1.3919 -1.4113 -0.1732
22539SOL    HW270895   0.208   1.624   1.408 -1.7679 -2.0623  1.2083
22540SOL     OW70896   9.910  11.198   2.477 -0.0774 -0.4252 -0.2676
22540SOL    HW170897   9.924  11.255   2.402 -0.2396 -0.8985 -0.6631
22540SOL    HW270898   9.817  11.205   2.496 -0.1735 -0.8630 -0.5681
22541SOL     OW70899   9.748   4.230   9.437 -0.4116  0.0765 -0.2375
22541SOL    HW170900   9.681   4.298   9.444 -0.6668 -0.3846  3.8695
22541SOL    HW270901   9.831   4.277   9.452  0.1080  0.2681 -3.0981
22542SOL     OW70902   9.562   8.697   3.963  0.0119  0.1422  0.2802
22542SOL    HW170903   9.628   8.756   3.927 -1.1825  1.8473  0.7491
22542SOL    HW270904   9.577   8.699   4.058  1.3314 -2.0772  0.1740
22543SOL     OW70905   0.832   0.549   4.899 -0.2557  0.7323  0.0258
22543SOL    HW170906   0.833   0.511   4.811 -1.4488 -0.3194  0.4366
22543SOL    HW270907   0.779   0.628   4.890 -0.3263  0.6600 -0.2034
22544SOL     OW70908   4.734   1.546   9.745 -0.5368  0.1344 -0.2416
22544SOL    HW170909   4.649   1.506   9.763 -0.2733 -0.6026 -0.5801
22544SOL    HW270910   4.743   1.541   9.650 -0.9961  2.0686 -0.4120
22545SOL     OW70911   8.357   0.113   1.052 -0.2931 -0.4044  0.4992
22545SOL    HW170912   8.438   0.111   1.000 -0.2237  1.4227  0.4811
22545SOL    HW270913   8.289   0.085   0.991  0.0866 -0.3189  0.0325
22546SOL     OW70914   3.536   4.320  10.435 -0.9050  0.0918 -0.4259
22546SOL    HW170915   3.564   4.247  10.491  0.2908  1.4482  0.8168
22546SOL    HW270916   3.584   4.396  10.468 -2.2485  1.5070 -1.5677
22547SOL     OW70917   2.747   8.340   1.910  0.1912 -0.0472  0.6126
22547SOL    HW170918   2.817   8.371   1.854 -1.3085  1.3520 -0.6047
22547SOL    HW270919   2.678   8.406   1.900 -0.9273 -0.8588  2.4969
22548SOL     OW70920   6.931   6.554   7.789 -0.1388 -0.0717 -0.1405
22548SOL    HW170921   6.975   6.542   7.873 -1.0269 -0.2070  0.3198
22548SOL    HW270922   6.991   6.607   7.738  2.3672 -3.3868 -0.9780
22549SOL     OW70923   0.889  10.125   3.520  0.4565 -0.0332 -0.4061
22549SOL    HW170924   0.886  10.045   3.572  2.5902 -0.2843 -0.5806
22549SOL    HW270925   0.854  10.100   3.435  0.5267 -0.6090 -0.2697
22550SOL     OW70926   2.191  10.596   1.233 -0.6330  0.0205  0.9662
22550SOL    HW170927   2.247  10.523   1.205 -0.6058  0.5980 -0.5430
22550SOL    HW270928   2.253  10.663   1.263 -0.3557  1.1831 -1.9446
22551SOL     OW70929   0.436   5.534   2.956 -0.6331  0.3961  0.4426
22551SOL    HW170930   0.452   5.625   2.980 -1.1271  0.5159  0.3242
22551SOL    HW270931   0.380   5.540   2.878 -0.6318 -0.0064  0.4119
22552SOL     OW70932  10.666   9.748   9.416  0.3804  0.2462 -0.5408
22552SOL    HW170933  10.725   9.682   9.380  0.3239 -1.0182  1.5192
22552SOL    HW270934  10.724   9.813   9.455  0.4775 -0.5565  0.7222
22553SOL     OW70935  11.205  10.730   2.924  0.4038  0.5038  0.1208
22553SOL    HW170936  11.152  10.673   2.980 -2.7254  1.4745 -1.5578
22553SOL    HW270937  11.260  10.779   2.984  0.6997 -1.7760  1.8647
22554SOL     OW70938   4.790  11.059   9.735 -0.2354 -0.0399  0.2235
22554SOL    HW170939   4.751  11.136   9.776 -0.0593 -0.7918  1.8861
22554SOL    HW270940   4.772  10.988   9.796  0.3953 -1.1481 -0.8399
22555SOL     OW70941  10.165   0.676   5.802 -0.3996  0.0857 -0.2554
22555SOL    HW170942  10.172   0.643   5.712  0.5099 -0.9943  0.2021
22555SOL    HW270943  10.139   0.600   5.854  1.2171  0.1693  0.7388
22556SOL     OW70944   6.046  10.702   6.951  0.1679  0.0209  0.3436
22556SOL    HW170945   5.991  10.658   6.886 -0.4695 -0.9051  1.4911
22556SOL    HW270946   6.134  10.700   6.912  0.4922 -3.5708  0.9142
22557SOL     OW70947   2.458   2.332   7.860  0.3623 -0.2434  0.3110
22557SOL    HW170948   2.470   2.246   7.819 -1.6008 -0.1907 -0.4506
22557SOL    HW270949   2.421   2.313   7.946 -1.7584 -0.1568 -0.5284
22558SOL     OW70950   5.166   2.439  10.235  0.0721 -0.2592 -0.1792
22558SOL    HW170951   5.077   2.470  10.251  0.2317 -0.0228  0.2810
22558SOL    HW270952   5.162   2.394  10.151 -0.1621  1.0445 -0.8878
22559SOL     OW70953   9.067   8.176   2.851 -0.3273 -0.3494 -0.0627
22559SOL    HW170954   9.023   8.118   2.789  0.1097 -0.8820  0.1110
22559SOL    HW270955   8.996   8.218   2.900 -0.6799 -2.4847  1.3941
22560SOL     OW70956   2.119   2.857   4.107 -0.5624  0.1808  0.0321
22560SOL    HW170957   2.054   2.803   4.062  0.7694  0.2125 -2.1127
22560SOL    HW270958   2.202   2.812   4.091  0.0796  0.5744  1.9848
22561SOL     OW70959   7.871   7.629   3.989  0.4110  0.1518  0.0298
22561SOL    HW170960   7.951   7.674   4.015  0.1899  1.8628 -1.9311
22561SOL    HW270961   7.819   7.697   3.945 -0.7911 -1.5998 -1.4032
22562SOL     OW70962   5.554   4.597   0.984 -0.3090  0.1416  0.1837
22562SOL    HW170963   5.643   4.586   0.952 -0.6295  1.1718 -1.1630
22562SOL    HW270964   5.505   4.630   0.908 -1.7551 -0.0756  0.9853
22563SOL     OW70965  10.996   1.091   0.031 -1.1190 -0.0553  0.5569
22563SOL    HW170966  10.961   1.125   0.114  0.4912  3.1243  0.0813
22563SOL    HW270967  11.074   1.144   0.014 -0.7121 -1.4022 -2.4390
22564SOL     OW70968  11.241   3.922   7.965  0.1232 -0.5674 -0.4424
22564SOL    HW170969  11.195   3.890   7.887 -2.1758  0.1287  0.5595
22564SOL    HW270970  11.207   4.011   7.978  1.6658 -0.0697  0.4665
22565SOL     OW70971   9.195   6.971   2.452  0.0373 -0.1540 -0.6306
22565SOL    HW170972   9.137   7.030   2.500 -0.4022 -0.6889 -0.4966
22565SOL    HW270973   9.282   6.993   2.483 -0.2756 -0.8120  0.7712
22566SOL     OW70974   4.128   4.171   2.202  0.0448  0.1252  0.2275
22566SOL    HW170975   4.060   4.213   2.149 -0.8267 -0.5092  0.7921
22566SOL    HW270976   4.079   4.114   2.261  1.1921 -2.7271 -1.3820
22567SOL     OW70977   5.350   5.161   4.750 -0.3355  0.6757  0.2825
22567SOL    HW170978   5.348   5.066   4.739 -2.3185  0.6731  0.2702
22567SOL    HW270979   5.330   5.175   4.842  1.8389  1.0754  0.7431
22568SOL     OW70980   9.053   6.840   6.325 -0.4075 -0.6734  0.1715
22568SOL    HW170981   9.082   6.789   6.249  0.0211 -2.8426  1.6700
22568SOL    HW270982   9.133   6.850   6.378 -1.0483 -0.8485  1.1987
22569SOL     OW70983   1.081   7.877   9.316  0.3952  0.1301 -0.4934
22569SOL    HW170984   1.054   7.805   9.375 -1.6502  0.4733 -0.9172
22569SOL    HW270985   1.074   7.840   9.228 -0.7388  0.8316 -0.7198
22570SOL     OW70986  10.240   4.062   4.640  0.2550  0.2979 -0.2126
22570SOL    HW170987  10.146   4.048   4.653  0.0119  0.5020 -1.5951
22570SOL    HW270988  10.261   4.014   4.560  1.4920 -0.3151  0.4579
22571SOL     OW70989  10.577   3.800   6.098  0.1336  0.3152  0.1328
22571SOL    HW170990  10.487   3.768   6.086  0.2559  0.2148 -0.5416
22571SOL    HW270991  10.624   3.724   6.131  0.3662 -0.1494 -1.2281
22572SOL     OW70992   6.032   0.250   1.124  0.3776 -0.3001 -0.1921
22572SOL    HW170993   5.991   0.191   1.187  1.6751 -0.7520  0.2661
22572SOL    HW270994   5.960   0.301   1.088 -0.7583 -2.0421 -0.4779
22573SOL     OW70995   8.115   5.774   7.323  0.4989  0.2479  0.1879
22573SOL    HW170996   8.033   5.741   7.357  1.2030 -0.5974  1.1184
22573SOL    HW270997   8.094   5.805   7.235 -0.9432  0.6796  0.6644
22574SOL     OW70998   5.889  10.624   0.870  0.0788  0.2197 -0.2226
22574SOL    HW170999   5.835  10.702   0.854 -0.9706 -0.8126 -2.1080
22574SOL    HW271000   5.967  10.658   0.913 -0.9724  2.1198  0.3167
22575SOL     OW71001   5.916   4.396   7.215  0.6809  0.2627  0.4320
22575SOL    HW171002   5.924   4.302   7.196 -1.7244  0.3542 -1.6505
22575SOL    HW271003   6.002   4.432   7.194  1.1792 -1.2617 -0.3058
22576SOL     OW71004  10.362  10.829   0.842 -0.2844  0.0159  1.0696
22576SOL    HW171005  10.386  10.762   0.907 -1.3958 -0.3698  1.1094
22576SOL    HW271006  10.436  10.889   0.841  0.9383 -1.4443  0.7376
22577SOL     OW71007   8.568  10.544   7.613 -0.3795 -0.0331 -0.0716
22577SOL    HW171008   8.474  10.534   7.630 -0.2340  2.0598  2.4804
22577SOL    HW271009   8.574  10.621   7.557 -0.1332  0.8140  1.0907
22578SOL     OW71010   6.558   6.930   5.760 -0.1228 -0.0720 -0.0811
22578SOL    HW171011   6.505   7.009   5.760  0.0385  0.0831  1.7005
22578SOL    HW271012   6.646   6.960   5.736  0.1461  0.4886  1.4930
22579SOL     OW71013   6.691   3.330   2.340 -0.2405 -0.2714  0.2674
22579SOL    HW171014   6.709   3.407   2.286 -1.2227  0.7301  1.2920
22579SOL    HW271015   6.770   3.320   2.394  0.3827 -0.7446 -0.6970
22580SOL     OW71016   2.349   4.356   5.825  0.1300 -0.1391 -0.0753
22580SOL    HW171017   2.300   4.438   5.823  0.7506  0.2628  0.5974
22580SOL    HW271018   2.296   4.294   5.774  0.4023  1.0965 -1.9646
22581SOL     OW71019   0.768   2.064   5.727  0.2325  0.0410 -0.4954
22581SOL    HW171020   0.834   2.128   5.752  0.4743 -0.4071  0.0561
22581SOL    HW271021   0.773   1.997   5.795  0.9566 -1.2637 -1.7531
22582SOL     OW71022  10.765   6.150   6.208  0.1802  0.1592  0.2931
22582SOL    HW171023  10.759   6.145   6.304 -1.8834 -1.7546  0.1392
22582SOL    HW271024  10.734   6.238   6.187 -0.2167  0.2895  1.3486
22583SOL     OW71025   9.367   6.720   6.835  0.0802 -0.4485  0.3085
22583SOL    HW171026   9.308   6.795   6.842  0.0081 -0.4509 -0.2311
22583SOL    HW271027   9.402   6.709   6.923 -1.0898 -0.7412  0.7591
22584SOL     OW71028   5.035   3.569  10.731  0.1341  0.3106 -0.1108
22584SOL    HW171029   5.030   3.480  10.695  0.0350  0.2520  0.0459
22584SOL    HW271030   4.969   3.618  10.682 -0.7913 -0.0382  0.7438
22585SOL     OW71031  10.839   7.792   8.405  0.0461  0.2810 -0.0416
22585SOL    HW171032  10.869   7.819   8.492  0.9265  1.4936 -0.6858
22585SOL    HW271033  10.869   7.702   8.397 -1.2180 -0.3282  1.4046
22586SOL     OW71034  11.074   6.389  10.328 -0.3638  0.1096 -0.1644
22586SOL    HW171035  11.103   6.481  10.323  0.4112 -0.1040  0.2544
22586SOL    HW271036  11.147   6.343  10.370 -0.1463 -0.9534 -1.6104
22587SOL     OW71037   2.145   3.519   0.670  0.3456 -0.0895 -0.0713
22587SOL    HW171038   2.157   3.603   0.626 -1.4968 -0.4243 -1.3464
22587SOL    HW271039   2.102   3.541   0.752 -0.2361  0.2392 -0.4518
22588SOL     OW71040   4.386   5.584   0.598  0.1442  0.3327  0.2590
22588SOL    HW171041   4.375   5.652   0.532 -1.8949  0.3605  0.5448
22588SOL    HW271042   4.407   5.631   0.679 -0.3227  0.5577  0.2522
22589SOL     OW71043   1.409   2.207   9.964  0.2180  0.5428  0.6032
22589SOL    HW171044   1.314   2.212   9.975 -0.1553  0.3108 -1.9222
22589SOL    HW271045   1.436   2.298   9.948  0.2350  0.4651  0.1748
22590SOL     OW71046   6.789   9.839   5.989 -0.1341  0.0180 -0.0193
22590SOL    HW171047   6.748   9.764   5.947 -0.2438  1.1968 -2.1319
22590SOL    HW271048   6.855   9.801   6.047 -1.4241 -1.7415  0.3649
22591SOL     OW71049   3.569   1.875   1.322  0.6426 -0.5920  0.0303
22591SOL    HW171050   3.512   1.930   1.269  0.2108 -0.9647  0.1022
22591SOL    HW271051   3.512   1.841   1.392  1.3704  0.5214  1.2204
22592SOL     OW71052   1.808  10.326   5.950  0.3432  0.0508 -0.1215
22592SOL    HW171053   1.805  10.413   5.910 -0.9644 -0.0374 -0.2474
22592SOL    HW271054   1.750  10.333   6.026  1.4050 -0.3016  0.7481
22593SOL     OW71055   6.615  10.768   0.813 -0.1407  0.4349  0.0428
22593SOL    HW171056   6.536  10.790   0.764 -0.3121  1.7120  0.8275
22593SOL    HW271057   6.642  10.683   0.779 -1.8529 -0.0303 -0.2307
22594SOL     OW71058   4.521   4.251  10.126  0.2607 -0.3949 -0.3204
22594SOL    HW171059   4.564   4.247  10.211 -0.9626  1.3817  0.4395
22594SOL    HW271060   4.458   4.180  10.128  1.4108 -1.4529 -0.4675
22595SOL     OW71061   4.517   0.452   9.724  0.5897 -0.1633  0.0963
22595SOL    HW171062   4.515   0.451   9.819  1.1641 -0.1159  0.1141
22595SOL    HW271063   4.524   0.545   9.701 -2.3348  0.1119 -0.0898
22596SOL     OW71064   9.182   8.308  11.266  0.4426  0.0606 -0.1610
22596SOL    HW171065   9.137   8.308  11.182  0.9237 -0.2656 -0.4203
22596SOL    HW271066   9.270   8.340  11.247  0.8929 -1.0097  0.0225
22597SOL     OW71067   9.593   3.920   2.792 -0.2840  0.4956 -0.1973
22597SOL    HW171068   9.509   3.952   2.759 -0.3613 -0.5338 -1.0709
22597SOL    HW271069   9.597   3.830   2.760  0.3523 -0.0457  1.3520
22598SOL     OW71070   5.512   0.559   7.242 -0.0474  0.2959  0.3715
22598SOL    HW171071   5.599   0.538   7.206 -0.0629  1.0003 -0.0892
22598SOL    HW271072   5.518   0.651   7.267 -1.2224  0.8795 -1.3610
22599SOL     OW71073   2.349   7.010   3.284  0.4733 -0.1603  0.2382
22599SOL    HW171074   2.356   6.915   3.278  2.7446 -0.0171 -0.4720
22599SOL    HW271075   2.303   7.036   3.204  0.1612 -0.6260  0.2617
22600SOL     OW71076   7.065   2.133   8.419  0.1233  0.8852 -0.1782
22600SOL    HW171077   7.067   2.140   8.515 -0.3317  1.1673 -0.1827
22600SOL    HW271078   7.156   2.149   8.392  0.3360  0.3709  0.2310
22601SOL     OW71079   9.583   0.040  10.450  0.0148  0.0634 -0.3136
22601SOL    HW171080   9.623   0.121  10.418 -0.1182  0.2650  0.0322
22601SOL    HW271081   9.622   0.026  10.536 -2.3184  1.5007  1.0905
22602SOL     OW71082   9.101  10.559   7.388 -0.0130 -0.0810  0.2353
22602SOL    HW171083   9.024  10.566   7.445 -0.4774 -1.7241 -0.1160
22602SOL    HW271084   9.065  10.531   7.303  0.9562 -0.6676  0.0052
22603SOL     OW71085   7.589   5.907   6.806 -0.2496 -0.9384  0.4008
22603SOL    HW171086   7.671   5.923   6.853  0.8630 -0.5551 -1.5759
22603SOL    HW271087   7.525   5.891   6.875  1.3510 -0.6525  2.0278
22604SOL     OW71088   0.453   5.987   5.143 -0.3271  0.2518 -0.2621
22604SOL    HW171089   0.419   5.985   5.232  1.2002 -2.0018  0.3562
22604SOL    HW271090   0.375   5.989   5.087 -1.3039  3.0796  1.0431
22605SOL     OW71091   7.405   4.543   8.049  0.2164  0.3098 -0.0945
22605SOL    HW171092   7.311   4.524   8.057  0.6094 -1.1918  1.9685
22605SOL    HW271093   7.436   4.480   7.984  0.0624 -0.3903  0.4959
22606SOL     OW71094   0.463   0.194   5.423 -0.4405  0.4838  0.7426
22606SOL    HW171095   0.481   0.123   5.485  0.3464  1.3261  1.4993
22606SOL    HW271096   0.532   0.185   5.357 -0.6293  0.2631  0.5702
22607SOL     OW71097   6.677   7.723   4.528 -0.4395 -0.0013 -0.2734
22607SOL    HW171098   6.595   7.696   4.570  0.6546 -1.1409  1.2643
22607SOL    HW271099   6.694   7.811   4.562 -0.9075  0.1574 -0.4434
22608SOL     OW71100   3.039   1.946   1.172  0.5110  0.8402  0.7115
22608SOL    HW171101   3.069   2.035   1.153  1.0056  0.8933  1.6914
22608SOL    HW271102   3.055   1.934   1.265 -0.2569 -0.0182  0.7512
22609SOL     OW71103   4.088   6.928   3.938  0.0753  0.1854 -0.4755
22609SOL    HW171104   4.025   7.000   3.933 -0.6878 -0.3661  0.7394
22609SOL    HW271105   4.143   6.950   4.013  1.7187  0.9193 -1.8232
22610SOL     OW71106   2.017   0.244   2.040 -0.1463 -0.4167 -0.1394
22610SOL    HW171107   2.094   0.202   2.002 -0.6245 -1.4208 -0.0309
22610SOL    HW271108   1.996   0.191   2.117  0.2499  1.0391  1.0195
22611SOL     OW71109   9.801   4.686   7.754 -0.1628 -0.4706  0.0498
22611SOL    HW171110   9.885   4.707   7.712  0.9801 -0.3244  2.2434
22611SOL    HW271111   9.772   4.606   7.712  1.5663 -1.0393 -0.1319
22612SOL     OW71112  10.882   4.668   1.887 -0.6410  0.2793 -0.1624
22612SOL    HW171113  10.865   4.706   1.801 -0.4563  1.1290  0.1614
22612SOL    HW271114  10.971   4.633   1.881 -0.8542 -0.2092 -0.5000
22613SOL     OW71115  10.261  10.026   9.628  0.5028 -0.5931 -0.1674
22613SOL    HW171116  10.217   9.994   9.707 -1.1680  2.6319  0.3923
22613SOL    HW271117  10.207   9.994   9.556 -0.2891 -0.2684  0.2668
22614SOL     OW71118   9.826   6.048   5.770 -0.4283 -0.0813 -0.3776
22614SOL    HW171119   9.811   5.987   5.699  1.8930 -2.1122  0.7400
22614SOL    HW271120   9.848   5.993   5.845  1.7099  2.0837  0.7323
22615SOL     OW71121   8.998   6.007  11.184 -0.0718  0.3369 -0.4183
22615SOL    HW171122   8.936   5.966  11.123 -0.3647  1.0200 -0.5916
22615SOL    HW271123   9.075   6.026  11.131  0.5599 -1.1168 -0.0533
22616SOL     OW71124   8.916   4.284   9.797  0.1941 -0.4750  0.8130
22616SOL    HW171125   8.942   4.367   9.757  2.4280 -0.6698  1.7041
22616SOL    HW271126   8.889   4.229   9.723  0.6661  0.3695 -0.0077
22617SOL     OW71127   9.749   7.352   2.857  0.0135  0.3621 -0.8707
22617SOL    HW171128   9.745   7.275   2.914 -0.7983  1.0598  0.0438
22617SOL    HW271129   9.766   7.317   2.770  0.6163 -0.7750 -0.3132
22618SOL     OW71130   7.192   3.254   3.973 -0.1898 -0.4945 -0.4567
22618SOL    HW171131   7.204   3.348   3.965 -1.5463 -0.3206 -0.6023
22618SOL    HW271132   7.220   3.234   4.063  0.9515 -0.1167 -0.7095
22619SOL     OW71133   0.953   3.876   4.260  0.1072  0.3436 -0.2144
22619SOL    HW171134   0.989   3.865   4.172  0.4709 -1.4369  0.1247
22619SOL    HW271135   0.859   3.886   4.246  0.2286  0.6921 -0.8337
22620SOL     OW71136   3.187   6.055   6.428 -0.0339 -0.3418  0.0261
22620SOL    HW171137   3.245   5.997   6.380  0.2297 -0.4611  0.4875
22620SOL    HW271138   3.105   6.007   6.434  0.3842 -0.9482  0.9819
22621SOL     OW71139   1.375   1.800   5.598  0.5160 -0.2360  0.5749
22621SOL    HW171140   1.409   1.813   5.687 -2.0314 -0.8196  1.7328
22621SOL    HW271141   1.408   1.715   5.572  1.0398 -0.1990  1.0818
22622SOL     OW71142   3.220   5.950   4.106 -0.2981 -0.3371  0.1157
22622SOL    HW171143   3.306   5.950   4.064 -1.0947 -0.8493 -1.5708
22622SOL    HW271144   3.220   5.869   4.158  0.8112  0.4692  1.4832
22623SOL     OW71145   7.580   1.346   5.177 -0.0277  0.1597  0.4879
22623SOL    HW171146   7.647   1.314   5.117  0.4885  3.2954 -0.8087
22623SOL    HW271147   7.498   1.312   5.143  0.5614 -0.6211 -0.1789
22624SOL     OW71148   4.168   4.727   4.056 -0.1493 -0.4131 -0.1917
22624SOL    HW171149   4.164   4.634   4.080  0.2628 -0.1689  0.8734
22624SOL    HW271150   4.084   4.744   4.013  0.1588 -1.5001 -1.2823
22625SOL     OW71151   6.479   0.005   4.712 -0.5174 -0.6660 -0.3854
22625SOL    HW171152   6.477  -0.039   4.627  0.0468 -2.7084  0.5822
22625SOL    HW271153   6.536   0.080   4.700 -0.3644 -0.9832 -1.7840
22626SOL     OW71154   6.105   2.968  10.645 -0.3932  0.1106 -0.5549
22626SOL    HW171155   6.018   3.007  10.636 -0.6676 -0.2309  0.5000
22626SOL    HW271156   6.146   2.982  10.560 -1.3965  0.4760 -0.9967
22627SOL     OW71157   7.519   6.307   7.737 -0.0332 -0.0603  0.2351
22627SOL    HW171158   7.494   6.371   7.804  0.1792 -0.3701  0.6124
22627SOL    HW271159   7.456   6.236   7.746 -0.0855 -0.0430  0.0169
22628SOL     OW71160   5.768   1.574   8.395  0.3613 -0.4843 -0.0203
22628SOL    HW171161   5.767   1.544   8.486 -2.2972 -0.2331  0.1156
22628SOL    HW271162   5.821   1.509   8.349  0.1141 -1.7281  1.3799
22629SOL     OW71163   9.765   7.190   2.371 -0.4034 -0.0619  0.5520
22629SOL    HW171164   9.676   7.163   2.347 -0.3185  0.8256 -0.8247
22629SOL    HW271165   9.804   7.223   2.290  0.8209  0.5563  1.3539
22630SOL     OW71166   3.604   3.471   9.956  0.3017 -0.3989 -0.4673
22630SOL    HW171167   3.676   3.534   9.951 -0.3844  0.4587  0.2757
22630SOL    HW271168   3.548   3.503  10.027 -1.0589 -0.7812 -1.3229
22631SOL     OW71169   2.746   6.775   1.668  0.1876  0.1978  0.1177
22631SOL    HW171170   2.728   6.689   1.630  1.7121 -0.0901 -0.0048
22631SOL    HW271171   2.683   6.783   1.740  0.3423 -1.2433  0.4419
22632SOL     OW71172   7.134   2.328   8.160 -0.2126 -0.3941  0.2403
22632SOL    HW171173   7.200   2.387   8.195  0.4049 -0.2692 -1.0508
22632SOL    HW271174   7.118   2.265   8.230  0.2113  0.4359  1.0956
22633SOL     OW71175   9.372   8.358   6.952  0.1725 -0.0001 -0.4232
22633SOL    HW171176   9.390   8.444   6.990  0.0194  0.3759 -1.1963
22633SOL    HW271177   9.309   8.318   7.013  0.4973  0.2987  0.1135
22634SOL     OW71178   3.246   5.342   7.128 -0.6482 -0.5195 -0.4111
22634SOL    HW171179   3.159   5.368   7.099 -0.9436 -0.4082  0.5184
22634SOL    HW271180   3.248   5.367   7.221  0.5883  0.0275 -0.5711
22635SOL     OW71181   9.174   0.539   9.312 -0.6552 -0.0449 -0.0644
22635SOL    HW171182   9.136   0.623   9.339  0.0038  0.0908  0.4638
22635SOL    HW271183   9.175   0.543   9.216  2.5000  2.0228 -0.1098
22636SOL     OW71184  10.807   2.219   3.123  0.0707  0.5034 -0.4336
22636SOL    HW171185  10.759   2.223   3.206 -2.6276 -0.7902 -1.7990
22636SOL    HW271186  10.775   2.295   3.074  0.8611  0.6792 -0.6836
22637SOL     OW71187   1.522   3.009   3.144 -0.3368  0.0057 -0.2994
22637SOL    HW171188   1.607   2.977   3.174  0.6917  0.9852 -2.0165
22637SOL    HW271189   1.467   2.930   3.142  1.2612 -1.1644 -1.5066
22638SOL     OW71190   7.702  11.079  11.169  0.3195  0.2158  0.4578
22638SOL    HW171191   7.659  10.996  11.151  1.3137  0.1050 -1.7122
22638SOL    HW271192   7.787  11.055  11.206 -0.0312  0.3534  1.4015
22639SOL     OW71193   1.867   2.538   5.721  0.0736 -0.0274 -0.4373
22639SOL    HW171194   1.951   2.561   5.681 -0.1851  0.1999 -0.8618
22639SOL    HW271195   1.889   2.517   5.812  0.5238  0.5140 -0.4127
22640SOL     OW71196   5.416   3.081   2.116  0.1731 -0.2106 -0.5271
22640SOL    HW171197   5.324   3.073   2.141 -0.0350 -1.1006 -1.4943
22640SOL    HW271198   5.455   3.135   2.184 -0.5628 -1.6719  1.1254
22641SOL     OW71199   3.243   2.389   2.024  0.0594  0.7560 -0.3062
22641SOL    HW171200   3.255   2.349   1.937  1.1431 -1.3351  0.7079
22641SOL    HW271201   3.149   2.395   2.035 -0.1246 -0.1796 -1.1466
22642SOL     OW71202   0.881   5.619   2.563  0.3779 -0.3118  0.2304
22642SOL    HW171203   0.949   5.559   2.593 -0.0119 -0.7273  0.2975
22642SOL    HW271204   0.928   5.698   2.536  1.0799 -1.2894 -1.5519
22643SOL     OW71205   1.152   7.320  10.254  0.4378  0.2848 -0.1489
22643SOL    HW171206   1.170   7.375  10.330  1.2429 -1.3831  0.9252
22643SOL    HW271207   1.225   7.337  10.194  0.9227  0.0721  0.3705
22644SOL     OW71208   7.969   8.467  10.177 -0.1709  0.1103  0.2917
22644SOL    HW171209   7.874   8.465  10.188 -0.4248  1.8405 -1.1256
22644SOL    HW271210   7.983   8.435  10.088  0.5453  0.2004  0.3670
22645SOL     OW71211   2.237   7.017   5.974 -0.4775 -0.3131  0.1928
22645SOL    HW171212   2.190   7.071   6.037 -2.0387 -1.7430  0.3133
22645SOL    HW271213   2.213   7.053   5.889 -2.7907 -1.6836  0.1819
22646SOL     OW71214   3.733   6.871   1.667  0.3518  0.1624  0.5861
22646SOL    HW171215   3.798   6.838   1.729  0.2007  0.3603  0.8530
22646SOL    HW271216   3.679   6.795   1.644  1.3504 -0.2616 -0.4944
22647SOL     OW71217   8.192   6.049  10.585  0.1130 -0.2816  0.3603
22647SOL    HW171218   8.186   6.143  10.565  0.7592 -0.0911  1.0282
22647SOL    HW271219   8.281   6.037  10.617 -0.4254 -0.8487  1.7104
22648SOL     OW71220   2.349   6.773   3.641 -0.2058 -0.3522  0.4687
22648SOL    HW171221   2.302   6.800   3.720 -1.0215 -0.2134 -0.0540
22648SOL    HW271222   2.309   6.690   3.617  1.3408 -1.3929  1.2735
22649SOL     OW71223   8.475   3.727   1.718  0.2298  0.0302  0.0821
22649SOL    HW171224   8.424   3.650   1.743 -0.0867 -0.1207 -0.9503
22649SOL    HW271225   8.432   3.801   1.762 -0.1353 -0.2463  0.1857
22650SOL     OW71226   7.221   9.450   3.593 -0.3703  0.2933  0.1634
22650SOL    HW171227   7.193   9.472   3.681 -0.9960 -0.4800  0.1749
22650SOL    HW271228   7.207   9.355   3.586  1.6662 -0.0359 -0.0568
22651SOL     OW71229   8.368   9.448   7.268 -0.2499  0.2475  0.3990
22651SOL    HW171230   8.279   9.475   7.290 -0.6562 -0.0576 -0.8279
22651SOL    HW271231   8.416   9.530   7.253 -0.3888  0.4003  0.7802
22652SOL     OW71232  10.091  10.269   9.756  0.1725 -0.1694 -0.1540
22652SOL    HW171233  10.036  10.221   9.818  0.7672  1.1142  1.4453
22652SOL    HW271234  10.158  10.206   9.730  0.1361 -0.6365  0.8315
22653SOL     OW71235   4.540   6.639   6.390 -0.4936 -0.0385 -0.0789
22653SOL    HW171236   4.548   6.730   6.363  0.0252 -0.3402 -0.9538
22653SOL    HW271237   4.607   6.628   6.457 -1.3962  0.5511  0.9590
22654SOL     OW71238   5.138   2.357   4.938 -0.5840  0.2466 -0.3573
22654SOL    HW171239   5.221   2.317   4.964 -1.0435 -1.2577 -1.0803
22654SOL    HW271240   5.101   2.393   5.019  0.4378  0.3156  0.0882
22655SOL     OW71241   6.809   2.961  11.200 -0.0114  0.2086 -0.4796
22655SOL    HW171242   6.886   3.007  11.168  0.0275  0.1644 -0.4497
22655SOL    HW271243   6.784   3.007  11.280 -1.3157  1.6155 -1.6384
22656SOL     OW71244   0.818   1.423   4.869  0.3489  0.2010  0.1697
22656SOL    HW171245   0.881   1.352   4.880  0.1132  0.1213  1.1259
22656SOL    HW271246   0.781   1.411   4.782 -1.3600 -2.2136  1.1405
22657SOL     OW71247  10.036   7.227   0.746  0.7321  0.2205  0.2364
22657SOL    HW171248  10.067   7.143   0.711 -0.0280 -0.1876  0.5082
22657SOL    HW271249   9.944   7.211   0.766  0.1754  1.5777 -1.1000
22658SOL     OW71250   7.682  10.144   4.916  0.0681 -0.1837 -0.1222
22658SOL    HW171251   7.761  10.193   4.896  0.1083  0.2059  0.9255
22658SOL    HW271252   7.610  10.204   4.894  0.1170  0.3764  1.1603
22659SOL     OW71253   3.435   8.599   8.513 -0.1307  0.2127 -0.6184
22659SOL    HW171254   3.453   8.673   8.570  0.1635 -0.4835  0.2234
22659SOL    HW271255   3.510   8.597   8.453 -0.7687  1.3466 -1.4896
22660SOL     OW71256   4.440   2.431   3.653  0.2646 -0.6027 -0.1945
22660SOL    HW171257   4.457   2.428   3.747  1.7465 -1.0587 -0.4569
22660SOL    HW271258   4.502   2.368   3.616 -1.2490 -1.4749 -1.3531
22661SOL     OW71259  10.101   3.978   7.024  0.4549  0.7298  0.5629
22661SOL    HW171260  10.121   3.899   7.075 -0.6046 -2.6105 -3.5763
22661SOL    HW271261  10.172   3.983   6.960 -0.8940  1.4660 -0.9425
22662SOL     OW71262   4.037   3.993   3.997  0.2964  0.4856  0.0470
22662SOL    HW171263   4.109   4.021   3.940  1.1708 -3.0151 -0.7933
22662SOL    HW271264   3.960   3.994   3.941  0.4166  0.6749 -0.1163
22663SOL     OW71265  10.375   8.087   5.179  0.1415 -0.9045  0.1215
22663SOL    HW171266  10.445   8.047   5.127  1.0001  1.4898 -0.6813
22663SOL    HW271267  10.304   8.099   5.116  0.7954  1.0277 -0.2929
22664SOL     OW71268   4.450   7.169   4.091 -0.2743  0.0888 -0.2436
22664SOL    HW171269   4.537   7.155   4.055  0.7347 -0.6495  2.2413
22664SOL    HW271270   4.415   7.080   4.103 -1.4402  0.3749 -1.2633
22665SOL     OW71271   9.013  10.437   6.140 -0.1692  0.0557 -0.1510
22665SOL    HW171272   8.961  10.361   6.112  0.6387 -0.5687  0.0133
22665SOL    HW271273   9.000  10.440   6.235 -0.1022  0.0534 -0.1422
22666SOL     OW71274   4.830   6.434   0.824  0.1533  0.0027 -0.5180
22666SOL    HW171275   4.903   6.452   0.763 -0.5672 -0.5507 -1.5785
22666SOL    HW271276   4.850   6.347   0.859 -0.2601 -0.3825 -1.2207
22667SOL     OW71277   8.257   4.069   0.302 -0.3013 -0.1084 -0.0117
22667SOL    HW171278   8.163   4.090   0.302 -0.1586  0.5414  0.1534
22667SOL    HW271279   8.282   4.073   0.394 -0.1177 -0.3429 -0.0502
22668SOL     OW71280   9.403  10.252   2.168 -0.4677 -0.0681  0.0248
22668SOL    HW171281   9.462  10.191   2.125 -1.6302 -0.6940 -0.7486
22668SOL    HW271282   9.317  10.210   2.163 -1.1592  1.2584  0.1942
22669SOL     OW71283   4.449  10.948   2.611 -0.2872 -0.7999 -0.3833
22669SOL    HW171284   4.430  10.925   2.520  1.1695 -0.1143 -0.8884
22669SOL    HW271285   4.475  11.040   2.607 -0.6027 -0.6452  0.8019
22670SOL     OW71286   0.975   6.608   4.700 -0.0575 -0.1925  0.4963
22670SOL    HW171287   0.993   6.549   4.626  0.5004  1.2830 -0.6068
22670SOL    HW271288   1.042   6.586   4.765  1.5228  0.5820 -0.7676
22671SOL     OW71289   1.066   7.637   4.923  0.5022 -0.1406 -0.6954
22671SOL    HW171290   1.041   7.545   4.919 -0.3376 -0.0790  1.5301
22671SOL    HW271291   1.125   7.650   4.849 -1.1621 -1.8722 -2.4293
22672SOL     OW71292   2.183   9.688   8.377  0.2975 -0.2960  0.7155
22672SOL    HW171293   2.117   9.747   8.339 -0.8120 -1.8146  0.1776
22672SOL    HW271294   2.262   9.704   8.325  0.0318  0.7074  0.5908
22673SOL     OW71295   0.540   4.093  11.303 -0.8723  0.5951 -0.3163
22673SOL    HW171296   0.513   4.020  11.359 -0.4006  1.5152  1.1702
22673SOL    HW271297   0.459   4.138  11.282 -1.0941  0.0323 -0.6843
22674SOL     OW71298  10.289   4.828  11.159  0.3104  0.1515 -0.3229
22674SOL    HW171299  10.207   4.813  11.112  0.3158 -1.6652  0.1555
22674SOL    HW271300  10.262   4.845  11.249  0.3776  2.0144 -0.6173
22675SOL     OW71301   9.540   5.058  10.172  0.0614  0.0501  0.1772
22675SOL    HW171302   9.533   5.142  10.219  0.2280  1.2209 -1.7993
22675SOL    HW271303   9.634   5.039  10.171  0.2867  1.0690 -1.3472
22676SOL     OW71304   9.043   9.680   3.462  0.2202 -0.0271  0.0585
22676SOL    HW171305   9.094   9.725   3.529 -1.4597  0.5266  1.0230
22676SOL    HW271306   8.952   9.695   3.487 -0.4315 -1.2087 -1.4448
22677SOL     OW71307   8.918   7.379  10.524  0.7941  0.2125  0.1713
22677SOL    HW171308   8.995   7.375  10.468  0.7219 -3.3742  0.1179
22677SOL    HW271309   8.910   7.291  10.561 -1.3653  1.3664  2.8597
22678SOL     OW71310   6.357   7.765   7.502  0.0441  0.1235  0.0424
22678SOL    HW171311   6.368   7.859   7.489  1.5699 -0.1583 -1.0261
22678SOL    HW271312   6.318   7.756   7.589  0.6277  1.7028  0.4890
22679SOL     OW71313   1.587  10.901   4.431  0.3055  0.1487 -0.3878
22679SOL    HW171314   1.551  10.915   4.518 -0.1007  0.1021 -0.5490
22679SOL    HW271315   1.631  10.984   4.410  0.1429  0.2668 -0.2655
22680SOL     OW71316   4.780   0.378   1.321 -0.4160 -0.6404  0.1203
22680SOL    HW171317   4.776   0.380   1.225 -1.5585  0.9361  0.1543
22680SOL    HW271318   4.719   0.447   1.348  0.9524 -0.0939  1.9625
22681SOL     OW71319   6.203   8.895   6.190 -0.5912  0.1143  0.1323
22681SOL    HW171320   6.195   8.965   6.125  0.1568  0.7572  0.7104
22681SOL    HW271321   6.214   8.941   6.273  2.2896 -0.6208  0.2561
22682SOL     OW71322   3.861  11.384   3.027 -1.0930  0.6669  0.0830
22682SOL    HW171323   3.934  11.352   3.080 -1.1071  2.6148  1.4081
22682SOL    HW271324   3.787  11.389   3.088 -1.6850  0.9700 -0.6376
22683SOL     OW71325   2.545   6.299  10.157 -0.5709 -0.6162  0.5733
22683SOL    HW171326   2.590   6.372  10.198  0.3158 -1.7680  1.7083
22683SOL    HW271327   2.545   6.321  10.063 -0.0857  0.6808  0.8556
22684SOL     OW71328   9.479   9.962   1.742 -0.2513 -0.3582 -0.3028
22684SOL    HW171329   9.545   9.893   1.743  0.6141  0.4052 -1.6478
22684SOL    HW271330   9.474   9.989   1.651 -0.5691  1.3583  0.1927
22685SOL     OW71331   1.977  11.194   8.833  1.0713  0.2632 -0.2614
22685SOL    HW171332   2.017  11.173   8.749  0.3107  0.4047 -0.6695
22685SOL    HW271333   1.954  11.286   8.827 -0.0523 -0.0050 -0.3683
22686SOL     OW71334   8.168   5.956   2.977 -0.6571 -0.4896  0.0998
22686SOL    HW171335   8.203   5.879   3.021  0.1773 -0.3562 -0.3037
22686SOL    HW271336   8.195   6.030   3.032  0.8185 -0.2801 -0.8540
22687SOL     OW71337   5.459  10.927   9.308 -0.0099 -0.8198 -0.3736
22687SOL    HW171338   5.467  10.887   9.395  0.6462 -2.8165 -1.2866
22687SOL    HW271339   5.544  10.912   9.267 -0.5775 -0.6847 -1.6659
22688SOL     OW71340   0.061   9.669  11.276  0.2383  0.1647 -0.3798
22688SOL    HW171341   0.084   9.691  11.185  1.2979  2.3806  0.3424
22688SOL    HW271342   0.119   9.597  11.299 -0.1305 -0.5105 -1.4710
22689SOL     OW71343   7.492   8.048   5.433  0.0218  0.0069 -0.2845
22689SOL    HW171344   7.560   7.982   5.448  0.3265  0.2078 -0.7490
22689SOL    HW271345   7.451   8.060   5.518  1.3808  0.7675  0.3014
22690SOL     OW71346   2.280   1.040  11.325  0.1929  0.3016 -0.4740
22690SOL    HW171347   2.282   1.116  11.383  1.4126 -0.1310  0.0733
22690SOL    HW271348   2.341   0.977  11.364 -1.2392 -1.2383 -0.5622
22691SOL     OW71349   5.504   6.808   9.259  0.7330 -0.1587  0.1320
22691SOL    HW171350   5.528   6.788   9.350  0.3862 -0.8678  0.0732
22691SOL    HW271351   5.573   6.767   9.207  0.8631  0.1407  0.0660
22692SOL     OW71352   8.446   0.400   8.354 -0.2930 -0.3476  0.2457
22692SOL    HW171353   8.352   0.395   8.337 -0.4567 -0.5969  1.1554
22692SOL    HW271354   8.484   0.430   8.272 -1.2625  0.5652  0.1120
22693SOL     OW71355   7.199   3.819   7.414 -0.1296  0.1948 -0.3675
22693SOL    HW171356   7.269   3.792   7.473 -1.4035 -2.8140 -0.0503
22693SOL    HW271357   7.147   3.881   7.465  0.4632 -0.0828  0.5965
22694SOL     OW71358   3.013   0.620   8.287 -0.0803  0.2346  0.2230
22694SOL    HW171359   3.041   0.559   8.355 -2.9709  0.7755  2.0821
22694SOL    HW271360   3.083   0.619   8.223  2.5343 -0.8220  2.8916
22695SOL     OW71361   9.790  10.198  10.173  0.8083  0.4952 -0.3438
22695SOL    HW171362   9.820  10.205  10.263 -0.8125 -0.4047  0.3095
22695SOL    HW271363   9.724  10.268  10.165 -0.0852 -0.3322 -0.3658
22696SOL     OW71364   9.579   7.212   6.421 -0.3326 -0.1881  0.5990
22696SOL    HW171365   9.618   7.144   6.476 -2.1921 -1.0275  0.9504
22696SOL    HW271366   9.605   7.190   6.332  2.1136  0.7728  1.0035
22697SOL     OW71367   4.942   0.112   3.965  0.4174 -0.2615 -0.0939
22697SOL    HW171368   4.860   0.070   3.990 -0.3108  0.8921 -0.4388
22697SOL    HW271369   4.955   0.086   3.873 -0.0394  0.2665 -0.3119
22698SOL     OW71370   9.715   8.318   5.028  0.0446 -0.3204  0.3507
22698SOL    HW171371   9.743   8.395   4.978  0.8654 -0.5247  0.4813
22698SOL    HW271372   9.669   8.353   5.103 -0.3810  0.0182 -0.0639
22699SOL     OW71373  10.519   7.792   4.485  0.4095  0.1073 -0.0582
22699SOL    HW171374  10.479   7.712   4.452 -0.5250  0.0457  1.1435
22699SOL    HW271375  10.559   7.833   4.408 -0.8322 -0.4967 -1.0541
22700SOL     OW71376   9.768   7.616   3.778  0.3331 -0.4538 -0.2923
22700SOL    HW171377   9.735   7.527   3.789 -2.5925  0.5167 -0.4979
22700SOL    HW271378   9.817   7.634   3.858  1.2637 -2.3195 -0.3995
22701SOL     OW71379   8.834   4.741   5.467 -0.3334 -0.2914 -0.4147
22701SOL    HW171380   8.745   4.735   5.431  0.1521  1.1374 -1.9894
22701SOL    HW271381   8.878   4.662   5.435  0.1188  0.9930 -3.2531
22702SOL     OW71382   3.359   1.048   9.275  0.3767 -0.0306  0.0671
22702SOL    HW171383   3.328   1.115   9.336  0.7072 -1.7192  2.2244
22702SOL    HW271384   3.285   1.035   9.215  0.4658  2.4923 -0.7094
22703SOL     OW71385   8.150   7.942   1.056 -0.3562 -0.0391 -0.2403
22703SOL    HW171386   8.217   7.998   1.096  1.7134 -1.1455 -1.9434
22703SOL    HW271387   8.134   7.982   0.970 -1.9297  0.2013  0.1338
22704SOL     OW71388   3.667   0.375   8.244  0.2788  0.4565  0.6054
22704SOL    HW171389   3.663   0.373   8.339 -0.8007  0.5270  0.5729
22704SOL    HW271390   3.576   0.370   8.216  0.4948  1.6350 -0.3935
22705SOL     OW71391   9.566   6.958   1.276  0.1855 -0.0008 -0.5152
22705SOL    HW171392   9.511   6.929   1.203  0.2613  1.6356 -1.2635
22705SOL    HW271393   9.549   7.052   1.283  0.5773 -0.0313  1.2499
22706SOL     OW71394   3.393   3.418   0.369 -0.0279  0.2313  0.2143
22706SOL    HW171395   3.393   3.507   0.405  4.2780  0.6460 -0.2660
22706SOL    HW271396   3.358   3.428   0.280  2.7563  2.1218 -0.8115
22707SOL     OW71397   5.075   0.637   2.763  0.3187 -0.3420  0.1055
22707SOL    HW171398   5.165   0.671   2.754  0.2152  0.5218  1.9040
22707SOL    HW271399   5.020   0.708   2.732  0.2142 -0.8941 -1.0499
22708SOL     OW71400   8.481  10.464   4.312 -0.3535 -0.2688  0.1982
22708SOL    HW171401   8.444  10.422   4.390  0.6644 -1.8279 -0.1132
22708SOL    HW271402   8.424  10.437   4.240 -0.5787  0.1642  0.2073
22709SOL     OW71403   1.784  11.094   2.587 -0.0712  0.4437 -0.1374
22709SOL    HW171404   1.877  11.119   2.581  0.5615 -1.2569  1.4980
22709SOL    HW271405   1.780  11.009   2.543 -0.9889  0.7407 -0.6545
22710SOL     OW71406  10.807   1.541   3.511 -0.6294  0.2905 -0.5192
22710SOL    HW171407  10.765   1.455   3.520  0.4004 -0.1683  0.1122
22710SOL    HW271408  10.764   1.596   3.576  0.4341 -0.4752  0.9004
22711SOL     OW71409   9.191   2.241   9.014 -0.0648  0.0264  0.5731
22711SOL    HW171410   9.146   2.311   9.062  1.4912  2.0496 -0.7305
22711SOL    HW271411   9.278   2.277   8.997  0.9080 -2.3967  0.0919
22712SOL     OW71412   1.561   3.225   8.794  0.0683 -0.1642 -0.4550
22712SOL    HW171413   1.630   3.200   8.733 -0.1498 -0.5275 -0.5509
22712SOL    HW271414   1.600   3.214   8.881 -0.1862 -1.3272 -0.4758
22713SOL     OW71415   0.421   6.680   3.840 -0.3795  0.2721  0.7310
22713SOL    HW171416   0.473   6.603   3.863 -1.6261 -1.3245 -1.3828
22713SOL    HW271417   0.356   6.687   3.910 -0.6471 -1.0252  0.6357
22714SOL     OW71418   0.886   8.146   3.434 -0.8527 -0.3514 -0.1327
22714SOL    HW171419   0.851   8.070   3.386 -1.7396  0.6211 -1.0782
22714SOL    HW271420   0.970   8.164   3.392  2.1215 -3.9487  3.4248
22715SOL     OW71421   1.913   3.305   2.444  0.6933  0.1196  0.6494
22715SOL    HW171422   1.891   3.386   2.397  1.2606  0.0778  0.2911
22715SOL    HW271423   1.872   3.236   2.393  2.7577 -0.1033 -0.8715
22716SOL     OW71424   2.853   5.329   4.879 -0.2894 -0.3557 -0.3081
22716SOL    HW171425   2.848   5.235   4.897 -0.8054 -0.2398  0.1580
22716SOL    HW271426   2.764   5.361   4.893 -0.0097  0.2916  0.0231
22717SOL     OW71427   9.200   4.232   0.666 -0.0209  0.4884 -0.4602
22717SOL    HW171428   9.228   4.224   0.575 -1.9947  0.8917 -1.1539
22717SOL    HW271429   9.239   4.313   0.696  1.0856  0.0832 -0.7622
22718SOL     OW71430  10.729   4.729   5.571  0.2234 -0.0383  0.5523
22718SOL    HW171431  10.722   4.643   5.613 -0.1216  0.1807  0.9425
22718SOL    HW271432  10.681   4.788   5.628 -0.6738  0.1781 -0.3936
22719SOL     OW71433   9.271   5.116   2.191 -0.1610 -0.5961  0.9334
22719SOL    HW171434   9.240   5.084   2.276  1.0942 -0.9906  1.2628
22719SOL    HW271435   9.295   5.037   2.143 -1.0684 -0.3925  0.1011
22720SOL     OW71436   0.733   4.917   4.446  0.8092  0.2151 -0.4882
22720SOL    HW171437   0.779   5.001   4.448 -0.7830  1.1757 -1.9283
22720SOL    HW271438   0.711   4.903   4.354  1.3466 -1.9917 -0.3341
22721SOL     OW71439   7.299   8.791   4.082  0.1705 -0.9967  0.6082
22721SOL    HW171440   7.274   8.796   4.174 -1.8916  2.7563  0.0111
22721SOL    HW271441   7.391   8.820   4.081 -0.1060 -0.0385  1.4184
22722SOL     OW71442   8.671   7.555   5.686 -0.1562  0.3752  0.2007
22722SOL    HW171443   8.603   7.495   5.719  1.7394 -1.2191  1.4221
22722SOL    HW271444   8.721   7.580   5.764 -0.1848  2.6974 -0.4662
22723SOL     OW71445   7.156   3.616   2.733  0.0363  0.8026  0.3825
22723SOL    HW171446   7.114   3.702   2.742 -0.5733  0.5988 -0.3794
22723SOL    HW271447   7.091   3.562   2.689  0.1102 -0.2991  1.5988
22724SOL     OW71448   7.479   8.377   1.402  0.3083 -0.0752  0.2493
22724SOL    HW171449   7.549   8.421   1.353  0.4921 -1.9940 -1.3345
22724SOL    HW271450   7.420   8.344   1.334  0.3196 -2.4550  1.3102
22725SOL     OW71451   4.612   9.166   5.774 -0.2044 -0.4765 -0.4544
22725SOL    HW171452   4.590   9.254   5.802  0.5730 -0.5961  0.6240
22725SOL    HW271453   4.529   9.129   5.742 -0.8645  0.1341  0.4935
22726SOL     OW71454   8.116   7.303  10.247 -0.0079 -0.0084  0.0509
22726SOL    HW171455   8.175   7.348  10.308  0.9193  1.7544 -2.0475
22726SOL    HW271456   8.167   7.228  10.216 -0.3888 -0.7636  1.1755
22727SOL     OW71457   1.059   2.993   0.136  0.0889 -0.6648 -0.2472
22727SOL    HW171458   1.009   3.044   0.072 -0.2470 -1.6108 -0.7568
22727SOL    HW271459   1.092   3.058   0.198 -0.1451  0.1952 -1.0021
22728SOL     OW71460   9.683   0.677   7.741 -0.3004 -0.1695  0.0161
22728SOL    HW171461   9.701   0.702   7.650 -0.2710 -1.6505 -0.4117
22728SOL    HW271462   9.730   0.742   7.793  1.0545 -0.2522 -1.0443
22729SOL     OW71463  10.964  10.037   4.865  0.2321  0.2276 -0.2198
22729SOL    HW171464  10.895   9.994   4.916  1.4755 -2.1828 -0.4556
22729SOL    HW271465  10.974  10.123   4.907 -1.9116  0.1033  0.6786
22730SOL     OW71466   1.729   3.957   9.232 -0.0206 -0.1654  0.3431
22730SOL    HW171467   1.712   3.920   9.146 -0.6868 -0.5649  0.6402
22730SOL    HW271468   1.824   3.968   9.235  0.1034 -1.0663 -0.0612
22731SOL     OW71469   4.530  11.219   5.342  0.8415 -0.2166 -0.2937
22731SOL    HW171470   4.528  11.301   5.292 -0.0989  1.1676  1.8735
22731SOL    HW271471   4.578  11.241   5.422  1.0490 -1.9496  0.0898
22732SOL     OW71472   0.446   3.788  10.816  0.1122 -0.0086  0.4942
22732SOL    HW171473   0.451   3.716  10.878  0.5598 -0.0620  0.3999
22732SOL    HW271474   0.437   3.866  10.870  0.7863 -0.0269  0.6471
22733SOL     OW71475   4.663  10.394   5.925  0.0976 -0.1404  0.0212
22733SOL    HW171476   4.578  10.349   5.930  0.1557 -0.0998  1.8013
22733SOL    HW271477   4.708  10.371   6.006  1.4547  0.5392 -0.5047
22734SOL     OW71478   7.355  10.178   0.527  0.4508 -0.0097 -0.0093
22734SOL    HW171479   7.413  10.254   0.520  2.1168 -1.2649 -0.6695
22734SOL    HW271480   7.334  10.172   0.620  1.2991  0.5374  0.2339
22735SOL     OW71481   6.362   2.043   4.729 -0.5250  0.4357  0.4887
22735SOL    HW171482   6.293   2.107   4.715 -0.2044  0.9126  1.0507
22735SOL    HW271483   6.323   1.978   4.788 -0.9532 -0.0701 -0.3339
22736SOL     OW71484   9.444   9.899   3.622 -0.3170  0.3613 -0.2756
22736SOL    HW171485   9.369   9.957   3.610 -0.0111  0.4735 -1.8798
22736SOL    HW271486   9.433   9.831   3.555  0.2888 -0.4085  0.3826
22737SOL     OW71487   4.103   9.522   5.458  0.7348  0.1832  0.7806
22737SOL    HW171488   4.161   9.598   5.468  0.1161  0.6416  0.9336
22737SOL    HW271489   4.073   9.504   5.547  0.0937  0.3863  0.6072
22738SOL     OW71490   0.925   2.137   9.796  0.2651  0.1248 -0.1451
22738SOL    HW171491   0.925   2.166   9.705  2.7214 -2.7592 -1.2389
22738SOL    HW271492   0.839   2.097   9.808 -0.9302  2.4442 -0.3924
22739SOL     OW71493  10.080   2.949   1.554  0.8174 -0.3265 -0.1979
22739SOL    HW171494  10.145   2.880   1.541 -0.7017 -2.1051  1.1124
22739SOL    HW271495  10.122   3.011   1.613  1.3763 -1.4438  0.6276
22740SOL     OW71496  11.065   9.784   5.283  0.0960 -0.0525  0.7454
22740SOL    HW171497  10.989   9.839   5.297  0.8142  0.7123  1.8094
22740SOL    HW271498  11.071   9.730   5.362 -0.5880 -1.6829 -0.2717
22741SOL     OW71499   9.358   6.575   4.471  0.4526  0.0251  0.3826
22741SOL    HW171500   9.302   6.615   4.538 -0.8016  0.4057 -0.8311
22741SOL    HW271501   9.297   6.541   4.406  1.6212 -0.4134 -0.5282
22742SOL     OW71502   2.481   9.016  10.583  0.3192 -0.1877 -0.1682
22742SOL    HW171503   2.420   8.983  10.518 -0.3623 -0.9698  0.8289
22742SOL    HW271504   2.435   9.006  10.666  1.9969 -1.3278  0.6901
22743SOL     OW71505  10.119   6.241  10.353  0.1037  0.3389  0.2719
22743SOL    HW171506  10.058   6.247  10.426 -0.0174  1.1018  0.1129
22743SOL    HW271507  10.177   6.317  10.364 -0.4790  0.9779 -0.9295
22744SOL     OW71508   5.771   0.959   7.664  0.0865  0.0635  0.8687
22744SOL    HW171509   5.682   0.994   7.663  0.4800  1.1501 -0.9143
22744SOL    HW271510   5.763   0.873   7.622 -0.1457  0.0984  0.8406
22745SOL     OW71511   3.121   6.952   4.749 -1.1641  0.0583 -0.1690
22745SOL    HW171512   3.146   6.875   4.697 -2.3217 -0.4236 -0.0484
22745SOL    HW271513   3.144   6.929   4.839 -1.0038  0.0752 -0.2058
22746SOL     OW71514   8.220   4.556   4.066 -0.4306 -0.2841 -0.1862
22746SOL    HW171515   8.129   4.537   4.043 -0.0937  0.0921 -1.9064
22746SOL    HW271516   8.264   4.569   3.983  0.7892  1.5044  0.6742
22747SOL     OW71517  11.180  11.174   9.326  0.4521 -0.6472  0.0879
22747SOL    HW171518  11.145  11.183   9.415 -0.8753 -2.2797 -0.2196
22747SOL    HW271519  11.235  11.252   9.314 -1.1850  0.8178  1.4893
22748SOL     OW71520   6.181   8.417   6.215  0.6085  0.0114  0.0294
22748SOL    HW171521   6.098   8.381   6.184  0.3786  1.3938 -1.0930
22748SOL    HW271522   6.163   8.510   6.228  1.4599 -0.0367  1.7737
22749SOL     OW71523   0.782   2.835   6.663  0.3206 -0.5077  0.2799
22749SOL    HW171524   0.810   2.867   6.749  0.2441 -2.0428  0.9015
22749SOL    HW271525   0.839   2.761   6.646  1.3801  0.6782 -1.7308
22750SOL     OW71526   2.334   5.485   8.896 -0.1423 -0.5129  0.0868
22750SOL    HW171527   2.291   5.404   8.870 -2.5469  1.1960 -1.6798
22750SOL    HW271528   2.263   5.542   8.924  1.1977  1.7021 -0.7450
22751SOL     OW71529   3.777   9.570   1.254 -0.6026  0.1037  0.0978
22751SOL    HW171530   3.740   9.512   1.321  0.4889 -0.8524 -0.1006
22751SOL    HW271531   3.828   9.511   1.198  0.9469  1.3378  0.1757
22752SOL     OW71532   6.080   7.988   7.838 -0.5389 -0.1784  0.0708
22752SOL    HW171533   6.022   7.945   7.901 -0.5538 -0.8465 -0.3926
22752SOL    HW271534   6.088   8.078   7.870 -1.7334 -0.1061  0.2032
22753SOL     OW71535   0.189  10.711   4.911  0.3416  0.6577  0.2304
22753SOL    HW171536   0.269  10.686   4.864  0.6782  1.2963  0.4613
22753SOL    HW271537   0.203  10.679   5.000  0.2335  0.5563  0.2112
22754SOL     OW71538   8.724   4.231   4.307 -0.2041 -0.4546  0.7646
22754SOL    HW171539   8.771   4.291   4.365 -0.5597  1.3683 -0.7257
22754SOL    HW271540   8.775   4.150   4.311  2.6471  1.1439 -0.1318
22755SOL     OW71541   3.895   5.853   3.273  0.2814 -0.6208 -0.4175
22755SOL    HW171542   3.831   5.783   3.266  0.0490 -0.4819  0.2313
22755SOL    HW271543   3.887   5.902   3.191 -1.8307  0.5596  0.4060
22756SOL     OW71544   2.248   6.404  11.023  0.0102 -0.2008 -0.7583
22756SOL    HW171545   2.283   6.400  10.934  0.4918  0.3044 -0.5954
22756SOL    HW271546   2.174   6.465  11.017 -1.2650 -1.7035 -1.2246
22757SOL     OW71547   5.996   8.740   0.386 -0.2174 -0.0040 -0.8604
22757SOL    HW171548   5.966   8.655   0.419 -0.1965  0.7339  1.1982
22757SOL    HW271549   5.925   8.800   0.409  0.4904  0.8209 -0.7932
22758SOL     OW71550  10.157   3.347   4.612 -0.1658 -0.3440  0.4004
22758SOL    HW171551  10.212   3.413   4.656 -0.1420 -0.1148  0.0298
22758SOL    HW271552  10.068   3.380   4.623 -0.1752 -0.3861  0.4476
22759SOL     OW71553   6.800   1.971   5.350  0.0799 -0.1108  0.2983
22759SOL    HW171554   6.755   2.021   5.281  1.1768  1.4030  0.6349
22759SOL    HW271555   6.757   1.886   5.349 -2.4172  1.0489  0.2004
22760SOL     OW71556   3.068   3.179   1.257 -0.1835  0.0980  0.7474
22760SOL    HW171557   3.009   3.156   1.185 -0.3085 -1.4078  1.2972
22760SOL    HW271558   3.067   3.102   1.314  1.5942  0.4100  1.2570
22761SOL     OW71559   7.550   9.170   2.113  0.1075 -0.2907 -0.2398
22761SOL    HW171560   7.534   9.083   2.076 -0.9821 -0.3409  0.3121
22761SOL    HW271561   7.639   9.166   2.147  1.2058 -0.2183 -2.9048
22762SOL     OW71562   3.874  10.547   9.314  0.3324 -0.3632 -0.0258
22762SOL    HW171563   3.903  10.462   9.282 -1.1072 -1.4499  1.4354
22762SOL    HW271564   3.779  10.545   9.308  0.2489  1.0382  0.3261
22763SOL     OW71565   1.079   1.237   7.809 -0.1293 -0.0960  0.3638
22763SOL    HW171566   1.102   1.245   7.902  1.5231 -1.0591  0.0739
22763SOL    HW271567   0.985   1.254   7.807  0.0961  1.7890  1.9559
22764SOL     OW71568   9.304   9.208   3.839  0.1346 -0.5858  0.1043
22764SOL    HW171569   9.301   9.113   3.838 -0.6475 -0.6134  1.5779
22764SOL    HW271570   9.384   9.230   3.886  0.5695 -0.5017 -0.6664
22765SOL     OW71571   4.473   0.710   2.394 -0.0615  0.3221  0.5020
22765SOL    HW171572   4.380   0.720   2.414 -0.3210 -0.0600 -0.4471
22765SOL    HW271573   4.500   0.633   2.444 -0.1850  0.5978  0.9969
22766SOL     OW71574   8.255  10.247   3.530  0.3277 -0.1585 -0.6399
22766SOL    HW171575   8.310  10.175   3.501  0.1236 -0.8775  0.7092
22766SOL    HW271576   8.306  10.291   3.597 -0.3330 -0.2465 -0.0663
22767SOL     OW71577   2.604   1.901   7.501  0.6830 -0.3423 -0.4937
22767SOL    HW171578   2.516   1.864   7.501  0.7946 -0.6211  0.0704
22767SOL    HW271579   2.591   1.995   7.517  0.4078 -0.1445 -1.7856
22768SOL     OW71580   6.817  11.091   9.787 -0.0915  0.1489  0.4513
22768SOL    HW171581   6.852  11.009   9.822  1.1447 -0.8090 -2.6445
22768SOL    HW271582   6.801  11.072   9.694 -2.3439  2.6605  0.2255
22769SOL     OW71583   3.264  10.413   4.534  0.0097  0.2371 -0.0115
22769SOL    HW171584   3.185  10.466   4.542  0.4433  0.7941  0.6900
22769SOL    HW271585   3.235  10.333   4.490 -1.3418 -0.3816  1.8565
22770SOL     OW71586   9.898  10.677   4.693 -0.5913  0.3947  0.0377
22770SOL    HW171587   9.822  10.678   4.751 -0.2264  1.3722  0.5156
22770SOL    HW271588   9.925  10.768   4.687  0.2099  0.1280 -0.5741
22771SOL     OW71589   0.084   3.243  10.582 -0.0580 -0.0264 -0.6252
22771SOL    HW171590   0.056   3.277  10.668  0.0798  1.8310 -1.2696
22771SOL    HW271591   0.130   3.317  10.541  0.6264 -1.1590 -1.9642
22772SOL     OW71592  10.755   2.668   0.994  0.0222  0.2093 -0.2422
22772SOL    HW171593  10.752   2.582   0.953 -0.7498  0.8224 -1.5561
22772SOL    HW271594  10.809   2.720   0.934  1.6407  0.3297  1.2248
22773SOL     OW71595   3.246   0.592   8.122 -0.3946 -0.0106  0.2938
22773SOL    HW171596   3.259   0.686   8.110 -0.3687 -0.0209  0.2406
22773SOL    HW271597   3.260   0.555   8.035  1.4339 -0.2871  0.6628
22774SOL     OW71598   2.956   4.393   7.374 -0.0643  0.1776  0.0443
22774SOL    HW171599   3.050   4.407   7.361  0.1214 -1.6335 -1.0071
22774SOL    HW271600   2.918   4.413   7.288 -0.4199 -0.5651  0.0229
22775SOL     OW71601   0.559   8.549   7.377  0.1429 -0.1774  0.3455
22775SOL    HW171602   0.479   8.535   7.428  0.3308 -0.3576  0.5943
22775SOL    HW271603   0.617   8.479   7.404  0.8751  0.7082  1.1632
22776SOL     OW71604   2.081   2.320   1.846 -0.2162 -0.2830  0.5226
22776SOL    HW171605   2.068   2.377   1.770  1.1956 -1.3873 -0.6215
22776SOL    HW271606   2.015   2.251   1.836  0.6069 -0.9807 -0.3036
22777SOL     OW71607   4.598   7.438   1.288 -0.0728 -0.5813  0.0252
22777SOL    HW171608   4.683   7.483   1.285 -0.7540  0.7295 -0.7747
22777SOL    HW271609   4.541   7.491   1.232 -0.9994 -2.3430 -0.7738
22778SOL     OW71610   9.420   0.427   9.456  0.6993 -0.1662  0.0794
22778SOL    HW171611   9.366   0.439   9.534  1.8701  0.3242  0.8411
22778SOL    HW271612   9.357   0.413   9.386 -0.4148  0.3039  0.9475
22779SOL     OW71613   8.150   2.804   0.578 -0.0665 -0.5476 -0.0687
22779SOL    HW171614   8.109   2.860   0.512 -2.0133 -0.2624  1.2855
22779SOL    HW271615   8.193   2.865   0.638  2.5062 -0.8466 -1.4754
22780SOL     OW71616   6.894  10.141   2.194  0.3015 -0.2741 -0.6781
22780SOL    HW171617   6.838  10.063   2.198  0.0986 -0.0840  0.4209
22780SOL    HW271618   6.968  10.120   2.250  0.4899  0.1308 -0.7765
22781SOL     OW71619   0.282   2.944   6.686  0.0713  0.4839  0.4649
22781SOL    HW171620   0.373   2.914   6.687  0.4898  1.7004  0.2920
22781SOL    HW271621   0.238   2.888   6.750  0.5388 -1.2712 -0.6687
22782SOL     OW71622   6.866   8.133   7.244  0.2626  0.3859  0.1738
22782SOL    HW171623   6.777   8.104   7.266  0.8952 -0.5764  1.6412
22782SOL    HW271624   6.853   8.214   7.194 -1.4395  0.9527  1.4099
22783SOL     OW71625   0.980   8.073   3.693 -0.0829 -0.1000  0.3788
22783SOL    HW171626   0.929   8.084   3.613  2.3520 -0.1427 -1.2738
22783SOL    HW271627   0.983   8.161   3.731  1.0611  0.5442 -1.1116
22784SOL     OW71628   0.769   5.126   9.896  0.2479  0.3354 -0.0525
22784SOL    HW171629   0.853   5.115   9.940 -0.4628 -0.9989  1.0533
22784SOL    HW271630   0.790   5.171   9.814  2.0371 -0.0944  0.1342
22785SOL     OW71631   8.526   9.616   5.325 -0.4445  0.4319  0.1922
22785SOL    HW171632   8.469   9.541   5.308  0.5583  0.0978 -2.1257
22785SOL    HW271633   8.487   9.688   5.275 -0.0546  0.7826  0.3860
22786SOL     OW71634  11.382   3.234   8.551  0.4746  0.0784 -0.1792
22786SOL    HW171635  11.318   3.220   8.481  0.4913  0.9485 -0.3745
22786SOL    HW271636  11.329   3.243   8.630  0.4313 -0.4363 -0.1420
22787SOL     OW71637   0.354   5.944   0.968  0.0396 -0.3130  1.0161
22787SOL    HW171638   0.263   5.922   0.945 -0.3955  1.0435  1.3605
22787SOL    HW271639   0.358   6.039   0.963  1.3785 -0.3350  1.2979
22788SOL     OW71640   3.067  11.030   3.867 -0.3470  0.0814  0.0331
22788SOL    HW171641   3.096  10.990   3.949  0.8036  1.4651  0.3455
22788SOL    HW271642   2.978  11.060   3.885  0.2715  1.3515  1.1862
22789SOL     OW71643   3.321   1.232   2.472  0.4528  0.2653 -0.1598
22789SOL    HW171644   3.251   1.236   2.538  1.2988 -0.7935  0.8273
22789SOL    HW271645   3.326   1.140   2.448  2.5041  0.0605  0.8883
22790SOL     OW71646  11.119   5.666   6.821 -0.3898  0.5006  0.4430
22790SOL    HW171647  11.033   5.640   6.788  0.3273 -0.4559 -0.7611
22790SOL    HW271648  11.109   5.758   6.846 -2.2339 -0.0754  2.0850
22791SOL     OW71649   7.847   8.478   2.481  0.2530 -0.2394  0.1203
22791SOL    HW171650   7.904   8.442   2.413  0.4517 -1.6897  1.0148
22791SOL    HW271651   7.777   8.522   2.432  0.6160 -0.8866 -1.0139
22792SOL     OW71652   6.884   9.181  11.093 -0.1719  0.1857  0.1256
22792SOL    HW171653   6.929   9.166  11.176  0.0051  2.2598  0.4550
22792SOL    HW271654   6.802   9.223  11.117 -0.9089 -0.7274 -0.6757
22793SOL     OW71655   0.090   4.320   4.733 -0.3078  0.1203  0.1312
22793SOL    HW171656   0.020   4.376   4.767 -0.5609  0.5321 -1.0090
22793SOL    HW271657   0.162   4.380   4.715 -0.5198  0.0773 -0.9338
22794SOL     OW71658   5.890   3.962   6.987 -0.3668 -0.1069  0.1978
22794SOL    HW171659   5.865   3.949   6.895  1.0083 -0.5264 -0.1458
22794SOL    HW271660   5.816   4.007   7.026 -1.5443 -1.1268 -0.7924
22795SOL     OW71661   5.766   4.607   6.994 -0.0370 -0.1762  0.2677
22795SOL    HW171662   5.809   4.522   6.990 -0.2801 -0.2988  0.2213
22795SOL    HW271663   5.674   4.589   6.972 -0.2937 -0.0495  1.1892
22796SOL     OW71664   0.841   9.032   4.989 -0.1749 -0.0650 -0.1942
22796SOL    HW171665   0.824   9.017   5.082 -1.7932  2.0173 -0.0742
22796SOL    HW271666   0.806   8.955   4.945  0.1507 -0.8463  0.8668
22797SOL     OW71667   1.654   5.002   4.957  0.1729  0.7257  0.2557
22797SOL    HW171668   1.619   4.994   4.868 -0.0181 -0.3878  0.4136
22797SOL    HW271669   1.651   5.096   4.976 -2.2319  0.7296  0.0825
22798SOL     OW71670   6.805   3.966   3.668 -0.5556  0.5682  0.6517
22798SOL    HW171671   6.774   4.019   3.595  0.8319 -0.2986 -0.6112
22798SOL    HW271672   6.847   3.890   3.627  0.2136  0.0272  2.3499
22799SOL     OW71673  10.100   1.479   1.098 -0.8960  0.0103 -0.4228
22799SOL    HW171674  10.096   1.540   1.025  0.5857 -0.7592 -1.1989
22799SOL    HW271675  10.194   1.462   1.110 -1.1694 -0.5508  1.0843
22800SOL     OW71676   1.586  10.228   0.736  0.2985  0.3923 -0.1526
22800SOL    HW171677   1.566  10.241   0.643  0.4484  0.8188 -0.1275
22800SOL    HW271678   1.580  10.133   0.749 -1.7832  0.4911 -0.1309
22801SOL     OW71679   5.512   9.081   4.735  0.0533 -0.7464 -0.1274
22801SOL    HW171680   5.512   8.985   4.726 -0.3474 -0.6080 -1.9403
22801SOL    HW271681   5.468   9.097   4.818 -2.2058 -2.0876 -0.9714
22802SOL     OW71682   5.723  10.902   6.823 -0.7526 -0.0725  0.5754
22802SOL    HW171683   5.759  10.832   6.769  1.9327  2.3555 -1.1006
22802SOL    HW271684   5.688  10.858   6.900 -0.8433 -3.3434 -1.1682
22803SOL     OW71685   9.542   6.034   5.870 -0.2808 -0.0941  0.0800
22803SOL    HW171686   9.483   6.057   5.942 -0.0575  1.5574 -0.2203
22803SOL    HW271687   9.624   6.078   5.890 -0.4025  0.9322 -1.4540
22804SOL     OW71688   6.811   8.386   7.141 -0.2573 -0.2022 -0.5945
22804SOL    HW171689   6.807   8.418   7.231 -0.0586  0.1898 -0.7216
22804SOL    HW271690   6.822   8.465   7.088 -0.7384 -0.4001 -0.9938
22805SOL     OW71691   9.368   6.172   7.681 -0.3408  0.2413 -0.3944
22805SOL    HW171692   9.350   6.262   7.708  1.3174  0.0898  1.3851
22805SOL    HW271693   9.463   6.165   7.683 -0.4806 -1.8757  0.6416
22806SOL     OW71694   3.468   7.472   4.336  0.3728  0.7577  0.1463
22806SOL    HW171695   3.470   7.564   4.362 -1.4429  0.1146  3.0403
22806SOL    HW271696   3.486   7.423   4.417  0.9034 -1.4532 -1.2163
22807SOL     OW71697   2.345   0.357   1.855 -0.0533  0.0618  0.1533
22807SOL    HW171698   2.323   0.278   1.903 -2.4451  0.7295  0.2881
22807SOL    HW271699   2.405   0.328   1.786  1.6578 -1.2812  2.1155
22808SOL     OW71700   8.361   4.036   8.090  0.5659  0.2439 -0.0391
22808SOL    HW171701   8.312   3.967   8.137  0.7939 -1.0441 -1.6188
22808SOL    HW271702   8.301   4.065   8.021  0.2531  2.0959  0.9448
22809SOL     OW71703   8.811   3.829   0.031 -0.1148 -0.1487 -0.1208
22809SOL    HW171704   8.801   3.817   0.125  1.2189 -0.5195  0.0002
22809SOL    HW271705   8.877   3.898   0.023 -0.2857 -0.0570 -0.7748
22810SOL     OW71706   0.676   6.271   9.298 -0.4783 -0.0917 -0.1091
22810SOL    HW171707   0.602   6.307   9.348 -0.5250 -0.4113  0.0505
22810SOL    HW271708   0.696   6.188   9.340  0.1666  0.1251  0.0279
22811SOL     OW71709   5.015   0.863   2.353 -0.9533 -0.6002  0.0309
22811SOL    HW171710   5.083   0.844   2.289 -1.4168 -1.3255 -0.2574
22811SOL    HW271711   4.937   0.881   2.300 -0.9778  0.2874  0.3558
22812SOL     OW71712   4.826   2.132   8.697 -0.1924  0.3809  0.3360
22812SOL    HW171713   4.811   2.201   8.632 -0.6747  2.1655  2.2405
22812SOL    HW271714   4.755   2.144   8.761 -0.0111 -1.6169  0.9763
22813SOL     OW71715   5.373   1.526   9.441  0.0845 -0.4022 -0.1137
22813SOL    HW171716   5.298   1.585   9.428 -0.8705 -1.2381  1.3957
22813SOL    HW271717   5.443   1.565   9.387 -1.2800  0.6379 -1.2173
22814SOL     OW71718   2.201   5.625   2.580 -0.2280 -0.3765 -0.9132
22814SOL    HW171719   2.210   5.577   2.662  1.3446  1.4433  0.0426
22814SOL    HW271720   2.152   5.704   2.603 -0.4411 -0.1988 -1.9020
22815SOL     OW71721  11.319   3.369   5.367  0.9613  0.3059 -0.8066
22815SOL    HW171722  11.228   3.381   5.339  1.4019  2.2657 -1.5830
22815SOL    HW271723  11.313   3.333   5.455 -0.6061  1.4156 -0.4099
22816SOL     OW71724   3.010   2.816   4.233  1.0046 -0.4203 -0.5272
22816SOL    HW171725   2.964   2.891   4.196 -0.2566 -0.4873  0.8003
22816SOL    HW271726   3.087   2.852   4.275  1.5047 -0.1394 -1.6601
22817SOL     OW71727   0.167   7.117   6.013 -0.3499 -0.1871 -0.0385
22817SOL    HW171728   0.200   7.083   5.930 -2.1223  1.0869 -1.3236
22817SOL    HW271729   0.246   7.142   6.062  0.7024 -0.3837 -1.5773
22818SOL     OW71730   3.973  11.136   1.709  0.3764  0.0044 -0.1509
22818SOL    HW171731   3.973  11.203   1.641  2.4488  0.9849  0.7258
22818SOL    HW271732   4.048  11.080   1.688  0.7174 -0.0009  1.0066
22819SOL     OW71733   5.797  10.632   1.246 -0.1800 -0.0590 -0.1158
22819SOL    HW171734   5.809  10.541   1.271  1.5773 -0.2485 -1.4536
22819SOL    HW271735   5.877  10.655   1.198 -0.7827  2.0418 -0.2310
22820SOL     OW71736   0.886   5.875   0.963 -0.4008  0.3079 -0.1934
22820SOL    HW171737   0.941   5.849   1.037  1.2962  0.1207 -1.4522
22820SOL    HW271738   0.804   5.829   0.976  0.2768 -0.6167  0.9713
22821SOL     OW71739   4.612   4.031   2.111  0.1826  0.6798  0.0473
22821SOL    HW171740   4.617   4.126   2.115  0.0548  0.7060 -0.3502
22821SOL    HW271741   4.703   4.003   2.099  0.1071  0.8156 -0.9194
22822SOL     OW71742   5.611   2.284   0.218  0.1598 -0.2478  0.0677
22822SOL    HW171743   5.630   2.196   0.185  1.6421  0.5459 -1.2968
22822SOL    HW271744   5.580   2.332   0.142  0.7329  0.8020  0.4774
22823SOL     OW71745   4.735   3.306   7.785 -0.3885  0.0660 -0.1420
22823SOL    HW171746   4.825   3.327   7.810 -0.6973  0.5506  0.6168
22823SOL    HW271747   4.682   3.373   7.828 -1.2223 -0.9066  0.3930
22824SOL     OW71748   4.166   4.109   8.935  0.1961  0.3171 -0.0204
22824SOL    HW171749   4.150   4.034   8.877 -0.8939  1.4546 -1.2595
22824SOL    HW271750   4.238   4.081   8.991  1.4880 -0.7796 -2.0992
22825SOL     OW71751   8.474   3.020   3.525 -0.1837  0.1433  0.8989
22825SOL    HW171752   8.418   3.041   3.600 -1.1531  2.0312 -0.2718
22825SOL    HW271753   8.414   2.983   3.460  0.3763 -0.0907  0.5125
22826SOL     OW71754   4.966   8.541   4.824  0.5645  0.0443 -0.3644
22826SOL    HW171755   4.912   8.487   4.882 -1.2667  0.2009 -1.8494
22826SOL    HW271756   5.054   8.537   4.863 -0.1704 -1.4683  1.2733
22827SOL     OW71757   8.012   3.313   4.845 -0.1259 -0.1247 -0.4854
22827SOL    HW171758   8.060   3.292   4.765 -0.4211 -1.9172 -0.2480
22827SOL    HW271759   7.924   3.276   4.830 -0.6523  0.8670  0.0698
22828SOL     OW71760   2.093   9.291   4.603  0.2715  0.0901 -0.4119
22828SOL    HW171761   2.172   9.239   4.610  2.7833  3.4831 -0.7029
22828SOL    HW271762   2.068   9.287   4.511  0.3052 -0.6786 -0.3908
22829SOL     OW71763   1.216   0.759  10.000  0.6784 -0.2833 -0.0460
22829SOL    HW171764   1.182   0.848   9.996  0.3300 -0.4721 -1.6633
22829SOL    HW271765   1.245   0.749  10.091 -4.4738 -0.4398  1.9286
22830SOL     OW71766   9.361   5.668   1.313  0.1192 -0.4890  0.6000
22830SOL    HW171767   9.374   5.625   1.398  0.2268 -0.1104  0.7809
22830SOL    HW271768   9.371   5.762   1.332  0.5848 -0.4307  0.0867
22831SOL     OW71769   2.094   1.080   6.804 -0.3877 -0.1686  0.0463
22831SOL    HW171770   2.185   1.099   6.780 -0.5396  0.7598  0.1853
22831SOL    HW271771   2.100   1.055   6.897 -0.1950 -0.7689 -0.1225
22832SOL     OW71772  11.256   3.574   5.639  0.1236  0.5055  0.3470
22832SOL    HW171773  11.181   3.608   5.590 -0.3569 -1.8063 -0.7016
22832SOL    HW271774  11.218   3.514   5.703  0.9669  1.1748  1.5213
22833SOL     OW71775   0.201   6.820   6.008  0.3277  0.4334  0.0057
22833SOL    HW171776   0.213   6.794   6.099  2.7409 -0.1128 -0.4160
22833SOL    HW271777   0.112   6.856   6.005  0.0806  0.1733  2.4845
22834SOL     OW71778   9.031  10.675   1.524  0.2839  0.1006 -0.1385
22834SOL    HW171779   8.955  10.625   1.495 -0.1647  1.1842 -0.8884
22834SOL    HW271780   9.013  10.695   1.615  0.0372 -0.3149 -0.0930
22835SOL     OW71781   7.108   5.636   2.972  0.0738  0.2199 -0.2927
22835SOL    HW171782   7.028   5.591   3.000  0.7884 -0.7093  0.3220
22835SOL    HW271783   7.077   5.709   2.919 -1.2025  0.1093  0.2568
22836SOL     OW71784   0.173   8.618   9.757 -0.1640  0.3362 -0.6429
22836SOL    HW171785   0.152   8.557   9.686 -0.0151 -0.0794 -0.3301
22836SOL    HW271786   0.262   8.594   9.783 -0.3096  0.3290 -0.1498
22837SOL     OW71787   8.107  10.097   8.708 -0.0270  0.3007 -0.2144
22837SOL    HW171788   8.031  10.050   8.675  0.2724 -1.3575  1.2571
22837SOL    HW271789   8.178  10.033   8.705  0.8157  1.1775  0.3110
22838SOL     OW71790   8.374   7.245   4.147  0.1525  0.1954 -0.1236
22838SOL    HW171791   8.321   7.302   4.092 -0.3110 -0.3012 -0.1988
22838SOL    HW271792   8.320   7.167   4.162  0.1511  0.4313  1.2636
22839SOL     OW71793   9.917   8.581   3.841  0.1884  0.1147 -0.2983
22839SOL    HW171794   9.833   8.544   3.866 -0.1405  0.1043 -1.3941
22839SOL    HW271795   9.963   8.594   3.924 -0.5416 -0.7030  0.2450
22840SOL     OW71796   2.203   8.630   4.256  0.2458 -0.1701  0.1486
22840SOL    HW171797   2.234   8.542   4.279 -0.1673 -0.3396  0.0803
22840SOL    HW271798   2.108   8.624   4.264  0.1522  0.0342 -0.6561
22841SOL     OW71799   3.847   4.313   7.544  0.0027 -0.1127 -0.0472
22841SOL    HW171800   3.798   4.334   7.465 -1.2610  0.3192  0.8094
22841SOL    HW271801   3.939   4.325   7.520 -0.2686 -1.1467 -1.7679
22842SOL     OW71802   3.704  10.351   7.219  0.4349 -0.1739 -0.2403
22842SOL    HW171803   3.740  10.309   7.297  2.4248  1.6558 -0.0604
22842SOL    HW271804   3.779  10.359   7.159 -0.0096  2.2083 -0.5943
22843SOL     OW71805   3.300   9.980   6.963  0.2223  0.3454  0.3298
22843SOL    HW171806   3.317  10.055   6.905 -1.2967 -0.3958 -1.1655
22843SOL    HW271807   3.381   9.970   7.014  0.0056  3.8512  1.6422
22844SOL     OW71808   0.402   0.912   2.304  0.2014  0.4028 -0.6866
22844SOL    HW171809   0.375   0.821   2.297  0.5635  0.1984  0.3818
22844SOL    HW271810   0.357   0.956   2.232  1.2696 -0.8884 -2.2193
22845SOL     OW71811   8.262   6.183   3.146  0.3149 -0.5036  0.4788
22845SOL    HW171812   8.356   6.195   3.151  0.3850  0.1914 -1.6711
22845SOL    HW271813   8.236   6.157   3.235  2.2577  1.0222  1.5561
22846SOL     OW71814   7.806   4.124   1.648 -0.4464  0.2243 -0.0499
22846SOL    HW171815   7.900   4.110   1.653 -0.4411  0.4605  0.6655
22846SOL    HW271816   7.781   4.153   1.736 -0.9482  1.6140 -0.6317
22847SOL     OW71817   8.516   6.579   8.307  0.6127  0.0766 -0.2802
22847SOL    HW171818   8.611   6.570   8.307  0.6740  0.5334 -1.3546
22847SOL    HW271819   8.485   6.506   8.360  1.6218  0.8012  1.3922
22848SOL     OW71820   8.678   7.469   8.793 -0.6924 -0.2443  0.1217
22848SOL    HW171821   8.711   7.394   8.842  0.0854  0.3842  0.5899
22848SOL    HW271822   8.735   7.542   8.819  0.5863 -0.1343 -2.6418
22849SOL     OW71823   2.920   9.323   8.595 -0.0331 -0.2759 -0.8455
22849SOL    HW171824   2.989   9.299   8.534  0.1638 -1.5258 -0.1714
22849SOL    HW271825   2.898   9.241   8.640  0.0186  0.6365  0.9297
22850SOL     OW71826  11.216  10.914  11.143 -0.3197 -0.2096  0.1151
22850SOL    HW171827  11.212  10.937  11.050 -1.0522  2.4034  0.6960
22850SOL    HW271828  11.132  10.943  11.179  0.3616 -0.1711  1.7926
22851SOL     OW71829   4.313   7.665   2.158 -0.4510 -0.3843 -0.0690
22851SOL    HW171830   4.326   7.618   2.075 -2.4495  2.0893 -1.9364
22851SOL    HW271831   4.280   7.599   2.218 -0.3159 -1.9881 -1.6588
22852SOL     OW71832   2.487   9.871   1.107 -0.4569 -0.2807  0.1252
22852SOL    HW171833   2.425   9.897   1.175 -1.4407 -1.9102 -0.1049
22852SOL    HW271834   2.440   9.887   1.025  0.0730  0.0457 -0.1215
22853SOL     OW71835   7.370   7.713   5.877 -0.2104  0.0986  0.6992
22853SOL    HW171836   7.463   7.695   5.893 -0.0823  0.5019  0.4372
22853SOL    HW271837   7.361   7.807   5.893 -0.4732  0.1514  0.2621
22854SOL     OW71838  10.941   9.509   6.319  0.0073  0.0385 -0.3310
22854SOL    HW171839  10.924   9.543   6.406 -0.9136  0.0970 -0.5289
22854SOL    HW271840  10.859   9.467   6.293  0.5419 -0.7326 -0.8249
22855SOL     OW71841   5.324   4.408   0.191  0.3050  0.3660  0.0287
22855SOL    HW171842   5.377   4.450   0.124  0.1070  1.0150  0.2724
22855SOL    HW271843   5.371   4.425   0.273 -0.8177  1.9251  0.4021
22856SOL     OW71844   5.812  10.693   0.361 -0.3726 -0.3046 -0.1092
22856SOL    HW171845   5.848  10.779   0.337 -0.0725 -0.4805 -0.2925
22856SOL    HW271846   5.868  10.663   0.432 -1.1759  0.1547  0.7497
22857SOL     OW71847   6.297   9.799  11.161 -0.2504 -0.3879 -0.0649
22857SOL    HW171848   6.318   9.891  11.152 -1.8612  0.1170  0.8493
22857SOL    HW271849   6.201   9.796  11.155 -0.1962 -2.0791 -0.6687
22858SOL     OW71850   5.460   8.486   3.953  0.2169  0.3618 -0.4294
22858SOL    HW171851   5.403   8.563   3.950 -0.0190  0.3051  1.2427
22858SOL    HW271852   5.449   8.444   3.868 -2.5212  0.1700 -0.0661
22859SOL     OW71853   4.690  10.157   3.663  0.4570 -0.2921 -0.1418
22859SOL    HW171854   4.600  10.190   3.665  0.2938 -0.7720  0.8599
22859SOL    HW271855   4.729  10.198   3.586  0.1548  1.9292  0.8201
22860SOL     OW71856  10.475   4.940   1.569 -0.0042  0.0152 -0.0824
22860SOL    HW171857  10.501   4.852   1.541 -1.5176 -0.9887  1.4914
22860SOL    HW271858  10.543   4.966   1.631  0.3577 -0.0960 -0.4254
22861SOL     OW71859   5.792   5.708   0.100  0.2649  0.6983 -0.1358
22861SOL    HW171860   5.729   5.639   0.118  0.3451  0.8739  0.8353
22861SOL    HW271861   5.860   5.697   0.167  2.1663 -0.5478 -2.1275
22862SOL     OW71862   8.567   8.167   7.943 -0.8855 -0.1351  0.6017
22862SOL    HW171863   8.543   8.202   8.029  1.0029 -1.1219  1.5885
22862SOL    HW271864   8.661   8.155   7.948 -0.7079 -0.0625 -1.7045
22863SOL     OW71865  10.161   9.646   8.462 -0.5628 -0.2089  0.0275
22863SOL    HW171866  10.176   9.706   8.389 -1.4169  0.4186  0.3681
22863SOL    HW271867  10.228   9.670   8.527 -0.9241  0.3977  0.1780
22864SOL     OW71868   7.667  11.146   7.979  0.4003  0.1739  0.2516
22864SOL    HW171869   7.661  11.241   7.974  1.5811  0.2408  0.0447
22864SOL    HW271870   7.713  11.129   8.061 -3.0684 -0.3822  2.3307
22865SOL     OW71871   7.495   3.646   8.170  0.1690 -0.3346 -0.1450
22865SOL    HW171872   7.425   3.589   8.138 -1.7787 -0.2047  3.3135
22865SOL    HW271873   7.515   3.612   8.258  2.7040  1.1770 -0.0375
22866SOL     OW71874   3.462   9.198   5.743 -0.4404  0.1276  0.4754
22866SOL    HW171875   3.385   9.158   5.701 -0.8431 -1.4033  2.5086
22866SOL    HW271876   3.429   9.238   5.822  0.7580 -0.0740  1.1118
22867SOL     OW71877   3.238   6.121   4.366  0.1731  0.1831 -0.4848
22867SOL    HW171878   3.283   6.095   4.286  0.6295  0.5201 -0.3432
22867SOL    HW271879   3.159   6.069   4.367  0.9752 -1.0720 -0.2966
22868SOL     OW71880   8.968   7.390   7.218 -0.3308 -0.4640  0.3619
22868SOL    HW171881   8.969   7.415   7.125  0.7519  0.6880  0.6640
22868SOL    HW271882   8.988   7.470   7.265  2.1940 -1.6116  1.4452
22869SOL     OW71883   5.293   7.334   3.168  0.6713  0.7887 -0.9004
22869SOL    HW171884   5.203   7.309   3.189  1.5085 -0.6453  1.2867
22869SOL    HW271885   5.315   7.281   3.091  0.0717  0.1583 -0.6438
22870SOL     OW71886   9.937   3.235  10.688 -0.4063  0.5870 -0.0101
22870SOL    HW171887  10.001   3.294  10.727  1.2738 -0.9924 -0.2367
22870SOL    HW271888   9.876   3.292  10.642  0.7097  2.1602  0.3876
22871SOL     OW71889   6.318   4.125   3.122 -1.1133 -0.4869  0.0207
22871SOL    HW171890   6.338   4.033   3.108 -1.2995 -0.2616 -1.9847
22871SOL    HW271891   6.271   4.128   3.205 -2.2073 -2.3423 -0.5047
22872SOL     OW71892   9.128   9.567  10.905  0.4059  0.4719 -0.2383
22872SOL    HW171893   9.043   9.583  10.864  0.4640  2.3589  0.3037
22872SOL    HW271894   9.108   9.519  10.985  0.2159 -2.4440 -1.8900
22873SOL     OW71895   7.759   3.794   7.253 -0.4883 -0.0776 -0.2499
22873SOL    HW171896   7.747   3.792   7.158 -0.6848  0.3635 -0.2367
22873SOL    HW271897   7.810   3.715   7.273 -1.7568 -0.9956 -0.5300
22874SOL     OW71898   8.037   4.844   1.151 -0.9483 -0.7297  0.0867
22874SOL    HW171899   7.974   4.915   1.162 -0.0370 -0.1275  1.9390
22874SOL    HW271900   8.097   4.854   1.225 -0.0176 -2.6566 -0.3406
22875SOL     OW71901   7.949   0.674   6.797  0.2683  0.0177  0.6961
22875SOL    HW171902   8.010   0.622   6.744 -0.1207  0.4440 -0.1901
22875SOL    HW271903   7.989   0.676   6.884 -0.9908 -4.0512  1.5678
22876SOL     OW71904   7.982  11.264   0.732 -0.0966  0.6046  0.5107
22876SOL    HW171905   7.951  11.203   0.799 -0.4250 -0.8640 -0.9361
22876SOL    HW271906   8.056  11.219   0.691 -1.5616  0.2565 -1.9015
22877SOL     OW71907   0.175   3.808   9.823 -0.6635 -0.1470 -0.0370
22877SOL    HW171908   0.113   3.751   9.776  1.0672 -1.1913 -1.1744
22877SOL    HW271909   0.194   3.761   9.904 -0.2392 -0.5773 -0.3778
22878SOL     OW71910   5.108  11.363   4.139  0.6189  0.0195  0.5838
22878SOL    HW171911   5.055  11.410   4.074  2.7767  0.5713 -0.9147
22878SOL    HW271912   5.064  11.380   4.222 -0.9153  1.3563 -0.4116
22879SOL     OW71913   4.067   0.532   8.682  0.1636  0.1428  0.1896
22879SOL    HW171914   4.034   0.545   8.593 -1.1204  2.1612  0.8941
22879SOL    HW271915   4.090   0.439   8.686  1.0854  0.1547 -2.4940
22880SOL     OW71916   4.172   1.903   8.965  0.1943 -0.0849  0.5068
22880SOL    HW171917   4.151   1.895   8.871 -0.9351  0.6033  0.6897
22880SOL    HW271918   4.169   1.812   8.997 -1.0806 -0.1663  0.2080
22881SOL     OW71919   5.546   7.976   3.590 -0.3303  0.3904 -0.2140
22881SOL    HW171920   5.634   7.957   3.557  1.1446  3.4717  1.4820
22881SOL    HW271921   5.507   8.034   3.524 -0.2724  0.6341 -0.0381
22882SOL     OW71922  11.231   8.129   0.138  0.0605  0.3819 -0.1741
22882SOL    HW171923  11.321   8.103   0.155  0.6269  1.7508 -0.8958
22882SOL    HW271924  11.214   8.199   0.202 -0.0305  1.0100 -0.8637
22883SOL     OW71925   1.942  10.702   6.847  0.2093 -0.0119  0.1313
22883SOL    HW171926   2.029  10.715   6.883  0.6945 -2.2749 -0.1258
22883SOL    HW271927   1.925  10.608   6.856 -0.2399 -0.5319 -4.0495
22884SOL     OW71928   0.340   7.805   0.326  0.3879  0.3269 -0.0441
22884SOL    HW171929   0.391   7.880   0.294 -1.2580  1.4044 -0.2922
22884SOL    HW271930   0.252   7.841   0.341 -0.2453 -1.3933  0.6024
22885SOL     OW71931   1.368   0.875   7.210 -0.0887  0.2090  0.0923
22885SOL    HW171932   1.404   0.895   7.297 -0.0767  3.3932 -0.5311
22885SOL    HW271933   1.443   0.845   7.159  0.0498 -0.9446  0.9364
22886SOL     OW71934   2.651   6.387   0.274 -0.1264  0.0882  0.2123
22886SOL    HW171935   2.584   6.451   0.296 -0.2350  1.0995 -2.6756
22886SOL    HW271936   2.716   6.396   0.344 -2.0569  0.3607  2.0823
22887SOL     OW71937   0.856   5.755   0.667 -0.8493 -0.1685  0.2508
22887SOL    HW171938   0.851   5.764   0.762  1.1251 -1.1647  0.4982
22887SOL    HW271939   0.856   5.661   0.652 -1.1571 -0.0188 -0.7519
22888SOL     OW71940   0.952   3.130   4.012 -0.4405 -0.1926 -0.6590
22888SOL    HW171941   1.037   3.159   3.980 -0.0604 -0.2595  0.2581
22888SOL    HW271942   0.924   3.062   3.950 -0.1089  0.2531 -1.3004
22889SOL     OW71943   6.230   4.884   3.492 -0.3823 -0.0400  0.5479
22889SOL    HW171944   6.204   4.975   3.481 -0.1680 -0.1520 -1.1969
22889SOL    HW271945   6.154   4.842   3.533 -0.2811  1.0002  1.8535
22890SOL     OW71946   8.394   4.059   5.627  0.1165  0.0984 -0.4667
22890SOL    HW171947   8.328   4.011   5.676  0.9797  0.4616  1.1534
22890SOL    HW271948   8.469   4.064   5.687  0.6354  2.0037 -1.1991
22891SOL     OW71949   3.241   7.421   2.322  0.0647  0.4196  0.2142
22891SOL    HW171950   3.153   7.392   2.301  0.3954 -1.7332  1.5105
22891SOL    HW271951   3.283   7.345   2.362  2.2001  1.6781  0.5435
22892SOL     OW71952   4.420   3.969   4.237 -0.3051 -0.0655  0.0312
22892SOL    HW171953   4.482   3.911   4.283 -0.5871 -0.4681 -0.0846
22892SOL    HW271954   4.334   3.928   4.252 -0.4435  0.0130 -0.5337
22893SOL     OW71955   9.077   6.050   0.920 -0.3986  0.2685 -0.1434
22893SOL    HW171956   9.136   6.011   0.984  1.1419  1.2005 -0.9244
22893SOL    HW271957   9.080   5.990   0.846 -0.3907  0.3210 -0.1862
22894SOL     OW71958   8.486   3.148   5.628  0.8413  0.5804  0.1562
22894SOL    HW171959   8.493   3.095   5.548 -1.7505  0.5141 -0.1006
22894SOL    HW271960   8.464   3.236   5.598 -0.3962  0.5046  0.7722
22895SOL     OW71961   0.963   9.404   9.961  0.3854 -0.1132 -0.3297
22895SOL    HW171962   1.019   9.375   9.889  2.3153  2.5894 -0.0650
22895SOL    HW271963   0.878   9.418   9.921  1.3156  0.9229 -2.0471
22896SOL     OW71964   2.826   8.407   7.858  0.1141 -0.0625 -0.1082
22896SOL    HW171965   2.885   8.459   7.913  0.8929 -1.9635  0.9519
22896SOL    HW271966   2.783   8.347   7.919  0.4555 -1.7403 -1.4358
22897SOL     OW71967   0.873   4.386  10.963 -0.0852 -0.6304 -0.5927
22897SOL    HW171968   0.801   4.384  11.026 -1.3469 -1.1826 -2.0001
22897SOL    HW271969   0.889   4.479  10.949 -0.2104 -0.4995  0.0569
22898SOL     OW71970   5.645   6.231   5.525 -0.5596  0.2477 -0.1042
22898SOL    HW171971   5.676   6.207   5.437 -1.2448  2.1749 -0.9472
22898SOL    HW271972   5.707   6.298   5.554  0.2539 -1.0941  1.3643
22899SOL     OW71973   3.103   5.314  10.099 -0.1822  0.5081 -0.1323
22899SOL    HW171974   3.060   5.256  10.162  1.0520  1.6475  1.8702
22899SOL    HW271975   3.095   5.269  10.015 -1.4439 -1.3292  0.9109
22900SOL     OW71976   4.121   7.214  10.955 -0.1530 -0.5666  0.1427
22900SOL    HW171977   4.129   7.168  10.872  0.8255  0.2380 -0.2347
22900SOL    HW271978   4.203   7.194  11.001  0.4989  1.1081 -0.2185
22901SOL     OW71979   0.848   0.650   8.976  0.1540  0.7854 -0.3207
22901SOL    HW171980   0.832   0.705   9.053  1.1568  0.7404 -0.0532
22901SOL    HW271981   0.839   0.560   9.009 -2.1784  0.7583 -0.9189
22902SOL     OW71982   8.006   6.764  10.393 -0.0695  0.1071 -0.1295
22902SOL    HW171983   8.046   6.741  10.477 -0.0738 -0.1461 -0.1954
22902SOL    HW271984   8.066   6.828  10.355  0.5864 -0.6898 -0.4829
22903SOL     OW71985   8.764   7.975   7.073 -0.1665 -0.1074 -0.0884
22903SOL    HW171986   8.794   8.065   7.082 -3.7111  1.2086  0.1741
22903SOL    HW271987   8.738   7.967   6.981  1.1646 -1.2715 -0.3890
22904SOL     OW71988   8.648   6.377   1.181  0.4083  0.1585 -0.1461
22904SOL    HW171989   8.717   6.376   1.247  0.3234  0.9528 -0.0265
22904SOL    HW271990   8.569   6.352   1.229  0.8835 -2.6368 -0.6711
22905SOL     OW71991   1.594   9.433   6.505  0.1023  0.3402 -0.0580
22905SOL    HW171992   1.589   9.528   6.503  0.7273  0.3980  0.5943
22905SOL    HW271993   1.621   9.413   6.595  1.6537 -0.3655 -0.6591
22906SOL     OW71994   3.135   5.725   6.325  0.4265 -0.4247 -0.9911
22906SOL    HW171995   3.081   5.772   6.389 -3.2815 -1.5454 -3.0462
22906SOL    HW271996   3.151   5.788   6.256  2.4418  0.0777 -0.1449
22907SOL     OW71997   0.124   0.318  10.102  0.0619 -0.1573  0.1007
22907SOL    HW171998   0.156   0.392  10.153 -2.0109  1.8585 -1.3303
22907SOL    HW271999   0.161   0.332  10.014 -3.1004  1.3118 -1.1492
22908SOL     OW72000   0.362   9.618   5.808 -0.4901 -0.3994  0.6914
22908SOL    HW172001   0.416   9.545   5.777  0.6030  0.2710  0.9749
22908SOL    HW272002   0.422   9.672   5.860 -1.2479  0.8000  0.3490
22909SOL     OW72003   3.034   3.597   2.464  0.3501 -0.0651  0.4903
22909SOL    HW172004   3.115   3.557   2.433  1.1152 -0.1096  2.4125
22909SOL    HW272005   3.062   3.680   2.504 -0.6490  0.2856  0.4931
22910SOL     OW72006   9.336   2.987   9.825  0.3198  0.3145 -0.4063
22910SOL    HW172007   9.383   2.952   9.900  0.5241  0.1789 -0.5975
22910SOL    HW272008   9.245   2.958   9.838  0.5525 -0.6333 -0.7607
22911SOL     OW72009   7.516   5.339   3.388 -0.0505  1.1955 -0.6600
22911SOL    HW172010   7.594   5.326   3.334  1.8421  0.9764  1.9273
22911SOL    HW272011   7.499   5.433   3.383  0.9547  1.3960 -0.5421
22912SOL     OW72012  11.345   2.771   7.850  0.2953 -0.7078 -0.4980
22912SOL    HW172013  11.392   2.843   7.810  0.1176  0.1795  0.8435
22912SOL    HW272014  11.313   2.805   7.933 -1.6239 -1.6659 -0.7700
22913SOL     OW72015   5.697   1.647   0.670 -0.2978  0.1361  0.0679
22913SOL    HW172016   5.733   1.702   0.740  0.2372 -0.2249  0.0816
22913SOL    HW272017   5.739   1.562   0.682 -0.5049 -0.0458 -0.4496
22914SOL     OW72018   9.639   1.656   1.277  0.1998 -0.0701  0.4034
22914SOL    HW172019   9.641   1.730   1.215 -0.8698  0.7263  1.2825
22914SOL    HW272020   9.675   1.692   1.358  0.3866 -0.7462  0.6253
22915SOL     OW72021   8.362   4.852  11.280  0.0738 -0.9855  0.8328
22915SOL    HW172022   8.393   4.811  11.361 -1.2818 -0.4077  1.6895
22915SOL    HW272023   8.298   4.789  11.245 -1.2712 -0.1047  1.6218
22916SOL     OW72024   0.006   8.377   6.812  0.0137  0.1670 -0.0925
22916SOL    HW172025   0.067   8.383   6.738 -0.0036  0.7541 -0.0633
22916SOL    HW272026  -0.063   8.318   6.782  0.9221 -1.0413  0.1032
22917SOL     OW72027   5.730   6.698  11.003 -0.3747 -0.3134 -0.2660
22917SOL    HW172028   5.648   6.738  11.032  0.6630  0.6962  1.4327
22917SOL    HW272029   5.766   6.759  10.939  0.3130  0.5744  0.9511
22918SOL     OW72030   3.667   1.781   4.996 -0.3083  0.2091 -0.1336
22918SOL    HW172031   3.583   1.827   5.005 -0.1356  0.4582  0.2612
22918SOL    HW272032   3.703   1.812   4.913 -1.1676 -0.8392 -0.9147
22919SOL     OW72033   8.565   0.767   0.443 -0.0957 -0.0180 -0.1079
22919SOL    HW172034   8.657   0.742   0.451 -0.2259 -0.7158 -0.6660
22919SOL    HW272035   8.533   0.715   0.369 -0.6016  1.1709 -0.7472
22920SOL     OW72036   6.801   2.097   5.596  0.1065  0.2310  0.2776
22920SOL    HW172037   6.875   2.075   5.653  0.9743  1.2025 -0.4470
22920SOL    HW272038   6.806   2.034   5.524  2.1198  2.1137 -1.3815
22921SOL     OW72039   8.935   6.979   1.206 -0.6719 -0.3310 -0.1216
22921SOL    HW172040   9.027   6.975   1.235 -0.6166  2.5134  0.3940
22921SOL    HW272041   8.938   6.953   1.114  0.4067 -1.6451  0.2509
22922SOL     OW72042   9.255   3.735   4.271  0.0437  0.1839  0.2135
22922SOL    HW172043   9.220   3.823   4.265  0.7386  0.4662  0.2331
22922SOL    HW272044   9.182   3.678   4.245 -0.1021  0.8197 -0.8166
22923SOL     OW72045   9.782  10.204   5.732  0.4090  0.0318  1.1219
22923SOL    HW172046   9.720  10.278   5.733 -0.3326 -0.4672 -1.1643
22923SOL    HW272047   9.738  10.137   5.679  1.1210 -2.0481  3.0357
22924SOL     OW72048  10.457  11.086   8.311 -0.3849 -0.0187 -0.2187
22924SOL    HW172049  10.477  11.041   8.229 -0.7689 -1.0951  0.2622
22924SOL    HW272050  10.514  11.163   8.311 -2.0328  1.3632 -2.6205
22925SOL     OW72051   5.754   3.951   9.974  0.3663  0.1386  0.2414
22925SOL    HW172052   5.849   3.957   9.973  0.3792 -0.0832  0.1996
22925SOL    HW272053   5.724   4.041   9.962  0.5679  0.0927 -0.6129
22926SOL     OW72054   8.868   4.553   5.925  0.1223 -0.3254  0.1691
22926SOL    HW172055   8.883   4.613   5.852  0.1933 -1.1901 -0.5476
22926SOL    HW272056   8.902   4.600   6.001 -0.4538  0.8212 -0.2481
22927SOL     OW72057   7.021   8.375   1.175 -0.0631  0.0116  0.3337
22927SOL    HW172058   6.942   8.349   1.222 -1.4276  2.7019 -0.2523
22927SOL    HW272059   6.989   8.401   1.089  1.5282  0.7497 -0.0554
22928SOL     OW72060   6.478   4.515   6.544 -0.6991 -0.0685 -0.7380
22928SOL    HW172061   6.386   4.490   6.550 -0.6342 -0.2610 -0.5564
22928SOL    HW272062   6.485   4.594   6.598 -1.0311  0.7204 -1.7913
22929SOL     OW72063   2.003   0.729   8.990 -0.0320 -0.1130  0.6399
22929SOL    HW172064   2.045   0.789   8.928  0.3767 -1.7600 -0.7747
22929SOL    HW272065   1.947   0.785   9.044 -0.1386  1.4506 -0.9955
22930SOL     OW72066   4.199   8.289   4.877 -0.2984 -0.2406 -0.2100
22930SOL    HW172067   4.274   8.230   4.870 -1.8305 -2.4156  0.6458
22930SOL    HW272068   4.199   8.318   4.968  1.1370  2.1518 -0.9031
22931SOL     OW72069   3.319   3.378   5.235 -0.0588  0.3861 -0.0697
22931SOL    HW172070   3.394   3.370   5.175  0.8880  2.2200  0.7875
22931SOL    HW272071   3.331   3.306   5.297 -0.3587 -0.7693 -1.2812
22932SOL     OW72072  10.106  10.693   4.213 -0.0594  0.6148 -0.6629
22932SOL    HW172073  10.091  10.606   4.174  0.0771  0.1524  0.2831
22932SOL    HW272074  10.200  10.707   4.205  0.4631 -0.7187  1.8941
22933SOL     OW72075   0.676   5.701   3.140  0.1632 -0.6083  0.0959
22933SOL    HW172076   0.613   5.753   3.090 -0.4415  0.9405  2.3342
22933SOL    HW272077   0.753   5.758   3.148  1.0898 -1.6729 -0.8289
22934SOL     OW72078  10.954   8.712   5.769 -0.1958 -0.0791  0.5473
22934SOL    HW172079  10.994   8.798   5.784  2.4363 -0.7579 -1.7231
22934SOL    HW272080  11.014   8.650   5.810 -1.3064 -0.9406  0.9156
22935SOL     OW72081   4.591   9.957   4.545  0.4448  0.2866 -0.6492
22935SOL    HW172082   4.517   9.896   4.547  0.5428  0.1084 -1.7231
22935SOL    HW272083   4.642   9.934   4.623 -0.2534 -0.0576 -0.2726
22936SOL     OW72084   0.990   1.117   3.767  0.2499 -0.1729  0.7522
22936SOL    HW172085   0.953   1.109   3.678  1.8444 -0.4084  0.0807
22936SOL    HW272086   0.980   1.030   3.805  0.5093 -0.3606  0.4019
22937SOL     OW72087   0.254   4.140   6.874  0.1115  0.7697 -0.1299
22937SOL    HW172088   0.197   4.129   6.798 -0.1657 -0.3577  0.2343
22937SOL    HW272089   0.266   4.235   6.881  0.0511  0.8877 -1.5094
22938SOL     OW72090   0.587   2.302   5.232 -0.6237 -0.7114 -0.5671
22938SOL    HW172091   0.594   2.256   5.148 -2.2107 -1.2966 -0.4059
22938SOL    HW272092   0.678   2.318   5.258 -0.0827  0.0326 -2.6780
22939SOL     OW72093   1.967   9.146   2.417 -0.6427  0.0996 -0.1467
22939SOL    HW172094   2.044   9.203   2.412 -1.2716  0.8753 -1.8617
22939SOL    HW272095   1.920   9.176   2.495 -0.4597  1.3019 -0.4737
22940SOL     OW72096   5.975   6.374   1.444 -0.5541 -0.1417 -0.0676
22940SOL    HW172097   6.066   6.402   1.454 -0.1932 -1.6751  1.4097
22940SOL    HW272098   5.925   6.455   1.442  0.8078  0.7244 -0.5558
22941SOL     OW72099   4.518   7.318   7.644  0.2873  0.2572 -0.3751
22941SOL    HW172100   4.436   7.350   7.681 -0.6397 -0.9405 -1.2890
22941SOL    HW272101   4.549   7.389   7.588 -0.2923  0.6099 -0.2518
22942SOL     OW72102   4.209   7.910   5.836  0.2504  0.2532 -0.5492
22942SOL    HW172103   4.113   7.907   5.845  0.4427 -0.8705  2.5284
22942SOL    HW272104   4.231   8.002   5.844 -0.5728  0.5092 -1.1495
22943SOL     OW72105   0.543  10.301   5.922 -0.5318  0.0460 -0.6510
22943SOL    HW172106   0.607  10.315   5.853  1.0110 -0.7432  0.5541
22943SOL    HW272107   0.593  10.305   6.003 -2.1566  0.1966  0.3990
22944SOL     OW72108  10.396   4.652   6.992 -0.4278 -0.3295  0.1039
22944SOL    HW172109  10.353   4.611   6.918 -0.3858 -0.6278  0.2422
22944SOL    HW272110  10.423   4.578   7.048 -0.5980 -0.1060  0.4900
22945SOL     OW72111   9.539   8.809   1.041 -0.3853 -0.1582  0.0176
22945SOL    HW172112   9.610   8.748   1.022  0.6152  0.7724  0.6996
22945SOL    HW272113   9.469   8.783   0.980  0.5458 -1.0368 -0.7163
22946SOL     OW72114   2.790   7.878   0.569 -0.3280  0.3577  0.1667
22946SOL    HW172115   2.714   7.845   0.521 -0.7959  1.0623  0.3925
22946SOL    HW272116   2.863   7.871   0.508 -0.6731  0.1037 -0.2164
22947SOL     OW72117   3.002   3.205   7.708 -0.4743  0.6130 -0.1071
22947SOL    HW172118   2.936   3.202   7.778  0.1670  1.7505  0.5722
22947SOL    HW272119   2.956   3.243   7.633 -0.7594  0.8342  0.1775
22948SOL     OW72120   2.065   4.023   4.160 -0.3950  0.1736 -0.0403
22948SOL    HW172121   2.106   4.107   4.143  1.9958 -0.5814  1.4483
22948SOL    HW272122   2.069   3.976   4.076 -1.2567  1.2821 -0.7328
22949SOL     OW72123   4.506   8.205   4.787 -0.3011  0.3052 -0.1860
22949SOL    HW172124   4.574   8.138   4.793  0.5786  1.2513  0.6864
22949SOL    HW272125   4.505   8.246   4.874 -1.1689  1.0948 -0.5540
22950SOL     OW72126   3.778   5.878   0.170 -0.0436 -0.4302 -0.4552
22950SOL    HW172127   3.697   5.874   0.121  0.3508 -1.9415 -1.0513
22950SOL    HW272128   3.810   5.968   0.158 -0.4378 -0.4900 -2.1792
22951SOL     OW72129   1.023   0.682  10.350  0.1225  0.6919 -0.0741
22951SOL    HW172130   1.034   0.590  10.324  0.6608  0.9810 -0.9408
22951SOL    HW272131   1.107   0.705  10.390  0.4148  1.1137 -0.8984
22952SOL     OW72132   2.098   2.880   0.990 -0.0906  0.4401  0.0163
22952SOL    HW172133   2.040   2.877   0.914  0.5958 -1.1208 -0.4732
22952SOL    HW272134   2.046   2.844   1.062 -0.7588  1.9671  0.3327
22953SOL     OW72135   0.824   6.921   3.229 -0.6469 -0.0161 -0.0229
22953SOL    HW172136   0.848   7.007   3.264 -0.8957 -0.3209  0.9226
22953SOL    HW272137   0.817   6.865   3.307  0.9305 -1.2546 -0.7145
22954SOL     OW72138   7.674   3.326   8.886 -0.1340 -0.6594 -1.0331
22954SOL    HW172139   7.718   3.391   8.831 -0.4387 -0.6217 -1.2376
22954SOL    HW272140   7.708   3.342   8.974  1.1026 -1.3599 -1.3539
22955SOL     OW72141   3.733   5.922   6.708  0.3359  0.4269  0.7229
22955SOL    HW172142   3.784   5.853   6.665 -0.2421 -0.1092  0.8819
22955SOL    HW272143   3.660   5.938   6.649  1.2917  2.0512 -0.1055
22956SOL     OW72144   3.359   5.384   3.777  0.1817  0.4162 -0.1076
22956SOL    HW172145   3.281   5.392   3.722 -0.0829 -0.5470  0.1193
22956SOL    HW272146   3.327   5.347   3.859  0.6825  1.2014  0.4595
22957SOL     OW72147   1.383   2.609   5.040  0.6147 -0.2010 -0.3976
22957SOL    HW172148   1.330   2.664   5.099 -0.1504  1.4622 -2.5131
22957SOL    HW272149   1.468   2.603   5.084 -0.2974 -0.1478  1.4922
22958SOL     OW72150   8.676   8.218   4.400 -0.1839  0.5843 -0.1123
22958SOL    HW172151   8.642   8.241   4.314 -0.4756 -0.3484 -0.2502
22958SOL    HW272152   8.659   8.125   4.409  2.7293 -0.0640 -0.3792
22959SOL     OW72153   1.164   1.196   8.679  0.1577  0.7536 -0.0033
22959SOL    HW172154   1.251   1.217   8.712  0.1492 -0.5666  0.9406
22959SOL    HW272155   1.106   1.210   8.754  0.0413 -1.5950  0.4334
22960SOL     OW72156   5.709   9.942   6.603  0.5628  0.5301  0.6913
22960SOL    HW172157   5.656  10.012   6.641  0.2316 -0.3320  1.8714
22960SOL    HW272158   5.663   9.917   6.523 -0.9444 -0.3218  1.7845
22961SOL     OW72159   1.080   2.062   0.335 -0.1509 -0.5021 -0.0658
22961SOL    HW172160   1.139   2.128   0.298 -0.6706  0.8579  1.4236
22961SOL    HW272161   1.080   1.991   0.270  1.8411  0.1560 -0.8591
22962SOL     OW72162   3.377  11.212   4.656 -0.1465  0.1689  0.5347
22962SOL    HW172163   3.430  11.141   4.618 -0.6626  0.0471  0.0258
22962SOL    HW272164   3.287  11.178   4.653 -0.5577  1.2868 -0.7999
22963SOL     OW72165   9.513   7.514   1.091 -0.1989 -0.2255  0.3461
22963SOL    HW172166   9.607   7.498   1.103 -0.4782 -2.2109  0.2391
22963SOL    HW272167   9.474   7.426   1.088 -2.3330  0.5403  2.4681
22964SOL     OW72168   4.396  10.909   3.046 -0.7417 -0.1072 -0.2426
22964SOL    HW172169   4.436  10.845   3.105 -1.0626  0.7630  0.9254
22964SOL    HW272170   4.443  10.897   2.963  1.6155  0.5368  0.9387
22965SOL     OW72171   6.333   8.170   0.136 -0.3852  0.9649  0.5685
22965SOL    HW172172   6.286   8.159   0.053 -1.9420 -2.1771  1.6931
22965SOL    HW272173   6.268   8.208   0.196  0.6516  2.9768  0.4975
22966SOL     OW72174   1.546   0.535   0.092 -0.1888 -0.3149 -0.0027
22966SOL    HW172175   1.459   0.498   0.075  1.0983 -2.8024 -1.6219
22966SOL    HW272176   1.565   0.511   0.183 -1.2342  0.4773  0.4558
22967SOL     OW72177   6.921   7.292   7.123  0.2297 -0.4002  0.0575
22967SOL    HW172178   6.935   7.385   7.102 -1.6591  0.1200  0.8798
22967SOL    HW272179   6.927   7.289   7.218 -2.0406 -0.6531  0.2255
22968SOL     OW72180   6.179   7.328   8.967 -0.4218 -0.1411  0.4728
22968SOL    HW172181   6.091   7.358   8.946 -0.7257  0.2067  2.0916
22968SOL    HW272182   6.172   7.293   9.056  1.2060  0.4919  0.8901
22969SOL     OW72183   1.026   7.900   9.964 -0.3162 -0.3925  0.4668
22969SOL    HW172184   1.006   7.856  10.047 -0.6828 -1.0482  0.0389
22969SOL    HW272185   0.964   7.863   9.901  1.6250 -1.8327 -0.7029
22970SOL     OW72186   4.273   3.660  10.265  0.3041  0.1103 -0.2071
22970SOL    HW172187   4.244   3.618  10.346  0.8439 -0.0930 -0.1201
22970SOL    HW272188   4.193   3.697  10.228  0.1273  0.6718  0.6918
22971SOL     OW72189  10.394   6.482  10.698 -0.0721  0.3044 -0.0630
22971SOL    HW172190  10.391   6.434  10.616  0.1427 -1.1120  0.7287
22971SOL    HW272191  10.320   6.448  10.749  0.7745 -0.0439  0.9642
22972SOL     OW72192   8.759   5.897   0.084 -0.2022  0.7618  0.3557
22972SOL    HW172193   8.682   5.877   0.032  0.1989 -0.1255  0.0938
22972SOL    HW272194   8.805   5.965   0.035  0.3406 -0.2921 -0.6292
22973SOL     OW72195   6.132   3.265   0.442 -0.0069 -0.4176  0.0359
22973SOL    HW172196   6.227   3.272   0.454  0.2520  2.1880 -2.4416
22973SOL    HW272197   6.110   3.177   0.474  3.3012 -1.3029  0.2369
22974SOL     OW72198   0.708   8.498   5.813 -0.0877  0.9203  0.2177
22974SOL    HW172199   0.787   8.464   5.771  0.1464 -0.1067  1.3956
22974SOL    HW272200   0.649   8.520   5.741  1.0915  1.2609 -0.6701
22975SOL     OW72201   0.542   8.265   2.304  0.4873  0.5405  0.0793
22975SOL    HW172202   0.449   8.275   2.326  0.2341 -0.4320 -0.5040
22975SOL    HW272203   0.585   8.335   2.353 -0.3793  0.1423  1.4972
22976SOL     OW72204   0.612   4.830   4.929  0.4430 -0.1533 -0.2894
22976SOL    HW172205   0.689   4.857   4.978  0.8634 -0.0146 -1.0054
22976SOL    HW272206   0.543   4.891   4.957  0.8221  0.2770 -0.2838
22977SOL     OW72207   7.560   6.731   8.899 -0.0372  0.2813  0.3684
22977SOL    HW172208   7.579   6.657   8.956  1.9585  1.1866  0.9617
22977SOL    HW272209   7.626   6.797   8.922 -1.4361  2.0644 -0.4820
22978SOL     OW72210   5.437   1.963   3.185  0.4714  0.0515 -0.7255
22978SOL    HW172211   5.350   1.994   3.157  0.7408  0.8401 -0.7280
22978SOL    HW272212   5.438   1.980   3.280  0.6066 -0.0044 -0.7169
22979SOL     OW72213   0.418   3.610  10.600 -0.2388 -0.0166 -0.1715
22979SOL    HW172214   0.475   3.533  10.590 -0.8027 -0.6150  1.0811
22979SOL    HW272215   0.455   3.658  10.674 -1.1495 -0.2198  0.4183
22980SOL     OW72216   7.200   8.934   3.811  0.3721  0.2673  0.2433
22980SOL    HW172217   7.175   8.915   3.902  1.6304 -0.6132  0.4302
22980SOL    HW272218   7.117   8.929   3.763 -0.1603 -0.3295  1.1742
22981SOL     OW72219   7.188   4.385   0.294  0.4996  0.5791  0.0714
22981SOL    HW172220   7.278   4.365   0.270  0.2057  0.2894 -0.8285
22981SOL    HW272221   7.192   4.472   0.334  1.4143 -0.1413  1.6451
22982SOL     OW72222   5.419   3.177   1.174 -0.2428 -0.0138 -0.2597
22982SOL    HW172223   5.456   3.255   1.133  0.9291 -0.8607 -0.8609
22982SOL    HW272224   5.437   3.187   1.267  0.2980  0.2346 -0.3880
22983SOL     OW72225   1.175  10.293   0.104 -0.6161  0.2306  0.1927
22983SOL    HW172226   1.248  10.239   0.135  0.6096  0.1286 -2.5439
22983SOL    HW272227   1.139  10.245   0.030 -0.6138  2.2996 -1.2436
22984SOL     OW72228   0.853   5.879   4.426 -0.2937 -0.4839  0.3232
22984SOL    HW172229   0.805   5.816   4.373 -0.2274  0.2923 -0.6869
22984SOL    HW272230   0.932   5.898   4.375 -0.9950  1.4891 -0.0904
22985SOL     OW72231   8.161   3.171  11.229  0.3006 -0.0588  0.2085
22985SOL    HW172232   8.071   3.200  11.246  0.6279  0.6922  0.6936
22985SOL    HW272233   8.204   3.248  11.190  0.7533 -0.3960  0.0289
22986SOL     OW72234   2.690   0.087   7.929 -0.3487 -0.4132 -0.1734
22986SOL    HW172235   2.733   0.011   7.891 -0.9623 -0.7400 -0.2291
22986SOL    HW272236   2.692   0.073   8.023 -1.2479 -0.9494 -0.2173
22987SOL     OW72237   5.900   4.747   3.034 -0.1132 -0.5175  0.2978
22987SOL    HW172238   5.905   4.732   2.940 -2.6787  0.1638 -0.0356
22987SOL    HW272239   5.957   4.822   3.051 -0.2404 -0.1480 -0.8579
22988SOL     OW72240   2.804   6.880   4.498  0.5465 -0.4571  0.0372
22988SOL    HW172241   2.835   6.927   4.575  2.9210 -0.1043 -1.0387
22988SOL    HW272242   2.785   6.949   4.434 -0.9525 -0.7688  0.1000
22989SOL     OW72243   4.044   3.375   0.602  0.1618  0.6404  0.3041
22989SOL    HW172244   4.137   3.357   0.590  0.2087 -1.0369  2.4787
22989SOL    HW272245   4.015   3.310   0.667 -2.6882  0.6701 -0.7917
22990SOL     OW72246   2.187   6.165   5.306  0.2950  0.0200 -0.4585
22990SOL    HW172247   2.216   6.255   5.288 -0.3010  0.0415 -1.4308
22990SOL    HW272248   2.122   6.174   5.376  2.0304  0.0440  1.2267
22991SOL     OW72249   7.690  11.263  10.613 -0.0701  0.2493  0.1455
22991SOL    HW172250   7.753  11.304  10.672 -0.0395  0.0190  0.2733
22991SOL    HW272251   7.644  11.199  10.667  0.7426 -0.7689 -0.3550
22992SOL     OW72252   9.391   3.341   3.345 -0.1974 -0.4323 -0.2409
22992SOL    HW172253   9.304   3.346   3.384 -0.0503  0.3344  0.0105
22992SOL    HW272254   9.385   3.396   3.267 -0.3008 -1.4204 -0.9474
22993SOL     OW72255   9.147   5.488   7.277 -0.5787 -0.1649  0.0408
22993SOL    HW172256   9.092   5.553   7.232 -0.1902 -0.4195 -0.8348
22993SOL    HW272257   9.116   5.404   7.243  0.5374 -0.2961 -0.7107
22994SOL     OW72258   0.244   6.500   9.380 -0.3318  0.3039 -0.1499
22994SOL    HW172259   0.224   6.594   9.377 -1.9356  0.0567  0.9950
22994SOL    HW272260   0.158   6.458   9.390  0.4979 -1.1454  1.3881
22995SOL     OW72261   4.323   6.982  10.218 -0.4925 -0.1790  0.2071
22995SOL    HW172262   4.282   6.896  10.224  0.3164 -0.5295  0.7634
22995SOL    HW272263   4.394   6.980  10.282  0.1735  0.5440 -0.4870
22996SOL     OW72264  10.757   9.331   6.398  0.2186 -0.0375 -0.2301
22996SOL    HW172265  10.744   9.358   6.490  0.8303  0.5446 -0.2991
22996SOL    HW272266  10.669   9.321   6.363 -0.0232 -0.8129  0.5775
22997SOL     OW72267   0.196   9.330   9.948  0.0775 -0.4408 -0.2567
22997SOL    HW172268   0.211   9.240   9.921 -0.1486 -0.6776  0.4015
22997SOL    HW272269   0.269   9.351  10.005 -1.0112 -0.9664  1.4097
22998SOL     OW72270   1.655   3.451   6.126 -0.1895 -0.2825  0.3541
22998SOL    HW172271   1.627   3.498   6.048  1.5643 -0.0695 -0.2072
22998SOL    HW272272   1.706   3.515   6.176  0.7956 -1.0886  0.4242
22999SOL     OW72273   3.784  11.008   6.759 -0.2034 -0.5031 -0.0899
22999SOL    HW172274   3.750  10.921   6.779  0.3663 -0.7312 -0.0928
22999SOL    HW272275   3.759  11.023   6.668  0.6630 -1.1452 -0.4570
23000SOL     OW72276   9.245   6.475  10.675 -0.1195  0.1859 -0.3464
23000SOL    HW172277   9.270   6.448  10.763 -3.7530  0.0958  0.8464
23000SOL    HW272278   9.260   6.398  10.621  1.5467  0.0378  0.2687
23001SOL     OW72279   3.685   7.408   9.253 -0.3826 -0.1044  0.3625
23001SOL    HW172280   3.629   7.476   9.216 -1.0422 -0.3278  0.9128
23001SOL    HW272281   3.772   7.428   9.220 -0.4372  1.4034  1.0522
23002SOL     OW72282   2.523   5.428   8.102 -0.0543  0.2500 -0.0043
23002SOL    HW172283   2.446   5.449   8.155  0.0422 -0.1308  0.2908
23002SOL    HW272284   2.517   5.487   8.027 -1.2374 -0.5213 -0.5552
23003SOL     OW72285   0.805   9.100  10.404  0.4645 -0.5225  0.2315
23003SOL    HW172286   0.732   9.087  10.466  1.8129 -2.5239  1.5320
23003SOL    HW272287   0.794   9.190  10.373 -1.4572 -0.1154  1.8356
23004SOL     OW72288   2.077   1.718   0.422  0.5749  0.2297 -0.5392
23004SOL    HW172289   2.056   1.645   0.480  1.6861  0.3415  0.0272
23004SOL    HW272290   2.087   1.793   0.480 -1.3108  1.0266 -1.1880
23005SOL     OW72291   5.214   4.438  10.716 -0.4332 -0.5362  0.5194
23005SOL    HW172292   5.152   4.411  10.784 -0.7179 -1.7567 -0.2063
23005SOL    HW272293   5.297   4.448  10.761 -0.3446 -2.5217  0.8589
23006SOL     OW72294   2.519   0.566   6.051 -0.2586  1.3369 -0.0858
23006SOL    HW172295   2.606   0.551   6.087 -0.0759 -1.7857 -1.5424
23006SOL    HW272296   2.533   0.624   5.976  0.5660  1.0291 -0.1786
23007SOL     OW72297  10.536   9.590   6.640  0.2007 -0.5609  0.1320
23007SOL    HW172298  10.507   9.573   6.730 -0.7843 -1.0124 -0.2567
23007SOL    HW272299  10.600   9.661   6.649 -1.7343  1.1954  0.9462
23008SOL     OW72300   7.611   7.833   9.621  0.1813  0.3438 -0.2624
23008SOL    HW172301   7.600   7.787   9.705  0.4457  0.0180 -0.4057
23008SOL    HW272302   7.697   7.805   9.590  1.5517  2.9145  0.8973
23009SOL     OW72303  11.021   1.686  10.271  0.2731 -0.1591  0.5011
23009SOL    HW172304  11.047   1.776  10.292 -0.5579  0.1640  0.2019
23009SOL    HW272305  11.101   1.645  10.239  0.1986  1.1633 -1.6050
23010SOL     OW72306  10.369  11.096  11.238 -0.2341 -0.0975 -0.2309
23010SOL    HW172307  10.313  11.021  11.220 -1.0063  0.5709 -0.6537
23010SOL    HW272308  10.447  11.058  11.279 -0.7860 -1.0834 -0.0613
23011SOL     OW72309   5.140   8.542  10.004 -0.2290  0.2762 -0.1475
23011SOL    HW172310   5.171   8.576  10.088 -0.5078  1.2942 -0.4484
23011SOL    HW272311   5.085   8.467  10.028 -1.2395  1.2453  0.6571
23012SOL     OW72312   1.244   4.804   3.306 -0.1365 -0.3524  0.2276
23012SOL    HW172313   1.226   4.727   3.253  0.4593  1.3117 -2.5668
23012SOL    HW272314   1.162   4.853   3.307  0.6152  1.0784 -1.8303
23013SOL     OW72315   4.345  11.343   4.374 -0.1475  1.1574 -0.2168
23013SOL    HW172316   4.303  11.263   4.406  0.4599  1.2157  0.7551
23013SOL    HW272317   4.309  11.412   4.430  1.2656  1.2011  0.6770
23014SOL     OW72318   9.444   2.252   4.451  0.2855  0.3890  0.3365
23014SOL    HW172319   9.393   2.330   4.428 -1.0902 -0.8818 -1.1696
23014SOL    HW272320   9.499   2.236   4.375 -1.2973 -1.5001 -0.4974
23015SOL     OW72321   1.151   0.284  10.837 -0.3334 -0.2728 -0.4203
23015SOL    HW172322   1.172   0.242  10.921  1.2165 -1.9747 -1.5868
23015SOL    HW272323   1.230   0.335  10.816 -1.3738  1.5827 -0.0761
23016SOL     OW72324   1.874   2.133   0.860  0.1900 -0.4283 -0.1877
23016SOL    HW172325   1.849   2.122   0.768  1.1522  0.7098 -0.6089
23016SOL    HW272326   1.861   2.227   0.877  1.0409 -0.4292  0.5152
23017SOL     OW72327  10.902   5.449  11.383 -0.8012 -0.1924 -0.4023
23017SOL    HW172328  10.879   5.496  11.463 -0.4241 -0.8840  0.1277
23017SOL    HW272329  10.823   5.452  11.329 -0.9745  0.4975 -0.1162
23018SOL     OW72330   3.916   3.606   0.094 -0.7326  0.5996 -0.1781
23018SOL    HW172331   3.983   3.625   0.029  0.2980  1.3509  1.0492
23018SOL    HW272332   3.867   3.532   0.058  0.1510  0.6513 -1.5304
23019SOL     OW72333   4.755   6.814  10.165 -0.5530 -0.1734 -0.1406
23019SOL    HW172334   4.842   6.774  10.167  0.2857  1.5459 -0.3919
23019SOL    HW272335   4.716   6.788  10.248  2.3101  3.2791  2.6720
23020SOL     OW72336   3.112   2.209   0.507 -0.4560  0.2059  0.3422
23020SOL    HW172337   3.111   2.152   0.584 -0.5726 -0.8942 -0.4476
23020SOL    HW272338   3.205   2.228   0.492 -0.3628 -0.3365  0.2174
23021SOL     OW72339   6.180   9.907   5.981  0.3773  0.2658  0.1606
23021SOL    HW172340   6.269   9.913   5.947  0.5155  1.1423  0.6616
23021SOL    HW272341   6.179   9.827   6.034  0.4923 -0.4558 -0.8899
23022SOL     OW72342  10.990   2.909   3.299  0.1092  0.1160  0.4757
23022SOL    HW172343  10.916   2.860   3.335  0.5309  0.7602  2.3296
23022SOL    HW272344  11.026   2.957   3.373  1.7871  0.6096 -0.5884
23023SOL     OW72345  10.432   8.341   2.247 -0.7190 -0.0531  0.1680
23023SOL    HW172346  10.409   8.356   2.339 -0.2342 -1.9529  0.6583
23023SOL    HW272347  10.384   8.261   2.224  0.2573 -0.3798 -0.7932
23024SOL     OW72348   9.666  10.615  10.715  0.6459 -0.2050  0.1902
23024SOL    HW172349   9.721  10.664  10.654  0.7015 -0.9376 -0.3601
23024SOL    HW272350   9.584  10.600  10.668 -0.8670  2.5192  1.6543
23025SOL     OW72351   7.968   8.640   7.597  0.0761 -0.5355  0.3601
23025SOL    HW172352   7.895   8.673   7.649 -0.7540 -2.6963  0.6691
23025SOL    HW272353   8.001   8.565   7.648  0.8903 -1.1137 -0.9796
23026SOL     OW72354   5.407   9.983   6.753 -0.6471  0.2017  0.1909
23026SOL    HW172355   5.396  10.044   6.680  4.5486  0.2927 -0.8975
23026SOL    HW272356   5.424  10.039   6.829  1.2120  0.2499 -0.2039
23027SOL     OW72357   4.343   3.967   9.095  0.4732 -0.3688  0.0481
23027SOL    HW172358   4.262   3.918   9.108  1.5970 -2.6517 -0.8788
23027SOL    HW272359   4.396   3.910   9.038  0.9694  2.9714 -3.2359
23028SOL     OW72360   7.656   4.834   2.908  0.1358  0.5654  0.2271
23028SOL    HW172361   7.560   4.831   2.901 -0.0726 -1.8802  2.5631
23028SOL    HW272362   7.686   4.778   2.836 -0.4266 -1.1447  1.2511
23029SOL     OW72363   7.471   3.137   3.530 -0.0723  0.1978  0.3192
23029SOL    HW172364   7.468   3.137   3.434 -0.2493  0.4386  0.3208
23029SOL    HW272365   7.381   3.121   3.557  0.3174 -2.0249  0.4686
23030SOL     OW72366   3.438   1.002   6.482  0.0749  0.5539  0.2131
23030SOL    HW172367   3.459   0.924   6.431 -0.5708 -0.9735  2.1249
23030SOL    HW272368   3.511   1.012   6.543 -0.3845  0.7496  0.7416
23031SOL     OW72369   7.017   1.330   6.508 -0.5013 -0.0149  0.1051
23031SOL    HW172370   6.946   1.393   6.507 -0.0568  0.5079  0.7520
23031SOL    HW272371   6.987   1.258   6.453 -0.0552  1.7703 -2.6354
23032SOL     OW72372   8.635   0.002   3.485 -0.3181 -0.3837 -0.0899
23032SOL    HW172373   8.598   0.090   3.475 -0.2592 -0.3919 -0.3889
23032SOL    HW272374   8.626  -0.017   3.578  1.3252  0.6835  0.3351
23033SOL     OW72375   7.905   1.757   1.335  0.1811 -0.2263 -0.2438
23033SOL    HW172376   7.976   1.706   1.297  0.9584  1.2418 -0.8435
23033SOL    HW272377   7.936   1.847   1.332 -1.8577  0.5096 -0.8406
23034SOL     OW72378   8.019   2.956   1.244  0.4306 -0.5870  0.0845
23034SOL    HW172379   7.937   2.916   1.215  0.3885 -0.3206 -0.1707
23034SOL    HW272380   8.006   3.050   1.230  0.2499 -0.4064  1.3756
23035SOL     OW72381   0.467   8.219   8.285  0.0217 -0.1148  0.8451
23035SOL    HW172382   0.454   8.124   8.286  1.1994 -0.3040  0.6447
23035SOL    HW272383   0.559   8.230   8.310 -0.0190  0.9614  0.5580
23036SOL     OW72384   8.571   1.378   5.582 -0.1129  0.6765  0.1714
23036SOL    HW172385   8.544   1.435   5.654 -1.5897  0.2661 -0.0329
23036SOL    HW272386   8.532   1.293   5.601  0.2114  0.3219 -0.6616
23037SOL     OW72387   5.961   1.659  10.101 -0.6707  0.3494  0.7423
23037SOL    HW172388   5.874   1.697  10.097 -1.8186 -2.0360  1.3185
23037SOL    HW272389   5.965   1.599  10.027 -0.1889 -0.8229  1.6864
23038SOL     OW72390   0.514  10.953   9.758  0.1093 -0.4358 -0.2466
23038SOL    HW172391   0.564  10.996   9.828 -0.8834  1.0481 -0.3972
23038SOL    HW272392   0.545  10.863   9.758  0.1628 -0.4763  2.1080
23039SOL     OW72393   9.477   8.331  11.228  0.0069  0.3807  0.3768
23039SOL    HW172394   9.519   8.299  11.149  1.5963  0.5949  1.0891
23039SOL    HW272395   9.535   8.401  11.259 -0.2313 -0.1185  2.0568
23040SOL     OW72396   3.938   1.399   3.900 -0.1294  0.4189  0.1997
23040SOL    HW172397   4.022   1.352   3.904 -0.4170 -0.1003  0.2104
23040SOL    HW272398   3.963   1.490   3.884  0.4049  0.1236 -0.7494
23041SOL     OW72399   6.991   1.544   4.210 -0.1375 -0.0692 -0.2435
23041SOL    HW172400   7.019   1.456   4.232 -0.3153 -0.8241 -2.6918
23041SOL    HW272401   6.933   1.570   4.281 -0.2924 -2.0292  0.4029
23042SOL     OW72402   4.146   4.963   2.967  0.1066 -0.0771 -0.5142
23042SOL    HW172403   4.152   4.960   3.062  2.3064  1.0267 -0.5603
23042SOL    HW272404   4.130   4.873   2.940  0.4619 -0.5574  0.8455
23043SOL     OW72405   6.905   8.017   0.952 -0.0422  0.2009  0.4915
23043SOL    HW172406   6.834   8.020   1.016  0.8238  0.7263  1.4586
23043SOL    HW272407   6.984   8.007   1.004  0.5940 -0.6414 -0.5842
23044SOL     OW72408   5.619   2.303   2.418 -0.3328 -0.5345  0.2648
23044SOL    HW172409   5.569   2.234   2.462 -1.2944  0.2591  0.4333
23044SOL    HW272410   5.676   2.256   2.357 -1.4208 -1.4553 -0.0788
23045SOL     OW72411   9.729   7.407   9.154  1.6010 -0.0617  0.0584
23045SOL    HW172412   9.786   7.349   9.104  0.7162 -0.1808 -0.8535
23045SOL    HW272413   9.689   7.351   9.220 -0.5191 -0.9573 -1.8478
23046SOL     OW72414   2.630   2.129   6.305 -0.2823  0.1458 -0.1517
23046SOL    HW172415   2.630   2.223   6.320  0.6079  0.1218  0.0617
23046SOL    HW272416   2.629   2.091   6.393 -0.2504 -0.0392 -0.2310
23047SOL     OW72417   8.294   9.040   2.711  0.1176 -0.0498  0.3878
23047SOL    HW172418   8.365   9.102   2.693  0.5510 -0.8107 -0.6149
23047SOL    HW272419   8.220   9.096   2.734  0.4865  0.8752 -0.5497
23048SOL     OW72420  11.372   5.046   2.456  0.7328 -0.3460  0.1219
23048SOL    HW172421  11.361   5.017   2.366  0.3371  2.1395 -0.6866
23048SOL    HW272422  11.286   5.035   2.496  0.7745 -0.9345  0.0682
23049SOL     OW72423   7.944   8.822   5.624  0.3058  0.6241 -0.0729
23049SOL    HW172424   7.869   8.774   5.661  0.2543  1.1145  0.4927
23049SOL    HW272425   8.003   8.754   5.593  1.1042  0.0762  2.4008
23050SOL     OW72426   0.626   1.805  10.838 -0.4523 -0.4807 -0.1648
23050SOL    HW172427   0.585   1.890  10.858 -0.3927 -0.5658  0.3267
23050SOL    HW272428   0.568   1.766  10.772 -1.1331 -0.5654  0.4658
23051SOL     OW72429   5.891   4.072   1.302 -0.2803  0.0024  0.2834
23051SOL    HW172430   5.837   4.107   1.373 -0.6971 -0.3444  0.1384
23051SOL    HW272431   5.851   3.988   1.281  1.0041 -0.8310  0.9876
23052SOL     OW72432   7.469   8.968   5.808  0.2747  0.3585 -0.3435
23052SOL    HW172433   7.394   8.910   5.823  1.6187 -1.7077 -1.2283
23052SOL    HW272434   7.457   9.039   5.871 -2.5419  0.2412 -0.6266
23053SOL     OW72435  10.214   8.851   7.914 -0.1455 -0.0725  0.5599
23053SOL    HW172436  10.270   8.777   7.935 -0.9769 -0.6007  0.9375
23053SOL    HW272437  10.259   8.895   7.841 -0.6226 -2.0856 -1.0598
23054SOL     OW72438   2.928   5.485  10.248 -0.0948  0.0158  0.0100
23054SOL    HW172439   2.979   5.437  10.183 -0.7915 -0.9615  0.1510
23054SOL    HW272440   2.993   5.522  10.307  0.4773 -2.4231  1.0377
23055SOL     OW72441   9.551   8.165   8.737 -0.7370 -0.1637  0.1269
23055SOL    HW172442   9.561   8.257   8.712 -1.4958 -0.6689 -2.4160
23055SOL    HW272443   9.634   8.125   8.712  0.3855  0.0974  3.0977
23056SOL     OW72444   3.109  11.212   7.425  0.1738  0.1145 -0.1524
23056SOL    HW172445   3.130  11.191   7.334 -0.9286  1.6417 -0.8087
23056SOL    HW272446   3.193  11.234   7.465  0.6078 -0.0613 -0.9421
23057SOL     OW72447   0.752   7.658   4.977 -0.2305 -0.0375 -0.3062
23057SOL    HW172448   0.803   7.641   4.898 -0.3049  1.7391 -0.7781
23057SOL    HW272449   0.704   7.738   4.958 -1.6393 -0.5462  0.8918
23058SOL     OW72450  11.334  10.062   3.990  0.0802  0.1631  0.8436
23058SOL    HW172451  11.305  10.151   4.009 -0.8713  0.2996 -1.0259
23058SOL    HW272452  11.291  10.008   4.056 -0.0429  0.9825  1.4464
23059SOL     OW72453  10.299   7.573   8.702 -0.0309 -0.2155 -0.1456
23059SOL    HW172454  10.286   7.514   8.776 -1.3435 -1.5341 -1.3610
23059SOL    HW272455  10.362   7.528   8.645 -0.0329  0.1597 -0.4521
23060SOL     OW72456   3.624   2.335   8.559 -0.7120  0.4255  0.0355
23060SOL    HW172457   3.653   2.388   8.484  0.5791  0.0524  0.2586
23060SOL    HW272458   3.530   2.355   8.567 -0.6674  1.1770 -1.0988
23061SOL     OW72459   3.329   3.757   1.903  0.3785 -0.1328  0.0139
23061SOL    HW172460   3.384   3.681   1.886 -0.9400 -0.6254 -2.4851
23061SOL    HW272461   3.256   3.723   1.955 -0.8493 -0.9506 -2.1185
23062SOL     OW72462   1.370   2.587   1.894  0.0079 -0.3388 -0.3581
23062SOL    HW172463   1.348   2.598   1.987 -0.5526  0.2110 -0.5504
23062SOL    HW272464   1.295   2.541   1.857  0.5550 -1.2307 -0.3995
23063SOL     OW72465   1.927   8.368   3.970 -0.3447 -0.0655 -0.4575
23063SOL    HW172466   1.995   8.427   3.938  0.1049 -1.5308 -2.4689
23063SOL    HW272467   1.851   8.424   3.984  0.5609  1.2341 -0.5257
23064SOL     OW72468   3.813   2.178   5.545  0.2857  0.1010 -0.5187
23064SOL    HW172469   3.731   2.200   5.500  0.4109  1.4987 -0.1119
23064SOL    HW272470   3.819   2.083   5.539 -1.0579  0.0319 -1.0988
23065SOL     OW72471   3.613  11.252  10.845 -0.5476  0.3877  0.2842
23065SOL    HW172472   3.535  11.213  10.805  0.0789  0.5115 -1.0924
23065SOL    HW272473   3.661  11.291  10.772  1.0954 -0.1823  1.0197
23066SOL     OW72474   6.303   0.783   5.703 -0.0263  0.8891  0.1111
23066SOL    HW172475   6.295   0.843   5.777  0.8559 -0.4745  1.3976
23066SOL    HW272476   6.233   0.719   5.716  1.5441 -0.7483  1.2459
23067SOL     OW72477   6.796   6.332   1.042 -0.8101 -0.0433 -0.1210
23067SOL    HW172478   6.746   6.257   1.072 -0.1797 -0.5522 -0.3169
23067SOL    HW272479   6.888   6.305   1.051 -0.5899  0.3135 -1.1557
23068SOL     OW72480   7.452   4.538   3.332  0.1012  0.7577  0.2436
23068SOL    HW172481   7.530   4.493   3.364  0.0395 -0.2508 -0.9454
23068SOL    HW272482   7.476   4.568   3.244 -1.6486 -1.9393 -1.2840
23069SOL     OW72483   5.453   3.741   4.424  0.2177  0.0414  0.3052
23069SOL    HW172484   5.392   3.707   4.359 -1.1261 -1.8813  2.4385
23069SOL    HW272485   5.403   3.809   4.469  1.4866  2.0938 -1.2035
23070SOL     OW72486   2.039   7.337   3.462 -0.3779  0.1830  0.2777
23070SOL    HW172487   2.030   7.242   3.470 -1.3896  0.3575  1.4793
23070SOL    HW272488   1.950   7.369   3.448 -0.0648  0.9680  0.0153
23071SOL     OW72489  10.735   5.215   8.463  0.7387 -0.2018  0.0762
23071SOL    HW172490  10.660   5.170   8.425  0.2188  0.4337  0.3335
23071SOL    HW272491  10.810   5.181   8.414  0.5576 -2.4267  1.2257
23072SOL     OW72492   6.314   7.981  10.891  0.8335 -0.0188 -0.2982
23072SOL    HW172493   6.266   8.059  10.919  0.1832 -0.8778  1.0908
23072SOL    HW272494   6.359   7.951  10.970  1.0962 -1.0267 -0.8168
23073SOL     OW72495   3.399   8.207   1.078 -0.2668  0.4051  0.2211
23073SOL    HW172496   3.478   8.171   1.037 -0.2035  1.7170 -0.9010
23073SOL    HW272497   3.389   8.157   1.159  1.3544 -0.2091  0.0850
23074SOL     OW72498   4.512   9.969   9.794 -0.0631  0.6114 -0.5874
23074SOL    HW172499   4.503  10.062   9.771 -0.0460  1.3029  1.9181
23074SOL    HW272500   4.561   9.969   9.876 -0.5620 -1.5923 -0.2253
23075SOL     OW72501   7.052   8.307   2.000 -0.2779  0.1154  0.0819
23075SOL    HW172502   7.053   8.259   2.083 -1.8651 -1.9832 -1.0178
23075SOL    HW272503   7.135   8.354   1.998  0.3893 -0.8635  2.2353
23076SOL     OW72504   8.131   9.548   7.343 -0.1934  0.1079  0.2651
23076SOL    HW172505   8.146   9.576   7.433  1.6092 -0.1631  0.0977
23076SOL    HW272506   8.083   9.620   7.302  0.5876  1.0562  0.9703
23077SOL     OW72507   5.373   3.167   5.128  0.6423 -0.6783 -0.0610
23077SOL    HW172508   5.459   3.210   5.117  2.0250 -2.3203  2.9122
23077SOL    HW272509   5.344   3.197   5.215  0.3769 -3.4730  0.9053
23078SOL     OW72510   3.459   1.484   7.815 -0.6867  0.2285 -0.3962
23078SOL    HW172511   3.414   1.558   7.855 -0.1029  0.7737 -0.7313
23078SOL    HW272512   3.513   1.448   7.884  0.3697  1.2076 -0.6860
23079SOL     OW72513   2.106   7.453   3.886 -0.2312  0.3768  1.2330
23079SOL    HW172514   2.153   7.377   3.853 -1.2407 -0.2606  1.2071
23079SOL    HW272515   2.092   7.434   3.979 -0.7927  0.3615  1.1491
23080SOL     OW72516   4.768   0.166   2.543 -0.6291 -0.8327  0.1220
23080SOL    HW172517   4.827   0.131   2.477  0.4270 -0.5965  0.9150
23080SOL    HW272518   4.681   0.132   2.519 -0.4226 -0.1086 -1.8358
23081SOL     OW72519   9.653   8.998   0.893 -0.2528  0.0083  0.3119
23081SOL    HW172520   9.597   8.968   0.964  0.5040  0.1675  0.9819
23081SOL    HW272521   9.673   9.089   0.915 -1.5204  0.6748 -1.0688
23082SOL     OW72522   2.788   4.376   9.413  0.8563  0.3776  0.3024
23082SOL    HW172523   2.698   4.395   9.387 -0.1374 -1.8915  1.7999
23082SOL    HW272524   2.833   4.355   9.331 -0.0974  0.9848 -0.3921
23083SOL     OW72525   5.419   3.615   9.693  0.2148 -0.3766  0.2160
23083SOL    HW172526   5.392   3.575   9.775 -0.4367  1.1814  0.8079
23083SOL    HW272527   5.509   3.642   9.707 -0.6134  2.1024  1.3937
23084SOL     OW72528   2.065   9.114   2.074  0.2631  1.0052  0.1087
23084SOL    HW172529   2.083   9.174   2.001 -1.0989  1.2613 -0.0335
23084SOL    HW272530   1.970   9.112   2.081  0.3104 -0.4789  0.6748
23085SOL     OW72531  10.136   7.839   1.282  0.3407  0.2860  0.4015
23085SOL    HW172532  10.188   7.883   1.350 -0.5362  2.2342 -0.1196
23085SOL    HW272533  10.062   7.801   1.330  0.8505 -0.2291  0.7972
23086SOL     OW72534   6.721   0.302  10.139 -0.3511 -0.2561  0.9848
23086SOL    HW172535   6.720   0.330  10.230 -0.6604 -1.8673  1.5082
23086SOL    HW272536   6.731   0.207  10.143 -1.7531 -0.5312 -0.6131
23087SOL     OW72537   7.783   4.773  11.080 -0.3028  0.4049 -0.1943
23087SOL    HW172538   7.754   4.735  10.997 -2.0843  0.6357  0.2827
23087SOL    HW272539   7.766   4.867  11.070 -1.7544  0.2935  0.8547
23088SOL     OW72540   5.815   9.153   1.000  0.0663 -0.6394  0.3140
23088SOL    HW172541   5.904   9.118   0.997 -0.3804 -1.8094 -0.0596
23088SOL    HW272542   5.800   9.172   1.093  1.0031  0.4149  0.2704
23089SOL     OW72543   8.168  10.507   8.008 -0.1049  0.2974  0.4732
23089SOL    HW172544   8.241  10.458   8.045 -0.3520 -0.5785 -0.1788
23089SOL    HW272545   8.093  10.486   8.065 -0.0689  0.4087  0.5610
23090SOL     OW72546   0.252   0.431   8.391  0.3692 -0.2218  0.1210
23090SOL    HW172547   0.328   0.439   8.334 -0.0648 -0.3317 -0.4849
23090SOL    HW272548   0.179   0.409   8.332  0.1796 -1.8091  0.8662
23091SOL     OW72549   0.957   4.380   1.549 -0.3336  0.0372  0.0633
23091SOL    HW172550   0.950   4.357   1.642 -2.8086  2.4977  0.5981
23091SOL    HW272551   0.977   4.297   1.506  0.8981 -1.1859  2.7443
23092SOL     OW72552   5.198  11.177  11.334 -0.0653 -0.0996 -0.4828
23092SOL    HW172553   5.148  11.181  11.252  0.0591  1.4276 -0.5058
23092SOL    HW272554   5.131  11.170  11.402 -0.1701 -4.3928 -0.7322
23093SOL     OW72555   7.793   3.789   2.081 -0.1367 -0.2954  0.5442
23093SOL    HW172556   7.851   3.806   2.007  0.3976 -0.1268  0.9920
23093SOL    HW272557   7.849   3.797   2.158 -0.7725 -0.0311  0.9964
23094SOL     OW72558   2.550   4.784   2.238 -0.0227 -0.2007  0.3063
23094SOL    HW172559   2.579   4.719   2.302  0.1468  0.6668  1.1521
23094SOL    HW272560   2.503   4.849   2.291  0.7957  0.9429 -0.3240
23095SOL     OW72561   7.107   6.126   9.371 -0.3942  0.3085 -0.5514
23095SOL    HW172562   7.083   6.214   9.343  0.1841  0.1447 -1.6164
23095SOL    HW272563   7.031   6.072   9.347  0.0709  0.1813 -1.7958
23096SOL     OW72564  11.378   8.210   7.509 -0.0685  0.6886 -0.1978
23096SOL    HW172565  11.299   8.178   7.554 -0.2360  1.1485 -0.1586
23096SOL    HW272566  11.383   8.302   7.534 -0.0415  0.8974 -0.9571
23097SOL     OW72567   0.688   2.180   2.719  0.3329  0.2601 -0.3318
23097SOL    HW172568   0.615   2.222   2.764  0.5276  0.6727 -0.4018
23097SOL    HW272569   0.690   2.220   2.632 -0.3736 -0.9100 -0.9066
23098SOL     OW72570   6.429   2.432   3.026 -0.1974  0.1429  0.1164
23098SOL    HW172571   6.410   2.340   3.006 -0.5063 -0.0133  1.0770
23098SOL    HW272572   6.384   2.482   2.958 -0.0728 -0.4132 -0.3789
23099SOL     OW72573   8.954   9.363   0.956  0.4247 -0.2018  0.4658
23099SOL    HW172574   9.048   9.352   0.972  0.6345  1.5398  0.6556
23099SOL    HW272575   8.912   9.302   1.017  1.4194 -0.3635  1.0130
23100SOL     OW72576   0.067   9.513   0.998 -0.5373  0.0184  0.0247
23100SOL    HW172577   0.114   9.521   0.916  0.5708  0.1465  0.6606
23100SOL    HW272578   0.135   9.510   1.065 -1.4411  1.1288  1.0441
23101SOL     OW72579   3.851   4.832   7.725 -0.2782 -0.3491  0.1344
23101SOL    HW172580   3.786   4.766   7.701  0.8275 -1.0461 -1.0540
23101SOL    HW272581   3.903   4.790   7.793  1.2541 -1.2774 -1.5308
23102SOL     OW72582   0.490   7.888   6.477 -0.5677 -0.0008  0.1921
23102SOL    HW172583   0.475   7.903   6.384  0.8418 -1.0243 -0.2260
23102SOL    HW272584   0.581   7.915   6.491 -0.3046 -1.2205  0.9475
23103SOL     OW72585  10.975   0.713   8.407  0.2720 -0.3798 -0.5133
23103SOL    HW172586  10.942   0.642   8.353 -0.2026 -1.0645  0.6518
23103SOL    HW272587  10.943   0.793   8.364  0.0699 -0.9013 -1.3424
23104SOL     OW72588  10.881   9.512   9.912 -0.0265 -0.1241 -0.4170
23104SOL    HW172589  10.845   9.449   9.975 -2.0528 -0.0552 -1.4332
23104SOL    HW272590  10.895   9.461   9.832 -0.9962  0.5183 -1.0199
23105SOL     OW72591   9.277   4.889   3.828 -0.4795  0.1834  0.2174
23105SOL    HW172592   9.362   4.907   3.868 -0.8598 -0.9888  1.6482
23105SOL    HW272593   9.294   4.890   3.734  0.9718  0.5886  0.4572
23106SOL     OW72594  10.072   9.288   3.040  0.4899 -0.1653  0.8487
23106SOL    HW172595  10.032   9.328   2.962 -0.1445 -0.3210  1.0900
23106SOL    HW272596  10.054   9.350   3.110  2.1531  0.5932  0.6538
23107SOL     OW72597   9.241   5.110  10.680  0.1980 -0.7439 -0.3032
23107SOL    HW172598   9.297   5.124  10.604  1.5653  4.5815  1.2349
23107SOL    HW272599   9.297   5.064  10.743  1.2265  0.1494 -0.5224
23108SOL     OW72600   1.411   4.249  10.033  0.2391  0.0698 -0.2079
23108SOL    HW172601   1.318   4.236  10.054  0.2028 -1.1000 -1.0304
23108SOL    HW272602   1.411   4.304   9.954  0.3295  2.0824  1.1037
23109SOL     OW72603  10.219   1.559  11.204  0.1925 -0.0374 -0.2414
23109SOL    HW172604  10.298   1.505  11.206  0.5316  0.4209 -0.8506
23109SOL    HW272605  10.146   1.497  11.213  0.6406 -0.3395  2.1132
23110SOL     OW72606   2.243   2.911   1.686  0.4625 -0.9477  0.2508
23110SOL    HW172607   2.313   2.853   1.657 -0.0451 -1.9110  0.8657
23110SOL    HW272608   2.273   2.943   1.771  0.5718 -0.6043  0.0845
23111SOL     OW72609   2.799   2.844   3.496 -0.0840  0.4498 -0.5750
23111SOL    HW172610   2.861   2.898   3.545 -1.5994  2.6761 -0.9715
23111SOL    HW272611   2.724   2.836   3.555 -1.2672  1.7758 -1.8351
23112SOL     OW72612   9.900   2.549   2.157 -0.0827 -0.3090 -0.2134
23112SOL    HW172613   9.889   2.480   2.091  1.5515  0.7197 -1.6514
23112SOL    HW272614   9.854   2.625   2.120 -0.7095 -0.2243  0.7142
23113SOL     OW72615   1.181   9.485   2.070 -0.0664 -0.0508 -0.1257
23113SOL    HW172616   1.242   9.411   2.068 -1.3761 -1.1823 -0.7612
23113SOL    HW272617   1.148   9.487   2.160 -0.2713 -0.4747 -0.1876
23114SOL     OW72618   0.669   7.107   7.539  0.0017 -0.1934  0.3136
23114SOL    HW172619   0.578   7.103   7.511  0.3406 -1.1832 -0.7015
23114SOL    HW272620   0.700   7.192   7.507 -0.3074 -0.2555 -0.1622
23115SOL     OW72621   8.214   2.321   4.520 -0.0205 -0.7284  0.1448
23115SOL    HW172622   8.125   2.351   4.541 -0.3667 -2.7773  1.9787
23115SOL    HW272623   8.259   2.318   4.604  0.6971 -2.9372 -0.2532
23116SOL     OW72624   0.202   4.456   0.026  0.4301  0.2951 -0.2900
23116SOL    HW172625   0.226   4.512  -0.048 -1.3508  0.6419 -0.6534
23116SOL    HW272626   0.113   4.483   0.048  0.1374 -1.2786  0.5890
23117SOL     OW72627   1.790   5.102   9.682  0.0555  0.2762  0.4517
23117SOL    HW172628   1.855   5.087   9.751  0.2455 -1.6203 -0.0814
23117SOL    HW272629   1.707   5.105   9.728  0.0147 -2.3920  0.7495
23118SOL     OW72630   2.576   9.724   6.765 -0.2815  0.2612  0.1795
23118SOL    HW172631   2.621   9.794   6.811  0.5966  0.7147 -1.2790
23118SOL    HW272632   2.645   9.680   6.714 -0.4424 -2.8256  2.3149
23119SOL     OW72633   0.618   6.125   8.786 -0.2941 -0.0344 -0.3072
23119SOL    HW172634   0.675   6.146   8.713  0.1866  0.4127  0.1875
23119SOL    HW272635   0.673   6.074   8.846 -1.2593 -2.2661 -1.2024
23120SOL     OW72636   3.391  10.273   8.183  0.7033  0.4855  0.5753
23120SOL    HW172637   3.368  10.308   8.269  1.2068 -3.9942  2.8635
23120SOL    HW272638   3.475  10.228   8.197  1.2105  0.2504 -2.4997
23121SOL     OW72639   4.501  10.887   4.016  0.2914 -0.1017  0.2986
23121SOL    HW172640   4.589  10.902   4.048 -0.0156 -0.4420  1.3501
23121SOL    HW272641   4.483  10.795   4.038 -0.0155 -0.2783 -0.6555
23122SOL     OW72642  10.039   9.779   5.599  0.4209 -0.1390 -0.1575
23122SOL    HW172643  10.036   9.824   5.515 -2.1839 -0.1237 -0.1425
23122SOL    HW272644  10.019   9.847   5.664  2.1122 -0.2117  0.5114
23123SOL     OW72645   2.775  11.203   7.351  0.2109  0.4057  0.0546
23123SOL    HW172646   2.757  11.239   7.264  1.0396 -0.0262 -0.3050
23123SOL    HW272647   2.807  11.114   7.335 -0.1210  0.1340  0.8318
23124SOL     OW72648   9.696   4.992   5.650  1.1630 -0.0450 -0.0926
23124SOL    HW172649   9.645   4.922   5.609 -0.1761  0.6774  0.2853
23124SOL    HW272650   9.782   4.987   5.608  0.6721 -1.0710 -1.0143
23125SOL     OW72651   4.315   1.777   2.584  0.4802  0.0290  0.9966
23125SOL    HW172652   4.407   1.770   2.560 -0.2385 -3.0699 -1.5977
23125SOL    HW272653   4.273   1.817   2.507 -0.3451  2.0405  2.4048
23126SOL     OW72654   8.269   1.842   2.752  0.3102 -0.4370 -0.4934
23126SOL    HW172655   8.268   1.749   2.730  0.2816 -0.7446  0.7472
23126SOL    HW272656   8.354   1.873   2.722 -0.1872 -0.5479 -2.0987
23127SOL     OW72657   4.587   2.389  10.127 -0.4712  0.5508  0.2093
23127SOL    HW172658   4.647   2.426  10.192  1.7099 -1.5179 -0.4824
23127SOL    HW272659   4.557   2.306  10.165 -1.0211  0.4273 -0.4586
23128SOL     OW72660   4.954   5.630  10.309  0.0413 -0.2195  0.7894
23128SOL    HW172661   5.038   5.584  10.309  0.3548  0.3107  2.0373
23128SOL    HW272662   4.888   5.562  10.295  0.6151 -0.7912  0.8555
23129SOL     OW72663   5.785   6.923   8.498  0.2310  0.2903  0.3889
23129SOL    HW172664   5.729   6.981   8.550  0.6450  0.8596  0.2221
23129SOL    HW272665   5.870   6.969   8.496  0.7755 -0.6710  0.8458
23130SOL     OW72666   0.984   7.397   8.473  0.2238 -0.4333 -0.4001
23130SOL    HW172667   1.061   7.392   8.530 -0.3633 -1.2651  0.3344
23130SOL    HW272668   0.977   7.490   8.452  0.2969 -0.0566  1.1041
23131SOL     OW72669   3.710   4.690   1.670  0.0683  0.0680  0.1790
23131SOL    HW172670   3.712   4.622   1.602 -0.1696 -0.2833  0.5182
23131SOL    HW272671   3.739   4.769   1.625 -0.8349  0.0167 -0.5408
23132SOL     OW72672   3.405  10.201   6.829 -0.3990 -0.1856 -0.3073
23132SOL    HW172673   3.390  10.294   6.845  1.8070  0.0772  0.5098
23132SOL    HW272674   3.436  10.197   6.738  0.1790 -0.0088 -0.1252
23133SOL     OW72675   2.219   9.048   1.684 -0.4555 -0.1554  0.2452
23133SOL    HW172676   2.214   8.999   1.766 -0.5664  0.2764  0.4971
23133SOL    HW272677   2.253   9.134   1.709 -1.3518  0.2855 -0.0281
23134SOL     OW72678   6.201   3.656   1.892 -0.0480 -0.8259  0.2006
23134SOL    HW172679   6.198   3.573   1.845  2.2319 -0.9375  0.1494
23134SOL    HW272680   6.197   3.632   1.985 -0.1374 -0.9251  0.1705
23135SOL     OW72681   4.927   6.217   6.563 -0.8003  0.2413 -0.4943
23135SOL    HW172682   4.961   6.210   6.652  0.6013 -2.1204 -1.1346
23135SOL    HW272683   4.842   6.174   6.567 -1.0714  0.7870 -0.1779
23136SOL     OW72684   6.359   0.579   4.578  0.1024 -0.2951  0.6100
23136SOL    HW172685   6.302   0.502   4.571  0.2401 -0.2380 -1.9530
23136SOL    HW272686   6.324   0.628   4.653 -1.2967 -1.7828  0.9861
23137SOL     OW72687   3.314   5.066   0.090 -0.0829 -0.1092 -0.4906
23137SOL    HW172688   3.278   5.155   0.093  0.5189  0.2002 -1.7465
23137SOL    HW272689   3.336   5.046   0.181 -1.1197  0.6444 -0.0550
23138SOL     OW72690   5.782   1.995  10.919  0.1464  0.1153 -0.0286
23138SOL    HW172691   5.861   1.957  10.878 -0.7172 -1.8671  0.0167
23138SOL    HW272692   5.798   1.987  11.013 -0.0468 -0.1867 -0.0193
23139SOL     OW72693   3.833  10.656   5.036  0.0183 -0.2071  0.0348
23139SOL    HW172694   3.853  10.563   5.033 -1.4003 -0.5498  0.3571
23139SOL    HW272695   3.747  10.664   4.995 -1.2749  0.5129  2.6215
23140SOL     OW72696   5.471   6.029   1.669 -0.0011 -0.2530  0.1850
23140SOL    HW172697   5.559   6.027   1.709 -0.1548 -1.0342  0.5120
23140SOL    HW272698   5.451   6.122   1.659  0.8116 -0.0648  0.2339
23141SOL     OW72699   2.045   0.185   2.804  1.0048 -0.0630  0.4955
23141SOL    HW172700   2.056   0.226   2.889 -0.3591  2.6591 -0.5253
23141SOL    HW272701   1.958   0.145   2.807  1.1682 -0.4221  0.5372
23142SOL     OW72702   5.141   8.878  10.716  0.0344 -0.2326 -0.0887
23142SOL    HW172703   5.125   8.968  10.689  1.9302 -0.1042 -0.9531
23142SOL    HW272704   5.230   8.879  10.751 -0.3827 -1.5298  1.1285
23143SOL     OW72705  10.727   4.347   2.373 -0.1912  0.2507  0.1741
23143SOL    HW172706  10.740   4.434   2.336  0.5008  0.2256  0.3380
23143SOL    HW272707  10.651   4.312   2.327  0.2910  0.4523 -0.7985
23144SOL     OW72708   1.489   7.793   3.761  0.0086  0.2712 -0.5610
23144SOL    HW172709   1.444   7.767   3.842 -0.8349  0.4803 -0.9515
23144SOL    HW272710   1.420   7.796   3.695  0.7244 -0.0850 -1.3402
23145SOL     OW72711   4.740   1.887   1.136 -0.0518  0.3871 -0.1384
23145SOL    HW172712   4.674   1.877   1.205  0.2409  1.2738  0.2784
23145SOL    HW272713   4.765   1.979   1.140  1.3765  0.0124 -0.1586
23146SOL     OW72714   1.474   9.602   8.098 -0.0507  1.1662  0.1350
23146SOL    HW172715   1.421   9.537   8.143  0.8442  0.4380  0.1612
23146SOL    HW272716   1.466   9.681   8.152  0.0067  0.6696  0.8811
23147SOL     OW72717  10.050   2.586   0.640 -0.2405 -0.9010  0.0756
23147SOL    HW172718   9.986   2.650   0.607  0.0658 -0.6475 -0.0242
23147SOL    HW272719  10.067   2.528   0.566  0.1499 -0.5662 -0.1011
23148SOL     OW72720  11.045   9.117   7.465  0.4149 -0.3076  0.4864
23148SOL    HW172721  11.081   9.032   7.492  0.3506 -0.6861 -0.5625
23148SOL    HW272722  10.954   9.115   7.496  0.2766 -0.8259  0.0835
23149SOL     OW72723   4.963   4.851  10.234  0.2573 -0.1537 -0.2955
23149SOL    HW172724   5.011   4.898  10.166  0.8791  0.3024  0.4437
23149SOL    HW272725   5.020   4.777  10.256  0.3213  0.0154  0.1160
23150SOL     OW72726   6.205   8.745  10.217  0.5420  0.4176  0.2393
23150SOL    HW172727   6.176   8.781  10.133  1.6397  0.4014 -0.1567
23150SOL    HW272728   6.298   8.765  10.221  1.0871 -1.8461  0.2849
23151SOL     OW72729   4.783   7.334   5.219  0.3454  0.2705 -0.1744
23151SOL    HW172730   4.830   7.417   5.230  1.8707 -0.4301 -1.0707
23151SOL    HW272731   4.727   7.349   5.143  1.1470  0.2702 -0.7771
23152SOL     OW72732   4.898   9.793   1.128 -0.1373  0.5987  0.1899
23152SOL    HW172733   4.805   9.806   1.107 -0.1082 -0.0246 -0.3451
23152SOL    HW272734   4.937   9.880   1.115 -0.3791  0.5494 -1.0273
23153SOL     OW72735   7.785   9.017   5.864  0.1494  0.2430 -0.0118
23153SOL    HW172736   7.744   9.099   5.892  0.3505  0.5746 -0.6766
23153SOL    HW272737   7.721   8.978   5.804 -0.1756 -0.3492  0.6988
23154SOL     OW72738   8.850   9.952   3.359 -0.3787 -0.4914 -0.5710
23154SOL    HW172739   8.811   9.885   3.414  0.2330  0.0839  0.6160
23154SOL    HW272740   8.858  10.029   3.416  0.7407 -0.0262 -1.2972
23155SOL     OW72741   5.824   7.428   4.259  0.3380  0.1906  0.2945
23155SOL    HW172742   5.891   7.384   4.206  1.5125  2.0476  0.1540
23155SOL    HW272743   5.848   7.409   4.349 -0.6141 -1.4646  0.2401
23156SOL     OW72744   5.584   7.428  10.798 -0.2683  0.0904 -0.2025
23156SOL    HW172745   5.533   7.375  10.738  0.8631 -0.2032 -0.9386
23156SOL    HW272746   5.625   7.495  10.743  2.4380 -1.3969 -0.1806
23157SOL     OW72747   3.323   4.529   6.928 -0.3377 -0.6798  0.2516
23157SOL    HW172748   3.389   4.520   6.859  0.8653 -1.6548  1.4657
23157SOL    HW272749   3.257   4.587   6.891  1.5786  0.9840 -0.7446
23158SOL     OW72750   1.961   6.940  10.357  0.2670 -0.0073  0.7796
23158SOL    HW172751   1.891   6.951  10.293 -0.2048  0.5616  1.3782
23158SOL    HW272752   1.998   6.855  10.337 -0.5709 -0.3021  0.4198
23159SOL     OW72753   9.441   7.935   9.740 -0.0838 -0.0667  0.1706
23159SOL    HW172754   9.510   7.939   9.674 -1.9611  1.4807 -1.8364
23159SOL    HW272755   9.418   8.026   9.756 -2.2984 -0.5406  0.0254
23160SOL     OW72756  10.129   5.979   6.178  0.5189  0.1921 -0.3129
23160SOL    HW172757  10.044   5.975   6.220  1.4279 -1.1579  1.5907
23160SOL    HW272758  10.160   6.068   6.193 -0.8120  0.9448 -1.7126
23161SOL     OW72759   9.802   1.918   7.557 -0.4022 -0.2149 -0.6372
23161SOL    HW172760   9.710   1.902   7.539  0.0083 -1.5966 -1.6241
23161SOL    HW272761   9.837   1.954   7.475 -0.0194  0.1076 -0.3371
23162SOL     OW72762   3.434   7.930   8.542  0.3075 -0.2935  0.0342
23162SOL    HW172763   3.343   7.902   8.531 -0.7109  2.3021  1.0619
23162SOL    HW272764   3.465   7.884   8.619 -1.4459  1.5092  1.9304
23163SOL     OW72765  11.264   3.841   9.083  0.1080  0.8914  0.8305
23163SOL    HW172766  11.322   3.855   9.008  0.0314  0.5698  0.7077
23163SOL    HW272767  11.253   3.746   9.087 -0.6413  0.9635  0.6708
23164SOL     OW72768   9.781   1.423  11.177  0.1118 -0.2483 -0.1385
23164SOL    HW172769   9.707   1.433  11.237  0.5340  1.6746  0.1188
23164SOL    HW272770   9.743   1.439  11.090  0.3370  1.5053  0.0622
23165SOL     OW72771   7.467   9.116   9.581 -0.0030  0.1174 -0.1882
23165SOL    HW172772   7.418   9.107   9.498  1.5551 -0.4389 -1.0834
23165SOL    HW272773   7.556   9.137   9.554  1.4172 -3.4692  1.1216
23166SOL     OW72774   7.016   4.894   4.213  0.1814  0.2498 -0.1454
23166SOL    HW172775   7.036   4.818   4.267 -2.6091 -0.3297  0.2274
23166SOL    HW272776   7.038   4.866   4.124  1.2966 -0.1432  0.2380
23167SOL     OW72777   6.533   9.737   8.176  0.1687  0.4827  0.7678
23167SOL    HW172778   6.524   9.723   8.082 -0.2184  1.3634  0.6661
23167SOL    HW272779   6.622   9.708   8.196  0.0864 -0.1698  0.2243
23168SOL     OW72780   9.286   3.395   3.791  0.1034 -0.2823  0.5478
23168SOL    HW172781   9.338   3.354   3.722  0.8637  0.3272  0.7548
23168SOL    HW272782   9.333   3.377   3.872 -0.4359 -0.4217  0.8355
23169SOL     OW72783  10.191   6.031  11.050  0.0909 -0.4124 -0.0138
23169SOL    HW172784  10.157   6.114  11.085 -0.9099 -0.9335  0.2925
23169SOL    HW272785  10.209   5.978  11.127  1.9614 -0.0359 -0.1612
23170SOL     OW72786   9.073   4.327   6.338  0.3161 -0.0998  0.8938
23170SOL    HW172787   9.129   4.283   6.275  0.0460  0.5535  0.1806
23170SOL    HW272788   8.994   4.349   6.289  0.4645  1.2204  1.2077
23171SOL     OW72789   6.836   8.358   3.869 -0.3897 -0.2607  0.2115
23171SOL    HW172790   6.823   8.312   3.952 -1.1318  0.1919  0.3605
23171SOL    HW272791   6.931   8.369   3.862 -0.3338 -0.0363  1.1614
23172SOL     OW72792   5.332   5.736   9.140 -0.2956 -0.0425 -0.6096
23172SOL    HW172793   5.311   5.772   9.054 -0.4784 -0.9387 -0.9517
23172SOL    HW272794   5.333   5.811   9.199  0.0341  0.6015 -1.4362
23173SOL     OW72795   6.403   6.438   7.183  0.3459 -0.4062 -0.0046
23173SOL    HW172796   6.330   6.493   7.211  1.0521  0.0539  0.9801
23173SOL    HW272797   6.409   6.453   7.089  0.4049  1.0864  0.2096
23174SOL     OW72798   4.665   0.273   7.860 -0.7205  0.0857  0.3011
23174SOL    HW172799   4.707   0.326   7.793 -0.4198 -0.6076 -0.0767
23174SOL    HW272800   4.737   0.237   7.911 -0.9024 -0.1566  0.3898
23175SOL     OW72801   6.977   9.659   1.273 -0.2304  0.5021  0.1141
23175SOL    HW172802   6.895   9.626   1.310  0.2262  0.9852  1.6447
23175SOL    HW272803   7.031   9.679   1.349  1.4871 -0.1992 -0.8720
23176SOL     OW72804   5.369   5.746   1.221 -0.1366  0.2066 -0.1719
23176SOL    HW172805   5.300   5.800   1.182  0.7282  1.7731  0.3668
23176SOL    HW272806   5.433   5.809   1.254  1.6655 -1.1833 -0.8022
23177SOL     OW72807   7.370   9.889   8.648 -1.1202  0.6416 -0.7278
23177SOL    HW172808   7.281   9.858   8.632 -1.2192  0.3212  0.4136
23177SOL    HW272809   7.418   9.812   8.680 -0.7358  1.0846 -0.2175
23178SOL     OW72810   6.379   1.605   3.490  0.1192  0.4419 -0.8177
23178SOL    HW172811   6.299   1.658   3.499 -0.9960 -1.0868 -1.3647
23178SOL    HW272812   6.450   1.670   3.489 -1.0907  1.8424 -0.2780
23179SOL     OW72813   5.520   9.059   2.548  0.0982 -0.2084  0.2150
23179SOL    HW172814   5.543   8.990   2.610 -1.3977 -0.3198  0.6895
23179SOL    HW272815   5.513   9.015   2.464 -0.3010 -0.5470  0.4197
23180SOL     OW72816   9.928   3.059   3.216  0.4667  0.5654  0.0569
23180SOL    HW172817   9.988   3.128   3.244  0.0818  0.7621  0.3980
23180SOL    HW272818   9.968   3.023   3.136  0.7079  1.1268 -0.0769
23181SOL     OW72819  10.222   4.327   3.376  0.0509 -0.1645 -0.1732
23181SOL    HW172820  10.252   4.411   3.342  1.9955 -2.0691 -3.6500
23181SOL    HW272821  10.157   4.297   3.313 -0.3077 -1.4800  0.7747
23182SOL     OW72822   5.613   5.205   2.660 -0.0741 -0.3050  0.8539
23182SOL    HW172823   5.525   5.170   2.674  0.3607 -2.4392 -1.0648
23182SOL    HW272824   5.657   5.138   2.608  1.8667  1.8512 -0.4744
23183SOL     OW72825   8.167   7.336   4.012 -0.1828 -0.1412 -0.4802
23183SOL    HW172826   8.103   7.398   4.047 -0.2302 -0.8088  0.6508
23183SOL    HW272827   8.114   7.267   3.971 -0.1273  0.6906 -2.0146
23184SOL     OW72828   4.704   4.023   5.048  0.0070  0.0662 -0.5173
23184SOL    HW172829   4.764   4.063   4.984  0.0946  0.6786 -0.0577
23184SOL    HW272830   4.695   4.088   5.117 -2.3758  0.6186 -1.2606
23185SOL     OW72831   6.071   7.055   7.171 -0.3178 -0.1925 -0.1271
23185SOL    HW172832   6.028   7.139   7.189  1.0072  0.7452 -1.1725
23185SOL    HW272833   6.143   7.077   7.112 -0.1652 -2.1308 -0.7242
23186SOL     OW72834   1.617   8.403   4.188  0.3412  0.1333  0.6827
23186SOL    HW172835   1.590   8.440   4.104 -0.4466  2.0155  1.7064
23186SOL    HW272836   1.692   8.455   4.214  0.7549 -0.6235  1.0322
23187SOL     OW72837   5.662   2.481   6.030  0.1256  1.0967  0.5485
23187SOL    HW172838   5.726   2.415   6.056  0.7240  0.9434 -1.2275
23187SOL    HW272839   5.589   2.468   6.091 -0.1218 -1.7640 -0.2063
23188SOL     OW72840   5.308   2.170   8.990 -0.4125 -0.0502 -0.3651
23188SOL    HW172841   5.392   2.213   9.003 -1.7798  3.3800 -1.7229
23188SOL    HW272842   5.284   2.136   9.077  2.0453 -0.6831  0.1462
23189SOL     OW72843   3.766   1.579   4.247 -0.1580  0.0080 -0.6740
23189SOL    HW172844   3.791   1.592   4.339 -1.6718  0.6887 -0.3121
23189SOL    HW272845   3.841   1.611   4.197  0.4960  0.0968  0.3271
23190SOL     OW72846   7.562   8.154   4.284  0.4314 -0.1223  0.0893
23190SOL    HW172847   7.545   8.140   4.377  1.4918 -1.0755  0.1601
23190SOL    HW272848   7.477   8.179   4.248  0.2056  1.2867  1.4715
23191SOL     OW72849   0.012   1.396   1.980  0.7131 -0.1389  0.6284
23191SOL    HW172850  -0.056   1.350   1.930 -0.0274  1.0720  0.4909
23191SOL    HW272851  -0.015   1.386   2.071  1.4094 -1.2979  0.7329
23192SOL     OW72852   5.181   0.906  11.177 -0.0865  0.2744 -0.1868
23192SOL    HW172853   5.257   0.922  11.121 -0.1820  0.2444 -0.3251
23192SOL    HW272854   5.113   0.964  11.142  0.5788  2.1399  1.4176
23193SOL     OW72855   5.716   7.392   9.258 -0.3527  0.0623  0.0746
23193SOL    HW172856   5.735   7.398   9.352 -3.3130 -1.6638  0.9111
23193SOL    HW272857   5.802   7.394   9.216  1.1343 -0.0209  2.8651
23194SOL     OW72858   2.265   4.502   0.588 -0.1503  0.2673 -0.6276
23194SOL    HW172859   2.284   4.565   0.519 -0.2992 -0.5247 -1.4119
23194SOL    HW272860   2.344   4.448   0.594 -0.2317  0.1752 -0.3592
23195SOL     OW72861   9.913   8.565   9.052 -0.3295  0.2774 -0.0017
23195SOL    HW172862   9.997   8.579   9.009 -0.1970 -0.9967 -0.2056
23195SOL    HW272863   9.894   8.472   9.038 -0.6936  0.0082  1.9783
23196SOL     OW72864   4.126   1.029   0.094  0.0069 -0.4116 -0.1756
23196SOL    HW172865   4.059   1.095   0.108  2.5605  2.3394  0.2020
23196SOL    HW272866   4.169   1.056   0.012  1.3921 -1.3099  0.2176
23197SOL     OW72867   2.976   8.594   9.796 -0.1300  0.0637 -0.0904
23197SOL    HW172868   2.997   8.505   9.825 -1.2292  0.0269  0.6787
23197SOL    HW272869   2.969   8.587   9.701  0.7644 -0.4509 -0.1231
23198SOL     OW72870   2.149   0.304   9.885 -0.5262 -0.3455 -0.3562
23198SOL    HW172871   2.148   0.345   9.972 -2.8736 -0.3118 -0.3311
23198SOL    HW272872   2.206   0.360   9.833 -0.1726  0.4169  0.8024
23199SOL     OW72873   8.184   8.874   9.176  0.3684 -0.5881 -0.3624
23199SOL    HW172874   8.264   8.888   9.124  0.4834 -2.0517 -0.6277
23199SOL    HW272875   8.214   8.826   9.253 -0.1220 -0.2743  0.0295
23200SOL     OW72876   0.700   4.798   2.267 -0.5091 -0.3955 -0.5841
23200SOL    HW172877   0.638   4.782   2.337  0.6216  2.0514  1.1515
23200SOL    HW272878   0.652   4.853   2.205 -0.2757  1.1472  0.5458
23201SOL     OW72879   9.887   8.121   3.494 -0.4749 -0.3330 -0.3115
23201SOL    HW172880   9.792   8.110   3.490 -0.6852  1.0680  0.2342
23201SOL    HW272881   9.922   8.043   3.450 -1.8912 -0.5027 -1.2185
23202SOL     OW72882   2.280   3.608   9.098  0.4656  0.4369  0.1785
23202SOL    HW172883   2.201   3.586   9.147 -0.0427  0.6801 -0.5218
23202SOL    HW272884   2.319   3.524   9.076  0.5836  0.3204  0.7915
23203SOL     OW72885   3.050   0.735   9.753 -0.1030  0.1585 -0.0827
23203SOL    HW172886   3.035   0.806   9.816 -0.1705 -1.2708  1.6066
23203SOL    HW272887   3.145   0.723   9.752 -0.0663  0.4754 -0.6122
23204SOL     OW72888   3.055   1.588   3.014  0.1870  0.2360  0.1030
23204SOL    HW172889   3.096   1.547   2.938 -1.5635  0.5730 -1.0587
23204SOL    HW272890   3.095   1.543   3.089 -0.3439 -2.3545 -1.0630
23205SOL     OW72891   7.594   0.568   9.135 -0.3438  0.2518  0.0958
23205SOL    HW172892   7.632   0.524   9.211 -0.9247  0.1804  0.3580
23205SOL    HW272893   7.506   0.592   9.164 -0.3957  0.6681 -0.3926
23206SOL     OW72894   6.563   8.175   0.257 -0.5058 -0.1479  0.0975
23206SOL    HW172895   6.477   8.173   0.215 -0.6056  0.5930  0.2622
23206SOL    HW272896   6.610   8.245   0.212 -0.8848  1.2112  1.7328
23207SOL     OW72897   1.854   8.461   0.342 -0.5508  0.1496 -0.1627
23207SOL    HW172898   1.776   8.495   0.385 -0.5064  0.3545 -0.2471
23207SOL    HW272899   1.865   8.373   0.379  0.0104  0.6561  0.9548
23208SOL     OW72900   7.132   7.038   7.305  0.2589 -0.1634 -0.3930
23208SOL    HW172901   7.106   7.025   7.396  0.8122 -0.7783 -0.3152
23208SOL    HW272902   7.173   7.125   7.304 -3.5268  1.8465 -0.9387
23209SOL     OW72903   7.761   3.751   0.792 -0.2240 -0.3922 -0.0652
23209SOL    HW172904   7.679   3.797   0.773 -0.0567 -0.5379 -1.2307
23209SOL    HW272905   7.802   3.740   0.706  1.7946  1.1119  0.6323
23210SOL     OW72906   0.587  11.159   0.559  0.0928  0.2671  0.2383
23210SOL    HW172907   0.515  11.188   0.614  0.3367 -0.6296  1.0638
23210SOL    HW272908   0.573  11.065   0.549  1.1372  0.0802  0.4100
23211SOL     OW72909  10.663  11.242   1.720 -0.2619 -0.1323 -0.3636
23211SOL    HW172910  10.578  11.220   1.683 -0.3383  0.4815 -0.5632
23211SOL    HW272911  10.721  11.171   1.691 -0.5702 -0.2411 -0.7200
23212SOL     OW72912   2.234   1.623   6.737 -0.1843 -0.1399 -0.1288
23212SOL    HW172913   2.220   1.532   6.712 -1.1329 -0.3111  0.9340
23212SOL    HW272914   2.236   1.670   6.654 -0.2522 -1.0559 -0.6683
23213SOL     OW72915   6.040   7.937   2.766  0.3962  0.1939  0.5062
23213SOL    HW172916   6.108   7.909   2.705 -1.0743 -4.5440  0.6519
23213SOL    HW272917   5.958   7.926   2.718 -0.6256 -0.7229  2.3481
23214SOL     OW72918   4.161   3.477   9.182  0.3043  0.3007  0.3787
23214SOL    HW172919   4.166   3.387   9.150  0.3361  0.5319 -0.2684
23214SOL    HW272920   4.166   3.531   9.104 -1.2422  0.8419  0.6134
23215SOL     OW72921  10.881   3.613  10.861 -0.1696  0.0868  0.0645
23215SOL    HW172922  10.892   3.572  10.947  0.2580  0.9276  0.4142
23215SOL    HW272923  10.963   3.596  10.816  0.3524  1.2662  0.5248
23216SOL     OW72924   4.441   6.136   5.698 -0.0768  0.7311 -0.8007
23216SOL    HW172925   4.443   6.200   5.627  0.4023  1.6012 -0.0293
23216SOL    HW272926   4.359   6.153   5.744 -0.5952 -0.1161 -1.3740
23217SOL     OW72927   3.293   7.223   0.702 -0.4427 -0.6636 -0.1959
23217SOL    HW172928   3.231   7.294   0.718  0.4442  0.2536 -0.7158
23217SOL    HW272929   3.288   7.207   0.608 -0.9299 -1.5952 -0.0314
23218SOL     OW72930  10.837   7.108   9.606 -0.0523  0.1923 -0.4206
23218SOL    HW172931  10.811   7.196   9.635 -0.3359 -0.2188  0.6099
23218SOL    HW272932  10.856   7.061   9.687  0.9724 -0.4426 -1.0113
23219SOL     OW72933   3.240   3.456   0.156  0.3448  0.1289 -0.1482
23219SOL    HW172934   3.198   3.419   0.078  0.7684  0.4876 -0.5552
23219SOL    HW272935   3.191   3.535   0.175  0.1431 -0.0424  0.0447
23220SOL     OW72936   3.162  10.426  10.171  0.5837 -0.2507 -0.5500
23220SOL    HW172937   3.244  10.431  10.121  0.7893  0.1292 -0.1749
23220SOL    HW272938   3.182  10.467  10.255 -0.5863  1.8779 -1.2514
23221SOL     OW72939   2.076   4.326  10.549 -0.0675 -0.1323  0.1246
23221SOL    HW172940   2.149   4.362  10.499  1.1346 -1.8639  0.5350
23221SOL    HW272941   2.022   4.281  10.483  0.9275 -1.4681  0.1653
23222SOL     OW72942   1.153   8.960  10.224 -0.0276 -0.2178 -0.1277
23222SOL    HW172943   1.177   8.921  10.140  0.9894  0.0823  0.0097
23222SOL    HW272944   1.189   9.049  10.219 -0.1650 -0.1252  0.5335
23223SOL     OW72945   6.366   1.115   4.935 -0.2470  0.3247  0.1166
23223SOL    HW172946   6.379   1.187   4.873 -0.4328  0.6409  0.4397
23223SOL    HW272947   6.431   1.049   4.909  0.1130  0.7228 -0.0103
23224SOL     OW72948   4.739   0.263   5.448 -0.0939 -0.0132 -0.5536
23224SOL    HW172949   4.751   0.358   5.445 -0.6194  0.1203  0.7978
23224SOL    HW272950   4.752   0.234   5.358  0.3548  1.3065 -0.9301
23225SOL     OW72951   0.819   5.495   4.512  0.2511 -0.3678 -0.6989
23225SOL    HW172952   0.765   5.573   4.499  1.8212  0.6554 -1.3008
23225SOL    HW272953   0.886   5.522   4.574  0.4670 -1.4408 -0.4383
23226SOL     OW72954   9.018   8.961   6.949  0.4760 -0.4188 -0.1937
23226SOL    HW172955   9.049   8.977   7.038 -1.5284 -2.0009  0.8997
23226SOL    HW272956   9.005   9.048   6.912  0.8836  0.2954  1.2554
23227SOL     OW72957   8.035   8.246   1.766  0.2853 -0.0039 -0.4733
23227SOL    HW172958   7.966   8.182   1.755 -0.1075  0.4310 -0.5867
23227SOL    HW272959   8.111   8.208   1.722  1.1996 -2.1188  2.6337
23228SOL     OW72960   3.887   0.845   0.537  0.3603  0.0518  0.4743
23228SOL    HW172961   3.959   0.906   0.521  1.0123 -0.2467  2.0122
23228SOL    HW272962   3.854   0.869   0.624 -0.5483 -0.6395  0.3363
23229SOL     OW72963   5.639   8.631  10.932  0.2275 -0.3402 -0.2994
23229SOL    HW172964   5.680   8.692  10.993  0.3994  0.0403 -0.7861
23229SOL    HW272965   5.584   8.575  10.987 -0.8306  0.9724  0.0384
23230SOL     OW72966   7.606   2.587   7.068  0.4163  0.2242 -0.1729
23230SOL    HW172967   7.659   2.654   7.023  2.0500 -0.5582  0.4937
23230SOL    HW272968   7.645   2.581   7.155 -1.5225  0.3891  0.7440
23231SOL     OW72969  10.326   0.038   9.669  0.4662  0.5889 -0.3123
23231SOL    HW172970  10.324   0.124   9.628 -0.4744  1.1242  0.7838
23231SOL    HW272971  10.279  -0.019   9.608 -0.0961  1.1564 -0.4214
23232SOL     OW72972   9.494   8.836   1.307  0.0342  0.2526  0.1578
23232SOL    HW172973   9.515   8.809   1.218  0.2557  1.6691 -0.2471
23232SOL    HW272974   9.415   8.889   1.298  0.3978  0.9020  0.7160
23233SOL     OW72975   0.438   1.115   6.793 -0.0764  0.0229  0.0354
23233SOL    HW172976   0.466   1.200   6.828 -2.9409  0.3197  1.9304
23233SOL    HW272977   0.355   1.134   6.749 -0.6218 -1.7354  0.2585
23234SOL     OW72978   4.996   0.777   9.435 -0.5417  0.5393 -0.0318
23234SOL    HW172979   5.018   0.738   9.350 -0.1457 -0.9130  0.7029
23234SOL    HW272980   5.004   0.704   9.497 -0.3588  1.6871  1.3270
23235SOL     OW72981   3.546   4.802   5.545 -0.5198  0.2378  0.4141
23235SOL    HW172982   3.568   4.799   5.638  0.2766  0.4207  0.2377
23235SOL    HW272983   3.615   4.854   5.505 -0.1362 -0.9038 -0.4767
23236SOL     OW72984  10.866   1.254   0.275  0.0115  0.2446  0.6892
23236SOL    HW172985  10.787   1.261   0.329  0.8932  0.2800  2.0184
23236SOL    HW272986  10.870   1.337   0.227 -2.7291 -1.1290 -2.3134
23237SOL     OW72987   2.732   5.477   2.501 -0.2740  0.0840 -0.0948
23237SOL    HW172988   2.644   5.515   2.496 -0.0223  0.5951 -0.7670
23237SOL    HW272989   2.768   5.488   2.413  0.9503  1.0447  0.4874
23238SOL     OW72990   1.198   9.575   4.148 -0.6359 -0.2298 -0.2334
23238SOL    HW172991   1.272   9.613   4.100 -1.0920 -1.2752 -1.8482
23238SOL    HW272992   1.235   9.547   4.232  0.5879  0.0889 -0.6480
23239SOL     OW72993   1.163   7.965   1.211 -0.6993  0.4589 -0.0800
23239SOL    HW172994   1.075   7.943   1.242  0.1989 -0.7335  1.7881
23239SOL    HW272995   1.188   8.042   1.262 -0.0988 -0.1239  0.5298
23240SOL     OW72996   5.572   3.669   9.407 -0.0625  0.3138 -0.1526
23240SOL    HW172997   5.606   3.754   9.437  1.3018 -0.9058  2.0452
23240SOL    HW272998   5.512   3.691   9.336  0.0301  3.1425  0.5194
23241SOL     OW72999   5.738   2.219   5.530 -0.0207 -0.0568 -0.2094
23241SOL    HW173000   5.652   2.262   5.530  1.0211  2.1436 -0.0571
23241SOL    HW273001   5.750   2.191   5.621 -0.8215 -0.9342 -0.3614
23242SOL     OW73002   1.827   1.784   2.949 -0.0925  0.5050 -0.0617
23242SOL    HW173003   1.762   1.813   2.885 -0.5124 -0.2525  0.0095
23242SOL    HW273004   1.909   1.781   2.901 -0.1708  1.1261 -0.2454
23243SOL     OW73005   4.225   3.101   4.982  0.1559  0.0588  0.1277
23243SOL    HW173006   4.293   3.162   5.014  0.5031 -0.6041  0.6707
23243SOL    HW273007   4.152   3.158   4.959  0.8609  0.7878 -0.4035
23244SOL     OW73008   0.648   1.489  10.546 -0.2556  0.0020  0.2083
23244SOL    HW173009   0.743   1.495  10.555 -0.0801 -1.1786 -0.6291
23244SOL    HW273010   0.629   1.395  10.544 -1.8942  0.0091  4.4023
23245SOL     OW73011   3.448   9.169   0.512 -0.5051 -0.2715  0.0001
23245SOL    HW173012   3.366   9.159   0.560 -1.5998 -0.8130 -1.8865
23245SOL    HW273013   3.423   9.214   0.431  0.9035 -1.2273 -1.0135
23246SOL     OW73014   3.070   5.127   9.101  0.3759  0.7320 -0.2999
23246SOL    HW173015   2.995   5.123   9.042 -0.5803 -2.3568  0.8996
23246SOL    HW273016   3.034   5.159   9.184  0.6632  0.5183 -0.0914
23247SOL     OW73017  11.235   4.263   0.209 -0.1499 -0.7250 -0.4383
23247SOL    HW173018  11.263   4.252   0.118 -0.0649 -1.6795 -0.3010
23247SOL    HW273019  11.315   4.254   0.260  0.0748  1.3179 -0.3294
23248SOL     OW73020   3.005   1.400   4.049  0.8295  0.4699 -0.4421
23248SOL    HW173021   3.041   1.480   4.088 -0.8188 -0.4844  3.4817
23248SOL    HW273022   2.924   1.429   4.006  1.2407  1.1763 -0.7531
23249SOL     OW73023   3.467   7.268   9.391  0.1721 -0.1149  0.0047
23249SOL    HW173024   3.534   7.323   9.351 -1.1206  0.5287 -1.3919
23249SOL    HW273025   3.386   7.295   9.348 -1.1615 -0.1115  2.3904
23250SOL     OW73026   1.604   4.594   7.665  0.4368  0.6037  0.1724
23250SOL    HW173027   1.560   4.609   7.748 -0.8507 -1.5846 -0.0416
23250SOL    HW273028   1.608   4.499   7.656 -0.5481  0.7207 -2.7719
23251SOL     OW73029   7.302   7.760  10.867  0.5909  0.5179  0.3615
23251SOL    HW173030   7.341   7.796  10.947  2.0707  1.8378 -0.8711
23251SOL    HW273031   7.371   7.768  10.801 -0.0479 -1.9640 -0.7164
23252SOL     OW73032   4.293   4.486   2.820  0.8169  0.5318  0.0556
23252SOL    HW173033   4.313   4.522   2.733  3.3282 -0.8214 -0.0295
23252SOL    HW273034   4.359   4.418   2.833 -0.9393 -0.9161  2.0851
23253SOL     OW73035   9.426   7.314   9.776 -0.4153 -0.2937  0.1814
23253SOL    HW173036   9.519   7.334   9.766 -0.4844 -0.6561 -1.6190
23253SOL    HW273037   9.383   7.371   9.712 -1.3482 -0.6393  0.4906
23254SOL     OW73038   6.509  10.726   6.951  0.0601  0.5423  0.2195
23254SOL    HW173039   6.477  10.816   6.952 -0.7861  0.2602 -0.5353
23254SOL    HW273040   6.472  10.687   7.030  0.2822  0.8022  0.4551
23255SOL     OW73041   0.125  10.159   9.502  0.2099  0.2431  0.3215
23255SOL    HW173042   0.108  10.066   9.518 -0.0664  0.3285  0.5212
23255SOL    HW273043   0.183  10.160   9.425  1.3593 -0.1588  1.1549
23256SOL     OW73044   1.338  10.017   1.316 -0.2495 -0.6117  0.3747
23256SOL    HW173045   1.316  10.017   1.223 -0.0818  1.5973  0.2940
23256SOL    HW273046   1.253  10.008   1.360 -0.1689 -4.4714  0.1308
23257SOL     OW73047   0.047   7.173   5.184  0.1910  0.3472  0.0695
23257SOL    HW173048   0.041   7.179   5.089 -0.3103  0.0146  0.0770
23257SOL    HW273049   0.141   7.184   5.203  0.1998  1.1589 -0.4021
23258SOL     OW73050   9.891   2.780   8.245  0.3978 -0.3804 -0.1540
23258SOL    HW173051   9.861   2.745   8.329  1.7823  1.1663  1.0373
23258SOL    HW273052   9.986   2.786   8.254  0.6449 -0.8265 -2.1076
23259SOL     OW73053   3.639   0.944   9.502 -0.3489 -0.2069  0.3556
23259SOL    HW173054   3.591   0.990   9.571  0.5507  0.0063  0.8538
23259SOL    HW273055   3.724   0.924   9.541  0.4370  0.5187 -0.9075
23260SOL     OW73056  10.460   4.305   2.576  0.0369  0.3288  0.6036
23260SOL    HW173057  10.407   4.321   2.654  1.0654 -0.4915  1.4994
23260SOL    HW273058  10.507   4.386   2.561 -1.3312  1.0305 -0.1313
23261SOL     OW73059   9.117  10.806   4.633  0.5978 -0.0572  0.4152
23261SOL    HW173060   9.151  10.870   4.571  1.8314 -1.2685 -0.1950
23261SOL    HW273061   9.023  10.802   4.613  0.9599 -0.4204 -1.3840
23262SOL     OW73062  10.649   7.720  10.316 -0.0397 -0.2166 -0.0639
23262SOL    HW173063  10.728   7.726  10.262  0.1819 -0.0675  0.2702
23262SOL    HW273064  10.614   7.633  10.299  0.1435 -0.2453 -0.2925
23263SOL     OW73065   9.067  10.302   4.582  0.3959  0.4113  0.1873
23263SOL    HW173066   9.022  10.278   4.663  2.4174 -0.9324  0.9811
23263SOL    HW273067   9.109  10.386   4.602 -3.0956  2.6910 -1.1729
23264SOL     OW73068  10.032   8.075   7.233 -0.0868 -0.1472 -0.0540
23264SOL    HW173069   9.962   8.077   7.299 -2.1789  0.8139 -2.1320
23264SOL    HW273070  10.057   8.167   7.222 -0.6670 -0.1296 -1.4221
23265SOL     OW73071   1.025   9.055   5.637 -0.2735  0.2941 -0.3349
23265SOL    HW173072   1.042   9.069   5.544 -1.6201 -1.7417 -0.9607
23265SOL    HW273073   0.960   9.122   5.659  0.2359  0.9498 -0.7703
23266SOL     OW73074   0.562   6.774  10.716 -0.0386  0.6426 -0.1241
23266SOL    HW173075   0.624   6.812  10.778 -0.5600 -1.3863  1.7411
23266SOL    HW273076   0.615   6.746  10.642  0.8628  1.2892  0.2636
23267SOL     OW73077   4.126   3.472   8.739  0.3784 -0.0930  0.6053
23267SOL    HW173078   4.159   3.553   8.701  1.6067 -0.6590  0.4016
23267SOL    HW273079   4.159   3.403   8.681 -2.4243 -0.6695 -0.5032
23268SOL     OW73080   7.933   5.315   9.797 -0.0150  0.4005  0.0942
23268SOL    HW173081   8.004   5.355   9.748 -0.5297  0.8654 -0.2738
23268SOL    HW273082   7.960   5.322   9.889  0.1482  1.0974 -0.0038
23269SOL     OW73083   1.679   7.327   4.329  0.5718  0.6586 -0.1737
23269SOL    HW173084   1.659   7.417   4.302  1.9105  1.1379  0.3335
23269SOL    HW273085   1.680   7.330   4.425  1.5859  0.3527 -0.1550
23270SOL     OW73086  10.401  10.230  10.234 -0.2913  0.6302  0.4016
23270SOL    HW173087  10.307  10.213  10.239  0.0604 -1.4684  0.5818
23270SOL    HW273088  10.408  10.308  10.179 -2.1008  0.5762  0.0261
23271SOL     OW73089   2.332   0.089   3.517  0.0798  0.1222 -0.5650
23271SOL    HW173090   2.262   0.115   3.456  0.8830  0.4345 -1.3819
23271SOL    HW273091   2.308   0.001   3.545 -0.4535  0.0822 -1.1204
23272SOL     OW73092   3.491   5.206   3.472 -0.3656  0.1508 -0.5395
23272SOL    HW173093   3.418   5.185   3.413  0.7934  0.2043 -2.0743
23272SOL    HW273094   3.476   5.297   3.496 -0.8152  0.1623 -0.8485
23273SOL     OW73095   3.353   4.992   0.676  0.0490  0.1290 -0.2422
23273SOL    HW173096   3.422   5.005   0.741 -0.2028 -2.4265  0.6783
23273SOL    HW273097   3.290   5.062   0.692  0.8034  0.5145  1.2000
23274SOL     OW73098   5.102   8.238   3.010 -0.0312  0.1901 -0.4878
23274SOL    HW173099   5.162   8.176   2.967  1.4091 -0.0176  1.6687
23274SOL    HW273100   5.027   8.185   3.035  1.7363 -1.1662  2.5002
23275SOL     OW73101   4.090   7.974   5.408  0.3406 -0.5324 -0.4301
23275SOL    HW173102   4.048   7.910   5.465  0.0590  0.0457  0.0111
23275SOL    HW273103   4.047   7.962   5.323 -1.7085  0.9482  0.3210
23276SOL     OW73104   5.511   7.225   2.584 -0.4321  0.7623 -0.7119
23276SOL    HW173105   5.443   7.197   2.522 -0.3872  1.0181 -0.8772
23276SOL    HW273106   5.588   7.239   2.530 -0.1423  0.1346 -0.4788
23277SOL     OW73107   9.528   9.492   1.753 -0.1099  0.0016  0.9338
23277SOL    HW173108   9.589   9.432   1.796 -0.1771 -1.9218 -1.4018
23277SOL    HW273109   9.445   9.480   1.798 -0.3554 -2.4663 -0.0471
23278SOL     OW73110   6.122   7.004   6.835  0.3188 -0.5359 -0.1368
23278SOL    HW173111   6.101   6.958   6.916  0.5903  3.2594  2.3339
23278SOL    HW273112   6.214   7.028   6.844  0.1193  0.7143 -1.1046
23279SOL     OW73113  11.035   6.827   2.403  0.2486 -0.6383  0.3924
23279SOL    HW173114  11.103   6.889   2.376 -1.1248  1.4179  1.4050
23279SOL    HW273115  11.060   6.802   2.493  0.0330 -0.4136  0.5157
23280SOL     OW73116   6.858  10.325   9.845  0.2029  0.3930  0.1260
23280SOL    HW173117   6.774  10.348   9.803  0.6255  1.4771 -0.1629
23280SOL    HW273118   6.890  10.408   9.881  0.3024 -0.3351  1.8213
23281SOL     OW73119   8.495   1.764   2.966  0.1124  0.0776 -0.2475
23281SOL    HW173120   8.407   1.727   2.962 -0.8002  1.9845  0.5627
23281SOL    HW273121   8.533   1.729   3.046 -0.3877  0.1641  0.0333
23282SOL     OW73122   4.076   0.091   9.312 -0.3852  0.0201  0.0709
23282SOL    HW173123   4.103   0.170   9.359  1.2990 -1.4951  1.8468
23282SOL    HW273124   3.983   0.105   9.293  0.1923  3.0216 -1.0613
23283SOL     OW73125  11.338   3.879  11.286  0.0275  0.3433 -0.5945
23283SOL    HW173126  11.305   3.917  11.367 -0.0765 -0.2314 -0.3652
23283SOL    HW273127  11.268   3.821  11.257  0.9861 -1.2447  0.1325
23284SOL     OW73128   7.755  11.320   6.362 -0.6952 -0.2225 -0.3113
23284SOL    HW173129   7.801  11.384   6.309 -0.8135  0.2934  0.1950
23284SOL    HW273130   7.801  11.237   6.346  0.8590  0.3920  0.6858
23285SOL     OW73131   5.457   3.341   8.639  0.2192 -0.4829 -0.4082
23285SOL    HW173132   5.500   3.271   8.590  2.4602 -0.7366  1.7547
23285SOL    HW273133   5.526   3.381   8.691 -1.7797  0.5141  1.6881
23286SOL     OW73134   4.107   0.336   1.635 -0.2068  0.3388 -0.3839
23286SOL    HW173135   4.055   0.274   1.686 -0.0931  1.4590  1.1740
23286SOL    HW273136   4.048   0.366   1.566 -0.5108 -0.9078 -0.6800
23287SOL     OW73137   7.051   6.267   1.871  0.0979 -0.2248 -0.1199
23287SOL    HW173138   7.006   6.231   1.795 -0.7528 -1.5552  0.9519
23287SOL    HW273139   7.140   6.283   1.842  0.5028 -3.1125 -0.7606
23288SOL     OW73140  10.690   2.542  10.501 -0.1287 -0.1500  0.0056
23288SOL    HW173141  10.594   2.541  10.499 -0.1281 -0.2861  0.0570
23288SOL    HW273142  10.715   2.593  10.424 -0.3102  3.2276  1.9796
23289SOL     OW73143   6.587   4.290   5.657 -0.5461 -0.2635 -0.1493
23289SOL    HW173144   6.600   4.284   5.562  1.5314  0.8590  0.0080
23289SOL    HW273145   6.628   4.211   5.692 -0.1226 -0.0325 -0.1139
23290SOL     OW73146   0.142   5.443   4.831  0.7166  0.2867  0.1744
23290SOL    HW173147   0.165   5.384   4.902 -0.9223  0.0082  0.5220
23290SOL    HW273148   0.116   5.524   4.875 -3.2365 -0.8075  0.2719
23291SOL     OW73149   5.051   5.065   4.676  0.5469  0.4098 -0.5662
23291SOL    HW173150   4.971   5.108   4.706 -0.1970  0.1599 -2.1048
23291SOL    HW273151   5.119   5.132   4.681 -0.2376  1.2778 -1.3537
23292SOL     OW73152  10.629   8.628   2.533  0.0996 -0.3738 -0.3465
23292SOL    HW173153  10.591   8.716   2.537  0.1511 -0.3723  0.1849
23292SOL    HW273154  10.566   8.578   2.481  0.1855  0.0289 -0.8497
23293SOL     OW73155   4.972  10.074   5.555 -0.3828 -0.0091 -0.4627
23293SOL    HW173156   4.976  10.087   5.460 -0.0103 -1.0199 -0.5886
23293SOL    HW273157   4.980   9.980   5.568 -0.0771  0.1411  0.5955
23294SOL     OW73158   4.882   2.647   3.334 -0.2385 -0.1509  0.0989
23294SOL    HW173159   4.861   2.619   3.245  1.6287 -0.0308 -0.4100
23294SOL    HW273160   4.828   2.590   3.390  0.7129 -2.2650 -1.0254
23295SOL     OW73161   7.343   6.202   0.370 -1.0735  0.2088 -0.2521
23295SOL    HW173162   7.404   6.129   0.368  0.2472  1.2641  0.2846
23295SOL    HW273163   7.306   6.205   0.282 -0.0621 -0.2088 -0.7023
23296SOL     OW73164   7.665   0.230   5.764  0.0060 -0.0233  0.1290
23296SOL    HW173165   7.697   0.319   5.779 -0.1877  0.1081 -0.2301
23296SOL    HW273166   7.610   0.212   5.840  0.7322 -0.1633  0.6346
23297SOL     OW73167   3.795   0.575   2.585 -0.6789 -0.4969 -0.4804
23297SOL    HW173168   3.727   0.507   2.584 -2.1658  0.9050 -2.2709
23297SOL    HW273169   3.804   0.600   2.493  0.6484  0.9470  0.0167
23298SOL     OW73170   2.745   9.340   6.377 -0.7025  0.0480 -0.3714
23298SOL    HW173171   2.698   9.291   6.445 -1.6196  0.0440 -0.9811
23298SOL    HW273172   2.791   9.273   6.327 -0.9785 -0.0778 -0.4626
23299SOL     OW73173   7.471  10.391   0.974 -0.4956 -0.1926 -0.2120
23299SOL    HW173174   7.395  10.343   1.008 -0.5457  0.6527  0.9556
23299SOL    HW273175   7.434  10.469   0.934 -0.3235 -0.4310 -0.8388
23300SOL     OW73176   1.855   7.483   7.713 -0.0324 -0.0013  0.3810
23300SOL    HW173177   1.884   7.574   7.715  0.3664 -0.1262  1.9979
23300SOL    HW273178   1.810   7.474   7.629 -0.0506  1.6687  0.1705
23301SOL     OW73179   2.315   1.335   8.584 -0.4414 -0.5236 -0.1530
23301SOL    HW173180   2.263   1.415   8.576 -0.2849 -0.4698 -0.6650
23301SOL    HW273181   2.305   1.292   8.499  0.0569 -0.6898 -0.1290
23302SOL     OW73182   2.777   3.017   7.292  0.1393 -0.0332 -0.0382
23302SOL    HW173183   2.757   3.003   7.385 -1.4650 -0.9488 -0.4809
23302SOL    HW273184   2.759   2.932   7.251  2.3111 -0.1060 -0.9975
23303SOL     OW73185  10.186   1.334   4.767 -0.3716  0.2256 -0.1744
23303SOL    HW173186  10.120   1.382   4.818  0.4445 -0.7902  1.9454
23303SOL    HW273187  10.259   1.395   4.760 -0.3629  0.2579  0.1685
23304SOL     OW73188   1.054   1.197   9.215 -0.0796 -0.7396 -0.2219
23304SOL    HW173189   0.973   1.238   9.185 -0.3810 -1.5150 -0.5136
23304SOL    HW273190   1.073   1.239   9.299 -0.5668 -0.2691 -0.3412
23305SOL     OW73191   5.615   8.185   8.448  0.6927 -0.1670 -0.5928
23305SOL    HW173192   5.521   8.168   8.451  0.5757 -0.1218 -2.6071
23305SOL    HW273193   5.639   8.201   8.539 -1.2436 -0.1622 -0.0299
23306SOL     OW73194   7.861  10.285   4.378  0.2017 -0.5084 -0.2999
23306SOL    HW173195   7.859  10.205   4.430  0.1716 -1.4655 -1.7000
23306SOL    HW273196   7.850  10.254   4.288 -1.2886  1.1963 -0.7585
23307SOL     OW73197   8.731   4.944   2.129 -0.0532  0.2896 -0.3000
23307SOL    HW173198   8.653   4.978   2.085  0.4011  0.7627 -0.7446
23307SOL    HW273199   8.779   4.899   2.060  1.5385  2.5126 -0.7350
23308SOL     OW73200   8.708   5.512   6.749 -0.2804 -0.1286 -0.4460
23308SOL    HW173201   8.785   5.470   6.712  2.3511  2.5042  1.5377
23308SOL    HW273202   8.742   5.592   6.790 -3.6273 -0.1651  2.9651
23309SOL     OW73203   8.151   9.710   1.402 -0.3310 -0.2875  0.2391
23309SOL    HW173204   8.162   9.667   1.487 -1.5814 -1.2539 -0.0532
23309SOL    HW273205   8.058   9.735   1.400 -0.4153 -0.6416 -1.0064
23310SOL     OW73206   9.834   8.067   8.323  0.4670  0.0272 -0.1553
23310SOL    HW173207   9.759   8.029   8.368  0.0538 -1.7541 -2.1430
23310SOL    HW273208   9.903   8.000   8.331  0.7630  0.2002 -1.0820
23311SOL     OW73209   5.811   1.651   9.289 -0.5372  0.6128 -0.1988
23311SOL    HW173210   5.846   1.649   9.378  0.3329  1.6396 -0.5049
23311SOL    HW273211   5.885   1.630   9.233 -0.7425  1.3615 -0.7636
23312SOL     OW73212  10.354  11.013  10.049 -0.5949  0.2754  0.1338
23312SOL    HW173213  10.312  11.074   9.988  1.5696  0.1548 -1.5737
23312SOL    HW273214  10.419  11.066  10.096 -1.4780  0.1156  1.6146
23313SOL     OW73215   3.404   0.969   2.204 -0.2470  0.3263  0.0688
23313SOL    HW173216   3.340   0.996   2.138  0.5244  1.0103 -0.4137
23313SOL    HW273217   3.356   0.972   2.286 -1.2873 -0.7522 -0.4623
23314SOL     OW73218   6.701   6.601   1.135  0.3677  0.2102  0.1076
23314SOL    HW173219   6.761   6.527   1.123  0.5198  0.1430  1.1706
23314SOL    HW273220   6.725   6.638   1.220 -0.7587  0.5034  0.3221
23315SOL     OW73221   2.752   9.906   5.386 -0.2632 -0.2026  0.6995
23315SOL    HW173222   2.713   9.892   5.300 -1.5575 -2.3543  1.5506
23315SOL    HW273223   2.783   9.997   5.385  0.7988 -0.4981 -2.4016
23316SOL     OW73224   9.140   5.203   3.179 -0.0512  0.1873 -0.5508
23316SOL    HW173225   9.230   5.180   3.157  0.3031  0.2278  0.7772
23316SOL    HW273226   9.141   5.299   3.190 -0.2224  0.1749 -0.4115
23317SOL     OW73227   1.023   3.925   4.603  0.0442 -0.3912  0.9535
23317SOL    HW173228   1.025   3.960   4.692  0.3782  1.3989  0.2811
23317SOL    HW273229   0.931   3.932   4.576  0.1842  0.4578  0.6597
23318SOL     OW73230  10.494   5.644   5.681  0.3305 -0.0311  0.1556
23318SOL    HW173231  10.465   5.722   5.634 -1.5720 -0.6059  0.2653
23318SOL    HW273232  10.419   5.584   5.675  2.2325 -2.4728 -1.2351
23319SOL     OW73233   5.975   9.008   1.699  0.4327  0.1127 -0.5031
23319SOL    HW173234   5.886   9.039   1.685 -0.1023 -1.3707 -0.5866
23319SOL    HW273235   6.023   9.037   1.621 -0.1564  0.2841 -0.8040
23320SOL     OW73236   7.029   9.243   6.951  0.3955  0.5748 -0.4015
23320SOL    HW173237   6.971   9.251   6.875  1.0282 -1.8659 -1.2127
23320SOL    HW273238   6.973   9.263   7.026 -0.9128  0.5026 -1.3294
23321SOL     OW73239   0.887   7.839   2.355  0.0589 -0.1037  0.5403
23321SOL    HW173240   0.913   7.767   2.297 -0.2976 -1.0181  1.4738
23321SOL    HW273241   0.792   7.831   2.361  0.0528  0.2457  0.9053
23322SOL     OW73242   0.606   7.172   3.749 -0.2831  0.0337 -0.4556
23322SOL    HW173243   0.527   7.153   3.800  0.3687 -0.8036  0.2844
23322SOL    HW273244   0.666   7.100   3.770  2.5871  3.0516  2.9701
23323SOL     OW73245  11.189   7.261   2.197 -0.2552  0.2530  0.5142
23323SOL    HW173246  11.147   7.288   2.115 -1.2164 -1.1321  0.5087
23323SOL    HW273247  11.278   7.237   2.171  0.3457  2.3977  0.3741
23324SOL     OW73248   3.429   6.011   5.149 -0.1217 -0.7799 -0.4121
23324SOL    HW173249   3.360   6.040   5.208  1.0539  2.4083 -0.4239
23324SOL    HW273250   3.382   5.983   5.070 -1.4638 -0.2980  0.1781
23325SOL     OW73251   7.515   2.554   2.944  0.7216 -0.4117 -0.4553
23325SOL    HW173252   7.591   2.507   2.977  1.2739 -0.4255 -1.7063
23325SOL    HW273253   7.471   2.586   3.023  2.9849  1.1323  0.3043
23326SOL     OW73254   1.122   3.389   0.998  0.1687 -0.1772 -0.0221
23326SOL    HW173255   1.085   3.419   1.081  1.4378  1.4262  0.0187
23326SOL    HW273256   1.215   3.376   1.017  0.4612  0.1167 -1.1762
23327SOL     OW73257   2.750   9.457   0.309  0.4370 -0.1328 -0.0680
23327SOL    HW173258   2.755   9.451   0.404  0.8564 -0.6592 -0.1188
23327SOL    HW273259   2.689   9.389   0.283 -0.2982  0.5322 -0.1244
23328SOL     OW73260   1.831   6.737   0.977 -0.5903  0.2098 -0.2018
23328SOL    HW173261   1.888   6.807   1.009  0.2068 -0.3021 -0.4786
23328SOL    HW273262   1.782   6.777   0.905  0.3632  0.3055 -0.8162
23329SOL     OW73263   4.611   8.255   9.772 -0.1307 -0.3277  0.0348
23329SOL    HW173264   4.644   8.253   9.862 -0.1885 -1.5962  0.0477
23329SOL    HW273265   4.650   8.334   9.734  0.7953 -0.3823  0.8329
23330SOL     OW73266   7.513   7.177   0.798 -0.4370  0.1123 -0.6509
23330SOL    HW173267   7.527   7.270   0.777 -1.2528  0.8566  1.7598
23330SOL    HW273268   7.427   7.157   0.763  0.5062 -0.3414 -2.8605
23331SOL     OW73269   2.033   5.215   0.442  0.6871 -0.5907  0.0460
23331SOL    HW173270   1.985   5.152   0.495 -1.1075 -0.0417 -0.8674
23331SOL    HW273271   2.114   5.231   0.492  0.0035 -1.6246  1.5674
23332SOL     OW73272   9.015   4.045   2.319  0.7829 -0.2156  0.6091
23332SOL    HW173273   9.008   4.137   2.345 -3.2199 -0.3453  0.5704
23332SOL    HW273274   9.004   3.996   2.401  1.2637 -0.6767  0.4053
23333SOL     OW73275   3.572   5.967   2.930 -0.1430  0.1109  0.6369
23333SOL    HW173276   3.508   5.958   2.859 -0.5511 -1.1985  1.1325
23333SOL    HW273277   3.600   6.058   2.926 -1.9177  0.6801  0.2878
23334SOL     OW73278   5.892   9.156   2.804  0.5903  0.3288 -0.5913
23334SOL    HW173279   5.812   9.177   2.755  0.4617 -0.3081 -0.6683
23334SOL    HW273280   5.897   9.223   2.871 -0.2450  0.1448 -0.3266
23335SOL     OW73281   4.868   3.948   2.383  0.0176  0.1533  0.3684
23335SOL    HW173282   4.941   3.979   2.436 -0.4820  1.6153  0.2508
23335SOL    HW273283   4.908   3.907   2.307  0.7091  0.0246  0.7959
23336SOL     OW73284   7.111   8.805   8.566  0.3005 -0.3282  0.1776
23336SOL    HW173285   7.200   8.804   8.603  0.4845 -2.4813 -0.2178
23336SOL    HW273286   7.054   8.793   8.641  0.3018  1.1055  0.4396
23337SOL     OW73287  10.826  10.216   0.439  0.0161  0.0660  0.2923
23337SOL    HW173288  10.809  10.206   0.532 -0.2110 -0.1138  0.2322
23337SOL    HW273289  10.770  10.289   0.412  0.3250  0.3295  0.3626
23338SOL     OW73290   3.052   7.114   8.841 -0.4883  0.0467 -0.2347
23338SOL    HW173291   3.073   7.083   8.929  0.9779 -0.3238 -0.6896
23338SOL    HW273292   2.976   7.062   8.815 -0.0587 -0.8603  0.2656
23339SOL     OW73293   7.206   0.899   7.889  0.0753 -0.2053 -0.1202
23339SOL    HW173294   7.284   0.912   7.835 -0.4717 -0.4185 -0.9855
23339SOL    HW273295   7.208   0.970   7.953  0.5673  0.2438 -0.6296
23340SOL     OW73296   9.685  10.713   4.873 -0.3898 -0.0368 -0.6422
23340SOL    HW173297   9.631  10.642   4.838  1.6938 -1.5749 -0.9287
23340SOL    HW273298   9.670  10.710   4.968 -1.2234 -0.0424 -0.7669
23341SOL     OW73299   5.823  10.665   5.608 -0.3321 -0.0889  0.0202
23341SOL    HW173300   5.756  10.720   5.648 -0.9479 -0.2848 -0.7138
23341SOL    HW273301   5.899  10.722   5.599  0.2964 -0.3969  2.6802
23342SOL     OW73302   8.500  11.362   9.978  0.0198 -0.3535 -0.0239
23342SOL    HW173303   8.522  11.311  10.055  0.2617 -0.8588 -0.4229
23342SOL    HW273304   8.416  11.402   9.999  0.6822  0.5434  0.9980
23343SOL     OW73305   5.696  10.638   1.658 -0.2616 -0.0901  0.2695
23343SOL    HW173306   5.603  10.624   1.643 -0.2703  0.4317 -0.2072
23343SOL    HW273307   5.702  10.670   1.748 -0.5775  0.2062  0.1860
23344SOL     OW73308   6.181   7.597   4.154  0.0312  0.1011 -0.3727
23344SOL    HW173309   6.097   7.642   4.149  0.3315  1.0380  2.0782
23344SOL    HW273310   6.170   7.532   4.224  2.1830  2.3608  2.2767
23345SOL     OW73311   2.534   8.869   6.576 -0.8720 -0.1145 -0.4337
23345SOL    HW173312   2.560   8.845   6.664 -0.8247 -2.2060 -0.9786
23345SOL    HW273313   2.444   8.839   6.567 -0.8002 -0.1469 -1.1717
23346SOL     OW73314  10.018   7.398   5.426 -0.5133 -0.0119 -0.0114
23346SOL    HW173315  10.038   7.354   5.509  1.8776  0.6156 -0.1719
23346SOL    HW273316  10.099   7.391   5.375 -1.6922  0.2326 -2.0399
23347SOL     OW73317   0.420   7.146   0.456 -0.4959 -0.0648 -0.0357
23347SOL    HW173318   0.428   7.078   0.523 -0.2709  0.2067  0.2122
23347SOL    HW273319   0.382   7.221   0.502 -0.2505  0.1542 -0.1902
23348SOL     OW73320   0.615   7.013   2.001 -0.9668  0.4980  0.3398
23348SOL    HW173321   0.684   7.072   1.972  0.9954 -2.0418 -0.5172
23348SOL    HW273322   0.601   7.034   2.093  0.8809  1.1719  0.4981
23349SOL     OW73323   9.358   9.513   6.302 -0.1287  0.0495  0.2221
23349SOL    HW173324   9.376   9.476   6.215 -0.1547  0.0946  0.1974
23349SOL    HW273325   9.380   9.606   6.292  0.8433 -0.1343  0.5460
23350SOL     OW73326   4.033   8.217   7.533  0.0681 -0.5677  0.2023
23350SOL    HW173327   3.985   8.297   7.550  1.2561  0.1564  0.2627
23350SOL    HW273328   3.985   8.174   7.462  0.6567  1.2925 -1.3992
23351SOL     OW73329   3.998  10.178   8.813 -0.1291  0.0860 -0.4487
23351SOL    HW173330   3.986  10.102   8.758  0.6459 -0.1601 -0.2973
23351SOL    HW273331   4.002  10.252   8.752  1.3337 -0.2507 -0.7967
23352SOL     OW73332   2.239   2.315   7.460 -0.0797  0.1181  0.3861
23352SOL    HW173333   2.178   2.261   7.512  0.1569  1.4332  2.1351
23352SOL    HW273334   2.218   2.405   7.486  2.3688  0.6332  0.7962
23353SOL     OW73335   8.919   0.981   7.282  0.2584  0.1553  0.5471
23353SOL    HW173336   8.881   1.033   7.212  0.7559 -1.5977 -1.1255
23353SOL    HW273337   8.968   1.043   7.336 -1.7110  1.8363  0.4778
23354SOL     OW73338   9.576   3.971  10.442 -0.1582  0.3780 -0.0489
23354SOL    HW173339   9.651   4.021  10.476 -0.0933 -0.6142  1.3249
23354SOL    HW273340   9.615   3.901  10.391 -0.2281  1.0503 -1.0613
23355SOL     OW73341   2.740  10.524   1.264  0.1691 -0.4104  0.0127
23355SOL    HW173342   2.697  10.440   1.244 -0.8395  0.2393 -0.6468
23355SOL    HW273343   2.752  10.523   1.359 -0.4439 -1.0248  0.0927
23356SOL     OW73344   2.963   2.124   2.972  0.2529  0.4393  0.1154
23356SOL    HW173345   2.977   2.034   3.002  0.2724  0.7086  0.9250
23356SOL    HW273346   3.051   2.162   2.968  0.0697  1.2095  2.3042
23357SOL     OW73347   1.955   9.196   8.104  1.0260 -0.2905  0.0569
23357SOL    HW173348   1.907   9.117   8.129  1.7535 -0.9064 -0.4319
23357SOL    HW273349   1.891   9.266   8.111  0.0795 -1.0661 -0.4656
23358SOL     OW73350   5.783   3.379   5.679 -0.0827  0.2551 -0.3730
23358SOL    HW173351   5.851   3.406   5.741  1.0892  0.5577 -1.7314
23358SOL    HW273352   5.800   3.287   5.663 -0.5587  0.1071 -0.0320
23359SOL     OW73353  10.304   7.733   5.166  0.0802 -0.2414 -0.1718
23359SOL    HW173354  10.260   7.780   5.237  1.0413  0.2958  0.0890
23359SOL    HW273355  10.340   7.655   5.207  1.4981  0.5585  0.1955
23360SOL     OW73356   8.916   0.573   9.868  0.2300 -0.4458  0.2024
23360SOL    HW173357   8.851   0.534   9.809 -0.7586  0.1938  0.8408
23360SOL    HW273358   8.982   0.610   9.809 -1.2076  0.9924 -0.5836
23361SOL     OW73359   0.188   6.092   7.237 -0.2183  0.7070 -0.2644
23361SOL    HW173360   0.247   6.063   7.306 -2.8434 -1.9544  1.1177
23361SOL    HW273361   0.138   6.163   7.276 -0.3970  0.4889 -0.0912
23362SOL     OW73362   6.206  10.270  11.395 -0.4590 -0.3458  0.1648
23362SOL    HW173363   6.235  10.357  11.368 -1.0499 -0.3268 -0.4186
23362SOL    HW273364   6.111  10.275  11.393 -0.4912 -1.1496 -0.3323
23363SOL     OW73365   1.793   1.014   8.878  0.3307  0.3009 -0.0382
23363SOL    HW173366   1.841   1.093   8.905 -0.7234  0.9829 -0.0807
23363SOL    HW273367   1.855   0.964   8.825  1.0478  1.0598  0.0693
23364SOL     OW73368   5.165   5.256  11.099 -0.0734 -0.4010  0.0986
23364SOL    HW173369   5.155   5.230  11.007 -1.4288  0.1052  0.0846
23364SOL    HW273370   5.093   5.213  11.144  1.5706 -2.0695  1.2804
23365SOL     OW73371   9.189   8.388   9.119  0.3362  0.5732  0.0012
23365SOL    HW173372   9.105   8.377   9.164  1.1405  1.4351  1.8462
23365SOL    HW273373   9.173   8.360   9.029 -2.2151  1.7277  0.0185
23366SOL     OW73374   1.549   1.270   4.477  0.1263 -0.1244 -0.3261
23366SOL    HW173375   1.596   1.192   4.449  0.0523 -0.4979  0.5637
23366SOL    HW273376   1.463   1.262   4.436 -0.0804 -0.8110  0.2328
23367SOL     OW73377   5.632   7.206   3.866  0.3338 -0.5530  0.1652
23367SOL    HW173378   5.625   7.277   3.929  2.2597  0.9257 -1.1618
23367SOL    HW273379   5.557   7.150   3.884 -1.3878  1.9034  1.1567
23368SOL     OW73380   2.487   9.836   7.043 -0.1228 -0.3615  0.1586
23368SOL    HW173381   2.443   9.830   6.958 -1.4078  0.3473  0.7377
23368SOL    HW273382   2.557   9.900   7.029 -0.5968  0.0764 -0.2761
23369SOL     OW73383   4.514   3.879  10.387  0.2502 -0.3150  0.2489
23369SOL    HW173384   4.558   3.800  10.418 -0.8587 -0.6795  0.9681
23369SOL    HW273385   4.436   3.886  10.442  0.1113  1.0534 -0.0855
23370SOL     OW73386  11.033  11.030   4.106 -0.3519 -0.4655  0.1928
23370SOL    HW173387  11.042  10.945   4.148 -0.4931 -0.1448  0.8919
23370SOL    HW273388  11.122  11.062   4.096 -0.3665  0.1729  1.7823
23371SOL     OW73389   1.667   1.438   9.637 -0.3483  0.3551  0.3544
23371SOL    HW173390   1.641   1.502   9.704 -1.9937  1.2341 -1.0461
23371SOL    HW273391   1.697   1.362   9.687 -0.6405  1.3251  2.0825
23372SOL     OW73392   9.456   2.001   6.138 -0.1669 -0.2833  0.8576
23372SOL    HW173393   9.454   1.922   6.083  0.8053  0.2410  0.0412
23372SOL    HW273394   9.511   1.977   6.212 -0.4673 -0.5963  0.9835
23373SOL     OW73395   9.829   3.933   6.244  0.1815  0.5559 -0.0396
23373SOL    HW173396   9.836   4.016   6.290  1.7898  0.7544 -0.5706
23373SOL    HW273397   9.883   3.944   6.165  0.8398 -1.1169  0.1182
23374SOL     OW73398   7.423   3.331   9.538  0.2671  0.2223 -0.3834
23374SOL    HW173399   7.345   3.330   9.483 -0.1804 -2.6044  0.2005
23374SOL    HW273400   7.494   3.307   9.478  0.3774  0.6835 -0.4471
23375SOL     OW73401   7.906   2.131   0.061  0.0802 -0.3180  0.3168
23375SOL    HW173402   7.822   2.177   0.053  0.3152  0.2424  0.9477
23375SOL    HW273403   7.920   2.091  -0.025 -1.1376 -0.9550  0.3938
23376SOL     OW73404   1.074  11.051   7.218  0.7701 -0.0457  0.7204
23376SOL    HW173405   0.988  11.063   7.178  2.8718  3.0371 -3.4993
23376SOL    HW273406   1.087  10.956   7.217 -2.5010 -0.6387  1.6432
23377SOL     OW73407   3.655   2.745   4.054 -0.6071 -0.4118 -0.0184
23377SOL    HW173408   3.700   2.661   4.051  0.4548  0.1517 -0.6448
23377SOL    HW273409   3.623   2.759   3.965  0.4681  0.4685 -0.2997
23378SOL     OW73410   0.695   7.971   6.237 -0.1967  0.4547 -0.8577
23378SOL    HW173411   0.730   8.050   6.278 -0.8900  0.1044  0.4523
23378SOL    HW273412   0.728   7.974   6.147 -1.7546  3.2223 -1.4503
23379SOL     OW73413   3.980   1.654   1.785  0.5912 -0.0977 -0.6439
23379SOL    HW173414   3.888   1.640   1.760  0.6726  0.4715 -1.2986
23379SOL    HW273415   4.024   1.574   1.757  0.1157 -0.8462  0.6801
23380SOL     OW73416   0.416   3.420   0.380  0.4782 -0.0696  0.1879
23380SOL    HW173417   0.366   3.372   0.314 -1.5711 -0.9595  2.2231
23380SOL    HW273418   0.355   3.485   0.414  0.6489 -1.0288  2.5979
23381SOL     OW73419   6.293   4.442   7.724 -0.0206  0.8761 -0.0453
23381SOL    HW173420   6.327   4.530   7.705  1.2078  0.5747  0.6819
23381SOL    HW273421   6.350   4.383   7.676 -0.3971  0.4261  0.0532
23382SOL     OW73422   3.330   0.983   4.041 -0.5557 -0.1826  0.6877
23382SOL    HW173423   3.315   1.000   4.134 -0.6726 -0.0113  0.6396
23382SOL    HW273424   3.383   1.057   4.012 -0.1588 -0.4555  0.7130
23383SOL     OW73425   4.655   5.187   3.325 -0.3655 -0.1943 -0.2946
23383SOL    HW173426   4.697   5.103   3.344 -1.0490 -1.4154 -3.5243
23383SOL    HW273427   4.637   5.225   3.412  5.5793 -0.3091  1.4341
23384SOL     OW73428   9.740   3.089   0.640  0.4189 -0.3533 -0.4839
23384SOL    HW173429   9.818   3.048   0.676  0.7462 -0.9819 -1.8404
23384SOL    HW273430   9.738   3.061   0.548 -1.2742 -0.1649 -0.5385
23385SOL     OW73431   8.895   8.909   4.375 -0.1864 -0.0073  0.3929
23385SOL    HW173432   8.855   8.827   4.402 -0.4478  0.2191  0.7014
23385SOL    HW273433   8.989   8.895   4.388 -0.1075 -0.6867 -0.7361
23386SOL     OW73434   7.921   4.698  11.288  0.4919  0.0450 -0.5604
23386SOL    HW173435   7.949   4.609  11.266  0.2812  0.0883 -1.0121
23386SOL    HW273436   7.869   4.726  11.213  1.8985  1.1684 -1.1600
23387SOL     OW73437   3.307   1.832  11.347  0.4326  0.7216  0.1101
23387SOL    HW173438   3.234   1.833  11.286  0.2202  0.4976  0.3593
23387SOL    HW273439   3.385   1.825  11.292  0.3274  1.8966 -0.2158
23388SOL     OW73440   4.927   8.131   7.373  0.3206 -0.5908  0.7708
23388SOL    HW173441   4.833   8.114   7.360  0.2141  0.0030  0.7257
23388SOL    HW273442   4.964   8.129   7.285  0.3180 -0.6450  0.7712
23389SOL     OW73443   0.227  10.692   9.518 -0.0799  0.8947  0.3594
23389SOL    HW173444   0.240  10.657   9.430  0.2692 -1.9252  1.4369
23389SOL    HW273445   0.171  10.769   9.506 -1.6212 -0.5151 -2.1492
23390SOL     OW73446   6.856   7.485   6.719  0.2209 -0.1359 -0.1675
23390SOL    HW173447   6.856   7.577   6.744  0.2537 -0.0569 -0.4467
23390SOL    HW273448   6.931   7.448   6.763 -0.7627 -0.4203  1.3270
23391SOL     OW73449   8.762  10.968   6.841 -0.3372  0.4180  0.3608
23391SOL    HW173450   8.799  10.906   6.779  0.8547  1.2784  0.1779
23391SOL    HW273451   8.669  10.945   6.846  0.2614 -2.0786  1.1571
23392SOL     OW73452   7.652   8.404   4.550 -0.6597 -0.3477 -0.0711
23392SOL    HW173453   7.740   8.384   4.517 -0.4197 -0.3085  0.5285
23392SOL    HW273454   7.668   8.462   4.624 -1.1308 -1.2566  0.7555
23393SOL     OW73455   6.668   9.270   4.819  0.5781 -0.0373 -0.2255
23393SOL    HW173456   6.712   9.184   4.815 -0.6425 -0.7132  0.3282
23393SOL    HW273457   6.673   9.294   4.912 -0.9671 -0.5525  0.0194
23394SOL     OW73458   4.009   4.091   4.291  0.2601 -0.3259  0.4483
23394SOL    HW173459   4.019   4.101   4.196 -1.4345  2.3053  0.4371
23394SOL    HW273460   4.063   4.161   4.328 -1.0239  0.3054  1.2360
23395SOL     OW73461   3.495   1.469   9.935 -0.0654  0.4493  0.3333
23395SOL    HW173462   3.506   1.412  10.011 -0.7501 -0.1011  0.0275
23395SOL    HW273463   3.424   1.528   9.958  0.8654  1.4249  0.7812
23396SOL     OW73464  10.273  10.920   6.339 -0.0735  0.7661 -0.4230
23396SOL    HW173465  10.298  10.973   6.264  1.2544 -0.0198 -0.5685
23396SOL    HW273466  10.334  10.846   6.338 -2.4252 -1.2984 -0.7890
23397SOL     OW73467   6.584   1.950   9.943  0.4141  0.3913  0.4968
23397SOL    HW173468   6.640   1.884   9.904  2.4653  0.5628  2.8549
23397SOL    HW273469   6.602   1.944  10.037 -1.2214  2.5874  1.0432
23398SOL     OW73470   7.454   7.509  10.211 -0.3767  0.2142 -0.6064
23398SOL    HW173471   7.543   7.544  10.209  0.2947 -1.1265  1.7462
23398SOL    HW273472   7.466   7.414  10.206 -1.7544  0.0408 -1.0359
23399SOL     OW73473   7.919   1.166   8.835 -0.0235 -0.4438  0.0867
23399SOL    HW173474   7.922   1.209   8.750  0.4104  0.3977  0.5148
23399SOL    HW273475   7.989   1.101   8.832 -1.3286 -1.8755 -0.9337
23400SOL     OW73476   3.436   6.419   9.683  0.3810 -0.1094  0.0294
23400SOL    HW173477   3.347   6.387   9.667  0.9490 -1.7844  0.0454
23400SOL    HW273478   3.472   6.434   9.596  0.0031  0.8552  0.0277
23401SOL     OW73479  11.086   8.136  11.318 -0.2727 -0.3699 -0.6237
23401SOL    HW173480  11.137   8.092  11.250  1.9202  2.0028 -0.6434
23401SOL    HW273481  11.144   8.142  11.393 -1.3290  0.4056  0.1673
23402SOL     OW73482   2.404   9.645  10.691 -0.2506 -1.1940  0.4280
23402SOL    HW173483   2.376   9.553  10.698 -1.8969 -0.9791 -2.0204
23402SOL    HW273484   2.349   9.681  10.622  1.0027  1.4228  0.6911
23403SOL     OW73485   9.625   1.523  10.626  0.2488  0.0873  0.1700
23403SOL    HW173486   9.635   1.569  10.543 -2.5158  0.2529 -0.1496
23403SOL    HW273487   9.593   1.436  10.602 -1.9089  0.5685  1.0244
23404SOL     OW73488   8.263   4.555   5.718  0.0340 -0.1985 -0.2304
23404SOL    HW173489   8.171   4.578   5.706  0.1070  0.3487  0.2312
23404SOL    HW273490   8.261   4.469   5.760 -0.3069  0.4477  1.1338
23405SOL     OW73491   3.024   6.038   7.014 -0.0983  0.0131 -0.1920
23405SOL    HW173492   3.048   6.041   6.921 -1.5768  0.6091 -0.5845
23405SOL    HW273493   2.931   6.017   7.014  0.0995 -0.9913  1.2072
23406SOL     OW73494   8.283   4.011   6.723 -0.3831  0.2206  0.0217
23406SOL    HW173495   8.309   3.920   6.708 -1.8832 -0.4225  1.0601
23406SOL    HW273496   8.298   4.026   6.816  0.9622  1.4595 -0.3497
23407SOL     OW73497   2.297  10.731   4.601 -0.2231  0.1932  0.0692
23407SOL    HW173498   2.342  10.652   4.571 -1.7780 -1.3540  1.6248
23407SOL    HW273499   2.276  10.778   4.520 -1.1059 -2.0191 -1.0852
23408SOL     OW73500   1.169   4.437   1.935 -0.0368 -0.3008 -0.6272
23408SOL    HW173501   1.255   4.432   1.894 -0.6717 -1.2477 -1.9383
23408SOL    HW273502   1.148   4.531   1.937  0.5438 -0.1481 -1.3552
23409SOL     OW73503   5.846   7.026   7.665  0.5070  0.6950  0.1246
23409SOL    HW173504   5.842   7.079   7.745  0.1851 -0.2194  0.7309
23409SOL    HW273505   5.912   7.069   7.611  1.0815  1.0574  1.0931
23410SOL     OW73506   1.539   9.446  11.261  0.0821 -0.2394  0.2882
23410SOL    HW173507   1.633   9.459  11.257  0.4618 -2.0054  2.0241
23410SOL    HW273508   1.521   9.428  11.353 -1.7500 -1.2352 -0.2158
23411SOL     OW73509   8.469   2.204   8.229  0.3831  0.0957 -0.4242
23411SOL    HW173510   8.556   2.230   8.260 -0.0232  1.1531 -0.1310
23411SOL    HW273511   8.427   2.167   8.306  0.4711 -0.1349 -0.4885
23412SOL     OW73512   5.468   3.911  10.275  0.0577 -0.3674 -0.3722
23412SOL    HW173513   5.519   3.933  10.353 -2.2880  0.0723  1.1200
23412SOL    HW273514   5.464   3.993  10.225 -0.2202 -0.0575  0.1452
23413SOL     OW73515   7.808   6.364   6.133  1.0720 -0.4645 -0.1861
23413SOL    HW173516   7.831   6.283   6.179  1.3635  1.2908  3.0067
23413SOL    HW273517   7.871   6.429   6.163 -0.1255  1.3711 -1.3732
23414SOL     OW73518   3.184   2.980  11.131  0.6274 -0.5748  0.0872
23414SOL    HW173519   3.123   2.938  11.070  2.1125 -1.8049 -0.6141
23414SOL    HW273520   3.240   3.035  11.076  2.0830 -1.8218  0.2568
23415SOL     OW73521   1.125   3.414  10.142  0.0973  0.4521 -0.3232
23415SOL    HW173522   1.164   3.465  10.071 -0.7732 -1.1561 -2.0714
23415SOL    HW273523   1.033   3.442  10.144  0.3839  1.3459  1.0191
23416SOL     OW73524   4.875   5.454   4.391  0.1604  0.0696 -0.0621
23416SOL    HW173525   4.844   5.363   4.392 -0.9016  0.4101  0.8163
23416SOL    HW273526   4.803   5.503   4.430  0.7085  1.3013 -0.5674
23417SOL     OW73527   3.936   1.049   9.893 -0.5622  0.0901 -0.2106
23417SOL    HW173528   4.014   1.102   9.879 -0.5124  0.0032 -0.2590
23417SOL    HW273529   3.880   1.102   9.950 -0.1453 -0.1698  0.4441
23418SOL     OW73530   6.761   7.798   6.065 -0.2405  0.2178 -0.3761
23418SOL    HW173531   6.837   7.823   6.118  0.1790  0.7388 -1.1829
23418SOL    HW273532   6.706   7.746   6.123  0.8173 -0.3088  0.1807
23419SOL     OW73533   3.440   6.676   0.772  0.3962  0.4797 -0.0194
23419SOL    HW173534   3.519   6.726   0.753  1.2004 -0.5624  0.5562
23419SOL    HW273535   3.386   6.687   0.693  1.7347 -0.0085 -1.0432
23420SOL     OW73536   9.856   1.140   7.702  0.6493  0.1736  0.2788
23420SOL    HW173537   9.783   1.102   7.653  0.4392 -1.3085  1.6608
23420SOL    HW273538   9.932   1.124   7.646  0.2748 -0.5994 -0.0327
23421SOL     OW73539   4.920   9.881  10.956  0.4478 -0.5798  0.2419
23421SOL    HW173540   4.877   9.815  11.010 -0.4346 -0.8940 -0.8068
23421SOL    HW273541   5.012   9.855  10.955  0.5689 -0.3112  1.9256
23422SOL     OW73542   5.545   1.453  11.316  0.5497 -0.0224  0.8959
23422SOL    HW173543   5.450   1.447  11.328  0.5140  0.4191  0.8352
23422SOL    HW273544   5.555   1.490  11.228  0.7856 -0.7790  0.5905
23423SOL     OW73545   5.106   6.522   2.512 -0.5210  0.4675  0.5027
23423SOL    HW173546   5.178   6.460   2.524 -0.0510  1.1916  1.6415
23423SOL    HW273547   5.034   6.470   2.477  0.4423 -0.3459 -0.3424
23424SOL     OW73548   2.095   6.509   6.021 -1.2298 -0.3570  0.1133
23424SOL    HW173549   2.132   6.597   6.025 -1.8133  0.0349 -2.1927
23424SOL    HW273550   2.006   6.521   5.987 -2.2346 -1.6502  2.0173
23425SOL     OW73551   7.041   4.538   6.248  0.1300 -0.1544 -0.1911
23425SOL    HW173552   7.106   4.527   6.177 -0.2977  0.1974 -0.6445
23425SOL    HW273553   7.017   4.631   6.243 -3.7393 -1.0548 -3.0108
23426SOL     OW73554   7.798   3.841   1.376 -0.4815  0.4049 -0.0713
23426SOL    HW173555   7.755   3.926   1.389 -1.5938  0.0407 -1.1403
23426SOL    HW273556   7.726   3.781   1.353  0.3881 -0.6345 -0.1591
23427SOL     OW73557   1.932   9.468   5.358  0.0946  0.3284 -0.5254
23427SOL    HW173558   1.979   9.417   5.292  1.0765 -1.9760  1.7542
23427SOL    HW273559   1.840   9.446   5.344  0.3600 -0.7343 -0.6617
23428SOL     OW73560   1.315   8.698   8.951 -0.0224 -0.8539  0.4858
23428SOL    HW173561   1.257   8.622   8.951 -0.4962 -0.5739 -1.8855
23428SOL    HW273562   1.269   8.764   9.004 -0.0378 -1.8839  1.7897
23429SOL     OW73563   8.714   4.064   9.920  0.2763 -0.0236  0.4618
23429SOL    HW173564   8.692   4.149   9.882 -1.5996 -0.0719  1.3080
23429SOL    HW273565   8.761   4.085  10.000  2.1960  0.1192 -0.6472
23430SOL     OW73566  10.449   0.269   0.198 -0.3911  0.8727  0.5733
23430SOL    HW173567  10.403   0.194   0.237 -0.0128  1.2222  1.7437
23430SOL    HW273568  10.427   0.343   0.255  0.3672  1.3536  0.2570
23431SOL     OW73569  11.307   2.332   7.545  0.7386 -0.2481 -0.2671
23431SOL    HW173570  11.384   2.376   7.581  0.7666 -0.1182 -0.4857
23431SOL    HW273571  11.323   2.330   7.451  0.6137 -0.4900 -0.2842
23432SOL     OW73572   5.712   7.932  10.344  0.4178 -0.0212 -0.2237
23432SOL    HW173573   5.633   7.881  10.364  0.5776  0.1397  0.9291
23432SOL    HW273574   5.783   7.868  10.344  0.5113  0.0662  0.4682
23433SOL     OW73575   3.366   7.656   4.030 -0.1081  0.1988  0.5671
23433SOL    HW173576   3.279   7.624   4.008 -0.0366 -0.5560  1.3001
23433SOL    HW273577   3.352   7.712   4.107 -0.1150  1.2069 -0.1575
23434SOL     OW73578   5.438   1.611  10.569  0.1402  0.5044  0.0579
23434SOL    HW173579   5.499   1.681  10.591 -1.7157  2.4902 -0.7239
23434SOL    HW273580   5.493   1.533  10.558  2.4591  2.0981 -0.2796
23435SOL     OW73581  11.089   5.795   1.284 -0.5245 -0.0544 -0.2243
23435SOL    HW173582  11.035   5.873   1.296  0.7306  1.2486 -2.3891
23435SOL    HW273583  11.027   5.722   1.292 -1.8345  1.1501  1.2786
23436SOL     OW73584   6.983  11.108   5.044 -0.1328 -0.3243  0.2181
23436SOL    HW173585   6.898  11.125   5.084 -0.4774 -0.4823 -0.4283
23436SOL    HW273586   7.004  11.189   4.998  1.0372  0.4637  2.0282
23437SOL     OW73587   6.972   6.481   3.009 -0.1876 -0.2985 -0.1986
23437SOL    HW173588   6.989   6.408   3.068 -0.7402 -1.3714 -1.3321
23437SOL    HW273589   6.930   6.442   2.933 -1.0573  1.2845 -0.5857
23438SOL     OW73590   1.176   4.835   5.506 -0.5673 -0.3246 -0.1474
23438SOL    HW173591   1.160   4.849   5.412 -1.9852 -1.7839 -0.1609
23438SOL    HW273592   1.224   4.913   5.534 -1.7089  1.0059 -1.7096
23439SOL     OW73593   3.396   4.190   8.841 -0.3839  0.7027  0.2606
23439SOL    HW173594   3.434   4.272   8.809 -2.7156  1.8196  0.1689
23439SOL    HW273595   3.344   4.216   8.917 -1.0748 -0.7184  0.2924
23440SOL     OW73596   0.462   5.380   8.955 -0.3479  0.0053 -0.0801
23440SOL    HW173597   0.412   5.339   9.027 -0.5567  2.8539  1.5460
23440SOL    HW273598   0.395   5.423   8.901  0.0739  1.0551  0.2157
23441SOL     OW73599   9.874   3.450   0.448  0.6176 -0.3201 -0.2520
23441SOL    HW173600   9.927   3.399   0.387  2.3428  0.5972  0.4170
23441SOL    HW273601   9.829   3.385   0.501  1.1519 -1.1319 -0.7766
23442SOL     OW73602  11.079   7.145  10.935 -0.0901  0.3657  0.2146
23442SOL    HW173603  11.083   7.098  10.852 -1.2945  1.3188 -0.4226
23442SOL    HW273604  11.082   7.237  10.910 -0.4561  0.6642  1.2331
23443SOL     OW73605   8.093   7.922   9.829 -0.0830  0.4304  0.3625
23443SOL    HW173606   8.018   7.941   9.885  0.2814  1.2501  0.5761
23443SOL    HW273607   8.117   7.832   9.853 -1.1348  0.0689  0.1170
23444SOL     OW73608   8.370   6.891   2.126 -0.6571 -0.2044 -0.8117
23444SOL    HW173609   8.449   6.905   2.075  0.1341  2.1913  0.8883
23444SOL    HW273610   8.335   6.809   2.093  2.4295 -1.2953 -1.7490
23445SOL     OW73611   9.943   5.251   0.345  0.0795 -0.1614  0.0653
23445SOL    HW173612   9.925   5.323   0.406  0.6166 -1.4343  1.8207
23445SOL    HW273613  10.009   5.285   0.285  0.8204  0.6011  1.2885
23446SOL     OW73614   6.823   2.972   6.581 -0.0652 -0.0585  0.2612
23446SOL    HW173615   6.851   2.951   6.670  0.1309 -0.7579  0.0419
23446SOL    HW273616   6.727   2.973   6.586 -0.1682 -2.4689  0.0012
23447SOL     OW73617   6.504   9.615  10.721  0.1814  0.1702  0.4323
23447SOL    HW173618   6.563   9.575  10.785  0.4675  1.0036  0.7032
23447SOL    HW273619   6.422   9.625  10.768 -0.2871 -1.2375 -0.0264
23448SOL     OW73620  10.087   5.847   2.359  0.4666 -0.2299 -0.3366
23448SOL    HW173621  10.001   5.879   2.333  0.6596  1.0324  0.4838
23448SOL    HW273622  10.084   5.845   2.455  0.4417 -2.8322 -0.3421
23449SOL     OW73623   5.857   6.449   2.591 -0.2756 -0.0747  0.4212
23449SOL    HW173624   5.816   6.400   2.520 -1.5972 -0.4930  1.4169
23449SOL    HW273625   5.840   6.541   2.570 -0.2833 -0.1770 -0.0241
23450SOL     OW73626   0.464   1.076   9.065 -0.4459  0.3725 -0.2281
23450SOL    HW173627   0.385   1.025   9.046 -0.1198 -0.5309  0.7766
23450SOL    HW273628   0.494   1.044   9.150  2.1421 -0.7394 -1.4627
23451SOL     OW73629  10.211   4.087   8.720 -0.4617  0.0088 -0.0961
23451SOL    HW173630  10.257   4.028   8.660 -0.3926  0.2419 -0.2712
23451SOL    HW273631  10.210   4.172   8.675  1.5182  0.7599  1.1203
23452SOL     OW73632   6.856   2.663   3.228  0.2624 -0.0561 -0.3792
23452SOL    HW173633   6.873   2.744   3.277  0.6254 -0.1544 -0.3405
23452SOL    HW273634   6.903   2.675   3.146 -2.2906  1.1594 -1.8010
23453SOL     OW73635   0.105   6.514   3.678 -0.4952  0.2232 -0.1904
23453SOL    HW173636   0.162   6.591   3.676  2.5114 -1.8417 -1.2531
23453SOL    HW273637   0.133   6.465   3.756 -2.3391  0.1285  0.4637
23454SOL     OW73638   7.057   6.519   2.314 -0.2390  0.1322  0.0834
23454SOL    HW173639   7.075   6.611   2.292  0.0427 -0.2737 -1.5077
23454SOL    HW273640   6.975   6.522   2.363  0.1789  1.2979  0.7504
23455SOL     OW73641   7.943   1.520   8.142  0.0607 -0.7760 -0.0674
23455SOL    HW173642   7.965   1.430   8.167 -1.1278 -0.7138  1.3379
23455SOL    HW273643   7.848   1.518   8.127  0.1783  0.0267 -1.0717
23456SOL     OW73644   2.187   3.779   2.968  0.0011  0.2514 -0.0860
23456SOL    HW173645   2.240   3.708   2.933 -1.8446 -1.2306 -0.0400
23456SOL    HW273646   2.142   3.815   2.892 -2.4699 -1.6509  0.3410
23457SOL     OW73647  10.819   2.205   9.132 -0.0054  0.3811 -0.6657
23457SOL    HW173648  10.787   2.115   9.136 -0.1812  0.4604 -0.2704
23457SOL    HW273649  10.793   2.244   9.215 -0.1350  0.8702 -0.9318
23458SOL     OW73650   3.815  11.331   8.629 -0.0420  0.3478 -0.9428
23458SOL    HW173651   3.793  11.306   8.539 -0.7886  1.1322 -0.9899
23458SOL    HW273652   3.733  11.321   8.678  0.3012  0.1496 -0.3916
23459SOL     OW73653   0.521   8.533   5.616 -0.0367 -0.2579  0.0724
23459SOL    HW173654   0.485   8.615   5.650 -0.2732 -1.1519  2.1862
23459SOL    HW273655   0.451   8.468   5.630 -0.1463 -0.7306 -2.2476
23460SOL     OW73656   8.760   9.878   5.124 -0.7488  1.1102 -0.6702
23460SOL    HW173657   8.792   9.817   5.057 -0.2156  0.7065 -0.0648
23460SOL    HW273658   8.673   9.845   5.146  0.3452 -0.7792  1.1816
23461SOL     OW73659   7.863   9.096   0.692 -0.2606 -0.1948 -0.0645
23461SOL    HW173660   7.890   9.016   0.647  1.3733 -0.3379  1.1010
23461SOL    HW273661   7.939   9.154   0.687 -1.5571  1.4950 -1.2629
23462SOL     OW73662   5.392   4.798   8.357 -0.3125 -0.1806 -0.2679
23462SOL    HW173663   5.436   4.770   8.438  0.4953 -0.6794 -0.8578
23462SOL    HW273664   5.434   4.746   8.289 -1.0117  0.2118 -1.0048
23463SOL     OW73665   4.322  11.024   8.207  0.0060 -0.0434 -0.0423
23463SOL    HW173666   4.259  11.086   8.170  1.4263  0.7511 -1.2422
23463SOL    HW273667   4.403  11.042   8.160  1.0042 -1.3937  1.0906
23464SOL     OW73668   7.258  10.462   5.563 -0.0491  0.8032 -0.3411
23464SOL    HW173669   7.244  10.548   5.602 -1.9434 -0.0563  0.9858
23464SOL    HW273670   7.195  10.458   5.491 -1.4457 -0.2086  0.8881
23465SOL     OW73671   4.949   4.425   4.061  0.4886 -0.0203  0.0417
23465SOL    HW173672   5.031   4.419   4.012  0.4498 -1.5014  0.1118
23465SOL    HW273673   4.902   4.346   4.038 -0.3488  0.1698  1.0380
23466SOL     OW73674   0.371   1.423   5.974  0.1549  0.4716  0.1728
23466SOL    HW173675   0.404   1.398   5.887 -0.2618 -0.3764  0.2500
23466SOL    HW273676   0.400   1.514   5.985  0.5882  0.4486 -0.6691
23467SOL     OW73677   3.423   6.973   4.852  0.0026 -0.7279  0.5640
23467SOL    HW173678   3.510   6.999   4.882  0.7124  0.4243 -2.1387
23467SOL    HW273679   3.365   6.995   4.924  1.5383  1.7348  1.1713
23468SOL     OW73680   1.029   6.201   2.782  0.1701 -0.3094  0.3364
23468SOL    HW173681   1.058   6.110   2.792  0.4615 -0.3160 -0.5322
23468SOL    HW273682   1.007   6.210   2.689 -2.1371 -0.1572  0.8404
23469SOL     OW73683   1.287   3.729   5.840  0.3242  0.0634  0.8980
23469SOL    HW173684   1.252   3.643   5.820  0.5604  0.0099  0.7083
23469SOL    HW273685   1.327   3.759   5.758  0.7313  0.1143  1.1082
23470SOL     OW73686   6.367  10.914   1.163  0.1454 -0.3945 -0.1175
23470SOL    HW173687   6.328  10.834   1.130 -1.0892  0.6405 -1.2810
23470SOL    HW273688   6.371  10.972   1.087  1.4632  0.4944  0.5842
23471SOL     OW73689   0.957  10.791   0.954 -0.3252 -0.2208  0.6232
23471SOL    HW173690   0.874  10.759   0.990  0.7598 -2.3095  1.4118
23471SOL    HW273691   1.021  10.724   0.976  0.7963 -0.8983 -3.7618
23472SOL     OW73692   8.740  10.676   9.699 -0.0697 -0.2309  0.3418
23472SOL    HW173693   8.777  10.763   9.688  2.7447 -1.4908 -1.3829
23472SOL    HW273694   8.753  10.655   9.791 -0.9314  1.1804  0.8135
23473SOL     OW73695   8.016   0.436   8.913 -0.3881  0.7694  0.1988
23473SOL    HW173696   8.105   0.442   8.947 -1.3657  0.8158  3.0431
23473SOL    HW273697   7.995   0.343   8.918 -0.8917  0.9035  0.8064
23474SOL     OW73698   7.477  11.266   1.434 -0.1495 -0.2365 -0.7638
23474SOL    HW173699   7.524  11.257   1.516 -1.2684  0.1264 -0.0486
23474SOL    HW273700   7.513  11.199   1.377 -0.3953 -1.5190  0.5349
23475SOL     OW73701   8.457   9.451   8.212 -0.2359  0.1205  0.2850
23475SOL    HW173702   8.441   9.484   8.300 -0.0096 -0.2483  0.4675
23475SOL    HW273703   8.376   9.406   8.188 -0.4329  0.5402  0.1562
23476SOL     OW73704   3.410   1.119   0.739  0.2267 -0.6068 -0.2703
23476SOL    HW173705   3.417   1.164   0.823 -2.3141 -0.2432 -0.1747
23476SOL    HW273706   3.386   1.030   0.762  0.7964 -0.8470 -0.5933
23477SOL     OW73707   0.426   8.640   8.147 -0.5531  0.2427 -0.4367
23477SOL    HW173708   0.376   8.560   8.163  0.5166 -0.6668 -1.3969
23477SOL    HW273709   0.515   8.618   8.176 -0.2752  1.1343 -0.5894
23478SOL     OW73710   7.141   3.299   5.137  0.0198 -0.5964  0.1282
23478SOL    HW173711   7.176   3.258   5.216  2.2222  0.1134 -0.3921
23478SOL    HW273712   7.069   3.243   5.110 -0.5003 -1.0985  2.3787
23479SOL     OW73713   7.335   8.703   7.445 -0.0083 -0.3726 -0.3176
23479SOL    HW173714   7.362   8.616   7.475  0.8443 -0.8971 -2.4376
23479SOL    HW273715   7.243   8.709   7.470  0.7062 -0.4539  2.8691
23480SOL     OW73716   9.612   3.920   1.337  0.1581 -0.2766 -0.0327
23480SOL    HW173717   9.563   3.982   1.282 -3.3652 -0.3123  2.6614
23480SOL    HW273718   9.563   3.838   1.329 -0.3740 -0.3325  2.8163
23481SOL     OW73719   2.789   5.235   1.052 -0.1193 -0.2024  0.2777
23481SOL    HW173720   2.784   5.191   0.967 -1.1059 -0.5452  0.4958
23481SOL    HW273721   2.833   5.171   1.109 -0.0057 -0.2178  0.1725
23482SOL     OW73722   3.258   0.562   1.976 -0.0630  0.0902  0.5152
23482SOL    HW173723   3.342   0.603   1.998 -0.3896  1.2719 -0.3632
23482SOL    HW273724   3.238   0.508   2.052  1.1289  0.3721  1.0619
23483SOL     OW73725   5.812   0.900   4.656  0.7776 -0.1566  0.7412
23483SOL    HW173726   5.741   0.960   4.634  0.8708 -0.2720  0.1187
23483SOL    HW273727   5.805   0.830   4.591  2.3112  0.5143 -0.1944
23484SOL     OW73728   8.511   0.729  10.102  0.0536  0.1311 -0.2410
23484SOL    HW173729   8.479   0.655  10.154  0.4926 -0.8318 -1.3043
23484SOL    HW273730   8.606   0.727  10.113  0.1877 -0.3060 -1.3361
23485SOL     OW73731   6.104   7.488   4.700  0.3870  0.3446  0.3870
23485SOL    HW173732   6.039   7.475   4.769  2.0237 -2.1104  1.6160
23485SOL    HW273733   6.173   7.425   4.720  1.8725  0.9227 -2.4159
23486SOL     OW73734   8.971   2.982   5.649  0.1267  0.5229 -0.1526
23486SOL    HW173735   9.050   2.960   5.600  0.3751  0.0148  0.4535
23486SOL    HW273736   8.903   2.993   5.582  0.5445  0.2392 -0.6318
23487SOL     OW73737  10.695   5.834   1.257  0.0153  0.5092 -0.1700
23487SOL    HW173738  10.605   5.862   1.273 -0.6301 -0.8260 -1.2333
23487SOL    HW273739  10.686   5.754   1.205  1.8625  1.6871 -2.4634
23488SOL     OW73740   1.170   0.245   1.264 -0.1082 -0.0531 -0.0938
23488SOL    HW173741   1.094   0.211   1.217 -2.1322  1.7799  1.6879
23488SOL    HW273742   1.146   0.334   1.288  2.3674  0.3720  1.1246
23489SOL     OW73743   1.564   2.602   2.324  0.1076  0.6154  0.1126
23489SOL    HW173744   1.471   2.618   2.341 -0.1282 -0.8089  0.2929
23489SOL    HW273745   1.587   2.529   2.382  1.0617  0.2385 -0.7072
23490SOL     OW73746   3.207   7.793   9.197  0.1219 -0.2286 -0.2595
23490SOL    HW173747   3.266   7.863   9.169 -0.0519  0.4507  0.9613
23490SOL    HW273748   3.128   7.806   9.144 -0.7486  1.9067  1.3815
23491SOL     OW73749  10.161   7.274   0.208  0.4687 -0.5398 -0.0321
23491SOL    HW173750  10.189   7.237   0.292  2.0799 -0.3455 -0.4681
23491SOL    HW273751  10.128   7.361   0.230  0.2644 -0.7416  0.4764
23492SOL     OW73752   9.043   0.004  10.315 -0.3209 -0.9417  0.1562
23492SOL    HW173753   9.000   0.010  10.230  0.1466  1.5165  0.0232
23492SOL    HW273754   8.971  -0.012  10.376 -1.4804  2.2109 -0.1746
23493SOL     OW73755   5.791  10.935  10.935  0.6535  0.0440 -0.0236
23493SOL    HW173756   5.722  10.999  10.920  0.9724  0.2395 -0.6806
23493SOL    HW273757   5.748  10.865  10.985 -0.4887 -0.6746 -1.8937
23494SOL     OW73758   9.982   3.074   6.104  0.4198 -0.3297  0.4810
23494SOL    HW173759  10.071   3.105   6.115  0.7001  0.0413 -2.0676
23494SOL    HW273760   9.992   2.987   6.066 -0.2242  0.2429 -1.0993
23495SOL     OW73761  10.810   4.981   0.163 -0.2947 -0.1700  0.7120
23495SOL    HW173762  10.853   5.059   0.195  0.1263  0.7289 -1.8304
23495SOL    HW273763  10.720   5.009   0.143 -0.6276 -0.7725  1.2912
23496SOL     OW73764   8.131  11.193  11.322 -0.3327  0.3203  0.4723
23496SOL    HW173765   8.227  11.185  11.320 -0.4103 -0.6820  0.2621
23496SOL    HW273766   8.115  11.266  11.382  0.5210 -0.6109  1.8975
23497SOL     OW73767   1.052   1.410   4.518 -0.0242  0.0983  0.2668
23497SOL    HW173768   1.076   1.414   4.426 -1.1585 -1.3566 -0.1320
23497SOL    HW273769   1.131   1.380   4.563  0.0709 -0.8120 -0.4768
23498SOL     OW73770   7.588   4.771   8.379 -0.1852 -0.4904 -0.1470
23498SOL    HW173771   7.626   4.818   8.453 -0.1062  0.0967 -0.5507
23498SOL    HW273772   7.615   4.822   8.302  0.1886 -1.3822 -0.6276
23499SOL     OW73773   4.102   6.512   9.037  0.4058 -0.1649  0.2411
23499SOL    HW173774   4.155   6.472   8.968  0.5615  0.6784 -0.1529
23499SOL    HW273775   4.018   6.467   9.032  0.5434 -0.3801 -0.2505
23500SOL     OW73776   5.058   6.588   4.899  0.0372  0.4205 -0.2819
23500SOL    HW173777   5.143   6.546   4.917  0.5748  1.4889 -0.2587
23500SOL    HW273778   5.012   6.585   4.983 -0.6127 -1.5613 -0.6519
23501SOL     OW73779   3.481   3.092   8.011 -0.1208  0.0194  0.0046
23501SOL    HW173780   3.391   3.101   8.044  0.4922  1.4475  1.4609
23501SOL    HW273781   3.495   3.171   7.959  0.4972  0.1658  0.3809
23502SOL     OW73782   7.728   8.458   8.872 -0.0354  0.1535 -0.5037
23502SOL    HW173783   7.753   8.551   8.874 -0.2509  0.1964  0.5428
23502SOL    HW273784   7.796   8.414   8.922 -0.1621 -0.1931 -0.6374
23503SOL     OW73785   6.224   5.835   8.519  0.3307  0.0762  0.8824
23503SOL    HW173786   6.276   5.768   8.475  1.2616  1.0954  0.3837
23503SOL    HW273787   6.162   5.866   8.452  2.0835  1.9884  0.0142
23504SOL     OW73788   0.417   1.600   1.852  0.1810  1.0865 -0.3717
23504SOL    HW173789   0.459   1.516   1.833 -1.8902  0.2987 -1.9760
23504SOL    HW273790   0.480   1.648   1.904  1.6058 -1.3297  0.2822
23505SOL     OW73791  10.399   5.945   9.827 -1.3320 -0.1776  0.0930
23505SOL    HW173792  10.376   5.853   9.837  0.3024 -0.5267  0.8593
23505SOL    HW273793  10.420   5.975   9.915  1.8039 -0.1315 -0.5473
23506SOL     OW73794   8.331  10.493   7.684 -0.0680  0.0808  0.1916
23506SOL    HW173795   8.253  10.538   7.716  0.9898  1.8195  0.4659
23506SOL    HW273796   8.355  10.434   7.755  0.6096  1.8098  1.4923
23507SOL     OW73797   2.071  10.365   5.688  0.1819 -0.1356  0.3581
23507SOL    HW173798   2.045  10.296   5.749  0.0917 -1.0972 -0.7221
23507SOL    HW273799   2.010  10.356   5.614  1.8376 -0.6887 -1.0260
23508SOL     OW73800  10.461  10.604   7.432 -0.2816 -0.2582  0.4383
23508SOL    HW173801  10.435  10.635   7.519  0.1512 -0.2066  0.5534
23508SOL    HW273802  10.544  10.649   7.415  0.0570 -0.8998  0.3525
23509SOL     OW73803   3.292   7.861  11.007 -0.0866  0.3790 -0.1988
23509SOL    HW173804   3.278   7.955  11.016 -6.6522 -0.3524  2.7814
23509SOL    HW273805   3.270   7.843  10.915  0.8434  1.5954 -0.6932
23510SOL     OW73806   4.850   3.530   0.032 -0.7450 -0.0095 -0.1032
23510SOL    HW173807   4.777   3.491  -0.017 -0.6031 -1.0995  0.5119
23510SOL    HW273808   4.839   3.496   0.122 -0.3148  0.9856  0.3388
23511SOL     OW73809   6.833   1.292   7.315  0.1191  0.0191 -0.2342
23511SOL    HW173810   6.925   1.283   7.292 -0.2676 -1.0472 -1.5241
23511SOL    HW273811   6.831   1.285   7.410  1.6068  2.6613  0.1039
23512SOL     OW73812   2.312   9.396  10.721  0.1185  0.2198  0.1356
23512SOL    HW173813   2.370   9.361  10.654  1.0969 -0.2404  1.2033
23512SOL    HW273814   2.354   9.375  10.804 -0.3902  1.9388  0.8922
23513SOL     OW73815  11.132   9.385   9.637  0.2546 -0.0600  0.5454
23513SOL    HW173816  11.044   9.348   9.641  0.9261 -1.6971  2.9509
23513SOL    HW273817  11.120   9.475   9.608 -2.2594 -0.1018  1.2710
23514SOL     OW73818   8.065   9.317   2.361  0.0274 -0.0574 -0.7543
23514SOL    HW173819   8.091   9.291   2.449  0.6031 -2.1472 -1.4906
23514SOL    HW273820   8.147   9.335   2.315 -0.2239  0.2441 -1.0986
23515SOL     OW73821   5.455   1.573   8.538  0.4702  0.0002 -0.2317
23515SOL    HW173822   5.402   1.652   8.530 -0.2904 -0.3996  0.6342
23515SOL    HW273823   5.501   1.566   8.455  0.3902  1.2381 -0.3898
23516SOL     OW73824   0.984   9.498   7.313  0.2461  1.1614 -0.2012
23516SOL    HW173825   0.896   9.535   7.316  0.2795  1.1937  1.9263
23516SOL    HW273826   1.041   9.569   7.341  0.4944  0.1291  2.1748
23517SOL     OW73827   0.413   1.877   8.743  0.0044 -0.0384 -0.0790
23517SOL    HW173828   0.471   1.906   8.673  0.8425  0.5827  0.8479
23517SOL    HW273829   0.447   1.791   8.769  0.4245  0.2574  0.3602
23518SOL     OW73830   7.887   8.089   5.031 -0.1569  0.7191  0.0585
23518SOL    HW173831   7.964   8.033   5.045 -0.1541  0.5030 -0.7699
23518SOL    HW273832   7.912   8.173   5.068 -0.3520  0.0551  1.8164
23519SOL     OW73833   7.710   8.707   3.478 -0.7953 -0.1723 -0.1830
23519SOL    HW173834   7.759   8.777   3.521  0.5861 -1.4371  0.3995
23519SOL    HW273835   7.665   8.663   3.550 -0.1943 -0.9807 -0.2895
23520SOL     OW73836   7.412   9.729  10.501  0.2841 -0.3465 -0.2592
23520SOL    HW173837   7.405   9.758  10.409  0.4123 -1.3759 -0.6038
23520SOL    HW273838   7.503   9.746  10.524  0.4819 -0.8932 -0.6115
23521SOL     OW73839   9.072   0.269   5.726  0.3411 -0.2681  0.8603
23521SOL    HW173840   9.111   0.182   5.733  2.7033  0.5731 -0.5947
23521SOL    HW273841   9.121   0.323   5.787  1.0069  0.6714 -0.4599
23522SOL     OW73842   6.797   8.581   7.325  0.0508  0.1308 -0.5334
23522SOL    HW173843   6.796   8.674   7.299  0.0586 -0.2612 -2.0344
23522SOL    HW273844   6.885   8.567   7.359  0.9247  0.1267 -2.6097
23523SOL     OW73845   4.126   4.761  10.475  0.3883 -0.2041  0.3117
23523SOL    HW173846   4.182   4.808  10.413 -0.0747  0.5399  0.4477
23523SOL    HW273847   4.171   4.678  10.488  0.1830 -0.6544 -1.5035
23524SOL     OW73848  10.515   0.568   9.173 -0.0254 -0.1757 -0.0149
23524SOL    HW173849  10.582   0.508   9.206  0.2704  0.2207  0.1200
23524SOL    HW273850  10.433   0.520   9.182  0.0476 -0.0916  1.3071
23525SOL     OW73851   7.721   4.957   8.207  0.1554  0.6218 -0.5240
23525SOL    HW173852   7.801   4.905   8.212 -0.8822 -1.0542 -0.8411
23525SOL    HW273853   7.744   5.030   8.149  1.7998  0.8588  0.3648
23526SOL     OW73854   8.331   8.734  10.485 -0.2336 -0.1696 -0.4260
23526SOL    HW173855   8.344   8.640  10.492  1.9976  0.0677 -0.7710
23526SOL    HW273856   8.415   8.768  10.454 -0.3369  2.1212  1.4735
23527SOL     OW73857   3.842   3.034   8.957 -0.0585 -0.0730  0.1279
23527SOL    HW173858   3.921   3.001   9.000 -1.0644 -2.5492  0.2349
23527SOL    HW273859   3.864   3.033   8.863  0.0303 -0.8206  0.1496
23528SOL     OW73860   8.582   8.737   8.197 -0.4516  0.4376 -0.1305
23528SOL    HW173861   8.514   8.670   8.205 -0.5257  0.5932  0.5674
23528SOL    HW273862   8.621   8.720   8.111  1.2293 -2.1660  0.9862
23529SOL     OW73863   1.051   3.940   5.709 -0.4625 -0.1933  0.0015
23529SOL    HW173864   1.139   3.946   5.747 -0.2019  0.3739 -0.6505
23529SOL    HW273865   1.002   3.885   5.769 -0.1824  0.9873  1.3693
23530SOL     OW73866   7.290   2.990   9.412 -0.1125 -0.2352 -0.0240
23530SOL    HW173867   7.198   2.974   9.389 -0.9038  1.3560  1.7382
23530SOL    HW273868   7.319   3.056   9.349 -1.4282  2.1099  1.6890
23531SOL     OW73869  10.714   7.892   4.136 -0.3921 -0.4867 -0.8147
23531SOL    HW173870  10.752   7.933   4.213 -0.1348  0.5600 -1.4857
23531SOL    HW273871  10.771   7.817   4.118  1.1588  0.8043 -1.5512
23532SOL     OW73872   6.369  10.306   0.458  0.2452 -0.5325  0.0216
23532SOL    HW173873   6.399  10.298   0.367  0.5961 -1.5309  0.2166
23532SOL    HW273874   6.275  10.288   0.454 -0.0245  0.8032 -0.3262
23533SOL     OW73875   0.430   8.963   8.569 -0.1150  0.1885  0.4262
23533SOL    HW173876   0.375   8.885   8.567  2.0402 -1.4779  1.5590
23533SOL    HW273877   0.484   8.955   8.490 -0.6542  1.2046 -0.0716
23534SOL     OW73878   0.287   8.980  10.110 -0.2913 -0.8040 -0.3389
23534SOL    HW173879   0.196   8.950  10.110 -0.7986  0.5260  1.9003
23534SOL    HW273880   0.339   8.900  10.117 -1.5044 -1.4488  2.8398
23535SOL     OW73881   1.778   1.402  10.362 -0.1965 -0.3771 -0.2693
23535SOL    HW173882   1.710   1.464  10.335 -0.2734  1.2715  3.2293
23535SOL    HW273883   1.858   1.453  10.365  0.2214 -1.0540  0.4035
23536SOL     OW73884   6.294   6.797   8.003  0.4764 -0.6325  0.1226
23536SOL    HW173885   6.207   6.790   7.966  0.0715  3.1299  0.0053
23536SOL    HW273886   6.286   6.758   8.090 -0.5039 -2.8283 -0.8853
23537SOL     OW73887  11.137   6.929   4.704 -0.2297 -0.3381 -0.6242
23537SOL    HW173888  11.154   6.837   4.724 -0.8783 -0.6443 -1.4309
23537SOL    HW273889  11.057   6.950   4.752  0.4484  0.0904  0.3354
23538SOL     OW73890  10.667   4.586   7.258  0.3633  0.5106  0.3833
23538SOL    HW173891  10.699   4.513   7.204 -2.4028 -0.7108  0.1995
23538SOL    HW273892  10.722   4.660   7.233 -1.0067  0.2310 -4.6556
23539SOL     OW73893   6.309   5.008   0.231 -0.2485 -0.0980 -0.3404
23539SOL    HW173894   6.313   5.033   0.139  0.1460 -1.2904 -0.6782
23539SOL    HW273895   6.373   5.065   0.274 -2.0423  2.0282 -0.3714
23540SOL     OW73896   9.206   0.228   7.210  0.4205  0.1740 -0.5243
23540SOL    HW173897   9.220   0.321   7.192  0.7114  0.0806 -0.8029
23540SOL    HW273898   9.173   0.193   7.127  1.2277 -0.1529 -0.7163
23541SOL     OW73899   6.174   5.058   7.648  0.2608  0.6486 -0.3571
23541SOL    HW173900   6.147   5.037   7.737  0.7640 -1.6190 -0.6691
23541SOL    HW273901   6.192   5.152   7.649  0.7943  0.5738  2.0731
23542SOL     OW73902   1.220   9.672   1.515  0.0280  0.1738 -0.1115
23542SOL    HW173903   1.273   9.681   1.436  0.9818 -0.7612  0.3926
23542SOL    HW273904   1.274   9.708   1.585  0.0561 -0.8541  0.4217
23543SOL     OW73905   3.616   1.051   3.573 -0.5391  0.4045  0.5150
23543SOL    HW173906   3.558   0.994   3.623  0.6591 -0.5825  0.8190
23543SOL    HW273907   3.704   1.032   3.606  0.2102  0.2369 -1.4489
23544SOL     OW73908   6.057   2.838   2.699  0.7610 -0.0565  0.0070
23544SOL    HW173909   6.079   2.913   2.754  0.2274  0.1012  0.0150
23544SOL    HW273910   6.131   2.778   2.710  0.6186 -0.0770  0.9764
23545SOL     OW73911   8.844   3.170   6.775  0.2306  0.2007  0.8073
23545SOL    HW173912   8.879   3.139   6.859  0.5498 -2.6237 -0.2509
23545SOL    HW273913   8.752   3.143   6.777  0.3739 -0.3513  0.0577
23546SOL     OW73914   3.478   5.577   5.709 -0.0507  0.5430 -0.5494
23546SOL    HW173915   3.534   5.581   5.787  0.2057  0.7099 -0.7381
23546SOL    HW273916   3.539   5.585   5.636 -0.4063  1.6809 -0.7429
23547SOL     OW73917   3.898   2.034   6.563  0.0517 -0.5258 -0.0948
23547SOL    HW173918   3.980   2.080   6.542  0.1052 -0.1764  0.8276
23547SOL    HW273919   3.848   2.037   6.482  0.3242  0.6194 -0.2445
23548SOL     OW73920   8.559   0.146  11.078 -0.0835 -0.0988 -0.3393
23548SOL    HW173921   8.467   0.142  11.105  0.0447 -1.4916 -0.0022
23548SOL    HW273922   8.608   0.120  11.156  0.5289 -0.3560 -0.8024
23549SOL     OW73923   6.986   2.036   8.108 -0.0199  0.4566 -0.0073
23549SOL    HW173924   6.934   2.072   8.180  1.9354 -1.0659  2.3483
23549SOL    HW273925   6.939   1.957   8.081  0.6806 -0.6131  1.7332
23550SOL     OW73926   5.648   2.797   2.153 -0.1898  0.5428  0.1014
23550SOL    HW173927   5.567   2.747   2.145  0.2730 -0.1800 -0.1458
23550SOL    HW273928   5.638   2.846   2.234 -0.6910  0.1104  0.3049
23551SOL     OW73929   3.251   9.597   5.470  0.5331 -0.3361 -0.2352
23551SOL    HW173930   3.215   9.618   5.384 -0.9405  0.9347  0.6302
23551SOL    HW273931   3.187   9.538   5.509  0.3816  0.3335  0.5624
23552SOL     OW73932   6.371   7.266   6.743  0.0336  0.8990 -0.0366
23552SOL    HW173933   6.310   7.332   6.776 -0.6605  0.0086  0.4871
23552SOL    HW273934   6.329   7.234   6.663 -1.8927 -1.9951  1.9360
23553SOL     OW73935   1.273   5.592   4.781  0.0136  0.0926  0.6109
23553SOL    HW173936   1.320   5.627   4.857 -0.1830  1.0531  0.3037
23553SOL    HW273937   1.342   5.555   4.725  0.1743 -0.4837  1.1824
23554SOL     OW73938   0.617   3.791  10.242  0.1323  0.4129  0.2645
23554SOL    HW173939   0.676   3.726  10.280 -0.0984  0.5408  0.8428
23554SOL    HW273940   0.632   3.870  10.294 -1.6983  0.0174  1.4683
23555SOL     OW73941   4.806   3.179   5.591  0.3238 -0.0066 -0.1289
23555SOL    HW173942   4.803   3.250   5.656 -0.6942 -0.0529 -0.0991
23555SOL    HW273943   4.864   3.211   5.522 -0.3576  0.9988 -0.2588
23556SOL     OW73944   8.605   2.934   2.744 -0.0019  0.0242  0.0294
23556SOL    HW173945   8.655   2.872   2.797 -0.6767  0.5590  1.3497
23556SOL    HW273946   8.662   3.011   2.738 -0.1997  0.2202  0.5885
23557SOL     OW73947   9.344   6.583   5.469  0.2846  0.3651 -0.3542
23557SOL    HW173948   9.309   6.510   5.520 -1.2965  0.8209 -0.7334
23557SOL    HW273949   9.391   6.542   5.397 -0.2307 -0.2718 -0.3342
23558SOL     OW73950   8.478   4.616   8.268 -0.4986  0.0074  0.5129
23558SOL    HW173951   8.567   4.594   8.295 -0.2463 -0.4360 -0.6555
23558SOL    HW273952   8.452   4.545   8.210 -1.5962  0.1739  0.7728
23559SOL     OW73953   1.661   6.435   3.679  0.3365  0.2830 -0.0848
23559SOL    HW173954   1.633   6.403   3.765 -0.4824  0.1403 -0.3919
23559SOL    HW273955   1.616   6.378   3.617  1.3223  0.0586 -0.6133
23560SOL     OW73956   0.044   0.270   3.430  0.0073  0.6077 -0.3766
23560SOL    HW173957   0.117   0.311   3.477  0.3542 -0.0254 -0.3567
23560SOL    HW273958   0.054   0.300   3.340 -1.5048  3.0220  0.1674
23561SOL     OW73959   3.776   5.440   2.029  0.2745 -0.1216  0.1106
23561SOL    HW173960   3.772   5.484   1.944  1.1602  0.8542  0.5504
23561SOL    HW273961   3.855   5.475   2.070 -0.7093  0.2292  1.7789
23562SOL     OW73962   8.817   3.452   8.100  0.3840  0.3548 -0.1992
23562SOL    HW173963   8.761   3.482   8.029  0.8090 -1.0387 -1.1640
23562SOL    HW273964   8.771   3.377   8.138  0.3722  0.8126  0.7152
23563SOL     OW73965   9.739   5.055   0.567  0.5526  0.8586  0.6381
23563SOL    HW173966   9.647   5.067   0.589  0.1997  0.1032 -0.3382
23563SOL    HW273967   9.786   5.119   0.621 -0.6777  2.4152 -0.0742
23564SOL     OW73968   7.560   6.388   7.355  0.5237 -0.2058  0.5212
23564SOL    HW173969   7.628   6.398   7.289 -0.2061  2.5475  0.0498
23564SOL    HW273970   7.594   6.432   7.432 -0.4477  0.7212  0.4532
23565SOL     OW73971   3.265   3.602   6.655  0.3341 -0.5184 -0.2760
23565SOL    HW173972   3.218   3.686   6.651  0.9855 -0.1617 -0.7470
23565SOL    HW273973   3.352   3.626   6.686  0.5176 -1.0274 -0.3980
23566SOL     OW73974   2.242   3.854   9.218 -0.6314 -0.0638 -0.4284
23566SOL    HW173975   2.254   3.909   9.140 -2.2780 -0.9707 -1.3733
23566SOL    HW273976   2.270   3.767   9.190  0.3428 -0.0708  0.5344
23567SOL     OW73977   6.141  10.218   6.622 -0.6490  0.0459  0.3152
23567SOL    HW173978   6.193  10.181   6.693 -0.1428  1.7626  0.8705
23567SOL    HW273979   6.186  10.299   6.598 -1.0060 -0.2977 -1.7376
23568SOL     OW73980   8.843   4.096   6.236  0.0715  0.4407 -0.2974
23568SOL    HW173981   8.856   4.190   6.231  0.6180  0.4174  0.4069
23568SOL    HW273982   8.898   4.069   6.310 -0.0191 -0.4369 -0.5430
23569SOL     OW73983   7.955   3.991   5.948 -0.0772 -0.5147 -0.4444
23569SOL    HW173984   7.872   4.006   5.902 -0.7973  1.8318  1.3744
23569SOL    HW273985   7.939   4.023   6.037  3.1741  1.4281 -0.3787
23570SOL     OW73986   6.435   6.758   2.658 -0.3527  0.5958  0.0171
23570SOL    HW173987   6.379   6.816   2.710  0.0897  0.4083  0.7071
23570SOL    HW273988   6.408   6.670   2.684 -1.1315  0.4658 -1.1417
23571SOL     OW73989  10.287   3.880   9.594 -0.1196  0.1228 -0.1360
23571SOL    HW173990  10.310   3.810   9.533  1.1750 -1.4497  2.0442
23571SOL    HW273991  10.359   3.883   9.657 -2.0101  0.6976  2.1653
23572SOL     OW73992   8.640   1.670   3.189  0.2643  0.6044 -0.0331
23572SOL    HW173993   8.610   1.686   3.279  0.8612  1.5784  0.0075
23572SOL    HW273994   8.626   1.576   3.176 -1.6450  0.7926  0.3869
23573SOL     OW73995   6.463   8.914   9.394 -0.0252  0.1492  0.5257
23573SOL    HW173996   6.426   8.838   9.438  1.3878 -1.1737 -0.4599
23573SOL    HW273997   6.404   8.930   9.320 -0.4942  0.2035  0.9106
23574SOL     OW73998   3.128   2.701   8.140  0.0509 -0.2827  0.4247
23574SOL    HW173999   3.042   2.661   8.150 -0.3748  0.3222 -0.6047
23574SOL    HW274000   3.127   2.776   8.199 -0.5091  0.2998 -0.3098
23575SOL     OW74001   6.926   3.102   7.198  0.0206 -0.2662  0.2153
23575SOL    HW174002   6.892   3.014   7.211 -2.6613  0.2644 -2.1388
23575SOL    HW274003   6.983   3.095   7.122  2.2413 -0.4016  1.7884
23576SOL     OW74004   3.885   9.309   3.652 -0.2435 -0.7223  0.2802
23576SOL    HW174005   3.847   9.340   3.735 -1.5163 -2.2524  0.3190
23576SOL    HW274006   3.967   9.267   3.678  1.2416  1.9249  0.2885
23577SOL     OW74007   1.425   5.237  10.404  0.3045  0.0567  0.0574
23577SOL    HW174008   1.404   5.233  10.498  0.3013  1.7470  0.1429
23577SOL    HW274009   1.363   5.176  10.364  0.9241 -1.4351  1.2278
23578SOL     OW74010   5.044   2.506   6.453 -0.2905  0.1840  0.3236
23578SOL    HW174011   4.996   2.569   6.507 -1.4191 -0.5279  0.1937
23578SOL    HW274012   5.088   2.449   6.516 -0.1774  0.4169  0.4586
23579SOL     OW74013  11.276  10.121   9.935 -0.2504 -0.4310 -0.2916
23579SOL    HW174014  11.242  10.189   9.994  0.7171  1.0558 -1.3488
23579SOL    HW274015  11.371  10.135   9.936 -0.1613 -0.8157 -1.6473
23580SOL     OW74016   0.052   0.103  10.746  0.2048 -0.1835 -0.1126
23580SOL    HW174017   0.129   0.082  10.798  0.0896  0.0585  0.1568
23580SOL    HW274018   0.012   0.018  10.728  0.6008 -0.3216 -0.3610
23581SOL     OW74019   6.903   6.970   5.984 -0.8708 -0.1306  0.0778
23581SOL    HW174020   6.897   6.986   6.078  0.9882 -0.3844  0.2799
23581SOL    HW274021   6.929   7.055   5.948 -0.3038 -0.3467 -0.0310
23582SOL     OW74022  10.814   1.217   3.545 -0.2157 -0.4328  0.3263
23582SOL    HW174023  10.855   1.218   3.631 -0.2853 -0.9075  0.3657
23582SOL    HW274024  10.883   1.245   3.485 -0.3889  0.6797  0.6271
23583SOL     OW74025   0.453   1.525   4.028 -0.5252  0.5304  0.7269
23583SOL    HW174026   0.417   1.449   3.982 -3.2272  2.4127 -0.6170
23583SOL    HW274027   0.404   1.529   4.110 -0.8426  1.1202  0.5177
23584SOL     OW74028   5.451   3.479   9.918 -0.7540  0.1461 -0.1147
23584SOL    HW174029   5.415   3.450  10.002 -4.5363  1.3562 -1.1013
23584SOL    HW274030   5.523   3.538   9.940  0.5515 -2.0910  2.0958
23585SOL     OW74031  10.484   7.875   9.291 -0.1775 -0.4078  0.1541
23585SOL    HW174032  10.534   7.811   9.341  1.3830  0.1438 -0.6336
23585SOL    HW274033  10.514   7.864   9.201 -0.0859  1.2024 -0.0418
23586SOL     OW74034  11.065   4.309  10.028  0.4686  0.1796  0.2260
23586SOL    HW174035  11.080   4.403  10.015  1.4107  0.0745  0.5084
23586SOL    HW274036  11.113   4.287  10.108  1.8864 -0.9191 -0.8623
23587SOL     OW74037  10.942   4.694   9.934  0.3494 -0.3836  0.3826
23587SOL    HW174038  10.993   4.631   9.884  0.7948 -0.1345  0.5119
23587SOL    HW274039  10.899   4.642  10.002  1.1853 -0.4753  0.8555
23588SOL     OW74040   1.195   6.167  10.488  0.3314  1.0043 -0.0665
23588SOL    HW174041   1.109   6.187  10.525 -0.4278 -0.6548 -0.8491
23588SOL    HW274042   1.231   6.099  10.546 -0.2939 -0.6334 -1.4979
23589SOL     OW74043   0.503   7.205   1.576 -0.3339  0.4975 -0.2916
23589SOL    HW174044   0.596   7.194   1.558 -0.3184 -0.6384  0.3894
23589SOL    HW274045   0.501   7.271   1.646 -0.1225  1.2986 -1.0178
23590SOL     OW74046   3.059   4.302   2.233  0.0509  0.3046 -0.3058
23590SOL    HW174047   3.124   4.249   2.187 -0.5256 -0.6481 -0.0355
23590SOL    HW274048   3.045   4.257   2.316 -1.4749  0.0883 -0.6517
23591SOL     OW74049   9.400   4.021   0.143  0.3789 -0.1833  0.4595
23591SOL    HW174050   9.412   3.962   0.217  0.5956  2.3915  2.6436
23591SOL    HW274051   9.471   4.085   0.151 -0.8389  1.4117 -0.6702
23592SOL     OW74052   3.023   9.663   8.257  0.3099 -0.1679 -0.2849
23592SOL    HW174053   3.083   9.593   8.279 -1.4004 -1.0141  2.1741
23592SOL    HW274054   3.021   9.719   8.335 -0.8703  0.7272 -0.9167
23593SOL     OW74055   7.097   2.228   8.692 -0.0160 -0.7226 -0.0364
23593SOL    HW174056   7.116   2.321   8.684  0.6015 -0.9861 -2.1631
23593SOL    HW274057   7.004   2.224   8.714 -0.1257  0.3867 -0.2592
23594SOL     OW74058   4.695   8.299   6.078 -0.0963 -0.0173 -0.5101
23594SOL    HW174059   4.759   8.227   6.074  1.1105  1.0516 -0.9413
23594SOL    HW274060   4.688   8.318   6.171  1.7065  1.1064 -0.5503
23595SOL     OW74061  10.531   6.746   8.686  0.2072 -0.0692 -0.1218
23595SOL    HW174062  10.592   6.701   8.628  1.6182 -0.0381  1.2691
23595SOL    HW274063  10.579   6.757   8.768 -0.4364  3.0221 -0.0426
23596SOL     OW74064  10.310   4.135   2.099 -0.0876  0.4292 -0.2372
23596SOL    HW174065  10.236   4.196   2.092 -1.0279 -0.6688 -0.2452
23596SOL    HW274066  10.313   4.092   2.014  1.3134  1.2640 -0.6321
23597SOL     OW74067   6.004  10.566   8.678  0.0420  0.0694  0.1913
23597SOL    HW174068   6.040  10.574   8.589 -1.2542  1.4032 -0.2572
23597SOL    HW274069   5.918  10.526   8.666  0.6037 -1.4772  1.0731
23598SOL     OW74070   4.273   0.461   9.275  0.2399  0.4331  0.5150
23598SOL    HW174071   4.223   0.418   9.345 -0.9276 -0.4475 -0.8138
23598SOL    HW274072   4.250   0.554   9.284  0.4852  0.4089  1.5845
23599SOL     OW74073   7.940   7.115   8.528 -0.6368 -0.0161  1.1593
23599SOL    HW174074   7.868   7.080   8.581 -2.4445 -2.1908 -2.3545
23599SOL    HW274075   7.984   7.038   8.493  0.1607  1.2587 -0.7826
23600SOL     OW74076   1.821  11.217   9.496 -0.2092  0.4536 -0.4324
23600SOL    HW174077   1.845  11.189   9.585 -0.0208  0.1453 -0.5783
23600SOL    HW274078   1.860  11.304   9.488  0.9013 -0.0414 -0.6652
23601SOL     OW74079   4.361   4.403   1.583  0.1102  0.2955 -0.2458
23601SOL    HW174080   4.273   4.443   1.583 -0.2086 -0.3884 -0.1973
23601SOL    HW274081   4.380   4.387   1.675  0.5656  1.0394 -0.2112
23602SOL     OW74082   4.370   6.737   3.522 -0.2435  0.0026  0.3153
23602SOL    HW174083   4.310   6.753   3.595 -0.2684 -1.2982  0.6160
23602SOL    HW274084   4.353   6.646   3.497 -0.7903  0.6477 -1.8517
23603SOL     OW74085   4.757   4.817  11.324 -0.2600  0.1634 -0.0890
23603SOL    HW174086   4.761   4.747  11.389 -0.7206 -0.3671 -0.6341
23603SOL    HW274087   4.730   4.894  11.375  0.3035 -0.0260  0.5194
23604SOL     OW74088   1.843   3.495   3.958 -0.3628  0.1330 -0.2686
23604SOL    HW174089   1.882   3.419   4.002 -1.1098 -0.6268 -0.8812
23604SOL    HW274090   1.767   3.517   4.011 -1.0355 -0.5330 -0.9468
23605SOL     OW74091   6.873  11.222  11.367  0.4332 -0.1104 -0.1565
23605SOL    HW174092   6.836  11.256  11.285  0.5516  1.8568  0.5359
23605SOL    HW274093   6.855  11.128  11.364  0.3411 -0.0867 -2.3743
23606SOL     OW74094   1.077  10.765   7.279 -0.4455 -0.0363  0.4929
23606SOL    HW174095   1.096  10.744   7.370  1.0297  0.3835  0.3183
23606SOL    HW274096   0.982  10.757   7.271 -0.6928  0.6838  2.2651
23607SOL     OW74097  11.197   9.135   6.924  0.5629 -0.0632  0.1065
23607SOL    HW174098  11.268   9.075   6.950 -0.0791 -0.3796  1.2331
23607SOL    HW274099  11.225   9.171   6.840  2.5727  0.6390  1.0071
23608SOL     OW74100   1.477   7.755   2.222 -0.6527 -0.0617 -0.6298
23608SOL    HW174101   1.509   7.675   2.264 -1.6970 -1.0990 -1.6996
23608SOL    HW274102   1.535   7.824   2.253  1.4134 -1.5190 -1.0500
23609SOL     OW74103   5.195   1.908   4.300 -0.0971  0.0082 -0.1248
23609SOL    HW174104   5.211   1.941   4.388 -1.5613  1.1407 -0.2336
23609SOL    HW274105   5.222   1.979   4.242  3.6483 -1.7864 -0.8467
23610SOL     OW74106   8.841   2.061   3.645  0.1430 -0.3922 -0.1751
23610SOL    HW174107   8.870   2.043   3.734 -0.2505  0.5852  0.1621
23610SOL    HW274108   8.856   2.154   3.633 -1.5970 -0.1085 -0.4345
23611SOL     OW74109   8.277   8.949   0.894  0.1703 -0.3661 -0.2724
23611SOL    HW174110   8.295   8.890   0.968  1.8374  1.8933  1.2750
23611SOL    HW274111   8.184   8.938   0.877 -0.5113 -0.3580  2.8125
23612SOL     OW74112   4.180   2.719   9.704 -0.1104  0.5589 -0.4274
23612SOL    HW174113   4.119   2.668   9.757 -2.1275  1.4779 -1.6995
23612SOL    HW274114   4.196   2.798   9.756  0.3520  0.1364  0.0884
23613SOL     OW74115   9.087   9.256   3.550 -0.4092 -0.1203  0.1655
23613SOL    HW174116   9.063   9.178   3.599  0.1501 -0.5105 -0.1757
23613SOL    HW274117   9.176   9.276   3.579 -1.0237  1.1893  1.2608
23614SOL     OW74118   8.889   2.194   8.913 -0.2016 -0.6782 -0.2409
23614SOL    HW174119   8.856   2.274   8.954 -3.2636 -0.8230 -2.1157
23614SOL    HW274120   8.981   2.213   8.894 -0.1626  1.3814  1.6416
23615SOL     OW74121   8.650   8.553   4.676 -0.4097 -0.0197  0.0685
23615SOL    HW174122   8.560   8.533   4.651 -0.9730  0.4106  1.6492
23615SOL    HW274123   8.657   8.526   4.768  1.1442 -0.2493 -0.0770
23616SOL     OW74124   3.552   2.318   8.087 -0.0525 -0.1430 -0.1688
23616SOL    HW174125   3.621   2.320   8.021  0.1952  0.0134  0.0924
23616SOL    HW274126   3.479   2.364   8.047 -0.8877 -2.4007 -1.4070
23617SOL     OW74127   8.836   9.687   5.549 -0.1324  0.2181  0.0299
23617SOL    HW174128   8.862   9.700   5.640  0.7953 -1.6093  0.0676
23617SOL    HW274129   8.764   9.624   5.553  0.5513 -0.6188 -0.5369
23618SOL     OW74130   5.332   1.956   5.373 -0.3194  0.6591  0.2101
23618SOL    HW174131   5.409   1.929   5.423 -0.5487 -0.3411  0.0373
23618SOL    HW274132   5.305   1.878   5.325 -0.9324  1.2303 -0.4072
23619SOL     OW74133  10.680   6.497   2.340 -0.4926 -0.4858 -0.0912
23619SOL    HW174134  10.696   6.582   2.379  0.3390 -0.9497  0.6105
23619SOL    HW274135  10.734   6.496   2.261 -3.1803  0.9707 -2.1173
23620SOL     OW74136   6.096  10.889   3.645 -0.1009 -0.1972 -0.3051
23620SOL    HW174137   6.164  10.859   3.584 -0.0099  0.5950 -0.6085
23620SOL    HW274138   6.143  10.941   3.710 -0.4112  0.4240 -0.5618
23621SOL     OW74139   9.050   4.156   7.300 -0.1585 -0.7164 -0.0502
23621SOL    HW174140   9.137   4.183   7.269 -0.3601  1.4289  1.0570
23621SOL    HW274141   9.028   4.081   7.245  0.9047  0.8045 -2.7840
23622SOL     OW74142   4.998   8.044  10.187 -0.0514  0.3014 -0.7773
23622SOL    HW174143   5.067   8.024  10.124  1.1759  0.7365  0.3891
23622SOL    HW274144   5.004   8.139  10.200  1.5610 -0.0681  1.9787
23623SOL     OW74145   2.441   0.950  10.819 -0.0585  0.3077  0.0841
23623SOL    HW174146   2.535   0.931  10.811 -0.4756 -1.0724 -3.2396
23623SOL    HW274147   2.405   0.877  10.869  0.4945  0.3821  0.6022
23624SOL     OW74148   5.140   7.903   2.645 -0.3243 -0.2378  0.1354
23624SOL    HW174149   5.112   7.994   2.640 -0.4580 -0.2978 -0.2276
23624SOL    HW274150   5.115   7.865   2.561 -1.7514 -1.0390  0.8968
23625SOL     OW74151   8.555   8.898   6.970  1.0045 -0.3169 -0.6328
23625SOL    HW174152   8.537   8.909   6.876  2.0707 -0.1335 -0.8298
23625SOL    HW274153   8.613   8.822   6.974  0.1886 -0.9149 -0.0230
23626SOL     OW74154   1.134   5.537   6.929 -0.3343 -1.2064  0.2215
23626SOL    HW174155   1.061   5.485   6.897 -2.3204  0.7483  1.3031
23626SOL    HW274156   1.093   5.615   6.967  2.3527  0.1828  0.4976
23627SOL     OW74157   7.816   8.971  10.493 -0.2864  0.0107 -0.1225
23627SOL    HW174158   7.845   9.054  10.532 -0.0173  0.4566 -1.2219
23627SOL    HW274159   7.720   8.975  10.497 -0.2685 -0.3290  1.2127
23628SOL     OW74160  11.054  10.078   2.140 -0.2315  0.1091 -0.6146
23628SOL    HW174161  11.059  10.081   2.235 -0.3082  0.9842 -0.6312
23628SOL    HW274162  11.126  10.021   2.114 -0.5004 -0.5153 -0.0170
23629SOL     OW74163  10.713   7.616   3.441 -0.5490  0.3286  0.4883
23629SOL    HW174164  10.697   7.597   3.533  1.8424  2.2438  1.4315
23629SOL    HW274165  10.661   7.694   3.423 -0.2778  0.5220  0.5280
23630SOL     OW74166   6.202   8.592   7.590 -0.1418 -0.2694 -0.4393
23630SOL    HW174167   6.114   8.574   7.625 -0.1014 -1.2855 -0.8381
23630SOL    HW274168   6.200   8.556   7.501  0.7198 -0.4100 -0.4050
23631SOL     OW74169  10.407   1.338   0.502  0.3293  0.1591  0.0113
23631SOL    HW174170  10.389   1.293   0.585  1.5646  0.4634  0.4777
23631SOL    HW274171  10.355   1.292   0.437  0.7038 -1.2479  0.6674
23632SOL     OW74172   4.402   9.426   3.892 -0.0696  0.0866 -0.1879
23632SOL    HW174173   4.422   9.352   3.950  1.4551 -0.5779 -1.4914
23632SOL    HW274174   4.383   9.499   3.952  2.7679 -0.2093  1.2185
23633SOL     OW74175   5.552  11.285   4.082 -0.0600 -0.1531  0.1805
23633SOL    HW174176   5.527  11.204   4.038  0.6382  0.2119 -0.9329
23633SOL    HW274177   5.484  11.299   4.148  0.6589 -2.4953  1.5539
23634SOL     OW74178   9.397   7.919  10.519 -0.1422 -0.2461 -0.0754
23634SOL    HW174179   9.334   7.904  10.589  0.8523  2.0924  1.4117
23634SOL    HW274180   9.481   7.892  10.557  0.3023  0.3356 -0.6322
23635SOL     OW74181   1.498   5.379   5.784 -0.6288  0.0663 -0.0632
23635SOL    HW174182   1.511   5.316   5.713 -1.4800 -0.7861  0.5012
23635SOL    HW274183   1.583   5.420   5.795  0.1007 -1.3441 -0.1370
23636SOL     OW74184   2.009   2.143   5.462 -0.3102 -0.4075  0.0981
23636SOL    HW174185   1.914   2.133   5.462 -0.5123  1.2538 -0.7157
23636SOL    HW274186   2.040   2.071   5.516 -1.8638 -2.4814 -1.5669
23637SOL     OW74187   0.599   5.328   6.662  0.5795 -0.0908 -0.5329
23637SOL    HW174188   0.639   5.371   6.586 -0.5254  0.3968 -0.8667
23637SOL    HW274189   0.672   5.313   6.722  1.0522  2.1845 -0.4479
23638SOL     OW74190   8.228  10.342   3.284  0.0121  0.5652  0.5320
23638SOL    HW174191   8.220  10.325   3.378 -0.3444 -0.2043  0.3713
23638SOL    HW274192   8.195  10.431   3.273 -1.5255  0.0768  0.9130
23639SOL     OW74193   4.207   9.070   0.318 -0.3085  0.0635 -0.0775
23639SOL    HW174194   4.248   9.100   0.398 -3.5286  2.5054  0.8624
23639SOL    HW274195   4.258   9.111   0.248  0.1701  1.2141  0.9110
23640SOL     OW74196  10.903   2.172   3.641  0.1469 -0.0814 -0.2267
23640SOL    HW174197  10.908   2.232   3.715 -0.6388  0.1728 -0.3640
23640SOL    HW274198  10.980   2.116   3.649 -0.2360 -0.4433  1.1146
23641SOL     OW74199  10.861   5.252   2.786  0.1561  0.1472 -0.8955
23641SOL    HW174200  10.920   5.177   2.799 -1.4035 -1.2808 -1.6091
23641SOL    HW274201  10.773   5.216   2.801 -0.6054  2.0398 -0.5071
23642SOL     OW74202   2.349   3.262   2.098  0.1427 -0.6232  0.3569
23642SOL    HW174203   2.425   3.227   2.145  0.4855  1.3232  1.3423
23642SOL    HW274204   2.279   3.262   2.163 -0.1550 -0.5227  0.0395
23643SOL     OW74205   2.611   9.841   8.007  0.5587 -0.2804  0.3501
23643SOL    HW174206   2.596   9.754   7.969  1.8606  0.1962 -1.3387
23643SOL    HW274207   2.702   9.861   7.987  0.2678  1.5098  0.6554
23644SOL     OW74208   0.733   3.507   3.061 -0.0457  0.4378  0.0084
23644SOL    HW174209   0.735   3.553   3.144  0.8933  0.3625  0.0359
23644SOL    HW274210   0.682   3.564   3.003 -0.9392  0.3611  0.6965
23645SOL     OW74211   4.450   5.405   5.271 -0.3180  0.1588  0.7692
23645SOL    HW174212   4.453   5.483   5.217  0.1010  1.2133  2.2680
23645SOL    HW274213   4.406   5.432   5.352  0.2975 -1.0110  1.5354
23646SOL     OW74214   7.880   1.358   2.870  0.0879 -0.5959  0.8275
23646SOL    HW174215   7.788   1.360   2.896 -0.3637  0.7423 -0.7120
23646SOL    HW274216   7.880   1.324   2.781  0.7339  2.0167 -0.2642
23647SOL     OW74217   8.956   3.196   4.237  0.6131 -0.8365 -0.4338
23647SOL    HW174218   8.945   3.190   4.142  2.8466 -0.0754 -0.7928
23647SOL    HW274219   8.870   3.225   4.269  0.1084 -0.0735 -2.3264
23648SOL     OW74220   0.395   6.217   1.001 -0.1196  0.2070 -0.2410
23648SOL    HW174221   0.351   6.276   1.062  0.3625 -1.0710  1.4269
23648SOL    HW274222   0.474   6.264   0.975 -1.0607  1.3711 -1.0735
23649SOL     OW74223   3.147   5.769   4.320 -0.4235 -0.2127  0.2014
23649SOL    HW174224   3.067   5.726   4.350 -0.1872 -0.8456 -0.0704
23649SOL    HW274225   3.188   5.707   4.260  0.1558  0.2012  0.1522
23650SOL     OW74226  10.407   2.492   3.721  0.2560 -0.3060  0.0725
23650SOL    HW174227  10.337   2.551   3.693 -0.5024 -0.4871  1.5064
23650SOL    HW274228  10.390   2.475   3.813  1.2959 -1.6230  0.0683
23651SOL     OW74229   0.794   3.337  10.371  0.0617 -0.1497  0.0177
23651SOL    HW174230   0.831   3.425  10.383 -1.3518  0.3391  1.0412
23651SOL    HW274231   0.852   3.280  10.422 -0.8975  0.6997  2.1798
23652SOL     OW74232   4.596  10.774   7.095 -0.7699 -0.4780 -0.2571
23652SOL    HW174233   4.525  10.726   7.054 -1.3696 -1.0430  1.3492
23652SOL    HW274234   4.561  10.862   7.109 -1.0447 -0.6637  0.2391
23653SOL     OW74235   5.622   4.925   0.033  0.5362 -0.2865  0.1492
23653SOL    HW174236   5.626   4.834   0.004 -0.7840 -0.2206 -0.3076
23653SOL    HW274237   5.572   4.922   0.114  1.1637 -0.0467  0.5525
23654SOL     OW74238   3.856   5.389   0.324 -0.1818  0.2130 -0.0756
23654SOL    HW174239   3.809   5.332   0.263  2.8705 -2.3472 -0.2805
23654SOL    HW274240   3.901   5.452   0.267  2.0905 -1.7367 -0.6512
23655SOL     OW74241  10.361   8.576   6.988 -0.2928 -0.4895  0.6463
23655SOL    HW174242  10.339   8.484   6.970  0.8970 -0.6177 -0.2800
23655SOL    HW274243  10.294   8.605   7.051 -1.0031 -1.8249  0.5410
23656SOL     OW74244   6.752   8.563  11.045  0.2401 -0.0842 -0.2972
23656SOL    HW174245   6.768   8.657  11.033 -1.8552  0.4667  0.7801
23656SOL    HW274246   6.834   8.529  11.081  0.6198  1.5873  0.5193
23657SOL     OW74247   3.953   6.413   3.236  0.3910  0.4071  0.1140
23657SOL    HW174248   4.045   6.424   3.213  0.4767  2.2836  1.1157
23657SOL    HW274249   3.919   6.503   3.241 -1.2023 -0.2016  0.8621
23658SOL     OW74250  10.627   1.991  10.296  0.7156  0.2146  0.1497
23658SOL    HW174251  10.590   1.957  10.214  0.5995 -0.2038  0.3775
23658SOL    HW274252  10.711   1.947  10.305  0.7642  0.3206  0.2204
23659SOL     OW74253   5.299   1.557   2.581 -0.2787  0.7608  0.3538
23659SOL    HW174254   5.214   1.569   2.624  0.0973  2.0790  0.7901
23659SOL    HW274255   5.293   1.472   2.538 -1.7594  0.7687  0.5104
23660SOL     OW74256   2.812   2.012   4.320  0.0171  0.1913 -0.3677
23660SOL    HW174257   2.818   1.980   4.230  0.0363 -0.6325 -0.0764
23660SOL    HW274258   2.888   1.975   4.364 -0.0217  0.5496  0.0038
23661SOL     OW74259   2.037   7.173   6.092  0.7743  0.2839 -0.6868
23661SOL    HW174260   2.011   7.140   6.006  0.0469  0.2626 -0.4604
23661SOL    HW274261   1.963   7.155   6.149  2.2634 -2.2203  0.6281
23662SOL     OW74262   2.643   4.910   4.573  0.6218  0.0379  0.2447
23662SOL    HW174263   2.595   4.986   4.607  0.0088 -0.9530  1.7024
23662SOL    HW274264   2.577   4.841   4.566  1.1997 -0.4347 -0.9056
23663SOL     OW74265   4.117   5.218   8.214  0.2574  0.2648  0.3057
23663SOL    HW174266   4.132   5.194   8.305  0.5079 -0.5554  0.0626
23663SOL    HW274267   4.200   5.257   8.185  0.2871  0.2254  0.3387
23664SOL     OW74268   2.987   9.337   1.502  0.1300 -0.3479  0.5148
23664SOL    HW174269   2.966   9.288   1.581  1.1199 -0.9640  0.4095
23664SOL    HW274270   3.005   9.269   1.436 -1.9051  0.1177 -0.6157
23665SOL     OW74271   5.277   1.673   1.460  0.1768 -0.8597  0.8601
23665SOL    HW174272   5.203   1.635   1.412 -0.0586 -0.5629  0.9853
23665SOL    HW274273   5.347   1.608   1.451  0.4647 -0.3799 -0.7213
23666SOL     OW74274   9.640   6.181   0.281  0.3250 -0.0938 -0.6736
23666SOL    HW174275   9.649   6.251   0.216 -0.6447  1.2412  0.5755
23666SOL    HW274276   9.694   6.110   0.246  0.8848  1.0467 -2.2795
23667SOL     OW74277   4.542   6.953   5.131  0.2022  0.0699  0.0077
23667SOL    HW174278   4.452   6.921   5.138  0.4875 -0.7265  0.1440
23667SOL    HW274279   4.559   6.957   5.037 -0.6099  2.1056 -0.1079
23668SOL     OW74280   2.555   0.028   0.235  0.6444  0.1019  0.2558
23668SOL    HW174281   2.480   0.068   0.280  1.3479  0.5540  1.0443
23668SOL    HW274282   2.598   0.100   0.189  1.2984  0.0675  0.8019
23669SOL     OW74283   5.215   2.125   2.476 -0.2537 -0.8777 -0.7088
23669SOL    HW174284   5.205   2.057   2.409 -0.7419 -0.5141 -1.0069
23669SOL    HW274285   5.183   2.205   2.435 -0.6279 -0.6619 -0.0141
23670SOL     OW74286   4.419   6.606   8.527  0.0092  0.2448 -0.6210
23670SOL    HW174287   4.325   6.602   8.511  0.2357  1.3914 -2.6175
23670SOL    HW274288   4.457   6.544   8.465  0.6248  0.5675 -0.5768
23671SOL     OW74289   2.032   5.398   1.299  0.5216 -0.0900 -0.3792
23671SOL    HW174290   2.061   5.406   1.390  2.3935 -3.3967 -0.5199
23671SOL    HW274291   1.939   5.418   1.302  1.0546  2.7163  1.6720
23672SOL     OW74292   1.013   2.871  10.856  0.1488 -0.2656  0.2230
23672SOL    HW174293   1.006   2.904  10.767 -0.2664  0.3769  0.4868
23672SOL    HW274294   1.008   2.776  10.847 -0.6232 -0.1772 -0.3752
23673SOL     OW74295   9.319   4.284   8.898  0.3590  0.4654  0.1858
23673SOL    HW174296   9.231   4.249   8.890  1.0062 -0.9052 -1.5047
23673SOL    HW274297   9.309   4.378   8.882 -0.7755  0.3077 -0.0688
23674SOL     OW74298   5.248   5.149   6.745  0.1754 -0.1626  0.1679
23674SOL    HW174299   5.209   5.063   6.765 -0.3862 -0.0269 -0.3156
23674SOL    HW274300   5.192   5.211   6.792 -0.9346  0.1317 -1.4745
23675SOL     OW74301   4.997   1.542   5.067  0.3417  0.5875 -0.0954
23675SOL    HW174302   5.033   1.596   4.997 -1.3201  0.4597 -1.0958
23675SOL    HW274303   4.907   1.523   5.040  0.7616 -2.5268  0.2889
23676SOL     OW74304   0.551   3.394   6.234 -0.1466 -0.0514  0.5095
23676SOL    HW174305   0.484   3.331   6.262  0.0067 -0.8095 -0.7571
23676SOL    HW274306   0.510   3.480   6.247 -1.3077 -0.4944 -0.0590
23677SOL     OW74307  10.156  10.292   5.873 -0.4731  0.0302 -0.4007
23677SOL    HW174308  10.237  10.241   5.873 -0.8654 -0.6111 -0.7559
23677SOL    HW274309  10.114  10.271   5.789 -2.2945 -1.7386  0.8480
23678SOL     OW74310   5.719   7.699   9.530  0.1286  0.6032 -0.0283
23678SOL    HW174311   5.637   7.738   9.500 -0.3458 -0.7347 -0.5525
23678SOL    HW274312   5.704   7.682   9.623 -0.3363  0.0270 -0.2019
23679SOL     OW74313   4.341   2.117   0.523  0.0358 -0.3136 -0.1508
23679SOL    HW174314   4.317   2.198   0.567 -0.8255 -1.3473  1.4041
23679SOL    HW274315   4.426   2.094   0.560  1.2252  0.8528 -2.0520
23680SOL     OW74316   5.146   7.838   1.598 -0.1187 -0.6229  0.1855
23680SOL    HW174317   5.165   7.926   1.632 -2.6441  0.4065 -0.7761
23680SOL    HW274318   5.193   7.834   1.515 -0.6413  0.1810 -0.1657
23681SOL     OW74319  11.297   8.976   5.295  0.2374  0.2744  0.1083
23681SOL    HW174320  11.257   8.897   5.331 -1.7326  1.5874  0.9708
23681SOL    HW274321  11.372   8.993   5.353  1.3043 -1.4624 -0.6936
23682SOL     OW74322  10.412   9.638   9.123  0.5098  0.0547  0.4839
23682SOL    HW174323  10.396   9.732   9.130 -0.9655 -0.0984 -0.5154
23682SOL    HW274324  10.435   9.625   9.031  1.2530 -0.5147  0.7364
23683SOL     OW74325   3.726   3.159   6.265 -0.0417 -0.3126  0.5258
23683SOL    HW174326   3.696   3.249   6.251  0.4332 -0.2212  0.0823
23683SOL    HW274327   3.820   3.163   6.250  0.3893 -0.3988  2.7818
23684SOL     OW74328   3.258   0.955   1.147 -0.2379  0.0442 -0.2627
23684SOL    HW174329   3.199   1.013   1.195 -1.4894 -0.1788 -1.4425
23684SOL    HW274330   3.278   0.884   1.209  0.6425  1.2788  0.9064
23685SOL     OW74331   1.334   7.514   4.565 -0.1660 -0.1570 -0.0967
23685SOL    HW174332   1.396   7.500   4.638 -0.0584 -0.9283 -0.3222
23685SOL    HW274333   1.341   7.434   4.513  0.4653  0.7826 -1.4952
23686SOL     OW74334  10.179  11.325   8.211 -0.2293 -1.0489 -0.2582
23686SOL    HW174335  10.154  11.245   8.259 -1.3281 -0.5749 -0.0004
23686SOL    HW274336  10.249  11.363   8.264 -1.1076 -0.7805  0.7570
23687SOL     OW74337   1.207   7.596   3.668 -0.1120 -0.5923 -0.3350
23687SOL    HW174338   1.198   7.617   3.761 -0.1278 -0.2960 -0.4026
23687SOL    HW274339   1.124   7.624   3.629 -0.8592 -2.4381 -0.1299
23688SOL     OW74340   5.392   0.679   0.197 -0.1691 -0.1616 -0.2971
23688SOL    HW174341   5.449   0.610   0.229 -2.2279 -1.7256  0.2143
23688SOL    HW274342   5.334   0.699   0.270  1.8113  3.9395  0.4552
23689SOL     OW74343   8.021   8.660   2.626  0.1707 -0.0390 -0.6369
23689SOL    HW174344   7.972   8.583   2.596  1.7994 -0.7473 -1.6526
23689SOL    HW274345   8.001   8.728   2.561 -1.2087  0.4187  0.2176
23690SOL     OW74346   6.423   9.401   0.255  0.4211  0.5299 -0.1169
23690SOL    HW174347   6.422   9.497   0.258 -0.4621  0.6276 -1.8492
23690SOL    HW274348   6.509   9.376   0.289  0.3394  1.8725  1.1815
23691SOL     OW74349   4.844   1.536   8.940  0.9540 -0.1454 -0.3200
23691SOL    HW174350   4.827   1.457   8.992 -0.6299 -0.3689 -1.0923
23691SOL    HW274351   4.938   1.548   8.943  1.0559 -1.1416  1.1615
23692SOL     OW74352   7.948   8.895  10.786  0.0695  0.3053 -0.3318
23692SOL    HW174353   8.029   8.852  10.756  0.6969  1.9683 -1.1308
23692SOL    HW274354   7.960   8.904  10.881  0.5299 -0.0254 -0.3532
23693SOL     OW74355   4.163  11.029   1.989  0.8715  0.2585 -0.2480
23693SOL    HW174356   4.213  11.105   1.960  1.0890 -0.2788 -1.3135
23693SOL    HW274357   4.163  10.970   1.914  0.9392 -0.9216  0.6550
23694SOL     OW74358   5.094  10.055   1.234 -0.2881 -0.0501 -0.8148
23694SOL    HW174359   5.162  10.069   1.300 -1.9079 -0.8845  1.0955
23694SOL    HW274360   5.066  10.143   1.208 -1.1676  0.3202  1.2700
23695SOL     OW74361  11.161   2.614   5.495  0.0925  0.0872 -0.3892
23695SOL    HW174362  11.250   2.590   5.469  0.6297 -0.0789  1.4394
23695SOL    HW274363  11.157   2.593   5.589 -2.0612 -0.4424 -0.5492
23696SOL     OW74364   9.487   4.998   1.269 -0.2424  0.2250 -0.2910
23696SOL    HW174365   9.531   5.016   1.353 -0.3252 -0.5189 -0.0779
23696SOL    HW274366   9.549   4.943   1.221 -0.2072  0.6273 -0.7109
23697SOL     OW74367   3.928   9.332   6.758 -0.3927 -0.2128 -0.5670
23697SOL    HW174368   3.939   9.420   6.722 -1.2478  0.2636  0.2948
23697SOL    HW274369   3.834   9.323   6.773 -0.2748 -1.1333 -0.2804
23698SOL     OW74370  11.265   9.199  10.967 -0.1318 -0.4712  0.2502
23698SOL    HW174371  11.360   9.202  10.956 -0.0994 -0.7079  0.4593
23698SOL    HW274372  11.237   9.291  10.963  0.0583 -0.4292 -0.1972
23699SOL     OW74373   0.043   9.635   4.559 -0.1931 -1.3039  0.1365
23699SOL    HW174374   0.043   9.554   4.610 -0.1081 -0.4587  1.5228
23699SOL    HW274375   0.115   9.686   4.595 -1.6824  0.3525  0.9010
23700SOL     OW74376   8.740   0.828   6.438 -0.2584  0.0861  0.3474
23700SOL    HW174377   8.716   0.920   6.433  0.1090  0.2784  1.8549
23700SOL    HW274378   8.825   0.823   6.394 -0.6588  0.2892 -0.4876
23701SOL     OW74379   4.258   6.917   6.426  0.0170 -0.2370 -0.8641
23701SOL    HW174380   4.178   6.877   6.393  0.1184 -0.7320 -0.5258
23701SOL    HW274381   4.253   7.008   6.398  0.1331 -0.6479 -2.2829
23702SOL     OW74382  10.725   8.748   5.360  0.2630 -0.0273  0.6004
23702SOL    HW174383  10.817   8.776   5.366  0.4481 -0.2722 -0.7611
23702SOL    HW274384  10.699   8.734   5.451  1.3794  0.6656  1.0610
23703SOL     OW74385   1.113   9.317   3.602 -0.4362 -0.3384  0.1517
23703SOL    HW174386   1.058   9.295   3.527  0.3169 -0.8484 -0.2631
23703SOL    HW274387   1.052   9.346   3.669 -1.1669 -0.4222 -0.4659
23704SOL     OW74388  10.716   4.507   0.300 -0.1605  0.6414  0.0710
23704SOL    HW174389  10.751   4.543   0.381  1.1469  1.1664 -0.6877
23704SOL    HW274390  10.622   4.501   0.314  0.0625  0.6153  1.6573
23705SOL     OW74391   6.736   5.114   8.123 -0.1286 -0.0920 -0.2209
23705SOL    HW174392   6.648   5.105   8.085 -0.2880  1.0064 -0.1599
23705SOL    HW274393   6.734   5.058   8.200 -1.3519  1.1347  0.7010
23706SOL     OW74394   7.818   4.556   0.496  0.1677 -0.3547  0.8554
23706SOL    HW174395   7.844   4.595   0.412 -1.1895 -0.5835  0.3058
23706SOL    HW274396   7.782   4.630   0.546  3.1488  0.2906  2.2312
23707SOL     OW74397   4.307   4.223   9.482  0.4416 -0.0486  0.0307
23707SOL    HW174398   4.290   4.270   9.400 -0.6052  1.9950  1.3276
23707SOL    HW274399   4.353   4.143   9.455  0.0944  0.5247 -2.5276
23708SOL     OW74400   1.301   3.597   0.454 -0.1671 -0.1793 -0.3772
23708SOL    HW174401   1.295   3.630   0.364  0.6473 -2.1480 -1.1972
23708SOL    HW274402   1.380   3.543   0.455 -0.6185 -0.8695  1.2977
23709SOL     OW74403   0.415   3.123   4.513  0.2292 -0.1018  0.1069
23709SOL    HW174404   0.369   3.051   4.469 -0.0169 -0.3820  0.8188
23709SOL    HW274405   0.440   3.088   4.598  0.4735  0.5281  0.3035
23710SOL     OW74406   0.111  10.979   5.789 -0.5071 -0.2500 -0.3831
23710SOL    HW174407   0.122  11.072   5.771  0.6779 -0.3817 -0.3938
23710SOL    HW274408   0.047  10.976   5.861 -3.1426  0.3900 -2.5387
23711SOL     OW74409   7.735   9.473  10.867 -0.4035  0.0272 -0.3329
23711SOL    HW174410   7.683   9.501  10.791 -1.2484 -2.9814 -0.9995
23711SOL    HW274411   7.739   9.377  10.859  1.9686 -0.1543  1.8722
23712SOL     OW74412   9.536   4.476   2.376 -0.5074  0.6802  0.4002
23712SOL    HW174413   9.547   4.440   2.465  1.0605 -0.2848 -0.1392
23712SOL    HW274414   9.562   4.568   2.385  0.0536  0.4844  0.8573
23713SOL     OW74415   0.356   5.776   8.816  0.1172 -0.0393 -0.5236
23713SOL    HW174416   0.310   5.856   8.793  0.6180  0.4876  0.2531
23713SOL    HW274417   0.373   5.784   8.910  0.6711 -0.7980 -0.5464
23714SOL     OW74418   7.197   9.546   5.772  0.1654  0.1457 -0.3527
23714SOL    HW174419   7.181   9.639   5.755 -0.8392 -0.0783 -0.7114
23714SOL    HW274420   7.111   9.505   5.759  0.4648 -0.7410  0.4203
23715SOL     OW74421   3.498  10.342   3.640  0.3732  0.0542  0.2130
23715SOL    HW174422   3.438  10.412   3.615  1.3232  0.8768  0.2057
23715SOL    HW274423   3.581  10.366   3.601  0.5139 -1.5415 -0.5346
23716SOL     OW74424   6.744   0.265   5.629 -0.4210 -0.7518  0.6467
23716SOL    HW174425   6.838   0.252   5.636  0.2826  0.8525 -3.1573
23716SOL    HW274426   6.721   0.323   5.701  1.7657 -0.1225  0.8862
23717SOL     OW74427   9.452   2.439   7.057 -0.5533  0.3765 -0.6465
23717SOL    HW174428   9.416   2.374   6.997  0.2008 -0.0796 -0.6346
23717SOL    HW274429   9.423   2.410   7.144 -1.8293  1.1630 -0.7919
23718SOL     OW74430  10.216   2.139   6.612 -0.7055 -0.5717  0.2575
23718SOL    HW174431  10.130   2.117   6.576 -0.4965 -1.4069  0.2602
23718SOL    HW274432  10.223   2.088   6.692  0.4558 -1.7999 -0.5769
23719SOL     OW74433   5.087   8.574   2.649 -0.3707  0.5375  0.6489
23719SOL    HW174434   5.132   8.617   2.722 -1.0935 -1.2958  2.2743
23719SOL    HW274435   5.147   8.504   2.622 -0.9347 -0.0251  0.8236
23720SOL     OW74436  10.694   3.061   7.748 -0.3154  0.2243  0.0279
23720SOL    HW174437  10.662   3.150   7.767 -0.8790 -0.2761  1.6587
23720SOL    HW274438  10.789   3.071   7.745 -0.3220  0.7808  0.9720
23721SOL     OW74439   9.300   4.539   8.632 -0.3259 -0.2196 -0.6469
23721SOL    HW174440   9.323   4.603   8.564 -3.0194  0.4975 -0.9796
23721SOL    HW274441   9.277   4.592   8.708 -1.9527 -0.7857 -0.7135
23722SOL     OW74442   0.886   9.564   4.873  0.2536  0.5419 -0.0329
23722SOL    HW174443   0.828   9.639   4.882 -0.8496 -0.3783  0.9462
23722SOL    HW274444   0.836   9.501   4.822  0.6691 -0.0010  0.2173
23723SOL     OW74445   0.195   6.391   7.092 -0.0416 -0.5992  0.3474
23723SOL    HW174446   0.257   6.342   7.146 -0.5595 -1.1582  0.4512
23723SOL    HW274447   0.149   6.324   7.041 -1.3021 -0.3014  1.0561
23724SOL     OW74448   8.683   1.250  10.057  0.6682  0.3478  0.1666
23724SOL    HW174449   8.616   1.185  10.077  1.0371 -0.3285 -0.7638
23724SOL    HW274450   8.715   1.226   9.971  2.5815  0.2767  0.8551
23725SOL     OW74451   1.076   1.676   1.902 -0.2686 -0.3129  0.1742
23725SOL    HW174452   1.005   1.733   1.933  0.8332 -0.1444  2.5633
23725SOL    HW274453   1.153   1.704   1.951  1.5068 -0.5696 -2.2723
23726SOL     OW74454  10.220   7.188   6.070  0.1653  0.0620 -0.3706
23726SOL    HW174455  10.287   7.165   6.006  1.5112  1.7953  0.3223
23726SOL    HW274456  10.258   7.261   6.119 -0.4720 -1.6890  2.9783
23727SOL     OW74457   5.386  10.055  10.581  0.8448  0.0695 -0.1036
23727SOL    HW174458   5.336  10.106  10.646  2.9010  1.1262  0.7338
23727SOL    HW274459   5.395  10.115  10.507  0.2400 -0.4108 -0.5779
23728SOL     OW74460   7.693   2.454   6.456 -0.2080  0.4494 -0.3770
23728SOL    HW174461   7.656   2.520   6.398 -2.5767 -1.2518 -0.9859
23728SOL    HW274462   7.636   2.455   6.533  0.1570 -0.3919 -0.0846
23729SOL     OW74463  10.591   2.938   4.339 -0.4618 -0.0401 -0.4683
23729SOL    HW174464  10.655   3.008   4.350 -0.1332 -0.1109 -1.6884
23729SOL    HW274465  10.522   2.977   4.284 -0.4199 -0.5676 -0.9096
23730SOL     OW74466   0.913   0.559  10.782  0.6838  0.1404 -0.3396
23730SOL    HW174467   0.932   0.467  10.761  1.1039 -0.1161  1.0085
23730SOL    HW274468   0.883   0.597  10.700  1.7083 -0.8839 -1.2390
23731SOL     OW74469   3.712   7.295   7.251  0.3958  0.1003 -0.7248
23731SOL    HW174470   3.650   7.366   7.234 -0.7495 -0.5232  0.6831
23731SOL    HW274471   3.769   7.329   7.320  1.0077  0.2939 -1.3111
23732SOL     OW74472   5.003   6.105   8.614  0.4136  0.1525 -0.5128
23732SOL    HW174473   4.908   6.111   8.620  0.2508 -2.0451 -0.1909
23732SOL    HW274474   5.028   6.179   8.559 -1.4965  0.6145 -0.8310
23733SOL     OW74475   5.319   5.481  10.025 -0.1865  0.4304 -0.1792
23733SOL    HW174476   5.261   5.541   9.980 -2.1548 -0.6058  0.8304
23733SOL    HW274477   5.398   5.477   9.971 -1.4529  1.1067 -2.1562
23734SOL     OW74478   7.861   6.371   2.414  0.1223  0.3903 -0.6203
23734SOL    HW174479   7.768   6.359   2.396  0.2154 -0.6708 -0.4621
23734SOL    HW274480   7.864   6.439   2.482 -0.8094 -2.0400  2.0322
23735SOL     OW74481   7.695   0.601   5.076  0.0226  0.0288 -0.2210
23735SOL    HW174482   7.603   0.626   5.078  0.2022  0.6766  0.8188
23735SOL    HW274483   7.696   0.510   5.105 -0.0752  0.8689  2.6946
23736SOL     OW74484  10.702   6.552   3.622 -0.0018 -0.1473  0.4195
23736SOL    HW174485  10.614   6.538   3.659 -0.9963 -0.2762 -1.8329
23736SOL    HW274486  10.749   6.471   3.642  0.3285  0.6552  3.3451
23737SOL     OW74487   7.954   7.969   5.331 -0.3795 -0.7526 -0.7628
23737SOL    HW174488   8.012   8.004   5.398 -1.0627  0.5535 -0.8254
23737SOL    HW274489   8.010   7.912   5.278  0.6221 -0.2155 -0.3017
23738SOL     OW74490   4.959   5.242   6.169  0.0488 -0.5021 -0.0521
23738SOL    HW174491   4.958   5.221   6.263 -0.1113 -0.3894 -0.0284
23738SOL    HW274492   4.881   5.296   6.156 -0.9405 -2.0077 -0.5926
23739SOL     OW74493   6.831   5.032   0.778 -0.3285  0.6299 -0.2167
23739SOL    HW174494   6.881   4.981   0.841  1.0531  1.9933 -0.1493
23739SOL    HW274495   6.779   5.093   0.831 -0.2563  0.8090 -0.3485
23740SOL     OW74496   6.580   6.633  10.398  0.2763 -0.0117  0.0312
23740SOL    HW174497   6.552   6.638  10.490  0.2980 -0.0197  0.0380
23740SOL    HW274498   6.625   6.716  10.383  0.3679 -0.0569  0.0596
23741SOL     OW74499  11.166   6.626  10.734  0.6199  0.1757  0.2803
23741SOL    HW174500  11.250   6.581  10.724 -0.1976 -1.4750  0.4688
23741SOL    HW274501  11.147   6.620  10.827  1.4922  2.9172  0.7372
23742SOL     OW74502   6.963   7.478   8.814  0.3814 -0.1128 -0.1909
23742SOL    HW174503   6.915   7.408   8.769  2.5072 -1.3084 -0.7702
23742SOL    HW274504   7.046   7.484   8.766 -0.1617  3.7185 -0.9330
23743SOL     OW74505   5.632   9.035   6.639  0.3362  0.4957 -0.4280
23743SOL    HW174506   5.657   9.079   6.558  1.3721  0.9920  0.1452
23743SOL    HW274507   5.633   8.942   6.617  0.4346  0.6356 -1.0315
23744SOL     OW74508   6.029   6.949   6.379  0.2785 -0.2634  0.1456
23744SOL    HW174509   6.111   6.906   6.405  0.7245  0.7674  0.5164
23744SOL    HW274510   6.056   7.014   6.314 -0.1713  0.3673  0.5683
23745SOL     OW74511   9.585   3.856   7.597  0.0721  0.2872  0.1886
23745SOL    HW174512   9.550   3.831   7.512  0.3871  2.2267 -0.5626
23745SOL    HW274513   9.679   3.869   7.582  0.0945  0.8475  0.7601
23746SOL     OW74514   0.619   7.392   3.426  0.2798 -0.1470 -0.4900
23746SOL    HW174515   0.634   7.431   3.512 -0.8301 -0.7745  0.0105
23746SOL    HW274516   0.564   7.316   3.443  0.7249 -0.7631 -1.6709
23747SOL     OW74517   5.852  10.661   9.065  0.3008  0.0614 -0.3431
23747SOL    HW174518   5.948  10.662   9.068  0.2770  0.5084  0.7567
23747SOL    HW274519   5.826  10.711   9.142 -0.8237 -0.0682 -0.6329
23748SOL     OW74520   7.553   4.488   0.298 -0.4835 -0.6002  0.4527
23748SOL    HW174521   7.551   4.396   0.325  0.7187 -0.3461  1.5017
23748SOL    HW274522   7.518   4.487   0.209  0.9097 -2.3020 -0.1410
23749SOL     OW74523  10.632   5.208   9.760  0.5122  0.6735  0.0348
23749SOL    HW174524  10.702   5.161   9.715  1.5840  0.1266  2.1634
23749SOL    HW274525  10.600   5.146   9.826  0.4118  2.1244  1.4030
23750SOL     OW74526   7.767   5.596   3.893  0.6842 -0.4736  0.9558
23750SOL    HW174527   7.741   5.558   3.810 -1.5178 -0.6626  1.6849
23750SOL    HW274528   7.788   5.687   3.872  0.5428 -0.6253  0.1437
23751SOL     OW74529  10.654  10.117   4.360 -0.5350  0.4527 -0.2735
23751SOL    HW174530  10.637  10.139   4.268  1.7919 -1.1523 -1.2093
23751SOL    HW274531  10.632  10.024   4.366  2.4036 -0.3514 -0.2189
23752SOL     OW74532   8.966   5.267  11.348  0.1025  0.1446 -0.1807
23752SOL    HW174533   8.888   5.312  11.314 -0.6064 -0.1466  1.0303
23752SOL    HW274534   8.932   5.196  11.402  1.2134  0.1533  0.5551
23753SOL     OW74535   3.928   9.879   2.783 -0.1824 -0.6821 -0.1317
23753SOL    HW174536   3.970   9.799   2.816 -0.3090 -0.5263  0.4284
23753SOL    HW274537   3.834   9.864   2.798 -0.2392 -0.5899 -0.3889
23754SOL     OW74538   2.370   0.967   1.324  0.0412 -0.4532  0.2040
23754SOL    HW174539   2.370   0.915   1.404  0.8138 -0.5381  0.1517
23754SOL    HW274540   2.394   0.905   1.255 -1.7017 -0.6444 -0.2821
23755SOL     OW74541   7.032   9.775   2.257  0.0172 -0.1347 -0.0877
23755SOL    HW174542   6.985   9.692   2.269  0.5249 -0.4289 -0.1107
23755SOL    HW274543   6.965   9.835   2.224 -0.6826 -0.1483  1.2386
23756SOL     OW74544   8.074   7.610   6.101  0.1196  0.6181 -0.5845
23756SOL    HW174545   8.091   7.704   6.092  1.2156  0.7507  2.0846
23756SOL    HW274546   8.037   7.600   6.188  2.0428 -1.6299  0.0976
23757SOL     OW74547   2.051   1.446   5.653  0.3961 -0.2051  0.6671
23757SOL    HW174548   2.059   1.534   5.616  0.1201  0.1474  1.4297
23757SOL    HW274549   2.141   1.423   5.679  0.4704 -0.1506  0.4589
23758SOL     OW74550   1.617   8.507   4.480  0.0283  0.5207  0.2647
23758SOL    HW174551   1.636   8.427   4.431 -0.9406 -0.7106  1.8005
23758SOL    HW274552   1.630   8.578   4.416  0.1215 -0.9011 -1.3690
23759SOL     OW74553   6.996   2.803   8.891  0.5024  0.3058  0.1202
23759SOL    HW174554   7.010   2.812   8.797 -1.4676  0.0845 -0.2302
23759SOL    HW274555   7.009   2.892   8.925  0.4877  0.5423 -0.4703
23760SOL     OW74556   6.810   0.233   0.025 -0.2496 -0.6394 -0.5300
23760SOL    HW174557   6.817   0.138   0.034  0.0674 -0.5960 -0.3040
23760SOL    HW274558   6.873   0.268   0.089 -1.6734 -0.2483  0.7173
23761SOL     OW74559   4.616   0.093   7.167  0.4308 -0.2400 -0.3042
23761SOL    HW174560   4.676   0.164   7.145  0.9549 -0.3410  0.7756
23761SOL    HW274561   4.536   0.138   7.194 -0.0785 -0.1077 -1.9045
23762SOL     OW74562   3.176  11.189   7.159  0.2142  0.6156 -0.5198
23762SOL    HW174563   3.235  11.263   7.153 -2.6244  3.1696  0.4621
23762SOL    HW274564   3.114  11.202   7.086 -1.1785  0.0540  0.5137
23763SOL     OW74565   0.911   8.660   2.688  0.0344 -0.1222  0.1010
23763SOL    HW174566   0.894   8.687   2.597  0.4193 -0.8228 -0.1905
23763SOL    HW274567   0.825   8.649   2.726 -0.1465  1.6501  0.2866
23764SOL     OW74568   6.481   2.135   6.357 -0.1772  0.6278 -0.1405
23764SOL    HW174569   6.535   2.087   6.295  0.4513  0.8948  0.1947
23764SOL    HW274570   6.535   2.143   6.435 -0.3198  1.7583 -0.1414
23765SOL     OW74571   9.986   6.890   1.567 -0.0971  0.3732 -0.0080
23765SOL    HW174572   9.996   6.869   1.660  0.8155  1.9665  0.2900
23765SOL    HW274573   9.938   6.973   1.566  0.4653  0.7010 -0.9239
23766SOL     OW74574   4.488   9.055   5.281 -0.1529  0.5582 -0.0744
23766SOL    HW174575   4.500   9.137   5.329  0.3364  0.2542  0.3290
23766SOL    HW274576   4.568   9.005   5.299 -0.2475  0.1789 -0.6873
23767SOL     OW74577   2.023   3.600   4.383 -0.2970  0.2843 -0.0747
23767SOL    HW174578   1.947   3.577   4.437 -0.4184  0.5653 -0.1288
23767SOL    HW274579   2.032   3.695   4.392  1.9110 -0.0140  2.4301
23768SOL     OW74580  10.127   6.269   4.470  0.4071 -0.2218  0.2617
23768SOL    HW174581  10.126   6.174   4.471 -0.4138 -0.2261  0.0286
23768SOL    HW274582  10.191   6.292   4.403 -0.6705 -0.6530 -0.9720
23769SOL     OW74583  10.977   5.669   0.391 -0.2656  0.2754 -0.1815
23769SOL    HW174584  11.044   5.652   0.457  0.2062  0.2108 -0.6672
23769SOL    HW274585  10.919   5.735   0.432 -1.3876 -1.4861  1.2195
23770SOL     OW74586   3.326   7.142   6.821  0.3775  0.3581  0.4514
23770SOL    HW174587   3.422   7.139   6.811  0.2140  0.2835 -1.7225
23770SOL    HW274588   3.300   7.050   6.826  0.1815 -0.0021 -3.4700
23771SOL     OW74589   1.643   0.293   5.555  0.6420  0.4453 -0.1961
23771SOL    HW174590   1.602   0.262   5.635 -2.5717 -0.1171 -1.8993
23771SOL    HW274591   1.730   0.252   5.555  0.6149  0.1953  2.7411
23772SOL     OW74592   6.220  11.078   1.767  0.5657  0.2467  0.2364
23772SOL    HW174593   6.252  10.992   1.742  1.0548 -0.0949  1.9807
23772SOL    HW274594   6.254  11.137   1.699  0.3013 -0.8917 -0.9141
23773SOL     OW74595  10.824   8.222   1.374  0.2435  0.8388  0.1774
23773SOL    HW174596  10.901   8.269   1.343 -0.6603  1.0760 -1.8455
23773SOL    HW274597  10.760   8.291   1.393  0.5169  0.6520  1.9536
23774SOL     OW74598   0.841   7.078   8.609 -0.1512  0.1318 -0.3283
23774SOL    HW174599   0.929   7.109   8.590  0.4985 -1.2749  0.2125
23774SOL    HW274600   0.848   7.035   8.695 -1.3105 -0.1972 -0.3703
23775SOL     OW74601   0.451   6.152  10.705 -0.3468 -0.0147 -0.6050
23775SOL    HW174602   0.434   6.245  10.718 -0.3232  0.1765 -1.8124
23775SOL    HW274603   0.367   6.115  10.677 -0.1398 -0.1612 -1.0550
23776SOL     OW74604   3.756   3.630   2.375  0.2106 -0.1137  0.2504
23776SOL    HW174605   3.851   3.626   2.368  0.3648  2.5927 -0.4191
23776SOL    HW274606   3.739   3.652   2.466  0.2662 -0.0206  0.2384
23777SOL     OW74607   7.410   3.096   9.198 -0.1508  0.3868  0.1077
23777SOL    HW174608   7.375   3.178   9.164  0.5828  0.0821 -1.4802
23777SOL    HW274609   7.373   3.029   9.140  2.0028 -0.0522 -0.8790
23778SOL     OW74610   8.188   5.060   4.108  0.1271 -0.1487 -0.1016
23778SOL    HW174611   8.226   5.119   4.173  2.3515 -0.7207 -0.7812
23778SOL    HW274612   8.150   5.118   4.042  1.0761  0.5165 -0.0806
23779SOL     OW74613   3.156  10.665   8.875  0.2105 -0.3491 -0.0615
23779SOL    HW174614   3.077  10.625   8.839  0.4163 -1.4029  0.6098
23779SOL    HW274615   3.158  10.753   8.838 -2.1297  0.2825  1.1600
23780SOL     OW74616   7.437   4.628   3.605 -0.2468  0.2007 -0.2651
23780SOL    HW174617   7.448   4.588   3.519 -0.8148  0.2874 -0.3785
23780SOL    HW274618   7.349   4.665   3.604 -0.3823 -0.0744  0.4599
23781SOL     OW74619   1.338   7.633   2.580  0.7239  0.0326 -0.4383
23781SOL    HW174620   1.251   7.598   2.562  0.8374 -0.6306  0.2680
23781SOL    HW274621   1.323   7.726   2.596 -0.0102 -0.2639  0.7134
23782SOL     OW74622   3.919   9.611   6.296 -0.0668 -0.2576  0.0706
23782SOL    HW174623   3.918   9.703   6.322  1.0302 -0.7489  2.0652
23782SOL    HW274624   3.829   9.582   6.306 -0.7192  0.8864 -1.9108
23783SOL     OW74625   0.354   6.087   0.405  0.0042 -0.1795 -0.1745
23783SOL    HW174626   0.361   6.117   0.496 -1.3644 -0.1293 -0.0615
23783SOL    HW274627   0.275   6.130   0.373 -0.8130 -2.0095 -0.6771
23784SOL     OW74628   5.422   6.295   1.648  0.0834 -0.7698  0.4298
23784SOL    HW174629   5.333   6.324   1.627  0.4565 -1.0308 -1.7735
23784SOL    HW274630   5.457   6.364   1.705 -1.0963 -0.0449  0.3080
23785SOL     OW74631   0.453   0.755   7.876 -0.3695 -1.1131 -0.1808
23785SOL    HW174632   0.528   0.728   7.929  0.5244  1.1773 -0.1581
23785SOL    HW274633   0.476   0.727   7.787  1.2320  0.7099 -0.4201
23786SOL     OW74634   7.057   6.680   8.060  0.4917 -0.2988 -1.1315
23786SOL    HW174635   7.029   6.771   8.064  0.1620 -0.4087 -0.8729
23786SOL    HW274636   7.011   6.638   8.133 -0.6439 -1.0157 -2.2167
23787SOL     OW74637   1.623   1.374   6.868  0.3195 -0.2044  0.2729
23787SOL    HW174638   1.580   1.341   6.948 -2.0090 -1.9577 -1.5482
23787SOL    HW274639   1.664   1.297   6.830 -2.6597 -0.6453 -2.5453
23788SOL     OW74640   0.104   3.211   7.061 -0.2853  0.3914  0.4303
23788SOL    HW174641   0.128   3.142   7.123  2.8520 -0.3322 -1.3455
23788SOL    HW274642   0.060   3.165   6.990  2.0145  0.0519 -0.8652
23789SOL     OW74643   0.605   6.408  10.258 -0.2104  0.4192  0.4108
23789SOL    HW174644   0.690   6.453  10.261 -0.3678  0.7218  0.3220
23789SOL    HW274645   0.602   6.358  10.339  0.9339 -1.2066 -0.4769
23790SOL     OW74646   3.417   1.544   0.909  0.0908 -0.6789 -0.6256
23790SOL    HW174647   3.352   1.479   0.934  2.2276 -2.5544  0.3840
23790SOL    HW274648   3.402   1.618   0.967 -1.9540 -0.4878 -1.3405
23791SOL     OW74649   6.288   7.079   1.558  0.4117  0.2811 -0.4240
23791SOL    HW174650   6.195   7.075   1.534  0.1026  1.5694  0.4948
23791SOL    HW274651   6.334   7.062   1.476 -0.5871 -3.0109 -0.4359
23792SOL     OW74652   3.753   1.267   0.902 -0.1208  0.1524  0.6097
23792SOL    HW174653   3.806   1.205   0.952  3.1841  1.8122 -0.5937
23792SOL    HW274654   3.765   1.242   0.811 -0.2747  1.4065  0.2183
23793SOL     OW74655  10.032   6.039  10.145  0.4608  0.5341 -0.2156
23793SOL    HW174656  10.041   5.953  10.186 -0.5733  0.4792 -0.0926
23793SOL    HW274657  10.026   6.100  10.218 -1.4773  0.4261 -0.2298
23794SOL     OW74658   9.314   4.377   1.364  0.4685  0.0208 -0.2332
23794SOL    HW174659   9.395   4.418   1.334  0.7153 -0.6763 -0.5504
23794SOL    HW274660   9.325   4.370   1.459  1.1553 -0.8149 -0.3546
23795SOL     OW74661  10.619   6.439   0.327 -0.2132 -0.9914  0.4259
23795SOL    HW174662  10.703   6.401   0.352  0.9156  1.7422  1.2095
23795SOL    HW274663  10.592   6.489   0.404 -2.0922 -1.0265 -0.1705
23796SOL     OW74664   0.628   8.602   6.046  0.2195  0.2109  0.2370
23796SOL    HW174665   0.645   8.540   5.975 -0.9486  1.9748 -1.6894
23796SOL    HW274666   0.656   8.686   6.010 -0.8032  1.2139  1.7245
23797SOL     OW74667   1.003   0.604   1.781  0.2075  0.7010 -0.3284
23797SOL    HW174668   1.022   0.510   1.776  2.0904  1.0316 -0.1637
23797SOL    HW274669   1.017   0.636   1.692 -1.0761  0.7382 -0.5327
23798SOL     OW74670  10.256   8.864   5.657  0.1913  0.2247 -0.1745
23798SOL    HW174671  10.333   8.913   5.685  1.6521  0.0316 -3.3809
23798SOL    HW274672  10.247   8.885   5.564 -1.7733 -2.1843 -0.6344
23799SOL     OW74673   5.132  10.599   7.248  0.1095 -0.2447  0.3253
23799SOL    HW174674   5.088  10.586   7.165 -0.1934 -0.2184  0.4797
23799SOL    HW274675   5.219  10.562   7.235  0.4591  0.7913 -0.3650
23800SOL     OW74676   8.390   3.622   5.464 -0.0706  0.0764 -0.7263
23800SOL    HW174677   8.317   3.683   5.476 -0.8039 -0.4744 -2.1346
23800SOL    HW274678   8.461   3.675   5.429  0.6318  0.8354  1.6637
23801SOL     OW74679   7.727   6.751   1.679 -0.7208  0.3721  0.1581
23801SOL    HW174680   7.739   6.790   1.766 -0.4236 -1.4523  0.9905
23801SOL    HW274681   7.808   6.701   1.665 -1.3103 -0.3849 -0.5881
23802SOL     OW74682   2.551   6.908   5.910 -0.4407 -0.2826  0.0509
23802SOL    HW174683   2.639   6.872   5.910 -1.0014 -1.8602  1.9564
23802SOL    HW274684   2.502   6.852   5.850 -0.4342 -0.2551  0.0203
23803SOL     OW74685   3.148   7.798   3.752 -0.5058  0.2610 -0.2955
23803SOL    HW174686   3.132   7.877   3.803 -0.2570 -0.2431  0.5858
23803SOL    HW274687   3.159   7.729   3.817  2.6578  0.0718 -0.8589
23804SOL     OW74688   5.717   0.935   8.324 -0.4735  0.9830 -0.2066
23804SOL    HW174689   5.689   1.003   8.263  0.6780 -0.0678 -1.9866
23804SOL    HW274690   5.737   0.982   8.405 -1.7067  2.4636 -0.7106
23805SOL     OW74691   1.158   7.974   4.670  0.3126 -0.0356 -0.1496
23805SOL    HW174692   1.123   8.061   4.650 -2.0097 -0.6824  0.7932
23805SOL    HW274693   1.142   7.963   4.764  0.2077 -1.6246 -0.3324
23806SOL     OW74694   1.991   3.587   2.606  0.5242  0.4695 -0.4826
23806SOL    HW174695   2.025   3.499   2.589 -1.9852 -0.6041 -0.2186
23806SOL    HW274696   1.929   3.603   2.535  0.1150  1.5699  0.0956
23807SOL     OW74697   1.148   0.721   7.108  0.0220  0.4452  0.1308
23807SOL    HW174698   1.233   0.742   7.147  0.7233 -0.0120 -1.0968
23807SOL    HW274699   1.125   0.798   7.056 -0.6615  0.8349  0.9588
23808SOL     OW74700   2.607   5.183  10.606 -0.2087  0.4417  0.4960
23808SOL    HW174701   2.531   5.240  10.618  0.1153  1.2129 -0.8324
23808SOL    HW274702   2.681   5.243  10.597  0.2615 -0.2105 -0.1155
23809SOL     OW74703   8.931   5.922   3.863  0.3323  0.1341  0.0799
23809SOL    HW174704   8.889   5.890   3.943 -0.4151 -0.2339 -0.4501
23809SOL    HW274705   8.859   5.954   3.809  0.6661 -0.9448 -1.0444
23810SOL     OW74706   5.997   2.293   5.901  0.1102  0.7878 -0.1422
23810SOL    HW174707   6.037   2.366   5.948 -1.9600  1.5513  0.5355
23810SOL    HW274708   6.071   2.240   5.872  1.6553  2.8370 -0.1716
23811SOL     OW74709   4.946   3.614   7.429 -0.2191 -0.8039  0.0273
23811SOL    HW174710   4.873   3.647   7.481 -0.7298  0.2481 -1.3066
23811SOL    HW274711   4.908   3.594   7.343  0.4897 -3.0502  0.1777
23812SOL     OW74712   9.407   6.876   7.906 -0.2837  0.1060 -0.0778
23812SOL    HW174713   9.437   6.786   7.910 -0.6384  0.0114  0.5707
23812SOL    HW274714   9.465   6.918   7.842 -0.1786 -0.5968 -0.4541
23813SOL     OW74715   9.197   3.118   7.618  0.3330 -0.3779 -0.4651
23813SOL    HW174716   9.190   3.043   7.677 -0.8380 -0.9546 -1.2914
23813SOL    HW274717   9.131   3.180   7.651  2.3959  1.0686  1.2163
23814SOL     OW74718   9.156   2.739   2.285  0.1357 -0.6205  0.2236
23814SOL    HW174719   9.101   2.713   2.360 -1.8753 -1.9697 -1.5802
23814SOL    HW274720   9.218   2.667   2.275  0.7782 -0.1711  0.9088
23815SOL     OW74721   3.581   6.865   0.445 -0.0513  0.5851  0.2997
23815SOL    HW174722   3.582   6.786   0.391 -0.6659  1.5400 -1.1825
23815SOL    HW274723   3.649   6.921   0.407 -0.5530  1.3165  0.4555
23816SOL     OW74724   4.494  10.193  10.732 -0.1761 -0.1882  0.4144
23816SOL    HW174725   4.533  10.135  10.666 -1.9545 -1.3324  0.2886
23816SOL    HW274726   4.494  10.141  10.812 -1.6488 -0.3615  0.3411
23817SOL     OW74727   2.038   9.571   5.822  0.0731 -0.1664  0.3759
23817SOL    HW174728   1.978   9.589   5.749  0.0226  1.5421  0.7971
23817SOL    HW274729   2.125   9.592   5.788  0.0204  0.9179  0.8650
23818SOL     OW74730  11.278   7.416   9.326  0.0175  0.2973  0.1949
23818SOL    HW174731  11.197   7.396   9.372 -1.2141  1.2120 -1.4479
23818SOL    HW274732  11.300   7.505   9.353 -0.1103  0.4343 -0.1458
23819SOL     OW74733   7.125   7.497   2.027  0.4975 -0.2008  0.4722
23819SOL    HW174734   7.188   7.566   2.044  1.0978 -0.9388  1.3107
23819SOL    HW274735   7.172   7.435   1.970  0.6437 -0.8959  1.3311
23820SOL     OW74736   8.509   0.291   9.626 -0.2728 -0.3149 -0.2797
23820SOL    HW174737   8.569   0.233   9.580  2.1170  1.8452 -0.0887
23820SOL    HW274738   8.426   0.283   9.578  1.6783  0.8309 -4.3237
23821SOL     OW74739   2.646   2.522   3.924 -0.5929  0.0992  0.1133
23821SOL    HW174740   2.585   2.474   3.980 -0.9526 -0.7797 -0.9912
23821SOL    HW274741   2.733   2.492   3.952 -0.8233 -1.5961 -0.8550
23822SOL     OW74742   0.758   1.452   5.883 -0.2697 -0.0346  0.7355
23822SOL    HW174743   0.756   1.445   5.788  2.9892  1.3411  0.4371
23822SOL    HW274744   0.705   1.529   5.902  0.0358  0.3947 -0.0995
23823SOL     OW74745   0.305   1.238   7.472 -0.5519  0.0713 -0.0144
23823SOL    HW174746   0.286   1.256   7.564  1.2376 -0.0775  0.4255
23823SOL    HW274747   0.260   1.156   7.454 -2.0920  0.8014  0.2833
23824SOL     OW74748  10.001   4.843   8.756 -0.0256 -0.2474  0.1047
23824SOL    HW174749  10.042   4.858   8.671 -1.8059 -0.2653 -0.7977
23824SOL    HW274750   9.932   4.909   8.761  0.2460 -0.0535  1.6809
23825SOL     OW74751   3.311   3.650   8.152  0.3301 -0.2131  0.0329
23825SOL    HW174752   3.333   3.578   8.210  0.1741  0.1585  0.5657
23825SOL    HW274753   3.381   3.651   8.086  1.3580  0.3152  1.1020
23826SOL     OW74754   8.030   4.654   2.636 -0.4218 -0.4754  0.5842
23826SOL    HW174755   7.995   4.724   2.581  4.7892  2.3435  0.1718
23826SOL    HW274756   8.060   4.587   2.575 -1.7827 -1.1709  0.6655
23827SOL     OW74757   7.849   1.830   9.253 -0.2157  0.0474 -0.3900
23827SOL    HW174758   7.771   1.781   9.226 -0.2369 -1.0103  1.4138
23827SOL    HW274759   7.838   1.841   9.347  1.0336  1.3475 -0.3721
23828SOL     OW74760   7.505   9.828   6.099 -0.4867  0.0004 -0.0328
23828SOL    HW174761   7.470   9.910   6.065  1.6699  0.4170 -1.4738
23828SOL    HW274762   7.506   9.769   6.024 -2.1428 -1.4453  1.0176
23829SOL     OW74763   3.674   9.868   3.123  0.5327  0.1684  0.0884
23829SOL    HW174764   3.720   9.823   3.052  2.7819  0.3816  1.3280
23829SOL    HW274765   3.621   9.934   3.079 -0.1486 -1.3701 -1.5291
23830SOL     OW74766   2.602   5.406   4.929 -0.2340 -0.4168  0.5490
23830SOL    HW174767   2.565   5.452   4.853 -2.2151  0.7086  2.1147
23830SOL    HW274768   2.539   5.420   4.999  1.8804 -0.7543  2.6562
23831SOL     OW74769   8.837   3.155   5.186  0.0732  0.1453 -0.1198
23831SOL    HW174770   8.819   3.061   5.186 -0.6422  0.2585  1.3883
23831SOL    HW274771   8.786   3.190   5.259  0.8591  1.6101 -0.2234
23832SOL     OW74772   3.267   8.569   6.491 -0.1714 -0.2095  0.5700
23832SOL    HW174773   3.342   8.629   6.494 -0.1578 -0.2706  3.3221
23832SOL    HW274774   3.196   8.621   6.453 -0.0639  1.4881  2.5554
23833SOL     OW74775   4.265   9.974   5.422  0.0732  0.1897  0.0249
23833SOL    HW174776   4.209  10.014   5.356  0.3132  2.9063  1.3218
23833SOL    HW274777   4.337  10.037   5.434  2.2269 -2.1209  0.0121
23834SOL     OW74778   9.433   3.101   3.229  0.2644  0.2499  0.3052
23834SOL    HW174779   9.410   3.189   3.258  0.2281 -0.0080  1.0890
23834SOL    HW274780   9.526   3.106   3.209 -0.1387  0.9751 -1.6559
23835SOL     OW74781   0.049   5.251   1.223  0.3702 -0.4742  0.2337
23835SOL    HW174782  -0.041   5.283   1.212  0.1712 -1.0602  0.0773
23835SOL    HW274783   0.092   5.272   1.140  0.1451 -0.9022  0.0028
23836SOL     OW74784   0.965  10.792  10.501  0.1235  0.0313  0.6177
23836SOL    HW174785   0.873  10.815  10.491 -0.0915 -0.7159  0.7991
23836SOL    HW274786   0.992  10.837  10.582  0.1583  0.9360  0.1158
23837SOL     OW74787   5.498   5.766   4.142  0.6911 -0.6377 -0.3652
23837SOL    HW174788   5.519   5.857   4.121  0.1215 -0.3290  0.3313
23837SOL    HW274789   5.409   5.753   4.108  0.1775 -0.4549  0.8290
23838SOL     OW74790   5.600   9.387   0.005  0.3707  0.0507  0.2408
23838SOL    HW174791   5.627   9.442   0.079 -0.9904 -2.4469  2.8103
23838SOL    HW274792   5.524   9.433  -0.032  1.9090  2.0468 -0.5963
23839SOL     OW74793   4.265   6.182   7.719  0.1169  0.1005 -0.0981
23839SOL    HW174794   4.191   6.159   7.663 -1.8315 -1.0267  2.7306
23839SOL    HW274795   4.234   6.256   7.771  0.5722 -0.9781  1.7876
23840SOL     OW74796   2.210   4.959   7.994  0.6248  0.3152  0.0379
23840SOL    HW174797   2.182   4.940   7.905 -1.0212  0.3993  0.5140
23840SOL    HW274798   2.282   4.897   8.010 -0.4960 -1.2178 -0.6059
23841SOL     OW74799   2.357   0.878   9.149 -0.1326 -0.2126  0.5003
23841SOL    HW174800   2.407   0.799   9.129 -0.3799 -0.2125 -0.1262
23841SOL    HW274801   2.308   0.897   9.069 -1.7510 -0.6601  1.3381
23842SOL     OW74802   1.567   6.680   3.539  0.5410  0.0454 -0.9373
23842SOL    HW174803   1.475   6.650   3.539  0.4486  0.3171 -0.3418
23842SOL    HW274804   1.613   6.614   3.592  0.2946  1.0553  0.5844
23843SOL     OW74805   7.263   0.942   3.077 -0.0505 -0.5517  0.1401
23843SOL    HW174806   7.273   1.011   3.011  1.4755  1.0004  1.8547
23843SOL    HW274807   7.353   0.918   3.100 -0.5525 -1.4420  1.2559
23844SOL     OW74808   0.219   7.878   3.610 -0.2357  0.4283  0.0928
23844SOL    HW174809   0.263   7.960   3.634  0.9550 -0.2371  0.2753
23844SOL    HW274810   0.291   7.816   3.596 -1.0779 -0.3389 -0.9989
23845SOL     OW74811   3.460   3.678   8.742 -0.1638  0.3576  0.2305
23845SOL    HW174812   3.534   3.695   8.683 -1.5006  0.0267 -1.6291
23845SOL    HW274813   3.417   3.763   8.752  0.5055  0.5789  1.4238
23846SOL     OW74814   8.115   9.608   2.981  0.1140  0.0254  0.3187
23846SOL    HW174815   8.055   9.540   3.010 -1.9948  2.0323  0.9530
23846SOL    HW274816   8.093   9.622   2.889  0.5420 -0.1299  0.1890
23847SOL     OW74817  10.706  10.015   6.801  1.2820  0.2451  0.2524
23847SOL    HW174818  10.673   9.953   6.866  2.2535  0.4022  0.9186
23847SOL    HW274819  10.691  10.101   6.841 -1.8726  0.6520 -1.4817
23848SOL     OW74820   2.129   4.415   3.742 -0.3477  0.2945  0.5721
23848SOL    HW174821   2.099   4.497   3.780 -0.2270 -0.1420  1.6284
23848SOL    HW274822   2.222   4.410   3.764 -0.0542  0.4352 -0.5304
23849SOL     OW74823  10.208   8.226  10.065 -0.4189 -0.4047  0.1353
23849SOL    HW174824  10.144   8.234  10.136 -0.8080  0.6094 -0.3006
23849SOL    HW274825  10.168   8.164  10.003 -1.1147  0.4065 -0.2509
23850SOL     OW74826   3.840   8.588  10.905 -0.5526  0.2832  0.1966
23850SOL    HW174827   3.758   8.634  10.886 -1.0151  0.1739  1.7710
23850SOL    HW274828   3.892   8.598  10.825 -2.0654  0.4080 -0.8189
23851SOL     OW74829   5.937   5.357   5.493  0.2045 -0.8248 -0.8552
23851SOL    HW174830   5.867   5.422   5.501 -0.7911 -2.0576  1.3338
23851SOL    HW274831   5.933   5.328   5.402 -2.1691 -0.8456 -0.7989
23852SOL     OW74832  10.557   7.859   2.292  0.0971  1.0024 -0.4263
23852SOL    HW174833  10.641   7.905   2.303  0.9106  0.0042 -1.9376
23852SOL    HW274834  10.573   7.771   2.327  0.0498  0.4778 -1.6603
23853SOL     OW74835   1.717   8.354  10.547 -0.2587  0.3734 -0.3525
23853SOL    HW174836   1.753   8.409  10.477  1.3648 -0.1572  0.0241
23853SOL    HW274837   1.632   8.325  10.513 -0.0187  1.0666 -1.6126
23854SOL     OW74838   0.085   3.931   8.707  0.2163  0.3758  0.6100
23854SOL    HW174839   0.109   4.009   8.658  1.4939  0.1364  0.8265
23854SOL    HW274840   0.073   3.962   8.797  0.5118  0.3551  0.6558
23855SOL     OW74841  11.353   4.173   0.846 -0.0008  0.0912 -0.2710
23855SOL    HW174842  11.448   4.161   0.848 -0.2238 -2.0092 -0.1331
23855SOL    HW274843  11.328   4.157   0.755 -0.3948 -1.4057  0.0630
23856SOL     OW74844   1.344   1.946   4.037  0.0263  0.1861  0.8333
23856SOL    HW174845   1.351   1.989   4.121 -2.7804  1.1225  0.6907
23856SOL    HW274846   1.435   1.929   4.010  1.2167  3.9744  1.9151
23857SOL     OW74847   7.501   5.836   8.932  0.1241 -0.2203 -0.1910
23857SOL    HW174848   7.417   5.840   8.977 -0.0457 -1.4582 -0.3599
23857SOL    HW274849   7.541   5.921   8.948 -1.8054  0.9869 -1.3514
23858SOL     OW74850   0.931   2.046   6.612  0.2309  0.2457 -0.0056
23858SOL    HW174851   0.985   2.116   6.648 -0.7122  0.6944  0.5679
23858SOL    HW274852   0.932   2.061   6.518 -0.4884  1.4336  0.1596
23859SOL     OW74853  10.151   2.622   4.938 -0.3882 -0.0436 -0.0889
23859SOL    HW174854  10.245   2.616   4.953 -0.2965  0.5319 -0.3899
23859SOL    HW274855  10.111   2.575   5.011  0.1402 -0.5613 -0.1318
23860SOL     OW74856  11.378   4.906   2.226 -0.1943  0.0314  0.1825
23860SOL    HW174857  11.473   4.900   2.215  0.2658  1.6227  2.4443
23860SOL    HW274858  11.345   4.820   2.202  1.6237 -0.1140 -2.0758
23861SOL     OW74859   7.050   1.452   6.960 -0.5565  0.1860  0.0398
23861SOL    HW174860   7.039   1.382   7.025 -0.0213  1.3513  1.4495
23861SOL    HW274861   6.965   1.457   6.916 -1.5804  0.5699  1.9462
23862SOL     OW74862   2.700   8.062   8.308 -0.2785 -0.4539  0.0529
23862SOL    HW174863   2.657   8.141   8.274  1.1735  1.1730  1.7997
23862SOL    HW274864   2.786   8.063   8.267  0.0935 -0.5969  0.8247
23863SOL     OW74865   0.014   0.309  10.882 -0.4195 -0.0714 -0.2995
23863SOL    HW174866  -0.030   0.266  10.955  0.4169  0.0843  0.3097
23863SOL    HW274867   0.042   0.238  10.824 -1.4424 -0.1736 -0.6938
23864SOL     OW74868   6.433   8.036   0.473  0.7069  0.3567  0.6462
23864SOL    HW174869   6.474   8.095   0.410  1.4651  1.5251  2.1514
23864SOL    HW274870   6.507   7.994   0.518  0.1788 -1.6981 -0.3072
23865SOL     OW74871   7.935   7.334   6.247 -0.9144 -0.7198  0.1998
23865SOL    HW174872   7.911   7.419   6.285 -2.1767 -0.8566 -0.2360
23865SOL    HW274873   7.900   7.270   6.309  2.2721 -1.0108  1.9127
23866SOL     OW74874   4.313   7.671   2.597  0.3146  0.0116  0.6091
23866SOL    HW174875   4.404   7.674   2.625  0.4936  1.7145 -0.0730
23866SOL    HW274876   4.281   7.761   2.610 -0.9598 -0.3116 -0.1396
23867SOL     OW74877  10.672   7.011   1.548  0.2909 -0.1987 -0.6901
23867SOL    HW174878  10.619   6.964   1.484 -0.0669 -0.4977 -0.1849
23867SOL    HW274879  10.620   7.088   1.571  0.3005 -0.2287 -0.5646
23868SOL     OW74880   4.139   3.829   1.932 -0.0768 -0.2995 -0.3103
23868SOL    HW174881   4.157   3.898   1.868 -0.6684  0.5374  0.4064
23868SOL    HW274882   4.085   3.872   1.999 -1.1963 -1.6773 -0.2892
23869SOL     OW74883   4.729  10.960   2.085  0.5934  0.0003 -0.2929
23869SOL    HW174884   4.821  10.939   2.068  0.2516 -1.0008 -0.9906
23869SOL    HW274885   4.694  10.983   1.999  0.0818 -0.0681 -0.1044
23870SOL     OW74886   7.650   4.098  10.490  0.4480  0.0287 -0.1403
23870SOL    HW174887   7.683   4.145  10.566  0.2750  0.6345 -0.4361
23870SOL    HW274888   7.727   4.081  10.437  0.6665 -0.9463  0.4521
23871SOL     OW74889   7.857   9.217   6.342  0.4117  0.6092 -0.2365
23871SOL    HW174890   7.835   9.303   6.307  0.6505  1.3645  1.3486
23871SOL    HW274891   7.893   9.169   6.268 -1.1065  1.3406 -1.5140
23872SOL     OW74892   9.963   9.311   6.625  0.2498 -0.4910 -0.6176
23872SOL    HW174893   9.923   9.341   6.707 -0.3515  1.4942 -1.5849
23872SOL    HW274894  10.052   9.287   6.650  0.1283  0.2308  0.5984
23873SOL     OW74895   6.457   7.135  10.537  0.1290  0.0110  0.0704
23873SOL    HW174896   6.491   7.203  10.595 -0.3797 -0.2617  0.7081
23873SOL    HW274897   6.449   7.058  10.594 -0.7080 -0.1692 -0.2758
23874SOL     OW74898   5.846   7.977  10.913  0.0959 -0.6038  0.2320
23874SOL    HW174899   5.786   8.047  10.886  0.5683 -0.9783 -1.9787
23874SOL    HW274900   5.830   7.906  10.850  1.0895 -1.6789  1.1503
23875SOL     OW74901   0.362   9.840   4.047  0.7310 -0.0267  0.1865
23875SOL    HW174902   0.447   9.867   4.012  0.3368  1.1116  0.0673
23875SOL    HW274903   0.298   9.885   3.992  0.0743  0.1193  1.0595
23876SOL     OW74904  10.594   9.445   5.855  0.6932  0.3668 -0.4632
23876SOL    HW174905  10.540   9.498   5.796 -0.2891  0.7921  0.7821
23876SOL    HW274906  10.531   9.397   5.909  1.5795 -0.6318 -0.2801
23877SOL     OW74907   7.999  10.092   0.472 -0.3560 -0.0812  0.5787
23877SOL    HW174908   7.905  10.103   0.461 -0.3441  0.2147  0.7634
23877SOL    HW274909   8.013  10.094   0.566 -0.0022  1.3495  0.5281
23878SOL     OW74910  10.588  10.685  10.092  0.5421  0.2954  0.6096
23878SOL    HW174911  10.681  10.706  10.102  0.5985  1.1256 -1.2316
23878SOL    HW274912  10.570  10.699   9.999 -1.1230 -1.1879  0.6522
23879SOL     OW74913   5.350   4.473   3.848  0.2210  0.5181 -0.1521
23879SOL    HW174914   5.415   4.426   3.796  0.5615  0.6230  0.1778
23879SOL    HW274915   5.283   4.498   3.785  0.6461  0.6662 -0.5465
23880SOL     OW74916   3.671   7.344  11.051  0.3643  0.0928 -0.5284
23880SOL    HW174917   3.631   7.406  10.990 -0.8168 -1.2476 -1.1809
23880SOL    HW274918   3.763   7.370  11.055  0.0654  1.3936 -1.3772
23881SOL     OW74919   8.454   9.229   6.429 -0.2008 -0.0732 -0.0278
23881SOL    HW174920   8.369   9.219   6.385 -0.2670 -0.8798  0.2723
23881SOL    HW274921   8.511   9.263   6.361 -0.6082 -0.1395 -0.4131
23882SOL     OW74922   2.704   9.748  11.246 -0.1054  0.3554 -0.5432
23882SOL    HW174923   2.644   9.696  11.300 -1.8652  0.5216 -2.2331
23882SOL    HW274924   2.738   9.686  11.181  0.5871  0.5580 -0.3895
23883SOL     OW74925  10.104   9.164  10.344 -0.1480 -0.1148 -0.1906
23883SOL    HW174926  10.099   9.208  10.259  1.3420 -1.9880 -1.3331
23883SOL    HW274927  10.168   9.214  10.394 -0.5616  0.6303 -0.3885
23884SOL     OW74928   5.781   4.243   0.985  0.6537 -0.3337 -0.4548
23884SOL    HW174929   5.870   4.214   1.006  0.5032 -0.3464  0.1745
23884SOL    HW274930   5.784   4.263   0.892  1.2981 -0.4067 -0.4534
23885SOL     OW74931   2.527   1.527   5.090  0.1991  0.0033  0.6593
23885SOL    HW174932   2.621   1.512   5.086  0.3793  1.2797 -1.4544
23885SOL    HW274933   2.514   1.585   5.165  0.9556 -0.8643  1.4858
23886SOL     OW74934   4.305   3.806   0.021 -0.4199 -0.3194 -0.0266
23886SOL    HW174935   4.330   3.881  -0.034  0.8440 -1.1070 -0.5733
23886SOL    HW274936   4.383   3.789   0.074 -0.6963 -1.2361  0.0990
23887SOL     OW74937   3.840   6.974   9.909 -0.3561 -0.3923  0.1203
23887SOL    HW174938   3.820   6.880   9.907 -0.7707 -0.3307  0.9204
23887SOL    HW274939   3.936   6.977   9.910 -0.3240 -0.8760  1.5533
23888SOL     OW74940   5.586   9.644   7.219  0.3642  0.4280 -1.0042
23888SOL    HW174941   5.661   9.593   7.188  0.3336  0.5279 -1.2395
23888SOL    HW274942   5.561   9.601   7.301  0.1475 -0.1248 -1.3546
23889SOL     OW74943   4.003   5.532   7.577 -0.4892 -0.2524  0.0490
23889SOL    HW174944   3.959   5.491   7.502 -1.0202 -0.8629  0.6809
23889SOL    HW274945   3.976   5.624   7.572 -0.3866 -0.2540 -0.6033
23890SOL     OW74946   7.500   4.715  11.319  0.7040  0.3179  0.4198
23890SOL    HW174947   7.523   4.637  11.267 -2.7115 -0.6385  0.0942
23890SOL    HW274948   7.429   4.756  11.269 -0.7801  0.9545  2.8991
23891SOL     OW74949   9.764   3.994   4.867  0.3284 -0.2799 -0.1145
23891SOL    HW174950   9.743   4.073   4.918  3.7714  0.6741  0.0979
23891SOL    HW274951   9.812   3.939   4.929  1.8890 -0.4765 -1.4450
23892SOL     OW74952   1.744   3.267   1.222 -0.3308  0.0285  0.3161
23892SOL    HW174953   1.703   3.192   1.266  0.9720  0.2374  2.0237
23892SOL    HW274954   1.690   3.341   1.247 -2.5648 -0.4283 -2.6650
23893SOL     OW74955   2.643   0.298   8.158  0.5053  0.4826 -0.3786
23893SOL    HW174956   2.723   0.249   8.138  1.0338  1.1044  0.1814
23893SOL    HW274957   2.662   0.342   8.241 -1.5516 -1.9198  1.5245
23894SOL     OW74958   3.665  10.053   4.510 -0.2378 -0.6791  0.1847
23894SOL    HW174959   3.739  10.086   4.458 -0.9702  0.3986 -0.2019
23894SOL    HW274960   3.675  10.095   4.595 -1.9703  1.8286 -0.7365
23895SOL     OW74961   0.495   9.268   9.784  0.2797  0.0103  0.0240
23895SOL    HW174962   0.481   9.184   9.741  0.4199 -0.6723  1.2838
23895SOL    HW274963   0.450   9.331   9.727 -2.3729 -1.2648  0.5412
23896SOL     OW74964   1.719   6.385   3.287 -0.2519 -0.3475  0.2426
23896SOL    HW174965   1.719   6.437   3.207 -0.5147 -0.4498  0.1754
23896SOL    HW274966   1.794   6.419   3.337  0.8351 -1.2841 -0.6827
23897SOL     OW74967   1.809  10.015   9.477  0.5830 -0.2661  0.8307
23897SOL    HW174968   1.888  10.068   9.482  0.1897  0.7159 -1.8676
23897SOL    HW274969   1.783  10.018   9.385 -0.6031 -3.5450  0.9294
23898SOL     OW74970   8.763   5.520   9.793  0.0618 -0.3862 -0.2706
23898SOL    HW174971   8.801   5.453   9.736 -1.8623 -0.3191 -1.7067
23898SOL    HW274972   8.682   5.481   9.825  0.2082  0.2902  0.9972
23899SOL     OW74973   1.025   2.078   4.353  0.2759  0.2695  0.0897
23899SOL    HW174974   0.961   2.008   4.340 -0.0191  0.7044 -0.9180
23899SOL    HW274975   1.109   2.039   4.331  0.2763 -0.1130  0.7522
23900SOL     OW74976   8.249   9.675   3.349 -0.7496 -0.2723  0.1221
23900SOL    HW174977   8.246   9.674   3.445 -1.2805  1.3266  0.1463
23900SOL    HW274978   8.158   9.685   3.322 -0.4195  1.5121 -0.4647
23901SOL     OW74979   9.488   4.417   7.928  0.3366 -0.7246 -0.3130
23901SOL    HW174980   9.397   4.445   7.932  0.1182 -1.5165  1.3647
23901SOL    HW274981   9.484   4.321   7.934  1.2818 -0.7699 -0.1741
23902SOL     OW74982   7.630   0.147  10.296 -0.2014 -0.1556 -0.3062
23902SOL    HW174983   7.632   0.194  10.213  0.0628  0.1272 -0.1453
23902SOL    HW274984   7.537   0.145  10.321 -0.1138  1.3881  0.2901
23903SOL     OW74985   9.472   1.827   9.990 -0.5013  0.1269  0.5214
23903SOL    HW174986   9.485   1.752   9.932  0.1431  0.6834 -0.0726
23903SOL    HW274987   9.403   1.800  10.050 -0.1740 -0.9948  0.4061
23904SOL     OW74988   8.648   0.870   6.100 -0.1723  0.5790  0.0917
23904SOL    HW174989   8.695   0.788   6.110 -1.8930 -0.4223  0.3933
23904SOL    HW274990   8.598   0.860   6.019 -1.3054  0.8282  0.7392
23905SOL     OW74991   3.886   9.534   3.208  0.0540 -0.3805  0.3882
23905SOL    HW174992   3.919   9.556   3.121 -0.2944 -1.1086  0.0591
23905SOL    HW274993   3.803   9.490   3.191  1.3153 -3.1719  0.8869
23906SOL     OW74994   1.722   9.442   2.787  0.4001 -0.4891  0.2796
23906SOL    HW174995   1.633   9.462   2.757  0.7040  0.7732  0.1450
23906SOL    HW274996   1.709   9.397   2.870 -0.4780 -4.6732 -1.8897
23907SOL     OW74997   7.061   6.084   3.140  0.0806 -0.1234 -0.7312
23907SOL    HW174998   7.032   5.993   3.136  1.5664 -0.6039 -1.1227
23907SOL    HW274999   7.083   6.098   3.232 -1.1758  0.2142 -0.4497
23908SOL     OW75000   7.354  11.156   5.247 -0.5740  0.2635 -0.1919
23908SOL    HW175001   7.421  11.217   5.278 -0.2568 -0.7191  1.1976
23908SOL    HW275002   7.278  11.173   5.303 -0.7184 -0.1147 -0.2681
23909SOL     OW75003   3.853   6.779   4.837 -0.0728  0.2349 -0.0493
23909SOL    HW175004   3.915   6.741   4.776 -0.9073 -0.6934 -0.3502
23909SOL    HW275005   3.901   6.787   4.919  0.4599 -0.4217 -0.2912
23910SOL     OW75006   1.306   5.074   6.957 -0.1234 -0.3187 -0.4105
23910SOL    HW175007   1.335   4.990   6.922 -0.4050 -0.3166 -0.6588
23910SOL    HW275008   1.385   5.127   6.963  0.2123 -0.8913  0.5986
23911SOL     OW75009   4.123   3.913   5.135 -0.5194  0.1107  0.1866
23911SOL    HW175010   4.036   3.951   5.143 -0.5908  0.1639 -0.7331
23911SOL    HW275011   4.170   3.972   5.076 -0.3977 -0.7949 -0.6593
23912SOL     OW75012   6.760   8.567   0.522  0.3567 -0.5383 -0.2389
23912SOL    HW175013   6.685   8.549   0.466 -0.4009  1.9465 -0.1603
23912SOL    HW275014   6.826   8.604   0.464 -0.0349  1.0556  0.2837
23913SOL     OW75015   6.927   1.820   5.775 -0.2458 -0.5328 -0.0870
23913SOL    HW175016   6.835   1.830   5.801 -0.2185 -0.5255  0.0075
23913SOL    HW275017   6.964   1.908   5.782 -0.6915 -0.1522 -1.9247
23914SOL     OW75018  10.784  11.306  10.065 -0.2145  0.8031  0.1021
23914SOL    HW175019  10.806  11.354   9.986 -1.0169  1.6249  0.3592
23914SOL    HW275020  10.832  11.351  10.135  0.2009  0.3097  0.1452
23915SOL     OW75021   2.483   7.381   5.282 -0.9272  0.4620  0.2762
23915SOL    HW175022   2.514   7.447   5.220  0.8724 -1.7741 -1.3907
23915SOL    HW275023   2.562   7.340   5.315 -1.9554 -0.0753  2.2538
23916SOL     OW75024   4.945  10.051   8.901 -0.0970 -0.0346  0.7572
23916SOL    HW175025   4.905  10.107   8.835  1.4442 -0.7143 -0.8205
23916SOL    HW275026   5.011  10.106   8.943  1.0223 -0.4403 -0.4030
23917SOL     OW75027   3.536   1.092   3.310  0.1798  0.2237 -0.1076
23917SOL    HW175028   3.578   1.091   3.396  0.9629  0.4623 -0.4669
23917SOL    HW275029   3.598   1.142   3.255 -0.3356  0.1241 -0.7873
23918SOL     OW75030   7.511   6.016   0.673  0.2845  0.5369  0.2727
23918SOL    HW175031   7.593   6.064   0.659  1.0378 -0.9688 -0.8715
23918SOL    HW275032   7.487   5.984   0.586 -3.2765  3.4986 -0.0571
23919SOL     OW75033   3.841   6.336   7.826  0.0751 -0.1411 -0.6418
23919SOL    HW175034   3.781   6.357   7.754 -0.0221  0.4958 -0.3850
23919SOL    HW275035   3.816   6.397   7.896  0.5063 -0.4050 -0.2546
23920SOL     OW75036   6.881   1.256   7.585  0.1605  0.1313 -0.1845
23920SOL    HW175037   6.845   1.252   7.673  0.2013 -1.7778 -0.2194
23920SOL    HW275038   6.957   1.197   7.587  1.0835  1.2371 -1.1015
23921SOL     OW75039   9.682   2.593   7.147 -0.0890 -0.0596  0.4317
23921SOL    HW175040   9.695   2.618   7.239  2.1212  0.0427  0.1672
23921SOL    HW275041   9.592   2.563   7.142 -0.7451  1.4156  2.2904
23922SOL     OW75042   0.947   3.775   1.713  0.7291  0.3597  0.0296
23922SOL    HW175043   0.919   3.818   1.632  2.3174 -0.0559 -0.7836
23922SOL    HW275044   0.968   3.685   1.686  0.4822 -0.0252  1.0778
23923SOL     OW75045   1.147   3.009   1.177  0.4812  0.0918 -0.2358
23923SOL    HW175046   1.107   2.931   1.138  0.4015 -0.4771  0.9246
23923SOL    HW275047   1.075   3.071   1.184  0.8134  0.8063 -2.3810
23924SOL     OW75048   7.310   7.002   1.158  0.4153 -0.1185  0.8285
23924SOL    HW175049   7.241   7.005   1.092  0.6739  0.7013  0.5814
23924SOL    HW275050   7.374   7.068   1.130  1.0096 -0.4523  1.3681
23925SOL     OW75051   4.675   9.177   6.338 -0.1633 -0.3481 -0.6344
23925SOL    HW175052   4.669   9.254   6.281  1.9760  0.6385  0.3729
23925SOL    HW275053   4.666   9.102   6.279 -0.9287  0.6535 -1.8252
23926SOL     OW75054   5.668  10.428   8.313 -0.1113 -0.0848  0.6733
23926SOL    HW175055   5.697  10.365   8.247 -3.9474 -0.5649 -0.8353
23926SOL    HW275056   5.728  10.503   8.303  0.5585 -0.8817 -2.1327
23927SOL     OW75057   8.075   6.437   5.453  0.0546  0.4658 -0.1167
23927SOL    HW175058   7.994   6.425   5.404  0.6980 -1.8955 -0.7148
23927SOL    HW275059   8.054   6.407   5.542  0.3535 -0.5567 -0.3784
23928SOL     OW75060   1.934   6.009   3.249 -0.1180 -0.0595  0.0874
23928SOL    HW175061   1.877   5.938   3.221 -2.4567  2.5449 -2.3010
23928SOL    HW275062   1.975   5.977   3.329 -0.2176 -4.4140 -1.3725
23929SOL     OW75063   0.225   9.994   3.113 -0.5757 -0.3750  0.2045
23929SOL    HW175064   0.293   9.927   3.115 -0.2785 -0.1189 -0.9348
23929SOL    HW275065   0.143   9.945   3.111 -0.4753 -0.6866  1.8995
23930SOL     OW75066  11.355   5.367   2.249 -0.3313  0.6432  0.1930
23930SOL    HW175067  11.297   5.442   2.240 -1.3939 -0.3208 -1.4253
23930SOL    HW275068  11.297   5.294   2.271  0.5591  0.0811  0.7751
23931SOL     OW75069   4.306   6.997   5.509  0.2279  0.1014 -0.2463
23931SOL    HW175070   4.211   6.996   5.518  0.3051  1.3453  0.9661
23931SOL    HW275071   4.339   6.993   5.599  1.4012 -2.9231 -0.6900
23932SOL     OW75072   4.803   3.983  10.773 -0.0303 -0.7515 -0.6292
23932SOL    HW175073   4.733   4.047  10.762  0.4425 -0.0861  0.1150
23932SOL    HW275074   4.758   3.898  10.772 -0.8801 -0.3325 -0.0146
23933SOL     OW75075   5.666   2.680   7.055  0.4300  1.0494  0.0784
23933SOL    HW175076   5.670   2.585   7.067 -0.6186  1.1959  2.2006
23933SOL    HW275077   5.586   2.694   7.003 -0.6429  0.8259  1.5885
23934SOL     OW75078   8.366   7.741   8.152  0.0212 -0.2959  0.7686
23934SOL    HW175079   8.459   7.723   8.142  0.1958  1.1422 -0.5521
23934SOL    HW275080   8.325   7.654   8.155  1.0378 -1.0209 -2.5731
23935SOL     OW75081   5.959   5.912   9.158 -0.1602  0.6516 -0.2581
23935SOL    HW175082   5.965   5.830   9.208  0.6481 -0.0302 -1.4375
23935SOL    HW275083   6.010   5.895   9.079  0.5987  2.5388 -0.2084
23936SOL     OW75084   5.136   2.767   7.193 -0.1052  0.5770  0.6697
23936SOL    HW175085   5.087   2.838   7.150  0.1254  0.2652 -0.1209
23936SOL    HW275086   5.150   2.702   7.123 -1.1517 -0.6972  1.5949
23937SOL     OW75087   6.909   2.009   4.577 -0.0170  0.7805 -0.5492
23937SOL    HW175088   6.829   1.994   4.627 -0.1580  0.2615 -0.9210
23937SOL    HW275089   6.979   1.978   4.634 -0.3288 -1.9306 -1.4697
23938SOL     OW75090   2.846   0.936   4.079 -0.4275 -0.5747 -0.0645
23938SOL    HW175091   2.800   0.879   4.140  0.0064  0.2303  1.0567
23938SOL    HW275092   2.778   0.991   4.041 -0.7107 -1.1297 -0.3626
23939SOL     OW75093   1.887   8.951   0.993  0.1306 -0.0516  0.2406
23939SOL    HW175094   1.959   8.898   0.960  0.0715 -0.1970  0.3441
23939SOL    HW275095   1.814   8.889   1.005 -0.0509  0.1177  0.0083
23940SOL     OW75096   3.899   8.469   7.547 -0.2614 -0.6594  0.2712
23940SOL    HW175097   3.933   8.556   7.569 -0.0848 -0.9077  1.0038
23940SOL    HW275098   3.804   8.480   7.548 -0.2531 -0.0258 -1.5204
23941SOL     OW75099   7.066   8.320  10.740 -0.0006 -0.2016 -0.4537
23941SOL    HW175100   7.052   8.414  10.729  1.0987  0.1775  1.0569
23941SOL    HW275101   6.978   8.283  10.751 -0.3528  0.8929  0.5755
23942SOL     OW75102   6.893   5.680   3.576  0.0607  0.2417  0.2665
23942SOL    HW175103   6.815   5.692   3.522 -0.3539 -0.2999  0.7233
23942SOL    HW275104   6.860   5.682   3.666  0.6462  0.4912  0.4780
23943SOL     OW75105  10.099   9.952   7.849 -0.2769 -0.6948 -1.0460
23943SOL    HW175106  10.045  10.027   7.873  0.3835 -0.3445 -0.6215
23943SOL    HW275107  10.187   9.975   7.879 -0.3692 -2.3370  0.6442
23944SOL     OW75108  10.705   0.766   7.179  0.2800 -0.5494 -0.4717
23944SOL    HW175109  10.638   0.731   7.237  1.1682  0.0377  0.9666
23944SOL    HW275110  10.657   0.799   7.103 -1.1976  0.8140  0.9754
23945SOL     OW75111   9.677   3.405   7.551 -0.2720 -0.2123  0.2030
23945SOL    HW175112   9.603   3.411   7.490 -1.0713 -2.0401  0.9250
23945SOL    HW275113   9.747   3.366   7.499 -0.2500  0.2366 -0.1116
23946SOL     OW75114   3.506  10.122   8.967  0.1071  0.2152  0.4936
23946SOL    HW175115   3.539  10.179   9.036  1.1973  1.9886 -1.3736
23946SOL    HW275116   3.415  10.104   8.991 -0.2497  2.6874  1.2428
23947SOL     OW75117   9.765   1.814   8.183  0.1129  0.4891 -0.0744
23947SOL    HW175118   9.744   1.792   8.274 -3.6854 -0.4396 -0.9785
23947SOL    HW275119   9.765   1.730   8.137  4.5961  0.5983 -0.7185
23948SOL     OW75120   3.879   7.175  10.577 -0.4046 -0.1525 -0.0162
23948SOL    HW175121   3.887   7.248  10.639 -1.1962  0.0899 -0.1956
23948SOL    HW275122   3.881   7.097  10.631 -1.5993  0.0723  0.3819
23949SOL     OW75123   5.110   3.570  11.273 -0.1914  0.0952  0.2116
23949SOL    HW175124   5.034   3.560  11.330 -1.4803  2.1583 -1.0303
23949SOL    HW275125   5.077   3.551  11.185  1.3713 -1.4359 -0.1196
23950SOL     OW75126   1.415   9.076   5.301  0.0301 -0.0571 -0.5043
23950SOL    HW175127   1.359   9.002   5.324 -0.6172  0.3752 -0.6889
23950SOL    HW275128   1.390   9.146   5.362 -1.0208  0.7776 -1.8328
23951SOL     OW75129   4.813   1.864   9.686 -0.6132 -0.5304 -0.1474
23951SOL    HW175130   4.740   1.809   9.714 -1.4390  0.7789  0.3871
23951SOL    HW275131   4.773   1.951   9.672  0.6938  0.0137 -0.6395
23952SOL     OW75132  11.356   1.621   6.270  0.0235  0.1194  0.1796
23952SOL    HW175133  11.312   1.537   6.285  0.5135 -0.1167  0.3073
23952SOL    HW275134  11.350   1.634   6.175 -0.6885  0.2966  0.2428
23953SOL     OW75135   8.045   4.672   8.807 -0.0255 -0.8029 -0.5216
23953SOL    HW175136   8.037   4.751   8.752 -1.0631 -0.7233 -0.2810
23953SOL    HW275137   8.124   4.629   8.775  0.8060  0.5524 -0.3794
23954SOL     OW75138   3.778   8.002   4.163 -0.0610  0.3439 -0.4441
23954SOL    HW175139   3.842   8.074   4.163  2.5799 -1.8252 -1.9612
23954SOL    HW275140   3.697   8.043   4.193  1.5111  3.7201 -0.2822
23955SOL     OW75141   8.265   6.572   2.796 -0.0809 -0.0718  0.6454
23955SOL    HW175142   8.184   6.596   2.752  0.8838  1.2974 -0.4679
23955SOL    HW275143   8.247   6.486   2.834 -1.4717 -0.6337 -1.1346
23956SOL     OW75144   8.382   2.967   9.566  0.5285 -0.7523 -0.2676
23956SOL    HW175145   8.366   2.995   9.657 -0.1307  0.8263 -0.8222
23956SOL    HW275146   8.452   3.026   9.536  0.5581 -1.0916 -0.8617
23957SOL     OW75147   0.910   0.085   3.859  0.2906  0.1166 -0.1114
23957SOL    HW175148   0.911   0.155   3.924  0.3097  0.2854 -0.2911
23957SOL    HW275149   0.831   0.100   3.808 -0.1242 -0.4631  0.3469
23958SOL     OW75150   9.148   7.530   3.247  0.2713  0.0989  0.2400
23958SOL    HW175151   9.106   7.479   3.178 -0.0029  0.5105  0.1029
23958SOL    HW275152   9.233   7.555   3.210 -0.6452  1.9703 -0.7088
23959SOL     OW75153   2.210   4.285   5.322  0.0055  1.3034 -0.1531
23959SOL    HW175154   2.288   4.269   5.269 -0.3000  2.4262 -0.9765
23959SOL    HW275155   2.244   4.323   5.404  0.5173 -0.8949  0.7366
23960SOL     OW75156   1.883   7.629   1.692 -0.4686  0.1994  0.1904
23960SOL    HW175157   1.920   7.717   1.685 -0.1022  0.1434  1.3167
23960SOL    HW275158   1.935   7.586   1.759 -1.4245 -0.4829  0.5202
23961SOL     OW75159   0.040  10.040  11.034 -0.1922  0.7681 -0.3449
23961SOL    HW175160   0.084  10.073  11.112  0.0361 -0.9276  0.2966
23961SOL    HW275161   0.097  10.066  10.962  0.3142  1.1716  0.1848
23962SOL     OW75162  10.442   7.694   1.672 -0.1208 -0.4217  0.2502
23962SOL    HW175163  10.454   7.680   1.766 -2.9762 -1.0170  0.6217
23962SOL    HW275164  10.482   7.618   1.631 -0.9655 -1.4169  1.1991
23963SOL     OW75165   8.253   3.479  10.460 -0.1271  0.2692  0.0048
23963SOL    HW175166   8.219   3.445  10.378  0.3714 -1.0378  0.3166
23963SOL    HW275167   8.208   3.563  10.472 -0.9455  0.0046 -1.0891
23964SOL     OW75168  10.934   8.392   5.991  0.4301  0.2479 -0.3037
23964SOL    HW175169  11.002   8.345   5.942  0.7049 -1.7374  1.8115
23964SOL    HW275170  10.852   8.350   5.965  0.7980 -2.8662  2.7789
23965SOL     OW75171   9.252   5.364   5.377 -0.1589  0.3207  0.8923
23965SOL    HW175172   9.244   5.269   5.384 -1.6206  0.3321 -0.1105
23965SOL    HW275173   9.224   5.397   5.462 -0.2457 -0.1176  1.0353
23966SOL     OW75174   7.541   2.745   8.024  0.2493  0.0241 -0.2257
23966SOL    HW175175   7.615   2.713   7.972  0.7650 -0.0447  0.5335
23966SOL    HW275176   7.480   2.671   8.027  1.1720 -0.7162  1.0283
23967SOL     OW75177   4.387   3.690   0.504 -0.2809 -0.8009  0.2478
23967SOL    HW175178   4.383   3.784   0.523 -1.9571 -1.1225  1.6962
23967SOL    HW275179   4.318   3.651   0.557 -0.6709 -2.6895 -1.4936
23968SOL     OW75180   0.495   6.926   4.059  0.6402  0.6593 -0.0485
23968SOL    HW175181   0.470   6.835   4.046 -0.3743  0.9972 -0.5469
23968SOL    HW275182   0.528   6.929   4.149  0.7934 -0.2114 -0.0631
23969SOL     OW75183  11.140   9.117   7.810  0.1766 -0.2404  0.1031
23969SOL    HW175184  11.229   9.151   7.820  0.1199  0.6983 -1.9566
23969SOL    HW275185  11.149   9.045   7.747 -0.8101  1.7204 -2.4416
23970SOL     OW75186   9.322   6.446   7.018  0.0484  0.0837 -0.0966
23970SOL    HW175187   9.240   6.432   7.067 -0.1017  0.5620 -0.2090
23970SOL    HW275188   9.340   6.361   6.978  0.6609 -0.6018  1.5174
23971SOL     OW75189   0.954   1.817   1.269  0.2889  0.0135 -0.2915
23971SOL    HW175190   1.022   1.816   1.201 -0.2334  0.0960 -0.8223
23971SOL    HW275191   0.983   1.751   1.332  1.7757  1.2826  0.4243
23972SOL     OW75192  10.966   9.427   7.410  0.2481  0.0501 -0.4188
23972SOL    HW175193  11.026   9.496   7.438 -1.2070  3.0638 -4.0462
23972SOL    HW275194  10.880   9.468   7.409 -0.7890 -1.9817 -2.1846
23973SOL     OW75195   6.917   1.420   3.657 -0.3371 -0.5475 -0.2593
23973SOL    HW175196   6.885   1.338   3.693  1.0970 -0.9855  0.0394
23973SOL    HW275197   6.909   1.409   3.562  0.7306 -1.4072 -0.2595
23974SOL     OW75198   9.337   0.512   1.688  0.9711 -0.5519 -0.0913
23974SOL    HW175199   9.381   0.507   1.602  1.9354 -1.1699  0.4212
23974SOL    HW275200   9.375   0.440   1.738 -2.2163 -2.5666 -0.3006
23975SOL     OW75201   7.314   3.047   4.269 -0.2250 -0.1810  0.0043
23975SOL    HW175202   7.275   2.990   4.203 -3.4439  1.3188  0.3768
23975SOL    HW275203   7.348   3.121   4.219 -0.0594 -0.3761 -0.1727
23976SOL     OW75204   0.968   5.178   4.000  0.7176  0.2386 -0.6292
23976SOL    HW175205   1.020   5.101   4.024 -0.3000 -0.5223 -0.8151
23976SOL    HW275206   1.033   5.244   3.978  1.6177 -0.4842 -0.2190
23977SOL     OW75207  10.643   6.737   2.013 -0.0288  0.0924  0.5078
23977SOL    HW175208  10.648   6.785   1.930 -0.5734 -1.5146 -0.5143
23977SOL    HW275209  10.677   6.798   2.078  1.0337  1.1756 -0.9879
23978SOL     OW75210   4.205   8.655   0.003  0.5620 -0.2504 -0.1511
23978SOL    HW175211   4.181   8.577   0.052 -3.5931  0.9172  0.0883
23978SOL    HW275212   4.203   8.726   0.068  0.1377  0.5714 -1.0237
23979SOL     OW75213   8.537   8.975   8.640 -0.4384  0.1584 -0.1625
23979SOL    HW175214   8.570   9.004   8.725  1.2038  2.9483 -1.5749
23979SOL    HW275215   8.560   8.882   8.636  0.1472  0.1449  2.0999
23980SOL     OW75216   6.834   6.648   2.809 -0.0614 -0.0674 -0.3389
23980SOL    HW175217   6.915   6.648   2.758  0.6244  0.8625  0.7011
23980SOL    HW275218   6.786   6.725   2.779  0.4298  0.5902  0.5105
23981SOL     OW75219   0.979   9.236   2.884  0.2573 -0.1078 -0.6772
23981SOL    HW175220   0.888   9.213   2.863 -0.1210  2.3829 -2.1342
23981SOL    HW275221   1.031   9.176   2.830 -0.5134 -1.0172 -0.4449
23982SOL     OW75222   9.829   0.542   8.084 -0.0062  0.1209 -0.2605
23982SOL    HW175223   9.885   0.520   8.159 -0.1237 -0.2541 -0.2862
23982SOL    HW275224   9.787   0.460   8.060 -0.6653  0.4271 -0.1671
23983SOL     OW75225   4.280   3.882   8.781 -0.2165 -0.2759 -0.1352
23983SOL    HW175226   4.344   3.949   8.759 -0.1102 -0.6054 -0.8253
23983SOL    HW275227   4.324   3.799   8.765 -0.3222 -0.5290  0.7887
23984SOL     OW75228   1.517   1.140   5.121  0.0575 -0.1425 -0.2960
23984SOL    HW175229   1.605   1.177   5.106  0.0919  0.1465  0.6000
23984SOL    HW275230   1.533   1.059   5.169 -0.1924  0.1131  0.2197
23985SOL     OW75231   7.915   2.424   3.838  0.1800  0.3613 -0.0698
23985SOL    HW175232   7.988   2.457   3.785 -1.4513  2.3406 -1.2271
23985SOL    HW275233   7.844   2.411   3.775 -0.5943 -1.2171  1.0767
23986SOL     OW75234   2.695   2.027   1.622 -0.0157  0.0526  0.2630
23986SOL    HW175235   2.780   2.010   1.582 -0.5610 -1.6914 -0.2408
23986SOL    HW275236   2.634   2.033   1.549 -0.3702  1.1939  0.6262
23987SOL     OW75237   6.483  10.364   4.743 -0.1521  0.1682  0.3274
23987SOL    HW175238   6.414  10.421   4.777  0.6157  1.6119 -0.4318
23987SOL    HW275239   6.444  10.321   4.667 -0.3331  0.7229  0.1006
23988SOL     OW75240   8.229   2.694  10.420 -0.0390 -0.2914 -0.1692
23988SOL    HW175241   8.274   2.718  10.501  1.6954 -1.7644 -0.6163
23988SOL    HW275242   8.161   2.633  10.447  0.1210 -0.2836  0.2595
23989SOL     OW75243   6.953   1.013   9.738 -0.1976 -0.1373 -0.4036
23989SOL    HW175244   7.003   1.094   9.725  1.3760 -0.6054  2.0621
23989SOL    HW275245   7.019   0.944   9.734 -1.2466 -1.1435 -0.7388
23990SOL     OW75246   2.430   0.307   5.954  0.0802  0.1789 -0.0539
23990SOL    HW175247   2.430   0.271   6.043 -0.0922 -0.9172 -0.4734
23990SOL    HW275248   2.439   0.401   5.966 -2.9853  0.4122  1.2670
23991SOL     OW75249  11.079   6.652   2.169 -0.1482 -0.1373 -0.0283
23991SOL    HW175250  10.986   6.647   2.143  0.0247 -2.0243 -0.4680
23991SOL    HW275251  11.079   6.704   2.249 -1.7180 -0.8340  0.4637
23992SOL     OW75252   5.178   6.168   7.011 -0.5096  0.1785  0.0519
23992SOL    HW175253   5.218   6.255   7.005  0.3460 -0.1641  0.5538
23992SOL    HW275254   5.184   6.146   7.104 -1.3629 -0.1241  0.0370
23993SOL     OW75255   4.715   6.455   2.521  0.0299 -0.3680  0.4060
23993SOL    HW175256   4.644   6.515   2.497  1.2386  1.7365  1.7336
23993SOL    HW275257   4.688   6.419   2.606 -0.2874 -1.0326  0.0282
23994SOL     OW75258   1.359   4.219   0.111 -0.0912 -0.9749  0.2060
23994SOL    HW175259   1.372   4.314   0.109 -1.7142 -0.7295 -0.7651
23994SOL    HW275260   1.319   4.203   0.196  3.5887 -1.3939  2.0737
23995SOL     OW75261   7.314   3.666   8.560 -0.2762  0.2476  0.4524
23995SOL    HW175262   7.379   3.612   8.606  1.5600  2.9082  1.1964
23995SOL    HW275263   7.290   3.734   8.624 -1.1422  1.3813 -1.0277
23996SOL     OW75264   0.519   2.331   3.156 -0.0914  0.4243  0.2086
23996SOL    HW175265   0.559   2.263   3.211  1.0042  0.4326 -0.5445
23996SOL    HW275266   0.425   2.323   3.173  0.1391 -0.2508  1.2930
23997SOL     OW75267   5.494   2.041  10.447  0.4133  0.2224 -0.3135
23997SOL    HW175268   5.497   2.127  10.490  2.1819  0.7929 -1.4789
23997SOL    HW275269   5.469   2.061  10.357  2.4216 -0.2766 -1.0097
23998SOL     OW75270   2.235   5.902   0.257 -0.1291 -0.6425  0.5326
23998SOL    HW175271   2.231   5.819   0.210 -1.3676 -0.6723  0.6700
23998SOL    HW275272   2.191   5.885   0.341  0.1561 -0.0175  0.8196
23999SOL     OW75273   6.503   4.264   1.778 -0.0527  0.0931  0.6108
23999SOL    HW175274   6.512   4.169   1.775  0.5715  0.1354  0.9456
23999SOL    HW275275   6.427   4.279   1.835 -0.8260 -0.2235 -0.3121
24000SOL     OW75276   8.275   1.756   8.784  0.8217  0.1416 -0.5262
24000SOL    HW175277   8.346   1.692   8.793  0.8980  0.4462  1.4590
24000SOL    HW275278   8.201   1.716   8.830  0.6985  1.2369  0.2521
24001SOL     OW75279   6.599   1.894   4.461 -0.3392  0.3794 -0.0203
24001SOL    HW175280   6.632   1.860   4.545  1.6629 -0.9482 -1.2549
24001SOL    HW275281   6.527   1.836   4.438 -0.5968  0.4639  0.5588
24002SOL     OW75282   0.819   7.962   2.993  0.4486 -0.6509  0.2515
24002SOL    HW175283   0.874   8.015   2.935 -0.7249  0.9612  0.5527
24002SOL    HW275284   0.730   7.989   2.973 -0.2229 -2.6030  0.3753
24003SOL     OW75285  10.278   3.275   1.014  1.1468 -0.0557 -0.2143
24003SOL    HW175286  10.326   3.276   1.096  1.0556 -0.1076 -0.1597
24003SOL    HW275287  10.267   3.182   0.993 -0.2946 -0.0887  0.5845
24004SOL     OW75288   2.462   7.766   2.962  0.2736  0.2866 -0.5932
24004SOL    HW175289   2.504   7.682   2.948  0.7079  0.4881 -0.5041
24004SOL    HW275290   2.513   7.828   2.910  0.1572  0.5489 -0.3988
24005SOL     OW75291  10.792   6.922   2.338 -0.1303  0.7747  0.3065
24005SOL    HW175292  10.793   6.975   2.417 -1.1831 -0.1324  0.9562
24005SOL    HW275293  10.851   6.849   2.357 -0.0691  0.7677  0.0961
24006SOL     OW75294  10.441  10.813   3.166 -0.1546  0.3681  0.5378
24006SOL    HW175295  10.455  10.904   3.140  1.6685 -0.1567 -0.5717
24006SOL    HW275296  10.473  10.808   3.256 -0.4256  0.8484  0.6630
24007SOL     OW75297   8.640   5.499  10.186 -0.6293  0.3345 -0.0418
24007SOL    HW175298   8.654   5.405  10.177  3.6505  0.2775  3.7282
24007SOL    HW275299   8.570   5.507  10.251  0.0153 -0.3483  0.7571
24008SOL     OW75300   2.385   3.809   9.595  0.0371  0.0647  0.1754
24008SOL    HW175301   2.339   3.740   9.547  1.2782 -0.4384 -0.3232
24008SOL    HW275302   2.431   3.763   9.664  0.8760  0.3922 -0.1602
24009SOL     OW75303   7.025   0.458   5.602 -0.2273 -0.0907 -0.3346
24009SOL    HW175304   7.015   0.365   5.623 -0.6890 -0.5080 -2.1762
24009SOL    HW275305   7.081   0.459   5.524 -0.1589  1.1798 -0.2889
24010SOL     OW75306   4.180   8.792   9.532 -0.1330  0.0359  0.2070
24010SOL    HW175307   4.192   8.874   9.484  1.6267 -0.4211 -0.2032
24010SOL    HW275308   4.256   8.786   9.589  0.1611 -1.6824 -0.3190
24011SOL     OW75309   1.985   6.662   5.709 -0.0829 -0.1173  0.0262
24011SOL    HW175310   1.930   6.630   5.780 -0.5286  1.3527  0.3798
24011SOL    HW275311   1.940   6.634   5.629 -0.7267  0.0683  0.3208
24012SOL     OW75312   7.840   3.980   3.577  0.8432 -0.0548 -0.1747
24012SOL    HW175313   7.802   3.895   3.553  1.3037 -0.3994  0.3000
24012SOL    HW275314   7.888   3.963   3.657 -0.7026  1.0915  1.0578
24013SOL     OW75315   3.235   7.321   9.236  0.3077  0.6373 -0.2691
24013SOL    HW175316   3.252   7.412   9.209 -0.4812  0.5239 -1.2076
24013SOL    HW275317   3.294   7.269   9.181  1.4845  0.6125  0.9598
24014SOL     OW75318  10.616   3.290   7.889  0.7142  0.4506 -0.0258
24014SOL    HW175319  10.645   3.363   7.944  0.3673 -0.0365  0.8225
24014SOL    HW275320  10.530   3.316   7.858 -0.3165 -0.4562  1.9586
24015SOL     OW75321   6.164   7.456   8.555 -0.0140  0.0376 -0.0480
24015SOL    HW175322   6.182   7.513   8.480 -0.0448  0.9156  0.5998
24015SOL    HW275323   6.075   7.479   8.582 -0.5601 -1.2827 -0.6031
24016SOL     OW75324   8.517   2.716   4.721 -0.6048 -0.3785  0.5822
24016SOL    HW175325   8.561   2.632   4.706  1.4399  0.6375  0.5626
24016SOL    HW275326   8.522   2.729   4.815 -0.2195  0.0845  0.4973
24017SOL     OW75327   9.851   1.974   5.681 -0.3549 -0.7569  0.2685
24017SOL    HW175328   9.768   2.016   5.705  0.8007  1.8237  0.1516
24017SOL    HW275329   9.866   1.911   5.751 -1.4232  0.2193  1.4485
24018SOL     OW75330   5.991  10.828   8.436 -0.1552 -0.4389 -0.2885
24018SOL    HW175331   5.976  10.836   8.342  0.6645  0.2700 -0.3610
24018SOL    HW275332   6.040  10.747   8.446  0.5597 -0.0423 -0.5656
24019SOL     OW75333   9.277   4.145   9.520 -0.0636 -0.2292  0.0450
24019SOL    HW175334   9.303   4.083   9.452  0.0658  0.8020 -0.8936
24019SOL    HW275335   9.347   4.141   9.584 -0.7980 -2.1410  0.7984
24020SOL     OW75336   6.417   2.859   6.824 -0.6537 -0.0630  0.7430
24020SOL    HW175337   6.490   2.815   6.867 -0.5388 -1.2026 -0.5458
24020SOL    HW275338   6.342   2.801   6.837 -0.6362 -0.3838 -0.4849
24021SOL     OW75339   6.656   6.123   9.177 -0.1739  0.3735 -0.1907
24021SOL    HW175340   6.595   6.188   9.143  0.7820  0.7155 -1.3199
24021SOL    HW275341   6.673   6.065   9.103  0.3735 -0.0927  0.2952
24022SOL     OW75342   4.916   7.928   9.213  0.3803 -0.0485 -0.1051
24022SOL    HW175343   4.901   8.008   9.162 -1.6078  0.7051  1.5211
24022SOL    HW275344   4.978   7.954   9.281  1.1386 -0.4088 -0.6402
24023SOL     OW75345   3.901  11.193   8.029 -0.5494 -0.4244 -0.0375
24023SOL    HW175346   3.822  11.236   7.996 -1.1315 -0.0215  1.7491
24023SOL    HW275347   3.916  11.120   7.968 -1.2880  0.5056 -1.3897
24024SOL     OW75348   1.905  11.209   2.852 -0.1972 -0.2315  0.2003
24024SOL    HW175349   1.962  11.160   2.793 -1.2051 -0.2089 -0.8338
24024SOL    HW275350   1.854  11.142   2.898  0.6498 -0.2527  1.1432
24025SOL     OW75351   1.360  11.132   7.024 -0.3535 -0.5269 -0.1191
24025SOL    HW175352   1.454  11.143   7.008 -0.5400 -0.6223 -1.3463
24025SOL    HW275353   1.351  11.141   7.119  0.8462 -0.1544 -0.0235
24026SOL     OW75354   1.747   4.249   8.256  0.3935  0.3194  0.5470
24026SOL    HW175355   1.736   4.285   8.167 -1.4226 -1.4600 -0.0144
24026SOL    HW275356   1.757   4.155   8.242 -1.7532 -0.2485  2.2824
24027SOL     OW75357   1.487   3.070   7.851  0.1962  0.2568  0.6889
24027SOL    HW175358   1.496   3.161   7.879  0.1034 -0.1485  2.0892
24027SOL    HW275359   1.489   3.075   7.755 -0.0925  1.7541  0.7287
24028SOL     OW75360   6.667   2.570   3.986 -0.3773 -0.0710 -0.1011
24028SOL    HW175361   6.579   2.563   4.024  0.0035 -0.1306  0.7955
24028SOL    HW275362   6.704   2.649   4.027  1.6228 -2.3891  3.0467
24029SOL     OW75363   6.497   5.795   8.365  0.0112  0.0722 -0.5145
24029SOL    HW175364   6.575   5.789   8.420  0.5277  0.9795 -1.1231
24029SOL    HW275365   6.476   5.888   8.363 -0.5256 -0.0529 -1.1382
24030SOL     OW75366   7.372   8.639   2.742 -0.0947  0.3831 -0.4519
24030SOL    HW175367   7.337   8.647   2.654 -1.2264 -0.0507 -0.0658
24030SOL    HW275368   7.353   8.723   2.783 -1.8326 -0.2395  0.1232
24031SOL     OW75369   4.051   3.131   4.357 -0.1787 -0.1666  0.5437
24031SOL    HW175370   4.067   3.178   4.439  0.0908 -1.0704  1.0282
24031SOL    HW275371   3.975   3.076   4.377  0.5812 -1.2366  0.5653
24032SOL     OW75372   9.334   3.847   1.959 -0.2088  0.9552 -0.6999
24032SOL    HW175373   9.289   3.860   1.876 -1.4396 -1.2966 -0.4409
24032SOL    HW275374   9.410   3.793   1.937  0.6309  2.0741 -0.6390
24033SOL     OW75375  10.902   8.961   7.851 -0.7248 -0.3655  0.3226
24033SOL    HW175376  10.841   9.034   7.865 -0.9807  0.0669 -2.4080
24033SOL    HW275377  10.971   8.998   7.796 -0.4646 -1.9704 -0.4988
24034SOL     OW75378   0.805  10.707   7.317  0.2545 -0.0963  0.2183
24034SOL    HW175379   0.765  10.791   7.339 -1.7101 -0.8124 -0.4102
24034SOL    HW275380   0.768  10.646   7.381 -0.4086 -0.9472 -0.9331
24035SOL     OW75381   7.409   2.720   3.936 -0.0703 -0.4441 -0.1274
24035SOL    HW175382   7.430   2.636   3.896  2.5465 -0.2764  0.6682
24035SOL    HW275383   7.432   2.708   4.029 -1.9854  0.4335  0.5047
24036SOL     OW75384   8.666   4.901   7.793  0.3104  0.1859  0.0233
24036SOL    HW175385   8.695   4.991   7.776 -0.3247  0.1960 -1.1363
24036SOL    HW275386   8.572   4.908   7.809  0.5971 -0.0510  2.0191
24037SOL     OW75387   8.030   5.174   1.943 -0.0119  0.0025 -0.4401
24037SOL    HW175388   8.034   5.216   2.030  0.2439 -1.5229  0.3122
24037SOL    HW275389   8.000   5.244   1.885  0.1497  1.1630  0.8090
24038SOL     OW75390   3.871   4.711   5.020 -0.1215 -0.0214 -0.1291
24038SOL    HW175391   3.792   4.701   5.073 -1.0272 -0.1014 -1.4486
24038SOL    HW275392   3.891   4.804   5.026  0.9158 -0.3025  1.8498
24039SOL     OW75393   0.698   5.844  11.088  0.1967  0.0938  0.2578
24039SOL    HW175394   0.678   5.755  11.118 -0.5108  0.0761 -0.2300
24039SOL    HW275395   0.622   5.868  11.034  1.7910 -0.2889 -2.3487
24040SOL     OW75396   4.820   4.557   6.990 -0.1997  0.2890  0.3505
24040SOL    HW175397   4.769   4.482   6.960  1.1870 -0.0621 -1.3014
24040SOL    HW275398   4.911   4.527   6.990  0.1881  1.3152  1.8456
24041SOL     OW75399   7.372   0.944   5.872 -0.0614 -0.5767  0.3621
24041SOL    HW175400   7.296   0.946   5.931  1.4541 -0.0054  2.4288
24041SOL    HW275401   7.361   1.021   5.817 -0.2885  0.3428  1.6335
24042SOL     OW75402   0.645   5.234   4.547 -0.2208  0.3738  0.2894
24042SOL    HW175403   0.673   5.317   4.509  0.0836 -0.2713 -0.9346
24042SOL    HW275404   0.725   5.183   4.557 -0.5010 -0.0787  0.2610
24043SOL     OW75405   2.890   4.075   1.083 -0.2678  0.1754 -0.3537
24043SOL    HW175406   2.879   3.981   1.099 -0.2408  0.2606  0.1607
24043SOL    HW275407   2.837   4.091   1.005 -3.5256  0.4719  1.7424
24044SOL     OW75408   2.557   3.931   5.617  0.1136 -0.4817  0.2640
24044SOL    HW175409   2.534   4.024   5.623 -0.6469 -0.6697  0.3507
24044SOL    HW275410   2.651   3.931   5.599 -0.0308  0.3221 -0.5644
24045SOL     OW75411   6.052   9.753  10.534  0.3469  0.4163  0.0337
24045SOL    HW175412   5.978   9.786  10.484  0.5750  0.7442 -0.0904
24045SOL    HW275413   6.065   9.817  10.604  0.2293  0.1254  0.3241
24046SOL     OW75414   0.484   2.963   5.897 -0.3612 -0.2833  0.1524
24046SOL    HW175415   0.549   2.944   5.830 -0.3351 -2.4676  0.7082
24046SOL    HW275416   0.442   3.044   5.869  2.3549  1.0371 -0.3734
24047SOL     OW75417   1.350  10.832   7.451  0.2428  0.5073  0.2006
24047SOL    HW175418   1.389  10.767   7.510  0.9768  1.1613  0.4405
24047SOL    HW275419   1.375  10.803   7.363 -0.6833 -0.3575  0.1990
24048SOL     OW75420   5.902   3.335   7.845  0.2662  0.0427  0.6743
24048SOL    HW175421   5.817   3.376   7.858  0.2729  0.2841 -0.0072
24048SOL    HW275422   5.952   3.398   7.794  0.5600 -0.4586  0.3337
24049SOL     OW75423   4.332   6.474   7.988  0.0410 -0.2986  0.1677
24049SOL    HW175424   4.327   6.426   8.071 -1.8605  2.5708  1.9280
24049SOL    HW275425   4.260   6.438   7.935 -0.5757 -0.2584  0.9510
24050SOL     OW75426   6.376   6.101   3.648 -0.1409  0.3543 -0.7200
24050SOL    HW175427   6.397   6.057   3.565 -0.3407 -2.2761  0.5026
24050SOL    HW275428   6.379   6.194   3.628  1.5133 -0.1463 -3.2667
24051SOL     OW75429  10.520   4.695   4.333 -0.2064  0.1728  0.1665
24051SOL    HW175430  10.453   4.748   4.377  2.3114  1.2631  2.9876
24051SOL    HW275431  10.496   4.604   4.354 -1.1129  0.5031  0.6136
24052SOL     OW75432   7.179   7.979   5.586 -0.3186 -0.5215 -0.2902
24052SOL    HW175433   7.181   7.887   5.560  1.3300 -0.8016  0.7174
24052SOL    HW275434   7.150   7.978   5.677  0.3086 -0.1019 -0.0768
24053SOL     OW75435  10.491   0.443   5.314  0.7256  0.3443  0.8408
24053SOL    HW175436  10.558   0.474   5.254 -0.0646 -1.0211 -0.8186
24053SOL    HW275437  10.523   0.358   5.345 -0.2891 -0.4595 -0.1871
24054SOL     OW75438   1.980   2.610   9.098 -0.5089 -0.4800 -0.2853
24054SOL    HW175439   1.989   2.642   9.008 -0.3011 -1.6348 -0.6844
24054SOL    HW275440   1.939   2.524   9.089  0.8176 -1.2328  0.6258
24055SOL     OW75441   6.495   8.972   5.889 -0.7133 -0.0014  0.4345
24055SOL    HW175442   6.445   9.032   5.945 -1.1720  0.1565 -0.1398
24055SOL    HW275443   6.527   9.027   5.818  0.5217 -0.0401  0.9350
24056SOL     OW75444   3.095   5.044   2.914 -0.1190  0.2618  0.0699
24056SOL    HW175445   3.049   4.965   2.887 -1.5403  0.8563  0.6575
24056SOL    HW275446   3.188   5.022   2.906 -0.3491  0.0235 -4.2154
24057SOL     OW75447  11.027   0.749   6.696 -0.3376  0.1628 -0.2490
24057SOL    HW175448  11.088   0.701   6.641  0.5627  0.7249  0.2438
24057SOL    HW275449  10.965   0.682   6.727 -0.1284 -0.3602 -0.9477
24058SOL     OW75450   0.215   4.887   8.426  0.3681  0.3069  0.3724
24058SOL    HW175451   0.251   4.814   8.477  0.7970 -1.0725 -1.7993
24058SOL    HW275452   0.133   4.908   8.471  0.1913 -1.5629  1.0395
24059SOL     OW75453   6.829   3.950   1.035 -0.5961  0.3129 -0.1013
24059SOL    HW175454   6.815   3.994   1.119 -2.1950 -0.7340  0.2369
24059SOL    HW275455   6.822   3.857   1.056  1.4668 -0.0846 -1.0052
24060SOL     OW75456  10.796   5.146   5.505 -0.2450  0.5553  0.3624
24060SOL    HW175457  10.812   5.208   5.576 -1.3407  0.5390  0.6446
24060SOL    HW275458  10.823   5.062   5.541  0.0273  0.6753  0.4446
24061SOL     OW75459   5.959   2.929   2.166  0.6558  0.0541  0.6332
24061SOL    HW175460   6.033   2.869   2.152  1.0011  0.9048 -1.8706
24061SOL    HW275461   5.882   2.875   2.153  0.9437 -0.1281 -0.4570
24062SOL     OW75462   2.240   7.129   4.722  0.1258  0.1747 -0.6026
24062SOL    HW175463   2.195   7.076   4.788  1.4251 -0.5626 -0.2667
24062SOL    HW275464   2.307   7.176   4.772  0.4654  0.3819 -1.2452
24063SOL     OW75465   7.712   2.914   5.693 -0.1602 -0.2291  0.1310
24063SOL    HW175466   7.723   2.932   5.599 -0.1497 -1.8310 -0.2025
24063SOL    HW275467   7.702   2.819   5.698  0.7322 -0.2705  1.8455
24064SOL     OW75468   5.754   1.879   7.145 -0.2439 -0.5643  0.4792
24064SOL    HW175469   5.805   1.823   7.202 -1.3506 -0.0482  2.0385
24064SOL    HW275470   5.762   1.838   7.058 -1.1650 -3.2907  1.5605
24065SOL     OW75471   1.498   0.184   1.685 -0.1822 -0.1408  1.0069
24065SOL    HW175472   1.453   0.240   1.623  1.0419 -1.6769 -1.4541
24065SOL    HW275473   1.436   0.172   1.757 -1.7654  1.5453  0.0008
24066SOL     OW75474  10.812   8.515   3.573  0.1935  0.6276  0.1250
24066SOL    HW175475  10.787   8.447   3.511  2.3124 -1.3904  1.3504
24066SOL    HW275476  10.888   8.557   3.533  1.0100 -0.0820  0.8773
24067SOL     OW75477  10.014   4.694   7.616 -0.5453  0.2857  0.1503
24067SOL    HW175478  10.092   4.642   7.637 -0.2011  0.8443  0.2709
24067SOL    HW275479  10.047   4.766   7.563 -1.0360  0.3331 -0.0943
24068SOL     OW75480   5.196   5.423   0.659 -0.5315 -0.3289  0.0296
24068SOL    HW175481   5.103   5.443   0.643 -0.6717 -0.6416  0.4287
24068SOL    HW275482   5.237   5.508   0.671 -1.0135 -0.2262  1.1288
24069SOL     OW75483   7.846   1.367  10.984 -0.0074 -0.3811  0.1894
24069SOL    HW175484   7.936   1.349  11.011 -0.0000 -0.9498 -0.1748
24069SOL    HW275485   7.804   1.406  11.061  0.9328  1.2471 -0.0852
24070SOL     OW75486   2.750   2.847   8.007 -0.0126  0.1539  0.3539
24070SOL    HW175487   2.788   2.769   8.048 -0.1455  0.2023  0.5716
24070SOL    HW275488   2.696   2.813   7.936  2.3035  0.1618 -1.5559
24071SOL     OW75489   4.893   0.919   5.996  0.5083  0.1376 -0.2581
24071SOL    HW175490   4.849   0.841   6.028  0.5558  0.6877  1.2424
24071SOL    HW275491   4.885   0.982   6.068  2.6306  0.6818 -0.4320
24072SOL     OW75492   9.180   4.002  10.405  0.5306  0.4738 -0.0452
24072SOL    HW175493   9.111   4.038  10.348 -0.8930  1.8194  2.3398
24072SOL    HW275494   9.244   4.073  10.413  0.3297  0.5825  0.6193
24073SOL     OW75495   3.038  11.136   8.681 -0.2817  0.2903  0.7386
24073SOL    HW175496   2.992  11.072   8.627  1.0205  0.2566 -0.3779
24073SOL    HW275497   2.987  11.216   8.671 -0.3118  0.1676 -0.2005
24074SOL     OW75498   8.122  10.291   1.967 -0.8357  0.2377  0.0358
24074SOL    HW175499   8.166  10.326   1.890  0.4365  0.3718  0.8024
24074SOL    HW275500   8.030  10.284   1.940 -0.8098  2.3209 -0.7764
24075SOL     OW75501  10.965  10.602   3.709  0.4178 -0.1307 -0.2741
24075SOL    HW175502  11.008  10.659   3.645  2.3680 -1.8025 -0.5549
24075SOL    HW275503  11.028  10.595   3.780 -0.8394  0.0017  0.8833
24076SOL     OW75504   4.529   3.957  11.094  0.2487  0.2925  0.4663
24076SOL    HW175505   4.547   3.972  11.187  0.2896  0.6216  0.4053
24076SOL    HW275506   4.547   4.041  11.052 -2.0178  0.8370  0.4623
24077SOL     OW75507  11.249  10.532   7.850 -0.3364  0.0051 -0.3599
24077SOL    HW175508  11.209  10.470   7.788  0.4570 -1.6663  0.7463
24077SOL    HW275509  11.203  10.516   7.933  2.0023 -1.4122  0.7496
24078SOL     OW75510   5.929   5.501   7.837 -0.0612 -0.0595  0.3538
24078SOL    HW175511   6.007   5.445   7.837 -0.8908 -1.3460 -1.4755
24078SOL    HW275512   5.878   5.469   7.762 -0.4432  3.4303 -1.0479
24079SOL     OW75513   5.557   3.274   1.435  0.0855 -0.2616  0.1577
24079SOL    HW175514   5.633   3.257   1.379 -0.5725  0.7485 -1.0838
24079SOL    HW275515   5.588   3.341   1.497  0.3727 -0.2681  0.0229
24080SOL     OW75516   2.211   7.807   7.069 -0.3552  0.2454  0.4499
24080SOL    HW175517   2.269   7.861   7.016 -1.5672  0.2462 -0.9486
24080SOL    HW275518   2.270   7.756   7.124  1.0496 -0.4290 -1.5459
24081SOL     OW75519   2.725   8.803   7.344  0.4347 -1.2081 -0.3114
24081SOL    HW175520   2.811   8.781   7.381  0.5144  0.0784  0.3245
24081SOL    HW275521   2.715   8.743   7.270  1.9531 -1.2877 -0.4881
24082SOL     OW75522   3.856   2.747   6.402 -0.1560  0.0229 -0.3063
24082SOL    HW175523   3.836   2.720   6.313 -0.5999  0.3367 -0.3049
24082SOL    HW275524   3.798   2.694   6.457 -0.0463 -0.0068 -0.2184
24083SOL     OW75525  11.080   5.182   8.052 -0.1340 -0.2752  0.1448
24083SOL    HW175526  11.046   5.122   7.984  1.5523 -3.1706  1.6444
24083SOL    HW275527  11.170   5.153   8.066  0.3697  1.8788  1.9052
24084SOL     OW75528   4.353   1.355   1.676  0.4109  0.4000  0.2845
24084SOL    HW175529   4.365   1.273   1.724 -1.9516 -0.4538 -0.4768
24084SOL    HW275530   4.408   1.418   1.723 -0.3723 -0.8132  3.0176
24085SOL     OW75531   5.490  11.255   1.840 -0.0227  0.0218  0.1253
24085SOL    HW175532   5.501  11.165   1.870  1.4783 -0.2380 -1.0901
24085SOL    HW275533   5.537  11.307   1.905  0.4510 -0.2281 -0.0137
24086SOL     OW75534   7.815   9.194   8.422  0.5666 -0.7848  0.1224
24086SOL    HW175535   7.758   9.118   8.417 -1.6068  0.8183 -0.7854
24086SOL    HW275536   7.856   9.200   8.336  0.5312 -0.7719  0.1069
24087SOL     OW75537   4.634   3.668   0.377  0.2591  0.1363  0.1187
24087SOL    HW175538   4.543   3.669   0.408  0.4300  0.0653  0.6320
24087SOL    HW275539   4.686   3.682   0.456  0.7774 -1.7428  0.1484
24088SOL     OW75540   3.537   4.924   8.803 -0.0355  0.5858 -0.2790
24088SOL    HW175541   3.593   4.898   8.729 -0.9926 -1.1307 -0.4430
24088SOL    HW275542   3.598   4.932   8.877  0.3424 -2.5602 -0.1353
24089SOL     OW75543   5.241   3.536   4.231 -0.2821 -0.4456  0.0903
24089SOL    HW175544   5.219   3.627   4.248 -1.0643 -0.4535 -0.7810
24089SOL    HW275545   5.229   3.526   4.136  0.3575 -1.3052  0.0846
24090SOL     OW75546   2.137   6.061   5.924 -0.3093 -0.0258  0.1535
24090SOL    HW175547   2.071   6.130   5.916  0.3206  0.5259 -0.4466
24090SOL    HW275548   2.193   6.090   5.996 -0.6943 -0.4805  0.6458
24091SOL     OW75549   8.101   4.095   1.627 -0.4101 -0.5906 -0.0112
24091SOL    HW175550   8.157   4.151   1.573 -1.6127  3.1078  2.1914
24091SOL    HW275551   8.162   4.044   1.680  0.7898 -0.2825 -1.0444
24092SOL     OW75552   9.314   7.294   6.576 -0.4747 -0.2187 -0.0932
24092SOL    HW175553   9.407   7.286   6.555 -0.3911  0.7066 -0.1079
24092SOL    HW275554   9.308   7.272   6.669 -0.1992  0.0084 -0.0223
24093SOL     OW75555   9.770   7.726   0.179  0.7580 -0.2568  0.0425
24093SOL    HW175556   9.678   7.729   0.152  0.6563 -0.9045  0.2981
24093SOL    HW275557   9.784   7.635   0.206  1.8093 -0.4929 -1.1680
24094SOL     OW75558   4.762   0.549   4.562 -0.2961  0.1155  0.1543
24094SOL    HW175559   4.758   0.457   4.539 -0.8765  0.0492  0.4917
24094SOL    HW275560   4.854   0.565   4.584 -0.1090 -0.2687 -0.3494
24095SOL     OW75561   3.335  10.498   8.769 -0.2598 -0.1287  0.1563
24095SOL    HW175562   3.364  10.531   8.684 -1.4898  1.3272  0.2510
24095SOL    HW275563   3.263  10.557   8.794 -1.6572 -2.0915  1.0178
24096SOL     OW75564   5.156   2.111   2.741 -0.4212 -0.4073 -0.1307
24096SOL    HW175565   5.155   2.117   2.646 -2.0627  1.3930 -0.0739
24096SOL    HW275566   5.064   2.119   2.767  0.0251 -0.4580  1.6120
24097SOL     OW75567   2.461   8.998   6.078  0.0394 -0.2101  0.0207
24097SOL    HW175568   2.505   9.007   5.993 -0.8394  0.3879 -0.3899
24097SOL    HW275569   2.530   9.009   6.143  0.6176 -0.0480 -0.6147
24098SOL     OW75570   1.683   3.166   4.899 -0.3838  0.6629  0.1485
24098SOL    HW175571   1.779   3.173   4.896 -0.4014  0.7315 -0.4945
24098SOL    HW275572   1.663   3.089   4.846 -0.7401  1.2865 -0.6515
24099SOL     OW75573   3.928   3.189   5.450 -0.1492 -0.0324  0.6889
24099SOL    HW175574   3.838   3.220   5.454 -0.9225 -2.1944  1.5005
24099SOL    HW275575   3.921   3.094   5.441  2.0686 -0.1355 -1.0862
24100SOL     OW75576   8.662   4.112   6.665  1.0863 -0.3134  0.1003
24100SOL    HW175577   8.609   4.069   6.732  1.7193 -0.1769  0.6980
24100SOL    HW275578   8.680   4.199   6.701  0.4515  0.1961 -0.7686
24101SOL     OW75579   7.289  10.524   7.487  0.1906  0.4205 -0.3183
24101SOL    HW175580   7.274  10.605   7.439 -0.3717  0.0124 -0.8556
24101SOL    HW275581   7.212  10.515   7.543  0.3276  0.3481 -0.1437
24102SOL     OW75582   0.796   1.781   3.043 -0.0194 -0.2389  0.2839
24102SOL    HW175583   0.810   1.849   2.978 -1.1423  1.5409  1.8109
24102SOL    HW275584   0.752   1.711   2.995  0.3459  0.4622 -1.1264
24103SOL     OW75585   7.720   7.618  10.162 -0.1290  0.3926 -0.3881
24103SOL    HW175586   7.725   7.534  10.117 -0.2751 -0.2134  0.6744
24103SOL    HW275587   7.793   7.616  10.224 -1.5620 -0.0623  1.3837
24104SOL     OW75588   0.816   7.337   5.913 -0.2050  0.3208  0.0533
24104SOL    HW175589   0.816   7.360   6.006  0.9653 -1.2215  0.4760
24104SOL    HW275590   0.724   7.323   5.891 -0.4290 -0.0727  1.1867
24105SOL     OW75591   4.030   9.979   5.769  0.8415  0.0983  0.3326
24105SOL    HW175592   4.011  10.044   5.702 -0.9148 -0.1875  0.5046
24105SOL    HW275593   3.991   9.898   5.735 -1.5535  0.2810  2.3445
24106SOL     OW75594   2.061   2.425   4.812  0.6893 -0.1585  0.1170
24106SOL    HW175595   1.979   2.381   4.788  0.0576  1.0552 -0.0251
24106SOL    HW275596   2.126   2.388   4.752 -0.0366 -0.1712 -0.6857
24107SOL     OW75597   8.103   3.281   7.796 -0.5166 -0.5699 -0.4348
24107SOL    HW175598   8.020   3.324   7.819  0.2597  1.1600 -0.7135
24107SOL    HW275599   8.169   3.350   7.805  0.8755 -1.8455 -0.4652
24108SOL     OW75600   3.894   2.418   1.272 -0.2753  0.6880 -0.3078
24108SOL    HW175601   3.919   2.327   1.288 -0.8095  0.3907 -1.0922
24108SOL    HW275602   3.975   2.461   1.246  0.3303  0.8604  1.6842
24109SOL     OW75603   9.454   8.397   4.795 -0.2905 -0.1850 -0.1107
24109SOL    HW175604   9.414   8.320   4.754  0.7466 -0.2375 -1.0836
24109SOL    HW275605   9.546   8.393   4.769  0.0542  0.6913  0.9012
24110SOL     OW75606   8.510  10.723   0.198 -0.0586 -0.0937 -0.8334
24110SOL    HW175607   8.539  10.652   0.255  0.7798  0.2200 -0.8557
24110SOL    HW275608   8.419  10.702   0.178 -0.1597 -0.5540  0.0810
24111SOL     OW75609   8.720   7.593   9.985  0.1707 -0.0606  0.3755
24111SOL    HW175610   8.794   7.628  10.035  1.6990 -2.8000  0.2006
24111SOL    HW275611   8.692   7.516  10.035 -0.8625 -0.5831 -0.9552
24112SOL     OW75612   5.097   5.253   4.881 -0.1581 -0.3993 -0.7370
24112SOL    HW175613   5.061   5.167   4.902 -0.3186 -0.1564  0.0517
24112SOL    HW275614   5.168   5.265   4.944  0.4961 -0.3571 -1.4793
24113SOL     OW75615   3.100   1.368   6.013 -0.5707 -0.4039 -0.1752
24113SOL    HW175616   3.149   1.369   6.096  0.1975 -0.0219 -0.6233
24113SOL    HW275617   3.070   1.458   6.002  2.2921  0.4455 -1.9997
24114SOL     OW75618  10.818   7.073   6.508  0.7042 -0.8554  0.2743
24114SOL    HW175619  10.857   6.993   6.475 -0.9545 -1.6309  0.1068
24114SOL    HW275620  10.769   7.046   6.586  1.9060  0.3885  1.5330
24115SOL     OW75621   8.772   6.159   3.675 -0.0435 -0.1443 -0.5793
24115SOL    HW175622   8.855   6.207   3.666  0.5151 -0.7654  0.9394
24115SOL    HW275623   8.707   6.218   3.637  0.9982  0.6375 -1.2269
24116SOL     OW75624   2.616  10.322   7.975  0.2428  0.4080  0.1059
24116SOL    HW175625   2.573  10.266   8.039  0.8602 -1.0024 -0.6781
24116SOL    HW275626   2.568  10.405   7.980 -1.4307 -0.5371  0.4764
24117SOL     OW75627   5.111  11.247   5.381  0.7119 -0.2101 -0.0341
24117SOL    HW175628   5.189  11.246   5.437  0.6300 -0.7677  0.0777
24117SOL    HW275629   5.106  11.336   5.348  1.4766 -0.2058 -0.1507
24118SOL     OW75630   9.095   7.160   8.830  0.2166 -0.7767  0.3799
24118SOL    HW175631   9.079   7.158   8.924 -0.7142 -2.1966  0.2243
24118SOL    HW275632   9.083   7.069   8.802 -0.5890 -0.1912 -1.2811
24119SOL     OW75633   1.818   0.690  11.180 -0.0763  0.5516 -0.2512
24119SOL    HW175634   1.914   0.696  11.178 -0.0435  0.0079 -0.4658
24119SOL    HW275635   1.798   0.605  11.139 -0.6255  0.4388  0.2370
24120SOL     OW75636   3.348   9.327   4.576  0.3287 -0.4508  0.0359
24120SOL    HW175637   3.347   9.312   4.482  1.5003  2.2501 -0.5063
24120SOL    HW275638   3.255   9.326   4.601 -0.0005 -1.1222 -1.1546
24121SOL     OW75639   7.260   2.939   6.175 -0.2322 -0.0923  0.0931
24121SOL    HW175640   7.179   2.903   6.140 -0.2136  0.5471 -0.6194
24121SOL    HW275641   7.288   2.874   6.240 -0.2574 -1.3127 -1.0670
24122SOL     OW75642  11.140   7.645   3.660 -0.2668 -0.5577 -0.2753
24122SOL    HW175643  11.063   7.653   3.716 -0.5228 -1.1071 -0.5383
24122SOL    HW275644  11.143   7.727   3.611  0.9784  0.7020  1.7879
24123SOL     OW75645   6.626   9.752   4.958 -0.2082 -0.5809 -0.6622
24123SOL    HW175646   6.662   9.765   5.046 -0.9078 -1.7248 -0.1844
24123SOL    HW275647   6.680   9.683   4.919  0.9012  0.7765 -1.6392
24124SOL     OW75648   9.281   6.802   0.261 -0.0087  0.1580  0.3822
24124SOL    HW175649   9.336   6.765   0.192  0.2691  3.4724 -1.4102
24124SOL    HW275650   9.239   6.878   0.219 -1.8458  0.8428  3.1941
24125SOL     OW75651   0.298   1.553  10.516  0.0053 -0.3622  0.7874
24125SOL    HW175652   0.212   1.595  10.518  0.2950  0.2815  0.1897
24125SOL    HW275653   0.300   1.507  10.432  0.7252  0.6981  0.1972
24126SOL     OW75654   1.260   6.319   7.344  0.0313 -0.7819  0.1215
24126SOL    HW175655   1.244   6.408   7.376  1.4544 -0.3011 -0.3990
24126SOL    HW275656   1.310   6.277   7.413  0.5100 -0.7265 -0.1836
24127SOL     OW75657  10.582   4.243   3.865 -0.3750  0.3372  0.3090
24127SOL    HW175658  10.673   4.269   3.854 -0.2792  0.6448  1.6185
24127SOL    HW275659  10.576   4.157   3.823  0.5679  0.2237  0.3847
24128SOL     OW75660   5.035   0.026   5.772 -0.4011 -0.0572 -0.0748
24128SOL    HW175661   5.050  -0.069   5.763 -0.8118 -0.1540  0.2261
24128SOL    HW275662   4.951   0.040   5.727  0.3312  0.3950 -1.3424
24129SOL     OW75663   5.244   1.226   7.760 -0.3252 -0.4909  0.2025
24129SOL    HW175664   5.234   1.209   7.854 -0.3360 -0.2387  0.2476
24129SOL    HW275665   5.183   1.167   7.718 -0.5482 -0.3817  0.3713
24130SOL     OW75666   6.171   6.384   7.602  0.2462  0.2098 -0.1171
24130SOL    HW175667   6.157   6.457   7.541 -0.7126 -0.2689 -0.4889
24130SOL    HW275668   6.261   6.357   7.588  0.9204  1.8767  0.6414
24131SOL     OW75669   8.296  10.942   2.504  0.2296  0.1741 -0.6636
24131SOL    HW175670   8.260  10.882   2.570  0.4754 -0.0836 -0.7593
24131SOL    HW275671   8.339  11.010   2.555 -0.0070  0.2441 -0.5542
24132SOL     OW75672   0.666   2.863   2.532 -0.0597  0.1427 -0.5047
24132SOL    HW175673   0.760   2.872   2.515 -0.4479  1.2846 -2.3636
24132SOL    HW275674   0.661   2.830   2.622  2.1891 -3.1285 -1.3641
24133SOL     OW75675  10.221   3.158  11.353 -0.4551  0.0211  0.1294
24133SOL    HW175676  10.275   3.097  11.403 -0.1772  1.0990  1.1794
24133SOL    HW275677  10.160   3.102  11.305  1.5914 -1.2626 -1.1547
24134SOL     OW75678   7.552   6.786   0.729  0.6499  0.0482 -0.0952
24134SOL    HW175679   7.460   6.796   0.704  1.1720 -0.3188 -2.3246
24134SOL    HW275680   7.573   6.695   0.710  1.5123  0.1614  0.2543
24135SOL     OW75681   6.117   0.108   4.606 -0.7499  0.3704 -0.6833
24135SOL    HW175682   6.115   0.033   4.546  0.6562  0.8212 -1.3445
24135SOL    HW275683   6.164   0.076   4.683 -1.2977  0.2074 -0.4113
24136SOL     OW75684   7.528   1.338   9.531 -0.1661  0.0476  0.2120
24136SOL    HW175685   7.480   1.262   9.498 -1.0595  0.7593 -0.1731
24136SOL    HW275686   7.539   1.320   9.625  1.2575 -1.3854 -0.1730
24137SOL     OW75687   9.224   6.969   6.890  0.0809 -0.4431 -0.2810
24137SOL    HW175688   9.245   7.056   6.924 -0.3131 -0.5135  0.1555
24137SOL    HW275689   9.172   6.928   6.959  1.9602 -1.8087  0.4120
24138SOL     OW75690   5.635   8.662   5.699 -0.1098 -0.0150  0.0566
24138SOL    HW175691   5.637   8.647   5.604  1.0983 -1.9261  0.3219
24138SOL    HW275692   5.614   8.576   5.736 -0.6846  0.7293  1.5363
24139SOL     OW75693  11.329   2.108   3.189 -0.1277 -0.1079  0.3682
24139SOL    HW175694  11.326   2.203   3.180  1.3248 -0.0733  0.0186
24139SOL    HW275695  11.247   2.077   3.150  0.0618  0.9081 -0.8983
24140SOL     OW75696  10.859   5.868   0.541  0.3522  0.2550 -0.6817
24140SOL    HW175697  10.769   5.901   0.532  0.0136 -0.2011  0.8103
24140SOL    HW275698  10.914   5.943   0.521 -0.3844  1.1123  0.4061
24141SOL     OW75699  10.113   4.598   8.542  0.6846 -0.0014  0.1654
24141SOL    HW175700  10.119   4.694   8.539 -0.5939  0.1757  1.9613
24141SOL    HW275701  10.022   4.579   8.522  1.2085 -0.9597 -1.4411
24142SOL     OW75702   9.137   1.428   1.581  0.1564  0.8917 -0.6377
24142SOL    HW175703   9.224   1.463   1.598  0.7521 -1.0097  0.6628
24142SOL    HW275704   9.081   1.505   1.571  1.2714  2.2553  2.4032
24143SOL     OW75705   4.900   1.997   3.728 -0.1329  0.0975 -0.0041
24143SOL    HW175706   4.845   2.062   3.772 -0.0984  0.5888 -0.6663
24143SOL    HW275707   4.922   1.934   3.797 -3.2916 -1.3629 -0.1225
24144SOL     OW75708   8.982   0.701  10.309 -0.1644  0.2009 -0.0125
24144SOL    HW175709   8.903   0.740  10.347  0.5022  0.2231  1.3935
24144SOL    HW275710   8.949   0.625  10.259 -1.2197  1.1390 -0.8121
24145SOL     OW75711   8.806   5.776   8.096 -0.0145 -0.1028  0.4506
24145SOL    HW175712   8.746   5.704   8.082  0.2689 -0.0184 -1.4019
24145SOL    HW275713   8.778   5.844   8.034  1.5110  0.2212  0.0719
24146SOL     OW75714   2.705   4.562   0.310 -0.6412  0.1852 -0.2799
24146SOL    HW175715   2.746   4.489   0.263  0.7789 -0.9072  2.4454
24146SOL    HW275716   2.756   4.639   0.283  0.8906 -0.5994  0.2314
24147SOL     OW75717   3.050   2.058   7.108  0.2596  0.4027 -0.2118
24147SOL    HW175718   3.142   2.077   7.091  0.3131 -0.6183 -1.1630
24147SOL    HW275719   3.003   2.105   7.038  0.1964 -0.5834 -0.8415
24148SOL     OW75720   1.770   0.609  10.167 -0.3393 -0.3117  0.1541
24148SOL    HW175721   1.796   0.603  10.259  1.4316 -1.5320 -0.3802
24148SOL    HW275722   1.719   0.530  10.151  0.1679 -0.5792 -0.1505
24149SOL     OW75723   4.834   9.920   9.708 -0.8701  0.1641  0.6382
24149SOL    HW175724   4.840   9.960   9.621  2.9704 -2.1632 -0.4015
24149SOL    HW275725   4.898   9.968   9.761 -0.4874 -0.8106  1.0752
24150SOL     OW75726   4.452   4.815   7.797 -0.2066 -0.0510 -0.3884
24150SOL    HW175727   4.429   4.874   7.868  2.0905  0.5270 -0.0514
24150SOL    HW275728   4.406   4.733   7.818 -0.7862  0.5794  0.9149
24151SOL     OW75729   1.682   2.793   6.164  0.5537 -0.4127  0.1696
24151SOL    HW175730   1.713   2.816   6.251 -0.0953  0.6651  0.1432
24151SOL    HW275731   1.737   2.845   6.105  0.3725 -0.4279 -0.0124
24152SOL     OW75732   2.055   6.763   2.457 -0.4222 -0.6727  0.0697
24152SOL    HW175733   2.149   6.770   2.477  0.2925 -1.8991 -2.3985
24152SOL    HW275734   2.029   6.851   2.432  0.1623 -0.3867  0.4316
24153SOL     OW75735  10.201   9.898   2.104  0.0256  0.3105  0.1082
24153SOL    HW175736  10.239   9.938   2.183  0.1071 -0.6063  0.5414
24153SOL    HW275737  10.276   9.860   2.058 -0.1341  0.0962  0.0262
24154SOL     OW75738   2.247   8.847   5.652 -0.2027  0.1683  0.1596
24154SOL    HW175739   2.306   8.777   5.622  1.8978  2.0963 -0.5561
24154SOL    HW275740   2.234   8.901   5.573 -3.4533 -0.4595  0.1652
24155SOL     OW75741   3.758   9.545   2.765 -0.1133 -0.0689 -0.0438
24155SOL    HW175742   3.756   9.483   2.693  1.6360  0.1331 -0.3141
24155SOL    HW275743   3.666   9.561   2.786 -0.6334 -2.8745  0.1836
24156SOL     OW75744   9.430   2.815   3.585 -0.2683 -0.1012  0.2783
24156SOL    HW175745   9.370   2.869   3.636  1.2685  2.2615 -0.2746
24156SOL    HW275746   9.491   2.779   3.649  0.4077  1.1714  0.3771
24157SOL     OW75747   3.825   8.886   9.998 -0.1460 -0.1813  0.2048
24157SOL    HW175748   3.916   8.858  10.000 -0.0262  0.2271  0.5801
24157SOL    HW275749   3.776   8.807   9.973  0.2663 -0.5070  0.4187
24158SOL     OW75750   6.564  10.359   9.331 -0.3574 -0.0314 -0.3500
24158SOL    HW175751   6.557  10.324   9.420 -0.1091 -1.5750 -0.9053
24158SOL    HW275752   6.481  10.338   9.289  0.6708 -2.2364 -1.4366
24159SOL     OW75753  11.021   1.047   1.338 -0.1975 -0.3311  0.3286
24159SOL    HW175754  11.085   1.035   1.268  0.3503 -3.5636  1.2103
24159SOL    HW275755  10.937   1.039   1.295  0.1228 -1.4561 -0.1282
24160SOL     OW75756   9.563   6.828   0.291 -0.2575 -0.7190  0.1662
24160SOL    HW175757   9.586   6.869   0.374  0.9973  0.5293 -0.7396
24160SOL    HW275758   9.565   6.734   0.308  0.6696 -0.5016  1.3717
24161SOL     OW75759   3.035   4.207   2.511 -0.4182  0.4571 -0.1612
24161SOL    HW175760   3.048   4.286   2.563  0.8995  0.7109 -0.8363
24161SOL    HW275761   3.017   4.138   2.576  0.6182  0.8770  0.5869
24162SOL     OW75762  10.889   6.553   6.913  0.0650 -0.3558  0.0136
24162SOL    HW175763  10.971   6.546   6.863  0.1026 -1.8134  0.2435
24162SOL    HW275764  10.834   6.483   6.879 -0.3291 -0.6568  1.2381
24163SOL     OW75765   8.336  10.424  11.073 -0.1312 -0.4117 -0.7873
24163SOL    HW175766   8.429  10.448  11.074 -0.1789 -0.2278 -0.5323
24163SOL    HW275767   8.317  10.403  10.982  0.4511 -1.5903 -0.6658
24164SOL     OW75768   2.808   8.202  10.708 -0.0073 -0.0805  0.3899
24164SOL    HW175769   2.852   8.252  10.776  1.5459 -1.0190  0.1189
24164SOL    HW275770   2.833   8.111  10.726  0.9969 -0.2913 -1.8027
24165SOL     OW75771   5.400   2.121   2.853 -0.1957 -0.4352  0.2529
24165SOL    HW175772   5.304   2.118   2.844 -0.3090  0.6537  0.9261
24165SOL    HW275773   5.431   2.149   2.766 -0.5152 -0.3792  0.1550
24166SOL     OW75774   0.787   4.732   9.404  0.0289  0.5630 -0.3645
24166SOL    HW175775   0.827   4.675   9.469 -1.5760  0.5851  0.7230
24166SOL    HW275776   0.859   4.782   9.367  1.0586  0.1663  1.0376
24167SOL     OW75777   5.933  10.116   2.057  0.3030  0.3606  0.0577
24167SOL    HW175778   5.899  10.082   2.140  1.8539 -3.3979 -0.6160
24167SOL    HW275779   6.011  10.164   2.081 -1.2601  2.6119  0.9735
24168SOL     OW75780   6.874   2.832   7.179  0.6812 -0.0402  0.3845
24168SOL    HW175781   6.911   2.772   7.244  1.5276  1.0499  0.9481
24168SOL    HW275782   6.906   2.798   7.095  1.7702  0.0069  0.7535
24169SOL     OW75783   5.881   2.057   2.523 -0.2384 -0.2136 -0.5537
24169SOL    HW175784   5.928   2.115   2.582 -0.9601  1.2651 -1.3953
24169SOL    HW275785   5.940   1.983   2.510 -0.8577 -1.7977  3.7493
24170SOL     OW75786   6.800   8.936   9.044 -0.1923 -0.3626  0.7568
24170SOL    HW175787   6.792   9.031   9.049  2.1070 -0.0189 -0.7013
24170SOL    HW275788   6.839   8.910   9.128 -0.5454  0.0054  1.0353
24171SOL     OW75789   5.687   2.052   5.320  0.8959 -0.4658  0.3243
24171SOL    HW175790   5.763   2.075   5.266 -0.0780  0.9438 -0.5439
24171SOL    HW275791   5.691   2.112   5.394  1.6357 -1.6654  1.2751
24172SOL     OW75792   8.479   5.423   5.388  0.4172 -0.1059  0.0987
24172SOL    HW175793   8.405   5.431   5.327 -0.1766 -0.2992  0.7715
24172SOL    HW275794   8.439   5.393   5.470  1.4618 -1.7943  0.0289
24173SOL     OW75795   7.377   8.435   8.399 -0.2861 -0.1190 -0.4257
24173SOL    HW175796   7.454   8.447   8.343 -0.0369 -0.9937 -0.2907
24173SOL    HW275797   7.412   8.431   8.488 -0.5563  0.0909 -0.3078
24174SOL     OW75798   6.627   5.127   1.519 -0.3841  0.0100  0.3893
24174SOL    HW175799   6.573   5.048   1.525 -0.6883  0.1073 -0.8665
24174SOL    HW275800   6.620   5.166   1.606 -1.2509 -0.6869  0.6582
24175SOL     OW75801   4.628   3.285   4.147 -0.3132  0.0949  0.1566
24175SOL    HW175802   4.546   3.236   4.156  0.5083 -1.5027 -0.6469
24175SOL    HW275803   4.648   3.282   4.054  1.3746 -0.7858  0.5162
24176SOL     OW75804   6.306   3.098   8.488  0.1764 -0.2979 -0.0142
24176SOL    HW175805   6.242   3.031   8.465  1.1408 -0.6257 -1.8782
24176SOL    HW275806   6.278   3.175   8.440  1.1671 -0.4411 -0.8310
24177SOL     OW75807  11.281   4.445   9.225 -0.0686 -0.0346 -0.5344
24177SOL    HW175808  11.274   4.373   9.288 -1.6405 -0.2849 -0.9597
24177SOL    HW275809  11.243   4.520   9.270 -2.2028 -0.4627 -1.4939
24178SOL     OW75810   1.023   0.926   1.934 -0.2977 -0.3496 -0.1098
24178SOL    HW175811   0.935   0.941   1.898  0.0648 -0.9230 -1.2620
24178SOL    HW275812   1.082   0.937   1.860  0.3733 -2.6999  0.0087
24179SOL     OW75813   8.037   5.712   1.663 -0.6343  0.0145 -0.4233
24179SOL    HW175814   8.112   5.693   1.608 -0.1714 -1.3597  0.6232
24179SOL    HW275815   8.064   5.685   1.751 -2.1834 -0.0824  0.0545
24180SOL     OW75816   4.257  10.572   7.311 -0.3095 -0.2353  0.2351
24180SOL    HW175817   4.196  10.553   7.381 -0.1232 -0.4486  0.3420
24180SOL    HW275818   4.323  10.503   7.317 -0.7129 -0.7169 -0.6427
24181SOL     OW75819   2.401  11.346   2.294  0.1981  0.0792 -0.4936
24181SOL    HW175820   2.386  11.441   2.295 -0.5416  0.0116  2.2327
24181SOL    HW275821   2.317  11.309   2.264  0.1085  0.2342 -0.4326
24182SOL     OW75822   3.758   7.784   5.283  0.6667  0.0089  0.5290
24182SOL    HW175823   3.671   7.817   5.301  0.3543 -0.1644 -0.5875
24182SOL    HW275824   3.793   7.760   5.369  0.3388  1.7916  1.2052
24183SOL     OW75825   4.761  10.699   0.138  0.5278 -0.1942 -0.3244
24183SOL    HW175826   4.743  10.695   0.232  2.0022 -3.4913 -0.0468
24183SOL    HW275827   4.694  10.643   0.099 -0.4677  1.6566 -1.4000
24184SOL     OW75828   7.767   6.375   9.271 -0.2770 -0.1646  0.4721
24184SOL    HW175829   7.734   6.449   9.220 -1.5608 -0.4783  0.8180
24184SOL    HW275830   7.745   6.397   9.362 -0.2874 -0.7671  0.6181
24185SOL     OW75831   5.947   8.749   1.798 -0.1306 -0.2877  0.6114
24185SOL    HW175832   5.919   8.766   1.888  0.9620 -0.6254  1.0313
24185SOL    HW275833   5.966   8.836   1.762 -1.3595 -0.0790  0.4163
24186SOL     OW75834   5.324   4.217  11.270 -0.2522  0.1448  0.1982
24186SOL    HW175835   5.309   4.206  11.364  0.5612  0.7399  0.4026
24186SOL    HW275836   5.236   4.227  11.233 -0.7007 -1.6656  0.6704
24187SOL     OW75837   4.715   8.980  10.634 -0.1985  0.7689  0.2431
24187SOL    HW175838   4.697   8.894  10.595  3.1357 -0.0091  0.1408
24187SOL    HW275839   4.774   9.022  10.572  1.0305  1.6653  1.9548
24188SOL     OW75840   4.258   0.356   0.785  0.2313 -0.3359 -0.0588
24188SOL    HW175841   4.286   0.271   0.751  0.9092  0.1105 -0.6520
24188SOL    HW275842   4.222   0.401   0.708  0.6243  0.2134  0.0704
24189SOL     OW75843   5.928  10.188   8.384 -0.2194 -0.1470  0.6095
24189SOL    HW175844   5.949  10.136   8.462 -0.3381  0.8715  1.3266
24189SOL    HW275845   6.005  10.178   8.327 -0.2277 -1.0749  0.7464
24190SOL     OW75846   7.383   1.346   6.079  0.3711  0.0976  0.7231
24190SOL    HW175847   7.396   1.268   6.134  0.3898 -0.4517 -0.0415
24190SOL    HW275848   7.443   1.334   6.006 -0.2941  0.3736  0.1202
24191SOL     OW75849   0.073  10.641   6.677  0.2220 -0.4305 -0.1380
24191SOL    HW175850  -0.007  10.659   6.626  0.2240 -1.0069 -0.3627
24191SOL    HW275851   0.137  10.704   6.645 -0.1583  0.0738  0.0798
24192SOL     OW75852   5.537   7.121   9.422 -0.0434 -0.1825 -0.2561
24192SOL    HW175853   5.472   7.052   9.432  0.1763 -0.5071 -0.9678
24192SOL    HW275854   5.570   7.110   9.333 -0.2620  1.0745 -0.5091
24193SOL     OW75855   1.538   2.448   5.267 -0.7496  0.0493 -0.0071
24193SOL    HW175856   1.562   2.372   5.213  0.8334 -1.4484  2.5986
24193SOL    HW275857   1.614   2.463   5.322 -2.9446  0.0545  3.3186
24194SOL     OW75858   2.711   6.209   1.031  0.0368 -0.2823  0.1703
24194SOL    HW175859   2.626   6.225   1.071 -1.2786 -1.4322 -1.9977
24194SOL    HW275860   2.761   6.289   1.049 -1.5691  0.5375  1.2474
24195SOL     OW75861  11.143   5.496   9.948  0.2096  0.6019  0.1189
24195SOL    HW175862  11.058   5.451   9.944  0.2816  0.4455  0.3421
24195SOL    HW275863  11.122   5.585   9.977  0.1035  0.6177 -0.0027
24196SOL     OW75864   2.553   0.636   2.013  0.6377 -0.0993 -0.3644
24196SOL    HW175865   2.545   0.673   1.925 -0.0013  1.7611  0.4193
24196SOL    HW275866   2.497   0.691   2.067  1.3958 -0.8937  1.3059
24197SOL     OW75867   6.575   3.468   2.797 -0.2507  0.2796 -0.0548
24197SOL    HW175868   6.518   3.391   2.792 -0.6668  0.5735  0.0917
24197SOL    HW275869   6.650   3.439   2.849 -1.3240  0.5325  1.6816
24198SOL     OW75870  11.299   9.636   2.718  0.0920 -0.0696 -0.2342
24198SOL    HW175871  11.363   9.605   2.653 -0.5261  1.6924 -1.7706
24198SOL    HW275872  11.298   9.731   2.707  0.8742  0.4886  3.3072
24199SOL     OW75873   5.849   7.191   3.403  0.1940  0.0002  0.5204
24199SOL    HW175874   5.794   7.194   3.481  0.7466 -2.0055  1.0338
24199SOL    HW275875   5.907   7.268   3.412  0.8795 -0.6907  2.5951
24200SOL     OW75876   1.879   8.431   4.744 -0.1800 -0.2363  0.5745
24200SOL    HW175877   1.878   8.447   4.838  0.8131 -2.1145  0.9606
24200SOL    HW275878   1.969   8.452   4.717 -1.1206  2.8917 -0.5433
24201SOL     OW75879  10.910   3.347   6.019  0.0803  0.1009  0.2793
24201SOL    HW175880  10.860   3.338   5.938 -0.1691  1.0351  0.3155
24201SOL    HW275881  10.852   3.311   6.087  0.3070 -0.7177  0.0447
24202SOL     OW75882   0.543   1.419   9.317 -0.1191 -0.7891 -0.3598
24202SOL    HW175883   0.541   1.508   9.281  1.6193 -0.7949 -0.5373
24202SOL    HW275884   0.466   1.414   9.374  0.6237  1.3627  0.9041
24203SOL     OW75885   0.735   3.904   7.893  0.5645 -0.2349 -0.0679
24203SOL    HW175886   0.666   3.841   7.872  0.4858 -0.0880 -0.2541
24203SOL    HW275887   0.706   3.985   7.852  1.1274 -0.3117 -0.6237
24204SOL     OW75888   8.496  10.886   6.738 -0.6285  0.1138  0.2883
24204SOL    HW175889   8.459  10.854   6.821 -2.7527 -0.3706 -0.7801
24204SOL    HW275890   8.451  10.970   6.723 -1.2126 -0.3942 -0.9577
24205SOL     OW75891   2.855   0.058   2.271 -0.1209  0.0422 -0.1563
24205SOL    HW175892   2.784   0.001   2.301 -0.1076 -0.1676 -0.5291
24205SOL    HW275893   2.825   0.093   2.188  0.6177 -0.8108 -0.8026
24206SOL     OW75894   8.012   5.692   3.397 -0.2324 -0.4398  0.2684
24206SOL    HW175895   8.024   5.680   3.491  2.4082 -2.5729 -0.2275
24206SOL    HW275896   8.067   5.625   3.356 -0.9916  0.6278 -2.8292
24207SOL     OW75897   5.620   3.093  11.234  0.1689 -0.5063 -0.2813
24207SOL    HW175898   5.692   3.036  11.260 -0.4706 -1.8077 -1.2704
24207SOL    HW275899   5.542   3.054  11.273 -0.2001  0.0607 -0.4352
24208SOL     OW75900   2.979   4.755   9.553 -0.6283 -0.2166  0.3463
24208SOL    HW175901   3.059   4.743   9.604 -1.0831  0.4446  1.2442
24208SOL    HW275902   3.007   4.745   9.462  0.7270  1.1537  0.5701
24209SOL     OW75903   6.819   2.386   3.340  0.0555 -0.1194 -0.2019
24209SOL    HW175904   6.884   2.338   3.288  1.0899  0.8475  0.1489
24209SOL    HW275905   6.823   2.476   3.307 -0.9551 -0.0025 -0.0190
24210SOL     OW75906   6.941   2.928   9.609  0.0447 -0.6392  0.3876
24210SOL    HW175907   7.012   2.872   9.642  2.7037  2.4568  0.3806
24210SOL    HW275908   6.869   2.916   9.671  1.5615 -1.8685  1.9839
24211SOL     OW75909   1.614   5.984   0.686 -0.2939 -0.6903  0.0235
24211SOL    HW175910   1.675   6.057   0.697 -1.2325  0.0617  0.4391
24211SOL    HW275911   1.635   5.948   0.600  1.3483 -1.0553  0.5498
24212SOL     OW75912   2.995   3.545   7.038  0.1861 -0.2617 -0.0907
24212SOL    HW175913   3.011   3.496   7.119 -0.9178 -0.0513  0.2725
24212SOL    HW275914   3.081   3.576   7.011  0.5780 -0.3983  0.9685
24213SOL     OW75915  10.238   9.452   9.235  0.3349  0.3449  0.1831
24213SOL    HW175916  10.280   9.377   9.278 -0.0311  0.5777  0.9664
24213SOL    HW275917  10.312   9.506   9.205  0.5989 -0.3114 -0.3794
24214SOL     OW75918   5.475   1.365   5.737  0.6151 -0.3610 -0.1387
24214SOL    HW175919   5.389   1.405   5.736 -0.1613 -1.9361 -1.6174
24214SOL    HW275920   5.505   1.369   5.646  0.9005 -2.1886 -0.1669
24215SOL     OW75921   2.025   3.604   5.226 -0.1873 -0.3564 -0.0789
24215SOL    HW175922   1.960   3.663   5.262 -0.2707 -1.1229  1.0762
24215SOL    HW275923   1.992   3.516   5.246  0.3074 -0.7926 -1.0844
24216SOL     OW75924   5.259   4.109  10.803  0.3006 -0.1373  0.1867
24216SOL    HW175925   5.298   4.027  10.832  0.0721 -0.4935 -0.4854
24216SOL    HW275926   5.173   4.084  10.768  0.2340  0.3837 -0.0336
24217SOL     OW75927   4.154   1.775   7.112 -0.2999  0.0082 -0.0506
24217SOL    HW175928   4.215   1.704   7.091 -1.2612 -1.2203  1.1783
24217SOL    HW275929   4.158   1.783   7.207 -1.7457  0.1970  0.0100
24218SOL     OW75930   0.436   5.931   9.765 -0.3853 -0.2602 -0.2162
24218SOL    HW175931   0.400   5.857   9.716  1.8504 -1.0118 -0.8055
24218SOL    HW275932   0.370   5.949   9.832 -1.8208 -1.5841 -1.1990
24219SOL     OW75933  10.541  11.309   8.047 -0.5281 -0.3210  0.0255
24219SOL    HW175934  10.505  11.393   8.017  0.2693 -0.5815 -1.8038
24219SOL    HW275935  10.570  11.326   8.136  0.2240  1.5599 -0.5236
24220SOL     OW75936   4.615  10.067  10.269  0.1784 -0.0863 -0.0468
24220SOL    HW175937   4.537  10.028  10.230  0.4941 -0.6875 -0.0840
24220SOL    HW275938   4.619  10.155  10.230 -0.5256 -0.0118  0.0271
24221SOL     OW75939   0.842   0.993   1.001  0.1154 -0.2506 -0.3158
24221SOL    HW175940   0.830   1.037   1.086 -0.0772  0.2480 -0.5971
24221SOL    HW275941   0.901   1.050   0.953 -0.1157 -0.3106 -0.6744
24222SOL     OW75942   2.939   0.597   4.360 -0.1714  0.2287  0.2490
24222SOL    HW175943   2.911   0.549   4.282  0.1627 -0.7644  0.7169
24222SOL    HW275944   3.030   0.569   4.374  0.0833  1.1301  0.4442
24223SOL     OW75945   7.380   3.294   4.181  0.6719 -0.4338 -0.1638
24223SOL    HW175946   7.440   3.352   4.135  0.3580  0.3238  0.3601
24223SOL    HW275947   7.339   3.349   4.247 -0.2418 -1.0504 -0.1896
24224SOL     OW75948   9.689   7.209   5.660 -0.3438  0.2279 -0.0517
24224SOL    HW175949   9.769   7.166   5.689 -0.3422 -0.2777 -0.7844
24224SOL    HW275950   9.632   7.210   5.737 -0.7853 -2.1074 -0.2720
24225SOL     OW75951  10.733  11.236   4.638 -0.1801 -0.1079  0.0356
24225SOL    HW175952  10.781  11.276   4.565  0.0775 -1.6880 -0.7040
24225SOL    HW275953  10.657  11.293   4.651  0.2400  0.6846 -0.8844
24226SOL     OW75954   5.880   5.747   6.301  0.0711 -0.4031  0.2291
24226SOL    HW175955   5.791   5.781   6.309  1.4235  3.7635  0.3856
24226SOL    HW275956   5.918   5.758   6.389  1.4391  0.5118 -0.4281
24227SOL     OW75957   0.320   0.305   3.802  0.2637  0.3183  0.0418
24227SOL    HW175958   0.317   0.393   3.840 -0.5608  0.8977 -1.2822
24227SOL    HW275959   0.245   0.302   3.742  0.6308 -1.0769 -0.3905
24228SOL     OW75960   8.995   9.743  11.180 -0.1572  0.4082  0.2192
24228SOL    HW175961   9.083   9.711  11.199 -0.0750  0.5507  0.0730
24228SOL    HW275962   8.938   9.669  11.202  0.0090  0.2653  0.1718
24229SOL     OW75963   4.791  10.573  10.270 -0.6058  0.3810 -0.5116
24229SOL    HW175964   4.712  10.537  10.230 -0.2913 -1.5803  0.5126
24229SOL    HW275965   4.761  10.612  10.352 -0.4898 -0.7143  0.0685
24230SOL     OW75966  10.710   5.179   3.362  0.0579 -0.7367  0.1593
24230SOL    HW175967  10.792   5.206   3.322  1.5975 -2.6370  1.8182
24230SOL    HW275968  10.699   5.238   3.436 -0.4168 -0.0934 -0.4149
24231SOL     OW75969   9.063   2.207   4.292  0.3257 -0.2855  0.5784
24231SOL    HW175970   9.026   2.135   4.343 -0.5727 -1.0485 -1.0776
24231SOL    HW275971   9.017   2.285   4.322 -1.0739 -0.9048  0.1108
24232SOL     OW75972   8.132   2.136   0.834 -0.7044 -0.0567 -0.3735
24232SOL    HW175973   8.226   2.120   0.827 -1.1783 -2.3776 -3.5509
24232SOL    HW275974   8.125   2.228   0.860  2.3705 -0.1609  1.3189
24233SOL     OW75975   5.192   0.487   7.027 -0.2421  0.2843  0.3384
24233SOL    HW175976   5.261   0.504   6.963  0.1690 -0.8561  0.4711
24233SOL    HW275977   5.236   0.447   7.101 -1.2228 -1.9770 -0.2202
24234SOL     OW75978   9.201   9.018   9.846 -0.1111  0.5821 -0.2444
24234SOL    HW175979   9.123   9.020   9.790 -0.3192  0.5315  0.0388
24234SOL    HW275980   9.214   9.109   9.872 -1.5972  0.2851  1.7690
24235SOL     OW75981   0.514   6.412  11.093 -0.5761  0.1830 -0.4712
24235SOL    HW175982   0.428   6.381  11.065 -0.7972  1.0162 -0.7567
24235SOL    HW275983   0.495   6.490  11.145  0.0369  0.7705 -1.1127
24236SOL     OW75984   9.886   5.658   2.980  0.0053  0.3930 -0.0338
24236SOL    HW175985   9.883   5.748   3.013 -0.9975  0.5988 -0.6285
24236SOL    HW275986   9.799   5.623   2.999 -0.0587 -0.0057 -0.9855
24237SOL     OW75987   7.464   5.343   8.749  0.7054 -0.2337 -0.6796
24237SOL    HW175988   7.423   5.404   8.687 -0.2483  0.3733  0.5160
24237SOL    HW275989   7.417   5.357   8.831  1.0296 -1.9832 -0.1568
24238SOL     OW75990   8.713   9.645   9.791  0.1521  0.0056 -0.4735
24238SOL    HW175991   8.680   9.608   9.873  0.2043 -0.4077 -0.6360
24238SOL    HW275992   8.741   9.569   9.740  2.4976  0.4152  0.1318
24239SOL     OW75993   6.692  10.563   9.917  0.2386 -0.6503 -0.3425
24239SOL    HW175994   6.758  10.574   9.985 -0.1329 -2.3905  0.3745
24239SOL    HW275995   6.691  10.646   9.870  1.2036  0.2659  1.1583
24240SOL     OW75996   0.774   5.696   1.993  0.1648  0.1735  0.0842
24240SOL    HW175997   0.733   5.682   1.908 -1.1544  0.4682  0.6501
24240SOL    HW275998   0.842   5.629   1.998 -0.2463 -0.3379 -0.8887
24241SOL     OW75999   5.862  10.267   6.485 -0.0421  0.0536  0.1630
24241SOL    HW176000   5.870  10.297   6.394 -0.2942  1.3421  0.5442
24241SOL    HW276001   5.780  10.305   6.516 -0.9924 -2.0270  0.3565
24242SOL     OW76002   9.207  10.556  10.811  0.0640  0.2099 -0.0454
24242SOL    HW176003   9.138  10.513  10.760 -0.1656 -1.0674  1.2561
24242SOL    HW276004   9.160  10.619  10.866  0.0473  0.0522  0.1229
24243SOL     OW76005   8.437   7.407   5.041  0.1402 -0.2384  0.0327
24243SOL    HW176006   8.453   7.487   5.091 -1.3462  0.4285 -0.4849
24243SOL    HW276007   8.391   7.437   4.963  1.6169 -1.3554 -1.3323
24244SOL     OW76008   8.606   5.280   7.084 -0.1549  0.0973  0.0331
24244SOL    HW176009   8.549   5.250   7.154 -1.0254  1.3158 -0.1233
24244SOL    HW276010   8.547   5.318   7.019  0.8226  1.6178 -0.0292
24245SOL     OW76011   7.609   5.307   1.955  0.5122  0.5602 -0.5764
24245SOL    HW176012   7.593   5.270   1.868 -1.4434  0.0981 -0.0794
24245SOL    HW276013   7.613   5.231   2.013 -0.7995  0.9703  0.0806
24246SOL     OW76014   3.800   5.317   2.997 -0.5242 -0.2708 -0.3526
24246SOL    HW176015   3.756   5.349   3.076 -2.0657  0.5089 -1.4628
24246SOL    HW276016   3.751   5.356   2.925  1.7971  0.3290 -1.7180
24247SOL     OW76017   7.008   7.317   1.718 -0.3486  0.2426  0.0659
24247SOL    HW176018   6.923   7.328   1.761  0.3580 -0.0886  1.6051
24247SOL    HW276019   6.987   7.318   1.625 -1.7724  2.4946  0.3276
24248SOL     OW76020   0.460   5.120   7.099 -0.4963 -0.5606  0.1563
24248SOL    HW176021   0.470   5.098   7.192 -0.8266 -1.8614 -0.0961
24248SOL    HW276022   0.523   5.191   7.085 -0.7652 -0.0282  1.4653
24249SOL     OW76023   9.566  10.422   5.766  0.0751  0.0203  0.5969
24249SOL    HW176024   9.474  10.402   5.785 -0.2577 -0.4659 -1.2526
24249SOL    HW276025   9.563  10.466   5.681  1.7335 -2.7633 -1.0749
24250SOL     OW76026   4.959   9.239   5.061 -0.4034 -0.1059  0.3560
24250SOL    HW176027   5.000   9.265   5.143  1.4273 -2.1464  0.1813
24250SOL    HW276028   5.021   9.265   4.993 -0.7278 -0.6819 -0.1734
24251SOL     OW76029   8.983   4.647   4.599 -0.0977  0.8422 -0.5435
24251SOL    HW176030   9.013   4.738   4.597  1.4048  0.5316  2.4914
24251SOL    HW276031   9.058   4.598   4.631 -1.5965 -1.1199  0.1254
24252SOL     OW76032  11.342   1.684   5.096  0.1754 -0.6241 -0.2479
24252SOL    HW176033  11.375   1.664   5.009 -0.6551  0.6566 -0.8905
24252SOL    HW276034  11.305   1.601   5.127  2.0438 -1.5383 -0.3580
24253SOL     OW76035  10.894   1.743   4.120  0.2493 -0.2887 -0.1454
24253SOL    HW176036  10.928   1.805   4.054  0.4972 -0.8113 -0.5166
24253SOL    HW276037  10.967   1.684   4.137  0.6557  0.6847  1.6624
24254SOL     OW76038  11.392   4.787   9.685  0.5240  0.0317 -0.6963
24254SOL    HW176039  11.308   4.758   9.650  0.1079  0.2975  0.0684
24254SOL    HW276040  11.371   4.863   9.739  1.3839  0.6975 -1.2792
24255SOL     OW76041   1.409   2.858   4.875  0.0107 -0.6687 -0.1078
24255SOL    HW176042   1.328   2.867   4.825 -0.7514  0.6773  1.2569
24255SOL    HW276043   1.389   2.792   4.941  0.6123 -1.5571 -0.7887
24256SOL     OW76044   5.158   8.235   1.330 -0.1611  1.1399  0.0425
24256SOL    HW176045   5.161   8.330   1.317  1.3834  0.9931 -0.8843
24256SOL    HW276046   5.085   8.205   1.276 -0.5547  1.7668  0.2119
24257SOL     OW76047   3.206   4.994   7.157 -0.6553  0.6498  0.2210
24257SOL    HW176048   3.256   4.972   7.237 -0.9348 -0.7192  0.0422
24257SOL    HW276049   3.143   5.060   7.186  0.1963  1.2293  0.8092
24258SOL     OW76050   7.843   8.843   8.442  0.7349 -0.1901 -0.1303
24258SOL    HW176051   7.929   8.850   8.400  0.3609 -0.4850 -0.9480
24258SOL    HW276052   7.860   8.868   8.533  1.3973  1.3122 -0.6295
24259SOL     OW76053   8.074   4.859   0.873 -0.3666  0.0474 -0.5608
24259SOL    HW176054   8.110   4.772   0.858 -1.1189 -0.3156 -0.3321
24259SOL    HW276055   8.034   4.854   0.960 -1.1568  0.3474 -0.8903
24260SOL     OW76056   8.855   1.109   7.798 -0.3040  0.3548  0.3788
24260SOL    HW176057   8.807   1.170   7.855  2.0898  1.2327  1.6025
24260SOL    HW276058   8.826   1.131   7.710 -2.2645  0.6798  1.0606
24261SOL     OW76059   0.197   3.227  10.289 -0.0969  0.1664 -0.3401
24261SOL    HW176060   0.134   3.156  10.303 -1.3903  1.0162 -1.5887
24261SOL    HW276061   0.150   3.306  10.313  0.4000  0.8375 -1.4920
24262SOL     OW76062   5.339   8.899  10.017  0.2171  0.7788 -0.6453
24262SOL    HW176063   5.316   8.988   9.989  0.6107  0.9341 -0.4787
24262SOL    HW276064   5.421   8.909  10.065 -0.4769  0.5298  0.6242
24263SOL     OW76065  10.292  11.297   0.114 -0.5648  0.0290 -0.0381
24263SOL    HW176066  10.381  11.267   0.133  0.7064  3.2356 -0.3352
24263SOL    HW276067  10.256  11.229   0.058  1.8994 -1.1063 -0.3997
24264SOL     OW76068   5.174   8.916   5.734  0.7186 -0.7026  0.8379
24264SOL    HW176069   5.219   8.909   5.650 -2.7868  1.8616 -1.5622
24264SOL    HW276070   5.136   8.829   5.748  0.1461 -0.8223 -1.0975
24265SOL     OW76071   8.963  11.125   5.463  0.1148 -0.3826 -0.1101
24265SOL    HW176072   9.012  11.138   5.381 -0.0231  0.2166 -0.1053
24265SOL    HW276073   9.008  11.181   5.526 -0.3138 -0.1594 -0.0008
24266SOL     OW76074   3.176   3.523   7.470  0.0758  0.1126 -0.1516
24266SOL    HW176075   3.242   3.495   7.533 -0.0805  0.4718  0.1749
24266SOL    HW276076   3.127   3.592   7.516 -0.3816  0.0009 -0.4690
24267SOL     OW76077   3.006   5.236   8.377 -0.1954 -0.3191  0.3926
24267SOL    HW176078   2.924   5.229   8.425 -0.3384  2.0737  0.6072
24267SOL    HW276079   3.073   5.240   8.445 -0.2053  0.8581  0.3503
24268SOL     OW76080   7.953   1.349  11.307  0.0523 -0.7240 -0.0751
24268SOL    HW176081   7.975   1.379  11.395 -2.3247  2.0964 -0.2832
24268SOL    HW276082   8.033   1.362  11.257  0.8804 -0.5417  1.2443
24269SOL     OW76083  10.416   5.296   7.189 -0.0636 -0.4044  0.1470
24269SOL    HW176084  10.388   5.340   7.109  0.1629  0.2700  0.4329
24269SOL    HW276085  10.454   5.214   7.159  1.2276  0.4165 -0.5561
24270SOL     OW76086  11.193   3.069  10.713  0.5796  0.0041 -0.1328
24270SOL    HW176087  11.184   3.042  10.804 -0.1432  0.0000 -0.1921
24270SOL    HW276088  11.232   2.994  10.669  0.0951 -0.3418  0.0093
24271SOL     OW76089   2.073   1.119  11.171 -0.0181 -0.0882  0.5186
24271SOL    HW176090   2.147   1.085  11.221  0.1872 -2.0578 -1.0048
24271SOL    HW276091   2.108   1.197  11.127  1.2413 -1.0582 -0.2810
24272SOL     OW76092   5.741   8.126   7.573  0.0936  0.2151 -0.0506
24272SOL    HW176093   5.750   8.170   7.488  1.2887  1.0990  0.5028
24272SOL    HW276094   5.823   8.078   7.584 -0.7441 -1.3145 -0.1403
24273SOL     OW76095   1.225   7.825   8.537  0.4857 -0.5512 -0.2846
24273SOL    HW176096   1.309   7.783   8.552  0.5384 -0.2745  0.2677
24273SOL    HW276097   1.247   7.915   8.513  0.3710 -0.7697 -1.2130
24274SOL     OW76098   3.372   2.168   6.362 -0.0843 -0.9328 -0.2409
24274SOL    HW176099   3.327   2.248   6.336 -1.2143 -1.4316  0.1342
24274SOL    HW276100   3.338   2.147   6.449  0.4462 -1.6387 -0.1886
24275SOL     OW76101   9.492   8.834   3.407 -0.1680  0.0700  0.5124
24275SOL    HW176102   9.549   8.803   3.336 -2.8998  0.6393 -2.1288
24275SOL    HW276103   9.515   8.926   3.417 -0.9448  0.4633 -0.9862
24276SOL     OW76104   1.212   5.347   8.833 -0.5020  0.4292  0.0074
24276SOL    HW176105   1.256   5.408   8.892  2.4061 -0.6295 -0.8692
24276SOL    HW276106   1.140   5.311   8.884 -1.1540  3.1159  1.1663
24277SOL     OW76107  11.385  11.144   3.706 -0.0768 -0.0040 -0.0108
24277SOL    HW176108  11.352  11.214   3.763  0.5732  1.5435 -1.4406
24277SOL    HW276109  11.306  11.108   3.664 -0.2753  1.4729 -0.9838
24278SOL     OW76110   1.616   3.858   0.267 -0.4250 -0.1272 -0.4130
24278SOL    HW176111   1.602   3.924   0.335  0.1706 -0.4176  0.0014
24278SOL    HW276112   1.567   3.890   0.191  0.2798  1.0580 -0.3845
24279SOL     OW76113   2.356   5.935   4.410 -0.0130  0.0784 -0.2979
24279SOL    HW176114   2.325   6.015   4.368  0.1998  1.0267  1.2519
24279SOL    HW276115   2.430   5.964   4.464  0.9545 -1.4184 -0.7587
24280SOL     OW76116   8.313   9.559   4.385  0.0818 -0.4259  0.3931
24280SOL    HW176117   8.327   9.493   4.453  0.4566  1.2002  1.9707
24280SOL    HW276118   8.220   9.582   4.394  0.3565  0.4807  1.0444
24281SOL     OW76119   5.492   6.217   5.074  0.6255 -0.5162  0.5269
24281SOL    HW176120   5.515   6.198   4.983  0.3513  0.0977  0.3219
24281SOL    HW276121   5.410   6.169   5.088  0.3272 -0.1056  0.2424
24282SOL     OW76122   9.764   4.869   3.860  0.1931 -0.1347 -0.0097
24282SOL    HW176123   9.844   4.894   3.906  1.5450 -0.8017 -1.8942
24282SOL    HW276124   9.736   4.787   3.901 -0.2146  0.6855  1.4143
24283SOL     OW76125   3.012   9.300   0.377  0.3555 -0.1601  0.5582
24283SOL    HW176126   2.959   9.264   0.448 -0.1634 -2.6081 -0.9541
24283SOL    HW276127   2.986   9.392   0.372 -2.3927 -0.7994  1.1459
24284SOL     OW76128   7.603   4.285   5.630  0.5654 -0.0711  0.5209
24284SOL    HW176129   7.559   4.306   5.548 -1.2808 -1.0204  1.1980
24284SOL    HW276130   7.616   4.369   5.673 -2.4623  0.1766  1.1489
24285SOL     OW76131   3.000  10.897  10.929  0.1719 -0.2350  0.1483
24285SOL    HW176132   2.972  10.979  10.971 -0.6638 -0.4226 -0.0087
24285SOL    HW276133   2.937  10.832  10.960  0.0189 -0.5422 -0.7532
24286SOL     OW76134   9.093  10.491   0.108  0.1146 -0.0165  0.7302
24286SOL    HW176135   9.109  10.497   0.014  1.0725  1.3950  0.9537
24286SOL    HW276136   9.144  10.415   0.136 -0.3514 -0.5746  0.0902
24287SOL     OW76137   5.386   2.916   9.726 -0.2448  0.3957 -0.2326
24287SOL    HW176138   5.369   3.000   9.768  1.0209  0.3892  0.3510
24287SOL    HW276139   5.329   2.915   9.650 -0.0933  1.9153 -0.3961
24288SOL     OW76140   4.791   2.008   3.358 -0.5346 -0.0777  0.2742
24288SOL    HW176141   4.722   2.066   3.391 -0.8350  1.3488 -2.5550
24288SOL    HW276142   4.871   2.041   3.398 -0.8996  1.3840 -0.1337
24289SOL     OW76143   9.479  10.067   5.311 -0.6401  0.7848  0.3520
24289SOL    HW176144   9.514  10.007   5.377 -0.6904  2.2447  1.7631
24289SOL    HW276145   9.389  10.082   5.338 -1.8044 -1.1688 -1.9837
24290SOL     OW76146   7.809  10.047   5.136 -0.2394 -0.4152  0.5316
24290SOL    HW176147   7.748  10.083   5.200 -0.1047  0.3211  0.2610
24290SOL    HW276148   7.768  10.064   5.052 -0.7988 -2.1082  0.4350
24291SOL     OW76149   2.439   8.586   3.442 -0.0568  0.0321 -1.2188
24291SOL    HW176150   2.352   8.552   3.464  1.5155 -3.0485  0.9090
24291SOL    HW276151   2.475   8.616   3.525  1.5979 -0.5079 -1.6979
24292SOL     OW76152   2.427   4.420   5.077  0.3423  0.2451 -0.1011
24292SOL    HW176153   2.432   4.328   5.103 -1.5863  0.2515  0.4725
24292SOL    HW276154   2.506   4.460   5.114  1.8163 -1.3636 -1.3390
24293SOL     OW76155  10.012   7.218   1.286  0.2529  0.1306  0.1357
24293SOL    HW176156   9.947   7.227   1.356  0.0644 -1.4457  0.2142
24293SOL    HW276157  10.071   7.292   1.297 -1.1975  1.2961  0.4137
24294SOL     OW76158   6.560   4.773   9.902 -0.0729 -0.0025 -0.0244
24294SOL    HW176159   6.496   4.732   9.959 -0.6636 -0.7650 -1.2238
24294SOL    HW276160   6.637   4.717   9.908 -0.1996 -0.1870 -0.1367
24295SOL     OW76161   8.334  11.155   8.104 -0.0009 -0.3942 -0.1556
24295SOL    HW176162   8.323  11.160   8.199 -0.1039  1.3286 -0.2155
24295SOL    HW276163   8.418  11.197   8.088  0.3611 -1.3331 -0.7857
24296SOL     OW76164  11.228   9.543   8.651  0.2969  0.6912  0.3897
24296SOL    HW176165  11.278   9.480   8.598 -0.7544 -1.1436  1.5027
24296SOL    HW276166  11.295   9.589   8.702  0.9906 -1.8575  1.9970
24297SOL     OW76167   8.334   4.885   6.566  0.1476  0.0356 -0.2317
24297SOL    HW176168   8.301   4.795   6.565 -0.4005  0.2358 -0.2138
24297SOL    HW276169   8.265   4.936   6.609 -0.9899  1.0377 -3.0436
24298SOL     OW76170   3.788   7.497   3.062 -0.7806 -0.1746 -0.1131
24298SOL    HW176171   3.862   7.558   3.065  0.1221 -1.2591  1.2303
24298SOL    HW276172   3.779   7.467   3.152 -1.3507 -1.8246 -0.6884
24299SOL     OW76173  10.017   9.121  10.588  0.0827 -0.4484  0.1186
24299SOL    HW176174   9.950   9.057  10.565  1.2630 -1.5059 -0.4897
24299SOL    HW276175  10.044   9.160  10.505  1.4375 -1.3021  0.1258
24300SOL     OW76176   6.313   2.152   3.607  0.1117  0.2583  0.1089
24300SOL    HW176177   6.356   2.201   3.678 -1.8319  0.2391  1.3600
24300SOL    HW276178   6.222   2.180   3.610 -0.1843 -0.3551 -1.9026
24301SOL     OW76179   5.538   4.277   6.367 -0.2514 -0.6721  0.2687
24301SOL    HW176180   5.586   4.204   6.328  0.3798 -0.1689  0.0876
24301SOL    HW276181   5.569   4.354   6.320  0.9366  0.0346  2.0705
24302SOL     OW76182   3.369   2.194   9.444 -0.5016  0.4468  0.3308
24302SOL    HW176183   3.376   2.155   9.356  0.7765  1.5624 -0.0875
24302SOL    HW276184   3.448   2.166   9.489  1.5938  4.0655 -0.6734
24303SOL     OW76185   0.229   2.505   0.884  0.2177 -0.1469  0.4164
24303SOL    HW176186   0.257   2.562   0.812 -0.9563 -1.0362 -0.7853
24303SOL    HW276187   0.310   2.487   0.932  0.7237  1.9952  0.4794
24304SOL     OW76188   1.244   8.614   2.270 -0.0895 -0.2635  0.5195
24304SOL    HW176189   1.262   8.666   2.191 -2.4356  0.6387  0.5118
24304SOL    HW276190   1.306   8.541   2.265  1.2202  0.8829 -1.0666
24305SOL     OW76191   4.622   6.977   9.987 -0.2135  0.2269  0.6029
24305SOL    HW176192   4.581   6.903   9.941 -0.0081  1.4038 -1.6259
24305SOL    HW276193   4.658   6.939  10.067 -1.2441 -1.8208  0.1604
24306SOL     OW76194   9.015   4.621   0.652  0.1224  0.7661 -0.2381
24306SOL    HW176195   8.997   4.702   0.605 -1.2985  0.4332 -0.2999
24306SOL    HW276196   9.051   4.562   0.586  0.2522  1.0235 -0.3975
24307SOL     OW76197   5.839   3.156   3.900  0.6676 -0.2161  0.1974
24307SOL    HW176198   5.877   3.198   3.823  0.7439 -0.0864  0.3040
24307SOL    HW276199   5.900   3.086   3.922 -0.6209 -1.9546 -1.3811
24308SOL     OW76200   2.706   7.248   5.397  0.0013 -0.2762  0.4170
24308SOL    HW176201   2.791   7.293   5.407  0.7961 -1.3933 -0.9351
24308SOL    HW276202   2.720   7.162   5.437  0.2532 -1.2906 -1.7589
24309SOL     OW76203  10.949  10.494   2.881 -0.8218 -0.2026 -0.2455
24309SOL    HW176204  10.973  10.409   2.844  0.5253 -0.2478  0.6825
24309SOL    HW276205  10.901  10.473   2.961 -0.7754 -0.0863 -0.1868
24310SOL     OW76206   6.885  10.003  10.785  0.3156 -0.7118 -0.1835
24310SOL    HW176207   6.790  10.019  10.790  0.3055  0.5415 -2.6585
24310SOL    HW276208   6.922  10.089  10.766  1.4668 -1.7340 -3.2361
24311SOL     OW76209   7.923   3.592   1.488  0.1149  0.3326  0.5157
24311SOL    HW176210   7.860   3.665   1.486 -1.2781 -0.8149  0.7437
24311SOL    HW276211   7.982   3.614   1.561 -0.5189  1.0440  0.8380
24312SOL     OW76212   0.048   4.583   2.464  0.2523 -0.2239 -0.2279
24312SOL    HW176213   0.112   4.628   2.520 -1.7829  0.3001  1.8355
24312SOL    HW276214   0.007   4.653   2.414 -0.8330 -0.1072  0.7788
24313SOL     OW76215  10.846  10.001   8.000 -0.1847 -0.0962 -0.5548
24313SOL    HW176216  10.874   9.993   7.909 -1.1235 -0.2346 -0.8441
24313SOL    HW276217  10.762  10.046   7.996 -0.0085  0.3356  0.2868
24314SOL     OW76218   6.072   2.703   2.177  0.5540 -0.4131  0.0435
24314SOL    HW176219   5.992   2.667   2.137  1.9181 -2.5163 -0.9855
24314SOL    HW276220   6.086   2.649   2.255  0.8039  0.1920  0.4280
24315SOL     OW76221   4.604   5.653   9.080  0.1205 -0.3256  0.3894
24315SOL    HW176222   4.604   5.690   8.991 -2.3550 -0.8719  0.0993
24315SOL    HW276223   4.624   5.727   9.137  0.4905  0.3044 -0.5323
24316SOL     OW76224   4.460   2.338   5.045  0.1114  0.4230  0.1323
24316SOL    HW176225   4.458   2.421   5.093 -0.6638 -0.3073  1.4003
24316SOL    HW276226   4.409   2.278   5.099  1.3483 -1.1103 -0.3584
24317SOL     OW76227   6.139   0.540   2.362 -0.2680  0.2887 -0.2230
24317SOL    HW176228   6.093   0.464   2.325 -0.9509 -0.3367  1.7790
24317SOL    HW276229   6.175   0.508   2.445 -0.9003  2.2456  0.8608
24318SOL     OW76230  11.210   6.138   9.056  0.2820  0.2682 -0.8502
24318SOL    HW176231  11.274   6.135   9.127  0.2333 -0.0141 -0.8199
24318SOL    HW276232  11.158   6.216   9.075 -0.4849 -0.4543  0.0745
24319SOL     OW76233   2.168   8.858   9.200 -0.3612 -0.4503 -0.2992
24319SOL    HW176234   2.190   8.936   9.250  0.8178 -0.0068 -1.4716
24319SOL    HW276235   2.076   8.869   9.177 -0.5513 -0.0344  0.6376
24320SOL     OW76236   0.047   8.644   0.216 -0.7882  0.1933  0.5584
24320SOL    HW176237  -0.012   8.610   0.283  1.1425 -1.1466  1.6512
24320SOL    HW276238   0.085   8.566   0.176  0.8216  1.0251  0.4090
24321SOL     OW76239   6.961   2.598   2.748  0.1915 -0.3849  0.3740
24321SOL    HW176240   6.969   2.652   2.670  1.6553  0.5177  1.1038
24321SOL    HW276241   6.896   2.532   2.725  1.2379 -0.7148 -1.9297
24322SOL     OW76242  11.295  10.745   1.679 -0.0945  0.5954  0.0498
24322SOL    HW176243  11.387  10.757   1.657  0.1746 -0.2748  0.6213
24322SOL    HW276244  11.271  10.824   1.727  0.6234  0.4391  0.6900
24323SOL     OW76245   3.293   9.762  10.352 -0.0874 -0.3205 -0.2269
24323SOL    HW176246   3.381   9.795  10.334  0.6484 -0.4779  2.7139
24323SOL    HW276247   3.237   9.811  10.291  1.7257  1.6605 -0.4310
24324SOL     OW76248  11.170   1.175   7.266 -0.3262  0.3703 -0.0148
24324SOL    HW176249  11.190   1.084   7.245  1.3691  0.0695  2.5118
24324SOL    HW276250  11.256   1.216   7.278 -1.0601  1.4313  2.0809
24325SOL     OW76251   0.468   5.471   9.866 -0.2116 -0.3763 -0.2089
24325SOL    HW176252   0.381   5.509   9.877 -0.0226 -0.0397  0.1986
24325SOL    HW276253   0.490   5.486   9.774 -1.7405 -3.0152 -1.0991
24326SOL     OW76254   5.251  10.899   8.148 -0.3928 -0.7802 -0.2008
24326SOL    HW176255   5.317  10.944   8.201 -0.4790 -0.4492 -0.3770
24326SOL    HW276256   5.168  10.930   8.182 -0.5320 -2.5456  1.2460
24327SOL     OW76257   4.838   9.493   8.988 -0.0760  0.1590  0.6275
24327SOL    HW176258   4.900   9.427   9.018  0.8687  1.2170  1.0439
24327SOL    HW276259   4.855   9.500   8.894 -0.7689 -0.7848  0.4187
24328SOL     OW76260   3.149   8.294   4.622 -0.3413 -0.4311 -0.1900
24328SOL    HW176261   3.168   8.385   4.598 -0.6792 -0.0615  0.8949
24328SOL    HW276262   3.103   8.259   4.546  1.0649 -0.1474 -1.2156
24329SOL     OW76263  11.102   7.276   9.498 -0.6330 -0.6495  0.0306
24329SOL    HW176264  11.032   7.321   9.546 -1.3321  1.0267 -2.3658
24329SOL    HW276265  11.058   7.201   9.458 -0.2434 -1.5380  1.1965
24330SOL     OW76266   0.762   9.224   1.696 -0.0028  0.0845  0.1223
24330SOL    HW176267   0.703   9.239   1.622  0.1225  0.8331  0.1644
24330SOL    HW276268   0.809   9.307   1.706 -0.9631  0.4646  1.8973
24331SOL     OW76269   1.583  10.984   6.936 -0.0019 -0.7440 -0.2187
24331SOL    HW176270   1.634  10.965   6.857  0.4185 -1.0413  0.1231
24331SOL    HW276271   1.513  10.918   6.935 -0.9961  0.2709 -1.2099
24332SOL     OW76272   6.238   9.561  10.445  0.3443  0.5353 -0.3584
24332SOL    HW176273   6.190   9.640  10.471  1.6043  1.1836  0.1008
24332SOL    HW276274   6.328   9.591  10.435  1.4352 -1.3586  2.6113
24333SOL     OW76275   2.494   6.292   4.767 -0.0820  0.1671  0.1511
24333SOL    HW176276   2.493   6.233   4.692  0.3744 -0.5976  0.7358
24333SOL    HW276277   2.482   6.379   4.729 -0.4271 -0.2589 -0.7512
24334SOL     OW76278   5.801   3.153   4.545  0.0826  0.3191 -0.4400
24334SOL    HW176279   5.761   3.223   4.493 -0.9680 -0.5200 -0.8161
24334SOL    HW276280   5.728   3.093   4.563  0.6795 -0.0201  0.9824
24335SOL     OW76281   7.395   6.091   5.055  0.2519 -0.2952 -0.4689
24335SOL    HW176282   7.487   6.086   5.082  0.4617 -0.3870 -1.2007
24335SOL    HW276283   7.348   6.049   5.128  0.4719  2.3681  1.3370
24336SOL     OW76284   0.486   4.852   0.545 -0.0135 -0.2403  0.0522
24336SOL    HW176285   0.408   4.870   0.597 -0.3871 -0.9546 -0.2495
24336SOL    HW276286   0.492   4.757   0.543 -0.0942 -0.2370 -1.3383
24337SOL     OW76287   6.014  10.487   9.746  0.6052  0.3082  0.6622
24337SOL    HW176288   5.945  10.430   9.712  0.9495  0.4777 -0.3405
24337SOL    HW276289   5.968  10.565   9.777  0.4301  1.1741 -1.5554
24338SOL     OW76290   2.215   3.008  10.734 -0.1245  0.6822 -0.8116
24338SOL    HW176291   2.126   3.033  10.711 -0.1945  1.5617  0.3162
24338SOL    HW276292   2.206   2.923  10.778 -0.6381  1.5132  0.7680
24339SOL     OW76293   6.568   2.940   1.870 -0.3453  0.1664  0.0736
24339SOL    HW176294   6.488   2.910   1.911 -1.6340  1.4862 -1.3386
24339SOL    HW276295   6.574   2.890   1.788  0.1370  0.2392  0.0586
24340SOL     OW76296   3.284   3.376   2.649 -0.4219 -0.4947 -0.6764
24340SOL    HW176297   3.260   3.465   2.622 -0.2945 -0.5234 -0.8905
24340SOL    HW276298   3.219   3.352   2.715  0.4166  0.3175  0.4791
24341SOL     OW76299   7.749   3.937   6.607 -0.4060 -0.3158  0.2156
24341SOL    HW176300   7.773   4.021   6.568 -1.7289  0.0277  0.1046
24341SOL    HW276301   7.668   3.955   6.654 -0.5260 -1.4626  0.4751
24342SOL     OW76302  11.382  10.784   9.802 -0.0712  0.1507  0.6035
24342SOL    HW176303  11.368  10.690   9.810  0.8707  0.0362  1.0412
24342SOL    HW276304  11.470  10.798   9.837  0.6085  0.9144 -1.2419
24343SOL     OW76305   1.038   2.347   8.742  0.1493  0.6073  0.1862
24343SOL    HW176306   1.121   2.382   8.774  0.0975  1.5137 -0.6177
24343SOL    HW276307   1.061   2.262   8.704  0.8513  1.1464 -0.6470
24344SOL     OW76308   1.248   9.734   6.568 -0.0770  0.8891 -0.0530
24344SOL    HW176309   1.224   9.642   6.584 -0.0870  0.8297 -0.4041
24344SOL    HW276310   1.180   9.785   6.612  0.8385  0.7513  1.5998
24345SOL     OW76311   7.706   7.352   4.982 -0.0589 -0.0022  0.6116
24345SOL    HW176312   7.734   7.395   5.062  1.2093  0.6531 -0.1517
24345SOL    HW276313   7.720   7.417   4.913 -2.5610 -0.0061  0.0225
24346SOL     OW76314   5.458  10.832  10.318 -0.6512 -0.9659 -0.1402
24346SOL    HW176315   5.486  10.785  10.397 -0.5405 -1.7412 -0.6340
24346SOL    HW276316   5.435  10.919  10.350 -0.1218 -1.1060  0.6770
24347SOL     OW76317   1.701  10.539   9.356  0.2151  0.1005  0.1884
24347SOL    HW176318   1.635  10.492   9.305  1.2189 -0.4462 -0.6388
24347SOL    HW276319   1.665  10.628   9.364 -0.9541 -0.3637  0.3941
24348SOL     OW76320  10.719   6.101   1.762 -0.1349  0.0035 -0.0879
24348SOL    HW176321  10.687   6.013   1.741 -2.1377 -0.0416  2.5984
24348SOL    HW276322  10.800   6.086   1.811 -0.7601 -0.4206  0.8477
24349SOL     OW76323   5.851  10.787  11.310  0.3695  0.0760  1.1429
24349SOL    HW176324   5.813  10.759  11.227  1.2671  1.7870  0.1014
24349SOL    HW276325   5.793  10.749  11.377 -0.5188 -1.1234 -0.2409
24350SOL     OW76326  11.302  11.165   4.058 -0.0611  0.7430 -0.0041
24350SOL    HW176327  11.355  11.224   4.112 -0.6776  0.3931  1.0300
24350SOL    HW276328  11.283  11.215   3.979  2.5585  0.5615 -0.8689
24351SOL     OW76329   8.635   2.835   9.282  0.1505  0.1265 -0.3322
24351SOL    HW176330   8.688   2.807   9.357 -0.5783  1.3316  0.6764
24351SOL    HW276331   8.544   2.816   9.308 -0.3851  3.2174  0.3959
24352SOL     OW76332   1.472   6.747   7.364  0.1056  0.0852  0.2571
24352SOL    HW176333   1.499   6.745   7.272  0.6121 -1.5343  0.4141
24352SOL    HW276334   1.383   6.782   7.362  0.1810  0.2419 -0.8331
24353SOL     OW76335   2.320   3.024   1.922 -0.1786 -0.2014  0.3494
24353SOL    HW176336   2.338   3.110   1.960 -1.7594  0.2275  0.2258
24353SOL    HW276337   2.386   2.966   1.959  2.0792  1.3898 -0.9528
24354SOL     OW76338   0.414   2.977   3.276 -0.2184 -0.3896 -0.2263
24354SOL    HW176339   0.450   2.992   3.364 -0.2008 -0.6173 -0.1927
24354SOL    HW276340   0.477   3.020   3.218 -0.4322  0.0924 -0.1068
24355SOL     OW76341   0.016   4.456   0.486  0.1400 -0.2748  0.5336
24355SOL    HW176342   0.073   4.407   0.428  0.3056  1.1255 -0.5228
24355SOL    HW276343  -0.041   4.506   0.428 -0.5923  0.1473  1.5762
24356SOL     OW76344  10.879   1.290   6.021  0.5892  0.3101 -0.3072
24356SOL    HW176345  10.804   1.297   5.962  1.0554 -1.2910 -1.1513
24356SOL    HW276346  10.845   1.319   6.106 -0.6051  0.8957 -0.9502
24357SOL     OW76347   5.724   6.309   7.693  0.3567 -0.5243 -0.4083
24357SOL    HW176348   5.808   6.264   7.691  0.8965  0.4191  0.3993
24357SOL    HW276349   5.686   6.286   7.777 -0.0468 -0.6675 -0.6253
24358SOL     OW76350   3.671  11.097   2.838  0.5999  0.8023  0.6419
24358SOL    HW176351   3.730  11.139   2.775 -3.0522  1.3064 -2.8682
24358SOL    HW276352   3.626  11.170   2.881 -1.0541  0.5920 -0.6150
24359SOL     OW76353   8.162   6.998   3.847  0.2159  0.0772 -0.8261
24359SOL    HW176354   8.230   6.950   3.895 -0.3185  0.9991  0.9421
24359SOL    HW276355   8.197   7.006   3.758  0.4538 -3.2623 -1.1429
24360SOL     OW76356   5.317   2.370   1.516  1.0638 -0.1896 -0.4384
24360SOL    HW176357   5.379   2.362   1.588  2.0871  0.8069 -1.1717
24360SOL    HW276358   5.285   2.281   1.502  1.4227 -0.5204  0.7309
24361SOL     OW76359   0.255   2.276   4.792 -0.3790 -0.4994 -0.0665
24361SOL    HW176360   0.254   2.204   4.729  0.0416 -1.1202  0.6229
24361SOL    HW276361   0.344   2.275   4.827 -0.5865 -0.1097  0.4769
24362SOL     OW76362   6.663   9.384   6.923  0.4238 -0.0296 -0.0096
24362SOL    HW176363   6.691   9.352   7.009 -2.9203 -1.8862  0.5968
24362SOL    HW276364   6.632   9.473   6.939 -0.8248 -0.6003  0.9506
24363SOL     OW76365   6.776  10.896   6.897 -0.0042 -0.4631 -0.0639
24363SOL    HW176366   6.806  10.806   6.910  1.7394  0.1513  0.4931
24363SOL    HW276367   6.856  10.949   6.905 -1.0977  1.1898  0.3361
24364SOL     OW76368   9.592   3.358   6.305 -0.4281  0.3676  0.2068
24364SOL    HW176369   9.673   3.313   6.324 -0.4901  0.2244  0.1337
24364SOL    HW276370   9.542   3.354   6.386 -1.5402 -2.0052 -0.4983
24365SOL     OW76371   2.049   0.008   6.845  0.5711 -0.5232 -0.2378
24365SOL    HW176372   1.967   0.000   6.796  0.7157 -3.1448 -0.1787
24365SOL    HW276373   2.117   0.011   6.778  0.5022  1.3481 -0.2763
24366SOL     OW76374   3.392   1.745   6.879 -0.2640 -0.0667  0.4514
24366SOL    HW176375   3.481   1.733   6.913  0.7514  2.6512 -0.8822
24366SOL    HW276376   3.373   1.837   6.897 -2.4480 -0.3528 -0.1706
24367SOL     OW76377   9.083   3.557   6.682  0.1254 -0.3814  0.4172
24367SOL    HW176378   9.066   3.573   6.775 -0.3457 -0.0208  0.2753
24367SOL    HW276379   9.023   3.616   6.637 -0.5358 -1.4439 -0.1286
24368SOL     OW76380   7.303   1.604   4.062  0.4571  0.2272 -0.6948
24368SOL    HW176381   7.280   1.659   4.137  0.2673 -0.0433 -0.5473
24368SOL    HW276382   7.242   1.530   4.068 -0.2752  0.7264 -1.7278
24369SOL     OW76383   0.053   7.918  10.779  0.9840 -0.1276 -0.1838
24369SOL    HW176384  -0.020   7.978  10.794  1.5426  0.6508 -0.4788
24369SOL    HW276385   0.032   7.840  10.830 -1.1660 -0.8646 -2.0152
24370SOL     OW76386   8.037   1.681   8.930 -0.3146  0.1424  0.3147
24370SOL    HW176387   8.065   1.720   9.012  2.4601  0.5416 -0.7071
24370SOL    HW276388   7.972   1.742   8.895 -1.8394 -0.2364  2.3154
24371SOL     OW76389   5.889   9.149   2.374  0.0625 -0.1210  1.1442
24371SOL    HW176390   5.869   9.078   2.435 -0.3068 -1.0682 -0.0269
24371SOL    HW276391   5.985   9.152   2.372  0.2603 -3.0383 -1.3660
24372SOL     OW76392   7.869   0.722   9.927 -0.0093 -0.1263 -0.1326
24372SOL    HW176393   7.912   0.749   9.846 -0.1907  2.1175  0.4436
24372SOL    HW276394   7.776   0.737   9.911 -0.0947 -0.1852  0.3061
24373SOL     OW76395   2.796   9.814   7.306 -0.2714 -0.0088  0.0372
24373SOL    HW176396   2.742   9.810   7.386  0.0507  1.1965  0.3376
24373SOL    HW276397   2.749   9.759   7.243 -0.2472 -1.4365  1.2066
24374SOL     OW76398   0.504   0.915  10.268  0.2534  0.6195  0.3525
24374SOL    HW176399   0.485   0.854  10.339  1.7841  2.1107  2.1521
24374SOL    HW276400   0.433   0.979  10.272  0.2539  0.6165  0.4073
24375SOL     OW76401   8.799   7.156   3.867  0.0537 -0.1957  0.4466
24375SOL    HW176402   8.801   7.109   3.784  1.0282  0.5518  0.0336
24375SOL    HW276403   8.891   7.168   3.891 -0.2009  0.2794  1.2471
24376SOL     OW76404  10.899   1.412   1.079 -0.1320  0.0329  0.4907
24376SOL    HW176405  10.924   1.498   1.046  1.0678 -0.2863  0.5391
24376SOL    HW276406  10.923   1.352   1.008  0.9937 -0.4812  1.2860
24377SOL     OW76407   2.631   0.461  10.688  0.0523 -0.0545 -0.3348
24377SOL    HW176408   2.628   0.404  10.611  1.8769  3.2798 -3.1179
24377SOL    HW276409   2.550   0.512  10.684  0.2438  0.2679 -0.0974
24378SOL     OW76410  10.564   2.854  11.074  0.4834  0.1446 -1.1429
24378SOL    HW176411  10.515   2.936  11.079  0.8099  0.4446 -2.3864
24378SOL    HW276412  10.593   2.850  10.983  1.9057 -0.5217 -0.6802
24379SOL     OW76413   9.996   8.454   6.232 -0.1800  0.1293  0.5348
24379SOL    HW176414   9.901   8.458   6.222 -0.5113 -0.8417  2.5767
24379SOL    HW276415  10.009   8.411   6.317  2.1025 -2.5008 -0.9651
24380SOL     OW76416   9.635  11.052   4.619  0.0883 -0.3715  0.1462
24380SOL    HW176417   9.564  10.993   4.646  1.3697 -1.3458  1.4794
24380SOL    HW276418   9.594  11.139   4.619 -1.0861 -0.8940  0.9663
24381SOL     OW76419   9.330   4.313   7.313  0.2585  0.3611  0.9835
24381SOL    HW176420   9.307   4.367   7.238 -0.9989  0.2050  1.2420
24381SOL    HW276421   9.291   4.357   7.388 -0.2966 -0.5837  1.2677
24382SOL     OW76422   0.372  10.664   1.092  0.0232 -0.2604 -0.2662
24382SOL    HW176423   0.288  10.684   1.050  0.7470  1.5146 -0.9600
24382SOL    HW276424   0.432  10.646   1.019  0.7813  0.7628  0.0863
24383SOL     OW76425   6.070   8.631   3.845  0.3347  0.1264 -0.2060
24383SOL    HW176426   5.982   8.668   3.842  0.0643 -0.2251  1.8438
24383SOL    HW276427   6.110   8.672   3.921  0.2329 -3.1883  1.8410
24384SOL     OW76428   8.136  10.703   0.551 -0.4008  0.7994 -0.4464
24384SOL    HW176429   8.160  10.795   0.544 -1.0052  1.1102  1.1285
24384SOL    HW276430   8.143  10.683   0.644 -0.3344 -0.7422 -0.7526
24385SOL     OW76431   2.870   2.492   7.444  0.2883 -0.5138  0.0460
24385SOL    HW176432   2.878   2.403   7.410 -0.0737 -0.7764  0.6229
24385SOL    HW276433   2.828   2.481   7.530  2.0795  0.0271  1.0493
24386SOL     OW76434   9.870   7.601   5.528  0.4482  1.0353  0.6458
24386SOL    HW176435   9.919   7.530   5.487  0.9064 -0.0797  2.9690
24386SOL    HW276436   9.919   7.680   5.507  0.8966  0.4684 -0.5195
24387SOL     OW76437   0.714   9.847   2.763  0.6741 -0.1009  0.0330
24387SOL    HW176438   0.706   9.754   2.740  2.0245  0.0350 -1.0895
24387SOL    HW276439   0.784   9.880   2.706  1.3132  1.2366  1.5221
24388SOL     OW76440   7.639   1.106   6.736  0.2732  0.0118  0.4395
24388SOL    HW176441   7.707   1.094   6.669 -2.1945 -0.3383 -2.1849
24388SOL    HW276442   7.591   1.183   6.708 -1.4268 -0.6968  1.2680
24389SOL     OW76443   7.572   3.407  10.054  0.5412 -0.6509  0.3922
24389SOL    HW176444   7.494   3.372  10.010  0.6849 -0.5772  0.0763
24389SOL    HW276445   7.612   3.331  10.096  0.6442 -0.7994  0.0269
24390SOL     OW76446   9.377   1.147   4.835  0.4795 -0.0772 -0.0403
24390SOL    HW176447   9.326   1.085   4.887 -0.0685  0.5258  0.1696
24390SOL    HW276448   9.370   1.115   4.745  1.4173 -1.1166  0.2417
24391SOL     OW76449   3.396  10.878   4.019 -0.1179  0.4478 -0.3816
24391SOL    HW176450   3.459  10.949   4.029  0.3639 -0.2299  1.9370
24391SOL    HW276451   3.393  10.836   4.105 -2.1606 -0.8725 -1.0209
24392SOL     OW76452   6.448   4.625   1.050  0.7601 -0.4196 -0.2241
24392SOL    HW176453   6.498   4.543   1.055  0.7767 -0.3772  0.3452
24392SOL    HW276454   6.367   4.607   1.098  0.0034 -0.6330 -1.5410
24393SOL     OW76455  10.237   1.639   8.592 -0.1595 -0.5829 -0.0440
24393SOL    HW176456  10.188   1.701   8.645 -0.2606 -0.8793  0.2126
24393SOL    HW276457  10.324   1.678   8.584 -0.0442 -0.6957  0.6208
24394SOL     OW76458   0.971   6.152   8.914 -0.2686 -0.5033 -0.1242
24394SOL    HW176459   1.045   6.108   8.957  1.1313  0.1430 -1.7673
24394SOL    HW276460   0.960   6.233   8.963  1.2984  0.2205 -0.9066
24395SOL     OW76461   4.747   5.115   3.601  0.3047 -0.0486  0.0944
24395SOL    HW176462   4.680   5.181   3.619  0.2334  0.1195 -0.7556
24395SOL    HW276463   4.817   5.163   3.556  0.9777 -0.2371  0.8965
24396SOL     OW76464   2.710   0.928  10.702  0.0383 -0.2399  0.3435
24396SOL    HW176465   2.679   0.889  10.620  1.3214  1.4718 -1.0402
24396SOL    HW276466   2.800   0.895  10.712  0.4118  0.7165  0.2456
24397SOL     OW76467   1.239   6.092   3.164  0.2730  0.7362 -0.4448
24397SOL    HW176468   1.234   6.028   3.235 -0.1784  1.0053 -0.2274
24397SOL    HW276469   1.296   6.052   3.099  1.2830  0.7891  0.3823
24398SOL     OW76470   8.063   9.180   0.965 -0.5455  0.0299 -0.3459
24398SOL    HW176471   8.105   9.163   0.882  0.3533  0.6788 -0.0408
24398SOL    HW276472   8.068   9.275   0.976 -1.4792  0.0531  0.0223
24399SOL     OW76473  11.032   4.472   0.691 -0.4641 -0.0862  0.4824
24399SOL    HW176474  11.033   4.390   0.740  0.2293 -2.0598 -2.5128
24399SOL    HW276475  11.118   4.510   0.704 -0.4617 -0.3135  1.1499
24400SOL     OW76476   0.208   9.361   0.512 -0.6745 -0.0927 -0.1176
24400SOL    HW176477   0.223   9.355   0.418 -2.9044  0.9032 -0.6126
24400SOL    HW276478   0.113   9.359   0.521 -0.5994  1.5945  1.9440
24401SOL     OW76479   6.568   9.844   3.639  0.1425 -0.1747 -0.3772
24401SOL    HW176480   6.538   9.781   3.704  2.4783  0.0282  1.0314
24401SOL    HW276481   6.558   9.799   3.555  0.3814 -1.8604  0.4619
24402SOL     OW76482   3.563   7.525   7.040  0.0766  0.0087  0.2117
24402SOL    HW176483   3.597   7.501   6.954 -0.8190 -2.0881  0.3796
24402SOL    HW276484   3.481   7.477   7.048 -1.1459  2.1436  1.2488
24403SOL     OW76485   8.814   9.699   6.936  0.4675  0.1246 -0.4360
24403SOL    HW176486   8.847   9.719   7.023  0.2517 -0.5690 -0.1903
24403SOL    HW276487   8.836   9.607   6.922  0.7174  0.2939 -1.2124
24404SOL     OW76488   3.264  10.214   9.044  0.4799  0.2727 -0.4647
24404SOL    HW176489   3.189  10.217   8.984 -0.1613 -0.2155  0.2905
24404SOL    HW276490   3.295  10.304   9.048 -0.4633  0.6032 -0.3166
24405SOL     OW76491   4.707   6.389  10.167  0.9056  0.4581 -0.1769
24405SOL    HW176492   4.770   6.461  10.168  0.7744  0.5732 -0.0832
24405SOL    HW276493   4.759   6.311  10.186  0.6781  0.8320  2.2641
24406SOL     OW76494   8.723  10.194   6.977  0.0497  0.4958  0.5362
24406SOL    HW176495   8.721  10.290   6.983  1.8703  0.8091 -2.2873
24406SOL    HW276496   8.665  10.173   6.905 -0.7536 -0.6319  1.4755
24407SOL     OW76497   2.171   8.304   8.122  1.6064  0.3990  0.1176
24407SOL    HW176498   2.084   8.283   8.087  0.7592  2.1628  1.0669
24407SOL    HW276499   2.223   8.225   8.104  0.0568 -0.3864 -1.2049
24408SOL     OW76500   2.509   3.414   8.091 -0.2516 -0.6277  0.0866
24408SOL    HW176501   2.593   3.416   8.045 -0.5148  0.0749 -0.3689
24408SOL    HW276502   2.468   3.333   8.062 -0.6077  0.0145 -1.2904
24409SOL     OW76503   7.830   7.645   9.574  0.0369 -0.0558 -0.0942
24409SOL    HW176504   7.909   7.651   9.626  0.3359  1.4523 -0.6715
24409SOL    HW276505   7.858   7.603   9.493  0.5381  1.4946 -0.7654
24410SOL     OW76506   6.704   2.906   6.053  0.3513 -0.5894  0.5769
24410SOL    HW176507   6.683   2.953   6.134  1.2831 -0.4070  0.7255
24410SOL    HW276508   6.771   2.960   6.011 -0.4742 -0.4207 -0.5790
24411SOL     OW76509   2.766   0.284   6.768 -0.5741  0.5905 -0.1311
24411SOL    HW176510   2.836   0.299   6.831  0.4642  0.0262 -1.0957
24411SOL    HW276511   2.687   0.274   6.821  0.1802  0.6156  1.0317
24412SOL     OW76512  10.275   5.067   3.995 -0.0999  0.0094 -0.0037
24412SOL    HW176513  10.184   5.072   3.964 -0.0090  1.8664 -0.1008
24412SOL    HW276514  10.271   5.015   4.075 -1.3076  0.3687  0.1840
24413SOL     OW76515   9.889   8.763   6.852  0.0958  0.2563 -0.0618
24413SOL    HW176516   9.869   8.676   6.886 -0.6170  0.3451 -0.2406
24413SOL    HW276517   9.922   8.748   6.763  0.6478  0.1214  0.1642
24414SOL     OW76518  10.717   0.391   9.735  0.1677  0.7521 -0.0823
24414SOL    HW176519  10.798   0.370   9.782  1.0650  0.2960 -1.7435
24414SOL    HW276520  10.653   0.408   9.804 -0.0517 -4.8027  1.5631
24415SOL     OW76521   3.866   5.798  10.510 -0.1210  0.1644 -0.0980
24415SOL    HW176522   3.844   5.862  10.578 -0.8722  0.0306 -0.2110
24415SOL    HW276523   3.954   5.768  10.533 -0.0420  0.7273  0.3490
24416SOL     OW76524   1.569   1.762   9.362 -0.0178  0.3735  0.6921
24416SOL    HW176525   1.598   1.777   9.452 -2.2442 -0.4299  1.6352
24416SOL    HW276526   1.541   1.848   9.331 -1.1881  0.3413  1.5732
24417SOL     OW76527   2.573   0.446   7.169 -0.5589  0.6058  0.1176
24417SOL    HW176528   2.602   0.503   7.241 -0.6074  1.2423 -0.3574
24417SOL    HW276529   2.633   0.464   7.098 -1.7524  1.5278 -0.6894
24418SOL     OW76530   7.349   4.753  10.403 -0.3309 -0.2886  0.7088
24418SOL    HW176531   7.376   4.692  10.472 -0.8263 -0.8031  0.4560
24418SOL    HW276532   7.318   4.830  10.449 -1.2749 -0.8839  1.0884
24419SOL     OW76533  10.842   8.176   7.749 -0.2441 -0.8454  0.4669
24419SOL    HW176534  10.925   8.160   7.794 -0.5280  0.9581  1.7487
24419SOL    HW276535  10.778   8.127   7.801 -0.3653  0.1079  1.2548
24420SOL     OW76536   6.454   8.786   5.425 -0.0130  0.3180 -0.3401
24420SOL    HW176537   6.378   8.792   5.482  0.9466  0.4931  0.9589
24420SOL    HW276538   6.425   8.732   5.351 -1.6306  1.0711 -0.2954
24421SOL     OW76539   7.732   5.883   1.105 -0.5033 -0.1201  0.5344
24421SOL    HW176540   7.804   5.863   1.164 -0.3076 -0.6935  0.1098
24421SOL    HW276541   7.689   5.959   1.144  0.0825 -0.0250  1.0054
24422SOL     OW76542   3.224  11.109   5.182 -0.1285 -0.7617  0.2602
24422SOL    HW176543   3.252  11.052   5.111 -1.7185 -0.9227 -0.2738
24422SOL    HW276544   3.162  11.056   5.232  0.5880 -0.4808  1.4969
24423SOL     OW76545   9.054   3.411  11.119 -0.3972 -0.1927  0.3175
24423SOL    HW176546   9.147   3.394  11.106 -0.2480 -1.8859  2.8596
24423SOL    HW276547   9.011   3.366  11.047  0.7132  1.5551 -1.5434
24424SOL     OW76548   3.143   7.977   2.275 -0.0172  0.1037 -0.0268
24424SOL    HW176549   3.181   7.984   2.363 -0.9064 -2.0547  0.6019
24424SOL    HW276550   3.215   7.944   2.221  0.2082  0.2743  0.1695
24425SOL     OW76551  10.539   2.928   5.604 -0.3127 -0.2098  0.1863
24425SOL    HW176552  10.522   2.835   5.586  0.8156 -0.3957  0.0161
24425SOL    HW276553  10.634   2.937   5.596 -0.4641  1.0769 -0.3084
24426SOL     OW76554  10.864   8.469   5.016  0.1857  0.5463  0.2563
24426SOL    HW176555  10.852   8.404   5.085 -2.6991  0.4444 -0.2239
24426SOL    HW276556  10.940   8.438   4.967  0.1648 -1.2872  1.2894
24427SOL     OW76557   6.561   5.673   1.547  0.9831  0.2742  0.6386
24427SOL    HW176558   6.486   5.689   1.604  0.3806  0.3315 -0.1643
24427SOL    HW276559   6.527   5.681   1.458  2.0454  0.8097  0.2588
24428SOL     OW76560   8.930   6.328   4.904  0.3625 -0.0816 -0.1824
24428SOL    HW176561   8.933   6.310   4.998 -0.1695 -2.0877 -0.5109
24428SOL    HW276562   8.837   6.344   4.886  0.4952  0.5232 -0.3379
24429SOL     OW76563   6.486   2.960   3.268  0.1923  0.0950 -0.0596
24429SOL    HW176564   6.471   3.037   3.323 -0.5899 -0.0388 -0.0663
24429SOL    HW276565   6.413   2.960   3.206  0.0919 -0.7256  0.0374
24430SOL     OW76566   0.472   6.352   0.052 -0.4626 -0.2553 -0.3778
24430SOL    HW176567   0.563   6.338   0.024 -0.7867 -0.5773 -1.3110
24430SOL    HW276568   0.478   6.421   0.119  0.4602 -0.2336 -0.4659
24431SOL     OW76569   2.411   6.871   1.413 -0.6471 -0.5865  0.0907
24431SOL    HW176570   2.487   6.904   1.461 -0.7977 -0.9928  0.6074
24431SOL    HW276571   2.338   6.879   1.474 -0.6561 -2.0385  0.2925
24432SOL     OW76572   3.217   0.824   0.550 -0.1080 -0.1773 -0.3046
24432SOL    HW176573   3.280   0.882   0.507  0.7344 -1.1097 -0.3533
24432SOL    HW276574   3.140   0.826   0.493  0.7429 -0.8733 -1.5236
24433SOL     OW76575   3.787   1.635   6.290  0.5992  0.0664  0.5694
24433SOL    HW176576   3.711   1.588   6.323  0.6426 -0.5474 -0.1550
24433SOL    HW276577   3.751   1.711   6.245  0.4520  0.1231  0.7859
24434SOL     OW76578   1.636   8.744   0.135  0.0816  0.2469 -0.8002
24434SOL    HW176579   1.665   8.814   0.076 -0.6305  0.5753 -0.7669
24434SOL    HW276580   1.569   8.698   0.085  1.1678 -0.9948 -1.1810
24435SOL     OW76581  10.040   3.229  10.299 -0.6878  0.2544  0.3760
24435SOL    HW176582   9.970   3.180  10.256  0.4437  0.0349 -1.3502
24435SOL    HW276583  10.009   3.319  10.301  0.0157  0.6991 -2.9745
24436SOL     OW76584   3.573   3.428   2.357 -0.5230  0.1753 -0.2173
24436SOL    HW176585   3.609   3.381   2.432 -1.6222  1.6453  1.3017
24436SOL    HW276586   3.621   3.510   2.354 -2.1542  1.1994  0.4571
24437SOL     OW76587   7.537   7.402   9.872 -0.0103  0.2650  0.0689
24437SOL    HW176588   7.615   7.357   9.906  0.6018  1.3540  0.1296
24437SOL    HW276589   7.568   7.448   9.794 -0.7740  0.1104 -0.3357
24438SOL     OW76590   2.322   6.366   0.635 -0.1721 -0.6045 -0.0043
24438SOL    HW176591   2.405   6.405   0.606  0.7906 -3.2275 -1.0784
24438SOL    HW276592   2.258   6.435   0.621  1.3317  0.4667 -2.3045
24439SOL     OW76593   1.549   8.665   2.259 -0.1924 -0.3367  0.2306
24439SOL    HW176594   1.482   8.597   2.257  0.2102 -0.7431  0.4493
24439SOL    HW276595   1.558   8.692   2.167  0.5061 -1.4464 -0.0518
24440SOL     OW76596   9.887   2.177   9.389 -0.3084  0.1363  0.0615
24440SOL    HW176597   9.902   2.263   9.429  1.9366  0.9041 -2.1482
24440SOL    HW276598   9.834   2.195   9.312  0.8714 -0.2643 -0.8829
24441SOL     OW76599   4.087   8.470   5.448 -0.2388  0.5422  0.6503
24441SOL    HW176600   4.022   8.495   5.382  1.9699 -2.7184 -3.2041
24441SOL    HW276601   4.162   8.527   5.431  1.4048 -2.0920 -1.9703
24442SOL     OW76602  10.350   0.373   5.689  0.2518  0.2858  0.1144
24442SOL    HW176603  10.373   0.289   5.649  2.0035  1.3747 -1.3370
24442SOL    HW276604  10.289   0.412   5.627 -0.8435 -0.0276  0.9654
24443SOL     OW76605   8.167   0.560   0.922  0.4129 -0.1624 -0.0443
24443SOL    HW176606   8.100   0.600   0.978  0.8730  1.2557 -0.4493
24443SOL    HW276607   8.232   0.630   0.909  0.6686 -0.6733 -1.7631
24444SOL     OW76608   7.154   3.939   5.932 -0.0759 -0.5384 -0.1805
24444SOL    HW176609   7.066   3.902   5.933 -0.1982 -0.2635 -0.6762
24444SOL    HW276610   7.152   4.007   6.000  0.3931 -1.9515  1.3252
24445SOL     OW76611   4.855   0.488   0.122  0.6533  0.3425 -0.0923
24445SOL    HW176612   4.779   0.443   0.085  0.3347 -0.3720  1.3568
24445SOL    HW276613   4.837   0.581   0.107  0.1093  0.1255 -0.8914
24446SOL     OW76614   2.964   3.649   7.604  0.0465 -0.1285  0.2921
24446SOL    HW176615   2.875   3.622   7.627  0.0499  1.4141  2.3636
24446SOL    HW276616   2.957   3.742   7.584  0.8860 -0.4258 -1.6194
24447SOL     OW76617   8.218   7.460   0.611  0.0395 -0.2388 -0.0318
24447SOL    HW176618   8.284   7.411   0.561  0.9864  2.3005 -1.4927
24447SOL    HW276619   8.137   7.450   0.561  0.2594 -0.2192 -0.3946
24448SOL     OW76620   4.235   6.352   0.342 -0.0140  0.4280 -0.3993
24448SOL    HW176621   4.174   6.420   0.371 -0.1939  0.8224 -1.6242
24448SOL    HW276622   4.178   6.282   0.309  0.1877  0.2982 -0.4757
24449SOL     OW76623   3.949   2.871   3.755  0.0218 -0.0799  0.4309
24449SOL    HW176624   3.944   2.852   3.849  0.3312 -2.5170  0.0419
24449SOL    HW276625   3.956   2.784   3.714 -1.5464  0.8071 -1.9476
24450SOL     OW76626   0.896   3.565   8.512  0.5692 -0.5002  0.2596
24450SOL    HW176627   0.894   3.542   8.604 -1.6085  1.0675  0.6879
24450SOL    HW276628   0.930   3.654   8.510 -2.1663  0.6505 -0.0339
24451SOL     OW76629   7.377  10.253   6.608  0.0383 -0.3799 -0.2356
24451SOL    HW176630   7.322  10.270   6.685 -3.1115 -1.5236 -2.0137
24451SOL    HW276631   7.378  10.157   6.601 -0.4954 -0.2769 -2.0667
24452SOL     OW76632   2.694   9.040  11.380  0.0849 -0.1361 -0.4141
24452SOL    HW176633   2.681   9.131  11.352  0.1171 -0.1266 -0.3988
24452SOL    HW276634   2.746   9.047  11.460 -2.5186  0.0077  1.3756
24453SOL     OW76635   1.400   2.111   5.620 -0.4365 -0.7066 -0.2126
24453SOL    HW176636   1.308   2.092   5.639 -0.2428 -1.5508 -0.0868
24453SOL    HW276637   1.446   2.029   5.638  0.4446 -0.1027  0.3953
24454SOL     OW76638   4.057   1.505   7.417 -0.1759  0.3215 -0.2997
24454SOL    HW176639   4.081   1.462   7.499  0.9717 -0.5388 -1.0514
24454SOL    HW276640   4.039   1.596   7.441 -0.0679  0.0271  0.9263
24455SOL     OW76641   1.218   3.184   1.884  0.1877 -0.2638  0.5578
24455SOL    HW176642   1.124   3.204   1.878  0.4811  0.9392 -0.2420
24455SOL    HW276643   1.223   3.118   1.953 -1.1940  0.0158  0.9672
24456SOL     OW76644   4.695   4.530   9.809  0.0972  0.3504  0.2616
24456SOL    HW176645   4.691   4.441   9.842  1.9538  0.0225 -0.2778
24456SOL    HW276646   4.604   4.558   9.802 -0.5213 -1.5946  0.1827
24457SOL     OW76647   7.712   3.955   9.426 -0.1890 -0.1681 -0.1820
24457SOL    HW176648   7.775   3.884   9.435  0.2525 -0.3253 -3.3312
24457SOL    HW276649   7.761   4.034   9.448  0.0368 -0.5726  0.8415
24458SOL     OW76650   1.786   2.508   7.310  0.0830 -0.2890  0.3271
24458SOL    HW176651   1.827   2.591   7.335  2.0702 -1.1758  0.2047
24458SOL    HW276652   1.771   2.463   7.393 -0.9846  0.1583  0.3924
24459SOL     OW76653   8.041  10.941   3.026 -0.6843 -0.6399  0.4555
24459SOL    HW176654   7.958  10.988   3.012 -2.0066 -2.7873  0.5473
24459SOL    HW276655   8.108  11.009   3.024 -2.4904  1.2569  0.8742
24460SOL     OW76656   8.694   6.834   8.591 -1.0886  0.1720  0.2891
24460SOL    HW176657   8.693   6.929   8.602  1.1048  0.1810  0.8844
24460SOL    HW276658   8.717   6.820   8.500  2.3341  0.3401  0.9871
24461SOL     OW76659   9.104   1.721  10.921 -0.4431 -0.1900 -0.2267
24461SOL    HW176660   9.071   1.802  10.961  1.5213 -0.3846  2.0053
24461SOL    HW276661   9.169   1.750  10.858 -0.2955  0.0070  0.0115
24462SOL     OW76662   7.009   1.199   5.373  0.1369 -0.1807  0.1308
24462SOL    HW176663   6.951   1.129   5.403  0.0940 -0.0515  0.3529
24462SOL    HW276664   6.973   1.279   5.413  0.3218 -0.0656  0.0678
24463SOL     OW76665   5.164   2.577   1.633 -0.2813  0.5440  0.4478
24463SOL    HW176666   5.179   2.503   1.574 -1.7319 -0.5352  1.3617
24463SOL    HW276667   5.117   2.641   1.580  1.4107  1.0634 -0.4918
24464SOL     OW76668   6.945  10.478   6.406  0.3031 -0.3658 -0.1300
24464SOL    HW176669   6.979  10.452   6.320 -2.8923 -0.4712 -1.5479
24464SOL    HW276670   6.881  10.410   6.427 -0.9769  1.1105  0.9576
24465SOL     OW76671   0.422   3.812   9.100  0.3003  0.0628 -0.0518
24465SOL    HW176672   0.509   3.792   9.065  0.1897  1.2079 -1.0552
24465SOL    HW276673   0.440   3.860   9.181  0.6307  0.6372 -0.4511
24466SOL     OW76674   5.391   7.342   4.739 -0.0195  0.3986  0.3710
24466SOL    HW176675   5.409   7.312   4.650 -1.1826  0.7185  0.0089
24466SOL    HW276676   5.462   7.403   4.759  0.0164  0.6618 -0.5042
24467SOL     OW76677   1.079   5.465   5.744  0.5825  0.2718 -0.0664
24467SOL    HW176678   1.032   5.480   5.662  0.8698 -0.4454 -0.3737
24467SOL    HW276679   1.116   5.550   5.766  2.3043  0.0521 -1.8134
24468SOL     OW76680   9.074  10.837   8.783 -0.1847  0.1638  0.4284
24468SOL    HW176681   9.050  10.908   8.723 -0.5967  0.3304  0.7837
24468SOL    HW276682   8.994  10.820   8.833  0.0033 -0.3343  0.5672
24469SOL     OW76683   9.286   5.268   2.836  0.0498 -0.1995 -0.6129
24469SOL    HW176684   9.203   5.312   2.819  0.1286  0.6389  0.9932
24469SOL    HW276685   9.286   5.254   2.931  2.5427  1.5242 -0.2730
24470SOL     OW76686   8.673   9.000   1.626  0.4468 -0.3360 -0.5187
24470SOL    HW176687   8.643   8.918   1.587 -1.9011 -0.7553  1.8134
24470SOL    HW276688   8.722   8.972   1.704  0.9216  0.4654 -0.5261
24471SOL     OW76689   3.553   0.364  10.471  0.3879  0.3721 -0.3146
24471SOL    HW176690   3.599   0.448  10.474  1.9764 -0.4846  1.1902
24471SOL    HW276691   3.579   0.325  10.387  0.1785  1.0903 -0.7188
24472SOL     OW76692   0.481   5.083  11.035 -0.0299 -0.0862 -0.1480
24472SOL    HW176693   0.391   5.114  11.040 -0.0767 -0.2950  0.3923
24472SOL    HW276694   0.487   5.017  11.104  0.4213 -0.3646 -0.4508
24473SOL     OW76695   2.332   3.099   4.946 -0.0777  0.1622  0.5341
24473SOL    HW176696   2.355   3.183   4.985 -0.8432 -0.2763  2.0301
24473SOL    HW276697   2.269   3.120   4.878  0.9380  0.9187 -0.1893
24474SOL     OW76698   8.164   8.886   6.854 -0.5096  0.2913 -0.1020
24474SOL    HW176699   8.107   8.833   6.910  1.0788 -4.4103 -2.3607
24474SOL    HW276700   8.106   8.923   6.788 -1.4421 -1.1230 -0.1101
24475SOL     OW76701   1.173   0.338   5.241 -0.1017 -0.2828 -0.3352
24475SOL    HW176702   1.220   0.324   5.159  0.1468 -0.0772 -0.2319
24475SOL    HW276703   1.191   0.260   5.293  1.3931  0.4289  0.2941
24476SOL     OW76704   3.458   2.778   3.165 -0.2190  0.0671 -0.3711
24476SOL    HW176705   3.371   2.743   3.185 -0.1801 -0.2722 -0.8037
24476SOL    HW276706   3.441   2.862   3.123 -0.3159  0.4403  0.3822
24477SOL     OW76707   3.888  10.525   3.757  0.0802 -0.1481  0.2166
24477SOL    HW176708   3.890  10.555   3.848  0.4723  0.1873  0.1019
24477SOL    HW276709   3.961  10.571   3.715  0.2901 -0.7824 -0.1175
24478SOL     OW76710  10.074   6.559   9.511  0.0049 -0.2186 -0.0742
24478SOL    HW176711  10.148   6.498   9.502  0.8648  0.9478 -1.1100
24478SOL    HW276712  10.081   6.590   9.601  0.2858 -0.7300  0.0900
24479SOL     OW76713  10.040   5.764   5.879  0.1451  0.1953 -0.5707
24479SOL    HW176714   9.961   5.797   5.923 -0.1496 -0.8689 -0.2725
24479SOL    HW276715  10.106   5.832   5.894 -0.3926  0.5705  0.1771
24480SOL     OW76716  10.752   8.581   8.827 -0.4504  0.2279 -0.6141
24480SOL    HW176717  10.808   8.504   8.838 -0.4959  0.1903 -0.6508
24480SOL    HW276718  10.751   8.597   8.733  0.9070  1.2561 -0.4970
24481SOL     OW76719   9.431   1.646   5.241  0.1512  0.5119  0.4105
24481SOL    HW176720   9.441   1.651   5.146 -1.3524  2.6442  0.2973
24481SOL    HW276721   9.472   1.563   5.265  2.8861  1.0799 -1.7669
24482SOL     OW76722   4.530   2.665   5.879  0.2537  0.2646  0.0489
24482SOL    HW176723   4.585   2.696   5.951  1.4158  0.5031 -0.8995
24482SOL    HW276724   4.572   2.702   5.801 -1.3983  0.6279 -0.6967
24483SOL     OW76725   3.125   7.443  10.777 -0.1531 -0.1615 -0.1310
24483SOL    HW176726   3.189   7.392  10.827 -1.3049 -2.2087 -0.6355
24483SOL    HW276727   3.179   7.502  10.723  1.2898 -1.4495 -0.1723
24484SOL     OW76728   9.161   5.640   0.944 -0.0697 -0.0539  0.9891
24484SOL    HW176729   9.185   5.731   0.963 -1.5957  0.7850 -0.7874
24484SOL    HW276730   9.072   5.632   0.979 -0.3477 -0.5312  0.1829
24485SOL     OW76731   4.855   9.640   4.279  0.6168  0.3740 -0.1617
24485SOL    HW176732   4.801   9.578   4.229 -0.3598 -0.6499  2.0399
24485SOL    HW276733   4.852   9.721   4.227  1.0548 -1.0525 -2.5926
24486SOL     OW76734   8.592   3.760   4.665  0.1655  0.0259  0.3905
24486SOL    HW176735   8.513   3.759   4.611 -0.1363 -1.2478  0.8237
24486SOL    HW276736   8.566   3.717   4.746  1.2300 -0.1626  0.6461
24487SOL     OW76737   3.957   7.260   2.035  0.6981 -0.4550 -0.8020
24487SOL    HW176738   4.036   7.238   1.984  1.6842 -0.1745  0.5473
24487SOL    HW276739   3.906   7.180   2.036  2.4081 -1.6135  0.8081
24488SOL     OW76740   8.437   2.160   3.273  0.1330  0.2954 -0.1641
24488SOL    HW176741   8.503   2.181   3.208 -0.2079  1.1352 -0.2570
24488SOL    HW276742   8.463   2.209   3.351 -0.0087  0.1008  0.0065
24489SOL     OW76743   6.741   2.954   9.196 -0.2746 -0.1105 -0.0937
24489SOL    HW176744   6.666   2.952   9.255 -0.0178 -0.5290  0.2235
24489SOL    HW276745   6.750   2.863   9.166  0.2914 -0.1262  0.1125
24490SOL     OW76746   9.612   8.764   3.159 -0.0017  0.1197  0.4160
24490SOL    HW176747   9.578   8.696   3.102 -1.8019  1.1570  0.1630
24490SOL    HW276748   9.694   8.791   3.118 -1.2576  0.8604 -1.7809
24491SOL     OW76749   2.817   0.492  10.876 -0.1605 -0.3545 -0.1309
24491SOL    HW176750   2.762   0.484  10.798  0.5389  0.9753 -0.7961
24491SOL    HW276751   2.798   0.579  10.910  0.0556 -0.6598  0.7914
24492SOL     OW76752   9.136   9.489   2.730  0.0656 -0.4828  0.1960
24492SOL    HW176753   9.172   9.408   2.766  4.5260  0.9231 -0.4390
24492SOL    HW276754   9.111   9.542   2.806 -0.0080 -1.2790  0.7282
24493SOL     OW76755   8.917   7.929   9.736  0.0580 -0.9359 -0.1064
24493SOL    HW176756   9.004   7.936   9.774 -0.0618  2.9225 -0.2090
24493SOL    HW276757   8.923   7.975   9.653 -2.1236 -0.3694 -0.0063
24494SOL     OW76758   2.148   2.517   1.558 -0.3668 -0.7784 -0.4540
24494SOL    HW176759   2.142   2.608   1.527 -0.1954 -0.0455  1.5481
24494SOL    HW276760   2.240   2.504   1.576 -0.6342 -0.7033  1.0496
24495SOL     OW76761   9.317   8.351   2.917 -0.1399 -0.3257  0.3727
24495SOL    HW176762   9.328   8.257   2.930  1.0396 -0.1193  1.0167
24495SOL    HW276763   9.234   8.372   2.960  0.8310 -0.6655  2.5272
24496SOL     OW76764   3.626   1.215   2.634 -0.8512  0.2269  0.1984
24496SOL    HW176765   3.602   1.287   2.576 -0.6182 -0.9371 -1.4129
24496SOL    HW276766   3.572   1.142   2.605 -1.1896 -0.2358  1.8997
24497SOL     OW76767   9.017   0.982   6.412  0.2810 -0.2031 -0.1531
24497SOL    HW176768   9.072   0.975   6.334 -1.3465  0.3324 -1.3959
24497SOL    HW276769   8.981   1.071   6.409 -0.1991 -0.3405  0.9376
24498SOL     OW76770   9.517   7.912   1.294  0.5602  0.6022  0.2190
24498SOL    HW176771   9.448   7.877   1.238 -0.3912  2.7871 -0.1006
24498SOL    HW276772   9.578   7.955   1.234  1.9591 -0.8322  0.5512
24499SOL     OW76773   1.900   1.668   8.303 -0.4303 -0.0467  0.0583
24499SOL    HW176774   1.820   1.624   8.275  0.2620 -0.3575 -1.5243
24499SOL    HW276775   1.965   1.646   8.236  0.2661  2.3966 -0.1602
24500SOL     OW76776   3.388   2.700   5.520 -0.2068 -0.0168  0.2423
24500SOL    HW176777   3.472   2.746   5.527 -0.6171  0.6224  1.2130
24500SOL    HW276778   3.369   2.699   5.426  1.9020 -2.0781 -0.2566
24501SOL     OW76779   7.321   5.047   2.393  0.0031 -0.5113 -0.3853
24501SOL    HW176780   7.251   5.027   2.331  0.3220 -0.7244 -0.6852
24501SOL    HW276781   7.358   5.129   2.361 -0.8529  0.2176  0.4423
24502SOL     OW76782   6.433   8.470   2.513  0.0085 -0.1471  0.6834
24502SOL    HW176783   6.514   8.447   2.559  1.2460  0.7673 -0.8894
24502SOL    HW276784   6.403   8.550   2.556  0.2722 -0.1745  0.9218
24503SOL     OW76785  10.043   5.622  11.233 -0.6689  0.1060  0.1009
24503SOL    HW176786   9.966   5.566  11.222 -1.2420  1.0013 -0.6404
24503SOL    HW276787  10.117   5.562  11.232 -1.2614 -0.6373 -0.7599
24504SOL     OW76788   1.955   0.558   5.004 -1.1282  0.3219  0.9127
24504SOL    HW176789   2.030   0.506   5.033 -0.8168 -0.1326 -0.6201
24504SOL    HW276790   1.988   0.609   4.930 -2.3598  0.0042  0.1146
24505SOL     OW76791   4.100   7.782   2.322  0.0881  0.2482 -0.4618
24505SOL    HW176792   4.063   7.695   2.339  0.7442 -0.0606 -0.5859
24505SOL    HW276793   4.174   7.766   2.264 -1.5335  1.1788 -2.9598
24506SOL     OW76794   8.012   7.339   2.550  0.1904  0.0113  0.8280
24506SOL    HW176795   8.032   7.252   2.515  2.0819  0.6980  0.0926
24506SOL    HW276796   8.097   7.380   2.563 -0.6595  1.7207  1.2698
24507SOL     OW76797   5.413   1.210   1.217 -0.2970  0.1595  0.0273
24507SOL    HW176798   5.398   1.267   1.142  2.9463 -1.3430 -1.9950
24507SOL    HW276799   5.461   1.265   1.279 -1.6343  0.9764  0.3708
24508SOL     OW76800   9.440  10.525   8.858  0.7680  0.5759  0.0267
24508SOL    HW176801   9.472  10.605   8.901  0.4971  1.1957 -0.8881
24508SOL    HW276802   9.350  10.516   8.888  0.7325  0.7309 -0.0315
24509SOL     OW76803   1.038   6.454   7.012  0.1352  0.3016 -0.0534
24509SOL    HW176804   0.973   6.510   7.053  0.7429  1.1141 -0.1627
24509SOL    HW276805   0.988   6.381   6.976 -0.8607  1.3881 -0.9811
24510SOL     OW76806   3.070   7.303   7.416  0.2849  0.1161 -0.0835
24510SOL    HW176807   3.023   7.326   7.336  1.7712  0.5181 -0.8848
24510SOL    HW276808   3.043   7.369   7.479 -0.8486 -0.1587 -0.2606
24511SOL     OW76809   3.847   6.185   2.903  0.7659  0.0945 -0.2782
24511SOL    HW176810   3.811   6.235   2.976  0.5721  2.2004 -1.6992
24511SOL    HW276811   3.942   6.190   2.915  0.7236 -0.1853  0.1969
24512SOL     OW76812   9.643   5.161   4.682  0.1738 -0.5561  0.1308
24512SOL    HW176813   9.584   5.222   4.727 -1.9134 -2.0776 -0.3897
24512SOL    HW276814   9.673   5.209   4.605  1.0156  0.8291  1.2479
24513SOL     OW76815   2.975   1.311   0.302  0.2669 -0.4711  0.4175
24513SOL    HW176816   2.976   1.407   0.312  0.9725 -0.3900 -0.3674
24513SOL    HW276817   3.067   1.286   0.304  0.1505 -1.0139 -0.4980
24514SOL     OW76818   1.431   2.122   0.803  0.7544 -0.0678  0.0958
24514SOL    HW176819   1.439   2.217   0.806  1.1646 -0.1230  0.9879
24514SOL    HW276820   1.514   2.092   0.765  0.9958 -0.1134  0.6493
24515SOL     OW76821   0.252   3.384   5.946 -0.0352 -0.3052  0.3370
24515SOL    HW176822   0.300   3.374   5.864 -0.4138 -1.2591  0.2154
24515SOL    HW276823   0.223   3.295   5.968  0.2967 -0.1092  1.6472
24516SOL     OW76824   6.342   9.606   4.561 -0.1509  0.4226  0.2257
24516SOL    HW176825   6.421   9.652   4.531 -0.8021  1.7062  0.4035
24516SOL    HW276826   6.341   9.621   4.656 -0.1271 -0.3606  0.3506
24517SOL     OW76827   4.831   3.082   3.267  0.3183  0.3860 -0.2321
24517SOL    HW176828   4.826   3.075   3.172  1.2680  1.0912 -0.3519
24517SOL    HW276829   4.802   2.996   3.299  1.1743 -0.2866 -1.1988
24518SOL     OW76830   5.275   0.856   0.563 -0.2821  0.8742  0.1515
24518SOL    HW176831   5.226   0.915   0.507 -1.2314  0.4124  0.4606
24518SOL    HW276832   5.302   0.910   0.637 -1.4527  0.8727  0.6122
24519SOL     OW76833   2.243   5.592   6.910  0.0850  0.1182  0.1432
24519SOL    HW176834   2.227   5.595   6.815  0.5048  0.5776  0.0848
24519SOL    HW276835   2.247   5.499   6.930  1.1512  0.0099 -0.4941
24520SOL     OW76836   0.274   0.693   0.320  0.4872  0.6107  0.1241
24520SOL    HW176837   0.179   0.688   0.315  0.2948 -0.0492  3.0343
24520SOL    HW276838   0.304   0.647   0.242 -1.5873 -0.8560  0.1021
24521SOL     OW76839   1.106   9.092   9.828  0.6306  0.2989 -0.4358
24521SOL    HW176840   1.123   9.048   9.746  1.0635 -1.8152  0.7230
24521SOL    HW276841   1.097   9.185   9.804  1.4241 -0.1532 -2.7312
24522SOL     OW76842  10.018   9.694   4.172  0.4657 -0.1403  0.4333
24522SOL    HW176843  10.099   9.745   4.168 -0.6986  1.8889  1.2034
24522SOL    HW276844   9.958   9.749   4.221 -1.5895 -1.3218 -0.6308
24523SOL     OW76845  10.148  11.351  10.682 -0.6186  0.1794 -0.0418
24523SOL    HW176846  10.090  11.418  10.645  1.1559  2.1493  0.4945
24523SOL    HW276847  10.144  11.366  10.777 -1.0609 -1.2824  0.1890
24524SOL     OW76848   2.742   3.273   7.171  0.5866 -0.0174  0.0649
24524SOL    HW176849   2.694   3.197   7.203  0.4295  0.2060  0.3644
24524SOL    HW276850   2.832   3.242   7.161  0.8796  0.1892  1.7774
24525SOL     OW76851   9.580   4.925   8.851 -0.1877  0.2802  0.1354
24525SOL    HW176852   9.607   5.017   8.842 -0.8927  0.5664  0.8743
24525SOL    HW276853   9.490   4.929   8.881  0.2914 -0.6503  1.8142
24526SOL     OW76854   0.791   9.290   6.158 -0.0211  0.1984  0.1901
24526SOL    HW176855   0.850   9.308   6.084 -0.2549 -0.6176 -0.2016
24526SOL    HW276856   0.849   9.290   6.234  0.5288 -0.7325 -0.2045
24527SOL     OW76857   3.071   5.717   8.583 -0.1849  0.2959  0.2859
24527SOL    HW176858   3.100   5.760   8.502  0.6289 -1.3031 -0.3296
24527SOL    HW276859   3.143   5.730   8.644 -0.6068  1.1126  0.6268
24528SOL     OW76860   1.834   8.213   2.367  0.3454  0.4280 -0.2599
24528SOL    HW176861   1.742   8.192   2.353  0.8476 -1.6222 -0.8106
24528SOL    HW276862   1.869   8.229   2.279  0.9433 -0.8027 -0.2573
24529SOL     OW76863   3.889   4.617   1.884 -0.0861  0.4222  0.0828
24529SOL    HW176864   3.824   4.674   1.925 -0.7659 -0.8495  0.8547
24529SOL    HW276865   3.845   4.582   1.806  0.0092  0.3089  0.0785
24530SOL     OW76866   1.844   8.668  10.083 -0.2532  0.1441 -0.0157
24530SOL    HW176867   1.828   8.633   9.996 -0.5179  0.6655 -0.1844
24530SOL    HW276868   1.782   8.741  10.091  0.0628  0.3668  0.4432
24531SOL     OW76869   2.025   4.865   7.201 -0.4589  0.3301 -0.5181
24531SOL    HW176870   1.967   4.939   7.180 -0.1024 -0.4279 -5.0257
24531SOL    HW276871   2.091   4.903   7.259 -1.4445  3.0276 -1.0133
24532SOL     OW76872   2.357   8.349   7.152 -0.5224 -0.0445 -0.3626
24532SOL    HW176873   2.448   8.361   7.179 -0.6890 -0.5487  0.4591
24532SOL    HW276874   2.347   8.255   7.140 -0.8790  0.0268 -0.6440
24533SOL     OW76875  10.345   9.878   1.555 -0.1080  0.2761  0.0536
24533SOL    HW176876  10.268   9.863   1.500  0.4869  1.5169 -1.1680
24533SOL    HW276877  10.311   9.877   1.645 -1.3578 -0.2581 -0.4024
24534SOL     OW76878   7.432   0.003  10.565  0.2488 -0.1650 -0.4257
24534SOL    HW176879   7.526   0.004  10.585  0.0626  0.5777  0.5266
24534SOL    HW276880   7.392   0.050  10.638 -1.1272 -2.5812  0.5151
24535SOL     OW76881  10.141   6.573   9.779  0.4644 -0.2557  0.2239
24535SOL    HW176882  10.234   6.573   9.799  0.1308  1.0367  2.0046
24535SOL    HW276883  10.112   6.663   9.799 -1.4466 -1.0359  1.2192
24536SOL     OW76884   1.293   5.031   8.590 -0.2066 -0.1865  0.0301
24536SOL    HW176885   1.338   4.991   8.516 -0.6775 -1.5372  0.4481
24536SOL    HW276886   1.207   5.055   8.555  0.2605  1.0074 -0.3628
24537SOL     OW76887   3.036   1.584   7.590 -0.5975 -0.3783  0.1276
24537SOL    HW176888   3.045   1.497   7.627  0.1098 -0.4442 -0.1790
24537SOL    HW276889   3.120   1.601   7.546 -0.4107  0.7795  0.8688
24538SOL     OW76890   0.657  10.096   0.171 -0.4728  0.3387 -0.1551
24538SOL    HW176891   0.602  10.168   0.139  0.1945  0.7291 -0.4535
24538SOL    HW276892   0.704  10.134   0.246 -1.1231 -0.2063  0.5515
24539SOL     OW76893   8.978   3.160  10.125  0.3250  0.5241 -0.5063
24539SOL    HW176894   9.015   3.213  10.196 -2.8716  1.9876  0.2610
24539SOL    HW276895   9.012   3.200  10.045  2.5098  0.0029  0.0824
24540SOL     OW76896  10.882   3.286   5.082  0.3094 -0.0911 -0.4248
24540SOL    HW176897  10.903   3.305   4.991  1.0336 -0.0516 -0.2590
24540SOL    HW276898  10.837   3.364   5.114  1.4670  0.5382 -0.3125
24541SOL     OW76899   3.352   5.700   9.585  0.1618  0.1046 -0.0027
24541SOL    HW176900   3.425   5.694   9.647 -0.2698 -0.6219  0.4570
24541SOL    HW276901   3.336   5.609   9.559  0.3440  0.3977 -1.1980
24542SOL     OW76902   4.876   6.422   5.901  0.3519 -0.2094  0.2925
24542SOL    HW176903   4.800   6.454   5.949 -0.9911  1.2343 -2.5358
24542SOL    HW276904   4.948   6.479   5.928 -0.2554  0.2734  0.9174
24543SOL     OW76905   7.640   2.184   3.838  0.5574 -0.3779 -0.1756
24543SOL    HW176906   7.607   2.232   3.762 -0.8692 -0.6172  0.2579
24543SOL    HW276907   7.728   2.157   3.813  1.1848  1.9043 -0.6855
24544SOL     OW76908   5.095   9.681   2.507  0.0951 -0.1148 -0.2573
24544SOL    HW176909   5.139   9.681   2.422 -1.4192  1.5590 -1.0973
24544SOL    HW276910   5.003   9.663   2.487 -0.3831  0.8062  0.9743
24545SOL     OW76911   8.113   3.472   6.071  0.8269  0.0970 -0.3710
24545SOL    HW176912   8.072   3.540   6.018  0.9091 -0.5713 -1.3342
24545SOL    HW276913   8.117   3.396   6.012  1.9946 -0.3169  0.2160
24546SOL     OW76914   1.667   2.597   9.294  0.2456  1.0026  0.0331
24546SOL    HW176915   1.692   2.505   9.303  0.3064  1.0434  0.3139
24546SOL    HW276916   1.571   2.596   9.295  0.2458  0.9960  0.6919
24547SOL     OW76917   6.909   3.783   5.588 -0.3471 -0.4478  0.0535
24547SOL    HW176918   6.902   3.862   5.535 -0.7133 -1.7087 -1.8823
24547SOL    HW276919   6.837   3.789   5.650 -0.5115  0.6158 -0.2192
24548SOL     OW76920   5.051   6.816   5.862 -0.1926  0.1345 -0.0687
24548SOL    HW176921   5.036   6.728   5.896 -1.6057  0.3709 -0.0365
24548SOL    HW276922   5.099   6.802   5.780  1.2855 -0.5417  0.8818
24549SOL     OW76923   6.949   9.912   7.603 -0.1213 -0.9036 -0.0294
24549SOL    HW176924   7.040   9.906   7.633 -0.4651 -0.9494  1.0063
24549SOL    HW276925   6.911   9.827   7.624 -0.2801 -1.0619 -0.9157
24550SOL     OW76926   8.642   9.002   2.662  0.5338  0.1828 -0.6094
24550SOL    HW176927   8.630   9.088   2.702  0.7936  0.7877 -1.7743
24550SOL    HW276928   8.688   8.950   2.728  0.0074  0.8098  0.2571
24551SOL     OW76929   8.426   8.660   0.107  0.2629 -0.0506 -0.6168
24551SOL    HW176930   8.478   8.716   0.050 -1.0052  0.6209 -1.1559
24551SOL    HW276931   8.489   8.599   0.145  2.1408  3.0769  1.7646
24552SOL     OW76932   1.785   7.453   5.445 -0.0943  0.3406 -0.1159
24552SOL    HW176933   1.719   7.523   5.447  0.7088  1.1275 -0.8240
24552SOL    HW276934   1.816   7.447   5.535 -2.7628 -1.6639  0.8150
24553SOL     OW76935   4.568   5.331   3.643  0.0204 -0.1218 -0.6805
24553SOL    HW176936   4.508   5.323   3.570 -0.2343  0.0071 -0.4855
24553SOL    HW276937   4.520   5.297   3.719  0.6178 -1.1488 -0.7430
24554SOL     OW76938   2.533   4.248  10.562  0.1380  0.0109  0.0943
24554SOL    HW176939   2.597   4.319  10.568  1.1286 -0.8885  0.3940
24554SOL    HW276940   2.478   4.258  10.640  0.1134  0.5897  0.0063
24555SOL     OW76941  10.620   0.213   5.447 -0.2845  0.1280 -0.3618
24555SOL    HW176942  10.555   0.197   5.516  0.2035  0.2417  0.1245
24555SOL    HW276943  10.704   0.201   5.490  0.0377  1.0516 -0.7176
24556SOL     OW76944   4.562   1.535   6.125 -0.0437 -0.3241  0.1886
24556SOL    HW176945   4.579   1.545   6.219  1.1482  0.2858 -0.0790
24556SOL    HW276946   4.498   1.464   6.120 -0.5606  0.0208  1.4947
24557SOL     OW76947   6.980   8.230   4.497  0.7871 -0.0362 -0.3372
24557SOL    HW176948   7.049   8.251   4.560 -0.7566  1.6360  0.9006
24557SOL    HW276949   6.924   8.307   4.496 -1.4967 -1.5823 -0.7107
24558SOL     OW76950   5.140   5.891   2.284  0.5390 -0.3226  0.3690
24558SOL    HW176951   5.071   5.824   2.284 -1.0080  1.2116  0.6666
24558SOL    HW276952   5.097   5.970   2.251  2.6462  0.2442 -1.2368
24559SOL     OW76953   6.893   6.508   9.673  0.1833 -0.2334 -0.0735
24559SOL    HW176954   6.851   6.469   9.750  0.3721 -2.1924 -0.9032
24559SOL    HW276955   6.841   6.477   9.599  2.0079 -1.2636 -0.9846
24560SOL     OW76956   2.732   0.634   5.405  0.1000  0.2833  0.6074
24560SOL    HW176957   2.660   0.601   5.459  1.3496 -2.9406  0.5007
24560SOL    HW276958   2.760   0.714   5.450 -3.7942  2.0388  0.3222
24561SOL     OW76959   9.153  11.208   6.874 -0.1381 -0.0571 -0.4142
24561SOL    HW176960   9.171  11.276   6.938 -0.3174  0.0194 -0.4433
24561SOL    HW276961   9.085  11.154   6.914 -0.5833  0.2614 -0.7288
24562SOL     OW76962   4.082   5.992  10.391 -0.2084 -0.2637  0.1526
24562SOL    HW176963   4.076   5.998  10.486  1.3936 -0.2035  0.2729
24562SOL    HW276964   4.141   6.064  10.366 -0.5507 -0.3191 -0.8771
24563SOL     OW76965   3.341   5.111   5.448 -0.2911 -0.1627 -0.5277
24563SOL    HW176966   3.311   5.048   5.382 -0.4402 -0.1425 -0.4784
24563SOL    HW276967   3.367   5.057   5.522 -0.5100 -0.1614 -0.4490
24564SOL     OW76968   2.557   3.892   8.218  0.3856 -0.2198 -0.1540
24564SOL    HW176969   2.511   3.807   8.216  1.5521 -0.9066  0.6077
24564SOL    HW276970   2.513   3.941   8.287 -0.8246  0.1312 -1.1484
24565SOL     OW76971   1.090   3.824   9.846 -0.2605  0.2698  0.0250
24565SOL    HW176972   1.146   3.766   9.794 -1.6908 -0.4900 -0.7367
24565SOL    HW276973   1.140   3.841   9.926  0.8168 -0.8040 -0.3926
24566SOL     OW76974   0.110   7.467   5.310 -0.0496 -0.4367 -0.3333
24566SOL    HW176975   0.086   7.541   5.366 -0.0825 -0.4612 -0.3150
24566SOL    HW276976   0.028   7.420   5.296 -0.0077 -0.5365 -0.2469
24567SOL     OW76977  10.511   8.924   5.258 -0.2113  0.0543 -0.3264
24567SOL    HW176978  10.516   8.919   5.163  1.1790  0.3572 -0.2854
24567SOL    HW276979  10.568   8.854   5.289 -0.2093  0.3195  0.2860
24568SOL     OW76980  10.405   5.195   2.315 -0.1131  0.2070 -0.0608
24568SOL    HW176981  10.398   5.158   2.227  2.1710  0.3939 -0.3978
24568SOL    HW276982  10.321   5.176   2.356 -0.1260 -2.8144 -1.1805
24569SOL     OW76983   5.012   4.865  11.169 -0.2713 -0.0620 -0.2045
24569SOL    HW176984   5.022   4.954  11.203 -0.3562  0.1651 -0.7487
24569SOL    HW276985   4.944   4.825  11.224 -1.6429  0.8609 -1.1624
24570SOL     OW76986   2.053   5.867  10.616 -0.4463 -0.2675 -0.3682
24570SOL    HW176987   2.032   5.959  10.602 -0.3137 -0.2641 -0.5371
24570SOL    HW276988   2.073   5.833  10.529  2.8809  0.3632 -0.0089
24571SOL     OW76989   5.595   7.616   8.972  0.1914  0.1062 -0.3170
24571SOL    HW176990   5.556   7.576   8.894 -0.6764 -0.1071  0.2100
24571SOL    HW276991   5.541   7.584   9.045  1.4970 -0.3689  0.4673
24572SOL     OW76992   8.597   3.149   6.459  0.0735  0.6429  0.0722
24572SOL    HW176993   8.692   3.140   6.469  0.2034 -0.9841 -1.9975
24572SOL    HW276994   8.565   3.059   6.451 -1.5810  1.2004  0.0259
24573SOL     OW76995   7.915   7.360  11.377  0.0142 -0.3915  0.1933
24573SOL    HW176996   8.000   7.320  11.356  0.4627 -0.1221  1.4315
24573SOL    HW276997   7.928   7.453  11.362 -0.8509 -0.5727 -2.0866
24574SOL     OW76998   8.911   9.319  10.365 -0.1686 -0.2334 -0.5388
24574SOL    HW176999   8.964   9.259  10.418  0.6563  0.0681 -0.9930
24574SOL    HW277000   8.919   9.404  10.410  0.1496 -0.0817 -0.8701
24575SOL     OW77001   1.335  11.015   4.317  0.2386  0.6162  0.0672
24575SOL    HW177002   1.401  10.971   4.369 -1.0739 -1.7263 -0.1201
24575SOL    HW277003   1.370  11.014   4.228  0.1259 -0.3051  0.0252
24576SOL     OW77004   6.469   4.814   2.010 -0.3009 -0.0140  0.5504
24576SOL    HW177005   6.379   4.787   1.990  0.1282 -2.0919  1.1971
24576SOL    HW277006   6.464   4.850   2.099 -0.3625 -0.9701  0.9441
24577SOL     OW77007   7.328   5.220   1.560  0.6803 -0.5875 -0.0181
24577SOL    HW177008   7.268   5.147   1.579  1.6136 -1.6030 -0.8741
24577SOL    HW277009   7.289   5.263   1.483 -1.1606  1.3441  1.8490
24578SOL     OW77010   0.134   7.196   4.869 -0.0453  0.0739  0.0175
24578SOL    HW177011   0.086   7.271   4.835 -0.3410 -0.0278  0.2076
24578SOL    HW277012   0.092   7.120   4.829 -0.6039 -0.0653  0.8524
24579SOL     OW77013   2.906   4.084  10.608  0.0897  0.5766  0.3411
24579SOL    HW177014   2.897   4.143  10.533  1.3499 -0.4353 -0.6493
24579SOL    HW277015   2.872   4.000  10.576  0.1589  0.2602  1.0823
24580SOL     OW77016   4.715   2.674   9.431  0.5085  0.2588 -0.2875
24580SOL    HW177017   4.643   2.618   9.399 -0.3973  1.3576 -0.2239
24580SOL    HW277018   4.768   2.615   9.484 -1.2306 -0.2352  1.0010
24581SOL     OW77019   3.631   2.449   2.826 -0.1867 -0.0816 -0.1035
24581SOL    HW177020   3.544   2.484   2.810 -0.9613 -1.6744  0.4593
24581SOL    HW277021   3.673   2.447   2.739 -0.9821 -0.0498 -0.4915
24582SOL     OW77022   4.800   3.872   9.579 -0.2945 -0.0194 -0.1026
24582SOL    HW177023   4.724   3.903   9.627 -0.6042  1.1307 -1.2761
24582SOL    HW277024   4.871   3.930   9.605  0.4683 -1.6560  1.6959
24583SOL     OW77025   3.191   9.175  10.663  0.7989 -0.0232 -0.3593
24583SOL    HW177026   3.236   9.256  10.688 -1.3767  1.5108 -1.1038
24583SOL    HW277027   3.150   9.144  10.743  0.8285  0.1588 -0.2744
24584SOL     OW77028   4.961   2.826   2.570 -0.0249 -0.6201 -0.3520
24584SOL    HW177029   5.018   2.758   2.534  1.8624  1.0907 -0.7689
24584SOL    HW277030   4.873   2.790   2.561  0.8954 -3.2436 -0.0075
24585SOL     OW77031   5.378  10.685   2.471 -0.6434 -0.4577  0.2200
24585SOL    HW177032   5.359  10.756   2.410  2.2137 -0.2440 -0.5557
24585SOL    HW277033   5.332  10.709   2.551 -1.0197  1.4656 -0.5310
24586SOL     OW77034   2.328   4.616   9.807  0.6272 -0.2311  0.5861
24586SOL    HW177035   2.248   4.667   9.804  0.5942 -0.2734  0.7726
24586SOL    HW277036   2.398   4.680   9.816  0.6450 -0.1686  0.0357
24587SOL     OW77037   3.094   8.684   5.605 -0.1357 -0.2350  0.8200
24587SOL    HW177038   3.094   8.766   5.654 -1.2035  0.4882 -0.3489
24587SOL    HW277039   3.185   8.673   5.577  0.0625  0.4190  1.1843
24588SOL     OW77040  11.114   6.127   2.967 -0.1331 -0.1602  0.6674
24588SOL    HW177041  11.159   6.180   3.034 -2.4179  1.1288  1.2812
24588SOL    HW277042  11.155   6.041   2.974  3.2927  1.2394  0.0808
24589SOL     OW77043   1.085  10.062   3.792 -0.1657  0.6241  0.2068
24589SOL    HW177044   1.171  10.020   3.781 -1.3926 -1.4015 -3.7668
24589SOL    HW277045   1.082  10.127   3.722 -1.4122  1.6487  1.1660
24590SOL     OW77046  11.202   7.500   3.247  0.0330  0.2827 -0.1712
24590SOL    HW177047  11.154   7.495   3.164 -0.3769 -2.4144  0.1440
24590SOL    HW277048  11.133   7.504   3.314  0.3256  0.4352  0.1251
24591SOL     OW77049   1.476   4.244   7.151  0.4014 -0.4121  0.1243
24591SOL    HW177050   1.510   4.202   7.230  0.5833  1.6841  1.2238
24591SOL    HW277051   1.551   4.293   7.117  0.7344 -2.3187 -2.1856
24592SOL     OW77052   4.683   3.626   8.823  0.0583  0.5216 -0.4524
24592SOL    HW177053   4.703   3.591   8.910  1.9757 -1.7924 -1.7153
24592SOL    HW277054   4.612   3.571   8.791  0.4223  0.3576 -0.9710
24593SOL     OW77055   0.243   6.042   4.966 -0.4331  0.3748  0.3628
24593SOL    HW177056   0.190   5.963   4.972  0.3404 -0.3495 -1.6551
24593SOL    HW277057   0.187   6.111   5.000 -1.6425 -0.7920  0.8205
24594SOL     OW77058   9.810   3.094   3.504 -0.0237 -0.8330 -0.0761
24594SOL    HW177059   9.868   3.055   3.438  0.0281  1.9262 -1.7947
24594SOL    HW277060   9.837   3.185   3.510 -1.7773 -0.3571  1.8595
24595SOL     OW77061   6.870   3.620  10.998 -0.2133 -0.1303  0.3185
24595SOL    HW177062   6.836   3.701  10.960 -0.2760 -0.4146 -0.2426
24595SOL    HW277063   6.957   3.610  10.957  0.3322  0.3154  1.3396
24596SOL     OW77064   1.050   6.899  11.223 -0.0307 -0.0617  0.2743
24596SOL    HW177065   1.041   6.934  11.135 -0.6546 -2.4068 -0.6852
24596SOL    HW277066   0.964   6.861  11.243  0.3997 -0.4763  1.4682
24597SOL     OW77067   0.128   5.642   5.643 -0.1570  0.3094 -0.3482
24597SOL    HW177068   0.155   5.659   5.553 -0.0945 -0.2758 -0.4441
24597SOL    HW277069   0.113   5.548   5.646 -1.2629  0.4853 -0.0394
24598SOL     OW77070   6.584  10.627   1.757  0.2825  1.2465  0.2944
24598SOL    HW177071   6.502  10.650   1.801 -1.5043 -3.1958 -0.1006
24598SOL    HW277072   6.561  10.623   1.664  1.1570  0.8104  0.0847
24599SOL     OW77073   1.155  10.527   8.368 -0.5049  0.0280 -0.0271
24599SOL    HW177074   1.117  10.501   8.451  2.0600 -2.0093  0.6526
24599SOL    HW277075   1.158  10.446   8.317  1.2487  0.4481 -0.6661
24600SOL     OW77076   7.838   1.744   7.161  0.0425 -0.3162 -0.3420
24600SOL    HW177077   7.826   1.824   7.213  2.8735 -0.3102  0.4319
24600SOL    HW277078   7.787   1.678   7.207 -1.3839  0.7365 -0.3246
24601SOL     OW77079   8.009  10.746   0.327 -0.3806 -0.0020  0.0451
24601SOL    HW177080   7.957  10.680   0.282  0.5666  0.1556 -1.3407
24601SOL    HW277081   8.031  10.706   0.411 -2.2650 -0.2604  0.4632
24602SOL     OW77082   5.738   6.447   8.843  0.6125  0.1284  0.2869
24602SOL    HW177083   5.657   6.442   8.793  0.9569  0.5752 -0.3247
24602SOL    HW277084   5.789   6.515   8.800  0.6001  1.0883  1.7112
24603SOL     OW77085   2.856  10.104   3.224 -0.0095  0.2242  0.6082
24603SOL    HW177086   2.886  10.044   3.292  0.5011 -2.0710 -1.4824
24603SOL    HW277087   2.937  10.132   3.180 -0.4263  0.2859 -0.1385
24604SOL     OW77088   3.206  10.056   8.720  0.1828 -0.3714  0.2625
24604SOL    HW177089   3.208  10.147   8.752  1.7508 -0.0863 -0.5618
24604SOL    HW277090   3.118  10.025   8.742 -0.1523  1.1216  1.1786
24605SOL     OW77091   9.681   9.253   1.862  0.2610  0.1789 -0.3120
24605SOL    HW177092   9.775   9.244   1.872  0.2382  1.0212  0.8766
24605SOL    HW277093   9.644   9.206   1.937 -0.1826  1.3210  0.2147
24606SOL     OW77094   7.662   7.154   1.436 -0.2704 -0.2514  0.2484
24606SOL    HW177095   7.681   7.093   1.365 -1.4708  0.0709 -0.3680
24606SOL    HW277096   7.634   7.098   1.509 -0.0997 -0.5072  0.1189
24607SOL     OW77097   3.107   7.950   5.991 -0.4781 -0.3614  0.2370
24607SOL    HW177098   3.138   7.861   5.975  1.0192  0.0590  0.6554
24607SOL    HW277099   3.182   8.006   5.972 -1.4792  0.8540 -0.3031
24608SOL     OW77100   7.458   5.080   0.807 -0.0446  0.3059  0.0250
24608SOL    HW177101   7.430   4.993   0.779  1.8686 -0.4847  0.4448
24608SOL    HW277102   7.508   5.065   0.887 -1.0219  1.9850  1.0085
24609SOL     OW77103   1.642   1.393   8.974 -0.0543 -0.1984  0.6556
24609SOL    HW177104   1.700   1.436   9.036 -1.4161  0.6933  1.3596
24609SOL    HW277105   1.620   1.309   9.015  2.8814 -1.8991 -0.8748
24610SOL     OW77106   8.617   6.015   8.588 -0.0172  0.1828  0.0360
24610SOL    HW177107   8.635   6.090   8.530  2.6683  1.1433  1.9136
24610SOL    HW277108   8.684   5.951   8.565  0.5649  0.2503  1.4684
24611SOL     OW77109  11.314   8.805   1.237  0.3257 -0.0252 -0.3072
24611SOL    HW177110  11.308   8.780   1.330 -0.1014  1.2434  0.0248
24611SOL    HW277111  11.392   8.860   1.232 -1.6894  3.1693  0.1562
24612SOL     OW77112   2.881   6.776  11.258  0.1080 -0.1908 -0.1436
24612SOL    HW177113   2.791   6.755  11.232  0.4059  0.0929 -1.4625
24612SOL    HW277114   2.931   6.774  11.177  1.1378  0.5216  0.4491
24613SOL     OW77115   8.681  11.281   7.249 -0.3932  0.7469  0.6372
24613SOL    HW177116   8.587  11.282   7.267 -0.7656 -0.8202 -0.9528
24613SOL    HW277117   8.692  11.342   7.177  0.1101  2.1585  1.8509
24614SOL     OW77118   5.093   1.855   9.680 -0.7695  0.3832 -0.3468
24614SOL    HW177119   5.105   1.945   9.710  0.0219  0.0091  0.4808
24614SOL    HW277120   4.998   1.846   9.670 -0.9309  0.9963  0.5337
24615SOL     OW77121   0.563   3.820   2.034 -0.5374 -0.0276 -0.1763
24615SOL    HW177122   0.514   3.741   2.057 -1.0850 -0.4319 -2.5128
24615SOL    HW277123   0.498   3.890   2.036  0.1065  0.6437  2.7329
24616SOL     OW77124   1.080   2.051   1.883 -0.0970  0.8391  0.6030
24616SOL    HW177125   1.002   2.047   1.938 -0.1205  0.7026  0.5598
24616SOL    HW277126   1.047   2.062   1.794 -0.0588  1.0666  0.6153
24617SOL     OW77127   7.326   8.084   1.316 -0.2273  0.7682 -0.2376
24617SOL    HW177128   7.376   8.085   1.398  0.1664  0.1155 -0.4586
24617SOL    HW277129   7.307   8.176   1.297  0.1764  0.9596  0.2827
24618SOL     OW77130  10.735   4.259   8.571 -0.1018  0.2298 -0.1371
24618SOL    HW177131  10.700   4.219   8.651  1.1846  0.7719  0.7298
24618SOL    HW277132  10.660   4.306   8.534 -1.5479 -2.4780 -0.9506
24619SOL     OW77133  11.269   9.783   7.655 -0.0278 -0.3249 -0.3166
24619SOL    HW177134  11.199   9.725   7.624 -0.2402  1.1403 -2.8421
24619SOL    HW277135  11.349   9.731   7.646 -0.2068 -0.3072 -2.6075
24620SOL     OW77136   0.097   7.568   3.816 -0.5377  0.0980 -0.4255
24620SOL    HW177137   0.013   7.522   3.816 -0.0971 -0.8452  1.6471
24620SOL    HW277138   0.073   7.661   3.821 -1.4619 -0.1367 -0.3441
24621SOL     OW77139   5.973   5.352   6.712  0.0771 -0.5312  0.0841
24621SOL    HW177140   5.950   5.437   6.672 -1.6898 -1.5411 -1.1909
24621SOL    HW277141   6.006   5.375   6.799  2.8558  1.6922 -1.3672
24622SOL     OW77142   7.009   0.383   7.399 -0.0163 -0.4023 -0.1807
24622SOL    HW177143   7.081   0.413   7.345 -0.4080 -1.4161 -1.3055
24622SOL    HW277144   7.024   0.424   7.484  1.4829 -0.0456 -0.5945
24623SOL     OW77145   3.570   2.163   3.301  0.0366  0.4947  0.6083
24623SOL    HW177146   3.491   2.122   3.336 -0.4335  0.6369 -0.2558
24623SOL    HW277147   3.642   2.110   3.335 -0.3587  0.9300  2.1830
24624SOL     OW77148   0.977  10.223   2.158 -0.5952  0.2115  0.3762
24624SOL    HW177149   1.027  10.201   2.080 -0.4848 -2.8594  1.1559
24624SOL    HW277150   1.016  10.304   2.191  1.2570  0.0066 -1.1674
24625SOL     OW77151   5.651   1.881   9.119 -0.0959  0.5131 -0.1976
24625SOL    HW177152   5.616   1.792   9.127  0.3090  0.3022 -0.6962
24625SOL    HW277153   5.576   1.938   9.135 -0.9022  0.0706 -2.0790
24626SOL     OW77154   3.805   8.025   4.925 -0.2178 -0.6518  0.3814
24626SOL    HW177155   3.825   7.942   4.882 -1.6452 -0.7201 -0.2195
24626SOL    HW277156   3.867   8.087   4.886 -0.0372 -1.1587 -0.1686
24627SOL     OW77157   6.194  10.661  10.190  0.2564  0.2035 -0.2693
24627SOL    HW177158   6.245  10.586  10.158  0.9948  0.0434  1.1841
24627SOL    HW277159   6.110  10.624  10.215  0.6500 -0.1706  0.5251
24628SOL     OW77160   0.744   1.645   1.126  0.1270  0.5317 -0.9128
24628SOL    HW177161   0.735   1.709   1.197  0.8617 -0.9074  0.5442
24628SOL    HW277162   0.704   1.688   1.050 -1.1055  1.9644  0.4641
24629SOL     OW77163   7.028   6.752   9.606  0.0515 -0.2327  0.4473
24629SOL    HW177164   7.010   6.659   9.617  1.4220 -0.8903 -2.0827
24629SOL    HW277165   6.942   6.793   9.608 -0.5950 -1.5648  1.4313
24630SOL     OW77166   6.969   1.579   5.260 -0.0207  0.0800 -0.6257
24630SOL    HW177167   6.999   1.607   5.347  0.8365 -1.0164 -0.5400
24630SOL    HW277168   7.021   1.631   5.199  1.9119 -1.5654 -0.4747
24631SOL     OW77169   1.754   2.485   3.644  0.7348  0.1846  0.0905
24631SOL    HW177170   1.725   2.405   3.600 -0.5819 -0.9564  2.7810
24631SOL    HW277171   1.672   2.528   3.671  1.3882  2.7641 -1.6716
24632SOL     OW77172   8.417   8.010  11.222 -0.3505 -0.2252 -0.2621
24632SOL    HW177173   8.466   7.930  11.243  0.8525  0.6243  0.2548
24632SOL    HW277174   8.349   8.015  11.290  0.5719  0.0221  0.6599
24633SOL     OW77175   3.430   6.643  11.003 -0.0364 -0.2257 -0.4862
24633SOL    HW177176   3.351   6.591  11.018 -0.2131  0.5403  1.4721
24633SOL    HW277177   3.435   6.651  10.907 -1.9025 -0.9078 -0.6837
24634SOL     OW77178   6.875  10.839   0.526  0.2104  0.3991  0.1098
24634SOL    HW177179   6.918  10.921   0.501  1.4895  0.0751  1.1329
24634SOL    HW277180   6.786  10.865   0.550 -0.0240  1.1787 -1.4668
24635SOL     OW77181   2.828   1.869   0.135 -0.3787  0.3996  0.2579
24635SOL    HW177182   2.784   1.790   0.168  0.8477 -0.1959  0.5253
24635SOL    HW277183   2.833   1.857   0.041  1.8395 -0.9916  0.4729
24636SOL     OW77184   0.891   9.525   2.328 -0.1352  0.2515 -0.6293
24636SOL    HW177185   0.842   9.487   2.255  1.3355 -0.6341 -1.2055
24636SOL    HW277186   0.826   9.541   2.396 -1.3770  0.1559 -1.7686
24637SOL     OW77187   0.503   5.033   2.171  0.7544  0.6731 -0.4219
24637SOL    HW177188   0.503   5.109   2.228  2.3577 -0.5921  1.3934
24637SOL    HW277189   0.419   4.990   2.188  1.2591  0.2499  1.1362
24638SOL     OW77190   8.675   7.105   1.262 -0.5980  0.2900 -0.2901
24638SOL    HW177191   8.626   7.078   1.184 -0.9117  0.1764 -0.0613
24638SOL    HW277192   8.756   7.053   1.259  0.3058  1.7118 -1.5627
24639SOL     OW77193   7.256  10.242   1.112 -0.3320 -0.4866  0.1289
24639SOL    HW177194   7.201  10.203   1.044 -0.5231 -1.6477  0.9337
24639SOL    HW277195   7.223  10.207   1.194  1.0195 -0.4937  0.7058
24640SOL     OW77196   3.774  11.039   4.189 -0.0526 -0.3503 -0.7964
24640SOL    HW177197   3.820  11.024   4.106  1.8713  1.3615 -0.1374
24640SOL    HW277198   3.831  11.100   4.237 -1.2096 -1.1163  1.7079
24641SOL     OW77199   9.394   1.472  10.361 -0.1137  0.0337 -0.6779
24641SOL    HW177200   9.343   1.527  10.421  1.3961  2.6438 -1.5850
24641SOL    HW277201   9.451   1.421  10.418 -0.5432  0.4840  0.1842
24642SOL     OW77202   0.268   1.056  10.963 -0.0776 -0.0432 -0.0974
24642SOL    HW177203   0.188   1.081  11.009 -1.3583 -2.3837 -0.9028
24642SOL    HW277204   0.306   0.987  11.017  0.7458  0.1739 -0.3794
24643SOL     OW77205   6.661   5.500   7.233  0.0038  0.8465 -0.6819
24643SOL    HW177206   6.608   5.420   7.235  0.9995  0.1403 -1.2926
24643SOL    HW277207   6.751   5.468   7.220  0.5537  2.0184  0.0798
24644SOL     OW77208  11.098   1.121   6.199  0.8096 -0.0736  0.3369
24644SOL    HW177209  11.054   1.058   6.254  0.7022  2.0334  2.8396
24644SOL    HW277210  11.031   1.186   6.177  0.6297 -1.2111 -3.0837
24645SOL     OW77211   8.689   2.185   6.167 -0.0830 -0.1462  0.3465
24645SOL    HW177212   8.666   2.210   6.257 -0.3739 -0.1051  0.2618
24645SOL    HW277213   8.747   2.109   6.178 -1.3272 -1.1074  0.5420
24646SOL     OW77214   6.344   9.086   3.931 -0.2462 -0.0600 -0.4866
24646SOL    HW177215   6.438   9.082   3.947 -0.1855  0.4504 -0.7031
24646SOL    HW277216   6.335   9.126   3.844 -0.6309 -1.0907 -0.9454
24647SOL     OW77217  11.375   0.789   6.522 -0.2281  0.0151  0.2053
24647SOL    HW177218  11.334   0.711   6.559  0.3731 -0.5661 -0.3250
24647SOL    HW277219  11.351   0.788   6.430  0.4323  0.0168  0.0283
24648SOL     OW77220   8.018   5.952   2.751 -0.0983  0.6939 -0.0994
24648SOL    HW177221   8.060   5.925   2.669 -0.7802  1.9033 -0.8676
24648SOL    HW277222   8.088   5.947   2.816  0.3328 -0.7760 -0.6233
24649SOL     OW77223   5.165  10.690   4.616  0.4034  0.1113  0.2766
24649SOL    HW177224   5.079  10.706   4.654 -0.1571  1.2253 -1.3507
24649SOL    HW277225   5.218  10.656   4.688 -0.9937  0.7612  1.6500
24650SOL     OW77226   1.666   6.987   5.994  0.0595  0.5118 -0.4336
24650SOL    HW177227   1.704   6.909   5.955 -1.9164 -1.0595  0.5874
24650SOL    HW277228   1.726   7.011   6.064 -1.0709 -2.4153  1.7217
24651SOL     OW77229   7.502  11.081   2.237 -1.0853  0.7981  0.3022
24651SOL    HW177230   7.497  10.985   2.237 -1.3408  0.8086  0.6368
24651SOL    HW277231   7.592  11.100   2.211 -0.6518  0.4407  1.4965
24652SOL     OW77232   3.756   3.779   6.841  0.0089  0.2662  0.3239
24652SOL    HW177233   3.691   3.708   6.846 -0.9536  1.1105  0.2346
24652SOL    HW277234   3.764   3.810   6.931  1.8635 -1.1611  0.7069
24653SOL     OW77235   1.321  10.189   5.169 -0.1226 -0.0264  0.1934
24653SOL    HW177236   1.372  10.270   5.157 -1.7101  1.4317  2.5408
24653SOL    HW277237   1.235  10.218   5.196 -1.3609 -2.5225 -0.7445
24654SOL     OW77238   8.621   5.574   8.072 -0.3413 -0.4542 -0.0481
24654SOL    HW177239   8.550   5.580   8.009 -1.1838 -1.5231  0.7595
24654SOL    HW277240   8.578   5.581   8.158  0.6762  0.1468  0.4346
24655SOL     OW77241   7.638   2.608   4.647 -0.3453 -0.4023  0.2255
24655SOL    HW177242   7.545   2.619   4.628 -0.4107 -2.7912 -1.1818
24655SOL    HW277243   7.679   2.598   4.561  0.9072 -1.3808  0.9059
24656SOL     OW77244  11.209   6.206   7.180 -0.0122 -0.0873 -0.3267
24656SOL    HW177245  11.262   6.215   7.259 -0.3325 -0.0216 -0.1191
24656SOL    HW277246  11.137   6.149   7.206 -1.7831  2.3254  0.2713
24657SOL     OW77247   0.294   1.565   2.951  0.2806  0.2337  0.1033
24657SOL    HW177248   0.367   1.584   3.009  0.2983  1.3594 -0.2714
24657SOL    HW277249   0.218   1.606   2.992  0.0085 -0.2124  0.0608
24658SOL     OW77250   8.842   6.161   8.826  0.5662 -0.1061 -0.1120
24658SOL    HW177251   8.833   6.066   8.837  0.0389 -0.3101 -2.0603
24658SOL    HW277252   8.903   6.171   8.753  1.8663  1.1039  1.0774
24659SOL     OW77253   3.732   6.762   0.044  0.2222 -0.2130  0.1616
24659SOL    HW177254   3.725   6.694  -0.022 -4.0261  1.6124 -1.6008
24659SOL    HW277255   3.666   6.739   0.110  2.3762 -0.4587  2.3618
24660SOL     OW77256   5.572   1.369  10.584 -0.5243 -0.6288  0.0320
24660SOL    HW177257   5.530   1.319  10.654  1.4220 -1.3739  0.7241
24660SOL    HW277258   5.542   1.327  10.503 -1.2324 -1.0222  0.4913
24661SOL     OW77259   9.584   6.582   0.385 -0.2500 -0.1964 -0.3480
24661SOL    HW177260   9.505   6.535   0.410 -0.3166  0.6697  1.1764
24661SOL    HW277261   9.615   6.622   0.466 -0.6838  3.1061 -1.6529
24662SOL     OW77262   5.524   2.303   9.097 -0.2318 -0.0680 -0.3739
24662SOL    HW177263   5.591   2.280   9.162  0.1807  2.0743  0.0408
24662SOL    HW277264   5.574   2.333   9.022 -0.7226  0.9031 -0.3187
24663SOL     OW77265  10.836   8.176   9.051  0.4902 -0.5607  0.1594
24663SOL    HW177266  10.876   8.245   8.999  1.8878 -0.2423  1.5790
24663SOL    HW277267  10.888   8.098   9.033 -1.0628 -1.2914 -1.4159
24664SOL     OW77268   3.122  11.101   4.639  0.9259  0.2426  0.3671
24664SOL    HW177269   3.101  11.093   4.732 -0.8061 -2.2006 -0.1469
24664SOL    HW277270   3.064  11.170   4.607  0.0422 -0.3279  0.7112
24665SOL     OW77271   6.042  10.829   5.567 -0.1784 -0.3710  0.0005
24665SOL    HW177272   6.079  10.908   5.527  0.9325 -1.1701 -0.5903
24665SOL    HW277273   6.094  10.815   5.646  1.1706 -1.7720 -1.0856
24666SOL     OW77274   6.387   4.733   0.279  0.7354  0.3919 -0.1923
24666SOL    HW177275   6.386   4.828   0.270 -2.9914  0.3746 -1.5929
24666SOL    HW277276   6.459   4.705   0.221  3.1344  2.3007  1.6532
24667SOL     OW77277   3.804   1.401   2.846 -0.6859 -0.1477 -0.2631
24667SOL    HW177278   3.741   1.342   2.888  0.9119 -1.4847  0.3483
24667SOL    HW277279   3.813   1.475   2.907 -1.4046 -0.0999 -0.2096
24668SOL     OW77280   3.553   0.365   2.549  0.0654 -0.3483 -0.2559
24668SOL    HW177281   3.485   0.431   2.535  0.3194  0.0257  0.2107
24668SOL    HW277282   3.508   0.281   2.537 -0.3286 -0.0943 -0.5765
24669SOL     OW77283   5.737   1.304   9.108  0.2708 -1.2154 -0.3092
24669SOL    HW177284   5.719   1.390   9.145  0.5863 -0.5559 -1.6391
24669SOL    HW277285   5.829   1.287   9.132  0.6397 -0.5557 -1.2262
24670SOL     OW77286  10.844   2.786   6.212  0.9066  0.2306  0.2054
24670SOL    HW177287  10.844   2.845   6.136  1.7440 -0.8092 -0.6220
24670SOL    HW277288  10.867   2.700   6.176 -1.4129 -0.8840  1.1944
24671SOL     OW77289  11.365   2.069   2.465  0.1653 -0.7152  0.1398
24671SOL    HW177290  11.406   2.150   2.497 -0.0257 -1.1197  1.4519
24671SOL    HW277291  11.434   2.026   2.415  0.8841 -0.6587  1.0499
24672SOL     OW77292   2.295  10.270   8.608 -0.0840 -0.2583 -0.1565
24672SOL    HW177293   2.245  10.349   8.589 -2.9625 -1.8721  0.0043
24672SOL    HW277294   2.351  10.257   8.532  1.0934  2.3213  0.1882
24673SOL     OW77295   2.301   1.480   3.982 -0.6911  0.0712  0.0849
24673SOL    HW177296   2.277   1.436   3.901 -0.2486 -0.0479  0.0182
24673SOL    HW277297   2.245   1.439   4.049 -0.6419 -0.2345 -0.0606
24674SOL     OW77298   4.190   6.734   0.952  0.3996  0.1177 -0.1183
24674SOL    HW177299   4.275   6.734   0.996  0.9250 -0.3233 -1.1185
24674SOL    HW277300   4.161   6.643   0.956  1.6448 -0.4927 -2.8876
24675SOL     OW77301  10.089   4.784   0.323 -0.3964 -0.1465  0.1019
24675SOL    HW177302  10.102   4.874   0.355 -0.3426 -0.4823  1.0659
24675SOL    HW277303  10.014   4.790   0.264  0.6387  0.8301 -1.1941
24676SOL     OW77304   3.516   4.341   2.266 -0.1970 -0.0584  0.3426
24676SOL    HW177305   3.438   4.286   2.266  0.4214 -0.9628  0.6718
24676SOL    HW277306   3.514   4.386   2.182 -1.6955  0.8633  0.8389
24677SOL     OW77307   7.151  11.055   4.405 -0.1061  0.0220 -0.1449
24677SOL    HW177308   7.216  11.023   4.468  0.9886  1.2993 -0.5849
24677SOL    HW277309   7.079  11.086   4.459  0.6722  0.7888  0.4779
24678SOL     OW77310   3.765   4.020   5.762 -0.4737  0.5121 -0.6394
24678SOL    HW177311   3.789   3.928   5.755 -0.6448  0.4851 -0.8827
24678SOL    HW277312   3.843   4.062   5.799 -0.9375  0.0320  0.9616
24679SOL     OW77313   2.830   1.394   1.320  0.0080 -0.4084  0.3515
24679SOL    HW177314   2.795   1.398   1.410  0.9076  0.1250  0.6915
24679SOL    HW277315   2.838   1.301   1.302  0.4332 -0.5237  1.0819
24680SOL     OW77316  10.054  11.159   4.011  0.1763 -0.1259 -0.0745
24680SOL    HW177317   9.961  11.165   4.032 -0.1082 -0.8936 -1.0651
24680SOL    HW277318  10.083  11.250   4.004 -0.3868  0.1221  0.6621
24681SOL     OW77319   0.242   2.524   0.003 -0.4097 -0.4301 -0.0045
24681SOL    HW177320   0.164   2.498  -0.046  0.0589 -1.2119 -0.3683
24681SOL    HW277321   0.314   2.510  -0.059  0.2152 -1.5674  0.9316
24682SOL     OW77322   9.102   9.745   9.938  0.6117  0.0034 -0.1301
24682SOL    HW177323   9.172   9.769   9.878  1.4163 -2.0290 -0.0624
24682SOL    HW277324   9.133   9.666   9.982 -1.1557 -0.1861  0.8897
24683SOL     OW77325   9.226   4.935   6.381  0.1042  0.0102  0.0606
24683SOL    HW177326   9.198   4.853   6.339 -0.0242 -0.8575  1.7407
24683SOL    HW277327   9.297   4.966   6.326 -1.0230 -0.2451 -1.6426
24684SOL     OW77328   4.972   4.532   5.829  0.4449  0.1937  0.0980
24684SOL    HW177329   5.023   4.610   5.850  1.2209 -0.5675  1.1426
24684SOL    HW277330   4.987   4.473   5.903  0.7919 -1.4144 -1.2035
24685SOL     OW77331   5.240   3.360   6.560 -0.1096  0.4312 -0.2603
24685SOL    HW177332   5.231   3.449   6.594 -0.8190  0.3458 -0.2169
24685SOL    HW277333   5.174   3.353   6.492 -0.0030 -0.0374 -0.3197
24686SOL     OW77334  11.145   4.908   0.453  0.2488  0.1335  0.6023
24686SOL    HW177335  11.146   4.991   0.405 -1.0799 -0.1737 -0.0046
24686SOL    HW277336  11.079   4.855   0.408  1.7202 -1.6153  0.3921
24687SOL     OW77337   1.057   4.031   4.849  0.4124 -0.5886 -0.3006
24687SOL    HW177338   1.015   4.116   4.839 -1.0213 -1.2856 -0.3942
24687SOL    HW277339   1.101   4.035   4.934  0.7271  0.3795 -0.4972
24688SOL     OW77340   1.618   3.500   2.275 -0.1677  0.2945 -0.2218
24688SOL    HW177341   1.559   3.442   2.227  0.3720 -0.4346 -0.0243
24688SOL    HW277342   1.705   3.472   2.249  0.1101  0.6130  0.3517
24689SOL     OW77343   3.848   2.609   1.020 -0.1507 -0.2139  0.1531
24689SOL    HW177344   3.880   2.606   1.110 -1.3329  2.6162  0.8034
24689SOL    HW277345   3.914   2.661   0.973 -1.5349  1.9555  0.4802
24690SOL     OW77346   2.905   1.783  11.237  0.0625  0.0706 -0.0029
24690SOL    HW177347   2.975   1.848  11.230 -0.9192  1.0311 -1.4701
24690SOL    HW277348   2.946   1.709  11.281  1.7129  0.9906  0.1064
24691SOL     OW77349   3.054   2.732   2.691 -0.9559  0.2537 -0.6588
24691SOL    HW177350   3.094   2.700   2.611  1.8970  0.1797  0.6746
24691SOL    HW277351   3.089   2.675   2.760 -3.3908  0.2371  0.6664
24692SOL     OW77352   7.701   8.730   9.895 -0.1898 -0.8930 -0.1831
24692SOL    HW177353   7.692   8.641   9.860  0.6055 -0.6161 -1.1166
24692SOL    HW277354   7.636   8.781   9.846 -0.1812 -0.8253 -0.1230
24693SOL     OW77355   2.292   3.821   1.892  0.9245 -0.4404 -0.3113
24693SOL    HW177356   2.362   3.835   1.955  0.0688 -2.1270  1.0782
24693SOL    HW277357   2.274   3.727   1.895 -2.8928  0.1658  1.0829
24694SOL     OW77358   0.592  10.022   5.900 -0.1707  0.1734 -0.1565
24694SOL    HW177359   0.684   9.998   5.908 -0.5075 -0.6032  2.2086
24694SOL    HW277360   0.585  10.107   5.943 -0.3097  1.0042 -1.7651
24695SOL     OW77361   5.785   3.845   6.422  0.3889 -0.0217  0.2131
24695SOL    HW177362   5.861   3.837   6.480 -0.6323  1.0502  1.7850
24695SOL    HW277363   5.729   3.771   6.445  0.3800 -0.0833 -0.0105
24696SOL     OW77364   2.115   3.516  11.251 -0.0572 -0.3867 -0.2976
24696SOL    HW177365   2.155   3.459  11.316  0.2147 -0.1755 -0.2783
24696SOL    HW277366   2.069   3.583  11.303 -1.7334 -1.4749 -0.2786
24697SOL     OW77367   8.371   7.899   9.707  0.3561  0.6918 -0.4701
24697SOL    HW177368   8.431   7.868   9.775 -0.4387 -1.0292 -0.5152
24697SOL    HW277369   8.312   7.958   9.754 -0.1387 -0.4169  0.3482
24698SOL     OW77370  10.312  11.396   4.997 -0.2699  0.7828  0.7676
24698SOL    HW177371  10.222  11.411   5.025 -0.2407  1.0501  0.7193
24698SOL    HW277372  10.354  11.482   5.003 -0.2061  0.8034  0.1041
24699SOL     OW77373   3.295   8.688  11.160 -0.0564 -0.6951  0.1951
24699SOL    HW177374   3.318   8.776  11.131 -2.3172 -0.2462 -0.4639
24699SOL    HW277375   3.258   8.701  11.248 -1.3788 -0.7959 -0.3242
24700SOL     OW77376   5.414   9.050  10.986 -0.1335  0.0686 -0.1412
24700SOL    HW177377   5.377   8.962  10.975 -0.7504  0.5226 -2.0789
24700SOL    HW277378   5.483   9.038  11.051 -0.5498 -1.7423  0.0401
24701SOL     OW77379   7.284   7.189   0.405  0.3946 -0.1284 -0.2839
24701SOL    HW177380   7.237   7.121   0.453  0.8184 -0.4150 -0.2762
24701SOL    HW277381   7.259   7.270   0.450  0.5244 -0.3603  0.2145
24702SOL     OW77382   2.283  11.130  10.657  0.0240 -0.2725  0.0109
24702SOL    HW177383   2.307  11.102  10.746 -0.4917  0.3151  0.3518
24702SOL    HW277384   2.365  11.162  10.619 -0.1343  1.5778  1.1030
24703SOL     OW77385   3.125  11.387  11.390 -0.0981 -0.1129  0.1843
24703SOL    HW177386   3.116  11.309  11.445 -1.8256  0.2435  0.4473
24703SOL    HW277387   3.064  11.373  11.318  1.6800 -0.2821 -1.3604
24704SOL     OW77388  11.174   9.626   5.086  0.8366 -0.0414  0.0913
24704SOL    HW177389  11.153   9.676   5.165  0.9909  0.7363 -0.3553
24704SOL    HW277390  11.169   9.690   5.015  0.6178 -0.7531 -0.5424
24705SOL     OW77391   8.281   9.367   0.843 -0.7007  0.0715 -0.1628
24705SOL    HW177392   8.334   9.307   0.896 -1.1100  0.7867  1.0902
24705SOL    HW277393   8.211   9.396   0.902 -2.5819 -0.9009 -1.7677
24706SOL     OW77394   8.243   9.583   8.033 -0.0920  0.0110 -0.0191
24706SOL    HW177395   8.246   9.530   8.113  1.5377 -0.1904 -0.1875
24706SOL    HW277396   8.297   9.536   7.970  0.4665  1.2855 -0.5339
24707SOL     OW77397  10.988   5.809  11.264 -0.2539  0.3034 -0.3895
24707SOL    HW177398  11.050   5.876  11.235  1.3357 -1.4776 -1.3728
24707SOL    HW277399  10.914   5.817  11.205 -0.2562  1.4012 -0.2595
24708SOL     OW77400   0.536  11.292   3.656 -0.1623 -0.1153 -0.1180
24708SOL    HW177401   0.469  11.259   3.716 -1.1822  1.0312 -0.5865
24708SOL    HW277402   0.539  11.386   3.673 -1.6052  0.5389 -2.9151
24709SOL     OW77403   1.089   4.192   6.298 -0.3075 -0.0013 -0.1472
24709SOL    HW177404   1.115   4.165   6.386  2.4568  0.0544 -0.8569
24709SOL    HW277405   1.133   4.276   6.285 -0.7172  0.0189 -1.5653
24710SOL     OW77406   6.475   4.688   1.351  0.3487 -0.1877 -0.0466
24710SOL    HW177407   6.411   4.726   1.411  0.2731  0.3511 -0.4550
24710SOL    HW277408   6.452   4.596   1.346  0.0607 -0.1388  0.3824
24711SOL     OW77409   8.568   8.666   5.776 -0.0649  0.1763  0.0544
24711SOL    HW177410   8.499   8.711   5.826 -0.7577  0.7854 -1.3844
24711SOL    HW277411   8.589   8.727   5.705  1.5306 -0.2790  0.0996
24712SOL     OW77412   4.778  10.356  11.389 -0.3035 -0.0256  0.1580
24712SOL    HW177413   4.706  10.415  11.410  0.3476  0.9714 -0.3717
24712SOL    HW277414   4.735  10.275  11.360 -1.2357  0.9134 -1.2009
24713SOL     OW77415   2.263   1.419   7.099  0.1066  0.1114  0.0455
24713SOL    HW177416   2.211   1.386   7.025 -0.0665 -0.5123  0.4367
24713SOL    HW277417   2.213   1.394   7.176  0.1644  0.9846  0.3716
24714SOL     OW77418   1.690   1.662   0.056  0.4902 -0.0016  0.3914
24714SOL    HW177419   1.762   1.718   0.029  0.4061 -1.0724 -2.3162
24714SOL    HW277420   1.732   1.585   0.094  0.7834 -0.2938 -0.4998
24715SOL     OW77421  11.100   5.321  11.240 -0.1443 -0.4189  0.5516
24715SOL    HW177422  11.067   5.352  11.325  2.2209  2.1657  0.6581
24715SOL    HW277423  11.040   5.359  11.176  0.1360  0.7031  0.9243
24716SOL     OW77424  10.363   7.981   7.892 -0.4983  0.0719 -0.3327
24716SOL    HW177425  10.309   8.033   7.951 -0.5935 -1.9320  1.4409
24716SOL    HW277426  10.301   7.935   7.836 -0.6003 -1.0093  0.6429
24717SOL     OW77427  10.739   6.488   7.931  0.0539 -0.1917  0.1628
24717SOL    HW177428  10.713   6.445   8.013 -0.1381 -0.3437  0.0253
24717SOL    HW277429  10.786   6.566   7.958 -0.5733  0.1053  0.4267
24718SOL     OW77430   6.525   0.456   8.142 -0.1089 -0.3924  0.7613
24718SOL    HW177431   6.478   0.375   8.124 -1.4807  0.8974 -2.3235
24718SOL    HW277432   6.457   0.517   8.171  0.9200 -0.2834  3.1629
24719SOL     OW77433   9.468   0.242   6.968  0.4013  0.3233 -0.0034
24719SOL    HW177434   9.416   0.162   6.959  0.2543  0.5347 -1.3386
24719SOL    HW277435   9.408   0.312   6.941  0.4027  0.9546  1.5346
24720SOL     OW77436   6.532   9.721  11.048  0.1551  0.1138 -0.1892
24720SOL    HW177437   6.496   9.634  11.033  0.1369  0.3998 -1.9447
24720SOL    HW277438   6.458   9.774  11.076 -0.1876 -0.0311 -0.8084
24721SOL     OW77439  11.268   6.217   7.872  0.0087  0.3228 -0.2924
24721SOL    HW177440  11.315   6.140   7.839  1.1973  0.8578  0.0994
24721SOL    HW277441  11.337   6.280   7.892 -0.9386  1.4513 -0.4827
24722SOL     OW77442   5.128   7.733   3.619  0.6121  0.4688 -0.1002
24722SOL    HW177443   5.194   7.781   3.568  1.9061  0.2579  1.3089
24722SOL    HW277444   5.100   7.662   3.561  1.3390  0.7880 -0.8650
24723SOL     OW77445   4.564   5.299   1.453  0.6216  0.2400 -0.0678
24723SOL    HW177446   4.618   5.220   1.445  0.1407 -0.1541  0.5000
24723SOL    HW277447   4.532   5.297   1.543 -0.1554  0.5836 -0.3333
24724SOL     OW77448   2.128   5.569   5.235 -0.5850 -0.2861 -0.2120
24724SOL    HW177449   2.103   5.496   5.291 -1.7892  1.0132  1.0261
24724SOL    HW277450   2.163   5.635   5.296  0.4912  0.1893 -1.2972
24725SOL     OW77451   4.788   8.176   3.711  0.4895  0.1524 -0.2612
24725SOL    HW177452   4.775   8.081   3.707  2.2252 -0.2714  1.8998
24725SOL    HW277453   4.712   8.213   3.666  0.1733 -2.2539 -1.8831
24726SOL     OW77454   5.062   8.674   5.812  0.7806  0.4011 -0.0119
24726SOL    HW177455   4.984   8.728   5.825  1.1282  0.8535  0.2557
24726SOL    HW277456   5.048   8.597   5.866  0.4373  0.3876 -0.1160
24727SOL     OW77457   8.342   4.841   4.085  0.2235  0.3990 -0.2681
24727SOL    HW177458   8.275   4.895   4.126  0.1133  1.4767 -1.7701
24727SOL    HW277459   8.304   4.815   4.001  0.5577 -1.4512  0.1156
24728SOL     OW77460   5.079   6.597   3.274  0.1972 -0.2781  0.6077
24728SOL    HW177461   5.035   6.564   3.352 -0.7909  0.9541  0.5913
24728SOL    HW277462   5.010   6.640   3.224  0.6404 -1.6875 -1.3506
24729SOL     OW77463   0.556   6.493   4.301 -0.3975 -0.2386  0.0148
24729SOL    HW177464   0.630   6.520   4.247 -3.2358  1.2652 -3.5645
24729SOL    HW277465   0.531   6.572   4.349 -0.2294 -0.5034  0.5462
24730SOL     OW77466   4.610   4.675   2.324 -0.9062  0.2673  0.0041
24730SOL    HW177467   4.540   4.724   2.280 -1.2864 -0.2479  0.0304
24730SOL    HW277468   4.659   4.634   2.253 -1.3569 -0.3435  0.0367
24731SOL     OW77469   3.098   9.981   9.344 -0.2046 -0.4460  0.5520
24731SOL    HW177470   3.145  10.064   9.333  0.8411 -1.1237 -0.2445
24731SOL    HW277471   3.151   9.931   9.406 -0.1225 -1.0388  0.0078
24732SOL     OW77472   9.780   0.361   5.674 -0.1375  0.3076 -0.0810
24732SOL    HW177473   9.778   0.415   5.595  2.4431 -0.0430 -0.4750
24732SOL    HW277474   9.840   0.407   5.733 -1.3778  0.1369  1.3846
24733SOL     OW77475   3.177   2.321   4.814  0.0292 -0.4418 -0.0315
24733SOL    HW177476   3.189   2.416   4.810 -1.8564 -0.1560 -0.1137
24733SOL    HW277477   3.082   2.310   4.820  0.2192 -2.3333  0.0046
24734SOL     OW77478   3.292   5.681   7.963  0.2505 -0.4280  0.3421
24734SOL    HW177479   3.362   5.622   7.935 -0.5168 -0.7163 -1.0802
24734SOL    HW277480   3.247   5.705   7.882 -1.7636 -0.8811  1.2636
24735SOL     OW77481  10.307   4.907   7.034  0.4925 -0.1054  0.2310
24735SOL    HW177482  10.217   4.880   7.052  1.3442 -2.0485  1.9039
24735SOL    HW277483  10.355   4.826   7.021  2.1276  0.8561 -0.0790
24736SOL     OW77484   8.279  10.686   6.696 -0.1712 -0.1983  0.1793
24736SOL    HW177485   8.327  10.768   6.697  0.6846 -0.4514 -3.7905
24736SOL    HW277486   8.316  10.635   6.767  0.0068  2.3845  2.0733
24737SOL     OW77487   8.067   4.449   6.274 -0.2684  0.1659 -0.2065
24737SOL    HW177488   8.066   4.416   6.184  0.6818 -2.2409  0.6075
24737SOL    HW277489   8.157   4.440   6.302 -0.2587  2.1970  0.6114
24738SOL     OW77490   2.738   9.720   2.136 -0.0841 -0.2844  0.3789
24738SOL    HW177491   2.647   9.747   2.121 -0.3081 -0.0749  1.9916
24738SOL    HW277492   2.732   9.626   2.151 -0.0179 -0.3001  0.3033
24739SOL     OW77493  10.096   8.480  11.128  0.1709  0.3564  0.3236
24739SOL    HW177494  10.023   8.429  11.163 -0.1351 -0.3064 -1.2038
24739SOL    HW277495  10.132   8.526  11.204 -0.2707 -1.2323  1.5434
24740SOL     OW77496   6.170   4.749   8.350 -0.0465  0.2048 -0.9555
24740SOL    HW177497   6.094   4.741   8.408 -0.2881  0.6550 -1.2061
24740SOL    HW277498   6.179   4.663   8.311  1.3428 -0.7319  1.2496
24741SOL     OW77499   3.448   9.632   4.864  0.2323 -0.3533  0.2686
24741SOL    HW177500   3.417   9.686   4.937 -2.7733 -2.6946  0.9202
24741SOL    HW277501   3.415   9.677   4.786 -1.9863 -0.9581  0.7832
24742SOL     OW77502   6.879   8.880   2.642 -0.6866  0.6126  0.2443
24742SOL    HW177503   6.802   8.931   2.668 -0.2210  0.4068  2.1184
24742SOL    HW277504   6.950   8.944   2.639 -0.8172  0.7198 -1.0533
24743SOL     OW77505   8.095   5.524   6.381  0.6526 -0.0403 -0.2845
24743SOL    HW177506   8.148   5.604   6.383  2.0541 -0.9156 -1.1741
24743SOL    HW277507   8.146   5.460   6.431  1.3422 -1.3810 -2.5407
24744SOL     OW77508   2.084   4.160   9.143  0.1751  0.1651  0.1517
24744SOL    HW177509   2.006   4.216   9.142 -0.4435 -0.6825  0.3041
24744SOL    HW277510   2.062   4.089   9.203  1.1571  0.0326  0.3760
24745SOL     OW77511   9.343   2.045   9.139  0.3236  0.5104  0.8157
24745SOL    HW177512   9.268   2.095   9.107 -1.9556 -3.0472  0.0779
24745SOL    HW277513   9.391   2.021   9.060 -1.0968 -2.0150  0.6434
24746SOL     OW77514   1.226  10.648   3.162  0.2672  0.0695 -0.0854
24746SOL    HW177515   1.193  10.653   3.072 -0.0583 -1.3268 -0.0670
24746SOL    HW277516   1.310  10.694   3.160  1.8301 -2.6202 -1.8885
24747SOL     OW77517   2.946   8.450   5.255 -0.1057  0.1231 -0.4062
24747SOL    HW177518   2.976   8.360   5.239 -0.4915 -0.0444 -0.1896
24747SOL    HW277519   2.954   8.461   5.350 -2.8854 -0.7139  0.0105
24748SOL     OW77520  11.042   6.162   6.505  0.8367 -0.0343  0.2308
24748SOL    HW177521  11.063   6.223   6.434  1.2790 -1.5139 -0.9637
24748SOL    HW277522  11.051   6.214   6.585 -0.8922  2.0436 -0.8044
24749SOL     OW77523  11.241   7.346  10.694  0.5091 -0.2543  0.5303
24749SOL    HW177524  11.175   7.356  10.625  0.1819 -4.0419  0.0949
24749SOL    HW277525  11.324   7.360  10.649  0.2099 -0.4534 -0.0974
24750SOL     OW77526   6.196   6.635   9.849  0.1670 -0.4035 -0.2420
24750SOL    HW177527   6.287   6.608   9.840 -0.3373 -2.3013  0.1008
24750SOL    HW277528   6.195   6.691   9.926  0.9328 -0.8613  0.1046
24751SOL     OW77529  10.161   5.609   7.444 -0.1113 -0.1358  0.7014
24751SOL    HW177530  10.150   5.685   7.388 -2.7487 -0.3983  0.7399
24751SOL    HW277531  10.255   5.592   7.444  0.3337  1.9993 -0.7578
24752SOL     OW77532   7.155   7.301  11.214 -0.1161 -0.5595 -0.0577
24752SOL    HW177533   7.079   7.263  11.258  0.2728 -0.4981  0.6738
24752SOL    HW277534   7.163   7.250  11.133 -0.1235 -1.4620  0.5005
24753SOL     OW77535   1.200   4.612  11.339 -0.3891 -0.3441  0.0670
24753SOL    HW177536   1.136   4.657  11.395  1.5567 -0.9997  3.0844
24753SOL    HW277537   1.147   4.547  11.291 -2.2326  0.3793  0.9970
24754SOL     OW77538   8.457   7.341   1.116  0.0455  0.2852 -0.0524
24754SOL    HW177539   8.538   7.362   1.162  2.1020 -2.1919 -2.2106
24754SOL    HW277540   8.436   7.251   1.142 -1.2656  0.4212 -0.5382
24755SOL     OW77541   1.141   3.173  10.038  0.7197  0.1687  0.2992
24755SOL    HW177542   1.049   3.178  10.013 -0.2465 -1.7731  2.9791
24755SOL    HW277543   1.157   3.255  10.085  0.1741  0.2623  0.3292
24756SOL     OW77544   7.681   9.445   6.720 -0.0762 -0.1648  0.1797
24756SOL    HW177545   7.733   9.393   6.659  0.8555  1.1877 -0.2258
24756SOL    HW277546   7.597   9.399   6.726  0.3261 -1.0936 -1.0123
24757SOL     OW77547   6.577   4.646   4.596  0.2191 -0.3793 -0.5805
24757SOL    HW177548   6.638   4.713   4.625  0.8926 -1.0614 -0.3952
24757SOL    HW277549   6.577   4.654   4.500 -0.9548  0.9523 -0.4972
24758SOL     OW77550   2.418   3.338  11.057 -0.1844 -0.2842 -0.3817
24758SOL    HW177551   2.448   3.307  10.972 -2.1578 -2.4602 -0.3760
24758SOL    HW277552   2.419   3.260  11.113 -1.7394  0.4444  0.7347
24759SOL     OW77553  10.178  10.496   0.777  0.4413  0.0529  0.0589
24759SOL    HW177554  10.206  10.420   0.726 -0.1852 -0.2152  0.1025
24759SOL    HW277555  10.219  10.482   0.863  1.2093  0.3263 -0.2524
24760SOL     OW77556   6.665  10.535   0.665  0.2230  0.3171 -0.2968
24760SOL    HW177557   6.757  10.516   0.649  0.2537 -1.2063  1.3639
24760SOL    HW277558   6.621  10.515   0.582  1.1575 -0.7422 -0.5512
24761SOL     OW77559   3.228   1.629  11.044  0.0565 -1.1070 -0.0530
24761SOL    HW177560   3.301   1.599  11.098 -0.0813 -1.1147  0.1334
24761SOL    HW277561   3.240   1.723  11.037 -0.7539 -0.8747  1.2713
24762SOL     OW77562  10.549   9.040   0.771  0.0948  0.3947  0.3313
24762SOL    HW177563  10.550   9.128   0.734  0.7228 -0.1830 -1.0869
24762SOL    HW277564  10.538   8.982   0.695 -0.3700 -0.7475  1.2442
24763SOL     OW77565   8.317  10.467   9.441  0.4189  0.0637  0.2985
24763SOL    HW177566   8.321  10.469   9.345  1.2497  1.4702  0.3382
24763SOL    HW277567   8.296  10.376   9.462  0.2257 -0.2686 -1.2159
24764SOL     OW77568   2.108   9.199   1.296 -0.4800 -0.2172 -0.3510
24764SOL    HW177569   2.196   9.161   1.294 -0.5451 -0.3538 -0.6537
24764SOL    HW277570   2.119   9.289   1.265 -0.4392 -0.2132 -0.3252
24765SOL     OW77571   9.080   0.257  11.138  0.7094  0.3852 -0.7929
24765SOL    HW177572   9.007   0.314  11.115  0.3358 -0.1082 -0.8445
24765SOL    HW277573   9.150   0.316  11.165  0.2464  0.8541 -0.6234
24766SOL     OW77574  10.066   2.402   9.446  0.1541 -0.2401  0.2554
24766SOL    HW177575  10.010   2.405   9.524 -1.3667 -0.1605 -0.7870
24766SOL    HW277576  10.101   2.491   9.439  2.8729 -0.9997  2.5596
24767SOL     OW77577   0.157   6.552  10.521 -0.7570 -0.3324  0.6349
24767SOL    HW177578   0.190   6.641  10.518  0.2223 -0.6947 -0.6534
24767SOL    HW277579   0.223   6.501  10.474 -2.3656 -1.3560 -0.6377
24768SOL     OW77580   4.041   0.728   4.109 -0.0725  0.3023  1.0668
24768SOL    HW177581   3.995   0.766   4.035  2.6862  0.1108 -0.8829
24768SOL    HW277582   4.061   0.802   4.166  1.0386  1.1117 -0.3001
24769SOL     OW77583   6.522   9.753   2.963  0.1481  0.3099  0.3328
24769SOL    HW177584   6.472   9.671   2.961 -0.3064  0.5623  0.9889
24769SOL    HW277585   6.522   9.783   2.873  0.3464 -0.4344  0.0811
24770SOL     OW77586   0.010   8.942  10.109  0.0086 -0.0853  0.4857
24770SOL    HW177587   0.040   8.899  10.189  0.5775 -0.1465  0.2451
24770SOL    HW277588  -0.003   8.871  10.046 -2.3969 -0.2716  1.0949
24771SOL     OW77589   7.539   3.328   7.737  0.2283  0.2565 -0.1568
24771SOL    HW177590   7.517   3.337   7.830 -1.1425 -0.9609 -0.3307
24771SOL    HW277591   7.457   3.345   7.691  0.5750 -0.4902 -1.0779
24772SOL     OW77592   1.413   8.166   6.670  0.1052  0.3961  0.2495
24772SOL    HW177593   1.423   8.255   6.636  2.0543  0.3122  0.4795
24772SOL    HW277594   1.502   8.139   6.693 -0.1143 -2.3981 -1.6979
24773SOL     OW77595   6.065   3.100   2.853 -0.5216  0.1950  0.3282
24773SOL    HW177596   6.016   3.149   2.788 -0.4726 -0.5117 -0.2601
24773SOL    HW277597   5.998   3.054   2.904 -0.5304  0.2130  0.3326
24774SOL     OW77598   8.215   5.000   8.410 -0.0900  0.6989  0.3494
24774SOL    HW177599   8.305   5.019   8.439  0.4087  0.4086 -0.9251
24774SOL    HW277600   8.224   4.921   8.356 -1.1182  0.6681  0.2089
24775SOL     OW77601   9.633   3.634  10.036 -0.0286 -0.0926 -0.3359
24775SOL    HW177602   9.649   3.583   9.957 -0.3452 -2.3642  0.9632
24775SOL    HW277603   9.543   3.664  10.028  0.2702  0.5871 -1.2766
24776SOL     OW77604   0.762  10.430   5.583  0.0827  0.0031 -0.0817
24776SOL    HW177605   0.812  10.351   5.564  0.5425 -0.2078  1.7507
24776SOL    HW277606   0.789  10.454   5.672 -1.3424  1.2253  0.0592
24777SOL     OW77607   5.923   5.161   8.623  0.0879  0.0813  0.2094
24777SOL    HW177608   5.936   5.078   8.668  0.1654  1.9461  4.0326
24777SOL    HW277609   5.828   5.174   8.621  0.0325 -0.4047 -1.1022
24778SOL     OW77610   4.827   5.865   4.565 -0.2680 -0.4342  0.0465
24778SOL    HW177611   4.768   5.819   4.505 -0.0002 -0.2841 -0.3392
24778SOL    HW277612   4.792   5.955   4.567 -0.1346 -0.3788 -0.0774
24779SOL     OW77613   1.967   0.650   3.840 -0.5163 -0.3408 -0.2743
24779SOL    HW177614   2.061   0.647   3.857 -0.2663  0.9091 -1.2443
24779SOL    HW277615   1.956   0.601   3.758 -0.5662  0.2596 -0.6341
24780SOL     OW77616   0.853  10.936   4.322 -0.2770  0.3771 -0.4531
24780SOL    HW177617   0.827  10.857   4.369 -0.5672  1.1955  0.8053
24780SOL    HW277618   0.826  10.920   4.232  0.5772 -1.3647 -0.4435
24781SOL     OW77619   9.296   8.770   8.660  0.3908 -0.2426  0.1524
24781SOL    HW177620   9.305   8.701   8.727  0.1742 -1.0224 -0.6031
24781SOL    HW277621   9.359   8.745   8.592 -0.8960 -0.6526 -0.9251
24782SOL     OW77622   2.995   8.784   3.144  0.4975 -0.1295 -0.4408
24782SOL    HW177623   2.999   8.696   3.104 -0.8903 -0.6907  0.5804
24782SOL    HW277624   3.072   8.787   3.201  0.6126 -0.6610 -0.5568
24783SOL     OW77625   6.653   3.469   8.822  0.3297  0.2839  0.1436
24783SOL    HW177626   6.589   3.493   8.889  0.8149  0.0286  0.7072
24783SOL    HW277627   6.681   3.381   8.846  1.3762  0.6377  0.2901
24784SOL     OW77628   1.466   5.560   1.653  0.3848  0.8366  0.1151
24784SOL    HW177629   1.405   5.548   1.580 -0.9582  0.6998  1.2352
24784SOL    HW277630   1.422   5.619   1.713  0.3254 -1.0208  2.0293
24785SOL     OW77631   3.399   8.398   6.865 -0.0449 -0.2071  0.1141
24785SOL    HW177632   3.368   8.370   6.778 -0.3481 -3.0258  1.0342
24785SOL    HW277633   3.494   8.398   6.857 -0.0329  2.4431 -0.9568
24786SOL     OW77634   0.822   0.205   1.004  0.7191 -0.2742  0.8329
24786SOL    HW177635   0.733   0.237   1.014  0.8256 -0.1641  1.4879
24786SOL    HW277636   0.840   0.212   0.910 -0.0766 -0.6302  0.6446
24787SOL     OW77637   1.958   8.491   0.652  0.3939  0.4170 -0.0128
24787SOL    HW177638   2.032   8.548   0.634 -0.2074  1.1884 -0.0751
24787SOL    HW277639   1.914   8.481   0.567  0.9051 -0.7398 -0.1586
24788SOL     OW77640   4.803   9.363  11.177 -0.3889  1.3528  0.6150
24788SOL    HW177641   4.888   9.384  11.138  0.3524 -3.3646 -0.9102
24788SOL    HW277642   4.740   9.379  11.107  0.2298 -1.4936 -0.7326
24789SOL     OW77643   8.405   7.021   4.839 -0.2040  0.3030 -0.0782
24789SOL    HW177644   8.370   7.083   4.903 -1.5340  0.3548 -0.8160
24789SOL    HW277645   8.331   6.963   4.819  0.5325 -0.4422 -0.6864
24790SOL     OW77646   9.982   3.632   3.979 -0.1677  0.1741 -0.9619
24790SOL    HW177647   9.991   3.695   3.908 -1.0127 -0.4246 -1.6113
24790SOL    HW277648  10.063   3.580   3.975  0.1889  0.7180 -0.9047
24791SOL     OW77649   0.041   9.770   3.204  0.9086  0.2796  0.5745
24791SOL    HW177650  -0.031   9.712   3.178  1.4003 -0.3725  0.6376
24791SOL    HW277651   0.110   9.710   3.232  1.6379  0.8914  0.0977
24792SOL     OW77652  11.300   0.752  11.043  0.5355  0.3487 -0.2046
24792SOL    HW177653  11.232   0.691  11.071  1.2587  0.7306  2.7333
24792SOL    HW277654  11.335   0.788  11.124  2.5711  2.0266 -1.7007
24793SOL     OW77655   6.149   6.434   6.769  0.5576 -0.0846 -0.0241
24793SOL    HW177656   6.088   6.448   6.841 -0.5729  0.5054 -1.0572
24793SOL    HW277657   6.114   6.486   6.697  1.1905 -1.2824 -1.2547
24794SOL     OW77658   0.959  10.085   6.384 -0.2110  0.0657  0.0332
24794SOL    HW177659   1.027  10.152   6.384  1.5826 -1.6553 -0.1505
24794SOL    HW277660   0.895  10.116   6.447  0.7504  1.7474  0.2475
24795SOL     OW77661   2.829   9.925   6.043  0.1691  0.2742 -0.9633
24795SOL    HW177662   2.745   9.904   6.084 -0.7984  1.8936 -2.0102
24795SOL    HW277663   2.893   9.915   6.114 -0.8293 -1.3381 -0.2333
24796SOL     OW77664   6.886   7.197  11.349 -0.1923  0.2833  0.2660
24796SOL    HW177665   6.854   7.127  11.405  1.3721 -0.0531  0.7697
24796SOL    HW277666   6.880   7.161  11.260 -1.7131  0.4478  0.2747
24797SOL     OW77667   9.128   9.089   7.156 -0.7314  0.2125 -0.5295
24797SOL    HW177668   9.070   9.162   7.173 -0.3767  0.5077 -0.5695
24797SOL    HW277669   9.216   9.126   7.161 -0.4958 -0.4510  0.6533
24798SOL     OW77670  10.200   7.087   3.054  0.0068  0.1351 -0.1664
24798SOL    HW177671  10.285   7.060   3.019 -0.2587  1.5427 -2.0462
24798SOL    HW277672  10.172   7.014   3.109  2.6442 -0.1578  0.9364
24799SOL     OW77673   9.714  10.156   8.452 -0.4018  0.1280  0.1350
24799SOL    HW177674   9.656  10.116   8.517 -1.3949  0.5556 -0.4574
24799SOL    HW277675   9.802  10.134   8.481 -0.8073  0.4881  1.7606
24800SOL     OW77676  10.651   9.530   1.396 -0.3360 -0.0377 -0.6210
24800SOL    HW177677  10.576   9.545   1.339 -0.8647  0.0399  0.0862
24800SOL    HW277678  10.718   9.493   1.338 -0.4593  1.0898 -1.5166
24801SOL     OW77679   2.524   6.022   2.705 -0.4735 -0.1128  0.0340
24801SOL    HW177680   2.434   6.022   2.670 -0.9245  0.2622  1.1507
24801SOL    HW277681   2.576   6.064   2.636 -0.9497 -1.2887 -1.0890
24802SOL     OW77682   1.084   4.448   5.779  0.6754  0.8052 -0.3164
24802SOL    HW177683   1.040   4.411   5.703  0.7618 -0.4121  0.2049
24802SOL    HW277684   1.073   4.543   5.769  0.9260  0.6910 -1.9733
24803SOL     OW77685  10.356   6.944  10.736  0.7052  0.1974 -0.5804
24803SOL    HW177686  10.275   6.907  10.770  0.6217  1.4012  0.6009
24803SOL    HW277687  10.422   6.921  10.801  1.7125 -2.1608 -2.2980
24804SOL     OW77688   0.621   7.162  11.048  0.2060  0.6371 -0.0460
24804SOL    HW177689   0.628   7.246  11.093 -0.5644 -0.3833  2.1145
24804SOL    HW277690   0.527   7.149  11.036  0.2613 -0.3110  0.4669
24805SOL     OW77691   8.165   5.517   3.230  0.5929 -0.3704  0.4142
24805SOL    HW177692   8.252   5.479   3.240  0.4560 -0.3757  1.9434
24805SOL    HW277693   8.116   5.453   3.180  1.5025 -0.2831 -0.6259
24806SOL     OW77694   4.088   5.638   0.480 -0.4402 -0.3836 -0.1488
24806SOL    HW177695   4.150   5.650   0.552  0.2193  0.9133 -0.8964
24806SOL    HW277696   4.055   5.549   0.492  0.4560 -0.5800  1.1226
24807SOL     OW77697   3.840   1.497   5.374 -0.2719 -0.4799 -0.6099
24807SOL    HW177698   3.931   1.472   5.357  0.9785 -0.4041  4.4622
24807SOL    HW277699   3.843   1.592   5.384 -0.8814 -0.4840 -0.3608
24808SOL     OW77700   5.306  10.191   2.989  0.3560 -0.2890 -0.4207
24808SOL    HW177701   5.372  10.124   2.968 -0.3143 -0.3859 -2.4223
24808SOL    HW277702   5.245  10.145   3.046  1.1081 -0.7010  0.0830
24809SOL     OW77703   3.909   5.687   5.007 -0.7771  0.0097  0.0274
24809SOL    HW177704   3.847   5.741   5.056 -0.7734 -0.3100  0.3885
24809SOL    HW277705   3.865   5.671   4.923 -0.2404  1.6435 -0.6066
24810SOL     OW77706   2.707   5.090   6.095 -0.3449  0.1997  0.0707
24810SOL    HW177707   2.771   5.062   6.161  0.1190 -1.1493 -0.9081
24810SOL    HW277708   2.684   5.010   6.048 -0.2183  1.1976 -1.7923
24811SOL     OW77709   1.590   6.704   6.193  0.4976 -0.2836  0.7570
24811SOL    HW177710   1.587   6.741   6.281  2.6494 -0.5161  0.9700
24811SOL    HW277711   1.626   6.616   6.206 -0.2754 -0.7674 -0.2509
24812SOL     OW77712   8.859   1.440   0.187 -0.4844 -0.0820 -0.0176
24812SOL    HW177713   8.840   1.515   0.243 -3.2309 -1.8353  1.6717
24812SOL    HW277714   8.939   1.464   0.140  0.8824  2.3414  3.1682
24813SOL     OW77715   8.084   7.767   7.765  0.1079  0.0389  0.3104
24813SOL    HW177716   8.176   7.742   7.775 -0.1876 -1.4270 -0.3369
24813SOL    HW277717   8.055   7.721   7.686 -0.7994  1.6603 -0.3646
24814SOL     OW77718  11.219   5.594  11.175 -0.0574  0.3623 -0.1133
24814SOL    HW177719  11.191   5.504  11.161 -1.6043  0.7615  0.1662
24814SOL    HW277720  11.202   5.611  11.268 -0.6930  1.2130 -0.3674
24815SOL     OW77721   2.369   5.353  10.684 -0.5458 -0.3072 -0.7777
24815SOL    HW177722   2.286   5.390  10.715 -1.1244 -1.6270 -0.6522
24815SOL    HW277723   2.392   5.406  10.607 -0.1262  1.7294  0.6712
24816SOL     OW77724   4.098   7.731   4.638 -0.4014  0.1220  0.0372
24816SOL    HW177725   4.108   7.817   4.597 -2.1714  0.8667  1.0814
24816SOL    HW277726   4.157   7.734   4.713 -0.1174  0.2261 -0.1822
24817SOL     OW77727   8.326   8.978   7.074  0.2215  0.0614 -0.2093
24817SOL    HW177728   8.419   8.956   7.068  0.3597  0.4395  0.4520
24817SOL    HW277729   8.287   8.940   6.995  0.8841 -0.3617 -0.3380
24818SOL     OW77730   1.756  11.252   1.854 -0.1026 -0.1794 -0.5007
24818SOL    HW177731   1.686  11.293   1.905 -0.1263 -1.2397  0.3491
24818SOL    HW277732   1.794  11.324   1.803  0.4290  1.0848  1.5829
24819SOL     OW77733   2.984   8.185   9.410 -0.2158 -0.1607 -0.4304
24819SOL    HW177734   2.917   8.183   9.342  0.4916 -0.5390 -1.1326
24819SOL    HW277735   2.966   8.109   9.465 -0.7719  0.1304 -0.1993
24820SOL     OW77736   4.960   8.362   3.559  0.0798  0.2548  0.1064
24820SOL    HW177737   5.047   8.386   3.591  0.5136 -0.3259 -0.6208
24820SOL    HW277738   4.962   8.266   3.555 -0.6965  0.2226  0.3622
24821SOL     OW77739   8.366   7.833   2.906 -0.5391 -0.0333  0.9752
24821SOL    HW177740   8.297   7.798   2.962  0.3029 -1.9166  0.9294
24821SOL    HW277741   8.444   7.784   2.931 -0.3529 -1.8856 -2.6065
24822SOL     OW77742   2.907  10.721   0.138  0.0994 -0.1028  0.4349
24822SOL    HW177743   2.951  10.689   0.059 -0.7016 -1.2491  0.4304
24822SOL    HW277744   2.977  10.730   0.203  0.2827 -2.7049  0.6993
24823SOL     OW77745   1.565   0.372   3.641 -0.1724  0.6454  0.0183
24823SOL    HW177746   1.488   0.399   3.590 -0.3798 -1.0539 -0.6375
24823SOL    HW277747   1.639   0.387   3.582 -0.2869 -0.1624 -0.3442
24824SOL     OW77748   2.882  10.690   7.267  0.6890  0.3047  0.0329
24824SOL    HW177749   2.976  10.693   7.284  0.5109  0.8345  0.9428
24824SOL    HW277750   2.875  10.695   7.171  1.4963  2.9018  0.0437
24825SOL     OW77751   3.054   2.349   8.158  0.1265  0.0357 -0.0548
24825SOL    HW177752   3.103   2.300   8.092  2.2863 -0.2631  1.6312
24825SOL    HW277753   2.981   2.388   8.110 -0.6461 -3.2441 -1.8516
24826SOL     OW77754   4.798   9.904   3.985  0.0151 -0.3180 -0.0164
24826SOL    HW177755   4.777   9.904   3.892 -0.6207 -0.8206  0.1236
24826SOL    HW277756   4.718   9.873   4.028 -0.4022  1.7735  0.8614
24827SOL     OW77757   1.390  10.760   5.125  0.2122 -0.1130  0.1086
24827SOL    HW177758   1.477  10.782   5.157  0.2211 -0.2956  0.2065
24827SOL    HW277759   1.331  10.787   5.195  0.0039  1.9416 -0.7599
24828SOL     OW77760   1.527   6.022   2.778  0.1738  0.4858 -0.6966
24828SOL    HW177761   1.619   5.998   2.765  0.1223 -0.8991  1.1018
24828SOL    HW277762   1.479   5.941   2.765 -0.7088  0.9904 -0.6644
24829SOL     OW77763   3.715   8.119   3.280 -0.1575  0.8082 -0.5402
24829SOL    HW177764   3.747   8.138   3.368 -1.0259 -2.5299  0.6730
24829SOL    HW277765   3.669   8.199   3.253 -1.2181  1.4666  2.7407
24830SOL     OW77766   8.580   8.871   6.709 -0.5441  0.3795 -0.6803
24830SOL    HW177767   8.557   8.795   6.656 -0.2293 -0.2505  0.0672
24830SOL    HW277768   8.673   8.859   6.730 -1.2271 -0.7562  2.1286
24831SOL     OW77769   7.314   1.984   0.604  0.1370  0.0552 -0.3791
24831SOL    HW177770   7.369   1.954   0.532  1.1077 -0.1608  0.4282
24831SOL    HW277771   7.345   2.072   0.622  0.9069 -0.4277  0.7270
24832SOL     OW77772   0.975   7.243   6.439 -0.1409  0.1294  0.4973
24832SOL    HW177773   1.021   7.194   6.372  1.4884  0.0922  1.5809
24832SOL    HW277774   0.906   7.184   6.469  1.2070 -1.1902  1.1439
24833SOL     OW77775   9.640   8.552   8.910  0.2533  0.1645 -0.4223
24833SOL    HW177776   9.731   8.580   8.919  0.2272  0.4791 -1.0927
24833SOL    HW277777   9.589   8.626   8.943  0.2425 -0.6353  1.5369
24834SOL     OW77778   4.074   2.920   5.180 -0.5361  0.0170  0.2981
24834SOL    HW177779   4.116   2.972   5.112 -1.0822 -1.8836 -1.6383
24834SOL    HW277780   4.144   2.895   5.240 -0.1602  2.2887  0.8608
24835SOL     OW77781   8.211   8.766  10.771 -0.3236 -0.7701  0.9480
24835SOL    HW177782   8.218   8.670  10.767  0.5987 -0.6984  0.4893
24835SOL    HW277783   8.276   8.797  10.708  0.8441  0.1849  2.5294
24836SOL     OW77784   6.896   8.488   5.823  0.3373  0.1352 -0.2590
24836SOL    HW177785   6.923   8.405   5.784 -1.5651 -1.0233  0.7275
24836SOL    HW277786   6.962   8.551   5.794  2.1762 -1.8151 -0.5856
24837SOL     OW77787   4.109   0.623   1.276 -0.2656 -0.2874  0.0751
24837SOL    HW177788   4.057   0.573   1.339  1.3873 -0.7137  1.1727
24837SOL    HW277789   4.059   0.618   1.194 -1.6507 -1.1261  0.9252
24838SOL     OW77790   7.765   9.227   3.548 -0.1893  0.8167 -0.4238
24838SOL    HW177791   7.838   9.286   3.570  0.2829  0.3017 -0.5699
24838SOL    HW277792   7.687   9.280   3.562  0.1418  0.9743  1.1076
24839SOL     OW77793  11.026   4.786   7.837 -0.2269 -0.5449  0.2399
24839SOL    HW177794  11.040   4.754   7.926 -0.9953  1.6455  1.2261
24839SOL    HW277795  10.995   4.876   7.849 -1.2102 -0.4913 -2.2335
24840SOL     OW77796  10.614   8.072   0.432  0.0682  0.5448 -0.2450
24840SOL    HW177797  10.521   8.089   0.447 -0.3745  0.2236 -2.4196
24840SOL    HW277798  10.647   8.153   0.393  0.6792  0.5869  0.3334
24841SOL     OW77799   3.001  10.784   0.933  0.5319  0.9295  0.4235
24841SOL    HW177800   3.006  10.769   1.027 -0.4734  1.6446  0.6084
24841SOL    HW277801   3.006  10.697   0.894 -0.0312  0.5479  1.1865
24842SOL     OW77802  11.226   0.359   5.536 -0.3716  0.2866 -0.0517
24842SOL    HW177803  11.214   0.269   5.565 -2.8426  1.3307  2.6758
24842SOL    HW277804  11.160   0.372   5.468 -0.7883  0.3199  0.3537
24843SOL     OW77805   7.003   8.479   0.837 -0.1121  0.1533 -0.1262
24843SOL    HW177806   6.927   8.454   0.890  1.5354 -0.1534  2.2593
24843SOL    HW277807   7.005   8.416   0.765 -0.3597 -1.8393  1.5318
24844SOL     OW77808   8.678   6.806   1.201 -0.1840  0.0232  0.2357
24844SOL    HW177809   8.774   6.800   1.206 -0.2390  0.2637  2.1261
24844SOL    HW277810   8.661   6.840   1.113  1.4150 -0.8939 -0.4694
24845SOL     OW77811  10.733   4.459   4.226  0.0229 -0.3028 -0.2685
24845SOL    HW177812  10.745   4.551   4.247  0.5645 -0.2248 -0.9035
24845SOL    HW277813  10.646   4.438   4.262  0.2524  0.2209  0.6257
24846SOL     OW77814   7.108   3.482   9.982 -0.2885 -0.0151  0.5859
24846SOL    HW177815   7.114   3.577   9.973  0.8492 -0.1908 -0.9593
24846SOL    HW277816   7.036   3.468  10.044 -0.8777  1.8269  0.3773
24847SOL     OW77817   8.143   8.936   3.597 -0.0800 -0.4604 -0.2004
24847SOL    HW177818   8.100   8.879   3.533  1.1249 -0.4151 -1.0761
24847SOL    HW277819   8.189   8.876   3.655 -0.4243 -0.4575  0.0795
24848SOL     OW77820   4.828   3.434   2.691  0.2300 -0.2089 -0.2175
24848SOL    HW177821   4.877   3.413   2.612  0.3316  0.4381 -0.3357
24848SOL    HW277822   4.739   3.405   2.672 -0.1796  1.5903 -1.3209
24849SOL     OW77823   6.646   6.319   5.243 -0.2649  0.1306  0.6055
24849SOL    HW177824   6.623   6.274   5.324  2.4666  0.5476  1.7169
24849SOL    HW277825   6.741   6.313   5.238 -0.2317  1.3843 -1.8463
24850SOL     OW77826   0.280   6.940   6.529 -0.1480  0.4974 -0.4416
24850SOL    HW177827   0.191   6.953   6.561  0.3128  1.3888  0.5597
24850SOL    HW277828   0.291   6.845   6.525 -1.0663  0.3830 -0.3643
24851SOL     OW77829   6.878   4.039   2.656  0.6603 -0.3663  0.4778
24851SOL    HW177830   6.937   4.050   2.581  0.4159 -1.2960  0.1286
24851SOL    HW277831   6.873   4.125   2.696  0.8545  0.1345 -0.5464
24852SOL     OW77832  11.072   5.717   4.881  0.2557 -0.3987 -0.0598
24852SOL    HW177833  11.151   5.694   4.831  1.3154  1.2525  0.7443
24852SOL    HW277834  11.021   5.772   4.821 -0.1877 -1.2729 -0.4983
24853SOL     OW77835   2.137   7.061   8.504  0.0359 -0.4590 -0.5177
24853SOL    HW177836   2.216   7.028   8.547  0.2424 -0.4131 -0.8636
24853SOL    HW277837   2.166   7.090   8.418  0.0020  1.3398  0.0413
24854SOL     OW77838   2.630   1.606   7.408 -0.4442  0.0901  0.0463
24854SOL    HW177839   2.625   1.674   7.475 -1.2582  0.3169 -0.2279
24854SOL    HW277840   2.550   1.618   7.356 -0.4591 -0.8956 -0.1738
24855SOL     OW77841   9.094   9.172   8.095  0.4601 -0.0127  0.0171
24855SOL    HW177842   9.144   9.154   8.015 -0.0046 -0.2015 -0.2374
24855SOL    HW277843   9.005   9.143   8.074  0.7788 -2.1630  1.3368
24856SOL     OW77844   3.290   9.823   3.574 -0.3193  0.6370  0.0352
24856SOL    HW177845   3.265   9.779   3.492 -1.3230  1.3444 -0.0522
24856SOL    HW277846   3.373   9.781   3.599  0.3551  0.8619 -1.6890
24857SOL     OW77847   5.102   5.373   5.937  0.2076  0.1628 -0.2719
24857SOL    HW177848   5.091   5.359   6.031  2.4424 -2.1467 -0.2115
24857SOL    HW277849   5.015   5.395   5.905 -0.5759  1.1952  2.3461
24858SOL     OW77850   6.744   0.589   8.218 -0.0563 -0.6260 -0.5452
24858SOL    HW177851   6.666   0.554   8.175 -1.2167  1.1361  0.0389
24858SOL    HW277852   6.744   0.547   8.304 -1.3327  0.5789  0.0808
24859SOL     OW77853   2.012   1.948   1.283  0.9833 -0.2603 -0.2400
24859SOL    HW177854   2.105   1.970   1.277  0.4586  1.8663 -2.0261
24859SOL    HW277855   1.992   1.953   1.376  2.7896 -1.6058  0.2737
24860SOL     OW77856   6.206   8.864   3.365  0.1465  0.2038 -0.2067
24860SOL    HW177857   6.157   8.782   3.376  0.2715  0.0994 -0.4095
24860SOL    HW277858   6.286   8.850   3.415  0.2324  0.1460 -0.3594
24861SOL     OW77859   7.109   1.760   6.233 -0.4360 -0.3019  0.5312
24861SOL    HW177860   7.142   1.674   6.208  0.6346 -0.2614  1.6734
24861SOL    HW277861   7.093   1.754   6.327 -0.7175  0.6256  0.5573
24862SOL     OW77862   1.821   5.615   8.796 -0.2133  0.2048  0.0421
24862SOL    HW177863   1.801   5.709   8.791 -0.3851  0.1480 -0.4012
24862SOL    HW277864   1.799   5.581   8.710  1.0310 -0.0218 -0.2060
24863SOL     OW77865   3.826   9.960  10.001 -0.0511 -0.0587 -0.1537
24863SOL    HW177866   3.917   9.978  10.025  0.5529  1.0987 -2.9834
24863SOL    HW277867   3.774  10.001  10.071  1.5627  0.9142  0.5321
24864SOL     OW77868  10.191   3.438   7.405  0.1812  0.0876 -0.4275
24864SOL    HW177869  10.280   3.460   7.433 -0.1367 -0.4644  1.1404
24864SOL    HW277870  10.181   3.345   7.425  0.0048 -0.4609 -2.7943
24865SOL     OW77871   5.094   1.384   1.221  0.2134 -0.3814  0.1213
24865SOL    HW177872   5.061   1.299   1.192 -1.6377 -0.1814  1.4216
24865SOL    HW277873   5.120   1.429   1.141 -0.2392 -1.5909 -0.7329
24866SOL     OW77874   0.744   6.147   1.678 -0.2957 -0.1032  0.3361
24866SOL    HW177875   0.729   6.240   1.661 -0.3114  0.2725  2.2121
24866SOL    HW277876   0.658   6.113   1.702 -0.2317 -0.5498 -0.0478
24867SOL     OW77877   3.780   4.740   0.941 -0.9464  0.0485 -0.0756
24867SOL    HW177878   3.693   4.762   0.974 -1.1142 -1.3012  0.4605
24867SOL    HW277879   3.789   4.646   0.958  0.9111  0.2889  0.5764
24868SOL     OW77880   4.954   2.195  10.239 -0.7146  0.4072 -0.1474
24868SOL    HW177881   4.949   2.136  10.164  0.3478 -0.2311  0.2755
24868SOL    HW277882   4.887   2.262  10.221 -0.9368 -0.1118 -1.3234
24869SOL     OW77883   2.640   5.598   1.295  0.0390 -0.4676 -0.0553
24869SOL    HW177884   2.594   5.533   1.242  1.5290 -0.4674 -1.4516
24869SOL    HW277885   2.709   5.548   1.340  0.5399 -0.0418 -0.3320
24870SOL     OW77886   0.477   6.254   1.356 -0.0625 -0.4196 -0.0897
24870SOL    HW177887   0.542   6.232   1.423 -1.6558  2.2704  2.5920
24870SOL    HW277888   0.413   6.183   1.360 -0.4494 -0.0212  1.8016
24871SOL     OW77889   5.870   8.174   7.227 -0.6728  0.0663  0.7307
24871SOL    HW177890   5.848   8.260   7.262 -1.3791  0.2490 -0.1503
24871SOL    HW277891   5.965   8.166   7.242 -0.8694  0.3163  2.2669
24872SOL     OW77892   0.436   8.559   2.392 -0.2075  0.0069 -0.4635
24872SOL    HW177893   0.382   8.638   2.384 -0.6909 -0.2615  0.0268
24872SOL    HW277894   0.502   8.567   2.324 -0.1052  0.9537 -0.2595
24873SOL     OW77895   0.554   4.688   8.794  0.2433  0.3464 -0.1710
24873SOL    HW177896   0.523   4.766   8.748 -0.3683 -0.1936 -0.6986
24873SOL    HW277897   0.476   4.631   8.800  0.4876  0.0896  0.8742
24874SOL     OW77898   3.286   0.765   3.748 -0.1077 -0.2655 -0.4936
24874SOL    HW177899   3.381   0.760   3.746  0.0257 -0.5511  2.0680
24874SOL    HW277900   3.268   0.855   3.777 -0.4605 -0.8447  1.2264
24875SOL     OW77901   1.166   3.929   6.216 -0.0963  1.1594 -0.0091
24875SOL    HW177902   1.149   4.023   6.226 -2.3426  0.8342 -0.1456
24875SOL    HW277903   1.120   3.888   6.290  1.0386  0.1695  0.1767
24876SOL     OW77904   6.685   3.251   7.149  0.0105 -0.6477 -0.0639
24876SOL    HW177905   6.711   3.334   7.109 -0.4252  0.1638  1.2852
24876SOL    HW277906   6.767   3.211   7.176  0.1683 -0.1788  0.1713
24877SOL     OW77907   0.356   0.698   2.843 -0.0458 -0.2944  0.2635
24877SOL    HW177908   0.275   0.668   2.884  0.2227 -0.5071  0.6344
24877SOL    HW277909   0.426   0.673   2.904  0.4883 -1.7643 -0.8972
24878SOL     OW77910  10.800   9.959   9.542  0.2043 -0.6366  0.1403
24878SOL    HW177911  10.705   9.969   9.553  0.3096  0.3933  0.2599
24878SOL    HW277912  10.817   9.985   9.452  0.6540  1.6965  0.8386
24879SOL     OW77913   5.585   8.783   5.391 -0.2383  0.4540 -0.5921
24879SOL    HW177914   5.622   8.771   5.304  1.1341  1.2005 -0.1464
24879SOL    HW277915   5.540   8.701   5.410 -0.1107  0.0936 -1.7861
24880SOL     OW77916   5.027   0.071   0.718 -0.2632 -0.7780  0.2172
24880SOL    HW177917   5.013   0.079   0.813 -0.3833 -0.4487  0.1724
24880SOL    HW277918   4.976  -0.007   0.694  1.6226 -2.2860  0.7989
24881SOL     OW77919   0.095   0.239   7.154  0.1395  0.1965 -0.4053
24881SOL    HW177920   0.030   0.169   7.154  0.6834 -0.3427 -1.6416
24881SOL    HW277921   0.177   0.195   7.175  0.5395  0.3951 -1.4974
24882SOL     OW77922   9.902   4.979   7.439 -0.4172 -0.1276 -0.1193
24882SOL    HW177923   9.859   4.915   7.382 -0.5785  0.3386 -0.5350
24882SOL    HW277924   9.993   4.981   7.409  0.0053 -1.3788  0.9980
24883SOL     OW77925   0.860   8.517   9.543 -0.3264  0.0625  0.3074
24883SOL    HW177926   0.836   8.603   9.579 -0.9570 -0.0154  0.1001
24883SOL    HW277927   0.951   8.505   9.567 -0.3322  0.6420  0.6409
24884SOL     OW77928   3.949   1.496   0.454  0.5586  0.3503  0.4590
24884SOL    HW177929   3.932   1.587   0.479  0.4021  0.3892  0.2099
24884SOL    HW277930   3.934   1.493   0.360 -0.4943 -0.1838  0.6318
24885SOL     OW77931   3.501   4.326   0.437 -0.5278 -0.3625  0.2227
24885SOL    HW177932   3.559   4.270   0.386 -0.6753 -0.0632 -0.2819
24885SOL    HW277933   3.538   4.414   0.428 -0.0259 -0.4340  1.3959
24886SOL     OW77934   8.031   6.996  11.316  0.5124 -0.6277 -0.7476
24886SOL    HW177935   7.975   7.025  11.388  0.8662  2.6685 -1.6429
24886SOL    HW277936   7.979   6.928  11.271 -0.5941 -1.2237  1.3057
24887SOL     OW77937   6.665   7.610   2.535 -0.5347 -0.0232 -0.1937
24887SOL    HW177938   6.732   7.675   2.561 -0.0749 -0.2226 -0.8557
24887SOL    HW277939   6.671   7.607   2.440 -0.6905 -0.9041 -0.1758
24888SOL     OW77940   8.594  10.383   7.241  0.5234  0.4736  0.7802
24888SOL    HW177941   8.606  10.311   7.180  0.4071  1.5686 -0.5878
24888SOL    HW277942   8.626  10.349   7.325  1.2914 -0.8513 -0.0149
24889SOL     OW77943   5.070   6.894   2.001 -0.3250 -0.6528 -0.4675
24889SOL    HW177944   4.999   6.883   1.938  0.3675 -0.3324 -1.3192
24889SOL    HW277945   5.132   6.953   1.958 -0.1666  0.1398  0.7912
24890SOL     OW77946   6.817   6.759   7.405  0.0888  0.3425  0.7394
24890SOL    HW177947   6.838   6.757   7.311 -0.1173  1.3834  0.6558
24890SOL    HW277948   6.774   6.675   7.422 -2.0886  1.0945 -0.6492
24891SOL     OW77949   1.769   4.402   0.182 -0.1613 -0.1772  0.6640
24891SOL    HW177950   1.707   4.415   0.111 -0.2707 -1.8709  0.4309
24891SOL    HW277951   1.853   4.431   0.146 -0.6388  1.3908  0.7281
24892SOL     OW77952   4.650   2.797  11.001  0.0259  0.0192  0.2726
24892SOL    HW177953   4.605   2.880  10.983  1.6055  0.6224 -1.1138
24892SOL    HW277954   4.727   2.822  11.051  0.6943 -0.5570 -0.4522
24893SOL     OW77955   4.007   9.484  10.700  0.0202 -0.3359  0.3735
24893SOL    HW177956   4.034   9.406  10.749  0.1671 -0.3154  0.3269
24893SOL    HW277957   4.028   9.463  10.609 -0.2169 -0.3581  0.3240
24894SOL     OW77958   3.332   5.840   1.427 -0.0432  0.1102 -0.2706
24894SOL    HW177959   3.366   5.818   1.341  0.9824 -1.2216  0.4344
24894SOL    HW277960   3.308   5.932   1.421  1.5740  0.4909 -1.4864
24895SOL     OW77961  10.357   3.324   0.108  0.6406  0.4747 -0.1200
24895SOL    HW177962  10.311   3.284   0.034  1.0046  0.6921 -0.4675
24895SOL    HW277963  10.378   3.413   0.078 -0.3056  0.9949  0.7012
24896SOL     OW77964   8.034   0.901   6.363 -0.4983 -0.3202 -0.0836
24896SOL    HW177965   8.090   0.894   6.440  1.8342 -0.5237 -1.6689
24896SOL    HW277966   7.960   0.954   6.391  0.1227 -0.6233  2.3407
24897SOL     OW77967   7.927   6.522   1.072  0.0075  0.7789 -0.2858
24897SOL    HW177968   7.925   6.426   1.068 -0.1558  0.7709 -0.0513
24897SOL    HW277969   7.835   6.547   1.084  0.1406  0.9270  0.4645
24898SOL     OW77970  10.813   3.236   0.956 -0.1748  0.2279 -0.0658
24898SOL    HW177971  10.848   3.158   0.914 -1.0042  0.0052 -0.3605
24898SOL    HW277972  10.770   3.284   0.885  2.4342  2.2399 -0.4301
24899SOL     OW77973   4.318  11.047   7.879 -0.0457 -0.1658 -0.2696
24899SOL    HW177974   4.384  10.985   7.911 -0.7774 -0.0992  1.4614
24899SOL    HW277975   4.367  11.128   7.862  0.0135  1.0293  4.2614
24900SOL     OW77976   1.224   9.081   0.793  0.2984  0.9543 -0.3067
24900SOL    HW177977   1.153   9.077   0.857 -2.0470 -0.0361 -2.7804
24900SOL    HW277978   1.186   9.123   0.716  2.3372  0.2591 -1.8117
24901SOL     OW77979   7.009   7.233   1.147  0.2043  0.3367 -0.2990
24901SOL    HW177980   7.044   7.237   1.236  0.3937 -0.8838 -0.3008
24901SOL    HW277981   7.003   7.325   1.119 -0.0376  0.7449  1.0326
24902SOL     OW77982   6.078   4.615  11.306  0.3368  0.2726 -0.0282
24902SOL    HW177983   6.171   4.595  11.293  1.0346  2.5634  0.8444
24902SOL    HW277984   6.078   4.700  11.351 -2.1915  0.3795 -0.0813
24903SOL     OW77985  10.189   9.193   8.182  0.1821  0.3101  0.1467
24903SOL    HW177986  10.284   9.206   8.181 -0.1551  3.9195 -0.7758
24903SOL    HW277987  10.168   9.180   8.274  1.4666  1.0736  0.5835
24904SOL     OW77988   5.726   5.439   9.054  0.1183  0.7599 -0.3906
24904SOL    HW177989   5.703   5.503   8.987 -1.4793 -0.4040 -1.0015
24904SOL    HW277990   5.783   5.377   9.009  0.7361  1.0911 -0.0917
24905SOL     OW77991   9.079   1.271   9.321  0.5682  0.7638 -0.4367
24905SOL    HW177992   9.137   1.197   9.340  1.1879  1.0791 -1.0569
24905SOL    HW277993   9.132   1.329   9.267 -0.5903  0.6566 -1.7493
24906SOL     OW77994   2.265   7.383  10.694 -0.1597  0.2061  0.0556
24906SOL    HW177995   2.257   7.473  10.662 -0.4531  0.3600  0.5480
24906SOL    HW277996   2.176   7.348  10.689 -0.5799  0.7927  2.2897
24907SOL     OW77997   9.947   7.760   7.106 -0.0324 -0.1402 -0.4003
24907SOL    HW177998  10.010   7.731   7.040  0.3231 -1.3111  0.4335
24907SOL    HW277999   9.999   7.772   7.185 -1.0530 -2.9089  0.8208
24908SOL     OW78000   3.892   9.812  10.391  0.0072  0.5812 -0.2709
24908SOL    HW178001   3.933   9.895  10.367  1.2614 -0.2838 -1.2822
24908SOL    HW278002   3.919   9.797  10.482 -1.4326  1.9368  0.4348
24909SOL     OW78003   1.601  10.270   1.467 -0.1099 -0.3600 -0.1486
24909SOL    HW178004   1.522  10.291   1.417 -0.4252  1.6474  1.0809
24909SOL    HW278005   1.665  10.335   1.439 -0.1689  0.5582  1.6611
24910SOL     OW78006   5.131   4.896   6.816 -0.1674  0.2062 -0.3683
24910SOL    HW178007   5.063   4.829   6.826  1.2076 -1.1484  0.0835
24910SOL    HW278008   5.146   4.929   6.905 -0.5477  0.8606 -0.5340
24911SOL     OW78009   9.813   6.043   3.843 -0.2529  0.9554 -0.5769
24911SOL    HW178010   9.804   6.134   3.872  0.0725  0.4277  1.3263
24911SOL    HW278011   9.726   6.006   3.855 -0.4975  1.0972 -1.7717
24912SOL     OW78012  10.614   6.795   5.724  0.2771  0.2028 -0.5097
24912SOL    HW178013  10.587   6.778   5.814 -0.8280 -1.1838 -1.0583
24912SOL    HW278014  10.698   6.751   5.716  1.3164  1.9484  0.3513
24913SOL     OW78015   4.110   4.200   2.606  0.2690  0.1753  0.4151
24913SOL    HW178016   4.149   4.263   2.545 -0.2808 -1.1581 -1.4232
24913SOL    HW278017   4.184   4.165   2.655  0.7507  1.2021  0.4483
24914SOL     OW78018   7.069   7.779   8.979  0.0208 -0.1139 -0.5762
24914SOL    HW178019   7.039   7.695   8.944 -1.1593  0.4169 -0.9016
24914SOL    HW278020   7.037   7.779   9.069 -0.9158  0.4017 -0.8883
24915SOL     OW78021   7.332  10.763   6.931  0.5712  0.3104  0.0733
24915SOL    HW178022   7.380  10.682   6.918  0.8357  0.3062  0.9785
24915SOL    HW278023   7.261  10.760   6.867  1.8627  0.4108 -1.4224
24916SOL     OW78024   3.170   6.249   3.907  0.1502 -0.2073  0.0872
24916SOL    HW178025   3.246   6.298   3.940 -0.6724  0.7479  0.6104
24916SOL    HW278026   3.208   6.170   3.868  1.3073 -0.5832  1.8302
24917SOL     OW78027   4.674   3.112  10.796  0.1404  0.0446 -0.0685
24917SOL    HW178028   4.657   3.033  10.745 -0.2922 -0.1986  0.4457
24917SOL    HW278029   4.688   3.180  10.730  2.2093 -0.7608 -0.5669
24918SOL     OW78030   8.632   9.867   9.166 -0.5818  0.3160 -0.1701
24918SOL    HW178031   8.611   9.844   9.076 -0.2702 -0.0625 -0.1487
24918SOL    HW278032   8.616   9.961   9.171 -2.6990 -0.0123 -0.0289
24919SOL     OW78033   4.074   2.935   6.904  0.8728 -0.0212  0.2238
24919SOL    HW178034   4.054   2.907   6.815  0.5197 -0.3050  0.3929
24919SOL    HW278035   4.106   2.857   6.949  4.0128  0.6899 -0.4730
24920SOL     OW78036   6.951   3.496   1.554  0.4309 -0.5385 -0.1497
24920SOL    HW178037   6.979   3.586   1.571 -0.2551 -0.1253 -1.1039
24920SOL    HW278038   7.027   3.443   1.575  1.1875  0.3610 -0.5432
24921SOL     OW78039   6.357   2.089   9.176 -0.2216  0.0812  0.5084
24921SOL    HW178040   6.432   2.031   9.189 -0.7230 -0.2558  2.2039
24921SOL    HW278041   6.337   2.123   9.264 -0.7024  1.8877 -0.2486
24922SOL     OW78042   1.962   9.276   1.533  0.3992 -0.4258  0.2185
24922SOL    HW178043   2.027   9.235   1.476 -0.1410 -0.4384 -0.4011
24922SOL    HW278044   1.878   9.245   1.500  0.0383  0.2250  0.5012
24923SOL     OW78045   2.805   5.264   3.959 -0.1344 -0.0067  0.4350
24923SOL    HW178046   2.793   5.358   3.944 -0.6098 -0.1865 -0.3626
24923SOL    HW278047   2.882   5.242   3.907 -0.8115 -0.3079 -0.4733
24924SOL     OW78048   8.541   5.825   3.418 -0.2298 -0.2240  0.4907
24924SOL    HW178049   8.499   5.739   3.414  1.9318 -1.3226  0.0808
24924SOL    HW278050   8.604   5.818   3.490  0.0072  1.0164  0.4338
24925SOL     OW78051   6.737   8.803  10.208  0.1752  0.1915 -0.5999
24925SOL    HW178052   6.807   8.753  10.165  0.5051  1.2790 -1.3747
24925SOL    HW278053   6.782   8.852  10.277 -0.1350 -0.4940  0.1039
24926SOL     OW78054   7.335   7.659   3.927 -0.1980 -0.1746 -0.2856
24926SOL    HW178055   7.398   7.622   3.990 -0.2208 -0.6301 -0.5236
24926SOL    HW278056   7.381   7.656   3.843 -0.5630 -0.6026 -0.4802
24927SOL     OW78057   9.309  11.141   0.712 -0.0900  0.5356 -0.2749
24927SOL    HW178058   9.305  11.151   0.617  0.3713 -0.7826 -0.4573
24927SOL    HW278059   9.395  11.103   0.728 -1.0359 -1.4030  0.4506
24928SOL     OW78060   9.957   0.654   8.812  0.1520  0.4234 -0.5907
24928SOL    HW178061   9.965   0.691   8.724  0.4676 -1.2132 -1.3036
24928SOL    HW278062   9.993   0.565   8.803  0.7136  0.4142  1.3335
24929SOL     OW78063   1.119   8.239   4.732 -0.0585 -0.4304  0.8448
24929SOL    HW178064   1.054   8.302   4.703  0.0065 -0.6459  0.2127
24929SOL    HW278065   1.114   8.241   4.828 -0.2881  0.2824  0.8214
24930SOL     OW78066   7.573   1.389   4.673 -0.3424  0.3126  0.5119
24930SOL    HW178067   7.484   1.379   4.708 -0.5054 -1.0717 -0.2148
24930SOL    HW278068   7.566   1.461   4.611 -1.0032  0.1356  0.3716
24931SOL     OW78069   5.567   5.445   9.907  0.4271  0.5287 -0.3647
24931SOL    HW178070   5.627   5.498   9.959 -0.0334  1.0769 -0.3871
24931SOL    HW278071   5.549   5.498   9.829 -2.2279  1.6186  0.8740
24932SOL     OW78072   8.202   7.717   2.398 -0.2169 -0.4202  0.0597
24932SOL    HW178073   8.277   7.776   2.386  0.0618 -0.7330  0.2510
24932SOL    HW278074   8.170   7.701   2.310  1.0500 -1.7160 -0.1967
24933SOL     OW78075   2.367   3.705   3.264 -0.2080  0.3462  0.2380
24933SOL    HW178076   2.289   3.682   3.313 -1.0662  0.5098 -1.0113
24933SOL    HW278077   2.367   3.801   3.262  1.6523  0.4995  2.7295
24934SOL     OW78078   4.359  10.824   0.777  0.4915  0.4556  0.3740
24934SOL    HW178079   4.364  10.905   0.827  1.0079  0.8669 -0.3155
24934SOL    HW278080   4.388  10.756   0.837 -0.6532  0.6604  1.1929
24935SOL     OW78081   6.963  11.037   2.464  0.1322 -0.4253 -0.0355
24935SOL    HW178082   6.965  11.077   2.551  0.2211 -0.0295 -0.2133
24935SOL    HW278083   7.044  10.987   2.458  0.0292 -0.6199  0.1838
24936SOL     OW78084  10.843   4.190  10.353 -0.5722 -0.4043  0.3554
24936SOL    HW178085  10.816   4.246  10.426 -0.5233 -1.8952  1.5592
24936SOL    HW278086  10.796   4.226  10.278 -1.5770  0.4340  1.3428
24937SOL     OW78087  10.030   7.700  10.240  0.1377 -0.4040 -0.5979
24937SOL    HW178088   9.998   7.723  10.153  1.9892 -1.6976 -1.6960
24937SOL    HW278089  10.007   7.607  10.250 -1.0327 -0.0100  0.8100
24938SOL     OW78090   2.649   0.515   7.741 -0.2325  0.0307  0.1192
24938SOL    HW178091   2.734   0.510   7.784  0.0308 -1.4659 -0.5137
24938SOL    HW278092   2.646   0.603   7.704  0.3354  0.6707  1.5267
24939SOL     OW78093   6.137   4.485   1.480 -0.1004 -0.0891  0.7191
24939SOL    HW178094   6.079   4.445   1.544 -0.8475  0.0360  0.1365
24939SOL    HW278095   6.180   4.557   1.527 -2.2263  1.3865  0.5420
24940SOL     OW78096  11.164   1.283   6.997  0.3851 -0.7312 -0.2730
24940SOL    HW178097  11.256   1.309   7.004  0.5627 -1.5154  0.3734
24940SOL    HW278098  11.144   1.240   7.080 -1.4309  2.0240  0.8665
24941SOL     OW78099   8.833   1.490   8.169 -0.6255  0.2174  0.5172
24941SOL    HW178100   8.814   1.558   8.234 -1.1412  1.0934 -0.5140
24941SOL    HW278101   8.852   1.539   8.089  0.2978 -0.8317  0.0780
24942SOL     OW78102  10.860  10.945   0.705 -0.4316  0.1022 -0.4855
24942SOL    HW178103  10.842  10.871   0.763  2.0771  1.1805  1.9099
24942SOL    HW278104  10.808  11.017   0.742 -1.6838 -0.0221 -1.8978
24943SOL     OW78105   1.435   6.277   0.666  0.1829  0.7358 -0.0660
24943SOL    HW178106   1.482   6.227   0.599  0.3952  0.4154  0.3214
24943SOL    HW278107   1.495   6.281   0.740 -1.1192 -1.4109  1.2155
24944SOL     OW78108   4.574   8.277  10.058 -0.2077  0.0242 -0.4191
24944SOL    HW178109   4.499   8.318  10.016 -0.9699  0.2046  1.0419
24944SOL    HW278110   4.628   8.351  10.087  0.4318 -0.1002 -1.2414
24945SOL     OW78111   0.860  11.023   2.539  0.1125 -0.4538  0.5265
24945SOL    HW178112   0.941  10.980   2.512  0.8720  0.6620  0.9465
24945SOL    HW278113   0.867  11.027   2.635 -0.7882 -1.0013  0.6221
24946SOL     OW78114   1.370  10.827   2.974 -0.0481  0.2669 -0.3590
24946SOL    HW178115   1.283  10.817   2.935 -0.7299 -2.7640  1.5972
24946SOL    HW278116   1.383  10.922   2.979 -3.2640  0.8494 -0.6806
24947SOL     OW78117  10.314   2.528   0.241 -0.3895 -0.4769 -0.3768
24947SOL    HW178118  10.405   2.509   0.263 -0.3050  0.4673  0.1628
24947SOL    HW278119  10.298   2.616   0.278 -1.0359  0.0661 -1.8709
24948SOL     OW78120   0.474   0.524   9.848  0.2638 -0.2336  0.2138
24948SOL    HW178121   0.473   0.604   9.900  0.1983  0.4756 -0.8524
24948SOL    HW278122   0.539   0.468   9.891  1.5045  1.0343  0.0484
24949SOL     OW78123  10.418  10.671   8.059 -0.0023 -0.2279  0.4937
24949SOL    HW178124  10.370  10.683   7.978  0.5672 -1.3453 -0.0354
24949SOL    HW278125  10.351  10.663   8.127 -0.4637  1.7957  0.3267
24950SOL     OW78126   0.643   5.033   6.881 -0.5933 -0.0199 -0.4554
24950SOL    HW178127   0.576   5.013   6.817 -2.1380  0.3333  0.9943
24950SOL    HW278128   0.631   5.125   6.902 -0.2845 -0.1803  0.5150
24951SOL     OW78129   2.966   0.166  10.335 -0.5290  0.8435 -0.2522
24951SOL    HW178130   2.922   0.085  10.359 -1.3501  0.8245 -1.7315
24951SOL    HW278131   2.951   0.224  10.410 -1.9396  0.3914 -0.1661
24952SOL     OW78132   8.688   1.730   9.647 -0.5061  0.3205  0.2235
24952SOL    HW178133   8.635   1.673   9.702  0.3007  0.4240  1.1314
24952SOL    HW278134   8.757   1.672   9.612  0.1262  0.6658  0.8914
24953SOL     OW78135   6.074   3.195   7.988  0.1457  0.0382 -0.4494
24953SOL    HW178136   6.017   3.250   7.933 -0.6413  0.9403  1.2118
24953SOL    HW278137   6.154   3.246   7.999  0.4174 -0.2645 -0.9341
24954SOL     OW78138   0.804   0.254   0.745  0.1355 -0.4136 -0.0089
24954SOL    HW178139   0.770   0.322   0.687  0.0249 -0.4938 -0.0382
24954SOL    HW278140   0.801   0.174   0.692  1.2414 -0.2540 -0.3333
24955SOL     OW78141  11.243   3.818   6.125 -0.0027 -0.3684  0.0868
24955SOL    HW178142  11.332   3.817   6.159  0.4464  1.2983 -0.8800
24955SOL    HW278143  11.248   3.876   6.049 -2.1370  0.6389  0.6490
24956SOL     OW78144   3.974   7.789  11.138  0.4811 -0.0029 -0.5182
24956SOL    HW178145   4.069   7.778  11.134  0.3266 -1.0489 -2.6149
24956SOL    HW278146   3.961   7.869  11.190  2.4278 -0.4880  0.8113
24957SOL     OW78147   9.526   6.268   0.958 -0.3979  0.3550 -0.4000
24957SOL    HW178148   9.478   6.315   0.889  0.3193  0.7746 -0.6203
24957SOL    HW278149   9.608   6.316   0.967 -1.2011  1.4363  2.0396
24958SOL     OW78150   4.393   2.544   2.418 -0.2683  0.0818  0.5787
24958SOL    HW178151   4.439   2.547   2.334 -1.6447 -0.4053 -0.2238
24958SOL    HW278152   4.461   2.517   2.481  0.9794  1.2956 -0.1995
24959SOL     OW78153   1.787   5.625   6.275  0.6490 -0.2135 -0.6799
24959SOL    HW178154   1.692   5.635   6.263  0.5430  0.3267  0.4669
24959SOL    HW278155   1.798   5.535   6.306  0.2758  0.3458  1.1739
24960SOL     OW78156   4.889   3.760   3.570  0.3460 -0.3137  0.4839
24960SOL    HW178157   4.900   3.819   3.496  1.3347 -1.4417 -0.2937
24960SOL    HW278158   4.895   3.673   3.533  1.2987 -0.9098  1.9470
24961SOL     OW78159  10.299   5.409   9.322 -0.0503 -0.0133  0.6479
24961SOL    HW178160  10.286   5.474   9.391 -0.2511 -1.4606  2.0141
24961SOL    HW278161  10.319   5.328   9.368 -0.8637 -1.1858 -0.9669
24962SOL     OW78162   1.234   4.426   6.691  0.4609 -0.1772 -0.1490
24962SOL    HW178163   1.196   4.502   6.735  1.3796  0.0644  0.2513
24962SOL    HW278164   1.226   4.355   6.754 -0.3035 -0.3900 -0.4828
24963SOL     OW78165   5.026   6.004   0.518 -0.0908  0.0652  0.3592
24963SOL    HW178166   5.069   5.949   0.452 -1.0605 -0.8626  0.4679
24963SOL    HW278167   5.061   6.092   0.503  0.6115 -0.3613 -0.5955
24964SOL     OW78168  11.009   1.453   8.638 -0.3704 -0.0540 -0.1054
24964SOL    HW178169  10.999   1.366   8.678 -0.1699 -0.8750 -1.7581
24964SOL    HW278170  11.027   1.511   8.712 -0.7521 -1.3710  1.0688
24965SOL     OW78171   7.894   1.497   5.135  0.1703  0.1821 -0.1184
24965SOL    HW178172   7.835   1.521   5.207 -0.5055  0.3906 -0.7329
24965SOL    HW278173   7.849   1.425   5.090 -0.2651  1.2300 -1.4056
24966SOL     OW78174   6.494   4.166   0.099  0.2229 -0.3083 -0.2358
24966SOL    HW178175   6.404   4.154   0.130  0.4665  0.3986  0.7885
24966SOL    HW278176   6.484   4.195   0.008 -0.6657  1.0952  0.2597
24967SOL     OW78177   0.557   6.736   2.272  0.3526 -0.1696 -0.2224
24967SOL    HW178178   0.587   6.702   2.356 -0.2987  0.1970  0.1659
24967SOL    HW278179   0.502   6.811   2.295 -2.5322 -1.9833 -0.7770
24968SOL     OW78180   6.613   2.277   6.021  0.2679  0.3041  0.3595
24968SOL    HW178181   6.634   2.201   6.076  1.1721  0.6899  0.5677
24968SOL    HW278182   6.693   2.329   6.020 -0.0402  0.7905 -0.5494
24969SOL     OW78183  10.570   9.613   1.634  0.7598  0.4059  0.4475
24969SOL    HW178184  10.608   9.688   1.681  0.7229  1.0146 -0.4823
24969SOL    HW278185  10.615   9.613   1.549  0.2820 -0.2321  0.1925
24970SOL     OW78186   2.743   9.861   7.604  0.0006 -0.2319  0.7258
24970SOL    HW178187   2.657   9.822   7.616  0.1789 -1.3163 -1.1500
24970SOL    HW278188   2.729   9.955   7.618 -1.0688 -0.6003  2.3006
24971SOL     OW78189   4.616   0.931   3.272 -0.0152 -0.1985  0.3349
24971SOL    HW178190   4.635   0.949   3.180 -0.3247  0.5484  0.4074
24971SOL    HW278191   4.664   0.998   3.320  1.2776 -1.4169  0.8223
24972SOL     OW78192   6.081   2.538   5.212  0.5030 -0.6086  0.0626
24972SOL    HW178193   6.051   2.475   5.278  0.3458 -0.7098 -0.1061
24972SOL    HW278194   6.110   2.614   5.264 -0.0203 -0.5195  0.2287
24973SOL     OW78195   4.416  10.224   4.229 -0.2410 -0.9398 -0.3297
24973SOL    HW178196   4.490  10.174   4.263  0.4906 -0.4877 -1.2341
24973SOL    HW278197   4.439  10.245   4.139 -2.0244 -1.8761 -1.0650
24974SOL     OW78198   6.069   6.640   6.493  0.2884  0.0985  0.2538
24974SOL    HW178199   6.102   6.674   6.577  0.7139 -1.0773  0.5840
24974SOL    HW278200   6.122   6.685   6.427  1.0383 -0.1112  0.6910
24975SOL     OW78201   7.057   1.475   0.444  0.1759 -0.5902  0.2587
24975SOL    HW178202   7.013   1.546   0.397 -0.2041 -1.5647 -0.9139
24975SOL    HW278203   7.143   1.469   0.403 -0.2134 -1.5523 -0.4595
24976SOL     OW78204  10.595   7.233   2.548  0.1080 -0.3072 -0.2723
24976SOL    HW178205  10.648   7.154   2.561 -0.4537 -0.4085  1.7299
24976SOL    HW278206  10.554   7.248   2.633 -0.8618  1.3825 -1.0020
24977SOL     OW78207   3.572   8.607  10.246 -0.2505  0.1454  0.3408
24977SOL    HW178208   3.516   8.657  10.186  1.7104  1.1316 -0.7453
24977SOL    HW278209   3.585   8.523  10.203  0.5750  0.5920 -0.2971
24978SOL     OW78210   3.074   8.062   0.783 -0.0407  0.0468  0.1713
24978SOL    HW178211   2.982   8.060   0.756  0.3156 -0.2895 -1.0942
24978SOL    HW278212   3.118   8.002   0.722  1.2481  1.2527 -0.1323
24979SOL     OW78213  11.179   8.118   8.936 -0.5166 -0.1965 -0.3204
24979SOL    HW178214  11.248   8.081   8.881 -1.3249 -1.1060 -0.7399
24979SOL    HW278215  11.133   8.043   8.972 -0.6338  0.3962  0.8261
24980SOL     OW78216   6.383   3.922   6.406 -0.3737  0.2811 -0.1070
24980SOL    HW178217   6.415   4.010   6.385  0.7185  0.0969  0.6812
24980SOL    HW278218   6.291   3.934   6.428 -0.3029  1.1853 -0.2709
24981SOL     OW78219   3.045   4.477   1.369  0.0155 -0.1939 -0.8663
24981SOL    HW178220   3.105   4.506   1.437 -0.3472  0.2222 -0.7163
24981SOL    HW278221   3.005   4.398   1.404  0.5823 -0.5624 -1.0323
24982SOL     OW78222   9.420   5.023   6.225 -0.4062 -0.8009 -0.1623
24982SOL    HW178223   9.492   4.964   6.205 -0.5413 -0.8768 -0.4209
24982SOL    HW278224   9.462   5.103   6.255 -0.2157 -0.8755 -0.2323
24983SOL     OW78225   3.287   8.117   1.860  0.3204 -0.0291 -0.6094
24983SOL    HW178226   3.347   8.113   1.934 -1.6538  0.7216  1.1479
24983SOL    HW278227   3.328   8.177   1.798  2.0553 -0.7279 -0.1845
24984SOL     OW78228   9.421   8.058   2.967 -0.2409 -0.1385  0.5481
24984SOL    HW178229   9.404   8.007   3.046 -1.1698 -0.8674 -0.1057
24984SOL    HW278230   9.395   8.000   2.895  0.8247  0.4136 -0.3155
24985SOL     OW78231   4.873   7.802   7.143 -0.5837  0.2895  0.1919
24985SOL    HW178232   4.783   7.773   7.160 -0.9211 -1.8423 -3.8552
24985SOL    HW278233   4.923   7.770   7.217 -2.6807 -1.5292  0.9560
24986SOL     OW78234  11.164   6.638  10.306 -0.4558  0.3696 -0.1284
24986SOL    HW178235  11.238   6.633  10.245  1.2220 -0.1288  1.8457
24986SOL    HW278236  11.174   6.723  10.349 -0.6107  0.0009  0.6486
24987SOL     OW78237   4.205   5.259   1.659  0.1549 -0.1975  0.2891
24987SOL    HW178238   4.161   5.288   1.580  2.7476  0.6306 -0.9648
24987SOL    HW278239   4.274   5.200   1.628  0.8330 -0.3631  1.9836
24988SOL     OW78240  10.831   0.012   1.567  0.1018 -0.3127  0.5614
24988SOL    HW178241  10.840   0.104   1.591 -0.8339  0.1158 -0.6411
24988SOL    HW278242  10.771  -0.024   1.633 -2.8597  0.9748 -1.1953
24989SOL     OW78243  10.910   2.226   9.547  0.1684  0.1359  0.2389
24989SOL    HW178244  10.971   2.252   9.617  0.3914 -1.8381  0.8607
24989SOL    HW278245  10.906   2.130   9.554 -1.9638  0.1039 -0.6875
24990SOL     OW78246   8.801   6.109   0.246  0.7860  0.0993  0.0341
24990SOL    HW178247   8.709   6.133   0.262  0.5608  2.2218 -3.3992
24990SOL    HW278248   8.798   6.016   0.223 -0.6051  0.2512 -0.5239
24991SOL     OW78249   7.645   8.481  10.773 -0.6949 -0.3693  0.1133
24991SOL    HW178250   7.559   8.441  10.786 -0.6631 -0.4683  0.0228
24991SOL    HW278251   7.627   8.563  10.727 -0.9220  0.5769  1.8200
24992SOL     OW78252   9.932   8.770   8.066  0.2944  0.0988  0.5083
24992SOL    HW178253   9.965   8.860   8.072 -0.8494  0.4423  2.2987
24992SOL    HW278254   9.920   8.755   7.972 -1.5128  2.5868  0.2459
24993SOL     OW78255   9.601   6.790  11.241  0.1750  0.3312 -0.0835
24993SOL    HW178256   9.522   6.791  11.187  0.7599 -0.6637 -0.9926
24993SOL    HW278257   9.667   6.835  11.189  0.8473 -0.9751 -0.4105
24994SOL     OW78258   3.556   5.944   1.702  0.0281 -0.5583 -0.8466
24994SOL    HW178259   3.652   5.938   1.704  0.0019 -2.2619  1.9177
24994SOL    HW278260   3.527   5.855   1.683 -0.9546 -0.5686  0.5460
24995SOL     OW78261  10.712   4.266   0.562  0.0999  0.3625 -0.3663
24995SOL    HW178262  10.649   4.306   0.502 -0.7280  0.0656  0.2795
24995SOL    HW278263  10.743   4.339   0.616 -0.5817  0.3302  0.0828
24996SOL     OW78264  10.532  10.607   0.101  0.2363 -0.3678 -0.4101
24996SOL    HW178265  10.536  10.700   0.080  1.1077 -0.3391 -0.1523
24996SOL    HW278266  10.462  10.600   0.167  1.3396  0.3713  0.8848
24997SOL     OW78267   1.275   1.255   0.997  0.2071  0.3674 -0.4340
24997SOL    HW178268   1.328   1.182   1.029  4.3923  2.3690 -2.0396
24997SOL    HW278269   1.265   1.312   1.072 -1.1591 -0.7066  0.2580
24998SOL     OW78270   0.737  11.338   0.682 -0.0012 -0.0414  0.0065
24998SOL    HW178271   0.761  11.348   0.774 -0.9347 -0.1440  0.2732
24998SOL    HW278272   0.685  11.258   0.679  0.5418 -0.3796 -0.7245
24999SOL     OW78273   6.259   5.470   5.238  0.1377 -0.0856  0.2054
24999SOL    HW178274   6.282   5.380   5.213  1.7068  0.6665 -1.2529
24999SOL    HW278275   6.189   5.494   5.176 -0.7253 -0.4733  0.9993
25000SOL     OW78276   4.193   1.758   7.393  0.0726  0.1113  0.3534
25000SOL    HW178277   4.213   1.823   7.460  1.0188 -1.1722  1.3765
25000SOL    HW278278   4.270   1.702   7.391 -0.4824 -0.6441 -0.9096
25001SOL     OW78279   3.223   7.328   8.066  0.0797  0.1048 -0.0029
25001SOL    HW178280   3.287   7.269   8.107  0.2721  1.7741  2.2771
25001SOL    HW278281   3.277   7.396   8.024 -0.1773 -0.5143 -1.4087
25002SOL     OW78282   6.086   3.991   9.744 -0.1731  0.5446 -0.1506
25002SOL    HW178283   6.085   4.009   9.838  1.8764 -0.8622  0.2096
25002SOL    HW278284   6.098   4.077   9.704 -0.0891  1.0617  0.9293
25003SOL     OW78285   9.674   2.767  11.056 -0.2635  0.1515  0.1462
25003SOL    HW178286   9.601   2.707  11.040 -0.2638  0.3581 -0.6881
25003SOL    HW278287   9.715   2.734  11.136 -1.9870  0.7509  1.3228
25004SOL     OW78288   3.298  10.149   3.955  0.0175 -0.8081  0.3000
25004SOL    HW178289   3.286  10.243   3.943  0.2645 -0.7395  0.5772
25004SOL    HW278290   3.324  10.116   3.869 -1.6507 -0.8842 -0.2076
25005SOL     OW78291   7.243   8.105   4.372  1.0149  0.0050  0.0974
25005SOL    HW178292   7.200   8.188   4.392  0.4731 -0.7647  2.3922
25005SOL    HW278293   7.180   8.058   4.317  0.3795  0.2565  0.5943
25006SOL     OW78294   2.807   6.954   0.510  0.2584  0.0500 -0.4199
25006SOL    HW178295   2.776   6.970   0.421 -0.4961  0.8166 -0.0437
25006SOL    HW278296   2.784   7.034   0.557  0.5694 -0.3806  0.4807
25007SOL     OW78297   7.012   4.142   6.624  0.0376 -0.4543 -0.4237
25007SOL    HW178298   7.101   4.134   6.592  0.0416  0.2563 -0.6123
25007SOL    HW278299   6.983   4.052   6.637  1.1720 -0.6762  0.7393
25008SOL     OW78300   0.974   2.002   8.945  0.4691  0.2366  0.6634
25008SOL    HW178301   1.069   2.001   8.933  0.4030  2.0811 -0.4039
25008SOL    HW278302   0.939   2.000   8.856 -0.4439  1.2656  0.9837
25009SOL     OW78303   4.899   1.760   0.440 -0.3556  0.3971  0.3441
25009SOL    HW178304   4.993   1.774   0.441 -0.1217 -1.0373  0.2848
25009SOL    HW278305   4.883   1.707   0.361 -1.4752  2.1910 -0.7210
25010SOL     OW78306  10.367   4.727   5.235  0.0080  0.3277  0.2156
25010SOL    HW178307  10.418   4.787   5.290  0.2498  0.8611 -0.5778
25010SOL    HW278308  10.416   4.722   5.153  1.2160 -2.7106  0.9963
25011SOL     OW78309   5.157   3.522   0.853  0.1722 -0.1573  0.0551
25011SOL    HW178310   5.119   3.545   0.937  1.5757  1.0397  0.4026
25011SOL    HW278311   5.160   3.605   0.804  3.0312  0.0095  0.3717
25012SOL     OW78312   8.089  10.357   5.424  0.1805 -0.4271 -0.0978
25012SOL    HW178313   8.078  10.325   5.514 -1.1767 -0.6483 -0.3192
25012SOL    HW278314   8.000  10.376   5.395  0.2292 -2.9854 -2.3342
25013SOL     OW78315   6.955   9.290   4.365 -0.3603 -0.0983  0.2147
25013SOL    HW178316   6.927   9.354   4.299 -1.4775 -1.2447 -0.4739
25013SOL    HW278317   6.881   9.284   4.426 -0.3012 -0.7590  0.2350
25014SOL     OW78318   5.028  11.275   1.224  0.4705 -0.0089  0.3891
25014SOL    HW178319   5.064  11.347   1.173 -0.2675  0.1216  0.0516
25014SOL    HW278320   5.088  11.267   1.298  0.5250  0.9879  0.4667
25015SOL     OW78321   1.148   3.357   9.636  0.1806  0.2516  0.1625
25015SOL    HW178322   1.199   3.279   9.614  1.5060  1.2589 -0.5757
25015SOL    HW278323   1.064   3.324   9.666  0.0529 -1.4167 -1.7939
25016SOL     OW78324   1.982   2.553   7.766 -0.1828 -0.4442 -0.8079
25016SOL    HW178325   2.003   2.643   7.740 -0.6344  0.4771  1.7313
25016SOL    HW278326   2.048   2.532   7.832 -1.8174 -0.8160  0.7940
25017SOL     OW78327   6.372   2.720   9.227 -0.2279 -0.4867 -0.2272
25017SOL    HW178328   6.417   2.743   9.147  1.7057  1.2599  1.2615
25017SOL    HW278329   6.426   2.652   9.267 -0.1399 -0.0421  0.4429
25018SOL     OW78330   3.893   8.000   5.167  0.2837  0.0874 -0.1994
25018SOL    HW178331   3.847   8.021   5.086 -0.2799 -1.6287 -0.3735
25018SOL    HW278332   3.850   7.921   5.199  1.6184 -0.2554  0.8526
25019SOL     OW78333   1.759   1.050   0.524  0.0010  0.8530 -0.0644
25019SOL    HW178334   1.813   1.102   0.583  1.1157 -0.0452 -0.2565
25019SOL    HW278335   1.802   1.058   0.439  0.1740 -0.3204 -0.1085
25020SOL     OW78336   9.187   2.290  10.843 -0.8724 -0.2032  0.8578
25020SOL    HW178337   9.206   2.320  10.754 -3.0190  1.2847  0.8149
25020SOL    HW278338   9.092   2.278  10.844 -0.9165 -0.0434  2.9852
25021SOL     OW78339   2.612   7.211   3.212  0.0408  0.1881 -0.0156
25021SOL    HW178340   2.562   7.149   3.158 -1.7880  0.2744  1.4611
25021SOL    HW278341   2.644   7.276   3.150  0.9005 -1.4911 -1.4350
25022SOL     OW78342   3.808   2.480   4.449  0.4303 -0.4546 -0.4485
25022SOL    HW178343   3.808   2.398   4.499  2.6341 -1.1393 -1.4427
25022SOL    HW278344   3.875   2.467   4.382  0.4818  1.9915 -0.9555
25023SOL     OW78345   2.401   5.086   9.002  0.4711 -0.2170  0.2611
25023SOL    HW178346   2.326   5.095   9.061 -0.7684 -0.2278 -1.2604
25023SOL    HW278347   2.477   5.095   9.059 -0.6704  1.0701  1.6597
25024SOL     OW78348   5.047   8.045   2.052  0.2188 -0.3252  0.5425
25024SOL    HW178349   5.046   7.950   2.065 -1.2758 -0.2912  0.8753
25024SOL    HW278350   4.955   8.071   2.059  0.6238  1.1758  0.6443
25025SOL     OW78351   5.880   3.123  10.656 -0.2198  0.5455  0.5284
25025SOL    HW178352   5.828   3.139  10.735 -0.0313  1.3319  0.4993
25025SOL    HW278353   5.952   3.186  10.661  0.7749 -0.5658  0.5933
25026SOL     OW78354   5.525   7.305   8.879  0.7138 -0.2134 -0.0528
25026SOL    HW178355   5.442   7.267   8.852 -1.4608  2.7812  1.6859
25026SOL    HW278356   5.539   7.377   8.817  0.2248  1.2914  1.5099
25027SOL     OW78357   7.371   2.295   5.747 -0.4181 -0.0546  0.4118
25027SOL    HW178358   7.388   2.389   5.751 -0.9115  0.0026  3.0820
25027SOL    HW278359   7.335   2.280   5.660  0.7845  2.0104 -0.4918
25028SOL     OW78360   9.650   9.965  10.188  0.3800 -0.4771  0.0999
25028SOL    HW178361   9.700  10.034  10.145  0.0306  0.4109  1.0792
25028SOL    HW278362   9.579   9.945  10.127 -0.6269  1.3802  0.5838
25029SOL     OW78363   6.863   3.434  10.118  0.1198 -0.1480 -0.4692
25029SOL    HW178364   6.792   3.443  10.181  0.4816 -0.4218 -0.0081
25029SOL    HW278365   6.854   3.345  10.085 -1.9475  0.9339 -3.1546
25030SOL     OW78366   8.555   9.362   4.083  0.4096  0.4961 -0.4703
25030SOL    HW178367   8.612   9.325   4.015 -0.8018  0.6078 -1.5821
25030SOL    HW278368   8.531   9.448   4.049 -1.0872  0.1149 -0.4238
25031SOL     OW78369   5.805   3.303   1.324 -0.4437  0.6368 -0.0422
25031SOL    HW178370   5.877   3.262   1.371  0.8294  2.5405 -0.2197
25031SOL    HW278371   5.843   3.330   1.240 -1.1568  2.2673  0.1225
25032SOL     OW78372   8.007   6.292   9.224 -0.0507  0.2109  0.0906
25032SOL    HW178373   8.040   6.377   9.194 -0.0754  0.4363  0.6790
25032SOL    HW278374   7.931   6.314   9.277  0.8806 -0.0405  1.5978
25033SOL     OW78375   8.586   6.908   1.743  0.1236  0.0143 -0.1024
25033SOL    HW178376   8.670   6.896   1.787 -0.3964 -1.5249  0.5529
25033SOL    HW278377   8.605   6.963   1.667  2.0519 -1.7446 -0.9724
25034SOL     OW78378   2.646   3.103   9.145 -0.0611  0.1847  0.5761
25034SOL    HW178379   2.600   3.019   9.152 -1.3067  0.8458  0.5624
25034SOL    HW278380   2.729   3.088   9.190  0.5959 -1.6312 -1.0821
25035SOL     OW78381   4.683   3.605   8.442 -0.3399 -0.5540  0.3357
25035SOL    HW178382   4.589   3.590   8.458 -0.0486 -0.4787  2.5495
25035SOL    HW278383   4.699   3.691   8.481 -0.0112  1.2337 -3.3237
25036SOL     OW78384   8.611   7.825   4.585 -0.2014  0.7426  0.0134
25036SOL    HW178385   8.591   7.744   4.631 -0.2737  0.6521 -0.1740
25036SOL    HW278386   8.704   7.817   4.561 -0.5633  0.0566 -1.2916
25037SOL     OW78387   3.308  10.213   2.388 -0.1889 -0.3270 -0.1139
25037SOL    HW178388   3.365  10.276   2.432 -0.4228 -0.1970  0.0110
25037SOL    HW278389   3.288  10.148   2.455 -0.4511 -0.1926 -0.0597
25038SOL     OW78390   0.627   6.900  10.308  0.1487 -0.3197  0.6493
25038SOL    HW178391   0.593   6.975  10.358 -0.3684 -1.8482  2.7663
25038SOL    HW278392   0.671   6.846  10.374 -0.5040 -2.4320 -0.5433
25039SOL     OW78393  10.845   4.682   8.300 -0.1164  0.2181  0.1709
25039SOL    HW178394  10.755   4.697   8.271 -0.5010 -2.1276 -0.0275
25039SOL    HW278395  10.836   4.631   8.380  1.0382  0.8155  0.7011
25040SOL     OW78396   3.665   0.582   9.357  0.2637 -0.4147 -0.4360
25040SOL    HW178397   3.640   0.547   9.443  0.7420  1.5918  0.5783
25040SOL    HW278398   3.598   0.647   9.337  1.3148  0.6797 -0.5361
25041SOL     OW78399   9.953   4.486   4.154  0.0015 -0.3295  0.1526
25041SOL    HW178400   9.886   4.452   4.214 -2.0815 -1.0200 -2.3532
25041SOL    HW278401   9.936   4.440   4.072  2.5093  0.7931 -1.1000
25042SOL     OW78402   0.267  10.770   5.761  0.0256  0.6510 -0.2201
25042SOL    HW178403   0.207  10.844   5.772  1.3278  1.5316  1.4863
25042SOL    HW278404   0.279  10.736   5.850  1.1991 -0.1933 -0.6848
25043SOL     OW78405   9.384   0.405   8.083  0.4747  0.2096 -0.1740
25043SOL    HW178406   9.364   0.316   8.112  0.9916 -0.3303 -1.3857
25043SOL    HW278407   9.423   0.448   8.160 -0.0460 -0.5109  0.5017
25044SOL     OW78408   1.359   5.907  10.307  0.7213 -0.3156 -0.2461
25044SOL    HW178409   1.352   5.813  10.324  0.8244 -0.0799  1.1917
25044SOL    HW278410   1.345   5.949  10.392  1.2759  0.9517 -0.7438
25045SOL     OW78411   8.621   6.635   3.529  0.0168  0.0940  0.0328
25045SOL    HW178412   8.567   6.557   3.516  0.6935 -0.3489 -0.2071
25045SOL    HW278413   8.709   6.601   3.546  0.6543  0.8067 -1.5916
25046SOL     OW78414   1.933   6.795   2.089 -0.2872  0.6303 -0.2526
25046SOL    HW178415   1.906   6.867   2.146 -1.4594 -0.6401  0.8826
25046SOL    HW278416   1.858   6.781   2.032 -0.4614 -0.2829  0.1762
25047SOL     OW78417   0.190   9.470  10.275  0.6949 -0.1610 -0.2820
25047SOL    HW178418   0.208   9.561  10.251 -0.6889 -0.3172 -2.1650
25047SOL    HW278419   0.095   9.460  10.262  1.2570 -2.8814 -4.4049
25048SOL     OW78420   8.796   9.090  10.198  0.2133  0.2398  0.1784
25048SOL    HW178421   8.855   9.023  10.164 -0.6007 -0.5308  0.2817
25048SOL    HW278422   8.853   9.166  10.213  1.0482 -0.2638 -0.3961
25049SOL     OW78423   9.472   0.320   4.749  0.3085  0.2790 -0.3422
25049SOL    HW178424   9.566   0.313   4.732  0.4454 -0.9524  0.7339
25049SOL    HW278425   9.431   0.269   4.679  0.4208  0.8766 -0.8541
25050SOL     OW78426   5.715  10.165   8.211 -0.4870  0.2392 -0.2504
25050SOL    HW178427   5.794  10.192   8.257  1.1796 -0.7030 -2.4107
25050SOL    HW278428   5.738  10.081   8.170 -1.9728  0.7939 -2.3996
25051SOL     OW78429   2.523   5.709  10.674 -0.2771  0.7414 -0.2995
25051SOL    HW178430   2.507   5.779  10.611  2.4711  3.9740  2.2264
25051SOL    HW278431   2.602   5.665  10.643 -1.0693 -0.2385 -1.0048
25052SOL     OW78432   0.934   5.555   5.530  0.1168 -0.1184 -0.0667
25052SOL    HW178433   0.909   5.523   5.444 -0.0296 -0.7948  0.2238
25052SOL    HW278434   0.999   5.624   5.512  0.9497 -1.0279 -0.6795
25053SOL     OW78435   5.606   6.374  11.318 -0.3852  0.4119  0.2323
25053SOL    HW178436   5.555   6.407  11.392 -0.2289  0.6359  0.2441
25053SOL    HW278437   5.695   6.363  11.354 -0.1218  1.2852 -0.1179
25054SOL     OW78438   7.703   1.775   2.864  0.0725  0.4123  0.1284
25054SOL    HW178439   7.721   1.701   2.921  0.1024 -0.4697 -0.9811
25054SOL    HW278440   7.789   1.814   2.848  0.6423 -1.4579 -2.0460
25055SOL     OW78441   0.601   7.652   9.658  0.6601 -0.0389 -0.4524
25055SOL    HW178442   0.628   7.563   9.637  0.0208  0.0174 -1.5390
25055SOL    HW278443   0.564   7.645   9.746  2.7112 -0.4038  0.4390
25056SOL     OW78444   3.470   6.032   3.803  0.2292  0.3411  0.5062
25056SOL    HW178445   3.503   5.967   3.741 -0.1019  0.3468  0.3191
25056SOL    HW278446   3.507   6.006   3.887 -0.0450 -0.1962  0.4657
25057SOL     OW78447   1.732   2.568   1.717  0.4970 -0.2072 -0.2881
25057SOL    HW178448   1.787   2.514   1.661  0.3934 -0.3389 -0.2635
25057SOL    HW278449   1.749   2.537   1.805  0.1997 -0.4159 -0.3025
25058SOL     OW78450   6.035   0.625   6.040 -0.3937  0.3101  0.1677
25058SOL    HW178451   6.007   0.686   5.972  0.1069 -1.1489 -1.4211
25058SOL    HW278452   5.954   0.602   6.087 -1.0521 -0.0071 -1.0935
25059SOL     OW78453   3.686   7.462   2.241 -0.2317 -0.0539 -0.1601
25059SOL    HW178454   3.758   7.497   2.188 -0.7245  1.1968 -0.0455
25059SOL    HW278455   3.689   7.368   2.226  2.2419 -0.2090  0.8676
25060SOL     OW78456   1.515   7.160   9.649  0.5939  0.1893  0.5546
25060SOL    HW178457   1.460   7.175   9.726 -1.1307 -0.9774 -0.3767
25060SOL    HW278458   1.534   7.248   9.616 -1.5017  0.6333  0.3993
25061SOL     OW78459   6.797   7.272   4.832 -0.2680  1.0194 -0.2198
25061SOL    HW178460   6.864   7.233   4.889 -0.1724  1.3191 -0.1255
25061SOL    HW278461   6.716   7.228   4.858  0.1754 -0.8243 -1.7040
25062SOL     OW78462   7.046   9.996   3.336  0.2020 -0.3955 -0.0558
25062SOL    HW178463   7.131  10.033   3.360  1.2893 -1.4286 -2.0468
25062SOL    HW278464   7.050   9.905   3.365  0.0467 -0.6298 -0.7495
25063SOL     OW78465   9.657   8.993   5.713 -0.4465 -0.1928  0.6453
25063SOL    HW178466   9.659   9.022   5.804  0.6117 -0.3239  0.6747
25063SOL    HW278467   9.595   8.920   5.713 -0.2792 -0.3412  1.3088
25064SOL     OW78468   7.100   3.023   0.362  0.2626  0.3564  0.7407
25064SOL    HW178469   7.085   2.955   0.428  1.2405 -2.4782 -1.7323
25064SOL    HW278470   7.189   3.008   0.331 -0.0156  1.8267 -0.9540
25065SOL     OW78471   1.018   4.684   9.908  0.3275  0.2086  0.4124
25065SOL    HW178472   0.942   4.675   9.967  1.9638 -1.4168  2.4549
25065SOL    HW278473   1.069   4.755   9.946  1.2455 -0.6459  0.8184
25066SOL     OW78474   3.066   2.041   1.764  0.1447 -0.2726 -0.4083
25066SOL    HW178475   3.132   2.038   1.833 -0.2855 -0.9733 -0.0144
25066SOL    HW278476   3.009   2.115   1.789  1.3155  0.9703 -1.2772
25067SOL     OW78477   0.991   6.308   3.101 -0.4278 -0.6277  0.1959
25067SOL    HW178478   1.040   6.289   3.021  0.9113  1.2785  0.4692
25067SOL    HW278479   1.048   6.277   3.172 -0.1529  0.4648  0.4761
25068SOL     OW78480   4.673   4.822   5.471 -0.0989  0.6199 -0.0254
25068SOL    HW178481   4.729   4.861   5.537  1.0204  0.3628 -0.7941
25068SOL    HW278482   4.621   4.757   5.519  0.7371  0.3960  0.6005
25069SOL     OW78483  11.298   7.101   8.615  0.9851  0.1878  0.3854
25069SOL    HW178484  11.377   7.115   8.562 -0.4895  0.0873 -1.9806
25069SOL    HW278485  11.254   7.027   8.573 -1.6216  1.8164  0.0139
25070SOL     OW78486   3.487   6.243   5.386 -0.9082 -0.0453  0.2550
25070SOL    HW178487   3.569   6.201   5.363 -0.5484  0.2516  0.9580
25070SOL    HW278488   3.437   6.175   5.432 -0.1878  0.3518  1.6995
25071SOL     OW78489  10.659   6.358   1.811 -0.5589  0.4296 -0.3567
25071SOL    HW178490  10.666   6.266   1.784  0.9333  1.1024 -2.5062
25071SOL    HW278491  10.573   6.364   1.852  0.2150 -2.4435  2.1186
25072SOL     OW78492   7.849   5.299   5.119  0.0712  0.0174 -0.0103
25072SOL    HW178493   7.771   5.272   5.168 -0.2525  2.6967  1.1785
25072SOL    HW278494   7.837   5.264   5.031 -2.5385  0.4247  0.1226
25073SOL     OW78495   4.422  10.372   1.316 -0.0086 -0.4330 -0.0760
25073SOL    HW178496   4.398  10.282   1.296  1.0178 -1.0684  1.3515
25073SOL    HW278497   4.340  10.414   1.343 -1.0086 -0.1482 -3.1637
25074SOL     OW78498   2.157   7.454   6.900 -0.0184  0.0692  0.2795
25074SOL    HW178499   2.137   7.420   6.987  1.5578 -0.9428  0.2871
25074SOL    HW278500   2.176   7.376   6.847  0.7053  0.7519 -0.5154
25075SOL     OW78501   6.233   4.003   6.149  0.1758 -0.0655  0.2671
25075SOL    HW178502   6.203   3.982   6.061 -0.6310 -0.3804  0.6147
25075SOL    HW278503   6.319   4.042   6.135 -1.4104  3.3328 -0.9704
25076SOL     OW78504   5.782   6.944   3.828  0.6276 -0.0402  0.0536
25076SOL    HW178505   5.755   6.929   3.737 -1.8944 -1.4997  0.9401
25076SOL    HW278506   5.797   7.038   3.833  3.0471 -0.1831 -2.3572
25077SOL     OW78507   1.170   4.000   5.087 -0.1459 -0.0685 -0.3877
25077SOL    HW178508   1.094   3.976   5.141  0.9293  0.8081  1.6253
25077SOL    HW278509   1.238   4.023   5.151  1.3569  0.5855 -2.1489
25078SOL     OW78510   7.536   5.378   2.968  0.1997  0.0043 -0.7354
25078SOL    HW178511   7.596   5.304   2.957 -0.9218 -0.9290 -0.6108
25078SOL    HW278512   7.449   5.340   2.969 -0.4807  1.4171 -1.6708
25079SOL     OW78513   3.713  10.873   4.773 -0.3560  0.3375  0.2744
25079SOL    HW178514   3.748  10.903   4.689 -0.1730  0.3079  0.3384
25079SOL    HW278515   3.791  10.854   4.826 -0.3949 -2.2439 -0.4672
25080SOL     OW78516  10.532   3.888   4.601  0.2726  0.5930  0.0536
25080SOL    HW178517  10.463   3.825   4.623  0.0883  0.8204  0.1330
25080SOL    HW278518  10.534   3.949   4.675  0.6953  0.4720  0.1449
25081SOL     OW78519   7.354   9.919   5.870 -0.2454 -0.2204 -0.5237
25081SOL    HW178520   7.435   9.933   5.821  0.5644  1.4861  1.1408
25081SOL    HW278521   7.299   9.994   5.848 -0.7240 -0.5430 -0.4302
25082SOL     OW78522   5.424   0.940  11.019 -0.5483 -0.2725 -0.1329
25082SOL    HW178523   5.421   0.891  10.937 -1.9605  0.6169 -0.6433
25082SOL    HW278524   5.455   1.027  10.995  1.0880 -0.6067  0.6341
25083SOL     OW78525   4.169   1.219   9.929 -0.4708  0.5346  0.1568
25083SOL    HW178526   4.182   1.215  10.023 -0.8898  1.8601  0.2864
25083SOL    HW278527   4.180   1.311   9.907 -0.7665  0.3016 -1.0361
25084SOL     OW78528   1.815   5.339   3.726 -0.0238  1.1119  0.6818
25084SOL    HW178529   1.747   5.280   3.691  0.6698  0.9163 -0.3927
25084SOL    HW278530   1.775   5.378   3.803 -0.7129 -0.3542  1.1152
25085SOL     OW78531   6.391   2.908   9.796  0.0433 -0.2036  0.0570
25085SOL    HW178532   6.358   2.897   9.707  0.6174  2.2147 -0.5247
25085SOL    HW278533   6.311   2.917   9.849 -0.2969 -1.5326 -0.1781
25086SOL     OW78534   5.515   7.479   7.350  0.7442  0.8535 -0.2625
25086SOL    HW178535   5.575   7.530   7.405  0.8381  0.9478 -0.4494
25086SOL    HW278536   5.515   7.525   7.266 -0.2379  1.3348 -0.0135
25087SOL     OW78537   3.600   0.830   3.261 -0.4188 -0.2749  0.2454
25087SOL    HW178538   3.536   0.901   3.255  1.4109  1.5245  0.6718
25087SOL    HW278539   3.644   0.831   3.176 -0.0269 -0.5536  0.4448
25088SOL     OW78540   3.756   2.892   7.850 -0.0736  0.6724  0.3309
25088SOL    HW178541   3.695   2.937   7.792 -1.1112  1.6672  2.1079
25088SOL    HW278542   3.716   2.807   7.867  1.2956 -0.5482 -2.0533
25089SOL     OW78543  10.297   1.350  10.583  0.6336 -0.0913  0.4372
25089SOL    HW178544  10.213   1.397  10.579  0.4081 -0.5959 -2.3379
25089SOL    HW278545  10.274   1.262  10.613  0.0094 -0.4878 -1.1388
25090SOL     OW78546   8.403   4.251  11.316  0.1399  0.2287  0.4682
25090SOL    HW178547   8.357   4.317  11.368  2.2865 -0.0602  2.9428
25090SOL    HW278548   8.445   4.299  11.245  0.9290  1.4320  1.7119
25091SOL     OW78549   8.671   9.110   3.471  0.5072  0.7536  0.3227
25091SOL    HW178550   8.587   9.073   3.443  0.8436 -0.5937  1.0125
25091SOL    HW278551   8.660   9.204   3.461 -0.8318  0.5599 -0.3022
25092SOL     OW78552   2.837   2.502   2.821  0.8015  0.2590  0.0341
25092SOL    HW178553   2.824   2.474   2.912  1.2275 -0.0695 -0.0032
25092SOL    HW278554   2.752   2.538   2.795  0.3768 -0.5809  0.2302
25093SOL     OW78555   9.007   5.631   4.303 -0.0426 -0.2964  0.1486
25093SOL    HW178556   8.952   5.611   4.227  2.0261  0.4053 -1.6562
25093SOL    HW278557   9.082   5.572   4.294  0.9661  0.8374  0.7660
25094SOL     OW78558   4.046   4.925   1.216 -0.5419  0.0243 -0.1926
25094SOL    HW178559   4.018   4.921   1.124 -1.6878  2.0213  0.0240
25094SOL    HW278560   3.977   4.975   1.260  1.7312  2.2287  1.0545
25095SOL     OW78561   0.853   6.332  10.411 -0.0960  0.3160  0.3015
25095SOL    HW178562   0.847   6.258  10.350  0.7883 -1.9431  2.7854
25095SOL    HW278563   0.769   6.334  10.456  0.4767 -0.3650  1.4547
25096SOL     OW78564   3.779  10.439   0.480 -0.2523  0.1291  0.0077
25096SOL    HW178565   3.796  10.528   0.509 -1.1447  0.2572  0.1819
25096SOL    HW278566   3.865  10.401   0.463  0.1729  0.7453  0.7592
25097SOL     OW78567   4.531   7.346   8.785 -0.3429 -0.2027 -0.0403
25097SOL    HW178568   4.446   7.338   8.829 -0.3279 -0.2740 -0.0253
25097SOL    HW278569   4.581   7.404   8.841 -0.3420 -0.2515  0.0086
25098SOL     OW78570   8.981   7.241   4.789  0.3551 -0.4346 -0.3170
25098SOL    HW178571   8.947   7.186   4.719 -2.0479  0.2796  0.1899
25098SOL    HW278572   8.931   7.215   4.866  1.8538 -0.1294  0.8019
25099SOL     OW78573   9.348   4.579   3.324 -0.0558 -0.1436 -0.0904
25099SOL    HW178574   9.420   4.618   3.274 -1.2259  2.1269 -0.1191
25099SOL    HW278575   9.384   4.569   3.412  0.4271  0.5920 -0.1930
25100SOL     OW78576   6.611   5.788   4.237 -0.1656  0.8494  0.0671
25100SOL    HW178577   6.539   5.775   4.299  0.4278  0.2441  0.6499
25100SOL    HW278578   6.638   5.699   4.213 -0.8620  1.0612 -1.6522
25101SOL     OW78579   5.721  10.674  10.329  0.1272  0.3146  1.2078
25101SOL    HW178580   5.659  10.701  10.396  1.0054  1.9300  1.4467
25101SOL    HW278581   5.740  10.755  10.281  1.4251 -0.2953  0.6419
25102SOL     OW78582   6.401   3.851   0.286 -0.6018 -0.3631 -0.3006
25102SOL    HW178583   6.404   3.898   0.203  2.2698 -0.4572 -0.3522
25102SOL    HW278584   6.326   3.792   0.278 -0.4386 -0.3383 -2.7943
25103SOL     OW78585  10.605   7.835   9.009  0.5786  0.3276 -0.5966
25103SOL    HW178586  10.642   7.751   9.035  1.8357  0.5732 -1.4879
25103SOL    HW278587  10.571   7.819   8.921  0.0283  0.5326 -0.4222
25104SOL     OW78588   3.461   7.954   6.009 -0.1210 -0.3515 -0.4554
25104SOL    HW178589   3.414   7.908   6.079  0.3051  1.1195  0.8605
25104SOL    HW278590   3.538   7.898   5.993 -0.7478 -1.2307 -0.4932
25105SOL     OW78591   8.273   9.062  10.627  0.4137  0.5150  0.2779
25105SOL    HW178592   8.269   9.152  10.595  2.6143  0.1178 -1.4039
25105SOL    HW278593   8.320   9.069  10.711  0.6106  0.9486  0.1371
25106SOL     OW78594   4.543   7.553  11.279  0.1868  0.5984 -0.1352
25106SOL    HW178595   4.487   7.495  11.227  0.1943  0.6684 -0.2215
25106SOL    HW278596   4.582   7.612  11.215 -0.4689  1.2452  0.0480
25107SOL     OW78597  10.335   2.355  10.172  0.5738  0.0320  0.1335
25107SOL    HW178598  10.388   2.422  10.128  0.0799  0.3940  0.0801
25107SOL    HW278599  10.266   2.404  10.216 -0.9857 -0.5408 -1.5358
25108SOL     OW78600   8.899   4.550   8.002  0.2431  0.0999  0.4299
25108SOL    HW178601   8.933   4.522   7.916  0.5699 -0.3865  0.7092
25108SOL    HW278602   8.907   4.472   8.057 -0.6004  0.2143  0.7231
25109SOL     OW78603  11.091   8.951   5.821  0.3555 -0.1706 -0.0631
25109SOL    HW178604  11.073   9.011   5.749  0.6875 -0.5172 -0.4320
25109SOL    HW278605  11.032   8.980   5.891 -1.8497 -1.3907 -1.2964
25110SOL     OW78606   5.387   2.390  11.155 -0.2506 -0.0288 -0.3463
25110SOL    HW178607   5.381   2.402  11.060  2.2276 -1.5223 -0.7963
25110SOL    HW278608   5.374   2.296  11.168  0.4440 -0.0029  0.6488
25111SOL     OW78609  11.110   4.914  10.027  0.0918 -0.3972  0.0854
25111SOL    HW178610  11.059   4.839   9.996  1.6332 -1.1259 -0.8297
25111SOL    HW278611  11.147   4.885  10.111  0.6847 -0.6702 -0.2668
25112SOL     OW78612   4.249   9.639  11.178 -0.4549  0.2305  0.5500
25112SOL    HW178613   4.280   9.697  11.248 -0.0268 -0.8424  1.2672
25112SOL    HW278614   4.159   9.617  11.202 -0.4230  0.1333  0.5789
25113SOL     OW78615   4.635   8.564   0.406  0.0751 -0.1635  0.2751
25113SOL    HW178616   4.593   8.585   0.489  0.2448 -0.5985  0.4762
25113SOL    HW278617   4.677   8.645   0.379 -0.4128  0.1200  0.3551
25114SOL     OW78618   7.105  10.400   7.690  0.0602  0.0573  0.6680
25114SOL    HW178619   7.052  10.322   7.705  0.2721 -0.2600 -0.1717
25114SOL    HW278620   7.155  10.411   7.771 -0.7402 -0.0576  1.1902
25115SOL     OW78621   5.931   9.431  11.327  0.5277 -0.2250  0.0740
25115SOL    HW178622   5.962   9.447  11.238  0.1892  1.2920  0.2133
25115SOL    HW278623   5.853   9.486  11.336  1.5286  1.0100  1.8719
25116SOL     OW78624   0.848   6.078  10.287  0.4825 -0.1038 -0.4025
25116SOL    HW178625   0.768   6.031  10.263  0.9909 -1.4603  0.4262
25116SOL    HW278626   0.914   6.047  10.225  0.8283 -0.5478  0.1661
25117SOL     OW78627   4.972   4.809   4.539 -0.6405 -0.1545  0.2902
25117SOL    HW178628   5.042   4.745   4.525 -1.2924 -0.4875 -1.7560
25117SOL    HW278629   5.016   4.894   4.539  0.1111 -0.4925  2.1037
25118SOL     OW78630   2.017   5.445   6.766 -0.0811 -0.6137 -0.0191
25118SOL    HW178631   2.025   5.414   6.676  1.9908 -1.9681  0.5605
25118SOL    HW278632   1.933   5.411   6.797 -0.4184 -0.8447 -1.1564
25119SOL     OW78633  11.133   8.634   9.312  0.1415 -0.3735  0.1159
25119SOL    HW178634  11.131   8.595   9.225 -1.2158  2.5539 -1.3296
25119SOL    HW278635  11.223   8.667   9.322  0.3996 -1.0336 -0.0183
25120SOL     OW78636   2.088   2.813   5.117  0.1139  0.0960  0.6197
25120SOL    HW178637   2.041   2.772   5.045  1.0793  0.0274  0.0157
25120SOL    HW278638   2.180   2.809   5.092  0.3697  1.1592  1.3047
25121SOL     OW78639   6.421   1.129   4.089 -0.4750  0.1705 -0.2651
25121SOL    HW178640   6.332   1.112   4.121 -0.0295  0.0247  0.9314
25121SOL    HW278641   6.408   1.169   4.003 -1.7252  0.7993  0.1965
25122SOL     OW78642   1.818   6.820   7.122  0.1255 -0.2587 -0.4570
25122SOL    HW178643   1.774   6.896   7.159  1.4095  0.8461 -1.0875
25122SOL    HW278644   1.749   6.756   7.108 -0.9615  0.7228  0.2521
25123SOL     OW78645   4.685   7.784   9.252  0.2468 -0.1817 -0.2717
25123SOL    HW178646   4.649   7.815   9.335 -0.0540 -4.0622  1.2426
25123SOL    HW278647   4.765   7.835   9.240 -1.6904  3.2682  0.2233
25124SOL     OW78648   5.016  10.598   6.702 -0.5775 -0.6689  0.1511
25124SOL    HW178649   4.920  10.604   6.704 -0.5028  1.1043  1.0493
25124SOL    HW278650   5.045  10.686   6.727  1.2884 -1.3139  0.3645
25125SOL     OW78651  11.074   8.125   4.138 -0.4852 -0.4915  0.3054
25125SOL    HW178652  11.096   8.051   4.083 -2.4279  0.1736 -1.5010
25125SOL    HW278653  11.053   8.087   4.223  1.0164 -1.7087  0.1664
25126SOL     OW78654   3.342   9.239   8.047  0.5615 -0.3350  0.6827
25126SOL    HW178655   3.365   9.327   8.015 -1.1111 -0.0813  0.0543
25126SOL    HW278656   3.389   9.179   7.988  2.3850  0.0969  1.6305
25127SOL     OW78657   4.513   8.215   6.768  0.1634 -0.1226  0.7233
25127SOL    HW178658   4.600   8.226   6.732  0.3019 -2.2638  0.2675
25127SOL    HW278659   4.528   8.203   6.862  0.3085  0.0482  0.7224
25128SOL     OW78660   0.051   6.152   0.781  0.0185 -0.0944  0.1961
25128SOL    HW178661   0.049   6.244   0.755  0.0192 -0.3278 -0.6639
25128SOL    HW278662  -0.005   6.148   0.858 -0.3351  0.5554 -0.0147
25129SOL     OW78663   2.359  10.085   0.104 -0.4431  0.4641 -0.2180
25129SOL    HW178664   2.271  10.121   0.116 -0.4970  0.0410  0.7184
25129SOL    HW278665   2.345   9.991   0.095 -0.1900  0.5223 -1.4200
25130SOL     OW78666   6.729   3.176   4.000  0.8345  0.2812  0.0841
25130SOL    HW178667   6.759   3.186   3.909  2.0329 -0.3627  0.3887
25130SOL    HW278668   6.809   3.175   4.052  0.2074 -0.1618  1.0713
25131SOL     OW78669   6.262   0.585   1.162  0.1706 -0.7182 -0.4147
25131SOL    HW178670   6.269   0.677   1.189  1.4647 -0.6679 -0.8748
25131SOL    HW278671   6.226   0.590   1.073 -0.5117 -0.7039 -0.1431
25132SOL     OW78672  10.453   8.888   7.771  0.4215 -0.0228 -0.0571
25132SOL    HW178673  10.536   8.841   7.773  1.3797  1.3874 -2.5032
25132SOL    HW278674  10.402   8.844   7.703 -0.0082  0.4056 -0.0128
25133SOL     OW78675   7.999   5.422   4.784 -0.0050 -0.3878  0.5161
25133SOL    HW178676   8.094   5.432   4.793 -0.1989  0.3060  2.0268
25133SOL    HW278677   7.970   5.508   4.753  0.0415 -1.1909 -1.9797
25134SOL     OW78678  10.494  10.726   6.713  0.3258 -0.5424 -0.0280
25134SOL    HW178679  10.466  10.726   6.622 -2.0364 -1.9341  0.6346
25134SOL    HW278680  10.481  10.637   6.743  2.1013 -0.3826  1.4290
25135SOL     OW78681  10.419   8.389   2.527 -0.8248  0.2457  0.2093
25135SOL    HW178682  10.491   8.349   2.575 -0.1521  0.4344 -0.6364
25135SOL    HW278683  10.344   8.331   2.544 -0.8535  0.7744  2.2038
25136SOL     OW78684   3.139  10.708   6.790  0.0721  0.0429  0.3146
25136SOL    HW178685   3.071  10.775   6.793  0.8754  0.9553 -1.0370
25136SOL    HW278686   3.110  10.648   6.721  0.5350  0.3057 -0.1057
25137SOL     OW78687   3.855   5.232   0.800 -0.1797  0.6041 -0.6129
25137SOL    HW178688   3.889   5.321   0.799 -0.8545  0.8757 -2.5614
25137SOL    HW278689   3.882   5.195   0.716 -0.5403 -0.7917 -0.1385
25138SOL     OW78690   3.610  10.385   7.802  0.0162  0.8591 -0.2306
25138SOL    HW178691   3.517  10.394   7.824  0.0550  0.8524 -0.0649
25138SOL    HW278692   3.639  10.475   7.786 -0.1982  0.7992 -1.0232
25139SOL     OW78693   6.924   5.498   4.621  0.2262 -0.3380  0.3648
25139SOL    HW178694   7.017   5.473   4.626 -0.2010 -1.7899  2.1794
25139SOL    HW278695   6.901   5.520   4.712 -1.1926  0.0521 -0.0692
25140SOL     OW78696   5.526   4.539   6.670 -0.0807  0.5561  0.4939
25140SOL    HW178697   5.532   4.522   6.764  0.8334  0.9546  0.5197
25140SOL    HW278698   5.604   4.498   6.633  1.3179  3.0964  0.3507
25141SOL     OW78699   4.068   3.755  10.614 -0.0969  0.2531  0.5643
25141SOL    HW178700   4.003   3.685  10.608 -0.3551  0.5887 -1.2205
25141SOL    HW278701   4.057   3.791  10.702 -0.0278 -1.8565  1.4833
25142SOL     OW78702   8.881   3.422   6.936 -0.1163  0.5714 -0.0883
25142SOL    HW178703   8.922   3.508   6.929 -2.3266  1.8113  0.8967
25142SOL    HW278704   8.857   3.398   6.847  2.6948 -0.2656 -0.7099
25143SOL     OW78705   0.349   9.213   0.917  0.0306 -0.4320 -0.4179
25143SOL    HW178706   0.325   9.216   1.010 -1.2524  0.5786 -0.7458
25143SOL    HW278707   0.278   9.164   0.875 -0.5040  0.9134 -1.1459
25144SOL     OW78708  11.013   6.836   5.804 -1.1677 -0.5279 -0.5426
25144SOL    HW178709  10.982   6.848   5.894  0.5781  0.4162 -0.0309
25144SOL    HW278710  11.077   6.906   5.791  0.9071 -2.4986 -1.4474
25145SOL     OW78711   3.376   8.022   9.215  0.4840 -0.0379 -0.4500
25145SOL    HW178712   3.301   8.074   9.245 -0.2456 -1.5673  0.5249
25145SOL    HW278713   3.433   8.016   9.292 -0.1601 -1.8492 -0.0616
25146SOL     OW78714   6.721  10.055   1.051  0.4300  0.4944 -0.3199
25146SOL    HW178715   6.724  10.119   0.979 -1.3466  1.0495  0.0593
25146SOL    HW278716   6.714  10.108   1.130 -1.5814 -0.1267 -0.0272
25147SOL     OW78717   8.529   8.980   6.170  0.3577  0.1491  0.2133
25147SOL    HW178718   8.491   8.920   6.106  0.2455  0.9183 -0.4540
25147SOL    HW278719   8.502   9.067   6.141  1.0580  0.5751  0.7952
25148SOL     OW78720   6.682   2.546   6.695  0.4413 -0.3855 -0.2509
25148SOL    HW178721   6.767   2.590   6.699  0.8961 -1.2907  0.3480
25148SOL    HW278722   6.619   2.615   6.716  1.0117  0.3305 -0.8439
25149SOL     OW78723   4.691   0.331   4.145  0.6351  0.4329 -0.2080
25149SOL    HW178724   4.635   0.254   4.151 -0.7496  1.4671  0.6576
25149SOL    HW278725   4.647   0.388   4.082 -0.0092  1.7916  1.3902
25150SOL     OW78726   8.253   1.915   4.714  0.2971 -0.1984  0.1898
25150SOL    HW178727   8.287   1.961   4.637  1.6228  1.0743  1.4803
25150SOL    HW278728   8.250   1.823   4.687  1.4195  0.1188 -1.1542
25151SOL     OW78729   1.394   1.271   8.274 -0.0225 -0.3354  0.0424
25151SOL    HW178730   1.364   1.305   8.190  2.5116 -1.5472 -1.4886
25151SOL    HW278731   1.367   1.179   8.274 -1.7323  0.1109  1.5158
25152SOL     OW78732   6.525  10.525   3.612 -0.0382  0.2914  0.0917
25152SOL    HW178733   6.522  10.448   3.668 -0.0648 -0.0056 -0.3110
25152SOL    HW278734   6.570  10.495   3.533  0.9367  0.9697  0.3709
25153SOL     OW78735   4.600   6.832   3.601  0.0711 -0.2772 -0.2051
25153SOL    HW178736   4.513   6.810   3.567 -0.2118 -0.9646  0.9044
25153SOL    HW278737   4.634   6.749   3.634  1.0031  0.0610 -0.2785
25154SOL     OW78738   5.071   6.220   3.966 -0.2628  0.4201 -0.6339
25154SOL    HW178739   5.039   6.309   3.973  0.1307  0.4915  0.3510
25154SOL    HW278740   5.058   6.197   3.874 -3.5069  0.3015 -0.2477
25155SOL     OW78741   1.048  10.899   3.326  0.3805 -0.3937  0.0312
25155SOL    HW178742   0.978  10.924   3.387  1.1422  1.0087  0.3813
25155SOL    HW278743   1.074  10.811   3.354 -1.3536 -1.0239 -0.2300
25156SOL     OW78744   1.883   7.906   0.251  0.5324  0.1916 -0.1031
25156SOL    HW178745   1.951   7.943   0.308  0.0754  0.2393  0.4184
25156SOL    HW278746   1.814   7.877   0.310  0.7858 -1.3284 -0.5271
25157SOL     OW78747   3.696   6.855   3.736  0.0872  0.3402  0.5216
25157SOL    HW178748   3.677   6.948   3.749  3.7318  1.2107  0.5346
25157SOL    HW278749   3.620   6.821   3.689 -1.9530  2.9685  1.6703
25158SOL     OW78750   9.169   8.262   6.492  0.2405  0.2217  0.6831
25158SOL    HW178751   9.150   8.321   6.565 -0.8586 -0.7623  1.2099
25158SOL    HW278752   9.245   8.302   6.449  0.1313  1.4871  1.6058
25159SOL     OW78753   8.143   4.220   8.337  0.7751  0.0376 -0.8738
25159SOL    HW178754   8.143   4.168   8.257 -0.2740  0.8426 -1.4120
25159SOL    HW278755   8.089   4.170   8.398  0.6133 -0.0022 -1.0502
25160SOL     OW78756   9.087   4.045   9.766  0.1737 -0.2861  0.1313
25160SOL    HW178757   9.123   4.096   9.694 -0.3060 -0.2371 -0.0801
25160SOL    HW278758   9.052   4.111   9.826  0.9941 -0.3071  0.6412
25161SOL     OW78759   6.907  10.052   4.376  0.6932 -0.2582 -0.4648
25161SOL    HW178760   6.925  10.050   4.282  1.1743  0.3954 -0.3985
25161SOL    HW278761   6.854  10.131   4.388 -1.8717 -1.8498 -0.5742
25162SOL     OW78762   9.963   3.588  10.781  0.2251 -0.2565  0.0079
25162SOL    HW178763   9.878   3.551  10.756  0.3818 -0.4290 -0.2846
25162SOL    HW278764   9.986   3.646  10.709 -0.1083  0.5714  0.5644
25163SOL     OW78765   3.152  10.735   2.205 -0.3214  0.4397 -0.2636
25163SOL    HW178766   3.088  10.805   2.190  1.2041  1.9489 -0.0563
25163SOL    HW278767   3.233  10.768   2.166  0.1274 -1.8494 -1.4187
25164SOL     OW78768   5.314   7.171   8.744  0.2840 -0.3940 -0.1942
25164SOL    HW178769   5.288   7.092   8.697 -0.5430 -1.1435  1.4237
25164SOL    HW278770   5.239   7.191   8.800  0.6923  1.2508 -0.1931
25165SOL     OW78771  10.317   1.496   4.113 -0.2536  0.3722  0.2581
25165SOL    HW178772  10.243   1.446   4.078  0.1121 -0.9471  1.2677
25165SOL    HW278773  10.329   1.462   4.201  2.5360 -0.6216 -0.3945
25166SOL     OW78774   7.040   5.849   2.034 -0.2258 -0.0160  0.1202
25166SOL    HW178775   7.057   5.755   2.026  0.6456  0.1950 -0.7093
25166SOL    HW278776   7.068   5.872   2.123  0.5320 -0.3527 -0.0286
25167SOL     OW78777   1.151  10.938   4.030 -0.4932  0.1157 -0.2462
25167SOL    HW178778   1.220  11.002   4.015  0.1246 -1.0836 -3.1961
25167SOL    HW278779   1.083  10.959   3.967 -1.0814 -1.0360 -0.0339
25168SOL     OW78780   0.427   8.027  11.371 -0.3317  0.0121  0.1014
25168SOL    HW178781   0.422   8.117  11.337 -0.1343 -0.1191 -0.2829
25168SOL    HW278782   0.338   7.994  11.361  0.1270 -0.7244 -2.2721
25169SOL     OW78783   9.096   3.431   8.197  0.0022 -0.1425  0.0426
25169SOL    HW178784   9.004   3.438   8.172  0.3551  1.0513 -1.0488
25169SOL    HW278785   9.115   3.337   8.195 -1.4534 -0.5022  1.3579
25170SOL     OW78786   5.209   7.121   4.546  0.2218 -0.1725 -0.1140
25170SOL    HW178787   5.289   7.158   4.509 -0.1592 -1.2790 -2.2195
25170SOL    HW278788   5.229   7.103   4.637  1.7694  1.2245 -0.1438
25171SOL     OW78789  10.528   0.808   3.372 -0.1958 -0.1772 -0.4324
25171SOL    HW178790  10.494   0.742   3.432 -1.9883  0.7235 -0.4014
25171SOL    HW278791  10.606   0.843   3.416 -1.0128 -0.0875  1.0070
25172SOL     OW78792   6.206   4.534   1.197  0.0264 -0.5427  0.2892
25172SOL    HW178793   6.199   4.624   1.229 -0.2658 -1.0151  1.6280
25172SOL    HW278794   6.176   4.480   1.270  1.8927 -1.8250  0.1893
25173SOL     OW78795   2.723   5.451   8.399  0.4095  0.2323 -0.3689
25173SOL    HW178796   2.672   5.378   8.363  0.1154  0.1401  0.2250
25173SOL    HW278797   2.687   5.529   8.356 -2.5439  0.5752  2.3640
25174SOL     OW78798   0.027   4.078   9.254  0.0783 -0.0585 -0.4539
25174SOL    HW178799  -0.017   4.013   9.198  0.4451 -0.2505 -0.5206
25174SOL    HW278800   0.068   4.026   9.323 -0.8812  0.2216  0.3561
25175SOL     OW78801   9.448   7.965   6.393  0.0066 -0.3036 -0.3598
25175SOL    HW178802   9.384   7.929   6.455 -1.1425 -1.5040 -2.1296
25175SOL    HW278803   9.533   7.948   6.434 -0.7050 -0.9455  0.9342
25176SOL     OW78804   8.844   1.518   9.069  0.0554  0.1347  0.1119
25176SOL    HW178805   8.801   1.457   9.130  1.4636  0.1411  1.1543
25176SOL    HW278806   8.905   1.465   9.020 -0.2136  0.3476 -0.4593
25177SOL     OW78807  10.366   3.000   4.581 -0.4844  0.2216  0.1349
25177SOL    HW178808  10.439   2.946   4.551 -1.2283 -0.1976 -0.9847
25177SOL    HW278809  10.310   2.939   4.629 -0.9509  0.1444 -0.4924
25178SOL     OW78810   7.236   6.399  10.165 -0.0753 -0.2650  0.3317
25178SOL    HW178811   7.231   6.318  10.115  1.8572 -0.7631  0.8378
25178SOL    HW278812   7.287   6.458  10.109 -2.0047  0.8670 -0.3113
25179SOL     OW78813   0.261   2.562   4.916 -0.0251  0.4291  0.5237
25179SOL    HW178814   0.243   2.504   4.990 -1.0474 -0.6594 -0.5369
25179SOL    HW278815   0.329   2.517   4.866 -2.2175 -0.9821 -1.4024
25180SOL     OW78816   8.740   6.471   5.138 -0.3110 -0.5432  0.3843
25180SOL    HW178817   8.707   6.469   5.048 -0.8982  1.1824  0.5144
25180SOL    HW278818   8.706   6.391   5.178  0.6161 -1.7511 -1.1157
25181SOL     OW78819   4.924   5.548   8.652 -0.3704 -0.6899 -0.5499
25181SOL    HW178820   4.932   5.640   8.678  1.7549 -1.0971  0.5546
25181SOL    HW278821   4.908   5.550   8.558  2.3166  0.8469 -1.0781
25182SOL     OW78822   7.842   3.344   8.221  0.4965  0.2916 -0.3316
25182SOL    HW178823   7.879   3.311   8.303 -1.9996 -0.3067  0.6336
25182SOL    HW278824   7.890   3.297   8.152  0.8156 -1.1992  0.8617
25183SOL     OW78825   7.152   1.885   3.553  0.0774 -0.3827  0.5611
25183SOL    HW178826   7.149   1.791   3.575  0.8535 -0.2763  1.1903
25183SOL    HW278827   7.153   1.887   3.458 -0.3257 -1.0018  0.5359
25184SOL     OW78828   2.040   9.456   1.201 -0.4261 -0.0787 -0.0886
25184SOL    HW178829   2.083   9.541   1.191  1.0017 -0.4192  2.4709
25184SOL    HW278830   2.092   9.396   1.147  0.9714 -0.0346  1.1578
25185SOL     OW78831   8.500   6.774   3.007 -0.2144  0.1034 -0.1072
25185SOL    HW178832   8.554   6.842   3.048  0.2053  0.9924 -2.0406
25185SOL    HW278833   8.525   6.693   3.053 -0.3564  1.1346  1.8893
25186SOL     OW78834   2.418   1.062   3.283 -0.3123  0.3372 -0.4775
25186SOL    HW178835   2.329   1.096   3.277  0.3390  2.3836  0.5609
25186SOL    HW278836   2.462   1.097   3.205 -0.3795 -0.7075 -1.0138
25187SOL     OW78837  10.660  11.074   9.784  0.2580 -0.0068 -0.6551
25187SOL    HW178838  10.677  11.036   9.698  0.6959  0.2914 -0.7062
25187SOL    HW278839  10.674  11.002   9.845  0.0463 -0.1948 -0.8250
25188SOL     OW78840   4.735   8.776   0.676 -0.1747 -0.7216 -0.3356
25188SOL    HW178841   4.801   8.814   0.617 -0.9681  0.5859 -0.4251
25188SOL    HW278842   4.768   8.688   0.695  2.3068  0.3382  0.7315
25189SOL     OW78843   6.118   7.296  10.697 -0.0117 -0.1840 -0.2918
25189SOL    HW178844   6.202   7.323  10.736 -0.2595 -1.6179  1.3857
25189SOL    HW278845   6.100   7.362  10.631  2.2989  0.3387 -0.5043
25190SOL     OW78846   5.741  11.343   3.786  0.0208  0.1347  0.2019
25190SOL    HW178847   5.756  11.422   3.838 -1.2380  0.5699 -0.0526
25190SOL    HW278848   5.704  11.375   3.704 -0.6617 -0.7217  0.1610
25191SOL     OW78849   7.160   0.483   8.947  0.2558  0.1939  0.6989
25191SOL    HW178850   7.137   0.519   8.861 -0.0462  1.8046  1.4173
25191SOL    HW278851   7.256   0.479   8.946  0.2316 -2.3801 -0.6646
25192SOL     OW78852  11.338   4.915   7.180  0.0477 -0.5619  0.1294
25192SOL    HW178853  11.271   4.967   7.135 -1.4732 -0.1862  2.6245
25192SOL    HW278854  11.421   4.947   7.145 -0.9416 -1.6253 -3.7119
25193SOL     OW78855   3.331  10.835   6.373  0.0077  0.4110 -0.0069
25193SOL    HW178856   3.252  10.854   6.323 -1.0262 -1.7601  0.6538
25193SOL    HW278857   3.399  10.890   6.333 -1.2217  0.3497 -2.3901
25194SOL     OW78858  10.967   3.689   0.128  0.2056 -0.1217 -0.1243
25194SOL    HW178859  10.896   3.731   0.080 -0.0221 -0.0323  0.2806
25194SOL    HW278860  10.938   3.599   0.141  0.7798 -0.4718 -1.1600
25195SOL     OW78861   5.676   4.400  10.907 -0.2431  0.0794  0.4666
25195SOL    HW178862   5.597   4.358  10.871  0.3467  0.1790 -1.0163
25195SOL    HW278863   5.718   4.441  10.831  0.9827  0.4483  1.3139
25196SOL     OW78864   4.856   3.124   0.908 -0.1012 -0.6917  0.4902
25196SOL    HW178865   4.780   3.124   0.850  0.4715  0.8011 -0.3289
25196SOL    HW278866   4.897   3.039   0.896 -0.0806 -0.4704 -1.2239
25197SOL     OW78867   7.143   5.813   3.584  0.0104  0.0667 -0.4002
25197SOL    HW178868   7.140   5.852   3.671  2.9247 -0.5883  0.1047
25197SOL    HW278869   7.063   5.761   3.579 -0.7399  0.9349  1.4611
25198SOL     OW78870   7.892   7.019   6.209  0.2105 -0.1439  0.5347
25198SOL    HW178871   7.840   7.059   6.277 -0.5458  0.2290 -0.2449
25198SOL    HW278872   7.857   7.054   6.127  2.3211  0.9067 -0.0046
25199SOL     OW78873   8.581   8.843   3.244  0.2709  0.7155 -0.1893
25199SOL    HW178874   8.605   8.935   3.251 -0.1123  0.7220  1.2586
25199SOL    HW278875   8.491   8.843   3.213 -0.3006  0.8990  1.3904
25200SOL     OW78876   1.903   0.731   0.960 -0.0934  0.5942  0.0916
25200SOL    HW178877   1.924   0.697   0.873 -0.9261 -2.8558  1.0760
25200SOL    HW278878   1.920   0.825   0.954  2.7530  0.0782 -2.8969
25201SOL     OW78879   0.022   8.980   3.840  0.1317  0.3771  0.9836
25201SOL    HW178880   0.081   9.055   3.836 -1.6700  1.8165 -0.3123
25201SOL    HW278881   0.029   8.939   3.754 -0.4281  0.3010  0.9721
25202SOL     OW78882  10.946   9.530  10.280 -0.1960 -0.6237 -0.0533
25202SOL    HW178883  10.964   9.591  10.208 -0.3101  0.0120  0.4469
25202SOL    HW278884  10.935   9.445  10.237  0.2794 -0.3544 -0.7310
25203SOL     OW78885   9.137   9.832   0.800 -0.2680  0.0024 -0.1975
25203SOL    HW178886   9.189   9.754   0.782  0.4943  0.3201  0.5248
25203SOL    HW278887   9.197   9.905   0.782 -1.2502  0.4681 -1.7508
25204SOL     OW78888   3.837   2.402   7.692  0.3153 -0.5305  0.0026
25204SOL    HW178889   3.884   2.484   7.706  1.4127 -0.5499 -2.9135
25204SOL    HW278890   3.753   2.428   7.654  0.1902 -0.7202  0.1464
25205SOL     OW78891  10.642   3.643   7.982  0.8513  0.5558  0.1238
25205SOL    HW178892  10.696   3.597   8.046  2.9768  0.8963 -1.3541
25205SOL    HW278893  10.669   3.608   7.897 -2.1242 -0.1134 -0.6726
25206SOL     OW78894   5.613   4.043   3.765 -0.2481  0.2263 -0.3279
25206SOL    HW178895   5.523   4.048   3.797  0.0181  0.8147  0.3666
25206SOL    HW278896   5.641   4.134   3.759  1.3167  0.0576  2.5269
25207SOL     OW78897   1.212   1.176   6.171 -0.3239  0.5343  0.8759
25207SOL    HW178898   1.252   1.177   6.258 -2.4843  0.5781  1.9494
25207SOL    HW278899   1.119   1.163   6.188 -1.0629  2.2879 -1.3477
25208SOL     OW78900   7.326   8.956   0.356 -0.0290  0.3594 -0.5500
25208SOL    HW178901   7.385   8.968   0.281  2.6202  0.9224  1.4649
25208SOL    HW278902   7.347   9.029   0.414 -1.6213 -0.3482  0.9854
25209SOL     OW78903   5.164   0.537   9.502 -0.6651 -0.2363  0.8414
25209SOL    HW178904   5.221   0.534   9.426  0.4052  0.7335  1.5787
25209SOL    HW278905   5.112   0.456   9.497  0.7762 -1.1510  0.1589
25210SOL     OW78906   9.472   5.808   8.482 -0.4171  0.3018 -0.0992
25210SOL    HW178907   9.451   5.879   8.542  1.5580 -0.6058  1.8105
25210SOL    HW278908   9.519   5.850   8.410  1.0266  0.9688  1.1698
25211SOL     OW78909   6.717   2.686   1.101 -0.4824  0.6691  0.2533
25211SOL    HW178910   6.713   2.626   1.027  0.0257 -0.1906  0.9115
25211SOL    HW278911   6.767   2.761   1.068 -1.3995  0.9062 -0.6714
25212SOL     OW78912   1.124   2.979   2.701 -0.0054  0.3655 -0.1226
25212SOL    HW178913   1.191   3.043   2.677  1.4232 -1.4807 -1.3385
25212SOL    HW278914   1.085   2.954   2.617  0.5556 -1.4687  0.1246
25213SOL     OW78915   9.771   2.802   4.004 -0.2146  0.3067 -0.4696
25213SOL    HW178916   9.783   2.830   4.094  0.1683 -0.9230 -0.1128
25213SOL    HW278917   9.794   2.878   3.951 -1.5210  1.3901  0.4832
25214SOL     OW78918   9.131   7.634   0.538  0.1513  0.4792  0.2885
25214SOL    HW178919   9.146   7.639   0.443 -2.3701  1.5618 -0.1575
25214SOL    HW278920   9.036   7.619   0.545  0.1444  1.2906  2.6465
25215SOL     OW78921   7.329   2.449   8.978  0.5169  0.0710  0.0240
25215SOL    HW178922   7.343   2.519   8.915  2.3483 -0.4719 -0.2427
25215SOL    HW278923   7.328   2.493   9.063 -1.0339  0.6937 -0.2845
25216SOL     OW78924   1.811   4.964  10.054  0.0297 -0.2067 -0.4619
25216SOL    HW178925   1.756   4.889  10.030 -1.1126 -0.1262  1.6410
25216SOL    HW278926   1.772   4.997  10.135  1.0828  2.0940 -0.8108
25217SOL     OW78927   3.251   5.694   7.473 -0.0886 -0.4102 -0.4261
25217SOL    HW178928   3.286   5.720   7.387  0.8818 -0.8438 -0.1718
25217SOL    HW278929   3.261   5.599   7.475 -0.4405 -0.4410  0.0303
25218SOL     OW78930   1.032   3.253   1.562  0.0811  0.0180  0.1594
25218SOL    HW178931   1.108   3.201   1.588  0.1168 -0.0303 -0.0407
25218SOL    HW278932   0.959   3.213   1.609 -0.0760 -0.9137 -0.8445
25219SOL     OW78933   0.438   1.650   3.217  0.0962  0.0660 -0.0060
25219SOL    HW178934   0.517   1.700   3.195  1.1154 -0.8187  1.4516
25219SOL    HW278935   0.467   1.559   3.218 -1.0742 -0.3237  0.1064
25220SOL     OW78936   6.298   3.488   0.267 -0.0964  0.9920 -0.8007
25220SOL    HW178937   6.290   3.431   0.191 -2.7305 -0.5073  0.4435
25220SOL    HW278938   6.322   3.429   0.339 -0.1573  1.9331  0.0134
25221SOL     OW78939   9.766   8.129   6.984 -0.5223 -0.0145  0.3252
25221SOL    HW178940   9.778   8.195   6.915  0.5884 -1.5795 -1.0522
25221SOL    HW278941   9.726   8.178   7.056 -1.8882  1.6667 -1.4445
25222SOL     OW78942   9.439   6.319  10.295 -0.5911  0.0444  0.0804
25222SOL    HW178943   9.412   6.248  10.237 -0.3663 -0.3155  0.4084
25222SOL    HW278944   9.515   6.284  10.341  0.7863  1.2187 -1.2093
25223SOL     OW78945   2.925   3.914   7.526 -0.4032  0.6543 -0.4204
25223SOL    HW178946   2.947   4.007   7.532 -1.9748  0.9702  0.9193
25223SOL    HW278947   2.935   3.894   7.433 -0.3570  2.2326 -0.7927
25224SOL     OW78948   7.799   4.522   6.352  0.5558  0.0458 -0.1729
25224SOL    HW178949   7.773   4.614   6.349 -1.5056 -0.4042  1.4998
25224SOL    HW278950   7.893   4.524   6.335  0.8306  2.6245  1.0468
25225SOL     OW78951   4.410   6.366  10.406 -0.1275  0.4922 -0.4679
25225SOL    HW178952   4.433   6.453  10.373  0.3097  0.5346 -0.0557
25225SOL    HW278953   4.463   6.355  10.485 -2.0628  0.8968  0.9641
25226SOL     OW78954   0.559   2.070   9.024  0.2887 -0.1274 -0.1614
25226SOL    HW178955   0.644   2.080   9.067  0.2352  1.9623 -0.4373
25226SOL    HW278956   0.554   1.977   9.003  2.2949 -0.3897  0.2847
25227SOL     OW78957   0.534   2.757   3.741  0.5782  0.1178 -0.0083
25227SOL    HW178958   0.498   2.669   3.757 -0.1292  0.2663 -0.7011
25227SOL    HW278959   0.628   2.743   3.731  0.6691 -0.3563  1.3550
25228SOL     OW78960   8.658   7.873   9.394 -0.2869  0.7328  0.0626
25228SOL    HW178961   8.618   7.891   9.479  1.6081  1.7144  0.8156
25228SOL    HW278962   8.603   7.918   9.331  0.0010  2.6975  1.1381
25229SOL     OW78963   4.463   3.853   3.112 -0.0398 -0.1108 -0.0974
25229SOL    HW178964   4.447   3.939   3.072 -0.6862 -0.3249 -0.3186
25229SOL    HW278965   4.531   3.869   3.177 -0.3293  0.6261  0.0386
25230SOL     OW78966   8.995  10.329   2.037 -0.0240 -0.5675 -0.0706
25230SOL    HW178967   9.040  10.287   2.111 -0.4100 -0.6315  0.1282
25230SOL    HW278968   8.918  10.371   2.076  0.9413  1.3182 -0.0767
25231SOL     OW78969   3.941   4.338  10.247  0.5288  0.4510  0.4159
25231SOL    HW178970   3.891   4.271  10.200  1.4094 -0.4655  0.7275
25231SOL    HW278971   3.940   4.309  10.339 -0.4426  1.7521  0.8477
25232SOL     OW78972   6.424   4.355   6.880 -0.2421  0.1799  0.5721
25232SOL    HW178973   6.447   4.264   6.903  2.0376  0.7396  0.7533
25232SOL    HW278974   6.473   4.408   6.943 -0.6726  1.5798 -0.2409
25233SOL     OW78975   9.194   3.585   1.601  0.1033 -0.1785  0.0042
25233SOL    HW178976   9.213   3.669   1.642  0.3819  0.7827 -1.9752
25233SOL    HW278977   9.255   3.580   1.527 -0.3703 -1.8158 -0.3150
25234SOL     OW78978   2.217   7.267   3.706 -0.0155  0.8863 -0.1284
25234SOL    HW178979   2.256   7.335   3.652 -0.6582 -0.1948 -2.0789
25234SOL    HW278980   2.228   7.187   3.655  1.2964 -0.6438  2.3583
25235SOL     OW78981   2.557   2.743   9.272 -0.2039  0.2903 -1.0179
25235SOL    HW178982   2.462   2.744   9.271 -0.6032 -1.2747  4.5242
25235SOL    HW278983   2.580   2.650   9.263  0.3738  0.1164  1.4691
25236SOL     OW78984   2.422   6.599   7.728 -0.3068  0.4331  0.5438
25236SOL    HW178985   2.442   6.593   7.635  0.1103  0.8100  0.6062
25236SOL    HW278986   2.442   6.511   7.762  0.2575  0.5029  0.4113
25237SOL     OW78987   4.570   3.135   4.870  0.4458  0.0453  0.2408
25237SOL    HW178988   4.594   3.111   4.780 -0.4356  0.5886 -0.1529
25237SOL    HW278989   4.653   3.142   4.916  0.9266 -0.0010 -0.5968
25238SOL     OW78990   5.401   3.167   3.723 -0.0391 -0.8257  0.5477
25238SOL    HW178991   5.387   3.224   3.647 -0.0198 -0.6494  0.6744
25238SOL    HW278992   5.418   3.228   3.795  1.8455 -1.0180  0.3249
25239SOL     OW78993   8.429   7.585   8.792  0.3956  0.0481 -0.0520
25239SOL    HW178994   8.525   7.579   8.792  0.3838 -0.4259  1.0343
25239SOL    HW278995   8.403   7.559   8.881 -0.8825 -2.3342 -1.0267
25240SOL     OW78996   9.255   2.637   6.186  0.4647  0.1534  0.4450
25240SOL    HW178997   9.231   2.545   6.199  1.0194  0.1689  1.6685
25240SOL    HW278998   9.174   2.679   6.156  0.0006 -0.5802  0.6535
25241SOL     OW78999   2.119   6.096   7.712 -0.3275 -0.2808  0.2287
25241SOL    HW179000   2.129   6.007   7.745  0.0970 -1.7690 -3.4301
25241SOL    HW279001   2.206   6.119   7.680 -0.5212  1.3689  0.7958
25242SOL     OW79002   7.920   2.518   6.582 -0.0407 -0.6217  0.9595
25242SOL    HW179003   7.842   2.483   6.539 -0.9411 -0.4333  2.3795
25242SOL    HW279004   7.975   2.548   6.510 -0.2942 -2.7139 -0.1942
25243SOL     OW79005   9.442   5.210   7.115  0.0842  0.2613  0.1821
25243SOL    HW179006   9.453   5.136   7.054  2.4643 -1.4637  2.4989
25243SOL    HW279007   9.347   5.221   7.121 -0.3556 -2.3097 -0.6298
25244SOL     OW79008   5.780   7.753   2.329 -0.1005 -0.2024 -0.4364
25244SOL    HW179009   5.727   7.733   2.406 -0.1887  2.0978  0.1516
25244SOL    HW279010   5.820   7.837   2.348  2.3796 -1.0051 -1.6311
25245SOL     OW79011   6.729   2.701   5.739 -0.0741 -0.5627 -0.1998
25245SOL    HW179012   6.811   2.657   5.719 -0.6703 -1.7209 -0.1631
25245SOL    HW279013   6.753   2.794   5.746  0.7324 -0.4817 -3.0422
25246SOL     OW79014   3.934  10.553   5.827  0.3855  0.7155  0.8446
25246SOL    HW179015   3.843  10.565   5.854  0.4569 -0.4197  1.6698
25246SOL    HW279016   3.931  10.558   5.731 -0.4798  1.0725  0.8841
25247SOL     OW79017  10.754   7.410   5.807 -0.2125  0.0904 -0.0455
25247SOL    HW179018  10.707   7.492   5.796 -0.3626  0.0748  0.4521
25247SOL    HW279019  10.693   7.352   5.853 -1.2219 -1.3165 -2.9495
25248SOL     OW79020   5.037   4.242   0.423 -0.7314  0.0283 -0.0246
25248SOL    HW179021   5.106   4.213   0.364 -1.6988  0.7019 -1.5637
25248SOL    HW279022   5.036   4.337   0.415 -0.8844  0.1361  1.0950
25249SOL     OW79023   1.837   0.154   4.606  0.4621 -0.6412 -0.2596
25249SOL    HW179024   1.910   0.143   4.545 -0.6575 -3.3874 -1.2704
25249SOL    HW279025   1.823   0.067   4.643 -1.5764  0.0449  0.7489
25250SOL     OW79026   7.564   9.955  10.039  0.4693 -0.0184  0.3109
25250SOL    HW179027   7.504   9.936   9.967  0.8332 -2.3939  0.5573
25250SOL    HW279028   7.615  10.030  10.008 -0.7553  0.3223 -1.0220
25251SOL     OW79029   3.174  10.538  10.580  0.1863  0.0643 -0.2688
25251SOL    HW179030   3.209  10.621  10.614  1.1425 -1.3429  2.5580
25251SOL    HW279031   3.148  10.490  10.659  1.4408 -3.0806 -1.6272
25252SOL     OW79032  10.333   3.691  10.929 -0.0766  0.2324  0.0767
25252SOL    HW179033  10.271   3.674  11.000  2.3758 -1.7400  1.9395
25252SOL    HW279034  10.355   3.604  10.895  3.5632  0.4843  1.3556
25253SOL     OW79035   4.637   8.292   9.136 -0.1336  0.0803  0.7741
25253SOL    HW179036   4.584   8.273   9.214 -1.1258  1.4380  0.4614
25253SOL    HW279037   4.678   8.377   9.156 -0.9199  0.7623 -0.4370
25254SOL     OW79038   7.115   7.780   7.188 -0.0630  0.6802  0.1969
25254SOL    HW179039   7.026   7.746   7.200 -0.3244  1.0881 -0.5041
25254SOL    HW279040   7.167   7.703   7.162 -0.7760  0.8584 -1.9968
25255SOL     OW79041   1.801   7.258   1.257 -0.1019  0.3627 -0.3072
25255SOL    HW179042   1.766   7.233   1.343  0.6356  0.7696  0.1233
25255SOL    HW279043   1.890   7.288   1.275 -0.2287  1.2568 -1.1031
25256SOL     OW79044   3.656   7.947   6.424 -0.4464 -0.5431 -0.2612
25256SOL    HW179045   3.730   7.977   6.478 -0.3834 -0.0687 -0.6051
25256SOL    HW279046   3.690   7.872   6.376 -0.3746 -0.7059  0.0416
25257SOL     OW79047  10.088   3.700   4.885 -0.0779 -0.1872 -0.6274
25257SOL    HW179048  10.006   3.709   4.934 -0.8554 -0.7930 -1.7355
25257SOL    HW279049  10.059   3.679   4.796  1.2968 -0.4419 -1.0345
25258SOL     OW79050   0.680   1.773   3.322  0.1685 -0.3454 -0.2039
25258SOL    HW179051   0.715   1.790   3.234  0.1397 -1.9541 -0.5621
25258SOL    HW279052   0.725   1.694   3.351 -1.5381 -1.2256  0.2168
25259SOL     OW79053   6.446  10.139   1.341 -0.1190 -0.2746 -0.3591
25259SOL    HW179054   6.398  10.184   1.270  0.4583  0.5057 -0.2689
25259SOL    HW279055   6.453  10.049   1.311 -1.2983 -0.3200 -0.5560
25260SOL     OW79056   8.141   7.481   2.904 -0.6977 -0.6104 -0.7201
25260SOL    HW179057   8.161   7.471   2.810  0.8378  0.9971 -0.6061
25260SOL    HW279058   8.202   7.422   2.947 -0.2849 -0.1351 -0.6538
25261SOL     OW79059   2.830   4.469   6.554  0.4835 -0.5425 -0.2147
25261SOL    HW179060   2.862   4.444   6.641  1.7728 -1.7380 -0.9887
25261SOL    HW279061   2.768   4.540   6.571  0.6129 -0.8231  1.6846
25262SOL     OW79062   7.841   4.866   0.099 -0.1666  0.1896  0.3254
25262SOL    HW179063   7.883   4.945   0.066 -1.4348  1.0754  0.7338
25262SOL    HW279064   7.833   4.809   0.023 -1.2830  1.4038 -0.5103
25263SOL     OW79065   1.277   6.070   6.625  0.2944 -0.3641 -0.5668
25263SOL    HW179066   1.302   6.162   6.631 -1.0692 -0.0480  1.3010
25263SOL    HW279067   1.188   6.067   6.661  1.3234 -2.7722  2.2245
25264SOL     OW79068  10.541   4.134   9.085  0.7874 -0.3464 -0.2470
25264SOL    HW179069  10.574   4.123   9.174 -2.0964  0.8244  1.0781
25264SOL    HW279070  10.601   4.197   9.045  1.8420 -0.5214  0.9905
25265SOL     OW79071   3.864  10.780   9.558  0.0974  0.9614 -0.7838
25265SOL    HW179072   3.855  10.684   9.552  1.6635  0.7740 -0.3495
25265SOL    HW279073   3.903  10.795   9.643  0.6245  1.9450 -1.1933
25266SOL     OW79074   5.112   7.380   6.873  0.0459  0.4579  0.1586
25266SOL    HW179075   5.156   7.437   6.811  0.8665  1.0470  1.2681
25266SOL    HW279076   5.182   7.329   6.914 -0.7086 -2.2637 -1.6042
25267SOL     OW79077   5.209   1.725   6.908 -0.2402  0.3310 -0.2394
25267SOL    HW179078   5.145   1.695   6.843 -2.0183  1.0954  1.0750
25267SOL    HW279079   5.189   1.676   6.987  1.3355  0.0315  0.0091
25268SOL     OW79080   3.040   5.653   9.009 -0.0723  0.8409  0.2605
25268SOL    HW179081   2.976   5.590   8.976  0.3513  2.2032 -3.7639
25268SOL    HW279082   3.115   5.599   9.036 -0.4404 -0.5271 -1.2551
25269SOL     OW79083   4.029   0.313   6.220  0.0121 -0.1778 -0.1059
25269SOL    HW179084   4.012   0.231   6.267  0.4767  0.0930  0.5533
25269SOL    HW279085   4.004   0.381   6.282 -1.5417  0.2015 -1.0806
25270SOL     OW79086   9.242   5.899   3.360  0.1613 -0.1026 -0.0495
25270SOL    HW179087   9.257   5.979   3.410 -0.2839 -0.4173  0.6054
25270SOL    HW279088   9.304   5.904   3.288  1.3396  0.0361  0.9270
25271SOL     OW79089   9.120   1.726   9.794  0.0985 -0.0615 -0.2369
25271SOL    HW179090   9.156   1.807   9.757  0.4440 -0.7117 -1.3735
25271SOL    HW279091   9.035   1.753   9.829  0.4630  0.9143 -0.0474
25272SOL     OW79092   2.409   9.164   9.108  0.1275  0.2388 -0.3435
25272SOL    HW179093   2.436   9.102   9.177 -0.1531 -0.2865 -0.6985
25272SOL    HW279094   2.438   9.249   9.140 -0.6233  0.0979  0.7622
25273SOL     OW79095   3.633   4.563   5.174 -0.4420  0.1355 -0.0646
25273SOL    HW179096   3.586   4.645   5.155 -1.1479 -0.0957  0.6172
25273SOL    HW279097   3.581   4.522   5.243 -1.0705 -1.7149 -1.5719
25274SOL     OW79098  10.317   8.011   8.885  0.0729  0.2464 -0.1961
25274SOL    HW179099  10.351   7.936   8.836  0.6143 -0.2871  0.9566
25274SOL    HW279100  10.341   8.087   8.831  0.7707 -0.3043 -0.6917
25275SOL     OW79101  10.929   7.456   4.644 -0.0152  0.3290 -0.1250
25275SOL    HW179102  10.842   7.420   4.630 -0.0913 -0.5719  2.2289
25275SOL    HW279103  10.943   7.516   4.570 -1.7731 -1.0303 -1.6387
25276SOL     OW79104   7.296  10.498   1.361  0.0232  0.6477 -0.4954
25276SOL    HW179105   7.250  10.453   1.432 -0.1730 -0.7975 -1.4873
25276SOL    HW279106   7.260  10.587   1.361 -1.2519  0.1501  0.0896
25277SOL     OW79107   5.794   6.611   0.275  0.9279 -0.2328  0.2454
25277SOL    HW179108   5.863   6.561   0.319  0.9497  0.6266  1.2422
25277SOL    HW279109   5.804   6.700   0.309 -0.4967 -0.0250  0.1806
25278SOL     OW79110  11.326   5.229   7.067  0.0203 -0.7668 -0.2470
25278SOL    HW179111  11.237   5.243   7.100  0.5627  2.2654  0.2205
25278SOL    HW279112  11.343   5.304   7.010  1.7009 -2.1685 -1.7204
25279SOL     OW79113   5.718   9.566   0.179 -0.6976  0.1004  0.3430
25279SOL    HW179114   5.799   9.617   0.175  0.3293 -1.5427 -0.9577
25279SOL    HW279115   5.651   9.630   0.205  0.5395  2.0752 -1.0492
25280SOL     OW79116   8.637   7.513   0.099  0.4469 -0.3350 -0.4092
25280SOL    HW179117   8.704   7.449   0.123 -0.4844 -0.8731  0.8808
25280SOL    HW279118   8.615   7.491   0.009 -0.7504 -2.7185  0.3823
25281SOL     OW79119   0.809   0.649  10.150  0.2631 -0.4471 -0.0061
25281SOL    HW179120   0.884   0.694  10.189  0.7573 -0.4940 -0.8802
25281SOL    HW279121   0.847   0.578  10.098 -0.2759  0.2834 -1.4721
25282SOL     OW79122   4.619   9.633   6.159 -0.3012 -0.1808  0.4265
25282SOL    HW179123   4.579   9.696   6.218  0.7752  0.1516  0.8211
25282SOL    HW279124   4.669   9.685   6.098  0.0099 -0.6164  0.3047
25283SOL     OW79125   0.261   5.208   3.196  0.0130 -0.0697 -0.1212
25283SOL    HW179126   0.328   5.192   3.263 -0.6006 -1.0071  0.2840
25283SOL    HW279127   0.247   5.303   3.199  0.9077  0.0705  0.1809
25284SOL     OW79128   2.055   4.682  10.322 -0.2689 -0.9698 -0.2631
25284SOL    HW179129   2.044   4.723  10.408  1.4190 -1.8479  0.4245
25284SOL    HW279130   2.105   4.602  10.340  0.7842 -0.8010 -2.1341
25285SOL     OW79131  11.291   6.017   6.415 -0.1115  0.4495 -0.5943
25285SOL    HW179132  11.337   5.970   6.486  0.4593 -0.7610 -1.7206
25285SOL    HW279133  11.201   6.025   6.447 -0.3618 -1.8813 -0.5162
25286SOL     OW79134   3.328  10.633   0.466 -0.1524 -0.1600 -0.1537
25286SOL    HW179135   3.388  10.690   0.419 -0.1435 -0.7010 -0.8157
25286SOL    HW279136   3.381  10.556   0.489 -0.1796  0.0502  0.6713
25287SOL     OW79137   7.109   8.007   3.799 -0.2945  0.0989  0.0935
25287SOL    HW179138   7.026   7.966   3.773  0.5383 -0.3133 -2.2230
25287SOL    HW279139   7.132   8.063   3.725  1.4211  0.2986  0.7283
25288SOL     OW79140   6.527   9.782   0.448 -0.4851  0.3934 -0.1709
25288SOL    HW179141   6.611   9.751   0.415 -0.7342 -0.8127  0.2771
25288SOL    HW279142   6.465   9.767   0.377 -0.4020  0.9227 -0.3601
25289SOL     OW79143   1.218   5.874   7.185 -0.3592 -0.0784 -0.0953
25289SOL    HW179144   1.191   5.794   7.230  0.1905 -0.8739 -1.1154
25289SOL    HW279145   1.299   5.850   7.140 -0.5611  0.8485 -0.9993
25290SOL     OW79146   3.021   1.478   4.486 -0.2114 -0.1333  0.3724
25290SOL    HW179147   2.937   1.456   4.445 -0.4324  1.9619 -0.4142
25290SOL    HW279148   3.069   1.526   4.418  1.8661 -1.7002  0.6334
25291SOL     OW79149   1.967   6.982   8.041 -0.5423 -0.4097  1.0081
25291SOL    HW179150   1.904   7.012   8.107 -0.8076 -0.1934  0.6634
25291SOL    HW279151   1.931   7.014   7.958 -1.0636 -2.0470  0.5603
25292SOL     OW79152   2.713   2.590   0.850  0.7498 -0.7244 -0.4824
25292SOL    HW179153   2.757   2.661   0.803  0.9132 -0.4364  0.0887
25292SOL    HW279154   2.635   2.571   0.797  0.1246  0.6250 -0.1068
25293SOL     OW79155  10.377  10.253   9.614  0.1699  0.4577 -0.4619
25293SOL    HW179156  10.335  10.168   9.629 -1.8722  1.7438  1.7080
25293SOL    HW279157  10.460  10.247   9.661  0.4108 -0.5721 -0.9869
25294SOL     OW79158   3.025  11.116   6.909  0.1694  0.1122 -0.3883
25294SOL    HW179159   2.933  11.092   6.913 -0.0645  0.9686 -0.5445
25294SOL    HW279160   3.043  11.129   6.816 -0.2029  2.3658 -0.1958
25295SOL     OW79161   1.927   3.443   0.912  0.2357  0.3608  0.0108
25295SOL    HW179162   1.988   3.379   0.874 -0.4736 -0.9666  1.0211
25295SOL    HW279163   1.858   3.452   0.846  1.0442  1.1553 -0.7341
25296SOL     OW79164   4.365   2.828   0.986 -0.2597 -0.3037 -0.3964
25296SOL    HW179165   4.368   2.899   1.050  1.0977 -0.9129  0.2713
25296SOL    HW279166   4.421   2.859   0.914  0.8081 -0.9007  0.1530
25297SOL     OW79167   6.600   8.020   7.237  0.2171 -0.1985  0.3520
25297SOL    HW179168   6.516   8.000   7.196  1.7583 -3.7339 -1.4792
25297SOL    HW279169   6.597   7.974   7.321  0.2558 -0.2312  0.3355
25298SOL     OW79170  10.592   2.257  10.357 -0.2835 -0.0050  0.2837
25298SOL    HW179171  10.509   2.266  10.310  1.3751  1.3872 -2.6804
25298SOL    HW279172  10.615   2.165  10.348 -0.8958 -0.1330  0.0044
25299SOL     OW79173  11.207   8.638   0.664 -0.0128 -1.0192  0.3031
25299SOL    HW179174  11.228   8.657   0.572 -0.5946 -0.5696  0.2584
25299SOL    HW279175  11.112   8.641   0.668 -0.0392 -1.9723  0.7287
25300SOL     OW79176   5.291   2.450   3.112  0.3102  0.4376 -0.5297
25300SOL    HW179177   5.279   2.389   3.185 -1.0176 -0.8303 -1.7406
25300SOL    HW279178   5.298   2.536   3.153  0.4435 -0.3317  1.1259
25301SOL     OW79179   4.442   0.127   0.470  0.0035  0.1611 -0.1110
25301SOL    HW179180   4.514   0.105   0.529 -0.4681  0.8609  0.7537
25301SOL    HW279181   4.455   0.220   0.449 -0.3319  0.1480 -0.4045
25302SOL     OW79182   5.042   4.988   6.116 -0.4904  0.5564 -0.0637
25302SOL    HW179183   5.099   4.972   6.041 -0.7155 -0.0177 -0.1108
25302SOL    HW279184   5.035   5.084   6.120  0.1858  0.6215 -0.2732
25303SOL     OW79185  10.873   5.559   7.206  0.9414 -0.4445  0.1667
25303SOL    HW179186  10.825   5.482   7.175  0.6659 -0.3479  0.3505
25303SOL    HW279187  10.965   5.540   7.184  0.6128  0.2653 -2.0491
25304SOL     OW79188   4.953   3.813   0.536  0.0677  0.1386  0.3110
25304SOL    HW179189   4.988   3.897   0.564  1.4554 -0.2845 -0.0583
25304SOL    HW279190   4.983   3.803   0.445  1.2888 -1.3985  0.8224
25305SOL     OW79191   3.269   7.327   1.180  0.1320  0.2000  0.0343
25305SOL    HW179192   3.322   7.339   1.259  0.1672  1.2150 -0.1268
25305SOL    HW279193   3.223   7.410   1.170 -0.7367 -0.3208 -0.3863
25306SOL     OW79194  10.161  10.156   7.058 -0.3608  0.2987  0.1643
25306SOL    HW179195  10.068  10.139   7.052 -0.5124  1.5085 -1.5035
25306SOL    HW279196  10.189  10.174   6.968  1.2630  1.0037  0.7585
25307SOL     OW79197   5.025   0.365   1.455  0.8014  0.1902  0.2631
25307SOL    HW179198   5.088   0.361   1.383 -0.6527 -1.5786 -1.0109
25307SOL    HW279199   4.940   0.363   1.412 -0.1257 -0.7117  2.0388
25308SOL     OW79200  10.764   3.548   7.765  0.4857  0.2171  0.6133
25308SOL    HW179201  10.770   3.519   7.674  1.1813  2.5268 -0.1446
25308SOL    HW279202  10.855   3.559   7.793  0.2611  0.4268  1.2758
25309SOL     OW79203   4.585   6.000   6.830 -0.4730 -0.0435 -0.2121
25309SOL    HW179204   4.578   6.073   6.892 -2.2410 -0.2661 -0.0892
25309SOL    HW279205   4.526   5.933   6.866 -2.1353  0.1013 -2.4540
25310SOL     OW79206  10.413   2.000   7.613  0.2352 -0.6048  0.3611
25310SOL    HW179207  10.401   1.924   7.670 -1.6196 -0.4609  0.2332
25310SOL    HW279208  10.454   2.066   7.669 -1.3215 -0.5485  1.4991
25311SOL     OW79209   0.319   5.465   4.085  0.1670  0.6384 -0.4195
25311SOL    HW179210   0.378   5.389   4.081 -0.7932 -0.1213 -0.4423
25311SOL    HW279211   0.259   5.452   4.012 -0.4610  1.0370  0.0256
25312SOL     OW79212   5.092   4.887   3.028 -0.0144  0.3779  0.2457
25312SOL    HW179213   5.014   4.917   2.983 -0.6654 -1.1841  0.2985
25312SOL    HW279214   5.102   4.947   3.102  0.4392  2.2783 -1.2864
25313SOL     OW79215   7.987   1.050  11.387  0.1090 -0.2393 -0.0271
25313SOL    HW179216   8.072   1.057  11.431 -0.2081  2.7736  0.3369
25313SOL    HW279217   7.999   1.096  11.304 -0.9141 -0.6592 -0.4271
25314SOL     OW79218   9.854   8.678   2.817  0.7353  0.1391 -0.5588
25314SOL    HW179219   9.831   8.753   2.763 -1.2083 -1.2704 -1.8481
25314SOL    HW279220   9.844   8.603   2.759  3.5275 -1.1124  0.3990
25315SOL     OW79221   4.523   8.195   6.445  0.3643  0.3693 -0.0843
25315SOL    HW179222   4.428   8.186   6.439  0.5450 -0.5608 -2.0342
25315SOL    HW279223   4.558   8.110   6.419  1.7435 -0.3508  3.5036
25316SOL     OW79224   9.642   7.887  10.686  0.0788  0.3653  0.2814
25316SOL    HW179225   9.672   7.962  10.634 -0.5731  0.4379 -0.0039
25316SOL    HW279226   9.712   7.823  10.677 -0.3959  0.0242 -1.4644
25317SOL     OW79227   0.351   3.433   3.084  0.2789  0.0109  0.0238
25317SOL    HW179228   0.317   3.483   3.009  1.3056 -0.6402 -0.9109
25317SOL    HW279229   0.298   3.354   3.087 -0.5641  0.5913  0.7605
25318SOL     OW79230   9.435  10.548  10.609 -0.0535  1.1558  0.6669
25318SOL    HW179231   9.366  10.541  10.543  0.9697 -0.0792 -0.3101
25318SOL    HW279232   9.387  10.555  10.692 -1.3695 -0.0947  0.0658
25319SOL     OW79233   4.558   1.965   2.282  0.1953  0.1205  0.3619
25319SOL    HW179234   4.470   2.003   2.276  0.4369  1.1213  2.2482
25319SOL    HW279235   4.544   1.876   2.314 -0.1572 -0.0118 -0.1472
25320SOL     OW79236   9.985   0.265   6.695  0.1354 -0.3030 -0.1871
25320SOL    HW179237   9.910   0.204   6.698 -0.4347  0.4049  1.6318
25320SOL    HW279238  10.056   0.216   6.736  0.5378 -0.7879 -1.4386
25321SOL     OW79239   2.429   8.876  10.852 -0.2458 -0.2762 -0.6350
25321SOL    HW179240   2.488   8.925  10.910  0.3034  1.2120 -2.3628
25321SOL    HW279241   2.342   8.891  10.889  0.0812  0.7047 -0.2069
25322SOL     OW79242  10.905   9.780   5.913 -0.1271  0.4307  0.0040
25322SOL    HW179243  10.960   9.709   5.946  0.2083  0.4605 -0.4909
25322SOL    HW279244  10.964   9.855   5.903  0.5469 -0.4098 -3.6649
25323SOL     OW79245   0.593   9.318   8.701 -0.5203 -0.3994  0.1529
25323SOL    HW179246   0.523   9.320   8.635  0.0477 -0.5841 -0.4609
25323SOL    HW279247   0.669   9.355   8.657  0.2634 -1.8201  0.2296
25324SOL     OW79248   6.559   8.767   9.175  0.0681 -0.6233  0.3965
25324SOL    HW179249   6.610   8.829   9.122 -1.5686 -1.2707 -2.0611
25324SOL    HW279250   6.544   8.814   9.258  1.8655  0.8257 -0.0209
25325SOL     OW79251   2.056   5.825   3.907  0.0791 -0.1049 -0.3426
25325SOL    HW179252   1.979   5.825   3.964  0.0310  1.5040 -0.3806
25325SOL    HW279253   2.090   5.735   3.913 -0.6047 -0.2860  1.2802
25326SOL     OW79254   8.168   6.329   7.675  0.1943 -0.1587 -0.4092
25326SOL    HW179255   8.110   6.256   7.697  1.4099 -0.9863  0.2079
25326SOL    HW279256   8.198   6.362   7.760 -0.9206  1.5969 -0.6437
25327SOL     OW79257   9.108   7.490   5.923 -0.0675  0.5997  0.0867
25327SOL    HW179258   9.146   7.428   5.861 -2.0645  0.8914 -1.5395
25327SOL    HW279259   9.075   7.436   5.994  0.9490  0.1205  0.2104
25328SOL     OW79260  10.124   8.934   6.890 -0.1200 -0.3151 -0.4459
25328SOL    HW179261  10.065   9.005   6.865  0.2446  0.1216 -0.0875
25328SOL    HW279262  10.071   8.878   6.946 -0.4218 -0.3509 -0.7609
25329SOL     OW79263   7.365   5.627   6.721  0.1190 -0.0203 -0.1285
25329SOL    HW179264   7.346   5.686   6.648 -0.0069  1.0759  0.7555
25329SOL    HW279265   7.352   5.681   6.799 -2.1291 -1.7669  0.8409
25330SOL     OW79266  10.819   5.324   9.054  0.1095  0.7686  0.0122
25330SOL    HW179267  10.880   5.396   9.070  0.2686  0.6507 -0.0598
25330SOL    HW279268  10.785   5.303   9.141  1.8479 -0.6466  0.4202
25331SOL     OW79269  10.358  10.947   7.649 -0.1094 -0.2744  0.9711
25331SOL    HW179270  10.379  10.955   7.556 -1.0728  0.4063  0.7947
25331SOL    HW279271  10.414  11.010   7.692  0.0791 -0.3295  0.8086
25332SOL     OW79272   1.172   5.069   0.932 -0.5933 -0.3716 -0.0762
25332SOL    HW179273   1.248   5.029   0.890 -0.9690 -0.2135 -0.9127
25332SOL    HW279274   1.121   4.995   0.965  0.5286 -0.4531  1.6102
25333SOL     OW79275   0.833   6.507  10.645 -0.0829 -0.5773  0.3035
25333SOL    HW179276   0.805   6.490  10.734 -0.5796 -1.4792 -0.0183
25333SOL    HW279277   0.875   6.426  10.617  0.1168 -0.2838 -0.2673
25334SOL     OW79278   9.920  10.834  10.624 -0.6050 -0.6956 -0.0373
25334SOL    HW179279  10.000  10.784  10.636 -0.0853 -0.0971 -0.9181
25334SOL    HW279280   9.908  10.880  10.708 -1.1109 -2.2637  0.7972
25335SOL     OW79281   8.771   2.189  11.386 -0.0737  0.0660  0.2787
25335SOL    HW179282   8.768   2.255  11.316 -0.0439 -0.2519 -0.0276
25335SOL    HW279283   8.728   2.113  11.348  2.4161 -1.0917 -0.4375
25336SOL     OW79284   5.698   6.683   8.590  0.7586 -0.6992  0.7261
25336SOL    HW179285   5.736   6.769   8.572 -0.0676 -0.5638 -0.4506
25336SOL    HW279286   5.626   6.701   8.650  0.9270 -0.6398  0.9107
25337SOL     OW79287   4.854   3.481   9.092 -0.1232 -0.0055  0.1704
25337SOL    HW179288   4.789   3.419   9.060  1.5236 -1.5998 -0.2381
25337SOL    HW279289   4.910   3.429   9.150  1.8066  0.8585 -0.8341
25338SOL     OW79290  10.490   1.754   0.996 -0.1401  0.5862 -0.0400
25338SOL    HW179291  10.453   1.795   1.074  1.0317  0.3733  0.6416
25338SOL    HW279292  10.539   1.825   0.953  3.0115 -0.2716  1.8355
25339SOL     OW79293  10.416  10.390  11.352  0.1480  0.7118 -0.3055
25339SOL    HW179294  10.473  10.443  11.407 -0.7775  1.2726  0.1426
25339SOL    HW279295  10.353  10.350  11.413  0.2844 -0.1996 -0.7408
25340SOL     OW79296  11.392   4.922   0.124 -0.1551 -0.1046  0.2062
25340SOL    HW179297  11.425   4.991   0.181 -0.3299  0.5262 -0.4500
25340SOL    HW279298  11.301   4.910   0.153  0.0848 -0.5614  0.7887
25341SOL     OW79299   9.443   0.826   7.419 -0.2284 -0.1662 -0.3765
25341SOL    HW179300   9.400   0.893   7.366  0.1979 -1.2773 -2.2188
25341SOL    HW279301   9.469   0.758   7.356  3.8425  0.2087  0.5808
25342SOL     OW79302   9.188   1.123   5.096 -0.2159 -0.1730  1.3493
25342SOL    HW179303   9.211   1.067   5.022 -0.0836  0.8273  0.6149
25342SOL    HW279304   9.262   1.116   5.156  1.4485  1.9127 -0.3351
25343SOL     OW79305   8.932   8.320   6.196  0.1937  0.5151  0.2664
25343SOL    HW179306   8.866   8.293   6.132  0.4334 -0.6508  0.4830
25343SOL    HW279307   8.886   8.322   6.280  0.5615 -0.9980  0.5341
25344SOL     OW79308   3.500   5.822   5.542  0.3253 -0.6648  0.5541
25344SOL    HW179309   3.534   5.909   5.562 -2.3330  0.6825 -0.4558
25344SOL    HW279310   3.559   5.788   5.474  0.6362  0.8974  0.0205
25345SOL     OW79311   0.539   7.791   3.084  0.9262  0.4472  0.1498
25345SOL    HW179312   0.559   7.839   3.164  0.1213 -0.3726  0.8707
25345SOL    HW279313   0.550   7.855   3.014  0.5783  1.4824  1.0197
25346SOL     OW79314   9.533   7.183   7.854 -0.2324 -0.2287 -0.3397
25346SOL    HW179315   9.448   7.188   7.897  0.5142 -0.7310  1.2591
25346SOL    HW279316   9.595   7.218   7.917  1.0628 -2.0549 -0.4964
25347SOL     OW79317   4.271   1.578   8.767  0.3296  0.2382  0.0722
25347SOL    HW179318   4.178   1.557   8.780  0.2169  1.0396  0.6524
25347SOL    HW279319   4.277   1.599   8.674 -0.0807  0.2330  0.0406
25348SOL     OW79320   6.644  10.089  10.509 -0.4709 -0.0252 -0.1319
25348SOL    HW179321   6.645  10.101  10.604  1.1443  1.7111 -0.3029
25348SOL    HW279322   6.709  10.022  10.493  1.7156  1.9702 -0.1593
25349SOL     OW79323   2.930   8.665   8.981  0.4438 -0.6178  0.4339
25349SOL    HW179324   3.021   8.638   8.975  0.8941  1.0870 -1.2601
25349SOL    HW279325   2.880   8.583   8.977  1.7483 -1.4519 -3.8265
25350SOL     OW79326   1.807   2.128   4.032  0.8061 -0.4100 -0.1833
25350SOL    HW179327   1.893   2.155   3.998  1.0781  0.6647  1.2713
25350SOL    HW279328   1.805   2.163   4.121 -0.8826 -1.0100  0.0345
25351SOL     OW79329  10.417   2.562   5.796 -0.0616  0.1008  0.3144
25351SOL    HW179330  10.389   2.524   5.879  1.1631 -1.6764 -0.0348
25351SOL    HW279331  10.505   2.529   5.782  0.8425  2.5635 -0.4042
25352SOL     OW79332   4.814   1.821   4.499  0.1871 -0.1076  0.0618
25352SOL    HW179333   4.856   1.906   4.514 -0.6081  0.5752 -1.3618
25352SOL    HW279334   4.725   1.842   4.471 -1.1370 -1.5210  2.8460
25353SOL     OW79335   0.173   5.158   4.247 -0.2356  0.0693  0.1813
25353SOL    HW179336   0.266   5.153   4.266 -0.2582 -0.5496  0.1459
25353SOL    HW279337   0.134   5.195   4.326 -0.0224 -0.1553  0.3943
25354SOL     OW79338   8.927   4.417   6.580 -0.1633 -0.6811  0.4744
25354SOL    HW179339   8.992   4.395   6.513  1.9843  2.5935  1.2706
25354SOL    HW279340   8.884   4.496   6.548 -1.5369 -0.9812  1.4592
25355SOL     OW79341  10.467   5.355   8.518 -0.5141  0.8705 -0.0026
25355SOL    HW179342  10.468   5.299   8.441 -0.1834  0.8154  0.0403
25355SOL    HW279343  10.426   5.301   8.586 -1.4723  1.1765 -0.3284
25356SOL     OW79344   7.654   3.680   7.865 -0.8443 -0.1857 -0.4932
25356SOL    HW179345   7.635   3.737   7.939  1.5809 -1.3214  1.1323
25356SOL    HW279346   7.573   3.633   7.849 -1.7743  0.9817  0.5994
25357SOL     OW79347   3.842   3.347   0.430 -0.3208  0.6204 -0.0561
25357SOL    HW179348   3.820   3.432   0.393  1.0870  1.0775  0.1079
25357SOL    HW279349   3.921   3.362   0.481 -1.9186 -0.0678  2.8758
25358SOL     OW79350   0.839  10.252   5.973  0.1073 -0.1741 -0.4487
25358SOL    HW179351   0.848  10.229   5.881 -0.2770 -0.3913 -0.4337
25358SOL    HW279352   0.895  10.190   6.019  1.2671  0.7221 -0.6298
25359SOL     OW79353   2.730   7.412   2.188  0.5267  0.6248  0.0837
25359SOL    HW179354   2.741   7.337   2.129  2.9485  1.9254 -1.2827
25359SOL    HW279355   2.645   7.449   2.164  0.0621 -0.6745 -0.3895
25360SOL     OW79356   9.729   6.923   8.397 -0.3240  0.0711 -0.3770
25360SOL    HW179357   9.759   6.939   8.307  1.7414 -0.7729  0.0905
25360SOL    HW279358   9.700   6.832   8.396  1.2577 -0.4668  0.1462
25361SOL     OW79359  10.989  11.217   2.726 -0.3282 -0.5176 -0.3572
25361SOL    HW179360  10.955  11.133   2.698 -0.5663 -0.6033  0.1793
25361SOL    HW279361  10.935  11.242   2.802  0.2307 -0.2511 -0.0331
25362SOL     OW79362   6.468   7.831   4.182 -0.7112  0.3989 -0.2305
25362SOL    HW179363   6.532   7.767   4.212 -0.1584  0.5755 -0.9918
25362SOL    HW279364   6.425   7.862   4.261 -1.0228 -0.9380  0.1467
25363SOL     OW79365   9.307  10.004   0.509 -0.2793 -0.3315 -0.3797
25363SOL    HW179366   9.227   9.991   0.460 -0.0178  2.0031 -1.5777
25363SOL    HW279367   9.278  10.043   0.592 -0.3958  1.2649 -1.1316
25364SOL     OW79368  11.068   4.187  10.532  0.2053 -0.5559 -0.1709
25364SOL    HW179369  11.087   4.093  10.527  1.6720 -0.2469 -1.0570
25364SOL    HW279370  11.001   4.202  10.465  1.1460 -0.7210 -1.1689
25365SOL     OW79371   5.593   8.710   9.215 -0.1078 -0.0438 -0.0300
25365SOL    HW179372   5.627   8.621   9.212  0.1927  0.0960 -1.5120
25365SOL    HW279373   5.503   8.701   9.244  0.0776 -0.7735  0.3330
25366SOL     OW79374  10.962   9.278   6.635  0.7094  0.1906  0.0308
25366SOL    HW179375  10.973   9.238   6.549  0.5019  1.4145 -0.5864
25366SOL    HW279376  10.890   9.229   6.675 -0.2321  0.5985 -1.1154
25367SOL     OW79377   1.050   4.967   1.745  0.3610  0.2530  0.3277
25367SOL    HW179378   1.118   5.026   1.776  1.6353  0.2275 -2.2118
25367SOL    HW279379   1.096   4.889   1.715 -0.6263  0.4645 -2.0064
25368SOL     OW79380   3.921   9.749   0.401 -0.1789 -0.3978  0.7954
25368SOL    HW179381   3.853   9.685   0.419 -0.0579 -0.8785 -0.3625
25368SOL    HW279382   3.906   9.819   0.464 -2.2934 -0.0657 -0.0037
25369SOL     OW79383   2.650   0.027   3.930 -0.3028 -0.3689 -0.1449
25369SOL    HW179384   2.595  -0.012   3.863  0.2595 -2.0515  0.3154
25369SOL    HW279385   2.735  -0.017   3.921 -0.2048 -0.6501  1.6127
25370SOL     OW79386   3.880   8.041   7.709  0.1452  0.1103 -0.4592
25370SOL    HW179387   3.789   8.017   7.725  0.1510  0.5165  0.2494
25370SOL    HW279388   3.878   8.095   7.630 -0.2769  0.3791 -0.2664
25371SOL     OW79389  10.726   6.279   6.456 -0.2376  0.5210 -0.0718
25371SOL    HW179390  10.741   6.265   6.549  0.8292 -0.9908 -0.4331
25371SOL    HW279391  10.753   6.370   6.440  1.8012  0.0817  0.6819
25372SOL     OW79392   8.441   7.893   1.466 -0.3697  0.9267  0.2269
25372SOL    HW179393   8.511   7.848   1.512 -0.3539  1.1705  0.4463
25372SOL    HW279394   8.417   7.834   1.394 -0.4564  0.5023  0.6015
25373SOL     OW79395   4.408   5.798   6.906  0.8403  0.1903  0.2160
25373SOL    HW179396   4.389   5.867   6.970 -0.5259  2.0990 -2.0723
25373SOL    HW279397   4.353   5.725   6.933  0.1785  1.0036  1.1478
25374SOL     OW79398   1.419   6.187   9.898 -1.2497 -0.4020  0.5117
25374SOL    HW179399   1.402   6.103   9.941  0.3237 -1.2735 -0.4651
25374SOL    HW279400   1.336   6.234   9.903 -1.6320 -1.1923  2.8536
25375SOL     OW79401   7.058  10.317  11.120  0.4383  0.0957  0.3864
25375SOL    HW179402   6.973  10.296  11.079  0.6140 -0.5432  0.3518
25375SOL    HW279403   7.038  10.389  11.180 -0.1592 -0.1412  0.4800
25376SOL     OW79404   5.570   3.917   4.213 -0.6691 -0.0304 -0.0709
25376SOL    HW179405   5.573   3.892   4.306  2.2431  0.2462 -0.0114
25376SOL    HW279406   5.563   4.012   4.215 -0.3770 -0.0081 -0.1330
25377SOL     OW79407   6.633   6.378   4.406 -0.4538 -0.4271 -0.2082
25377SOL    HW179408   6.693   6.413   4.472  1.6411 -2.3528 -0.9321
25377SOL    HW279409   6.602   6.455   4.358  0.8020  0.7214  0.7516
25378SOL     OW79410   5.551   8.286  10.344  0.1023 -0.1455  0.3507
25378SOL    HW179411   5.621   8.303  10.406  0.4311  0.1081 -0.0792
25378SOL    HW279412   5.529   8.372  10.309  1.0880 -0.4556 -1.1167
25379SOL     OW79413  10.475   6.383   8.453  0.3248  0.3681  0.0713
25379SOL    HW179414  10.501   6.314   8.514  2.9600  0.1555 -1.1518
25379SOL    HW279415  10.404   6.429   8.497 -0.7860 -2.3997  1.4138
25380SOL     OW79416   2.334   9.723   5.928 -0.5126 -0.5041 -0.5861
25380SOL    HW179417   2.323   9.629   5.914  2.4082 -1.1861  1.0336
25380SOL    HW279418   2.415   9.731   5.977 -1.4469  2.7940  0.6887
25381SOL     OW79419   3.369   9.143   2.522 -0.1674 -0.6029 -0.2450
25381SOL    HW179420   3.432   9.147   2.594  1.7403 -0.1159 -1.8300
25381SOL    HW279421   3.328   9.230   2.521  0.7286 -0.1714 -0.5017
25382SOL     OW79422   0.101   1.860  11.236 -0.0515 -0.3144  0.2955
25382SOL    HW179423   0.144   1.914  11.302  0.2983  1.7470 -1.4943
25382SOL    HW279424   0.011   1.894  11.233 -0.0357 -0.3167 -0.3428
25383SOL     OW79425   7.028   4.057  10.103  0.6573  0.3597  0.3022
25383SOL    HW179426   7.064   4.121  10.040 -1.0033 -1.9020 -3.2772
25383SOL    HW279427   7.103   4.002  10.126  0.9844  0.0764 -1.3177
25384SOL     OW79428   0.673   1.577   9.668 -0.4830 -0.4695 -0.7025
25384SOL    HW179429   0.644   1.552   9.756  1.0843  0.3000  0.0590
25384SOL    HW279430   0.709   1.496   9.631  2.2344 -0.0338  0.7941
25385SOL     OW79431   0.332   2.873   8.511 -0.0611  0.4683  0.1944
25385SOL    HW179432   0.404   2.811   8.498 -0.6852 -0.0408 -0.9691
25385SOL    HW279433   0.353   2.916   8.593  1.1476 -0.2568  0.2971
25386SOL     OW79434   9.594   4.970   4.183  0.3561  0.4636  0.0109
25386SOL    HW179435   9.540   4.891   4.185  0.2718  0.5233  0.0978
25386SOL    HW279436   9.602   4.991   4.090  0.3963  0.3408 -0.0138
25387SOL     OW79437   0.729   9.442   0.576  0.1182  0.1112  0.0827
25387SOL    HW179438   0.734   9.437   0.481 -1.7836  1.4188 -0.1481
25387SOL    HW279439   0.636   9.435   0.596  0.5258 -0.7154  1.9119
25388SOL     OW79440   2.095   1.937   9.953  0.2470 -0.3600  0.7387
25388SOL    HW179441   2.003   1.958   9.945  0.1467 -0.5998  1.2128
25388SOL    HW279442   2.131   2.005  10.010  0.9289  1.2723 -1.5149
25389SOL     OW79443   2.938   8.646   0.821 -0.0371 -0.0502 -0.1917
25389SOL    HW179444   2.892   8.565   0.842 -1.6625  1.2803  1.6998
25389SOL    HW279445   2.941   8.647   0.725 -3.0879 -0.7148 -0.3951
25390SOL     OW79446  11.298   3.526   4.274  0.0333 -0.4694 -0.2626
25390SOL    HW179447  11.358   3.537   4.349 -0.0236  0.9115 -0.3904
25390SOL    HW279448  11.228   3.471   4.307  0.7218 -1.0314  0.2853
25391SOL     OW79449   1.769  10.108   2.891  0.1818 -0.2972  0.2588
25391SOL    HW179450   1.847  10.068   2.853 -1.0705 -1.3361 -1.3570
25391SOL    HW279451   1.786  10.202   2.890  0.9524 -0.4327 -1.1691
25392SOL     OW79452   1.564   4.500   4.559  0.1741 -0.5490  0.3731
25392SOL    HW179453   1.603   4.425   4.604  1.5750  1.1096  2.1211
25392SOL    HW279454   1.537   4.466   4.474  2.2203 -2.6630  0.4551
25393SOL     OW79455   9.025   6.958   6.697  0.7658  0.7864 -0.0973
25393SOL    HW179456   9.022   7.010   6.617 -0.2839  0.0260 -0.5775
25393SOL    HW279457   9.111   6.977   6.735  0.1529  3.4657  0.1717
25394SOL     OW79458   1.218   2.764   7.952 -0.1411  0.7159  0.1991
25394SOL    HW179459   1.279   2.807   7.892  1.4322 -1.2487  0.3183
25394SOL    HW279460   1.256   2.777   8.038 -0.3251  0.1803  0.3620
25395SOL     OW79461   5.351   6.476   7.378 -0.1241  0.4429  0.7420
25395SOL    HW179462   5.360   6.391   7.420 -0.5170 -0.4723 -0.9265
25395SOL    HW279463   5.257   6.495   7.382 -0.4542 -0.5373 -1.2707
25396SOL     OW79464   6.387   6.480   6.893 -0.1190 -0.5663  0.2989
25396SOL    HW179465   6.319   6.464   6.828 -0.6981 -0.0012  0.7565
25396SOL    HW279466   6.402   6.574   6.890  0.9078 -0.7271 -0.0469
25397SOL     OW79467   6.256   4.717   5.918 -0.6290  0.0112 -0.1772
25397SOL    HW179468   6.250   4.706   6.013  0.8440 -0.3454 -0.1019
25397SOL    HW279469   6.165   4.727   5.889 -1.1761 -0.8588  1.1479
25398SOL     OW79470   8.082   1.574  10.707  0.0372  0.0188 -0.2540
25398SOL    HW179471   8.146   1.541  10.644 -1.2217  0.2768 -1.7164
25398SOL    HW279472   8.011   1.610  10.653 -1.7196 -0.9561  1.2888
25399SOL     OW79473  11.211   5.875   2.978  0.0194  0.6142 -0.4341
25399SOL    HW179474  11.150   5.810   3.012 -0.7343  1.4467 -0.1560
25399SOL    HW279475  11.243   5.837   2.896 -0.0565 -0.3001 -0.0541
25400SOL     OW79476   7.175   6.571   3.994  0.5433 -0.4012  0.1511
25400SOL    HW179477   7.269   6.575   3.980  0.5655 -1.0383  0.0909
25400SOL    HW279478   7.163   6.504   4.061  0.2018  0.3827  0.8916
25401SOL     OW79479   2.882   9.009   2.541 -0.1741 -0.1379  0.0167
25401SOL    HW179480   2.794   9.049   2.536 -0.3815 -0.6393 -0.3731
25401SOL    HW279481   2.886   8.951   2.466 -0.1052 -1.3170  0.9118
25402SOL     OW79482   6.109  10.667  10.533 -0.2261 -0.6272  0.1551
25402SOL    HW179483   6.094  10.761  10.545 -0.6865 -0.7159  0.2830
25402SOL    HW279484   6.153  10.639  10.613  0.6447 -0.3688 -0.2122
25403SOL     OW79485   4.924  10.265   7.051 -0.1780  0.6548  0.0079
25403SOL    HW179486   4.971  10.346   7.031  0.2181  0.2794 -0.6182
25403SOL    HW279487   4.836  10.293   7.076 -0.6691  1.1806 -2.1144
25404SOL     OW79488   5.337   3.128   0.633 -0.1682  0.1611  0.4605
25404SOL    HW179489   5.267   3.090   0.687  1.0156 -2.2610  0.3836
25404SOL    HW279490   5.302   3.124   0.543 -0.9607  1.4889  0.6740
25405SOL     OW79491   7.802   7.429   0.636 -0.0248  0.2491  0.5690
25405SOL    HW179492   7.885   7.432   0.685  0.6780 -0.1043 -0.5531
25405SOL    HW279493   7.744   7.489   0.683  1.1963  1.2968  0.7812
25406SOL     OW79494   7.185   8.036   4.959  0.5097  0.2207  0.3532
25406SOL    HW179495   7.198   8.060   4.867  0.2978 -1.5022 -0.1661
25406SOL    HW279496   7.148   7.947   4.955 -0.8689  0.6634  2.0597
25407SOL     OW79497   1.799   5.313   6.890  0.2827 -0.0153  0.0575
25407SOL    HW179498   1.850   5.232   6.890 -0.9388 -0.9192 -2.6983
25407SOL    HW279499   1.708   5.284   6.893 -0.1601  1.2748 -0.3920
25408SOL     OW79500   9.071   7.737   7.534  0.4246 -0.0509 -0.4355
25408SOL    HW179501   9.046   7.825   7.505 -0.1466  0.9692  2.7119
25408SOL    HW279502   9.163   7.745   7.558  0.4676 -0.3997 -0.4884
25409SOL     OW79503   8.247   2.326   0.177 -0.7341 -0.0927  0.1263
25409SOL    HW179504   8.204   2.406   0.147 -0.2102 -0.0262 -0.4727
25409SOL    HW279505   8.187   2.289   0.241 -1.0059  0.7557  0.3818
25410SOL     OW79506  10.795   0.457   7.677  0.0166 -0.3413  0.1724
25410SOL    HW179507  10.879   0.411   7.681  0.4457  0.4792  0.8371
25410SOL    HW279508  10.807   0.524   7.609  0.5757  1.0534  1.6005
25411SOL     OW79509  10.783  10.026   8.372  0.5810 -0.0112  0.2092
25411SOL    HW179510  10.808  10.007   8.282 -1.2462 -0.6097 -0.2145
25411SOL    HW279511  10.784  10.121   8.378 -0.0867  0.0663 -0.7104
25412SOL     OW79512   4.767  10.634   6.579 -0.2565 -0.0792  0.8335
25412SOL    HW179513   4.788  10.727   6.567  1.3295 -0.7086 -2.1334
25412SOL    HW279514   4.703  10.615   6.512  0.7231 -1.4857  0.2626
25413SOL     OW79515  10.524   3.873   6.355 -0.5020 -0.8959 -0.4264
25413SOL    HW179516  10.546   3.905   6.268  0.8004 -1.9601 -0.5202
25413SOL    HW279517  10.546   3.945   6.414 -0.1588 -0.6342 -0.8723
25414SOL     OW79518   4.861   9.332   4.246  0.1212  0.7016 -0.6247
25414SOL    HW179519   4.949   9.297   4.262 -0.4090 -0.8419 -0.9457
25414SOL    HW279520   4.818   9.326   4.331  0.4766  1.9698 -0.3371
25415SOL     OW79521   1.624   8.088   2.630 -0.0665  0.1589 -0.6290
25415SOL    HW179522   1.591   8.022   2.690  0.1568  0.8619  0.3058
25415SOL    HW279523   1.713   8.106   2.661  0.2836  0.0815 -1.5647
25416SOL     OW79524   6.054   7.626   6.161  0.3171  0.2266 -0.0094
25416SOL    HW179525   5.995   7.554   6.144  0.9232 -0.0222 -1.1722
25416SOL    HW279526   5.997   7.702   6.175 -0.2719 -0.0101 -1.0787
25417SOL     OW79527   4.460   1.844   4.795 -0.1477  0.0561 -0.2060
25417SOL    HW179528   4.394   1.906   4.763 -0.8344 -0.8323 -0.5451
25417SOL    HW279529   4.532   1.900   4.826 -0.7538  1.0201 -0.4854
25418SOL     OW79530   3.503   7.410   4.073  0.4618  0.1472  0.1546
25418SOL    HW179531   3.484   7.483   4.013 -0.1488 -0.2571 -0.1622
25418SOL    HW279532   3.483   7.444   4.160 -0.7880  0.0658 -0.0824
25419SOL     OW79533   5.120   9.781   2.062  0.4571 -0.5091  0.1807
25419SOL    HW179534   5.174   9.835   2.004 -0.2547  0.9368  0.8013
25419SOL    HW279535   5.036   9.774   2.017  0.1798 -0.1176  0.6350
25420SOL     OW79536   8.174   7.535   0.137 -0.6091  0.7321  0.4430
25420SOL    HW179537   8.153   7.590   0.061 -0.2902  0.1694 -0.0606
25420SOL    HW279538   8.151   7.447   0.110  0.2382  0.4132  0.7055
25421SOL     OW79539   8.405   7.181   9.119 -0.3656  0.6233 -0.2120
25421SOL    HW179540   8.443   7.096   9.099  0.5873  1.3628 -1.6880
25421SOL    HW279541   8.350   7.165   9.196 -0.8652 -1.4784 -0.9584
25422SOL     OW79542   2.180   7.831   2.487 -0.2515 -0.3017  0.3511
25422SOL    HW179543   2.126   7.902   2.453  1.3761  0.3622 -1.0168
25422SOL    HW279544   2.253   7.876   2.531 -0.2142 -1.1529  1.2007
25423SOL     OW79545   2.149   2.178  10.178 -0.5358  0.6994 -1.1583
25423SOL    HW179546   2.067   2.156  10.223  0.9143 -0.4233  1.1425
25423SOL    HW279547   2.185   2.250  10.229  1.2478 -0.7066 -0.3228
25424SOL     OW79548   9.571  10.041   8.636  0.3503 -0.0732 -0.2977
25424SOL    HW179549   9.558  10.114   8.696  1.2618  0.1199 -0.3228
25424SOL    HW279550   9.586   9.966   8.694  0.4369 -0.0452 -0.2841
25425SOL     OW79551   9.427   2.234   1.738 -0.2395  0.3000  0.3199
25425SOL    HW179552   9.489   2.290   1.691  0.7785 -0.1443  1.0851
25425SOL    HW279553   9.343   2.276   1.727  0.6387  2.5991  1.7375
25426SOL     OW79554   7.057   5.753  10.836 -0.1063  0.0230 -0.1337
25426SOL    HW179555   7.102   5.838  10.836 -0.6789  0.5652 -4.1532
25426SOL    HW279556   6.965   5.775  10.853  0.1979 -0.3557  2.3519
25427SOL     OW79557  10.113   6.537   5.741  0.0576 -0.2956 -0.0601
25427SOL    HW179558  10.089   6.509   5.653  1.8879  0.9166 -1.0304
25427SOL    HW279559  10.195   6.587   5.728 -0.3837  1.1349  2.1356
25428SOL     OW79560   5.832   5.843   2.450 -0.0977  0.6160 -0.3419
25428SOL    HW179561   5.797   5.921   2.494  0.5253  0.6284  0.1495
25428SOL    HW279562   5.754   5.793   2.425 -0.5255  1.6110 -1.0772
25429SOL     OW79563   5.810   4.721   6.518  0.3834  0.2301 -0.4407
25429SOL    HW179564   5.802   4.815   6.502  0.9048  0.3063 -0.2889
25429SOL    HW279565   5.824   4.713   6.613 -1.1757 -0.1127 -0.2137
25430SOL     OW79566   9.878   6.685  10.531 -0.3153  0.4512  0.2423
25430SOL    HW179567   9.957   6.645  10.568  1.0210  2.1446 -0.6289
25430SOL    HW279568   9.833   6.723  10.607 -0.1378 -0.2661  0.7132
25431SOL     OW79569   6.296   7.009   4.975 -0.4641  0.5182 -0.0486
25431SOL    HW179570   6.377   6.980   5.016  0.2908  0.6011 -1.4253
25431SOL    HW279571   6.230   6.946   5.004  0.2674 -0.0653  0.3787
25432SOL     OW79572   7.572   3.527   3.071 -0.3185 -0.4619 -0.3759
25432SOL    HW179573   7.504   3.542   3.006 -0.5994  0.0653  0.0292
25432SOL    HW279574   7.638   3.593   3.052  0.1355 -1.0382 -0.8320
25433SOL     OW79575   1.513   5.967   3.989  0.3410  0.3530 -0.3999
25433SOL    HW179576   1.513   6.050   3.941 -0.4155  0.6936  0.1551
25433SOL    HW279577   1.588   5.973   4.047 -0.7998  1.5225  1.0377
25434SOL     OW79578   7.780   7.942   1.063 -0.2587  0.2567  0.0701
25434SOL    HW179579   7.685   7.946   1.077 -0.5681 -0.1939 -1.6235
25434SOL    HW279580   7.804   7.851   1.083 -0.6493 -0.3068 -1.7977
25435SOL     OW79581   3.583  10.392  10.232  0.7079  0.3470 -0.4468
25435SOL    HW179582   3.539  10.453  10.290  0.6115  0.0864 -0.2412
25435SOL    HW279583   3.511  10.353  10.181  0.4339 -1.5467  1.2627
25436SOL     OW79584  11.233   8.527   9.580 -0.2334  0.0638  0.2208
25436SOL    HW179585  11.326   8.547   9.565 -0.0550 -0.9561 -0.1123
25436SOL    HW279586  11.187   8.583   9.518  0.1446  0.7634  0.5631
25437SOL     OW79587   6.127   6.541   4.651 -0.0552  0.1345  0.5479
25437SOL    HW179588   6.214   6.536   4.612 -0.4198  0.1763 -0.2822
25437SOL    HW279589   6.130   6.479   4.724  1.5250  2.0604  2.2660
25438SOL     OW79590   1.442   6.321   4.530 -0.9179 -0.1561 -0.6707
25438SOL    HW179591   1.436   6.336   4.624  1.2536 -0.7099 -0.3715
25438SOL    HW279592   1.427   6.407   4.490  0.6423  0.6341  0.3563
25439SOL     OW79593   0.307   1.712   3.892  0.7861  0.0871 -0.4497
25439SOL    HW179594   0.380   1.669   3.847 -0.3154 -1.0403 -1.2448
25439SOL    HW279595   0.294   1.660   3.971 -1.3496 -2.0081 -2.0079
25440SOL     OW79596  10.518   2.306  10.950 -0.2468 -0.5690  0.4303
25440SOL    HW179597  10.579   2.370  10.988 -3.1134  2.0846  0.9763
25440SOL    HW279598  10.554   2.287  10.864  2.3421 -0.7173  1.4470
25441SOL     OW79599   5.684   2.440   3.599 -0.5467 -0.0128  0.5040
25441SOL    HW179600   5.719   2.469   3.683  2.2640 -0.2191 -0.4872
25441SOL    HW279601   5.734   2.361   3.578 -1.5676 -0.2795 -1.1098
25442SOL     OW79602   1.971   4.218   7.811 -1.0052  0.0202  0.1971
25442SOL    HW179603   1.937   4.139   7.769 -0.3621  0.1301 -0.5559
25442SOL    HW279604   1.894   4.260   7.850 -1.5746 -0.2269 -0.6468
25443SOL     OW79605  11.236   2.518   7.879  0.4650  0.6191  0.0366
25443SOL    HW179606  11.271   2.603   7.853  1.5110  0.6656  1.4540
25443SOL    HW279607  11.312   2.469   7.910 -0.4183 -0.0144  1.3209
25444SOL     OW79608   0.716   4.109  10.691  0.2215  0.2506 -0.0386
25444SOL    HW179609   0.700   4.170  10.619  0.0512  1.6255  1.1153
25444SOL    HW279610   0.787   4.053  10.660  0.6014  1.2456 -1.0389
25445SOL     OW79611   3.280   8.342   4.861  0.2179  0.4232  0.3283
25445SOL    HW179612   3.211   8.407   4.874 -1.9885 -2.2046  3.0870
25445SOL    HW279613   3.262   8.305   4.774 -0.1456  1.5907 -0.1101
25446SOL     OW79614  10.049   5.293   5.323  0.1911  0.3279  0.7693
25446SOL    HW179615  10.079   5.210   5.359 -0.0994 -0.6276 -1.0933
25446SOL    HW279616   9.968   5.312   5.370 -0.5790 -1.2642  0.1528
25447SOL     OW79617   9.292   0.390  11.292 -0.8999  0.3329  0.3909
25447SOL    HW179618   9.276   0.485  11.297  0.7415  0.8476 -2.1842
25447SOL    HW279619   9.381   0.383  11.259 -1.1359 -2.1371  0.1492
25448SOL     OW79620   1.277   0.858   6.718 -0.7673  0.3436 -0.3678
25448SOL    HW179621   1.311   0.891   6.635 -2.3213  0.4007 -1.0233
25448SOL    HW279622   1.325   0.905   6.785  1.0013 -0.1846 -1.2095
25449SOL     OW79623   5.472  11.145   5.288 -0.2444  0.0401  0.0220
25449SOL    HW179624   5.444  11.061   5.324  1.0189  0.0370  1.1022
25449SOL    HW279625   5.537  11.177   5.351 -1.7641  2.5378  0.4231
25450SOL     OW79626   2.936   9.386   4.917  0.3626  0.1626  0.3721
25450SOL    HW179627   3.009   9.393   4.855 -0.2070  0.2072 -0.2995
25450SOL    HW279628   2.978   9.389   5.003  1.1487  0.2690 -0.0048
25451SOL     OW79629   5.062   0.216   7.085  0.5763  0.3181  0.1150
25451SOL    HW179630   5.146   0.199   7.126  0.7314 -1.0900 -0.7108
25451SOL    HW279631   5.076   0.295   7.033  1.1330  0.5913  0.6711
25452SOL     OW79632   0.503   0.260   6.543 -0.1054 -0.0929 -0.3219
25452SOL    HW179633   0.561   0.245   6.617  0.0432 -1.8800 -0.7749
25452SOL    HW279634   0.529   0.346   6.510  0.0180  0.6113  1.4908
25453SOL     OW79635   1.304   6.214   8.683 -0.0764 -0.3586  0.2478
25453SOL    HW179636   1.280   6.306   8.688  0.8044 -0.0762 -0.3843
25453SOL    HW279637   1.396   6.215   8.656 -0.5223 -1.4312 -1.4420
25454SOL     OW79638   0.846   3.752   6.988 -0.5505 -0.3004 -0.4873
25454SOL    HW179639   0.768   3.761   6.934 -0.1089 -0.4282 -1.1575
25454SOL    HW279640   0.850   3.659   7.010 -0.1453 -0.4450 -1.1408
25455SOL     OW79641   2.057   8.271   6.317 -0.0674 -0.6868 -0.2720
25455SOL    HW179642   1.971   8.244   6.348 -0.0429 -2.0547 -1.3014
25455SOL    HW279643   2.112   8.269   6.395 -1.3133  2.1231  0.8321
25456SOL     OW79644   0.794   7.995   9.104 -0.0400  0.3612 -0.2811
25456SOL    HW179645   0.813   8.081   9.067 -0.8167 -0.3026 -2.4143
25456SOL    HW279646   0.710   8.005   9.147  0.1627  0.8130  0.0104
25457SOL     OW79647   4.003   3.523   0.934 -0.1569 -0.2671 -0.3844
25457SOL    HW179648   4.032   3.607   0.967 -1.7270 -0.2256  1.0093
25457SOL    HW279649   3.923   3.542   0.885 -1.5670 -1.0913  1.4752
25458SOL     OW79650   9.652   9.064   5.982  0.4854  0.0750 -0.0873
25458SOL    HW179651   9.674   9.103   6.066 -1.4905  2.3527 -0.5400
25458SOL    HW279652   9.557   9.070   5.975  0.4125 -1.7225 -1.7368
25459SOL     OW79653   1.829   8.205  11.227  0.1049 -0.5267 -0.6471
25459SOL    HW179654   1.885   8.277  11.255 -1.4057  0.6827 -0.5638
25459SOL    HW279655   1.789   8.173  11.307 -0.0663 -0.7198 -0.8104
25460SOL     OW79656   3.123   4.997   3.436 -0.1724 -0.1880 -0.1774
25460SOL    HW179657   3.044   4.996   3.490  0.0858  1.3047  0.2834
25460SOL    HW279658   3.164   4.912   3.451 -0.4754 -0.0778  1.4391
25461SOL     OW79659   1.393   5.160   3.339 -0.2106  0.7319 -0.1836
25461SOL    HW179660   1.340   5.215   3.397 -2.2439  0.4248 -1.6201
25461SOL    HW279661   1.459   5.122   3.396 -1.5489  1.1419  1.7581
25462SOL     OW79662  10.498   6.873   5.485  0.2465 -0.6662  0.1777
25462SOL    HW179663  10.546   6.824   5.418  1.1188 -0.0019  0.3038
25462SOL    HW279664  10.545   6.856   5.566  0.1650 -0.1665  0.3344
25463SOL     OW79665   1.853   1.524   4.728  0.4092 -0.5345 -0.5631
25463SOL    HW179666   1.894   1.438   4.720  0.6028 -0.4481 -0.5074
25463SOL    HW279667   1.816   1.541   4.641  0.4246 -0.6459 -0.5917
25464SOL     OW79668  10.068   6.973   1.197  0.6602  0.1641  0.7408
25464SOL    HW179669   9.984   6.935   1.170  1.4794 -0.9048 -0.3815
25464SOL    HW279670  10.053   7.067   1.193 -0.7000  0.0042  1.2721
25465SOL     OW79671   4.223   9.827  10.966 -0.6755  0.4171 -0.1466
25465SOL    HW179672   4.210   9.756  11.029  0.9778  0.7870  0.6862
25465SOL    HW279673   4.179   9.798  10.887 -0.0797 -1.5466  0.1785
25466SOL     OW79674   4.050   3.698   4.464 -0.2830  0.2520  0.6700
25466SOL    HW179675   3.985   3.767   4.459 -0.9212 -0.4227 -1.2209
25466SOL    HW279676   4.134   3.743   4.458 -0.7001  0.8775 -1.2493
25467SOL     OW79677   3.186   2.857   3.834 -0.0707 -0.1387 -0.0250
25467SOL    HW179678   3.157   2.948   3.841 -0.4229 -0.2601  0.1556
25467SOL    HW279679   3.252   2.847   3.902  0.7725  0.2817 -0.7757
25468SOL     OW79680   7.586   2.965   7.293 -0.6131 -0.0125 -0.4287
25468SOL    HW179681   7.609   2.879   7.260 -0.6447  0.1922 -0.9908
25468SOL    HW279682   7.584   2.954   7.388  0.1571 -0.4385 -0.4489
25469SOL     OW79683   2.304   6.397   4.174 -0.5070 -0.0076  0.0516
25469SOL    HW179684   2.354   6.325   4.135  0.1154 -0.1449  1.0610
25469SOL    HW279685   2.272   6.447   4.099  1.3014  0.1889 -0.6552
25470SOL     OW79686   5.876  11.171   8.035  0.0734  0.2091  0.0084
25470SOL    HW179687   5.818  11.123   7.976 -1.8820 -0.2471  2.1584
25470SOL    HW279688   5.946  11.109   8.054 -0.0582 -0.1645 -0.6687
25471SOL     OW79689   9.991   2.045   7.713  0.4460 -0.3030 -0.2780
25471SOL    HW179690   9.947   2.095   7.781 -0.2730  1.3644 -1.8831
25471SOL    HW279691   9.922   1.992   7.674  0.7611 -0.9093 -0.0290
25472SOL     OW79692   1.726   0.800   1.494  0.4053 -0.2946  0.0307
25472SOL    HW179693   1.657   0.833   1.552 -0.5896 -1.4894 -0.4300
25472SOL    HW279694   1.787   0.873   1.486 -1.9495  1.6680 -1.3920
25473SOL     OW79695   8.379   4.587  10.934  0.2268  0.3374 -0.4807
25473SOL    HW179696   8.404   4.630  10.853  0.7403  1.5021  0.2626
25473SOL    HW279697   8.411   4.497  10.925  0.9371  0.6598 -1.2516
25474SOL     OW79698   3.915  10.186  10.392  0.4831 -0.4744 -0.5028
25474SOL    HW179699   3.868  10.258  10.435  0.6073 -0.4448 -0.4163
25474SOL    HW279700   3.956  10.138  10.464 -1.6661 -2.1426 -0.2630
25475SOL     OW79701   5.231   5.579  10.264 -0.1947  0.3825 -0.3611
25475SOL    HW179702   5.272   5.663  10.247  1.2493 -0.0939  0.5841
25475SOL    HW279703   5.264   5.521  10.196 -0.7502  0.4366 -0.6823
25476SOL     OW79704  10.906   1.200   3.802 -0.6403  0.5908  0.1862
25476SOL    HW179705  10.961   1.277   3.790 -2.3283  1.7309 -0.5040
25476SOL    HW279706  10.870   1.208   3.890 -0.0773  0.0619  0.4780
25477SOL     OW79707   8.143   6.755   6.400 -0.4323 -0.0975 -0.0843
25477SOL    HW179708   8.056   6.720   6.382  0.6544 -2.0487 -2.1858
25477SOL    HW279709   8.171   6.710   6.480 -1.4892  0.9084  0.8795
25478SOL     OW79710  10.754   8.294   6.429  0.4342  0.7587 -0.3090
25478SOL    HW179711  10.743   8.373   6.481  0.5470  1.1294 -0.8348
25478SOL    HW279712  10.692   8.231   6.466 -2.0007  2.0851 -1.8601
25479SOL     OW79713   7.297   4.180   6.574  0.3635  0.0690  0.2177
25479SOL    HW179714   7.351   4.229   6.636  1.4307  1.3151 -1.6435
25479SOL    HW279715   7.342   4.096   6.564  0.7763  0.2784  0.2964
25480SOL     OW79716   8.829   8.207   7.615  0.1700  0.2270  0.6186
25480SOL    HW179717   8.765   8.276   7.632  2.1816  2.6548 -1.0630
25480SOL    HW279718   8.799   8.166   7.534  0.3463  0.8783  0.2191
25481SOL     OW79719   5.718   4.080   0.471  0.1747 -0.5495 -0.9502
25481SOL    HW179720   5.634   4.066   0.515  0.3275  1.6282  0.1609
25481SOL    HW279721   5.780   4.030   0.523 -0.3174 -1.7363 -1.4629
25482SOL     OW79722   7.434   4.338   6.757  0.5639 -0.5099  0.4144
25482SOL    HW179723   7.424   4.348   6.852 -0.7129  0.5094  0.2093
25482SOL    HW279724   7.508   4.395   6.735  1.0673 -0.9960  0.8357
25483SOL     OW79725   4.251   6.960   3.276 -0.0708 -0.6599  0.3585
25483SOL    HW179726   4.196   6.946   3.353 -2.9638 -0.7537 -1.5278
25483SOL    HW279727   4.260   7.055   3.270  0.2593 -0.6600  0.8777
25484SOL     OW79728  10.303   6.862  11.189  0.0995  0.3149 -0.5330
25484SOL    HW179729  10.388   6.861  11.145  1.3776  0.9154  1.7684
25484SOL    HW279730  10.318   6.912  11.269 -1.6794 -1.9193  1.3358
25485SOL     OW79731   8.905   9.460   2.196  0.2552 -0.0791 -0.0585
25485SOL    HW179732   8.997   9.485   2.203 -0.4019  2.0531  2.6490
25485SOL    HW279733   8.857   9.535   2.232 -2.4829 -1.6339 -0.1846
25486SOL     OW79734   1.090   8.909   2.709  0.0454 -0.7016 -0.0032
25486SOL    HW179735   1.169   8.863   2.738  0.4678  0.5553  0.9636
25486SOL    HW279736   1.033   8.908   2.785  0.4504  1.1387  0.3776
25487SOL     OW79737   6.161   4.226  11.251  0.0121 -0.5150  0.1922
25487SOL    HW179738   6.130   4.247  11.163  0.5776 -1.6460 -0.2917
25487SOL    HW279739   6.102   4.274  11.309  0.0962  0.8490 -0.8105
25488SOL     OW79740   5.590   6.268   9.768  0.4187  0.2315  0.6113
25488SOL    HW179741   5.678   6.240   9.741  0.9082  2.4430 -0.3454
25488SOL    HW279742   5.598   6.288   9.861  0.6322 -0.5818  0.7743
25489SOL     OW79743   4.012  10.801   2.933  0.0902  0.0027  0.2094
25489SOL    HW179744   4.060  10.817   3.014  1.4048  0.0832 -0.5376
25489SOL    HW279745   4.026  10.707   2.916  3.8292  0.7468 -2.2066
25490SOL     OW79746   2.428  10.928  10.100 -0.2103 -0.0095 -0.1824
25490SOL    HW179747   2.488  10.854  10.091  0.5429  0.5879 -0.1222
25490SOL    HW279748   2.362  10.897  10.162 -0.0655 -0.7312 -0.3744
25491SOL     OW79749  10.496   0.231   9.394  0.0231  0.3245 -0.7335
25491SOL    HW179750  10.556   0.301   9.418 -1.3674  1.0273  0.8908
25491SOL    HW279751  10.429   0.231   9.463 -0.6019 -1.9182 -1.2463
25492SOL     OW79752   8.524   4.500   2.051  0.1321  0.4663 -0.4131
25492SOL    HW179753   8.600   4.490   1.994  0.4116  0.8440 -0.1174
25492SOL    HW279754   8.516   4.595   2.064 -0.0227  0.3951  0.0444
25493SOL     OW79755   3.376   1.665   8.011  0.1347 -0.4098  0.5344
25493SOL    HW179756   3.456   1.717   8.013 -0.2947  0.4394 -1.5010
25493SOL    HW279757   3.319   1.711   7.949 -0.6796 -2.7233 -0.5503
25494SOL     OW79758   8.530   3.630   6.974  0.0037  0.5904  0.6430
25494SOL    HW179759   8.596   3.607   6.908 -0.2541  0.4320  0.4380
25494SOL    HW279760   8.506   3.546   7.013 -1.5172  0.3746 -0.6465
25495SOL     OW79761  10.829   0.090   9.878  0.3839  0.6328 -0.7346
25495SOL    HW179762  10.903   0.118   9.933  0.0913 -1.9021  1.1654
25495SOL    HW279763  10.754   0.136   9.915  0.7156  1.8223 -1.4959
25496SOL     OW79764   6.306  10.426   6.499 -0.6810 -0.3298  0.1176
25496SOL    HW179765   6.350  10.509   6.482 -1.1908  0.7831  3.4980
25496SOL    HW279766   6.233  10.424   6.437 -0.2336  1.3881 -0.5274
25497SOL     OW79767   5.333   5.021   2.879  0.1162  0.6918  0.4514
25497SOL    HW179768   5.254   4.988   2.836 -0.2773  0.6185  1.2100
25497SOL    HW279769   5.388   4.944   2.892  0.0521  0.6494  0.4672
25498SOL     OW79770   0.798   5.361   1.590 -0.1527 -0.2904 -0.4633
25498SOL    HW179771   0.710   5.366   1.553 -0.0967  1.0775 -0.4381
25498SOL    HW279772   0.820   5.267   1.586 -0.8273 -0.4057 -2.2894
25499SOL     OW79773  10.776   2.294   6.412  0.3146  0.1217 -0.2982
25499SOL    HW179774  10.763   2.361   6.345  0.3542 -0.1136 -0.5449
25499SOL    HW279775  10.709   2.228   6.394  0.7053 -0.2303 -0.4730
25500SOL     OW79776   0.319   1.174   0.003  0.3830  0.5411 -0.7978
25500SOL    HW179777   0.341   1.094   0.050 -0.0301  0.2100 -1.1681
25500SOL    HW279778   0.371   1.171  -0.077  0.0872  0.4603 -0.9886
25501SOL     OW79779  10.893   5.598   8.641 -0.7381 -0.3091  0.1922
25501SOL    HW179780  10.930   5.578   8.555 -1.0382  0.1555 -0.0495
25501SOL    HW279781  10.830   5.527   8.657 -0.7645 -0.3351 -0.0236
25502SOL     OW79782   5.755   1.810   0.868 -0.0083 -0.5600 -0.3522
25502SOL    HW179783   5.817   1.846   0.932 -1.7070  0.2346  0.9289
25502SOL    HW279784   5.719   1.887   0.824 -0.4187 -0.9815 -0.7606
25503SOL     OW79785   7.949   4.930   2.007 -0.2872  0.0553  0.0591
25503SOL    HW179786   7.978   4.877   1.934 -2.3078  1.1389 -1.6494
25503SOL    HW279787   7.985   5.017   1.990  0.2090  0.0538  1.0144
25504SOL     OW79788   4.340   8.758   7.233  0.5716 -0.1800  0.4191
25504SOL    HW179789   4.434   8.746   7.245  0.6757 -0.1862 -0.3805
25504SOL    HW279790   4.332   8.818   7.159 -0.0585 -1.6208 -0.7303
25505SOL     OW79791  10.769   9.611   3.023  0.3971 -0.5309  0.2104
25505SOL    HW179792  10.827   9.541   2.996  0.9021 -0.8015  1.9193
25505SOL    HW279793  10.806   9.690   2.982  1.9910 -0.6992  1.2425
25506SOL     OW79794   6.145   2.470   0.972 -0.6706 -0.1989  0.0329
25506SOL    HW179795   6.160   2.562   0.996 -0.9957  0.4691 -2.1194
25506SOL    HW279796   6.169   2.421   1.051  0.8974  1.6310  0.7932
25507SOL     OW79797   7.713   6.384  10.150 -0.3880 -0.3566  0.0465
25507SOL    HW179798   7.796   6.361  10.110 -0.5124  0.9381 -1.0462
25507SOL    HW279799   7.730   6.383  10.244  0.5363 -1.2094 -0.1188
25508SOL     OW79800   4.833   5.416   1.560 -0.0956  0.6557 -0.0842
25508SOL    HW179801   4.754   5.443   1.513 -0.1650  2.2024  0.8658
25508SOL    HW279802   4.801   5.362   1.632 -0.0795 -0.7043 -1.0644
25509SOL     OW79803   5.179   4.064  10.218  0.1974  0.4138  0.2408
25509SOL    HW179804   5.113   4.122  10.256  1.0899  0.3572  2.0095
25509SOL    HW279805   5.257   4.080  10.271  0.9389 -1.1866 -0.3196
25510SOL     OW79806   1.094   0.805   4.866 -0.4939 -0.4926 -0.3209
25510SOL    HW179807   1.104   0.724   4.915 -0.3139  0.4231  1.2258
25510SOL    HW279808   1.003   0.832   4.882 -0.7401 -0.6672 -1.3151
25511SOL     OW79809   7.407   4.038   7.694  0.0441 -0.0512  0.3283
25511SOL    HW179810   7.321   4.005   7.718 -0.3830 -1.4404 -2.6203
25511SOL    HW279811   7.405   4.131   7.717 -2.8623  0.3267 -1.0214
25512SOL     OW79812  10.412   9.511   5.640  0.5721  0.6516 -0.0663
25512SOL    HW179813  10.375   9.436   5.593  0.1102  0.9488 -0.1919
25512SOL    HW279814  10.475   9.549   5.580  0.3765  0.7090 -0.2370
25513SOL     OW79815  10.794   7.941   0.171  0.0244  0.4313  0.4526
25513SOL    HW179816  10.889   7.925   0.165  0.1229  0.4401  1.7749
25513SOL    HW279817  10.787   8.033   0.195 -0.1958 -0.2011  3.0739
25514SOL     OW79818   9.057   6.249   2.961 -0.2880 -0.0354 -0.6184
25514SOL    HW179819   9.017   6.268   3.047 -1.6759  1.4302 -1.5294
25514SOL    HW279820   9.150   6.269   2.973 -1.0215  4.0136 -0.4129
25515SOL     OW79821   0.749   4.480   5.131 -0.0095  0.1316  0.4432
25515SOL    HW179822   0.805   4.556   5.146  1.1620 -0.2963 -1.4028
25515SOL    HW279823   0.704   4.499   5.049 -0.5022 -0.7103  0.5066
25516SOL     OW79824   7.743   3.311  10.301 -0.0448 -0.2578 -0.3234
25516SOL    HW179825   7.799   3.248  10.347 -0.5982  0.3332  1.2289
25516SOL    HW279826   7.785   3.396  10.314  1.4808 -0.3836 -3.6348
25517SOL     OW79827   0.902   8.833   7.099  0.1479 -0.0660 -0.3757
25517SOL    HW179828   0.872   8.917   7.066 -0.8623 -0.5257 -0.6532
25517SOL    HW279829   0.872   8.831   7.190 -0.5468 -0.4574 -0.6062
25518SOL     OW79830   6.396  10.566   0.204 -0.1135  0.2873  0.0601
25518SOL    HW179831   6.345  10.529   0.276 -0.8300 -2.1776 -1.6162
25518SOL    HW279832   6.334  10.621   0.156  0.0578  0.9629  0.5854
25519SOL     OW79833   7.270   4.565   4.309 -0.4664  0.2334  0.1824
25519SOL    HW179834   7.215   4.544   4.234 -1.1443  2.4917 -0.0384
25519SOL    HW279835   7.359   4.566   4.273 -0.6699  0.2087 -0.3411
25520SOL     OW79836   0.273   3.737   8.873 -0.2241  0.0349 -0.4894
25520SOL    HW179837   0.296   3.796   8.945 -1.1286 -0.8857  0.6092
25520SOL    HW279838   0.238   3.794   8.805  1.3106  0.9945 -0.4928
25521SOL     OW79839   5.262   1.882  10.587 -0.7144 -0.5954 -0.3794
25521SOL    HW179840   5.322   1.832  10.643 -0.6994 -0.6119 -0.4108
25521SOL    HW279841   5.294   1.972  10.592  0.0956 -0.8158 -1.4308
25522SOL     OW79842   2.275   4.051   8.127 -0.1047  0.6523  0.0241
25522SOL    HW179843   2.323   4.005   8.197 -0.2374  1.8625  0.9423
25522SOL    HW279844   2.250   3.982   8.066 -0.8500 -0.6001  1.6807
25523SOL     OW79845  10.950   2.501   6.091  0.7517  0.6569 -0.1222
25523SOL    HW179846  11.027   2.490   6.146  1.0831 -0.5798 -0.7970
25523SOL    HW279847  10.977   2.468   6.005 -0.1197  1.4553 -0.7206
25524SOL     OW79848   1.462   7.759   0.621  0.2791  0.1866 -0.5166
25524SOL    HW179849   1.521   7.695   0.660  0.1208  0.8371  0.8514
25524SOL    HW279850   1.377   7.714   0.618  0.3853 -0.0172 -0.4855
25525SOL     OW79851  10.822   7.774  10.092  0.0887 -0.5489 -0.1852
25525SOL    HW179852  10.800   7.724  10.013  2.7177  0.1916 -1.5149
25525SOL    HW279853  10.807   7.866  10.067  0.4232 -0.3407  0.3651
25526SOL     OW79854   2.743   1.158  10.960  0.1673  0.2219  0.0611
25526SOL    HW179855   2.832   1.192  10.962 -0.6292  2.7795 -1.9281
25526SOL    HW279856   2.746   1.085  10.898  0.6952  1.1409 -1.0375
25527SOL     OW79857   8.131   2.337   7.416 -0.0506 -0.1826  0.4015
25527SOL    HW179858   8.152   2.430   7.424  0.7735 -0.0963 -1.9971
25527SOL    HW279859   8.138   2.303   7.506 -0.4756  2.0624  1.3408
25528SOL     OW79860   4.182   2.383   3.751 -0.7005 -0.3544 -0.1844
25528SOL    HW179861   4.204   2.291   3.740  0.7398 -0.0634  0.0444
25528SOL    HW279862   4.252   2.430   3.706 -0.9901  0.6368  0.3746
25529SOL     OW79863   2.662   1.652   8.230  0.0135  0.6824 -0.2872
25529SOL    HW179864   2.739   1.710   8.236  0.4882  0.3649 -2.4716
25529SOL    HW279865   2.587   1.712   8.235  0.4162  1.1573  0.3551
25530SOL     OW79866  10.126  10.737   9.665 -0.0899  0.0946  0.5303
25530SOL    HW179867  10.040  10.719   9.627  0.2139 -0.4063  0.0699
25530SOL    HW279868  10.154  10.652   9.701  1.3683 -0.4340 -1.6676
25531SOL     OW79869   1.050   8.190   5.625  0.4063 -0.3142 -0.3325
25531SOL    HW179870   1.142   8.202   5.646  0.4566 -1.2450  0.0058
25531SOL    HW279871   1.048   8.183   5.530  0.6053  0.3289 -0.3878
25532SOL     OW79872   9.501   7.399   3.130  0.1552 -0.4747  0.0781
25532SOL    HW179873   9.567   7.466   3.114  1.3656 -1.4106  1.0040
25532SOL    HW279874   9.485   7.403   3.224 -0.6385 -0.6943 -0.0421
25533SOL     OW79875  11.195   0.690  10.509  0.2934 -0.1518 -0.4696
25533SOL    HW179876  11.186   0.698  10.414 -0.1672 -0.0706 -0.4254
25533SOL    HW279877  11.118   0.736  10.544  0.7490  0.3003 -0.0448
25534SOL     OW79878   0.233   0.831   6.791 -0.0173  0.1309 -0.4725
25534SOL    HW179879   0.312   0.801   6.835  0.1507  0.8936 -0.2474
25534SOL    HW279880   0.243   0.800   6.701  0.4159  0.0077 -0.3852
25535SOL     OW79881   8.940   7.191   2.303 -0.1816  0.3944  0.0158
25535SOL    HW179882   8.948   7.183   2.398 -2.1415  2.1473  0.4151
25535SOL    HW279883   9.000   7.125   2.268  1.0809  0.1385  2.4382
25536SOL     OW79884   4.657   1.245   4.351  0.7578  0.3344  0.4151
25536SOL    HW179885   4.700   1.309   4.408  1.8186 -0.4927  0.5602
25536SOL    HW279886   4.682   1.272   4.262  2.6486 -0.8544  0.5442
25537SOL     OW79887  10.455   3.071   8.034 -0.2925  0.4010 -0.4411
25537SOL    HW179888  10.480   3.133   8.103 -1.3005  0.7455 -0.3658
25537SOL    HW279889  10.508   3.098   7.959 -0.3399  1.0325 -0.2629
25538SOL     OW79890  10.635   2.024   0.576 -0.0364  0.9857 -0.0600
25538SOL    HW179891  10.606   1.949   0.523 -0.8825  1.2422  0.0247
25538SOL    HW279892  10.638   1.990   0.666  0.7260  0.7414 -0.1680
25539SOL     OW79893  10.282   3.072   4.929 -0.6480  0.3060  0.3580
25539SOL    HW179894  10.208   3.069   4.989  0.4333 -0.8470  1.7178
25539SOL    HW279895  10.302   2.981   4.911  0.4180  0.5938 -0.0021
25540SOL     OW79896   0.871   3.740   7.602 -0.2612 -0.3812 -0.1133
25540SOL    HW179897   0.891   3.647   7.590  0.4258 -0.4063  1.0925
25540SOL    HW279898   0.936   3.771   7.665  0.6817  1.3755 -1.8494
25541SOL     OW79899   3.328   6.375   3.000  0.6636 -0.1383 -0.4813
25541SOL    HW179900   3.414   6.406   3.028  0.0441  1.3809 -0.1741
25541SOL    HW279901   3.330   6.378   2.905  0.1247  2.4588 -0.4863
25542SOL     OW79902   9.819  11.150   5.776  0.8359 -0.2232 -0.3971
25542SOL    HW179903   9.858  11.062   5.776  0.6490 -0.3830  2.2777
25542SOL    HW279904   9.877  11.202   5.831 -1.1070  0.2748  1.3007
25543SOL     OW79905   1.933   2.762  11.143  0.3958  0.2835  0.1686
25543SOL    HW179906   1.964   2.674  11.122 -0.2666 -0.0872  0.6934
25543SOL    HW279907   2.006   2.803  11.189  0.1552 -0.5437  1.3088
25544SOL     OW79908   9.024   5.112   8.362  0.1871 -0.3053  0.0428
25544SOL    HW179909   9.098   5.077   8.312  0.2170 -1.4035  0.8094
25544SOL    HW279910   9.030   5.207   8.351 -0.1838 -0.4941 -2.5749
25545SOL     OW79911   6.769   9.906   2.198 -0.1741  0.7147  0.0948
25545SOL    HW179912   6.713   9.863   2.264  1.1916 -0.2359  0.6766
25545SOL    HW279913   6.730   9.882   2.114 -1.3172  1.0477  0.5121
25546SOL     OW79914   9.118   8.898   0.540  0.2769  0.1207 -0.5655
25546SOL    HW179915   9.048   8.961   0.555  0.4754  0.5037 -1.2293
25546SOL    HW279916   9.110   8.874   0.448  0.8846  0.0092 -0.5940
25547SOL     OW79917   3.956   0.571   1.060  0.2874  0.3518 -0.2697
25547SOL    HW179918   4.017   0.505   1.026 -0.5601  0.6568 -2.4881
25547SOL    HW279919   3.871   0.526   1.062 -0.2759  1.2961 -1.6917
25548SOL     OW79920   6.203   8.000  10.076 -0.1572  0.5446  0.3981
25548SOL    HW179921   6.217   8.094  10.074 -1.0737  0.6768 -0.6946
25548SOL    HW279922   6.140   7.983  10.006  1.0271 -1.0600 -0.3460
25549SOL     OW79923   9.720   1.244   5.076  0.1843 -0.4532 -0.3634
25549SOL    HW179924   9.815   1.246   5.088  0.1112  0.3126  0.1300
25549SOL    HW279925   9.698   1.151   5.077  0.8578 -0.6153  0.1147
25550SOL     OW79926  10.657   2.285   9.891  0.3632 -0.4167  0.1031
25550SOL    HW179927  10.702   2.355   9.843  0.6163 -0.4961  0.2254
25550SOL    HW279928  10.588   2.256   9.832 -0.2294  0.4555  0.3427
25551SOL     OW79929   5.200   2.061  10.853 -0.2483  0.3815 -0.1461
25551SOL    HW179930   5.177   2.035  10.943  1.8606  0.3536  0.4237
25551SOL    HW279931   5.115   2.072  10.810 -1.3191 -1.7352  1.2220
25552SOL     OW79932   5.780   8.805   9.658 -0.0245 -0.1840 -0.1748
25552SOL    HW179933   5.711   8.872   9.659  0.0635 -0.0921  0.3846
25552SOL    HW279934   5.787   8.779   9.567 -0.3330  0.2924 -0.3385
25553SOL     OW79935   7.908   7.498   9.288 -0.2472 -0.4762 -0.1155
25553SOL    HW179936   7.990   7.547   9.296 -1.6768  2.1054 -0.0848
25553SOL    HW279937   7.890   7.495   9.194 -0.9499  0.5362 -0.0295
25554SOL     OW79938   7.755   9.259   9.773 -0.1422 -0.1889  0.4195
25554SOL    HW179939   7.826   9.203   9.742 -2.1065 -1.4403 -2.1967
25554SOL    HW279940   7.725   9.215   9.853  1.1582 -0.3404  0.8540
25555SOL     OW79941  10.572   1.838   7.142  0.3496  0.1823  0.0215
25555SOL    HW179942  10.631   1.765   7.123  0.6303  0.4680 -0.2145
25555SOL    HW279943  10.492   1.816   7.096  0.5063  0.1237 -0.2268
25556SOL     OW79944  10.566   1.084   4.336 -0.0406 -0.3716  0.1661
25556SOL    HW179945  10.573   1.136   4.416  0.3249  2.7810 -1.7391
25556SOL    HW279946  10.650   1.098   4.291  0.0076 -2.5734 -0.5216
25557SOL     OW79947   2.539   7.382   2.980  0.1680  0.0730 -0.3478
25557SOL    HW179948   2.496   7.344   2.904  0.1838  0.0289 -0.3347
25557SOL    HW279949   2.626   7.407   2.949 -0.1795  1.0023 -0.6198
25558SOL     OW79950   3.600   8.758  10.858  0.8458  0.2859 -0.1948
25558SOL    HW179951   3.552   8.677  10.873  0.4250  0.5109 -0.3138
25558SOL    HW279952   3.534   8.820  10.827  1.3007  0.4550 -0.8460
25559SOL     OW79953   6.631   3.572  10.691 -0.1126 -0.5253 -0.1620
25559SOL    HW179954   6.592   3.551  10.606  0.7167 -0.4736 -0.5699
25559SOL    HW279955   6.629   3.667  10.696 -1.5175 -0.5657  0.5489
25560SOL     OW79956   9.663   6.471   5.885 -0.3769  0.0358  0.5575
25560SOL    HW179957   9.610   6.513   5.817  0.1725  0.8595  0.6233
25560SOL    HW279958   9.731   6.424   5.838  0.6284  1.4512  0.5318
25561SOL     OW79959  10.510   1.407   8.959  0.3741 -0.0138  0.1277
25561SOL    HW179960  10.582   1.466   8.940 -0.7021  1.1233 -0.6026
25561SOL    HW279961  10.490   1.422   9.051  1.2628 -0.5902  0.4290
25562SOL     OW79962   3.346   9.348   4.064 -0.2335  0.0546  0.3443
25562SOL    HW179963   3.372   9.413   3.999 -0.1432  0.3061  0.6292
25562SOL    HW279964   3.380   9.265   4.030  1.8588  0.4974  1.1852
25563SOL     OW79965   9.870   3.531   6.538  0.1569  0.0409  0.4399
25563SOL    HW179966   9.797   3.590   6.556  0.8545  0.5890  1.5366
25563SOL    HW279967   9.924   3.578   6.474 -0.0290 -0.0395  0.2184
25564SOL     OW79968   2.898  10.651   9.968  0.4374  0.1011 -0.4619
25564SOL    HW179969   2.982  10.675   9.930 -0.5757  0.5715 -2.5308
25564SOL    HW279970   2.881  10.562   9.938 -1.0140  0.9632 -2.4512
25565SOL     OW79971   5.202  10.817   1.309 -0.1045  0.2116  0.0244
25565SOL    HW179972   5.148  10.849   1.237  1.6833  2.0041 -0.6294
25565SOL    HW279973   5.234  10.732   1.279  0.3475  0.7848 -1.2036
25566SOL     OW79974   4.069   8.179   5.897  0.1345  0.1415  0.3865
25566SOL    HW179975   4.103   8.255   5.943  2.1202 -0.2348 -0.3693
25566SOL    HW279976   4.053   8.209   5.808  0.9164 -0.2877  0.0863
25567SOL     OW79977   2.594   0.697  11.084  0.0998  0.8504 -0.2876
25567SOL    HW179978   2.672   0.709  11.138  1.2914  0.7495 -1.9089
25567SOL    HW279979   2.558   0.785  11.075 -0.0503  0.8840  0.5474
25568SOL     OW79980   5.615   2.892  10.474 -0.7299  0.6545 -0.3117
25568SOL    HW179981   5.525   2.879  10.447 -0.9165 -0.8759  0.9261
25568SOL    HW279982   5.609   2.920  10.565  0.0443 -0.2109  0.0245
25569SOL     OW79983   4.282   3.912   8.088  0.0030 -0.2892 -0.0580
25569SOL    HW179984   4.330   3.831   8.106 -0.3857 -1.1215 -2.3976
25569SOL    HW279985   4.343   3.982   8.109  1.8200 -1.2881 -1.6821
25570SOL     OW79986   0.010   5.168   5.619 -0.2873 -0.2072 -0.4035
25570SOL    HW179987  -0.028   5.120   5.692 -1.7924  0.5558 -0.6552
25570SOL    HW279988  -0.064   5.210   5.576  0.5703 -0.5436 -2.3211
25571SOL     OW79989  10.717   7.016   6.750 -0.3165  0.1492  0.0229
25571SOL    HW179990  10.711   6.946   6.815 -0.9497  0.5938  0.4563
25571SOL    HW279991  10.762   7.087   6.796 -0.4765  0.3481 -0.1246
25572SOL     OW79992   5.604   1.866   3.801 -0.3237 -0.0815 -0.8235
25572SOL    HW179993   5.593   1.792   3.861 -0.7446 -0.7577 -1.7101
25572SOL    HW279994   5.694   1.858   3.769  0.5113  1.3119  1.0278
25573SOL     OW79995   8.615   7.948   4.342  1.1330 -0.1490  0.5313
25573SOL    HW179996   8.610   7.884   4.413  0.3912  0.3338  0.9244
25573SOL    HW279997   8.628   7.895   4.263 -0.5371 -0.8849  0.7140
25574SOL     OW79998   0.338   3.667  11.218  0.7396 -0.0930 -0.0923
25574SOL    HW179999   0.265   3.701  11.167  0.2372 -1.9698 -0.7255
25574SOL    HW280000   0.298   3.602  11.277  1.7053 -0.0768  0.6100
25575SOL     OW80001   8.034   4.558   5.334  0.1623  0.2984  0.6571
25575SOL    HW180002   8.118   4.535   5.293 -0.4024 -0.5678 -0.0265
25575SOL    HW280003   7.974   4.488   5.308 -1.4603  2.1612 -0.9876
25576SOL     OW80004   8.101   8.875   7.503 -0.2427 -0.0883 -0.2130
25576SOL    HW180005   8.145   8.833   7.430 -2.5439 -0.3310 -1.5578
25576SOL    HW280006   8.078   8.803   7.562  1.2859  0.0695  0.6430
25577SOL     OW80007   7.942   7.511   2.303 -0.3818  0.0555 -0.0850
25577SOL    HW180008   7.959   7.502   2.397  0.9751  1.2068 -0.1833
25577SOL    HW280009   7.865   7.457   2.287  0.4701 -1.6604  1.3427
25578SOL     OW80010   7.727   9.014   1.313  0.0480 -0.0618  0.0215
25578SOL    HW180011   7.810   8.996   1.270  0.0375  0.6257 -0.3151
25578SOL    HW280012   7.673   8.937   1.295 -0.1440  0.4296 -1.7107
25579SOL     OW80013   1.759   2.346   9.278  0.0094 -0.3297  0.0710
25579SOL    HW180014   1.710   2.296   9.343 -1.1666  0.9190  0.1969
25579SOL    HW280015   1.851   2.338   9.305 -0.0747 -2.6917 -0.1398
25580SOL     OW80016   2.699   0.408  10.072  0.4734 -0.3898 -0.4618
25580SOL    HW180017   2.792   0.429  10.065  0.2137  0.7122 -0.9737
25580SOL    HW280018   2.691   0.319  10.040  1.6258 -1.2933  1.5639
25581SOL     OW80019  10.337   9.345   7.276  0.1000 -0.4078 -0.1742
25581SOL    HW180020  10.433   9.349   7.266  0.0470  1.5645 -0.3443
25581SOL    HW280021  10.320   9.391   7.358 -0.6604 -1.6380  0.3767
25582SOL     OW80022   3.592   3.101   8.552  0.1400  0.3335 -0.4357
25582SOL    HW180023   3.628   3.187   8.574  0.0347  0.2780 -0.0206
25582SOL    HW280024   3.590   3.054   8.636  2.6783 -1.0344 -1.0367
25583SOL     OW80025   5.574  10.770   1.264 -0.4751  0.2543 -0.1192
25583SOL    HW180026   5.528  10.766   1.181  0.1334  0.5730 -0.4736
25583SOL    HW280027   5.654  10.718   1.250 -0.7936 -0.4478  0.5432
25584SOL     OW80028   5.575   3.220   2.902  0.1590 -0.3794  0.0183
25584SOL    HW180029   5.552   3.134   2.867 -0.1226 -0.9065  1.4292
25584SOL    HW280030   5.629   3.201   2.979  2.2777  0.7687 -1.0808
25585SOL     OW80031  10.502   6.593   0.800 -0.4643 -0.1033 -0.7763
25585SOL    HW180032  10.520   6.537   0.875  0.5828  1.9425  0.5974
25585SOL    HW280033  10.407   6.591   0.790 -0.4558 -2.1580 -0.8752
25586SOL     OW80034   4.640   8.138   1.341 -0.3275 -0.0387 -0.4703
25586SOL    HW180035   4.668   8.151   1.431  1.2615 -0.3374 -0.8792
25586SOL    HW280036   4.618   8.226   1.310 -0.0210  0.1920 -0.0463
25587SOL     OW80037   7.730   6.212   1.384 -0.0967 -0.3830  0.2437
25587SOL    HW180038   7.678   6.184   1.309 -0.2753 -0.5657  0.4333
25587SOL    HW280039   7.732   6.136   1.441  0.9922 -0.6133 -0.0900
25588SOL     OW80040  11.188   1.524   7.620 -0.0073 -0.2754  0.6971
25588SOL    HW180041  11.280   1.541   7.603  0.5603 -2.8378  0.7812
25588SOL    HW280042  11.180   1.429   7.615 -2.3372 -0.2473  2.1990
25589SOL     OW80043   0.260   7.532   3.371 -0.0326  0.6120 -0.0547
25589SOL    HW180044   0.255   7.600   3.304  0.5292  0.4678 -0.2487
25589SOL    HW280045   0.321   7.567   3.435  0.2866  0.2716 -0.1744
25590SOL     OW80046   7.815   1.128   7.905  0.1492 -0.0440  0.1827
25590SOL    HW180047   7.859   1.166   7.982  0.8880  0.3900 -0.4349
25590SOL    HW280048   7.757   1.198   7.874  0.1041 -0.0946  0.1552
25591SOL     OW80049   1.425   9.826   2.554 -0.2858 -0.3694  0.2201
25591SOL    HW180050   1.472   9.758   2.505 -0.3949  0.7733 -1.5110
25591SOL    HW280051   1.491   9.893   2.570 -0.3013 -0.6327  1.5256
25592SOL     OW80052   1.729   7.997   4.076 -0.3000 -0.0406 -0.0884
25592SOL    HW180053   1.766   8.077   4.115  1.4546 -2.1848  3.0174
25592SOL    HW280054   1.801   7.961   4.024 -0.6503 -0.2931 -0.4008
25593SOL     OW80055   1.527   2.295   7.402 -0.4743 -0.4708 -0.0716
25593SOL    HW180056   1.483   2.221   7.361  1.0728 -1.4944  0.0201
25593SOL    HW280057   1.613   2.298   7.360 -0.4423  1.1970  0.0353
25594SOL     OW80058   4.812   4.040   5.414  0.2887  0.2877  0.0441
25594SOL    HW180059   4.807   4.113   5.476  0.0791  0.5003 -0.2194
25594SOL    HW280060   4.802   4.081   5.328 -1.5982 -0.2373 -0.0359
25595SOL     OW80061   7.871   6.129   9.810  0.0986  0.0538  0.1496
25595SOL    HW180062   7.779   6.106   9.828  0.9309 -1.2916  3.5499
25595SOL    HW280063   7.884   6.107   9.718 -2.4261 -1.9392  0.1449
25596SOL     OW80064  10.291   7.491   5.381 -0.5632 -0.1047  0.0891
25596SOL    HW180065  10.385   7.495   5.397 -0.7229 -0.6419  1.2582
25596SOL    HW280066  10.283   7.467   5.289  0.4356  0.0633 -0.0495
25597SOL     OW80067   7.009   8.567  10.644  0.0117  0.1441 -0.3444
25597SOL    HW180068   7.022   8.647  10.593  0.6922  1.0554  1.1854
25597SOL    HW280069   6.914   8.554  10.643 -0.0711  0.6868 -1.0147
25598SOL     OW80070   8.299  10.925   3.751  1.0231  0.0927 -0.3160
25598SOL    HW180071   8.282  11.001   3.806 -0.1070 -0.2585 -0.1463
25598SOL    HW280072   8.318  10.962   3.665 -2.6053  0.6113 -1.0817
25599SOL     OW80073   1.757   3.057   1.590 -0.0254 -0.7705 -0.3436
25599SOL    HW180074   1.665   3.032   1.590 -0.6543  1.2182  1.2440
25599SOL    HW280075   1.791   3.021   1.672 -0.2218  0.9699  0.5571
25600SOL     OW80076   6.391  11.280   0.895  0.4779 -0.0029 -0.8928
25600SOL    HW180077   6.407  11.363   0.849  1.0239 -0.0943 -0.8810
25600SOL    HW280078   6.470  11.268   0.948 -0.4433  0.4699  0.6403
25601SOL     OW80079   7.797   8.266   4.235  0.4023 -0.0671  0.5886
25601SOL    HW180080   7.848   8.259   4.315  2.1330 -3.1040 -0.6210
25601SOL    HW280081   7.710   8.234   4.259  0.4997  0.3351  1.5249
25602SOL     OW80082   3.562   9.967   2.499  0.1321  0.4011  0.0234
25602SOL    HW180083   3.652   9.996   2.517  0.1094  0.5979 -0.1654
25602SOL    HW280084   3.551   9.982   2.405 -0.5455  1.6570  0.2799
25603SOL     OW80085   7.224   4.497   6.045 -0.1222 -0.3301 -0.2352
25603SOL    HW180086   7.307   4.522   6.085 -0.6774 -0.5969  1.1183
25603SOL    HW280087   7.238   4.409   6.012  0.8491  0.4862 -2.1728
25604SOL     OW80088   6.672   8.585   3.812  0.1333  0.0307  0.3964
25604SOL    HW180089   6.729   8.515   3.844 -0.8754 -0.5584  0.9445
25604SOL    HW280090   6.587   8.543   3.797 -0.0577  0.7979 -0.8483
25605SOL     OW80091   4.664   8.978   6.918  0.1264 -0.1649  0.1156
25605SOL    HW180092   4.628   8.893   6.942  0.1900  0.1137  1.2440
25605SOL    HW280093   4.704   9.011   6.998  2.5771 -0.2965 -0.9591
25606SOL     OW80094   2.077   7.414   4.188 -0.7499 -0.7126  0.0490
25606SOL    HW180095   2.042   7.402   4.276 -0.7051  1.1649  0.3752
25606SOL    HW280096   2.116   7.330   4.165  0.6769 -0.7887  2.4764
25607SOL     OW80097   3.499   4.472   9.350  0.1499  0.4069  0.2452
25607SOL    HW180098   3.522   4.564   9.339 -0.9105  0.6625  0.0384
25607SOL    HW280099   3.408   4.473   9.379 -0.6604 -0.6236 -2.0440
25608SOL     OW80100  10.895   2.740   1.643 -1.0255 -0.8393 -0.1114
25608SOL    HW180101  10.944   2.814   1.608 -1.0670 -0.4755  0.5620
25608SOL    HW280102  10.809   2.746   1.601 -1.3361  0.0469  0.5929
25609SOL     OW80103   1.134   7.598   5.597 -0.2814  0.3062 -0.1934
25609SOL    HW180104   1.052   7.576   5.642 -1.4618 -0.4383 -2.5545
25609SOL    HW280105   1.167   7.675   5.644 -1.4237 -0.3610  1.8567
25610SOL     OW80106   1.054   5.243   9.008 -0.4074  0.2821  0.3265
25610SOL    HW180107   0.978   5.257   9.064  0.8227  2.6694  1.5526
25610SOL    HW280108   1.096   5.164   9.044 -0.6257  0.7526  1.6667
25611SOL     OW80109   1.328   1.712   3.480 -0.5484  0.4150  0.0422
25611SOL    HW180110   1.283   1.628   3.467  0.1245 -0.1831  1.3424
25611SOL    HW280111   1.406   1.706   3.426 -0.2542 -0.0222  0.5002
25612SOL     OW80112   2.822  10.085   4.926 -0.2510 -0.2014 -0.5949
25612SOL    HW180113   2.767  10.136   4.867 -1.5906  0.4437  1.1345
25612SOL    HW280114   2.878  10.149   4.968 -0.8647 -0.3341  0.4574
25613SOL     OW80115   0.434   8.069   6.203  0.4428  0.0678 -0.4695
25613SOL    HW180116   0.513   8.015   6.193  0.1383 -0.4928  0.1131
25613SOL    HW280117   0.446   8.140   6.140  1.0715 -0.4162 -0.9116
25614SOL     OW80118   6.253   7.033   4.153 -0.1150 -0.3489  0.1687
25614SOL    HW180119   6.282   7.105   4.097  0.4792 -1.0343 -0.4465
25614SOL    HW280120   6.161   7.020   4.130 -0.2473  0.2673  0.3473
25615SOL     OW80121   7.318   2.819   0.843 -0.5547 -0.2936  0.5235
25615SOL    HW180122   7.263   2.747   0.873  0.5675 -0.5525  2.0878
25615SOL    HW280123   7.263   2.896   0.848 -1.1294 -0.7253  0.9164
25616SOL     OW80124   6.921   9.804   9.881 -0.1616 -0.3930  0.3987
25616SOL    HW180125   6.926   9.892   9.844  0.4786 -0.0459  1.2594
25616SOL    HW280126   6.901   9.747   9.807 -2.0038  0.6301  0.0503
25617SOL     OW80127   3.847   4.428   6.195  0.4140  0.3188  0.1133
25617SOL    HW180128   3.843   4.506   6.251 -0.7744  0.2004  0.2224
25617SOL    HW280129   3.778   4.371   6.228  0.6417 -0.3741 -0.5698
25618SOL     OW80130   4.355   7.262   9.485  0.6284 -0.1677 -0.3451
25618SOL    HW180131   4.335   7.342   9.437  1.1207  0.9110  1.1795
25618SOL    HW280132   4.355   7.194   9.418  0.3663  1.1128 -1.7121
25619SOL     OW80133   7.328   8.741  10.515 -0.8552 -0.0206  0.2487
25619SOL    HW180134   7.237   8.765  10.535 -1.5158 -2.6164  0.7335
25619SOL    HW280135   7.321   8.655  10.472  1.3489  0.0172 -0.2947
25620SOL     OW80136   7.412   4.519   2.538  0.4099 -0.2977  0.4111
25620SOL    HW180137   7.336   4.564   2.502  0.2668 -0.2279  0.7930
25620SOL    HW280138   7.451   4.472   2.464  1.3567  1.5232 -0.2966
25621SOL     OW80139   0.258   5.300   6.700 -0.3381 -0.0188 -0.5142
25621SOL    HW180140   0.297   5.386   6.684 -0.2394  0.3428  1.4208
25621SOL    HW280141   0.301   5.242   6.637  1.6681  0.8082  0.0288
25622SOL     OW80142   1.141  10.181   9.232 -0.1137  0.0118  0.2006
25622SOL    HW180143   1.169  10.143   9.315  0.8543  0.6695  0.1890
25622SOL    HW280144   1.078  10.118   9.196  0.6455 -1.0354  0.6841
25623SOL     OW80145  10.526   5.520   4.112 -0.0691  0.4883 -0.1763
25623SOL    HW180146  10.606   5.468   4.106 -0.7294 -0.5028 -0.7865
25623SOL    HW280147  10.509   5.549   4.022  1.5108  3.7739  0.4314
25624SOL     OW80148   8.608   5.529   7.374 -0.4397 -0.9130 -0.2929
25624SOL    HW180149   8.521   5.548   7.339 -0.2431 -0.9648 -0.8188
25624SOL    HW280150   8.600   5.544   7.468 -0.4779  1.1231 -0.5784
25625SOL     OW80151   4.243  11.196   9.925 -0.8526  0.0743  0.4601
25625SOL    HW180152   4.307  11.126   9.909  1.5557  2.2638 -0.0266
25625SOL    HW280153   4.158  11.152   9.915  0.5177 -2.6439 -0.4155
25626SOL     OW80154  10.301   8.344   0.151  0.0998  0.4348  0.1877
25626SOL    HW180155  10.238   8.375   0.215 -0.2166 -0.8235  0.5201
25626SOL    HW280156  10.249   8.300   0.084  0.5788 -0.2415  0.2454
25627SOL     OW80157   9.830   6.463   6.112  0.6564 -0.0474  0.7399
25627SOL    HW180158   9.772   6.469   6.036  0.1777  0.3026  1.1314
25627SOL    HW280159   9.836   6.552   6.146  3.5550  0.5025 -0.8331
25628SOL     OW80160   8.586   1.958   4.332  0.2844 -0.0952 -0.4212
25628SOL    HW180161   8.667   1.908   4.327  0.4887  0.2438 -0.5271
25628SOL    HW280162   8.517   1.894   4.318  0.5083 -0.4784  0.1929
25629SOL     OW80163   9.843   6.478   3.837  0.1672 -0.5496 -0.2756
25629SOL    HW180164   9.801   6.464   3.922 -0.3465 -0.1582 -0.4586
25629SOL    HW280165   9.932   6.446   3.848  1.1811  2.4426  1.4587
25630SOL     OW80166   3.502   9.575   4.513 -0.1647 -0.2687 -0.1208
25630SOL    HW180167   3.439   9.506   4.537 -0.4586  0.4600  1.2778
25630SOL    HW280168   3.468   9.654   4.555  0.1924  0.7516 -1.6639
25631SOL     OW80169   6.990   8.499   2.682 -0.8330 -0.5525  0.2756
25631SOL    HW180170   7.081   8.498   2.653 -0.4049  2.6791  1.1428
25631SOL    HW280171   6.939   8.474   2.605  0.7019 -0.5845 -0.7555
25632SOL     OW80172   4.899   8.773   5.491 -0.2644 -0.3292  0.0130
25632SOL    HW180173   4.959   8.702   5.513 -0.6236  0.1219  2.8223
25632SOL    HW280174   4.816   8.748   5.534 -0.4685  1.5897  0.8336
25633SOL     OW80175   1.327  11.209   4.595 -0.0428  0.5694  0.1539
25633SOL    HW180176   1.366  11.171   4.673  1.0975  1.6453  0.1372
25633SOL    HW280177   1.350  11.147   4.525 -0.6365 -0.1345  0.5614
25634SOL     OW80178   8.700  10.298   9.649 -0.0164  0.1975 -0.1457
25634SOL    HW180179   8.784  10.253   9.642  1.3120  2.4840  0.1357
25634SOL    HW280180   8.694  10.322   9.742 -1.2089 -0.3146 -0.0747
25635SOL     OW80181   9.053   2.440   9.432  0.4137  0.1223  0.3864
25635SOL    HW180182   9.123   2.384   9.465  0.9388  1.1164  0.9945
25635SOL    HW280183   9.088   2.529   9.438 -0.9067  0.6477  0.7443
25636SOL     OW80184  10.557  11.271   0.856  0.4050 -0.8313  0.1603
25636SOL    HW180185  10.475  11.287   0.809  0.0964 -0.2903  0.8691
25636SOL    HW280186  10.614  11.343   0.830  0.2996 -0.6355  0.4799
25637SOL     OW80187   3.556   5.056   2.729 -0.5298 -0.3183 -0.4924
25637SOL    HW180188   3.587   5.140   2.762 -0.4895 -0.9811  1.2207
25637SOL    HW280189   3.635   5.005   2.714 -0.6339 -1.0770  1.3435
25638SOL     OW80190   6.872   5.218   5.566 -0.1687  0.3369 -0.3972
25638SOL    HW180191   6.901   5.187   5.481  0.2224 -1.0492  0.2148
25638SOL    HW280192   6.790   5.263   5.549 -1.2722 -1.8679 -1.2475
25639SOL     OW80193   7.522   5.077   3.262 -0.0803  0.1933 -0.2073
25639SOL    HW180194   7.451   5.014   3.268  0.7203 -0.5962  1.5690
25639SOL    HW280195   7.513   5.131   3.341 -0.6476  2.2496 -1.5971
25640SOL     OW80196   3.555   5.493   3.569 -0.0603  0.2103 -0.4290
25640SOL    HW180197   3.470   5.523   3.603 -0.3367  0.2052 -1.1164
25640SOL    HW280198   3.604   5.468   3.648 -0.2036  1.4750  0.0917
25641SOL     OW80199   5.168   9.483   9.838  0.2257 -1.1210 -0.3588
25641SOL    HW180200   5.173   9.398   9.883  0.5698 -0.6593  0.4928
25641SOL    HW280201   5.079   9.486   9.803 -0.1332 -1.3973  0.4987
25642SOL     OW80202   0.368   2.006   5.646 -0.1959 -0.3234 -0.1739
25642SOL    HW180203   0.442   1.994   5.586 -0.7169  0.5985 -1.0337
25642SOL    HW280204   0.403   2.059   5.717  0.1062 -0.3526 -0.2993
25643SOL     OW80205   3.440   2.209   8.997 -0.2827  0.3988 -0.0111
25643SOL    HW180206   3.527   2.241   8.970 -0.1350  1.1167  1.2535
25643SOL    HW280207   3.388   2.288   9.008 -1.2750 -0.0537 -1.2696
25644SOL     OW80208   0.427   5.086   7.363 -0.0806 -0.3892 -0.3160
25644SOL    HW180209   0.518   5.079   7.391 -0.9454 -0.4692  2.8483
25644SOL    HW280210   0.382   5.013   7.407 -1.9406  0.6207 -0.4269
25645SOL     OW80211   3.001   5.142   1.358  0.5363  0.7518  0.4232
25645SOL    HW180212   2.998   5.063   1.303 -2.8462  0.5290  0.7238
25645SOL    HW280213   3.071   5.126   1.420 -0.0464 -2.0560  0.4695
25646SOL     OW80214   6.297   1.821   8.824  0.0714  0.0735  0.1492
25646SOL    HW180215   6.326   1.912   8.828 -3.5179  1.3318  0.8337
25646SOL    HW280216   6.223   1.821   8.764 -2.2568 -1.5972  2.7551
25647SOL     OW80217   6.692   8.894   5.320 -0.1687  0.4421  0.4534
25647SOL    HW180218   6.783   8.863   5.322 -0.0552  0.7762  0.5645
25647SOL    HW280219   6.651   8.852   5.396  0.1849  1.1659  1.0521
25648SOL     OW80220   5.848   8.446   1.773  0.3304  0.5614  0.7675
25648SOL    HW180221   5.792   8.519   1.748 -0.1530  0.0004  0.1732
25648SOL    HW280222   5.799   8.401   1.842 -0.5832 -0.6741 -0.6328
25649SOL     OW80223   5.561   1.881   1.560  0.2369  0.1598 -0.2371
25649SOL    HW180224   5.645   1.920   1.586  0.3116  0.4158 -0.8490
25649SOL    HW280225   5.496   1.941   1.597  0.3343  0.3080 -0.3029
25650SOL     OW80226  10.259  10.605   3.823 -0.2006  0.1159  0.3887
25650SOL    HW180227  10.189  10.540   3.822 -0.9414  0.9005 -0.1126
25650SOL    HW280228  10.215  10.687   3.842  0.0769  1.1426 -2.7757
25651SOL     OW80229   4.768   5.959   6.088 -0.0612 -0.3989  0.7313
25651SOL    HW180230   4.676   5.971   6.112  0.2710  0.8395  1.5169
25651SOL    HW280231   4.816   6.016   6.150  1.0525  0.7710 -1.1141
25652SOL     OW80232   7.651   2.720   5.092  0.3166  0.6411  0.0494
25652SOL    HW180233   7.632   2.648   5.031  1.9712  0.6444 -0.5109
25652SOL    HW280234   7.609   2.796   5.053 -0.8280  0.1454  0.2678
25653SOL     OW80235   3.996   5.859   1.388 -0.4757 -0.2767 -0.2846
25653SOL    HW180236   4.063   5.887   1.325 -1.0470  0.3227 -0.6355
25653SOL    HW280237   4.041   5.861   1.472  0.1950 -0.7315 -0.6169
25654SOL     OW80238   7.352   1.167   7.912  0.3315 -0.1473  0.1488
25654SOL    HW180239   7.360   1.229   7.840 -0.6569 -0.6638 -0.4344
25654SOL    HW280240   7.336   1.222   7.989 -0.0619  0.3456 -0.2753
25655SOL     OW80241   1.353   5.701   3.452 -0.1924  0.1410 -0.5182
25655SOL    HW180242   1.436   5.746   3.465  0.8050 -1.5760 -0.7392
25655SOL    HW280243   1.371   5.635   3.385 -2.3248  1.2495 -2.3286
25656SOL     OW80244   2.867   3.503   0.886  0.0768 -0.3059  0.8182
25656SOL    HW180245   2.825   3.422   0.915 -0.5329  0.0811  1.0430
25656SOL    HW280246   2.924   3.476   0.813 -1.1970 -0.7378 -0.0564
25657SOL     OW80247   6.522   4.358  10.712 -0.2450 -0.5710 -0.3204
25657SOL    HW180248   6.545   4.429  10.651  0.7040 -1.6706 -1.3061
25657SOL    HW280249   6.498   4.285  10.655  0.3374 -1.5295  0.6257
25658SOL     OW80250   1.305   9.125  10.804  0.8643  0.0212 -0.2269
25658SOL    HW180251   1.271   9.096  10.889  0.6288 -0.9442 -0.6386
25658SOL    HW280252   1.398   9.102  10.807  0.7286 -0.5781 -0.4583
25659SOL     OW80253  10.800   0.607  10.056 -0.0175 -0.1069  0.4359
25659SOL    HW180254  10.741   0.672  10.094 -1.0877 -1.6500  1.5033
25659SOL    HW280255  10.743   0.542  10.016  0.9377 -1.4783  1.2112
25660SOL     OW80256   9.702   6.951   1.725 -0.5129  1.0314 -0.9412
25660SOL    HW180257   9.650   6.889   1.776  0.1758  0.9557 -0.3057
25660SOL    HW280258   9.716   6.907   1.641 -0.0979  0.3558 -0.5273
25661SOL     OW80259   7.094  11.060   9.996  0.2205 -0.3759  0.4867
25661SOL    HW180260   7.030  11.129  10.016 -1.8301 -1.6138 -1.3077
25661SOL    HW280261   7.163  11.106   9.948 -1.0088  0.5188 -0.5144
25662SOL     OW80262   5.945   0.417   9.086 -0.1082  0.1271 -0.2177
25662SOL    HW180263   5.873   0.362   9.115  0.5962  0.2760  2.0944
25662SOL    HW280264   5.904   0.487   9.036 -1.5941  0.1356  0.9379
25663SOL     OW80265   2.269   1.775   1.341 -0.6461 -0.2164  0.5542
25663SOL    HW180266   2.261   1.806   1.250 -2.2951 -0.6119  0.5332
25663SOL    HW280267   2.230   1.688   1.340 -0.0566 -0.5009  1.5195
25664SOL     OW80268   4.817  10.728   9.850 -0.2829 -1.1581 -0.5318
25664SOL    HW180269   4.876  10.669   9.803 -0.1850 -1.3178 -0.2164
25664SOL    HW280270   4.859  10.740   9.935 -0.5942 -1.0902 -0.3870
25665SOL     OW80271   7.210   5.247  10.118  0.3960 -0.0519 -0.3588
25665SOL    HW180272   7.198   5.306  10.044 -0.7452 -1.2689 -1.1915
25665SOL    HW280273   7.177   5.296  10.194 -0.7210  0.3101 -1.0634
25666SOL     OW80274   9.359   9.707   2.293  0.8510  0.3622  0.2156
25666SOL    HW180275   9.355   9.672   2.204  1.8907  0.5827  0.0670
25666SOL    HW280276   9.387   9.798   2.281 -3.0000  1.7639  0.4969
25667SOL     OW80277   2.647   7.970   5.958 -0.1089  0.1704  0.1417
25667SOL    HW180278   2.686   7.935   5.878 -0.2032  0.0733  0.1378
25667SOL    HW280279   2.721   7.985   6.016 -0.0621  0.0308  0.1169
25668SOL     OW80280   6.990   2.542   7.007 -0.6646  0.1810 -0.5373
25668SOL    HW180281   6.976   2.449   6.986  0.2070  0.3315 -1.8663
25668SOL    HW280282   7.049   2.540   7.082 -0.5946 -0.3502 -0.5965
25669SOL     OW80283   3.097   6.249   1.799 -0.1533  0.1793  0.3556
25669SOL    HW180284   3.185   6.212   1.797 -0.5832 -0.8933  0.8360
25669SOL    HW280285   3.111   6.344   1.794  1.0139  0.0147  0.2648
25670SOL     OW80286   6.553   0.748   7.426  0.6946  0.1368  0.3317
25670SOL    HW180287   6.549   0.844   7.419  1.0478  0.0769 -0.9549
25670SOL    HW280288   6.513   0.729   7.511  2.3307  1.5487  1.5167
25671SOL     OW80289   3.321   2.762  10.337 -0.1403 -0.4084  0.1078
25671SOL    HW180290   3.299   2.697  10.405  1.6286  0.1900  1.3370
25671SOL    HW280291   3.300   2.846  10.378 -2.4145 -0.1363 -1.4741
25672SOL     OW80292   3.901  10.387   6.276 -0.3147  0.1311 -0.2522
25672SOL    HW180293   3.936  10.329   6.207  0.4714  1.2465 -0.8157
25672SOL    HW280294   3.838  10.332   6.323  0.2910 -1.1449 -0.8616
25673SOL     OW80295  10.578   7.844   5.577  0.3740  0.3967 -0.1054
25673SOL    HW180296  10.508   7.817   5.517  1.2651  0.1478 -1.0688
25673SOL    HW280297  10.534   7.895   5.645 -1.0004 -1.2502  0.3159
25674SOL     OW80298  10.069   9.536   3.686 -0.4817 -0.4607  0.2140
25674SOL    HW180299  10.046   9.584   3.606  1.5351  2.6765  1.3244
25674SOL    HW280300  10.053   9.598   3.757  1.7638 -1.5913  1.8410
25675SOL     OW80301   2.236   2.118   3.411 -0.3489  0.2212 -0.1539
25675SOL    HW180302   2.161   2.144   3.464 -0.8996 -1.7345  0.1082
25675SOL    HW280303   2.217   2.154   3.324  0.1715  2.7577  0.7106
25676SOL     OW80304   4.090   9.973   1.544 -0.0346 -0.2082  0.1237
25676SOL    HW180305   4.023   9.958   1.611  0.7083  2.2545  1.5357
25676SOL    HW280306   4.165   9.921   1.574 -0.2649 -0.4905  0.2262
25677SOL     OW80307   0.214   4.629  11.228  0.5004  0.8986  0.3456
25677SOL    HW180308   0.309   4.641  11.219  0.9660 -2.6525 -1.4584
25677SOL    HW280309   0.175   4.693  11.169  1.9497  0.8287 -0.7392
25678SOL     OW80310   2.858  10.331   9.568  0.2062 -0.1509  0.0375
25678SOL    HW180311   2.856  10.331   9.472  0.4782  1.5373  0.0014
25678SOL    HW280312   2.823  10.245   9.593  0.3222 -0.6965 -1.5658
25679SOL     OW80313  10.724   7.373   5.510 -0.0990 -0.0894  0.5298
25679SOL    HW180314  10.732   7.391   5.603 -0.9294  1.7301  0.2896
25679SOL    HW280315  10.674   7.291   5.505  0.2429 -0.3738  1.6771
25680SOL     OW80316   1.079   7.896   5.443 -0.0664 -0.4624 -0.0375
25680SOL    HW180317   1.085   7.983   5.403  0.4557 -0.4600  0.0443
25680SOL    HW280318   1.044   7.840   5.373 -0.7951 -0.1045  0.0364
25681SOL     OW80319   2.023   1.302   3.781 -0.5302  0.3396  0.2326
25681SOL    HW180320   1.961   1.280   3.850  0.5248 -0.0965  1.0686
25681SOL    HW280321   2.082   1.227   3.777 -2.3603 -1.1562 -3.3147
25682SOL     OW80322   3.696   2.903   1.052 -0.3197 -0.1476 -0.3926
25682SOL    HW180323   3.635   2.830   1.063  0.9518 -1.3830 -1.1806
25682SOL    HW280324   3.688   2.927   0.960 -0.9458  0.9332 -0.0679
25683SOL     OW80325   5.719   6.892   3.567 -0.1841 -0.6151  0.0408
25683SOL    HW180326   5.638   6.943   3.559 -0.1359 -0.7532 -2.2284
25683SOL    HW280327   5.689   6.801   3.563 -0.0391 -0.7099  1.0027
25684SOL     OW80328   0.914   2.005   8.665  0.3417  0.0011  0.1245
25684SOL    HW180329   0.994   2.052   8.639 -0.6299  2.1168  0.7059
25684SOL    HW280330   0.853   2.020   8.592 -0.2041  0.2166  0.6216
25685SOL     OW80331  10.998   0.287   3.764  0.1329  0.2142 -0.0725
25685SOL    HW180332  11.066   0.220   3.774  0.1145  0.2314  0.1551
25685SOL    HW280333  10.987   0.295   3.669  0.0944 -0.1464 -0.0985
25686SOL     OW80334   6.841   9.693   8.583  0.5184  0.0809  0.7845
25686SOL    HW180335   6.917   9.644   8.552 -1.1891 -0.9389 -2.2610
25686SOL    HW280336   6.876   9.754   8.648  4.4274  1.4665 -2.2082
25687SOL     OW80337   0.805   9.271   5.569  0.1252 -0.6409  0.0108
25687SOL    HW180338   0.885   9.304   5.528  0.3694  1.5411  2.0732
25687SOL    HW280339   0.734   9.305   5.514  0.5244  0.0981 -0.0553
25688SOL     OW80340   2.349   6.446   3.208 -0.3303 -0.3468  0.0720
25688SOL    HW180341   2.265   6.409   3.180 -1.7269  0.7175  2.6048
25688SOL    HW280342   2.367   6.403   3.292  1.8478 -0.7551 -0.5471
25689SOL     OW80343   8.543   3.587   3.337  0.5362  0.1015  0.5286
25689SOL    HW180344   8.485   3.664   3.333  0.6362  0.1891  0.7366
25689SOL    HW280345   8.524   3.547   3.422  0.1985 -0.3347  0.2496
25690SOL     OW80346   6.186   1.024  10.650  0.0672 -0.4209 -0.1952
25690SOL    HW180347   6.113   1.038  10.590  1.5529  0.6883 -1.8383
25690SOL    HW280348   6.244   0.962  10.605  1.8625  1.4328 -0.5774
25691SOL     OW80349   9.887   5.273   1.664 -0.0711 -0.2444  0.4858
25691SOL    HW180350   9.973   5.241   1.638 -0.0453  1.0842 -1.2885
25691SOL    HW280351   9.896   5.298   1.756  1.9264  1.4447 -0.1277
25692SOL     OW80352   0.376   6.734   8.900  0.4182 -0.3296  0.9207
25692SOL    HW180353   0.365   6.779   8.983 -0.0380  0.1811  0.5882
25692SOL    HW280354   0.449   6.779   8.857 -0.2437  0.3136  0.4508
25693SOL     OW80355   5.351  10.120   6.391  0.0538 -0.4688 -0.0107
25693SOL    HW180356   5.258  10.115   6.370  0.3059 -0.9528 -1.0664
25693SOL    HW280357   5.376  10.030   6.410  0.1501 -0.2356  1.0780
25694SOL     OW80358  10.409   2.448   9.530  0.1291  0.0830 -0.1177
25694SOL    HW180359  10.373   2.487   9.450 -0.7162 -0.9209 -0.2499
25694SOL    HW280360  10.504   2.453   9.519  0.0357 -0.7088 -1.5402
25695SOL     OW80361   4.215   8.737   8.728  0.1198  0.3360 -0.3791
25695SOL    HW180362   4.306   8.715   8.747 -0.1027  0.0349  0.4002
25695SOL    HW280363   4.201   8.707   8.638  0.2181 -1.4900  0.1880
25696SOL     OW80364   1.153  10.085   9.858 -0.3099 -0.1905  0.5616
25696SOL    HW180365   1.112  10.065   9.774  0.7993  1.0270 -0.3087
25696SOL    HW280366   1.132  10.177   9.874  2.8704  0.8356 -0.4619
25697SOL     OW80367   0.224   4.518  10.127 -0.3411  0.2931  0.2934
25697SOL    HW180368   0.132   4.497  10.139 -0.8448  1.7047 -0.7720
25697SOL    HW280369   0.254   4.547  10.213 -1.3461  1.3941  0.2983
25698SOL     OW80370   9.175   0.209   7.475  0.4012  0.2232  0.1920
25698SOL    HW180371   9.096   0.158   7.495  0.1813  0.7543  0.7025
25698SOL    HW280372   9.162   0.238   7.385 -0.5798  1.3509  0.6766
25699SOL     OW80373   1.643   6.169  10.180  0.3098  0.5540  0.2690
25699SOL    HW180374   1.562   6.126  10.152  0.8760  0.2007 -0.9165
25699SOL    HW280375   1.619   6.261  10.190 -0.3678  0.3590  0.4983
25700SOL     OW80376  10.867   7.741   7.824  0.1908 -0.6782 -0.5696
25700SOL    HW180377  10.797   7.741   7.758 -1.8041  1.0050  1.3987
25700SOL    HW280378  10.831   7.692   7.897  1.3104 -0.2690  0.2816
25701SOL     OW80379   2.700   6.060  11.201  0.3451 -0.2245 -0.1198
25701SOL    HW180380   2.677   5.972  11.231 -0.0037  0.4747  1.8587
25701SOL    HW280381   2.666   6.065  11.112 -1.2289 -1.5010  0.3566
25702SOL     OW80382  11.336   3.563   2.506  0.5003  0.2003 -0.7696
25702SOL    HW180383  11.313   3.480   2.465 -1.6746  1.1020 -1.5136
25702SOL    HW280384  11.429   3.576   2.484  0.7873 -1.8289 -0.9168
25703SOL     OW80385   2.094   4.764   6.824  0.6561  0.8883  0.0618
25703SOL    HW180386   2.057   4.709   6.893  0.2761 -0.8483 -1.4478
25703SOL    HW280387   2.018   4.799   6.778  0.8541 -0.3159 -1.2331
25704SOL     OW80388   8.845   6.278   9.748  0.3322 -0.1421 -0.8392
25704SOL    HW180389   8.932   6.274   9.787 -0.0404 -0.4263 -0.0095
25704SOL    HW280390   8.792   6.327   9.811 -0.1582 -0.1464 -1.2388
25705SOL     OW80391   2.149  10.590   7.960 -0.3945 -0.1894  0.0356
25705SOL    HW180392   2.090  10.626   7.893 -0.1132 -1.9666 -1.2473
25705SOL    HW280393   2.184  10.667   8.005 -0.7237  1.0891 -1.7629
25706SOL     OW80394   1.506  10.190   3.736  0.7095 -0.0589 -0.0213
25706SOL    HW180395   1.596  10.214   3.716  0.5828  0.1306 -0.3655
25706SOL    HW280396   1.490  10.227   3.823  1.5415 -1.6208  0.8530
25707SOL     OW80397   3.483   6.336   6.956 -0.1869  0.3566 -0.1077
25707SOL    HW180398   3.492   6.408   6.895 -0.3982  1.1551  0.7724
25707SOL    HW280399   3.568   6.328   6.998  0.0645 -0.4241 -0.7401
25708SOL     OW80400  11.220   6.629   4.716  0.1604 -0.6361 -0.4852
25708SOL    HW180401  11.126   6.610   4.713  0.0364 -0.0103 -0.8100
25708SOL    HW280402  11.241   6.630   4.809 -0.3531  0.1232 -0.3703
25709SOL     OW80403   5.621   7.163   1.060 -0.3089 -0.6659 -0.5620
25709SOL    HW180404   5.688   7.106   1.022 -0.2400  0.0076 -1.4916
25709SOL    HW280405   5.630   7.151   1.154  0.4127 -1.3805 -0.7086
25710SOL     OW80406   1.270   8.049   3.015  0.6411 -0.0347 -0.3302
25710SOL    HW180407   1.271   7.965   3.060 -0.2570  1.3630  2.4894
25710SOL    HW280408   1.269   8.114   3.085 -1.2123  2.3081 -2.3671
25711SOL     OW80409   5.477   4.311   1.579  0.5171  0.2209  0.0406
25711SOL    HW180410   5.501   4.368   1.506  2.2011  2.4667  2.1540
25711SOL    HW280411   5.414   4.363   1.629 -1.3302 -1.6479 -0.2180
25712SOL     OW80412  11.048   2.339   1.917 -0.2702  0.1357 -0.2012
25712SOL    HW180413  10.979   2.398   1.945 -0.2069 -0.1164  0.4989
25712SOL    HW280414  11.023   2.313   1.828 -1.9820 -1.2543  0.6306
25713SOL     OW80415   9.960   7.620   8.778 -0.2557 -0.1569  0.3038
25713SOL    HW180416  10.009   7.642   8.857 -0.5702  0.9500  0.2123
25713SOL    HW280417   9.881   7.577   8.810 -0.6190  0.7324  0.6376
25714SOL     OW80418   2.337   2.516   3.179  0.2419  0.0874 -0.4566
25714SOL    HW180419   2.348   2.611   3.188  1.1723  0.1284 -1.8042
25714SOL    HW280420   2.296   2.489   3.262  0.5752  1.5631  0.2229
25715SOL     OW80421   4.847   7.808   0.650  0.3897  0.0096  0.1204
25715SOL    HW180422   4.812   7.850   0.728 -1.6044  1.6832 -1.5481
25715SOL    HW280423   4.830   7.715   0.663 -0.4026  0.3213  1.4539
25716SOL     OW80424   6.846   8.715   6.166 -0.2582  0.2315  0.2312
25716SOL    HW180425   6.806   8.637   6.127 -0.9855  0.8222 -0.2304
25716SOL    HW280426   6.926   8.729   6.114  1.7864 -2.1754  2.4753
25717SOL     OW80427   6.827   5.527   6.341 -0.3906 -0.3409 -0.4339
25717SOL    HW180428   6.878   5.579   6.279  0.3447  0.8193  1.0608
25717SOL    HW280429   6.736   5.554   6.327 -0.2184 -0.0219 -0.9382
25718SOL     OW80430  10.201   5.949   0.838  0.0726 -0.2471  0.0128
25718SOL    HW180431  10.192   5.986   0.927  0.2512 -1.9488  0.7668
25718SOL    HW280432  10.294   5.928   0.830  0.1436  0.3248 -0.7803
25719SOL     OW80433   6.704   6.356  10.261  0.6298  0.5305  0.0781
25719SOL    HW180434   6.713   6.449  10.284  0.4971  0.2966  1.1420
25719SOL    HW280435   6.780   6.314  10.302  2.1936  0.5144 -2.6209
25720SOL     OW80436   8.941   9.915   3.756 -0.6081 -0.4599  0.0158
25720SOL    HW180437   8.955  10.010   3.760 -0.8072 -0.4235 -0.1723
25720SOL    HW280438   9.029   9.879   3.748 -0.6318 -0.2020 -1.6372
25721SOL     OW80439   4.194   0.108   5.919  0.5045 -0.3191  0.3633
25721SOL    HW180440   4.185   0.109   6.014  1.9129  0.1422  0.5175
25721SOL    HW280441   4.224   0.019   5.899 -2.3255 -1.3125  0.0201
25722SOL     OW80442   3.819   1.992   8.818  0.0127 -0.4314  0.7607
25722SOL    HW180443   3.733   2.006   8.858 -0.0289 -0.4093  0.6630
25722SOL    HW280444   3.876   1.968   8.892 -0.4226 -2.0017  0.6186
25723SOL     OW80445   2.603   4.667   7.202 -0.7498  0.0406 -0.3088
25723SOL    HW180446   2.549   4.701   7.130  0.9298  1.6792 -0.8861
25723SOL    HW280447   2.670   4.615   7.158 -1.2273 -1.1530  0.3274
25724SOL     OW80448   8.208  10.781   6.374 -0.8594  0.7460  0.2172
25724SOL    HW180449   8.215  10.847   6.443 -0.6139  0.6983  0.2372
25724SOL    HW280450   8.205  10.697   6.420  0.6657  0.6185  0.1250
25725SOL     OW80451   0.373   0.789   3.430 -0.0328 -0.5299  0.1604
25725SOL    HW180452   0.381   0.837   3.348 -0.0982  1.2070  1.1182
25725SOL    HW280453   0.463   0.773   3.458 -0.0110 -1.1835 -0.2798
25726SOL     OW80454   8.909   4.084   0.124 -0.6554  0.3847  0.5072
25726SOL    HW180455   8.896   4.162   0.069 -0.3844  0.9502  1.2174
25726SOL    HW280456   8.833   4.084   0.182 -1.1419 -0.4335 -0.1231
25727SOL     OW80457   8.352   7.827   6.605  0.2085  0.9793 -0.3585
25727SOL    HW180458   8.375   7.918   6.620  1.0317  0.5409  1.2833
25727SOL    HW280459   8.414   7.797   6.538  1.2403  1.1068  0.5261
25728SOL     OW80460   5.453   1.425   1.049  0.0559 -0.0403  0.4959
25728SOL    HW180461   5.439   1.447   0.957  0.5273 -0.1471  0.3960
25728SOL    HW280462   5.446   1.508   1.095 -0.6871 -0.0608  0.4246
25729SOL     OW80463   9.550   0.334   4.333 -0.0298  0.4329  0.0318
25729SOL    HW180464   9.568   0.424   4.357 -0.6782  0.4081  0.6136
25729SOL    HW280465   9.625   0.284   4.367 -0.7352  0.4494  1.6699
25730SOL     OW80466   1.806  10.199   4.190 -0.2915  0.0302 -0.6918
25730SOL    HW180467   1.808  10.273   4.130  1.4405  0.7599  0.1745
25730SOL    HW280468   1.880  10.214   4.249 -1.6281 -0.8976  1.3324
25731SOL     OW80469   8.926   5.052   4.754 -0.4455 -0.3841  0.1166
25731SOL    HW180470   8.940   5.145   4.739  1.4219 -0.5985  0.2337
25731SOL    HW280471   8.942   5.040   4.848  0.4876 -0.9838 -0.1081
25732SOL     OW80472   9.513   8.648   7.655 -0.2771  0.1572 -0.4086
25732SOL    HW180473   9.425   8.680   7.636 -0.2774  0.3114 -0.1432
25732SOL    HW280474   9.571   8.718   7.625 -0.3330  1.2544  1.8309
25733SOL     OW80475   2.920   8.507   3.962  0.6266  0.0493 -0.3867
25733SOL    HW180476   2.862   8.437   3.992  0.3728 -0.3267 -1.6663
25733SOL    HW280477   3.006   8.465   3.955  0.9670  0.4804  1.0460
25734SOL     OW80478   4.194   1.587   8.168  0.0714  0.3435  0.0866
25734SOL    HW180479   4.168   1.679   8.161 -0.1872  0.2716  0.1056
25734SOL    HW280480   4.271   1.589   8.226  0.8222  0.6831 -0.8921
25735SOL     OW80481  11.220   5.337  10.590 -0.0246  0.1579 -0.6197
25735SOL    HW180482  11.254   5.248  10.593  3.9169  1.4496 -0.4492
25735SOL    HW280483  11.186   5.347  10.501 -0.0325 -1.3558 -0.7970
25736SOL     OW80484   3.277  10.405   3.847  0.3877 -0.1404 -0.0537
25736SOL    HW180485   3.278  10.472   3.915 -0.9815  0.9431 -1.0572
25736SOL    HW280486   3.209  10.433   3.786  1.2136 -1.3432 -1.6130
25737SOL     OW80487   1.112   8.308   9.791  0.4968  0.5921  0.0975
25737SOL    HW180488   1.137   8.337   9.704 -0.9437  0.6246 -0.3391
25737SOL    HW280489   1.172   8.353   9.850  2.3521 -0.4412 -0.9247
25738SOL     OW80490   1.501   8.042   3.910 -0.2226 -0.0302  0.5752
25738SOL    HW180491   1.504   7.955   3.871  1.7123  1.3163 -2.7283
25738SOL    HW280492   1.563   8.038   3.983 -0.2732 -1.4377  0.5652
25739SOL     OW80493   5.973   2.690   4.079 -0.0683  0.0291  0.2710
25739SOL    HW180494   5.965   2.709   3.986  0.2488  0.1167  0.2626
25739SOL    HW280495   5.889   2.650   4.103  0.4493 -1.5486 -0.4232
25740SOL     OW80496   3.757   3.302   5.741 -0.5409  0.3242 -0.2321
25740SOL    HW180497   3.681   3.329   5.792 -0.3436 -0.4370  0.4899
25740SOL    HW280498   3.828   3.297   5.806 -0.4024 -1.1758 -0.4614
25741SOL     OW80499   6.576   2.549   7.140  0.0296  0.2097 -0.1903
25741SOL    HW180500   6.485   2.518   7.145  0.0827  0.2380  1.7353
25741SOL    HW280501   6.623   2.478   7.097 -0.6933 -0.3471 -0.0791
25742SOL     OW80502   8.088  10.970   2.093  0.1006  0.2144 -0.3143
25742SOL    HW180503   8.169  10.920   2.091  1.1485  1.8563 -0.7457
25742SOL    HW280504   8.093  11.028   2.018 -1.0124  1.0326  0.2100
25743SOL     OW80505   6.203   1.095   8.319  0.6760 -0.2567 -0.0052
25743SOL    HW180506   6.112   1.070   8.306  0.9711 -1.0386 -0.6974
25743SOL    HW280507   6.216   1.171   8.263  0.9861 -1.4262 -1.5734
25744SOL     OW80508   2.303   6.253   1.793  0.0148  0.6664  0.1124
25744SOL    HW180509   2.382   6.224   1.839 -0.7056 -1.4039  0.1655
25744SOL    HW280510   2.312   6.216   1.705 -1.3128 -0.4502  0.4122
25745SOL     OW80511  10.862   5.686   6.734 -0.2119  0.0209 -0.5173
25745SOL    HW180512  10.803   5.732   6.795 -0.4427 -1.0487  0.0903
25745SOL    HW280513  10.808   5.670   6.656 -0.2221  0.5080 -0.6107
25746SOL     OW80514   8.383   3.604  11.370 -0.1407  0.1394  0.1306
25746SOL    HW180515   8.368   3.695  11.394 -2.1256 -0.1008 -0.0935
25746SOL    HW280516   8.377   3.556  11.452  2.8505  0.3435  0.5874
25747SOL     OW80517   9.906   5.626   5.442  0.2734 -0.2195 -0.2429
25747SOL    HW180518   9.824   5.656   5.403  1.3034 -0.0428 -2.4254
25747SOL    HW280519   9.882   5.595   5.530 -1.6084  2.7341  0.4184
25748SOL     OW80520   9.965   0.372   9.162 -0.7750 -0.8434 -0.5914
25748SOL    HW180521   9.919   0.347   9.242 -1.7257  0.5188 -0.6681
25748SOL    HW280522   9.902   0.426   9.114  0.3023 -0.3740 -1.5395
25749SOL     OW80523   6.963   8.641  10.160  0.4712  0.4515  0.0755
25749SOL    HW180524   6.894   8.606  10.217 -1.9293  2.2462 -1.5328
25749SOL    HW280525   6.981   8.569  10.099 -0.8061  0.2853 -0.1455
25750SOL     OW80526   3.509   8.189   6.588 -0.4209 -0.1168 -0.3701
25750SOL    HW180527   3.576   8.177   6.655 -0.1800  1.0261 -0.3788
25750SOL    HW280528   3.517   8.112   6.532  1.2016  0.1899 -0.6297
25751SOL     OW80529  10.992   6.466   2.907 -0.0766 -0.1062 -0.0306
25751SOL    HW180530  10.955   6.379   2.895  1.1843 -0.3984 -2.3692
25751SOL    HW280531  11.035   6.486   2.823  2.7087  1.2779  1.5743
25752SOL     OW80532   3.837   5.609   0.725 -0.1423 -0.2520 -0.0789
25752SOL    HW180533   3.899   5.536   0.721 -1.1166 -1.1551  0.4391
25752SOL    HW280534   3.871   5.665   0.795  1.1625  0.3545 -1.1501
25753SOL     OW80535   0.988   7.996   2.040  0.2548  0.1305 -0.2115
25753SOL    HW180536   1.051   7.926   2.023  0.8986  0.2389  1.5176
25753SOL    HW280537   0.990   8.049   1.960  0.6228 -1.1590 -1.0853
25754SOL     OW80538   9.295   8.927   1.930  0.3402  0.2978  0.3623
25754SOL    HW180539   9.251   8.873   1.996  1.4332 -2.3332 -0.9200
25754SOL    HW280540   9.384   8.937   1.962  0.2416  1.1022  0.4139
25755SOL     OW80541   0.408   3.882   6.157  0.1116  0.1620 -0.2808
25755SOL    HW180542   0.406   3.796   6.198  0.4073  0.1737 -0.2415
25755SOL    HW280543   0.361   3.939   6.218 -1.7545 -0.3378 -1.1758
25756SOL     OW80544   0.222   1.454   2.332  0.0853 -0.3037  0.3147
25756SOL    HW180545   0.134   1.442   2.296 -0.1772 -0.8594  1.1184
25756SOL    HW280546   0.278   1.397   2.279 -0.0483 -0.0146 -0.1425
25757SOL     OW80547   6.194   3.452   1.597  0.0184  0.1861  0.0025
25757SOL    HW180548   6.180   3.397   1.520 -0.2363  0.7153 -0.3366
25757SOL    HW280549   6.236   3.531   1.563 -0.8560  0.7810  0.2816
25758SOL     OW80550   9.230   8.294   5.546 -0.1210 -0.7479  0.2333
25758SOL    HW180551   9.135   8.287   5.537 -0.1365 -2.4645  1.2251
25758SOL    HW280552   9.250   8.244   5.626  1.5891 -0.2485  0.1529
25759SOL     OW80553   8.488   5.558   3.404  0.5329 -0.1548  0.4752
25759SOL    HW180554   8.482   5.498   3.330  0.0326 -0.1948  0.5475
25759SOL    HW280555   8.405   5.548   3.450  1.1810 -0.7568  1.5314
25760SOL     OW80556   9.704   7.422   1.820  0.3879 -0.3261 -0.4174
25760SOL    HW180557   9.774   7.482   1.845  0.0986  0.5854 -1.7333
25760SOL    HW280558   9.749   7.349   1.777  0.5898 -0.0476 -0.6849
25761SOL     OW80559   7.698   9.110  10.002 -0.0128 -0.5171  0.1367
25761SOL    HW180560   7.653   9.129  10.084 -0.3793 -1.0223  0.0540
25761SOL    HW280561   7.762   9.043  10.025  2.3215  1.7174  0.7577
25762SOL     OW80562   5.138   7.462   0.952 -0.6310 -0.0644  0.2073
25762SOL    HW180563   5.113   7.376   0.920 -1.8192 -0.7246  2.6087
25762SOL    HW280564   5.056   7.512   0.953 -0.1669  0.7251 -0.1069
25763SOL     OW80565  10.729   9.509   2.650  0.6808 -0.4811  0.7151
25763SOL    HW180566  10.705   9.592   2.607  0.2255 -0.2267  1.4402
25763SOL    HW280567  10.709   9.442   2.584  1.8804  0.0288 -0.2158
25764SOL     OW80568   6.028   2.452   4.815  0.0282  0.1028 -0.3949
25764SOL    HW180569   6.014   2.398   4.893  2.9675 -1.1536 -0.6154
25764SOL    HW280570   6.079   2.526   4.847 -0.2335  0.4879 -0.8577
25765SOL     OW80571   8.934   6.391   7.843 -0.3445  0.1812  0.3185
25765SOL    HW180572   8.876   6.384   7.919  0.7427 -3.8568  0.9912
25765SOL    HW280573   9.018   6.358   7.873  0.4309 -0.5697 -2.3508
25766SOL     OW80574   9.678  10.517   2.083  0.2864 -0.6900 -0.5873
25766SOL    HW180575   9.653  10.577   2.153 -0.5262  0.3045 -1.6853
25766SOL    HW280576   9.757  10.474   2.116 -0.2930 -0.5544  1.0916
25767SOL     OW80577   3.720   6.574   6.015 -0.6877  0.0319 -0.1609
25767SOL    HW180578   3.687   6.576   5.925  1.5968 -1.4860 -1.1321
25767SOL    HW280579   3.786   6.504   6.015  1.2337  1.6725  2.0245
25768SOL     OW80580   7.466   5.110   4.939  0.4037  0.3711  0.0441
25768SOL    HW180581   7.442   5.152   4.856  2.3284  0.9949 -0.2441
25768SOL    HW280582   7.399   5.043   4.952  0.0835  0.2224 -2.0464
25769SOL     OW80583  10.562   7.179   4.876  0.0778  0.4147 -0.4567
25769SOL    HW180584  10.580   7.086   4.888  1.1587  0.3547 -2.2892
25769SOL    HW280585  10.609   7.222   4.948 -1.7586 -0.5122  1.3787
25770SOL     OW80586   8.158  10.242   6.639  0.6983 -0.0485  0.0109
25770SOL    HW180587   8.199  10.298   6.572  0.4171 -0.4510 -0.5043
25770SOL    HW280588   8.231  10.195   6.679  0.7405 -1.0320 -1.1542
25771SOL     OW80589   1.626   6.240   8.337  0.3107 -0.4015 -0.4575
25771SOL    HW180590   1.596   6.262   8.249  0.7858 -1.8753 -1.0171
25771SOL    HW280591   1.718   6.269   8.339  1.0046 -2.3267 -1.2696
25772SOL     OW80592   8.354   9.765   2.891  0.0543 -0.1068 -0.1433
25772SOL    HW180593   8.271   9.722   2.913 -0.3011  0.8878  0.5259
25772SOL    HW280594   8.331   9.858   2.882  1.2611  0.3268  1.0146
25773SOL     OW80595   3.549   6.655   0.213 -0.5030  0.1655  0.2757
25773SOL    HW180596   3.473   6.600   0.196  0.7511 -1.0773 -1.6582
25773SOL    HW280597   3.593   6.613   0.287 -0.5777 -0.3239  0.0463
25774SOL     OW80598   5.262   9.258   6.087  0.3504 -0.3884 -0.2984
25774SOL    HW180599   5.252   9.271   6.181  3.7734 -0.1705  0.1840
25774SOL    HW280600   5.216   9.331   6.047 -1.1166 -0.4551  1.1905
25775SOL     OW80601   3.800   3.910   4.145 -0.1034 -0.3931  0.0126
25775SOL    HW180602   3.817   3.840   4.082 -0.1968  0.6996 -1.2791
25775SOL    HW280603   3.878   3.964   4.143 -0.0333 -0.4425  0.9983
25776SOL     OW80604  10.982   2.016   7.145 -0.0181  0.1815  0.0361
25776SOL    HW180605  10.929   1.982   7.074  0.7667 -1.5257  0.2105
25776SOL    HW280606  11.072   2.008   7.113  0.2372  1.6742  0.2999
25777SOL     OW80607   7.988   9.997   7.926 -0.1266  0.3584  0.4823
25777SOL    HW180608   7.962  10.010   7.835 -0.4280  0.4755  0.5838
25777SOL    HW280609   8.073   9.952   7.921 -0.6159 -0.5559  0.1468
25778SOL     OW80610   8.859   9.285  10.953  0.0808 -0.1575  0.2478
25778SOL    HW180611   8.790   9.231  10.915  1.2773 -0.4685 -1.6454
25778SOL    HW280612   8.819   9.371  10.965 -1.0167 -0.6922  0.5240
25779SOL     OW80613   7.878   9.573   2.147 -0.0895 -0.0995  0.5405
25779SOL    HW180614   7.827   9.523   2.210 -0.1174  0.3805  0.9040
25779SOL    HW280615   7.932   9.631   2.200  2.2457 -1.8716  0.2730
25780SOL     OW80616   2.766  10.136   1.633  0.4164  0.1221  0.3967
25780SOL    HW180617   2.716  10.063   1.596  2.4786 -0.5863 -1.1862
25780SOL    HW280618   2.837  10.095   1.682  0.4982  1.0697  1.0999
25781SOL     OW80619   0.241   2.389   1.880 -0.0697  0.4406  0.2999
25781SOL    HW180620   0.156   2.429   1.897  0.1193  1.0114 -0.0542
25781SOL    HW280621   0.259   2.336   1.957 -1.2294 -0.5423 -0.0905
25782SOL     OW80622   4.796  11.290   6.316  0.1015  0.0370 -0.0316
25782SOL    HW180623   4.748  11.210   6.336 -0.1698 -0.0308 -0.9193
25782SOL    HW280624   4.796  11.295   6.220 -1.7807  2.2200 -0.0174
25783SOL     OW80625   0.411  10.536   0.404  0.4978  0.1141  0.1766
25783SOL    HW180626   0.460  10.553   0.484  0.0032  0.4385  0.4188
25783SOL    HW280627   0.323  10.513   0.435 -0.2744  2.1927 -0.3085
25784SOL     OW80628   5.658   3.750   9.713  0.1607 -0.0996  0.0749
25784SOL    HW180629   5.623   3.817   9.654  0.1189 -0.6720 -0.5686
25784SOL    HW280630   5.682   3.798   9.792  0.9620  0.8297 -0.7020
25785SOL     OW80631   0.420   5.912  10.398 -0.0402  0.0619  0.1630
25785SOL    HW180632   0.340   5.863  10.416 -0.3248  0.2340 -0.5707
25785SOL    HW280633   0.474   5.900  10.476 -1.3556  1.1206  1.2913
25786SOL     OW80634   8.260   5.745   0.681  0.1251 -0.4998  0.5994
25786SOL    HW180635   8.277   5.771   0.772  0.9022 -0.3054  0.4090
25786SOL    HW280636   8.347   5.744   0.640 -0.3993  1.8248 -0.7727
25787SOL     OW80637   0.406   3.120   8.281 -0.6121  0.5286  0.0474
25787SOL    HW180638   0.500   3.109   8.298 -0.4235  2.1851  0.2204
25787SOL    HW280639   0.364   3.067   8.349  0.1629 -1.6479 -1.0842
25788SOL     OW80640  11.368   9.354   9.483  0.3734  0.1845 -0.0791
25788SOL    HW180641  11.288   9.361   9.534  0.0527 -1.0097 -0.3932
25788SOL    HW280642  11.436   9.333   9.547 -0.0518 -1.4569 -0.1279
25789SOL     OW80643   1.018   3.848  11.102 -0.0431  0.3432  0.0870
25789SOL    HW180644   1.082   3.844  11.173 -1.3688 -1.4461  1.2873
25789SOL    HW280645   0.939   3.884  11.144 -1.2695 -1.9969 -0.0270
25790SOL     OW80646   3.198   6.344   5.785  0.9123  0.6992 -0.6605
25790SOL    HW180647   3.228   6.429   5.753  0.7466  0.5510 -1.2188
25790SOL    HW280648   3.129   6.318   5.724 -0.0356  0.8170  0.3224
25791SOL     OW80649   7.699   3.862  11.101  0.1743  0.8088 -0.0269
25791SOL    HW180650   7.660   3.775  11.109  2.8194 -0.4588 -0.0813
25791SOL    HW280651   7.686   3.885  11.009  2.1104 -0.9402 -0.8062
25792SOL     OW80652   6.076   1.871   0.933  0.0223  0.8299  0.1127
25792SOL    HW180653   6.127   1.890   0.854 -0.6499  1.1237 -0.2587
25792SOL    HW280654   6.069   1.775   0.934 -0.1354  0.8340 -0.2985
25793SOL     OW80655   5.822  10.190   9.608 -0.3416  0.5782  0.1894
25793SOL    HW180656   5.892  10.206   9.545 -0.3851 -0.8946 -0.2654
25793SOL    HW280657   5.741  10.202   9.558 -0.3754 -0.9145 -0.1581
25794SOL     OW80658   5.378  10.672   6.954  0.1792  0.0028  0.5708
25794SOL    HW180659   5.360  10.712   6.869  3.4448  0.4657 -0.0478
25794SOL    HW280660   5.469  10.643   6.948 -0.1230 -1.8554  3.2149
25795SOL     OW80661   6.435   4.443   9.167 -0.4799 -0.1011 -0.6261
25795SOL    HW180662   6.512   4.481   9.125 -0.5601 -1.1772 -1.8383
25795SOL    HW280663   6.469   4.396   9.243 -0.1485  0.7691 -0.2309
25796SOL     OW80664  10.071   7.318   1.724  0.3309 -0.1941 -0.0764
25796SOL    HW180665  10.030   7.405   1.724 -1.3071 -0.7993  3.1387
25796SOL    HW280666  10.165   7.337   1.716 -0.0235  1.8352 -0.0782
25797SOL     OW80667   9.390   0.528   5.166 -0.2169  0.1037  0.1796
25797SOL    HW180668   9.411   0.459   5.103  0.1156 -0.0383  0.4418
25797SOL    HW280669   9.409   0.489   5.251 -2.6668 -0.4565  0.5429
25798SOL     OW80670   6.948   9.015   4.478  0.2178  0.0588  0.2745
25798SOL    HW180671   6.901   8.936   4.504 -0.0043  0.4620  1.0959
25798SOL    HW280672   6.882   9.084   4.479  0.6760  0.4900  0.7330
25799SOL     OW80673   6.805   5.801  10.916  0.3745  0.4589  0.8236
25799SOL    HW180674   6.741   5.731  10.907 -0.4777  1.3498 -0.2202
25799SOL    HW280675   6.753   5.881  10.919  1.3788  1.1125  1.2421
25800SOL     OW80676   7.627   3.953  10.212 -0.3944 -0.0170  0.2243
25800SOL    HW180677   7.648   3.863  10.237  2.1456  0.8478  1.6535
25800SOL    HW280678   7.681   3.969  10.134 -0.3503  0.4579  0.3499
25801SOL     OW80679   2.580  10.728   6.542 -0.2024 -0.3344  0.0396
25801SOL    HW180680   2.599  10.816   6.575  2.1117 -0.5899 -0.4496
25801SOL    HW280681   2.648  10.673   6.581 -0.6250 -1.6017 -0.9706
25802SOL     OW80682   4.039   8.716   9.915 -0.1354 -0.0821 -0.4474
25802SOL    HW180683   4.129   8.698   9.889  0.2330 -1.5218  1.5900
25802SOL    HW280684   3.987   8.687   9.839  1.0832  2.0355 -2.2098
25803SOL     OW80685   3.470   2.532   3.849  0.1428 -0.0041 -0.0621
25803SOL    HW180686   3.533   2.603   3.835 -0.3815  0.2026 -1.5907
25803SOL    HW280687   3.506   2.457   3.802 -0.0923 -0.2815  0.1923
25804SOL     OW80688   2.025   8.678   3.940  0.5525  0.3922  0.0367
25804SOL    HW180689   2.083   8.750   3.916  0.2274  0.2899 -1.1423
25804SOL    HW280690   2.062   8.602   3.896  0.4376 -0.0054  0.6096
25805SOL     OW80691  10.327  11.095   6.138  0.6139  0.2552 -0.4320
25805SOL    HW180692  10.278  11.149   6.076  0.7705 -0.1318 -0.8971
25805SOL    HW280693  10.417  11.127   6.132  1.0648 -1.1733 -1.9951
25806SOL     OW80694  11.124   4.653   2.469 -0.3272  0.3221  0.4525
25806SOL    HW180695  11.165   4.599   2.401  1.4730  1.9292  0.1853
25806SOL    HW280696  11.101   4.734   2.425  0.7566  1.3476  1.6730
25807SOL     OW80697   0.884   5.962   3.055 -0.3386 -0.3634 -0.0091
25807SOL    HW180698   0.914   5.912   2.979 -1.8368  1.1106 -1.6644
25807SOL    HW280699   0.935   6.043   3.052 -1.1447  0.1535 -0.1006
25808SOL     OW80700   7.206   5.125   5.794  0.1225 -0.1216 -0.6516
25808SOL    HW180701   7.124   5.120   5.745  0.5646 -1.7563 -1.3042
25808SOL    HW280702   7.180   5.157   5.881 -1.0438  0.3452 -1.1499
25809SOL     OW80703   6.195   8.190   1.796 -0.5827  0.3252  0.2344
25809SOL    HW180704   6.199   8.277   1.756 -1.5730 -0.7534 -2.3736
25809SOL    HW280705   6.285   8.157   1.792  0.0261  1.5435  2.2078
25810SOL     OW80706   8.016   5.636  10.715  0.4884  0.0527 -0.1781
25810SOL    HW180707   7.992   5.717  10.670 -0.1972 -0.3728 -0.6035
25810SOL    HW280708   7.932   5.592  10.732  0.7592  0.0515  1.2466
25811SOL     OW80709   4.532   7.253   4.374 -0.2301  0.1470 -0.4461
25811SOL    HW180710   4.583   7.172   4.369  0.0283  0.2650  0.1139
25811SOL    HW280711   4.473   7.249   4.299 -1.9038 -1.7184  0.8598
25812SOL     OW80712  11.142   6.954   7.597  0.3536  0.3547 -0.2781
25812SOL    HW180713  11.162   6.877   7.544 -1.4086 -0.0235 -0.4699
25812SOL    HW280714  11.121   7.023   7.534  1.2111  0.7860 -0.0977
25813SOL     OW80715   3.936   0.078   2.795 -0.5335 -0.2421 -0.6960
25813SOL    HW180716   3.908   0.048   2.881  0.3435  0.7727 -0.0375
25813SOL    HW280717   4.032   0.077   2.799 -0.4512  2.1846 -0.7829
25814SOL     OW80718   1.321  10.196  10.869 -0.1949  0.3465 -0.2014
25814SOL    HW180719   1.304  10.108  10.904 -0.1047  0.2075 -0.5078
25814SOL    HW280720   1.356  10.244  10.944 -1.4442  0.4988  0.3139
25815SOL     OW80721   5.684  10.827   0.857 -0.6505 -0.1381 -0.4295
25815SOL    HW180722   5.697  10.918   0.830 -0.5378 -0.2624 -0.8009
25815SOL    HW280723   5.607  10.830   0.914  0.7171  0.5493  1.4773
25816SOL     OW80724   5.911   9.405   0.927  0.3475 -0.2676  0.4415
25816SOL    HW180725   5.836   9.457   0.899  1.2401  1.0898  0.4425
25816SOL    HW280726   5.874   9.321   0.953 -0.8237 -0.8037 -2.5322
25817SOL     OW80727   1.668  10.686   9.912  0.5999 -0.6384 -0.1664
25817SOL    HW180728   1.698  10.643   9.992 -0.7329 -0.9572  0.1766
25817SOL    HW280729   1.600  10.628   9.877  0.2826  0.1257 -0.8524
25818SOL     OW80730   4.290   4.981   9.730 -0.2250 -0.1812  0.5659
25818SOL    HW180731   4.296   4.955   9.823  0.1880 -0.5675  0.4382
25818SOL    HW280732   4.334   4.910   9.683  0.2703  0.3993  0.1359
25819SOL     OW80733  11.292   9.929   5.800  0.0906  0.2763 -0.0766
25819SOL    HW180734  11.259   9.862   5.860 -1.8843 -0.2504 -1.6357
25819SOL    HW280735  11.382   9.902   5.781 -0.0987 -0.9441  0.6732
25820SOL     OW80736   6.367   3.939   7.422  0.2075 -0.4844  0.3611
25820SOL    HW180737   6.336   3.995   7.351  0.8542  0.7426  1.0159
25820SOL    HW280738   6.312   3.963   7.497  1.4252  0.3505  1.0232
25821SOL     OW80739   7.862   3.203  10.544  0.1912 -0.6046 -0.1997
25821SOL    HW180740   7.948   3.199  10.501  0.1259  0.7073 -0.4935
25821SOL    HW280741   7.874   3.154  10.626  1.7783  1.0770  0.6588
25822SOL     OW80742   2.224   7.053   8.194  0.0229  0.4071 -0.2766
25822SOL    HW180743   2.139   7.053   8.149 -0.0812  1.7423 -0.1244
25822SOL    HW280744   2.289   7.045   8.124 -0.1808  1.0991 -0.5488
25823SOL     OW80745  10.926   6.233   5.952 -0.2718  0.1311 -0.0127
25823SOL    HW180746  10.992   6.208   6.017  0.8635  2.1758 -0.2845
25823SOL    HW280747  10.855   6.270   6.004 -0.0036  0.4077  0.1682
25824SOL     OW80748   2.966   9.488   7.265 -0.9640  0.2177  0.2673
25824SOL    HW180749   3.033   9.513   7.201 -0.1980  0.7808  1.2620
25824SOL    HW280750   2.887   9.531   7.235 -0.9345 -0.5897 -1.0207
25825SOL     OW80751   6.875  11.069   2.021  0.0273 -0.7284 -0.0714
25825SOL    HW180752   6.927  10.991   2.002 -0.1672 -0.7507 -0.5418
25825SOL    HW280753   6.790  11.052   1.980  0.3808  0.2409 -1.2830
25826SOL     OW80754   0.220   7.325  10.812  0.3183  0.7874 -0.5542
25826SOL    HW180755   0.266   7.391  10.863 -2.8481  2.6401  0.1944
25826SOL    HW280756   0.186   7.372  10.735  0.8792 -0.8261 -1.8573
25827SOL     OW80757   6.415   6.062   6.360  0.1918  0.2550  0.1604
25827SOL    HW180758   6.435   5.989   6.417 -0.0138  0.6776  0.7839
25827SOL    HW280759   6.421   6.026   6.271 -1.2466 -0.8511  0.4809
25828SOL     OW80760   9.859   2.701   1.479  0.4977  0.9979  0.3759
25828SOL    HW180761   9.881   2.704   1.572  0.1922 -1.3798  0.5890
25828SOL    HW280762   9.868   2.609   1.455 -2.9803  0.8552 -1.0265
25829SOL     OW80763   6.251   2.272   8.468 -0.1607  0.6232  0.0004
25829SOL    HW180764   6.193   2.331   8.515  0.8269  0.5802  1.3130
25829SOL    HW280765   6.252   2.192   8.521  2.1868  1.1269  0.7959
25830SOL     OW80766   4.232  10.779   6.823 -0.5842 -0.6753  0.0249
25830SOL    HW180767   4.193  10.700   6.785  0.2534 -1.3593  0.5339
25830SOL    HW280768   4.158  10.835   6.844 -1.1339 -0.7537 -1.5572
25831SOL     OW80769   0.534   2.612   2.249 -0.0539  0.5191 -0.1303
25831SOL    HW180770   0.547   2.527   2.206  0.9127  0.5511  0.0723
25831SOL    HW280771   0.486   2.664   2.185 -0.5556 -0.1469 -0.3005
25832SOL     OW80772   6.926   1.637   0.690  0.1798 -0.2845  0.8317
25832SOL    HW180773   7.019   1.622   0.679  0.0662 -0.1303 -0.5516
25832SOL    HW280774   6.912   1.634   0.785  1.6645  0.2367  1.0929
25833SOL     OW80775   4.077   8.036   9.683  0.3559 -0.3940  0.2588
25833SOL    HW180776   4.148   8.087   9.644 -0.9010  0.7734 -0.5783
25833SOL    HW280777   4.119   7.955   9.711  1.5563 -0.9520 -2.7200
25834SOL     OW80778   4.410   5.081   1.881 -0.2609 -0.7307  0.6685
25834SOL    HW180779   4.418   5.102   1.788 -1.2024 -2.5369  0.1218
25834SOL    HW280780   4.500   5.078   1.913  0.0577  0.2163 -0.1001
25835SOL     OW80781   5.876  10.134  10.139 -0.0762 -0.1224  0.6249
25835SOL    HW180782   5.930  10.202  10.178  0.9707 -0.2590 -0.5236
25835SOL    HW280783   5.934  10.058  10.131 -0.6535 -0.5178  0.0717
25836SOL     OW80784   0.548   7.576   7.432 -0.2915 -0.1293  0.6683
25836SOL    HW180785   0.616   7.644   7.434  0.1637 -0.5745  2.9893
25836SOL    HW280786   0.484   7.608   7.368  0.5305  1.8467  0.7680
25837SOL     OW80787  11.307   2.815   8.102 -0.1454 -0.5665 -0.2540
25837SOL    HW180788  11.233   2.810   8.162  1.5449 -1.0863  1.9320
25837SOL    HW280789  11.343   2.726   8.100  2.4676  0.3070  1.6160
25838SOL     OW80790   8.656   3.793   6.499  0.0767 -0.1133 -0.1209
25838SOL    HW180791   8.563   3.818   6.492  0.2848  1.0714  0.9502
25838SOL    HW280792   8.697   3.830   6.421 -0.1285  0.5048  0.0567
25839SOL     OW80793   6.709   4.409   1.717  0.2769  0.0648  0.5221
25839SOL    HW180794   6.639   4.347   1.738  0.4331 -0.3814 -0.2200
25839SOL    HW280795   6.671   4.495   1.734 -0.1431 -0.2082  0.9956
25840SOL     OW80796  11.129   2.611   3.006  0.1811 -0.1863  0.7048
25840SOL    HW180797  11.140   2.684   3.067  1.4231 -0.2684  0.6104
25840SOL    HW280798  11.191   2.629   2.936 -1.5589  0.1406 -0.8173
25841SOL     OW80799   7.952   8.890   6.022  0.9242  0.1558  0.2186
25841SOL    HW180800   7.917   8.807   6.054  1.6062  0.1991  1.1064
25841SOL    HW280801   7.903   8.907   5.942  0.3624 -0.8055  0.3427
25842SOL     OW80802   8.413   9.486   2.543 -0.3256  0.3883 -0.1910
25842SOL    HW180803   8.410   9.572   2.501 -0.2218  1.2194  1.4003
25842SOL    HW280804   8.499   9.483   2.584  0.0252 -0.8742 -0.9888
25843SOL     OW80805   0.719   9.571   2.726  0.0241  0.4591  0.2145
25843SOL    HW180806   0.801   9.552   2.772 -0.8623 -0.0972  1.6305
25843SOL    HW280807   0.653   9.519   2.771 -1.3524  1.9064 -0.0232
25844SOL     OW80808  10.729   4.070   1.697 -0.2426  0.2372 -0.5987
25844SOL    HW180809  10.686   4.011   1.635 -1.2888  0.0741  0.2571
25844SOL    HW280810  10.815   4.030   1.712 -0.9748 -1.1484  0.0602
25845SOL     OW80811  10.543   6.272  10.136  0.6177  0.0394 -0.3948
25845SOL    HW180812  10.621   6.271  10.192  0.1171  0.4412  0.3232
25845SOL    HW280813  10.576   6.250  10.049  1.5907  0.5376 -0.1694
25846SOL     OW80814   9.924  10.088   3.640 -0.3148  0.0785  0.1239
25846SOL    HW180815   9.985  10.150   3.600  0.0480  0.0869  0.6794
25846SOL    HW280816   9.855  10.077   3.575  0.1157  0.3169 -0.3811
25847SOL     OW80817   8.763   2.123   3.919  0.0228  0.3391 -0.3747
25847SOL    HW180818   8.681   2.140   3.966  0.5914  0.9149  0.4415
25847SOL    HW280819   8.754   2.171   3.837 -0.8250 -0.3445 -0.6915
25848SOL     OW80820  10.634   3.860   8.605 -0.5039 -0.5997 -0.0176
25848SOL    HW180821  10.695   3.798   8.646  0.4877 -1.4602 -2.5906
25848SOL    HW280822  10.675   3.945   8.618  1.2626 -1.1439 -1.4962
25849SOL     OW80823  11.280   6.300  10.842  0.5962  0.0369  0.1465
25849SOL    HW180824  11.297   6.353  10.764  0.4623  0.0524  0.1269
25849SOL    HW280825  11.223   6.230  10.811  0.4016  0.1427  0.2669
25850SOL     OW80826   7.528   3.514   4.044 -0.7186  0.2696  0.1335
25850SOL    HW180827   7.569   3.582   4.096 -0.8286  0.6686 -0.2938
25850SOL    HW280828   7.450   3.555   4.007 -2.4388 -0.9074  2.1989
25851SOL     OW80829   4.766   2.847   1.340  0.3558  0.1887  0.4299
25851SOL    HW180830   4.836   2.791   1.308  0.7036  0.8921 -0.0571
25851SOL    HW280831   4.793   2.936   1.316 -1.0970  0.4012 -0.5276
25852SOL     OW80832   0.651   1.136  11.352 -0.6005 -0.8216  0.4762
25852SOL    HW180833   0.600   1.162  11.429 -0.1052  1.5288  0.0989
25852SOL    HW280834   0.603   1.174  11.278  0.4977 -0.4659 -0.0777
25853SOL     OW80835  10.605   7.067  10.748 -0.5809 -0.2331  0.3075
25853SOL    HW180836  10.540   7.123  10.790 -1.7249 -1.2193 -0.0948
25853SOL    HW280837  10.556   7.018  10.682  0.3145 -1.9380  0.8539
25854SOL     OW80838   4.252   8.584   7.602 -0.1757  0.3428  0.0727
25854SOL    HW180839   4.325   8.643   7.619  0.8637 -0.9040  0.1530
25854SOL    HW280840   4.184   8.639   7.565  1.7533  1.1661 -2.5314
25855SOL     OW80841   5.965   3.693   7.846  0.8884 -0.1037  0.1661
25855SOL    HW180842   5.969   3.638   7.768 -1.3109 -1.6825  1.0669
25855SOL    HW280843   5.955   3.783   7.812  0.9111 -0.6438 -1.3436
25856SOL     OW80844   3.888  10.574   1.249 -0.2435 -0.9223 -0.0039
25856SOL    HW180845   3.855  10.485   1.241 -1.6776 -0.4397  0.0634
25856SOL    HW280846   3.815  10.622   1.290  0.4889  0.2726 -0.0540
25857SOL     OW80847   5.109   5.510   4.530 -0.0611  0.0363 -0.0213
25857SOL    HW180848   5.193   5.485   4.492 -0.0915  0.5369 -0.4478
25857SOL    HW280849   5.044   5.464   4.477 -0.0415 -0.8676  0.7229
25858SOL     OW80850   2.482   3.191   1.053 -0.0028 -0.1305  0.0808
25858SOL    HW180851   2.529   3.127   1.000  1.0400  0.0743  0.7500
25858SOL    HW280852   2.389   3.174   1.034  0.3220  0.4615 -2.4592
25859SOL     OW80853   4.118  10.784   3.219 -0.4152 -0.6396  0.5985
25859SOL    HW180854   4.067  10.710   3.252 -2.0470  0.9691  1.9272
25859SOL    HW280855   4.121  10.845   3.293  2.0860  0.0538  0.0023
25860SOL     OW80856   0.749   4.475   6.872  0.3637  0.1645  0.0050
25860SOL    HW180857   0.719   4.521   6.950 -1.4386 -1.3914  0.3055
25860SOL    HW280858   0.724   4.384   6.887  2.4349 -0.6927 -1.2139
25861SOL     OW80859   8.099   1.083  10.468 -0.3777 -0.0560  0.3254
25861SOL    HW180860   8.178   1.116  10.426 -1.4451  3.1392  0.5815
25861SOL    HW280861   8.072   1.008  10.414  0.5018  1.4026 -2.3090
25862SOL     OW80862   4.398   7.911   0.313 -0.0201  0.2284 -0.2462
25862SOL    HW180863   4.492   7.891   0.318 -0.1699 -0.4413  0.1351
25862SOL    HW280864   4.356   7.826   0.329 -0.7437  1.1728  4.0016
25863SOL     OW80865   8.551  10.053   7.442  0.0630 -0.3096  0.2240
25863SOL    HW180866   8.487   9.985   7.462 -0.3211  0.1459  0.6063
25863SOL    HW280867   8.505  10.135   7.464  0.0113  0.1635 -1.5576
25864SOL     OW80868   0.314  10.442   3.188 -0.0163 -0.5942 -0.1324
25864SOL    HW180869   0.322  10.460   3.094  1.1380  0.9754  0.2446
25864SOL    HW280870   0.235  10.388   3.194 -0.9962  0.5330 -1.8465
25865SOL     OW80871   9.345   0.482   0.224 -0.1445 -0.4875  0.0660
25865SOL    HW180872   9.372   0.506   0.135  0.9111  2.4026  1.0309
25865SOL    HW280873   9.404   0.410   0.248 -0.1531 -1.0189 -1.3880
25866SOL     OW80874   6.290   5.533   3.568 -0.3540 -0.3176  0.2373
25866SOL    HW180875   6.365   5.489   3.607 -0.7868 -1.7723 -0.4831
25866SOL    HW280876   6.252   5.585   3.639  1.5860  0.8525  0.4798
25867SOL     OW80877   0.205  10.033   0.532 -0.4460 -0.0844 -0.2103
25867SOL    HW180878   0.203  10.110   0.589  1.4300 -0.1043 -0.0566
25867SOL    HW280879   0.242  10.065   0.449  0.9845 -0.9057  0.0731
25868SOL     OW80880   0.133   8.431   9.071 -0.1721  0.2497 -0.0650
25868SOL    HW180881   0.132   8.365   9.001 -0.2215 -0.2872  0.4326
25868SOL    HW280882   0.145   8.380   9.151 -0.2084  0.8530  0.3263
25869SOL     OW80883  10.987  10.986   6.227 -0.3368  0.1351 -0.2121
25869SOL    HW180884  11.018  11.054   6.168  0.8981  0.5242  0.8575
25869SOL    HW280885  10.997  11.023   6.314 -1.0040 -0.8828  0.3151
25870SOL     OW80886   7.892   6.521   7.422 -0.0729  0.3349 -0.2589
25870SOL    HW180887   7.816   6.539   7.478 -0.3770 -1.1445 -0.1573
25870SOL    HW280888   7.868   6.560   7.337 -0.4798  0.8132  0.0712
25871SOL     OW80889   1.738   6.297   0.768 -0.9349 -0.5050  0.0763
25871SOL    HW180890   1.764   6.369   0.710 -0.7873 -0.9968 -0.4710
25871SOL    HW280891   1.807   6.232   0.759 -1.1909 -0.8239  0.3925
25872SOL     OW80892   5.014   3.355   7.812  0.3453 -0.1832  0.4648
25872SOL    HW180893   5.003   3.271   7.857 -2.4948  0.3043  0.8738
25872SOL    HW280894   5.022   3.332   7.720  1.6373 -0.9602  0.7409
25873SOL     OW80895   2.563  10.678   0.730 -0.1868 -0.1529  0.4725
25873SOL    HW180896   2.469  10.677   0.751 -0.1567  1.0183  0.7487
25873SOL    HW280897   2.566  10.704   0.638 -0.0946  1.7216  0.9679
25874SOL     OW80898   5.220   1.369   7.418 -0.1032 -0.3325 -0.4521
25874SOL    HW180899   5.248   1.298   7.476  2.5753  1.5206  0.7491
25874SOL    HW280900   5.259   1.347   7.333  1.3066 -0.0345  0.0840
25875SOL     OW80901   2.140   3.414   8.230 -0.4902 -0.1347 -0.3768
25875SOL    HW180902   2.143   3.465   8.149 -0.9317  0.9859  0.2907
25875SOL    HW280903   2.050   3.384   8.236 -0.3072 -0.7474 -0.6063
25876SOL     OW80904   7.165   0.940   9.421 -0.5098  0.4689  0.1151
25876SOL    HW180905   7.225   0.935   9.347 -1.9948  1.3212 -1.2102
25876SOL    HW280906   7.209   0.998   9.483  1.4183 -1.4122  0.6226
25877SOL     OW80907   4.877   8.770   6.472 -0.0870 -0.0427  0.5939
25877SOL    HW180908   4.827   8.795   6.550 -0.0128 -0.4499  0.7726
25877SOL    HW280909   4.856   8.838   6.408  1.1954  1.2590  1.5126
25878SOL     OW80910   4.794   2.351   2.975 -0.1211 -0.2131 -0.3706
25878SOL    HW180911   4.721   2.366   2.914 -0.2119  1.4195  0.0868
25878SOL    HW280912   4.872   2.365   2.922  0.0613 -3.9343 -1.4023
25879SOL     OW80913   2.686   3.359   0.651 -0.0542 -0.2116 -0.0096
25879SOL    HW180914   2.608   3.370   0.707  0.1887 -0.2862  0.3477
25879SOL    HW280915   2.754   3.330   0.711 -0.1911 -1.8737 -0.5962
25880SOL     OW80916   7.872   1.047   5.261 -0.1875 -0.2952 -0.0871
25880SOL    HW180917   7.966   1.032   5.256  0.0422  0.3589  1.7704
25880SOL    HW280918   7.833   0.961   5.244  0.8046 -0.9226  0.7086
25881SOL     OW80919  11.043   6.217  11.295  0.0935  0.1939 -0.5898
25881SOL    HW180920  11.104   6.164  11.346 -0.8368  0.1419  0.5027
25881SOL    HW280921  11.098   6.262  11.231  1.2546  0.0204  0.2549
25882SOL     OW80922   0.369   3.385   4.802 -0.1028  0.1321  0.2435
25882SOL    HW180923   0.304   3.325   4.839  1.7576 -1.9393  0.3862
25882SOL    HW280924   0.446   3.375   4.858  0.7708  1.5851 -0.6227
25883SOL     OW80925   4.149   8.505   0.511  1.2540 -0.3741 -0.4370
25883SOL    HW180926   4.083   8.436   0.519  1.7052 -0.9120 -1.1921
25883SOL    HW280927   4.118   8.559   0.438  0.1265  1.1206  1.0965
25884SOL     OW80928  11.176   5.941   3.819 -0.0477 -0.3245 -0.0473
25884SOL    HW180929  11.231   5.868   3.793 -0.6737 -0.0418 -2.3463
25884SOL    HW280930  11.178   5.939   3.915  2.5029 -1.3684 -0.0368
25885SOL     OW80931   5.038   3.659   6.911 -0.3671  0.5849  0.2416
25885SOL    HW180932   4.963   3.625   6.862  0.1884  0.5471 -0.5935
25885SOL    HW280933   4.999   3.719   6.974 -1.1886 -0.1595  0.4751
25886SOL     OW80934   0.795   8.207   6.340 -0.4818 -0.1253 -0.3188
25886SOL    HW180935   0.826   8.211   6.430 -1.9556 -0.9939  0.2571
25886SOL    HW280936   0.874   8.220   6.287  0.4051  0.3671  1.0851
25887SOL     OW80937  11.019   3.708   9.667  0.2548 -0.3560 -0.1438
25887SOL    HW180938  10.990   3.644   9.601  0.2905  0.5755 -1.0990
25887SOL    HW280939  11.113   3.692   9.677  0.0522 -1.2183  0.5102
25888SOL     OW80940   5.925   3.310   9.767  0.8215  0.1077  0.3283
25888SOL    HW180941   5.905   3.401   9.746 -0.9639  0.0813  1.5959
25888SOL    HW280942   5.897   3.261   9.690 -0.3534  0.4748  0.4883
25889SOL     OW80943  10.533   7.650  11.170 -0.2353 -0.2653  0.2716
25889SOL    HW180944  10.599   7.669  11.236  1.2850 -1.5685 -0.8068
25889SOL    HW280945  10.569   7.682  11.088 -2.0094  1.1377 -0.0200
25890SOL     OW80946   0.403   4.592   2.786  0.1799 -0.4119  0.5784
25890SOL    HW180947   0.480   4.536   2.771 -0.1391 -0.6031 -0.4215
25890SOL    HW280948   0.339   4.534   2.827  1.1916  0.2085  3.2341
25891SOL     OW80949   0.671   7.300   7.198  0.1261  0.2847 -0.1771
25891SOL    HW180950   0.579   7.313   7.174  0.0109  1.1691  0.6829
25891SOL    HW280951   0.720   7.342   7.127 -0.1466  0.3534 -0.3285
25892SOL     OW80952   6.878   3.143   9.853 -0.4713  0.1831  0.0251
25892SOL    HW180953   6.806   3.190   9.812 -0.3386 -0.3221 -0.8096
25892SOL    HW280954   6.844   3.056   9.870  0.1652 -0.2973 -1.0822
25893SOL     OW80955  11.016   2.712   0.066  0.1159 -0.2595  0.3677
25893SOL    HW180956  10.996   2.656  -0.009  0.8107  0.8046 -0.6668
25893SOL    HW280957  11.099   2.678   0.100  2.2118  1.8374 -2.1576
25894SOL     OW80958  11.226   0.776  10.231 -0.0153 -0.2657  0.0688
25894SOL    HW180959  11.151   0.748  10.179  1.7517 -0.0324 -2.8373
25894SOL    HW280960  11.212   0.870  10.244 -0.4976 -0.3327  0.0608
25895SOL     OW80961   4.611   3.906   4.506 -0.3502  0.0151  0.6506
25895SOL    HW180962   4.551   3.849   4.554 -0.8520 -0.2000 -0.1997
25895SOL    HW280963   4.688   3.852   4.491 -0.1558  0.1167  1.3007
25896SOL     OW80964   1.755   5.911   8.195 -0.0454  0.4650  0.0260
25896SOL    HW180965   1.794   5.945   8.114  0.2318  1.3252  0.5015
25896SOL    HW280966   1.668   5.951   8.198 -0.1397  0.2553  0.0323
25897SOL     OW80967  11.006   7.626   1.389 -0.1114  0.5701 -0.0037
25897SOL    HW180968  10.916   7.651   1.369 -1.0925 -0.8106  2.3149
25897SOL    HW280969  11.019   7.542   1.345 -1.1980 -0.8989  2.2600
25898SOL     OW80970   3.026   3.290   5.100  0.2134 -0.7131  0.2308
25898SOL    HW180971   2.987   3.355   5.159  1.3588 -0.5865  0.8763
25898SOL    HW280972   2.956   3.227   5.084 -0.5164 -0.0319  0.6582
25899SOL     OW80973   3.558   9.129   1.897 -0.0407  0.1619  0.2430
25899SOL    HW180974   3.536   9.070   1.970  0.5112  1.5251  1.5676
25899SOL    HW280975   3.648   9.107   1.876 -0.4985 -0.9008 -0.7305
25900SOL     OW80976   1.317   5.950  10.613  0.1748 -0.5388  0.0284
25900SOL    HW180977   1.403   5.909  10.626  0.6852  0.3360 -0.5034
25900SOL    HW280978   1.280   5.955  10.701  2.1381  2.1742  0.8522
25901SOL     OW80979   8.790   4.715   3.141  0.4877 -0.5914 -0.4479
25901SOL    HW180980   8.729   4.727   3.068  1.5619 -1.6637 -1.6090
25901SOL    HW280981   8.854   4.785   3.131 -0.4322  0.4376  0.6724
25902SOL     OW80982   1.002  11.346   1.425  0.1952  0.3271 -0.4449
25902SOL    HW180983   0.973  11.359   1.334  0.2828 -0.2245 -0.5571
25902SOL    HW280984   1.068  11.277   1.419  1.1666  1.2068 -0.1272
25903SOL     OW80985   2.966   3.894   8.675 -0.4077  0.2457  0.6124
25903SOL    HW180986   2.929   3.940   8.750  0.1652  1.9273 -0.0761
25903SOL    HW280987   2.891   3.873   8.620 -0.7925 -0.6852  1.4580
25904SOL     OW80988   3.806   8.280   4.419  0.1951 -0.0754 -0.1223
25904SOL    HW180989   3.826   8.223   4.494 -1.9380  1.3097  1.6561
25904SOL    HW280990   3.783   8.364   4.459 -1.0719  0.7153 -2.3387
25905SOL     OW80991   2.197   8.106   3.454 -0.2876  0.1485 -0.3786
25905SOL    HW180992   2.112   8.137   3.486  0.4637  3.4101 -1.1880
25905SOL    HW280993   2.183   8.090   3.360 -0.0061  0.7514 -0.5256
25906SOL     OW80994   4.033   2.069   0.822 -0.0582  0.0558  0.6789
25906SOL    HW180995   3.992   1.988   0.852 -2.4236  0.4281 -1.2544
25906SOL    HW280996   4.037   2.124   0.901 -0.6480 -1.0578  1.5123
25907SOL     OW80997   8.106   9.520   8.986  0.0139  0.1766 -0.3927
25907SOL    HW180998   8.152   9.441   8.958  1.0635 -0.0104  1.7236
25907SOL    HW280999   8.015   9.493   8.995  0.0420 -0.3069 -1.3829
25908SOL     OW81000   1.016   2.615   5.937  0.1754 -0.0425 -0.3869
25908SOL    HW181001   1.004   2.701   5.979  0.4373 -0.3273  0.2813
25908SOL    HW281002   1.107   2.593   5.954  0.3720 -0.0199 -1.3980
25909SOL     OW81003  11.273   8.958   8.762  0.1505  0.3656  0.0349
25909SOL    HW181004  11.188   8.953   8.804 -1.4224  2.2140 -2.6207
25909SOL    HW281005  11.303   9.047   8.781  0.9530  0.1158 -0.0320
25910SOL     OW81006   6.870   8.649   9.353 -0.0901  0.0279  0.1233
25910SOL    HW181007   6.841   8.604   9.274  1.1885 -0.1022 -0.3017
25910SOL    HW281008   6.800   8.711   9.373 -0.7208 -0.3883 -0.7365
25911SOL     OW81009   3.085   6.498   3.069 -0.2834 -0.0994  0.5376
25911SOL    HW181010   3.119   6.581   3.101  0.3217 -0.2365  0.2547
25911SOL    HW281011   3.162   6.446   3.049 -0.6547 -0.8543  1.0184
25912SOL     OW81012   6.193   1.052   5.145  0.2432 -0.1941 -0.2647
25912SOL    HW181013   6.259   1.056   5.076  1.6003  1.6990  1.0348
25912SOL    HW281014   6.238   1.010   5.218 -0.1663  0.5916  0.4543
25913SOL     OW81015   1.221   2.909   2.442  0.5107 -0.3318  0.0815
25913SOL    HW181016   1.265   2.881   2.361  1.2747 -0.3858  0.5118
25913SOL    HW281017   1.291   2.944   2.497  0.1341 -1.0900  1.0741
25914SOL     OW81018   6.080   9.608   6.470  0.6278  0.9217  0.6061
25914SOL    HW181019   6.050   9.588   6.558 -1.1119 -1.4040 -0.4103
25914SOL    HW281020   6.168   9.644   6.482 -0.1680  2.1927  3.3427
25915SOL     OW81021   8.393   5.555  10.324 -0.6874  0.0106 -0.2727
25915SOL    HW181022   8.325   5.580  10.386  0.6904  1.4205  0.7461
25915SOL    HW281023   8.375   5.609  10.246 -0.2850  1.0116  0.3050
25916SOL     OW81024   0.941   6.736   7.947 -0.0903 -0.9743  0.2786
25916SOL    HW181025   0.897   6.821   7.943 -0.1866 -1.0691 -1.2697
25916SOL    HW281026   0.877   6.678   7.988 -0.4754 -0.5652  0.2672
25917SOL     OW81027   7.563   0.425  10.907 -0.3327 -0.0399  0.2795
25917SOL    HW181028   7.473   0.394  10.905  0.4973 -2.7374 -0.7212
25917SOL    HW281029   7.594   0.414  10.817  1.0319  0.6485  0.6470
25918SOL     OW81030   5.979   7.875   9.289  0.1394 -0.8235 -0.1587
25918SOL    HW181031   6.002   7.964   9.260 -1.9926 -0.2018 -0.0924
25918SOL    HW281032   6.029   7.864   9.371  0.5713  0.2434 -0.2557
25919SOL     OW81033  11.167   1.270   0.641 -0.4249 -0.3022 -0.1419
25919SOL    HW181034  11.117   1.236   0.568 -0.6592  1.1030 -0.6652
25919SOL    HW281035  11.238   1.207   0.654 -0.1900 -0.4048 -1.8005
25920SOL     OW81036   3.795  10.380   2.481 -0.1566  0.3468  0.5971
25920SOL    HW181037   3.771  10.469   2.507 -0.3497  0.1398  1.1427
25920SOL    HW281038   3.712  10.336   2.466 -0.0610  0.2605  0.3267
25921SOL     OW81039   0.933   4.742  10.208 -0.5605  0.1306 -0.0576
25921SOL    HW181040   0.858   4.795  10.235 -0.0264 -0.1800  2.2335
25921SOL    HW281041   1.000   4.806  10.182 -0.6246  0.5170  0.7067
25922SOL     OW81042   1.716   6.565   5.050  0.3088  0.3883 -0.0393
25922SOL    HW181043   1.768   6.613   4.985 -0.5566  0.2371 -0.8623
25922SOL    HW281044   1.634   6.613   5.056  0.5416  0.6490  1.2862
25923SOL     OW81045   4.800   9.021   2.337  0.0888 -0.2465 -1.2733
25923SOL    HW181046   4.775   8.974   2.416 -0.0689 -1.1103 -1.8190
25923SOL    HW281047   4.734   8.997   2.272 -0.3404  1.2095 -1.4191
25924SOL     OW81048   8.732   2.817   7.499 -0.2903 -0.0039  0.7153
25924SOL    HW181049   8.824   2.820   7.474 -1.0186  1.1420 -2.2312
25924SOL    HW281050   8.689   2.769   7.427 -2.1435  0.4483  1.4597
25925SOL     OW81051   5.666  11.282   0.369 -0.7346 -0.3325 -0.0254
25925SOL    HW181052   5.601  11.323   0.312 -0.4257  0.0502 -0.1059
25925SOL    HW281053   5.750  11.307   0.331 -0.4774  0.9789  1.3171
25926SOL     OW81054   1.232   0.799   0.795 -0.1025  0.0398 -0.6234
25926SOL    HW181055   1.258   0.891   0.791 -1.1610  0.4476  0.8056
25926SOL    HW281056   1.315   0.751   0.796  0.4576  0.8273 -3.2153
25927SOL     OW81057  10.726  10.822   1.881 -0.6466  0.1118  0.1824
25927SOL    HW181058  10.780  10.886   1.927 -1.2023  0.3429  0.5326
25927SOL    HW281059  10.670  10.875   1.824  0.3346 -0.1967 -1.1102
25928SOL     OW81060   2.702   5.458   3.385 -0.4975  0.3514 -0.1778
25928SOL    HW181061   2.640   5.392   3.355 -0.7518  0.4596  0.1042
25928SOL    HW281062   2.785   5.411   3.396 -0.5963  0.1503 -0.2995
25929SOL     OW81063   2.201   8.828  10.996 -0.3165 -0.5297 -0.5487
25929SOL    HW181064   2.123   8.797  11.040 -0.0319  0.5606  0.8185
25929SOL    HW281065   2.272   8.775  11.032 -0.1316  0.1013  0.0323
25930SOL     OW81066   2.805   7.632   1.366  0.1367 -0.7375  0.3194
25930SOL    HW181067   2.815   7.552   1.418  0.1096 -1.4459 -0.7106
25930SOL    HW281068   2.866   7.695   1.405 -1.3594 -0.5452  2.4523
25931SOL     OW81069   5.373  11.182  10.093  0.1816 -0.2643  0.0931
25931SOL    HW181070   5.380  11.259  10.036 -0.1915 -0.2644  0.0426
25931SOL    HW281071   5.296  11.200  10.147 -0.3043 -0.9006 -0.3750
25932SOL     OW81072  10.322  10.546   6.917 -0.4967  0.2716  0.7119
25932SOL    HW181073  10.372  10.495   6.854 -0.7482  0.1263  0.6261
25932SOL    HW281074  10.377  10.549   6.995  0.2921  1.3912  0.1231
25933SOL     OW81075   2.092   4.181   0.159  0.1861 -0.1072 -0.6169
25933SOL    HW181076   2.083   4.272   0.187 -3.7535 -0.5552  0.1455
25933SOL    HW281077   2.086   4.130   0.240  0.9584 -1.1328 -1.1692
25934SOL     OW81078   2.611   7.843   4.086 -0.6951  0.0086 -0.2014
25934SOL    HW181079   2.567   7.917   4.045  0.0579 -0.4488 -1.9049
25934SOL    HW281080   2.591   7.768   4.030  1.0356 -0.4890 -0.2045
25935SOL     OW81081   7.222   8.827   9.652  0.2612 -0.2865  0.0724
25935SOL    HW181082   7.158   8.897   9.657 -0.6564 -1.0263 -0.9134
25935SOL    HW281083   7.253   8.816   9.742 -0.1034  0.8866  0.3550
25936SOL     OW81084   4.533   7.105   2.664  0.1383  0.4244 -0.1064
25936SOL    HW181085   4.446   7.082   2.633 -0.4701  2.8911 -0.4268
25936SOL    HW281086   4.519   7.176   2.727  1.9418  2.0060 -1.3422
25937SOL     OW81087   8.446   2.199   6.386 -0.3386 -0.2137 -0.4577
25937SOL    HW181088   8.358   2.162   6.378 -0.7401  0.3709  0.9559
25937SOL    HW281089   8.472   2.181   6.476  1.7064 -1.8458 -1.2799
25938SOL     OW81090  10.030   9.622   6.750 -0.0283  0.0413  0.4886
25938SOL    HW181091   9.962   9.658   6.694 -0.0591 -0.6828  0.0572
25938SOL    HW281092  10.105   9.609   6.692  0.5264  0.9390  0.9815
25939SOL     OW81093   0.621   7.781  10.700 -0.0829 -0.9335 -0.1699
25939SOL    HW181094   0.591   7.859  10.747 -0.7172 -1.5285  0.4344
25939SOL    HW281095   0.569   7.780  10.620 -0.0612 -0.7272 -0.1883
25940SOL     OW81096   7.037   0.262  11.174 -0.3147  0.5410 -0.1550
25940SOL    HW181097   7.096   0.199  11.133 -0.2142  0.0670  0.6999
25940SOL    HW281098   7.049   0.342  11.123  1.4182  0.6028  0.2708
25941SOL     OW81099   3.408   0.481   7.905  0.0419  0.2587  0.3684
25941SOL    HW181100   3.449   0.568   7.898  0.2420  0.2537  1.3915
25941SOL    HW281101   3.477   0.420   7.881 -0.5084  0.4254 -1.8215
25942SOL     OW81102   4.358   0.273  10.624 -0.4306  0.3648 -0.1256
25942SOL    HW181103   4.308   0.261  10.705 -0.7013  0.9875 -0.1899
25942SOL    HW281104   4.423   0.340  10.645 -0.4662  0.4891 -0.4051
25943SOL     OW81105   6.711   6.936   6.864 -0.4994 -0.0431 -0.0125
25943SOL    HW181106   6.673   7.003   6.807 -0.8676 -0.0036  0.2773
25943SOL    HW281107   6.775   6.984   6.917 -0.0533 -0.1080 -0.4891
25944SOL     OW81108   0.453   8.695   9.639  0.0226  0.0551  0.3563
25944SOL    HW181109   0.458   8.772   9.694 -0.0292  1.6918 -1.7917
25944SOL    HW281110   0.428   8.728   9.553  0.3023 -2.3263 -0.7380
25945SOL     OW81111   4.257   6.682   5.498 -0.3613  0.2203 -0.0886
25945SOL    HW181112   4.341   6.664   5.542 -1.2219 -2.4187  0.6689
25945SOL    HW281113   4.232   6.768   5.530  0.3596 -0.4648  2.5805
25946SOL     OW81114   7.921   1.446   9.445 -0.1766 -0.0025 -0.2789
25946SOL    HW181115   7.846   1.482   9.492  0.8795 -0.2515  1.6998
25946SOL    HW281116   7.887   1.369   9.400 -1.2987  0.4368 -0.2134
25947SOL     OW81117   6.723  11.033   6.309 -0.0506  0.0351  0.1042
25947SOL    HW181118   6.662  11.017   6.238  1.1166  0.7570 -1.1090
25947SOL    HW281119   6.772  10.951   6.318 -1.0429 -0.4881  0.9686
25948SOL     OW81120   6.065  10.682   2.707  0.1044 -0.1486  0.1879
25948SOL    HW181121   6.068  10.641   2.621  3.5087 -0.2307  0.1939
25948SOL    HW281122   6.129  10.633   2.759 -2.2427 -0.4634  3.0111
25949SOL     OW81123   0.703   3.625  10.719  0.1144  0.1127 -0.4887
25949SOL    HW181124   0.639   3.581  10.662 -0.1025  0.5364 -0.5774
25949SOL    HW281125   0.745   3.554  10.768 -1.9657 -0.0718  1.2021
25950SOL     OW81126   1.180   6.685   9.777  0.3549  0.0267 -0.6724
25950SOL    HW181127   1.240   6.628   9.728  0.1039  0.6000 -1.6920
25950SOL    HW281128   1.095   6.672   9.735 -0.3430 -1.0125  0.9666
25951SOL     OW81129   5.847   0.651   2.973  0.1654  0.2123  0.3221
25951SOL    HW181130   5.888   0.710   3.036  0.9913  0.4056 -0.3745
25951SOL    HW281131   5.827   0.572   3.023  1.6016  0.0270  0.6295
25952SOL     OW81132   0.548   1.292   7.366  0.0702 -0.1677  0.4210
25952SOL    HW181133   0.610   1.223   7.343  0.2252  0.6139 -1.7568
25952SOL    HW281134   0.465   1.246   7.379  0.3685 -0.8833 -0.1020
25953SOL     OW81135   3.987   4.638   9.086 -0.5515 -0.6890 -0.3106
25953SOL    HW181136   4.079   4.638   9.112  0.4446 -0.0589 -3.4030
25953SOL    HW281137   3.970   4.548   9.058  0.3881 -0.0161 -3.3615
25954SOL     OW81138   4.360   6.927   9.511  0.2651  0.3431  0.2860
25954SOL    HW181139   4.443   6.958   9.548  0.0700 -1.0480  2.0284
25954SOL    HW281140   4.298   6.932   9.584 -0.9112  0.3279 -0.6955
25955SOL     OW81141   2.201   0.541   4.582  0.3680  0.3881  0.1435
25955SOL    HW181142   2.131   0.494   4.537  0.3687  0.6194 -0.1038
25955SOL    HW281143   2.269   0.551   4.515  1.3211 -1.2684  0.8249
25956SOL     OW81144  10.664   9.642   6.382  0.1799  0.4169  0.1871
25956SOL    HW181145  10.640   9.609   6.296  1.9624 -0.1521 -0.1528
25956SOL    HW281146  10.582   9.645   6.432 -0.5008 -1.7450 -0.7005
25957SOL     OW81147   7.737   0.999   0.932 -0.4070  0.1732 -0.1996
25957SOL    HW181148   7.724   0.990   0.837 -0.0846  2.3982 -0.4930
25957SOL    HW281149   7.827   0.972   0.947 -0.4958 -0.3010 -0.4868
25958SOL     OW81150   4.573   5.413   9.908 -0.4278 -0.1494  0.8917
25958SOL    HW181151   4.656   5.390   9.950  0.0725 -0.8777 -0.4313
25958SOL    HW281152   4.568   5.508   9.916  1.9619  0.2879 -1.4166
25959SOL     OW81153   7.311   4.836   5.800 -0.5082  0.8696  0.0796
25959SOL    HW181154   7.238   4.778   5.820 -0.9334  2.3180  3.6875
25959SOL    HW281155   7.272   4.924   5.800  0.8858  1.5165 -0.1544
25960SOL     OW81156  11.207   6.422   6.038  0.6316 -0.7634 -0.9443
25960SOL    HW181157  11.289   6.434   5.989 -0.4042  1.2388 -2.3550
25960SOL    HW281158  11.140   6.457   5.980 -0.8471  0.6294  1.4284
25961SOL     OW81159   5.031   7.593   9.614  0.6114  0.3281  0.0262
25961SOL    HW181160   5.125   7.607   9.604  0.7417 -0.0499  0.6569
25961SOL    HW281161   5.023   7.500   9.638  0.0338  0.2086 -0.5902
25962SOL     OW81162   4.331   8.678   4.910  0.0926 -0.1248  1.0879
25962SOL    HW181163   4.417   8.715   4.888  0.0613 -0.1199  0.9741
25962SOL    HW281164   4.269   8.729   4.859  0.0077 -0.0365  1.2774
25963SOL     OW81165  10.626   7.470   4.956  0.4374  0.1659  0.5185
25963SOL    HW181166  10.584   7.524   5.023  0.1265 -1.0103  1.3085
25963SOL    HW281167  10.678   7.406   5.005  1.0721 -0.0491 -0.3924
25964SOL     OW81168   0.777   8.837   7.403  0.7273 -0.2161  0.5065
25964SOL    HW181169   0.776   8.753   7.449 -0.3136  0.0398  0.9730
25964SOL    HW281170   0.860   8.877   7.428  1.9011 -1.6723 -0.8108
25965SOL     OW81171   4.048   9.284   9.097 -0.1038 -0.0118  0.5855
25965SOL    HW181172   3.971   9.340   9.103 -0.9574 -1.1184  0.4315
25965SOL    HW281173   4.039   9.240   9.012  0.6595 -0.1989  0.5980
25966SOL     OW81174  11.045   8.035   7.486 -0.6467  0.5038  0.3972
25966SOL    HW181175  10.979   8.074   7.428 -0.8835 -0.8115 -0.2499
25966SOL    HW281176  11.113   8.002   7.427 -1.5108 -2.0359  0.6925
25967SOL     OW81177  11.054   2.153   0.222 -0.1947  0.1525  0.0354
25967SOL    HW181178  11.090   2.175   0.136  1.8847  0.4426  0.9281
25967SOL    HW281179  10.988   2.086   0.204  1.0418 -0.6712 -1.6883
25968SOL     OW81180   2.797   1.803   6.488  0.8429  0.1013 -0.5388
25968SOL    HW181181   2.835   1.872   6.432  1.1791  0.1896 -0.2095
25968SOL    HW281182   2.704   1.825   6.494  0.9110  0.4149 -0.6010
25969SOL     OW81183   1.314   0.730  10.234 -0.0951  0.3026  0.2630
25969SOL    HW181184   1.324   0.783  10.313 -1.9512 -0.4189  1.0416
25969SOL    HW281185   1.313   0.640  10.267  3.2242 -0.3749 -1.0335
25970SOL     OW81186  11.102   6.099  10.809 -0.1735 -0.4045  0.1716
25970SOL    HW181187  11.068   6.009  10.808 -2.3520  0.3468 -1.3299
25970SOL    HW281188  11.048   6.145  10.744  1.2477  1.8690  0.5150
25971SOL     OW81189   5.104   1.169  10.967 -0.4891 -0.2359 -0.2830
25971SOL    HW181190   5.039   1.119  11.016  1.2603 -1.1576  1.2399
25971SOL    HW281191   5.107   1.126  10.881 -1.7575 -0.2569 -0.3336
25972SOL     OW81192   8.184   5.517   2.602  0.0534 -0.1542  0.1208
25972SOL    HW181193   8.153   5.576   2.534 -0.5155 -2.1644 -1.4826
25972SOL    HW281194   8.159   5.430   2.571  0.2045 -1.2043  2.7024
25973SOL     OW81195   9.353   4.344   2.907 -0.0607 -0.4900 -0.0664
25973SOL    HW181196   9.293   4.411   2.940  0.2991  0.1687 -0.7246
25973SOL    HW281197   9.335   4.267   2.961 -0.6682  0.0542  0.5242
25974SOL     OW81198  10.574   8.342   0.578 -0.2309 -0.4911  0.0474
25974SOL    HW181199  10.505   8.405   0.558 -0.6232 -0.9226  0.0369
25974SOL    HW281200  10.616   8.325   0.494 -3.0042 -3.6593 -0.9025
25975SOL     OW81201  10.318   8.971   9.639  0.0705  0.0569 -0.6235
25975SOL    HW181202  10.339   8.914   9.565  0.8424 -0.9324  0.3254
25975SOL    HW281203  10.382   9.041   9.633  0.3190 -0.1749 -0.7259
25976SOL     OW81204   3.594   0.334   7.334  0.1938 -0.4669 -0.2664
25976SOL    HW181205   3.647   0.400   7.290 -0.6534  0.6137  0.2598
25976SOL    HW281206   3.629   0.250   7.304  2.7606  0.1552  0.7170
25977SOL     OW81207   2.794  10.081   0.134 -0.2544  0.0390  0.2582
25977SOL    HW181208   2.803  10.044   0.046  0.7633  0.7337  0.0534
25977SOL    HW281209   2.780  10.175   0.120  1.4943  0.4359  0.8347
25978SOL     OW81210   6.290   0.161   5.401 -0.5006  0.4844 -0.0422
25978SOL    HW181211   6.258   0.126   5.484 -0.0841 -0.5467 -0.2999
25978SOL    HW281212   6.384   0.169   5.412 -0.0603 -2.0791 -1.2143
25979SOL     OW81213   0.819   4.991   7.916 -0.5648 -0.2165 -0.3177
25979SOL    HW181214   0.909   5.021   7.922 -0.4061 -0.5849 -0.8124
25979SOL    HW281215   0.767   5.062   7.954  0.0601 -0.7667  1.7192
25980SOL     OW81216   1.938   0.075  10.986  0.2373  0.2558 -0.0746
25980SOL    HW181217   1.901   0.148  11.035  1.2747  0.4976  0.3831
25980SOL    HW281218   1.879   0.002  11.003 -0.0684  0.6447  0.5834
25981SOL     OW81219   6.155   3.708   0.391  0.0113 -0.4003  0.7810
25981SOL    HW181220   6.151   3.695   0.485 -0.9554  0.8384  0.9377
25981SOL    HW281221   6.201   3.630   0.357  0.8016 -0.6261  2.2994
25982SOL     OW81222   8.235   7.815   2.052  0.5971 -0.2854 -0.5120
25982SOL    HW181223   8.228   7.812   1.956 -2.0701  0.2724 -0.4315
25982SOL    HW281224   8.228   7.723   2.079  0.4887 -0.3744 -0.8303
25983SOL     OW81225   4.266   7.890  11.033  0.1473  0.1562  0.1605
25983SOL    HW181226   4.229   7.928  11.112 -0.7793 -0.1714 -0.0967
25983SOL    HW281227   4.292   7.965  10.980  0.6943  0.3772  0.7313
25984SOL     OW81228   8.728   8.321   8.164 -0.5684  0.3664  0.5854
25984SOL    HW181229   8.802   8.292   8.218  0.1423  0.0561 -0.5201
25984SOL    HW281230   8.670   8.245   8.160  0.7681 -0.6262 -1.4111
25985SOL     OW81231   3.336   1.696   4.424  0.7263 -0.1847 -0.1226
25985SOL    HW181232   3.268   1.666   4.364 -1.3061  1.7007  1.0947
25985SOL    HW281233   3.355   1.620   4.478  0.9645 -1.2627 -1.6350
25986SOL     OW81234   0.042   4.382   8.414  0.1525  0.5181  0.2655
25986SOL    HW181235  -0.042   4.411   8.377  0.1822 -0.9789 -1.0989
25986SOL    HW281236   0.108   4.435   8.368  0.0731 -0.0287 -0.5081
25987SOL     OW81237   3.056   8.499   3.394  0.0161  0.0172 -0.0465
25987SOL    HW181238   3.000   8.490   3.471 -1.5336 -0.7376 -1.2099
25987SOL    HW281239   3.000   8.475   3.320  1.4455  0.7402 -1.4291
25988SOL     OW81240   4.047   3.833  10.328  0.2159  1.2587 -0.3273
25988SOL    HW181241   4.102   3.912  10.330  0.1692  1.3032 -0.7238
25988SOL    HW281242   4.012   3.826  10.417 -0.0355  1.8644 -0.3698
25989SOL     OW81243   0.058   4.823   0.597  0.1394  0.1231 -0.0853
25989SOL    HW181244  -0.017   4.882   0.587  1.7386  2.2307 -0.2925
25989SOL    HW281245   0.079   4.795   0.508  0.2371  0.3936 -0.1490
25990SOL     OW81246   8.862   0.380   1.282  0.3076  0.4300 -0.2313
25990SOL    HW181247   8.925   0.364   1.212 -1.0807 -0.2015 -1.3843
25990SOL    HW281248   8.913   0.422   1.351  2.4284 -1.7303 -0.3426
25991SOL     OW81249   8.349   1.975   3.053  0.5558 -0.0904  0.9189
25991SOL    HW181250   8.414   1.909   3.027  0.8456  0.3044  0.6107
25991SOL    HW281251   8.397   2.031   3.114  1.2905  1.6157 -1.0928
25992SOL     OW81252   5.555  10.504   0.432  0.4185 -0.1617 -0.6408
25992SOL    HW181253   5.499  10.484   0.507  2.6972 -3.0943  0.4610
25992SOL    HW281254   5.616  10.570   0.464  1.2678 -1.2721  0.0987
25993SOL     OW81255   6.719   2.413   9.601 -0.2138  0.2152  0.1507
25993SOL    HW181256   6.672   2.496   9.595  0.6447  0.6148 -1.6397
25993SOL    HW281257   6.732   2.399   9.695 -0.8075  1.8461  0.4996
25994SOL     OW81258   3.426   7.562   5.376 -0.2270 -0.2770  0.2372
25994SOL    HW181259   3.393   7.516   5.453 -0.9806 -1.0140 -0.4935
25994SOL    HW281260   3.378   7.645   5.376 -1.9896 -1.2263 -0.6675
25995SOL     OW81261   3.470   5.008  10.811  1.0982 -0.0021 -0.1805
25995SOL    HW181262   3.459   5.099  10.784 -0.3661 -0.2678 -0.5745
25995SOL    HW281263   3.517   5.013  10.894 -3.5140  1.5481  2.7355
25996SOL     OW81264   3.188   4.944   6.075  0.0951  0.4241  0.2555
25996SOL    HW181265   3.196   5.006   6.002 -1.7469 -0.5127 -0.8119
25996SOL    HW281266   3.189   4.858   6.034 -0.3772 -0.1483  1.3922
25997SOL     OW81267   1.664   0.735   7.931  0.1641 -0.0828 -0.3803
25997SOL    HW181268   1.668   0.734   7.835  0.4423  1.3250 -0.4088
25997SOL    HW281269   1.572   0.718   7.952  0.3907 -2.1668 -0.8021
25998SOL     OW81270   2.641   2.291   2.187  0.4431  0.1786 -0.4654
25998SOL    HW181271   2.732   2.321   2.195  0.2292  0.4912  1.2932
25998SOL    HW281272   2.604   2.346   2.118  1.8035 -0.5612 -1.8338
25999SOL     OW81273  10.706   0.812  10.767  0.1059  0.4883  0.1609
25999SOL    HW181274  10.785   0.771  10.733 -1.8681 -0.7006 -3.5172
25999SOL    HW281275  10.653   0.831  10.689 -2.9633  1.8567  2.3603
26000SOL     OW81276   8.307   8.304   0.368  0.0923 -0.6153  0.2734
26000SOL    HW181277   8.337   8.387   0.405  0.8535 -0.2533 -1.0823
26000SOL    HW281278   8.375   8.280   0.305 -0.3880 -1.9961  0.2401
26001SOL     OW81279   2.399   5.481  10.405  0.0670 -0.0274 -0.0729
26001SOL    HW181280   2.309   5.458  10.382 -0.7718  0.3885  2.4838
26001SOL    HW281281   2.398   5.577  10.411  0.4236 -0.0712  0.8283
26002SOL     OW81282   4.817   3.050   9.525 -0.3070  0.0153  0.1199
26002SOL    HW181283   4.887   3.039   9.590  0.7803 -0.2154 -1.0554
26002SOL    HW281284   4.791   3.142   9.534 -0.1841 -0.0185  0.8899
26003SOL     OW81285  11.130   9.030   6.295 -0.1560 -0.0717  0.1081
26003SOL    HW181286  11.136   9.125   6.287  0.4341 -0.0853  0.3839
26003SOL    HW281287  11.037   9.011   6.279 -0.3423  0.5814  0.3819
26004SOL     OW81288   1.901   3.293   3.128 -0.1489  0.0465  0.3182
26004SOL    HW181289   1.860   3.349   3.194 -0.2692 -0.3051  0.5425
26004SOL    HW281290   1.940   3.221   3.178 -0.1738 -0.1786  0.0162
26005SOL     OW81291   3.276   9.625   0.791  0.2522 -0.2284  0.2309
26005SOL    HW181292   3.360   9.628   0.746 -0.3080 -0.4704 -0.8470
26005SOL    HW281293   3.219   9.684   0.742 -0.5923 -1.0780  0.1459
26006SOL     OW81294  10.808   6.648   5.614  0.1399  0.1883 -0.0420
26006SOL    HW181295  10.877   6.705   5.580  1.3747 -1.4028 -0.2914
26006SOL    HW281296  10.749   6.636   5.540  0.8056 -0.2231 -0.5198
26007SOL     OW81297   8.949   7.705   5.361  0.1630  0.0136 -0.1162
26007SOL    HW181298   8.938   7.721   5.267  1.6005  0.3560 -0.2441
26007SOL    HW281299   8.952   7.792   5.400 -2.7688 -0.0928  0.6111
26008SOL     OW81300   8.498   5.553   2.459  0.3795  0.0569 -0.3358
26008SOL    HW181301   8.419   5.542   2.511  0.2008 -0.3138 -0.6793
26008SOL    HW281302   8.489   5.641   2.421 -0.7173 -0.6110 -1.7479
26009SOL     OW81303   7.851   2.260   4.904  0.0641  0.3375 -0.3429
26009SOL    HW181304   7.907   2.230   4.832  1.5877  0.4176  0.7437
26009SOL    HW281305   7.872   2.200   4.976 -0.2608  1.2056  0.4840
26010SOL     OW81306   4.152   6.939   1.649 -0.4685  0.1211  0.0295
26010SOL    HW181307   4.085   6.908   1.588 -0.2085  0.1940 -0.2972
26010SOL    HW281308   4.183   7.021   1.611  0.1608 -0.1660 -0.0859
26011SOL     OW81309   5.416   2.910   4.822 -0.1775 -0.4546 -0.2118
26011SOL    HW181310   5.357   2.929   4.894  0.8904 -3.0928  1.5175
26011SOL    HW281311   5.372   2.840   4.773  0.0711 -0.1597 -0.8732
26012SOL     OW81312   1.769   5.654   0.113 -0.3337 -0.2212  0.2272
26012SOL    HW181313   1.805   5.625   0.029 -0.1226  0.5780  0.0323
26012SOL    HW281314   1.736   5.574   0.154  1.0947 -0.8793  0.1412
26013SOL     OW81315   7.457   1.519   8.297 -0.9373  0.0235  0.3093
26013SOL    HW181316   7.381   1.574   8.315 -0.0307  0.4061  3.5140
26013SOL    HW281317   7.505   1.517   8.379  1.7155 -1.5052 -1.1590
26014SOL     OW81318   5.296   4.105   2.152  0.0879  0.3863  0.0335
26014SOL    HW181319   5.287   4.126   2.245  0.1894  0.6594 -0.0148
26014SOL    HW281320   5.271   4.013   2.144  0.2159  0.3236  0.3545
26015SOL     OW81321   4.434  10.325   8.874 -0.4483  0.3469 -0.3236
26015SOL    HW181322   4.389  10.289   8.797 -1.1846  1.1349 -0.2699
26015SOL    HW281323   4.399  10.413   8.883 -2.7929 -0.7544  2.7754
26016SOL     OW81324   6.729   4.597   2.053 -0.2452  0.3266 -0.1295
26016SOL    HW181325   6.686   4.517   2.083 -0.1859  0.0183 -0.8474
26016SOL    HW281326   6.785   4.568   1.981 -1.6623  1.2928 -1.6848
26017SOL     OW81327   6.986   3.767   1.581  0.0823  0.4587  0.6578
26017SOL    HW181328   6.917   3.787   1.517  0.5580  1.6196  0.4747
26017SOL    HW281329   6.989   3.845   1.637  1.4704  0.5865  0.4393
26018SOL     OW81330   7.005   7.840   0.349 -0.1677  0.3513 -0.2213
26018SOL    HW181331   6.971   7.901   0.284  0.1488  0.7739  0.0034
26018SOL    HW281332   7.034   7.896   0.421  1.7880  0.0968 -0.7565
26019SOL     OW81333  10.095   2.391   6.641 -0.2812  0.2259 -0.2541
26019SOL    HW181334  10.160   2.413   6.708 -0.3351 -0.7167  0.1296
26019SOL    HW281335  10.131   2.314   6.597 -1.0506 -0.2188 -0.1369
26020SOL     OW81336   9.704  10.574   1.461  0.1697 -0.6177 -0.1708
26020SOL    HW181337   9.743  10.486   1.461 -0.6528 -1.0077  1.1539
26020SOL    HW281338   9.680  10.589   1.369  1.0472 -1.4282 -0.5562
26021SOL     OW81339   3.633   3.096   6.865  0.1210 -0.2458  0.1462
26021SOL    HW181340   3.666   3.007   6.850 -0.2407 -0.2863 -0.4808
26021SOL    HW281341   3.589   3.119   6.783  0.7276  0.7449  0.0800
26022SOL     OW81342   3.910  10.775   9.144  0.3274  0.4045 -0.0766
26022SOL    HW181343   3.819  10.775   9.113  0.8820 -1.2728 -1.9515
26022SOL    HW281344   3.909  10.722   9.223 -0.3527  0.4942 -0.0231
26023SOL     OW81345  10.444   5.770   7.220 -0.0632 -0.4544 -0.2591
26023SOL    HW181346  10.375   5.837   7.227 -0.5623 -0.8758 -1.0286
26023SOL    HW281347  10.522   5.820   7.197 -0.3062 -0.0730 -0.2801
26024SOL     OW81348  10.500   6.364   4.133 -1.2944  0.1412  0.4798
26024SOL    HW181349  10.463   6.301   4.194  1.4195 -2.8644 -0.7018
26024SOL    HW281350  10.581   6.394   4.175  0.6362 -1.9998 -1.4414
26025SOL     OW81351   6.148   6.052   4.090 -0.2274 -0.3526 -0.4142
26025SOL    HW181352   6.085   5.993   4.133  2.2391 -2.4338  0.5987
26025SOL    HW281353   6.165   6.012   4.005 -1.2594  1.0030 -1.3138
26026SOL     OW81354   1.433   5.966   9.588  0.0249 -0.1347  0.0748
26026SOL    HW181355   1.459   6.056   9.568 -0.4049  0.4180  1.8036
26026SOL    HW281356   1.351   5.975   9.636  0.9300 -1.2807  1.9450
26027SOL     OW81357   6.323   1.823   7.202  0.4048  0.1730  0.0442
26027SOL    HW181358   6.309   1.824   7.297  1.2888 -0.5868  0.2009
26027SOL    HW281359   6.377   1.901   7.186 -0.2669  0.6466  0.0727
26028SOL     OW81360   9.364   5.656   6.914  0.0230  0.0084  0.2230
26028SOL    HW181361   9.457   5.657   6.934  0.3066 -1.7087 -0.7921
26028SOL    HW281362   9.341   5.748   6.900  1.0563  0.7030  2.5321
26029SOL     OW81363   0.847   1.863   0.150 -0.5652  0.0942 -0.2562
26029SOL    HW181364   0.784   1.877   0.080 -0.2726  1.4853 -0.2741
26029SOL    HW281365   0.930   1.893   0.113  0.1619 -1.8349 -0.2811
26030SOL     OW81366   3.012   8.748   7.313 -0.4137 -0.0584 -0.7093
26030SOL    HW181367   3.052   8.666   7.342  0.3582  0.7424  0.5205
26030SOL    HW281368   3.073   8.816   7.339 -1.2345  0.9595 -1.3607
26031SOL     OW81369   7.187   9.724   0.809 -0.4795  0.2536  0.4544
26031SOL    HW181370   7.168   9.790   0.743  0.5241 -0.9141 -1.0834
26031SOL    HW281371   7.249   9.767   0.868  0.8617  0.4701 -1.0309
26032SOL     OW81372   2.294   0.980   8.221 -0.1245  0.7287  0.2940
26032SOL    HW181373   2.278   0.962   8.128  0.5628 -0.6384  0.4088
26032SOL    HW281374   2.373   0.930   8.241  0.3991  1.9219  1.3529
26033SOL     OW81375   7.570   1.500  11.335  0.2403 -0.6166 -0.7544
26033SOL    HW181376   7.481   1.464  11.338  0.1278 -0.4619 -1.8945
26033SOL    HW281377   7.627   1.424  11.327  0.1381 -0.6598 -1.0789
26034SOL     OW81378   7.142   9.997  10.938 -0.1466 -0.2865 -0.9722
26034SOL    HW181379   7.069  10.006  11.000  1.2944  0.2908  0.7226
26034SOL    HW281380   7.148   9.903  10.922 -0.7713 -0.4144 -0.5157
26035SOL     OW81381  10.610   3.835   8.337  0.6069  0.3908  0.7686
26035SOL    HW181382  10.676   3.878   8.284  0.6244  0.1299  0.5779
26035SOL    HW281383  10.631   3.861   8.427 -0.4378  2.2318  0.5305
26036SOL     OW81384   9.239   8.633   1.223 -0.0519 -0.2918  0.1533
26036SOL    HW181385   9.308   8.574   1.253  0.7848  0.8029  0.4727
26036SOL    HW281386   9.253   8.640   1.128  0.5873  0.2617  0.2723
26037SOL     OW81387   8.540   0.492  10.541  0.3289 -0.7279  0.4318
26037SOL    HW181388   8.549   0.472  10.634  0.0905 -0.0061  0.6161
26037SOL    HW281389   8.531   0.407  10.498 -0.8685 -1.0079  1.2080
26038SOL     OW81390   7.399   8.596   5.129 -0.3254  0.4000  0.3704
26038SOL    HW181391   7.370   8.507   5.106  0.2062  0.0339  1.0832
26038SOL    HW281392   7.388   8.601   5.224 -0.2315  1.0618  0.3511
26039SOL     OW81393  10.803   9.729   7.639 -0.5722  0.1474  0.2494
26039SOL    HW181394  10.837   9.687   7.718 -0.4839 -1.0083 -0.3962
26039SOL    HW281395  10.711   9.749   7.661 -0.5608 -0.1999  0.6317
26040SOL     OW81396   8.226  10.799   4.111 -0.0356 -0.2936  0.5429
26040SOL    HW181397   8.283  10.756   4.175  3.8327  1.5224 -1.3436
26040SOL    HW281398   8.232  10.744   4.033  0.9702  1.0493 -0.3543
26041SOL     OW81399   4.835   8.163   3.117  0.9548 -0.2921  0.1455
26041SOL    HW181400   4.868   8.076   3.136 -0.4940 -1.4578 -2.2338
26041SOL    HW281401   4.794   8.155   3.031 -0.7264  2.3254  0.5900
26042SOL     OW81402   7.342   1.317   8.141 -0.7538 -0.3883 -0.2708
26042SOL    HW181403   7.271   1.369   8.178 -0.6776  0.0994 -0.8107
26042SOL    HW281404   7.415   1.379   8.131 -1.1702 -0.2072 -2.4293
26043SOL     OW81405   2.148   1.090   3.200 -0.0984 -0.1182 -0.1064
26043SOL    HW181406   2.096   1.038   3.262  1.1215 -1.5097 -0.2187
26043SOL    HW281407   2.126   1.054   3.114  1.9569 -1.6223 -0.0694
26044SOL     OW81408   2.984   4.621   5.632 -0.0174  0.1732  0.6456
26044SOL    HW181409   3.022   4.702   5.664  0.2419  0.8153 -1.1773
26044SOL    HW281410   2.915   4.648   5.572  1.3738 -0.8529 -1.5708
26045SOL     OW81411  10.497   1.394  10.378 -0.0572  0.2802 -0.5008
26045SOL    HW181412  10.519   1.484  10.402 -0.4123  0.0939  0.5829
26045SOL    HW281413  10.420   1.373  10.429  0.5147 -0.9213 -0.0810
26046SOL     OW81414   1.758   9.561   4.376 -0.5888 -0.0389  0.6735
26046SOL    HW181415   1.722   9.542   4.463 -1.9777 -2.3756 -0.3259
26046SOL    HW281416   1.699   9.627   4.340 -0.7727 -0.0023  1.0346
26047SOL     OW81417   5.280   8.760   3.495 -0.4375 -0.5119 -0.2579
26047SOL    HW181418   5.371   8.755   3.526 -0.0274 -1.5359 -1.5157
26047SOL    HW281419   5.238   8.682   3.534 -0.4859 -0.6274 -0.5411
26048SOL     OW81420   3.282  10.315   3.320  0.0928  0.6481 -0.5676
26048SOL    HW181421   3.332  10.251   3.370  2.0774 -0.0178 -3.1573
26048SOL    HW281422   3.191  10.288   3.332  0.5217  0.0389  1.8813
26049SOL     OW81423   3.561   4.725   7.279  0.2847 -0.1188 -0.6337
26049SOL    HW181424   3.582   4.772   7.359  1.1786  1.3623 -1.6879
26049SOL    HW281425   3.465   4.720   7.279  0.2960 -1.2658  1.0983
26050SOL     OW81426   9.641   1.262   7.305  0.1955  0.0469  0.0241
26050SOL    HW181427   9.652   1.328   7.374  2.1693 -0.5951  0.3872
26050SOL    HW281428   9.633   1.314   7.224  1.1904  0.7691  0.3657
26051SOL     OW81429   9.015   2.061   8.360  0.6353  0.0062 -0.5486
26051SOL    HW181430   9.057   1.978   8.338  1.1679  0.1974 -0.2812
26051SOL    HW281431   8.964   2.043   8.438 -0.1049 -0.3254 -1.1002
26052SOL     OW81432   4.027   5.135   9.828 -0.0945  0.0921 -0.1530
26052SOL    HW181433   4.101   5.129   9.768  1.5929 -0.3444  1.8253
26052SOL    HW281434   4.056   5.197   9.895 -0.8379 -1.3065  1.5430
26053SOL     OW81435   8.361  11.388   0.439  0.3607  0.1426 -0.1956
26053SOL    HW181436   8.332  11.428   0.521 -1.3753 -0.4082 -0.4858
26053SOL    HW281437   8.455  11.405   0.436  0.3086  0.9903  1.4423
26054SOL     OW81438  10.829   4.793  10.334  0.0164  0.1158 -0.0938
26054SOL    HW181439  10.771   4.835  10.270  0.8980 -0.2954 -1.1994
26054SOL    HW281440  10.804   4.832  10.418 -0.5617  1.3546 -0.8020
26055SOL     OW81441   0.837   9.562   1.415 -0.5498 -0.1877  0.7109
26055SOL    HW181442   0.817   9.574   1.322 -1.1053  0.6307  0.9245
26055SOL    HW281443   0.752   9.540   1.455 -1.1211  3.1719  1.6087
26056SOL     OW81444  10.869   4.648   6.057  0.4631  0.2161 -0.3931
26056SOL    HW181445  10.815   4.639   6.136 -1.5497  1.4099 -1.5436
26056SOL    HW281446  10.829   4.720   6.009  1.7895 -0.2982 -2.3894
26057SOL     OW81447  10.779   8.808   1.924 -0.0042  0.8095 -0.0017
26057SOL    HW181448  10.860   8.783   1.967  0.1926  0.6636 -0.4514
26057SOL    HW281449  10.804   8.827   1.834 -0.1875  2.3969  0.2503
26058SOL     OW81450   8.419   5.382   3.218 -0.0630  0.4303  0.1224
26058SOL    HW181451   8.419   5.427   3.133  0.5298  1.2043  0.5181
26058SOL    HW281452   8.416   5.289   3.195  0.8116  0.5997 -0.7725
26059SOL     OW81453   6.238   5.858   5.219  0.1120 -0.1779 -0.3698
26059SOL    HW181454   6.210   5.879   5.308 -1.6246  0.1154 -0.9543
26059SOL    HW281455   6.278   5.938   5.186  0.0593 -0.0486 -0.1173
26060SOL     OW81456  11.043   3.381   1.071 -0.2004  0.1755  0.2362
26060SOL    HW181457  10.955   3.374   1.033 -0.4190 -0.5888  0.8521
26060SOL    HW281458  11.061   3.293   1.106  0.7065  0.3910  0.3355
26061SOL     OW81459   6.022   0.911  11.364  0.2012 -0.6243 -0.4409
26061SOL    HW181460   6.075   0.988  11.346  0.1541 -0.5166 -0.1302
26061SOL    HW281461   5.978   0.891  11.281  0.1667 -0.2825 -0.5046
26062SOL     OW81462   8.158   7.966   5.061 -0.1754 -0.4335  0.3678
26062SOL    HW181463   8.194   8.031   5.001  1.3281 -1.9157 -0.4300
26062SOL    HW281464   8.210   7.976   5.141 -0.6190  0.0052  0.6024
26063SOL     OW81465   5.914   8.419   7.979  0.0788  0.1593  0.5925
26063SOL    HW181466   5.822   8.412   8.001 -0.1092 -1.0002 -0.4482
26063SOL    HW281467   5.957   8.355   8.036  0.1022 -0.0726  0.3125
26064SOL     OW81468   8.688   9.480   7.218  0.4688  0.2979  0.1603
26064SOL    HW181469   8.669   9.417   7.288  0.3213  2.2687  1.9669
26064SOL    HW281470   8.670   9.431   7.137 -1.6356 -1.3337  1.5113
26065SOL     OW81471   0.977   2.686   3.022 -0.0064  0.1472  0.5660
26065SOL    HW181472   1.006   2.617   2.962 -2.0439  1.7271 -2.5514
26065SOL    HW281473   0.894   2.655   3.056 -0.6345  0.7111 -0.3798
26066SOL     OW81474   8.921   2.516   1.522  0.5996 -0.5006  0.2396
26066SOL    HW181475   8.867   2.542   1.596  0.7754  0.6909 -0.0309
26066SOL    HW281476   8.995   2.576   1.524 -0.2147  0.6926 -1.8351
26067SOL     OW81477   1.877   3.837   8.822 -0.2152  0.3894  0.0554
26067SOL    HW181478   1.838   3.808   8.739  0.4937  3.6004 -1.5468
26067SOL    HW281479   1.956   3.784   8.831  0.2642  0.6806 -1.9254
26068SOL     OW81480   5.930   6.231   4.364  0.3849  0.5137 -0.2322
26068SOL    HW181481   5.955   6.306   4.310 -0.3914  1.7033  0.9938
26068SOL    HW281482   5.891   6.168   4.303 -0.6494  1.8999 -1.0413
26069SOL     OW81483  10.984   4.072   4.565 -0.0906  0.0850  0.2577
26069SOL    HW181484  10.922   4.135   4.529 -1.7359 -1.4438  0.2669
26069SOL    HW281485  11.030   4.036   4.489  2.1032  2.3885  0.3476
26070SOL     OW81486   5.952   7.869   6.193  0.1342  0.2451 -0.0668
26070SOL    HW181487   6.005   7.942   6.161  1.3146 -0.5762 -0.0225
26070SOL    HW281488   5.912   7.902   6.274  0.4320  0.9243 -0.1880
26071SOL     OW81489   7.173   3.544   3.906 -0.0344  0.1349 -0.6973
26071SOL    HW181490   7.096   3.594   3.879  0.5481  0.9635 -0.8622
26071SOL    HW281491   7.242   3.610   3.914  0.1913 -0.2803  1.3622
26072SOL     OW81492  10.225  10.153   8.534 -0.8979 -0.4203  0.7512
26072SOL    HW181493  10.304  10.145   8.482 -2.9425  0.5351 -2.8725
26072SOL    HW281494  10.237  10.234   8.585  0.6882 -0.6728  0.8073
26073SOL     OW81495   1.665   6.740   2.090  0.0181 -0.1700 -0.3777
26073SOL    HW181496   1.613   6.820   2.082  1.8073  1.1097  0.0424
26073SOL    HW281497   1.638   6.702   2.174  0.2999  0.9038  0.2224
26074SOL     OW81498   7.017   6.656   5.550  0.3867 -0.2976 -0.4117
26074SOL    HW181499   7.101   6.612   5.561 -0.4482 -1.3888  2.2580
26074SOL    HW281500   7.030   6.742   5.590  0.3184 -0.3380 -0.3033
26075SOL     OW81501   6.220   7.412  10.068 -0.2191 -0.5684 -0.0052
26075SOL    HW181502   6.166   7.474  10.020  1.3892  0.8766 -0.0638
26075SOL    HW281503   6.168   7.332  10.073 -2.1173  0.5945 -0.4578
26076SOL     OW81504   0.333   5.293  10.528  0.4112  0.3235  0.4246
26076SOL    HW181505   0.425   5.303  10.551  0.6976  0.9736 -0.8906
26076SOL    HW281506   0.292   5.258  10.607  1.8771 -0.5091  0.8577
26077SOL     OW81507   9.645   5.540   8.803 -0.5803  0.1152  0.3957
26077SOL    HW181508   9.587   5.616   8.809 -0.2778  0.7366 -2.5422
26077SOL    HW281509   9.589   5.468   8.776 -0.5798 -0.2929  1.4444
26078SOL     OW81510   9.964   3.361   6.258 -0.0483  0.0590  0.3490
26078SOL    HW181511  10.029   3.307   6.212  0.5420  0.2844  0.9011
26078SOL    HW281512   9.946   3.312   6.338 -1.1424 -0.3793 -0.1471
26079SOL     OW81513   5.608   1.028   9.113 -0.1780  0.1244 -0.2910
26079SOL    HW181514   5.643   1.117   9.109  2.2781 -0.7333  0.2087
26079SOL    HW281515   5.643   0.986   9.034 -1.7014 -0.3092 -0.7693
26080SOL     OW81516   0.942   5.043   2.483 -0.5179  0.4027 -0.2047
26080SOL    HW181517   1.033   5.067   2.501  0.0245 -1.5403 -0.1708
26080SOL    HW281518   0.946   4.952   2.454 -2.2246  0.9946 -2.5683
26081SOL     OW81519   0.793   6.778   0.413 -0.9324 -0.1530 -0.0184
26081SOL    HW181520   0.797   6.774   0.508 -1.8931 -0.3421  0.0267
26081SOL    HW281521   0.819   6.691   0.384 -0.4679 -0.0427  0.0593
26082SOL     OW81522   8.303   9.290   1.608 -0.3272 -0.3220  0.0621
26082SOL    HW181523   8.375   9.314   1.549 -1.2508 -0.8989 -1.3630
26082SOL    HW281524   8.230   9.270   1.549 -1.6091  0.0658  1.4557
26083SOL     OW81525  11.312   5.692  10.392 -0.1034 -0.0289  0.2716
26083SOL    HW181526  11.268   5.738  10.463 -0.8942  0.8608 -0.7541
26083SOL    HW281527  11.288   5.741  10.313  2.3175  0.1862 -0.4109
26084SOL     OW81528   5.945   9.709   0.136  0.2499 -0.4399 -0.6443
26084SOL    HW181529   6.028   9.668   0.114  1.8622  0.8240  2.3990
26084SOL    HW281530   5.915   9.749   0.054  1.3388 -2.9388 -2.3764
26085SOL     OW81531   2.999   4.478   2.624 -0.3458 -0.6445  0.4580
26085SOL    HW181532   3.036   4.525   2.699  1.0002  1.0267 -1.1239
26085SOL    HW281533   2.927   4.534   2.594  1.9067  1.2152 -2.0596
26086SOL     OW81534   5.701   8.865   7.419 -0.0070  0.5228 -0.4301
26086SOL    HW181535   5.741   8.895   7.337 -0.7765 -0.0327 -1.0323
26086SOL    HW281536   5.637   8.933   7.441  0.1756  0.6557 -0.3149
26087SOL     OW81537  10.035   2.129   5.015  0.5061 -0.1645  0.3245
26087SOL    HW181538  10.080   2.052   5.049  2.4204  1.5182  1.9048
26087SOL    HW281539  10.095   2.202   5.034 -0.7560  1.6107 -1.9736
26088SOL     OW81540   8.526   8.988   4.086  0.0792  0.5407  0.5120
26088SOL    HW181541   8.552   8.896   4.084 -2.1000 -0.2415  2.7953
26088SOL    HW281542   8.463   8.996   4.014  0.1954  0.1976  0.3706
26089SOL     OW81543   6.682   0.952   4.369  0.2164 -0.4327  0.1503
26089SOL    HW181544   6.721   1.037   4.385 -2.1400  1.2770 -2.2736
26089SOL    HW281545   6.726   0.918   4.291  1.4101 -1.7013  1.3179
26090SOL     OW81546   4.707   5.088   4.600  0.3593  0.0507 -0.5731
26090SOL    HW181547   4.621   5.052   4.575  0.2854 -0.0270 -0.2130
26090SOL    HW281548   4.723   5.053   4.687 -0.0358  1.4602  0.0888
26091SOL     OW81549   0.433   4.840  10.344 -0.4496 -0.1690 -0.6204
26091SOL    HW181550   0.427   4.870  10.254 -0.0185  1.1534 -0.2367
26091SOL    HW281551   0.429   4.745  10.338 -2.3165 -0.0752 -1.8696
26092SOL     OW81552   5.898   0.008   2.461 -0.2701  0.2639  0.2057
26092SOL    HW181553   5.824   0.067   2.476 -0.8600 -0.7956  1.6542
26092SOL    HW281554   5.859  -0.071   2.423  0.5384  0.8055 -1.9263
26093SOL     OW81555   1.727   5.367   9.831  0.1682 -0.6661  0.2728
26093SOL    HW181556   1.673   5.292   9.805  1.4905 -1.5036 -0.1813
26093SOL    HW281557   1.796   5.369   9.765 -0.9495  2.2486 -0.9599
26094SOL     OW81558   3.814   2.638   8.216 -0.2216 -0.1755 -0.2330
26094SOL    HW181559   3.735   2.586   8.231  0.1030 -0.3314  1.0967
26094SOL    HW281560   3.817   2.698   8.291  0.3016  0.6289 -0.8809
26095SOL     OW81561   9.310   7.564   5.166 -0.3368  0.0191  0.0626
26095SOL    HW181562   9.363   7.513   5.227 -0.2381 -2.8565 -2.2102
26095SOL    HW281563   9.354   7.648   5.159  0.6353 -0.2062  2.4991
26096SOL     OW81564   7.164   3.882   4.133 -0.5975 -0.2004 -0.0907
26096SOL    HW181565   7.226   3.819   4.171  1.1560  2.1519  1.1942
26096SOL    HW281566   7.090   3.881   4.194  0.8390  1.2364  1.8034
26097SOL     OW81567  10.886   0.042   1.287  0.1447  0.4303  0.4930
26097SOL    HW181568  10.938  -0.027   1.330  1.1655  0.1022 -1.1528
26097SOL    HW281569  10.801   0.038   1.330  0.0213 -2.1853  0.1887
26098SOL     OW81570   1.606   5.899   2.050 -0.4078 -0.0073 -0.2756
26098SOL    HW181571   1.558   5.818   2.069  0.1833 -0.4035 -0.4626
26098SOL    HW281572   1.647   5.922   2.133 -1.1531  0.5064 -0.0292
26099SOL     OW81573   0.336   2.533   8.787  0.5790 -0.3820  0.1069
26099SOL    HW181574   0.278   2.608   8.775  0.3722 -0.5647 -0.0669
26099SOL    HW281575   0.351   2.529   8.881  1.9899  0.9082 -0.0342
26100SOL     OW81576   9.943   5.150   5.924 -0.2487 -0.9491  0.1025
26100SOL    HW181577   9.933   5.060   5.893 -0.1162 -1.1803  0.7200
26100SOL    HW281578   9.860   5.171   5.967  0.3717 -1.4394  1.6058
26101SOL     OW81579   9.670  11.190   8.322 -0.1491  0.1769 -0.1990
26101SOL    HW181580   9.584  11.149   8.320 -0.1861  0.2706 -0.5302
26101SOL    HW281581   9.725  11.128   8.370 -0.5961  0.5021  0.7573
26102SOL     OW81582   0.441   5.752   8.128  0.3617 -0.7802 -0.3122
26102SOL    HW181583   0.472   5.750   8.218 -0.0390 -0.5732 -0.1715
26102SOL    HW281584   0.451   5.843   8.101  1.1551 -0.9735 -0.7153
26103SOL     OW81585   2.371  11.167   8.477  0.3149  0.6182 -0.4002
26103SOL    HW181586   2.389  11.099   8.413 -0.3333 -1.8713  1.9026
26103SOL    HW281587   2.452  11.173   8.529 -0.4403 -0.2856  0.9610
26104SOL     OW81588   5.876   5.918   8.121  0.0431  0.2528  0.5356
26104SOL    HW181589   5.842   5.832   8.097 -0.0813  0.1084  1.1941
26104SOL    HW281590   5.807   5.979   8.096  1.0642  0.4552 -2.1091
26105SOL     OW81591   1.677   7.621   0.716  0.4704 -0.1198  0.1320
26105SOL    HW181592   1.727   7.604   0.636  1.7547  0.1544  0.8448
26105SOL    HW281593   1.704   7.551   0.776 -0.3215 -0.2033  0.3998
26106SOL     OW81594   4.990   8.659   9.480 -0.1464  0.0345  0.0264
26106SOL    HW181595   5.015   8.689   9.567 -1.5294  0.7151  0.2106
26106SOL    HW281596   4.916   8.714   9.455 -2.4550 -2.7683  0.1442
26107SOL     OW81597   9.943   5.142   5.626 -0.1908 -0.3776  0.0950
26107SOL    HW181598  10.033   5.129   5.595  0.2207  3.3288 -0.6950
26107SOL    HW281599   9.951   5.147   5.722  0.6329  0.8352 -0.0185
26108SOL     OW81600   3.859   9.118   5.867 -0.1242  0.1860  0.6863
26108SOL    HW181601   3.937   9.157   5.908 -1.3112  0.1021  3.2594
26108SOL    HW281602   3.856   9.030   5.903 -1.4845  0.2511  0.7697
26109SOL     OW81603   0.738   6.230   8.563  0.1215 -0.0727  0.1478
26109SOL    HW181604   0.716   6.148   8.519  1.4639 -1.2488  1.5346
26109SOL    HW281605   0.703   6.298   8.506 -1.3071 -1.6025 -0.9026
26110SOL     OW81606   5.185   6.038   7.543  0.7202  0.5092 -0.0230
26110SOL    HW181607   5.173   5.945   7.564  2.1424  0.2857 -0.0953
26110SOL    HW281608   5.127   6.084   7.604  2.3590 -0.2882  2.2488
26111SOL     OW81609   3.942   0.703   3.301  0.8831  0.3789 -0.2806
26111SOL    HW181610   3.854   0.695   3.337  1.2943  0.6962  0.8475
26111SOL    HW281611   3.950   0.794   3.273  1.5000  0.9126  1.4841
26112SOL     OW81612   0.664   2.165   7.846 -0.2249 -0.8322  0.2967
26112SOL    HW181613   0.741   2.200   7.891  0.5384 -0.5081 -1.2067
26112SOL    HW281614   0.593   2.224   7.873  1.0187  2.0613 -2.1420
26113SOL     OW81615   3.667   3.715  10.359  0.3842  0.2211  0.2274
26113SOL    HW181616   3.737   3.779  10.368  0.7420 -0.2210  0.7333
26113SOL    HW281617   3.595   3.762  10.317  1.0637  0.6191 -0.4925
26114SOL     OW81618   3.433   7.375  10.574  0.2594  0.2229 -0.2767
26114SOL    HW181619   3.529   7.381  10.566  0.3299 -0.8844 -0.5387
26114SOL    HW281620   3.406   7.326  10.496 -0.2177 -1.6849  0.9957
26115SOL     OW81621   1.902   5.790   0.314 -0.2647  0.1102 -0.1332
26115SOL    HW181622   1.898   5.738   0.234 -0.1705  0.1813 -0.1847
26115SOL    HW281623   1.933   5.730   0.381  2.2664  0.6871 -0.7032
26116SOL     OW81624   1.990   7.079   7.621  0.5090  0.0986  0.1332
26116SOL    HW181625   1.914   7.092   7.678 -1.5317  1.9332 -2.7587
26116SOL    HW281626   1.972   6.995   7.577  1.2512 -0.4870  0.9091
26117SOL     OW81627   4.307  10.379   4.974 -0.5364 -0.0677  0.1221
26117SOL    HW181628   4.289  10.302   4.920 -1.8935  1.1002 -1.1461
26117SOL    HW281629   4.285  10.453   4.919 -1.2700  1.2053  2.0304
26118SOL     OW81630   7.584   5.554   3.693 -0.1685  0.1393 -0.0053
26118SOL    HW181631   7.537   5.599   3.763  0.7614  1.7675 -0.3632
26118SOL    HW281632   7.541   5.584   3.613  0.8694  0.9659 -0.2827
26119SOL     OW81633   8.408   4.331   1.840 -0.0721  0.3573 -0.1374
26119SOL    HW181634   8.374   4.241   1.838 -3.2621  1.4209  0.6366
26119SOL    HW281635   8.419   4.351   1.933  1.3455  0.5701 -0.3301
26120SOL     OW81636   6.547   6.931   0.537  0.2610 -0.0021  0.1888
26120SOL    HW181637   6.637   6.920   0.566  0.2686 -0.3213  0.0396
26120SOL    HW281638   6.547   6.905   0.445  0.1691  0.7020 -0.0207
26121SOL     OW81639   1.177  10.089   2.353 -0.2176 -0.7937 -0.3903
26121SOL    HW181640   1.230  10.127   2.423 -0.6512 -0.9645  0.0360
26121SOL    HW281641   1.136  10.164   2.310  1.5469 -0.5264 -1.7211
26122SOL     OW81642   5.038   7.760   5.428 -0.4635 -0.5070  0.2584
26122SOL    HW181643   5.079   7.694   5.372  0.0445 -0.1532  0.2055
26122SOL    HW281644   5.035   7.839   5.373 -0.2048 -0.2305  0.6390
26123SOL     OW81645   9.998  10.035   3.272 -0.3686 -0.0051 -0.3303
26123SOL    HW181646   9.991  10.131   3.270  1.6862  0.2191  0.5343
26123SOL    HW281647  10.053  10.017   3.349 -0.2171 -1.8454 -0.8356
26124SOL     OW81648   8.284  10.993   6.574  0.3985 -0.1810  0.4238
26124SOL    HW181649   8.202  11.033   6.605 -0.5931 -0.4178 -1.6654
26124SOL    HW281650   8.321  11.058   6.514 -0.3006 -1.5249 -1.5997
26125SOL     OW81651  10.318   4.775   0.707 -0.4316 -0.2873 -0.0654
26125SOL    HW181652  10.238   4.726   0.689  0.3745 -1.0491 -1.7490
26125SOL    HW281653  10.389   4.715   0.684  0.6799  0.1401  1.9701
26126SOL     OW81654   1.812   3.233   5.224  0.1676 -0.4196 -0.7470
26126SOL    HW181655   1.858   3.209   5.144 -1.0442 -0.4942 -1.4378
26126SOL    HW281656   1.728   3.187   5.219  0.0434 -0.3784  0.5392
26127SOL     OW81657   7.643  10.072   4.221  0.1294  0.0569  0.0505
26127SOL    HW181658   7.597   9.996   4.186  1.2949 -0.0447 -1.3321
26127SOL    HW281659   7.695  10.036   4.293 -0.0975 -0.2637  0.0612
26128SOL     OW81660   0.138   9.074   4.328 -0.2851 -0.1608 -0.4162
26128SOL    HW181661   0.188   9.129   4.267 -2.3524  2.1910 -0.1775
26128SOL    HW281662   0.095   9.009   4.272 -0.5948  0.7245 -1.2303
26129SOL     OW81663   6.175   2.755   6.063 -0.4165 -0.2263  0.3372
26129SOL    HW181664   6.247   2.798   6.109 -0.9982 -0.3230  1.3658
26129SOL    HW281665   6.196   2.767   5.970  0.8254 -0.0981  0.6103
26130SOL     OW81666   6.773   5.052   2.145 -0.2195 -1.0183  0.5530
26130SOL    HW181667   6.751   4.966   2.110 -1.2823 -0.5531  0.0155
26130SOL    HW281668   6.776   5.110   2.069 -1.8813 -0.1334  1.0970
26131SOL     OW81669   7.721  10.753   0.995 -0.5781 -0.2519  0.2674
26131SOL    HW181670   7.633  10.788   0.984 -0.2454  1.0219  1.5216
26131SOL    HW281671   7.707  10.663   1.027 -1.4072 -0.6154 -1.0409
26132SOL     OW81672   9.956  10.083   8.577 -0.1749  0.0321  0.0631
26132SOL    HW181673   9.931  10.007   8.630 -2.1714  0.2142 -0.5046
26132SOL    HW281674  10.051  10.078   8.570 -0.2227 -2.2192  0.3340
26133SOL     OW81675   7.281   3.335   2.914 -0.1322 -0.6396  0.3166
26133SOL    HW181676   7.352   3.398   2.927 -1.2253  0.8735 -0.7569
26133SOL    HW281677   7.263   3.338   2.821 -2.5857  0.1493  0.7461
26134SOL     OW81678   5.764  10.690   2.142  0.0235  0.1905 -0.1166
26134SOL    HW181679   5.724  10.638   2.212  0.9635 -0.2116  0.1403
26134SOL    HW281680   5.724  10.657   2.062 -1.5391  1.0976  0.2558
26135SOL     OW81681   5.599  11.222   4.972  0.2119 -0.0400  0.3668
26135SOL    HW181682   5.548  11.285   5.024 -0.2471  0.5895 -0.7922
26135SOL    HW281683   5.533  11.179   4.916  0.8654  0.4834 -0.8578
26136SOL     OW81684  10.621   2.837   5.933  0.0572  0.0441  0.4009
26136SOL    HW181685  10.687   2.900   5.962  0.5173 -0.0101 -0.5131
26136SOL    HW281686  10.642   2.757   5.982 -1.0946  0.8287  2.2684
26137SOL     OW81687  10.407   6.580   9.841 -0.0094 -0.9755 -0.4593
26137SOL    HW181688  10.416   6.539   9.927  2.3319  1.0233  0.3574
26137SOL    HW281689  10.446   6.517   9.780 -0.1102 -1.6559  0.1609
26138SOL     OW81690   3.336   2.747   2.847  0.0582 -0.0479 -0.2712
26138SOL    HW181691   3.346   2.661   2.805 -0.1715 -0.8907  1.3024
26138SOL    HW281692   3.425   2.771   2.873 -0.0650 -0.6515  0.7954
26139SOL     OW81693   1.977   8.966   7.763  0.6081  0.0676 -0.1469
26139SOL    HW181694   1.890   8.936   7.737  0.2982  0.3870  0.4849
26139SOL    HW281695   2.025   8.974   7.681  0.1645 -0.4896 -0.4724
26140SOL     OW81696   0.785   2.991   9.250  0.4589 -0.2594  0.1395
26140SOL    HW181697   0.880   2.991   9.265  0.5989 -1.0084 -0.6685
26140SOL    HW281698   0.764   2.900   9.230 -0.7187 -0.4399  1.9520
26141SOL     OW81699  11.013   5.343   6.433  0.3344  0.0773 -0.2569
26141SOL    HW181700  11.046   5.433   6.429 -0.5909  0.4343 -0.2244
26141SOL    HW281701  11.088   5.288   6.410  1.2160  0.7934  0.8067
26142SOL     OW81702   6.555   4.631   0.096 -0.6467  0.0752 -0.0791
26142SOL    HW181703   6.636   4.619   0.146 -0.7477 -0.1428  0.0336
26142SOL    HW281704   6.568   4.579   0.017 -1.2721 -1.1884  0.6233
26143SOL     OW81705   6.871   6.001   5.970 -0.8907  0.3404  0.4884
26143SOL    HW181706   6.826   6.049   6.039 -1.2523  0.8398 -0.0859
26143SOL    HW281707   6.804   5.984   5.904 -0.8150 -1.1076  0.7372
26144SOL     OW81708   1.146   4.828   7.037 -0.6790 -0.0281 -0.0717
26144SOL    HW181709   1.128   4.847   6.945 -0.7113  0.3947  0.0194
26144SOL    HW281710   1.069   4.780   7.068 -1.9819  2.2889  0.4763
26145SOL     OW81711   2.556   7.231  10.642 -0.4254 -0.2218  0.4762
26145SOL    HW181712   2.624   7.296  10.660  1.4723 -2.0595  0.3962
26145SOL    HW281713   2.534   7.244  10.550 -0.1488  0.3742  0.4938
26146SOL     OW81714   2.102   1.358  10.105 -0.2216 -0.7715 -0.0142
26146SOL    HW181715   2.124   1.286  10.046 -0.8294 -1.3541  0.4492
26146SOL    HW281716   2.086   1.433  10.048  0.3393 -1.0248 -0.5089
26147SOL     OW81717   3.116   6.872   0.460  0.3414  0.0590  0.4144
26147SOL    HW181718   3.095   6.933   0.388  1.1382 -3.4763 -3.1783
26147SOL    HW281719   3.032   6.836   0.486  0.2662 -1.4255 -1.6379
26148SOL     OW81720   6.313   5.024  11.350  0.1756 -0.8936 -0.2840
26148SOL    HW181721   6.273   5.036  11.264  0.2436  0.5953 -0.1336
26148SOL    HW281722   6.365   4.944  11.342  0.8393 -0.3391 -1.8844
26149SOL     OW81723   6.121   2.941   8.885 -0.0178  0.2301  0.5171
26149SOL    HW181724   6.184   2.870   8.891  2.2762  2.1782  1.3510
26149SOL    HW281725   6.100   2.947   8.791  0.7719 -0.7066  0.2679
26150SOL     OW81726   0.489   8.845   7.861 -0.0058 -0.1835  0.2692
26150SOL    HW181727   0.537   8.786   7.803 -2.7954 -2.3393 -0.0404
26150SOL    HW281728   0.489   8.929   7.815  0.9961 -0.8643 -1.0314
26151SOL     OW81729   1.846   2.563   6.301 -0.0856  0.4049  0.3792
26151SOL    HW181730   1.815   2.473   6.293 -1.0940  0.7003  0.7993
26151SOL    HW281731   1.791   2.602   6.369 -0.5495  1.7190 -0.6929
26152SOL     OW81732  10.699   9.258   4.917  0.4672 -0.1514 -0.1735
26152SOL    HW181733  10.729   9.202   4.989 -0.0867  1.3761  1.3047
26152SOL    HW281734  10.608   9.232   4.903  0.5769 -0.4534 -0.3511
26153SOL     OW81735   1.705   5.234   8.629  0.1363  0.3368  0.3629
26153SOL    HW181736   1.707   5.221   8.534 -0.9200 -1.1178  0.5138
26153SOL    HW281737   1.612   5.233   8.651  0.4231 -1.5350  1.6804
26154SOL     OW81738   7.858   8.009  10.005 -0.2940  0.6227 -0.6390
26154SOL    HW181739   7.793   8.054  10.058 -2.6651 -1.5739 -1.4256
26154SOL    HW281740   7.909   7.958  10.067 -2.2904 -1.0293 -0.2285
26155SOL     OW81741   8.408   6.923   1.418  0.2151  0.6793 -0.3739
26155SOL    HW181742   8.382   6.957   1.332 -1.2424  0.0066 -0.2173
26155SOL    HW281743   8.408   7.000   1.475  0.0416  0.9304 -0.7053
26156SOL     OW81744   3.132   6.988   8.217  0.2127  0.5640  0.2331
26156SOL    HW181745   3.039   6.973   8.233  1.0854 -3.6986  2.6720
26156SOL    HW281746   3.145   6.963   8.126 -0.5776 -2.3774  0.8274
26157SOL     OW81747   5.589   8.806   8.761 -0.1890 -0.5009 -0.1708
26157SOL    HW181748   5.610   8.899   8.772 -1.1417 -0.2412 -0.4374
26157SOL    HW281749   5.632   8.782   8.679  0.8265 -0.5450  0.3591
26158SOL     OW81750   3.871   0.067   4.099 -0.3407 -0.5658 -0.1591
26158SOL    HW181751   3.929   0.120   4.043 -0.3197 -0.1304  0.2637
26158SOL    HW281752   3.796   0.046   4.043 -1.3745  1.7202  0.2543
26159SOL     OW81753   7.280   5.127   2.882 -0.5530  0.3098 -0.1166
26159SOL    HW181754   7.248   5.136   2.792  1.8315  2.6920 -0.8635
26159SOL    HW281755   7.272   5.215   2.919 -0.0531 -0.2885  1.5135
26160SOL     OW81756   3.557   1.095  11.164  0.5363 -0.5050  0.0896
26160SOL    HW181757   3.578   1.017  11.112  1.5694 -0.0836 -0.1506
26160SOL    HW281758   3.641   1.137  11.178  0.1382 -0.0910  1.2890
26161SOL     OW81759   2.309   3.092   5.250  0.1097  0.2605 -0.5009
26161SOL    HW181760   2.359   3.016   5.281  0.2845 -0.0853 -1.5950
26161SOL    HW281761   2.376   3.157   5.227 -0.0435  0.8366  0.6228
26162SOL     OW81762   8.077   3.326   3.142 -0.2231  0.3526 -0.9026
26162SOL    HW181763   8.059   3.332   3.236  1.6715  1.2310 -0.5448
26162SOL    HW281764   8.013   3.263   3.109 -0.2039 -0.8697  1.2045
26163SOL     OW81765  10.808   9.014   9.327 -0.0784  0.0116 -0.3073
26163SOL    HW181766  10.776   8.964   9.253  0.7026  0.2758 -0.8288
26163SOL    HW281767  10.861   8.952   9.377  0.1321  0.0734 -0.4539
26164SOL     OW81768   9.453   3.857   3.806  0.0293 -0.3364  0.1789
26164SOL    HW181769   9.461   3.781   3.748  0.5640  0.0696 -0.2956
26164SOL    HW281770   9.389   3.831   3.872 -0.9261 -0.6625 -0.8393
26165SOL     OW81771   4.965   2.398   1.366  0.3124 -0.4578  0.0581
26165SOL    HW181772   4.876   2.383   1.335 -0.1012  1.4992  0.1596
26165SOL    HW281773   5.019   2.395   1.287 -0.3279  1.5386 -0.5261
26166SOL     OW81774   9.500   9.459   2.685  0.3228  0.1954 -0.0086
26166SOL    HW181775   9.502   9.486   2.777  0.6833  1.4130 -0.3589
26166SOL    HW281776   9.496   9.541   2.636 -0.6076 -0.4570 -1.0706
26167SOL     OW81777   8.939   5.234  10.465 -0.3887 -0.6008  0.2323
26167SOL    HW181778   8.921   5.297  10.395 -0.4891 -1.7529 -0.8214
26167SOL    HW281779   9.020   5.266  10.505  0.2253 -0.4331 -1.0707
26168SOL     OW81780   4.335   0.635   7.730 -0.5238  0.1318  0.7253
26168SOL    HW181781   4.421   0.634   7.688 -0.6415 -0.4792  0.4784
26168SOL    HW281782   4.351   0.603   7.819 -0.4557  0.2824  0.7674
26169SOL     OW81783   5.615  10.760   9.945 -0.5434  0.3799  0.1170
26169SOL    HW181784   5.535  10.807   9.972  0.5714  1.1821  2.2468
26169SOL    HW281785   5.611  10.677   9.991  0.2431  0.7670  0.8939
26170SOL     OW81786   8.939  10.276   3.328 -0.6079  0.0828  0.2088
26170SOL    HW181787   8.921  10.207   3.392 -3.3379  0.2351 -0.2909
26170SOL    HW281788   8.981  10.346   3.379  0.6918 -1.2438  1.0372
26171SOL     OW81789   7.638   1.429   2.941 -0.0098 -0.1838 -0.0479
26171SOL    HW181790   7.601   1.492   3.003 -1.5531 -0.8213 -0.2644
26171SOL    HW281791   7.605   1.456   2.856  1.5117  0.2586 -0.5176
26172SOL     OW81792   6.470   7.537   0.890  0.5143  0.0156  0.2174
26172SOL    HW181793   6.380   7.506   0.900  1.2399 -2.1887  0.3097
26172SOL    HW281794   6.500   7.497   0.808  1.2674  1.1583 -0.0910
26173SOL     OW81795  11.100   8.886  10.502 -0.2004  0.4051 -0.4738
26173SOL    HW181796  11.010   8.853  10.492  0.5363 -1.8474 -0.1548
26173SOL    HW281797  11.103   8.919  10.592 -0.3619 -0.7523 -0.0262
26174SOL     OW81798   2.879   6.260  11.232  0.4418 -0.1681  0.3974
26174SOL    HW181799   2.883   6.286  11.141 -0.1564  3.0444  1.1710
26174SOL    HW281800   2.820   6.185  11.234 -0.7991  0.6970 -1.6708
26175SOL     OW81801   7.470   4.541   3.881  0.3407 -0.0349  0.6458
26175SOL    HW181802   7.456   4.576   3.793  1.1018  1.0290  0.9318
26175SOL    HW281803   7.382   4.528   3.915  0.0344 -0.1552 -0.1527
26176SOL     OW81804   1.892   1.724  11.149 -0.3578 -0.8170 -0.0638
26176SOL    HW181805   1.840   1.791  11.194 -0.0004 -0.8626  0.4297
26176SOL    HW281806   1.852   1.717  11.062 -1.4205 -1.1251  0.4313
26177SOL     OW81807   2.621   3.402   9.878 -0.2918 -0.9145  0.3249
26177SOL    HW181808   2.700   3.394   9.930 -0.3849  1.7375  0.9988
26177SOL    HW281809   2.652   3.416   9.789 -0.0201 -0.4459  0.4933
26178SOL     OW81810   6.698   4.774   6.860 -0.6751  0.2484 -0.1161
26178SOL    HW181811   6.691   4.868   6.878 -0.4911  0.0610  0.9797
26178SOL    HW281812   6.625   4.756   6.801 -0.9442  1.0109 -0.0291
26179SOL     OW81813   9.784   3.297  10.441 -0.2508 -0.1355 -0.3329
26179SOL    HW181814   9.795   3.320  10.349  1.6234  0.9812  0.1027
26179SOL    HW281815   9.811   3.205  10.446  0.1965 -0.0384 -0.8303
26180SOL     OW81816   7.772   0.605   7.680 -0.0956 -0.0426 -0.0217
26180SOL    HW181817   7.800   0.633   7.767 -1.7974 -0.9904  0.8938
26180SOL    HW281818   7.742   0.685   7.637  1.0744  0.4866  0.1065
26181SOL     OW81819   3.626   7.485   8.751  0.3345 -0.3945  0.0541
26181SOL    HW181820   3.612   7.438   8.669  0.6458  2.2421 -1.6473
26181SOL    HW281821   3.571   7.563   8.743 -0.1627 -0.3974  2.7091
26182SOL     OW81822   7.167   4.853   9.047  0.2224  0.1539  0.0615
26182SOL    HW181823   7.228   4.916   9.009 -0.9665  0.9575 -0.5649
26182SOL    HW281824   7.144   4.891   9.132  0.4551 -0.0544  0.2170
26183SOL     OW81825   7.686   4.365   3.312  0.2886 -0.0077 -0.1079
26183SOL    HW181826   7.704   4.273   3.335 -0.9349  0.0908  1.4109
26183SOL    HW281827   7.706   4.414   3.392 -1.2412  0.7525 -0.1487
26184SOL     OW81828   2.204   9.399   6.028 -0.2785  0.2123  0.3357
26184SOL    HW181829   2.264   9.430   6.096 -0.2086  0.4707  0.1636
26184SOL    HW281830   2.259   9.394   5.949 -0.0123 -1.4549  0.5932
26185SOL     OW81831   0.151   5.091   3.983 -0.2979  0.0856 -0.5703
26185SOL    HW181832   0.163   5.122   4.072 -2.1709  2.0831 -0.9444
26185SOL    HW281833   0.165   5.168   3.928 -1.5052 -0.5441 -1.8271
26186SOL     OW81834   6.007   9.089  10.230  0.1381  0.5970 -0.2264
26186SOL    HW181835   6.077   9.027  10.250  0.5845 -0.2258 -3.7166
26186SOL    HW281836   6.051   9.161  10.185 -0.7398  2.3784  1.5551
26187SOL     OW81837   8.161   2.209   8.780  0.2812 -0.5064  0.0303
26187SOL    HW181838   8.209   2.291   8.766 -0.8045  0.7460  2.7818
26187SOL    HW281839   8.185   2.182   8.869 -1.3757 -1.7320  0.1601
26188SOL     OW81840   1.060   1.432   8.397 -0.2349 -0.0424 -0.4934
26188SOL    HW181841   1.040   1.338   8.402 -0.8732  0.1371  0.3742
26188SOL    HW281842   1.152   1.438   8.423  0.3544 -0.6050 -2.2597
26189SOL     OW81843   2.423   7.409   9.076 -0.2359 -0.3324  0.3061
26189SOL    HW181844   2.492   7.351   9.043  1.0779  0.9699  0.6687
26189SOL    HW281845   2.402   7.374   9.162  1.6666  0.5745  1.1985
26190SOL     OW81846   6.548  10.677   8.876 -0.1565 -0.0253 -0.6740
26190SOL    HW181847   6.570  10.604   8.934  1.5181  0.2245 -0.9327
26190SOL    HW281848   6.630  10.725   8.865 -1.2051  1.9066 -0.5357
26191SOL     OW81849   3.997   4.325   3.869 -0.3790  0.1861 -0.0881
26191SOL    HW181850   3.968   4.371   3.791 -1.0705 -0.1853 -0.0592
26191SOL    HW281851   3.933   4.349   3.936  0.2439  0.5543  0.3898
26192SOL     OW81852   6.758   4.428   8.303  0.3126 -0.6699 -0.3297
26192SOL    HW181853   6.841   4.433   8.351  0.2108  0.4039 -0.2248
26192SOL    HW281854   6.784   4.435   8.211  0.2795  1.1973 -0.2448
26193SOL     OW81855   4.702   7.674   6.314  0.0074 -0.0397 -0.4053
26193SOL    HW181856   4.728   7.757   6.273  2.4718 -1.7786 -2.7629
26193SOL    HW281857   4.769   7.659   6.381 -0.7459  0.1124  0.3909
26194SOL     OW81858   5.312   1.487   2.906  0.1284 -0.6025  0.3323
26194SOL    HW181859   5.309   1.392   2.920  0.2343 -0.6865 -0.1775
26194SOL    HW281860   5.399   1.503   2.870  0.5755 -0.1378  1.5676
26195SOL     OW81861   8.226   4.993   7.488 -0.3617  0.4908  0.2416
26195SOL    HW181862   8.294   5.016   7.551 -0.1907  0.0747  0.2118
26195SOL    HW281863   8.223   4.898   7.489  0.0893  0.4482 -0.8396
26196SOL     OW81864   0.850   7.090   9.862  0.1095  0.5403  0.0489
26196SOL    HW181865   0.788   7.105   9.791 -0.0604  3.6303  0.7095
26196SOL    HW281866   0.813   7.018   9.912 -0.3486 -0.9375 -2.2910
26197SOL     OW81867   2.057  10.816   0.005 -0.2062 -0.0520  0.0645
26197SOL    HW181868   1.994  10.881   0.036 -1.3933  0.0114 -2.2240
26197SOL    HW281869   2.113  10.864  -0.057  0.3490 -0.7157  0.0346
26198SOL     OW81870  11.097   7.027   1.080  0.1944 -0.2335 -0.4074
26198SOL    HW181871  11.019   7.023   1.025  0.1559  2.0455 -0.6114
26198SOL    HW281872  11.146   6.948   1.058  1.0588  1.2902 -5.1164
26199SOL     OW81873   4.822   0.561   5.616 -1.0200  0.2812 -0.4888
26199SOL    HW181874   4.799   0.580   5.707 -0.1217 -2.1116  0.3274
26199SOL    HW281875   4.918   0.557   5.616 -0.9846  0.8170 -1.6871
26200SOL     OW81876   4.307   4.946   0.520 -0.7451 -0.5155 -0.2844
26200SOL    HW181877   4.318   4.869   0.464 -1.5610 -0.1646 -0.9516
26200SOL    HW281878   4.381   4.943   0.581 -0.8534 -1.9024 -0.2039
26201SOL     OW81879   7.225   5.923   7.191  0.5042  0.3220  0.2959
26201SOL    HW181880   7.167   5.998   7.207  1.4394  0.8846  1.1520
26201SOL    HW281881   7.188   5.853   7.244 -0.1907  0.2552 -0.2587
26202SOL     OW81882   8.541   4.021   6.924 -0.2566  0.3130 -0.2386
26202SOL    HW181883   8.578   3.952   6.979  0.6518  2.9236  2.7109
26202SOL    HW281884   8.458   4.043   6.966 -0.2702  1.3799 -0.7921
26203SOL     OW81885   9.867  11.120   1.014  0.4480  0.7529 -0.3377
26203SOL    HW181886   9.875  11.160   0.928  0.2019  0.4483 -0.5029
26203SOL    HW281887   9.873  11.025   0.998 -3.6751  0.3578 -0.5627
26204SOL     OW81888   8.374   3.627   5.807  0.3368 -0.3484 -0.3076
26204SOL    HW181889   8.339   3.680   5.735 -0.2627  0.6802  0.7061
26204SOL    HW281890   8.389   3.690   5.877 -1.2063 -1.6230  1.2627
26205SOL     OW81891  10.903  10.705   1.691 -0.0594 -0.2358  0.3920
26205SOL    HW181892  10.916  10.798   1.707  1.1540 -0.3830  0.3745
26205SOL    HW281893  10.971  10.682   1.628 -1.1713 -0.8687 -0.6362
26206SOL     OW81894   1.054   6.089   5.082 -0.2325  0.0635  0.0814
26206SOL    HW181895   1.029   6.179   5.060  2.3213  1.1049  1.0530
26206SOL    HW281896   1.025   6.077   5.173 -0.2973  0.0177  0.0548
26207SOL     OW81897   0.676   5.174   8.089  0.0250  0.1141  0.6225
26207SOL    HW181898   0.632   5.225   8.157 -0.4325 -0.5738  0.8490
26207SOL    HW281899   0.671   5.229   8.011  0.2635  0.7674  1.0617
26208SOL     OW81900   7.720   2.086   9.230  0.0602 -0.0302 -0.1263
26208SOL    HW181901   7.749   1.996   9.245 -1.7681 -0.5686  0.3344
26208SOL    HW281902   7.719   2.095   9.134  1.1304 -0.1625 -0.1711
26209SOL     OW81903   0.781  10.293   9.758  0.1330 -0.4202 -0.0928
26209SOL    HW181904   0.842  10.309   9.686  1.6899 -0.2288  1.2123
26209SOL    HW281905   0.803  10.359   9.823 -0.9791 -0.8301  0.7207
26210SOL     OW81906   0.618   2.475  10.967  0.1474 -0.5005  0.1796
26210SOL    HW181907   0.681   2.457  10.898 -0.5940 -1.7272 -0.2227
26210SOL    HW281908   0.617   2.395  11.020 -1.0695 -0.5207  0.1569
26211SOL     OW81909   5.344   3.764   3.376 -0.3610  0.1903 -0.1246
26211SOL    HW181910   5.437   3.743   3.368  0.2930  2.8668 -0.6315
26211SOL    HW281911   5.310   3.702   3.440  1.4161 -1.7816 -0.9851
26212SOL     OW81912   3.131  10.808   0.664  0.0415  0.3491  0.3389
26212SOL    HW181913   3.042  10.778   0.648  0.3314  0.4094 -1.6487
26212SOL    HW281914   3.187  10.747   0.616  0.9508  1.2228  0.2367
26213SOL     OW81915   2.201   4.859   3.789  0.4100  0.2109 -0.4381
26213SOL    HW181916   2.281   4.867   3.841 -0.3047 -1.8973  1.1503
26213SOL    HW281917   2.223   4.796   3.720  0.5585  0.8981 -1.0344
26214SOL     OW81918   8.409  10.946   1.301  0.0567  0.0176  0.2714
26214SOL    HW181919   8.432  10.854   1.313 -0.3698 -0.0449  0.6227
26214SOL    HW281920   8.354  10.947   1.223 -0.4256 -0.1045  0.6095
26215SOL     OW81921   6.414   3.141   8.748 -0.1872 -0.3059 -0.0566
26215SOL    HW181922   6.405   3.129   8.654  0.6444  0.6560 -0.2829
26215SOL    HW281923   6.346   3.204   8.771 -0.6924 -0.8890  0.0828
26216SOL     OW81924   9.683   9.714   1.814  0.8168  0.0986 -0.1279
26216SOL    HW181925   9.621   9.651   1.776 -0.1578  0.8934  0.1049
26216SOL    HW281926   9.712   9.672   1.895 -1.4289  0.7800  1.1162
26217SOL     OW81927   6.111   7.657   3.541 -0.0975 -0.4108  0.1443
26217SOL    HW181928   6.033   7.711   3.555  0.5117  0.8210 -0.9031
26217SOL    HW281929   6.141   7.682   3.453  1.7300 -0.4989  0.7029
26218SOL     OW81930   0.312   9.966   4.875 -0.1834 -0.5710 -0.4997
26218SOL    HW181931   0.363   9.910   4.816 -2.1449 -2.6905 -0.3321
26218SOL    HW281932   0.331   9.931   4.962 -0.5988 -0.2567 -0.2826
26219SOL     OW81933   1.783   1.446  10.683  0.1706  0.1988  0.5297
26219SOL    HW181934   1.705   1.414  10.728 -0.9940  0.8520 -0.9734
26219SOL    HW281935   1.829   1.366  10.656  0.7733 -0.2113  2.5634
26220SOL     OW81936   4.590   3.110   4.591 -0.1803 -0.3426  0.2128
26220SOL    HW181937   4.569   3.203   4.596  0.1859 -0.2325 -0.2202
26220SOL    HW281938   4.606   3.094   4.498 -0.4478 -0.8871  0.2539
26221SOL     OW81939   6.001   1.072   0.673 -0.2171  0.5981 -0.0203
26221SOL    HW181940   6.089   1.042   0.649 -0.0352 -1.1247  2.4306
26221SOL    HW281941   5.949   1.058   0.594  1.2831 -0.2093 -0.9335
26222SOL     OW81942   0.925   2.376  11.169 -1.0339 -0.2116  0.4688
26222SOL    HW181943   0.848   2.332  11.134 -0.8141 -0.9760  0.9306
26222SOL    HW281944   0.984   2.305  11.195 -0.3731  0.3607  0.5659
26223SOL     OW81945   4.402   8.661   2.615 -0.3552  0.2301  0.0294
26223SOL    HW181946   4.309   8.675   2.597 -0.6761 -1.7759 -0.0204
26223SOL    HW281947   4.412   8.567   2.623  1.6391  0.4151  0.3540
26224SOL     OW81948  10.984   0.175   5.298  0.3102 -0.9475  0.1884
26224SOL    HW181949  10.923   0.219   5.358  1.3973 -0.2174  0.7981
26224SOL    HW281950  10.962   0.209   5.212  0.1039 -0.3978  0.4548
26225SOL     OW81951   1.633   2.091  11.201 -0.3327  0.0489 -0.0861
26225SOL    HW181952   1.621   2.114  11.293  0.5208 -2.5467  0.7497
26225SOL    HW281953   1.720   2.052  11.196 -0.3375  0.1471 -2.0217
26226SOL     OW81954   8.628   9.238  11.377  0.6199  0.3874 -0.5363
26226SOL    HW181955   8.552   9.292  11.356  1.4080  2.2424  1.0452
26226SOL    HW281956   8.592   9.167  11.430 -0.1066  0.8816 -0.3437
26227SOL     OW81957   3.949   9.761  10.658 -0.6037 -0.1839  0.2608
26227SOL    HW181958   3.982   9.673  10.675 -1.7954 -0.8338 -0.6665
26227SOL    HW281959   3.866   9.766  10.706 -0.2809  0.6600  0.7730
26228SOL     OW81960   9.657   3.693   6.610  0.3487  0.3888 -0.3981
26228SOL    HW181961   9.660   3.786   6.589 -0.1379  0.6664  0.6764
26228SOL    HW281962   9.564   3.672   6.609  0.4332  0.0070 -0.2442
26229SOL     OW81963   3.756   2.074   2.876  0.2187  0.6030  0.1277
26229SOL    HW181964   3.804   2.140   2.827 -1.0372  2.5086  1.3146
26229SOL    HW281965   3.670   2.112   2.890 -0.5556 -1.2925  0.9136
26230SOL     OW81966   4.372   1.389   4.765  0.0396  0.4341 -0.5650
26230SOL    HW181967   4.380   1.468   4.820  1.6515  0.3676 -0.6646
26230SOL    HW281968   4.353   1.422   4.678 -2.0072  0.5631 -0.1320
26231SOL     OW81969   5.383   7.918  11.315  0.0926  0.3810 -0.0691
26231SOL    HW181970   5.359   7.888  11.228 -0.5539  1.8447 -0.4263
26231SOL    HW281971   5.408   7.838  11.362 -3.7338 -1.1227 -0.2133
26232SOL     OW81972   1.590   6.457  10.137  0.4178 -0.1381  0.2831
26232SOL    HW181973   1.611   6.530  10.196  0.3066  0.3930 -0.3203
26232SOL    HW281974   1.623   6.485  10.052  3.0301 -2.0213  0.5647
26233SOL     OW81975   8.484   3.263   7.013  0.5824  0.7446 -0.9395
26233SOL    HW181976   8.434   3.269   6.931 -0.2463 -0.5751 -0.5553
26233SOL    HW281977   8.418   3.255   7.081  1.2828  1.4182 -0.1602
26234SOL     OW81978   6.987   9.692   3.895  0.6147  0.6255 -0.0108
26234SOL    HW181979   7.046   9.618   3.880  2.2221  2.2066 -2.0887
26234SOL    HW281980   6.918   9.682   3.830  1.3569  1.4356 -0.9381
26235SOL     OW81981   0.927   6.799   3.666  0.2646 -0.3432  0.9464
26235SOL    HW181982   1.018   6.804   3.694  0.3484 -1.1454  0.8501
26235SOL    HW281983   0.882   6.868   3.716  1.1329  0.8859  0.0747
26236SOL     OW81984   0.230   8.794   4.364 -0.0731  0.2427  0.1963
26236SOL    HW181985   0.151   8.829   4.405  0.6416  0.8353  1.1181
26236SOL    HW281986   0.232   8.835   4.278 -0.8060  0.1686  0.1412
26237SOL     OW81987   9.852   9.469   7.456 -0.5256  0.3692 -0.0040
26237SOL    HW181988   9.792   9.536   7.424 -1.9295 -0.7017  0.2952
26237SOL    HW281989   9.874   9.496   7.545  0.5407  1.4673 -0.5758
26238SOL     OW81990   1.503   0.710   0.602  0.7362 -0.1828  0.3468
26238SOL    HW181991   1.490   0.654   0.679  0.8241 -0.2286  0.3279
26238SOL    HW281992   1.596   0.732   0.603  0.4621  1.0473  1.1056
26239SOL     OW81993  10.621   6.068   8.399  0.7522 -0.2029  0.1702
26239SOL    HW181994  10.693   6.034   8.452  0.1275  1.2747  2.0557
26239SOL    HW281995  10.584   6.140   8.450  0.2896  1.5571 -2.4273
26240SOL     OW81996   5.629   1.271   8.289  0.0754  0.0410 -0.2045
26240SOL    HW181997   5.611   1.205   8.222  0.4163  0.4537 -0.7050
26240SOL    HW281998   5.651   1.350   8.241  0.8432  0.2064  0.3887
26241SOL     OW81999   5.779   1.283   3.233 -0.4332  0.1949 -0.4085
26241SOL    HW182000   5.723   1.213   3.198 -0.9030  0.9430 -1.1972
26241SOL    HW282001   5.755   1.290   3.325 -0.9209 -0.1736 -0.5050
26242SOL     OW82002   4.979   3.111   7.912  0.2002  0.3244 -0.5475
26242SOL    HW182003   5.056   3.061   7.885 -0.1860  0.3029 -1.6498
26242SOL    HW282004   4.914   3.094   7.844 -0.8849  0.1254  0.5032
26243SOL     OW82005   4.378   7.869   7.106 -0.0887  0.2544  0.4953
26243SOL    HW182006   4.359   7.934   7.039 -0.2424 -0.9105 -0.6245
26243SOL    HW282007   4.317   7.798   7.090 -0.2572  0.0134  2.0019
26244SOL     OW82008   8.064  10.056   5.875  0.5738  0.1987  0.7744
26244SOL    HW182009   8.128  10.083   5.810 -0.8957  1.9926 -0.0013
26244SOL    HW282010   8.006   9.997   5.827 -0.5399  1.5613  0.3843
26245SOL     OW82011   1.142   8.368   2.001 -0.0663  0.5402 -0.2266
26245SOL    HW182012   1.130   8.334   2.089 -0.1170 -0.1802 -0.5024
26245SOL    HW282013   1.058   8.353   1.958  0.4807 -0.7205 -0.9171
26246SOL     OW82014   6.722   3.991   7.847 -0.0515 -0.0644 -0.3394
26246SOL    HW182015   6.748   4.076   7.814 -2.5160  1.6124  1.6735
26246SOL    HW282016   6.650   4.009   7.908 -1.2049 -3.6412 -0.3741
26247SOL     OW82017   5.678   7.299  10.098  0.0343 -0.1847  0.2970
26247SOL    HW182018   5.709   7.262  10.015 -0.1898 -1.7813  0.8915
26247SOL    HW282019   5.586   7.322  10.081 -0.2830 -1.3647  0.3484
26248SOL     OW82020  11.223   2.121   5.010  0.6710  0.3303  0.3455
26248SOL    HW182021  11.164   2.162   4.948  1.2058 -0.3230 -0.6311
26248SOL    HW282022  11.305   2.170   5.001  1.1349 -0.5535 -0.4067
26249SOL     OW82023  11.054   2.175   6.755  0.0607  0.4617  0.3534
26249SOL    HW182024  11.034   2.234   6.683  2.6759 -1.7470 -2.4691
26249SOL    HW282025  11.133   2.212   6.795 -1.7403  2.0360  2.7077
26250SOL     OW82026   4.752   4.028   0.724  0.5619 -0.1484 -0.4716
26250SOL    HW182027   4.666   4.045   0.759  0.1441 -1.1819 -0.9301
26250SOL    HW282028   4.778   3.945   0.764  1.4569  0.2839 -0.1339
26251SOL     OW82029   4.945   3.347   9.312  0.7444  0.1457  0.4633
26251SOL    HW182030   4.941   3.254   9.288 -1.9324  0.9553 -2.9780
26251SOL    HW282031   4.888   3.354   9.389  0.5064 -0.9715  0.4079
26252SOL     OW82032   8.367  11.161   6.353  0.3727  0.5883 -0.1334
26252SOL    HW182033   8.349  11.221   6.280  0.3757  0.0939 -0.5454
26252SOL    HW282034   8.448  11.116   6.329 -1.2067 -1.8471 -1.3557
26253SOL     OW82035   4.932   8.778   7.078  0.4103 -0.0169 -0.3830
26253SOL    HW182036   4.952   8.704   7.021 -2.6964  0.1810 -1.9532
26253SOL    HW282037   4.861   8.746   7.135 -0.0149  1.3122 -0.1328
26254SOL     OW82038   5.959   2.231   7.166  0.4110 -0.2767  0.0952
26254SOL    HW182039   5.870   2.206   7.193  0.5537 -0.5424  0.3153
26254SOL    HW282040   5.989   2.290   7.235  1.1677 -1.7594  1.0699
26255SOL     OW82041   1.186   2.336   1.969 -0.3765  0.4928  0.5759
26255SOL    HW182042   1.109   2.393   1.963 -1.2471 -0.7448 -0.6123
26255SOL    HW282043   1.154   2.250   1.941  1.0770 -0.4195  1.6133
26256SOL     OW82044   3.664  10.718   1.314  0.2078  0.1994  0.4085
26256SOL    HW182045   3.591  10.705   1.254 -0.1632  0.0777  0.8867
26256SOL    HW282046   3.644  10.801   1.358  1.2722  1.1345 -0.7676
26257SOL     OW82047   6.221   0.506   8.996 -0.4128  0.7970 -0.3321
26257SOL    HW182048   6.243   0.504   8.903 -0.3171 -0.9399 -0.2960
26257SOL    HW282049   6.126   0.497   8.998 -0.4240  0.9345 -0.2639
26258SOL     OW82050   3.064   7.358   9.945  0.1886  0.0655  0.2034
26258SOL    HW182051   3.142   7.368   9.890  0.7705  2.6860  1.3335
26258SOL    HW282052   2.996   7.405   9.897 -0.7863 -2.2044 -0.7732
26259SOL     OW82053   1.560   4.006   4.379 -0.0332 -0.2403 -0.3609
26259SOL    HW182054   1.630   3.945   4.402 -0.2203 -0.5699 -0.6507
26259SOL    HW282055   1.584   4.040   4.293 -0.9182 -1.4268 -1.1187
26260SOL     OW82056   6.170   9.141   2.336 -0.3504  0.1407 -0.2556
26260SOL    HW182057   6.181   9.143   2.241  0.5721 -1.4024 -0.2113
26260SOL    HW282058   6.257   9.155   2.371 -0.0688 -2.4339  0.2749
26261SOL     OW82059   6.091  10.024   9.993  0.1772 -0.4348 -0.0273
26261SOL    HW182060   6.052  10.009   9.907 -0.8435  0.1896  0.3135
26261SOL    HW282061   6.092  10.120  10.002  0.2891 -0.4941  0.6533
26262SOL     OW82062   4.869  10.224   9.960 -0.1333 -0.9234  0.0713
26262SOL    HW182063   4.884  10.302  10.013 -1.4541 -1.4582  1.2750
26262SOL    HW282064   4.789  10.242   9.912  0.6956 -0.7164 -1.2981
26263SOL     OW82065   7.475   0.400   6.389 -0.3920  0.5833 -0.2769
26263SOL    HW182066   7.542   0.417   6.323  1.3170 -2.5210  0.4813
26263SOL    HW282067   7.392   0.418   6.344  0.8169  2.1444 -2.0140
26264SOL     OW82068   8.429   8.311   9.790  0.0279 -0.8075 -0.3005
26264SOL    HW182069   8.478   8.278   9.866 -0.1086  1.3363  0.8109
26264SOL    HW282070   8.344   8.269   9.797  0.2874 -1.2658  0.2674
26265SOL     OW82071   4.510   7.758   3.828  0.0523  0.7368 -0.3859
26265SOL    HW182072   4.430   7.707   3.835  0.2164  0.6740  1.6073
26265SOL    HW282073   4.560   7.716   3.757 -0.9063 -0.2735 -0.4863
26266SOL     OW82074   2.662   2.950   4.725  0.3250 -0.0517 -0.3184
26266SOL    HW182075   2.572   2.972   4.702 -0.2432 -0.8425  0.9864
26266SOL    HW282076   2.716   3.006   4.670 -0.9531  0.0775 -1.4922
26267SOL     OW82077   8.862   7.782  10.445 -0.1485  0.2054  0.7786
26267SOL    HW182078   8.782   7.834  10.442 -1.3590 -1.3860  2.6087
26267SOL    HW282079   8.832   7.691  10.444  1.5588 -0.4519  2.3605
26268SOL     OW82080   2.584   2.456   9.928  0.2822  0.2810  0.1518
26268SOL    HW182081   2.553   2.538   9.968  0.5743  0.5675 -0.2065
26268SOL    HW282082   2.602   2.398  10.002  1.2990  0.9766  0.4660
26269SOL     OW82083   6.130   6.682   8.547  0.1850 -0.3434 -0.1887
26269SOL    HW182084   6.130   6.673   8.452 -0.9937 -1.7143 -0.0881
26269SOL    HW282085   6.109   6.774   8.563 -1.5360 -0.5144 -1.2578
26270SOL     OW82086   4.508   4.822   0.129  0.6735  0.0134  0.5320
26270SOL    HW182087   4.451   4.788   0.198  0.3360  2.2947  1.4420
26270SOL    HW282088   4.467   4.793   0.047 -0.8142  0.1150  1.2131
26271SOL     OW82089   9.314   1.274   9.876  0.4357  0.1808  0.4185
26271SOL    HW182090   9.258   1.238   9.945  0.0404  0.5690  0.3025
26271SOL    HW282091   9.257   1.334   9.827  0.4952 -0.6606 -0.7204
26272SOL     OW82092   7.901   7.401   4.111 -0.4407 -0.3192  0.5696
26272SOL    HW182093   7.895   7.495   4.093  0.5788 -0.3271  0.1466
26272SOL    HW282094   7.839   7.361   4.049 -0.2588  0.0059  0.1763
26273SOL     OW82095   6.995   9.868   4.755  0.3732  0.6362  0.0193
26273SOL    HW182096   6.906   9.901   4.744  0.4578  0.1868 -3.0550
26273SOL    HW282097   7.047   9.946   4.775 -0.6526  0.9129  1.8025
26274SOL     OW82098   8.937   9.355   2.927  0.3542  0.0187 -0.2014
26274SOL    HW182099   8.902   9.296   2.993  0.4991  1.0134  0.7948
26274SOL    HW282100   9.018   9.314   2.898  0.1343 -0.5750  0.0048
26275SOL     OW82101   2.903   7.569   2.015  0.2367  0.2983  0.3926
26275SOL    HW182102   2.850   7.524   2.081 -0.1558  1.0428  0.5914
26275SOL    HW282103   2.957   7.630   2.065  1.5708 -0.7035  0.2310
26276SOL     OW82104   8.572   5.122  11.360  0.1456  0.3914  0.4336
26276SOL    HW182105   8.506   5.118  11.429  0.8372  0.7896  1.1518
26276SOL    HW282106   8.527   5.094  11.281 -0.2794 -1.6576  1.3393
26277SOL     OW82107   9.877   0.667   1.077 -0.0216  0.2681 -0.2164
26277SOL    HW182108   9.837   0.749   1.048  0.6393 -0.2890 -2.9645
26277SOL    HW282109   9.802   0.610   1.097 -0.4999  0.8467 -0.3274
26278SOL     OW82110   6.412   3.691   5.378 -0.3331  0.4040  0.0551
26278SOL    HW182111   6.410   3.662   5.287 -0.7105 -1.4156  0.6081
26278SOL    HW282112   6.344   3.640   5.421 -0.5327  1.6403  1.2636
26279SOL     OW82113   2.209   7.326   2.345 -0.6652  0.1195  0.5185
26279SOL    HW182114   2.230   7.419   2.346 -1.1881  0.2407  0.3504
26279SOL    HW282115   2.164   7.310   2.428 -1.1718  0.1581  0.2530
26280SOL     OW82116   9.893   8.169   5.174 -0.0740  0.7771 -0.4736
26280SOL    HW182117   9.832   8.212   5.114  1.5538  1.4421 -1.7344
26280SOL    HW282118   9.881   8.215   5.257 -2.2202 -0.0252 -0.2515
26281SOL     OW82119  10.639   7.271   3.501  0.0576  0.1901  0.7222
26281SOL    HW182120  10.713   7.305   3.452 -0.2968  1.1228  0.8243
26281SOL    HW282121  10.626   7.183   3.466 -0.3865  0.9432 -1.0886
26282SOL     OW82122   3.615   8.071   0.916 -0.4051 -0.0834 -0.1674
26282SOL    HW182123   3.625   7.977   0.932 -1.3641 -0.0735  0.5286
26282SOL    HW282124   3.655   8.084   0.830  0.6250 -0.9491  0.1461
26283SOL     OW82125   2.373   5.273   7.443  0.0933 -0.5798  0.1560
26283SOL    HW182126   2.431   5.202   7.471 -0.6326 -0.6075  1.7223
26283SOL    HW282127   2.284   5.239   7.458 -0.3026  0.0586 -0.6488
26284SOL     OW82128   7.895   2.798   4.250  0.3317 -0.0218  0.0620
26284SOL    HW182129   7.939   2.881   4.231 -0.1099  0.1909 -0.0366
26284SOL    HW282130   7.892   2.753   4.166 -0.8908  0.5686 -0.2259
26285SOL     OW82131  10.180   5.573  10.102  0.0753 -0.2502  0.0388
26285SOL    HW182132  10.250   5.528  10.150  0.7050 -0.4356 -1.0319
26285SOL    HW282133  10.135   5.624  10.170  1.0344 -0.3856  0.8155
26286SOL     OW82134   6.101   7.502   3.017  0.3441 -0.4564  0.5035
26286SOL    HW182135   6.024   7.446   3.025 -2.0935  2.2977 -1.3168
26286SOL    HW282136   6.153   7.462   2.948 -1.6475 -0.2556 -1.2136
26287SOL     OW82137  10.939   2.554   2.073  0.0128  0.2714  0.7139
26287SOL    HW182138  10.908   2.637   2.036  1.3722  1.6870  2.4987
26287SOL    HW282139  10.862   2.499   2.078 -0.3597  0.1207 -3.5740
26288SOL     OW82140  11.123   8.028   4.725  0.6694  0.0152 -0.1334
26288SOL    HW182141  11.079   7.944   4.731  0.3313  0.2810  3.1019
26288SOL    HW282142  11.052   8.093   4.730  1.1118  0.4292  1.8091
26289SOL     OW82143   9.741  10.367   6.367  0.7022  0.1110  0.2156
26289SOL    HW182144   9.737  10.418   6.286  1.8524  0.6035  0.4534
26289SOL    HW282145   9.654  10.379   6.407 -0.6986 -1.9487 -1.9583
26290SOL     OW82146   5.563   2.749  11.295 -0.0246  0.2424  0.1953
26290SOL    HW182147   5.619   2.826  11.296  0.0153  0.2103  0.8605
26290SOL    HW282148   5.475   2.784  11.280  0.3042  0.1776 -2.3491
26291SOL     OW82149   5.582   6.247   2.598  0.5731 -0.9169 -0.0819
26291SOL    HW182150   5.658   6.200   2.632  1.8835  1.0495 -0.1341
26291SOL    HW282151   5.610   6.282   2.514 -0.0586  0.5896  0.2913
26292SOL     OW82152   0.150   2.886   1.073 -0.5103  0.2262  0.7889
26292SOL    HW182153   0.182   2.824   1.138 -1.7481 -1.7133 -0.3400
26292SOL    HW282154   0.229   2.929   1.040  0.5439 -1.5970  0.8151
26293SOL     OW82155   6.757   0.821   1.154 -0.2640  0.1778 -0.0697
26293SOL    HW182156   6.739   0.896   1.211 -2.0242 -0.6103  0.4722
26293SOL    HW282157   6.671   0.787   1.131  0.2910  1.0849 -4.1787
26294SOL     OW82158   1.828   9.854  10.224 -0.4120  0.1089 -0.1078
26294SOL    HW182159   1.808   9.947  10.217 -1.8091 -0.1203  0.4459
26294SOL    HW282160   1.914   9.850  10.266  0.3778  1.1471 -1.5449
26295SOL     OW82161   2.690   0.530   3.339 -0.1706  0.0127 -0.5181
26295SOL    HW182162   2.705   0.540   3.433 -3.5953 -0.9135  0.2468
26295SOL    HW282163   2.712   0.616   3.302  1.1242  0.4252  1.0747
26296SOL     OW82164   2.338   4.743   4.802 -1.2186  1.1509  0.6639
26296SOL    HW182165   2.270   4.806   4.824 -1.4033  1.0009  0.5240
26296SOL    HW282166   2.303   4.659   4.833 -0.3811  1.3027  2.1637
26297SOL     OW82167   5.465   0.888   0.944 -0.0016 -0.5379  0.0260
26297SOL    HW182168   5.458   0.959   0.881  0.4206  0.0184  0.6005
26297SOL    HW282169   5.404   0.911   1.014  1.8312  0.4992  1.3720
26298SOL     OW82170  10.455   6.565   4.603 -0.2363  0.2143  0.1990
26298SOL    HW182171  10.392   6.559   4.675 -0.1178  1.0627  0.3869
26298SOL    HW282172  10.420   6.635   4.547  0.2592  0.3214  0.0215
26299SOL     OW82173   1.943   4.284   6.324 -0.3512 -0.3684  0.4398
26299SOL    HW182174   2.022   4.259   6.278 -0.2232  0.9807 -0.1034
26299SOL    HW282175   1.898   4.201   6.341  0.9615 -1.1089  0.3966
26300SOL     OW82176   2.356   8.158   8.752 -0.0182  0.3746 -0.2870
26300SOL    HW182177   2.426   8.094   8.740  0.2886  0.9191 -1.6741
26300SOL    HW282178   2.320   8.140   8.838 -0.3159 -2.0052 -0.8530
26301SOL     OW82179   5.818   7.427   8.943  0.0860  0.1216 -0.1006
26301SOL    HW182180   5.843   7.336   8.961 -1.4844  0.0282  1.9422
26301SOL    HW282181   5.723   7.428   8.952  0.1656  2.1677  0.9386
26302SOL     OW82182   2.790   3.375   1.905 -0.3706  0.2279 -1.3596
26302SOL    HW182183   2.703   3.340   1.924 -0.8766  0.7127 -2.6814
26302SOL    HW282184   2.847   3.298   1.905 -0.8210 -0.1181 -0.6707
26303SOL     OW82185   5.540   2.739   9.011  0.1523  0.2281 -0.3058
26303SOL    HW182186   5.459   2.729   9.061  0.5148 -0.8698  0.0966
26303SOL    HW282187   5.543   2.662   8.954  0.7633  0.4133 -0.5385
26304SOL     OW82188  10.102   8.545  10.173 -0.2508 -0.3276  0.1186
26304SOL    HW182189  10.045   8.580  10.105 -0.1358 -0.5647 -0.1020
26304SOL    HW282190  10.070   8.585  10.254  1.4028  2.2854 -0.3773
26305SOL     OW82191   2.479   2.655  10.090  0.4959 -0.2711 -0.4319
26305SOL    HW182192   2.469   2.729  10.031  0.2509  1.1322  1.2974
26305SOL    HW282193   2.409   2.666  10.154  2.2743 -0.2614  1.6182
26306SOL     OW82194   0.281   0.392   4.105 -0.1735 -0.2377 -0.3623
26306SOL    HW182195   0.263   0.362   4.194  0.5018 -1.8133 -0.7260
26306SOL    HW282196   0.372   0.367   4.089 -0.1399  0.4538 -1.3366
26307SOL     OW82197   7.135   8.497   8.752  0.3983 -0.6190  0.1634
26307SOL    HW182198   7.223   8.522   8.779  0.9637  0.5727 -2.3890
26307SOL    HW282199   7.136   8.506   8.656 -2.5592 -0.2828  0.0529
26308SOL     OW82200   1.410   7.003   3.990 -0.3978  0.1473  0.0632
26308SOL    HW182201   1.336   7.061   3.972 -0.3122  0.3011  0.1942
26308SOL    HW282202   1.465   7.054   4.050  1.2630  1.2151 -2.1977
26309SOL     OW82203   5.672   5.693   8.959  0.1963 -0.0911  0.3720
26309SOL    HW182204   5.595   5.666   8.909  0.7145 -2.1601  0.6377
26309SOL    HW282205   5.644   5.773   9.004 -1.3855 -0.1171 -0.4902
26310SOL     OW82206   9.380   9.276   9.443 -0.2210 -0.1493  0.0983
26310SOL    HW182207   9.435   9.199   9.430  0.5656  0.2305  1.0255
26310SOL    HW282208   9.297   9.241   9.477  0.2609 -0.5813  0.8740
26311SOL     OW82209   3.514   3.319   9.655 -0.1299  0.5563 -0.4012
26311SOL    HW182210   3.482   3.390   9.711 -1.9907  0.3154 -1.0919
26311SOL    HW282211   3.506   3.240   9.709 -1.2028  0.4313 -0.7206
26312SOL     OW82212   7.859   5.821  11.171 -0.1402 -0.5165 -0.0976
26312SOL    HW182213   7.954   5.834  11.159 -0.5425  1.9052 -1.1882
26312SOL    HW282214   7.851   5.788  11.260  1.7132 -0.3478  0.1719
26313SOL     OW82215  10.509   3.229   3.748 -0.2446 -0.1714  0.4448
26313SOL    HW182216  10.505   3.231   3.652  0.2087 -0.8397  0.4076
26313SOL    HW282217  10.553   3.310   3.772 -0.4245  0.0337  0.0907
26314SOL     OW82218   7.426   1.336   1.065 -0.4945 -0.2027 -0.4468
26314SOL    HW182219   7.342   1.344   1.019  0.3807 -1.5576 -2.3969
26314SOL    HW282220   7.446   1.243   1.063  0.4624 -0.0665  1.1587
26315SOL     OW82221   3.002   7.076   5.763  0.3387 -0.0873 -0.0021
26315SOL    HW182222   3.049   7.014   5.708  1.1740 -0.2126  0.8300
26315SOL    HW282223   2.963   7.022   5.832  0.8618  0.2665  0.5838
26316SOL     OW82224  10.818   5.358   5.343  0.0807  0.0791  0.2804
26316SOL    HW182225  10.829   5.279   5.396 -0.3974  0.5082  1.0323
26316SOL    HW282226  10.759   5.413   5.394  2.9666  2.3956  1.4207
26317SOL     OW82227   3.013   0.275   0.082 -0.2457  0.1079 -0.4155
26317SOL    HW182228   3.032   0.310   0.169 -0.2816  1.5558 -0.9569
26317SOL    HW282229   3.022   0.180   0.092  0.7950  0.3063  0.9137
26318SOL     OW82230   5.935   7.128   2.972  0.1395  0.1883 -0.1990
26318SOL    HW182231   5.845   7.144   2.943  0.2849 -0.1362 -0.8499
26318SOL    HW282232   5.925   7.077   3.053 -0.2675  0.7827  0.1329
26319SOL     OW82233   0.398   4.449   5.307 -0.5347 -0.3360 -0.7206
26319SOL    HW182234   0.384   4.538   5.275 -3.2161 -0.5119 -0.2509
26319SOL    HW282235   0.374   4.393   5.234 -0.0260 -0.7006 -0.6153
26320SOL     OW82236  10.844   5.146  10.040 -0.5855 -0.6152 -0.4594
26320SOL    HW182237  10.828   5.054  10.062  0.7567 -0.7792 -0.0663
26320SOL    HW282238  10.868   5.145   9.947  1.0735 -0.9057 -0.0554
26321SOL     OW82239   4.046   3.791   8.171 -0.4288  0.2659 -0.5937
26321SOL    HW182240   3.994   3.847   8.229 -0.5575 -1.0805  0.6526
26321SOL    HW282241   4.123   3.844   8.150 -1.1709  1.3975 -0.5453
26322SOL     OW82242   9.448  11.350  10.756  0.2511  0.6810  0.4821
26322SOL    HW182243   9.469  11.407  10.831 -3.2366  0.9594  1.4415
26322SOL    HW282244   9.404  11.408  10.694  2.8322  0.3776 -1.7783
26323SOL     OW82245   9.820   2.700   0.507 -0.2156 -0.2336 -0.1458
26323SOL    HW182246   9.750   2.680   0.569  0.4568  0.1513  0.7675
26323SOL    HW282247   9.801   2.646   0.430 -1.0977 -0.6771  0.3723
26324SOL     OW82248  11.034   1.997   9.854  0.4689  0.2592  0.7109
26324SOL    HW182249  10.956   2.035   9.893  0.6833  0.8060  0.6195
26324SOL    HW282250  11.021   2.007   9.759 -0.0618 -1.0852  0.6137
26325SOL     OW82251   0.587   8.144   8.599 -0.0166 -0.0553 -0.5409
26325SOL    HW182252   0.618   8.095   8.523 -1.9009 -1.2810 -0.5851
26325SOL    HW282253   0.587   8.079   8.670  0.4073  0.7125  0.1682
26326SOL     OW82254   1.205   6.505   8.820  0.4387  0.2878  0.2576
26326SOL    HW182255   1.193   6.599   8.823  2.2139  0.6709 -1.8707
26326SOL    HW282256   1.253   6.484   8.901 -0.0858  1.1667  0.8084
26327SOL     OW82257   6.149   0.883   5.473 -0.2734  0.1560  0.4395
26327SOL    HW182258   6.225   0.870   5.530 -1.7008 -2.0247  2.0305
26327SOL    HW282259   6.156   0.814   5.407 -0.3354  0.6044 -0.0422
26328SOL     OW82260   2.214   9.678   3.193  0.4590  0.6565 -0.3931
26328SOL    HW182261   2.275   9.744   3.226  0.0984  0.3741  0.8860
26328SOL    HW282262   2.261   9.595   3.201 -0.4136  0.2844  1.6548
26329SOL     OW82263   1.330   1.968  11.356  0.0860 -0.2417 -0.6941
26329SOL    HW182264   1.363   1.952  11.268  0.2519 -2.4967 -0.2774
26329SOL    HW282265   1.254   2.024  11.343  0.5460  0.0901 -2.1918
26330SOL     OW82266   4.875  10.386   2.115 -0.4626 -0.0888 -0.2050
26330SOL    HW182267   4.952  10.339   2.082 -0.7626  0.6382 -2.0567
26330SOL    HW282268   4.861  10.457   2.052 -1.8190  0.6500  0.8738
26331SOL     OW82269   9.794   5.334   3.082  0.3083  0.1771 -0.3116
26331SOL    HW182270   9.872   5.281   3.065 -0.7222 -1.9195  1.0399
26331SOL    HW282271   9.741   5.324   3.002  0.6101  0.0848 -0.5026
26332SOL     OW82272   6.933   4.598   0.198 -0.4090 -0.1063 -0.3724
26332SOL    HW182273   6.860   4.577   0.256 -0.2666 -3.6877 -1.2578
26332SOL    HW282274   7.011   4.587   0.253 -0.4044  0.9563 -0.1459
26333SOL     OW82275   6.526   6.401   1.431  0.5419  0.0099 -0.4107
26333SOL    HW182276   6.435   6.426   1.418  0.8167  0.9214 -0.6903
26333SOL    HW282277   6.524   6.338   1.502 -0.4691 -1.2554 -1.5257
26334SOL     OW82278   9.674   5.940   9.373  0.1702 -0.1437  0.4228
26334SOL    HW182279   9.717   5.982   9.299 -1.8209  0.9304 -0.2111
26334SOL    HW282280   9.672   5.847   9.351 -1.5111  0.2837 -1.5510
26335SOL     OW82281   4.385   5.370   6.283  0.2278  0.0934  0.5375
26335SOL    HW182282   4.315   5.413   6.333  0.6898  0.0336  1.2513
26335SOL    HW282283   4.409   5.294   6.336  1.0381  0.2759  0.4515
26336SOL     OW82284   6.454   6.211  10.569 -0.2427 -0.3367 -0.2035
26336SOL    HW182285   6.382   6.166  10.525 -0.3058  0.2685 -0.7394
26336SOL    HW282286   6.532   6.183  10.520 -0.1370 -0.7873  0.2131
26337SOL     OW82287   4.589   9.734   2.452  0.4204  0.7174  0.1930
26337SOL    HW182288   4.588   9.688   2.536 -0.2297  0.8386  0.2548
26337SOL    HW282289   4.565   9.668   2.387 -2.0654  1.2558  0.4505
26338SOL     OW82290   0.138   8.979   3.413  0.0769  0.0667 -0.2881
26338SOL    HW182291   0.205   9.030   3.367  1.2456 -0.0879  1.1601
26338SOL    HW282292   0.171   8.889   3.411 -1.0614 -0.3559 -1.2158
26339SOL     OW82293   2.232   1.364   6.630 -0.1957  0.6890 -0.8081
26339SOL    HW182294   2.275   1.406   6.555  0.1463 -0.0861 -1.0510
26339SOL    HW282295   2.297   1.304   6.665 -0.4240  0.9010  0.0034
26340SOL     OW82296  11.154   8.150  10.560  0.1726 -0.2592 -0.0467
26340SOL    HW182297  11.215   8.134  10.488 -0.5745  1.2868 -1.0677
26340SOL    HW282298  11.088   8.208  10.523 -1.4206 -1.1412  1.3023
26341SOL     OW82299   0.158   2.006  10.986 -0.3593  0.2837 -0.0193
26341SOL    HW182300   0.146   2.097  11.012  0.6114  0.5282 -0.3887
26341SOL    HW282301   0.154   1.957  11.069 -0.5752  0.6920  0.2137
26342SOL     OW82302   1.575   1.594   7.133 -0.3156  0.4250 -0.4157
26342SOL    HW182303   1.499   1.570   7.186 -0.1624  1.9620  0.5941
26342SOL    HW282304   1.646   1.539   7.167 -0.7225 -0.2401 -0.6225
26343SOL     OW82305  10.924   6.886   0.891  0.6334  0.1625  0.4662
26343SOL    HW182306  10.880   6.845   0.966  0.3028  2.4363  1.6062
26343SOL    HW282307  11.014   6.855   0.897  0.0397 -1.8004  0.1651
26344SOL     OW82308   3.863   6.144   8.711 -0.4146 -0.5107 -0.5594
26344SOL    HW182309   3.867   6.157   8.616  0.4249 -0.2711 -0.4970
26344SOL    HW282310   3.793   6.202   8.740 -1.6592 -1.6287 -1.1940
26345SOL     OW82311   4.280   7.909   2.004  0.7517 -0.1290 -0.2231
26345SOL    HW182312   4.340   7.898   1.930  1.0613  0.2942 -0.0400
26345SOL    HW282313   4.269   7.821   2.040  0.8551 -0.2864 -0.5714
26346SOL     OW82314   7.274  10.578   0.862  0.0458 -0.4765  0.5784
26346SOL    HW182315   7.221  10.541   0.791 -2.1011  0.5893  1.5154
26346SOL    HW282316   7.233  10.546   0.942  1.1976 -0.0708  1.3613
26347SOL     OW82317   2.062   5.752   9.096  0.6987 -0.2928  0.1554
26347SOL    HW182318   2.154   5.775   9.109  0.1983  1.9491  0.0426
26347SOL    HW282319   2.023   5.828   9.053 -0.4952 -2.4799 -3.0396
26348SOL     OW82320   8.137  10.305  10.531  0.3118 -0.5358  0.0062
26348SOL    HW182321   8.092  10.389  10.518  1.0886 -0.1234 -0.0902
26348SOL    HW282322   8.070  10.247  10.568 -0.0769  0.2996  0.6386
26349SOL     OW82323   9.720   6.155  10.199  0.4675  0.4123  0.6471
26349SOL    HW182324   9.684   6.197  10.277  2.8567  3.2644  0.4104
26349SOL    HW282325   9.793   6.212  10.173  2.1354 -2.4280 -1.5166
26350SOL     OW82326   6.375   2.295   5.560 -0.3752 -0.1584  0.2008
26350SOL    HW182327   6.470   2.300   5.558 -0.3587 -0.4001  0.3008
26350SOL    HW282328   6.347   2.382   5.588 -0.1514 -0.3122  0.9267
26351SOL     OW82329   8.219   2.475  11.099  0.3978  0.3566 -0.5767
26351SOL    HW182330   8.225   2.380  11.109  1.5617  0.5489  0.9728
26351SOL    HW282331   8.262   2.510  11.178 -0.6888  2.1636 -0.7374
26352SOL     OW82332   7.373   2.798   6.393  0.6693  0.1674 -0.5099
26352SOL    HW182333   7.403   2.883   6.424  0.6103  0.2979 -0.8126
26352SOL    HW282334   7.344   2.753   6.472  0.4582  0.5258 -0.3787
26353SOL     OW82335   1.653   1.246   7.666 -0.3895 -0.1962  0.5553
26353SOL    HW182336   1.696   1.294   7.737 -2.1303  1.0466  0.8349
26353SOL    HW282337   1.627   1.314   7.604 -1.6242 -0.9385  0.2367
26354SOL     OW82338   2.829   9.397   5.477 -0.0684  0.3712 -0.9592
26354SOL    HW182339   2.742   9.424   5.504  0.0318  2.5443 -2.4776
26354SOL    HW282340   2.826   9.302   5.474 -1.9996  0.3602  0.1680
26355SOL     OW82341   2.710   0.210   1.436  0.6180  0.3955 -0.4060
26355SOL    HW182342   2.746   0.287   1.392 -1.4171  1.6686  0.0179
26355SOL    HW282343   2.692   0.148   1.365  0.4130  1.1043 -0.9807
26356SOL     OW82344   8.182   6.368   1.920 -0.8581  0.2272  0.3482
26356SOL    HW182345   8.105   6.417   1.891  0.1471  1.2787 -0.6031
26356SOL    HW282346   8.252   6.394   1.861  0.5206  0.1144  1.8523
26357SOL     OW82347  11.226   8.020  11.137  0.2393 -0.2824 -0.0528
26357SOL    HW182348  11.247   8.084  11.069  2.0100 -0.5637  0.1875
26357SOL    HW282349  11.223   7.937  11.091 -1.3391 -0.1514 -0.2377
26358SOL     OW82350   2.512   5.383   9.731  0.0804  0.3120 -0.4973
26358SOL    HW182351   2.523   5.288   9.742 -1.5638  0.3245  2.1998
26358SOL    HW282352   2.424   5.394   9.696  0.3739  0.8536 -1.0857
26359SOL     OW82353   1.166   8.415   2.781 -0.2829 -0.0410  0.0263
26359SOL    HW182354   1.098   8.470   2.742  0.5989  0.4195 -0.9360
26359SOL    HW282355   1.247   8.446   2.740  0.7254  0.4595  2.2694
26360SOL     OW82356   4.455   0.879   0.991  0.5697  0.8227  0.5613
26360SOL    HW182357   4.475   0.797   0.947 -1.7785  0.4262  0.1403
26360SOL    HW282358   4.386   0.857   1.054 -0.4427  2.5388  0.1085
26361SOL     OW82359   1.988   9.148  11.200 -0.2235 -0.1527  0.0594
26361SOL    HW182360   1.978   9.065  11.247 -0.3835 -0.7749 -1.0143
26361SOL    HW282361   2.029   9.123  11.116  1.1535  1.0610  0.3231
26362SOL     OW82362   0.159   9.495   2.979  0.8932  0.4447 -0.6556
26362SOL    HW182363   0.189   9.507   2.889  0.4938 -0.6829 -0.9553
26362SOL    HW282364   0.064   9.508   2.974  1.0033  1.5092 -0.1755
26363SOL     OW82365   7.411   3.853   7.147 -0.5358 -0.4564 -0.8609
26363SOL    HW182366   7.446   3.767   7.125 -0.3724 -0.7242  0.3496
26363SOL    HW282367   7.434   3.865   7.239  0.2601  1.2991 -1.2477
26364SOL     OW82368   5.488   3.701   8.587  0.0507  0.2742 -0.2353
26364SOL    HW182369   5.567   3.648   8.602  1.4875  2.3841  0.2222
26364SOL    HW282370   5.437   3.691   8.667 -0.1999 -1.1451 -0.5468
26365SOL     OW82371   4.940   4.690   9.651  0.0914  0.3871  0.2812
26365SOL    HW182372   4.949   4.715   9.559 -0.5511  0.4772  0.2395
26365SOL    HW282373   4.950   4.595   9.651 -1.1843  0.2334 -0.0607
26366SOL     OW82374   6.229   2.698   3.336  0.4412 -0.0911  0.3336
26366SOL    HW182375   6.287   2.702   3.411  1.3664 -0.0474 -0.3731
26366SOL    HW282376   6.270   2.635   3.276 -1.3546 -1.7710  0.7411
26367SOL     OW82377   5.357   5.060   2.616  0.1449 -0.2621  0.4477
26367SOL    HW182378   5.338   4.982   2.564 -0.1864 -0.5726  1.0272
26367SOL    HW282379   5.355   5.030   2.707  2.4797 -0.1172  0.6062
26368SOL     OW82380   1.419   3.573   5.042 -0.3729 -0.2677 -0.0782
26368SOL    HW182381   1.434   3.628   4.965 -3.5855  1.3228  0.2652
26368SOL    HW282382   1.432   3.484   5.011  0.2170  0.4325 -1.9552
26369SOL     OW82383   9.464   7.445   3.407  0.5179 -0.1009 -0.8423
26369SOL    HW182384   9.405   7.519   3.425  0.2566 -0.0640 -1.8281
26369SOL    HW282385   9.465   7.396   3.489  0.0637  0.5604 -0.4262
26370SOL     OW82386   9.383   8.199   9.820 -0.4475 -0.3680  0.0737
26370SOL    HW182387   9.432   8.280   9.839  1.3644 -1.6260  1.0461
26370SOL    HW282388   9.345   8.174   9.904  0.0585 -1.1662  0.0785
26371SOL     OW82389   0.214   3.674   0.079  0.4082  0.1044 -0.0345
26371SOL    HW182390   0.189   3.665   0.171  0.6920  0.1039  0.0426
26371SOL    HW282391   0.249   3.588   0.055 -2.0835 -0.7718 -0.8937
26372SOL     OW82392   3.202   7.926   0.585  0.4934  0.2354  0.1563
26372SOL    HW182393   3.214   7.842   0.541 -0.5323  0.0173  0.2643
26372SOL    HW282394   3.252   7.988   0.533 -0.0542 -0.1656 -0.8790
26373SOL     OW82395   4.193   2.238   9.612 -0.1092  0.6340  0.1775
26373SOL    HW182396   4.108   2.208   9.644  0.1422 -1.8792 -1.2141
26373SOL    HW282397   4.177   2.260   9.520  0.3509  2.2659  0.4493
26374SOL     OW82398   1.458   2.859   2.009  0.5914  0.7741 -0.4599
26374SOL    HW182399   1.514   2.782   2.019 -0.7898 -0.0462  1.5146
26374SOL    HW282400   1.390   2.832   1.948  0.3920  0.6020 -0.1609
26375SOL     OW82401   4.828   8.323   8.344 -0.0317 -0.2347  0.3898
26375SOL    HW182402   4.777   8.260   8.393 -1.3580 -0.1417 -0.8153
26375SOL    HW282403   4.783   8.331   8.260  0.5496  1.7013  0.2018
26376SOL     OW82404   5.214   6.368  11.244 -0.0039  0.0906  0.1033
26376SOL    HW182405   5.304   6.335  11.240 -0.2056 -0.5617  0.6029
26376SOL    HW282406   5.215   6.448  11.193  1.1331  0.7144  1.0399
26377SOL     OW82407   8.539   2.638   6.448  0.2868 -0.7242 -0.0201
26377SOL    HW182408   8.564   2.546   6.442  2.1969 -0.2682  0.2520
26377SOL    HW282409   8.616   2.682   6.485 -0.2176  1.1357 -1.0290
26378SOL     OW82410   4.704  10.281   0.802  0.6474 -0.0588  0.7307
26378SOL    HW182411   4.639  10.343   0.837  0.5668 -0.8224  1.9899
26378SOL    HW282412   4.770  10.275   0.871  1.8490  0.3563 -0.3460
26379SOL     OW82413   9.673   3.856   3.229 -0.0177  0.2618  0.7861
26379SOL    HW182414   9.654   3.784   3.289 -0.5664  0.9499  1.4541
26379SOL    HW282415   9.604   3.920   3.246  0.8110  1.2177  0.6422
26380SOL     OW82416   8.157  10.429   6.927  0.1754 -0.2491 -0.1829
26380SOL    HW182417   8.084  10.376   6.893  0.5545 -0.6760 -0.3419
26380SOL    HW282418   8.115  10.509   6.957 -0.5328 -0.9509  0.7871
26381SOL     OW82419  10.006   6.842   1.843  0.2656  0.2067  0.1431
26381SOL    HW182420   9.967   6.919   1.886 -1.3288 -0.2321 -0.4592
26381SOL    HW282421  10.001   6.773   1.909 -2.4869 -0.5579 -0.7193
26382SOL     OW82422  10.776   7.296   5.079 -0.4258  0.2742  0.0817
26382SOL    HW182423  10.824   7.216   5.058  0.1383  0.2527  1.3736
26382SOL    HW282424  10.818   7.329   5.158 -0.1557  2.2706 -0.8281
26383SOL     OW82425   5.041   1.098   7.668 -0.3087  0.3660  0.3611
26383SOL    HW182426   4.989   1.134   7.740 -1.7342  0.1587 -0.5279
26383SOL    HW282427   4.984   1.033   7.627  0.5252  0.3839 -0.8695
26384SOL     OW82428   5.597   5.710   2.356 -0.5594 -0.5419  0.0833
26384SOL    HW182429   5.587   5.775   2.286 -0.7998  0.5826  1.1212
26384SOL    HW282430   5.514   5.661   2.355 -0.8517 -0.0501  0.0457
26385SOL     OW82431   9.514   9.184   7.906 -0.1498  0.1557 -0.1501
26385SOL    HW182432   9.559   9.267   7.890  1.0205 -0.2358  0.8710
26385SOL    HW282433   9.504   9.181   8.001 -1.6357 -0.1533 -0.2984
26386SOL     OW82434   7.018   3.216   2.721  0.7228  0.1234 -0.5177
26386SOL    HW182435   6.998   3.133   2.679 -2.5304  0.8225 -0.6218
26386SOL    HW282436   7.016   3.197   2.815  1.7602 -0.2241 -0.5559
26387SOL     OW82437   4.795   0.660   6.967 -0.5731  0.1363  0.1103
26387SOL    HW182438   4.841   0.737   7.000  0.4990  0.0570 -1.1063
26387SOL    HW282439   4.733   0.637   7.036 -0.0853  1.3818  0.9903
26388SOL     OW82440   1.054   1.012   2.225  0.2382  0.0522  0.2402
26388SOL    HW182441   0.999   0.999   2.148  0.2235  2.3806 -0.2089
26388SOL    HW282442   1.118   0.941   2.221 -0.9736 -1.0244 -0.8069
26389SOL     OW82443   3.025   6.408   9.430  0.0021  0.9482 -0.3073
26389SOL    HW182444   3.085   6.386   9.501  1.8043  0.3959 -1.9277
26389SOL    HW282445   2.956   6.342   9.438  1.0118 -0.1165 -0.0197
26390SOL     OW82446   1.062   6.473   0.850 -0.0005 -0.3687 -0.5348
26390SOL    HW182447   1.107   6.420   0.784  0.5449  1.7047 -1.9212
26390SOL    HW282448   0.972   6.479   0.819 -0.0151 -0.3159 -0.4830
26391SOL     OW82449   1.138   9.644   4.842  0.2111 -0.3887  0.0424
26391SOL    HW182450   1.160   9.694   4.920  0.1929  0.0677 -0.2406
26391SOL    HW282451   1.044   9.628   4.848  0.0532  0.3589 -0.2853
26392SOL     OW82452   3.191   9.150   0.652 -0.3231 -0.2753  0.3964
26392SOL    HW182453   3.182   9.245   0.644 -3.3126 -0.3955  1.2820
26392SOL    HW282454   3.245   9.138   0.731  0.3266  0.6593  0.1150
26393SOL     OW82455   2.692   6.791   3.157  0.2880 -0.1166 -0.3528
26393SOL    HW182456   2.747   6.713   3.165  0.5939  0.2018  0.9129
26393SOL    HW282457   2.634   6.788   3.233  1.0389  1.4310  0.3351
26394SOL     OW82458   8.051  10.340   0.319  0.4169  0.7887  0.1193
26394SOL    HW182459   8.034  10.280   0.392 -0.0677 -0.4710 -0.9757
26394SOL    HW282460   8.140  10.370   0.333  0.2917  0.6566  1.2920
26395SOL     OW82461   5.458   8.018   9.367  0.3779  0.0891 -0.3485
26395SOL    HW182462   5.544   8.056   9.350  0.9374 -0.0751  1.9041
26395SOL    HW282463   5.399   8.093   9.373  0.6860  0.3101 -0.1067
26396SOL     OW82464   8.744   9.486   3.142 -0.4820  0.4929 -0.1703
26396SOL    HW182465   8.796   9.549   3.092  0.2751 -0.3412 -0.4469
26396SOL    HW282466   8.676   9.457   3.081 -0.5939  0.7463 -0.1670
26397SOL     OW82467   1.334   5.238   3.065  0.3236 -0.2897 -0.1248
26397SOL    HW182468   1.361   5.185   3.140  0.0981  0.2619  0.3574
26397SOL    HW282469   1.266   5.296   3.100 -0.3495 -0.5589 -0.9394
26398SOL     OW82470   8.608   9.437   5.830 -0.1140 -0.5150 -0.0380
26398SOL    HW182471   8.574   9.476   5.911 -1.6693  0.7505 -1.2407
26398SOL    HW282472   8.555   9.358   5.818 -0.6217 -0.1260 -0.3743
26399SOL     OW82473   5.701   3.066   5.949  0.2601  0.3436 -0.2314
26399SOL    HW182474   5.791   3.054   5.978  0.1331  0.6486  0.3113
26399SOL    HW282475   5.701   3.040   5.857  1.0749  1.0937 -0.4568
26400SOL     OW82476   1.334   3.927   8.838  0.2650  0.5378 -0.0692
26400SOL    HW182477   1.406   3.897   8.783  0.2459 -0.8653  0.6060
26400SOL    HW282478   1.374   3.988   8.900  0.4953  1.2472 -0.9031
26401SOL     OW82479   0.185   4.542   7.518  0.9639  0.4513  0.2808
26401SOL    HW182480   0.122   4.613   7.503  0.8157  0.5834  1.4446
26401SOL    HW282481   0.138   4.479   7.574  0.7122 -1.1155 -1.5907
26402SOL     OW82482   0.054   0.203   3.921 -0.1456 -0.6511  0.3577
26402SOL    HW182483   0.138   0.246   3.939  0.3044 -0.5004 -1.8670
26402SOL    HW282484  -0.012   0.265   3.951  0.5302  0.6517 -0.7489
26403SOL     OW82485   5.760   7.606   3.913 -0.5120  0.6263  0.1050
26403SOL    HW182486   5.839   7.593   3.861 -0.1623  2.2354  0.1779
26403SOL    HW282487   5.711   7.674   3.866 -1.9424 -0.4617 -0.0296
26404SOL     OW82488   2.289   6.111   3.035 -0.5321  0.0787 -0.0848
26404SOL    HW182489   2.368   6.075   3.077 -0.4384  0.4948  0.0976
26404SOL    HW282490   2.320   6.142   2.949  0.2249  3.1697  1.1865
26405SOL     OW82491   2.400   3.152   7.995 -0.3068 -0.1563  0.2756
26405SOL    HW182492   2.395   3.101   7.915  2.1478  1.8779 -1.3109
26405SOL    HW282493   2.312   3.189   8.005 -0.9372 -1.2638 -0.8499
26406SOL     OW82494   3.052   4.743   3.541  0.3154  0.3524  0.5284
26406SOL    HW182495   2.980   4.693   3.578 -0.4673  0.5944 -0.6204
26406SOL    HW282496   3.110   4.677   3.503  0.2298  0.2081  0.6495
26407SOL     OW82497   4.267   2.388   0.003 -0.1234 -0.3745  0.7545
26407SOL    HW182498   4.254   2.409  -0.090 -1.2826  0.3337  1.0551
26407SOL    HW282499   4.244   2.296   0.010  0.3769 -0.5404  0.2652
26408SOL     OW82500   6.252  10.004   5.220 -0.4486 -0.5578 -0.3812
26408SOL    HW182501   6.245  10.082   5.275 -2.2234 -0.0849 -1.1821
26408SOL    HW282502   6.173   9.954   5.241  0.3818 -1.8695 -0.3036
26409SOL     OW82503   5.619  10.275   7.273 -0.0007 -0.7577  0.8640
26409SOL    HW182504   5.536  10.254   7.231 -1.3336  1.4517  2.1972
26409SOL    HW282505   5.631  10.206   7.338  0.8346 -2.7978 -1.3336
26410SOL     OW82506   5.117   1.698   9.157  0.2124 -0.2280  0.1447
26410SOL    HW182507   5.049   1.640   9.191 -0.1113  1.5951  3.0325
26410SOL    HW282508   5.173   1.642   9.104 -2.0024 -2.3629 -0.1303
26411SOL     OW82509   0.216  10.277   5.381 -0.0501  0.0950  0.6648
26411SOL    HW182510   0.222  10.191   5.421 -1.1412 -0.1787  0.3001
26411SOL    HW282511   0.303  10.295   5.347  0.5383 -0.2481  1.9659
26412SOL     OW82512   2.597   2.139   8.253  0.6914  0.4378 -0.2332
26412SOL    HW182513   2.563   2.195   8.322 -0.2837  0.2442 -0.5427
26412SOL    HW282514   2.693   2.147   8.260  0.6186  0.2064  1.2935
26413SOL     OW82515   0.551   4.883   3.949  0.2127 -0.2705  0.2128
26413SOL    HW182516   0.550   4.809   3.888 -0.2342 -0.8398  0.8926
26413SOL    HW282517   0.521   4.957   3.897  0.4768 -0.6094 -0.4312
26414SOL     OW82518   3.067   2.711   1.905 -0.7079  0.3943  0.0352
26414SOL    HW182519   3.083   2.727   1.812 -1.0229 -2.0666 -0.5157
26414SOL    HW282520   2.998   2.645   1.907 -0.9058  0.5820  2.0467
26415SOL     OW82521   3.261   9.440  10.718  0.4391  0.1633  0.5349
26415SOL    HW182522   3.326   9.499  10.680 -0.1095  0.8117  0.5678
26415SOL    HW282523   3.196   9.499  10.758  0.7213 -0.4954  2.0119
26416SOL     OW82524   1.866   7.884   2.710 -0.5100  0.2215 -0.4912
26416SOL    HW182525   1.864   7.893   2.615 -1.3314 -0.1861 -0.5252
26416SOL    HW282526   1.885   7.791   2.725 -1.0813  0.1331 -0.2751
26417SOL     OW82527   5.310   4.716   1.323  0.4371  0.5503 -0.0136
26417SOL    HW182528   5.404   4.697   1.316 -0.2081 -3.5130 -0.5105
26417SOL    HW282529   5.288   4.755   1.239  1.4095 -0.0635 -0.5809
26418SOL     OW82530   1.173   2.316   7.012  0.0476  0.1305  0.0741
26418SOL    HW182531   1.245   2.255   7.028  0.3171  0.3028 -0.4954
26418SOL    HW282532   1.190   2.390   7.071  0.2562  0.1075  0.0408
26419SOL     OW82533   6.710  10.681   7.790  0.3494  0.4242  0.9088
26419SOL    HW182534   6.702  10.673   7.695  1.9565 -1.7090  0.8609
26419SOL    HW282535   6.800  10.711   7.804 -0.8127  3.9777  1.7613
26420SOL     OW82536   6.141   7.889   1.427  0.2061 -0.3406  0.1670
26420SOL    HW182537   6.055   7.907   1.390 -0.3945 -0.5472  1.4146
26420SOL    HW282538   6.169   7.809   1.383 -0.9413 -1.1490  0.8344
26421SOL     OW82539   8.050   4.322   0.286 -0.0241  0.2116 -0.1370
26421SOL    HW182540   7.981   4.380   0.255 -1.1106 -0.3455  1.1566
26421SOL    HW282541   8.008   4.236   0.294  1.3049 -0.5857 -1.1046
26422SOL     OW82542   7.004   9.065   0.129  0.0726 -0.0605 -0.0235
26422SOL    HW182543   7.060   9.030   0.199 -2.0714 -1.2712  1.1929
26422SOL    HW282544   6.935   9.111   0.176 -0.8304  0.0111 -1.3982
26423SOL     OW82545   1.401   1.539   5.892  0.4240  0.2013  0.5567
26423SOL    HW182546   1.323   1.585   5.860  1.1775  0.2276 -1.3669
26423SOL    HW282547   1.467   1.554   5.824  2.2691  0.5382  2.3323
26424SOL     OW82548   6.287   9.293   0.044 -0.2291  0.4218  0.2901
26424SOL    HW182549   6.244   9.210   0.060  1.2851 -0.1902  1.4434
26424SOL    HW282550   6.323   9.319   0.129  0.4148  1.6194 -0.3088
26425SOL     OW82551   1.564   9.436   9.222 -0.0067 -0.0337  0.3837
26425SOL    HW182552   1.657   9.461   9.230 -0.4317  0.9858  3.9071
26425SOL    HW282553   1.560   9.347   9.257 -0.4414  0.2044  0.9524
26426SOL     OW82554   9.226  10.289   2.441 -0.3940  0.0425  0.1955
26426SOL    HW182555   9.135  10.297   2.412 -0.3001 -1.8375 -0.8271
26426SOL    HW282556   9.264  10.376   2.430 -2.0430  0.8282  0.5591
26427SOL     OW82557   7.638   1.127   5.413 -0.0944  0.3281 -0.3186
26427SOL    HW182558   7.719   1.131   5.362 -0.2716 -0.9666 -0.7325
26427SOL    HW282559   7.616   1.219   5.429  1.0316  0.7197 -0.8655
26428SOL     OW82560   1.831   7.867   1.327 -0.1989  0.5747 -0.0234
26428SOL    HW182561   1.790   7.901   1.247 -0.1837  1.4121  0.3063
26428SOL    HW282562   1.759   7.826   1.375 -0.5764  1.5869  0.3157
26429SOL     OW82563   3.115   9.626   4.558  0.2586  0.2515  0.3713
26429SOL    HW182564   3.161   9.545   4.536 -1.2242 -0.8750  1.2256
26429SOL    HW282565   3.051   9.600   4.624 -0.6116  2.0339  0.2898
26430SOL     OW82566   4.317  10.510   5.911  0.1966 -0.0553  0.8617
26430SOL    HW182567   4.357  10.523   5.997 -0.6424 -0.4649  1.3251
26430SOL    HW282568   4.363  10.572   5.854 -0.4831  1.5518  1.9920
26431SOL     OW82569   8.337   3.963   4.810  0.0653 -0.1613 -1.0457
26431SOL    HW182570   8.247   3.983   4.787 -0.8117 -3.1391 -0.5820
26431SOL    HW282571   8.333   3.879   4.855  3.1368 -0.6461 -1.4131
26432SOL     OW82572  10.149   5.551   5.361 -0.2978  0.2681  0.1189
26432SOL    HW182573  10.133   5.460   5.337 -0.0530  0.0921  0.6341
26432SOL    HW282574  10.063   5.593   5.354  0.1464  1.0252 -4.3350
26433SOL     OW82575   2.616   4.946   8.098  0.0549  0.1546  0.5191
26433SOL    HW182576   2.663   4.866   8.120  1.0677  1.1816  2.3689
26433SOL    HW282577   2.684   5.014   8.099 -1.0858  1.3238  0.9708
26434SOL     OW82578   7.224   8.857   8.829 -0.6884  0.2046  0.0753
26434SOL    HW182579   7.153   8.867   8.892  0.4049 -0.1314  1.4250
26434SOL    HW282580   7.272   8.779   8.859  1.3600  1.5032  0.3681
26435SOL     OW82581   2.078   7.776   4.407 -0.1371  0.7173  0.3291
26435SOL    HW182582   2.036   7.843   4.354 -1.6099 -0.7296 -0.4441
26435SOL    HW282583   2.021   7.767   4.484  1.3981  2.0353  1.7013
26436SOL     OW82584   8.948   1.752   4.884  0.1375  0.3116  0.0095
26436SOL    HW182585   9.016   1.690   4.912 -1.1050 -0.9095  0.4234
26436SOL    HW282586   8.951   1.822   4.949 -0.3681 -0.7732  1.2475
26437SOL     OW82587   6.302   6.914   8.778  0.1566 -0.4440 -0.2895
26437SOL    HW182588   6.356   6.845   8.817  0.5455 -0.2869 -0.5383
26437SOL    HW282589   6.352   6.994   8.792 -0.6022 -0.1067  0.5790
26438SOL     OW82590   0.429  10.191   7.705 -0.1447 -0.2020  0.3146
26438SOL    HW182591   0.505  10.217   7.652 -0.3629  1.4048  0.7370
26438SOL    HW282592   0.456  10.110   7.747  1.2776  0.2363  0.3062
26439SOL     OW82593  10.805  10.700   5.918 -0.4373 -0.0508  0.3297
26439SOL    HW182594  10.879  10.729   5.971 -0.1304  0.6325 -0.4613
26439SOL    HW282595  10.790  10.609   5.946  0.3519 -0.0190  0.8795
26440SOL     OW82596   9.160   6.024   7.133  0.1311  0.1074  0.0554
26440SOL    HW182597   9.079   6.057   7.173  0.6593 -0.2982  1.5034
26440SOL    HW282598   9.196   5.963   7.198  1.3893 -0.0360 -0.7474
26441SOL     OW82599   1.594   0.924   9.840  0.3150  0.1670  0.5910
26441SOL    HW182600   1.596   0.908   9.934 -0.9356  0.0672  0.6078
26441SOL    HW282601   1.644   1.005   9.829  0.1116  0.4097  1.3843
26442SOL     OW82602   8.907   0.063  10.072 -0.4305 -0.6402 -0.0746
26442SOL    HW182603   8.839   0.102  10.018  0.2443  1.9445  0.8050
26442SOL    HW282604   8.940  -0.011  10.020 -2.8116 -1.0226 -1.1670
26443SOL     OW82605  10.233   8.807   0.682 -0.1599  0.1351  0.5448
26443SOL    HW182606  10.180   8.876   0.641  0.8245  1.1717  0.9554
26443SOL    HW282607  10.180   8.775   0.755 -0.9321 -0.0619 -0.0928
26444SOL     OW82608   9.497   5.384   4.310 -0.1627 -0.0907 -0.1722
26444SOL    HW182609   9.548   5.344   4.380  1.6307  2.2049 -0.0385
26444SOL    HW282610   9.549   5.370   4.231 -1.9886 -2.3355 -1.0777
26445SOL     OW82611   0.894   6.984   7.385  0.3968  0.0160 -0.7142
26445SOL    HW182612   0.799   6.996   7.392  0.5520  0.3122  1.5473
26445SOL    HW282613   0.904   6.901   7.338 -0.9563  0.0629 -1.1536
26446SOL     OW82614   0.791   6.941   9.513 -0.2910  0.6727  0.1409
26446SOL    HW182615   0.751   6.897   9.437 -0.7573  0.3613  0.5649
26446SOL    HW282616   0.883   6.950   9.489 -0.2140 -0.4047 -0.0189
26447SOL     OW82617   8.685   8.439   7.085 -0.2696 -0.0212 -0.3270
26447SOL    HW182618   8.623   8.408   7.020  0.8836  0.8318 -1.9101
26447SOL    HW282619   8.648   8.521   7.118  0.1365  0.6930 -1.5552
26448SOL     OW82620   5.362   5.236   5.023  0.5914 -0.4335 -0.1426
26448SOL    HW182621   5.311   5.310   5.057  1.6258  1.1833 -1.9592
26448SOL    HW282622   5.453   5.260   5.039  1.0182 -0.5481 -2.1753
26449SOL     OW82623   1.117   2.843   1.537 -0.1241 -0.0076  0.4965
26449SOL    HW182624   1.069   2.766   1.566  0.7869 -1.6675 -2.0413
26449SOL    HW282625   1.167   2.871   1.614 -1.2388 -1.3407  1.7546
26450SOL     OW82626   8.905   3.653   1.494 -0.3318 -0.2039  0.3619
26450SOL    HW182627   8.902   3.602   1.575  1.5701 -1.9353 -0.5624
26450SOL    HW282628   8.962   3.602   1.437 -0.9082  1.4300 -1.7632
26451SOL     OW82629  10.720  10.388   2.306  0.0030 -0.2642  0.0423
26451SOL    HW182630  10.729  10.482   2.322  0.7234 -0.3477  0.1910
26451SOL    HW282631  10.777  10.371   2.230  1.0885 -0.8259  0.9539
26452SOL     OW82632   2.251   9.948   6.705  0.8026  0.2588 -0.1404
26452SOL    HW182633   2.201  10.014   6.753  1.3541  0.5194  0.0890
26452SOL    HW282634   2.198   9.869   6.710 -0.0012  0.7523 -0.6590
26453SOL     OW82635  10.884   2.154   6.042  0.2312  0.4588  0.1598
26453SOL    HW182636  10.880   2.114   6.129  1.5875  0.8948  0.4582
26453SOL    HW282637  10.936   2.093   5.990 -0.7453  0.1041 -0.4130
26454SOL     OW82638  11.099   0.946   7.116  0.9606  0.0937 -0.8259
26454SOL    HW182639  11.085   0.859   7.078  0.4650 -0.6123  0.8831
26454SOL    HW282640  11.014   0.990   7.108 -0.0175 -1.0992  1.9075
26455SOL     OW82641   6.469   8.802   4.005 -0.5354  0.1491  0.0000
26455SOL    HW182642   6.449   8.891   3.974  0.9578  0.5126 -0.0224
26455SOL    HW282643   6.439   8.745   3.935  1.2064  0.8600 -1.4295
26456SOL     OW82644   7.195  10.152   5.580 -0.9132  0.1442  0.0061
26456SOL    HW182645   7.211  10.160   5.674  1.6767 -1.1663 -0.2426
26456SOL    HW282646   7.226  10.234   5.543  1.7777 -0.7793 -0.0156
26457SOL     OW82647   4.146   1.677   3.586 -0.2804 -0.0534  0.1415
26457SOL    HW182648   4.217   1.740   3.573 -1.5329  1.1784 -0.9481
26457SOL    HW282649   4.140   1.667   3.681  0.9380  0.2723  0.2752
26458SOL     OW82650   5.995   8.020   7.579 -0.3803  0.7495 -0.3105
26458SOL    HW182651   6.020   8.005   7.670 -0.8592 -0.0879 -0.3034
26458SOL    HW282652   6.048   8.094   7.551 -0.3849  1.1592  0.7171
26459SOL     OW82653   8.272   8.591   2.715  0.2652 -0.1073  0.2429
26459SOL    HW182654   8.197   8.629   2.670  1.2291 -0.3485 -1.6521
26459SOL    HW282655   8.238   8.512   2.757 -0.4719 -0.4260 -0.9162
26460SOL     OW82656   4.249  10.960   0.211  0.6365  0.2891  0.0628
26460SOL    HW182657   4.313  11.024   0.241  2.5490 -1.5059  0.0545
26460SOL    HW282658   4.301  10.895   0.163 -1.1289 -1.4738  0.4071
26461SOL     OW82659   1.559   1.171   6.513 -0.2479  0.2895 -0.4300
26461SOL    HW182660   1.636   1.127   6.478  0.7011 -1.0446  2.9014
26461SOL    HW282661   1.566   1.261   6.482  1.4808 -0.3218 -1.9438
26462SOL     OW82662   1.704   3.764   4.547 -0.3503 -0.1907 -0.4055
26462SOL    HW182663   1.732   3.829   4.612  0.3597 -1.7414  0.8989
26462SOL    HW282664   1.665   3.694   4.599  0.5549 -1.6353 -1.6036
26463SOL     OW82665   7.806   5.066   2.737 -0.3889  0.0710  0.1218
26463SOL    HW182666   7.727   5.104   2.699 -0.3798 -0.4916 -0.4677
26463SOL    HW282667   7.779   5.034   2.822 -0.5701  0.7303  0.3187
26464SOL     OW82668   5.188   0.539  10.424 -0.2192  0.0128 -0.6460
26464SOL    HW182669   5.145   0.602  10.481 -1.9141 -0.7523 -1.0130
26464SOL    HW282670   5.143   0.547  10.340  0.7899 -0.3795 -1.2386
26465SOL     OW82671   3.212   7.389   4.283  0.6364  0.1981  0.6344
26465SOL    HW182672   3.247   7.304   4.254 -0.9933 -0.3915  0.3165
26465SOL    HW282673   3.290   7.441   4.304  1.7738 -0.4069 -1.8291
26466SOL     OW82674   1.257   6.628   2.600 -0.2549  0.2920  0.1152
26466SOL    HW182675   1.314   6.649   2.526 -1.0360 -1.4008 -1.0252
26466SOL    HW282676   1.253   6.710   2.651  1.9214  0.8943 -0.5819
26467SOL     OW82677  11.113   3.043   7.140 -0.0355 -0.1746 -0.4803
26467SOL    HW182678  11.069   3.105   7.082 -0.6240  0.6568  0.8017
26467SOL    HW282679  11.043   2.986   7.172 -0.0702  0.5569  0.8302
26468SOL     OW82680   3.988   3.409   6.668 -0.1470  0.7148 -0.2202
26468SOL    HW182681   3.896   3.423   6.691  0.1851  0.9727  1.0543
26468SOL    HW282682   3.992   3.319   6.637 -0.7887  0.6158 -0.0251
26469SOL     OW82683   2.874   1.352   3.243 -0.0911 -0.1883 -0.0253
26469SOL    HW182684   2.959   1.386   3.270  0.7654 -1.5086 -0.9368
26469SOL    HW282685   2.838   1.421   3.186 -0.1564  0.8559  1.2288
26470SOL     OW82686   1.102   3.196   6.421 -0.2633 -0.2640  0.0121
26470SOL    HW182687   1.192   3.164   6.413 -0.3204 -0.3108 -0.5257
26470SOL    HW282688   1.050   3.132   6.371 -0.4747  0.2540 -0.4400
26471SOL     OW82689  10.822   4.442   2.620  0.0976 -0.1870 -0.2975
26471SOL    HW182690  10.908   4.401   2.631 -0.1486 -0.9696 -1.0999
26471SOL    HW282691  10.790   4.405   2.537 -0.8439  0.3905 -0.1926
26472SOL     OW82692  10.150   8.543   6.565 -0.3866  0.3389 -0.0330
26472SOL    HW182693  10.107   8.460   6.542 -1.4065  1.2687 -1.7004
26472SOL    HW282694  10.230   8.517   6.610 -0.0191 -1.6289 -1.6603
26473SOL     OW82695   2.502   2.341   5.082 -0.2939 -0.6988 -0.1181
26473SOL    HW182696   2.440   2.271   5.064 -0.0514 -1.1401  0.7275
26473SOL    HW282697   2.535   2.322   5.170 -1.5554  1.4474  0.9078
26474SOL     OW82698   3.658   6.341   3.484  0.3580  0.1825  0.3678
26474SOL    HW182699   3.724   6.410   3.494 -0.4093  0.7295  1.9778
26474SOL    HW282700   3.698   6.264   3.524  1.2863 -0.4043 -1.5881
26475SOL     OW82701   4.171  10.445  10.447  0.0698 -0.1356  0.5941
26475SOL    HW182702   4.148  10.532  10.479 -2.4140 -0.4729 -0.0728
26475SOL    HW282703   4.131  10.440  10.360  1.2683 -1.5051  0.0793
26476SOL     OW82704   6.766   5.016   9.938  0.0444  0.0936  0.8370
26476SOL    HW182705   6.715   5.094   9.959  1.9095  2.0234 -1.3199
26476SOL    HW282706   6.700   4.948   9.922 -1.6882  1.5758  1.3796
26477SOL     OW82707   7.497   3.421   5.105  0.1086 -0.1885 -0.6167
26477SOL    HW182708   7.579   3.471   5.105 -0.6833  1.1568 -0.4782
26477SOL    HW282709   7.442   3.465   5.041 -1.2511  0.2169  0.7918
26478SOL     OW82710   1.632   9.109   7.000  0.1395  0.1264  0.1294
26478SOL    HW182711   1.659   9.135   7.088 -0.2623  1.4518 -0.1124
26478SOL    HW282712   1.704   9.136   6.944 -0.4697  1.1489 -0.1809
26479SOL     OW82713  10.872   9.633   0.364  0.0126  0.0872 -0.1830
26479SOL    HW182714  10.936   9.699   0.337  1.1209 -0.4232  1.0815
26479SOL    HW282715  10.854   9.653   0.456 -0.2314 -0.9069 -0.0028
26480SOL     OW82716  10.525   9.181   7.046 -0.1032  0.7210 -0.0489
26480SOL    HW182717  10.470   9.151   6.974  1.0397  0.4420 -0.8263
26480SOL    HW282718  10.524   9.276   7.039 -0.4288  0.7142 -0.1023
26481SOL     OW82719   2.387   2.554   8.242 -0.1964  0.1697 -0.3062
26481SOL    HW182720   2.306   2.544   8.192 -0.4191  1.4001 -0.2304
26481SOL    HW282721   2.390   2.647   8.263  0.7315 -0.0426  0.5615
26482SOL     OW82722   0.487   0.406  10.673 -0.0502 -0.4118 -0.0001
26482SOL    HW182723   0.527   0.490  10.697 -1.4722 -0.3308  2.4316
26482SOL    HW282724   0.546   0.370  10.607  1.2709  1.9245 -0.2300
26483SOL     OW82725   3.174   9.062  10.201  0.9523 -0.3104 -0.4964
26483SOL    HW182726   3.216   9.010  10.133  1.6089  0.1027 -0.4205
26483SOL    HW282727   3.220   9.038  10.281  2.2618  1.4022 -0.6710
26484SOL     OW82728   6.742   4.538   3.144 -0.2335 -0.6217 -0.0573
26484SOL    HW182729   6.655   4.500   3.159 -0.3822  0.3188  1.7818
26484SOL    HW282730   6.802   4.464   3.156 -0.6919 -0.9598  0.2095
26485SOL     OW82731   6.133   3.357   7.036  0.2350  0.5270  0.0657
26485SOL    HW182732   6.070   3.348   7.108 -1.6933  0.2028 -1.5755
26485SOL    HW282733   6.218   3.366   7.080 -0.4420 -2.5400  2.3731
26486SOL     OW82734   9.766   9.397   5.312 -0.0960  0.3552  0.6514
26486SOL    HW182735   9.764   9.474   5.369  1.7612 -0.2725  1.6555
26486SOL    HW282736   9.758   9.433   5.224 -1.5159  1.4802  1.1966
26487SOL     OW82737   9.905   4.771   8.013  0.6403 -0.3669  0.4071
26487SOL    HW182738   9.882   4.746   7.924 -1.1851  1.9998  0.1152
26487SOL    HW282739   9.821   4.783   8.057  1.4543  0.8940  1.7115
26488SOL     OW82740   8.131   6.036   1.204  0.3035  0.1431 -0.6133
26488SOL    HW182741   8.116   6.048   1.111  1.2906  0.4197 -0.7436
26488SOL    HW282742   8.087   5.954   1.226 -0.3768  0.3399 -1.2019
26489SOL     OW82743   6.877   8.836   1.975  0.2596  0.0781  0.7097
26489SOL    HW182744   6.877   8.849   2.070  0.7733  0.4483  0.6639
26489SOL    HW282745   6.970   8.835   1.952  0.1683 -0.9341  0.3292
26490SOL     OW82746   9.152   2.307   0.439 -0.4552 -0.0093  0.5091
26490SOL    HW182747   9.129   2.384   0.387  0.3281 -0.4824 -0.5841
26490SOL    HW282748   9.076   2.250   0.433 -0.0142 -0.4899 -0.9995
26491SOL     OW82749  10.624   8.573   0.939 -0.0545  0.4165  0.1325
26491SOL    HW182750  10.576   8.620   0.871 -2.3170 -0.6697  0.8754
26491SOL    HW282751  10.558   8.517   0.980  2.3244 -2.9961 -0.2963
26492SOL     OW82752  10.772   7.163   0.612  0.5010 -0.1689  0.3589
26492SOL    HW182753  10.687   7.182   0.571  0.6046  0.8379  0.5981
26492SOL    HW282754  10.768   7.069   0.632 -0.7045 -0.0589  0.7158
26493SOL     OW82755   1.578   3.507   1.261 -0.1375  0.0391  0.1657
26493SOL    HW182756   1.618   3.525   1.346  0.8634  1.5130 -0.5710
26493SOL    HW282757   1.568   3.594   1.221 -0.3292 -0.6564 -1.3380
26494SOL     OW82758   4.008  11.293   0.290 -0.1239  0.5328 -0.1985
26494SOL    HW182759   4.099  11.293   0.319 -0.3185  0.8316  0.4317
26494SOL    HW282760   3.990  11.203   0.264  0.3858  0.5017 -0.4411
26495SOL     OW82761   1.687   9.528   8.329 -0.1281 -0.6178 -0.5662
26495SOL    HW182762   1.642   9.585   8.267  1.7803  0.3285 -1.1545
26495SOL    HW282763   1.747   9.476   8.275 -1.4756 -2.9524  0.0025
26496SOL     OW82764   7.048   2.075   5.742 -0.1161  0.6824 -0.1322
26496SOL    HW182765   7.061   2.153   5.688  0.2099  1.4310  0.9875
26496SOL    HW282766   7.066   2.104   5.831 -1.9480 -0.1623  0.5784
26497SOL     OW82767   0.908   2.259   7.054  0.9068  0.0691 -0.4113
26497SOL    HW182768   0.872   2.215   6.977  1.5950 -1.1366 -0.0623
26497SOL    HW282769   0.999   2.276   7.032  0.9973  0.1111 -0.0162
26498SOL     OW82770   2.055  10.789   8.912 -0.5235  0.0232  0.6383
26498SOL    HW182771   2.063  10.856   8.980 -0.3521 -1.2692  1.9299
26498SOL    HW282772   2.134  10.800   8.859  1.0492 -1.0383  2.6289
26499SOL     OW82773   5.433   6.118   8.905  0.6236  0.0142  0.0732
26499SOL    HW182774   5.524   6.141   8.925  0.3835  1.6135 -0.4873
26499SOL    HW282775   5.391   6.110   8.991  1.1519 -0.1058  0.3229
26500SOL     OW82776   2.667   9.335   7.594  0.1689 -0.3113  0.2914
26500SOL    HW182777   2.621   9.415   7.567 -0.7243 -1.0213 -0.3305
26500SOL    HW282778   2.600   9.284   7.640  1.2115  0.1219  2.4191
26501SOL     OW82779   7.859   5.433   6.271 -0.1127  0.0687 -0.3257
26501SOL    HW182780   7.945   5.462   6.302 -0.5487  0.4293  0.5755
26501SOL    HW282781   7.853   5.469   6.182  0.2218  0.9780  0.0092
26502SOL     OW82782   6.021   1.729   4.937  0.3741 -0.0275  0.0375
26502SOL    HW182783   6.024   1.637   4.914  2.3606  0.2724 -1.1847
26502SOL    HW282784   6.039   1.731   5.031  0.7587 -0.8628 -0.0125
26503SOL     OW82785   5.274   0.602   0.471  0.0157  0.1680  0.3738
26503SOL    HW182786   5.196   0.620   0.419 -2.2908 -0.2531  3.4283
26503SOL    HW282787   5.286   0.680   0.525  2.8417  0.9464 -1.2004
26504SOL     OW82788   5.962   6.417   4.153  0.5850 -0.3914 -0.2034
26504SOL    HW182789   5.904   6.416   4.076  0.5321 -0.9263 -0.1654
26504SOL    HW282790   5.962   6.508   4.182 -0.9159 -0.5187  0.2931
26505SOL     OW82791   5.655   7.501   6.845 -0.1820 -0.5346  0.1819
26505SOL    HW182792   5.629   7.545   6.926  3.0511  1.4022  0.3608
26505SOL    HW282793   5.709   7.428   6.873 -0.2553 -0.7442 -0.2104
26506SOL     OW82794  11.302   9.892  10.809 -0.1678 -0.3923  0.0910
26506SOL    HW182795  11.331   9.957  10.873  0.3458 -0.7353  0.2170
26506SOL    HW282796  11.247   9.832  10.859 -0.3638 -0.2452  0.0504
26507SOL     OW82797   1.329   8.355   7.322 -0.3324 -0.4868 -0.2484
26507SOL    HW182798   1.408   8.349   7.268  0.3163  1.2452  0.4150
26507SOL    HW282799   1.257   8.356   7.260  0.3278  0.1878 -1.0376
26508SOL     OW82800   1.152   3.172   8.570  0.3401  0.1423 -0.1048
26508SOL    HW182801   1.098   3.164   8.492 -0.6410 -0.1184  0.5919
26508SOL    HW282802   1.180   3.264   8.570 -1.4482  0.7254  0.3848
26509SOL     OW82803   7.612   2.649   2.610  0.2671 -0.0865  0.1704
26509SOL    HW182804   7.649   2.573   2.565  0.0775 -1.0372  1.5363
26509SOL    HW282805   7.687   2.691   2.651  0.2780  0.0209  0.0390
26510SOL     OW82806   1.703   4.636   7.142 -0.2215 -0.0463 -0.0185
26510SOL    HW182807   1.615   4.661   7.112 -0.3811 -0.9726 -0.3738
26510SOL    HW282808   1.704   4.661   7.235 -0.8096  0.1041 -0.0448
26511SOL     OW82809   5.565  10.160   6.230 -0.2989 -0.0023 -0.4610
26511SOL    HW182810   5.477  10.151   6.268  0.0537  0.6778  0.5409
26511SOL    HW282811   5.621  10.108   6.287  0.1235  0.4719 -0.4374
26512SOL     OW82812   9.776   3.147  11.340  0.1486  0.1933 -0.5366
26512SOL    HW182813   9.716   3.141  11.413  1.4605 -1.7762  0.4564
26512SOL    HW282814   9.740   3.217  11.284 -0.0280  2.9847  2.7415
26513SOL     OW82815   7.680   2.493   4.871 -0.1808  0.2069  0.0296
26513SOL    HW182816   7.740   2.420   4.858  0.6486  0.8912 -0.0393
26513SOL    HW282817   7.671   2.532   4.784  0.6812  1.1723  0.3522
26514SOL     OW82818   7.020   6.330  10.822 -0.0615  0.0055  0.3803
26514SOL    HW182819   6.980   6.313  10.737 -0.0903  0.3238  0.3302
26514SOL    HW282820   6.951   6.371  10.874 -0.1028 -0.3642  0.6211
26515SOL     OW82821   5.947   3.136   6.021  0.1253  0.3164  0.1280
26515SOL    HW182822   5.994   3.083   6.086 -0.7448  1.4309  1.7466
26515SOL    HW282823   5.959   3.226   6.050  0.3265  0.9262 -1.7239
26516SOL     OW82824   7.248   1.592  11.047 -0.5698 -0.2016  0.1523
26516SOL    HW182825   7.329   1.545  11.066 -1.4410 -1.1619  1.7295
26516SOL    HW282826   7.216   1.553  10.965  0.0521 -0.5369  0.0648
26517SOL     OW82827   4.772   9.955   2.491  1.1321 -0.2986  0.2809
26517SOL    HW182828   4.724   9.872   2.486  1.2887 -0.4362  1.0381
26517SOL    HW282829   4.796   9.973   2.400  1.8026 -1.5047  0.1928
26518SOL     OW82830  11.105   2.534   6.731  0.3928 -0.0060  0.1382
26518SOL    HW182831  11.053   2.454   6.728  0.6572 -0.1564 -0.5916
26518SOL    HW282832  11.066   2.590   6.664  0.8284  0.0940 -0.0305
26519SOL     OW82833   5.425   0.315   3.194 -0.4630 -0.7461  0.2508
26519SOL    HW182834   5.436   0.401   3.153 -0.8979 -1.1944 -0.8245
26519SOL    HW282835   5.436   0.252   3.123 -0.9251 -1.5581  0.8745
26520SOL     OW82836   2.245   2.379   3.899 -0.1808  0.0537  0.6315
26520SOL    HW182837   2.329   2.358   3.941 -1.3198  0.5117  3.4113
26520SOL    HW282838   2.268   2.438   3.828  1.7846  1.6922  2.4763
26521SOL     OW82839   1.299   7.968   7.550  0.0036  0.5846 -0.2251
26521SOL    HW182840   1.252   7.950   7.631  0.8378 -0.4195  0.0640
26521SOL    HW282841   1.346   8.049   7.567 -0.1979  0.6259  0.1328
26522SOL     OW82842   6.681   2.674  10.072  0.1993  0.4554  0.2498
26522SOL    HW182843   6.621   2.744  10.098  1.6862  1.8829  0.0497
26522SOL    HW282844   6.685   2.616  10.148  0.7098  1.8816  1.3589
26523SOL     OW82845   5.194   0.253   9.487  0.2295  0.8155 -0.1917
26523SOL    HW182846   5.222   0.177   9.436 -0.9024  0.1919  0.0794
26523SOL    HW282847   5.271   0.278   9.537  0.7460  0.1131 -0.6153
26524SOL     OW82848   1.211   5.461   7.991 -0.0549  0.2041  0.0513
26524SOL    HW182849   1.293   5.430   7.953 -0.2772  2.3439 -2.4222
26524SOL    HW282850   1.236   5.494   8.078  1.6025  0.4115 -0.4662
26525SOL     OW82851   7.845   9.988   4.022  0.0394  0.1831 -0.1247
26525SOL    HW182852   7.764  10.039   4.022  0.7275  1.3060 -0.1318
26525SOL    HW282853   7.910  10.046   4.061  1.4306  0.2493 -2.3590
26526SOL     OW82854   6.954   2.510   9.211  0.1919 -0.1413 -0.4363
26526SOL    HW182855   6.985   2.515   9.121  0.6959  1.3600 -0.2116
26526SOL    HW282856   6.959   2.417   9.233 -0.3468 -0.5945 -2.0786
26527SOL     OW82857   1.531   1.372   3.273 -0.1016  0.0629  0.0447
26527SOL    HW182858   1.458   1.429   3.248 -0.8124 -0.8470 -0.0154
26527SOL    HW282859   1.516   1.353   3.366 -0.6033 -1.0254 -0.2320
26528SOL     OW82860   3.666   5.488   1.666  0.5277 -0.0300 -0.4502
26528SOL    HW182861   3.731   5.550   1.698 -1.4756  0.5204  3.0913
26528SOL    HW282862   3.592   5.542   1.638 -0.3123 -0.7090  0.3937
26529SOL     OW82863   7.889   8.961   0.279 -0.4011 -0.1349 -0.1125
26529SOL    HW182864   7.840   9.021   0.334 -1.5222 -1.4122  0.3288
26529SOL    HW282865   7.951   9.017   0.231 -1.8076  1.4365 -0.1827
26530SOL     OW82866   3.226   4.670   7.225 -0.2630  0.0836  0.5484
26530SOL    HW182867   3.224   4.597   7.287 -2.8409  0.2866  0.8185
26530SOL    HW282868   3.250   4.631   7.141 -0.5195 -0.8823  0.9217
26531SOL     OW82869   3.820   8.696   8.055 -0.5413  0.4168 -0.0367
26531SOL    HW182870   3.770   8.717   7.976 -1.0414  1.4040  0.5208
26531SOL    HW282871   3.878   8.772   8.068 -0.3966  0.2244  0.4829
26532SOL     OW82872   3.718   9.287   5.701  0.0948 -0.1183  0.4778
26532SOL    HW182873   3.768   9.228   5.757  1.0185  1.4622  1.3853
26532SOL    HW282874   3.631   9.247   5.697  0.3227 -0.8873  2.1179
26533SOL     OW82875   8.588   8.832  10.387  0.0178 -0.3584 -0.4049
26533SOL    HW182876   8.635   8.752  10.364 -0.1588 -0.2235 -1.2685
26533SOL    HW282877   8.570   8.874  10.303  0.3460  0.7275  0.0559
26534SOL     OW82878   6.296   3.235   2.901 -0.2903 -0.2203  0.3519
26534SOL    HW182879   6.213   3.191   2.885 -1.4484  1.9515 -0.0246
26534SOL    HW282880   6.336   3.242   2.814 -0.7395  0.5900  0.1960
26535SOL     OW82881   9.017   2.012   4.498 -0.1321 -0.2743 -0.4094
26535SOL    HW182882   9.090   2.065   4.529  0.8175 -0.3689 -2.3262
26535SOL    HW282883   8.939   2.055   4.532  0.5609  2.6612 -2.2362
26536SOL     OW82884   4.056   1.386   4.331 -0.2103 -0.5363  0.0456
26536SOL    HW182885   4.042   1.480   4.322  1.7710 -0.2388 -0.2201
26536SOL    HW282886   4.019   1.364   4.416 -1.2630  0.3409 -0.1628
26537SOL     OW82887   4.958   1.381   7.997  0.0547  0.2856  0.7870
26537SOL    HW182888   4.957   1.285   7.995  2.1934  0.2352  0.1499
26537SOL    HW282889   4.950   1.403   8.090 -1.5116 -0.4465  0.8551
26538SOL     OW82890   3.761  11.374   4.329  0.1350 -0.2293 -0.2461
26538SOL    HW182891   3.826  11.381   4.259  0.8346 -0.9942  0.3090
26538SOL    HW282892   3.773  11.286   4.364  0.3359  0.4053  1.3530
26539SOL     OW82893   5.070   8.021   0.701  0.0532  0.3401 -0.1664
26539SOL    HW182894   5.061   7.936   0.658 -0.9073  0.2107  0.2759
26539SOL    HW282895   5.127   8.071   0.642 -0.0094 -0.3383 -0.8266
26540SOL     OW82896   4.204   9.313  11.056  0.2104 -0.1331 -0.3223
26540SOL    HW182897   4.156   9.305  10.974  0.9633  0.2934 -0.8121
26540SOL    HW282898   4.139   9.345  11.119 -0.0549  0.8414 -1.0707
26541SOL     OW82899   9.169  11.331   7.152  0.5703  0.1225  0.3928
26541SOL    HW182900   9.161  11.259   7.215  1.2741 -0.6828 -0.4052
26541SOL    HW282901   9.085  11.377   7.157 -0.5519 -1.7127 -0.1944
26542SOL     OW82902   9.545   8.032   8.082  0.3651  0.3963  0.2547
26542SOL    HW182903   9.480   7.968   8.110  0.2598 -0.4165 -1.6689
26542SOL    HW282904   9.531   8.107   8.140 -1.2837 -0.3224  0.8671
26543SOL     OW82905   5.146   0.048   8.235 -0.2469  0.2610  0.6761
26543SOL    HW182906   5.057   0.031   8.268 -0.0854 -0.0542  0.9553
26543SOL    HW282907   5.144   0.139   8.206 -1.1989 -0.2502 -1.0318
26544SOL     OW82908   5.451   9.310  10.530 -0.3435  0.4105 -0.2990
26544SOL    HW182909   5.412   9.251  10.595 -0.9006  0.8871 -0.1834
26544SOL    HW282910   5.411   9.285  10.447 -0.2984  0.3762 -0.3101
26545SOL     OW82911  10.850   5.897   4.813 -0.7693  0.2178 -0.0304
26545SOL    HW182912  10.872   5.987   4.837  2.1596 -0.5761  0.5841
26545SOL    HW282913  10.826   5.902   4.720  1.2045  1.3923 -0.5203
26546SOL     OW82914   0.447   1.686   9.201 -0.1876  0.4540  0.5359
26546SOL    HW182915   0.393   1.636   9.139 -1.0386 -0.4912  1.9762
26546SOL    HW282916   0.514   1.728   9.147 -1.8633  1.0038 -1.2282
26547SOL     OW82917  10.868   6.434   8.387 -0.1000  0.4625  0.4005
26547SOL    HW182918  10.911   6.423   8.472 -0.9924 -0.4006  0.7566
26547SOL    HW282919  10.804   6.504   8.402 -0.5311  0.0420  0.5628
26548SOL     OW82920   9.013   6.087   4.640 -0.1312  0.5775 -0.1377
26548SOL    HW182921   9.096   6.079   4.688 -0.0650 -0.6829 -0.4352
26548SOL    HW282922   9.002   6.003   4.596 -1.4144  0.8438 -0.3744
26549SOL     OW82923   1.674   6.219   2.548  0.6144  0.6133  0.3832
26549SOL    HW182924   1.662   6.299   2.599 -0.5786 -0.1163  1.2947
26549SOL    HW282925   1.728   6.162   2.603  1.1161  0.6165 -0.0888
26550SOL     OW82926   3.531   9.675   0.688 -0.1333  0.0652  0.5144
26550SOL    HW182927   3.606   9.703   0.742  2.7703 -1.3690 -2.3836
26550SOL    HW282928   3.519   9.747   0.626 -0.7958  0.0260  0.5918
26551SOL     OW82929  11.047   7.679   5.010  0.0669  0.2758  0.1921
26551SOL    HW182930  11.122   7.641   5.057  2.9546  1.1197 -3.2773
26551SOL    HW282931  11.007   7.606   4.965 -0.5106  0.0041  1.1147
26552SOL     OW82932  10.502   2.274   3.532 -0.2417 -0.0483  0.5214
26552SOL    HW182933  10.445   2.334   3.581  0.1800  0.0467  0.9086
26552SOL    HW282934  10.444   2.229   3.472 -0.4425  1.3903 -0.4085
26553SOL     OW82935   2.145   8.747   7.172  0.5986 -0.2014  0.3070
26553SOL    HW182936   2.157   8.658   7.137  1.2234 -0.6022  1.5025
26553SOL    HW282937   2.201   8.750   7.249  1.6834  1.7014 -0.4887
26554SOL     OW82938   6.587   0.392   0.094 -0.0354 -0.4804 -0.0413
26554SOL    HW182939   6.494   0.373   0.095 -0.0461 -0.4946 -0.9809
26554SOL    HW282940   6.605   0.428   0.181 -0.8071 -0.9603  0.3247
26555SOL     OW82941  10.887   4.444   4.699 -0.3267 -0.7426  0.7024
26555SOL    HW182942  10.904   4.413   4.788  0.8065 -0.1032  0.7238
26555SOL    HW282943  10.965   4.420   4.649 -0.6051 -0.3746  0.0690
26556SOL     OW82944  10.194  11.105   8.369 -0.0262  0.6873  0.0259
26556SOL    HW182945  10.169  11.020   8.333 -0.9074  1.9196 -2.5560
26556SOL    HW282946  10.289  11.108   8.359 -0.0140  0.0960 -0.0684
26557SOL     OW82947   5.086  11.118   8.664  0.3396  0.2217  0.1914
26557SOL    HW182948   5.149  11.170   8.713  2.4093 -2.7404  0.9100
26557SOL    HW282949   5.092  11.030   8.702 -2.4439 -0.7844 -1.3854
26558SOL     OW82950   0.376   2.611   1.801 -0.6285  0.3499 -0.5333
26558SOL    HW182951   0.350   2.668   1.873 -2.5621  0.3348 -1.1750
26558SOL    HW282952   0.334   2.527   1.820 -0.3111  0.0368 -1.1701
26559SOL     OW82953   2.181   6.504   0.912 -0.3031  0.1443 -0.1724
26559SOL    HW182954   2.220   6.586   0.942 -0.9889  0.0764  0.9535
26559SOL    HW282955   2.157   6.521   0.821 -0.1871  1.1109 -0.0378
26560SOL     OW82956   1.385   4.725   7.851  0.2236  0.3129 -0.0167
26560SOL    HW182957   1.349   4.771   7.775  1.3505  0.5050 -0.4551
26560SOL    HW282958   1.437   4.791   7.896 -0.1053  0.0900  0.7020
26561SOL     OW82959   7.297   6.380   1.786  0.3069  0.1273  0.0566
26561SOL    HW182960   7.335   6.340   1.864  0.2157 -0.1379 -0.0345
26561SOL    HW282961   7.372   6.416   1.738  0.2633  1.3827  0.8688
26562SOL     OW82962   0.471   6.523   7.625  0.5858 -0.0440 -0.6409
26562SOL    HW182963   0.552   6.542   7.673  0.3702  0.9572 -0.6506
26562SOL    HW282964   0.499   6.507   7.535  0.6587  1.8816 -1.0046
26563SOL     OW82965   3.719   9.131   0.127 -0.5737  0.0125  0.1137
26563SOL    HW182966   3.729   9.199   0.194 -2.1544 -0.7575  1.2129
26563SOL    HW282967   3.625   9.113   0.125 -0.2593 -1.7917 -0.4824
26564SOL     OW82968  10.160   7.849   7.272 -0.1553 -0.2957 -0.5852
26564SOL    HW182969  10.118   7.934   7.267 -0.6833 -0.2907  2.4428
26564SOL    HW282970  10.250   7.865   7.242 -0.6587  0.9338 -1.5394
26565SOL     OW82971   7.305   1.128   6.232  0.1316  0.4651 -0.8621
26565SOL    HW182972   7.313   1.136   6.327 -1.3602 -1.2085 -0.5330
26565SOL    HW282973   7.273   1.039   6.219  2.7406 -0.2664 -3.1121
26566SOL     OW82974   1.679   2.807   0.944 -0.0537 -0.8029  0.3987
26566SOL    HW182975   1.611   2.873   0.933  1.4601  0.4820 -2.3825
26566SOL    HW282976   1.656   2.738   0.882  0.2503 -1.1920  0.7166
26567SOL     OW82977   2.823   9.371   2.616 -0.3641 -0.3867  0.4322
26567SOL    HW182978   2.790   9.459   2.632  0.0849 -0.3166  1.0378
26567SOL    HW282979   2.871   9.349   2.696 -0.1692 -1.0411  0.1436
26568SOL     OW82980  10.932   2.079   0.621  0.2261 -0.2012  0.0421
26568SOL    HW182981  10.841   2.059   0.603 -0.0076  0.9730 -0.1916
26568SOL    HW282982  10.936   2.094   0.716  0.1453 -0.1299  0.0343
26569SOL     OW82983   0.775   0.914   6.361 -0.4354 -0.2268 -0.1046
26569SOL    HW182984   0.700   0.972   6.370 -0.5043 -0.1293 -1.2290
26569SOL    HW282985   0.748   0.833   6.405 -2.4423 -1.3292 -3.0838
26570SOL     OW82986   7.641   5.267   3.630 -0.1793 -0.1553  0.5451
26570SOL    HW182987   7.600   5.262   3.544  0.2925 -1.0963  0.3670
26570SOL    HW282988   7.643   5.361   3.649  1.7945  0.3363 -1.5210
26571SOL     OW82989   3.344   8.349   9.151  0.0577  0.1138  0.2040
26571SOL    HW182990   3.385   8.417   9.205 -1.0901  0.6729  0.3868
26571SOL    HW282991   3.321   8.279   9.212  1.2684 -0.4846  0.0109
26572SOL     OW82992   7.671  10.288   0.195 -0.0986 -0.5149 -0.0036
26572SOL    HW182993   7.660  10.235   0.274 -2.3657 -2.2601 -1.3478
26572SOL    HW282994   7.581  10.309   0.168  0.6646  1.3558 -1.3042
26573SOL     OW82995  10.132   4.154   7.239  0.3337 -0.4245 -0.2044
26573SOL    HW182996  10.062   4.219   7.234  0.7220 -0.0836 -1.3777
26573SOL    HW282997  10.112   4.092   7.169  1.3309 -0.1834 -0.7174
26574SOL     OW82998   4.279   7.419   1.042  0.0941 -0.3812  0.3508
26574SOL    HW182999   4.305   7.362   0.969  0.9245 -0.8216  0.9753
26574SOL    HW283000   4.234   7.361   1.103 -0.5495 -0.0260  0.2161
26575SOL     OW83001   2.441  10.016  10.594 -0.1448 -0.2091 -0.3607
26575SOL    HW183002   2.509   9.979  10.538 -0.1421 -0.2189 -0.3511
26575SOL    HW283003   2.439   9.958  10.671  0.2986  0.1852 -0.0476
26576SOL     OW83004   8.924   2.783   3.650 -0.0649 -0.0151 -0.1073
26576SOL    HW183005   8.978   2.725   3.596 -0.0288  0.1460 -0.2434
26576SOL    HW283006   8.866   2.723   3.698 -1.2274 -0.0798 -1.5366
26577SOL     OW83007   6.740   5.777   2.770 -0.0485  0.1909 -0.0480
26577SOL    HW183008   6.696   5.816   2.695 -1.3257 -1.2404 -0.0961
26577SOL    HW283009   6.670   5.736   2.821  1.1285 -1.6841  0.1940
26578SOL     OW83010   9.953   6.112   6.945 -0.2737 -0.1073  1.0124
26578SOL    HW183011   9.993   6.050   6.884 -0.4759 -0.1242  0.8973
26578SOL    HW283012   9.994   6.196   6.924 -0.4551 -0.0850  0.7530
26579SOL     OW83013   1.550   9.558   1.593  0.3154 -0.0923 -0.3574
26579SOL    HW183014   1.543   9.463   1.584  1.5379 -0.2266 -0.0576
26579SOL    HW283015   1.544   9.590   1.503  1.5179 -0.5937 -0.6382
26580SOL     OW83016   3.230   7.677   9.437  0.0741 -0.1168  0.1131
26580SOL    HW183017   3.322   7.652   9.433  1.2572  3.6638 -0.1755
26580SOL    HW283018   3.212   7.716   9.351 -1.1408  1.0622  0.8630
26581SOL     OW83019   2.708   0.467   1.241  0.2662  0.1584  0.0457
26581SOL    HW183020   2.693   0.541   1.183  0.2377 -1.9566 -2.8866
26581SOL    HW283021   2.628   0.415   1.236  0.7482 -0.7195  0.9872
26582SOL     OW83022   4.755   5.461   6.784 -0.6496 -0.0891  0.2620
26582SOL    HW183023   4.771   5.556   6.783 -3.0700  0.4118  1.5210
26582SOL    HW283024   4.761   5.435   6.692  2.5377  0.7418  0.1331
26583SOL     OW83025   0.781   7.417   2.353 -0.2364  0.0204  0.1876
26583SOL    HW183026   0.745   7.403   2.265  0.1447 -0.6998  0.1427
26583SOL    HW283027   0.859   7.362   2.356 -1.5039 -1.8166  1.7919
26584SOL     OW83028   7.838   9.977   4.387 -0.1685  0.3230 -0.1376
26584SOL    HW183029   7.807   9.892   4.418 -0.3448  0.7952  1.0438
26584SOL    HW283030   7.910   9.956   4.327 -0.0811 -0.6577  0.2942
26585SOL     OW83031   8.773   1.398   7.312 -0.3688 -0.2237  0.3071
26585SOL    HW183032   8.832   1.434   7.246 -1.0611  1.4027  0.5186
26585SOL    HW283033   8.709   1.468   7.328 -0.0757 -0.4392  2.8675
26586SOL     OW83034   2.617   3.251   4.829  0.2593  0.1484  0.5131
26586SOL    HW183035   2.560   3.277   4.901  1.4998  4.3040  0.2537
26586SOL    HW283036   2.563   3.260   4.751 -0.1826 -1.2560  0.6317
26587SOL     OW83037   3.961   2.930  10.650 -0.4709  0.1385  0.1407
26587SOL    HW183038   4.006   3.011  10.672  0.3060 -0.6930  1.7170
26587SOL    HW283039   4.031   2.868  10.627 -1.0193 -0.2609 -0.5283
26588SOL     OW83040   0.251   5.837   1.504  0.2433  0.3974  0.2889
26588SOL    HW183041   0.262   5.767   1.440 -0.5361  1.0541 -0.5715
26588SOL    HW283042   0.234   5.790   1.587  1.7135 -0.4590  0.1387
26589SOL     OW83043   3.901  11.236   8.949 -0.0096  0.4083 -0.3693
26589SOL    HW183044   3.954  11.257   8.872  0.9785 -0.0034  0.1809
26589SOL    HW283045   3.963  11.197   9.011 -0.6848  1.2109  0.8417
26590SOL     OW83046   1.197   0.773   0.111 -0.1614  0.4360  0.0704
26590SOL    HW183047   1.247   0.846   0.148  0.7106  1.3011 -2.6343
26590SOL    HW283048   1.251   0.696   0.128  0.0731  0.7534  0.8115
26591SOL     OW83049   0.670   5.384   8.724 -0.2572  0.2236  0.2374
26591SOL    HW183050   0.643   5.371   8.633 -2.7863  1.1317  0.7566
26591SOL    HW283051   0.601   5.342   8.775  1.3445 -0.6456  1.7613
26592SOL     OW83052   7.493   2.915   3.042  0.5376  0.5130  0.0109
26592SOL    HW183053   7.490   3.002   3.003 -0.3194  0.9074  0.9297
26592SOL    HW283054   7.466   2.928   3.132 -1.6138 -0.9855 -0.3506
26593SOL     OW83055   3.441   5.128   6.449 -0.4261 -0.0093 -0.7510
26593SOL    HW183056   3.423   5.056   6.390  0.1828  0.5364 -1.6255
26593SOL    HW283057   3.497   5.188   6.399 -0.1730  0.6352  0.2508
26594SOL     OW83058   7.791   4.006   8.136 -0.4590 -0.3581 -0.4266
26594SOL    HW183059   7.702   3.998   8.102 -0.4322 -1.5452 -0.2302
26594SOL    HW283060   7.827   3.918   8.132  0.7222  0.1076 -0.5064
26595SOL     OW83061   5.083   7.192   0.888  0.4724  0.0763  0.0580
26595SOL    HW183062   5.170   7.173   0.924 -0.0003  0.0368  1.2062
26595SOL    HW283063   5.037   7.109   0.890  0.5226  0.0024 -0.9487
26596SOL     OW83064   9.530   1.014   7.914 -0.0153 -0.2173 -0.1033
26596SOL    HW183065   9.462   0.968   7.863 -2.2360  1.9855  0.6523
26596SOL    HW283066   9.508   0.996   8.005  0.3864  0.5381  0.1554
26597SOL     OW83067  10.117   4.132   7.958 -0.0099 -0.3597 -0.5755
26597SOL    HW183068  10.114   4.220   7.994 -0.7521 -0.3362 -0.6648
26597SOL    HW283069  10.209   4.109   7.957  0.2108  0.5076 -0.7750
26598SOL     OW83070   9.979   7.959   1.862 -0.2793  0.4643 -0.9432
26598SOL    HW183071  10.031   8.003   1.795  0.3433  1.9944  0.4582
26598SOL    HW283072   9.940   8.030   1.913 -0.7299 -0.6308  0.3010
26599SOL     OW83073   7.014   0.195   5.688 -0.0121  0.2151 -0.0056
26599SOL    HW183074   7.023   0.161   5.777  0.4124 -0.9573 -0.4708
26599SOL    HW283075   7.089   0.159   5.641 -1.4180 -1.0690 -1.3862
26600SOL     OW83076   3.642   7.171   2.241  0.0362 -0.2433  0.2090
26600SOL    HW183077   3.639   7.077   2.226 -1.5201 -0.0815 -0.6903
26600SOL    HW283078   3.593   7.185   2.322  0.2995 -0.2025  0.3636
26601SOL     OW83079   0.180   2.946   0.240 -0.3889  0.0259 -0.0360
26601SOL    HW183080   0.117   2.877   0.262 -0.5386  0.2218  0.1496
26601SOL    HW283081   0.254   2.929   0.298  0.2802 -0.9849 -1.1473
26602SOL     OW83082   5.768   9.796   8.102 -0.1803 -0.3786 -0.1820
26602SOL    HW183083   5.690   9.851   8.112 -0.6794 -0.9848 -0.6735
26602SOL    HW283084   5.740   9.709   8.132  0.4744 -0.4762  0.1717
26603SOL     OW83085   1.743   4.474  10.381  0.1016  0.3469 -0.8444
26603SOL    HW183086   1.793   4.524  10.447  2.0649  0.9915 -2.6937
26603SOL    HW283087   1.714   4.396  10.428 -1.8202  2.4258  1.7761
26604SOL     OW83088   2.093   0.019   6.069  0.4813 -0.2004  0.5746
26604SOL    HW183089   2.164   0.014   6.004  0.7894 -0.8170  0.9447
26604SOL    HW283090   2.083   0.112   6.087  1.6278 -0.1381  0.9709
26605SOL     OW83091   0.132   8.677   8.802 -0.2513 -0.8539 -0.5062
26605SOL    HW183092   0.076   8.608   8.766 -1.8279  0.1920 -0.1639
26605SOL    HW283093   0.083   8.712   8.876  0.1635  1.1226 -1.1007
26606SOL     OW83094   1.154  10.162   7.985 -0.1935 -0.3532  0.0641
26606SOL    HW183095   1.216  10.180   7.915 -0.1353 -0.3768  0.1089
26606SOL    HW283096   1.069  10.153   7.941 -0.7222  2.6526  0.2695
26607SOL     OW83097   4.329  11.253   7.645 -0.0084  0.0672  0.0426
26607SOL    HW183098   4.313  11.329   7.700  0.7026 -1.0114  1.8242
26607SOL    HW283099   4.246  11.206   7.644  0.3226 -0.5664  1.2837
26608SOL     OW83100   6.366   4.481   4.537 -0.0933  0.1290  0.7226
26608SOL    HW183101   6.288   4.522   4.574  0.0886  0.6591  0.5193
26608SOL    HW283102   6.436   4.501   4.599 -0.0391 -0.0277  0.7142
26609SOL     OW83103   9.801   9.680   3.353 -0.4916 -1.1989 -0.2936
26609SOL    HW183104   9.730   9.744   3.346 -0.9442 -1.7752 -1.1263
26609SOL    HW283105   9.800   9.634   3.269  1.4831 -0.5949 -0.7213
26610SOL     OW83106   2.062   2.514  11.360  0.2215 -0.5145  0.0878
26610SOL    HW183107   1.981   2.538  11.406  0.5122  0.0291  0.3151
26610SOL    HW283108   2.035   2.506  11.269 -0.0854 -0.3206  0.1581
26611SOL     OW83109   5.358   9.137   2.795 -0.2903 -0.8784  0.3790
26611SOL    HW183110   5.379   9.105   2.707 -1.8085 -0.1418 -0.2878
26611SOL    HW283111   5.266   9.163   2.789  0.5519  2.7258  1.1275
26612SOL     OW83112   0.607   6.205   7.723  0.3998 -0.2819 -0.3241
26612SOL    HW183113   0.637   6.211   7.632  0.2095  0.2684 -0.3581
26612SOL    HW283114   0.661   6.137   7.762  1.0418  0.0381 -0.6360
26613SOL     OW83115   8.165   6.478   8.332  0.0008  0.3880  0.7353
26613SOL    HW183116   8.242   6.508   8.284 -1.1416  0.4244 -1.2331
26613SOL    HW283117   8.099   6.546   8.315 -0.3284  0.6405  2.8395
26614SOL     OW83118   5.393   2.646   2.208  0.5550 -0.1884  0.3999
26614SOL    HW183119   5.436   2.610   2.286  1.4019 -1.2463 -0.5173
26614SOL    HW283120   5.308   2.676   2.238  0.9279 -0.4451  1.7551
26615SOL     OW83121   9.015   4.300   3.476  0.2403  0.2671 -0.4030
26615SOL    HW183122   8.933   4.338   3.506  0.6162  1.5660 -0.9471
26615SOL    HW283123   9.082   4.345   3.528  0.6358 -0.5012 -0.2394
26616SOL     OW83124   3.640   2.977   9.941 -0.7158 -0.0111  0.6098
26616SOL    HW183125   3.667   2.901   9.992 -2.6852 -0.1846  1.4697
26616SOL    HW283126   3.626   3.046  10.006 -1.1478  0.4042  0.0916
26617SOL     OW83127  11.069   2.977  10.292 -0.2129  0.0607  0.0201
26617SOL    HW183128  11.053   3.071  10.292 -0.0964  0.0998 -1.5431
26617SOL    HW283129  11.158   2.968  10.258 -0.0404 -0.5954  0.6288
26618SOL     OW83130   5.384   8.716   0.331 -0.3037  0.0208  0.5024
26618SOL    HW183131   5.332   8.774   0.276  1.1917  0.9909  0.0321
26618SOL    HW283132   5.429   8.775   0.391 -0.4333 -0.8655  1.4946
26619SOL     OW83133  10.205   1.299   5.893  0.2174 -0.3168  0.0295
26619SOL    HW183134  10.134   1.315   5.956  1.1164  1.7249  0.6162
26619SOL    HW283135  10.260   1.233   5.935 -0.1423 -0.2549  0.6055
26620SOL     OW83136   2.008   3.047   7.263 -0.7987  0.3327  0.2069
26620SOL    HW183137   1.930   3.012   7.221 -0.6371 -0.2232  0.3671
26620SOL    HW283138   2.063   2.971   7.280  0.5638  0.8681 -1.4709
26621SOL     OW83139   7.366   3.457   9.859  0.2107 -0.1692  0.2375
26621SOL    HW183140   7.283   3.470   9.906  1.3796  0.1935  2.3087
26621SOL    HW283141   7.384   3.541   9.817  0.7665  0.5970  1.9288
26622SOL     OW83142   5.949   4.401   1.670  0.1501 -0.3791 -0.4184
26622SOL    HW183143   5.970   4.403   1.764 -1.9982 -2.4959  0.2012
26622SOL    HW283144   5.911   4.487   1.652  1.0919  0.2478  0.5102
26623SOL     OW83145   3.765   5.276   6.210  0.2596 -0.2452 -0.4640
26623SOL    HW183146   3.750   5.303   6.301  0.9209 -2.6881  0.4661
26623SOL    HW283147   3.847   5.320   6.186  0.8535 -0.6623  0.6737
26624SOL     OW83148   0.773   8.775  10.009  0.3281 -0.3551  0.2048
26624SOL    HW183149   0.770   8.813   9.921  0.2074  1.3652  0.9187
26624SOL    HW283150   0.738   8.686   9.998 -1.7034  0.5504 -1.1179
26625SOL     OW83151   5.813   6.185   6.054 -0.0400 -0.0767  0.6051
26625SOL    HW183152   5.768   6.111   6.013  0.8306  0.2057 -0.9633
26625SOL    HW283153   5.801   6.258   5.992  2.1510  0.1159  0.3243
26626SOL     OW83154   6.732   9.851  10.392  0.3526 -0.5303 -0.2159
26626SOL    HW183155   6.811   9.826  10.439 -0.5242 -1.9701  0.5596
26626SOL    HW283156   6.740   9.808  10.307  0.3864 -0.7335 -0.1116
26627SOL     OW83157   3.344   1.363   2.058 -0.4570  0.2111  0.2827
26627SOL    HW183158   3.414   1.417   2.020 -1.3548  0.4735 -1.0768
26627SOL    HW283159   3.314   1.413   2.134 -0.6399  1.2156 -0.4212
26628SOL     OW83160   5.347   8.927   0.829 -0.3998  0.3653 -0.7173
26628SOL    HW183161   5.439   8.920   0.855 -0.6345  1.6558  0.6197
26628SOL    HW283162   5.298   8.895   0.905 -1.0917 -1.9844 -2.0529
26629SOL     OW83163   1.273   3.271   7.606  0.0332 -0.1539  0.2431
26629SOL    HW183164   1.264   3.304   7.517  1.2976  1.4659  0.6775
26629SOL    HW283165   1.272   3.349   7.661  3.3968 -0.6764  1.2814
26630SOL     OW83166   4.408   3.750  10.948  0.2994  0.7420 -0.2273
26630SOL    HW183167   4.327   3.801  10.954 -1.1561 -1.5396  0.9775
26630SOL    HW283168   4.470   3.797  11.003 -0.9399  1.3360  0.7161
26631SOL     OW83169  10.828   6.083   2.247 -0.2402  0.5435 -0.1192
26631SOL    HW183170  10.776   6.016   2.291  0.8541  0.0520  0.4598
26631SOL    HW283171  10.917   6.047   2.245 -0.2418  0.4489 -2.8891
26632SOL     OW83172   7.725   4.088   5.828 -0.0754  0.1606  0.8326
26632SOL    HW183173   7.654   4.024   5.825 -1.4410  1.4800  2.3529
26632SOL    HW283174   7.691   4.163   5.779  0.8883  0.2690  0.3146
26633SOL     OW83175  10.512   4.478  10.772 -0.4645  0.7609  0.5083
26633SOL    HW183176  10.487   4.537  10.843 -0.6479  0.7595  0.4442
26633SOL    HW283177  10.460   4.399  10.786  0.8709  0.0031  1.4846
26634SOL     OW83178   7.243   7.176   9.581  0.0361 -0.3672 -0.1069
26634SOL    HW183179   7.206   7.236   9.645 -0.1702  1.0907 -1.5143
26634SOL    HW283180   7.338   7.183   9.594  0.0118  0.2430 -0.2250
26635SOL     OW83181  10.333   5.774   5.513 -0.2355  0.1390  0.2405
26635SOL    HW183182  10.245   5.812   5.509  0.8028  2.8036  0.5341
26635SOL    HW283183  10.346   5.737   5.425 -0.3439  3.0756 -1.1499
26636SOL     OW83184  10.935   1.525   4.507 -0.0203  0.3234  0.5976
26636SOL    HW183185  10.863   1.551   4.564 -0.8821  0.6792 -0.6205
26636SOL    HW283186  11.003   1.589   4.524 -0.4728  0.7458  0.8319
26637SOL     OW83187   2.406   1.492   6.444  0.4509  0.3716  0.2445
26637SOL    HW183188   2.420   1.561   6.379  0.8533  1.2833  1.2828
26637SOL    HW283189   2.452   1.416   6.408 -0.0606  0.5923 -0.9507
26638SOL     OW83190   1.595   2.320  10.220  0.4431 -0.4456 -0.2113
26638SOL    HW183191   1.642   2.243  10.254  0.3767 -1.0731 -1.5028
26638SOL    HW283192   1.657   2.362  10.160  0.5794  0.6863  0.6821
26639SOL     OW83193   4.969   9.136   1.060 -0.0240  0.0031 -0.2785
26639SOL    HW183194   4.979   9.044   1.085 -1.6786  0.0876  0.8374
26639SOL    HW283195   5.045   9.154   1.004  0.9226 -1.7149  0.3848
26640SOL     OW83196  10.161   2.000   0.868  0.3313  0.1169 -0.0669
26640SOL    HW183197  10.196   2.089   0.878  0.8807 -0.1915  0.9926
26640SOL    HW283198  10.159   1.966   0.958  1.0826 -1.2927 -0.5518
26641SOL     OW83199   1.006   8.522  10.832 -0.7775 -0.0850  0.4939
26641SOL    HW183200   0.957   8.503  10.753  0.6206  1.1756 -0.7596
26641SOL    HW283201   0.959   8.594  10.873 -0.3368  0.7459 -0.4070
26642SOL     OW83202   4.124   5.428   8.859 -0.1489  0.0708 -0.2843
26642SOL    HW183203   4.177   5.505   8.881 -0.3536  0.0489  0.3102
26642SOL    HW283204   4.058   5.425   8.928 -0.6061 -0.2016 -0.7354
26643SOL     OW83205   8.165   8.440   3.070 -0.0463  0.0543 -0.0146
26643SOL    HW183206   8.231   8.400   3.013  1.3022  1.3377  0.6022
26643SOL    HW283207   8.085   8.391   3.051  1.1592 -1.8491 -0.4516
26644SOL     OW83208   6.229   9.886   3.754  0.4074  0.0273  0.3153
26644SOL    HW183209   6.303   9.836   3.790  2.9431  3.2132 -0.0469
26644SOL    HW283210   6.249   9.897   3.662 -0.7448  0.6572  0.1143
26645SOL     OW83211   8.534   8.217   0.192  0.0624 -0.7155 -0.1423
26645SOL    HW183212   8.569   8.235   0.104  0.3853 -0.8156 -0.0334
26645SOL    HW283213   8.515   8.123   0.192  1.3099 -0.9795  0.3381
26646SOL     OW83214   5.361   8.598   1.584 -0.2234  0.1262  0.0053
26646SOL    HW183215   5.335   8.638   1.666  0.1595 -0.9012  0.6451
26646SOL    HW283216   5.388   8.509   1.607  0.3984 -0.0137 -1.1468
26647SOL     OW83217  10.271  10.195   6.777  0.2520  0.4589  0.0224
26647SOL    HW183218  10.188  10.243   6.776  1.1613  2.1398  0.9751
26647SOL    HW283219  10.313  10.217   6.694 -1.0325 -1.9941 -1.4063
26648SOL     OW83220   7.631   2.127   2.661  0.5797 -0.7894 -0.1570
26648SOL    HW183221   7.705   2.129   2.721 -0.5975 -1.1260  1.3688
26648SOL    HW283222   7.579   2.204   2.683  0.2365 -0.7910 -0.9071
26649SOL     OW83223   0.396   6.119   8.636  0.3636  0.4700  0.1235
26649SOL    HW183224   0.467   6.124   8.700  0.4006 -2.0220  0.3448
26649SOL    HW283225   0.323   6.082   8.684 -0.4357  0.9891 -0.6622
26650SOL     OW83226   8.307   4.072   7.018  0.6200  0.4198 -0.3301
26650SOL    HW183227   8.239   4.032   7.071 -0.1213  0.8398 -0.9444
26650SOL    HW283228   8.285   4.165   7.016 -0.7207  0.1470 -3.2327
26651SOL     OW83229   0.926   2.028  10.754 -0.6113 -0.1401  0.3426
26651SOL    HW183230   0.917   1.939  10.722 -0.4511 -0.1190  0.2388
26651SOL    HW283231   0.991   2.022  10.824 -1.9922 -0.4399  1.6763
26652SOL     OW83232   1.713   0.355   4.304 -0.4126 -0.6427  0.2898
26652SOL    HW183233   1.798   0.384   4.338 -0.8794  0.2886  0.7092
26652SOL    HW283234   1.649   0.386   4.368 -1.2843  0.7355 -1.1579
26653SOL     OW83235   7.491  10.437   2.578 -0.2267  0.1512  0.1819
26653SOL    HW183236   7.440  10.497   2.633 -0.4063 -0.2787  0.4832
26653SOL    HW283237   7.465  10.350   2.607 -1.5578 -0.1408 -1.6600
26654SOL     OW83238   1.631   6.543   8.159 -0.1724 -0.1396 -0.2194
26654SOL    HW183239   1.536   6.533   8.158 -0.1342 -0.5951  0.3900
26654SOL    HW283240   1.656   6.547   8.066 -0.7788 -0.0477 -0.3797
26655SOL     OW83241   2.470   0.609   7.555 -0.4758  0.5964  0.5598
26655SOL    HW183242   2.395   0.644   7.602 -0.4574  1.0958  0.2331
26655SOL    HW283243   2.462   0.514   7.562 -2.9191  0.4767 -2.1132
26656SOL     OW83244   3.385   6.895   5.348  0.2616  0.2425 -0.1264
26656SOL    HW183245   3.467   6.944   5.351  0.2575  0.2196  1.2356
26656SOL    HW283246   3.326   6.944   5.405 -0.2006 -0.5269  0.0733
26657SOL     OW83247   4.899   0.423   7.732  0.2705  0.4496 -0.1495
26657SOL    HW183248   4.931   0.514   7.732 -2.0459  1.3300  0.6820
26657SOL    HW283249   4.921   0.390   7.819  1.4284  0.0640 -0.5726
26658SOL     OW83250   8.308   3.932   4.007  0.0659  0.5367  0.1000
26658SOL    HW183251   8.239   3.874   4.038 -0.7950  1.4683 -0.0304
26658SOL    HW283252   8.319   3.995   4.078  1.2872 -0.0061  0.4227
26659SOL     OW83253   7.177   6.398   9.569  0.0381  0.1681  0.2072
26659SOL    HW183254   7.082   6.395   9.555  0.1084 -0.0680 -0.2314
26659SOL    HW283255   7.197   6.313   9.610 -0.1058  0.6888  1.4026
26660SOL     OW83256   9.271   4.209   7.629 -0.1339  0.3655 -0.1992
26660SOL    HW183257   9.278   4.140   7.563 -2.3220 -0.1877  0.0779
26660SOL    HW283258   9.286   4.164   7.712  1.9992  0.9475 -0.2097
26661SOL     OW83259   1.191   3.737   3.991 -0.5398  0.3748  0.3652
26661SOL    HW183260   1.124   3.804   3.977  1.0534  2.3254  1.4747
26661SOL    HW283261   1.143   3.658   4.013 -2.4815  1.5017  0.3782
26662SOL     OW83262   8.424   0.511  10.243 -0.3684 -0.0217  0.1335
26662SOL    HW183263   8.348   0.499  10.301 -0.5364 -1.2433 -0.3133
26662SOL    HW283264   8.473   0.429  10.251  2.1967  1.5366  2.1838
26663SOL     OW83265   4.511   0.086   2.395  0.2161  0.1748  0.5204
26663SOL    HW183266   4.451   0.146   2.439  0.1869  0.1322  0.5396
26663SOL    HW283267   4.465   0.001   2.396  0.9368 -0.2193  1.9216
26664SOL     OW83268   9.238   6.043  11.030 -0.3176 -0.6670 -0.5425
26664SOL    HW183269   9.318   6.037  10.977 -0.5183 -0.6466 -0.8514
26664SOL    HW283270   9.257   6.110  11.096 -0.2224 -0.3740 -0.8674
26665SOL     OW83271   2.563   8.500   7.766 -0.3857 -0.3472  0.0920
26665SOL    HW183272   2.653   8.507   7.797 -0.5284 -0.6493  0.6089
26665SOL    HW283273   2.569   8.450   7.685 -0.1487 -0.9756  0.4883
26666SOL     OW83274   2.274   7.664  10.546 -0.1843  0.3271  0.7051
26666SOL    HW183275   2.203   7.694  10.604 -0.2588  2.3633 -0.3606
26666SOL    HW283276   2.354   7.678  10.597 -0.4004 -0.3625  1.2610
26667SOL     OW83277   5.010   4.814   0.807 -0.4755 -0.1353 -0.3256
26667SOL    HW183278   5.021   4.893   0.754 -1.4676  0.7173  0.7071
26667SOL    HW283279   4.990   4.745   0.742 -1.6853  0.8872 -1.0868
26668SOL     OW83280   3.953   1.478   8.263 -0.0539  0.1814 -0.5863
26668SOL    HW183281   3.913   1.516   8.341  0.0626  1.1999 -1.0075
26668SOL    HW283282   4.044   1.508   8.265  0.5440 -1.5780  0.0209
26669SOL     OW83283   2.315   5.343   3.916 -0.8074  0.8306  0.1239
26669SOL    HW183284   2.345   5.262   3.956 -1.3640  0.3844 -0.3431
26669SOL    HW283285   2.219   5.338   3.921 -0.8692  2.3761  1.9063
26670SOL     OW83286   0.304   2.357   5.116  0.0180 -0.9998  0.2278
26670SOL    HW183287   0.340   2.280   5.161  2.0353 -0.4468 -0.3431
26670SOL    HW283288   0.353   2.431   5.152 -1.1084 -0.0826 -0.0556
26671SOL     OW83289   3.006   8.977   7.654  0.0461 -0.0873  0.0206
26671SOL    HW183290   2.946   9.029   7.600  0.3597  0.1555 -0.0982
26671SOL    HW283291   2.976   8.887   7.643 -0.5681  0.0753  0.3106
26672SOL     OW83292   7.793   9.648   1.886 -0.1553  0.0263 -0.1672
26672SOL    HW183293   7.877   9.652   1.841  0.0904  0.7283  0.3280
26672SOL    HW283294   7.812   9.603   1.968 -0.2509  0.2393 -0.0277
26673SOL     OW83295   2.597   4.508  10.630 -0.3831 -0.2769 -0.2471
26673SOL    HW183296   2.536   4.572  10.666 -0.1548  0.2859 -0.8494
26673SOL    HW283297   2.611   4.535  10.539  0.6364 -0.4852 -0.1744
26674SOL     OW83298   4.220   2.524   4.217  0.1928  0.2518  0.1789
26674SOL    HW183299   4.205   2.592   4.151  1.9184 -0.2560 -0.8075
26674SOL    HW283300   4.217   2.571   4.301 -0.2803  1.2399 -0.3769
26675SOL     OW83301   8.897   7.991   8.619  0.4423 -0.3332  0.0121
26675SOL    HW183302   8.895   7.933   8.696  0.1707  1.1810  1.1985
26675SOL    HW283303   8.990   7.999   8.598  0.5051 -0.9482  0.0253
26676SOL     OW83304   7.886   5.678   5.298  0.3638  0.0380  0.2490
26676SOL    HW183305   7.910   5.771   5.302 -0.1072  0.2121 -0.7701
26676SOL    HW283306   7.791   5.677   5.304  0.2219 -0.2331 -1.5447
26677SOL     OW83307  10.456   4.724   9.042  0.0732  0.7829 -0.0011
26677SOL    HW183308  10.379   4.741   9.095 -1.2806  1.5749 -2.0935
26677SOL    HW283309  10.445   4.633   9.012  0.2664  0.7052  0.1571
26678SOL     OW83310   7.101   3.195  10.817  0.0715  0.1391 -0.2351
26678SOL    HW183311   7.065   3.174  10.731  0.2998  1.5879 -0.7257
26678SOL    HW283312   7.078   3.121  10.873 -2.9583  0.6163 -0.7072
26679SOL     OW83313   3.217   1.202   9.492 -0.5920  0.4042  0.1738
26679SOL    HW183314   3.140   1.171   9.539  0.7465 -1.2246  1.4715
26679SOL    HW283315   3.242   1.282   9.537 -0.2908 -0.2577  1.2330
26680SOL     OW83316   2.806   6.547   3.232  0.3600 -0.2927  0.6271
26680SOL    HW183317   2.894   6.526   3.261  0.0792 -2.1841  0.2387
26680SOL    HW283318   2.748   6.509   3.298 -0.2102  2.2667  1.7212
26681SOL     OW83319   4.319   9.386   5.763  0.7417  0.6741  0.4060
26681SOL    HW183320   4.397   9.394   5.818  0.3433  0.4726  1.0109
26681SOL    HW283321   4.344   9.426   5.680  1.7215 -0.0208  0.3494
26682SOL     OW83322   9.069   9.755   2.289  0.0999 -0.4817  0.1770
26682SOL    HW183323   9.145   9.813   2.295  1.8169 -2.6463  0.7689
26682SOL    HW283324   9.002   9.797   2.343  0.3496  2.1084 -1.3322
26683SOL     OW83325   9.658   9.937   4.809  0.3236 -0.0251 -0.0642
26683SOL    HW183326   9.704  10.012   4.845  1.8472 -0.5023 -0.9113
26683SOL    HW283327   9.587   9.920   4.871  1.4956  0.5335  1.5040
26684SOL     OW83328   4.350   0.133  11.304 -0.3090  0.8407  0.3105
26684SOL    HW183329   4.332   0.145  11.211  1.3631  0.0839 -0.1440
26684SOL    HW283330   4.305   0.052  11.327  0.8038  0.0240 -0.3199
26685SOL     OW83331  11.055   9.149   4.860  0.1493  0.1584  0.5745
26685SOL    HW183332  11.087   9.201   4.786 -0.9235  0.8271  0.5534
26685SOL    HW283333  11.042   9.214   4.930 -2.6218  0.2459  0.1022
26686SOL     OW83334   6.644   0.944   8.850 -0.3148 -0.2786 -0.0406
26686SOL    HW183335   6.668   0.855   8.823 -2.3646 -1.1379  0.7814
26686SOL    HW283336   6.660   0.998   8.772 -0.9182 -1.7201 -1.2039
26687SOL     OW83337   1.122   2.487   2.814 -0.4215  0.0386  0.0787
26687SOL    HW183338   1.035   2.453   2.793 -0.9735  1.9653 -1.0270
26687SOL    HW283339   1.182   2.416   2.792 -1.6863 -1.2362  0.6471
26688SOL     OW83340   8.806   1.116   7.083  0.8915  0.4169 -0.0421
26688SOL    HW183341   8.735   1.143   7.142  0.7539 -1.0439  0.5107
26688SOL    HW283342   8.767   1.119   6.996 -0.4261 -1.8710  0.3786
26689SOL     OW83343   9.085   9.158   2.476  0.0860 -0.1375  0.0397
26689SOL    HW183344   9.052   9.070   2.491 -2.1447  0.7708  0.8115
26689SOL    HW283345   9.027   9.195   2.409 -0.6793  1.5952  1.5925
26690SOL     OW83346   2.914  10.847   2.712 -0.6367 -0.6300 -0.2445
26690SOL    HW183347   2.995  10.797   2.720 -0.7066 -0.7006  0.0319
26690SOL    HW283348   2.936  10.921   2.655 -0.0247  0.1051  0.9303
26691SOL     OW83349   2.268  10.250   4.278 -0.1768 -0.2202 -0.1777
26691SOL    HW183350   2.360  10.261   4.303 -0.1980 -1.1026  0.3154
26691SOL    HW283351   2.258  10.306   4.201  0.2101  1.5985  1.0218
26692SOL     OW83352   6.260   4.409   0.305  0.2219  0.4663  0.3499
26692SOL    HW183353   6.239   4.354   0.229  1.4913  0.3242  0.0762
26692SOL    HW283354   6.221   4.494   0.284  0.9900  0.5823 -0.7249
26693SOL     OW83355   9.553   8.542   2.943 -0.1341  0.2537  0.8125
26693SOL    HW183356   9.565   8.472   2.879  0.5423  2.1059 -1.2020
26693SOL    HW283357   9.475   8.589   2.914  0.0914  1.0465  1.4356
26694SOL     OW83358   1.049  10.571   5.909  0.1246 -0.6270 -0.0655
26694SOL    HW183359   1.142  10.580   5.931 -0.0161 -0.8526  0.6117
26694SOL    HW283360   1.047  10.499   5.845  0.7562  1.2312 -2.3566
26695SOL     OW83361   4.942   8.051  10.488  0.4148  0.4504  0.3567
26695SOL    HW183362   4.948   8.146  10.496 -1.3872  0.6657 -0.4391
26695SOL    HW283363   4.965   8.032  10.397  1.3500  0.0439  0.6629
26696SOL     OW83364   0.581   1.898   3.559 -0.4022 -0.5327 -0.4191
26696SOL    HW183365   0.643   1.872   3.490  0.6200  1.3270 -0.2729
26696SOL    HW283366   0.528   1.820   3.574  1.0015 -1.7692 -1.5345
26697SOL     OW83367   3.502   3.728   1.441 -0.8528 -0.2527  0.1245
26697SOL    HW183368   3.479   3.638   1.462 -0.5640 -0.2998  0.2450
26697SOL    HW283369   3.428   3.780   1.473 -0.6232 -0.3651  0.8546
26698SOL     OW83370   9.874  11.338   8.564  0.4224 -0.4413  0.3507
26698SOL    HW183371   9.905  11.390   8.638 -1.7748 -1.2064  1.8908
26698SOL    HW283372   9.842  11.403   8.501  2.2951  0.2094  0.0029
26699SOL     OW83373   8.653   0.563   6.148 -0.4597 -0.3519 -0.0801
26699SOL    HW183374   8.722   0.557   6.083  0.1565  1.6894  0.3176
26699SOL    HW283375   8.573   0.574   6.096  0.0201  1.2375 -0.5360
26700SOL     OW83376   2.389   6.672   0.071  0.3443  0.1142 -0.0313
26700SOL    HW183377   2.389   6.763   0.103  1.1338 -0.0881  0.5838
26700SOL    HW283378   2.465   6.667   0.013 -0.2477  0.0889 -0.8182
26701SOL     OW83379  11.037  10.907   1.407 -0.4934  0.1949  0.1166
26701SOL    HW183380  11.091  10.906   1.328 -0.9456  0.8540 -0.2099
26701SOL    HW283381  10.947  10.902   1.374 -0.6675 -0.0104  0.6166
26702SOL     OW83382   9.894   3.132   0.332  0.5287 -0.1866  0.2473
26702SOL    HW183383   9.977   3.128   0.285  0.4098  0.7623 -0.0673
26702SOL    HW283384   9.828   3.104   0.268  0.5667 -0.6453  0.4049
26703SOL     OW83385   1.064   5.654   0.103 -0.3850  0.6283  0.3135
26703SOL    HW183386   1.073   5.587   0.171  0.2444  2.0882  1.7393
26703SOL    HW283387   0.973   5.649   0.075 -1.5453  1.8795  3.3975
26704SOL     OW83388   5.178   5.298   2.020 -0.2810  0.2355  0.0087
26704SOL    HW183389   5.181   5.260   1.932 -0.9701  1.1230 -0.4140
26704SOL    HW283390   5.117   5.241   2.068 -0.0022 -0.1734 -0.1145
26705SOL     OW83391   0.904   9.460   6.548 -0.1726  0.2846  1.0164
26705SOL    HW183392   0.985   9.437   6.593  0.3125  0.1287  0.0815
26705SOL    HW283393   0.915   9.553   6.525  0.6898 -0.2550 -0.9892
26706SOL     OW83394   7.517   8.932   1.977 -0.7452  0.0891 -0.5034
26706SOL    HW183395   7.481   8.901   1.894 -0.4665 -2.5261  0.2771
26706SOL    HW283396   7.611   8.913   1.972 -0.7721 -0.3636  0.5141
26707SOL     OW83397   7.197   0.884   6.353 -0.3681  0.2699  0.4232
26707SOL    HW183398   7.212   0.803   6.305 -0.6462 -0.3438  1.3394
26707SOL    HW283399   7.101   0.894   6.353 -0.4006  0.0100  1.2374
26708SOL     OW83400   2.856   7.122   3.353  0.7979 -0.0689  0.0710
26708SOL    HW183401   2.777   7.078   3.322  0.2415  0.4490  0.7493
26708SOL    HW283402   2.829   7.212   3.371  1.4922  0.0580  0.5178
26709SOL     OW83403   8.640  10.741   1.464 -0.2017  0.0218 -0.3574
26709SOL    HW183404   8.571  10.718   1.402 -1.6473 -1.4728  1.7039
26709SOL    HW283405   8.720  10.708   1.423 -1.1401 -1.1479 -1.3269
26710SOL     OW83406   3.876   0.851   5.366 -0.2199  0.3100 -0.6494
26710SOL    HW183407   3.813   0.884   5.303 -0.8028  0.4359 -0.0164
26710SOL    HW283408   3.847   0.887   5.450  1.1248  1.0005 -0.4471
26711SOL     OW83409   3.811   4.920   6.660 -0.4513  0.2424 -0.4341
26711SOL    HW183410   3.719   4.911   6.635 -0.5007 -0.5928  0.0193
26711SOL    HW283411   3.830   4.840   6.710 -0.3318  1.8034  2.1722
26712SOL     OW83412   1.187   2.533   0.202  0.0588 -0.0263 -0.4836
26712SOL    HW183413   1.138   2.520   0.283  0.4454 -0.4454 -0.3133
26712SOL    HW283414   1.133   2.593   0.151 -0.9293 -0.9264 -0.5345
26713SOL     OW83415   6.855   8.959  10.436 -0.1684  0.1257 -0.1909
26713SOL    HW183416   6.897   9.030  10.388  0.9887  0.1209  0.7749
26713SOL    HW283417   6.838   8.995  10.523  1.3804 -1.0348  0.6567
26714SOL     OW83418   8.016   3.150   8.064  0.2426  0.0716  0.2251
26714SOL    HW183419   8.061   3.165   7.980 -0.9022 -0.2096 -0.4673
26714SOL    HW283420   8.087   3.133   8.126  1.2953  2.7876 -0.0968
26715SOL     OW83421   4.914   3.748   1.566  0.0682  0.0228  0.0606
26715SOL    HW183422   4.941   3.747   1.474  2.0843 -2.9777  0.5438
26715SOL    HW283423   4.982   3.698   1.611 -1.4020  0.5140  3.0501
26716SOL     OW83424  10.446   4.734   8.625  0.2198 -0.2429  0.3189
26716SOL    HW183425  10.408   4.750   8.711 -1.7225  0.3475 -0.5870
26716SOL    HW283426  10.448   4.821   8.583  1.6985 -0.4236 -0.0363
26717SOL     OW83427  10.494  10.202   1.501 -0.4312 -0.1125  0.3322
26717SOL    HW183428  10.550  10.127   1.480 -1.1621 -0.7558  0.6534
26717SOL    HW283429  10.405  10.169   1.494 -0.7911  0.9836 -0.4427
26718SOL     OW83430   6.993  10.844   5.096  0.1268 -0.1919 -0.1315
26718SOL    HW183431   7.014  10.934   5.073 -0.4646 -0.1888 -0.6808
26718SOL    HW283432   7.031  10.831   5.183  1.2248  0.2212 -0.5404
26719SOL     OW83433   6.022   6.125   1.294  0.2730  0.4172 -0.3325
26719SOL    HW183434   5.991   6.196   1.238 -0.9272  0.2594  0.1057
26719SOL    HW283435   6.045   6.168   1.377  0.1859  0.3856 -0.2921
26720SOL     OW83436   2.226   9.369   6.602 -0.6438  0.2934  0.3643
26720SOL    HW183437   2.253   9.422   6.527 -1.5863  0.7491  0.3344
26720SOL    HW283438   2.268   9.410   6.678 -1.9526  1.5600  0.4418
26721SOL     OW83439  10.756   4.520   8.835  0.7421 -0.1825 -0.2023
26721SOL    HW183440  10.783   4.611   8.848  0.7008 -0.4340  1.8977
26721SOL    HW283441  10.819   4.469   8.885  1.1083 -1.3957 -1.8164
26722SOL     OW83442   4.592   6.424   3.305  0.5435  0.1301  0.1754
26722SOL    HW183443   4.533   6.377   3.247 -0.7716  1.1871  0.6019
26722SOL    HW283444   4.658   6.359   3.330  0.4136 -0.6803 -1.4630
26723SOL     OW83445   6.822  10.426   9.373 -0.1814 -0.0608 -1.2982
26723SOL    HW183446   6.739  10.407   9.331 -0.9530  1.2067 -0.4318
26723SOL    HW283447   6.801  10.436   9.466  1.0602 -0.4190 -0.9576
26724SOL     OW83448   4.954   0.900   6.425 -0.5656  0.8863 -0.5715
26724SOL    HW183449   4.946   0.825   6.366  2.1016 -1.0008  1.2677
26724SOL    HW283450   4.888   0.884   6.493  0.1306  0.0157 -0.0714
26725SOL     OW83451   5.291   8.902   5.478 -0.2673 -0.0390  0.2503
26725SOL    HW183452   5.236   8.975   5.450 -1.2138 -1.4716 -1.8220
26725SOL    HW283453   5.380   8.930   5.457 -0.5839  0.6529 -0.1994
26726SOL     OW83454  10.615   9.137   3.291  0.1754 -0.3763  0.4168
26726SOL    HW183455  10.622   9.200   3.363  1.1428 -0.2194  0.2044
26726SOL    HW283456  10.522   9.115   3.288 -0.0768  0.5190  0.9405
26727SOL     OW83457   4.584   0.382   5.760 -0.0405  0.5944  0.4241
26727SOL    HW183458   4.494   0.368   5.790 -0.6711  3.0200 -0.1093
26727SOL    HW283459   4.576   0.394   5.665  0.6441  2.0700  0.5216
26728SOL     OW83460   9.876   2.748   9.659  0.3716 -0.3099 -0.0031
26728SOL    HW183461   9.922   2.666   9.637 -0.7541 -0.7009 -0.9967
26728SOL    HW283462   9.789   2.737   9.622  0.3888  1.5996 -0.7177
26729SOL     OW83463   3.721   7.843   4.459 -0.0204 -0.0928  0.1535
26729SOL    HW183464   3.772   7.920   4.484 -1.6384  0.8063  0.8441
26729SOL    HW283465   3.751   7.774   4.518  2.0169 -0.2567 -0.9980
26730SOL     OW83466   3.591   6.257   0.148 -0.5597  0.2536 -0.0474
26730SOL    HW183467   3.581   6.172   0.105  0.6361 -0.1344  0.3978
26730SOL    HW283468   3.521   6.259   0.214 -1.1746  0.0214 -0.6807
26731SOL     OW83469   9.195   0.907  10.671  0.3038 -0.1634 -0.0936
26731SOL    HW183470   9.115   0.863  10.641  0.5462  0.0018 -1.0250
26731SOL    HW283471   9.183   0.917  10.765 -0.4679 -0.7664 -0.1171
26732SOL     OW83472   3.187   9.257   9.820 -0.1405 -0.3866 -0.1708
26732SOL    HW183473   3.124   9.307   9.872  0.4917  2.2004 -1.6767
26732SOL    HW283474   3.272   9.292   9.846  0.4036 -1.2454 -0.7400
26733SOL     OW83475   0.939   5.093   4.456  0.4374 -0.3628 -0.3504
26733SOL    HW183476   1.025   5.052   4.462  0.1946 -0.9528 -0.8039
26733SOL    HW283477   0.951   5.164   4.393  0.4537 -0.8104 -0.8527
26734SOL     OW83478   2.102   3.295   8.968 -0.6039  0.0196  0.1145
26734SOL    HW183479   2.144   3.290   8.882  1.2577 -1.8431  1.0378
26734SOL    HW283480   2.046   3.372   8.963 -0.2464  0.2047 -2.6143
26735SOL     OW83481   0.514   9.996   3.847 -0.5532  0.5497  0.7260
26735SOL    HW183482   0.456   9.949   3.788 -1.0907  2.0170  0.0384
26735SOL    HW283483   0.526  10.082   3.806  2.4348  0.1851  0.6269
26736SOL     OW83484   2.199   1.181   2.660  0.2540  0.7900  0.0534
26736SOL    HW183485   2.188   1.121   2.586  2.3887  1.5588 -0.9778
26736SOL    HW283486   2.201   1.268   2.619  1.8762  1.2040  0.9340
26737SOL     OW83487   4.277   6.993   9.043  0.8139  0.7221 -0.3321
26737SOL    HW183488   4.312   6.986   8.954  0.1198 -1.1851 -0.5094
26737SOL    HW283489   4.244   6.905   9.063 -2.7623  2.0192  0.2466
26738SOL     OW83490   0.662   0.774   1.673  0.0920 -0.5908  0.2239
26738SOL    HW183491   0.733   0.781   1.609 -0.3918  0.6434 -0.2051
26738SOL    HW283492   0.688   0.834   1.743 -0.0478 -0.9014  0.5434
26739SOL     OW83493   4.091   5.285   7.094 -0.6333 -0.2334  0.0977
26739SOL    HW183494   4.058   5.198   7.072  0.4932 -0.6721  0.1048
26739SOL    HW283495   4.060   5.341   7.022 -0.8711 -0.7511 -0.2102
26740SOL     OW83496   2.001   5.341   8.659 -0.2939 -0.5180  0.0727
26740SOL    HW183497   1.935   5.299   8.713  0.1167 -2.7998 -1.0884
26740SOL    HW283498   2.083   5.329   8.707  0.1941 -3.1992 -1.2332
26741SOL     OW83499   2.055   1.476   0.580  0.1160 -0.2148  0.6750
26741SOL    HW183500   2.087   1.415   0.514 -1.2229 -0.2914  0.0863
26741SOL    HW283501   1.964   1.452   0.594 -0.0845  0.8576  1.3494
26742SOL     OW83502   5.381   7.637   5.519  0.5281 -0.5461 -0.4382
26742SOL    HW183503   5.367   7.571   5.587  2.1886 -1.4631 -0.9421
26742SOL    HW283504   5.317   7.614   5.451 -0.9237  0.1871  0.6331
26743SOL     OW83505   9.813   8.586   9.689  0.2315 -0.0754 -0.1277
26743SOL    HW183506   9.833   8.509   9.742 -0.7208 -1.0800 -1.1760
26743SOL    HW283507   9.737   8.625   9.731  0.3212 -0.0708  0.0309
26744SOL     OW83508  10.881   4.821   3.264 -0.1385 -0.2329  0.2490
26744SOL    HW183509  10.924   4.907   3.265  1.5380 -1.0142 -0.1022
26744SOL    HW283510  10.865   4.801   3.356 -0.1447  0.2595  0.3591
26745SOL     OW83511  11.080   8.865   8.063  0.4315 -0.6207  0.4204
26745SOL    HW183512  11.137   8.799   8.023  1.0265  0.1462 -0.0099
26745SOL    HW283513  11.011   8.880   7.999  0.4897 -0.5726  0.3684
26746SOL     OW83514   3.400   4.245  11.178 -0.0659  0.2576  0.6751
26746SOL    HW183515   3.315   4.238  11.134  0.2236 -0.1934  0.1644
26746SOL    HW283516   3.396   4.179  11.248  0.8188 -1.7317 -1.0234
26747SOL     OW83517   8.928   0.567   0.799  0.7574 -0.7870 -0.0514
26747SOL    HW183518   8.879   0.561   0.880  3.2226  0.5008  1.6632
26747SOL    HW283519   8.912   0.484   0.754 -2.7961 -0.4600  0.3823
26748SOL     OW83520   1.644   7.718   7.258  0.3496 -0.6905  0.4186
26748SOL    HW183521   1.619   7.787   7.319 -0.4641  0.8280 -1.5268
26748SOL    HW283522   1.738   7.708   7.269  0.3798  0.3188  1.1417
26749SOL     OW83523   8.202   5.241  11.374 -0.2942 -0.1083 -0.0516
26749SOL    HW183524   8.175   5.153  11.398 -0.5835  0.3057  1.2396
26749SOL    HW283525   8.282   5.257  11.424  1.0114 -0.4165 -1.9635
26750SOL     OW83526   7.804   2.596   8.341 -0.1521 -0.4669  0.1428
26750SOL    HW183527   7.793   2.502   8.358 -0.7397 -0.0754  2.3267
26750SOL    HW283528   7.729   2.637   8.385  0.6493  1.1021  0.1198
26751SOL     OW83529   8.279   1.286   5.636  0.1289 -0.3325 -0.0569
26751SOL    HW183530   8.309   1.375   5.617  1.8472 -0.9019 -0.2729
26751SOL    HW283531   8.330   1.260   5.713  0.8659 -1.6520 -0.9334
26752SOL     OW83532   6.803  11.322   7.397 -0.5057  0.0686  0.1816
26752SOL    HW183533   6.868  11.336   7.329  1.7450 -1.1936  1.9456
26752SOL    HW283534   6.790  11.409   7.436  0.3545  0.2890 -0.0001
26753SOL     OW83535   9.506  10.967  10.778  0.6226  0.4898 -0.0690
26753SOL    HW183536   9.469  10.909  10.712  1.8913  1.1076 -1.3701
26753SOL    HW283537   9.565  11.025  10.730 -1.1748  3.4634  1.0019
26754SOL     OW83538   1.254   3.366   6.792 -0.4537 -0.0351  0.0350
26754SOL    HW183539   1.205   3.402   6.718 -1.2533  0.5457  0.8219
26754SOL    HW283540   1.280   3.278   6.764  0.1652  0.5614 -1.3240
26755SOL     OW83541   1.290   8.087   7.931  0.1457 -0.0724  0.1683
26755SOL    HW183542   1.297   8.074   8.025 -0.3744 -3.1285 -0.1286
26755SOL    HW283543   1.380   8.097   7.901  0.3595  0.2188  0.8931
26756SOL     OW83544   4.684   2.550   9.092 -0.4896 -0.1988  0.3247
26756SOL    HW183545   4.627   2.627   9.096  0.7411  0.9971 -2.3891
26756SOL    HW283546   4.766   2.577   9.131 -0.3512 -0.4595  0.2196
26757SOL     OW83547   9.695   1.184   5.458  0.2704  0.4678 -0.0691
26757SOL    HW183548   9.773   1.239   5.466  0.3132  0.2343  1.5426
26757SOL    HW283549   9.726   1.096   5.479 -0.1422  0.1050 -0.9359
26758SOL     OW83550   8.507   1.968   0.418 -0.4315 -0.1041  0.6013
26758SOL    HW183551   8.534   1.954   0.509  0.0565  0.2387  0.5148
26758SOL    HW283552   8.580   1.935   0.366 -0.9701 -0.8730  0.3080
26759SOL     OW83553   6.108   8.283  10.425  0.2170  0.5714  0.3385
26759SOL    HW183554   6.190   8.244  10.457  0.0300 -0.5526 -0.4668
26759SOL    HW283555   6.136   8.343  10.356  0.3794  0.1479  0.0251
26760SOL     OW83556   2.384   1.738   0.215  0.2966  0.3140  0.0264
26760SOL    HW183557   2.317   1.735   0.147  1.7558  1.0357 -1.5042
26760SOL    HW283558   2.362   1.816   0.267  1.3842  2.1881 -2.1182
26761SOL     OW83559   4.728  10.977   6.111  0.7207  0.2223  0.1581
26761SOL    HW183560   4.813  10.955   6.073  0.1782 -1.1242 -0.3531
26761SOL    HW283561   4.687  11.033   6.045  1.1975  0.8926  0.4143
26762SOL     OW83562  10.943   1.078   5.763  0.1149  0.4699 -0.2079
26762SOL    HW183563  11.011   1.073   5.831  1.6138  0.5206 -1.6291
26762SOL    HW283564  10.874   1.018   5.793  0.2810  1.2184  1.7994
26763SOL     OW83565   2.669   7.607   2.729 -0.4017  0.3370 -0.5457
26763SOL    HW183566   2.673   7.569   2.642 -3.1484 -0.1963 -0.5264
26763SOL    HW283567   2.590   7.570   2.768  1.3814 -0.4507  2.6995
26764SOL     OW83568   8.716   1.246  10.348 -0.0618  0.1607  0.2979
26764SOL    HW183569   8.703   1.233  10.442  0.6061 -0.4812  0.3097
26764SOL    HW283570   8.727   1.157  10.313  1.8254  0.4972 -0.0562
26765SOL     OW83571   0.390   2.357   4.360  0.1290 -0.1244 -0.6512
26765SOL    HW183572   0.425   2.430   4.309  0.3477  0.1942 -0.0555
26765SOL    HW283573   0.468   2.311   4.393 -0.0074  0.0224 -0.1134
26766SOL     OW83574   0.034   4.211   9.980  0.1517 -0.3023 -0.6198
26766SOL    HW183575   0.100   4.268   9.942  1.3908 -1.9864 -1.1081
26766SOL    HW283576   0.003   4.258  10.058  3.6136 -0.4533  0.9885
26767SOL     OW83577   2.924   1.128   2.040 -0.1387  0.1738 -0.0218
26767SOL    HW183578   2.952   1.178   1.963  1.3546 -1.0241 -0.3148
26767SOL    HW283579   2.984   1.155   2.109 -0.9304  0.6112  0.5054
26768SOL     OW83580   3.463   6.744   3.617  0.3126 -0.1253 -0.5531
26768SOL    HW183581   3.406   6.734   3.693 -1.6052  0.9648 -1.7578
26768SOL    HW283582   3.462   6.658   3.574  0.9296 -0.5720  0.2939
26769SOL     OW83583   3.145   9.785   2.475 -0.2130 -0.3025 -0.0772
26769SOL    HW183584   3.090   9.751   2.405 -0.2773 -0.2424 -0.0560
26769SOL    HW283585   3.122   9.878   2.481  1.6853  0.3421 -1.7663
26770SOL     OW83586   0.084   5.000   7.457 -0.7978  0.7986  0.8074
26770SOL    HW183587   0.045   5.084   7.435 -2.8770 -0.8838 -3.1609
26770SOL    HW283588   0.010   4.942   7.473  0.3867 -0.9052  0.4989
26771SOL     OW83589   0.287  11.372   5.317 -0.2393 -0.0810 -0.1220
26771SOL    HW183590   0.216  11.325   5.273 -1.3046  1.8735 -0.5816
26771SOL    HW283591   0.324  11.429   5.250 -0.8544  1.8153  1.0700
26772SOL     OW83592  10.555   3.835   4.165 -0.0618  0.2168 -0.3092
26772SOL    HW183593  10.596   3.841   4.079  0.6379 -1.3740 -0.1218
26772SOL    HW283594  10.613   3.778   4.216 -0.3361  1.3004  1.3072
26773SOL     OW83595   9.163   3.064  10.395  0.0183  0.3593  0.4044
26773SOL    HW183596   9.083   3.102  10.431 -0.1226 -0.9648  1.5660
26773SOL    HW283597   9.233   3.118  10.431 -0.2594  0.4515  0.8106
26774SOL     OW83598   4.261   2.417  11.095 -0.0232 -0.6887  0.8346
26774SOL    HW183599   4.210   2.405  11.016  0.5837  1.3266  0.0655
26774SOL    HW283600   4.282   2.511  11.096  5.0476 -1.5029  0.1508
26775SOL     OW83601   0.933   4.067   7.755  0.5065 -0.6841 -0.4993
26775SOL    HW183602   0.902   3.977   7.755 -0.1669 -0.4673 -1.4204
26775SOL    HW283603   0.916   4.099   7.844  1.4669 -1.6860  0.0683
26776SOL     OW83604   4.959   5.778   7.102  0.1129  0.3532 -0.2158
26776SOL    HW183605   4.986   5.722   7.175  1.3226 -1.1216 -1.7333
26776SOL    HW283606   4.897   5.839   7.142 -0.5079 -1.4018  1.7327
26777SOL     OW83607   7.601   2.688   8.868 -0.3368  0.0439 -0.0991
26777SOL    HW183608   7.579   2.732   8.950 -0.0352  1.3518 -0.6902
26777SOL    HW283609   7.677   2.736   8.835  0.5942 -1.5146 -0.3272
26778SOL     OW83610  11.319   3.234   4.227  0.4074 -0.0399 -0.1883
26778SOL    HW183611  11.385   3.175   4.264 -0.5797 -0.4107  1.0363
26778SOL    HW283612  11.350   3.321   4.250  1.8629 -0.0264 -1.9817
26779SOL     OW83613   5.984   8.544   7.181 -0.1425 -0.4126  0.2905
26779SOL    HW183614   5.898   8.578   7.156  0.5282 -0.2268 -1.9669
26779SOL    HW283615   6.022   8.511   7.099  2.2220  0.1296  1.0819
26780SOL     OW83616   8.277   4.294   9.874 -0.6867 -0.1601 -0.0077
26780SOL    HW183617   8.359   4.322   9.834  0.2034 -2.8075 -0.2282
26780SOL    HW283618   8.265   4.352   9.949  1.5073  0.1561  0.1459
26781SOL     OW83619   3.310   7.017   6.089  0.2806 -0.2832 -0.0376
26781SOL    HW183620   3.215   7.032   6.093  0.3668  0.6114 -0.8110
26781SOL    HW283621   3.326   6.989   5.999  0.8122  0.0990 -0.0693
26782SOL     OW83622   1.437   4.496   0.558 -0.4409  0.3560  0.3794
26782SOL    HW183623   1.519   4.447   0.558 -1.0532 -0.7735  2.2671
26782SOL    HW283624   1.462   4.585   0.583  0.3787  0.4160 -0.6013
26783SOL     OW83625  10.382   2.657   3.377  0.3616  0.1910  0.4495
26783SOL    HW183626  10.459   2.668   3.321 -0.2988 -0.0018 -0.5260
26783SOL    HW283627  10.414   2.677   3.465  1.0446  2.2574 -0.1966
26784SOL     OW83628   3.703  10.231   6.401 -0.3207 -0.3828  0.1223
26784SOL    HW183629   3.728  10.150   6.355  0.6614 -0.1420  0.1974
26784SOL    HW283630   3.632  10.204   6.459 -0.2426 -1.1242 -0.1064
26785SOL     OW83631   1.814   4.969   4.243 -0.5380  0.0305  0.4238
26785SOL    HW183632   1.827   4.874   4.247 -0.1789  0.0641  0.0855
26785SOL    HW283633   1.860   5.003   4.321  0.4425  0.0390 -0.1403
26786SOL     OW83634   3.173  10.459   2.632  0.3257 -0.3878  0.0508
26786SOL    HW183635   3.202  10.476   2.542 -0.1782  0.3675  0.0190
26786SOL    HW283636   3.190  10.541   2.678  0.2751 -0.6624  0.5637
26787SOL     OW83637   0.755   8.565   3.038 -0.3938  0.1309  0.4259
26787SOL    HW183638   0.695   8.618   3.091 -0.0445  1.1906 -0.2175
26787SOL    HW283639   0.700   8.494   3.004 -0.3390 -1.4424  3.3222
26788SOL     OW83640   4.788   4.799   3.576 -0.2155 -0.1276  0.7969
26788SOL    HW183641   4.793   4.704   3.563  0.9100  0.2223 -1.9272
26788SOL    HW283642   4.859   4.819   3.637 -0.3496 -0.9969  1.2501
26789SOL     OW83643   9.143   6.699   2.821 -0.2138 -0.1728 -0.0502
26789SOL    HW183644   9.095   6.631   2.773 -0.0938  0.7512 -1.5410
26789SOL    HW283645   9.159   6.660   2.907  0.0991 -2.1412 -0.9319
26790SOL     OW83646   1.781   8.054   1.766  0.3457  0.5498  0.2694
26790SOL    HW183647   1.787   8.073   1.672  1.6911 -1.5966 -0.1422
26790SOL    HW283648   1.740   7.968   1.771 -0.3312  0.9264  1.7107
26791SOL     OW83649   7.590   1.555   2.712 -0.2813  0.0703 -0.2488
26791SOL    HW183650   7.639   1.616   2.767 -3.4650  1.6071  1.1460
26791SOL    HW283651   7.586   1.598   2.626 -0.1743  0.4682 -0.0543
26792SOL     OW83652   4.464   5.827   5.362  0.0167  0.1509 -0.6742
26792SOL    HW183653   4.535   5.889   5.345  0.0918  0.6068  1.1062
26792SOL    HW283654   4.463   5.770   5.285  1.0786  1.2864 -1.5699
26793SOL     OW83655   6.403   9.671   5.910  0.0612 -0.5441  0.2277
26793SOL    HW183656   6.470   9.722   5.954 -0.6998 -0.1636  0.9558
26793SOL    HW283657   6.428   9.674   5.817  0.7108  0.0883  0.4162
26794SOL     OW83658   1.003   4.568   6.842 -0.1138 -0.0313 -0.2021
26794SOL    HW183659   1.012   4.656   6.805 -0.7291  0.0670 -0.1394
26794SOL    HW283660   0.914   4.542   6.818  0.0608 -0.6365 -0.2117
26795SOL     OW83661   7.352  10.214  10.010  0.5539  0.1392 -0.1487
26795SOL    HW183662   7.360  10.261   9.927 -0.5426  0.8548  0.1334
26795SOL    HW283663   7.376  10.124   9.989 -1.3477 -0.0766 -1.6464
26796SOL     OW83664   0.479   9.279   5.738 -0.0737  0.0588 -0.4173
26796SOL    HW183665   0.569   9.248   5.730  0.0095 -1.0062  2.9935
26796SOL    HW283666   0.429   9.200   5.759 -1.9739  0.5609 -2.6073
26797SOL     OW83667   6.989   7.740   6.897 -0.1137 -0.0754  0.0343
26797SOL    HW183668   6.968   7.753   6.989  1.0763  0.4162  0.2671
26797SOL    HW283669   6.913   7.772   6.849 -1.2225 -1.4191  0.8559
26798SOL     OW83670   5.474   0.276   1.592 -0.1119  0.1385 -0.0638
26798SOL    HW183671   5.448   0.256   1.682 -1.5162 -0.2301 -0.5186
26798SOL    HW283672   5.501   0.368   1.595 -0.5838  0.2653  0.6543
26799SOL     OW83673   3.490   0.765   7.918 -0.2960  0.2667  0.0061
26799SOL    HW183674   3.440   0.791   7.995  1.4738  0.8304  1.0285
26799SOL    HW283675   3.442   0.802   7.844 -0.6504  1.9769  1.0443
26800SOL     OW83676   9.498   6.583   8.187  0.1851  0.2185 -0.2090
26800SOL    HW183677   9.429   6.540   8.237 -0.1824 -0.2575 -1.1048
26800SOL    HW283678   9.579   6.562   8.235 -0.3355  1.3264  1.2084
26801SOL     OW83679   6.794   6.320   6.471 -0.1172  0.3354  0.3735
26801SOL    HW183680   6.820   6.228   6.470 -0.0834  0.3388 -0.4503
26801SOL    HW283681   6.700   6.318   6.488 -0.8332 -0.1114 -2.8838
26802SOL     OW83682   5.331   2.098   1.646  0.0928 -0.6682 -0.1540
26802SOL    HW183683   5.296   2.025   1.697  1.0944 -1.0777 -0.0181
26802SOL    HW283684   5.301   2.083   1.557 -0.2647 -0.8769  0.0005
26803SOL     OW83685  10.052   9.712   3.890  0.2551 -0.4397 -0.0487
26803SOL    HW183686   9.997   9.783   3.856 -0.2706 -1.1921 -0.7939
26803SOL    HW283687  10.035   9.712   3.984 -0.1916  0.0402 -0.1234
26804SOL     OW83688   6.298  10.428  10.082  0.0174 -0.1621  0.1182
26804SOL    HW183689   6.379  10.376  10.088  0.4270  0.2359 -1.3656
26804SOL    HW283690   6.240  10.374  10.028  0.2815  0.6848 -1.0527
26805SOL     OW83691   4.818   7.575   1.947  0.4258  0.2465 -0.0817
26805SOL    HW183692   4.780   7.492   1.920 -1.3528  0.4085  1.7294
26805SOL    HW283693   4.913   7.561   1.942  0.1602 -1.6514 -0.4252
26806SOL     OW83694   0.330   4.976   0.339  0.0527  0.1641  0.0246
26806SOL    HW183695   0.258   4.916   0.357 -0.6129  1.1440  0.7783
26806SOL    HW283696   0.409   4.926   0.359 -0.5079 -0.3081  1.1307
26807SOL     OW83697   9.719   8.607   6.434  0.1372 -0.1951 -0.5586
26807SOL    HW183698   9.653   8.670   6.405 -1.2484 -1.4137 -0.1266
26807SOL    HW283699   9.733   8.550   6.358  0.6333 -0.0156 -0.6099
26808SOL     OW83700   6.093   7.322   5.505  0.2757 -0.0328  0.9328
26808SOL    HW183701   6.076   7.394   5.566 -0.5707 -1.0448  1.9520
26808SOL    HW283702   6.188   7.315   5.502  0.3942  1.4928  0.3461
26809SOL     OW83703   9.539   4.463   6.461  0.0910 -0.0861  0.1866
26809SOL    HW183704   9.449   4.439   6.487 -0.4252 -0.3556 -1.6907
26809SOL    HW283705   9.532   4.553   6.430  0.0713 -0.6316 -1.5313
26810SOL     OW83706  11.205   6.714   7.775  0.4257 -0.0029  0.0473
26810SOL    HW183707  11.132   6.748   7.723  0.7772 -0.5557 -0.8301
26810SOL    HW283708  11.243   6.791   7.817 -1.6251  0.1357  1.8392
26811SOL     OW83709  11.033   2.316   3.862  0.0773 -0.2249  0.7040
26811SOL    HW183710  11.068   2.349   3.779  0.0928 -0.6383  0.5457
26811SOL    HW283711  10.950   2.362   3.873 -1.7382 -2.7242 -1.3441
26812SOL     OW83712   4.405   9.087   6.120 -0.2193 -0.1716  0.1365
26812SOL    HW183713   4.382   9.179   6.121 -1.0586 -0.3786  1.0109
26812SOL    HW283714   4.362   9.052   6.042 -0.5345  0.0243  0.2208
26813SOL     OW83715   9.826   6.008   1.394  0.0525 -0.2979 -0.2354
26813SOL    HW183716   9.755   6.062   1.358 -0.1065 -1.2744 -1.4892
26813SOL    HW283717   9.794   5.918   1.385  0.4368 -0.6438  1.5043
26814SOL     OW83718   9.810   6.911   1.150  0.2818 -0.3666  0.8098
26814SOL    HW183719   9.738   6.948   1.201  0.1491 -0.1204  0.4407
26814SOL    HW283720   9.778   6.825   1.122  1.5234 -2.0006  3.8683
26815SOL     OW83721   0.263   9.730  10.205  0.1625  0.4062  0.0340
26815SOL    HW183722   0.226   9.805  10.251  0.3791  0.1159  0.6980
26815SOL    HW283723   0.288   9.764  10.119 -1.6910  0.6051 -0.4746
26816SOL     OW83724   5.088   8.911   1.477 -0.1433  0.1322 -0.9305
26816SOL    HW183725   5.098   8.992   1.529  2.0752  0.0337 -1.1343
26816SOL    HW283726   5.177   8.883   1.459 -0.8394 -2.8238 -0.2235
26817SOL     OW83727   2.065  11.341   7.145  0.1106  0.0701 -0.0044
26817SOL    HW183728   1.994  11.298   7.193 -0.8921  0.7553 -0.8106
26817SOL    HW283729   2.023  11.372   7.064  1.7318 -1.0213 -1.3231
26818SOL     OW83730   4.133   7.217   4.265  0.3747 -0.8549 -0.1954
26818SOL    HW183731   4.140   7.308   4.234  0.9622 -1.0916 -0.7880
26818SOL    HW283732   4.129   7.225   4.360  0.6385 -0.2125 -0.2278
26819SOL     OW83733   6.720  11.171  11.002 -0.6185 -0.3333 -0.3849
26819SOL    HW183734   6.640  11.224  11.000 -0.0230  0.6122  0.1736
26819SOL    HW283735   6.787  11.230  11.037 -0.2757 -1.9455  1.8468
26820SOL     OW83736   0.944  11.288   4.110  0.4501  0.6101  0.3785
26820SOL    HW183737   0.927  11.195   4.095  3.3133  0.0140  0.2554
26820SOL    HW283738   0.918  11.331   4.029  0.3219 -0.2450 -0.0420
26821SOL     OW83739   3.675   4.859   1.312  0.0790 -0.0968  0.0996
26821SOL    HW183740   3.744   4.924   1.327 -1.5221  1.4637  1.2104
26821SOL    HW283741   3.650   4.871   1.221 -0.8785  1.6451  0.5404
26822SOL     OW83742   7.238   1.143   0.368  0.1731  0.3028  0.2333
26822SOL    HW183743   7.331   1.138   0.391  0.5488  1.7090 -0.8612
26822SOL    HW283744   7.221   1.236   0.357 -1.1971  0.0084 -0.2869
26823SOL     OW83745   7.581   3.515   3.336 -0.0012 -0.0666  0.6621
26823SOL    HW183746   7.654   3.458   3.360 -0.7804 -0.8603  1.2363
26823SOL    HW283747   7.588   3.526   3.242  0.6271 -0.4593  0.6587
26824SOL     OW83748   9.201   9.067   3.111  0.3609 -0.4265  0.0424
26824SOL    HW183749   9.233   9.141   3.163  0.9199 -0.9014  0.3880
26824SOL    HW283750   9.126   9.034   3.160 -0.3743  0.4011 -0.5254
26825SOL     OW83751   0.764   3.091   8.675  0.0915  0.4767 -0.1319
26825SOL    HW183752   0.737   3.114   8.764 -0.7994 -1.2954  0.1037
26825SOL    HW283753   0.806   3.006   8.684  0.7976  0.6797 -1.3027
26826SOL     OW83754   0.578   6.708  11.256  0.2140  0.2079 -1.1737
26826SOL    HW183755   0.546   6.770  11.190  1.2925  2.4921  0.2933
26826SOL    HW283756   0.667   6.739  11.276 -0.4200  0.2861  2.0509
26827SOL     OW83757   4.893   3.668   6.261 -0.2275  0.0329  0.1137
26827SOL    HW183758   4.944   3.739   6.300  1.9872 -1.2690 -0.2700
26827SOL    HW283759   4.947   3.637   6.189 -2.2929 -0.4382 -1.3012
26828SOL     OW83760   3.153   8.012  10.024 -0.4041  0.3104 -0.4153
26828SOL    HW183761   3.086   7.943  10.026 -0.1145  0.0194 -0.7194
26828SOL    HW283762   3.170   8.032  10.116  1.0962 -1.5742 -0.2206
26829SOL     OW83763   2.614   1.138   4.334  0.2656 -0.2924 -0.0299
26829SOL    HW183764   2.601   1.209   4.270  0.2831  1.2619  1.6160
26829SOL    HW283765   2.534   1.086   4.327 -0.0184  0.2274 -0.8634
26830SOL     OW83766   2.977   7.841   9.033 -0.0757  0.1928 -0.0464
26830SOL    HW183767   2.894   7.884   9.016 -0.3296  0.1659  1.0555
26830SOL    HW283768   3.033   7.865   8.959 -0.9356  0.5225 -0.5929
26831SOL     OW83769   5.246   1.182   8.970  0.9019 -0.0985  0.5945
26831SOL    HW183770   5.295   1.100   8.971  0.1948 -0.5762 -0.9896
26831SOL    HW283771   5.155   1.156   8.986  0.5747  0.2575 -0.5400
26832SOL     OW83772   2.978   3.311   6.827  0.0328 -0.3676 -0.2066
26832SOL    HW183773   2.996   3.389   6.881  3.9335 -0.3744 -1.2100
26832SOL    HW283774   2.959   3.242   6.891  2.1465  0.1659  1.0984
26833SOL     OW83775   5.304   8.931   2.188  0.7021 -0.1350  0.2291
26833SOL    HW183776   5.247   8.972   2.253  0.6455 -1.2197  0.8914
26833SOL    HW283777   5.246   8.872   2.139  0.7262  0.7323 -0.8857
26834SOL     OW83778   3.094   2.003  11.228 -0.1250  0.1485  0.1474
26834SOL    HW183779   3.107   2.075  11.289  0.0832  0.0201  0.2565
26834SOL    HW283780   3.099   2.043  11.141  2.6699 -0.0977  0.0969
26835SOL     OW83781   7.155   8.027   1.089  0.3866 -0.4816 -0.5832
26835SOL    HW183782   7.215   8.033   1.163 -1.2351 -0.4619  0.7824
26835SOL    HW283783   7.082   7.974   1.120  0.2416 -1.5962 -2.6145
26836SOL     OW83784  10.644   9.573  10.125 -0.0244 -0.5803 -0.5479
26836SOL    HW183785  10.553   9.569  10.153  0.0400 -0.2038 -0.2697
26836SOL    HW283786  10.651   9.509  10.055 -1.0012  0.8541 -2.0250
26837SOL     OW83787   0.274   2.960  11.354  0.4912  0.5607  0.3613
26837SOL    HW183788   0.267   2.893  11.422  1.7572  0.9678  0.9324
26837SOL    HW283789   0.207   2.936  11.290  0.2915 -0.7130  1.0015
26838SOL     OW83790   1.670   2.031   6.906 -0.1691  0.2906  0.4068
26838SOL    HW183791   1.720   2.101   6.949 -1.2186  0.9514  0.5848
26838SOL    HW283792   1.726   2.004   6.833  0.5473  0.8604  0.7224
26839SOL     OW83793   3.089   6.370   6.325 -0.0518 -0.4137  0.2850
26839SOL    HW183794   3.053   6.397   6.241 -0.9024 -0.2691  0.6797
26839SOL    HW283795   3.118   6.280   6.312 -0.7713 -0.6108  0.0078
26840SOL     OW83796   5.768   3.622   3.092  0.0234 -0.0432 -0.1845
26840SOL    HW183797   5.701   3.617   3.160  0.6697  1.2752  0.6071
26840SOL    HW283798   5.832   3.685   3.127  1.7644 -1.3894 -0.8108
26841SOL     OW83799   0.935   4.463   9.150 -0.8040  0.4531 -0.2610
26841SOL    HW183800   0.856   4.450   9.203 -0.1287  1.6693  1.0863
26841SOL    HW283801   0.920   4.546   9.105 -0.3726  0.5762 -0.1765
26842SOL     OW83802   4.809   2.110   5.141  0.0857  0.5404 -0.8395
26842SOL    HW183803   4.789   2.053   5.066 -1.5740 -0.1898  0.1023
26842SOL    HW283804   4.863   2.056   5.198 -0.6591  0.2344 -0.4099
26843SOL     OW83805   4.537   1.682  10.333  0.5619 -0.1949 -0.1265
26843SOL    HW183806   4.631   1.699  10.337  0.3162  2.4200 -2.7098
26843SOL    HW283807   4.497   1.756  10.380 -0.2874 -1.5109  1.3449
26844SOL     OW83808   8.172   6.070   1.958  0.1023 -0.5702  0.0105
26844SOL    HW183809   8.211   6.028   1.881 -0.5393  1.0657 -1.2689
26844SOL    HW283810   8.216   6.155   1.965 -0.3233 -0.4142  1.0495
26845SOL     OW83811  10.506  11.237  10.955  0.0150  0.7243  0.4316
26845SOL    HW183812  10.429  11.187  10.984 -1.0699  0.7693 -2.0301
26845SOL    HW283813  10.573  11.219  11.020 -1.3572 -1.2838  1.3956
26846SOL     OW83814   3.604  10.327   5.044 -0.1177  0.8570 -0.4256
26846SOL    HW183815   3.573  10.237   5.029  1.9084 -0.1320  0.8757
26846SOL    HW283816   3.524  10.376   5.065 -1.0564 -1.1844  1.1937
26847SOL     OW83817   4.370  10.753   0.103  0.0313  0.2778 -0.0513
26847SOL    HW183818   4.330  10.675   0.063 -1.2730  1.1848 -0.5803
26847SOL    HW283819   4.464  10.743   0.087 -0.1338 -1.0727 -0.3016
26848SOL     OW83820   3.039   2.631   6.589  0.5896 -0.3486 -0.5505
26848SOL    HW183821   3.025   2.550   6.539 -0.0298 -0.7321  0.2230
26848SOL    HW283822   2.959   2.681   6.577 -0.7500 -1.6283  2.1924
26849SOL     OW83823   7.882   6.808   7.525 -0.2962 -0.3238  0.0383
26849SOL    HW183824   7.837   6.875   7.577 -0.8617 -1.1983  0.7096
26849SOL    HW283825   7.887   6.732   7.583 -0.0457 -1.0085 -0.8513
26850SOL     OW83826   5.792   7.996   8.900 -0.1579  0.0447 -0.8270
26850SOL    HW183827   5.822   7.908   8.925 -0.4992  0.1459 -0.0253
26850SOL    HW283828   5.764   8.036   8.983  1.2144  1.3989 -0.9840
26851SOL     OW83829   0.866   6.728   8.473 -0.1776  0.6509  0.0686
26851SOL    HW183830   0.817   6.663   8.422  1.1063 -0.1151 -0.2522
26851SOL    HW283831   0.888   6.796   8.410  0.4470  0.2489 -0.1639
26852SOL     OW83832   9.532   3.840   5.363 -0.1629 -0.1585  0.5830
26852SOL    HW183833   9.627   3.830   5.356 -0.3002 -1.7043  0.6475
26852SOL    HW283834   9.521   3.925   5.406  1.1720  0.2350  0.2136
26853SOL     OW83835   8.770   1.915   5.065 -0.0388  0.3291  0.2457
26853SOL    HW183836   8.745   1.972   5.138  0.5642  1.1297 -0.1504
26853SOL    HW283837   8.720   1.948   4.990 -0.5000 -0.3562  0.2523
26854SOL     OW83838   1.587   8.206   1.465 -0.5599  0.3565 -0.2969
26854SOL    HW183839   1.670   8.159   1.457 -0.9468 -0.7024  1.4748
26854SOL    HW283840   1.594   8.276   1.400  1.3722 -0.1900 -0.7680
26855SOL     OW83841   6.605   1.912   6.532  0.6451 -0.3835  0.4588
26855SOL    HW183842   6.675   1.918   6.467 -0.2735 -0.1094 -0.5412
26855SOL    HW283843   6.592   2.003   6.561  0.4611 -0.3858  0.3806
26856SOL     OW83844   9.300   7.779   8.582 -0.0989  0.2864  0.1943
26856SOL    HW183845   9.271   7.854   8.530 -1.9715  0.9969  2.0930
26856SOL    HW283846   9.219   7.745   8.622  0.9265 -1.7476  0.6584
26857SOL     OW83847  10.868   6.017   0.953 -0.3119 -0.3752 -0.0312
26857SOL    HW183848  10.962   6.003   0.943 -0.4304 -1.4912  0.3032
26857SOL    HW283849  10.833   5.931   0.975 -1.0542  0.4918  2.5734
26858SOL     OW83850   0.323   0.617   5.548 -0.3147  0.1360  0.0546
26858SOL    HW183851   0.370   0.543   5.585 -2.0125 -1.8559 -1.5552
26858SOL    HW283852   0.246   0.579   5.506 -0.5752  2.6602 -2.0393
26859SOL     OW83853   8.813   3.525   6.339  0.4981 -0.0983 -0.2486
26859SOL    HW183854   8.731   3.560   6.372  1.0982  2.7255 -1.3949
26859SOL    HW283855   8.851   3.477   6.413 -1.0263  0.6776  1.0988
26860SOL     OW83856   5.979  11.069   7.682  0.1221  0.6760 -0.1882
26860SOL    HW183857   6.011  11.153   7.649  0.2137  1.1325  1.0070
26860SOL    HW283858   5.903  11.093   7.736  0.3846  0.0297  0.4754
26861SOL     OW83859   9.907   3.208   9.012  0.2715 -0.5018 -0.4160
26861SOL    HW183860   9.998   3.239   9.013  0.2731 -0.3255 -2.2373
26861SOL    HW283861   9.872   3.241   8.929 -2.0148  0.9520  1.0025
26862SOL     OW83862   0.425  10.168   0.777 -0.0446 -0.2795 -0.0512
26862SOL    HW183863   0.335  10.171   0.810  0.1330  0.8797  0.3574
26862SOL    HW283864   0.420  10.204   0.688  0.1226  0.4684  0.2375
26863SOL     OW83865   8.422   1.048   0.632  0.2377 -0.2865  0.1137
26863SOL    HW183866   8.381   1.117   0.579 -0.1583 -1.5081 -1.2435
26863SOL    HW283867   8.366   1.040   0.709 -0.7152 -0.2841 -0.5659
26864SOL     OW83868   4.655   1.163   9.821  0.1149  0.0135 -0.0907
26864SOL    HW183869   4.690   1.134   9.906  0.7534  1.6923  0.2658
26864SOL    HW283870   4.733   1.184   9.769 -0.2212  2.5904  0.2771
26865SOL     OW83871   3.769   2.994   3.592 -0.5566  0.1042  0.1356
26865SOL    HW183872   3.770   2.931   3.520 -0.9921  0.5471 -0.2654
26865SOL    HW283873   3.840   2.966   3.649 -0.6099 -0.6234 -0.1454
26866SOL     OW83874  10.081  10.282   3.533 -0.0531  0.1047 -0.2310
26866SOL    HW183875  10.144  10.257   3.465  1.4581 -1.4345  1.5775
26866SOL    HW283876  10.134  10.331   3.596 -0.2993 -2.0660  1.8271
26867SOL     OW83877   9.164   1.460   9.695 -0.2764  0.3877 -0.1628
26867SOL    HW183878   9.218   1.395   9.650 -0.4612 -0.3521  0.6507
26867SOL    HW283879   9.217   1.539   9.694  0.5543 -0.1484  0.0488
26868SOL     OW83880   8.083   4.035   3.460  0.0840 -0.1378 -0.4449
26868SOL    HW183881   7.990   4.037   3.484 -0.0840  0.8816 -1.1382
26868SOL    HW283882   8.096   4.115   3.409  1.1564 -0.6818 -1.0434
26869SOL     OW83883   3.692  10.156  10.593 -0.1040  0.0291  0.2686
26869SOL    HW183884   3.757  10.099  10.634  0.3635  0.8088  0.6343
26869SOL    HW283885   3.726  10.245  10.606 -2.1119  0.6175  2.0636
26870SOL     OW83886  10.894  10.436  11.052  0.1696  0.1793  0.3938
26870SOL    HW183887  10.822  10.492  11.023  0.6895  0.4329 -0.4630
26870SOL    HW283888  10.885  10.432  11.147 -1.4963 -0.5244  0.2328
26871SOL     OW83889   9.923  10.913   5.553 -0.0405 -0.2548 -0.5260
26871SOL    HW183890   9.968  10.911   5.638  2.0756 -0.4076 -1.5957
26871SOL    HW283891   9.963  10.987   5.507 -1.9261  0.5147 -1.0491
26872SOL     OW83892   4.931   8.496   4.569  0.0397 -0.0179  0.6284
26872SOL    HW183893   4.870   8.440   4.616 -2.1922  1.5438 -0.2448
26872SOL    HW283894   4.942   8.573   4.625 -0.0762  0.4210  0.0615
26873SOL     OW83895   5.273  11.023   5.100  0.3449 -0.5390  0.7817
26873SOL    HW183896   5.329  11.048   5.026  2.8343  1.0069  2.9899
26873SOL    HW283897   5.293  10.931   5.115  1.0108 -0.4485  0.4945
26874SOL     OW83898   0.907  10.000   4.734  0.0048 -0.1397  0.2601
26874SOL    HW183899   0.860   9.923   4.768  0.0119  0.5389  1.8994
26874SOL    HW283900   0.892  10.068   4.800  2.1544  0.5041  0.1469
26875SOL     OW83901   0.839   4.176   6.945 -0.1880 -0.3825  0.0377
26875SOL    HW183902   0.795   4.221   7.018  0.4309 -0.7796  0.6643
26875SOL    HW283903   0.774   4.115   6.912 -0.3741 -0.4147  0.4573
26876SOL     OW83904  10.340   9.064   3.232 -0.7754 -0.4489 -0.1048
26876SOL    HW183905  10.341   9.102   3.144 -1.4757  0.1932  0.1548
26876SOL    HW283906  10.329   8.970   3.217  0.4899 -0.5082 -0.7391
26877SOL     OW83907   7.046   8.334   3.254  0.1273  0.0732  0.4906
26877SOL    HW183908   7.140   8.338   3.234 -0.3497 -0.5057 -2.1382
26877SOL    HW283909   7.022   8.243   3.239 -1.1081  0.4853 -0.1301
26878SOL     OW83910   3.454   4.689   8.526 -0.1195  0.5864 -0.6935
26878SOL    HW183911   3.388   4.710   8.592 -0.7135 -1.1969 -0.6430
26878SOL    HW283912   3.417   4.614   8.478  1.4837  0.0843 -1.2362
26879SOL     OW83913   2.601   1.798  10.681 -0.1952  0.3233 -0.2711
26879SOL    HW183914   2.558   1.767  10.761 -0.4264  1.5092  0.0900
26879SOL    HW283915   2.581   1.731  10.616 -2.0230  0.4732  0.0715
26880SOL     OW83916   7.971   6.586   2.834  0.2818 -0.2223 -0.1683
26880SOL    HW183917   7.988   6.538   2.915 -0.9704 -0.8988 -0.2850
26880SOL    HW283918   7.971   6.678   2.861  1.9258 -0.2991  0.1981
26881SOL     OW83919   6.181   4.694   8.645 -0.6270 -0.2581  0.3568
26881SOL    HW183920   6.117   4.630   8.675 -0.5713  0.0865  1.2657
26881SOL    HW283921   6.250   4.642   8.604 -1.1421 -0.6823  0.0124
26882SOL     OW83922   8.771  10.845   5.897 -0.1767 -0.0665 -0.9445
26882SOL    HW183923   8.813  10.783   5.836 -0.9449 -2.1438  0.5156
26882SOL    HW283924   8.679  10.847   5.869  0.2239  2.2158 -2.3360
26883SOL     OW83925   6.574   0.041   9.511 -0.0629  0.2388  0.4013
26883SOL    HW183926   6.520   0.060   9.434 -1.4918 -1.6703  0.8567
26883SOL    HW283927   6.598  -0.051   9.503  2.5267  0.7988  0.6555
26884SOL     OW83928   4.415  10.719   3.590  0.1632  0.2693  0.1550
26884SOL    HW183929   4.347  10.671   3.542 -1.2813  0.1841  2.1501
26884SOL    HW283930   4.376  10.806   3.605  1.3388  0.9159 -0.3977
26885SOL     OW83931   3.418   8.126   2.098 -0.2038 -0.3838 -0.3237
26885SOL    HW183932   3.458   8.195   2.152  1.9731 -0.7601 -1.3352
26885SOL    HW283933   3.411   8.051   2.157  0.8129 -0.3574 -0.1475
26886SOL     OW83934   1.151   6.035   6.071 -0.5844  0.1800  0.2256
26886SOL    HW183935   1.075   6.077   6.032 -1.0502 -0.5557  0.3143
26886SOL    HW283936   1.115   5.959   6.117 -0.3713  2.0120  3.7964
26887SOL     OW83937   8.474   8.027   5.609  0.2078 -0.0920  0.2433
26887SOL    HW183938   8.406   8.094   5.618  0.1731 -0.1057  0.0795
26887SOL    HW283939   8.474   7.982   5.693 -2.1951 -2.1839 -0.7418
26888SOL     OW83940   7.643   8.001   3.572  0.2950 -0.6310  0.0536
26888SOL    HW183941   7.556   8.039   3.584 -0.0979 -1.5422  0.1684
26888SOL    HW283942   7.630   7.932   3.508  1.2627  0.2920 -1.1845
26889SOL     OW83943   8.683   7.554   4.009 -0.1647 -0.0533 -0.0640
26889SOL    HW183944   8.687   7.542   3.915  0.0081  0.7530 -0.1666
26889SOL    HW283945   8.636   7.476   4.041 -1.8612  0.5130 -1.0061
26890SOL     OW83946   2.123   9.825   0.473  0.8882  0.2851  0.0645
26890SOL    HW183947   2.117   9.826   0.568  0.7152 -0.7044  0.0736
26890SOL    HW283948   2.090   9.911   0.446 -1.4148 -0.3027  0.7817
26891SOL     OW83949   2.603   5.728   0.439  0.4819 -0.3875 -0.2915
26891SOL    HW183950   2.634   5.715   0.529 -2.1466 -3.2241  0.3805
26891SOL    HW283951   2.570   5.817   0.438  2.3791  0.4020  0.9022
26892SOL     OW83952  10.611   7.652   3.714 -0.3143  0.3721 -0.3634
26892SOL    HW183953  10.584   7.742   3.735  1.9789  0.5478  2.1901
26892SOL    HW283954  10.550   7.597   3.763 -0.5859  0.5499 -0.4939
26893SOL     OW83955   0.849   1.446  10.872 -0.1797 -0.1508  0.0453
26893SOL    HW183956   0.933   1.434  10.915  0.1096  0.2724 -0.3917
26893SOL    HW283957   0.848   1.380  10.803  1.5406  2.3126 -2.5523
26894SOL     OW83958   5.368   5.824   5.528  0.4378 -0.6956  0.0748
26894SOL    HW183959   5.280   5.853   5.552  0.5024 -0.1849 -0.2950
26894SOL    HW283960   5.426   5.892   5.563  0.5862 -0.3453 -0.8459
26895SOL     OW83961   1.912  10.276   4.436  0.5070  0.2241  0.1943
26895SOL    HW183962   1.828  10.306   4.403  1.2761  2.8709  0.3960
26895SOL    HW283963   1.970  10.352   4.429  2.9787 -1.5481 -0.1506
26896SOL     OW83964   4.745   8.039   0.108  0.1427 -0.1972  0.1310
26896SOL    HW183965   4.824   7.988   0.087  0.3893 -0.2576  1.1614
26896SOL    HW283966   4.725   8.086   0.027 -0.0292 -1.8394 -0.8379
26897SOL     OW83967   8.538   5.991   7.321  0.3122 -0.2112 -0.6737
26897SOL    HW183968   8.515   5.946   7.240  1.4498  1.0299 -1.7342
26897SOL    HW283969   8.606   6.054   7.295  0.0513  0.8555  1.0698
26898SOL     OW83970   8.861   4.803  11.096  0.4710  0.1198 -0.1360
26898SOL    HW183971   8.793   4.771  11.155  1.3281 -0.8903  0.3349
26898SOL    HW283972   8.940   4.758  11.124  1.3057  1.1133 -0.8075
26899SOL     OW83973   4.308   0.953   7.110  0.0668  1.0099 -0.2912
26899SOL    HW183974   4.224   0.908   7.118  0.8458 -0.6981 -1.3047
26899SOL    HW283975   4.335   0.939   7.020  0.8916  2.5853 -0.3268
26900SOL     OW83976   8.217   7.221   1.759 -0.3259  0.4054 -0.3836
26900SOL    HW183977   8.165   7.145   1.785  0.2109 -0.6081 -2.1376
26900SOL    HW283978   8.154   7.282   1.723 -0.7502  0.8096  0.9658
26901SOL     OW83979   1.896   5.852   7.934  0.3202 -0.1329  1.1639
26901SOL    HW183980   1.907   5.768   7.979 -1.2066 -2.1844 -1.9202
26901SOL    HW283981   1.856   5.829   7.850  1.5326  3.5401 -0.6309
26902SOL     OW83982   0.121   2.197   6.321 -0.2938 -0.3022 -0.2266
26902SOL    HW183983   0.060   2.127   6.346  0.3081 -0.4098  1.0433
26902SOL    HW283984   0.173   2.159   6.251 -0.7794 -0.6884 -0.3880
26903SOL     OW83985   0.593   6.251   7.291  0.0660  0.1744 -0.8485
26903SOL    HW183986   0.667   6.193   7.308 -0.8546 -0.4740  1.2593
26903SOL    HW283987   0.538   6.203   7.230  0.6145 -0.0127 -1.1975
26904SOL     OW83988   8.464   3.507   4.463 -0.7004 -0.3332 -0.6002
26904SOL    HW183989   8.424   3.592   4.478 -0.6254 -0.3229 -0.4591
26904SOL    HW283990   8.540   3.525   4.408  0.0433 -0.1455  0.4589
26905SOL     OW83991  10.947   8.812   9.444 -0.1584 -0.1183 -0.2411
26905SOL    HW183992  11.016   8.755   9.409 -1.5544 -0.4232 -2.7185
26905SOL    HW283993  10.916   8.766   9.522  1.2900 -0.8009 -0.0196
26906SOL     OW83994   6.021   2.973   3.993 -0.4993 -0.3004  0.1178
26906SOL    HW183995   6.102   2.995   4.038 -0.3921  0.2556 -0.3313
26906SOL    HW283996   5.993   2.890   4.032  1.8673 -2.1396 -1.7645
26907SOL     OW83997   1.946   5.330   0.868 -0.0704 -0.3818  0.0159
26907SOL    HW183998   1.984   5.246   0.892 -0.5518  0.4190  4.3999
26907SOL    HW283999   2.017   5.377   0.824  1.3785 -1.7507  0.7914
26908SOL     OW84000  10.236   6.680   0.354  0.5524 -0.7354 -0.3831
26908SOL    HW184001  10.160   6.710   0.403  1.3104  1.8365 -0.6325
26908SOL    HW284002  10.236   6.585   0.365 -0.1602 -0.4592  3.3429
26909SOL     OW84003  11.080   2.236   7.940  0.4770  0.0931 -0.1511
26909SOL    HW184004  11.075   2.313   7.884  0.3418 -1.8218 -2.9534
26909SOL    HW284005  11.115   2.269   8.023 -0.7634  3.3340 -0.7929
26910SOL     OW84006   3.719   9.057  10.276 -0.1207 -0.0410  0.0100
26910SOL    HW184007   3.675   9.046  10.192 -0.6785  0.7772  0.1905
26910SOL    HW284008   3.746   8.968  10.300 -0.9024 -0.4369 -0.5210
26911SOL     OW84009   1.875   9.892  10.992  0.0529  0.3982 -0.3550
26911SOL    HW184010   1.912   9.956  11.054 -0.0303  0.2487 -0.1501
26911SOL    HW284011   1.866   9.941  10.910  2.8907 -0.1752 -1.1016
26912SOL     OW84012   5.592   1.692   4.793  0.1137  0.9275  0.6290
26912SOL    HW184013   5.593   1.618   4.732 -2.0788  2.1255 -0.9834
26912SOL    HW284014   5.542   1.660   4.868 -0.2639  0.5524  0.2238
26913SOL     OW84015  10.430   7.218   7.124 -0.0972 -0.4331  0.3367
26913SOL    HW184016  10.523   7.199   7.116  0.1395  0.1915  1.4274
26913SOL    HW284017  10.423   7.312   7.114 -0.7528 -0.5914 -0.7950
26914SOL     OW84018   8.957   5.862   1.338 -0.6579  1.0843 -0.2506
26914SOL    HW184019   8.911   5.782   1.365 -1.5023  1.9394  0.9426
26914SOL    HW284020   8.958   5.858   1.243 -0.8992 -0.2319 -0.2167
26915SOL     OW84021   1.176   5.466   6.392  0.3887  0.3256 -0.6893
26915SOL    HW184022   1.138   5.468   6.479  0.6506 -0.4060 -0.5558
26915SOL    HW284023   1.105   5.435   6.335  1.0681 -2.2004 -0.2662
26916SOL     OW84024   9.388   1.583   8.620  0.1777 -0.2079 -0.5218
26916SOL    HW184025   9.403   1.532   8.699  0.4505  0.0127 -0.4301
26916SOL    HW284026   9.295   1.606   8.623  0.2199 -0.0872 -0.1993
26917SOL     OW84027   7.928   1.181   9.087  0.0438  0.2706  0.2644
26917SOL    HW184028   7.916   1.180   8.992  2.3376  0.9544 -0.0894
26917SOL    HW284029   7.997   1.117   9.103 -0.2140  0.2693  1.4702
26918SOL     OW84030   4.078   3.944   7.458 -0.5241 -0.1807 -0.2508
26918SOL    HW184031   4.157   3.981   7.497 -1.2349  1.7884 -0.5707
26918SOL    HW284032   4.108   3.901   7.378  0.5962 -2.1120  1.1009
26919SOL     OW84033   1.804   1.834   3.238 -0.3712  0.0500 -0.1207
26919SOL    HW184034   1.794   1.791   3.153 -1.9280 -1.3829  0.7377
26919SOL    HW284035   1.717   1.865   3.260 -0.2263 -0.5192  1.4127
26920SOL     OW84036   5.102   0.447   0.669  0.5923  0.3935  0.1455
26920SOL    HW184037   5.156   0.434   0.590  0.1658  0.0738 -0.0961
26920SOL    HW284038   5.130   0.532   0.702  1.8948 -0.1511  0.5304
26921SOL     OW84039   6.852  10.470  10.210 -0.1222 -0.0971  0.1810
26921SOL    HW184040   6.896  10.518  10.139 -2.3275 -0.9327 -1.9089
26921SOL    HW284041   6.811  10.538  10.263  2.5308  0.6193  1.4947
26922SOL     OW84042   9.983   3.012   1.010 -0.3527  0.6182 -0.4155
26922SOL    HW184043   9.977   2.918   0.992 -1.3495  0.3374  1.1784
26922SOL    HW284044  10.055   3.043   0.955  0.2614 -1.1613 -0.6632
26923SOL     OW84045  11.112   3.923   0.600 -0.4888 -0.0799  0.1018
26923SOL    HW184046  11.191   3.974   0.582 -0.6737  0.0815 -0.2633
26923SOL    HW284047  11.093   3.878   0.518 -0.8869  0.0390  0.1249
26924SOL     OW84048   8.351   6.449   3.598 -0.4862 -0.1883 -0.2402
26924SOL    HW184049   8.266   6.418   3.630 -0.4247  0.0562  0.1713
26924SOL    HW284050   8.330   6.528   3.548 -0.4728  0.0827  0.1693
26925SOL     OW84051   2.119  10.445   3.585 -0.2118  0.1261 -0.3274
26925SOL    HW184052   2.053  10.509   3.558 -2.1353 -0.0661  3.4065
26925SOL    HW284053   2.126  10.455   3.679  2.2533 -2.6089 -0.0764
26926SOL     OW84054   9.126  10.007   3.355  0.4391 -0.5069  0.0349
26926SOL    HW184055   9.165  10.055   3.282  1.5280 -1.0645  0.2409
26926SOL    HW284056   9.051   9.961   3.317  0.4064 -0.0136 -0.5118
26927SOL     OW84057   2.217   5.483   4.634  0.0477 -0.3411 -0.1418
26927SOL    HW184058   2.282   5.420   4.664  2.4708  1.9802 -0.1602
26927SOL    HW284059   2.224   5.556   4.696 -1.2931  0.7297 -1.1913
26928SOL     OW84060   9.769   3.437   9.418  0.0049  0.0864  0.6228
26928SOL    HW184061   9.809   3.465   9.335 -2.5216 -0.4323 -0.8918
26928SOL    HW284062   9.760   3.517   9.469 -0.7527  0.9233 -0.7389
26929SOL     OW84063   1.399   5.912   0.545  0.1650  0.2629 -0.6257
26929SOL    HW184064   1.320   5.963   0.527 -0.1545  0.5793  1.3816
26929SOL    HW284065   1.451   5.969   0.602  0.6307 -0.9561  0.1952
26930SOL     OW84066   6.766  10.275   2.420 -0.4309  0.0872  0.9013
26930SOL    HW184067   6.795  10.254   2.331  0.8773  0.7829  1.1276
26930SOL    HW284068   6.817  10.216   2.476 -1.6492 -0.7298  1.1731
26931SOL     OW84069   9.339   9.550   9.086 -0.1740 -0.5500 -0.3208
26931SOL    HW184070   9.385   9.558   9.002 -0.6812  0.1598 -0.5394
26931SOL    HW284071   9.402   9.508   9.144  1.6722  2.5168  0.0752
26932SOL     OW84072   4.006   4.204   0.988  0.2300  0.2220 -0.9284
26932SOL    HW184073   3.992   4.242   0.901 -1.0870  2.3284  0.1042
26932SOL    HW284074   3.918   4.198   1.026  0.8595  0.3940  0.6292
26933SOL     OW84075  10.844   4.331   3.357 -0.5606 -0.1451  0.6054
26933SOL    HW184076  10.890   4.269   3.302 -1.4215 -0.9487  0.7600
26933SOL    HW284077  10.820   4.281   3.435 -0.6312  0.5801  1.0604
26934SOL     OW84078   1.576   3.176   7.008 -0.0785  0.1229 -0.0257
26934SOL    HW184079   1.535   3.092   7.029  1.5308  0.0290  3.4779
26934SOL    HW284080   1.514   3.241   7.040  0.5168  0.0748  1.3248
26935SOL     OW84081   3.489  10.043   1.169 -0.0801 -0.2730 -0.2125
26935SOL    HW184082   3.477  10.136   1.147 -0.8241 -0.5357 -0.9504
26935SOL    HW284083   3.569  10.018   1.122 -0.3493 -0.2228 -0.6993
26936SOL     OW84084   6.329   6.747   4.205 -0.8396 -0.4089 -0.5594
26936SOL    HW184085   6.367   6.835   4.202 -0.7558 -0.3552  1.1620
26936SOL    HW284086   6.281   6.739   4.122  0.0544  0.8240 -1.2378
26937SOL     OW84087   9.215  10.048   5.954  0.3546  0.4068 -0.7351
26937SOL    HW184088   9.219  10.009   5.866  1.2619 -4.2715  1.0713
26937SOL    HW284089   9.304  10.080   5.970  0.9034 -1.0312 -0.7251
26938SOL     OW84090   0.098   3.181  11.201 -0.0196 -0.0475  0.1540
26938SOL    HW184091   0.082   3.087  11.211  1.1868 -0.1989  0.9189
26938SOL    HW284092   0.172   3.186  11.140 -0.0608  0.4008  0.1385
26939SOL     OW84093   2.280   9.594   6.440  0.4343 -0.4242 -0.5605
26939SOL    HW184094   2.351   9.655   6.460 -0.8116  1.6291 -2.0411
26939SOL    HW284095   2.203   9.649   6.431 -1.2469 -2.5024  0.2031
26940SOL     OW84096   4.880   5.419   7.753 -0.1860  0.1265 -0.3061
26940SOL    HW184097   4.937   5.345   7.775 -0.7930  0.1480  1.5286
26940SOL    HW284098   4.791   5.384   7.764 -0.4776  1.2567  1.1571
26941SOL     OW84099   2.094   2.350   7.113  0.2667 -0.1387 -0.0140
26941SOL    HW184100   2.120   2.263   7.142 -1.3662 -0.5674  0.2711
26941SOL    HW284101   2.157   2.409   7.154  0.8504 -1.1147  0.5273
26942SOL     OW84102   8.340   0.131   0.673  0.3184  0.4234  0.1109
26942SOL    HW184103   8.416   0.175   0.712  0.7990 -1.7270  1.7990
26942SOL    HW284104   8.281   0.116   0.746 -1.5126  1.4827 -1.0782
26943SOL     OW84105  10.836   6.661   0.433  0.6261  0.1663  0.4197
26943SOL    HW184106  10.751   6.661   0.476  0.4570 -0.7268  0.0918
26943SOL    HW284107  10.817   6.687   0.343  0.9016  1.4140  0.6912
26944SOL     OW84108  10.286   9.805   4.445  0.3223 -0.0132  0.1149
26944SOL    HW184109  10.344   9.810   4.521 -0.0350 -1.7024  0.5244
26944SOL    HW284110  10.280   9.896   4.414  2.9448  0.2760  0.2266
26945SOL     OW84111   8.153  10.348   6.105 -0.4354 -0.4267  0.6763
26945SOL    HW184112   8.168  10.436   6.138  2.2256 -0.7518  0.5258
26945SOL    HW284113   8.174  10.353   6.012 -1.8845 -0.8764  0.3033
26946SOL     OW84114   5.703   7.274   3.158 -0.1341 -0.3359 -0.0351
26946SOL    HW184115   5.663   7.206   3.104 -0.6070 -0.1255  0.0448
26946SOL    HW284116   5.772   7.228   3.207  2.1258 -0.0721 -2.6935
26947SOL     OW84117   3.453   8.780   9.671  0.2134  0.0170 -0.4898
26947SOL    HW184118   3.474   8.866   9.706 -0.2859  1.1672 -2.7778
26947SOL    HW284119   3.358   8.781   9.657  0.3204 -0.5096 -1.4067
26948SOL     OW84120   5.730   0.408   6.827 -0.3036 -0.4059 -0.0097
26948SOL    HW184121   5.735   0.422   6.732 -0.0388 -0.9139 -0.0721
26948SOL    HW284122   5.705   0.494   6.862  1.9922  0.4799 -0.3224
26949SOL     OW84123   6.461   1.661   3.204  0.6259  0.0915 -0.2236
26949SOL    HW184124   6.369   1.681   3.191  1.0252  2.0729 -0.4067
26949SOL    HW284125   6.465   1.622   3.292 -0.4772 -1.0019 -0.6319
26950SOL     OW84126   5.147   9.399   9.008  0.0332  0.3803  0.2880
26950SOL    HW184127   5.098   9.394   9.090  0.0245  0.6500  0.3016
26950SOL    HW284128   5.236   9.371   9.031 -0.1578 -0.3021  0.2209
26951SOL     OW84129   2.725   5.178   3.101  0.0051  0.0397  0.0522
26951SOL    HW184130   2.664   5.140   3.038  0.6836  0.0658 -0.6318
26951SOL    HW284131   2.788   5.108   3.119  0.3396  0.3280  0.0075
26952SOL     OW84132   5.218   6.004   0.829 -0.1801  0.2899 -0.4281
26952SOL    HW184133   5.214   6.100   0.824 -0.9938  0.3000  0.1933
26952SOL    HW284134   5.267   5.978   0.751 -1.2656  1.1210 -1.4358
26953SOL     OW84135   5.720   1.779  10.094  0.1049  0.1768  0.4227
26953SOL    HW184136   5.691   1.819  10.012 -1.1569 -0.3418  0.5869
26953SOL    HW284137   5.719   1.850  10.158  0.7098  0.4970  0.0839
26954SOL     OW84138   6.150   3.660   0.687 -0.3639  0.5470  1.1420
26954SOL    HW184139   6.229   3.610   0.665 -0.5168  0.5478  0.5641
26954SOL    HW284140   6.182   3.734   0.739  0.0928  0.8398  0.4651
26955SOL     OW84141   5.761   8.565   0.901  0.8854 -0.4250  0.0941
26955SOL    HW184142   5.762   8.491   0.962 -0.9764  0.5066  1.3190
26955SOL    HW284143   5.707   8.536   0.828  0.8244 -0.5521  0.1904
26956SOL     OW84144   4.327   1.197   9.612  0.4466 -0.6047 -0.1100
26956SOL    HW184145   4.378   1.129   9.655 -0.2140 -2.0751 -1.5298
26956SOL    HW284146   4.391   1.244   9.557  0.7992 -0.4342  0.4357
26957SOL     OW84147  10.627   2.883   3.173 -0.8916 -0.4664  0.2393
26957SOL    HW184148  10.575   2.891   3.253  0.1108 -2.7008  1.1959
26957SOL    HW284149  10.676   2.965   3.169  0.7395 -1.1242  3.2390
26958SOL     OW84150   2.608   7.852   3.749 -0.5202 -0.7210 -0.3590
26958SOL    HW184151   2.538   7.883   3.693 -0.1992  2.1009  0.6511
26958SOL    HW284152   2.673   7.816   3.689 -1.5303 -0.6794 -1.5218
26959SOL     OW84153   7.880  11.008   9.469  0.4827 -0.3879  0.0826
26959SOL    HW184154   7.806  10.950   9.488 -0.3544  0.0385 -1.6509
26959SOL    HW284155   7.841  11.084   9.426  2.0652 -1.0144 -2.7065
26960SOL     OW84156   5.548   3.601   3.256  0.3021 -0.0101  0.1021
26960SOL    HW184157   5.514   3.561   3.176 -0.1243 -2.3982  1.3576
26960SOL    HW284158   5.609   3.536   3.291 -1.1289 -0.0737  2.7688
26961SOL     OW84159   0.963  10.340   4.773 -0.0822 -0.2724  0.1525
26961SOL    HW184160   1.033  10.397   4.804  1.0050 -2.0160  1.0698
26961SOL    HW284161   0.910  10.322   4.850 -0.8753  0.0863 -0.2944
26962SOL     OW84162   3.041   6.547   0.875  0.0459  0.1348  0.1040
26962SOL    HW184163   3.042   6.491   0.797  1.1027 -0.2352  0.3581
26962SOL    HW284164   3.017   6.634   0.842  3.5088  0.7545 -1.2441
26963SOL     OW84165   1.868   2.701   9.728  0.4425  0.1781  0.0399
26963SOL    HW184166   1.944   2.760   9.731 -0.2058  0.9778  1.4953
26963SOL    HW284167   1.880   2.652   9.647  1.9581  1.0376 -0.3020
26964SOL     OW84168   0.762   1.373   1.010  0.1176  0.2017 -0.8884
26964SOL    HW184169   0.849   1.364   1.050 -0.4374 -0.2048  0.2884
26964SOL    HW284170   0.722   1.447   1.056 -0.0552  0.5863 -1.6403
26965SOL     OW84171   7.205   5.157   9.658  0.1749 -0.6282  0.0765
26965SOL    HW184172   7.235   5.099   9.728 -1.3544 -1.9864 -0.3460
26965SOL    HW284173   7.124   5.196   9.691 -0.1204 -0.6376 -0.6078
26966SOL     OW84174   4.688   4.244   5.202 -0.2245  0.2671  0.0370
26966SOL    HW184175   4.777   4.269   5.228 -0.8328  0.5098  2.0149
26966SOL    HW284176   4.647   4.326   5.174 -0.3184  0.4388  0.6685
26967SOL     OW84177   1.641  10.522   2.094  0.1307  0.0658  0.4963
26967SOL    HW184178   1.723  10.549   2.134  0.1862 -0.2021  0.5677
26967SOL    HW284179   1.637  10.428   2.109  0.1490 -0.0376 -0.1289
26968SOL     OW84180   9.216   9.323   4.553 -0.1299  0.1621 -0.3720
26968SOL    HW184181   9.308   9.323   4.578 -0.2207  0.3439 -0.0332
26968SOL    HW284182   9.215   9.361   4.466  0.0362  0.8474 -0.0782
26969SOL     OW84183   6.731   2.688   8.076  0.5841 -1.0682  1.1601
26969SOL    HW184184   6.784   2.608   8.076  1.9003 -0.2179  0.4693
26969SOL    HW284185   6.778   2.748   8.133  1.0174  0.1048 -0.3839
26970SOL     OW84186   2.719  10.131   2.970 -0.3542 -0.8359  0.4075
26970SOL    HW184187   2.771  10.137   3.051  1.9237 -0.1279 -1.0207
26970SOL    HW284188   2.696  10.038   2.964 -1.4323 -0.7429  2.3352
26971SOL     OW84189   0.617   4.251  10.463 -0.9709 -0.0046 -0.1603
26971SOL    HW184190   0.653   4.340  10.456  1.1767 -0.9190 -1.8738
26971SOL    HW284191   0.535   4.255  10.414 -1.5966  1.3171  0.9181
26972SOL     OW84192   1.970   9.038   0.620  0.6279  0.5631 -0.4006
26972SOL    HW184193   1.965   9.083   0.536 -0.5422 -0.7028 -1.0560
26972SOL    HW284194   1.883   8.999   0.631  1.1017 -0.1782  0.8860
26973SOL     OW84195   4.798   3.612   0.633 -0.6386  0.7408 -0.3855
26973SOL    HW184196   4.867   3.548   0.650 -0.7665 -0.1950 -2.9820
26973SOL    HW284197   4.836   3.673   0.570 -2.3598 -0.2869 -2.5562
26974SOL     OW84198   3.719   8.379   7.822 -0.4443 -0.1568 -0.1299
26974SOL    HW184199   3.729   8.289   7.790 -0.3812  0.2241 -1.2082
26974SOL    HW284200   3.797   8.395   7.874 -0.4990 -0.7524  0.1488
26975SOL     OW84201   3.338   9.465  11.153  0.5753 -0.0646 -0.1463
26975SOL    HW184202   3.273   9.535  11.154  0.3121 -0.2935  1.5752
26975SOL    HW284203   3.296   9.394  11.105  0.6013  0.7025 -1.3556
26976SOL     OW84204   5.392   5.880   8.792 -0.3437  0.8084 -0.2271
26976SOL    HW184205   5.311   5.906   8.748 -0.4333 -0.3856 -0.7847
26976SOL    HW284206   5.433   5.963   8.816 -1.6581  1.4340 -0.0557
26977SOL     OW84207   7.341   3.514   3.628 -0.3984  0.4461  0.5147
26977SOL    HW184208   7.292   3.587   3.591  0.0221 -0.6432 -2.4270
26977SOL    HW284209   7.275   3.448   3.648 -0.4700  0.3760  0.0446
26978SOL     OW84210   4.813   0.412   1.041 -0.1252 -0.0207 -0.3702
26978SOL    HW184211   4.893   0.376   1.004  0.3332 -0.0805  0.6497
26978SOL    HW284212   4.822   0.507   1.029  0.0683 -0.0319 -0.3115
26979SOL     OW84213   5.037  10.607   3.170 -0.3717 -0.4333  0.0313
26979SOL    HW184214   4.976  10.679   3.154 -0.2695 -0.1834  0.7298
26979SOL    HW284215   5.055  10.611   3.264  0.5082 -0.6731 -0.1190
26980SOL     OW84216   5.264   2.733   9.089  0.1054  0.3501 -0.4025
26980SOL    HW184217   5.229   2.661   9.037  0.5308 -0.5006  0.4683
26980SOL    HW284218   5.203   2.742   9.162  0.8207 -0.1102  0.2767
26981SOL     OW84219   8.018  10.607   1.760  0.1590  0.0967 -0.1777
26981SOL    HW184220   8.053  10.519   1.772  2.8654  1.2844  1.5436
26981SOL    HW284221   8.068  10.642   1.686 -1.2042  0.1062 -1.1336
26982SOL     OW84222   7.237   6.940   0.070 -0.1769  0.0250  0.2419
26982SOL    HW184223   7.180   6.903   0.003  1.4538 -2.5542  0.1470
26982SOL    HW284224   7.187   6.934   0.151 -0.3776 -1.4631  0.0315
26983SOL     OW84225   2.855   2.840   6.724  0.3895 -0.5197 -0.2746
26983SOL    HW184226   2.787   2.864   6.787 -0.0224  2.1616 -1.5826
26983SOL    HW284227   2.808   2.794   6.654  0.8279 -3.3802  1.1701
26984SOL     OW84228   3.750   0.624   7.944 -0.4501  0.6620  0.5089
26984SOL    HW184229   3.796   0.648   7.864 -0.0477  0.6458  0.7301
26984SOL    HW284230   3.660   0.653   7.930 -0.3426  0.8095  0.1191
26985SOL     OW84231   6.365   5.947   6.681 -0.0151  0.3969  0.4376
26985SOL    HW184232   6.358   5.909   6.769  2.5539  1.6132  1.2562
26985SOL    HW284233   6.325   6.033   6.688  0.5613  0.6580  0.5279
26986SOL     OW84234   0.789  10.961   5.585 -0.2105  0.1728  0.3400
26986SOL    HW184235   0.713  10.913   5.551 -0.8416  0.0948  1.7948
26986SOL    HW284236   0.831  10.898   5.644  0.8069  0.3330 -0.2035
26987SOL     OW84237   2.880  10.893   8.803  0.5855  0.1128  0.4590
26987SOL    HW184238   2.882  10.909   8.708  3.6323 -1.7475  0.0539
26987SOL    HW284239   2.799  10.845   8.818  0.6911 -0.7704 -1.4843
26988SOL     OW84240   2.207  10.344   0.153  0.3242 -0.3477  0.1047
26988SOL    HW184241   2.203  10.439   0.163  0.2042 -0.4256  0.8737
26988SOL    HW284242   2.218  10.330   0.059 -1.9631  0.3718 -0.3378
26989SOL     OW84243   5.925   9.845   5.863  0.1400 -0.2471 -0.1376
26989SOL    HW184244   5.859   9.914   5.876 -1.1923 -1.9148  3.1916
26989SOL    HW284245   6.002   9.876   5.910  1.6064  1.2919 -3.2757
26990SOL     OW84246   7.676  11.378   6.063 -0.3015 -0.2838  0.3669
26990SOL    HW184247   7.744  11.322   6.098 -0.9954 -1.3144  0.1009
26990SOL    HW284248   7.613  11.387   6.134  0.3959  1.2226  0.8529
26991SOL     OW84249  10.387   2.483   7.902 -0.5785  0.2245 -0.1809
26991SOL    HW184250  10.409   2.548   7.969 -0.1301  0.0294 -0.1326
26991SOL    HW284251  10.357   2.534   7.827 -0.4026  0.4759 -0.0789
26992SOL     OW84252   6.583   6.389   7.872 -0.1703  0.2128  0.0645
26992SOL    HW184253   6.638   6.440   7.811 -2.5527  1.0839 -1.4986
26992SOL    HW284254   6.635   6.384   7.952  3.2851 -1.2385 -2.0345
26993SOL     OW84255   9.698   8.614   0.981 -0.1248  0.0973 -0.3676
26993SOL    HW184256   9.722   8.569   1.062  0.1619 -0.5433 -0.7995
26993SOL    HW284257   9.750   8.571   0.913 -0.8983  0.1447 -1.0041
26994SOL     OW84258   6.552   6.400   3.473 -0.3752 -0.2827  0.1242
26994SOL    HW184259   6.471   6.440   3.443  0.0859  0.9760  0.5158
26994SOL    HW284260   6.554   6.418   3.567  0.3685 -0.2928  0.1157
26995SOL     OW84261   2.317   7.851   3.807  0.2078 -0.4744  0.1332
26995SOL    HW184262   2.230   7.813   3.820 -0.1427  0.2115 -0.1551
26995SOL    HW284263   2.333   7.901   3.887  0.5163 -0.9110  0.3552
26996SOL     OW84264   5.651   8.941   1.128  0.3585  0.1550  0.5074
26996SOL    HW184265   5.562   8.974   1.117  0.3321 -0.5286 -1.9881
26996SOL    HW284266   5.707   9.009   1.091  0.9422  0.7394  2.3872
26997SOL     OW84267  10.677   2.662   2.366  0.1938  0.3576 -0.7165
26997SOL    HW184268  10.641   2.716   2.296  1.9891  1.1026 -1.1093
26997SOL    HW284269  10.686   2.575   2.326 -1.3077  0.0882 -0.5375
26998SOL     OW84270   7.068   8.949   1.032 -0.0900  0.3993  0.3658
26998SOL    HW184271   7.096   9.015   0.968  0.0492 -0.4850 -0.5077
26998SOL    HW284272   7.109   8.976   1.114  0.7173  0.8851 -0.1825
26999SOL     OW84273  10.136  10.725   8.972 -0.1474  0.4745  0.4924
26999SOL    HW184274  10.167  10.806   8.932  0.8388  0.0174  0.2901
26999SOL    HW284275  10.210  10.694   9.023 -0.8440  0.2000  1.3594
27000SOL     OW84276   2.601   8.748   1.427 -0.4337 -0.0116  0.0575
27000SOL    HW184277   2.554   8.722   1.507  0.2838 -0.4793  0.3322
27000SOL    HW284278   2.584   8.676   1.366  0.5064 -0.5342  0.3965
27001SOL     OW84279   6.714   3.372   7.558 -0.2156 -0.1232  0.2669
27001SOL    HW184280   6.694   3.319   7.635  1.1709  1.0839  1.5330
27001SOL    HW284281   6.700   3.462   7.588  3.0326  0.5569  0.0568
27002SOL     OW84282   2.316   8.815   8.512  0.3391  0.4671  0.6344
27002SOL    HW184283   2.333   8.909   8.519  2.8975  0.0907  0.4314
27002SOL    HW284284   2.361   8.777   8.588  0.3968 -0.6858  0.0434
27003SOL     OW84285   0.998   2.603   1.575 -0.6119 -0.5308 -0.4275
27003SOL    HW184286   0.925   2.545   1.596 -0.9095 -0.1938 -0.5174
27003SOL    HW284287   1.076   2.555   1.602 -0.7677 -1.4723 -1.5553
27004SOL     OW84288   4.205   1.874   6.491 -0.2211  0.3359 -0.3020
27004SOL    HW184289   4.275   1.815   6.464  0.0331 -0.2048  1.4161
27004SOL    HW284290   4.128   1.818   6.500 -0.2930  0.4908  0.0706
27005SOL     OW84291  10.491   9.378   0.347 -0.5100 -0.0228 -0.1005
27005SOL    HW184292  10.423   9.435   0.310  1.0732  1.4280 -0.9079
27005SOL    HW284293  10.502   9.308   0.282 -0.4257  0.3967 -0.5455
27006SOL     OW84294  10.462   6.234   7.933 -0.4801 -0.2227 -0.3697
27006SOL    HW184295  10.444   6.255   8.025  0.8975  0.0126 -0.1235
27006SOL    HW284296  10.541   6.180   7.937  0.5001  1.0676 -1.4924
27007SOL     OW84297   9.211  10.829   6.098 -0.1935  0.3139  0.0274
27007SOL    HW184298   9.194  10.896   6.032  0.8654 -1.9145 -2.7231
27007SOL    HW284299   9.133  10.773   6.095  0.7159 -0.9829 -1.0026
27008SOL     OW84300   5.642   4.597   5.217  0.4622 -0.3253  0.1823
27008SOL    HW184301   5.594   4.651   5.280  0.2948  2.2417 -1.9917
27008SOL    HW284302   5.732   4.627   5.224  0.3834  0.2084 -1.0111
27009SOL     OW84303   4.725   4.967   7.258  0.1182  0.0858  0.5016
27009SOL    HW184304   4.794   4.963   7.325  0.7219 -2.3913 -0.1695
27009SOL    HW284305   4.644   4.958   7.307  0.3154  1.6750  1.1770
27010SOL     OW84306   4.883   3.025   0.432 -0.5223 -0.2962 -0.2153
27010SOL    HW184307   4.835   3.053   0.354 -1.7306  0.0598  0.6310
27010SOL    HW284308   4.935   3.102   0.455 -2.5314  0.7518  1.0994
27011SOL     OW84309   5.491   4.535   8.987 -0.1159  0.6943 -0.3469
27011SOL    HW184310   5.550   4.465   9.015  1.1459  1.9405  0.2278
27011SOL    HW284311   5.420   4.490   8.942  0.7724 -0.9338 -0.1868
27012SOL     OW84312   3.454  10.010   2.751 -0.6853 -0.0348 -0.4104
27012SOL    HW184313   3.383  10.069   2.774  1.0864  2.0203  0.0527
27012SOL    HW284314   3.487  10.042   2.668 -0.2506 -0.9291 -0.6008
27013SOL     OW84315   0.554   4.794   3.401 -0.0285  0.5018 -0.2381
27013SOL    HW184316   0.595   4.796   3.488 -0.2740  1.2298 -0.1311
27013SOL    HW284317   0.627   4.793   3.340  0.1796  1.8882 -0.0548
27014SOL     OW84318   6.181   3.301   8.345 -0.4711  0.1225  0.0140
27014SOL    HW184319   6.115   3.273   8.282 -0.9453  2.3788 -0.5758
27014SOL    HW284320   6.160   3.393   8.362  2.1294  0.7177  0.3373
27015SOL     OW84321   7.473   3.675   4.506  0.2394 -0.3566  0.1299
27015SOL    HW184322   7.501   3.710   4.422 -0.3978 -0.0555  0.0337
27015SOL    HW284323   7.543   3.698   4.567 -0.2211  1.2238  0.0975
27016SOL     OW84324   0.356   0.409   4.385  0.6685 -0.4825 -0.5526
27016SOL    HW184325   0.432   0.358   4.412 -0.6146 -2.6150 -0.7262
27016SOL    HW284326   0.295   0.403   4.458  0.4729  0.8646 -0.5704
27017SOL     OW84327   0.774   6.827   7.030  0.1154  0.0653  0.1789
27017SOL    HW184328   0.735   6.741   7.046 -0.2893 -0.5550 -3.3702
27017SOL    HW284329   0.867   6.808   7.016  0.0314  0.1746 -0.5713
27018SOL     OW84330  10.284   6.423   6.630  0.5777  0.1596 -0.1222
27018SOL    HW184331  10.262   6.507   6.670 -0.8573 -1.5557  3.0994
27018SOL    HW284332  10.203   6.394   6.588  0.6374 -0.2578  0.0437
27019SOL     OW84333   7.909   8.598   6.715  0.0240 -0.0599 -0.3681
27019SOL    HW184334   7.836   8.660   6.709  0.0792  0.1612  0.9417
27019SOL    HW284335   7.930   8.595   6.808  0.7082 -1.2715 -0.5436
27020SOL     OW84336   9.965   1.291   5.436 -0.0071 -0.4928 -0.1439
27020SOL    HW184337   9.961   1.367   5.377  0.9222  0.0658  0.4833
27020SOL    HW284338  10.058   1.281   5.456 -0.4245  1.2406  3.5941
27021SOL     OW84339   4.308   6.257   4.070  0.3908  0.4175  0.2995
27021SOL    HW184340   4.221   6.249   4.110  0.6388 -2.7089  0.4833
27021SOL    HW284341   4.331   6.349   4.081 -1.9824  0.8936  2.1884
27022SOL     OW84342   1.136   8.588   5.648 -0.1529 -0.5077 -0.3806
27022SOL    HW184343   1.105   8.620   5.563  0.5429 -1.2239 -0.9163
27022SOL    HW284344   1.229   8.569   5.634  0.3927  0.9055  0.9983
27023SOL     OW84345   2.173   8.320   8.616  0.6290  0.7674  0.0736
27023SOL    HW184346   2.229   8.398   8.608  0.9886  0.5253  0.1938
27023SOL    HW284347   2.216   8.267   8.682  0.0251  0.7626  0.4693
27024SOL     OW84348   9.435   1.961   9.494  0.2623  0.1754  0.6707
27024SOL    HW184349   9.509   1.900   9.503 -0.2676 -0.2195  2.9328
27024SOL    HW284350   9.471   2.046   9.520 -0.2116 -0.1709  2.6383
27025SOL     OW84351  11.144   2.636   5.772  0.9337  0.1578  0.0583
27025SOL    HW184352  11.218   2.670   5.822  0.2495  0.4855  0.8770
27025SOL    HW284353  11.140   2.543   5.795  1.5574 -0.0475 -0.6043
27026SOL     OW84354   1.917   9.066   3.221  1.1729  0.4587  0.1909
27026SOL    HW184355   1.898   9.114   3.302 -2.2300 -0.9623  0.4004
27026SOL    HW284356   1.871   8.983   3.230  2.6862 -0.7760 -2.2531
27027SOL     OW84357   7.960   5.875  10.571  0.1833 -0.0070  0.0029
27027SOL    HW184358   7.919   5.875  10.485  0.0066 -0.6276  0.0765
27027SOL    HW284359   8.040   5.926  10.560  1.8142 -2.6168 -1.3693
27028SOL     OW84360  10.755   8.489   3.016 -0.3405 -0.6818 -0.0838
27028SOL    HW184361  10.672   8.465   3.059  0.8949 -1.7287  1.8629
27028SOL    HW284362  10.744   8.460   2.926 -2.3890 -0.0429 -0.0957
27029SOL     OW84363   4.591   3.894   1.377  0.6999 -0.4005  0.4970
27029SOL    HW184364   4.652   3.926   1.311  0.7303  0.4219  0.9230
27029SOL    HW284365   4.571   3.804   1.349  0.8440 -0.1222 -0.5350
27030SOL     OW84366   7.503   8.485   7.518  0.1626  0.4747  0.0360
27030SOL    HW184367   7.520   8.433   7.439 -0.0636  1.6022 -0.7732
27030SOL    HW284368   7.491   8.419   7.587  2.3630 -0.4996 -0.4236
27031SOL     OW84369   4.382   1.176   7.865 -0.2082 -0.4511 -0.0690
27031SOL    HW184370   4.374   1.081   7.873  0.1943 -0.7173 -2.1768
27031SOL    HW284371   4.458   1.189   7.808 -0.0895  1.1652  0.3861
27032SOL     OW84372   6.850   1.277   7.861  0.2303 -0.2739 -0.2854
27032SOL    HW184373   6.894   1.229   7.931 -0.8918  0.7132  1.1588
27032SOL    HW284374   6.872   1.369   7.877 -2.1644  0.2441  0.4483
27033SOL     OW84375  10.325   4.443   0.169  0.2348 -0.1532 -0.3180
27033SOL    HW184376  10.262   4.508   0.138  0.9120  0.3978 -0.5526
27033SOL    HW284377  10.271   4.368   0.195 -0.4245 -0.4338 -2.2759
27034SOL     OW84378   2.887   8.673   1.873 -0.3257  0.4521  0.3126
27034SOL    HW184379   2.949   8.601   1.882 -0.1269  0.6203  0.2925
27034SOL    HW284380   2.802   8.634   1.896 -0.2717  0.1295 -0.0210
27035SOL     OW84381   7.598   8.298   0.169  0.8967  0.0568 -0.4622
27035SOL    HW184382   7.639   8.370   0.217 -0.7545  0.1978  0.8289
27035SOL    HW284383   7.537   8.340   0.109  0.3758 -0.2305 -0.1440
27036SOL     OW84384   7.266  10.092   9.476  0.2972  0.2025  0.6187
27036SOL    HW184385   7.288  10.098   9.383  0.0162  2.4091  0.6445
27036SOL    HW284386   7.338  10.137   9.521 -1.4971  2.7842  1.0978
27037SOL     OW84387   7.704   2.507   0.643 -0.5623  0.7483 -0.4120
27037SOL    HW184388   7.712   2.503   0.548  0.5844  1.7496 -0.3841
27037SOL    HW284389   7.774   2.451   0.676 -0.4926  0.9876 -0.1496
27038SOL     OW84390   8.434   2.441   5.699 -0.5426  0.2636 -0.0832
27038SOL    HW184391   8.446   2.363   5.645 -0.2663  0.9426 -1.0167
27038SOL    HW284392   8.508   2.441   5.759  0.2034  0.5141 -0.9783
27039SOL     OW84393   6.030   1.423   3.774 -0.7600 -0.1870 -0.4402
27039SOL    HW184394   5.967   1.353   3.791 -0.1730 -0.4037  1.0129
27039SOL    HW284395   5.978   1.492   3.733 -1.4004 -1.3383 -1.6467
27040SOL     OW84396   8.621   2.649   5.594 -0.1476 -0.1062 -1.0511
27040SOL    HW184397   8.566   2.572   5.604 -1.3268  0.8924  0.9507
27040SOL    HW284398   8.698   2.631   5.649  1.6683 -1.5035 -3.8494
27041SOL     OW84399   2.607   5.123   9.185  0.4486  0.4489  0.0163
27041SOL    HW184400   2.681   5.183   9.177  0.8779  0.1973  1.6877
27041SOL    HW284401   2.614   5.088   9.274 -1.1978 -0.2337 -0.0882
27042SOL     OW84402   5.195   5.758   7.578 -0.0282 -0.1435  0.8446
27042SOL    HW184403   5.288   5.759   7.555 -0.0282  0.8901  0.8667
27042SOL    HW284404   5.163   5.676   7.540  0.6296  0.0751 -0.2355
27043SOL     OW84405   9.336   1.639   9.641 -0.2304 -0.7832 -0.4409
27043SOL    HW184406   9.330   1.618   9.548 -2.2916 -1.5076 -0.2020
27043SOL    HW284407   9.290   1.723   9.650  0.7636 -0.2451 -0.1817
27044SOL     OW84408   2.082   8.036   1.829  0.7327 -0.1928  0.2801
27044SOL    HW184409   2.060   8.128   1.842  1.3355 -0.1069  0.7346
27044SOL    HW284410   2.039   8.012   1.746  0.5710  0.4899  0.1623
27045SOL     OW84411  11.372   0.628   8.537  0.2468 -0.2508 -0.2855
27045SOL    HW184412  11.318   0.579   8.600 -1.0371  1.5162  0.0466
27045SOL    HW284413  11.460   0.628   8.576 -0.1171 -0.7842  0.5735
27046SOL     OW84414   1.680   1.948   8.684  0.4539  0.0737 -0.1691
27046SOL    HW184415   1.749   1.913   8.628  0.4316 -1.6313  0.8119
27046SOL    HW284416   1.711   2.035   8.708  2.0062 -0.4305 -0.2182
27047SOL     OW84417   8.878  10.103   5.920  0.2245 -0.1099  0.0710
27047SOL    HW184418   8.933  10.181   5.908  2.7382 -1.7894 -0.0831
27047SOL    HW284419   8.938  10.036   5.951 -1.6553 -2.2700 -0.6733
27048SOL     OW84420   5.015   4.099  10.682 -0.0023 -0.2459  0.3501
27048SOL    HW184421   4.985   4.188  10.702  1.1750  0.1723  0.3360
27048SOL    HW284422   4.937   4.045  10.693 -1.2226  1.0129 -1.3767
27049SOL     OW84423   5.501   8.697   1.240 -0.2399  0.2940  0.1687
27049SOL    HW184424   5.566   8.741   1.185  0.1663 -0.3677  0.1121
27049SOL    HW284425   5.504   8.606   1.212 -1.2268  0.2566  0.1359
27050SOL     OW84426  10.865   8.984   4.609  0.8142 -0.0778 -0.5338
27050SOL    HW184427  10.867   9.031   4.526  1.9335 -1.1298 -1.1358
27050SOL    HW284428  10.890   9.048   4.674  0.1501  0.7052 -1.0254
27051SOL     OW84429   0.214   8.055   6.369 -0.1777  0.0187 -0.0462
27051SOL    HW184430   0.287   8.043   6.309 -1.1886 -1.1155 -1.0989
27051SOL    HW284431   0.146   8.099   6.318 -1.0010 -0.8334  0.2699
27052SOL     OW84432  11.056   3.344   5.285 -0.0477  0.0696  0.1993
27052SOL    HW184433  11.010   3.302   5.212 -0.1833 -1.3927  1.0686
27052SOL    HW284434  11.009   3.312   5.363 -1.1830  3.1156  0.9099
27053SOL     OW84435   6.867   6.724   3.094 -0.7020 -0.0041 -0.4255
27053SOL    HW184436   6.841   6.784   3.023  0.2003  0.4991 -0.3400
27053SOL    HW284437   6.906   6.650   3.049 -1.7760 -0.5271 -0.5293
27054SOL     OW84438   2.713   6.954   0.248 -0.6968  0.1009 -0.2348
27054SOL    HW184439   2.717   7.017   0.176 -0.5959  0.5988  0.2054
27054SOL    HW284440   2.744   6.872   0.210  0.2380  0.5766 -0.5161
27055SOL     OW84441   5.635   1.383   4.672 -0.4794 -0.5789 -0.4666
27055SOL    HW184442   5.623   1.442   4.597  0.6825 -0.1327 -0.3333
27055SOL    HW284443   5.726   1.354   4.665 -0.5790 -1.1235  0.3575
27056SOL     OW84444  11.315   1.506   7.292 -0.4342  0.1510 -0.4460
27056SOL    HW184445  11.356   1.591   7.312 -0.7610  0.5081 -1.2345
27056SOL    HW284446  11.362   1.443   7.347  0.5948  0.6748 -0.6924
27057SOL     OW84447   2.925   9.951   1.783 -0.3325  0.1526  0.0629
27057SOL    HW184448   2.842   9.904   1.776 -0.8771  1.2184 -0.9894
27057SOL    HW284449   2.988   9.895   1.738 -0.9341  0.3314 -1.0303
27058SOL     OW84450   2.599   6.750   8.695  0.0896  0.0008  0.2481
27058SOL    HW184451   2.589   6.741   8.790  1.9608  0.0991  0.4897
27058SOL    HW284452   2.511   6.734   8.660 -1.0669  1.7276  2.0993
27059SOL     OW84453   2.172   8.257   6.583 -0.1669  0.0708  0.3612
27059SOL    HW184454   2.212   8.333   6.626 -0.1328  1.5695 -2.1246
27059SOL    HW284455   2.119   8.216   6.651 -1.0535  2.9589  1.5653
27060SOL     OW84456   6.296   5.247   6.149 -0.3114  1.0251  0.0117
27060SOL    HW184457   6.366   5.308   6.128  0.8705 -0.7760 -1.6715
27060SOL    HW284458   6.252   5.231   6.065 -0.1373 -0.8856  0.2323
27061SOL     OW84459   5.563  11.130   6.965 -0.1759 -0.2104  0.1767
27061SOL    HW184460   5.615  11.129   7.046 -1.1751 -1.0607  0.8259
27061SOL    HW284461   5.613  11.077   6.904 -0.8828 -2.2106  1.2265
27062SOL     OW84462   4.364   7.585   6.120 -0.4359 -0.1326 -0.1989
27062SOL    HW184463   4.353   7.618   6.031  0.1234  0.8408  0.0834
27062SOL    HW284464   4.359   7.663   6.175  1.2143 -0.4596  0.4574
27063SOL     OW84465   4.244   1.013  10.735  0.4043 -0.6281  0.3193
27063SOL    HW184466   4.322   1.067  10.727  0.4547 -0.8367 -0.9090
27063SOL    HW284467   4.175   1.073  10.761  0.6706 -0.1633 -0.0358
27064SOL     OW84468   8.830   7.725  11.282  0.0907 -0.2238  0.0194
27064SOL    HW184469   8.857   7.754  11.369  1.4476 -1.2828 -0.0088
27064SOL    HW284470   8.875   7.641  11.269  1.0440  0.5305 -2.2203
27065SOL     OW84471   8.432   2.209   4.701  0.1940 -0.3187 -0.1783
27065SOL    HW184472   8.386   2.246   4.777  0.3603 -0.7768  0.1506
27065SOL    HW284473   8.414   2.115   4.705 -1.2401 -0.1563 -1.7053
27066SOL     OW84474  11.193   6.115   5.268 -0.2046 -0.4851 -0.1797
27066SOL    HW184475  11.195   6.210   5.280  0.1621 -0.2955 -1.5435
27066SOL    HW284476  11.222   6.079   5.352  1.4950  0.6714 -0.2283
27067SOL     OW84477   8.312   6.379   4.227  0.3654 -0.4279 -0.2626
27067SOL    HW184478   8.342   6.390   4.137  0.6616  0.7116 -0.0377
27067SOL    HW284479   8.339   6.459   4.272  0.4829 -1.0992  0.9175
27068SOL     OW84480   3.663   8.402   3.209 -0.0375  0.2656 -0.1663
27068SOL    HW184481   3.616   8.364   3.135 -0.2829 -0.3018  0.2694
27068SOL    HW284482   3.597   8.450   3.258 -0.2846 -0.8712  0.6726
27069SOL     OW84483   4.678  10.686   0.382  0.0068  0.1499  0.5849
27069SOL    HW184484   4.635  10.763   0.420 -1.2037 -0.6416  0.8906
27069SOL    HW284485   4.679  10.622   0.453  0.8613 -0.1680  0.2862
27070SOL     OW84486   8.595   4.615   1.300  0.3782  0.0799  0.5020
27070SOL    HW184487   8.606   4.710   1.294  0.8393  0.0155  0.2770
27070SOL    HW284488   8.610   4.595   1.393 -1.7776  0.4667  0.9771
27071SOL     OW84489   4.639  10.362   4.755 -0.2651 -0.3906 -0.2293
27071SOL    HW184490   4.728  10.351   4.720  0.9637  1.9484  1.8930
27071SOL    HW284491   4.588  10.389   4.679  1.2710  0.1413 -1.1298
27072SOL     OW84492   2.792   6.588   5.420  0.1438  0.1697  0.0122
27072SOL    HW184493   2.795   6.493   5.424  0.5539 -0.0652 -3.0312
27072SOL    HW284494   2.714   6.607   5.368 -0.7855  1.6256  1.8337
27073SOL     OW84495   6.526   2.906   1.144 -0.3757 -0.1370  0.1027
27073SOL    HW184496   6.438   2.870   1.150  0.1549 -1.4593  0.2224
27073SOL    HW284497   6.583   2.830   1.136  0.8806  0.5966  1.4466
27074SOL     OW84498  10.484  10.817   6.961  0.0160  0.1756  0.2144
27074SOL    HW184499  10.509  10.773   6.880  2.8448  1.6450  0.1450
27074SOL    HW284500  10.418  10.760   7.000  0.9456 -2.2917 -1.5381
27075SOL     OW84501  10.500   5.558   6.581  0.2806  0.2930 -0.3773
27075SOL    HW184502  10.486   5.614   6.657  0.6984  1.0517 -0.8429
27075SOL    HW284503  10.457   5.476   6.604  0.4742  0.4785  0.7055
27076SOL     OW84504   9.968   5.792   8.450 -0.5568 -0.7006 -0.2965
27076SOL    HW184505   9.902   5.730   8.483 -2.1746  0.7963 -0.5693
27076SOL    HW284506  10.042   5.737   8.426 -1.6346 -2.4513  0.1871
27077SOL     OW84507   2.783   5.695   3.646  0.2434 -0.2145  0.2932
27077SOL    HW184508   2.722   5.749   3.696 -0.0055  0.4974 -0.7636
27077SOL    HW284509   2.766   5.716   3.555  0.7719 -1.4105 -0.1094
27078SOL     OW84510   0.189   6.864   2.937 -0.1254  0.3787  0.0267
27078SOL    HW184511   0.094   6.855   2.951  0.1938 -1.0544  1.5166
27078SOL    HW284512   0.222   6.904   3.017  0.7284 -0.6164  0.1945
27079SOL     OW84513   8.676   5.992   2.400  0.5553 -0.1249 -0.6689
27079SOL    HW184514   8.660   5.916   2.344 -1.6367  0.3354 -0.7624
27079SOL    HW284515   8.599   6.047   2.388  1.6701  1.6931  0.1063
27080SOL     OW84516   9.340   7.545   6.295  0.4206 -0.3396 -0.7169
27080SOL    HW184517   9.412   7.538   6.359  0.6691  0.8681 -0.8286
27080SOL    HW284518   9.315   7.455   6.277  2.1961 -0.8246 -0.9818
27081SOL     OW84519   0.448  10.879   8.795  0.2659  0.0963 -0.0433
27081SOL    HW184520   0.387  10.934   8.845 -0.6429  0.1542 -1.1766
27081SOL    HW284521   0.392  10.819   8.747  1.2267 -1.5511  0.8146
27082SOL     OW84522   6.987   7.304   9.406 -0.0554  0.2318  0.8140
27082SOL    HW184523   7.016   7.263   9.324 -1.5446  1.6623 -0.4913
27082SOL    HW284524   7.054   7.370   9.425 -0.2517  0.6400  0.1291
27083SOL     OW84525   6.561   6.439  10.046  0.5156  0.0067  0.4740
27083SOL    HW184526   6.513   6.502  10.100  1.4033 -0.6889  2.1705
27083SOL    HW284527   6.587   6.370  10.108 -0.7365 -2.2571 -1.3244
27084SOL     OW84528   3.937   6.176  11.037  0.2146 -0.0876  0.3675
27084SOL    HW184529   3.994   6.102  11.019  0.0634 -0.4835  1.4375
27084SOL    HW284530   3.997   6.249  11.054  0.3869 -0.2507  0.4599
27085SOL     OW84531   8.693   4.525   0.459  0.3536  0.4939 -0.7397
27085SOL    HW184532   8.774   4.475   0.450 -0.2658 -0.6986  0.0079
27085SOL    HW284533   8.691   4.551   0.551 -0.7077 -0.5931 -0.4307
27086SOL     OW84534   3.209   9.072   4.256  0.0213  0.2181  0.0626
27086SOL    HW184535   3.262   9.068   4.176 -1.6720  1.9255 -1.2392
27086SOL    HW284536   3.136   9.012   4.239  0.9457 -1.4011  1.4574
27087SOL     OW84537  11.097   4.280   0.895 -0.3535  0.5721  0.7232
27087SOL    HW184538  11.075   4.285   0.988  0.2403  2.4631  0.8194
27087SOL    HW284539  11.189   4.252   0.894 -0.9847 -1.6475  0.5703
27088SOL     OW84540   2.376   0.994   0.547 -0.5900  0.0485 -0.2221
27088SOL    HW184541   2.379   1.019   0.640  0.5972  0.7034 -0.4107
27088SOL    HW284542   2.436   0.919   0.541  1.8198  1.8851 -0.9374
27089SOL     OW84543   0.708  10.867   3.241 -0.5386  0.4957 -0.7175
27089SOL    HW184544   0.741  10.927   3.307 -1.8844 -0.3481  0.8025
27089SOL    HW284545   0.787  10.836   3.195  0.2175  2.8646 -1.1191
27090SOL     OW84546   7.001   7.828   3.574 -0.0043  0.0075  0.0731
27090SOL    HW184547   7.092   7.854   3.563  0.0234  0.2223  0.7687
27090SOL    HW284548   6.993   7.747   3.523  0.2241  0.6942 -1.1031
27091SOL     OW84549   3.047   3.257   9.401  0.1445  0.2787  0.1391
27091SOL    HW184550   3.004   3.178   9.433  0.3929 -0.4524 -1.2557
27091SOL    HW284551   3.141   3.239   9.412  0.1901  0.6271  0.3536
27092SOL     OW84552   1.849   9.773   2.524 -0.1743  0.4145 -0.7109
27092SOL    HW184553   1.863   9.802   2.614  0.3340  0.7101 -0.8802
27092SOL    HW284554   1.758   9.743   2.522 -0.3027  0.7610 -0.1959
27093SOL     OW84555   5.169   6.791   2.381 -0.3422 -0.6244  0.5518
27093SOL    HW184556   5.142   6.872   2.338  1.7181  0.1564  0.5795
27093SOL    HW284557   5.197   6.733   2.310 -0.7490 -0.8840  0.6010
27094SOL     OW84558   5.422   4.703   7.015  0.0301 -0.1687 -0.4031
27094SOL    HW184559   5.397   4.615   6.988  0.3633 -0.4784  0.2764
27094SOL    HW284560   5.389   4.711   7.104  0.0252  0.3818 -0.4523
27095SOL     OW84561   5.587   1.555   4.478 -0.4858  0.0799 -0.3000
27095SOL    HW184562   5.530   1.523   4.408 -0.4302 -0.9681  0.1143
27095SOL    HW284563   5.598   1.648   4.460  0.6701 -0.4257 -2.4951
27096SOL     OW84564   9.431   2.328   8.603 -0.3694  0.3951 -0.0633
27096SOL    HW184565   9.352   2.377   8.577 -0.9366  0.4036  1.5872
27096SOL    HW284566   9.489   2.395   8.639 -0.7794  0.0255  1.3539
27097SOL     OW84567   7.879   1.971   9.774 -0.1872 -0.1668 -0.2322
27097SOL    HW184568   7.954   2.023   9.803 -0.4994 -1.4497  3.3609
27097SOL    HW284569   7.804   2.030   9.784 -0.2119 -0.3974  1.2449
27098SOL     OW84570   5.449  10.565   6.328  0.0477  0.2083  0.7256
27098SOL    HW184571   5.393  10.522   6.264  0.0330  1.2959 -0.0105
27098SOL    HW284572   5.483  10.642   6.283  2.7750 -0.8067  0.8864
27099SOL     OW84573   6.888   5.066   7.699  0.5235  0.0616  0.0813
27099SOL    HW184574   6.938   4.994   7.660  0.6816 -1.1904  2.4176
27099SOL    HW284575   6.930   5.081   7.783 -0.4333  1.9212  0.2743
27100SOL     OW84576  10.597  10.507   0.864 -0.4857  0.9005 -0.4397
27100SOL    HW184577  10.610  10.421   0.904  1.5760  1.4981  0.2837
27100SOL    HW284578  10.537  10.552   0.924 -0.8368  0.2996 -0.3289
27101SOL     OW84579   5.449   7.044   0.081 -0.2074  0.2743  0.4134
27101SOL    HW184580   5.464   6.979   0.149  0.4889  0.1723  0.1635
27101SOL    HW284581   5.379   7.099   0.116  0.4760  0.5185  1.4195
27102SOL     OW84582   7.079   9.215   8.001  0.6329 -0.1109 -0.4968
27102SOL    HW184583   7.010   9.281   8.011 -1.4265 -2.1901  0.1274
27102SOL    HW284584   7.094   9.183   8.090 -0.0495 -1.9462 -0.9991
27103SOL     OW84585   2.261   6.748   6.006 -0.0041  0.1924  0.0820
27103SOL    HW184586   2.295   6.727   5.919  0.2635  0.1562  0.1949
27103SOL    HW284587   2.254   6.844   6.006  0.4590  0.2278  0.1917
27104SOL     OW84588   0.273   9.612   6.352  0.1718 -0.1778 -0.6850
27104SOL    HW184589   0.214   9.659   6.293  0.1001  0.4112 -0.1494
27104SOL    HW284590   0.274   9.665   6.432 -1.0009 -1.8215  0.4688
27105SOL     OW84591   3.842   3.122   8.255 -0.0306 -0.5119 -0.0304
27105SOL    HW184592   3.911   3.185   8.276 -0.9864  0.9955 -1.2056
27105SOL    HW284593   3.768   3.176   8.229 -1.0450 -2.1337 -0.6253
27106SOL     OW84594   6.827   9.348   7.144  0.3465  0.0482  0.1798
27106SOL    HW184595   6.853   9.376   7.232  0.1609  0.6382  0.0495
27106SOL    HW284596   6.797   9.257   7.155 -3.3410  1.2558  1.4504
27107SOL     OW84597   4.508   5.141   9.071 -0.0578  0.3133  0.2312
27107SOL    HW184598   4.502   5.236   9.083 -3.3973  0.1834  0.6190
27107SOL    HW284599   4.514   5.129   8.977  1.6096  0.8871  0.2353
27108SOL     OW84600   2.322  10.597   8.299  0.1034  0.2086  0.2299
27108SOL    HW184601   2.251  10.647   8.257  0.2500 -0.2146 -0.5461
27108SOL    HW284602   2.393  10.660   8.310  0.9914 -0.1712 -2.4492
27109SOL     OW84603   2.945   7.229   6.416  0.2313  0.3848  0.4834
27109SOL    HW184604   2.867   7.234   6.362  1.7263  1.6309 -1.7244
27109SOL    HW284605   2.942   7.142   6.456 -2.0627  0.2877  0.2158
27110SOL     OW84606   7.489  11.342   7.759 -0.4501 -0.1350  0.5665
27110SOL    HW184607   7.533  11.356   7.842 -2.3472 -1.4446  1.8814
27110SOL    HW284608   7.545  11.280   7.712  1.7596  2.2579 -0.1663
27111SOL     OW84609   7.466   6.888   4.565  0.6709  0.0165 -0.1818
27111SOL    HW184610   7.444   6.907   4.474 -0.7247 -0.6270 -0.0173
27111SOL    HW284611   7.435   6.798   4.579 -0.3972  0.5589  1.2790
27112SOL     OW84612  11.227   9.473   7.257  0.4158 -0.7046 -0.2036
27112SOL    HW184613  11.186   9.533   7.195  2.0433 -0.0909 -0.7572
27112SOL    HW284614  11.275   9.530   7.317  2.4015 -1.4023 -1.0320
27113SOL     OW84615   5.322   0.373   7.237 -0.2875 -0.0052 -0.1736
27113SOL    HW184616   5.353   0.293   7.280  0.8433  0.7079  0.3856
27113SOL    HW284617   5.400   0.427   7.227 -0.7758  0.4690 -1.8335
27114SOL     OW84618   5.697   6.746   3.994 -0.7744  0.0534  0.0272
27114SOL    HW184619   5.730   6.801   3.923  0.4829  0.9762  1.2713
27114SOL    HW284620   5.680   6.662   3.953  1.5714  0.0372 -1.0567
27115SOL     OW84621   2.557   9.274   1.631 -0.0553  0.0494 -0.2166
27115SOL    HW184622   2.576   9.190   1.673  3.0009  0.3418 -0.7359
27115SOL    HW284623   2.605   9.270   1.548 -0.6399  1.9316 -0.6945
27116SOL     OW84624   1.025   4.536   2.494 -0.3252 -0.1854 -1.0489
27116SOL    HW184625   1.112   4.516   2.460  0.4725  0.0743  0.7223
27116SOL    HW284626   1.014   4.477   2.568 -1.2349  0.4653 -0.6455
27117SOL     OW84627   9.264   4.745   1.972 -0.1102  0.0543 -0.0204
27117SOL    HW184628   9.313   4.803   2.031 -1.1347  1.3927 -0.4196
27117SOL    HW284629   9.235   4.673   2.028 -0.9854  1.2427  1.1462
27118SOL     OW84630   6.188  10.660   0.798 -0.3932  0.5193 -0.4520
27118SOL    HW184631   6.251  10.725   0.768 -1.0182  0.4224 -2.0823
27118SOL    HW284632   6.194  10.589   0.734 -1.4319  0.0498 -0.0655
27119SOL     OW84633   8.673   5.684   3.170 -0.4119 -0.7769  0.0425
27119SOL    HW184634   8.594   5.663   3.120  0.1099 -0.9417 -0.7280
27119SOL    HW284635   8.644   5.747   3.236 -1.2014 -0.8988 -0.1794
27120SOL     OW84636   8.451   3.256   7.453 -0.0492 -0.0303 -0.1518
27120SOL    HW184637   8.455   3.163   7.476 -1.4830 -0.3043 -0.8727
27120SOL    HW284638   8.357   3.277   7.457  0.2926  1.5270  0.5050
27121SOL     OW84639   0.207   8.122   2.132 -0.0008 -0.1037 -0.3234
27121SOL    HW184640   0.295   8.133   2.098 -0.0989  0.9839 -0.2814
27121SOL    HW284641   0.153   8.106   2.055  0.2709 -1.0673 -0.3190
27122SOL     OW84642   5.426   2.779   7.194 -0.0318 -0.4930  0.5966
27122SOL    HW184643   5.365   2.710   7.221 -1.2629 -0.2854 -1.4796
27122SOL    HW284644   5.418   2.783   7.099  2.7003  0.0951  0.3120
27123SOL     OW84645   5.918   1.557  10.911  0.0712 -0.4551 -0.5494
27123SOL    HW184646   5.896   1.538  10.820  1.6406 -0.6309 -0.9097
27123SOL    HW284647   5.834   1.554  10.957 -0.6833 -0.7879 -1.9073
27124SOL     OW84648  10.935   7.402   7.384 -0.0343 -0.0352 -0.2775
27124SOL    HW184649  10.988   7.450   7.321  0.0465  1.6551  1.0089
27124SOL    HW284650  10.846   7.433   7.369 -0.2471 -0.7577 -0.5505
27125SOL     OW84651  10.021   5.945   6.741 -0.5228  0.0292  0.2403
27125SOL    HW184652  10.057   5.978   6.659  1.7900  0.2536  1.2767
27125SOL    HW284653  10.045   5.853   6.743  0.5666  0.3120  1.2094
27126SOL     OW84654  11.018   5.646   4.400 -0.2506  0.0046  0.1014
27126SOL    HW184655  10.948   5.611   4.454  0.2938 -1.5271 -0.1293
27126SOL    HW284656  11.098   5.626   4.449  0.1292  0.2712 -0.3989
27127SOL     OW84657   8.493  10.442   6.230 -0.5552  0.6185 -0.6458
27127SOL    HW184658   8.496  10.528   6.272  0.9031  0.9234 -1.3354
27127SOL    HW284659   8.466  10.460   6.140 -0.7933  0.2823 -0.6445
27128SOL     OW84660   7.636  11.301  11.037 -0.2691  0.2462  0.3328
27128SOL    HW184661   7.715  11.355  11.045 -1.0782  1.4962  0.1855
27128SOL    HW284662   7.656  11.222  11.086  0.9555  0.6781  0.5764
27129SOL     OW84663   9.847   7.423   6.470 -0.2997 -0.1753 -0.0815
27129SOL    HW184664   9.905   7.493   6.499  0.0924 -1.0810  1.3935
27129SOL    HW284665   9.822   7.377   6.550 -1.5405 -0.9729 -0.8856
27130SOL     OW84666   0.640   4.193   9.218  0.3995  0.0578  0.3920
27130SOL    HW184667   0.718   4.202   9.273 -0.6945  1.2029  1.8127
27130SOL    HW284668   0.621   4.282   9.189 -1.8910  0.2353  2.2330
27131SOL     OW84669   7.977  10.137   0.941 -0.3551  0.4565 -0.3932
27131SOL    HW184670   8.022  10.111   0.861 -0.2270  0.1576 -0.2243
27131SOL    HW284671   8.030  10.209   0.977  1.5212 -1.5794  1.2013
27132SOL     OW84672   0.988   4.720   4.681 -0.0100  0.3037 -0.4031
27132SOL    HW184673   0.984   4.727   4.586  0.5658  0.8256 -0.3943
27132SOL    HW284674   0.959   4.805   4.713 -1.8421 -0.4036 -0.0531
27133SOL     OW84675   3.249   4.713   9.655 -0.4076  0.3483  0.4974
27133SOL    HW184676   3.336   4.681   9.681  0.8479  2.0256 -1.3341
27133SOL    HW284677   3.197   4.709   9.735  1.6299  0.1830  1.8910
27134SOL     OW84678   2.082   8.461  10.703 -0.1385 -0.0389  0.3283
27134SOL    HW184679   2.170   8.439  10.733 -0.6222 -0.3341  1.5900
27134SOL    HW284680   2.079   8.431  10.612  0.1788 -2.5761  1.0881
27135SOL     OW84681  10.563   9.330  11.323 -0.3994 -0.2429  0.6002
27135SOL    HW184682  10.588   9.251  11.276 -2.1381 -0.8881  0.6530
27135SOL    HW284683  10.644   9.380  11.333  0.3232 -0.8828 -1.5453
27136SOL     OW84684   2.128   7.463   2.896  0.3079 -0.1699 -0.1751
27136SOL    HW184685   2.106   7.463   2.990 -1.0289 -0.8864 -0.4584
27136SOL    HW284686   2.075   7.533   2.859 -0.9008 -1.3299 -0.7281
27137SOL     OW84687   7.678   0.199   3.884  0.4308 -0.1674  0.0936
27137SOL    HW184688   7.589   0.226   3.861  1.4862  2.0448 -1.8711
27137SOL    HW284689   7.730   0.280   3.876  2.6194 -1.3607  1.2650
27138SOL     OW84690   2.771   7.906   8.528  0.4912  0.6324  0.1170
27138SOL    HW184691   2.748   7.964   8.455  1.6046  2.2130  0.9714
27138SOL    HW284692   2.866   7.904   8.528  0.4745 -0.8938  0.3771
27139SOL     OW84693   8.113   5.303   5.717 -0.3137 -0.3635 -0.5114
27139SOL    HW184694   8.028   5.292   5.673 -0.0155  1.2609 -1.5538
27139SOL    HW284695   8.175   5.254   5.663 -0.0230  1.2761 -1.7271
27140SOL     OW84696   1.112   3.925   2.601  0.5410 -0.0151  0.1063
27140SOL    HW184697   1.190   3.910   2.547 -0.3112  1.0138 -1.5018
27140SOL    HW284698   1.063   3.843   2.594  1.1273 -0.4100  0.5342
27141SOL     OW84699   3.381   9.372   3.030 -0.4076 -0.2982  0.7865
27141SOL    HW184700   3.338   9.427   3.094 -0.8571  0.3325 -0.0346
27141SOL    HW284701   3.340   9.395   2.947  2.3658  1.3418 -0.2794
27142SOL     OW84702   2.349  11.166   1.778  0.2847 -0.4363  0.1532
27142SOL    HW184703   2.278  11.104   1.758  1.3960 -1.8448  0.3825
27142SOL    HW284704   2.339  11.184   1.872  1.1817 -1.9314  0.5601
27143SOL     OW84705   0.456   8.957   6.483 -0.2360 -1.0389 -0.3808
27143SOL    HW184706   0.511   9.006   6.422  1.1468 -0.5823  1.1858
27143SOL    HW284707   0.514   8.889   6.517 -1.0360 -1.3741  0.3264
27144SOL     OW84708   7.717   8.957   2.927 -0.5907  0.3804 -0.2212
27144SOL    HW184709   7.715   9.018   3.001 -1.1470 -1.1159  1.0429
27144SOL    HW284710   7.687   8.874   2.963  1.6477 -1.0880 -1.5170
27145SOL     OW84711   6.004   9.557   4.447  0.1373  0.3046 -0.0449
27145SOL    HW184712   6.040   9.646   4.444  0.1731  0.2850 -0.2756
27145SOL    HW284713   5.934   9.561   4.512  1.1490  0.1251  1.1055
27146SOL     OW84714   1.265   5.487   5.444  0.3351  0.2806  0.7707
27146SOL    HW184715   1.201   5.419   5.464 -0.2339  1.3541  2.8785
27146SOL    HW284716   1.348   5.451   5.475  0.3245 -0.1013  0.3626
27147SOL     OW84717   0.765   5.119  10.534  0.0242  0.7784 -0.5204
27147SOL    HW184718   0.708   5.183  10.577 -0.2875 -0.9567  1.8597
27147SOL    HW284719   0.715   5.086  10.460 -1.8735 -0.2347  1.1357
27148SOL     OW84720   8.958  10.130   8.005  0.5097 -0.2527 -0.4539
27148SOL    HW184721   9.008  10.048   8.006  0.0066 -0.5957 -1.5562
27148SOL    HW284722   8.953  10.157   8.096  2.6248 -0.2479 -0.2905
27149SOL     OW84723   0.867  10.459   6.980 -0.8271  0.3180 -0.0112
27149SOL    HW184724   0.783  10.495   7.009 -0.9126 -0.1781  0.3863
27149SOL    HW284725   0.864  10.463   6.885 -0.5409  2.0014  0.0159
27150SOL     OW84726   2.759  11.376  11.341  0.7292 -0.2936 -0.0656
27150SOL    HW184727   2.805  11.400  11.261 -0.3248 -2.1035 -1.2900
27150SOL    HW284728   2.749  11.458  11.389  4.2450  0.3521 -0.1940
27151SOL     OW84729   7.895   4.031   2.847 -0.3530 -0.4803  0.3649
27151SOL    HW184730   7.968   4.034   2.785 -0.1209  1.3445  0.6589
27151SOL    HW284731   7.929   4.072   2.926 -1.1883 -1.1479  1.0834
27152SOL     OW84732   9.871   7.874   0.848  0.1367 -0.1647 -0.2706
27152SOL    HW184733   9.885   7.815   0.922 -0.2834 -0.1355 -0.1701
27152SOL    HW284734   9.918   7.833   0.776 -0.0829 -0.5757 -0.1791
27153SOL     OW84735   6.181   9.384   0.422  0.1251  0.1532 -0.2462
27153SOL    HW184736   6.128   9.408   0.346 -0.8429 -0.4644  0.2145
27153SOL    HW284737   6.237   9.313   0.391 -0.5577 -0.3757 -0.2793
27154SOL     OW84738   5.224   4.017   8.005  0.0837 -0.7251 -0.1766
27154SOL    HW184739   5.288   4.050   8.068  0.1154  0.0192 -0.5939
27154SOL    HW284740   5.244   3.923   7.999  1.2351 -0.4845 -0.4129
27155SOL     OW84741   2.659   8.660   8.696  0.4457  0.7766 -0.1708
27155SOL    HW184742   2.629   8.747   8.723  0.1792  0.4074  0.7947
27155SOL    HW284743   2.609   8.600   8.752  0.9265  0.0258 -0.5358
27156SOL     OW84744  10.790   6.134   8.787  0.2514  0.0796  0.5299
27156SOL    HW184745  10.852   6.097   8.849  0.5967  0.5114  0.4491
27156SOL    HW284746  10.705   6.126   8.830  0.5784  1.0704  1.3889
27157SOL     OW84747   7.608   3.656  10.164 -0.3874  0.3737  0.6515
27157SOL    HW184748   7.588   3.565  10.146 -3.5241  0.6703  2.0861
27157SOL    HW284749   7.698   3.667  10.132 -0.3240 -2.8441 -0.6602
27158SOL     OW84750   1.286   9.954   4.363  0.5278 -0.6396  0.3354
27158SOL    HW184751   1.297   9.938   4.269 -2.7024  0.6230 -0.3946
27158SOL    HW284752   1.283   9.866   4.402 -0.5029 -1.3128 -1.1582
27159SOL     OW84753  11.167   9.467   1.636  0.7147 -0.2249 -0.3965
27159SOL    HW184754  11.147   9.560   1.642  0.0098 -0.3742 -0.3613
27159SOL    HW284755  11.260   9.464   1.616  1.5688  0.4337  2.9239
27160SOL     OW84756   0.453   5.980   6.729  0.6267 -0.0914 -0.1441
27160SOL    HW184757   0.488   5.933   6.804  0.0172 -0.1697  0.0955
27160SOL    HW284758   0.513   5.958   6.657  0.4917 -1.0240  0.0232
27161SOL     OW84759   0.829   3.727   5.505 -0.3163  0.3321 -0.2235
27161SOL    HW184760   0.876   3.648   5.479 -2.2090 -1.2356  0.8523
27161SOL    HW284761   0.811   3.715   5.599 -1.9504  1.2964 -0.3610
27162SOL     OW84762   0.427   2.511   5.880  0.4766 -0.2145  0.2996
27162SOL    HW184763   0.351   2.492   5.826 -0.2545 -0.2625  1.3265
27162SOL    HW284764   0.444   2.430   5.928  0.8154 -0.0231  0.5089
27163SOL     OW84765   6.778   3.644   2.598  0.2467 -0.4729  0.6001
27163SOL    HW184766   6.864   3.609   2.621  0.1949 -0.7220  0.4045
27163SOL    HW284767   6.717   3.592   2.649  0.2092 -0.2908  0.7446
27164SOL     OW84768   2.643   9.773  10.677 -0.1692  0.1306 -0.8657
27164SOL    HW184769   2.561   9.724  10.689  0.0045  0.0934  0.2091
27164SOL    HW284770   2.641   9.798  10.585 -0.4922 -1.4825 -1.3404
27165SOL     OW84771  10.009   9.439   3.254 -0.4938  0.2504  0.0344
27165SOL    HW184772  10.078   9.402   3.310  0.8546  1.8968 -0.4683
27165SOL    HW284773   9.936   9.455   3.314  0.0143 -0.3375  0.8291
27166SOL     OW84774   3.893   9.360   8.005  0.1556  0.5330  0.2251
27166SOL    HW184775   3.898   9.442   7.956 -1.0235 -0.0003 -0.8241
27166SOL    HW284776   3.984   9.342   8.029  0.9132  0.5050 -2.3141
27167SOL     OW84777   0.122   0.282   6.817  0.3525 -0.1993 -0.3260
27167SOL    HW184778   0.185   0.347   6.785 -0.9466  0.0952 -2.4800
27167SOL    HW284779   0.109   0.305   6.909  2.4960  0.4327 -0.1295
27168SOL     OW84780   2.440   6.681   5.748 -0.0541 -0.2729 -0.2163
27168SOL    HW184781   2.362   6.691   5.694  0.0079  0.2289 -0.2120
27168SOL    HW284782   2.459   6.587   5.745 -0.3148 -0.3133 -0.7021
27169SOL     OW84783   4.218  11.205   3.628 -0.4220 -0.2185 -0.2133
27169SOL    HW184784   4.147  11.241   3.575  0.6501  3.1064  0.4053
27169SOL    HW284785   4.180  11.196   3.715  0.1685  2.8987  0.4559
27170SOL     OW84786   6.338   3.287   9.298 -0.2108  0.4856  0.2779
27170SOL    HW184787   6.361   3.208   9.347  1.7543  0.1651 -1.0283
27170SOL    HW284788   6.265   3.260   9.242  0.8313 -0.6549 -0.6007
27171SOL     OW84789   8.310   1.628   1.407  0.2802  0.9773  0.0762
27171SOL    HW184790   8.235   1.577   1.437 -0.7956  0.6535 -2.8517
27171SOL    HW284791   8.274   1.714   1.388  0.3783  0.5982 -2.1018
27172SOL     OW84792  10.802   1.184   8.930  0.0644  0.5860 -0.0323
27172SOL    HW184793  10.776   1.207   9.020  0.3107  0.5028  0.0614
27172SOL    HW284794  10.885   1.139   8.941 -0.4847 -0.4917 -0.2004
27173SOL     OW84795  10.355   5.030   6.477  0.7512 -0.7008 -0.1124
27173SOL    HW184796  10.440   4.987   6.473 -0.0477 -2.2566 -1.3923
27173SOL    HW284797  10.328   5.022   6.569  1.3775 -1.4294  0.0181
27174SOL     OW84798   9.514   1.674   0.252  0.2417  0.0746  0.2173
27174SOL    HW184799   9.429   1.700   0.288  0.8255  1.3984  0.7139
27174SOL    HW284800   9.539   1.596   0.301 -0.5364 -0.1465  0.2740
27175SOL     OW84801   0.015   0.790  10.759  0.0642  0.0516 -0.7003
27175SOL    HW184802   0.063   0.708  10.748 -0.7949 -0.6547  0.5028
27175SOL    HW284803   0.033   0.815  10.850 -0.7719  0.4788 -0.6515
27176SOL     OW84804   6.917   8.811   4.965  0.1990  0.3386 -0.0792
27176SOL    HW184805   7.009   8.833   4.949  0.4452 -0.7147 -0.2032
27176SOL    HW284806   6.909   8.720   4.935 -0.9719  0.5379 -0.4112
27177SOL     OW84807   3.093  11.237   2.792 -0.2419 -0.5529  0.3053
27177SOL    HW184808   3.006  11.217   2.825 -0.3505  0.5002  0.6935
27177SOL    HW284809   3.147  11.243   2.871  0.0680 -0.6377  0.1015
27178SOL     OW84810   2.962   2.670   1.181 -0.3125 -0.6148 -0.1475
27178SOL    HW184811   3.048   2.687   1.145 -0.6787 -0.3235 -0.9017
27178SOL    HW284812   2.962   2.576   1.200 -0.5236 -1.0476 -2.0834
27179SOL     OW84813   2.292   5.822   1.409  0.4927 -0.7783 -0.6196
27179SOL    HW184814   2.207   5.780   1.397 -0.7285  0.9200  1.4856
27179SOL    HW284815   2.283   5.907   1.366  1.1209 -0.5800 -0.3688
27180SOL     OW84816   4.139   2.353   3.294 -0.2381  0.4942 -0.7492
27180SOL    HW184817   4.203   2.283   3.289 -0.6329  0.0600  0.1012
27180SOL    HW284818   4.069   2.326   3.234 -0.9598 -0.4590  0.4811
27181SOL     OW84819   7.350   8.446   4.824  0.2094 -0.4960 -0.2090
27181SOL    HW184820   7.279   8.510   4.823  0.4806 -0.1851 -1.5759
27181SOL    HW284821   7.409   8.474   4.754  1.6547 -0.7939  0.8514
27182SOL     OW84822   6.207   1.265   6.740  0.7175 -0.0671 -0.1649
27182SOL    HW184823   6.138   1.223   6.690  0.0295 -1.2049  1.6290
27182SOL    HW284824   6.167   1.347   6.771 -0.0239 -0.8915  1.1735
27183SOL     OW84825   7.156  10.132   6.356 -0.4324  0.6885  0.1454
27183SOL    HW184826   7.075  10.135   6.408  0.8801  0.3193  2.3547
27183SOL    HW284827   7.147  10.055   6.301 -2.2690  1.6060 -0.9258
27184SOL     OW84828   0.779   1.046   1.827  0.5381  0.2940  0.3576
27184SOL    HW184829   0.761   1.129   1.782  0.6900 -0.3536 -0.9241
27184SOL    HW284830   0.714   1.043   1.897 -1.1865  0.3073 -1.1646
27185SOL     OW84831   7.286   5.381   3.257  0.1023  0.3730 -0.3146
27185SOL    HW184832   7.358   5.344   3.309 -0.8506 -0.5958  0.3595
27185SOL    HW284833   7.279   5.472   3.288  0.4548  0.2143  0.2591
27186SOL     OW84834   5.072   3.298  11.378 -0.1197  0.4945  0.2875
27186SOL    HW184835   4.992   3.315  11.328  0.1884  1.4845  0.1039
27186SOL    HW284836   5.138   3.354  11.337  0.1856  1.1922  1.6642
27187SOL     OW84837  10.454   6.552   9.475 -0.0739 -0.1893 -0.3827
27187SOL    HW184838  10.487   6.508   9.553 -0.1653  0.9970  0.3443
27187SOL    HW284839  10.532   6.585   9.431 -0.1648  1.9306  0.9248
27188SOL     OW84840   7.695  10.245  10.199  0.1517  0.1916 -0.1929
27188SOL    HW184841   7.790  10.236  10.207  0.2405  1.0734 -0.2135
27188SOL    HW284842   7.680  10.246  10.104  0.0460 -0.6433 -0.1923
27189SOL     OW84843   9.670  10.705   3.987  0.8277  0.1895 -0.3299
27189SOL    HW184844   9.576  10.718   3.998  0.6668 -0.1685 -1.1720
27189SOL    HW284845   9.687  10.726   3.895  1.3855 -0.7349 -0.4616
27190SOL     OW84846   6.069   6.736   2.764  0.0072 -0.0825  0.1407
27190SOL    HW184847   6.019   6.755   2.843 -1.4599 -0.2590 -0.7134
27190SOL    HW284848   6.161   6.740   2.792 -0.3429  2.8345  1.1909
27191SOL     OW84849   2.492   2.488   2.851  0.2252  0.4368  0.3903
27191SOL    HW184850   2.401   2.516   2.859  0.1367  0.3053 -0.1034
27191SOL    HW284851   2.528   2.497   2.939 -0.1749  0.7984  0.5195
27192SOL     OW84852   8.897   9.943   4.509 -0.0086  0.3090 -0.4882
27192SOL    HW184853   8.859   9.978   4.429  0.0057  3.2466  0.6754
27192SOL    HW284854   8.855   9.993   4.579  3.1564  0.9992  1.0670
27193SOL     OW84855  11.366   1.132   6.195 -0.6512 -0.0942 -0.5292
27193SOL    HW184856  11.279   1.114   6.158 -1.4531  1.6522  0.3655
27193SOL    HW284857  11.412   1.179   6.125 -0.7890 -0.1562 -0.6620
27194SOL     OW84858   3.380   9.283  10.417  0.1195 -0.2118  0.1052
27194SOL    HW184859   3.383   9.360  10.362 -0.9407  0.5436  1.0562
27194SOL    HW284860   3.290   9.279  10.449  0.1459 -1.8416  0.0930
27195SOL     OW84861   0.561   6.339   5.086  0.4053 -0.5100  0.1327
27195SOL    HW184862   0.580   6.431   5.073  1.4586 -1.1257 -3.7795
27195SOL    HW284863   0.633   6.306   5.140  0.5611  0.7103  0.6891
27196SOL     OW84864   4.979   6.881   7.257  0.3645  0.6506  0.3776
27196SOL    HW184865   4.902   6.824   7.264  1.2444 -0.5673  0.5814
27196SOL    HW284866   5.010   6.890   7.347 -0.2979  2.2716  0.4783
27197SOL     OW84867   1.562   8.322   2.478  0.3427 -0.1440  0.1154
27197SOL    HW184868   1.574   8.236   2.519 -1.3339  0.4043  1.9095
27197SOL    HW284869   1.650   8.356   2.467  0.9647 -1.3859  1.0085
27198SOL     OW84870   6.583   4.809   8.035  0.2532  0.1493 -0.0717
27198SOL    HW184871   6.545   4.787   8.120  0.2535 -0.1439 -0.1457
27198SOL    HW284872   6.557   4.900   8.019  1.5328  0.7160  0.9341
27199SOL     OW84873  10.545   2.187   8.847 -0.4380 -0.4116 -0.1335
27199SOL    HW184874  10.575   2.169   8.758  0.6591 -1.5045  0.4419
27199SOL    HW284875  10.612   2.149   8.904 -0.6497  1.0623  1.1730
27200SOL     OW84876   2.017   5.783   2.015  0.3305  0.2231  0.2526
27200SOL    HW184877   2.046   5.839   2.087 -0.4518  0.7971  0.1317
27200SOL    HW284878   2.094   5.729   1.995  0.4362 -0.2549  1.7916
27201SOL     OW84879   7.014   5.197   9.164 -0.2678 -0.6203  0.0781
27201SOL    HW184880   6.987   5.209   9.255  1.8391  1.0133  0.5927
27201SOL    HW284881   6.966   5.121   9.134 -1.3320 -0.9686  2.4440
27202SOL     OW84882   3.700  10.026   3.852 -0.0283  0.3962 -0.3202
27202SOL    HW184883   3.749  10.108   3.862 -1.3413  1.0585  1.1961
27202SOL    HW284884   3.665  10.008   3.940 -1.1834 -0.8619 -0.9985
27203SOL     OW84885   9.619   0.420   7.530  0.0979 -0.4801  0.4696
27203SOL    HW184886   9.596   0.440   7.621 -0.5098  2.1041 -0.1682
27203SOL    HW284887   9.562   0.347   7.507 -0.8215 -0.2034  1.7262
27204SOL     OW84888   6.741   0.596   5.551  0.1514 -0.4556 -0.2482
27204SOL    HW184889   6.808   0.533   5.575 -0.6523 -0.7773  1.2693
27204SOL    HW284890   6.760   0.673   5.606  1.3465  0.8342 -2.3279
27205SOL     OW84891   8.941   9.981   2.020 -0.0074  0.2501  0.1635
27205SOL    HW184892   8.879   9.938   1.961 -0.4674  2.0850 -0.7706
27205SOL    HW284893   8.900  10.065   2.040  1.3491  0.7354  1.0291
27206SOL     OW84894   3.676   3.267   5.486  0.0960  0.0193  0.0699
27206SOL    HW184895   3.692   3.282   5.579  0.2468  2.1734 -0.2464
27206SOL    HW284896   3.587   3.232   5.482 -0.1518  0.5074  0.9771
27207SOL     OW84897   0.143   0.364   9.366  0.7465 -0.1963 -0.5139
27207SOL    HW184898   0.096   0.344   9.285  1.6956  1.2454 -1.4662
27207SOL    HW284899   0.165   0.457   9.359  1.8626 -0.3144  0.8752
27208SOL     OW84900   6.662   7.637   3.777  0.1554 -0.2118 -0.6315
27208SOL    HW184901   6.664   7.623   3.682 -0.7926  1.8259 -0.9983
27208SOL    HW284902   6.571   7.659   3.796  0.0067 -2.0009  1.0153
27209SOL     OW84903   8.883   7.101   5.037 -0.1271  0.0494  0.2164
27209SOL    HW184904   8.832   7.164   5.088  0.4329 -0.5264  1.5453
27209SOL    HW284905   8.821   7.030   5.018 -0.4148  0.3966 -0.1803
27210SOL     OW84906   3.171   9.293   6.132  0.2924  0.0387 -0.1210
27210SOL    HW184907   3.242   9.230   6.144  0.2436 -0.4814 -2.2437
27210SOL    HW284908   3.126   9.293   6.217  0.4740 -2.5629  0.0712
27211SOL     OW84909   7.542   8.162   8.310  0.6076 -0.4104  0.1927
27211SOL    HW184910   7.541   8.258   8.311 -0.2853 -0.4122  0.7427
27211SOL    HW284911   7.625   8.138   8.351  1.2480  0.1251 -0.7526
27212SOL     OW84912  10.901   4.083   0.705 -0.0165 -0.3537 -0.0708
27212SOL    HW184913  10.994   4.072   0.682  0.0519  2.3190 -1.5330
27212SOL    HW284914  10.856   4.080   0.620 -0.6630  2.7241  0.0608
27213SOL     OW84915   0.892  10.470   2.029  0.3867  0.3668 -0.1235
27213SOL    HW184916   0.916  10.523   2.105  2.0656  0.6167 -0.7863
27213SOL    HW284917   0.970  10.418   2.010 -0.0653  0.1575 -1.5416
27214SOL     OW84918   4.020   5.831   4.028  0.9302 -0.5259  0.2207
27214SOL    HW184919   3.988   5.799   4.113 -1.4607 -0.3362 -0.5230
27214SOL    HW284920   3.940   5.843   3.976  2.1868  1.1009 -1.4560
27215SOL     OW84921   4.898   6.878   1.810  0.2289 -0.0461 -0.5696
27215SOL    HW184922   4.805   6.891   1.793  0.8280  3.2246 -2.1964
27215SOL    HW284923   4.913   6.784   1.795 -2.7098 -0.6165 -0.4461
27216SOL     OW84924   5.285   7.812   5.947  0.2701  0.3536 -0.0345
27216SOL    HW184925   5.357   7.753   5.926 -0.9806 -0.8165 -1.2007
27216SOL    HW284926   5.266   7.796   6.039  1.2412  0.3908  0.1765
27217SOL     OW84927   4.825   9.027   2.935 -0.2882  0.0640 -0.4449
27217SOL    HW184928   4.785   9.094   2.991  0.4069  0.6596 -0.6528
27217SOL    HW284929   4.857   8.961   2.996 -1.3723 -0.3131 -0.2593
27218SOL     OW84930   9.025   7.090  10.775  0.2724  0.7923 -0.2503
27218SOL    HW184931   9.063   7.165  10.728 -1.2597  1.7926  0.0113
27218SOL    HW284932   8.950   7.063  10.721 -0.5315  0.9132  0.7599
27219SOL     OW84933   7.744   0.238   2.506 -0.1099  0.0661 -0.0316
27219SOL    HW184934   7.754   0.179   2.580 -2.0131 -0.6316 -0.2749
27219SOL    HW284935   7.816   0.300   2.515  1.1199 -1.4273  1.0299
27220SOL     OW84936   3.680   4.209   5.550  0.9950 -0.4118  0.0395
27220SOL    HW184937   3.646   4.298   5.555  0.3645 -0.6984  2.3785
27220SOL    HW284938   3.769   4.215   5.584  0.5274 -0.7994  1.4308
27221SOL     OW84939   6.946   4.183   9.709 -0.0050  0.6574 -0.0148
27221SOL    HW184940   6.928   4.101   9.756  0.1066  0.4586 -0.3142
27221SOL    HW284941   6.898   4.174   9.627  1.8386 -0.0983 -1.0483
27222SOL     OW84942   9.319   5.931   6.616 -0.2609 -0.2022 -0.1412
27222SOL    HW184943   9.349   5.867   6.552 -2.2821 -0.7406 -0.6487
27222SOL    HW284944   9.251   5.980   6.570  0.7817  1.8916  0.4607
27223SOL     OW84945   7.316  10.601  10.586 -0.1141 -0.4277  0.3843
27223SOL    HW184946   7.332  10.508  10.572 -0.3464 -0.5303  0.7702
27223SOL    HW284947   7.293  10.635  10.500  0.3327 -0.6517  0.1724
27224SOL     OW84948   7.934  10.172   6.065  0.2589  0.2424  1.1307
27224SOL    HW184949   8.009  10.225   6.091  1.3083 -0.5171 -0.1921
27224SOL    HW284950   7.969  10.112   5.999 -1.0959 -1.4596  1.8896
27225SOL     OW84951  10.648   1.024   7.932 -0.3097 -0.4110  0.5685
27225SOL    HW184952  10.562   1.031   7.975 -0.9462 -0.7364 -0.6044
27225SOL    HW284953  10.627   0.995   7.843  1.0160 -0.3093  0.2146
27226SOL     OW84954   2.593   4.698   3.118 -0.2347  0.5842 -0.0845
27226SOL    HW184955   2.523   4.646   3.078 -0.2815  0.0943  0.6246
27226SOL    HW284956   2.664   4.636   3.132 -0.6044  0.4975  1.5713
27227SOL     OW84957   5.401  10.890   7.439 -0.0352 -0.2056  0.0815
27227SOL    HW184958   5.392  10.865   7.347  1.3114  0.7657 -0.3626
27227SOL    HW284959   5.409  10.986   7.437  2.5631 -0.3198  0.8954
27228SOL     OW84960   7.354   9.398   0.624 -0.6093 -0.3652  0.7323
27228SOL    HW184961   7.381   9.427   0.710  0.2602 -0.3198  0.4550
27228SOL    HW284962   7.274   9.447   0.605 -1.2954 -1.0037  1.8568
27229SOL     OW84963   5.604   4.687   4.975  0.2180  0.1417  0.2532
27229SOL    HW184964   5.688   4.671   4.932 -0.3819 -0.3844 -0.7789
27229SOL    HW284965   5.614   4.651   5.063  0.6926 -1.0127 -0.2541
27230SOL     OW84966   2.539   9.731   0.244  0.5123  0.4589  1.0308
27230SOL    HW184967   2.514   9.710   0.154  0.5165 -1.1020  1.3652
27230SOL    HW284968   2.579   9.651   0.277  1.4932  1.3436  2.0948
27231SOL     OW84969   1.793   3.315  11.190  0.4954  0.3382 -0.2582
27231SOL    HW184970   1.809   3.242  11.129  0.5385  1.1492 -1.2490
27231SOL    HW284971   1.856   3.301  11.260 -0.7658 -1.6419  0.5783
27232SOL     OW84972  10.011   9.067   5.291  0.1294 -0.1398 -0.3126
27232SOL    HW184973  10.035   8.990   5.238  0.9490 -0.7161  0.8478
27232SOL    HW284974   9.945   9.033   5.352  1.1491 -0.1817  0.8066
27233SOL     OW84975   9.497   4.097   1.135  0.2200  0.0250 -0.0685
27233SOL    HW184976   9.406   4.077   1.114  0.1265 -0.8290  1.0581
27233SOL    HW284977   9.538   4.114   1.050 -1.2928  1.9196 -0.4983
27234SOL     OW84978   0.763   4.766   3.659  0.2599 -0.1230  0.3224
27234SOL    HW184979   0.692   4.706   3.682  1.5080 -1.3895  1.0220
27234SOL    HW284980   0.786   4.809   3.741  0.2091  0.4166  0.0618
27235SOL     OW84981   2.018   0.250   3.751  0.0632 -0.0333  0.2232
27235SOL    HW184982   2.015   0.157   3.730 -2.4599  0.3899 -1.7935
27235SOL    HW284983   1.952   0.262   3.819 -1.4247  0.5690 -1.2546
27236SOL     OW84984   0.655   8.090   2.612  0.1044 -0.3500  0.2813
27236SOL    HW184985   0.744   8.055   2.612  0.4652  0.5085 -0.8443
27236SOL    HW284986   0.665   8.181   2.639 -0.3950 -0.1965 -0.0374
27237SOL     OW84987   1.546   9.531   1.315 -0.3001 -0.1970  0.0064
27237SOL    HW184988   1.496   9.468   1.264 -0.6668 -0.3012  0.4964
27237SOL    HW284989   1.637   9.508   1.299 -0.3933 -2.4979  2.1580
27238SOL     OW84990   1.336   4.226   0.859  0.1722  0.1646  0.2001
27238SOL    HW184991   1.427   4.204   0.836  0.4915 -1.5634  2.7480
27238SOL    HW284992   1.335   4.321   0.866  1.3787  0.3303 -1.2887
27239SOL     OW84993   3.430   2.559  11.367 -0.1443  0.2133 -0.4462
27239SOL    HW184994   3.427   2.647  11.329  0.8227 -0.0662 -1.2147
27239SOL    HW284995   3.480   2.507  11.304  1.2899 -0.3494  1.0986
27240SOL     OW84996   1.733   7.077   7.191 -0.2425  0.4796  0.1020
27240SOL    HW184997   1.671   7.061   7.262 -1.9456  0.8541 -1.2306
27240SOL    HW284998   1.679   7.114   7.121  1.6603  1.6459 -0.8063
27241SOL     OW84999   6.621   4.052   5.338 -0.4146  0.6054  0.0540
27241SOL    HW185000   6.625   4.146   5.355  0.4966  0.5864  0.0053
27241SOL    HW285001   6.573   4.044   5.256  0.9569  1.1631 -0.8319
27242SOL     OW85002   0.883   3.625   5.771  0.0649 -0.4247  0.8954
27242SOL    HW185003   0.968   3.584   5.783 -0.0532 -1.0198 -0.2003
27242SOL    HW285004   0.827   3.556   5.735 -0.1948  0.5974 -0.7577
27243SOL     OW85005   5.467   2.578   7.817 -0.3030 -0.5395 -0.2066
27243SOL    HW185006   5.560   2.582   7.839 -0.0570 -2.1522 -0.8782
27243SOL    HW285007   5.446   2.667   7.787  0.8673 -0.0050  0.4973
27244SOL     OW85008   6.978  10.985   4.617  0.1610 -0.4544 -0.2728
27244SOL    HW185009   6.918  11.005   4.689  1.2163  0.7173  0.3214
27244SOL    HW285010   7.061  10.966   4.660  0.3821 -1.4717 -1.1141
27245SOL     OW85011   1.506   8.954   8.047  0.4403 -0.1845  0.0901
27245SOL    HW185012   1.494   9.048   8.059 -0.6518 -0.1448 -1.1018
27245SOL    HW285013   1.471   8.915   8.128  2.0181  0.4483  1.1269
27246SOL     OW85014   6.761   5.406   1.739 -0.1483 -0.1054  0.3265
27246SOL    HW185015   6.695   5.419   1.806 -1.0281  0.3072 -0.5911
27246SOL    HW285016   6.786   5.494   1.712 -0.4282 -0.2560 -0.4660
27247SOL     OW85017   0.454   3.571  10.963  0.1161 -1.0414 -0.3578
27247SOL    HW185018   0.539   3.536  10.992  1.0333  1.4151  0.1444
27247SOL    HW285019   0.406   3.588  11.044 -0.4615 -1.4520 -0.6074
27248SOL     OW85020   9.429   3.755   9.582  0.0006 -0.7215  0.3236
27248SOL    HW185021   9.441   3.744   9.487 -0.9281 -0.5705  0.1749
27248SOL    HW285022   9.386   3.675   9.610 -0.9227 -0.2281  0.3723
27249SOL     OW85023   4.883   9.145   2.060  0.4495  0.4594  0.2788
27249SOL    HW185024   4.906   9.105   1.975  2.2256  0.1876  0.8493
27249SOL    HW285025   4.964   9.141   2.111 -0.5899  0.6145  2.0060
27250SOL     OW85026   7.733   6.487   0.787 -0.2254 -0.4918  0.5803
27250SOL    HW185027   7.731   6.526   0.874  0.1283 -1.2316  0.9312
27250SOL    HW285028   7.826   6.471   0.770 -0.1681  0.8007 -0.4751
27251SOL     OW85029  10.895  11.292  10.912 -0.0714  0.0686 -0.4183
27251SOL    HW185030  10.982  11.283  10.952  0.5175  1.7036 -1.2198
27251SOL    HW285031  10.835  11.303  10.986  0.3286 -1.3700  0.1611
27252SOL     OW85032   5.291   4.311   4.714 -0.2447 -0.3254  0.1096
27252SOL    HW185033   5.336   4.375   4.768 -1.6261  1.3580 -0.6343
27252SOL    HW285034   5.315   4.226   4.752  3.2936  0.4386 -0.1446
27253SOL     OW85035   8.780   9.873   8.166  0.0376 -0.7952  0.3372
27253SOL    HW185036   8.696   9.852   8.206 -0.8251  0.2309 -0.8704
27253SOL    HW285037   8.843   9.819   8.214 -1.3465 -1.9124  0.9814
27254SOL     OW85038   8.933   9.690   3.205 -0.8856  0.2076  0.1347
27254SOL    HW185039   8.845   9.719   3.228 -0.7083 -0.1377  1.2659
27254SOL    HW285040   8.980   9.685   3.288 -0.3237 -1.3728 -0.2484
27255SOL     OW85041   4.597   3.355   6.421  0.3206 -0.5748  0.0590
27255SOL    HW185042   4.655   3.297   6.372 -0.5583 -1.0990 -0.3925
27255SOL    HW285043   4.609   3.441   6.381  1.4148 -0.4799  0.5395
27256SOL     OW85044   7.623   0.267  10.034 -0.2865 -0.1149  0.5288
27256SOL    HW185045   7.634   0.362  10.042  0.4270  0.0368 -1.6425
27256SOL    HW285046   7.541   0.257   9.984  0.6083 -0.5340 -0.9118
27257SOL     OW85047   9.799  10.135   4.329 -0.1775 -0.0356  0.0603
27257SOL    HW185048   9.781  10.102   4.417 -0.6261  1.1818  0.4412
27257SOL    HW285049   9.724  10.191   4.309  1.2267  1.9245  0.0425
27258SOL     OW85050  11.268   8.709   5.407 -0.3966 -0.6077  0.1581
27258SOL    HW185051  11.183   8.740   5.438 -0.2116  0.4917 -0.3949
27258SOL    HW285052  11.306   8.664   5.483 -1.5274 -1.2715  0.3530
27259SOL     OW85053   3.758   9.645   4.678  0.3545  0.4468  0.0959
27259SOL    HW185054   3.732   9.657   4.587 -1.3329  0.3726  0.5328
27259SOL    HW285055   3.798   9.558   4.680 -1.9117 -0.7018 -0.1838
27260SOL     OW85056   7.448   7.134   5.812 -0.6431 -0.5325 -0.2026
27260SOL    HW185057   7.445   7.137   5.716 -2.6054  0.4561 -0.1477
27260SOL    HW285058   7.357   7.132   5.839 -0.2209  1.6016  1.6943
27261SOL     OW85059   9.155   2.454   5.979  0.2091 -0.0766 -0.0341
27261SOL    HW185060   9.098   2.475   6.052  2.1549  2.5206  0.8803
27261SOL    HW285061   9.160   2.358   5.979 -1.0337 -0.2073  2.2691
27262SOL     OW85062   9.615  10.266   7.881  0.3479 -0.3712  0.0398
27262SOL    HW185063   9.669  10.189   7.864  1.1006  0.4242 -1.3475
27262SOL    HW285064   9.661  10.338   7.838 -0.9894  0.6265  0.2011
27263SOL     OW85065   4.873   0.024   8.107  0.0462 -0.1020 -0.1142
27263SOL    HW185066   4.841  -0.033   8.177  3.4613  0.0532  1.7910
27263SOL    HW285067   4.913  -0.036   8.044  1.4540 -0.0513  0.6767
27264SOL     OW85068   4.155   4.657   0.919  0.0672  0.4268  0.3509
27264SOL    HW185069   4.251   4.653   0.916  0.0222 -0.5509 -3.1514
27264SOL    HW285070   4.132   4.732   0.865 -1.1791 -0.5776 -0.5557
27265SOL     OW85071   3.843   5.929   1.652  0.6573  0.3125 -0.4427
27265SOL    HW185072   3.855   6.008   1.599  3.2334  1.0869  1.1066
27265SOL    HW285073   3.932   5.895   1.664 -0.2128 -1.8192  0.4452
27266SOL     OW85074  10.434  10.320   1.980 -0.3243  0.4560 -0.5498
27266SOL    HW185075  10.348  10.287   1.957  0.2303  0.1187 -2.3433
27266SOL    HW285076  10.466  10.361   1.899  2.2184 -1.7119 -0.7803
27267SOL     OW85077  10.830   1.586   3.174  0.2296  0.0917  0.1773
27267SOL    HW185078  10.801   1.591   3.265  0.2580 -1.0630  0.2538
27267SOL    HW285079  10.797   1.667   3.135  0.0909  0.5322  1.1718
27268SOL     OW85080   6.287   5.488   5.532 -0.3523 -0.1891  0.7894
27268SOL    HW185081   6.243   5.493   5.447  2.0562  4.1015 -0.4793
27268SOL    HW285082   6.355   5.421   5.520  0.2859  0.7051 -0.9253
27269SOL     OW85083   2.049   9.609   4.446 -0.2853  0.2444 -0.1415
27269SOL    HW185084   2.054   9.648   4.359  0.8173  0.9369  0.2169
27269SOL    HW285085   1.962   9.568   4.448 -1.2356  2.0755 -0.7944
27270SOL     OW85086   7.524   9.826   4.192 -0.4086 -0.5471 -0.0560
27270SOL    HW185087   7.508   9.807   4.285  0.5631 -0.2168  0.1882
27270SOL    HW285088   7.578   9.752   4.162  1.3305  0.5231  0.2815
27271SOL     OW85089   0.568   1.110   6.387  0.0692 -0.6519  0.4429
27271SOL    HW185090   0.525   1.189   6.420  0.4739 -0.9701  1.8002
27271SOL    HW285091   0.501   1.042   6.394 -0.1735 -0.5102 -0.4098
27272SOL     OW85092   1.172  10.266   8.243 -0.3431  0.8946 -0.5286
27272SOL    HW185093   1.222  10.249   8.163 -2.3112  1.8383 -2.0596
27272SOL    HW285094   1.115  10.190   8.253 -1.5748  1.6954 -1.2538
27273SOL     OW85095   8.528  10.303   1.847 -0.1212  0.4988  0.2030
27273SOL    HW185096   8.586  10.263   1.912 -1.7654  1.5099  2.4370
27273SOL    HW285097   8.443  10.261   1.861 -0.4579  0.4690 -1.6101
27274SOL     OW85098   2.752   5.163   4.388  0.1857  0.4510 -0.1787
27274SOL    HW185099   2.673   5.109   4.392  0.3237  0.2758  0.2114
27274SOL    HW285100   2.733   5.238   4.444 -0.6981  1.7467 -2.1008
27275SOL     OW85101   2.006   1.622   5.866 -0.2211 -0.4270 -0.0272
27275SOL    HW185102   1.968   1.600   5.951  0.4136  0.4171  0.5049
27275SOL    HW285103   1.938   1.603   5.803 -1.1330  0.0279  0.7933
27276SOL     OW85104  11.029  10.062  10.261  0.7902  0.6744 -0.8845
27276SOL    HW185105  11.002  10.037  10.173 -0.5775 -0.5647 -0.1524
27276SOL    HW285106  10.977  10.140  10.281 -0.4836 -0.2598 -0.4207
27277SOL     OW85107   2.697   0.233   7.638  0.0151  0.2125  0.3843
27277SOL    HW185108   2.650   0.169   7.692 -0.1304 -0.7206 -0.8143
27277SOL    HW285109   2.629   0.295   7.611  0.2080  1.0850  1.7846
27278SOL     OW85110   4.601   1.855   0.173  0.3579  0.1204 -0.0306
27278SOL    HW185111   4.665   1.921   0.200  0.0759  0.0271  0.9122
27278SOL    HW285112   4.517   1.891   0.200 -0.1795  0.8190 -2.3564
27279SOL     OW85113   1.309   0.474  11.361 -0.5242 -0.5898 -0.1407
27279SOL    HW185114   1.280   0.398  11.412 -1.2686 -0.8719 -0.9491
27279SOL    HW285115   1.320   0.440  11.272  2.3568 -0.4998  0.0914
27280SOL     OW85116  10.093   7.195   3.438 -0.1900 -0.0798 -0.0676
27280SOL    HW185117  10.005   7.216   3.407  0.1353  2.0812  0.2755
27280SOL    HW285118  10.105   7.252   3.514  1.3396 -0.6652  0.1518
27281SOL     OW85119   6.929   2.654   6.760  0.0387 -0.4705  0.0709
27281SOL    HW185120   6.912   2.745   6.784  3.4260  0.4470 -0.3942
27281SOL    HW285121   6.912   2.604   6.840 -2.2910  0.4328  0.2087
27282SOL     OW85122   1.966   5.368   4.658 -0.2699  0.0001 -0.8818
27282SOL    HW185123   1.933   5.425   4.588  0.6093  0.2850 -1.0732
27282SOL    HW285124   2.060   5.384   4.659 -0.2683 -0.0158  0.3647
27283SOL     OW85125   9.723   6.311   5.516 -0.3627 -0.1544  0.3501
27283SOL    HW185126   9.764   6.275   5.437  0.9313  0.1215  0.8756
27283SOL    HW285127   9.752   6.254   5.587 -0.2998  0.4654  0.8366
27284SOL     OW85128   2.080   7.529  10.156  0.5416 -0.0078  0.2338
27284SOL    HW185129   2.159   7.577  10.179 -0.0640  1.0267  0.1898
27284SOL    HW285130   2.041   7.504  10.240  0.4581  0.2437  0.2700
27285SOL     OW85131   3.964   8.325   0.558  0.8554  0.1472  0.0557
27285SOL    HW185132   3.965   8.249   0.617  1.4869  0.3166  0.2819
27285SOL    HW285133   3.872   8.347   0.549  0.7605  0.3164  1.2552
27286SOL     OW85134   3.691   4.767   8.628  0.0111 -0.2385  0.5311
27286SOL    HW185135   3.619   4.753   8.566  0.0246  2.1047 -0.1381
27286SOL    HW285136   3.761   4.806   8.574  0.5891  0.4497  1.7358
27287SOL     OW85137   2.898   0.180   1.089  0.1916  0.5329 -0.4453
27287SOL    HW185138   2.848   0.148   1.015  2.8154 -0.4498 -1.9025
27287SOL    HW285139   2.859   0.265   1.109 -1.1999  0.3881 -2.2895
27288SOL     OW85140   6.214  11.284   1.174 -0.2600 -0.6628 -0.1361
27288SOL    HW185141   6.205  11.367   1.127 -0.2935 -0.0318  0.9547
27288SOL    HW285142   6.182  11.218   1.113 -1.5759  0.2849 -0.5004
27289SOL     OW85143  11.279   1.905   0.232 -0.1027  0.0096  0.2167
27289SOL    HW185144  11.375   1.904   0.225 -0.0734 -0.3288  0.6032
27289SOL    HW285145  11.255   1.996   0.214  0.1842 -0.1641 -1.1097
27290SOL     OW85146   7.610   9.230   7.843 -0.3329  0.3404 -0.1524
27290SOL    HW185147   7.596   9.262   7.754 -0.3384 -0.6788 -0.5271
27290SOL    HW285148   7.696   9.264   7.868  2.6373 -4.1819 -2.8486
27291SOL     OW85149   5.894   7.137   0.607  0.4212 -0.1599 -0.2790
27291SOL    HW185150   5.853   7.177   0.684  0.0703  0.0596 -0.5722
27291SOL    HW285151   5.876   7.199   0.536 -1.5455 -1.5504 -1.1002
27292SOL     OW85152   0.698  10.738   1.118 -0.1812 -0.1528 -0.0811
27292SOL    HW185153   0.634  10.677   1.081 -1.3305  2.2223 -2.4239
27292SOL    HW285154   0.710  10.709   1.208 -1.6977 -2.9264 -0.6445
27293SOL     OW85155  10.073   7.460   9.087 -0.8641  0.0924 -0.2114
27293SOL    HW185156  10.050   7.387   9.029  0.2347 -0.9106  0.5771
27293SOL    HW285157  10.022   7.445   9.166 -1.0269  0.4872 -0.2387
27294SOL     OW85158   6.588   9.482   4.278  0.0196 -0.1818  0.1663
27294SOL    HW185159   6.568   9.553   4.216  0.1827  0.2351  0.5837
27294SOL    HW285160   6.507   9.430   4.282 -0.2627  0.2529  0.2125
27295SOL     OW85161   6.279   5.010   7.393 -0.4225 -0.0079  0.2116
27295SOL    HW185162   6.338   5.076   7.429 -1.2629 -0.3054  2.3197
27295SOL    HW285163   6.195   5.027   7.436 -1.2484 -1.0744 -0.8991
27296SOL     OW85164   8.434   0.495   0.730  0.3337  0.1887 -0.7520
27296SOL    HW185165   8.358   0.447   0.698 -2.6566  2.1252  2.6158
27296SOL    HW285166   8.410   0.588   0.720  1.4601  0.8628  1.7794
27297SOL     OW85167   1.773   6.112   7.925 -0.0659  0.6791  0.5158
27297SOL    HW185168   1.850   6.163   7.951  1.3750 -1.0490 -0.1186
27297SOL    HW285169   1.805   6.022   7.922 -2.1804 -0.1041  0.3350
27298SOL     OW85170   3.083   3.686   0.961  0.2102 -0.1197 -0.0840
27298SOL    HW185171   3.049   3.770   0.992 -0.3811 -0.6292  0.6748
27298SOL    HW285172   3.007   3.629   0.958  1.0302 -1.4490  2.1492
27299SOL     OW85173   0.073   6.527   1.895 -0.5830  0.4179 -0.2078
27299SOL    HW185174   0.102   6.600   1.950  0.4477  1.1492 -1.6547
27299SOL    HW285175  -0.004   6.561   1.849 -0.0069  0.6774 -1.0040
27300SOL     OW85176   4.199   8.994   7.645 -0.3965 -0.0088 -0.6172
27300SOL    HW185177   4.199   8.925   7.711 -1.0092  1.2077  0.6876
27300SOL    HW285178   4.115   9.038   7.657 -0.2139  0.6782 -1.7489
27301SOL     OW85179   9.497   6.328   6.079 -0.2328  0.2269 -0.0258
27301SOL    HW185180   9.559   6.356   6.011 -3.1852  0.7388 -2.7817
27301SOL    HW285181   9.529   6.243   6.108  1.4320  0.2061 -1.7553
27302SOL     OW85182   1.273   8.785   2.078  0.1886 -0.2191  0.1616
27302SOL    HW185183   1.244   8.866   2.120  4.3169  2.2296 -1.1200
27302SOL    HW285184   1.208   8.770   2.008 -0.1670  2.6370 -0.2402
27303SOL     OW85185   2.391  11.160   4.681  0.0002 -0.1996 -0.2336
27303SOL    HW185186   2.386  11.182   4.588 -0.2611 -2.0596 -0.6968
27303SOL    HW285187   2.447  11.228   4.718 -1.7985  1.9635 -1.2631
27304SOL     OW85188   0.796   7.223   3.047  0.1812  0.0457  0.2841
27304SOL    HW185189   0.732   7.153   3.031 -0.2051  0.5286 -0.3668
27304SOL    HW285190   0.744   7.295   3.084  0.5641  0.0123  0.9013
27305SOL     OW85191   6.906   7.303   1.477 -1.0867 -0.4259  0.1069
27305SOL    HW185192   6.853   7.232   1.441 -0.8243 -0.9816  0.8080
27305SOL    HW285193   6.990   7.295   1.432 -0.7477 -1.1413  0.8541
27306SOL     OW85194   5.607   1.825  10.589 -0.4907 -0.5515 -0.2398
27306SOL    HW185195   5.606   1.868  10.674 -0.3583 -0.8734 -0.0719
27306SOL    HW285196   5.564   1.886  10.530  1.6160  0.7984 -0.4940
27307SOL     OW85197   4.468   6.413   7.612  0.2661  0.1243 -0.4474
27307SOL    HW185198   4.473   6.335   7.667 -0.6765  0.5252  0.2290
27307SOL    HW285199   4.510   6.482   7.664  1.7257 -0.0599 -1.3258
27308SOL     OW85200   2.630  10.058   6.895 -0.0874  0.1228  0.2940
27308SOL    HW185201   2.561  10.103   6.944 -0.4644  0.0666 -0.1820
27308SOL    HW285202   2.629  10.098   6.808  0.5312  0.1723  0.3013
27309SOL     OW85203   2.342   2.530  10.474 -0.1662 -0.4532 -0.0284
27309SOL    HW185204   2.315   2.602  10.417 -1.9845  1.2165  2.7425
27309SOL    HW285205   2.435   2.519  10.456  0.1319  2.4400 -0.7460
27310SOL     OW85206   1.615   3.017   5.399 -0.0940 -0.5598  0.2087
27310SOL    HW185207   1.593   2.925   5.384 -1.8509 -0.1484  0.0121
27310SOL    HW285208   1.592   3.061   5.317  2.3516 -0.1524 -0.3352
27311SOL     OW85209   5.041   5.540   6.469 -0.1345 -0.4479 -0.0701
27311SOL    HW185210   4.969   5.479   6.452 -0.6278  0.4768 -1.5279
27311SOL    HW285211   5.087   5.547   6.386 -0.4529  1.5879 -0.1263
27312SOL     OW85212   6.922  10.090   6.556  0.0261 -0.0206 -0.2636
27312SOL    HW185213   6.901  10.104   6.648 -0.0126 -2.0923  0.0879
27312SOL    HW285214   6.858  10.144   6.509  0.0340  1.0442  0.8989
27313SOL     OW85215  10.870   2.789   3.896 -0.1941 -0.1390  0.0973
27313SOL    HW185216  10.870   2.720   3.830 -1.8073 -0.5152  0.4601
27313SOL    HW285217  10.825   2.862   3.854 -1.4628 -0.4677  0.8280
27314SOL     OW85218  10.276   3.310  10.198  0.0659 -0.0213  0.0545
27314SOL    HW185219  10.191   3.293  10.237  0.4388  1.7421  1.7687
27314SOL    HW285220  10.331   3.237  10.227 -0.6503 -0.7655 -0.4355
27315SOL     OW85221   1.832   6.178   1.729  0.2402  0.0019 -0.1964
27315SOL    HW185222   1.888   6.170   1.806 -0.0641 -0.2624 -0.0023
27315SOL    HW285223   1.837   6.091   1.688 -1.6459 -0.6925  0.9301
27316SOL     OW85224   5.362   3.769   4.986  0.1878 -0.3616 -0.0365
27316SOL    HW185225   5.348   3.689   5.036 -0.0620 -0.0633  0.3756
27316SOL    HW285226   5.413   3.741   4.910 -0.4507 -1.0253 -0.2322
27317SOL     OW85227  10.420   8.434   1.661  0.5282  0.4880 -0.2007
27317SOL    HW185228  10.440   8.413   1.753  3.0854  1.9977 -0.3194
27317SOL    HW285229  10.424   8.529   1.657 -2.6015  0.6844 -1.3404
27318SOL     OW85230   2.568   2.857   1.908  0.2228 -0.2195  0.4957
27318SOL    HW185231   2.571   2.799   1.984  0.8677  0.4273  0.9899
27318SOL    HW285232   2.644   2.833   1.856 -0.2465 -0.6950  0.0244
27319SOL     OW85233   6.617   5.344   5.790 -0.1896  0.6015  0.2810
27319SOL    HW185234   6.553   5.274   5.780 -0.6213  0.9488  0.5408
27319SOL    HW285235   6.692   5.302   5.830  0.5110 -0.2162 -1.7761
27320SOL     OW85236   2.568   4.273   6.959 -0.3223 -0.3963 -0.0056
27320SOL    HW185237   2.483   4.313   6.942 -0.4627 -0.6140  0.1773
27320SOL    HW285238   2.552   4.179   6.955  0.5337 -0.4957 -3.0616
27321SOL     OW85239   6.763   5.031   8.533 -0.0332 -0.2529 -0.1935
27321SOL    HW185240   6.724   4.949   8.563  0.0315  0.3830  1.6922
27321SOL    HW285241   6.826   5.003   8.466 -1.3144 -1.5590 -0.9123
27322SOL     OW85242   3.747   5.133   9.724  0.4817 -0.2896  0.5319
27322SOL    HW185243   3.785   5.074   9.658 -0.2672 -0.0377 -0.1504
27322SOL    HW285244   3.822   5.180   9.760  0.8307  0.5095 -1.0904
27323SOL     OW85245   8.699   4.128   5.176 -0.0456  0.2498  0.0200
27323SOL    HW185246   8.699   4.181   5.096  0.5247  0.2090 -0.0113
27323SOL    HW285247   8.640   4.174   5.235  0.1578  0.7241 -0.1368
27324SOL     OW85248   1.555  10.807   7.238 -0.5416  0.2939 -0.5963
27324SOL    HW185249   1.582  10.875   7.176 -0.1714 -0.2266 -1.0119
27324SOL    HW285250   1.477  10.769   7.198  1.1416 -1.8233 -2.1304
27325SOL     OW85251   2.726   8.888   4.634  0.3712  0.8140  0.0877
27325SOL    HW185252   2.721   8.896   4.538  0.2857  0.2870  0.0473
27325SOL    HW285253   2.635   8.882   4.662  0.4269  0.1307  0.1278
27326SOL     OW85254   6.712   3.341   6.825 -0.5059  0.4116 -0.2051
27326SOL    HW185255   6.796   3.385   6.830 -0.1438 -0.3072  0.2232
27326SOL    HW285256   6.649   3.403   6.862 -0.0292  0.6313  0.2472
27327SOL     OW85257   1.355  10.559   4.928  0.4843 -0.1219  0.3795
27327SOL    HW185258   1.377  10.639   4.976  0.5515 -0.9696  1.8015
27327SOL    HW285259   1.432  10.542   4.874  0.1008  1.2661 -0.6706
27328SOL     OW85260   2.415  10.777   7.669  0.0070  0.1815 -0.2765
27328SOL    HW185261   2.431  10.861   7.626  0.0063  0.9550  1.1443
27328SOL    HW285262   2.480  10.717   7.631  1.0008  1.2200 -0.2675
27329SOL     OW85263  10.484   7.641   9.851  0.5481  0.3005 -0.1513
27329SOL    HW185264  10.576   7.668   9.842  0.7110 -0.2799 -0.3379
27329SOL    HW285265  10.434   7.721   9.840  1.0693  0.7933  0.8701
27330SOL     OW85266   0.105   0.167  10.382  0.0172  0.2519  0.1583
27330SOL    HW185267   0.191   0.186  10.419 -0.4865 -0.0009  1.5264
27330SOL    HW285268   0.085   0.242  10.327  0.3579  1.1668  1.2372
27331SOL     OW85269   6.789  11.006   0.819 -0.1468  0.3097  0.0203
27331SOL    HW185270   6.732  10.932   0.840  0.0214 -0.6064 -2.5148
27331SOL    HW285271   6.737  11.060   0.760  1.5591 -0.6254 -2.4653
27332SOL     OW85272  10.838   9.054   0.489 -0.0881  0.3483  0.3831
27332SOL    HW185273  10.924   9.097   0.489  0.1647 -0.1092 -1.0586
27332SOL    HW285274  10.776   9.126   0.478  0.2262  0.5212 -0.3146
27333SOL     OW85275   0.602   9.479   6.925 -0.3824  0.0614 -0.0967
27333SOL    HW185276   0.561   9.484   6.838  0.1438 -1.8541 -0.4939
27333SOL    HW285277   0.695   9.466   6.907  0.3188  3.0675  0.8024
27334SOL     OW85278   4.820   2.827   4.576  0.5894  0.7086 -0.2173
27334SOL    HW185279   4.757   2.898   4.594  2.2391  2.6583 -1.6372
27334SOL    HW285280   4.901   2.858   4.615  0.5454 -2.3192  2.6644
27335SOL     OW85281  10.026   3.960   5.518 -0.5868 -0.3838 -0.0779
27335SOL    HW185282  10.093   3.975   5.585  0.1127 -1.0885 -0.6108
27335SOL    HW285283   9.980   3.882   5.547  0.1618 -1.0880 -0.7599
27336SOL     OW85284   8.574   7.218   2.579 -0.0460 -0.1696  0.6757
27336SOL    HW185285   8.479   7.204   2.578  0.1411 -1.6552  1.5381
27336SOL    HW285286   8.609   7.145   2.528  0.6165  0.7184 -0.1743
27337SOL     OW85287   6.570   3.470  10.207 -0.0514  0.0241 -0.4574
27337SOL    HW185288   6.530   3.456  10.121  0.0404 -2.5972 -0.1524
27337SOL    HW285289   6.497   3.490  10.265 -0.5388 -1.3415 -0.5679
27338SOL     OW85290   9.521   2.021   0.870 -0.2267  0.4148  0.2009
27338SOL    HW185291   9.578   2.052   0.941  0.4549 -1.0413  0.3208
27338SOL    HW285292   9.490   2.101   0.828  1.3164  1.2679  0.6114
27339SOL     OW85293   1.146  10.136  11.248 -0.7478 -0.6081 -0.5299
27339SOL    HW185294   1.080  10.129  11.179  0.9621  0.2465 -2.3671
27339SOL    HW285295   1.211  10.197  11.212 -0.8114  1.6396  2.7319
27340SOL     OW85296  11.023   7.894   6.414 -0.0240 -0.9250 -0.0207
27340SOL    HW185297  11.049   7.810   6.378  3.9436 -0.0117  0.2853
27340SOL    HW285298  11.066   7.899   6.499 -1.3671  0.8555  0.6361
27341SOL     OW85299   8.909   9.663   1.474 -0.2370  0.2494 -0.5260
27341SOL    HW185300   9.004   9.665   1.488  0.1642  0.4846 -2.8768
27341SOL    HW285301   8.874   9.724   1.538  0.9341 -1.4699  1.9109
27342SOL     OW85302   6.496   4.758   0.824 -0.2172 -0.1534  0.1107
27342SOL    HW185303   6.462   4.723   0.906 -1.9466 -0.6248 -0.7609
27342SOL    HW285304   6.450   4.708   0.756  0.9184  0.4553 -1.1595
27343SOL     OW85305   5.290   2.594   9.544  0.7676 -0.1221  0.3934
27343SOL    HW185306   5.208   2.576   9.498  1.3409  0.5744 -0.9380
27343SOL    HW285307   5.345   2.637   9.480  1.4795  1.2311  1.8350
27344SOL     OW85308  10.064   7.025   0.113 -0.0824  0.1335  0.4217
27344SOL    HW185309  10.056   7.109   0.160 -0.1246 -0.5615  1.7024
27344SOL    HW285310   9.992   6.972   0.148 -1.5997  0.3306 -2.1496
27345SOL     OW85311  11.134  11.242   8.458 -0.2360 -0.1629  0.0605
27345SOL    HW185312  11.222  11.206   8.447 -0.8757 -1.3883 -1.2570
27345SOL    HW285313  11.117  11.236   8.552  0.8590 -0.4388  0.2531
27346SOL     OW85314  10.387   3.940   0.350 -0.1226 -0.1934 -0.4565
27346SOL    HW185315  10.473   3.903   0.370  0.8887  1.5271 -1.3684
27346SOL    HW285316  10.327   3.866   0.357  1.4746 -1.5219 -0.1480
27347SOL     OW85317   1.203   3.740   4.863  0.4514  0.1460 -0.1043
27347SOL    HW185318   1.133   3.687   4.824  0.8985  0.0402 -0.7821
27347SOL    HW285319   1.160   3.822   4.887  0.5131  0.9551 -2.5104
27348SOL     OW85320   2.799   9.840   6.949  0.0498 -0.1812  0.7671
27348SOL    HW185321   2.760   9.925   6.926  0.1932 -0.8576 -2.5019
27348SOL    HW285322   2.885   9.842   6.907  0.3229 -1.6699  1.2341
27349SOL     OW85323   8.697   3.722   5.085 -0.4757  0.1753  0.0552
27349SOL    HW185324   8.749   3.659   5.134  0.2575  0.7343  0.0013
27349SOL    HW285325   8.631   3.751   5.148  0.6625  1.1362  0.8411
27350SOL     OW85326   8.258   6.691   3.540 -0.1922 -0.0942 -0.4696
27350SOL    HW185327   8.277   6.784   3.544  2.7509 -0.5156 -2.0211
27350SOL    HW285328   8.180   6.685   3.484 -2.9601  1.5236  2.8576
27351SOL     OW85329   7.688   3.834  10.538 -0.1802 -0.4322  0.0417
27351SOL    HW185330   7.692   3.915  10.486  1.0312 -1.3526 -1.3983
27351SOL    HW285331   7.636   3.857  10.615 -0.5133  1.4991 -0.7039
27352SOL     OW85332   1.425  10.895   0.587  0.4377  0.0694 -0.0965
27352SOL    HW185333   1.347  10.917   0.638 -0.4802 -2.5496 -0.2432
27352SOL    HW285334   1.429  10.961   0.518 -1.6402  0.2813 -0.0626
27353SOL     OW85335   7.062   9.339   1.692  0.2122  0.0973 -0.1884
27353SOL    HW185336   6.994   9.308   1.752  0.0111  1.3001  0.2330
27353SOL    HW285337   7.028   9.422   1.659  1.1510  0.3461 -0.5500
27354SOL     OW85338   7.399   7.397   1.502  0.4720 -0.1517 -0.1000
27354SOL    HW185339   7.429   7.325   1.558 -1.0957 -1.4552 -0.8392
27354SOL    HW285340   7.459   7.395   1.428  1.2057  0.1341  0.4776
27355SOL     OW85341   3.086   6.615   5.641  0.5902 -0.0932  0.1808
27355SOL    HW185342   3.094   6.665   5.560  0.0518  0.3868  0.4144
27355SOL    HW285343   3.006   6.564   5.629  0.7069 -0.2953  0.2634
27356SOL     OW85344   9.504   8.749   8.468  0.0933  0.1182 -0.2620
27356SOL    HW185345   9.537   8.816   8.527 -1.2340 -0.9031  1.7275
27356SOL    HW285346   9.572   8.741   8.401  0.9570  2.3696  0.2425
27357SOL     OW85347   9.629   8.131   6.612 -0.9958  0.2778 -0.4942
27357SOL    HW185348   9.566   8.090   6.670 -0.1096 -1.1659 -0.5033
27357SOL    HW285349   9.699   8.161   6.670  0.1536 -1.6582 -0.8010
27358SOL     OW85350   1.818   0.608   1.308 -0.0185 -0.5073  0.2578
27358SOL    HW185351   1.796   0.677   1.371 -0.3647 -1.6091  1.3902
27358SOL    HW285352   1.759   0.624   1.234 -2.3055 -1.3037  1.7645
27359SOL     OW85353   5.677   0.494   1.179 -0.4369  0.2001 -0.6882
27359SOL    HW185354   5.589   0.484   1.142 -0.3593 -1.2775 -0.5533
27359SOL    HW285355   5.663   0.508   1.272 -0.5364 -0.2444 -0.6332
27360SOL     OW85356   2.681   5.750   8.984  0.7660  0.2125 -0.0479
27360SOL    HW185357   2.626   5.826   9.005 -0.7210 -0.8356 -0.0159
27360SOL    HW285358   2.733   5.736   9.063 -1.4541 -0.8688  1.3207
27361SOL     OW85359  10.633   5.070   2.720  0.2995 -0.0637  0.9068
27361SOL    HW185360  10.698   5.073   2.649  0.8227  0.3875  1.3995
27361SOL    HW285361  10.651   4.989   2.766 -0.2102 -0.4908  0.3840
27362SOL     OW85362   7.627   6.016   2.728  0.1296  0.1665  0.5359
27362SOL    HW185363   7.672   5.941   2.767 -0.9906 -0.3804  0.7978
27362SOL    HW285364   7.548   6.027   2.780  0.4209  1.7436  0.7033
27363SOL     OW85365   5.277   8.946   7.413  0.2429  0.1253  0.2462
27363SOL    HW185366   5.345   9.013   7.402  0.6646 -0.5027 -1.1067
27363SOL    HW285367   5.203   8.994   7.451  1.1300  0.9919  0.9430
27364SOL     OW85368   2.879   5.515   8.603  0.2324  0.5978  0.1001
27364SOL    HW185369   2.943   5.584   8.582  4.1196 -2.6406  0.1132
27364SOL    HW285370   2.841   5.491   8.519  0.9469  0.8890 -0.3160
27365SOL     OW85371   1.340  11.036   3.399 -0.0473 -0.0989 -0.1664
27365SOL    HW185372   1.267  11.020   3.339 -0.0332 -0.5945 -0.0590
27365SOL    HW285373   1.384  10.951   3.406  2.4873  0.8205 -2.7365
27366SOL     OW85374   2.010   0.341   0.324 -0.1597 -0.0034  0.3555
27366SOL    HW185375   2.043   0.331   0.413 -0.5655 -0.8045  0.4291
27366SOL    HW285376   2.073   0.295   0.269 -0.4667 -0.4238  0.3518
27367SOL     OW85377   8.618   2.365   4.191  0.4135  0.4384  0.9191
27367SOL    HW185378   8.675   2.430   4.150  0.2322  0.3274  0.4943
27367SOL    HW285379   8.539   2.365   4.138  0.0102  0.5936  1.5116
27368SOL     OW85380  10.894   7.530  10.821 -0.4487 -0.2661 -0.2847
27368SOL    HW185381  10.941   7.567  10.746 -2.0349  1.1591 -0.6607
27368SOL    HW285382  10.872   7.441  10.795 -0.4377  0.0102 -1.2787
27369SOL     OW85383  11.081   1.068   7.949 -0.5437 -0.3085 -0.3903
27369SOL    HW185384  11.053   1.116   8.027 -0.6912 -1.1382  0.0904
27369SOL    HW285385  11.164   1.109   7.923 -1.1656  0.8483 -0.6057
27370SOL     OW85386   6.611   3.488   4.978  0.1068 -0.1117 -0.7831
27370SOL    HW185387   6.682   3.496   5.042 -0.4712  1.0681 -0.2541
27370SOL    HW285388   6.652   3.448   4.901  0.7929 -1.6628  0.3432
27371SOL     OW85389   5.453   8.214   2.219 -0.4673  0.0070  0.2875
27371SOL    HW185390   5.397   8.191   2.145  1.2605 -1.1661 -0.7387
27371SOL    HW285391   5.437   8.145   2.283  0.3383 -0.7812 -0.3327
27372SOL     OW85392   1.028   0.862   6.351 -0.2439 -0.2701 -0.1415
27372SOL    HW185393   1.053   0.954   6.344 -1.3853  0.0176 -0.6596
27372SOL    HW285394   0.933   0.863   6.354 -0.2714 -1.4383 -0.1426
27373SOL     OW85395   4.406   7.101   9.284  0.0319 -0.2935  0.0277
27373SOL    HW185396   4.376   7.022   9.329 -1.5965  0.8224  0.9987
27373SOL    HW285397   4.374   7.090   9.194 -0.7168 -0.4981  0.3049
27374SOL     OW85398   2.837   8.517  11.283 -0.2641  0.4163  0.2178
27374SOL    HW185399   2.926   8.482  11.290  0.0616  1.1204 -0.2266
27374SOL    HW285400   2.806   8.486  11.198 -0.5021  0.0541  0.4333
27375SOL     OW85401   3.729   4.664   9.812  0.8162 -0.2686  0.7502
27375SOL    HW185402   3.742   4.733   9.877  1.6460  0.0413  0.2722
27375SOL    HW285403   3.817   4.635   9.790  0.6301  0.4292 -1.0744
27376SOL     OW85404   4.370   9.090   1.248 -0.3623 -0.7333 -0.3073
27376SOL    HW185405   4.321   9.016   1.283 -0.9107 -1.1573 -1.9110
27376SOL    HW285406   4.306   9.161   1.243 -0.0733 -0.4112  0.2992
27377SOL     OW85407   1.923   7.887   9.001 -0.0729  0.3301 -0.0037
27377SOL    HW185408   1.888   7.975   9.012 -1.0607 -0.0256 -0.2087
27377SOL    HW285409   1.847   7.833   8.980  0.3835 -0.7199  0.9047
27378SOL     OW85410   2.892   6.390   0.449 -0.0233 -0.3806  0.0758
27378SOL    HW185411   2.912   6.329   0.520 -0.5668 -1.5312 -0.7117
27378SOL    HW285412   2.890   6.476   0.490  0.1931 -0.9567  1.3443
27379SOL     OW85413   0.754   7.329   9.721 -0.1087  0.4196  0.0752
27379SOL    HW185414   0.717   7.308   9.636  2.5617  0.5520 -1.2358
27379SOL    HW285415   0.842   7.291   9.719  0.0722  0.4759  2.7723
27380SOL     OW85416   7.723   1.269   1.019  0.1497  0.0187  0.0478
27380SOL    HW185417   7.753   1.181   0.997  0.0508 -0.4802  1.7545
27380SOL    HW285418   7.630   1.270   0.996 -0.2883 -0.9456  1.6130
27381SOL     OW85419   0.852   1.895   1.007  0.4413 -0.2353  0.0702
27381SOL    HW185420   0.912   1.865   0.939 -0.7256 -2.5664 -0.0137
27381SOL    HW285421   0.872   1.841   1.083 -2.2544 -1.9851 -0.3125
27382SOL     OW85422   9.417  10.776   3.757 -0.2660 -0.1889 -0.5939
27382SOL    HW185423   9.418  10.835   3.682  0.4589 -0.4567 -0.8107
27382SOL    HW285424   9.458  10.696   3.725 -0.0593 -0.3514  0.0527
27383SOL     OW85425   7.173   5.594   4.372  0.4378 -0.5906 -0.0782
27383SOL    HW185426   7.248   5.579   4.314  1.2101  0.8512  0.5063
27383SOL    HW285427   7.195   5.546   4.452  0.4652 -0.6311 -0.1099
27384SOL     OW85428   8.676   8.418   9.466  0.6368 -0.0465 -0.2612
27384SOL    HW185429   8.702   8.363   9.540  0.7539 -1.1241 -1.0785
27384SOL    HW285430   8.737   8.491   9.469  1.9496 -1.0933 -0.4464
27385SOL     OW85431   7.480  10.739   5.253  0.1042  0.0447  0.6568
27385SOL    HW185432   7.501  10.775   5.338  1.8091  0.9691 -0.1148
27385SOL    HW285433   7.418  10.668   5.271  0.1062  0.4985  2.5892
27386SOL     OW85434   5.962  10.700   6.091  0.2700 -0.1635  0.3576
27386SOL    HW185435   6.007  10.779   6.122 -1.5634  0.8390  0.5821
27386SOL    HW285436   5.915  10.729   6.013 -1.6961 -0.6093  1.3337
27387SOL     OW85437   2.770  11.063   5.759  0.5695 -0.1767  0.2777
27387SOL    HW185438   2.779  11.048   5.853  2.1440  0.6440  0.2953
27387SOL    HW285439   2.807  11.150   5.745  2.0830 -1.0211 -1.3406
27388SOL     OW85440   2.107   2.436   4.232 -0.0688  0.2046  0.5339
27388SOL    HW185441   2.034   2.480   4.275 -0.5172 -0.1711  0.1596
27388SOL    HW285442   2.111   2.350   4.272 -0.7239 -0.2843 -0.4126
27389SOL     OW85443   6.044   3.545   9.213 -0.2304  0.6790 -0.5026
27389SOL    HW185444   6.070   3.526   9.303  0.5790  1.0785 -0.6478
27389SOL    HW285445   5.950   3.526   9.211 -0.2702  0.7355  0.4402
27390SOL     OW85446   8.084   9.182   4.221  0.1675  0.2821 -0.2787
27390SOL    HW185447   8.056   9.115   4.159 -0.5369  1.5456 -1.3920
27390SOL    HW285448   8.170   9.210   4.190  1.3254 -1.3695  1.2824
27391SOL     OW85449   2.705   0.228   3.659  0.4318 -0.8259  0.4210
27391SOL    HW185450   2.661   0.149   3.628  0.8336 -0.7757 -0.2899
27391SOL    HW285451   2.788   0.197   3.694 -0.1138 -0.9145  1.7225
27392SOL     OW85452   2.260   7.192   6.788 -0.2953  0.0343 -0.3503
27392SOL    HW185453   2.355   7.183   6.782 -0.3373 -1.5902  0.6872
27392SOL    HW285454   2.231   7.200   6.697  0.7372 -0.9870 -0.7994
27393SOL     OW85455   7.993   2.255   9.137 -0.1480  0.1064 -0.0632
27393SOL    HW185456   7.941   2.185   9.098 -1.3354  1.6092 -1.3056
27393SOL    HW285457   7.968   2.255   9.229 -0.8472 -0.4930 -0.2397
27394SOL     OW85458   1.635   2.613   4.169  0.3016  0.5193 -0.2436
27394SOL    HW185459   1.553   2.580   4.207  0.2751 -0.1211 -0.8472
27394SOL    HW285460   1.640   2.572   4.083  1.9937 -0.5960  0.3561
27395SOL     OW85461   7.865   3.761   6.792  0.5286  0.1008 -0.1391
27395SOL    HW185462   7.833   3.819   6.722  1.1980  0.2636 -0.3133
27395SOL    HW285463   7.827   3.676   6.770 -0.7066  0.5180  0.2823
27396SOL     OW85464   9.283   1.496   6.069 -0.0577 -0.2381 -0.0069
27396SOL    HW185465   9.244   1.421   6.113  0.9109  0.0592  1.4139
27396SOL    HW285466   9.372   1.469   6.049  0.0474  0.2455 -0.2112
27397SOL     OW85467   0.038   5.413   9.111  0.4192  0.2486  0.5070
27397SOL    HW185468  -0.019   5.438   9.038  1.6622 -1.3550 -1.0851
27397SOL    HW285469   0.073   5.327   9.087  2.8288  0.7686  1.8110
27398SOL     OW85470   6.129   9.460   5.771  0.1854  0.4606  0.0449
27398SOL    HW185471   6.186   9.465   5.694  0.3448  0.0079  0.1281
27398SOL    HW285472   6.187   9.435   5.843 -0.1983 -0.5753  0.0193
27399SOL     OW85473   8.388   8.358   8.443  0.3987 -0.0108 -0.3648
27399SOL    HW185474   8.384   8.333   8.535  0.1459 -1.2235 -0.6882
27399SOL    HW285475   8.327   8.432   8.435 -0.3344 -0.5415  0.2388
27400SOL     OW85476   8.784   5.855   3.526  0.2043 -0.0422 -0.6703
27400SOL    HW185477   8.760   5.935   3.573  0.8736  0.2950 -0.8834
27400SOL    HW285478   8.833   5.886   3.450  0.2522 -0.6463 -0.8879
27401SOL     OW85479   7.568   9.655   4.941  0.5674  0.5657 -0.0386
27401SOL    HW185480   7.600   9.711   4.871 -0.5764 -0.1711 -1.2070
27401SOL    HW285481   7.628   9.581   4.942  0.4320  0.4459 -0.4441
27402SOL     OW85482   2.994   0.795   5.434 -0.2891  0.4263  0.0492
27402SOL    HW185483   3.026   0.727   5.376 -0.3396 -1.0457  1.6643
27402SOL    HW285484   2.964   0.865   5.376  2.6052  0.4312 -1.5913
27403SOL     OW85485   7.857   7.726   1.864  0.4578 -0.2521  0.5675
27403SOL    HW185486   7.767   7.733   1.832  0.1356  2.2234  1.7456
27403SOL    HW285487   7.910   7.772   1.799  0.8317 -1.2944  0.1152
27404SOL     OW85488   7.413   8.562   3.041  0.0944 -0.3174 -0.5727
27404SOL    HW185489   7.501   8.583   3.074 -0.4717 -0.1954  0.9437
27404SOL    HW285490   7.394   8.631   2.978  0.6969  0.2157 -0.1867
27405SOL     OW85491   3.615   9.368   9.680  0.8610 -0.5323  0.1171
27405SOL    HW185492   3.698   9.324   9.661  0.4139 -1.9169  1.1751
27405SOL    HW285493   3.627   9.458   9.649  2.8558 -0.6179  0.5541
27406SOL     OW85494  11.308   2.061   0.580  0.0980  0.1699 -0.4536
27406SOL    HW185495  11.322   2.155   0.588  0.0646  0.1837 -0.5476
27406SOL    HW285496  11.380   2.031   0.523 -0.7508  0.3843 -1.6689
27407SOL     OW85497   2.217   3.606  10.668 -0.1085 -0.1456  0.1079
27407SOL    HW185498   2.278   3.593  10.741 -0.3593  0.1897  0.3804
27407SOL    HW285499   2.273   3.631  10.595  0.0014  1.1079  0.6040
27408SOL     OW85500   3.259   0.172   6.880  0.2470  0.8895  0.4580
27408SOL    HW185501   3.335   0.228   6.895 -0.5185  2.2014 -0.3217
27408SOL    HW285502   3.258   0.112   6.954  0.0860  3.0938  2.3398
27409SOL     OW85503  10.528   5.498   8.823 -0.3720  0.7560 -0.3038
27409SOL    HW185504  10.490   5.414   8.849 -0.9854  0.7962 -1.0062
27409SOL    HW285505  10.608   5.476   8.776  0.8629  0.6943  1.7314
27410SOL     OW85506   8.867  11.084   1.963 -0.5513  0.1812  1.0003
27410SOL    HW185507   8.884  11.178   1.961  1.4102 -0.0582  2.8019
27410SOL    HW285508   8.912  11.049   1.887 -1.7151  0.7037  0.0304
27411SOL     OW85509   2.508   4.394   9.290 -0.2661 -0.5939  0.6902
27411SOL    HW185510   2.426   4.402   9.243 -1.0104 -0.6473  1.9218
27411SOL    HW285511   2.520   4.478   9.334 -0.0697 -0.8527  1.1435
27412SOL     OW85512  10.055   0.300   5.397  0.1108  0.0655  0.5557
27412SOL    HW185513   9.984   0.236   5.386  0.1339  0.2553 -1.0009
27412SOL    HW285514  10.019   0.368   5.454 -0.6168 -0.3328  0.5722
27413SOL     OW85515   4.192   8.200   9.950  0.0679 -0.2027  0.0351
27413SOL    HW185516   4.218   8.184   9.859 -0.2195 -1.2430  0.1260
27413SOL    HW285517   4.265   8.248   9.988  0.5142 -0.4188 -0.5437
27414SOL     OW85518   4.041   4.857   9.601 -0.0612 -0.2552  0.3607
27414SOL    HW185519   4.096   4.822   9.532 -0.2691  0.6386 -0.2766
27414SOL    HW285520   4.102   4.887   9.668  0.4566  2.8558 -1.3174
27415SOL     OW85521   4.205   3.365   5.708 -0.1010  0.1912  0.0426
27415SOL    HW185522   4.254   3.282   5.717  0.1531  0.4897  1.9288
27415SOL    HW285523   4.242   3.406   5.630  1.0849 -0.6422  0.1284
27416SOL     OW85524   3.042   6.777   6.035  0.6041 -0.1796  0.2394
27416SOL    HW185525   3.131   6.741   6.034  1.4688  1.7535  1.4552
27416SOL    HW285526   3.054   6.871   6.024 -1.2480  0.1977  1.0526
27417SOL     OW85527  10.141   8.218   1.406 -0.0364 -0.5626  0.2287
27417SOL    HW185528  10.231   8.248   1.390 -0.3700  0.4030  0.0908
27417SOL    HW285529  10.088   8.297   1.397 -1.1568 -1.4760 -1.8115
27418SOL     OW85530   8.236   3.952   1.028  0.5523 -0.0110  0.1402
27418SOL    HW185531   8.244   3.884   1.094 -0.3332  0.2474  0.5222
27418SOL    HW285532   8.282   3.916   0.952  1.5294 -0.3299  0.8702
27419SOL     OW85533  11.231   7.894   9.810 -0.0523  0.1178 -0.2495
27419SOL    HW185534  11.312   7.939   9.830  1.1536 -2.5603  1.5141
27419SOL    HW285535  11.251   7.839   9.734 -0.2803 -0.3333  0.0096
27420SOL     OW85536   5.217   1.003   4.541 -0.0693  0.6193 -0.0675
27420SOL    HW185537   5.124   1.022   4.530 -0.3981 -0.9706 -0.2160
27420SOL    HW285538   5.256   1.089   4.559 -1.5388  1.3251 -0.0412
27421SOL     OW85539   6.679   1.279  10.539  0.4110 -0.2201 -0.0573
27421SOL    HW185540   6.604   1.315  10.491  0.0463  0.4222  0.9565
27421SOL    HW285541   6.640   1.221  10.604  0.9077 -1.2056 -0.6222
27422SOL     OW85542   4.794  10.555   8.289 -0.1613 -0.6616 -0.3030
27422SOL    HW185543   4.876  10.580   8.331 -0.0396  1.7613 -1.7779
27422SOL    HW285544   4.820  10.525   8.202 -0.8649  1.5152 -1.3296
27423SOL     OW85545  10.470   1.277   2.169 -0.0395 -0.2619  0.3168
27423SOL    HW185546  10.524   1.279   2.248  1.4061 -0.7659 -0.6041
27423SOL    HW285547  10.516   1.217   2.110 -1.6628 -0.7555 -0.5104
27424SOL     OW85548   2.665   2.407   6.192 -0.0652  0.6506  0.4109
27424SOL    HW185549   2.724   2.480   6.174  1.4039  0.0508  2.3497
27424SOL    HW285550   2.594   2.445   6.244 -0.1183  0.9630  0.1098
27425SOL     OW85551   3.952   2.132   9.674  0.2502 -0.3561  0.5530
27425SOL    HW185552   3.892   2.095   9.739  0.2502 -0.9480  0.2242
27425SOL    HW285553   3.921   2.222   9.662 -1.5555 -1.0719 -0.7091
27426SOL     OW85554   2.863  10.148   5.702  0.6760 -0.6859 -0.3485
27426SOL    HW185555   2.906  10.067   5.728  1.1914 -0.4222 -0.3706
27426SOL    HW285556   2.771  10.135   5.725  1.1107 -0.4424  1.7164
27427SOL     OW85557   4.411   5.226   0.603  0.3371 -0.3730  0.1017
27427SOL    HW185558   4.354   5.226   0.527  1.3133  0.7291 -0.6642
27427SOL    HW285559   4.354   5.201   0.676 -1.6451  2.6782 -0.2463
27428SOL     OW85560   6.625   6.148   6.630  0.4454  0.0253  0.0458
27428SOL    HW185561   6.615   6.053   6.620  0.8367 -0.1529  1.1446
27428SOL    HW285562   6.622   6.162   6.725 -0.9276  1.2699 -0.1602
27429SOL     OW85563   0.878   8.423   6.828  0.0380  0.2273  0.6323
27429SOL    HW185564   0.939   8.492   6.854  0.6391 -0.3659  0.8406
27429SOL    HW285565   0.801   8.437   6.883  0.2783  0.5500  0.8937
27430SOL     OW85566  11.313   2.521   0.643  0.1112  0.2522 -0.0413
27430SOL    HW185567  11.366   2.601   0.641 -0.6214  0.7917  0.9662
27430SOL    HW285568  11.354   2.463   0.579  0.2126  1.7098 -1.3768
27431SOL     OW85569   1.553   7.239   2.493 -0.5861 -0.1012  0.3278
27431SOL    HW185570   1.497   7.304   2.449 -0.6238 -0.1556  0.2947
27431SOL    HW285571   1.493   7.194   2.553 -0.5574 -0.0980  0.3588
27432SOL     OW85572   4.328   3.879   6.946  0.1787 -0.2620 -0.1458
27432SOL    HW185573   4.256   3.941   6.955 -1.0991 -1.9073  2.0944
27432SOL    HW285574   4.297   3.814   6.884 -0.1154 -0.7188  0.4653
27433SOL     OW85575   2.487   5.959   0.378 -0.5667  0.1411  0.2309
27433SOL    HW185576   2.543   6.003   0.314 -0.0707 -0.7299  0.0433
27433SOL    HW285577   2.406   5.941   0.330 -0.8937  1.1018  0.4013
27434SOL     OW85578   8.694   8.427   2.898  0.1707  0.5906  0.0856
27434SOL    HW185579   8.686   8.510   2.944 -0.0243  0.1836  0.8068
27434SOL    HW285580   8.670   8.447   2.808 -0.9799  1.1006  0.4806
27435SOL     OW85581   1.788   7.069   8.208 -0.5978  0.5802  0.2398
27435SOL    HW185582   1.785   7.001   8.276 -1.4455 -0.1830 -0.5226
27435SOL    HW285583   1.707   7.055   8.158  0.0440  1.0697 -0.9652
27436SOL     OW85584   5.169  10.068   8.596  0.4555 -0.2832 -0.0558
27436SOL    HW185585   5.199   9.993   8.648 -0.0564  0.3639  1.2233
27436SOL    HW285586   5.082  10.042   8.566  0.0780 -0.0377  0.7880
27437SOL     OW85587   8.814   3.896   1.475 -0.4135  0.5142  0.4858
27437SOL    HW185588   8.723   3.886   1.447 -0.7722  0.3441  1.6802
27437SOL    HW285589   8.845   3.806   1.488  0.3664  0.4958 -1.2015
27438SOL     OW85590   5.464   0.408  10.308 -0.4953  0.0629  0.0749
27438SOL    HW185591   5.385   0.455  10.283 -1.6504 -1.3440  0.8850
27438SOL    HW285592   5.488   0.358  10.230 -0.2371  0.6950 -0.2568
27439SOL     OW85593   0.756   4.579   8.682  0.0415 -0.0924 -0.4774
27439SOL    HW185594   0.736   4.487   8.700 -0.4887 -0.4063 -2.4450
27439SOL    HW285595   0.694   4.629   8.736 -0.2820 -0.8967 -0.0948
27440SOL     OW85596   8.093   9.439  10.177 -0.1273  0.6708 -0.5703
27440SOL    HW185597   8.125   9.357  10.142 -0.5550  0.9243 -1.5881
27440SOL    HW285598   8.007   9.451  10.137  0.2028  1.9272 -0.9550
27441SOL     OW85599   7.518   5.172   4.494  0.6642 -0.7575  0.0945
27441SOL    HW185600   7.563   5.109   4.437  1.0554 -0.0091 -0.4385
27441SOL    HW285601   7.427   5.143   4.494  0.5361 -0.4463 -1.3862
27442SOL     OW85602   4.201  10.168  10.267  0.1980 -0.8290 -0.2928
27442SOL    HW185603   4.117  10.181  10.311 -0.0512  0.5294 -1.1111
27442SOL    HW285604   4.259  10.232  10.307  0.6185 -1.2036 -0.3040
27443SOL     OW85605   0.699   9.254   9.459  0.2906  0.3297 -0.0818
27443SOL    HW185606   0.645   9.322   9.418 -0.5616 -0.0040  0.4829
27443SOL    HW285607   0.787   9.269   9.423 -0.3486  0.2838 -1.7435
27444SOL     OW85608  10.870   0.237   7.123  0.3604  0.1572 -0.1592
27444SOL    HW185609  10.919   0.239   7.205 -2.3003 -1.8514  1.6330
27444SOL    HW285610  10.813   0.313   7.126 -2.4021 -1.8207  1.7975
27445SOL     OW85611  10.808   2.954   9.111  0.3969 -0.3126  0.6300
27445SOL    HW185612  10.748   2.985   9.043 -1.3552  1.5887  2.8910
27445SOL    HW285613  10.894   2.988   9.085 -0.4342  1.3523 -0.0545
27446SOL     OW85614   3.702   4.242   4.264 -0.1888 -0.4741  0.5626
27446SOL    HW185615   3.712   4.148   4.278  0.1191 -0.4330  0.6366
27446SOL    HW285616   3.648   4.271   4.337  0.5168 -0.4397  1.0796
27447SOL     OW85617  10.235   9.558   7.469  0.3401 -0.4004 -0.1840
27447SOL    HW185618  10.153   9.537   7.423 -0.0177 -0.8606  0.6326
27447SOL    HW285619  10.209   9.564   7.561  1.1674 -0.1885  0.0380
27448SOL     OW85620   5.554   8.720   3.537 -0.0356  0.3925  0.3396
27448SOL    HW185621   5.622   8.787   3.535  0.8157 -0.4273  0.8394
27448SOL    HW285622   5.564   8.673   3.454  0.9458 -0.5882  0.9694
27449SOL     OW85623   7.786   5.899   1.858  0.1861 -0.0652  0.3630
27449SOL    HW185624   7.822   5.987   1.868 -0.1013 -0.1017  1.9220
27449SOL    HW285625   7.710   5.897   1.917 -0.1782 -1.1595 -0.1149
27450SOL     OW85626   6.842   8.209   1.869  0.2461  0.0529  0.0600
27450SOL    HW185627   6.762   8.229   1.917  0.3814  1.5086 -0.2832
27450SOL    HW285628   6.907   8.271   1.903  0.4330  0.9090 -1.7116
27451SOL     OW85629   9.931   9.714   6.345 -0.3153  0.0118 -0.3854
27451SOL    HW185630   9.961   9.659   6.273  1.2030  1.2045 -0.7278
27451SOL    HW285631   9.878   9.656   6.399 -0.5637 -1.2033 -1.8573
27452SOL     OW85632   3.344   8.944   1.260  0.3661 -0.0372 -0.0029
27452SOL    HW185633   3.362   8.852   1.241 -1.5226 -1.0640  2.6019
27452SOL    HW285634   3.264   8.943   1.312  0.1010  3.1380 -0.1395
27453SOL     OW85635   0.655  10.865  10.508  0.2678  0.6383  0.6590
27453SOL    HW185636   0.561  10.877  10.495 -0.0102 -1.9165 -0.1972
27453SOL    HW285637   0.663  10.825  10.594  0.2570 -1.4945 -0.2536
27454SOL     OW85638  10.096   6.406   2.554 -0.0175  0.0395  0.1894
27454SOL    HW185639  10.109   6.492   2.594  1.2918  0.5176 -1.1614
27454SOL    HW285640  10.001   6.393   2.556 -0.0725  0.3596  2.6628
27455SOL     OW85641   2.323   3.174   7.106  0.3219 -0.2370 -0.1294
27455SOL    HW185642   2.237   3.211   7.085  1.4931  1.3483 -2.6333
27455SOL    HW285643   2.351   3.221   7.184  0.0369  1.3338 -0.9250
27456SOL     OW85644   2.378   0.353   8.809 -0.5141  0.1770 -0.6570
27456SOL    HW185645   2.462   0.369   8.852  0.2237 -3.8130 -0.2008
27456SOL    HW285646   2.315   0.348   8.881 -0.5745  0.2727 -0.7035
27457SOL     OW85647  11.395   3.807   7.309  0.2228  0.2438 -0.3407
27457SOL    HW185648  11.483   3.838   7.289 -0.7554  2.2742 -1.8673
27457SOL    HW285649  11.352   3.882   7.350 -1.4905  0.1325 -1.8308
27458SOL     OW85650   8.711   3.754   8.525  0.1852  0.0963 -0.1068
27458SOL    HW185651   8.801   3.775   8.502  0.6525  0.4510  1.8592
27458SOL    HW285652   8.718   3.678   8.583 -0.6485  0.9184  1.1169
27459SOL     OW85653  11.333   5.994   6.896 -0.7070  0.2468  0.6775
27459SOL    HW185654  11.350   5.914   6.945 -0.3436  0.0887  0.2970
27459SOL    HW285655  11.243   6.016   6.917 -0.7276 -0.1180  0.9885
27460SOL     OW85656  11.354   6.943   6.301  0.1438 -0.1300 -0.1141
27460SOL    HW185657  11.352   6.854   6.266  3.3077 -0.3557 -0.0134
27460SOL    HW285658  11.378   6.932   6.393  1.1440  0.8196 -0.2431
27461SOL     OW85659   8.551   2.340   8.598  0.1984 -0.0977  0.0775
27461SOL    HW185660   8.627   2.375   8.644 -0.0599 -0.4513  0.7828
27461SOL    HW285661   8.578   2.251   8.572  0.1849 -0.0587 -0.0710
27462SOL     OW85662   0.896  10.940  10.110 -0.1332 -0.3024  0.5470
27462SOL    HW185663   0.877  10.912  10.021  0.4113  0.8013  0.0603
27462SOL    HW285664   0.948  10.869  10.148  1.2992  0.0444 -0.6717
27463SOL     OW85665   4.400   8.045   2.443 -0.4791  0.4073 -0.2198
27463SOL    HW185666   4.483   7.997   2.450 -0.6055  0.3680  1.6746
27463SOL    HW285667   4.408   8.097   2.363  1.4997  0.5976  0.0509
27464SOL     OW85668   5.539  11.189  11.377  0.2291  1.0150  0.5653
27464SOL    HW185669   5.631  11.164  11.374  0.1341  0.7916 -0.9469
27464SOL    HW285670   5.491  11.107  11.369 -0.1367  1.0507  2.0394
27465SOL     OW85671  10.745   3.732  10.583  0.3798 -0.1555 -0.1804
27465SOL    HW185672  10.793   3.810  10.556  1.2981 -0.3478  0.8369
27465SOL    HW285673  10.728   3.746  10.676  1.7639 -1.7741  0.3482
27466SOL     OW85674   8.188   1.254   6.533  0.4177  0.0424 -0.4097
27466SOL    HW185675   8.115   1.242   6.594  0.5577 -1.9859 -0.5496
27466SOL    HW285676   8.160   1.325   6.475 -1.7213 -1.0438 -0.8135
27467SOL     OW85677   7.626   1.412   6.665  0.5018 -0.1125  0.5600
27467SOL    HW185678   7.585   1.480   6.718  0.0081 -1.5771  2.1518
27467SOL    HW285679   7.720   1.432   6.668  0.3030  0.8842  0.3897
27468SOL     OW85680   6.859   6.074   2.030  0.6278  0.4292 -0.6500
27468SOL    HW185681   6.878   6.167   2.040  1.3890  0.4994 -2.3202
27468SOL    HW285682   6.944   6.031   2.037  0.1447 -0.2965  1.2733
27469SOL     OW85683   2.640   0.159   9.480 -0.4833 -0.3826 -0.8016
27469SOL    HW185684   2.586   0.232   9.448 -1.0497 -1.0931 -1.4859
27469SOL    HW285685   2.675   0.119   9.401  0.5167 -0.3503 -0.3878
27470SOL     OW85686   2.792   8.509   7.482  0.7958  0.4651 -0.3390
27470SOL    HW185687   2.857   8.447   7.514  0.2134 -0.3731 -0.7702
27470SOL    HW285688   2.709   8.463   7.489  0.4989  0.7387 -1.8231
27471SOL     OW85689   7.040   1.700   6.524 -0.2750 -0.0482  0.1531
27471SOL    HW185690   7.126   1.663   6.542 -0.9772 -1.7249  0.3361
27471SOL    HW285691   7.004   1.721   6.611 -0.4742 -0.4087  0.1611
27472SOL     OW85692   3.150   6.727  10.101  0.3044  0.2556  0.1335
27472SOL    HW185693   3.155   6.711  10.195  0.3259 -1.3138 -0.0959
27472SOL    HW285694   3.079   6.791  10.091  1.2653  1.5703  1.3006
27473SOL     OW85695   5.392   8.756   7.908  0.0506 -0.4305  0.0073
27473SOL    HW185696   5.318   8.808   7.877  0.1778 -0.4092 -0.2560
27473SOL    HW285697   5.382   8.671   7.865 -0.8227 -1.0466  1.3250
27474SOL     OW85698   2.678   6.285   7.468  0.5762 -0.0861 -0.7934
27474SOL    HW185699   2.690   6.196   7.436 -1.3952 -1.4245  1.7788
27474SOL    HW285700   2.640   6.332   7.394 -0.8997 -2.1633 -1.4398
27475SOL     OW85701  10.115  11.307   6.321  0.0812 -0.1338  0.7974
27475SOL    HW185702  10.140  11.258   6.243  0.5531  2.6374 -0.9368
27475SOL    HW285703  10.020  11.315   6.315  0.1942  0.7470  0.0442
27476SOL     OW85704   7.610   2.752  10.274  0.1792 -0.2448  0.4681
27476SOL    HW185705   7.534   2.810  10.272  1.2374  1.2340 -1.9069
27476SOL    HW285706   7.685   2.811  10.271  1.3710 -1.6936  0.6014
27477SOL     OW85707   0.898   3.582   8.241  0.3241  0.1677 -0.1992
27477SOL    HW185708   0.895   3.567   8.335  0.4372 -0.5574 -0.3101
27477SOL    HW285709   0.817   3.630   8.222 -0.8316 -1.6577 -0.0666
27478SOL     OW85710   0.622   2.169   3.361 -0.4865 -0.7293  0.8385
27478SOL    HW185711   0.715   2.150   3.351 -0.7225 -1.7679  0.4153
27478SOL    HW285712   0.606   2.167   3.455 -0.0360 -0.3311  0.9202
27479SOL     OW85713   2.029   9.623   0.914 -0.1992  0.0221  0.4250
27479SOL    HW185714   2.069   9.628   1.001  0.3915  1.1033  0.1110
27479SOL    HW285715   1.973   9.546   0.918  1.6640 -1.3743  1.0003
27480SOL     OW85716   4.490  11.239   6.222  0.0793 -0.1553 -0.0465
27480SOL    HW185717   4.449  11.260   6.306  0.5064 -0.1062  0.1554
27480SOL    HW285718   4.564  11.299   6.215 -1.4160  1.6245 -1.6629
27481SOL     OW85719   6.458   5.191   8.305  0.3831  0.2787  0.0281
27481SOL    HW185720   6.410   5.117   8.343 -1.4195 -0.0062 -2.5561
27481SOL    HW285721   6.433   5.266   8.358 -1.3461 -0.2335 -0.0077
27482SOL     OW85722   6.057   0.479   9.342 -0.3923 -0.5223 -0.6691
27482SOL    HW185723   6.022   0.453   9.257 -1.5409 -0.4413 -0.2380
27482SOL    HW285724   6.034   0.406   9.400 -0.1026 -0.3303 -0.3138
27483SOL     OW85725   7.880   7.518   9.013  0.6168 -0.1552  0.2197
27483SOL    HW185726   7.822   7.461   8.963 -0.8339  0.4095  1.1976
27483SOL    HW285727   7.895   7.593   8.956 -1.6762  0.8651  0.8721
27484SOL     OW85728   1.312   8.774   6.238  0.0225  0.4103 -0.4823
27484SOL    HW185729   1.271   8.761   6.323 -0.8232 -0.2447 -0.9763
27484SOL    HW285730   1.386   8.832   6.256 -1.1099  1.6134  0.4269
27485SOL     OW85731   9.174   0.515   9.931 -0.1996 -0.2043 -0.2144
27485SOL    HW185732   9.199   0.500  10.023  1.4934 -0.6617 -0.7153
27485SOL    HW285733   9.080   0.496   9.929 -0.2726 -0.1944  1.4256
27486SOL     OW85734   1.511   8.832   9.618 -0.1499 -0.2332 -0.7755
27486SOL    HW185735   1.579   8.801   9.559  1.0110  0.0023  0.4033
27486SOL    HW285736   1.492   8.757   9.674  0.0135  0.0741 -0.3087
27487SOL     OW85737  11.174   2.085   9.111 -0.1150  0.0835 -0.1435
27487SOL    HW185738  11.179   2.047   9.023  0.0653  0.5556 -0.3404
27487SOL    HW285739  11.176   2.010   9.170 -0.6665 -0.2605 -0.5578
27488SOL     OW85740   5.945   8.907   9.135 -0.6794 -0.2911  0.6595
27488SOL    HW185741   5.885   8.834   9.145  0.6890 -1.5266  0.2596
27488SOL    HW285742   6.031   8.866   9.123  0.0806  1.3734  0.0724
27489SOL     OW85743   8.133   1.422   0.411 -0.0725  0.0235  0.1146
27489SOL    HW185744   8.102   1.503   0.451 -0.7125  0.6342 -1.5471
27489SOL    HW285745   8.104   1.353   0.471 -2.2403  0.7918  0.0282
27490SOL     OW85746   5.778   5.538   8.255  0.2933 -0.0100 -0.3884
27490SOL    HW185747   5.720   5.463   8.265 -0.6239  0.5648 -1.1270
27490SOL    HW285748   5.846   5.526   8.321 -0.6520 -0.7258  0.4843
27491SOL     OW85749   9.771   2.726   4.397 -0.2632  0.4059 -0.7756
27491SOL    HW185750   9.718   2.764   4.326 -1.4187  1.5288  0.6166
27491SOL    HW285751   9.802   2.802   4.446 -0.0539 -0.3592  0.3083
27492SOL     OW85752  11.252   4.326   6.093 -0.2074 -0.4263 -0.3488
27492SOL    HW185753  11.275   4.246   6.046 -0.0504 -0.7735  0.2974
27492SOL    HW285754  11.175   4.302   6.144 -0.4050 -0.0416 -0.4635
27493SOL     OW85755  11.301  11.105   4.670 -0.2030 -0.5838  0.0146
27493SOL    HW185756  11.360  11.034   4.694  1.1985  0.4516 -0.2180
27493SOL    HW285757  11.346  11.150   4.598 -1.5968 -0.1544 -0.6144
27494SOL     OW85758  10.097   7.637   8.544  0.3418  0.1995  0.5037
27494SOL    HW185759  10.180   7.623   8.590 -0.1202  0.6770  1.5057
27494SOL    HW285760  10.031   7.604   8.604 -0.1535 -1.0508 -0.6789
27495SOL     OW85761  10.677   6.700  10.531 -0.1374  0.0880 -0.4027
27495SOL    HW185762  10.615   6.654  10.473  0.7726 -0.2631 -1.1162
27495SOL    HW285763  10.755   6.646  10.530 -0.0972  0.0789  1.1869
27496SOL     OW85764   9.612   6.118   1.269 -0.1511 -0.3944  0.5532
27496SOL    HW185765   9.677   6.133   1.200 -0.3762  0.0174  0.4291
27496SOL    HW285766   9.554   6.194   1.264 -0.6801 -0.7925  0.6252
27497SOL     OW85767   3.993   6.965  11.205 -0.0814  0.4102 -0.0685
27497SOL    HW185768   4.050   7.030  11.246  0.8549 -0.1197 -0.4960
27497SOL    HW285769   3.968   7.004  11.122  0.7623  0.0945 -0.4800
27498SOL     OW85770  11.244   8.433  10.320  0.4865 -0.0493  0.5588
27498SOL    HW185771  11.193   8.502  10.362 -0.0458 -1.2696  2.0468
27498SOL    HW285772  11.284   8.475  10.244 -0.4751  1.6596  0.9391
27499SOL     OW85773  10.641   6.257   5.739  0.3897 -0.0285  0.1385
27499SOL    HW185774  10.610   6.219   5.821  1.3585 -1.2917 -0.0558
27499SOL    HW285775  10.567   6.248   5.678  0.8344 -2.3720 -0.1301
27500SOL     OW85776   1.841  11.038  10.430  0.1132 -0.5035 -0.1544
27500SOL    HW185777   1.918  11.094  10.415 -0.1382 -0.3528 -0.9211
27500SOL    HW285778   1.773  11.098  10.460 -0.0066 -0.4676 -0.4881
27501SOL     OW85779   0.395   7.067   4.514 -0.5552  0.3591  0.1828
27501SOL    HW185780   0.393   7.012   4.593  0.4061  0.8191  0.5470
27501SOL    HW285781   0.383   7.005   4.442  0.7539 -0.3927  0.5646
27502SOL     OW85782   6.677  10.826   5.501  0.1491  0.2917 -0.5848
27502SOL    HW185783   6.610  10.816   5.434 -1.4831 -0.6391  1.0820
27502SOL    HW285784   6.725  10.743   5.501 -0.7805 -0.2695  0.3018
27503SOL     OW85785   2.765   2.047   5.661  0.3931  0.5865 -0.5157
27503SOL    HW185786   2.802   2.030   5.574  0.5529  1.5926 -0.6538
27503SOL    HW285787   2.706   2.121   5.648  0.0473  0.4351  0.1504
27504SOL     OW85788   5.023   6.957   8.677  0.1833  0.3410  0.0965
27504SOL    HW185789   5.045   7.026   8.615  0.0629  0.0547 -0.2690
27504SOL    HW285790   4.928   6.962   8.687  0.0951 -0.1671 -0.4109
27505SOL     OW85791   3.793   3.892   7.082  0.0855 -0.1924 -0.0368
27505SOL    HW185792   3.861   3.960   7.085 -0.8099  0.7398 -0.4887
27505SOL    HW285793   3.778   3.870   7.174  0.8804 -0.2884  0.0773
27506SOL     OW85794   5.971   2.000   0.005 -0.7745 -0.2690  0.2659
27506SOL    HW185795   6.058   1.988   0.043 -0.3438 -1.1862 -0.9269
27506SOL    HW285796   5.918   1.930   0.044 -0.8274 -0.0523  0.5816
27507SOL     OW85797   6.598   7.130   6.718  0.1945 -0.7606 -0.3772
27507SOL    HW185798   6.512   7.156   6.750  0.1640 -0.2259 -0.8762
27507SOL    HW285799   6.594   7.145   6.623  1.1443  0.2320 -0.2893
27508SOL     OW85800   6.657  11.034   8.601  0.0537  0.2284  0.2047
27508SOL    HW185801   6.679  11.087   8.524 -2.3481  0.6500 -0.2717
27508SOL    HW285802   6.625  11.098   8.665 -1.2375 -0.4676  0.2653
27509SOL     OW85803   6.994   3.225   7.519 -0.3842 -0.5716  0.0181
27509SOL    HW185804   6.987   3.268   7.433 -1.3998 -0.3254  0.2155
27509SOL    HW285805   6.955   3.286   7.580  1.0682 -0.3957  0.8031
27510SOL     OW85806   5.180   4.211   3.013 -0.0727  0.0332  0.1948
27510SOL    HW185807   5.233   4.249   2.943  0.3419 -0.1523  0.4046
27510SOL    HW285808   5.242   4.194   3.084 -0.2834 -0.8986  0.1658
27511SOL     OW85809   5.124   1.964   5.064  0.2475 -0.4659  0.0263
27511SOL    HW185810   5.173   1.953   4.982 -0.3734 -0.8336 -0.2981
27511SOL    HW285811   5.035   1.937   5.044 -1.1065  3.5701 -0.4169
27512SOL     OW85812  11.153   7.726   8.496 -0.6584  0.1483  0.0386
27512SOL    HW185813  11.236   7.726   8.449 -0.3720  1.1366  0.5188
27512SOL    HW285814  11.169   7.671   8.573 -0.3000  0.6990  0.3663
27513SOL     OW85815  10.116   1.702   7.395  0.3396  0.0636  0.0178
27513SOL    HW185816  10.039   1.730   7.345 -0.4657 -1.1450  0.5315
27513SOL    HW285817  10.169   1.781   7.404 -1.1373  1.0785  0.1651
27514SOL     OW85818   5.797   2.632   6.271 -0.1277  0.4479  0.6545
27514SOL    HW185819   5.724   2.694   6.263  0.1629  0.6240 -1.2165
27514SOL    HW285820   5.755   2.547   6.284 -0.8761  0.2249 -2.3283
27515SOL     OW85821  10.705   8.560   6.505 -0.2676 -0.0643 -0.7158
27515SOL    HW185822  10.642   8.630   6.485 -2.1027 -1.1358  0.9724
27515SOL    HW285823  10.684   8.533   6.595  1.7861 -1.3675 -0.5543
27516SOL     OW85824   8.447   4.997   4.850 -0.4268  0.5685 -0.0895
27516SOL    HW185825   8.413   4.923   4.800  1.1301 -0.8342  0.8278
27516SOL    HW285826   8.407   4.988   4.937 -0.1666  0.7364  0.0504
27517SOL     OW85827   9.326   4.839   2.574 -0.3486  0.2272  0.3727
27517SOL    HW185828   9.373   4.922   2.588 -0.7488  0.4215  0.5805
27517SOL    HW285829   9.276   4.826   2.654  0.1798 -0.5354  0.5879
27518SOL     OW85830   3.951  10.707   1.932 -0.3952  0.0285 -0.4205
27518SOL    HW185831   4.032  10.673   1.894 -0.8280 -0.6195 -0.7791
27518SOL    HW285832   3.889  10.636   1.923 -1.2078  0.7663 -0.8166
27519SOL     OW85833   7.337   2.978   5.658  0.2966  0.4660  0.5599
27519SOL    HW185834   7.326   3.072   5.643  1.3259  0.4145 -0.7639
27519SOL    HW285835   7.400   2.951   5.591 -1.9809 -1.6733 -0.9068
27520SOL     OW85836  10.653   4.801   5.340 -0.0386  0.3643 -0.0955
27520SOL    HW185837  10.696   4.789   5.424  0.7528 -0.4464 -0.5904
27520SOL    HW285838  10.586   4.867   5.356 -1.9096 -1.8220  1.8921
27521SOL     OW85839   1.676   0.729  10.721  0.0753  0.2923 -0.4886
27521SOL    HW185840   1.763   0.717  10.759 -0.3184 -1.3205 -0.0166
27521SOL    HW285841   1.649   0.641  10.695 -2.0146  0.5001  0.7423
27522SOL     OW85842  10.639   5.591   9.158 -0.4572 -0.2923 -0.5625
27522SOL    HW185843  10.650   5.652   9.085  0.2583 -1.9758 -1.9189
27522SOL    HW285844  10.726   5.554   9.172 -0.7229 -0.4801  0.7543
27523SOL     OW85845  10.215   2.799   0.236 -0.0515 -0.1418  0.4085
27523SOL    HW185846  10.124   2.785   0.212 -0.2173 -2.2911  2.0015
27523SOL    HW285847  10.211   2.846   0.319  0.4003  1.5523 -0.4645
27524SOL     OW85848   0.105   0.651   7.525  0.0778  0.1287 -0.6777
27524SOL    HW185849   0.090   0.594   7.450 -1.4430 -2.0373  1.1530
27524SOL    HW285850   0.018   0.685   7.547  0.4818  0.6601  0.1612
27525SOL     OW85851   0.826   5.741   7.250 -0.1196 -0.1466 -0.3726
27525SOL    HW185852   0.911   5.739   7.294  0.1191 -1.4522 -0.8238
27525SOL    HW285853   0.762   5.743   7.321  0.2867 -0.0602 -0.0052
27526SOL     OW85854   8.171   2.526   6.179  0.3520  0.4378 -0.2556
27526SOL    HW185855   8.128   2.609   6.162 -1.0496 -0.4682 -1.2831
27526SOL    HW285856   8.200   2.495   6.093  0.0664 -0.5495 -0.0095
27527SOL     OW85857   1.160   7.856   6.156  0.1593 -0.2289  0.5845
27527SOL    HW185858   1.222   7.786   6.172  0.9430  0.3307  0.0784
27527SOL    HW285859   1.203   7.912   6.091 -0.4240  0.7456  1.0120
27528SOL     OW85860   1.898   9.375   3.513  0.0682 -0.0095  0.4906
27528SOL    HW185861   1.852   9.400   3.592 -0.5202 -0.4173  0.2826
27528SOL    HW285862   1.898   9.279   3.513 -0.3260 -0.0214 -0.2145
27529SOL     OW85863   2.270   1.324   5.080 -0.3616 -0.5274  0.3781
27529SOL    HW185864   2.296   1.295   4.993 -0.6821 -0.2884  0.2030
27529SOL    HW285865   2.259   1.243   5.130  1.4789 -0.6315  0.6879
27530SOL     OW85866  10.324   8.751   4.021 -0.0385 -0.0971  0.1171
27530SOL    HW185867  10.250   8.692   4.037 -0.0025 -0.6695 -1.6276
27530SOL    HW285868  10.284   8.835   3.998 -0.2730 -0.7566 -2.2009
27531SOL     OW85869   0.853   4.411   3.075 -0.1749  0.3329  0.2751
27531SOL    HW185870   0.893   4.488   3.035 -1.2204 -0.1154 -1.7672
27531SOL    HW285871   0.769   4.443   3.109 -1.6623 -0.2085 -2.5481
27532SOL     OW85872   6.489   1.459   6.455 -0.6240  0.5655  0.4200
27532SOL    HW185873   6.545   1.501   6.520 -0.4665 -1.4561  1.6848
27532SOL    HW285874   6.400   1.487   6.477 -0.5620 -0.0518  1.4982
27533SOL     OW85875   0.576   4.274   8.109  0.0377 -0.0137  0.1756
27533SOL    HW185876   0.528   4.192   8.122  0.6521 -0.2476  1.0704
27533SOL    HW285877   0.668   4.247   8.104  0.1121  0.4458 -1.3101
27534SOL     OW85878   9.307  11.013  10.069  0.4272  0.0543 -0.1081
27534SOL    HW185879   9.288  11.102  10.098  1.6366  0.0859  0.6463
27534SOL    HW285880   9.400  11.015  10.045  0.7909 -1.2665  1.0311
27535SOL     OW85881   6.473   6.350   9.600  0.2190 -0.0606 -0.1851
27535SOL    HW185882   6.423   6.298   9.538 -0.4221  0.3718 -0.0456
27535SOL    HW285883   6.445   6.318   9.686  3.5570 -3.0456  0.0096
27536SOL     OW85884   8.464  10.005   3.131  0.4067 -0.1218 -0.3560
27536SOL    HW185885   8.373   9.995   3.161  0.9190 -1.2484  0.9447
27536SOL    HW285886   8.456  10.031   3.039 -1.2639  3.9589  0.7185
27537SOL     OW85887   4.456  10.608   9.279 -0.9820 -0.5291  0.3050
27537SOL    HW185888   4.443  10.566   9.363 -3.2334 -0.5061  0.0094
27537SOL    HW285889   4.421  10.546   9.215  2.1850 -1.3112 -0.8748
27538SOL     OW85890   1.788   9.165   0.855  0.9352 -0.2004  0.0403
27538SOL    HW185891   1.813   9.093   0.913 -2.8672 -1.2659  0.6183
27538SOL    HW285892   1.751   9.122   0.778 -1.0873  1.0558  0.2361
27539SOL     OW85893   4.791  10.696  11.122  0.0958  0.5863  0.1149
27539SOL    HW185894   4.816  10.777  11.168  1.3501  0.9096 -1.0540
27539SOL    HW285895   4.836  10.627  11.171 -0.4549  0.6629  0.7378
27540SOL     OW85896   8.455   2.927  10.378 -0.1355 -0.0042  0.1007
27540SOL    HW185897   8.414   2.845  10.350 -0.3352  0.2086 -0.2383
27540SOL    HW285898   8.548   2.906  10.384 -0.2627 -0.4282  0.6548
27541SOL     OW85899   4.710   2.857   8.870 -0.2584 -0.1537  0.0573
27541SOL    HW185900   4.708   2.909   8.790 -0.3422  2.8918  1.9038
27541SOL    HW285901   4.803   2.847   8.890 -0.2289 -1.1611 -0.5277
27542SOL     OW85902   8.649   0.560   8.468 -0.9447  0.0178 -0.3195
27542SOL    HW185903   8.646   0.467   8.491 -0.0738  0.6033  2.5156
27542SOL    HW285904   8.723   0.567   8.408  0.1478 -0.8817  0.8737
27543SOL     OW85905   5.429  11.048   3.999  0.0989 -0.4207  0.3662
27543SOL    HW185906   5.451  10.974   3.942 -2.2482  0.2142 -1.5650
27543SOL    HW285907   5.348  11.022   4.042  1.2638 -0.4312  2.6735
27544SOL     OW85908   3.653   5.934   5.860 -0.3546  0.5280 -0.2382
27544SOL    HW185909   3.685   5.845   5.849  0.5624  0.6623  1.1324
27544SOL    HW285910   3.558   5.925   5.872 -0.2257 -0.2791  0.1847
27545SOL     OW85911   6.957   7.090   9.576 -0.5260 -0.1860 -0.3518
27545SOL    HW185912   7.030   7.055   9.525 -0.5939 -2.4631  1.0197
27545SOL    HW285913   6.953   7.183   9.550  2.5077 -0.0804 -0.8182
27546SOL     OW85914   3.171   1.351   6.252 -0.0017 -0.5102  0.0638
27546SOL    HW185915   3.128   1.416   6.308  2.0188  1.0699 -0.1370
27546SOL    HW285916   3.184   1.276   6.310 -0.9444 -0.1641  0.7553
27547SOL     OW85917   2.230  10.143   9.293  0.1128  0.5441 -0.0335
27547SOL    HW185918   2.271  10.143   9.380  1.2969 -0.0535 -0.5745
27547SOL    HW285919   2.301  10.121   9.233 -0.7975  0.4810 -1.1165
27548SOL     OW85920   9.485  11.080   7.244 -0.1158  0.1575 -0.3596
27548SOL    HW185921   9.555  11.136   7.276 -0.3547 -0.0094  0.4690
27548SOL    HW285922   9.408  11.137   7.244 -0.0463  0.2599 -0.9960
27549SOL     OW85923   5.184   2.724   6.340  0.2600 -0.2261  0.2330
27549SOL    HW185924   5.274   2.693   6.329  0.6259  0.0999  2.0821
27549SOL    HW285925   5.141   2.656   6.392 -0.2626  0.1170  0.2542
27550SOL     OW85926   4.531   4.213   0.363  0.1174 -0.6907  0.3443
27550SOL    HW185927   4.617   4.179   0.387  0.0155 -1.9053 -0.8750
27550SOL    HW285928   4.480   4.210   0.444  0.7548 -1.4460  0.7321
27551SOL     OW85929   5.043   5.172   9.410 -0.5229  0.1225  0.0557
27551SOL    HW185930   4.982   5.203   9.477 -1.1177 -0.2888 -0.2896
27551SOL    HW285931   5.112   5.127   9.460 -0.8067  0.0764  0.4114
27552SOL     OW85932   6.717   8.505   9.179  0.1412  0.1767  0.1724
27552SOL    HW185933   6.626   8.538   9.175  0.5568  1.2371 -2.0042
27552SOL    HW285934   6.709   8.411   9.165 -0.7317 -0.0680  1.9619
27553SOL     OW85935  10.691   9.852   4.175 -0.1778 -0.1446 -0.3291
27553SOL    HW185936  10.657   9.810   4.096  1.0608 -1.1280 -0.3684
27553SOL    HW285937  10.708   9.779   4.235 -2.6148  0.6632  1.5045
27554SOL     OW85938   4.727   8.775   2.080 -0.1450 -0.4110  0.2348
27554SOL    HW185939   4.656   8.839   2.083 -2.6761 -3.0130  1.3666
27554SOL    HW285940   4.758   8.776   1.990 -0.9842  1.4107 -0.0731
27555SOL     OW85941  10.604   8.046   7.809  0.6362 -0.0084 -0.1387
27555SOL    HW185942  10.625   8.019   7.720  2.9564 -0.3404  0.4417
27555SOL    HW285943  10.510   8.032   7.817  0.5835 -1.1493 -2.1371
27556SOL     OW85944   8.283  11.359   3.153  0.6418  0.2425 -0.0314
27556SOL    HW185945   8.376  11.376   3.143  0.9380 -1.8298 -1.5207
27556SOL    HW285946   8.242  11.405   3.079  0.8396 -0.9952 -0.9510
27557SOL     OW85947   6.077   4.637   0.310  0.4291 -0.0161 -0.0482
27557SOL    HW185948   6.118   4.709   0.261  0.1804  1.1105  1.3229
27557SOL    HW285949   5.995   4.674   0.341  0.2273 -0.9537  0.5571
27558SOL     OW85950   3.349   9.400   2.102 -0.3745  0.3672  0.1357
27558SOL    HW185951   3.258   9.412   2.128 -0.5374 -0.2067 -0.1500
27558SOL    HW285952   3.374   9.315   2.138 -0.5047 -0.3003 -1.2765
27559SOL     OW85953  10.985   0.532   8.172  0.1776 -0.4930  0.0676
27559SOL    HW185954  11.032   0.612   8.148 -2.4357  1.0157 -0.4966
27559SOL    HW285955  10.975   0.485   8.089  0.4552 -0.6612  0.1308
27560SOL     OW85956   8.741  10.363   9.926  0.1321 -0.1102  0.1614
27560SOL    HW185957   8.748  10.456   9.947  1.6693 -0.6130  2.0852
27560SOL    HW285958   8.824  10.325   9.952  0.8655 -1.5642 -3.5631
27561SOL     OW85959   4.845   7.339   8.248 -0.1043 -0.0594 -0.4294
27561SOL    HW185960   4.853   7.402   8.319 -2.7709  0.7730 -0.7540
27561SOL    HW285961   4.844   7.393   8.169  0.2186 -0.7531 -0.9127
27562SOL     OW85962   7.924   2.277   2.641  0.2782  0.1901 -0.2682
27562SOL    HW185963   7.883   2.203   2.686  2.7657 -1.8518 -1.1419
27562SOL    HW285964   7.852   2.318   2.593 -1.4141 -0.8318  1.2527
27563SOL     OW85965   5.129   0.766   5.096  0.7746  0.3607  0.2449
27563SOL    HW185966   5.061   0.802   5.154  1.6262  0.7658  1.0074
27563SOL    HW285967   5.090   0.687   5.060 -0.9431  1.6927 -1.0175
27564SOL     OW85968   7.035   4.017   1.736  0.2133  0.3495  0.0863
27564SOL    HW185969   7.122   4.015   1.777  0.5833  0.6553 -0.6554
27564SOL    HW285970   6.974   4.015   1.809  0.7588 -2.9367  0.6300
27565SOL     OW85971   3.672   3.695   4.784 -0.1435 -0.3723  0.4090
27565SOL    HW185972   3.668   3.601   4.766 -0.6288 -0.0984 -1.0183
27565SOL    HW285973   3.764   3.712   4.803  0.4172 -0.7639 -1.6837
27566SOL     OW85974   0.487   9.959   1.392 -0.7879 -0.2844  0.0226
27566SOL    HW185975   0.569  10.003   1.412 -1.0192  0.3665 -0.4045
27566SOL    HW285976   0.448  10.013   1.323 -0.7333 -1.5753 -1.0476
27567SOL     OW85977   0.154   6.638   7.499  0.3962 -0.2706  0.6481
27567SOL    HW185978   0.194   6.687   7.571  0.0067  0.7686  0.1862
27567SOL    HW285979   0.103   6.704   7.452  0.1681 -1.0601 -0.2293
27568SOL     OW85980   1.824   4.398   9.485  0.5541 -0.2977  0.5876
27568SOL    HW185981   1.878   4.329   9.524  0.0177 -0.7171  0.5970
27568SOL    HW285982   1.881   4.474   9.483  0.7493 -0.3818  1.7886
27569SOL     OW85983   6.026   3.456   3.233  0.8156 -0.8856 -0.6020
27569SOL    HW185984   6.055   3.534   3.281 -1.2523 -0.3846 -0.0928
27569SOL    HW285985   6.103   3.430   3.181  2.5692 -0.3791  1.5684
27570SOL     OW85986   8.629   7.659   5.451 -0.5350 -0.0133  0.5284
27570SOL    HW185987   8.722   7.666   5.427 -0.6744 -0.8076 -0.3326
27570SOL    HW285988   8.630   7.618   5.538 -0.0583  1.3624  1.1996
27571SOL     OW85989   8.370   0.944  10.889 -0.0375  0.3452 -0.3349
27571SOL    HW185990   8.334   1.013  10.833 -0.3778 -0.2023 -0.8009
27571SOL    HW285991   8.295   0.889  10.911  0.1256  0.4544  0.5250
27572SOL     OW85992  10.507   5.496   6.058 -0.2361  0.3597  0.3977
27572SOL    HW185993  10.464   5.445   5.989  1.6605 -0.3512 -0.3302
27572SOL    HW285994  10.509   5.585   6.024  0.7666 -0.0007 -0.5635
27573SOL     OW85995  10.942  10.539   7.511  0.0425 -0.1559  0.1047
27573SOL    HW185996  10.922  10.460   7.560 -1.6795  0.8117  1.0230
27573SOL    HW285997  11.034  10.529   7.487 -0.0588 -2.2928  0.4271
27574SOL     OW85998  10.034  11.239   5.124 -0.3886 -0.2095 -0.6263
27574SOL    HW185999  10.060  11.327   5.153  0.5959 -1.0080  1.0406
27574SOL    HW286000  10.052  11.239   5.030 -0.3396  1.3340 -0.6504
27575SOL     OW86001   2.286   3.933   3.549  0.1555  0.6810  0.5296
27575SOL    HW186002   2.272   3.977   3.464  0.1647 -0.7347 -0.2260
27575SOL    HW286003   2.217   3.867   3.553  0.0368  0.8660  1.7420
27576SOL     OW86004  10.382   8.487   0.480  0.5659  0.0091  0.2480
27576SOL    HW186005  10.382   8.570   0.432  0.2828 -0.4712 -0.6151
27576SOL    HW286006  10.300   8.444   0.454  0.6261 -0.4702  0.8107
27577SOL     OW86007   8.340   5.073  10.433  0.7854 -0.1524  0.5184
27577SOL    HW186008   8.405   5.142  10.421  1.6252 -0.8849  0.7626
27577SOL    HW286009   8.369   5.003  10.374  0.7305 -0.8405  1.2972
27578SOL     OW86010   9.187   7.733   8.267  0.2364 -0.2077  0.4121
27578SOL    HW186011   9.153   7.787   8.197  0.1086 -0.0998  0.5569
27578SOL    HW286012   9.157   7.644   8.246  1.2116 -0.3782 -0.3083
27579SOL     OW86013  10.275   2.736   4.160 -0.2647 -0.4025  0.4872
27579SOL    HW186014  10.273   2.666   4.225  2.7612 -1.2265 -0.1534
27579SOL    HW286015  10.320   2.698   4.085  1.4436  2.1504  0.0945
27580SOL     OW86016   8.121   2.339   7.930 -0.1321 -0.2118  0.0282
27580SOL    HW186017   8.212   2.350   7.958 -0.0978 -1.6478  0.5356
27580SOL    HW286018   8.076   2.304   8.007 -0.9199 -0.3814 -0.4991
27581SOL     OW86019   6.087   7.547   0.130  0.2752 -0.0884  0.0546
27581SOL    HW186020   6.172   7.553   0.086 -0.0460  0.8582 -0.4592
27581SOL    HW286021   6.060   7.456   0.118  0.6698 -0.1014 -0.8182
27582SOL     OW86022   5.206   6.815   5.646 -0.2884  0.6013 -0.3293
27582SOL    HW186023   5.289   6.856   5.621 -0.4714  1.2818  0.1375
27582SOL    HW286024   5.141   6.857   5.590 -0.1811 -0.8157 -1.5762
27583SOL     OW86025  11.378   1.992   5.656 -0.6250 -0.2513 -0.2629
27583SOL    HW186026  11.300   1.977   5.603 -0.9594  2.5307 -0.6979
27583SOL    HW286027  11.451   1.979   5.596 -0.8676 -0.2619 -0.5585
27584SOL     OW86028   4.910   5.463  11.301 -0.2728  0.3564  0.5226
27584SOL    HW186029   4.985   5.496  11.350  0.3415 -0.4737  0.1660
27584SOL    HW286030   4.840   5.526  11.318  0.6045  1.3358  0.5635
27585SOL     OW86031   9.570   3.826   2.333  0.0403 -0.1206  0.1180
27585SOL    HW186032   9.501   3.762   2.349 -0.8364  0.6288 -0.5532
27585SOL    HW286033   9.526   3.911   2.341  0.5813  0.3615 -1.5231
27586SOL     OW86034   3.294  10.274   0.328 -0.0060 -0.0058  0.1878
27586SOL    HW186035   3.218  10.286   0.385 -0.0543  1.9503 -0.2419
27586SOL    HW286036   3.359  10.334   0.363  1.3019 -1.4665  0.3912
27587SOL     OW86037   8.587   8.680   8.920  0.1463 -0.1411 -0.1289
27587SOL    HW186038   8.659   8.674   8.857 -0.4770  0.4494 -0.9098
27587SOL    HW286039   8.629   8.667   9.005  1.4052  1.4275 -0.4633
27588SOL     OW86040  10.894   5.412  10.001  0.3912  0.1456  0.4333
27588SOL    HW186041  10.822   5.454  10.047  0.3749  1.3488 -0.6318
27588SOL    HW286042  10.885   5.319  10.021 -0.9171  0.3894  1.0342
27589SOL     OW86043   8.538   9.740   8.161 -0.1340 -0.0295  0.6518
27589SOL    HW186044   8.547   9.646   8.147  0.4325  0.2252 -0.8893
27589SOL    HW286045   8.453   9.762   8.124  0.0016  0.1559  0.4445
27590SOL     OW86046   9.522   3.051   2.587 -0.4431 -0.2002 -0.7036
27590SOL    HW186047   9.524   3.005   2.503 -0.0346  0.8643 -1.3001
27590SOL    HW286048   9.603   3.101   2.589 -0.8717  0.4974 -0.0863
27591SOL     OW86049   4.800   1.942   6.409  0.0057 -0.0884  0.1210
27591SOL    HW186050   4.753   1.871   6.365  2.4274 -0.7808 -1.5474
27591SOL    HW286051   4.887   1.907   6.426  0.2188  1.3648  2.4938
27592SOL     OW86052   3.310   4.188   2.777 -0.3219  0.6073  0.0330
27592SOL    HW186053   3.396   4.149   2.761 -0.2551  0.8798 -0.2775
27592SOL    HW286054   3.248   4.122   2.745 -0.2051  0.8088 -0.6316
27593SOL     OW86055   5.850   2.345   2.039 -0.2776  0.0166 -0.0089
27593SOL    HW186056   5.879   2.436   2.040  0.1662 -0.1156 -0.6804
27593SOL    HW286057   5.875   2.311   2.125  0.0999  0.3525  0.0153
27594SOL     OW86058   8.346   4.708   2.331 -0.0642  0.2242  0.3785
27594SOL    HW186059   8.270   4.651   2.335  0.1036  0.0394  1.0378
27594SOL    HW286060   8.321   4.784   2.385  1.4391 -1.3337  3.5519
27595SOL     OW86061   5.518   1.921  10.839  0.2219  0.0098 -0.5981
27595SOL    HW186062   5.444   1.935  10.899 -0.7587  0.3467 -1.8374
27595SOL    HW286063   5.586   1.980  10.872 -0.4210  0.4645 -0.0242
27596SOL     OW86064   5.335   9.449   4.934 -0.4571  0.0146 -0.7255
27596SOL    HW186065   5.248   9.483   4.955  0.5560  1.4026  1.5793
27596SOL    HW286066   5.345   9.466   4.840 -2.6726 -0.2476 -1.0542
27597SOL     OW86067   3.407   3.660   0.091 -0.2120  0.2714 -0.3986
27597SOL    HW186068   3.490   3.688   0.130 -0.0436  0.7008 -1.0461
27597SOL    HW286069   3.396   3.570   0.120  0.2896  0.3333  0.0045
27598SOL     OW86070   1.996   1.448   2.952 -0.5953 -0.5554 -0.4422
27598SOL    HW186071   2.062   1.438   3.020 -1.2649  0.7081  0.4391
27598SOL    HW286072   2.045   1.469   2.873  0.0769 -0.1259  0.0862
27599SOL     OW86073   6.298   8.223   4.460  0.1656 -0.2363 -0.2404
27599SOL    HW186074   6.215   8.254   4.423  0.0489  0.2064  0.3900
27599SOL    HW286075   6.319   8.145   4.407  0.5562  0.9666 -1.9534
27600SOL     OW86076   9.513   2.596  11.366  0.0985  0.2164  0.2083
27600SOL    HW186077   9.497   2.631  11.454 -0.4586  0.4567  0.0168
27600SOL    HW286078   9.440   2.629  11.314 -1.7106 -2.9515  0.4771
27601SOL     OW86079   7.477   1.356   9.804 -0.1397  0.4580 -0.2443
27601SOL    HW186080   7.400   1.304   9.823 -0.0298 -0.1471 -1.4078
27601SOL    HW286081   7.454   1.445   9.832 -1.9361  0.6695 -2.2089
27602SOL     OW86082   3.736   0.398   3.520 -0.4592  0.1418 -0.3802
27602SOL    HW186083   3.641   0.395   3.518 -0.4496 -0.0427 -1.4871
27602SOL    HW286084   3.758   0.483   3.480 -0.1627  0.2373 -0.0203
27603SOL     OW86085   1.432   8.849   8.749 -0.3534 -0.0961 -0.2578
27603SOL    HW186086   1.452   8.778   8.688 -1.6603  0.0255 -0.8451
27603SOL    HW286087   1.362   8.814   8.804  0.2501  0.0936  0.6527
27604SOL     OW86088   1.606   5.303   0.376  0.2151  0.7732 -0.1649
27604SOL    HW186089   1.602   5.232   0.440  0.4507  0.0440 -0.9425
27604SOL    HW286090   1.523   5.349   0.386 -0.4918 -0.3823 -0.5207
27605SOL     OW86091   0.643   9.667   6.475  0.1172  0.1691 -0.0842
27605SOL    HW186092   0.737   9.672   6.459  0.2991 -0.8586  0.5376
27605SOL    HW286093   0.606   9.629   6.395  0.2546  0.4100 -0.2615
27606SOL     OW86094   3.321  11.224   9.485  0.5087 -0.6609 -0.5893
27606SOL    HW186095   3.413  11.222   9.461  0.3168 -1.5856 -1.3095
27606SOL    HW286096   3.319  11.191   9.575  0.7311 -2.4242 -1.1831
27607SOL     OW86097   2.563   8.889   6.858 -0.6375  0.1493  0.4564
27607SOL    HW186098   2.634   8.847   6.907  0.3378  0.1627 -0.9164
27607SOL    HW286099   2.590   8.980   6.851  0.3547 -0.2831 -2.0189
27608SOL     OW86100  10.530   1.926   4.194 -0.0781  0.0543 -0.4710
27608SOL    HW186101  10.483   2.010   4.191 -1.4755 -0.7236 -1.3013
27608SOL    HW286102  10.465   1.861   4.170  0.9289 -1.3263  0.3932
27609SOL     OW86103   9.548   5.309   5.582 -0.6170  0.8398 -0.3156
27609SOL    HW186104   9.587   5.395   5.599  0.2957  0.2838  0.5539
27609SOL    HW286105   9.492   5.293   5.658 -0.2634  0.3844 -0.1477
27610SOL     OW86106   9.148   8.617   2.976 -0.3853 -0.0916 -0.2502
27610SOL    HW186107   9.090   8.575   3.040 -1.5315  0.2016 -1.0598
27610SOL    HW286108   9.094   8.686   2.937  0.4278  0.0134 -1.2270
27611SOL     OW86109   0.380   2.380   9.742 -0.1553  0.4100 -0.0890
27611SOL    HW186110   0.326   2.365   9.820  1.6396 -1.0289  0.9860
27611SOL    HW286111   0.328   2.346   9.670 -0.6983 -1.0002  0.9074
27612SOL     OW86112  10.344  10.331   3.410 -0.3266  0.1934  0.0724
27612SOL    HW186113  10.426  10.297   3.373 -1.2576 -1.3749 -0.6274
27612SOL    HW286114  10.329  10.413   3.363  0.7863  0.4520  0.1443
27613SOL     OW86115   3.321   9.013   9.962  0.1973 -0.0914  0.0235
27613SOL    HW186116   3.279   8.938   9.919 -1.2734 -0.3024  1.7529
27613SOL    HW286117   3.274   9.089   9.929  1.3302  0.0942 -1.3016
27614SOL     OW86118   7.812   2.381   7.931 -0.2693  0.0923 -0.1134
27614SOL    HW186119   7.842   2.330   8.006  0.9823  1.0533  0.0835
27614SOL    HW286120   7.856   2.341   7.856 -0.7221 -0.2350 -0.2098
27615SOL     OW86121  10.423   2.598  10.817  0.3474 -0.5246  0.2836
27615SOL    HW186122  10.432   2.515  10.770  0.0740 -0.9444  0.9562
27615SOL    HW286123  10.407   2.572  10.908  1.2188  0.2684  0.6829
27616SOL     OW86124   8.091   1.770   8.081  0.5302  0.0790  0.3064
27616SOL    HW186125   8.108   1.708   8.010  0.8131 -0.0436  0.4797
27616SOL    HW286126   8.071   1.715   8.156 -0.4021  0.2172  0.1713
27617SOL     OW86127   6.345   3.700   1.570  0.2405  0.1376 -0.3119
27617SOL    HW186128   6.411   3.674   1.506  0.9510  1.6497 -0.2367
27617SOL    HW286129   6.396   3.742   1.640 -0.7487  0.8544 -0.0065
27618SOL     OW86130   4.002   6.534   6.262  0.2691  0.0503  0.1235
27618SOL    HW186131   3.911   6.533   6.291  0.7336 -0.5061  1.6983
27618SOL    HW286132   4.053   6.523   6.343  1.7241 -0.0349 -0.7615
27619SOL     OW86133   6.681   1.992   1.324 -0.6070  0.4152  0.3436
27619SOL    HW186134   6.605   2.022   1.274 -1.2524 -1.2258  0.2646
27619SOL    HW286135   6.710   2.069   1.373 -3.0509  0.8243  1.2795
27620SOL     OW86136   3.060   2.175   0.238  0.2724  0.7493 -0.4212
27620SOL    HW186137   3.093   2.196   0.326 -1.2003  1.8912 -0.1123
27620SOL    HW286138   3.077   2.081   0.229  0.9734  0.7167  0.8428
27621SOL     OW86139   4.293   0.880   3.331  0.0582  0.4900 -0.5791
27621SOL    HW186140   4.305   0.849   3.242 -0.3405  0.5153 -0.6466
27621SOL    HW286141   4.371   0.931   3.350 -0.1809  1.0909 -1.1733
27622SOL     OW86142  10.895   1.375   7.978  0.9741  0.1818  0.0401
27622SOL    HW186143  10.983   1.410   7.961  0.5349  1.2017 -0.2134
27622SOL    HW286144  10.858   1.362   7.891  1.0487 -0.7577  0.1332
27623SOL     OW86145   1.689   6.108   5.440 -0.0139 -0.1892  0.2027
27623SOL    HW186146   1.677   6.070   5.353  2.3860  0.9303 -0.6958
27623SOL    HW286147   1.600   6.132   5.467 -1.1936 -3.1027 -0.6596
27624SOL     OW86148   4.671   1.846   7.448  0.2725 -0.1874 -0.1761
27624SOL    HW186149   4.677   1.881   7.360 -1.2404  0.3498 -0.0977
27624SOL    HW286150   4.731   1.900   7.500 -0.9577  1.4061 -0.3416
27625SOL     OW86151   8.441  10.717   5.794 -0.0726  0.1024 -0.4549
27625SOL    HW186152   8.345  10.725   5.794 -0.1528 -0.7503 -0.6679
27625SOL    HW286153   8.472  10.806   5.780 -0.8570  0.2678 -1.2773
27626SOL     OW86154  10.945   1.864   6.023 -0.9695  0.1135  0.5546
27626SOL    HW186155  10.981   1.775   6.014  0.9877  0.9556 -0.5612
27626SOL    HW286156  10.902   1.881   5.939  2.7839  1.8486 -1.2508
27627SOL     OW86157   5.297   8.917   0.553 -0.4426  0.4196  0.8256
27627SOL    HW186158   5.295   8.950   0.643 -0.8247  0.9937  0.6026
27627SOL    HW286159   5.207   8.892   0.534 -0.2917 -0.0717  0.7359
27628SOL     OW86160   7.766   2.896   8.681  0.0312  0.9804 -0.3590
27628SOL    HW186161   7.723   2.949   8.749 -0.0587  1.4110 -0.7458
27628SOL    HW286162   7.860   2.910   8.696  0.0091  1.1986 -0.4167
27629SOL     OW86163   6.354   6.489   7.950  0.0709  0.1209  0.3487
27629SOL    HW186164   6.439   6.456   7.920  0.5758  0.2258  1.6133
27629SOL    HW286165   6.376   6.568   7.999 -0.8867  0.8459 -0.3596
27630SOL     OW86166   5.718   2.567   7.961 -0.3262 -0.9624 -1.0051
27630SOL    HW186167   5.736   2.498   7.897  0.0621 -1.8647  0.0417
27630SOL    HW286168   5.717   2.522   8.046  0.3116  0.3770 -0.2488
27631SOL     OW86169   8.140   4.146   1.178 -0.7414  0.1880  0.0992
27631SOL    HW186170   8.101   4.074   1.227 -0.3931  0.2597  0.4822
27631SOL    HW286171   8.192   4.104   1.109  0.0167  0.0508  0.7406
27632SOL     OW86172   0.172  10.822   4.112 -0.0485  0.1399 -0.1369
27632SOL    HW186173   0.176  10.778   4.028 -1.0500  1.1964 -0.7735
27632SOL    HW286174   0.201  10.757   4.175 -2.5022 -1.8417 -0.8808
27633SOL     OW86175   7.744   8.871   6.991  0.1790  0.3191  0.3907
27633SOL    HW186176   7.701   8.854   7.075 -0.5437 -0.8473 -0.1980
27633SOL    HW286177   7.750   8.967   6.987 -2.4176  0.5707  0.4945
27634SOL     OW86178   5.334   1.344   6.097  0.3392 -0.2408  0.2636
27634SOL    HW186179   5.301   1.432   6.111  0.5309 -0.0524 -0.4119
27634SOL    HW286180   5.387   1.325   6.174  1.6503  0.8833 -0.3327
27635SOL     OW86181   6.206   7.610  10.752 -0.7871  0.2672 -0.1511
27635SOL    HW186182   6.294   7.646  10.763 -0.4424 -0.5537 -0.1455
27635SOL    HW286183   6.196   7.599  10.657 -1.0003  0.6592 -0.1711
27636SOL     OW86184   9.828  11.361   4.866 -0.2373  0.1551 -0.4274
27636SOL    HW186185   9.921  11.365   4.846 -0.3199 -1.4524 -1.3550
27636SOL    HW286186   9.786  11.401   4.790 -0.3310 -0.3339 -0.6409
27637SOL     OW86187  10.262   1.527   9.492  0.0365 -0.1750  0.7921
27637SOL    HW186188  10.265   1.574   9.575 -1.3562 -0.1099  0.8267
27637SOL    HW286189  10.173   1.540   9.460  0.4373 -0.5124 -0.5352
27638SOL     OW86190  11.035   3.181   6.322 -0.0566 -0.6154  0.3526
27638SOL    HW186191  11.027   3.276   6.316  0.0613 -0.6892 -1.4905
27638SOL    HW286192  11.112   3.161   6.268 -1.9135 -1.9961 -1.9657
27639SOL     OW86193   7.466   2.771   9.079 -0.3174 -0.0571 -0.1843
27639SOL    HW186194   7.446   2.861   9.105  1.8093  0.5843 -0.5368
27639SOL    HW286195   7.415   2.717   9.140 -1.1384  1.3656  0.4670
27640SOL     OW86196   3.221   7.625   0.939  0.3784  0.0867  0.4968
27640SOL    HW186197   3.274   7.590   1.011  1.4706  0.0252 -0.3025
27640SOL    HW286198   3.248   7.716   0.932  0.3594  0.0639  0.0979
27641SOL     OW86199   6.789   6.525   4.572 -0.2985  0.1086 -0.2636
27641SOL    HW186200   6.803   6.572   4.490  0.0159  1.6761  0.6398
27641SOL    HW286201   6.876   6.517   4.611 -0.4741 -0.3708  0.0515
27642SOL     OW86202   8.714   2.194   4.924 -0.3433  0.2036  0.0124
27642SOL    HW186203   8.787   2.190   4.985 -1.8836  1.3277  2.0569
27642SOL    HW286204   8.753   2.221   4.841  1.8207 -1.3315  0.4369
27643SOL     OW86205   6.121   9.791  10.117 -0.2907  0.1079  0.6491
27643SOL    HW186206   6.188   9.822  10.177 -0.9282 -0.5804  1.7450
27643SOL    HW286207   6.081   9.870  10.082  2.9171  0.6857 -2.2881
27644SOL     OW86208   6.436   7.805   8.105 -0.3736  0.1899 -0.1536
27644SOL    HW186209   6.358   7.749   8.103  0.0236 -0.3804 -0.0677
27644SOL    HW286210   6.492   7.771   8.035 -0.5230  1.0839 -0.7169
27645SOL     OW86211   3.559   6.827   9.351  0.2470  0.0150  0.0302
27645SOL    HW186212   3.507   6.753   9.321 -0.4985  0.0906  1.0788
27645SOL    HW286213   3.494   6.888   9.387  1.1345 -0.6026  2.8944
27646SOL     OW86214   1.017   3.279   7.344 -0.4614  0.3062  0.5759
27646SOL    HW186215   1.110   3.270   7.324 -0.9112 -0.1425 -1.5556
27646SOL    HW286216   1.001   3.214   7.413  0.4172 -1.0984 -0.4767
27647SOL     OW86217   8.520  10.676   3.677 -0.2430  0.3429  0.3068
27647SOL    HW186218   8.447  10.714   3.628 -0.0931 -1.2348 -1.2478
27647SOL    HW286219   8.535  10.737   3.749 -1.9400  1.6085 -0.3429
27648SOL     OW86220   3.506   1.479   5.199 -0.1894  0.0553 -0.0764
27648SOL    HW186221   3.580   1.528   5.163  2.4841 -2.9162  0.7664
27648SOL    HW286222   3.472   1.429   5.125 -0.5707  0.5137 -0.2152
27649SOL     OW86223  10.002  10.246   4.613 -0.7491  0.6680  0.2741
27649SOL    HW186224   9.927  10.305   4.610  0.0063  1.6159 -1.9973
27649SOL    HW286225  10.076  10.300   4.640  0.4153  1.5399 -3.8831
27650SOL     OW86226   3.029   0.651   2.547  0.0645 -0.2272  0.8132
27650SOL    HW186227   2.976   0.702   2.609 -1.8026 -1.9244  0.7362
27650SOL    HW286228   3.113   0.638   2.591 -0.3898  0.6123  1.9606
27651SOL     OW86229   2.677  11.019   0.705  0.5339  0.1429 -0.1234
27651SOL    HW186230   2.668  11.015   0.800  0.2895 -1.3557 -0.1812
27651SOL    HW286231   2.696  11.111   0.686  0.3781  0.5008  1.3480
27652SOL     OW86232   0.007   6.421   8.161  0.0135  0.4402 -0.0424
27652SOL    HW186233  -0.047   6.347   8.188  0.8665  0.4349  1.8415
27652SOL    HW286234   0.094   6.383   8.146 -0.0635  0.7223 -1.2759
27653SOL     OW86235   1.920   0.045   8.744  0.0619  0.6886 -0.4795
27653SOL    HW186236   2.001   0.078   8.706  2.1010 -3.0177  0.2008
27653SOL    HW286237   1.876  -0.001   8.672  0.5226 -0.5333 -0.0080
27654SOL     OW86238   4.787   2.583   0.603  0.2719  0.7516  0.1767
27654SOL    HW186239   4.734   2.657   0.576 -1.0498  0.3231  1.4577
27654SOL    HW286240   4.790   2.589   0.699  2.1251  0.4592  0.1805
27655SOL     OW86241   4.182   2.981   3.644  0.1093 -0.4284  0.1072
27655SOL    HW186242   4.096   2.950   3.671 -0.4499  1.0601  0.1575
27655SOL    HW286243   4.177   2.985   3.549  0.0098 -0.0763  0.1241
27656SOL     OW86244   3.249  10.699   7.078 -0.0771 -0.2122 -0.0830
27656SOL    HW186245   3.217  10.710   6.988  1.4081 -1.5402 -0.8284
27656SOL    HW286246   3.261  10.788   7.110 -1.1406  0.2947 -1.0072
27657SOL     OW86247   1.540   3.858   2.874 -0.0698 -0.4734  0.0041
27657SOL    HW186248   1.598   3.808   2.817  0.0332  0.1080 -0.4140
27657SOL    HW286249   1.482   3.792   2.913  0.7738 -1.0397  0.3275
27658SOL     OW86250   5.364   7.946   3.805 -0.3124 -0.2186 -0.0625
27658SOL    HW186251   5.403   7.953   3.717  0.3595 -0.5187  0.2037
27658SOL    HW286252   5.293   8.009   3.804  0.6662  0.9194 -0.3199
27659SOL     OW86253   6.840   7.835   2.380  0.0770  0.2661 -0.1983
27659SOL    HW186254   6.770   7.772   2.364  0.5803 -0.7219  1.2852
27659SOL    HW286255   6.839   7.892   2.303 -0.6446 -1.3282 -1.4223
27660SOL     OW86256   7.888   2.000   9.025  0.3273 -0.1693 -0.4006
27660SOL    HW186257   7.885   1.916   9.071 -0.6459 -0.6864 -1.3863
27660SOL    HW286258   7.900   1.977   8.933  0.0918  0.7640 -0.6718
27661SOL     OW86259   1.177   3.443   0.154 -0.1982  0.7021 -0.3991
27661SOL    HW186260   1.169   3.436   0.059  1.5758  2.0575 -0.7221
27661SOL    HW286261   1.234   3.519   0.167  0.6651 -0.2154  1.6980
27662SOL     OW86262   3.507   8.739   8.053  0.0548  0.0125  0.2135
27662SOL    HW186263   3.474   8.829   8.053 -1.2743 -0.4274  1.6786
27662SOL    HW286264   3.440   8.688   8.009  1.0248 -0.2225 -1.0504
27663SOL     OW86265   9.725  10.342   3.954 -0.1265  0.1674 -0.1000
27663SOL    HW186266   9.777  10.400   4.009 -1.0173  0.9435 -0.0426
27663SOL    HW286267   9.634  10.363   3.976 -0.4872 -0.1702 -1.1778
27664SOL     OW86268   3.975   2.855   6.667 -0.2846  0.1781 -0.1369
27664SOL    HW186269   3.899   2.874   6.722  0.5042 -0.4742  1.2369
27664SOL    HW286270   3.939   2.809   6.592 -1.2095 -0.7662  0.8381
27665SOL     OW86271   7.677   4.295   9.155  0.5022  0.0586 -0.3534
27665SOL    HW186272   7.650   4.239   9.083 -0.0647 -0.2854  0.1195
27665SOL    HW286273   7.595   4.319   9.199  0.7697  0.9201 -0.3009
27666SOL     OW86274   2.109   3.360  10.108 -0.6136  0.4557  0.0213
27666SOL    HW186275   2.043   3.292  10.122 -0.1085 -0.0779 -0.1879
27666SOL    HW286276   2.171   3.348  10.180 -0.2764  0.3950 -0.2759
27667SOL     OW86277   5.230   0.147   2.775  0.3666 -1.0333  0.0123
27667SOL    HW186278   5.206   0.074   2.717 -1.2415 -1.7332  1.4852
27667SOL    HW286279   5.174   0.219   2.747  0.0473 -1.1744  0.2931
27668SOL     OW86280   7.073   1.984  11.261 -0.2557 -0.0566 -0.1504
27668SOL    HW186281   7.134   2.023  11.324 -0.6408 -0.3188  0.3918
27668SOL    HW286282   7.019   2.058  11.232 -1.1819 -0.2038  1.0979
27669SOL     OW86283   2.859   1.142  10.187 -0.0781 -0.0234 -0.6642
27669SOL    HW186284   2.864   1.217  10.246  1.0446 -0.3823 -0.2822
27669SOL    HW286285   2.780   1.158  10.135 -1.6115 -0.0972  1.4898
27670SOL     OW86286   2.360   5.787  10.409 -0.2300  0.2729 -0.3029
27670SOL    HW186287   2.407   5.862  10.373 -1.4501 -0.1874 -3.1338
27670SOL    HW286288   2.268   5.803  10.387 -0.7823 -1.1061  0.8165
27671SOL     OW86289   5.977   4.083   9.275  0.0805 -0.3782 -0.2703
27671SOL    HW186290   5.993   4.175   9.296  1.3959 -0.7130  0.3662
27671SOL    HW286291   5.964   4.081   9.181  0.4409  0.4137 -0.3438
27672SOL     OW86292  11.388   3.280   6.420  0.5024 -0.1089 -0.2041
27672SOL    HW186293  11.372   3.247   6.332 -2.1290 -0.7898  0.4187
27672SOL    HW286294  11.410   3.201   6.471  0.0838 -0.0246  0.1133
27673SOL     OW86295   2.967   1.993   1.522 -0.2885 -0.6548  0.2975
27673SOL    HW186296   3.040   2.036   1.478 -0.1893 -0.8017  0.3175
27673SOL    HW286297   2.987   2.002   1.615  0.2977 -1.7126  0.2856
27674SOL     OW86298   4.628  10.613   7.470  0.2281 -0.6121  0.2869
27674SOL    HW186299   4.670  10.584   7.551  1.5486 -1.8531 -0.8026
27674SOL    HW286300   4.640  10.708   7.470 -0.0496 -0.5562  1.6635
27675SOL     OW86301   5.095   2.717   1.422 -0.5085  0.2864 -0.0169
27675SOL    HW186302   5.030   2.693   1.357  0.8532  0.6028 -1.5769
27675SOL    HW286303   5.093   2.812   1.424 -0.0742  0.3008 -0.1137
27676SOL     OW86304  10.742   3.584   6.223  0.0562 -0.5253 -0.8014
27676SOL    HW186305  10.828   3.548   6.245 -0.0657 -0.8793 -0.8980
27676SOL    HW286306  10.679   3.520   6.259 -0.1711 -0.1630 -0.5399
27677SOL     OW86307   4.728   9.582   4.036 -0.1617  0.0809  0.1636
27677SOL    HW186308   4.813   9.574   3.994 -0.2681 -0.4597  0.0403
27677SOL    HW286309   4.676   9.511   3.998 -0.7735  0.6193 -0.0211
27678SOL     OW86310   3.098   6.675   6.762  0.0686 -0.3808  0.0892
27678SOL    HW186311   3.012   6.669   6.720 -0.2653 -0.6250  0.7848
27678SOL    HW286312   3.115   6.587   6.794  1.4599 -0.8083 -1.6953
27679SOL     OW86313   1.656   2.824   8.755  0.1961 -0.2232 -0.2292
27679SOL    HW186314   1.669   2.787   8.843 -1.4299 -1.4259 -0.4344
27679SOL    HW286315   1.744   2.836   8.721  0.9412  1.8316  2.1482
27680SOL     OW86316   2.873   8.123   3.965 -0.0641  0.3174 -0.1579
27680SOL    HW186317   2.886   8.074   4.046  0.7418  0.2541 -0.3190
27680SOL    HW286318   2.780   8.112   3.945  0.1129 -1.2089 -0.2345
27681SOL     OW86319   9.321   7.466   3.792 -0.1400  0.1143  0.4119
27681SOL    HW186320   9.360   7.551   3.770  2.3900 -1.0049  0.1771
27681SOL    HW286321   9.259   7.449   3.721  1.6132  0.4219 -1.2669
27682SOL     OW86322   3.709   2.143   3.614 -0.2752  0.0227 -0.5729
27682SOL    HW186323   3.764   2.146   3.536 -0.9091 -0.7179 -1.0618
27682SOL    HW286324   3.689   2.050   3.626 -0.2421  0.1340  0.4359
27683SOL     OW86325  11.087   3.561  10.454  0.8487 -0.1566 -0.0675
27683SOL    HW186326  11.147   3.521  10.518  0.2476 -1.8970 -0.5554
27683SOL    HW286327  11.098   3.655  10.468  2.8131 -0.4420  0.6664
27684SOL     OW86328   9.546   2.651   6.267  0.0392  0.1983  0.0017
27684SOL    HW186329   9.633   2.644   6.306 -0.0540  0.0662  0.1838
27684SOL    HW286330   9.550   2.597   6.188  0.3483  0.7755 -0.3867
27685SOL     OW86331   4.667   6.106   2.250 -0.6446 -0.0537 -0.4691
27685SOL    HW186332   4.688   6.051   2.175  0.5875 -0.9959  0.5156
27685SOL    HW286333   4.701   6.057   2.326  2.0588  2.7593  0.3352
27686SOL     OW86334   9.176  10.671   5.824  0.0419 -0.5733  0.3296
27686SOL    HW186335   9.082  10.673   5.807 -0.1807 -1.2487  1.4267
27686SOL    HW286336   9.201  10.763   5.831 -0.3556 -0.3532 -0.8099
27687SOL     OW86337   8.199   7.402   3.447  0.0172 -0.1752 -0.5746
27687SOL    HW186338   8.281   7.410   3.399  1.1544 -0.3556  1.2244
27687SOL    HW286339   8.165   7.491   3.452  1.0724  0.2024  0.2250
27688SOL     OW86340   7.578   7.189   7.578 -0.3523  0.2609  0.3667
27688SOL    HW186341   7.592   7.235   7.495 -0.8339 -0.5112 -0.1513
27688SOL    HW286342   7.483   7.194   7.592 -0.2295  0.7332  1.0820
27689SOL     OW86343  11.364  10.087   2.159  0.6058 -0.1173  0.0744
27689SOL    HW186344  11.376  10.086   2.254 -1.6316  1.6064  0.4721
27689SOL    HW286345  11.430  10.149   2.128  1.6258 -0.9997  0.4234
27690SOL     OW86346   6.404   3.352   4.610  0.2148  0.0330  0.0574
27690SOL    HW186347   6.330   3.410   4.629 -0.7698 -0.4888 -1.9205
27690SOL    HW286348   6.474   3.410   4.581 -0.2895  0.3376 -0.5575
27691SOL     OW86349   3.668   9.825   2.826 -0.1585  0.2525  0.0495
27691SOL    HW186350   3.586   9.860   2.790 -1.0218 -1.3138  0.3982
27691SOL    HW286351   3.674   9.737   2.790  0.5996 -0.1920  1.2120
27692SOL     OW86352   7.240   1.098  11.310 -0.4825 -0.0809 -0.2822
27692SOL    HW186353   7.228   1.161  11.381 -0.1960 -1.9083  1.4852
27692SOL    HW286354   7.334   1.082  11.307 -0.0329  2.3019 -3.3030
27693SOL     OW86355   4.761   8.913   5.025  0.0075  0.4125  0.2566
27693SOL    HW186356   4.845   8.883   4.991 -1.1810 -1.8768 -0.9667
27693SOL    HW286357   4.768   8.902   5.120  1.1890  0.5435  0.1944
27694SOL     OW86358   9.489   1.381   1.435 -0.2115 -0.5667  0.1194
27694SOL    HW186359   9.507   1.449   1.370 -1.0091 -1.8404 -1.5134
27694SOL    HW286360   9.421   1.420   1.491 -0.4915  0.0907 -0.6447
27695SOL     OW86361   2.284   3.509   5.179 -0.0789  0.3584  0.2456
27695SOL    HW186362   2.195   3.538   5.199 -0.8873 -1.3149 -0.6724
27695SOL    HW286363   2.323   3.491   5.264 -1.2202 -0.4908  0.6213
27696SOL     OW86364   3.087   0.516   9.183  0.3399 -0.0585 -0.0780
27696SOL    HW186365   3.114   0.603   9.153  0.1570 -0.0474 -0.2107
27696SOL    HW286366   3.052   0.532   9.271  1.4471 -0.1838  0.3998
27697SOL     OW86367   4.676   9.365   1.131 -0.6328  0.2050  0.4332
27697SOL    HW186368   4.744   9.408   1.078 -1.8626  1.7785  0.0605
27697SOL    HW286369   4.660   9.282   1.086  0.7921 -0.0554  0.3464
27698SOL     OW86370   8.740   9.915   1.841  0.2955 -0.4472  0.1939
27698SOL    HW186371   8.705   9.827   1.829 -1.1348 -0.3362  2.6701
27698SOL    HW286372   8.670   9.973   1.811  0.9640 -0.1437 -0.8078
27699SOL     OW86373   6.606   3.173   5.131 -0.0246 -0.2363  0.4420
27699SOL    HW186374   6.609   3.108   5.200 -1.6064  0.1363  0.8988
27699SOL    HW286375   6.513   3.185   5.112  0.3415  0.0335 -1.4147
27700SOL     OW86376   4.438  10.869   4.762 -0.1939  0.3089  0.2402
27700SOL    HW186377   4.419  10.861   4.855  0.2244  0.8877  0.3767
27700SOL    HW286378   4.534  10.875   4.757  0.2217 -3.6862 -0.4960
27701SOL     OW86379  10.391   3.439   1.274 -0.5984 -0.0351 -0.9167
27701SOL    HW186380  10.336   3.393   1.337  0.4528 -0.3422 -0.2003
27701SOL    HW286381  10.372   3.532   1.289  0.3528 -0.0443  0.5710
27702SOL     OW86382  10.692   0.424  10.319 -0.1057  0.4353 -0.2987
27702SOL    HW186383  10.600   0.448  10.310  0.4510  1.8216 -3.1553
27702SOL    HW286384  10.737   0.506  10.337  0.9026  0.2720 -1.9708
27703SOL     OW86385   2.557   4.633  10.025  0.3918  0.4247 -0.2719
27703SOL    HW186386   2.522   4.673  10.105 -0.2625  0.1472 -0.4178
27703SOL    HW286387   2.492   4.568  10.000  1.9606 -1.6515  0.6533
27704SOL     OW86388   1.117   4.741   8.936  0.0937  0.2601  0.3688
27704SOL    HW186389   1.150   4.654   8.913  2.2457  1.8205 -3.2487
27704SOL    HW286390   1.055   4.763   8.867 -2.0102  0.9483  2.3210
27705SOL     OW86391  10.719   2.742   2.632  0.5857  0.1901 -0.2244
27705SOL    HW186392  10.693   2.731   2.540 -0.0325  0.3208 -0.0702
27705SOL    HW286393  10.808   2.707   2.636  1.1917  1.5258 -1.1860
27706SOL     OW86394  10.860   3.335   4.304 -0.0341  0.0716  0.0534
27706SOL    HW186395  10.825   3.273   4.368  1.4714  0.0736  0.9122
27706SOL    HW286396  10.821   3.308   4.221  0.9575 -2.3613  0.3061
27707SOL     OW86397   7.521   5.433  11.294 -0.3685 -0.1896  0.3954
27707SOL    HW186398   7.520   5.343  11.260 -0.3774 -0.3404  0.7940
27707SOL    HW286399   7.614   5.453  11.306 -0.3862 -0.3115  0.7432
27708SOL     OW86400  10.320   3.588  10.152 -0.5434  0.2116 -0.6170
27708SOL    HW186401  10.239   3.613  10.108 -1.3739  0.3822  0.9326
27708SOL    HW286402  10.302   3.501  10.187 -0.5051  0.7277  0.7446
27709SOL     OW86403   7.233   7.167   4.232 -0.7221 -0.1845  0.6408
27709SOL    HW186404   7.205   7.225   4.162 -0.7112 -3.5267 -2.4088
27709SOL    HW286405   7.152   7.136   4.272 -0.8585 -0.1993  0.3560
27710SOL     OW86406   6.840   8.341   3.584  0.2191 -0.0404  0.1017
27710SOL    HW186407   6.846   8.364   3.676  0.8022 -0.6839  0.2312
27710SOL    HW286408   6.857   8.247   3.581  0.3965  0.0050 -0.6814
27711SOL     OW86409   3.131  11.250   8.382 -0.6912  1.0982 -0.1316
27711SOL    HW186410   3.044  11.289   8.382 -0.4670  1.6174 -0.6416
27711SOL    HW286411   3.181  11.304   8.320  0.0197  0.8753  0.2419
27712SOL     OW86412   4.872   2.191   2.677  0.7101 -0.4304 -0.9972
27712SOL    HW186413   4.843   2.109   2.637  0.4157 -0.0038 -1.6940
27712SOL    HW286414   4.855   2.257   2.610 -0.4267  0.4217  0.0760
27713SOL     OW86415   1.309   5.710   0.379  0.5507 -0.5589  0.5843
27713SOL    HW186416   1.357   5.770   0.437 -0.4840 -0.6754  1.6005
27713SOL    HW286417   1.354   5.718   0.295  1.0450  0.9096  0.9468
27714SOL     OW86418   8.157   1.058  10.761  0.4456 -0.2695  0.0880
27714SOL    HW186419   8.115   1.143  10.774  1.3152 -0.0061  1.3600
27714SOL    HW286420   8.176   1.055  10.667  0.7653  1.1202  0.0892
27715SOL     OW86421   8.868   9.562   1.869 -0.1571  0.1423  0.0463
27715SOL    HW186422   8.914   9.609   1.939  0.4568  0.9317 -0.8602
27715SOL    HW286423   8.879   9.617   1.792 -1.6093 -0.2543 -0.4836
27716SOL     OW86424   4.685   7.130   3.741  0.2534  0.0290 -0.0678
27716SOL    HW186425   4.668   7.223   3.733  1.4132  0.2755  0.1446
27716SOL    HW286426   4.632   7.102   3.816  0.5879  0.7063  0.4288
27717SOL     OW86427   1.811   6.654   1.530  0.0557  0.0924  0.7637
27717SOL    HW186428   1.813   6.674   1.437 -2.3674 -4.4294 -0.6082
27717SOL    HW286429   1.885   6.701   1.567  2.2314  0.7444 -3.7575
27718SOL     OW86430   0.910   2.998   9.730 -0.2943 -0.2004 -0.3878
27718SOL    HW186431   0.835   3.039   9.687 -1.4255  0.2643  1.8607
27718SOL    HW286432   0.871   2.930   9.785  0.7298  0.8169  1.7299
27719SOL     OW86433   8.308   8.057   3.237 -0.2688  0.1360  0.3150
27719SOL    HW186434   8.267   7.990   3.183 -0.5236 -0.2167  0.9348
27719SOL    HW286435   8.345   8.119   3.175 -0.8525 -0.0826 -0.2527
27720SOL     OW86436  10.632  10.282   6.993 -0.1457 -0.0272  0.0106
27720SOL    HW186437  10.550  10.234   7.003 -1.1853 -0.1607 -5.7380
27720SOL    HW286438  10.605  10.373   6.982  0.8258  0.3833  0.8705
27721SOL     OW86439   6.701   1.767   5.041 -0.0309  0.4598 -0.0415
27721SOL    HW186440   6.741   1.704   4.982  2.7187  1.3715  0.6832
27721SOL    HW286441   6.685   1.719   5.122 -2.5952 -0.4509 -0.9675
27722SOL     OW86442   9.096   3.034   4.613 -0.5753 -0.2240 -0.0456
27722SOL    HW186443   9.103   2.993   4.700  0.5075  1.8994  0.9325
27722SOL    HW286444   9.080   3.126   4.630 -1.7890  0.0325 -2.1720
27723SOL     OW86445  10.361   5.674   9.881  0.0164 -0.2481 -0.8157
27723SOL    HW186446  10.293   5.694   9.946  0.1503  0.3758 -0.8648
27723SOL    HW286447  10.340   5.585   9.852 -1.2018  0.1737 -1.3341
27724SOL     OW86448   2.821   6.182   4.560 -0.2391  0.1187 -0.9396
27724SOL    HW186449   2.791   6.255   4.506  0.3829 -0.3404 -1.9364
27724SOL    HW286450   2.909   6.208   4.588 -0.0662 -0.1901 -1.1934
27725SOL     OW86451   9.469   4.712   9.446  0.1377  0.5215 -0.2324
27725SOL    HW186452   9.374   4.713   9.455  0.2411  1.4493  1.0809
27725SOL    HW286453   9.490   4.796   9.405  0.3874  0.1744 -0.8393
27726SOL     OW86454   1.996   2.290   8.526  0.1850 -0.0870 -0.1143
27726SOL    HW186455   1.961   2.379   8.535 -1.3617 -0.6987  0.3015
27726SOL    HW286456   2.031   2.269   8.612 -0.1309 -0.1500 -0.0006
27727SOL     OW86457   3.649   0.411   2.107  0.1551  0.1762 -0.2625
27727SOL    HW186458   3.692   0.350   2.168  3.1441  1.3275 -1.0336
27727SOL    HW286459   3.634   0.490   2.158  1.3644  0.6406 -0.5691
27728SOL     OW86460   7.150   2.511   5.948 -0.5201 -0.5827 -0.0419
27728SOL    HW186461   7.227   2.506   6.006 -1.8851  3.1454  2.4940
27728SOL    HW286462   7.187   2.524   5.861  2.1248  4.3078  1.4107
27729SOL     OW86463  10.936   0.347   7.965 -0.0761 -0.2296  0.6258
27729SOL    HW186464  11.001   0.341   7.894  0.1498  0.3226  0.7879
27729SOL    HW286465  10.867   0.286   7.938 -0.4377  0.6430 -0.5466
27730SOL     OW86466   2.142   7.789   1.922 -0.2331 -0.4426  0.3768
27730SOL    HW186467   2.115   7.844   1.849  0.5278 -0.9571 -0.3034
27730SOL    HW286468   2.137   7.847   1.998 -0.1207  0.3727 -0.2214
27731SOL     OW86469   6.339   7.976   8.519  0.9748  0.0792 -0.0368
27731SOL    HW186470   6.356   8.059   8.474 -0.5743  0.7321  0.5357
27731SOL    HW286471   6.377   7.910   8.461 -1.1811  0.8504 -2.5540
27732SOL     OW86472   4.532   4.670   5.649  0.3774  0.1783 -0.0720
27732SOL    HW186473   4.470   4.605   5.614  0.7156 -1.2328  1.7902
27732SOL    HW286474   4.512   4.674   5.743  1.9107  1.0598  0.2439
27733SOL     OW86475   3.689   1.992   1.019  0.2034 -0.5768  0.1205
27733SOL    HW186476   3.685   2.051   0.944  1.1555 -1.1981 -0.4405
27733SOL    HW286477   3.598   1.978   1.044 -0.1231 -0.2977 -0.8761
27734SOL     OW86478   3.357  10.465   8.409  0.0941 -0.3964 -0.7943
27734SOL    HW186479   3.294  10.495   8.474  2.3137 -1.5495  2.1082
27734SOL    HW286480   3.392  10.545   8.371 -0.7150  0.3482 -0.0214
27735SOL     OW86481   4.580   2.083   8.074 -0.0994  0.0216  0.6027
27735SOL    HW186482   4.559   2.169   8.038  1.8651  0.1098 -0.4891
27735SOL    HW286483   4.501   2.031   8.061 -0.9327  1.3325  0.2358
27736SOL     OW86484   9.423   6.277   2.176  0.1074  0.3335  0.3415
27736SOL    HW186485   9.349   6.216   2.174  0.2451  0.1610  0.5416
27736SOL    HW286486   9.393   6.353   2.125 -0.4344  0.5097  0.9034
27737SOL     OW86487   2.328   0.432   9.674 -0.2480 -0.9724  0.2468
27737SOL    HW186488   2.423   0.437   9.664 -0.3950  0.7644 -0.7910
27737SOL    HW286489   2.307   0.502   9.736 -1.1351  1.4409 -2.5469
27738SOL     OW86490   8.855   9.795   0.760 -0.0353  0.4549 -0.1000
27738SOL    HW186491   8.940   9.825   0.792 -0.2551 -0.5451  1.5838
27738SOL    HW286492   8.859   9.700   0.769 -1.1174  0.3546 -0.5662
27739SOL     OW86493   4.787   4.993   8.312  0.7082 -0.3081  0.7956
27739SOL    HW186494   4.761   4.901   8.317 -0.5496  0.0842  2.0619
27739SOL    HW286495   4.882   4.991   8.312  0.7339 -1.6662 -0.8575
27740SOL     OW86496  10.878   5.498   4.806  0.1406 -0.1101 -0.2350
27740SOL    HW186497  10.847   5.517   4.895  1.0613 -1.1357  0.3376
27740SOL    HW286498  10.962   5.542   4.801 -0.3830  0.8471 -1.0119
27741SOL     OW86499   5.068   3.365   6.341 -0.3741 -0.1765 -0.1455
27741SOL    HW186500   4.984   3.324   6.320  0.0317 -0.4781 -1.2352
27741SOL    HW286501   5.098   3.403   6.258  0.0735  0.8455  0.4630
27742SOL     OW86502   6.915  10.781   4.238  0.5923 -0.2859  0.1749
27742SOL    HW186503   6.877  10.733   4.165  0.0669 -0.7517  0.7451
27742SOL    HW286504   6.952  10.860   4.198 -2.6129  1.1822 -0.2052
27743SOL     OW86505   4.317   6.301   1.773  0.0009  0.5359  0.5038
27743SOL    HW186506   4.403   6.326   1.804 -0.7101  0.9795  2.2606
27743SOL    HW286507   4.270   6.383   1.760  0.3273  0.3853 -2.1158
27744SOL     OW86508   3.813   6.293   4.710 -0.8974  0.0796  0.7300
27744SOL    HW186509   3.780   6.319   4.796  0.4902  0.3109  1.2189
27744SOL    HW286510   3.833   6.376   4.666 -1.1742 -0.0490  0.3568
27745SOL     OW86511   0.912   7.146  10.387  0.4023  0.6899  0.4501
27745SOL    HW186512   0.981   7.205  10.356  0.5084  0.4128  0.1631
27745SOL    HW286513   0.895   7.176  10.477  0.2727  1.3235  0.2229
27746SOL     OW86514   8.113   5.237   7.803  0.1058 -0.0196  0.3896
27746SOL    HW186515   8.188   5.210   7.857  0.0891  0.1052  0.4745
27746SOL    HW286516   8.044   5.258   7.865  0.3053  0.7775  0.3482
27747SOL     OW86517   1.251   0.198   4.341 -0.4885 -0.2093 -0.6230
27747SOL    HW186518   1.290   0.114   4.319 -0.5832 -0.4688  0.1371
27747SOL    HW286519   1.309   0.235   4.409 -1.6764 -0.7343  0.7276
27748SOL     OW86520  11.098   5.823   7.607 -0.1450 -0.4525  0.1446
27748SOL    HW186521  11.052   5.843   7.688 -1.1146  0.1742 -0.5362
27748SOL    HW286522  11.029   5.798   7.546  0.4331  0.2323 -0.8199
27749SOL     OW86523   3.847   0.438   0.520 -0.1334 -0.1514  0.0541
27749SOL    HW186524   3.863   0.371   0.454  0.1909 -0.1065  0.0889
27749SOL    HW286525   3.839   0.519   0.469 -1.0325 -0.2875 -0.0371
27750SOL     OW86526   7.431   9.285   7.348  0.4466 -0.0020 -0.1382
27750SOL    HW186527   7.424   9.195   7.315 -0.5769 -0.1556  0.4178
27750SOL    HW286528   7.490   9.329   7.288  1.3137 -1.1685 -0.1739
27751SOL     OW86529   1.541   0.602   9.460  0.7153 -0.1984  0.5011
27751SOL    HW186530   1.590   0.663   9.515  1.4793 -0.1985 -0.1550
27751SOL    HW286531   1.579   0.613   9.373 -1.7057  1.1885 -0.4790
27752SOL     OW86532   8.284   6.989   3.585 -0.1648 -0.3783 -0.0039
27752SOL    HW186533   8.226   7.026   3.518  0.9223  0.5346 -0.4533
27752SOL    HW286534   8.372   7.008   3.555  0.3705 -0.7128  1.2677
27753SOL     OW86535   1.971   0.514   2.776  0.1238  0.4171 -0.1303
27753SOL    HW186536   1.997   0.560   2.696  1.0051  1.9956  1.0139
27753SOL    HW286537   2.021   0.432   2.774 -1.3783 -0.5578 -2.1414
27754SOL     OW86538   1.560  10.714  10.654 -0.2559 -0.3615  0.3945
27754SOL    HW186539   1.655  10.703  10.645 -0.2841 -1.2797  1.1506
27754SOL    HW286540   1.523  10.660  10.585 -0.2362  0.2492 -0.1079
27755SOL     OW86541   5.387   2.430   6.286  0.3552 -0.2519  0.0288
27755SOL    HW186542   5.482   2.424   6.280  0.3184  0.4490 -1.8661
27755SOL    HW286543   5.367   2.522   6.269 -0.7129 -0.5794 -0.5985
27756SOL     OW86544   4.486  10.897  10.420  0.1836  0.0856 -0.0242
27756SOL    HW186545   4.581  10.911  10.414  0.1402  0.7983  0.7906
27756SOL    HW286546   4.469  10.885  10.513 -0.4496 -0.7005 -0.2324
27757SOL     OW86547  11.340   4.332   6.697  0.0442 -0.0548  0.2210
27757SOL    HW186548  11.411   4.285   6.653  0.3287  0.6311 -0.0685
27757SOL    HW286549  11.275   4.348   6.628  0.7484  1.5330 -0.1358
27758SOL     OW86550   9.874   2.526  10.476 -0.0535 -0.1667 -0.3936
27758SOL    HW186551   9.900   2.476  10.399 -1.4959 -1.8622  0.1394
27758SOL    HW286552   9.818   2.466  10.526  1.3383  0.5878  2.3242
27759SOL     OW86553   0.596   8.496   4.975 -0.2023 -0.1133  0.0325
27759SOL    HW186554   0.631   8.563   5.033 -3.1577  1.4228  0.2195
27759SOL    HW286555   0.558   8.431   5.034 -0.1987 -0.2975 -0.1695
27760SOL     OW86556  10.741   0.048   5.659 -0.5124 -0.2773  0.5402
27760SOL    HW186557  10.788  -0.017   5.607  0.5591  1.5233 -0.8726
27760SOL    HW286558  10.653   0.050   5.621  0.1980  0.8656 -1.1701
27761SOL     OW86559   1.882   5.800   7.285  0.5280  0.0915  0.1607
27761SOL    HW186560   1.975   5.809   7.308  0.4335 -0.8794  0.9511
27761SOL    HW286561   1.873   5.854   7.206  1.9153 -0.3352 -0.3307
27762SOL     OW86562   5.352   6.670  10.229 -0.1941  0.4033  0.7892
27762SOL    HW186563   5.379   6.586  10.191 -0.5205  1.4583 -2.0497
27762SOL    HW286564   5.431   6.703  10.271  1.2696  0.5595 -1.8413
27763SOL     OW86565   7.582   9.668   8.683  0.0576  0.0189  0.0834
27763SOL    HW186566   7.635   9.648   8.760  1.0737 -1.2678 -0.8979
27763SOL    HW286567   7.493   9.647   8.709  0.2289  0.6098  1.2296
27764SOL     OW86568   5.336   8.905   8.850  0.1833 -0.2082 -0.1931
27764SOL    HW186569   5.262   8.965   8.836  0.4103  0.0097 -0.4701
27764SOL    HW286570   5.391   8.949   8.914 -0.4026 -0.8042  0.7426
27765SOL     OW86571   4.485   7.328   2.474  0.2751 -0.0267  0.2050
27765SOL    HW186572   4.537   7.409   2.471 -1.1029  0.8650 -0.9504
27765SOL    HW286573   4.535   7.270   2.530  0.6894  2.0780  2.1688
27766SOL     OW86574   9.489   4.259   1.963 -0.1984 -0.4493 -0.2521
27766SOL    HW186575   9.518   4.261   2.054 -0.7117 -0.1857 -0.0882
27766SOL    HW286576   9.399   4.225   1.966 -1.2253  1.9959 -0.3426
27767SOL     OW86577   8.476   3.481   7.612  0.3110 -0.0015 -0.6881
27767SOL    HW186578   8.535   3.523   7.550  0.1175 -0.1431 -0.9682
27767SOL    HW286579   8.472   3.389   7.584  0.6378 -0.1872 -0.1525
27768SOL     OW86580   2.283   9.307   1.714  0.4241  0.0110  0.0015
27768SOL    HW186581   2.372   9.306   1.679  0.4982 -0.4492  0.1858
27768SOL    HW286582   2.238   9.375   1.664  0.7709 -0.0195 -0.3602
27769SOL     OW86583   5.962   7.429   2.496 -0.4621 -0.3407  0.1458
27769SOL    HW186584   5.944   7.497   2.561  0.1596  0.1507 -0.1851
27769SOL    HW286585   5.939   7.467   2.412 -1.0608 -0.9017  0.0470
27770SOL     OW86586   6.958   9.894   6.999  0.2191  0.2102  0.1013
27770SOL    HW186587   7.003   9.816   6.968  1.3438  0.1505  1.8023
27770SOL    HW286588   6.865   9.876   6.982  0.6777  0.2319 -3.2375
27771SOL     OW86589  11.319   6.851   3.038 -0.3335  0.0155  0.1398
27771SOL    HW186590  11.362   6.810   3.113  0.3533  1.6679  0.6934
27771SOL    HW286591  11.253   6.788   3.011  1.7283 -2.1931 -0.1032
27772SOL     OW86592   7.158   8.901   2.587 -0.0048  0.0766 -0.1440
27772SOL    HW186593   7.076   8.860   2.558 -0.8957  0.1835  1.9868
27772SOL    HW286594   7.225   8.834   2.571 -0.6467 -0.3398 -1.1551
27773SOL     OW86595   7.457   6.657   4.293 -0.3843 -0.2588 -0.3402
27773SOL    HW186596   7.453   6.646   4.198  2.1436 -0.7627 -0.4451
27773SOL    HW286597   7.524   6.724   4.307  1.5895 -2.3820  1.1220
27774SOL     OW86598   9.195   6.415   1.437  0.4163 -0.2665  0.2260
27774SOL    HW186599   9.287   6.413   1.464  0.4354 -1.9918  0.1164
27774SOL    HW286600   9.198   6.417   1.342  0.3331 -0.1406  0.2256
27775SOL     OW86601   5.855   9.906   8.888 -0.2611  0.1673  0.3296
27775SOL    HW186602   5.898   9.823   8.866 -0.1140  0.3259  0.0171
27775SOL    HW286603   5.917   9.951   8.944 -0.1604  0.2491  0.1536
27776SOL     OW86604  11.044   8.294   2.216  0.0027  0.2189 -0.4058
27776SOL    HW186605  10.952   8.317   2.202 -0.0834  0.2780  0.2246
27776SOL    HW286606  11.060   8.222   2.154 -0.5603 -0.0070 -0.2990
27777SOL     OW86607   2.078   1.669   0.153 -0.6647  0.0322 -0.4760
27777SOL    HW186608   2.012   1.601   0.152 -0.5232 -0.1135 -0.1002
27777SOL    HW286609   2.088   1.692   0.245  0.7661 -0.8978 -0.3579
27778SOL     OW86610  11.376   1.413  10.976 -0.1248 -0.2312  0.0161
27778SOL    HW186611  11.285   1.387  10.986 -0.4442  0.0510 -1.7508
27778SOL    HW286612  11.426   1.340  11.013 -1.0593 -1.3888 -0.8942
27779SOL     OW86613   6.706   9.046   8.732 -0.0396 -0.1032 -0.1419
27779SOL    HW186614   6.775   9.038   8.666 -0.5734 -0.2210 -0.6865
27779SOL    HW286615   6.672   8.957   8.742 -0.4232  0.0370 -0.2092
27780SOL     OW86616  11.305   5.275   7.762 -0.0348 -0.1638  0.1649
27780SOL    HW186617  11.340   5.293   7.849 -1.5144  0.4315  0.6784
27780SOL    HW286618  11.290   5.180   7.761 -0.0453 -0.1684  0.5836
27781SOL     OW86619   6.238   6.347   4.172 -0.0987  0.1823 -0.6267
27781SOL    HW186620   6.212   6.256   4.163 -0.0220  0.0203  0.5853
27781SOL    HW286621   6.172   6.396   4.122 -2.5547 -0.2566  1.9169
27782SOL     OW86622   6.248   8.225   0.582 -0.2356 -0.3604  0.2141
27782SOL    HW186623   6.328   8.173   0.596 -0.7846 -1.1057  0.6254
27782SOL    HW286624   6.243   8.235   0.487  0.6055  0.1083  0.2085
27783SOL     OW86625   6.062   2.848  11.359 -0.1741 -0.2257  0.5274
27783SOL    HW186626   6.062   2.853  11.455 -0.0008 -1.4069  0.6029
27783SOL    HW286627   6.133   2.906  11.332  1.1630 -1.4929  1.2223
27784SOL     OW86628   6.781   3.804   1.384  0.3529  0.0004 -0.0644
27784SOL    HW186629   6.748   3.890   1.356 -0.1684 -0.4273 -0.8197
27784SOL    HW286630   6.824   3.769   1.305  1.3355 -0.0734  0.4903
27785SOL     OW86631  10.900   7.893   7.047  0.3483  0.4679  0.4727
27785SOL    HW186632  10.981   7.931   7.080  1.2931 -0.3877 -0.7643
27785SOL    HW286633  10.883   7.938   6.965  0.7073 -0.7295 -0.2916
27786SOL     OW86634   5.811   7.186   9.832 -0.3743 -0.4425  0.8227
27786SOL    HW186635   5.819   7.278   9.809 -1.4809 -0.5723 -0.1846
27786SOL    HW286636   5.893   7.146   9.802 -0.2292  0.0652  0.5381
27787SOL     OW86637   9.936  10.378   5.597  0.2438  0.4912 -0.2625
27787SOL    HW186638   9.888  10.310   5.644 -2.0579  1.1335 -1.5025
27787SOL    HW286639  10.023  10.341   5.584 -0.1043 -1.0888  1.4312
27788SOL     OW86640   0.950   4.027  10.579 -0.1870 -0.1949  0.5458
27788SOL    HW186641   0.990   4.064  10.501 -2.1736  0.9575 -0.0061
27788SOL    HW286642   0.930   3.937  10.556  1.1988 -0.5158  0.5247
27789SOL     OW86643   9.914  10.127   7.909 -0.4460 -0.2607  0.1659
27789SOL    HW186644   9.906  10.210   7.955 -0.4536 -0.9277  1.4118
27789SOL    HW286645   9.884  10.146   7.820 -0.5677  1.0299  0.4607
27790SOL     OW86646   1.867   2.074  11.032  0.0279  0.2562 -0.3674
27790SOL    HW186647   1.952   2.048  10.997  0.4699  1.7405 -0.4860
27790SOL    HW286648   1.804   2.029  10.977  0.7369 -0.2248 -0.8106
27791SOL     OW86649   5.896   7.418   7.960  0.9780  0.0697  0.3698
27791SOL    HW186650   5.953   7.406   7.884  1.5123  0.2034  0.7480
27791SOL    HW286651   5.944   7.379   8.033  0.2920 -0.4172  0.5692
27792SOL     OW86652   2.702   4.082   4.961  0.1242  0.3050 -0.3682
27792SOL    HW186653   2.789   4.051   4.987  0.1191 -0.2922 -1.0211
27792SOL    HW286654   2.704   4.176   4.979 -0.0736 -0.1296  2.2339
27793SOL     OW86655   2.307  10.915  11.165 -0.0636 -0.0183 -0.1457
27793SOL    HW186656   2.400  10.936  11.170 -0.2327  0.4558  1.6347
27793SOL    HW286657   2.303  10.820  11.171  0.2610  0.0385  1.3585
27794SOL     OW86658   9.290   7.039   5.841 -0.0089 -0.5406 -0.3605
27794SOL    HW186659   9.325   6.990   5.766  0.4410  1.9653 -1.9147
27794SOL    HW286660   9.207   7.074   5.810  0.0054  0.2343  0.4366
27795SOL     OW86661   9.407   3.155   2.259  0.2715  0.7570 -0.3725
27795SOL    HW186662   9.328   3.102   2.270  0.0024  1.5926  2.3015
27795SOL    HW286663   9.379   3.244   2.283  1.4619  1.5790 -1.8254
27796SOL     OW86664   0.711   9.211   4.461 -0.1231  0.2300 -0.4271
27796SOL    HW186665   0.636   9.151   4.452 -0.3951  0.5240 -0.1543
27796SOL    HW286666   0.677   9.296   4.432  0.2699  0.2450 -0.8369
27797SOL     OW86667   0.175   4.280  11.026 -0.5195  0.4675 -0.2723
27797SOL    HW186668   0.109   4.346  11.045 -1.2866 -0.4309  0.3026
27797SOL    HW286669   0.130   4.197  11.040  0.9625 -0.1759  0.9658
27798SOL     OW86670   7.605   1.053   7.062 -0.1030 -0.8156 -0.4790
27798SOL    HW186671   7.563   1.038   6.977 -2.3505 -0.6125  0.5250
27798SOL    HW286672   7.558   0.995   7.122 -1.6889  2.2473  1.4451
27799SOL     OW86673   7.783   0.600  10.235  0.4940 -0.1774  0.1301
27799SOL    HW186674   7.846   0.528  10.239  1.1147  0.2218 -1.5642
27799SOL    HW286675   7.740   0.589  10.151  0.0641  0.9957  0.1778
27800SOL     OW86676   4.862   1.491   0.288 -0.0103 -0.2596 -0.5828
27800SOL    HW186677   4.907   1.524   0.210  3.0847 -0.1100  1.1008
27800SOL    HW286678   4.893   1.402   0.299  1.0981  0.2946  1.3952
27801SOL     OW86679  10.539   3.008   6.621  0.0687 -0.3540  0.0659
27801SOL    HW186680  10.483   3.065   6.569  0.1044 -0.3298  0.0542
27801SOL    HW286681  10.547   2.927   6.570  0.1367 -0.3153  0.0143
27802SOL     OW86682   8.586   0.351   8.019  1.2224 -0.1657 -0.3524
27802SOL    HW186683   8.569   0.277   8.077 -1.0427 -1.2103 -2.1474
27802SOL    HW286684   8.499   0.378   7.989  1.9168  3.5384  0.5050
27803SOL     OW86685   1.304   7.121   4.608  0.0924 -0.2462 -0.2560
27803SOL    HW186686   1.257   7.173   4.542 -0.3770  0.0826  0.3297
27803SOL    HW286687   1.276   7.031   4.591 -0.6784 -0.0669  0.0146
27804SOL     OW86688   2.443   7.677  10.759  0.2160  0.1067 -0.2867
27804SOL    HW186689   2.537   7.691  10.760  0.0808  1.0974  1.3823
27804SOL    HW286690   2.430   7.597  10.810  0.0974  0.5670  0.4264
27805SOL     OW86691   0.283   1.056   4.046 -0.4575 -0.5120 -0.1487
27805SOL    HW186692   0.218   1.036   3.979 -1.0021  0.6627  0.0152
27805SOL    HW286693   0.366   1.027   4.008 -0.9000 -0.8474 -0.8797
27806SOL     OW86694   1.416   4.549   3.354 -0.1925  0.2444  0.8382
27806SOL    HW186695   1.390   4.460   3.329  1.4453  0.0228 -0.2797
27806SOL    HW286696   1.377   4.563   3.440 -0.9746 -1.3318  0.7674
27807SOL     OW86697   2.087   1.527   5.081  0.0651 -0.1419  0.0634
27807SOL    HW186698   2.129   1.611   5.101 -0.0946 -0.0433 -0.0129
27807SOL    HW286699   2.157   1.463   5.090  0.0189 -0.0908  0.8637
27808SOL     OW86700   2.370   1.797   5.522 -0.5171  0.0109  0.2098
27808SOL    HW186701   2.439   1.768   5.462 -1.2264 -0.9067 -0.1757
27808SOL    HW286702   2.289   1.762   5.486 -1.1846  0.9521  0.7413
27809SOL     OW86703   3.886   5.748   5.714  0.1104 -0.1208 -0.1257
27809SOL    HW186704   3.962   5.768   5.660 -0.3963  0.9174 -0.4952
27809SOL    HW286705   3.826   5.704   5.654  0.1793 -0.3841  0.0010
27810SOL     OW86706   8.152   2.032   3.645 -0.2124 -0.1122 -0.0893
27810SOL    HW186707   8.101   1.952   3.632 -2.4462  1.0767  0.9216
27810SOL    HW286708   8.138   2.082   3.564  0.5884 -0.3914 -0.4144
27811SOL     OW86709   3.763   5.746   2.390 -0.2695 -0.3419  0.2647
27811SOL    HW186710   3.725   5.660   2.410 -1.1810  0.5837  2.9636
27811SOL    HW286711   3.853   5.740   2.421 -0.3830 -0.2626  0.6073
27812SOL     OW86712   0.969   9.231   7.373 -0.0477  0.0823  0.3372
27812SOL    HW186713   0.980   9.325   7.361 -0.9063  0.5465  2.6680
27812SOL    HW286714   0.901   9.207   7.310  1.4228  0.6210 -1.5365
27813SOL     OW86715   5.846   9.110   4.274 -0.1995  0.4603 -0.0358
27813SOL    HW186716   5.842   9.170   4.200  1.9724  0.3084 -0.3241
27813SOL    HW286717   5.884   9.162   4.346  0.2251 -0.1253  0.1713
27814SOL     OW86718   4.575   2.017   8.465  0.5626  0.1971  0.6660
27814SOL    HW186719   4.536   1.951   8.523  0.5528  1.2881  1.9433
27814SOL    HW286720   4.500   2.057   8.420  0.6100 -1.0419 -0.5777
27815SOL     OW86721   7.889   8.634   2.891 -0.5386  0.2939 -0.5200
27815SOL    HW186722   7.800   8.649   2.860 -0.6432  0.2253 -0.2547
27815SOL    HW286723   7.940   8.618   2.811 -0.8934 -0.3259 -0.6296
27816SOL     OW86724   3.399   2.518   2.368 -0.2712  0.1414 -0.8406
27816SOL    HW186725   3.452   2.596   2.349  2.6951 -1.2480  0.9646
27816SOL    HW286726   3.431   2.452   2.307 -1.7587 -0.1082 -1.3939
27817SOL     OW86727  10.709   3.613   8.746  0.1852  0.9669  0.9270
27817SOL    HW186728  10.789   3.597   8.695  0.1305  1.8901  0.5345
27817SOL    HW286729  10.662   3.530   8.744  0.1282  1.0195 -0.6371
27818SOL     OW86730   9.691   8.818   7.492  0.3008  0.4554 -0.1066
27818SOL    HW186731   9.783   8.844   7.491  0.3486  0.4095 -1.9962
27818SOL    HW286732   9.644   8.894   7.458 -0.2083  0.0553 -0.3178
27819SOL     OW86733   0.172   9.354   6.883 -0.3592 -0.1676  0.3070
27819SOL    HW186734   0.226   9.423   6.923  0.7772 -0.8701  0.0339
27819SOL    HW286735   0.086   9.365   6.923 -0.4720  1.9889 -0.3751
27820SOL     OW86736   2.116   0.259  10.493 -0.0321  0.0430  0.1630
27820SOL    HW186737   2.107   0.302  10.408  3.1529  0.9014  0.1384
27820SOL    HW286738   2.093   0.327  10.557  1.3601  0.7016  0.0164
27821SOL     OW86739   3.238   9.219   7.690  0.3736  0.3217 -0.1830
27821SOL    HW186740   3.316   9.270   7.710  0.0236  0.6523  0.3737
27821SOL    HW286741   3.188   9.274   7.629  0.4007  0.2743 -0.2475
27822SOL     OW86742   8.096   8.333  10.637  0.0953  0.1165  0.1988
27822SOL    HW186743   8.021   8.379  10.675  0.9341  0.6988  1.1905
27822SOL    HW286744   8.164   8.339  10.703  1.0418 -0.3842 -0.6995
27823SOL     OW86745   0.704   5.077   2.008 -0.1038 -0.2506 -0.5294
27823SOL    HW186746   0.696   5.169   1.980  0.7495 -0.5617 -1.8971
27823SOL    HW286747   0.634   5.066   2.073 -0.3337  1.3164 -0.4622
27824SOL     OW86748   9.794   8.282   6.766 -0.3794  0.0250  0.6801
27824SOL    HW186749   9.878   8.285   6.720  0.0224  2.6845  1.3856
27824SOL    HW286750   9.740   8.346   6.720 -1.5017 -0.5205  1.2026
27825SOL     OW86751  10.491   6.776   5.970  0.4637  0.5407 -0.1306
27825SOL    HW186752  10.515   6.743   6.057 -1.4598  0.0742  0.2626
27825SOL    HW286753  10.421   6.719   5.941  1.3655  0.4201 -2.2305
27826SOL     OW86754   4.418   8.831   1.788 -0.1833  0.0407 -0.1100
27826SOL    HW186755   4.447   8.921   1.774  1.3149 -0.3240  0.4765
27826SOL    HW286756   4.322   8.837   1.791 -0.1128  1.5974 -0.1320
27827SOL     OW86757   7.502   6.523  10.066 -0.5196 -0.0809 -0.0091
27827SOL    HW186758   7.562   6.448  10.068  2.6066  2.2053  0.1788
27827SOL    HW286759   7.515   6.562   9.980 -1.3833  0.7615  0.2250
27828SOL     OW86760   6.944   6.560   3.453  0.1352  0.2831 -0.9091
27828SOL    HW186761   6.913   6.650   3.448  0.1683  0.2378 -2.0067
27828SOL    HW286762   7.021   6.557   3.397 -1.8715 -1.2262 -3.8602
27829SOL     OW86763   8.373   8.900   8.973  0.5030  0.1703 -0.1984
27829SOL    HW186764   8.440   8.954   9.016  1.0981 -1.8471  1.5972
27829SOL    HW286765   8.419   8.818   8.953 -0.8815 -0.4275 -1.0460
27830SOL     OW86766   8.196   4.566   9.313  0.2206  0.3548  0.6429
27830SOL    HW186767   8.104   4.579   9.291  0.0477 -0.2895  0.9879
27830SOL    HW286768   8.216   4.637   9.375 -0.6870 -0.8733  2.4166
27831SOL     OW86769   2.823  10.678   3.216  0.2790  0.2629  0.2891
27831SOL    HW186770   2.787  10.589   3.217 -1.4623  0.8889  2.9430
27831SOL    HW286771   2.805  10.710   3.128  1.0593 -1.9867 -0.7781
27832SOL     OW86772   7.011   3.563   3.268  0.2492 -0.2581 -0.1709
27832SOL    HW186773   6.975   3.539   3.182 -1.0343  1.6083 -0.2238
27832SOL    HW286774   7.091   3.611   3.247  0.6846 -1.0184 -0.2542
27833SOL     OW86775   8.216   5.454   1.606  0.3103 -0.1749  0.4245
27833SOL    HW186776   8.131   5.433   1.644  1.3146 -2.1870  1.7040
27833SOL    HW286777   8.205   5.437   1.512 -0.5279 -0.9863  0.6595
27834SOL     OW86778   3.635  10.479  11.322 -0.1389 -0.1406 -0.5103
27834SOL    HW186779   3.682  10.542  11.269 -0.3947 -0.0248 -0.6035
27834SOL    HW286780   3.702  10.436  11.375 -0.0138  0.5170 -0.1294
27835SOL     OW86781   1.307   1.315   2.242  0.5186 -0.8300 -0.3272
27835SOL    HW186782   1.290   1.308   2.336 -0.4631 -3.5474 -0.6199
27835SOL    HW286783   1.384   1.373   2.236  0.8846 -0.9463  2.1517
27836SOL     OW86784   5.941   1.533   0.914  0.1021  0.5691 -0.0353
27836SOL    HW186785   5.965   1.590   0.841 -0.5490  0.9223  0.0134
27836SOL    HW286786   5.926   1.447   0.875  0.6539  0.5351 -0.1766
27837SOL     OW86787   1.727   0.342   2.005 -0.9480 -0.1975  0.6499
27837SOL    HW186788   1.679   0.394   1.940 -0.4563 -0.1816  0.2965
27837SOL    HW286789   1.671   0.266   2.020 -1.0194 -0.2498  0.1371
27838SOL     OW86790   2.594   9.511   9.839 -0.3434 -0.8465  0.6606
27838SOL    HW186791   2.629   9.454   9.770  2.1430 -0.9187  1.8451
27838SOL    HW286792   2.609   9.600   9.808 -0.7459 -0.8638  0.4153
27839SOL     OW86793   8.845   7.043   7.186 -0.4280  0.1921  0.3310
27839SOL    HW186794   8.935   7.076   7.190 -0.2724 -0.2501  0.5439
27839SOL    HW286795   8.793   7.117   7.154  0.0071  0.4587  0.2393
27840SOL     OW86796   4.937   3.559   5.496 -0.0319  0.3616  0.2820
27840SOL    HW186797   4.865   3.616   5.470 -0.2648 -0.5687 -1.2078
27840SOL    HW286798   4.923   3.478   5.447  1.5521 -0.1553  0.6222
27841SOL     OW86799   0.617   8.895   1.891 -0.5214  0.0241  0.0937
27841SOL    HW186800   0.549   8.856   1.946  0.4309  0.2265  1.4780
27841SOL    HW286801   0.699   8.858   1.924  0.0826  0.1567 -1.2126
27842SOL     OW86802   9.868   9.844   3.741 -0.2193  0.5735 -0.1871
27842SOL    HW186803   9.782   9.857   3.782  0.4803  0.2849  1.4151
27842SOL    HW286804   9.898   9.932   3.721 -0.4146  0.7406  0.2447
27843SOL     OW86805   3.621   9.588   8.881 -0.3971 -0.7854  0.0807
27843SOL    HW186806   3.663   9.674   8.879 -2.1949  0.1586  0.7196
27843SOL    HW286807   3.601   9.569   8.789 -0.3161 -0.3411 -0.0333
27844SOL     OW86808   9.692   7.881   3.047 -0.0858  0.4446  0.1788
27844SOL    HW186809   9.778   7.921   3.037 -0.3564  0.4731 -3.1345
27844SOL    HW286810   9.638   7.949   3.086  0.2764  2.2818 -2.2544
27845SOL     OW86811   3.522   6.251   0.996  0.0727 -0.8248  0.3520
27845SOL    HW186812   3.435   6.280   0.968  0.2594  0.2545  0.7991
27845SOL    HW286813   3.506   6.174   1.050 -0.5763 -0.8369  0.1480
27846SOL     OW86814   6.882   3.012   5.245  0.5551  0.1381 -0.4946
27846SOL    HW186815   6.918   2.924   5.254 -1.6657 -0.8735 -0.9130
27846SOL    HW286816   6.899   3.053   5.330  0.6875 -1.0615  0.0857
27847SOL     OW86817   1.389  10.804  11.397  0.0985 -0.1846 -0.4215
27847SOL    HW186818   1.311  10.850  11.430  2.5290  2.4254  2.3236
27847SOL    HW286819   1.377  10.713  11.424 -1.2402  0.5145  1.6002
27848SOL     OW86820   0.397   5.590   2.360  0.1826  0.3979  0.3278
27848SOL    HW186821   0.465   5.600   2.426 -0.7273  0.5639  1.2581
27848SOL    HW286822   0.394   5.675   2.316  1.6946 -0.1152 -0.8547
27849SOL     OW86823  10.072   9.339   9.581 -0.1928 -0.2999 -0.1616
27849SOL    HW186824  10.001   9.355   9.519  1.7346  1.3517 -2.1430
27849SOL    HW286825  10.141   9.299   9.528  1.3928  0.8249  0.9728
27850SOL     OW86826   5.090   0.696   7.603 -0.3064 -0.6135  0.3625
27850SOL    HW186827   5.118   0.636   7.534  0.5066  2.2898 -2.0769
27850SOL    HW286828   5.154   0.684   7.673 -0.0624 -2.3555 -0.1069
27851SOL     OW86829   1.260   1.581   6.326  0.0799 -1.0642 -0.2341
27851SOL    HW186830   1.187   1.589   6.388 -1.1348  0.7136 -1.7557
27851SOL    HW286831   1.228   1.521   6.259 -0.0502 -0.2311 -0.9412
27852SOL     OW86832   7.560   8.008   8.059 -0.1285 -0.7429  0.0177
27852SOL    HW186833   7.542   8.042   8.147 -2.9518 -0.1354 -0.6777
27852SOL    HW286834   7.593   7.919   8.073 -1.4728 -1.0213  1.6934
27853SOL     OW86835   6.937   8.354   8.140  0.1217  0.0623  0.0492
27853SOL    HW186836   6.913   8.429   8.085  0.4018  0.0573 -0.0800
27853SOL    HW286837   6.854   8.323   8.176 -0.0255  0.2672 -0.1140
27854SOL     OW86838   7.160  11.197   5.417  0.5118 -0.7394  0.4088
27854SOL    HW186839   7.179  11.244   5.498  1.3352 -0.8773  0.2989
27854SOL    HW286840   7.069  11.219   5.398  0.8634  0.8021  0.3697
27855SOL     OW86841   3.311   1.583  10.335 -0.1512  0.1128 -0.4827
27855SOL    HW186842   3.244   1.650  10.346  0.1004  0.1664  0.8859
27855SOL    HW286843   3.266   1.501  10.352  0.4170  0.2498  2.1331
27856SOL     OW86844   8.024   4.728   6.038 -0.7043  0.0974  0.1496
27856SOL    HW186845   7.946   4.681   6.008 -1.7047 -0.4165  3.2066
27856SOL    HW286846   8.096   4.668   6.019 -1.5659 -1.2336  0.8651
27857SOL     OW86847   5.695   4.643  11.381  0.6087 -0.3612  0.7361
27857SOL    HW186848   5.778   4.646  11.428  1.6734  1.6492 -1.0774
27857SOL    HW286849   5.711   4.582  11.309  0.6501  0.2834  0.1915
27858SOL     OW86850   4.573   7.598   5.780 -0.3837 -0.3167  0.0799
27858SOL    HW186851   4.656   7.580   5.736 -0.1373  0.7305  0.0954
27858SOL    HW286852   4.586   7.567   5.870  0.9793  2.2798  0.8564
27859SOL     OW86853   4.377   9.252   1.543 -0.4629 -0.3404 -0.5150
27859SOL    HW186854   4.301   9.196   1.523 -0.7849  0.6751 -2.4022
27859SOL    HW286855   4.417   9.268   1.457  0.2739  1.3809  0.1202
27860SOL     OW86856   1.883   6.719  10.007 -0.2271  0.1200  0.8427
27860SOL    HW186857   1.958   6.696   9.952 -0.6141  0.7375  0.0311
27860SOL    HW286858   1.855   6.805   9.974 -1.3621 -0.1552  1.0530
27861SOL     OW86859   5.098   1.634   8.423  0.2345 -0.1825 -0.1024
27861SOL    HW186860   5.034   1.654   8.491 -1.5834 -3.1541 -0.7582
27861SOL    HW286861   5.055   1.659   8.341  0.7051 -0.4166 -0.4251
27862SOL     OW86862   2.277   7.051   2.298 -0.1838  0.2677  0.1098
27862SOL    HW186863   2.263   7.146   2.306  0.4011  0.6419 -2.4270
27862SOL    HW286864   2.191   7.017   2.275 -0.4844  0.0820  1.4185
27863SOL     OW86865   0.079   0.962   0.106  0.7742 -0.6387  0.2841
27863SOL    HW186866   0.021   1.024   0.150 -0.5276 -1.3347 -0.3835
27863SOL    HW286867   0.166   0.982   0.140  0.1390  0.3775  1.3933
27864SOL     OW86868   7.780   0.056   5.596  0.3706 -0.0628  0.2455
27864SOL    HW186869   7.749   0.132   5.645 -0.4834 -0.2039 -0.0457
27864SOL    HW286870   7.779  -0.016   5.660  0.2579 -0.0297  0.2815
27865SOL     OW86871   1.809   4.963   1.487 -0.1091 -0.1487  0.1091
27865SOL    HW186872   1.798   4.914   1.569 -0.2664 -1.6543 -0.7846
27865SOL    HW286873   1.876   4.914   1.439 -0.0004  0.7393 -0.6662
27866SOL     OW86874   6.731   7.003   9.856  0.7760 -0.2723 -0.2196
27866SOL    HW186875   6.710   6.990   9.949  0.7785 -1.1140 -0.3305
27866SOL    HW286876   6.710   6.919   9.815  2.5612 -0.5621 -0.6515
27867SOL     OW86877   0.559   1.109   5.577 -0.1676  0.3274 -0.2773
27867SOL    HW186878   0.654   1.104   5.566 -0.0353 -2.2310  1.1952
27867SOL    HW286879   0.526   1.028   5.539 -1.5814  0.4563  0.5992
27868SOL     OW86880   9.861   0.125   0.020  0.4078 -0.2399  0.2206
27868SOL    HW186881   9.957   0.130   0.024  0.3895  0.7116 -0.1495
27868SOL    HW286882   9.835   0.100   0.109  0.9336  1.1480  0.7998
27869SOL     OW86883   8.030   9.590   5.680 -0.3879 -0.0792 -0.1767
27869SOL    HW186884   7.955   9.615   5.626 -2.7800 -1.3761  2.2644
27869SOL    HW286885   8.064   9.511   5.638 -0.4539  0.4384 -1.2374
27870SOL     OW86886   2.515   3.308   8.368 -0.2728 -0.3978  0.1516
27870SOL    HW186887   2.522   3.327   8.274  1.2054  0.4972  0.4065
27870SOL    HW286888   2.544   3.218   8.377 -1.8921 -1.0076 -0.4065
27871SOL     OW86889   8.292   1.359   8.154  0.0116  0.0986 -0.4293
27871SOL    HW186890   8.347   1.363   8.233  0.6391 -0.1665 -0.8514
27871SOL    HW286891   8.262   1.268   8.150 -0.2265  0.1727 -0.3615
27872SOL     OW86892   1.643   4.241   3.526  0.1874 -0.0448 -0.3570
27872SOL    HW186893   1.612   4.213   3.440 -0.0792  1.0051 -0.6230
27872SOL    HW286894   1.709   4.177   3.550  0.4153 -0.2400 -1.4385
27873SOL     OW86895   6.025   2.862   9.135 -0.0125 -0.1600 -0.4902
27873SOL    HW186896   5.932   2.885   9.129 -0.1884 -1.2058 -2.7970
27873SOL    HW286897   6.068   2.919   9.070  1.1453  0.9440  1.1667
27874SOL     OW86898   3.570   3.701   6.383  0.2698  0.0640 -0.1496
27874SOL    HW186899   3.513   3.765   6.427 -0.2329 -0.1524 -0.4762
27874SOL    HW286900   3.642   3.687   6.444 -1.1092 -1.2879  1.2362
27875SOL     OW86901   4.616   8.430   1.561  0.6136 -0.0662 -0.0973
27875SOL    HW186902   4.623   8.515   1.603 -0.6410  0.2777 -0.5383
27875SOL    HW286903   4.671   8.372   1.614  0.4693  0.7375  0.9469
27876SOL     OW86904   7.151   2.225   9.681  0.6054  0.2427  0.1489
27876SOL    HW186905   7.095   2.216   9.758  1.9774 -1.3241  1.0160
27876SOL    HW286906   7.216   2.291   9.707 -0.3832  1.5820 -0.6256
27877SOL     OW86907   3.035   0.434   9.779  0.1732  0.3179  0.3950
27877SOL    HW186908   2.963   0.373   9.765  1.0942 -0.6066 -0.5202
27877SOL    HW286909   3.008   0.514   9.736 -0.5451  0.1710  0.5605
27878SOL     OW86910   5.207   8.433   3.649 -0.2009  0.4656 -0.0170
27878SOL    HW186911   5.180   8.498   3.715  0.6062  0.1985  0.5920
27878SOL    HW286912   5.302   8.443   3.643 -0.0586 -0.6968  0.1287
27879SOL     OW86913   5.028   9.461   1.714 -0.0360 -0.1494 -0.4445
27879SOL    HW186914   4.964   9.502   1.770  0.4897  0.3556 -0.2042
27879SOL    HW286915   5.031   9.370   1.743  1.4332  0.4578  1.4988
27880SOL     OW86916   7.337   9.878   7.980  0.1591  0.4412  0.1052
27880SOL    HW186917   7.247   9.859   7.951  1.0586 -1.2962 -1.8331
27880SOL    HW286918   7.346   9.972   7.971 -1.0258  0.4697 -1.1158
27881SOL     OW86919   2.201  10.582   0.868  0.2970 -0.8264 -0.0466
27881SOL    HW186920   2.147  10.506   0.891 -0.2403 -0.1616  0.9927
27881SOL    HW286921   2.229  10.617   0.952  0.7141 -0.0028 -0.5232
27882SOL     OW86922  10.806   8.993   5.595  0.3569 -0.1587 -0.3921
27882SOL    HW186923  10.803   9.074   5.646  1.0825 -0.9642  0.9685
27882SOL    HW286924  10.722   8.951   5.613 -0.0605  0.3073 -1.1759
27883SOL     OW86925   1.445   5.912   7.896 -0.0873  0.1503  0.6792
27883SOL    HW186926   1.422   5.865   7.816  0.2192  0.4401  0.4193
27883SOL    HW286927   1.373   5.973   7.910 -0.3747 -0.2319  0.8918
27884SOL     OW86928   0.024   5.573   0.739 -0.6538 -0.0702  0.3261
27884SOL    HW186929   0.113   5.591   0.771 -0.5320  0.9869 -0.5764
27884SOL    HW286930  -0.005   5.655   0.700 -1.3643 -0.8951 -0.9583
27885SOL     OW86931   8.519   5.632   0.061  0.2519  0.1762  0.4895
27885SOL    HW186932   8.474   5.634   0.146  1.8328 -0.0299  1.3760
27885SOL    HW286933   8.585   5.563   0.071  0.2860 -0.0324 -1.0145
27886SOL     OW86934   8.613   2.209   4.472 -0.1046 -0.2775 -0.3642
27886SOL    HW186935   8.687   2.214   4.534  1.1573 -3.4761 -1.3748
27886SOL    HW286936   8.546   2.160   4.520 -1.9706  3.0020  0.7170
27887SOL     OW86937   8.725   2.174   6.509  0.2446 -0.4224  0.2614
27887SOL    HW186938   8.643   2.148   6.550  0.8576  0.2403  1.9957
27887SOL    HW286939   8.783   2.099   6.520 -0.3112 -1.2084 -1.6822
27888SOL     OW86940   0.481   5.023  10.731  0.1535  0.0199 -0.1566
27888SOL    HW186941   0.414   5.015  10.663 -0.9507  2.4902  0.5291
27888SOL    HW286942   0.441   5.078  10.798  2.6193  0.9753  0.6460
27889SOL     OW86943   9.849   1.241   8.597  0.0356  0.5077  0.4456
27889SOL    HW186944   9.900   1.160   8.601  2.7956  2.1592  1.5350
27889SOL    HW286945   9.851   1.267   8.505 -0.8508 -0.6204  0.0939
27890SOL     OW86946   6.521   3.296  10.457 -0.1846  0.2946  0.4153
27890SOL    HW186947   6.602   3.306  10.508 -0.6359  1.3662  0.9492
27890SOL    HW286948   6.488   3.385  10.447 -1.3966 -0.1429  0.3498
27891SOL     OW86949   2.246   0.014   8.038 -0.4788  0.3067  0.3692
27891SOL    HW186950   2.288  -0.043   8.103 -1.5135  0.5983  1.3247
27891SOL    HW286951   2.310   0.082   8.020 -0.1666  0.2075  1.0739
27892SOL     OW86952   2.436   4.915   3.902 -0.3438 -0.2005  0.3462
27892SOL    HW186953   2.480   4.997   3.881 -0.6571 -0.0873  0.1184
27892SOL    HW286954   2.497   4.869   3.959  0.7347 -0.7522 -1.2124
27893SOL     OW86955   8.214   8.528  10.259  0.3673 -0.0712 -0.4570
27893SOL    HW186956   8.129   8.510  10.218 -0.0591 -0.7622  0.6494
27893SOL    HW286957   8.196   8.601  10.319  0.4976 -0.3339 -0.0910
27894SOL     OW86958   8.285   8.003   8.204 -0.3424 -0.2885 -0.0089
27894SOL    HW186959   8.297   7.913   8.175  0.9517  0.0687 -0.6628
27894SOL    HW286960   8.259   7.996   8.296  2.4269 -1.2867  0.7845
27895SOL     OW86961   2.549   2.101   4.424 -0.5234 -0.3636  0.5087
27895SOL    HW186962   2.630   2.057   4.398 -0.1597  0.6392 -0.1138
27895SOL    HW286963   2.482   2.061   4.370 -0.0835  0.3142 -0.5708
27896SOL     OW86964   0.584  11.215   6.765 -0.3957  0.4778 -0.1613
27896SOL    HW186965   0.609  11.268   6.841 -2.8259  0.3675  0.8150
27896SOL    HW286966   0.598  11.124   6.793  1.0066  0.4664 -0.7875
27897SOL     OW86967   6.013   3.502   7.647 -0.2166  0.4152  0.4765
27897SOL    HW186968   5.938   3.490   7.590 -0.1247 -0.9779  0.6054
27897SOL    HW286969   6.089   3.493   7.590 -0.1312 -0.6819  0.7218
27898SOL     OW86970   8.541   3.555   1.038  0.3335 -0.2069  0.4030
27898SOL    HW186971   8.543   3.647   1.010 -0.8495 -0.0766  0.6890
27898SOL    HW286972   8.605   3.550   1.109  2.5375 -0.2805 -1.4628
27899SOL     OW86973   4.970   3.676   9.841  0.4412 -0.3112  0.4491
27899SOL    HW186974   4.962   3.770   9.861  0.0645  0.2027 -1.7758
27899SOL    HW286975   5.032   3.673   9.768  0.2827 -1.7970  0.3549
27900SOL     OW86976   2.982   5.641   2.335 -0.5636 -0.5866 -0.2224
27900SOL    HW186977   3.046   5.575   2.364  1.3921  1.2171 -0.2095
27900SOL    HW286978   2.911   5.590   2.296  0.6154 -2.7141  0.2564
27901SOL     OW86979   7.922   8.142   3.603  0.2859  0.4744 -0.1966
27901SOL    HW186980   7.853   8.117   3.665  0.6190 -0.2932 -0.1279
27901SOL    HW286981   7.878   8.198   3.539 -0.1706  0.8594  0.4408
27902SOL     OW86982   0.334   3.794   1.754 -0.2342 -0.3959 -1.1030
27902SOL    HW186983   0.304   3.800   1.663 -1.7925  0.9304 -0.5654
27902SOL    HW286984   0.281   3.859   1.801  2.6543  1.2387  0.2153
27903SOL     OW86985   1.453   5.010  10.915 -0.9032  0.1003  0.4107
27903SOL    HW186986   1.441   4.990  10.822 -1.4997  1.2852  0.2175
27903SOL    HW286987   1.398   4.945  10.959 -0.1581 -0.8554 -0.0088
27904SOL     OW86988   3.163   8.861   7.856 -0.3372 -0.3640 -0.1865
27904SOL    HW186989   3.178   8.782   7.806  1.7639  0.3548 -0.8151
27904SOL    HW286990   3.135   8.926   7.792  0.8179  0.1416 -0.2069
27905SOL     OW86991   0.606  10.611   2.635  0.7748  0.2371 -0.1706
27905SOL    HW186992   0.556  10.691   2.650 -1.3520 -1.1958  0.8506
27905SOL    HW286993   0.547  10.555   2.585  0.9126 -1.8607  1.8502
27906SOL     OW86994   6.739  10.149   5.112  0.6145 -0.2809 -0.0854
27906SOL    HW186995   6.684  10.191   5.046  1.2122 -1.3503 -1.3182
27906SOL    HW286996   6.826  10.146   5.072  1.0156 -0.8379  0.8005
27907SOL     OW86997   5.931   8.829   8.834  0.0743  0.5002 -0.2676
27907SOL    HW186998   5.851   8.879   8.851 -0.9377 -0.2672 -2.3535
27907SOL    HW286999   5.937   8.767   8.906 -1.0202  0.8322  0.1216
27908SOL     OW87000   0.860   2.397   1.658  0.4191 -0.3306 -0.2635
27908SOL    HW187001   0.774   2.384   1.617 -0.2096 -0.0971  0.9280
27908SOL    HW287002   0.909   2.318   1.637 -0.5123 -1.0015  0.0392
27909SOL     OW87003   2.403  11.328   4.115  0.4670 -0.1799 -0.2004
27909SOL    HW187004   2.419  11.405   4.171 -1.1392  1.2514 -1.5858
27909SOL    HW287005   2.482  11.321   4.061  0.5302  0.6709 -0.2320
27910SOL     OW87006   9.102   5.000   0.093 -0.2328  0.0036  0.4177
27910SOL    HW187007   9.018   4.954   0.105 -1.2562  2.1441  2.2541
27910SOL    HW287008   9.107   5.059   0.168  2.7586  0.2720  0.1081
27911SOL     OW87009  10.046   7.297  11.190 -0.1225 -0.0468  0.1774
27911SOL    HW187010  10.008   7.345  11.117 -0.3214 -0.7984 -0.2234
27911SOL    HW287011  10.091   7.223  11.149  0.4389 -0.0364  0.7587
27912SOL     OW87012   8.885   6.643   2.983 -0.4050  1.0199  0.2483
27912SOL    HW187013   8.872   6.608   2.895 -0.1504  0.8394  0.2828
27912SOL    HW287014   8.979   6.661   2.988 -0.3292  0.5324  0.6686
27913SOL     OW87015   6.483   0.539   5.535  1.0429 -0.6143 -0.6127
27913SOL    HW187016   6.468   0.525   5.629 -0.6516  1.7946 -0.4121
27913SOL    HW287017   6.576   0.559   5.529  0.9946  0.2305  0.7729
27914SOL     OW87018   4.019   5.648   5.396  0.3463  0.1241 -0.4239
27914SOL    HW187019   3.947   5.592   5.425 -0.4738  0.3905 -1.8789
27914SOL    HW287020   4.077   5.589   5.348  0.3240  0.1961 -0.5399
27915SOL     OW87021   5.431   4.310   6.061 -0.5482 -0.6400 -0.2569
27915SOL    HW187022   5.513   4.326   6.015 -0.1169  2.0478  1.1962
27915SOL    HW287023   5.365   4.301   5.992  0.4303  0.7995 -1.4277
27916SOL     OW87024   8.065   9.690   0.851 -0.0827  0.2464 -0.4562
27916SOL    HW187025   8.076   9.750   0.925 -1.7969 -1.2321  1.0862
27916SOL    HW287026   8.120   9.727   0.782  1.5082  1.7457  1.5045
27917SOL     OW87027   5.161   2.326   6.632  0.0662  0.4736 -0.0040
27917SOL    HW187028   5.186   2.234   6.625  0.0254  0.4676 -0.0723
27917SOL    HW287029   5.084   2.326   6.690 -1.0447  0.2641 -1.4166
27918SOL     OW87030  10.022   5.403   0.787  0.3489 -0.2306 -0.2813
27918SOL    HW187031   9.989   5.417   0.876  1.2859  1.5750 -0.1899
27918SOL    HW287032  10.053   5.312   0.788 -0.2338 -0.4444  1.0435
27919SOL     OW87033   0.930   3.397   7.797  0.4095  0.2012  0.4963
27919SOL    HW187034   0.979   3.452   7.859  0.2518 -1.2650  1.9947
27919SOL    HW287035   0.974   3.312   7.800  0.3075  0.0398 -1.3565
27920SOL     OW87036   5.063   0.516   3.005 -0.1150  0.0098 -0.8440
27920SOL    HW187037   5.024   0.432   2.979 -2.2819  1.3073 -2.0979
27920SOL    HW287038   5.049   0.573   2.929  0.0431  1.8837  0.4702
27921SOL     OW87039  10.481   5.953   6.658  0.6001 -0.2969  0.2876
27921SOL    HW187040  10.543   5.943   6.585  0.3259 -0.7294  0.1161
27921SOL    HW287041  10.448   6.043   6.648  1.6962  0.1846  0.7765
27922SOL     OW87042   2.155   7.258   8.950  0.0765 -0.3317  0.0681
27922SOL    HW187043   2.081   7.215   8.907  0.1577  1.7616 -2.4628
27922SOL    HW287044   2.116   7.314   9.017 -0.3889 -1.0318  0.3895
27923SOL     OW87045   2.424   6.295   9.894 -0.4736 -0.0015 -0.0306
27923SOL    HW187046   2.385   6.234   9.957  0.8858 -0.2902  0.5827
27923SOL    HW287047   2.367   6.291   9.818 -0.9901 -1.2752  0.3918
27924SOL     OW87048   9.092   7.315   4.061 -0.2503  0.0411 -0.3420
27924SOL    HW187049   9.141   7.346   4.138  1.0187  0.8523 -1.4465
27924SOL    HW287050   9.029   7.252   4.097  0.0408  0.7003  1.4109
27925SOL     OW87051   3.099   6.568   7.717 -0.4105  0.2661 -0.1689
27925SOL    HW187052   3.083   6.558   7.623  0.3932  0.6604 -0.3576
27925SOL    HW287053   3.141   6.485   7.743 -1.4217 -0.1953  0.0323
27926SOL     OW87054  10.277   7.438   9.826 -0.2444  0.2408  0.4607
27926SOL    HW187055  10.194   7.486   9.832 -1.0700 -1.2240  1.6932
27926SOL    HW287056  10.344   7.505   9.815 -1.3192  1.6981  2.3184
27927SOL     OW87057  10.746   8.286  10.111 -0.0170 -0.0458  0.5619
27927SOL    HW187058  10.698   8.313  10.189 -0.3845  0.5982  0.1202
27927SOL    HW287059  10.718   8.348  10.043  1.6799  0.5740  0.3779
27928SOL     OW87060   5.299  10.124   1.444 -0.1914 -0.1387 -0.3260
27928SOL    HW187061   5.359  10.053   1.421 -0.1378 -0.2737  0.2142
27928SOL    HW287062   5.230  10.081   1.494 -0.2455  0.1641 -0.1386
27929SOL     OW87063   7.732   9.570   6.971 -0.3100 -0.7563  0.4714
27929SOL    HW187064   7.816   9.616   6.973  1.1352 -3.2434  1.2223
27929SOL    HW287065   7.723   9.540   6.881 -0.2383 -0.7365  0.4581
27930SOL     OW87066   1.370   7.217   8.751 -0.0858  0.0121 -0.0380
27930SOL    HW187067   1.434   7.197   8.818  0.4750  0.3235 -0.4691
27930SOL    HW287068   1.416   7.201   8.668 -0.1878  1.3159 -0.3712
27931SOL     OW87069   7.505   8.644   0.260 -0.0871 -0.1744  0.6263
27931SOL    HW187070   7.502   8.696   0.179  1.7967 -2.4459 -1.0443
27931SOL    HW287071   7.413   8.632   0.283 -0.7406 -0.0156 -1.5992
27932SOL     OW87072  11.174   4.976   4.681  0.0435  0.0990 -0.3160
27932SOL    HW187073  11.161   4.882   4.690  0.2451  0.1541  0.6508
27932SOL    HW287074  11.085   5.012   4.678 -0.0731 -0.2276 -2.2654
27933SOL     OW87075   1.700   9.376   0.502  0.8258 -0.2589  0.0538
27933SOL    HW187076   1.646   9.419   0.436 -0.9463  0.5103  1.9067
27933SOL    HW287077   1.741   9.448   0.550  0.2369 -0.7045  1.2591
27934SOL     OW87078   4.968   7.735   1.774 -0.2613  0.0445 -0.0753
27934SOL    HW187079   5.017   7.753   1.854  0.8411 -0.1732 -0.6773
27934SOL    HW287080   5.030   7.754   1.704 -0.3966 -2.0267 -0.8226
27935SOL     OW87081   3.166   0.075   8.606  0.4408 -0.5919 -0.0217
27935SOL    HW187082   3.092   0.042   8.655  0.7070  0.6163  1.2458
27935SOL    HW287083   3.239   0.018   8.630  0.7876  0.5511  1.7729
27936SOL     OW87084   2.067   9.031  10.701 -0.5881  0.1907 -0.0321
27936SOL    HW187085   2.121   9.016  10.623  0.0733  0.1011  0.4339
27936SOL    HW287086   2.009   8.955  10.704 -1.6361  0.8954 -1.2446
27937SOL     OW87087   2.866  10.951   5.994  0.6563  0.1810 -0.1803
27937SOL    HW187088   2.890  10.878   5.937  0.6860  0.7440 -0.8982
27937SOL    HW287089   2.816  10.911   6.065 -1.3001 -0.2700 -1.7401
27938SOL     OW87090  10.769  11.054   3.031 -0.0466 -0.2491 -0.4416
27938SOL    HW187091  10.793  11.070   3.123 -0.8113 -0.8341 -0.1337
27938SOL    HW287092  10.830  10.986   3.003 -1.3441 -1.8326  0.3845
27939SOL     OW87093   8.531   8.312   6.562  0.4709 -0.1340 -0.0169
27939SOL    HW187094   8.550   8.357   6.644 -0.9773  2.6854 -1.0997
27939SOL    HW287095   8.435   8.316   6.554  0.4622 -1.6324 -1.1765
27940SOL     OW87096   7.455   3.250   4.591 -0.2063 -0.2579 -0.2089
27940SOL    HW187097   7.509   3.305   4.647 -0.5575 -1.4411  1.3399
27940SOL    HW287098   7.366   3.263   4.622 -0.7091  0.6374 -1.8713
27941SOL     OW87099   9.633   5.310   7.326  0.7225 -0.0580 -0.3666
27941SOL    HW187100   9.593   5.376   7.384  0.0397  0.2454 -1.1622
27941SOL    HW287101   9.564   5.245   7.314  1.2701 -0.7391  0.1089
27942SOL     OW87102   2.414   8.253   1.739 -0.1549  0.3030 -0.3501
27942SOL    HW187103   2.442   8.182   1.797  0.9258  0.6352 -0.4387
27942SOL    HW287104   2.374   8.317   1.797  2.3519  1.3734  0.3237
27943SOL     OW87105   5.632   1.033   6.196 -0.0390 -0.3618  0.4333
27943SOL    HW187106   5.688   0.964   6.161  0.9843  1.0289 -0.7868
27943SOL    HW287107   5.556   1.033   6.138  0.8189  0.7266 -0.7439
27944SOL     OW87108   3.465   8.812   7.311  0.0624 -0.0482  0.3184
27944SOL    HW187109   3.496   8.902   7.302 -0.8781  0.2923  0.3374
27944SOL    HW287110   3.443   8.785   7.222  0.6749 -0.3852  0.2676
27945SOL     OW87111   1.378   0.636   4.355  0.1254 -0.1312 -0.0145
27945SOL    HW187112   1.405   0.638   4.446 -0.8895  0.6465  0.2917
27945SOL    HW287113   1.388   0.545   4.328  1.9641 -0.0982  0.3693
27946SOL     OW87114   5.424   5.064   7.577 -0.5388 -0.2763  0.3893
27946SOL    HW187115   5.412   5.152   7.613 -2.0628 -0.3732  0.1820
27946SOL    HW287116   5.400   5.005   7.648 -1.2584 -0.4929 -0.0227
27947SOL     OW87117   3.545  10.822  10.683  0.4078 -0.3550 -0.6636
27947SOL    HW187118   3.502  10.748  10.725 -0.3331  0.1330 -0.5322
27947SOL    HW287119   3.582  10.786  10.602  2.5193 -1.4829  0.7051
27948SOL     OW87120   7.903   9.208   4.919 -0.0562  0.2272  0.1586
27948SOL    HW187121   7.852   9.130   4.943  1.9500 -1.0080  0.6783
27948SOL    HW287122   7.914   9.200   4.824  0.2513 -0.1960  0.2275
27949SOL     OW87123   6.725   7.011   7.403 -0.1336  0.3027  0.7423
27949SOL    HW187124   6.723   7.006   7.499  1.7152  0.1082  0.8153
27949SOL    HW287125   6.757   6.925   7.376 -0.0721  0.5594 -0.0092
27950SOL     OW87126  10.780   2.440   0.845 -0.0896 -0.1743 -0.0781
27950SOL    HW187127  10.860   2.426   0.795 -0.5226  0.3013 -0.9321
27950SOL    HW287128  10.713   2.458   0.779 -0.6922  0.4336  0.6736
27951SOL     OW87129   2.115  10.019   8.891 -0.6548  0.1209  0.1242
27951SOL    HW187130   2.168  10.027   8.812 -0.4986  1.5905  0.3451
27951SOL    HW287131   2.141  10.094   8.946 -1.5001 -0.2696  1.1086
27952SOL     OW87132   5.968  10.587   4.650 -0.3498  0.0366 -0.2850
27952SOL    HW187133   5.929  10.626   4.728 -0.0316  1.4824 -0.8207
27952SOL    HW287134   6.060  10.610   4.655 -0.3259  0.1406 -1.0824
27953SOL     OW87135  10.614   3.393   9.413 -0.1799  0.5380  0.5012
27953SOL    HW187136  10.693   3.415   9.363  0.4681 -1.3444  0.6350
27953SOL    HW287137  10.647   3.359   9.496 -1.0895 -0.8656  0.3203
27954SOL     OW87138   9.158   2.357   5.355 -0.1099  0.5538  0.2123
27954SOL    HW187139   9.212   2.326   5.282  0.9790  0.0078  1.2175
27954SOL    HW287140   9.079   2.304   5.350  1.1102 -1.4555  1.0334
27955SOL     OW87141   3.012   0.828   7.815 -0.1004 -0.5066  0.0587
27955SOL    HW187142   3.058   0.747   7.835 -1.5774 -1.4111 -0.0914
27955SOL    HW287143   2.941   0.833   7.879 -0.6251  0.1540 -0.5426
27956SOL     OW87144  10.487   5.208   5.872 -0.2163  0.4508 -0.3158
27956SOL    HW187145  10.396   5.179   5.876 -0.0161 -0.0707  1.6830
27956SOL    HW287146  10.534   5.145   5.926  1.3157  0.8139 -1.1805
27957SOL     OW87147  10.438  10.197   0.259 -0.4310  0.0374 -0.3077
27957SOL    HW187148  10.502  10.223   0.325  0.8952 -0.0850 -1.5083
27957SOL    HW287149  10.389  10.278   0.240 -1.0553 -0.0045  1.0289
27958SOL     OW87150   0.261   1.493   8.744 -0.5514  0.0551 -0.2479
27958SOL    HW187151   0.299   1.500   8.657  0.3339  2.1178  0.2357
27958SOL    HW287152   0.332   1.518   8.803 -1.2575 -0.8786  1.0649
27959SOL     OW87153   1.606   3.506   4.104 -0.1480 -0.2525 -0.1493
27959SOL    HW187154   1.519   3.473   4.081  0.2380 -0.6066 -1.1396
27959SOL    HW287155   1.592   3.558   4.184 -1.5111  0.8695 -1.0712
27960SOL     OW87156  10.162   9.805   8.877  0.1423  0.0391  0.1772
27960SOL    HW187157  10.076   9.837   8.903 -0.5908 -0.7401 -1.1941
27960SOL    HW287158  10.162   9.713   8.902 -0.1399 -0.4281 -1.4429
27961SOL     OW87159  10.187   9.467   4.925 -0.7200  0.0079  0.3035
27961SOL    HW187160  10.179   9.385   4.975 -2.2305 -1.1115 -1.6554
27961SOL    HW287161  10.254   9.449   4.860 -0.6897  0.5254  0.1890
27962SOL     OW87162   7.421   5.642   2.759  0.4012 -0.1710 -0.1133
27962SOL    HW187163   7.438   5.680   2.845 -1.3636  2.6506 -0.9006
27962SOL    HW287164   7.388   5.554   2.778 -2.7457  1.3324  2.3964
27963SOL     OW87165   4.129   0.047   5.045  0.0035 -0.6378 -0.6322
27963SOL    HW187166   4.123  -0.008   5.124  0.1523  0.4252  0.1433
27963SOL    HW287167   4.213   0.023   5.006 -0.9757 -2.6855 -1.6714
27964SOL     OW87168   7.783   7.890   6.020 -0.4211  0.6305  0.0339
27964SOL    HW187169   7.869   7.879   6.060 -1.0635  1.3941  1.7324
27964SOL    HW287170   7.746   7.967   6.063 -2.8139 -0.9151  0.9751
27965SOL     OW87171   8.938   7.687   3.017  0.2343  0.0983 -0.7646
27965SOL    HW187172   8.951   7.748   3.089  0.8831 -0.6931 -0.1994
27965SOL    HW287173   8.960   7.737   2.939 -1.6848  1.3633 -0.5752
27966SOL     OW87174   2.156   2.199   0.405 -0.0362  0.1048 -0.5925
27966SOL    HW187175   2.079   2.237   0.447 -1.0390 -1.4251 -0.9911
27966SOL    HW287176   2.183   2.265   0.341 -0.2745  1.1695  0.3705
27967SOL     OW87177   3.373  10.470   6.850 -0.2333 -0.3671 -0.0050
27967SOL    HW187178   3.437  10.531   6.888 -0.4973  0.3089 -0.6427
27967SOL    HW287179   3.363  10.497   6.759 -1.1611 -0.6896 -0.0169
27968SOL     OW87180   7.932   5.090   9.086 -0.0926  0.0348  0.4441
27968SOL    HW187181   7.905   5.134   9.005  1.5423  1.9325  0.8576
27968SOL    HW287182   7.951   5.000   9.059 -0.5899  0.3531 -1.0543
27969SOL     OW87183   9.330   1.648   0.589  0.2005 -0.5596 -0.4432
27969SOL    HW187184   9.352   1.698   0.511 -0.2825  0.2721 -0.0580
27969SOL    HW287185   9.380   1.690   0.659 -1.1003  0.1362  0.0931
27970SOL     OW87186   9.782   7.394   8.124 -0.0140  0.3262 -0.7918
27970SOL    HW187187   9.837   7.448   8.181  1.4738  0.9489 -2.7327
27970SOL    HW287188   9.778   7.309   8.168  1.4626  0.6482  0.0230
27971SOL     OW87189   4.751  10.911   4.099 -0.0213 -0.1165 -0.3512
27971SOL    HW187190   4.772  10.962   4.177 -0.2698 -0.2690 -0.1847
27971SOL    HW287191   4.802  10.830   4.109 -0.6173 -0.4486  0.0094
27972SOL     OW87192   8.274   3.469   8.197 -0.3920  0.1637 -0.0333
27972SOL    HW187193   8.301   3.539   8.256  1.0641  0.9727 -1.5564
27972SOL    HW287194   8.343   3.467   8.131 -2.2079 -0.2987 -2.0116
27973SOL     OW87195   2.722   7.552   9.604 -0.2316 -0.4393  0.3316
27973SOL    HW187196   2.732   7.636   9.649 -0.4109  0.5740 -1.3945
27973SOL    HW287197   2.804   7.540   9.556 -1.1309  0.0875 -1.4653
27974SOL     OW87198   3.759   0.325  10.278 -0.3110 -0.3512  0.1010
27974SOL    HW187199   3.852   0.331  10.256 -0.2741 -0.5412  0.2044
27974SOL    HW287200   3.722   0.409  10.250 -0.0071 -0.0679  0.5450
27975SOL     OW87201   8.865   7.561   0.480 -0.4791 -0.4077  0.0626
27975SOL    HW187202   8.847   7.540   0.572 -0.3033 -0.4016  0.0997
27975SOL    HW287203   8.779   7.564   0.438 -0.6136  0.2493  0.3676
27976SOL     OW87204   5.331  10.828   7.809 -0.3587 -0.2852 -0.5111
27976SOL    HW187205   5.379  10.792   7.734  0.4658 -1.8055  0.6768
27976SOL    HW287206   5.388  10.811   7.884 -1.6882  0.0878  0.6302
27977SOL     OW87207   5.524   2.433   8.399 -0.3728 -0.7298  0.1706
27977SOL    HW187208   5.547   2.525   8.383  0.6466 -1.0031  0.0332
27977SOL    HW287209   5.436   2.437   8.437 -0.2191  0.3212  0.4462
27978SOL     OW87210  10.374   6.760   3.490  0.3551  0.0468 -0.0622
27978SOL    HW187211  10.400   6.753   3.582  0.5367 -0.4062 -0.1425
27978SOL    HW287212  10.420   6.688   3.447 -0.7721 -0.5779 -0.2730
27979SOL     OW87213   6.556   9.889   0.711 -0.1119 -0.1190 -0.9725
27979SOL    HW187214   6.630   9.946   0.690 -1.2978  1.6068 -0.6575
27979SOL    HW287215   6.516   9.869   0.627 -0.2571  0.3100 -1.0061
27980SOL     OW87216   0.043   8.394   7.098  0.1902 -0.4224 -0.5459
27980SOL    HW187217   0.052   8.376   7.004  1.1048 -0.6275 -0.4245
27980SOL    HW287218   0.031   8.308   7.138 -0.7735 -0.2927 -0.5174
27981SOL     OW87219   9.681   2.312  10.505  0.0367  0.0365 -0.3654
27981SOL    HW187220   9.642   2.241  10.555 -0.4051  0.8892  0.5438
27981SOL    HW287221   9.610   2.374  10.491  0.6579  0.8098 -0.1826
27982SOL     OW87222   1.374   5.348   9.974 -0.5757 -0.2576  0.4348
27982SOL    HW187223   1.412   5.288  10.038 -1.5474 -1.8909 -0.4454
27982SOL    HW287224   1.328   5.414  10.026  0.0242 -0.5988  1.4228
27983SOL     OW87225   4.163   2.616   5.239 -0.1698  0.5050  0.5999
27983SOL    HW187226   4.123   2.596   5.154 -0.1129 -2.0040  1.0976
27983SOL    HW287227   4.245   2.662   5.216  0.1411 -0.6459 -0.7634
27984SOL     OW87228   6.526   7.591   5.870 -0.2417  0.1314  0.2173
27984SOL    HW187229   6.561   7.561   5.953 -3.3502  0.5465  1.8400
27984SOL    HW287230   6.517   7.686   5.881 -2.2668 -0.0045  0.1600
27985SOL     OW87231   1.006   5.513   1.028 -0.1530  0.1150 -0.3293
27985SOL    HW187232   1.041   5.591   1.072 -2.2262  0.4289  0.8854
27985SOL    HW287233   1.051   5.440   1.071  1.1724  0.5854 -0.8735
27986SOL     OW87234   9.852   5.833   8.204 -0.2259 -0.2974 -0.4410
27986SOL    HW187235   9.760   5.857   8.198 -0.2566  0.0977  1.0346
27986SOL    HW287236   9.876   5.854   8.295  1.1735 -0.8928 -0.6441
27987SOL     OW87237   7.318   4.373   4.529  0.7093  0.0222  0.1138
27987SOL    HW187238   7.411   4.393   4.542  0.8278 -0.1689 -0.4135
27987SOL    HW287239   7.291   4.431   4.457  0.8570 -1.1234 -0.8884
27988SOL     OW87240   4.859   2.796   7.771 -0.0598  0.9124  0.3376
27988SOL    HW187241   4.806   2.875   7.760 -0.9675  0.2405 -0.2421
27988SOL    HW287242   4.799   2.724   7.754  0.8667  0.0998  0.3948
27989SOL     OW87243   7.547  10.513   6.161  0.2191  0.1704  0.4947
27989SOL    HW187244   7.609  10.467   6.106 -1.1819 -0.9949 -0.1866
27989SOL    HW287245   7.559  10.475   6.248  0.7125  0.2133  0.4443
27990SOL     OW87246   8.688  10.939   3.443 -0.5228  0.0638  0.0124
27990SOL    HW187247   8.625  10.874   3.413 -0.9006  0.8334 -0.9265
27990SOL    HW287248   8.639  10.991   3.507  0.0444 -1.0863  1.4334
27991SOL     OW87249   0.377   1.334   1.321  0.3721 -0.0816 -0.0492
27991SOL    HW187250   0.415   1.288   1.247  0.8190 -0.0773  0.1731
27991SOL    HW287251   0.449   1.386   1.357  0.4602 -0.9358  1.0672
27992SOL     OW87252   8.605   9.741  11.210 -0.3690  0.1697  0.2117
27992SOL    HW187253   8.619   9.776  11.298 -0.9985  0.5723  0.1593
27992SOL    HW287254   8.518   9.773  11.185  0.0525  0.5678 -0.7989
27993SOL     OW87255  10.977  10.250   2.727  0.6145 -0.0404 -0.2034
27993SOL    HW187256  11.065  10.285   2.715  0.5716 -0.2357 -1.1533
27993SOL    HW287257  10.940  10.248   2.639  0.8383 -3.0787 -0.3098
27994SOL     OW87258  10.551  10.572  11.151  0.7987  0.5669  0.7774
27994SOL    HW187259  10.509  10.643  11.200 -1.8801 -1.6586  1.9299
27994SOL    HW287260  10.528  10.493  11.198  1.6427 -1.3525 -1.7982
27995SOL     OW87261   8.890  10.190   1.777  0.4031  0.1092 -0.6023
27995SOL    HW187262   8.855  10.111   1.817  1.3439 -0.6271 -1.1826
27995SOL    HW287263   8.882  10.257   1.845 -0.3418 -0.4891 -0.0797
27996SOL     OW87264  10.970   7.269   8.698  0.0599 -0.6058  0.2153
27996SOL    HW187265  11.024   7.338   8.734  0.9392 -0.6130 -1.0146
27996SOL    HW287266  11.003   7.188   8.737 -0.0701 -0.4636  0.6181
27997SOL     OW87267   7.892   4.764   0.340 -0.0890  0.2408  0.4097
27997SOL    HW187268   7.873   4.842   0.392  2.1775  1.3783 -0.3653
27997SOL    HW287269   7.863   4.787   0.252  1.1718  0.5015  0.0433
27998SOL     OW87270   6.042   9.980   1.355  0.0136  0.5064  0.5583
27998SOL    HW187271   6.079   9.963   1.268 -0.1691  0.9308  0.3980
27998SOL    HW287272   5.947   9.969   1.343  0.1219 -1.7522  1.2246
27999SOL     OW87273   9.687   1.579   4.621 -0.2463  1.0897 -0.1834
27999SOL    HW187274   9.735   1.507   4.579 -0.1050  1.0247  0.0899
27999SOL    HW287275   9.687   1.557   4.714  1.2765  2.3115  0.1315
28000SOL     OW87276   6.144   8.839   8.342 -0.1967  0.1035  0.5362
28000SOL    HW187277   6.099   8.778   8.283  0.4210  0.0716  0.0838
28000SOL    HW287278   6.085   8.849   8.417 -1.5245  1.0179 -0.5771
28001SOL     OW87279   7.419   4.631  10.637  0.1769 -0.0231 -0.6631
28001SOL    HW187280   7.341   4.662  10.683  0.7251  0.0533  0.2364
28001SOL    HW287281   7.463   4.574  10.700  1.6200  1.1125 -0.5887
28002SOL     OW87282   7.396  11.160   9.240  0.1722 -0.1772  0.1082
28002SOL    HW187283   7.460  11.089   9.237 -2.1745 -2.4239 -1.4159
28002SOL    HW287284   7.348  11.153   9.158  0.0160  3.4922 -0.2759
28003SOL     OW87285   7.762  10.464   8.576 -1.0036 -0.1241 -0.3638
28003SOL    HW187286   7.821  10.518   8.524  0.7514 -0.5574  1.0905
28003SOL    HW287287   7.787  10.481   8.667 -0.7113 -2.9457  0.1800
28004SOL     OW87288   7.004   2.951   7.565  0.3989  0.4549  0.2791
28004SOL    HW187289   7.097   2.951   7.590  0.1661  0.6710  1.1759
28004SOL    HW287290   6.989   3.039   7.531  0.6939  0.1876 -0.5821
28005SOL     OW87291   9.068   9.422   3.326  0.0323 -0.5876  0.1890
28005SOL    HW187292   8.988   9.474   3.333  1.0304  1.0097  0.1946
28005SOL    HW287293   9.076   9.379   3.411 -1.1890 -1.3456 -0.0623
28006SOL     OW87294   3.802   5.108   1.280  0.0463 -0.1805  0.0512
28006SOL    HW187295   3.761   5.187   1.314 -1.3788 -0.9999  0.3063
28006SOL    HW287296   3.836   5.133   1.194  0.1989  0.8593  0.4010
28007SOL     OW87297   7.010   4.771   1.348  0.2185 -0.4800 -0.4329
28007SOL    HW187298   7.039   4.751   1.436  1.7129 -0.5631 -0.9228
28007SOL    HW287299   6.943   4.838   1.359  0.5251 -0.3601  0.7521
28008SOL     OW87300   4.191   2.252   8.086 -0.2159 -0.4025 -0.3211
28008SOL    HW187301   4.160   2.328   8.038 -0.0206 -0.7221 -0.9838
28008SOL    HW287302   4.273   2.280   8.126 -0.1944 -0.2323 -0.4846
28009SOL     OW87303   0.641   2.665   0.778 -0.1506 -0.0585  0.2061
28009SOL    HW187304   0.667   2.663   0.870 -1.2849 -0.5083  0.5379
28009SOL    HW287305   0.602   2.579   0.762  1.8180 -0.7463 -1.2660
28010SOL     OW87306   3.772  11.108   3.685 -0.0774 -0.0376  0.1021
28010SOL    HW187307   3.678  11.112   3.704 -0.5288 -1.6516 -1.5340
28010SOL    HW287308   3.798  11.199   3.672 -1.1707  0.5201  1.5513
28011SOL     OW87309  10.562   0.886   8.879  0.5094  0.1435 -0.6984
28011SOL    HW187310  10.641   0.833   8.883  0.3686 -0.0995 -1.0990
28011SOL    HW287311  10.577   0.957   8.942  0.1658 -1.1052  0.8643
28012SOL     OW87312   5.000   3.271   0.451 -0.3854  0.0266 -0.2061
28012SOL    HW187313   5.086   3.294   0.416 -0.5291  0.7278 -0.1002
28012SOL    HW287314   5.002   3.303   0.542 -1.4960  1.9329 -0.8150
28013SOL     OW87315   8.050   1.565   2.845  0.0446  0.0438 -0.2068
28013SOL    HW187316   8.001   1.644   2.867  1.0411  0.4958  0.4564
28013SOL    HW287317   7.994   1.493   2.873 -0.2234  0.5470  0.5689
28014SOL     OW87318   2.921   6.852   2.304  0.6078 -0.6592 -0.3069
28014SOL    HW187319   3.005   6.884   2.271  0.0204  1.6316  0.1996
28014SOL    HW287320   2.885   6.800   2.232  0.7671  1.5986 -2.1300
28015SOL     OW87321   8.418  10.783  11.056  0.3303 -0.0248 -0.1828
28015SOL    HW187322   8.503  10.740  11.051  0.1374 -0.3416 -0.7690
28015SOL    HW287323   8.380  10.751  11.138  0.8808  0.3298  0.2213
28016SOL     OW87324   9.153  10.947   0.826  0.2351  0.0175  0.5345
28016SOL    HW187325   9.210  11.014   0.791  0.0434 -0.9504 -1.7890
28016SOL    HW287326   9.143  10.969   0.919  2.2276  1.6814  0.4000
28017SOL     OW87327   8.010   4.619   9.931 -0.3401 -0.0887  0.0801
28017SOL    HW187328   7.983   4.709   9.914 -1.1687 -0.5367 -1.1448
28017SOL    HW287329   7.931   4.577   9.967 -0.5841 -0.7955 -1.2141
28018SOL     OW87330   0.088   6.582   6.157  0.1043  0.1161 -0.2773
28018SOL    HW187331   0.023   6.582   6.228  0.0277 -2.7036 -0.2076
28018SOL    HW287332   0.167   6.617   6.197  0.4045 -2.4726  1.6850
28019SOL     OW87333   4.193   6.063   8.079  0.1118  0.1552 -0.1225
28019SOL    HW187334   4.120   6.093   8.025 -0.1636 -0.9212 -0.3879
28019SOL    HW287335   4.265   6.052   8.017  0.4764  1.1020  0.1204
28020SOL     OW87336   2.079   8.539   1.621 -0.7920 -0.3760 -0.4961
28020SOL    HW187337   2.125   8.464   1.583 -1.8146 -0.5190 -1.4995
28020SOL    HW287338   2.143   8.610   1.620  0.2876 -1.2706  0.7290
28021SOL     OW87339   5.164   5.687   3.858  0.1571  0.2337  0.3365
28021SOL    HW187340   5.153   5.774   3.817  1.3457  0.8424  1.2650
28021SOL    HW287341   5.126   5.697   3.945  1.3360  0.1849  0.8738
28022SOL     OW87342   1.481   0.504   1.082 -0.3566  0.2976 -0.5006
28022SOL    HW187343   1.392   0.471   1.094  0.1276 -1.4894 -1.4618
28022SOL    HW287344   1.531   0.467   1.156 -0.6123  2.2876  0.7339
28023SOL     OW87345   6.468   4.949   9.700 -0.3100  0.1341  0.2459
28023SOL    HW187346   6.475   4.899   9.781  1.8802  1.3158  0.8509
28023SOL    HW287347   6.511   5.032   9.718 -0.9904  1.0048 -1.7253
28024SOL     OW87348   8.353   0.634   2.279 -0.0354  0.8683 -0.0043
28024SOL    HW187349   8.299   0.696   2.326  1.3713  0.9456  1.6114
28024SOL    HW287350   8.354   0.556   2.334  0.6929  0.5410 -0.4594
28025SOL     OW87351   0.035   5.540   1.978  0.0132 -0.2570 -0.2201
28025SOL    HW187352   0.015   5.620   2.027 -2.7942 -0.3360 -1.0590
28025SOL    HW287353  -0.005   5.470   2.029  0.4262 -0.8444 -0.6870
28026SOL     OW87354   4.087   8.812   3.652 -0.3938  0.0128 -0.1463
28026SOL    HW187355   4.075   8.795   3.559 -5.0639 -0.3684  0.3205
28026SOL    HW287356   4.131   8.734   3.685 -4.0881 -2.8135 -1.2374
28027SOL     OW87357   8.339   2.672   5.868 -0.1183  0.2506  0.8401
28027SOL    HW187358   8.374   2.761   5.874  1.0957 -0.0445 -1.0087
28027SOL    HW287359   8.402   2.626   5.812 -1.3827 -1.4363  0.7484
28028SOL     OW87360   4.349   3.534   2.554  0.6974 -0.9826  0.2846
28028SOL    HW187361   4.366   3.623   2.584 -0.6538 -0.6826  0.2357
28028SOL    HW287362   4.378   3.533   2.463  1.0230 -0.6995  0.3834
28029SOL     OW87363   0.089   7.342  11.219  0.0808 -0.6267  0.0813
28029SOL    HW187364   0.040   7.261  11.205 -1.1114 -0.4198  2.4265
28029SOL    HW287365   0.181   7.317  11.214 -0.2693 -1.8184 -0.6142
28030SOL     OW87366   3.562   1.456   8.090  0.3980  0.2572  0.6851
28030SOL    HW187367   3.475   1.475   8.055  0.6542  1.2151  0.5385
28030SOL    HW287368   3.551   1.465   8.185  0.1881 -0.2776  0.7148
28031SOL     OW87369   7.280   4.407   9.174 -0.0205  0.1091  0.1292
28031SOL    HW187370   7.282   4.337   9.109  2.1088  0.6242 -0.4478
28031SOL    HW287371   7.302   4.486   9.125 -1.6871  1.1082  0.8989
28032SOL     OW87372   4.803   0.405  10.053 -0.8342  0.7025 -0.0703
28032SOL    HW187373   4.893   0.419  10.083 -0.6377 -0.4064 -0.1255
28032SOL    HW287374   4.797   0.454   9.971 -0.7724  2.1004  0.7348
28033SOL     OW87375   2.997   3.093   9.635  0.4061  0.5992 -0.4384
28033SOL    HW187376   2.980   3.096   9.729 -1.2587 -0.5247 -0.6714
28033SOL    HW287377   3.072   3.034   9.626 -0.0711 -0.1117  0.1231
28034SOL     OW87378   7.620   8.490   6.872 -0.4228  0.9983 -0.1088
28034SOL    HW187379   7.597   8.555   6.805 -1.8732  0.1745 -0.4590
28034SOL    HW287380   7.596   8.406   6.832  1.5693  0.2070  0.2696
28035SOL     OW87381   4.505   5.668   2.176 -0.1961 -0.3118 -0.2677
28035SOL    HW187382   4.575   5.713   2.128  0.8675 -0.2472  1.3005
28035SOL    HW287383   4.459   5.737   2.222 -1.1253 -0.3976 -1.0177
28036SOL     OW87384   7.835   3.241   9.431 -0.3747  0.1603 -0.1437
28036SOL    HW187385   7.854   3.335   9.433  1.1302 -0.0140 -2.6060
28036SOL    HW287386   7.747   3.236   9.392  0.2211  0.5333 -1.6024
28037SOL     OW87387   2.970   7.837   4.524 -0.1166  0.2317 -0.3776
28037SOL    HW187388   2.897   7.794   4.480 -1.5564  0.1701  1.9382
28037SOL    HW287389   2.993   7.910   4.467 -1.3165 -0.3320 -1.6297
28038SOL     OW87390   6.878   5.728   9.257  0.0750  0.3835  0.0507
28038SOL    HW187391   6.907   5.638   9.275  1.9364  0.5754 -1.6272
28038SOL    HW287392   6.820   5.720   9.182 -0.5015  0.5148  0.4732
28039SOL     OW87393   6.967   3.055   4.140 -0.3606  0.1898  0.4216
28039SOL    HW187394   7.039   3.031   4.082 -1.1074  0.3156 -0.5867
28039SOL    HW287395   6.992   3.140   4.177 -0.6013  0.9192 -1.0205
28040SOL     OW87396   8.014   9.343   7.574 -0.4521  0.0363  0.0150
28040SOL    HW187397   8.108   9.331   7.577 -0.5828 -1.0917  0.0556
28040SOL    HW287398   7.983   9.280   7.508 -1.2586 -0.2328  0.6279
28041SOL     OW87399   8.725   7.340   9.506  0.2805  0.5275 -0.3760
28041SOL    HW187400   8.777   7.417   9.530  1.3068 -0.2906  0.0951
28041SOL    HW287401   8.648   7.376   9.462 -0.3886  1.9411  1.8167
28042SOL     OW87402   5.008   3.351   0.700  0.0797 -0.4074  0.0027
28042SOL    HW187403   5.053   3.419   0.751 -1.3641  1.0980 -0.6298
28042SOL    HW287404   4.944   3.314   0.762  0.0791 -0.3699  0.0247
28043SOL     OW87405   0.401  10.612   2.234  0.1516 -0.6526 -0.0949
28043SOL    HW187406   0.380  10.527   2.195  0.9036 -0.8566 -0.0673
28043SOL    HW287407   0.481  10.639   2.190  2.1024 -1.7425  2.5577
28044SOL     OW87408   8.717   8.554   1.107  0.2407  0.6797 -0.4439
28044SOL    HW187409   8.804   8.578   1.140  0.0459 -0.5782  1.1130
28044SOL    HW287410   8.726   8.463   1.080 -0.8502  0.1790  0.7966
28045SOL     OW87411   5.273   5.489   7.845 -0.3669  0.3283 -0.0862
28045SOL    HW187412   5.181   5.516   7.853  0.0220  2.0705 -0.9270
28045SOL    HW287413   5.270   5.408   7.794 -1.3741  1.1767 -1.4520
28046SOL     OW87414   6.547  10.958   5.705  0.0701 -0.7103  0.3950
28046SOL    HW187415   6.588  10.963   5.792  1.1761  1.1397 -0.1818
28046SOL    HW287416   6.602  10.898   5.656 -0.1011 -1.1403  0.7152
28047SOL     OW87417   9.331   4.464   4.448 -0.2582  0.7220  0.2172
28047SOL    HW187418   9.381   4.407   4.390 -1.1093  0.2550 -0.0866
28047SOL    HW287419   9.274   4.513   4.389  1.0190  2.5067  0.4011
28048SOL     OW87420   9.564   2.737   7.392  0.0111 -0.3477 -0.8979
28048SOL    HW187421   9.508   2.793   7.446  0.3345 -0.1254 -0.7929
28048SOL    HW287422   9.637   2.715   7.448  0.5079  0.1375 -1.3387
28049SOL     OW87423   8.165   9.823  10.742  0.5457  0.5287  0.4111
28049SOL    HW187424   8.088   9.786  10.699 -1.2650  1.1366  2.8796
28049SOL    HW287425   8.192   9.895  10.684 -1.2269  0.7849 -0.1727
28050SOL     OW87426   7.465   5.452   7.948 -0.4731 -0.2053  0.1556
28050SOL    HW187427   7.527   5.523   7.965 -0.3821 -0.2697  0.0925
28050SOL    HW287428   7.517   5.372   7.954 -0.6827 -0.3012  0.7501
28051SOL     OW87429   0.746   9.917   8.622 -0.1414 -0.2599 -0.0463
28051SOL    HW187430   0.834   9.882   8.608 -0.3146 -0.6623 -0.1386
28051SOL    HW287431   0.745  10.001   8.575  0.4767  0.1747  0.6959
28052SOL     OW87432   6.723   4.638   9.631  0.0736 -0.0407 -0.2827
28052SOL    HW187433   6.759   4.726   9.642  0.7072 -0.1548 -1.2970
28052SOL    HW287434   6.758   4.589   9.705  2.3042 -0.2130 -1.3627
28053SOL     OW87435   9.090   7.551   8.719 -0.2943  0.1234  0.3222
28053SOL    HW187436   9.107   7.491   8.792  0.9600  0.7920  0.6126
28053SOL    HW287437   9.011   7.599   8.746 -0.8350 -0.8250  0.4499
28054SOL     OW87438   0.779   2.118   9.157  0.7090 -0.2428  0.6266
28054SOL    HW187439   0.803   2.196   9.106  2.4753  0.1478  1.9577
28054SOL    HW287440   0.856   2.060   9.150  0.4160 -0.7789  1.6780
28055SOL     OW87441   6.949  10.340   7.436  0.3862  0.4958 -0.0657
28055SOL    HW187442   6.998  10.348   7.518 -0.0403 -1.1451  0.3903
28055SOL    HW287443   7.000  10.277   7.384 -0.7007 -0.4951  0.0260
28056SOL     OW87444   9.860   1.689  10.892  0.3332  0.3514 -0.0573
28056SOL    HW187445   9.843   1.752  10.963  2.3361 -0.3479  1.1141
28056SOL    HW287446   9.805   1.614  10.913 -1.9859  1.5587 -1.3983
28057SOL     OW87447   4.285   2.694  11.007  0.3484  0.5101 -0.2180
28057SOL    HW187448   4.339   2.761  11.049  2.1647 -0.5042 -0.8467
28057SOL    HW287449   4.281   2.720  10.915  0.4848  0.1276 -0.3352
28058SOL     OW87450   1.771   1.771   4.214 -0.0691 -0.7021 -0.0316
28058SOL    HW187451   1.702   1.837   4.207  0.1057 -0.4637  0.4403
28058SOL    HW287452   1.852   1.818   4.192 -0.0518 -0.9802 -0.5826
28059SOL     OW87453   4.654   7.924   1.166  0.2547 -0.1433  0.1827
28059SOL    HW187454   4.598   7.852   1.195  2.3504 -2.0572 -0.2182
28059SOL    HW287455   4.661   7.981   1.242 -0.3961 -1.0558  0.9649
28060SOL     OW87456   0.109   0.232   9.610 -0.2795  0.2643  0.6687
28060SOL    HW187457   0.024   0.276   9.600  0.7411  2.3675  0.5458
28060SOL    HW287458   0.153   0.246   9.526  0.6694  0.3709  1.1698
28061SOL     OW87459   6.576   5.086   8.844 -0.5371  0.4608  0.2873
28061SOL    HW187460   6.579   4.990   8.841 -0.8705  0.4042  1.3764
28061SOL    HW287461   6.665   5.113   8.818 -0.2202 -0.1663  0.6855
28062SOL     OW87462   9.988   1.474  10.622  0.1867 -0.2664 -0.2491
28062SOL    HW187463  10.006   1.451  10.531 -2.4496  0.2865 -0.9864
28062SOL    HW287464   9.992   1.569  10.624 -0.1256 -0.2580  0.1155
28063SOL     OW87465   3.390   3.570  10.096  0.3854 -0.0300  0.8518
28063SOL    HW187466   3.396   3.664  10.114  1.3997  0.3925 -1.4374
28063SOL    HW287467   3.340   3.535  10.170 -3.9715  2.9482 -0.3569
28064SOL     OW87468   4.468   0.708   7.395 -0.5022  0.1429  0.2694
28064SOL    HW187469   4.409   0.782   7.411 -1.1062 -0.1863 -0.3756
28064SOL    HW287470   4.518   0.734   7.317  0.9788  0.8676  1.4007
28065SOL     OW87471   4.785   4.696   0.438 -0.4809  0.2346  0.1577
28065SOL    HW187472   4.730   4.770   0.461 -2.5510 -1.4385  0.9282
28065SOL    HW287473   4.737   4.619   0.468  3.5213 -1.3496  3.6312
28066SOL     OW87474   8.495  10.122   3.366  0.4358 -0.3416 -0.3879
28066SOL    HW187475   8.518  10.030   3.381 -0.0633 -0.6700 -1.4873
28066SOL    HW287476   8.470  10.125   3.273  0.6193  0.9452 -0.4115
28067SOL     OW87477   0.612   3.018   9.987  0.7504 -0.1498  0.0510
28067SOL    HW187478   0.625   2.944  10.046 -0.4490 -0.0137  0.5115
28067SOL    HW287479   0.544   2.989   9.926  0.8581  0.2765 -0.2805
28068SOL     OW87480  10.217   5.764   6.369  0.3488 -0.4047 -0.2288
28068SOL    HW187481  10.181   5.817   6.299 -1.9908  1.7551  2.3869
28068SOL    HW287482  10.279   5.705   6.326 -2.1883 -0.4487 -4.2820
28069SOL     OW87483   2.944   8.110   7.143  0.1982 -0.0481  0.0218
28069SOL    HW187484   2.976   8.142   7.227 -0.2146  0.9632 -0.1935
28069SOL    HW287485   2.990   8.162   7.078  0.5485 -0.8602 -0.3842
28070SOL     OW87486   9.005   8.903   2.540 -0.0408 -0.3750 -0.0509
28070SOL    HW187487   9.069   8.832   2.532 -0.5724 -0.6742 -2.8734
28070SOL    HW287488   8.935   8.868   2.594  2.1057 -0.0017  3.2133
28071SOL     OW87489   2.222   1.821   9.746  0.2562  0.0781 -0.1072
28071SOL    HW187490   2.182   1.860   9.825 -0.6030 -0.5372 -0.2183
28071SOL    HW287491   2.172   1.858   9.673  0.8943  0.4620 -0.3539
28072SOL     OW87492   0.076   0.928   0.784 -0.0803  0.0846  0.0360
28072SOL    HW187493   0.059   0.866   0.855  0.2278 -0.8890 -0.7144
28072SOL    HW287494   0.076   1.014   0.827  0.5300 -0.5093  1.2893
28073SOL     OW87495   0.479   7.684   3.504  0.0021 -0.3292  0.4393
28073SOL    HW187496   0.504   7.591   3.502  0.2185 -0.2632 -0.2843
28073SOL    HW287497   0.512   7.716   3.588  1.2996 -0.5407  0.0259
28074SOL     OW87498   9.566   5.997   1.625 -0.2738  0.7059 -0.4989
28074SOL    HW187499   9.515   5.962   1.552  0.7188  0.3799 -1.0470
28074SOL    HW287500   9.511   6.068   1.660 -2.6674 -1.7075  1.0612
28075SOL     OW87501   2.374   9.062   4.194 -0.2295 -0.0112 -0.4981
28075SOL    HW187502   2.313   9.124   4.232  0.3285  0.3322 -0.1620
28075SOL    HW287503   2.455   9.073   4.244  0.7953  1.0327 -2.2763
28076SOL     OW87504   2.431   1.232   2.085  0.0627 -0.6400  0.2133
28076SOL    HW187505   2.415   1.142   2.057  1.4275 -1.0944  0.8290
28076SOL    HW287506   2.498   1.264   2.026  0.2849 -0.3564  0.6167
28077SOL     OW87507   2.942   2.955   1.589 -0.6861  0.7076 -0.0287
28077SOL    HW187508   2.972   2.948   1.499 -2.4105  0.9147 -0.6350
28077SOL    HW287509   2.996   3.025   1.627  2.2274 -1.3824  0.0771
28078SOL     OW87510   5.277   5.294   8.474 -0.6224 -0.1494  0.2245
28078SOL    HW187511   5.239   5.326   8.556  0.3056  0.4336  0.4397
28078SOL    HW287512   5.336   5.224   8.502 -1.9354 -1.4656 -0.1589
28079SOL     OW87513   8.376   8.082   6.717  0.6683 -0.2804 -0.4368
28079SOL    HW187514   8.441   8.151   6.731 -0.3196  1.0443 -2.1022
28079SOL    HW287515   8.292   8.123   6.738  0.1447 -1.2819 -0.4956
28080SOL     OW87516   6.432   2.375   7.937  0.3533 -0.1860  0.1429
28080SOL    HW187517   6.518   2.417   7.932 -0.2505  1.2659  1.3747
28080SOL    HW287518   6.429   2.337   8.025 -0.2572 -0.2473  0.0987
28081SOL     OW87519   9.029   9.442   1.263 -0.3803  0.3093  0.3865
28081SOL    HW187520   9.096   9.444   1.332  0.8807 -0.3367 -0.7753
28081SOL    HW287521   8.978   9.522   1.277  0.9580  1.0876  1.0074
28082SOL     OW87522   2.224   0.722   9.601  0.7518  0.0533 -0.1651
28082SOL    HW187523   2.202   0.815   9.612  1.0273  0.3736 -2.0119
28082SOL    HW287524   2.155   0.676   9.649  0.8779  1.2035  1.1915
28083SOL     OW87525   9.635   3.701  11.230 -0.1604 -0.5513  0.0715
28083SOL    HW187526   9.568   3.757  11.190  0.4696  0.9122  0.9812
28083SOL    HW287527   9.592   3.662  11.306 -0.5014 -1.0529 -0.3704
28084SOL     OW87528   9.545   8.021   0.397  0.4546  0.0740  0.1709
28084SOL    HW187529   9.555   8.116   0.391  2.2434 -0.1315 -0.8589
28084SOL    HW287530   9.592   7.996   0.476 -0.7866  0.0999  0.9501
28085SOL     OW87531  10.129   9.166   1.657 -0.4656 -0.4714  0.0554
28085SOL    HW187532  10.212   9.199   1.624 -1.1493 -1.1919 -2.6775
28085SOL    HW287533  10.131   9.072   1.637 -1.6512 -0.6282  0.5833
28086SOL     OW87534   6.558   7.231   2.061 -0.3640  0.4784 -0.0843
28086SOL    HW187535   6.471   7.254   2.031 -0.0061  1.1184 -0.6658
28086SOL    HW287536   6.554   7.236   2.156 -0.7367  1.3579 -0.1387
28087SOL     OW87537   9.602   1.177   9.348  0.2228 -0.6211  0.0822
28087SOL    HW187538   9.578   1.222   9.267  1.1694  2.0715  1.1657
28087SOL    HW287539   9.525   1.124   9.370 -0.2078 -1.0742 -2.3148
28088SOL     OW87540   5.068   4.496   0.279  0.0809 -0.5247 -0.1744
28088SOL    HW187541   4.999   4.457   0.225 -0.7686 -2.2679  1.9977
28088SOL    HW287542   5.148   4.484   0.228 -0.5729 -2.8242 -0.7704
28089SOL     OW87543   5.101   3.792   5.625  0.8770  0.2393  0.3314
28089SOL    HW187544   5.181   3.739   5.622 -0.4446 -1.8857 -0.0928
28089SOL    HW287545   5.037   3.742   5.574 -1.0952  1.1985  1.6968
28090SOL     OW87546   5.173   5.466   1.710 -0.0432 -0.3137  0.9987
28090SOL    HW187547   5.231   5.541   1.707 -2.3652  1.5625 -1.3569
28090SOL    HW287548   5.178   5.428   1.622  1.6484 -3.5769  2.2929
28091SOL     OW87549   9.932   7.378   3.628 -0.1262 -0.0379 -0.1017
28091SOL    HW187550   9.913   7.363   3.721 -0.9331  2.0013  0.1113
28091SOL    HW287551   9.850   7.355   3.583 -0.7621  1.7988  0.0443
28092SOL     OW87552   6.006   6.314   6.205 -0.2701 -0.2777 -0.0928
28092SOL    HW187553   5.942   6.254   6.168  0.1240 -0.6964 -0.0984
28092SOL    HW287554   5.954   6.377   6.256 -1.0335  1.4630 -2.8189
28093SOL     OW87555   6.553   2.339   9.124  0.4034  0.6573 -0.0484
28093SOL    HW187556   6.634   2.324   9.075  0.6578 -1.6693  0.9248
28093SOL    HW287557   6.493   2.272   9.092 -0.1306  0.4807  1.2446
28094SOL     OW87558   6.294   0.812  11.266 -0.2159 -0.7293 -0.5339
28094SOL    HW187559   6.384   0.837  11.285  0.1727 -0.5749 -2.3828
28094SOL    HW287560   6.242   0.853  11.335  1.1659 -1.3823  0.9646
28095SOL     OW87561   2.119   8.768  11.366 -0.4388 -0.7329  0.3684
28095SOL    HW187562   2.081   8.735  11.447  0.6302 -1.8727  0.4553
28095SOL    HW287563   2.198   8.815  11.393 -0.5474 -0.3570  0.0481
28096SOL     OW87564   1.883   0.864   4.249  0.4231  0.2693  0.4118
28096SOL    HW187565   1.859   0.885   4.159 -0.3744  0.7872  0.7269
28096SOL    HW287566   1.962   0.812   4.242  1.1511  1.4560 -0.5403
28097SOL     OW87567   0.129   1.861   6.389  1.0437  0.2249 -0.4279
28097SOL    HW187568   0.068   1.794   6.420  1.0355  0.7376  0.7280
28097SOL    HW287569   0.076   1.919   6.335  0.9544 -0.4320 -1.0662
28098SOL     OW87570   9.157   5.141   6.159 -0.5533  0.1124 -0.3200
28098SOL    HW187571   9.172   5.064   6.214  0.2794 -0.1738 -0.9305
28098SOL    HW287572   9.228   5.202   6.183 -0.6838  0.3288 -0.4815
28099SOL     OW87573   3.699   7.491   7.948  0.4125  0.1588 -0.1583
28099SOL    HW187574   3.655   7.516   8.029  0.5679 -0.1870  0.0361
28099SOL    HW287575   3.630   7.492   7.882  0.8108  3.4508 -0.6984
28100SOL     OW87576   7.947   9.422   4.190 -0.1415 -0.2467  0.0229
28100SOL    HW187577   7.986   9.334   4.190 -1.4788 -0.8675 -0.8718
28100SOL    HW287578   7.853   9.406   4.186 -0.3724  1.2429 -1.0326
28101SOL     OW87579   5.101   7.301  10.556 -0.0067 -0.1422 -0.2548
28101SOL    HW187580   5.013   7.338  10.552 -0.2904 -0.6953  0.6260
28101SOL    HW287581   5.100   7.244  10.633  1.3757  0.5051  0.2867
28102SOL     OW87582   4.661   7.432   6.562  0.8146 -0.1427  0.2428
28102SOL    HW187583   4.671   7.452   6.469  0.8631 -1.0287  0.0529
28102SOL    HW287584   4.751   7.424   6.594  0.7990  0.2360  0.3871
28103SOL     OW87585   5.650   9.958   2.029  0.1673 -0.6717  0.2420
28103SOL    HW187586   5.711  10.019   2.069  0.4080 -0.9136  0.2477
28103SOL    HW287587   5.599  10.011   1.967  0.7584 -0.5784 -0.1657
28104SOL     OW87588   4.519   5.398   8.369 -0.5652 -0.6596  0.4007
28104SOL    HW187589   4.471   5.440   8.441 -1.8688 -0.4014 -0.5820
28104SOL    HW287590   4.532   5.308   8.399 -0.7827 -0.4696  1.0985
28105SOL     OW87591  10.124   6.770   4.226 -0.3066  0.3579 -0.0285
28105SOL    HW187592  10.046   6.805   4.268 -0.3207 -0.1222  0.3500
28105SOL    HW287593  10.132   6.820   4.144 -1.2934  0.0782 -0.3083
28106SOL     OW87594  11.381   5.981   6.123 -0.1993  0.3926 -0.1276
28106SOL    HW187595  11.351   5.999   6.213 -0.4844  0.4634 -0.2346
28106SOL    HW287596  11.461   5.929   6.134 -1.7353 -2.0675  0.1707
28107SOL     OW87597   2.508   2.262   3.184 -0.3935 -0.0627  0.0907
28107SOL    HW187598   2.477   2.239   3.272  1.3723 -3.1144  0.0690
28107SOL    HW287599   2.460   2.341   3.162 -1.0646  0.7414  3.7062
28108SOL     OW87600   3.728  10.141   5.588  0.8315  0.1333  0.4488
28108SOL    HW187601   3.735  10.081   5.514 -0.2374 -1.0238  1.2553
28108SOL    HW287602   3.813  10.184   5.591  0.8570  0.3165 -1.5227
28109SOL     OW87603   9.934   5.874   2.054 -0.4252  0.2490  0.1504
28109SOL    HW187604   9.955   5.908   2.141 -1.0850 -0.7439  0.7105
28109SOL    HW287605   9.952   5.947   1.995  0.4725  0.7934  1.0619
28110SOL     OW87606   4.479   5.404  10.860  0.0042  0.2339  0.1946
28110SOL    HW187607   4.455   5.423  10.951 -0.8113 -0.6042  0.1695
28110SOL    HW287608   4.565   5.363  10.866 -0.7412 -1.3312  0.7649
28111SOL     OW87609   5.219  10.256   1.741  0.1940  0.0742 -0.4144
28111SOL    HW187610   5.152  10.322   1.719  2.7432  2.5944 -1.1955
28111SOL    HW287611   5.210  10.190   1.672 -1.6997  0.1381 -0.2830
28112SOL     OW87612   4.542   4.610   9.270  0.1098 -0.0251 -0.1199
28112SOL    HW187613   4.594   4.690   9.281  1.5276 -0.8255 -0.7362
28112SOL    HW287614   4.563   4.557   9.346 -1.2325  0.3778  0.5541
28113SOL     OW87615  11.305   1.949   6.574  0.1269  0.6774  0.1759
28113SOL    HW187616  11.257   2.004   6.511 -1.2701  0.2465  0.8398
28113SOL    HW287617  11.351   2.012   6.630 -0.3826  1.1398  0.0897
28114SOL     OW87618   3.721   2.844   6.798 -0.3730  0.3405  0.3915
28114SOL    HW187619   3.751   2.767   6.848  1.1160  1.2704  0.9875
28114SOL    HW287620   3.663   2.807   6.732  0.9692 -1.4252  0.0949
28115SOL     OW87621  11.311  10.928   0.710  0.2336  0.0110  0.6765
28115SOL    HW187622  11.404  10.949   0.703 -0.3056  2.3653 -0.5160
28115SOL    HW287623  11.272  10.968   0.632 -1.7462 -1.2758  0.9298
28116SOL     OW87624  10.420   5.207   3.020  0.2554 -0.2786 -0.2387
28116SOL    HW187625  10.367   5.267   3.073 -1.1711 -0.1138 -1.7507
28116SOL    HW287626  10.466   5.153   3.084  0.4841  1.4744  1.1652
28117SOL     OW87627   3.742  11.154   9.237  0.4614 -0.3760  0.3183
28117SOL    HW187628   3.822  11.146   9.184  0.7730  0.9744  0.5482
28117SOL    HW287629   3.770  11.201   9.315 -0.1627 -1.6651  1.3580
28118SOL     OW87630  10.335   7.034   2.620  0.6509  0.3225  0.4447
28118SOL    HW187631  10.273   7.008   2.687 -1.6004  0.7020 -1.3683
28118SOL    HW287632  10.360   6.953   2.576 -0.4120  0.3849 -0.3038
28119SOL     OW87633   3.521  11.013   9.310  0.2172 -0.2916  0.3267
28119SOL    HW187634   3.603  11.050   9.277  0.2541 -1.2925 -0.7591
28119SOL    HW287635   3.548  10.947   9.373  0.2305 -0.4982  0.1016
28120SOL     OW87636   5.979   7.013   9.278  0.1881 -0.0893 -0.3430
28120SOL    HW187637   5.971   6.994   9.371  0.0229  0.6187 -0.2108
28120SOL    HW287638   6.012   7.103   9.274 -1.8510  0.7027 -0.9500
28121SOL     OW87639   2.794   6.637   5.047 -0.3679  0.3406 -0.1129
28121SOL    HW187640   2.766   6.547   5.062  0.7053 -0.8365 -3.9821
28121SOL    HW287641   2.882   6.641   5.085  0.4442 -1.0078 -1.7250
28122SOL     OW87642   2.853   5.804   8.760 -0.5932  0.3393 -0.5931
28122SOL    HW187643   2.783   5.777   8.819 -1.3794  3.0078 -0.2044
28122SOL    HW287644   2.913   5.729   8.758 -2.1693 -1.0463  1.0273
28123SOL     OW87645   4.439   9.132   4.480 -0.4660  0.0549  0.1191
28123SOL    HW187646   4.389   9.179   4.548 -0.2480  1.3348 -0.5711
28123SOL    HW287647   4.451   9.044   4.516 -1.0007  0.4824  1.4149
28124SOL     OW87648   0.609   6.837   6.504  0.2615  0.0729  0.3275
28124SOL    HW187649   0.574   6.865   6.588  0.3207  2.5124 -0.3774
28124SOL    HW287650   0.702   6.820   6.521 -0.0956 -1.2184  1.0936
28125SOL     OW87651   3.326   0.635   6.995 -0.0057  0.4648 -0.1086
28125SOL    HW187652   3.270   0.698   7.042  0.6371  2.0802 -1.4107
28125SOL    HW287653   3.403   0.625   7.051 -1.2018 -1.2036  1.3393
28126SOL     OW87654   7.012   4.166  11.362  0.6810 -0.0314  0.5267
28126SOL    HW187655   7.086   4.109  11.385  0.0412 -1.8309 -1.5348
28126SOL    HW287656   6.952   4.159  11.437  0.2110 -2.8731 -0.0054
28127SOL     OW87657   4.669   6.906   7.818 -0.3349  0.0541 -0.2729
28127SOL    HW187658   4.695   6.964   7.890  1.2383 -0.4254 -0.4080
28127SOL    HW287659   4.575   6.919   7.810 -0.2042  1.7846  0.3973
28128SOL     OW87660   8.619   2.910  11.385 -0.0136  0.5805  0.2493
28128SOL    HW187661   8.649   2.957  11.463 -1.1889 -1.2626  1.8997
28128SOL    HW287662   8.584   2.828  11.419  1.0775 -1.0856 -2.4157
28129SOL     OW87663   9.278   7.283   6.239  0.2226 -0.0776 -0.4627
28129SOL    HW187664   9.282   7.202   6.188 -2.1498 -0.5537 -0.0409
28129SOL    HW287665   9.267   7.253   6.329 -0.6246  0.6791 -0.3015
28130SOL     OW87666   2.462   6.822   2.724 -0.2143  0.4067 -0.5305
28130SOL    HW187667   2.450   6.784   2.811 -0.6173  3.6237  0.9727
28130SOL    HW287668   2.554   6.849   2.721 -0.2494  0.4889 -1.0253
28131SOL     OW87669   6.205   2.491  10.472 -0.0730  0.4779  0.5003
28131SOL    HW187670   6.123   2.474  10.425 -0.1465  0.1742  0.7296
28131SOL    HW287671   6.189   2.573  10.519 -0.2726  0.3835  0.5990
28132SOL     OW87672  10.056   1.060   4.816  0.1666  0.1314 -0.1547
28132SOL    HW187673  10.098   1.073   4.731  1.1484  0.7433  0.4076
28132SOL    HW287674  10.120   1.011   4.867 -0.4386 -0.2780  0.2179
28133SOL     OW87675   8.932   9.846   5.347 -0.3830  0.5039 -0.5482
28133SOL    HW187676   8.885   9.794   5.413  0.4169  0.5702  0.0866
28133SOL    HW287677   8.864   9.875   5.287 -1.1677  0.6697  0.4000
28134SOL     OW87678   1.097   8.577   3.826  0.3969 -0.4555 -0.5286
28134SOL    HW187679   1.119   8.641   3.894  0.3519  0.5691 -1.4538
28134SOL    HW287680   1.018   8.613   3.784 -0.2649 -1.6754 -0.3514
28135SOL     OW87681   3.070  10.475   0.923  0.0550  0.1243 -0.0338
28135SOL    HW187682   3.068  10.483   1.019 -2.1911  0.9957 -0.0913
28135SOL    HW287683   2.985  10.508   0.895  0.5646 -0.3771 -2.3367
28136SOL     OW87684  10.095  11.258   4.566 -0.0476 -0.0384  0.7141
28136SOL    HW187685  10.156  11.329   4.586  0.2421 -0.3934  1.1202
28136SOL    HW287686  10.045  11.290   4.491  1.4424 -0.2078 -0.4072
28137SOL     OW87687   1.279   2.320   9.040  0.1342 -0.0975 -0.0883
28137SOL    HW187688   1.233   2.398   9.074 -0.2224  0.3828 -1.5832
28137SOL    HW287689   1.371   2.343   9.046  0.1579 -0.4958  1.6069
28138SOL     OW87690   2.098   5.505   1.578  0.1881 -0.3720 -0.4286
28138SOL    HW187691   2.179   5.456   1.565  0.7165  0.0523  1.0738
28138SOL    HW287692   2.089   5.512   1.674 -1.0545  0.5164 -0.5852
28139SOL     OW87693   4.934   7.517   6.563 -0.1966  0.0121  0.5104
28139SOL    HW187694   4.921   7.549   6.652 -0.8441 -1.8173  1.1248
28139SOL    HW287695   5.016   7.557   6.534  0.1324  0.4697  1.9995
28140SOL     OW87696   4.503   8.632   9.775 -1.1476 -0.0235 -0.1207
28140SOL    HW187697   4.532   8.673   9.693  0.1678 -0.0685  0.2881
28140SOL    HW287698   4.564   8.559   9.787 -0.7243  0.5385  1.3646
28141SOL     OW87699   4.855   9.356   6.025  0.3734 -0.4153 -1.1410
28141SOL    HW187700   4.861   9.263   6.000  0.1628 -0.1362 -2.2750
28141SOL    HW287701   4.762   9.376   6.018  0.4405 -0.0774 -1.0704
28142SOL     OW87702   1.068   6.784   4.457 -0.3517 -0.4656 -0.4198
28142SOL    HW187703   1.154   6.786   4.498 -1.0138 -0.1054  1.0117
28142SOL    HW287704   1.019   6.853   4.502 -1.6286 -1.1847 -0.6619
28143SOL     OW87705  10.397   4.725   9.848  0.1304  0.1903  0.0917
28143SOL    HW187706  10.481   4.680   9.842  0.0304 -0.0677  0.6010
28143SOL    HW287707  10.378   4.753   9.758  0.7348  0.2083 -0.0341
28144SOL     OW87708  11.230   6.188   2.560  0.0336 -0.2518  0.3123
28144SOL    HW187709  11.212   6.278   2.531  0.9070 -0.3649 -0.6362
28144SOL    HW287710  11.308   6.196   2.615 -0.7522 -0.2452  1.4579
28145SOL     OW87711   3.779   3.623   0.696  0.5991  0.2700  0.0022
28145SOL    HW187712   3.726   3.701   0.715 -0.3082 -0.1639 -0.6625
28145SOL    HW287713   3.754   3.561   0.765  1.3684  0.5768  0.5687
28146SOL     OW87714   6.898   3.421   1.003 -0.7512 -0.1606 -0.7269
28146SOL    HW187715   6.937   3.400   0.918 -0.3942 -0.2505 -0.5449
28146SOL    HW287716   6.970   3.410   1.065 -1.2172 -0.9168 -0.3064
28147SOL     OW87717   0.377   6.254   6.127  0.0678 -1.0163 -0.0620
28147SOL    HW187718   0.410   6.283   6.212 -2.3064 -0.1639  0.6569
28147SOL    HW287719   0.368   6.335   6.076 -1.2741 -1.1406 -0.0585
28148SOL     OW87720   2.505   7.818   1.455  0.1625  0.6442 -0.3397
28148SOL    HW187721   2.582   7.833   1.400  1.0101  0.8402  0.8512
28148SOL    HW287722   2.540   7.812   1.544 -1.4293  3.2638  0.5759
28149SOL     OW87723   3.485   1.647   2.725  0.2483  0.2318 -0.5229
28149SOL    HW187724   3.478   1.709   2.652 -0.6865  1.5236  0.6235
28149SOL    HW287725   3.477   1.701   2.803  1.7123 -1.0653  0.5785
28150SOL     OW87726   1.360   3.416   3.985 -0.2586 -0.5670  0.5093
28150SOL    HW187727   1.360   3.331   4.029  0.7208  0.4620  2.6541
28150SOL    HW287728   1.274   3.454   4.005 -0.8395 -1.1695 -0.7606
28151SOL     OW87729   7.394   2.382   9.647 -0.2760 -0.2323  0.2596
28151SOL    HW187730   7.442   2.339   9.718 -1.2679 -1.9651 -0.0673
28151SOL    HW287731   7.396   2.320   9.575 -0.8995  0.7032 -0.5951
28152SOL     OW87732   9.536   1.374   6.981  0.1208 -0.2695  0.2754
28152SOL    HW187733   9.546   1.427   7.060 -0.9241 -0.7670  0.7662
28152SOL    HW287734   9.441   1.369   6.968  0.2650 -0.5126 -0.7964
28153SOL     OW87735   1.330  10.163   7.774  0.4330  0.1621  0.2618
28153SOL    HW187736   1.315  10.249   7.736 -1.9892 -0.1340  0.4193
28153SOL    HW287737   1.389  10.120   7.713  0.2429  1.2931 -0.7499
28154SOL     OW87738   4.032   9.297   3.071  0.5807 -0.3059 -0.3195
28154SOL    HW187739   3.939   9.277   3.084  0.7304 -0.3418  0.7851
28154SOL    HW287740   4.059   9.239   3.000  0.0554 -1.2170  0.1926
28155SOL     OW87741   4.298  11.271  10.165  0.1599  0.0155 -0.1393
28155SOL    HW187742   4.222  11.325  10.187 -0.7650 -2.0021  2.1847
28155SOL    HW287743   4.281  11.240  10.077 -1.5610 -0.0847  0.1896
28156SOL     OW87744   4.146   4.980   1.498 -0.0992  0.1597  0.3599
28156SOL    HW187745   4.149   4.979   1.402  1.9862 -1.4859  0.3608
28156SOL    HW287746   4.055   4.997   1.519 -1.0839 -1.6090 -1.9660
28157SOL     OW87747   4.070   0.450   7.103  0.7611 -0.3980 -0.1964
28157SOL    HW187748   4.144   0.492   7.058 -1.7366  4.0213 -0.7474
28157SOL    HW287749   4.087   0.465   7.196  1.1456 -0.6074 -0.2269
28158SOL     OW87750   5.239   2.059   0.104  0.0115  0.0357  0.4592
28158SOL    HW187751   5.185   1.981   0.097 -0.7191  0.3503  2.2325
28158SOL    HW287752   5.224   2.091   0.193  0.9381  1.7292  0.0402
28159SOL     OW87753   8.693   6.246  10.987  0.3250 -0.0922  0.4573
28159SOL    HW187754   8.616   6.293  11.019 -0.4331 -0.0634 -1.2984
28159SOL    HW287755   8.742   6.222  11.067 -0.2524  1.9626  1.4935
28160SOL     OW87756   0.203  10.616   4.285  0.2209 -0.1278 -0.5888
28160SOL    HW187757   0.161  10.532   4.269 -0.1719 -0.1216  0.3402
28160SOL    HW287758   0.189  10.633   4.378  0.5167  0.8456 -0.7045
28161SOL     OW87759   5.392  10.254   2.482 -0.1836 -0.1233  0.7081
28161SOL    HW187760   5.392  10.281   2.391  1.0951  1.0122  1.0026
28161SOL    HW287761   5.322  10.189   2.489 -2.3324  1.9263 -0.4171
28162SOL     OW87762   8.989   2.651   5.109 -0.4080  0.1915  0.2023
28162SOL    HW187763   8.931   2.631   5.036  1.5585 -0.9252 -1.1435
28162SOL    HW287764   9.075   2.618   5.082  0.8246  1.5038  2.2144
28163SOL     OW87765  10.832   4.487   6.979  0.0656 -0.3236  0.4942
28163SOL    HW187766  10.883   4.422   7.027 -0.2654 -1.1010 -0.1884
28163SOL    HW287767  10.897   4.550   6.947  0.3667 -0.2019  1.3036
28164SOL     OW87768   7.014   6.304   3.564  0.3703 -0.1369  0.0022
28164SOL    HW187769   6.985   6.379   3.513  1.5935  0.9770  0.8835
28164SOL    HW287770   7.032   6.339   3.651 -1.3825 -1.9354  1.1690
28165SOL     OW87771   1.843   0.370   7.707 -0.2444 -0.2506 -0.3948
28165SOL    HW187772   1.824   0.357   7.800 -1.1310 -0.1375 -0.5526
28165SOL    HW287773   1.841   0.282   7.669 -0.0465 -0.2784 -0.3459
28166SOL     OW87774  11.374   6.539   4.500  0.1185  0.2275  0.1647
28166SOL    HW187775  11.340   6.585   4.576  1.0810  0.1280  0.6750
28166SOL    HW287776  11.319   6.460   4.493 -0.9864  1.0086 -0.2118
28167SOL     OW87777   4.428   6.349   8.431  0.2611  0.1073 -0.5265
28167SOL    HW187778   4.396   6.305   8.353  2.4031 -3.1955  0.2790
28167SOL    HW287779   4.523   6.353   8.420  0.3274  3.4475  0.1376
28168SOL     OW87780   6.569   3.032   6.628 -0.1392  0.0122 -0.1682
28168SOL    HW187781   6.524   3.116   6.621  1.8464  1.0856 -0.5251
28168SOL    HW287782   6.505   2.975   6.671 -1.9520  1.3504 -0.9642
28169SOL     OW87783   7.043  10.457   2.595 -0.1888  0.2270 -0.1096
28169SOL    HW187784   6.956  10.495   2.595  0.2313  1.2252 -0.1050
28169SOL    HW287785   7.041  10.390   2.527 -0.9271  0.3115 -0.1709
28170SOL     OW87786   0.433  10.073   5.453  0.5505 -0.4369 -0.2354
28170SOL    HW187787   0.356  10.026   5.485 -0.3420  0.3950 -1.0877
28170SOL    HW287788   0.447  10.142   5.518  0.4810 -0.4767 -0.1771
28171SOL     OW87789   0.687   0.962   6.751  0.0975 -0.5364 -0.4174
28171SOL    HW187790   0.758   0.983   6.812 -0.1405 -1.7098  0.2875
28171SOL    HW287791   0.643   1.046   6.736  1.9400  0.3526 -1.3062
28172SOL     OW87792   2.030   3.012   9.008  0.0368  0.2131  0.3753
28172SOL    HW187793   1.989   3.085   8.961  0.3561  0.1311 -0.0377
28172SOL    HW287794   2.124   3.029   9.001  0.1184 -0.3233  0.1347
28173SOL     OW87795   3.468   4.514   3.890 -0.5876  0.0191  0.3069
28173SOL    HW187796   3.449   4.436   3.943 -4.6358  1.2154  0.9855
28173SOL    HW287797   3.517   4.570   3.949 -1.3171 -0.3893  1.3554
28174SOL     OW87798   3.441   2.255   0.737  0.2865 -0.6496  0.0451
28174SOL    HW187799   3.417   2.222   0.650 -2.8566 -1.1177  0.9547
28174SOL    HW287800   3.379   2.327   0.752 -0.2105 -1.4982  2.4408
28175SOL     OW87801  11.342   4.987   8.725 -0.3145  0.5668  0.0392
28175SOL    HW187802  11.336   4.943   8.640  0.9726  0.1843  0.1141
28175SOL    HW287803  11.423   5.038   8.719 -0.4315  0.8725  0.8883
28176SOL     OW87804   5.490   7.674   3.420 -0.1383 -0.5914  0.5726
28176SOL    HW187805   5.462   7.678   3.511 -4.2564 -0.3246 -0.5195
28176SOL    HW287806   5.483   7.581   3.397  2.4053 -0.9172  0.8193
28177SOL     OW87807   0.811   2.325   4.861 -0.4690  0.0465 -0.5929
28177SOL    HW187808   0.761   2.263   4.914  0.7299 -1.8902 -1.6099
28177SOL    HW287809   0.860   2.376   4.925 -2.0086  0.4729  0.3068
28178SOL     OW87810   6.019   8.092  11.091 -0.7176  0.3791 -0.4691
28178SOL    HW187811   5.945   8.054  11.044 -1.4031  0.0612  0.8265
28178SOL    HW287812   6.071   8.135  11.022 -0.4870 -1.8920 -1.8296
28179SOL     OW87813   5.635   3.324   6.029 -0.3902  0.2617 -0.7531
28179SOL    HW187814   5.720   3.345   6.067 -0.6779 -1.0567  0.7087
28179SOL    HW287815   5.643   3.233   5.999 -1.0771  0.3530 -1.2543
28180SOL     OW87816   5.463   7.730   1.765 -0.2708  0.1031  0.2502
28180SOL    HW187817   5.444   7.692   1.679 -0.9751 -0.9664  0.8518
28180SOL    HW287818   5.551   7.768   1.755 -0.3878  0.1160 -0.9670
28181SOL     OW87819   6.354   6.770   1.329  0.5076 -0.4604 -0.6336
28181SOL    HW187820   6.350   6.860   1.300  0.4795  0.4710  1.9571
28181SOL    HW287821   6.402   6.774   1.413 -2.4047 -2.2785  1.2996
28182SOL     OW87822   0.395   7.859   1.942 -0.2463  0.2053  0.2456
28182SOL    HW187823   0.477   7.892   1.979 -0.2134  1.7663 -1.1101
28182SOL    HW287824   0.358   7.804   2.011  2.6952 -1.9185  0.3167
28183SOL     OW87825   1.368   6.650   8.039  0.3095 -0.5406  0.1687
28183SOL    HW187826   1.426   6.695   7.977  1.0043  0.8345  1.7617
28183SOL    HW287827   1.378   6.557   8.017  2.9797 -0.3546  0.2417
28184SOL     OW87828   9.792   9.901   8.011  0.7109 -0.1059  0.2437
28184SOL    HW187829   9.749   9.947   8.082  0.7144 -0.4524  0.4769
28184SOL    HW287830   9.852   9.965   7.973 -0.0198  0.3836 -0.0994
28185SOL     OW87831  10.922  10.659  10.466 -0.0150  0.1670  0.4999
28185SOL    HW187832  10.871  10.578  10.459  1.4529 -0.7166 -0.6696
28185SOL    HW287833  10.919  10.681  10.559  1.1577 -2.3853  1.2370
28186SOL     OW87834   6.084  10.181   6.241 -0.8337 -0.2076 -0.1144
28186SOL    HW187835   6.126  10.138   6.166  1.1177  1.0514  0.1900
28186SOL    HW287836   5.994  10.195   6.212 -0.8758 -2.2444 -1.1342
28187SOL     OW87837   9.380   6.177   1.833 -0.1577  0.1561 -0.1086
28187SOL    HW187838   9.297   6.170   1.880  0.0106  0.4787  0.2400
28187SOL    HW287839   9.370   6.255   1.778  1.2481  2.4994  2.6920
28188SOL     OW87840   5.129   3.065   2.332  0.2972 -0.3501 -0.3406
28188SOL    HW187841   5.105   3.066   2.239  1.9178 -1.0969 -0.7987
28188SOL    HW287842   5.089   3.144   2.367 -0.2759 -0.0005 -1.6968
28189SOL     OW87843   4.897  10.409   7.484 -0.5464  0.6107 -0.1085
28189SOL    HW187844   4.844  10.411   7.563  1.2506 -2.2318  1.3271
28189SOL    HW287845   4.954  10.486   7.490 -0.7537  0.6727  1.1214
28190SOL     OW87846   1.910   8.568   9.369 -0.5117 -0.0366  0.0947
28190SOL    HW187847   1.870   8.545   9.285  0.6155  1.9035 -1.0535
28190SOL    HW287848   2.000   8.534   9.363  0.1266  1.6320 -0.2646
28191SOL     OW87849   1.978   9.649   5.094  0.3340 -0.4999  0.0076
28191SOL    HW187850   2.011   9.667   5.006 -1.8110 -0.4314 -0.8446
28191SOL    HW287851   2.017   9.564   5.117 -0.7170 -1.5910 -1.9472
28192SOL     OW87852   8.862   5.794   0.365  0.1620  0.8492 -0.2498
28192SOL    HW187853   8.934   5.856   0.379  0.3212  0.6758 -0.3099
28192SOL    HW287854   8.799   5.842   0.311  0.5547  0.7531 -0.7943
28193SOL     OW87855   6.788   4.613   5.243  0.3014 -0.1447  0.2927
28193SOL    HW187856   6.783   4.549   5.173 -0.0578 -0.4148  0.5607
28193SOL    HW287857   6.702   4.655   5.243  1.4639  2.5540 -1.9418
28194SOL     OW87858   9.909   1.868   9.439 -0.5576  0.1011 -0.1381
28194SOL    HW187859   9.908   1.941   9.377 -0.2703 -0.6659 -1.0489
28194SOL    HW287860   9.994   1.875   9.483  0.8738 -1.5094 -2.4576
28195SOL     OW87861   1.734   5.108  11.262 -0.2189 -0.2461  0.0252
28195SOL    HW187862   1.659   5.081  11.315 -0.3315  0.6995  0.3609
28195SOL    HW287863   1.810   5.074  11.308 -0.2627  1.1835  1.2079
28196SOL     OW87864   6.946   5.458   9.272 -0.4595 -0.5273 -0.0305
28196SOL    HW187865   6.937   5.390   9.206 -2.2155 -1.7434  1.3898
28196SOL    HW287866   6.974   5.412   9.351 -1.3919  0.4211  0.8833
28197SOL     OW87867   0.221   9.090   4.616  0.1425 -0.5631  0.1197
28197SOL    HW187868   0.135   9.069   4.653  0.9468 -1.4683  1.5562
28197SOL    HW287869   0.218   9.056   4.527 -0.9164 -0.7370  0.2055
28198SOL     OW87870  11.013  10.564   5.260 -0.4405 -0.0146  0.0965
28198SOL    HW187871  11.108  10.553   5.261 -0.0503  1.8549 -3.3526
28198SOL    HW287872  11.000  10.659   5.264 -2.1305 -0.2001 -0.3420
28199SOL     OW87873   1.587   3.896   2.378  0.0231  0.2098  0.1811
28199SOL    HW187874   1.592   3.801   2.392 -2.1565  0.1534  0.9370
28199SOL    HW287875   1.577   3.905   2.283  1.3731 -0.2130 -0.0293
28200SOL     OW87876   7.636  10.714   8.735 -0.4005 -0.2385  0.3335
28200SOL    HW187877   7.546  10.701   8.705  0.0606 -0.0774 -1.1858
28200SOL    HW287878   7.665  10.626   8.761 -0.6570 -0.4739 -0.1578
28201SOL     OW87879   0.105   7.550   6.560 -0.0956 -0.1240  0.2472
28201SOL    HW187880   0.130   7.536   6.469  0.1906 -1.9806  0.5643
28201SOL    HW287881   0.188   7.569   6.605  0.2781 -2.3391  0.6143
28202SOL     OW87882   1.233   9.834   2.972 -0.1008  0.8973  0.1949
28202SOL    HW187883   1.210   9.906   2.913 -1.4404 -0.1006 -0.5656
28202SOL    HW287884   1.296   9.782   2.923 -1.0262  0.2060 -0.3092
28203SOL     OW87885   4.154   9.962   4.911  0.8461  0.0055  0.0108
28203SOL    HW187886   4.136   9.884   4.964  0.4739 -0.2055 -0.4213
28203SOL    HW287887   4.148  10.035   4.973  1.7145 -0.3488  0.5230
28204SOL     OW87888   7.191   8.210   6.600  0.3232  0.5214 -0.4422
28204SOL    HW187889   7.152   8.290   6.637  1.1004  0.6498  0.1261
28204SOL    HW287890   7.176   8.143   6.667 -1.4846 -0.1780 -1.4529
28205SOL     OW87891   3.684   7.331   1.389  0.5520 -0.3320 -0.0186
28205SOL    HW187892   3.658   7.417   1.356  0.1293 -0.0320  1.0306
28205SOL    HW287893   3.702   7.347   1.482 -1.4317 -1.7443  0.6724
28206SOL     OW87894   8.033   0.348   6.231 -0.3732 -0.0059  0.4008
28206SOL    HW187895   8.128   0.335   6.230 -0.3820 -0.2802  1.6438
28206SOL    HW287896   8.020   0.431   6.276 -0.7962 -1.3007  2.8748
28207SOL     OW87897   5.175  11.088   7.330  0.3869  0.7691  0.3130
28207SOL    HW187898   5.160  10.996   7.350  1.2881  0.3730 -0.7578
28207SOL    HW287899   5.200  11.089   7.238 -2.2656  2.3750 -0.4949
28208SOL     OW87900   9.831   1.679   3.830  0.1041  0.1217 -0.8090
28208SOL    HW187901   9.833   1.775   3.829 -0.8691  0.1772 -3.1058
28208SOL    HW287902   9.739   1.657   3.838  0.3623 -0.6765  0.2290
28209SOL     OW87903   7.662   9.849   5.328  0.2105  0.4654  0.1423
28209SOL    HW187904   7.753   9.861   5.298 -0.1996  1.7009 -0.6749
28209SOL    HW287905   7.637   9.935   5.363 -0.6918  0.1761  0.2215
28210SOL     OW87906   0.422  10.372   9.377  0.1624 -0.0835 -0.3666
28210SOL    HW187907   0.350  10.399   9.434  0.0294  0.3871 -0.7576
28210SOL    HW287908   0.395  10.398   9.289  0.5461 -0.4419 -0.5994
28211SOL     OW87909  11.106   9.336   3.333  0.1817  0.3620 -0.0732
28211SOL    HW187910  11.175   9.284   3.291 -0.8464 -0.2775 -1.0318
28211SOL    HW287911  11.139   9.426   3.331  1.7601 -0.1503  1.1288
28212SOL     OW87912   9.331   4.894   5.810 -0.2542  0.1728 -0.9245
28212SOL    HW187913   9.323   4.850   5.725  1.1982  0.1111 -1.0640
28212SOL    HW287914   9.388   4.836   5.861 -3.4116 -1.3429  1.2281
28213SOL     OW87915  11.270   2.969   9.193  0.8252 -0.3224 -0.0059
28213SOL    HW187916  11.294   3.020   9.271  1.9253 -1.3607  0.3758
28213SOL    HW287917  11.340   2.987   9.131  1.3150 -1.4452  0.1911
28214SOL     OW87918   9.254   9.252   6.250  0.4619  0.1343 -0.4755
28214SOL    HW187919   9.271   9.293   6.166 -2.1477  0.4017 -0.9585
28214SOL    HW287920   9.295   9.310   6.315  1.4717  0.5466 -1.4509
28215SOL     OW87921   4.425   3.666   6.261  0.0039 -0.5209 -0.2860
28215SOL    HW187922   4.391   3.726   6.328  0.3377 -1.2191  0.5233
28215SOL    HW287923   4.488   3.719   6.212  0.7194 -0.3413  0.7780
28216SOL     OW87924   9.620   0.944   5.063 -0.2411 -0.6105  0.3907
28216SOL    HW187925   9.660   0.867   5.103 -0.2411 -1.0278 -0.3917
28216SOL    HW287926   9.625   0.927   4.968  0.5278  0.7347  0.1691
28217SOL     OW87927  10.152   8.053   6.287  0.0266  0.0728  0.2272
28217SOL    HW187928  10.188   8.004   6.361  0.0795  1.4618  1.1477
28217SOL    HW287929  10.127   8.138   6.323 -3.1571 -0.3561 -0.5710
28218SOL     OW87930  11.331   3.664   4.754  0.0903 -0.1689  0.4309
28218SOL    HW187931  11.303   3.692   4.667  0.1526  0.2693  0.5474
28218SOL    HW287932  11.274   3.712   4.814  0.4997  0.0594  0.6472
28219SOL     OW87933   5.336   6.455   0.512  0.5215  0.0217  0.0162
28219SOL    HW187934   5.314   6.545   0.489 -0.1608 -0.1981 -0.2147
28219SOL    HW287935   5.360   6.458   0.604  0.1678  0.3832  0.0981
28220SOL     OW87936   5.529   4.692  10.805  0.4915 -0.9121 -0.1995
28220SOL    HW187937   5.523   4.779  10.768  0.6184  0.3856  2.5836
28220SOL    HW287938   5.618   4.685  10.838  0.8809 -2.6301 -1.4728
28221SOL     OW87939   4.112   2.515   1.150  0.0193 -0.1299  0.5277
28221SOL    HW187940   4.167   2.552   1.219  0.1920  2.0158 -0.6976
28221SOL    HW287941   4.158   2.536   1.068 -1.8792  0.4607 -0.4429
28222SOL     OW87942   5.545   4.467   0.699  0.6220 -0.6202  0.4083
28222SOL    HW187943   5.584   4.555   0.693 -0.5466 -0.1524 -1.0969
28222SOL    HW287944   5.620   4.408   0.699  1.4000  0.3166 -0.3730
28223SOL     OW87945   0.276   0.719   8.157  0.3160  0.5106  0.5088
28223SOL    HW187946   0.329   0.702   8.079  0.7839 -0.2452  0.9805
28223SOL    HW287947   0.186   0.722   8.125  0.4136 -0.7438  0.0746
28224SOL     OW87948   3.749   3.590   1.986 -0.2306 -0.0032  0.2820
28224SOL    HW187949   3.714   3.534   2.057  0.5938  1.2587  1.7494
28224SOL    HW287950   3.842   3.597   2.006  0.6351 -1.9062 -2.5920
28225SOL     OW87951  10.001   7.111   2.208  0.5860 -0.4122 -0.0967
28225SOL    HW187952   9.961   7.035   2.251 -1.0629  0.2984 -0.2729
28225SOL    HW287953  10.086   7.121   2.251 -0.2195 -0.8337  1.7205
28226SOL     OW87954   6.848   1.410   2.766 -0.1732  0.2353  0.1719
28226SOL    HW187955   6.872   1.425   2.675  0.1113  1.1222  0.3866
28226SOL    HW287956   6.931   1.404   2.813 -0.2733  2.7493  0.8271
28227SOL     OW87957  10.235   2.907   0.496  0.6199 -0.7506 -0.0787
28227SOL    HW187958  10.283   2.930   0.576  1.0374 -1.0186 -0.2474
28227SOL    HW287959  10.145   2.892   0.526  0.3494  0.9776  0.0450
28228SOL     OW87960   3.017   3.165   9.923  0.4435 -0.1310 -0.3626
28228SOL    HW187961   2.996   3.255   9.947 -1.9103  0.5418 -4.0339
28228SOL    HW287962   2.942   3.114   9.954  1.2072 -0.6720  0.6523
28229SOL     OW87963   3.041   9.709   8.680 -0.2786 -0.1420 -0.4536
28229SOL    HW187964   3.042   9.783   8.620 -2.6281  1.0432  0.8349
28229SOL    HW287965   3.103   9.733   8.749 -0.1856  0.1019 -0.6238
28230SOL     OW87966   0.765   7.239  10.139 -0.5970 -0.3779  0.3883
28230SOL    HW187967   0.789   7.189  10.061  0.4982  1.5416 -0.5768
28230SOL    HW287968   0.751   7.173  10.207 -1.7568 -2.1216 -1.4395
28231SOL     OW87969   3.062   6.220   5.057  0.0098  0.0475 -0.2964
28231SOL    HW187970   3.060   6.192   4.966 -0.3982 -0.9264 -0.0014
28231SOL    HW287971   3.137   6.175   5.096 -2.1768 -2.9647  0.8476
28232SOL     OW87972   6.690   9.866   3.177 -0.0987  0.4026 -0.5915
28232SOL    HW187973   6.742   9.802   3.129 -0.1414 -0.1287  0.0630
28232SOL    HW287974   6.605   9.824   3.188  0.3700 -0.1101  1.2659
28233SOL     OW87975   5.991   3.029   0.481  0.3541 -0.1307 -0.2572
28233SOL    HW187976   6.018   2.956   0.536 -0.9700 -1.1088 -0.8401
28233SOL    HW287977   5.896   3.036   0.494  0.2977  0.8234 -0.9950
28234SOL     OW87978  11.080   9.290   0.229 -0.1633  0.3784 -0.3127
28234SOL    HW187979  11.123   9.374   0.213 -0.6081  0.8895  1.0244
28234SOL    HW287980  10.988   9.313   0.245 -0.6739 -0.5567 -1.7540
28235SOL     OW87981   8.440   7.431   2.251  0.8058  0.7662 -0.7212
28235SOL    HW187982   8.454   7.515   2.208 -1.5520  2.0970  0.8971
28235SOL    HW287983   8.460   7.447   2.343  1.8732 -0.9409 -0.6022
28236SOL     OW87984   0.399   4.094   0.483 -0.2008 -0.1368 -0.7376
28236SOL    HW187985   0.378   4.048   0.565  0.3847  0.0454 -0.4830
28236SOL    HW287986   0.358   4.040   0.415 -0.1958 -0.6077 -0.3746
28237SOL     OW87987   1.612   9.043   8.865 -0.1496  0.7581 -0.2710
28237SOL    HW187988   1.688   9.052   8.806  0.1373 -0.5467 -0.1282
28237SOL    HW287989   1.555   8.981   8.820 -1.6008  2.4046 -0.8048
28238SOL     OW87990   5.642   4.109   2.124 -0.5621  0.2626  0.0179
28238SOL    HW187991   5.562   4.057   2.124 -1.6192  1.8201  0.0716
28238SOL    HW287992   5.615   4.195   2.157  1.2406  0.6801  0.5213
28239SOL     OW87993  10.375   4.591   8.391 -0.0505  0.1801 -0.0666
28239SOL    HW187994  10.428   4.625   8.464 -0.6560 -1.1177  1.0234
28239SOL    HW287995  10.289   4.629   8.405 -0.6059 -1.3276  0.8911
28240SOL     OW87996   4.985   5.215   2.609  0.0633 -0.5195 -0.0883
28240SOL    HW187997   4.983   5.285   2.675  0.0228  1.0760 -1.7222
28240SOL    HW287998   4.901   5.223   2.564  0.5111 -0.9249 -1.0038
28241SOL     OW87999   2.199   0.122  10.911  0.3927 -0.7781 -0.1624
28241SOL    HW188000   2.104   0.127  10.921  0.6224  2.9121  1.9338
28241SOL    HW288001   2.230   0.084  10.994  0.8053 -0.5652 -0.2164
28242SOL     OW88002   8.314   8.066   5.298  0.3026  0.0786 -0.0082
28242SOL    HW188003   8.309   8.160   5.316  2.0197  0.2582 -0.3075
28242SOL    HW288004   8.306   8.025   5.384  0.9204  0.5704  0.2951
28243SOL     OW88005  11.095   7.620   9.851  0.3531  0.1594 -0.5507
28243SOL    HW188006  11.172   7.603   9.904  0.0818 -0.1740 -0.2546
28243SOL    HW288007  11.067   7.708   9.877  1.3932  0.8396 -1.6300
28244SOL     OW88008   0.552  11.242  10.092 -0.3552  0.6340  0.0963
28244SOL    HW188009   0.484  11.290  10.139 -2.1933 -1.8586  0.1765
28244SOL    HW288010   0.600  11.196  10.161  0.5473  1.2795 -0.0830
28245SOL     OW88011   9.266   1.614   7.826 -0.0628  0.4001  0.4926
28245SOL    HW188012   9.254   1.545   7.891 -2.2744  0.7243  0.5060
28245SOL    HW288013   9.344   1.661   7.855  0.2187 -0.7470  1.7068
28246SOL     OW88014   5.546   6.237   6.665 -0.7810  0.1080  0.5791
28246SOL    HW188015   5.514   6.156   6.626  2.8256 -2.1142  1.7468
28246SOL    HW288016   5.539   6.224   6.759  1.4703  0.3025  0.8314
28247SOL     OW88017   8.433   3.301   3.963  0.0514 -0.1685 -0.0585
28247SOL    HW188018   8.399   3.246   4.034 -0.2301 -1.2056 -0.9821
28247SOL    HW288019   8.457   3.240   3.894 -0.4898  0.8893 -1.2206
28248SOL     OW88020   1.263   8.000   5.948  0.5159  0.0869  0.2463
28248SOL    HW188021   1.262   8.093   5.924 -0.1545  0.0899  0.2701
28248SOL    HW288022   1.274   7.954   5.865  1.2331  0.1894  0.2727
28249SOL     OW88023   4.731   5.728   1.278 -0.1854 -0.5158  0.4756
28249SOL    HW188024   4.800   5.771   1.329  0.8779 -1.0837 -0.4634
28249SOL    HW288025   4.709   5.791   1.209 -0.6116 -0.3462  0.7578
28250SOL     OW88026   6.107   6.017  11.195 -0.0183  0.0647 -0.2066
28250SOL    HW188027   6.080   5.971  11.274  1.3864  1.0660  0.9200
28250SOL    HW288028   6.138   6.102  11.226 -0.0580  0.7495 -1.9195
28251SOL     OW88029   0.452   2.845  11.164  0.3286 -0.1272 -0.0049
28251SOL    HW188030   0.393   2.900  11.216  0.5960  0.6424 -0.4896
28251SOL    HW288031   0.526   2.903  11.143  0.1956 -0.3929 -1.2995
28252SOL     OW88032  10.625   9.439   4.594  0.7068 -0.2384 -0.5160
28252SOL    HW188033  10.534   9.464   4.582  0.6066  0.7222  1.7812
28252SOL    HW288034  10.648   9.393   4.513 -1.1031  1.5105 -2.1532
28253SOL     OW88035   5.601   5.437   8.012 -0.0745 -0.2565 -0.0542
28253SOL    HW188036   5.523   5.493   8.010  1.0039  1.3932  1.4853
28253SOL    HW288037   5.675   5.497   8.005  1.1391 -1.4416  1.6449
28254SOL     OW88038   4.046   7.583   0.287  0.0257  0.0324  0.0418
28254SOL    HW188039   4.044   7.493   0.319  0.9823  0.1079  0.3347
28254SOL    HW288040   4.011   7.635   0.359 -1.2761 -0.1614 -0.4123
28255SOL     OW88041  10.723  10.583   9.600 -0.0969  0.0087  0.0967
28255SOL    HW188042  10.713  10.569   9.506  0.9357 -2.7914  0.2969
28255SOL    HW288043  10.634  10.574   9.635 -0.3531  0.1122 -0.5211
28256SOL     OW88044   6.687   5.385   1.460  0.3223  0.0501 -0.4135
28256SOL    HW188045   6.706   5.348   1.546 -0.7391  1.5044  0.4864
28256SOL    HW288046   6.669   5.309   1.405 -1.8332 -0.8457  1.3656
28257SOL     OW88047   1.643   3.713   8.604  0.4060  0.4675 -0.4895
28257SOL    HW188048   1.614   3.788   8.655  0.9496  0.9568 -0.8780
28257SOL    HW288049   1.629   3.637   8.661  1.0466  1.0025  0.4079
28258SOL     OW88050   8.953  10.397   4.348 -0.0029  0.5662 -0.4379
28258SOL    HW188051   8.990  10.346   4.419 -0.1188  0.1232 -0.6928
28258SOL    HW288052   8.877  10.441   4.386 -2.1073 -2.2496 -1.0506
28259SOL     OW88053  11.048   9.846   6.834 -0.4128 -0.2504  0.3037
28259SOL    HW188054  10.978   9.790   6.868 -0.4003 -0.5704 -0.1930
28259SOL    HW288055  11.107   9.786   6.788 -1.2097  0.3531 -1.5924
28260SOL     OW88056   8.979   7.307   9.322  0.3833 -0.0242  0.3150
28260SOL    HW188057   8.970   7.398   9.352 -3.2151  0.2771 -1.1496
28260SOL    HW288058   8.906   7.261   9.364  0.5091 -1.5924 -1.0792
28261SOL     OW88059   2.538  10.771   8.362  0.2595  0.9528  0.0595
28261SOL    HW188060   2.508  10.856   8.395  1.0041  0.6445  1.6543
28261SOL    HW288061   2.603  10.793   8.295 -2.1180  1.6164 -2.2059
28262SOL     OW88062   3.657   1.836   8.316  0.2716  0.5648 -0.1183
28262SOL    HW188063   3.650   1.898   8.387 -1.9221  0.3673 -0.0868
28262SOL    HW288064   3.679   1.753   8.358  3.3612  1.2424 -0.1774
28263SOL     OW88065   8.957  11.023   6.039 -0.2721 -0.3323 -0.7105
28263SOL    HW188066   8.901  10.947   6.028 -2.7081  1.0780  1.0902
28263SOL    HW288067   8.935  11.058   6.126  2.3533  1.1950 -0.5222
28264SOL     OW88068   3.215   9.863   4.463  0.0725  0.6737 -0.3366
28264SOL    HW188069   3.173   9.786   4.503 -0.7644  1.3422  0.0930
28264SOL    HW288070   3.143   9.913   4.426  0.7558  0.4955 -1.9990
28265SOL     OW88071   2.792   6.573   9.107 -0.2065 -0.1242  0.1682
28265SOL    HW188072   2.845   6.495   9.123 -1.9005 -1.3607  0.0130
28265SOL    HW288073   2.740   6.551   9.030 -2.1722  0.3331  1.2975
28266SOL     OW88074   7.486   8.973   9.883 -0.5387 -0.7350  0.0241
28266SOL    HW188075   7.544   9.033   9.929 -1.8998  0.0478  0.8072
28266SOL    HW288076   7.494   8.996   9.791  0.9207 -1.1452  0.0333
28267SOL     OW88077  10.242   6.208   0.577  0.0300 -0.0497 -0.9757
28267SOL    HW188078  10.327   6.164   0.582  0.1845  0.3322  0.0354
28267SOL    HW288079  10.181   6.140   0.550  0.7596 -0.1703 -2.4557
28268SOL     OW88080   5.065  11.093  11.070 -0.3094 -0.3719  0.4668
28268SOL    HW188081   5.001  11.077  11.001 -0.1406  1.1179 -0.0834
28268SOL    HW288082   5.140  11.131  11.024 -0.5047  1.4119  1.5151
28269SOL     OW88083   7.602   6.066   9.035 -0.3509 -0.1301 -0.3483
28269SOL    HW188084   7.674   6.128   9.024 -0.9705  0.4907 -1.0666
28269SOL    HW288085   7.524   6.121   9.040 -0.8899 -0.8379 -0.7606
28270SOL     OW88086  11.369   8.915   2.219 -0.3568 -0.0569 -0.3231
28270SOL    HW188087  11.396   8.838   2.169  0.1416 -0.6931  0.8601
28270SOL    HW288088  11.383   8.889   2.311 -0.6500  1.2700  0.1163
28271SOL     OW88089   0.731   3.770   3.788  0.1984  0.5433  0.1569
28271SOL    HW188090   0.723   3.833   3.860 -0.1711  2.6758 -1.6389
28271SOL    HW288091   0.641   3.755   3.760  0.2681 -0.9988  0.6739
28272SOL     OW88092   2.318   6.391   5.232 -0.3356 -0.4926 -0.2139
28272SOL    HW188093   2.349   6.466   5.181 -1.5195 -0.5043 -0.9925
28272SOL    HW288094   2.310   6.320   5.168 -0.7943 -0.8185  0.1989
28273SOL     OW88095   8.722   0.353   8.676  0.1384  0.1214  0.0449
28273SOL    HW188096   8.634   0.320   8.695  0.5527 -0.7710  0.5073
28273SOL    HW288097   8.775   0.274   8.666  0.9022  0.6485 -0.1495
28274SOL     OW88098   9.681   4.949   2.035 -0.3748  0.3023 -0.0335
28274SOL    HW188099   9.645   5.031   2.001 -0.9926  0.3895  0.7974
28274SOL    HW288100   9.689   4.892   1.958 -1.6055  0.5416 -0.3616
28275SOL     OW88101   8.874   2.563   5.442 -0.0507 -0.3888 -0.1485
28275SOL    HW188102   8.781   2.572   5.461  0.2107 -1.8899  2.1826
28275SOL    HW288103   8.880   2.488   5.383 -0.3982  0.7784 -1.7409
28276SOL     OW88104   4.217   9.232   9.935 -0.1280 -0.4838  0.5416
28276SOL    HW188105   4.165   9.158   9.968 -0.7648 -1.6805 -2.6744
28276SOL    HW288106   4.287   9.191   9.885  0.3036  1.1053 -0.2248
28277SOL     OW88107   9.242   2.520   1.405 -0.1586 -0.3429 -0.5362
28277SOL    HW188108   9.196   2.440   1.380  1.2419 -0.8810 -1.4735
28277SOL    HW288109   9.305   2.535   1.335  0.7380  0.6739  0.4455
28278SOL     OW88110  10.341   1.611   0.812  0.1933  0.5152  0.3111
28278SOL    HW188111  10.389   1.659   0.880  0.5753  0.0563  0.3668
28278SOL    HW288112  10.391   1.531   0.799  0.6686  1.0277 -1.2079
28279SOL     OW88113   9.694  10.723   8.038 -0.3760 -0.2196 -0.4903
28279SOL    HW188114   9.779  10.682   8.057 -0.1626  0.4732  0.0989
28279SOL    HW288115   9.631  10.673   8.090  0.0068  0.7463  0.9493
28280SOL     OW88116   1.585   3.562   9.336  0.1329  0.0230  0.6987
28280SOL    HW188117   1.608   3.650   9.366 -0.8901 -0.1147  1.9547
28280SOL    HW288118   1.658   3.536   9.280  0.7098  1.4499  0.7496
28281SOL     OW88119  10.582   6.655  10.807 -0.0554 -0.0793  0.2445
28281SOL    HW188120  10.504   6.602  10.793 -0.5069  0.4734  0.6592
28281SOL    HW288121  10.615   6.673  10.719  1.9893 -3.7459  0.0436
28282SOL     OW88122   3.976   2.575   4.992 -0.0711  0.0410  0.4055
28282SOL    HW188123   3.952   2.607   4.905 -1.5922  1.4182  1.2704
28282SOL    HW288124   3.991   2.482   4.981  0.6159  0.3315 -1.4850
28283SOL     OW88125   5.343   0.701   8.385 -0.4367 -0.2302  0.4444
28283SOL    HW188126   5.382   0.731   8.467  0.5379 -1.2680  0.3731
28283SOL    HW288127   5.399   0.738   8.317 -3.1155  3.5645 -0.0618
28284SOL     OW88128  11.354   9.251   7.922 -0.2854  0.1353  0.0501
28284SOL    HW188129  11.448   9.260   7.907 -0.5465 -0.6991 -2.5549
28284SOL    HW288130  11.347   9.198   8.002  1.5512 -2.3903 -1.3267
28285SOL     OW88131   3.631   0.202   1.720 -0.1915 -0.0017  0.2210
28285SOL    HW188132   3.600   0.247   1.642 -0.2927 -0.4183  0.0173
28285SOL    HW288133   3.555   0.197   1.777 -0.4922 -0.9397 -0.2397
28286SOL     OW88134   8.587   8.718   4.057 -0.3538  0.1563 -0.1160
28286SOL    HW188135   8.565   8.654   4.125  0.5820 -0.8056 -0.6945
28286SOL    HW288136   8.683   8.725   4.060 -0.2878  0.0754 -1.3359
28287SOL     OW88137   1.411   1.349  10.300 -0.2131  0.0368 -0.0500
28287SOL    HW188138   1.447   1.437  10.293 -2.2022  0.8616 -0.7289
28287SOL    HW288139   1.441   1.304  10.221  0.0838  0.3800 -0.1357
28288SOL     OW88140   6.788   5.554   1.268 -0.3056  0.1819  0.4566
28288SOL    HW188141   6.829   5.628   1.312  0.6771 -0.8525  1.3192
28288SOL    HW288142   6.773   5.489   1.336 -0.8913 -0.5523 -0.3331
28289SOL     OW88143   8.713   5.957   6.712  0.1755 -0.5973  0.3286
28289SOL    HW188144   8.746   6.045   6.690  0.0102 -0.8319 -0.9097
28289SOL    HW288145   8.620   5.970   6.729  0.6676 -0.0628  3.0838
28290SOL     OW88146   8.052   5.314   3.090 -0.0800  0.5772  0.1058
28290SOL    HW188147   8.036   5.238   3.033  0.6603  0.8471 -0.4851
28290SOL    HW288148   8.003   5.295   3.169 -1.8005  0.5700 -0.9198
28291SOL     OW88149   1.774   7.000   3.284 -0.6282  0.2377  0.0708
28291SOL    HW188150   1.791   7.016   3.191 -0.2820  0.8079  0.2257
28291SOL    HW288151   1.749   6.908   3.288  0.1984 -0.0245 -0.4757
28292SOL     OW88152   6.499   1.743   8.183  0.2462  0.4141 -0.5105
28292SOL    HW188153   6.489   1.836   8.164 -1.8293  0.4090  0.3289
28292SOL    HW288154   6.429   1.701   8.133 -0.1097 -0.4573  0.6706
28293SOL     OW88155  10.548   4.826   7.816 -0.4776  0.3071  0.3009
28293SOL    HW188156  10.468   4.836   7.765 -0.4616  0.1108  0.2358
28293SOL    HW288157  10.559   4.731   7.824 -2.2035  0.2100  3.3450
28294SOL     OW88158   0.351  10.323   4.959  0.3431  0.0454 -0.3363
28294SOL    HW188159   0.266  10.349   4.924 -0.1385 -0.4891  0.3990
28294SOL    HW288160   0.388  10.267   4.891 -1.3158 -2.3822  0.6011
28295SOL     OW88161  11.349   5.933  10.248  0.9195 -0.5249 -0.2410
28295SOL    HW188162  11.279   5.913  10.187  0.7710 -0.6603 -0.0298
28295SOL    HW288163  11.313   6.002  10.304  1.0783 -0.3540 -0.3471
28296SOL     OW88164   2.516   4.733   7.708 -0.1200 -0.1682  1.0854
28296SOL    HW188165   2.595   4.701   7.751  0.5059  0.0113  0.0990
28296SOL    HW288166   2.523   4.702   7.618 -0.3017  1.3068  0.5296
28297SOL     OW88167   9.863   9.184   8.759  0.2760 -0.1696  0.6930
28297SOL    HW188168   9.797   9.115   8.759 -0.0958  0.1564  2.0751
28297SOL    HW288169   9.828   9.251   8.701  0.2052 -0.7269  0.0811
28298SOL     OW88170   5.577   4.561  10.531 -0.1049  0.2531  0.2705
28298SOL    HW188171   5.568   4.606  10.615 -0.0574 -0.2045  0.5237
28298SOL    HW288172   5.489   4.558  10.495 -0.2505 -0.2154  0.6554
28299SOL     OW88173   1.932   8.524   5.853 -0.4321  0.0899  0.1540
28299SOL    HW188174   1.917   8.606   5.899  0.6021  0.0730  0.5498
28299SOL    HW288175   2.017   8.493   5.885 -1.4942 -1.9491  1.2253
28300SOL     OW88176   8.034   9.015   2.198 -0.1635  1.0208 -0.2038
28300SOL    HW188177   8.115   9.052   2.162  0.0834  0.4546 -0.2388
28300SOL    HW288178   8.013   8.943   2.139 -0.7409  1.2093 -0.2401
28301SOL     OW88179   5.214   3.452   0.303  0.0843 -0.2575 -0.2980
28301SOL    HW188180   5.258   3.392   0.243 -0.0731 -1.6920  0.9648
28301SOL    HW288181   5.285   3.491   0.355  0.0534 -0.8175  0.1730
28302SOL     OW88182   0.782   3.845  10.857  0.3823  0.3559 -0.2468
28302SOL    HW188183   0.707   3.877  10.907  0.2320  0.6839 -0.6718
28302SOL    HW288184   0.747   3.773  10.805  0.3823  0.4452 -0.3716
28303SOL     OW88185   8.312   2.714  10.147 -0.5351  0.6163  0.4974
28303SOL    HW188186   8.275   2.723  10.235 -1.1736  0.6423  0.2368
28303SOL    HW288187   8.256   2.649  10.104 -0.6212  1.0598 -0.0839
28304SOL     OW88188   5.957   1.131  10.842 -0.0071 -0.1148 -0.3022
28304SOL    HW188189   6.013   1.131  10.919 -0.5709  1.3154  0.1398
28304SOL    HW288190   5.973   1.046  10.800  0.9666 -0.5431  0.8934
28305SOL     OW88191   2.952   3.955   4.561 -0.2474 -0.0712  0.3219
28305SOL    HW188192   2.999   3.898   4.500  0.4775 -0.1777  0.9564
28305SOL    HW288193   2.996   3.941   4.645 -0.0377  1.4278  0.4920
28306SOL     OW88194   0.675   8.714   6.714  0.4592 -0.2045  0.0295
28306SOL    HW188195   0.736   8.731   6.642  0.0930 -0.3360 -0.3246
28306SOL    HW288196   0.600   8.673   6.671  0.3784 -0.5995  0.5426
28307SOL     OW88197   8.743   8.692   5.398 -0.2572 -0.4399 -0.0216
28307SOL    HW188198   8.765   8.769   5.344  2.2375  0.4194  2.0431
28307SOL    HW288199   8.779   8.618   5.350 -1.7195 -0.2664 -1.4914
28308SOL     OW88200  11.335   7.872   6.403 -0.4685  0.2244 -0.2900
28308SOL    HW188201  11.334   7.914   6.317  0.6967  0.8619 -0.0193
28308SOL    HW288202  11.393   7.927   6.456 -0.0409 -0.9476  0.4984
28309SOL     OW88203   2.899   5.936   4.412 -1.2573 -0.3765  0.4207
28309SOL    HW188204   2.850   6.018   4.416 -0.7345 -0.0850  0.9407
28309SOL    HW288205   2.946   5.932   4.495  0.3097 -0.1944 -0.4234
28310SOL     OW88206  10.186   9.767   0.750  0.8187  0.2813 -0.4105
28310SOL    HW188207  10.161   9.680   0.781 -0.8892  0.9997  0.3691
28310SOL    HW288208  10.218   9.752   0.661 -0.9530 -0.9978 -0.9051
28311SOL     OW88209   4.338   9.830   4.639  0.2903 -0.2259  0.6704
28311SOL    HW188210   4.355   9.792   4.552  0.2964  1.7986 -0.2737
28311SOL    HW288211   4.245   9.815   4.654  0.3855 -1.0081  0.5435
28312SOL     OW88212  10.322   5.205   5.604  0.3844  0.1803 -0.4078
28312SOL    HW188213  10.336   5.174   5.693 -0.3859  1.7751  0.3094
28312SOL    HW288214  10.277   5.132   5.560 -0.8158  0.0079  1.0240
28313SOL     OW88215   9.505   7.422   8.716 -0.5128  0.7727  0.6000
28313SOL    HW188216   9.567   7.357   8.748 -0.6998  0.4522  0.3127
28313SOL    HW288217   9.436   7.371   8.674  0.0391  1.2059 -0.8935
28314SOL     OW88218   3.085  10.152   5.542 -0.1420  0.0806 -0.3998
28314SOL    HW188219   3.001  10.158   5.589 -0.6450 -0.2586 -1.2278
28314SOL    HW288220   3.060  10.137   5.451  0.8190  0.4538 -0.7399
28315SOL     OW88221   4.821   9.984   6.359  0.0520 -0.5698 -0.2550
28315SOL    HW188222   4.874   9.908   6.384  1.4574  0.3271 -0.4340
28315SOL    HW288223   4.739   9.946   6.326  0.6902 -2.0037 -0.2491
28316SOL     OW88224   9.651   0.075   5.317 -0.3155  0.0641  0.3478
28316SOL    HW188225   9.582   0.023   5.358 -0.4451  1.1380  1.5607
28316SOL    HW288226   9.615   0.101   5.232 -1.4413  0.6462  0.9801
28317SOL     OW88227   8.429   8.505   7.878 -0.1633  0.3252 -0.1064
28317SOL    HW188228   8.376   8.484   7.800 -1.7370  0.5344  0.8618
28317SOL    HW288229   8.514   8.467   7.859 -0.9959 -1.0960 -1.2322
28318SOL     OW88230   7.893   6.018   8.096  0.6967 -0.2515 -0.0110
28318SOL    HW188231   7.848   6.009   8.181  0.6738  0.9312  0.1093
28318SOL    HW288232   7.941   5.935   8.087 -2.7433 -2.3683 -0.9238
28319SOL     OW88233  10.707   3.371   4.035 -0.2190 -0.8351 -0.4171
28319SOL    HW188234  10.735   3.440   3.974  0.4493 -1.3530 -0.7149
28319SOL    HW288235  10.776   3.305   4.029 -0.4768 -1.1946  0.4202
28320SOL     OW88236   2.517   5.001   1.518 -0.0162  0.2847  0.3218
28320SOL    HW188237   2.569   5.079   1.500 -0.2622  0.2969 -0.3903
28320SOL    HW288238   2.513   4.955   1.434  0.4695 -0.7161  0.8201
28321SOL     OW88239   5.666   5.049   8.709  0.2772 -0.3394  0.1992
28321SOL    HW188240   5.669   5.011   8.796 -0.5632  0.3235  0.5220
28321SOL    HW288241   5.624   5.134   8.720  0.7952  0.0643 -0.7407
28322SOL     OW88242   2.186   3.110  11.027 -0.6083  0.3737 -0.6528
28322SOL    HW188243   2.210   3.092  10.936 -0.6390  0.7566 -0.7375
28322SOL    HW288244   2.148   3.198  11.025 -0.2263  0.5519 -0.2005
28323SOL     OW88245   0.565  10.075   9.998 -0.5083 -0.1862  0.5175
28323SOL    HW188246   0.614  10.104   9.921 -0.8099  0.9354  0.7322
28323SOL    HW288247   0.582   9.981  10.003  1.8057  0.1813  0.7042
28324SOL     OW88248  11.009   7.628  10.598 -0.2606  0.5664  0.1946
28324SOL    HW188249  10.986   7.719  10.579  0.2776  0.5070 -0.8013
28324SOL    HW288250  11.101   7.621  10.570 -0.4588 -0.4208 -0.2314
28325SOL     OW88251  10.929  10.011   4.232  0.2086 -0.1526  0.1477
28325SOL    HW188252  10.863   9.955   4.192  1.2402 -2.2673  1.2517
28325SOL    HW288253  10.901  10.021   4.323 -0.3311  1.7798 -0.1867
28326SOL     OW88254   1.732   2.845   6.953 -0.1374  0.6739  0.5831
28326SOL    HW188255   1.747   2.773   7.015 -1.5195 -1.3710 -1.3002
28326SOL    HW288256   1.819   2.865   6.918  0.2054 -0.6157  0.6378
28327SOL     OW88257   2.548   5.372  11.269  0.5551 -0.6574  0.3047
28327SOL    HW188258   2.478   5.375  11.203 -0.8936 -1.3429  1.7419
28327SOL    HW288259   2.535   5.452  11.320  1.9516  0.0967 -0.4650
28328SOL     OW88260   6.489   6.325   0.633 -0.0932 -0.1802 -0.3939
28328SOL    HW188261   6.431   6.332   0.709  0.2252  2.2149 -0.3004
28328SOL    HW288262   6.574   6.355   0.665 -0.0407  1.2542 -1.7480
28329SOL     OW88263   3.876   6.236   1.059  0.9230 -0.1439  0.1602
28329SOL    HW188264   3.926   6.227   1.140 -0.9612 -0.2501  1.3580
28329SOL    HW288265   3.785   6.237   1.086  0.1388 -1.6965 -2.0951
28330SOL     OW88266   1.790   7.141   1.752  0.2918 -0.0814 -0.2995
28330SOL    HW188267   1.707   7.117   1.710 -0.7233 -0.5716  1.8422
28330SOL    HW288268   1.767   7.215   1.809  1.3678 -0.1317  0.2095
28331SOL     OW88269   3.267   8.823   7.468  0.3920 -0.0215 -0.4965
28331SOL    HW188270   3.231   8.900   7.423 -1.0064 -0.7472 -0.6783
28331SOL    HW288271   3.345   8.800   7.417  0.1946  0.6040 -1.0987
28332SOL     OW88272   9.138  10.723   3.704 -0.0278 -0.3442  0.0021
28332SOL    HW188273   9.092  10.649   3.744  0.5851 -0.1768  1.0422
28332SOL    HW288274   9.222  10.726   3.749 -0.0333  0.9638 -0.0407
28333SOL     OW88275   2.868   7.947   3.388 -0.3146  0.2268 -0.2358
28333SOL    HW188276   2.822   7.914   3.311 -2.6692 -0.0232  1.1695
28333SOL    HW288277   2.856   7.878   3.454  1.8291  0.3316  0.3426
28334SOL     OW88278   2.040   5.700   3.012 -0.0590  0.0677 -0.3037
28334SOL    HW188279   1.982   5.728   3.084 -0.4200 -1.6572  0.1138
28334SOL    HW288280   2.125   5.685   3.053  0.5274  1.8531 -0.7831
28335SOL     OW88281   5.397   4.061   5.448  0.5260  0.2453 -0.4486
28335SOL    HW188282   5.413   4.065   5.542 -0.5900 -0.7394 -0.1983
28335SOL    HW288283   5.302   4.051   5.440  0.7924 -1.9485 -1.5754
28336SOL     OW88284   6.593   3.420   3.699  0.2286 -0.0552 -0.7088
28336SOL    HW188285   6.538   3.488   3.739  0.1874 -0.5954  0.1557
28336SOL    HW288286   6.682   3.455   3.704  0.2303 -0.1334 -0.0974
28337SOL     OW88287   5.594  10.404   6.532  0.3098 -0.0688 -0.3564
28337SOL    HW188288   5.516  10.413   6.586  0.3911  2.2500 -0.5210
28337SOL    HW288289   5.568  10.441   6.447  1.0938 -0.8347 -0.9432
28338SOL     OW88290   9.814   9.326   0.566 -0.3743  0.0376  0.0490
28338SOL    HW188291   9.797   9.416   0.591  0.6132  0.1032  0.5345
28338SOL    HW288292   9.895   9.303   0.611  0.7632 -0.2619 -2.0189
28339SOL     OW88293   2.542   7.631   5.586  0.0133  0.1893  0.4318
28339SOL    HW188294   2.464   7.593   5.627 -0.7561  0.8812 -0.3487
28339SOL    HW288295   2.527   7.621   5.492  1.0746 -0.0498  0.2746
28340SOL     OW88296   2.298   2.026   7.979  0.3736 -0.0575  0.2324
28340SOL    HW188297   2.275   1.974   8.056 -0.3512 -0.3810 -0.1915
28340SOL    HW288298   2.333   2.107   8.015  0.0599 -0.2058  0.9028
28341SOL     OW88299   8.315   7.443   1.401  0.7097 -0.4351 -0.7537
28341SOL    HW188300   8.311   7.352   1.434  3.8794  0.1309  1.7446
28341SOL    HW288301   8.263   7.493   1.464 -1.4044 -0.4703 -2.3789
28342SOL     OW88302   3.293   0.122   9.538  0.0674 -0.8322  0.2344
28342SOL    HW188303   3.302   0.139   9.632  0.0975 -0.3549  0.1471
28342SOL    HW288304   3.303   0.027   9.530  1.5882 -0.7233  0.5540
28343SOL     OW88305   1.582   6.751   6.805 -0.1026 -0.4190  0.1640
28343SOL    HW188306   1.643   6.682   6.779 -1.0216 -2.2570  2.5369
28343SOL    HW288307   1.496   6.714   6.788 -0.6202  0.9939 -0.4289
28344SOL     OW88308   7.129   3.735  10.800 -0.2739  0.6318  0.3442
28344SOL    HW188309   7.120   3.773  10.887 -0.0708 -0.8077  1.0222
28344SOL    HW288310   7.129   3.811  10.741 -0.3212  1.6400  1.5873
28345SOL     OW88311   1.928   6.023   2.414 -0.4669  0.1847  0.1425
28345SOL    HW188312   1.885   6.108   2.420 -1.1482 -0.0290 -1.2062
28345SOL    HW288313   1.870   5.971   2.358 -0.9236 -1.7410  2.2831
28346SOL     OW88314  10.728   7.017   1.260 -0.4252  0.5066 -0.1986
28346SOL    HW188315  10.786   7.081   1.300  0.0497 -0.1853  0.2278
28346SOL    HW288316  10.686   7.065   1.188  1.2572  0.8096 -1.0296
28347SOL     OW88317   3.881   6.553   7.489  0.1313  0.3345  0.2153
28347SOL    HW188318   3.954   6.492   7.485 -1.1717 -1.3250  0.3476
28347SOL    HW288319   3.919   6.635   7.519  1.4080 -1.5161  4.3877
28348SOL     OW88320   7.962   3.820   9.867 -0.6496 -0.1813 -0.7419
28348SOL    HW188321   7.906   3.826   9.790 -0.3348 -3.2779 -1.3251
28348SOL    HW288322   8.041   3.775   9.837  0.4607  0.5319  0.9297
28349SOL     OW88323   1.970  10.493   2.197  0.3518 -0.0737  0.6943
28349SOL    HW188324   2.064  10.504   2.206  0.2466 -0.8622  4.5602
28349SOL    HW288325   1.934  10.580   2.216  0.2270  0.5913 -2.1950
28350SOL     OW88326   7.468   8.975  10.935  0.0291 -0.2017  0.3585
28350SOL    HW188327   7.434   9.065  10.931 -2.1662 -0.9674  0.3823
28350SOL    HW288328   7.390   8.920  10.942  1.3693 -2.0745  1.4741
28351SOL     OW88329   6.634  10.174   5.364 -0.5091 -0.3038 -0.0051
28351SOL    HW188330   6.688  10.142   5.292  0.6828 -0.3133  0.8609
28351SOL    HW288331   6.583  10.246   5.327  0.3919 -0.0383 -0.7518
28352SOL     OW88332   9.626   8.187   3.451 -0.0823 -0.7944 -0.5668
28352SOL    HW188333   9.606   8.274   3.416 -0.2832 -0.4336  0.4156
28352SOL    HW288334   9.565   8.128   3.408 -1.3291 -0.1370  0.2477
28353SOL     OW88335   4.575   4.658   4.104  0.0346  0.2197  0.9142
28353SOL    HW188336   4.542   4.746   4.124 -0.9803 -0.0869  0.6333
28353SOL    HW288337   4.629   4.636   4.180  1.1192  1.4800  0.5361
28354SOL     OW88338   0.960   5.288  10.569 -0.2619  0.1534  0.4260
28354SOL    HW188339   0.893   5.219  10.570  0.5750 -0.7552 -1.3833
28354SOL    HW288340   0.918   5.361  10.523 -0.3191 -0.0804  0.1023
28355SOL     OW88341   6.057   7.445   1.536 -0.1168  0.0365 -0.3350
28355SOL    HW188342   5.964   7.463   1.522 -0.2674 -1.4498 -1.5223
28355SOL    HW288343   6.093   7.434   1.448  0.2668 -3.4450  0.1246
28356SOL     OW88344  11.313  10.652   8.764 -0.0897 -0.3017  0.1831
28356SOL    HW188345  11.307  10.619   8.854 -2.7796  1.4934  0.7782
28356SOL    HW288346  11.267  10.736   8.766  2.2070  1.1974 -2.3031
28357SOL     OW88347   0.758   7.169   3.353 -0.2857  0.5248  0.1143
28357SOL    HW188348   0.830   7.206   3.405 -0.7298  1.4899  0.0731
28357SOL    HW288349   0.701   7.244   3.336 -0.2135  0.2091 -1.6635
28358SOL     OW88350   4.712   6.062   0.015  0.0081  0.3926 -0.1908
28358SOL    HW188351   4.643   6.128   0.021 -0.7839 -0.4247  0.0380
28358SOL    HW288352   4.747   6.056   0.103 -1.5923 -1.1832  0.4098
28359SOL     OW88353   2.833   7.909   4.240 -0.6309  0.6086 -0.1385
28359SOL    HW188354   2.753   7.875   4.202 -0.5995 -0.6334  0.8310
28359SOL    HW288355   2.903   7.878   4.182 -0.6642 -0.4862  0.3666
28360SOL     OW88356   7.393   7.043   8.729  0.3105  0.5302 -0.2177
28360SOL    HW188357   7.417   7.135   8.744  0.3071  0.6088 -0.6623
28360SOL    HW288358   7.412   7.029   8.636 -0.0190  0.1822 -0.2332
28361SOL     OW88359   7.740   4.429   2.875  0.0354 -0.4433 -0.2771
28361SOL    HW188360   7.794   4.377   2.815  0.7661  0.2147 -0.2015
28361SOL    HW288361   7.674   4.469   2.819  1.0944  0.6732 -0.7723
28362SOL     OW88362   9.133   2.953   7.819  0.0230  0.6184 -0.5578
28362SOL    HW188363   9.193   2.879   7.831  1.3065  1.6983  0.0202
28362SOL    HW288364   9.056   2.931   7.870  0.7662  0.0724  0.3490
28363SOL     OW88365   4.978   6.645   1.682 -0.1242  0.0550 -0.2798
28363SOL    HW188366   4.948   6.682   1.598 -1.5869  2.6139  1.2319
28363SOL    HW288367   5.071   6.630   1.670 -0.6238 -1.6236 -2.9741
28364SOL     OW88368   8.869   9.189   2.273 -0.1867 -0.0182  0.0295
28364SOL    HW188369   8.930   9.148   2.211  1.0363 -0.2081  1.3239
28364SOL    HW288370   8.859   9.278   2.240  0.9876  0.0894 -0.0984
28365SOL     OW88371   6.762   8.038   3.031 -0.4562 -0.2468 -0.1872
28365SOL    HW188372   6.824   8.093   2.982 -1.3937  0.1733 -0.9354
28365SOL    HW288373   6.693   8.098   3.058 -1.3550 -0.9959 -0.7731
28366SOL     OW88374   7.993  10.082   9.910 -0.2761 -0.3109  0.5158
28366SOL    HW188375   8.062  10.017   9.925 -1.5048 -1.4823  1.4475
28366SOL    HW288376   7.916  10.029   9.888 -0.4975  1.0417 -2.2929
28367SOL     OW88377   5.831   5.044   7.384  0.2731 -0.6402  0.0588
28367SOL    HW188378   5.768   4.973   7.375  0.4991 -0.9301  0.6533
28367SOL    HW288379   5.819   5.076   7.474  0.5655 -0.3086 -0.0165
28368SOL     OW88380   9.935   2.586   9.200 -0.4845  0.3312 -0.1777
28368SOL    HW188381   9.992   2.635   9.260 -0.0667 -1.4868  1.0011
28368SOL    HW288382   9.971   2.603   9.113  0.6257  0.8252  0.3562
28369SOL     OW88383   6.418   5.150   5.788 -0.5696 -0.5900 -0.1416
28369SOL    HW188384   6.448   5.065   5.819  1.6522 -0.3379 -1.4032
28369SOL    HW288385   6.400   5.137   5.695 -1.3288  0.0768 -0.1029
28370SOL     OW88386   6.184   2.885   3.153  0.3288 -0.0840 -0.4511
28370SOL    HW188387   6.125   2.844   3.090 -0.6927  0.9352 -0.1962
28370SOL    HW288388   6.197   2.818   3.220 -0.7388 -0.2585 -0.3981
28371SOL     OW88389   4.063   5.339  10.039  0.5205  0.0858  0.0150
28371SOL    HW188390   3.997   5.395  10.080  0.1299  0.0698 -0.5671
28371SOL    HW288391   4.082   5.272  10.104 -2.2343 -1.6641 -0.8020
28372SOL     OW88392  10.007   9.291   6.969 -0.4014  0.3954 -0.6715
28372SOL    HW188393  10.076   9.251   7.022 -1.0919 -0.2730 -0.2387
28372SOL    HW288394   9.983   9.223   6.906  1.5337  1.7370 -2.9987
28373SOL     OW88395   9.389  10.574   0.204  0.2472 -0.0736 -0.5372
28373SOL    HW188396   9.410  10.516   0.278 -2.9867 -2.3476 -1.1696
28373SOL    HW288397   9.441  10.539   0.131 -0.4597 -1.2136 -0.5181
28374SOL     OW88398   2.993   6.047   1.966  0.4987 -0.4361 -0.2621
28374SOL    HW188399   3.037   6.127   1.936 -1.2675  0.9915  0.7596
28374SOL    HW288400   3.064   5.983   1.975  2.0577  1.1568 -0.6075
28375SOL     OW88401   3.958   6.055   8.462  0.5451  0.5379  0.2367
28375SOL    HW188402   3.926   6.140   8.433  0.4601  0.1794 -0.7825
28375SOL    HW288403   3.902   5.992   8.416  2.1794 -0.0936 -0.9942
28376SOL     OW88404   6.876   8.108   0.679 -0.5056  0.4357 -0.1414
28376SOL    HW188405   6.874   8.078   0.770 -0.0401  1.6120  0.2671
28376SOL    HW288406   6.960   8.078   0.645  0.0172  1.3712  0.3068
28377SOL     OW88407   1.103   2.358  10.904 -0.2870 -0.4954 -0.3529
28377SOL    HW188408   1.071   2.328  10.989 -0.6441 -2.3683 -1.1139
28377SOL    HW288409   1.188   2.398  10.924 -1.3181  1.0973  1.1525
28378SOL     OW88410   2.295   1.220   8.352  0.0737 -0.2098  0.1756
28378SOL    HW188411   2.371   1.234   8.295 -0.4432 -0.2715 -0.5379
28378SOL    HW288412   2.266   1.132   8.332  0.0595 -0.3381  0.7537
28379SOL     OW88413   7.795   7.354  10.001 -0.0640 -0.6755  0.1366
28379SOL    HW188414   7.830   7.298  10.069  0.1805  0.1561  0.7022
28379SOL    HW288415   7.871   7.385   9.953 -0.2145 -1.0154 -0.3310
28380SOL     OW88416   6.510   4.909   7.271  0.0318 -0.0860 -0.5745
28380SOL    HW188417   6.433   4.944   7.317  1.7237  1.5834  1.1678
28380SOL    HW288418   6.562   4.986   7.249  0.0259 -0.9365 -4.1728
28381SOL     OW88419   0.143   0.664   3.507  0.1233 -0.1281 -0.0894
28381SOL    HW188420   0.069   0.706   3.462  0.7187  0.1209 -0.8620
28381SOL    HW288421   0.220   0.714   3.479  0.4959  0.2316  1.4699
28382SOL     OW88422   8.481   0.262   5.415  0.4038 -0.2297 -0.1761
28382SOL    HW188423   8.398   0.256   5.463 -0.9212  1.7352 -2.0651
28382SOL    HW288424   8.457   0.248   5.323  1.7723  2.4266 -1.0369
28383SOL     OW88425   6.515   1.669   2.945  0.0374  0.0097 -0.6160
28383SOL    HW188426   6.487   1.653   3.035 -2.5412  1.1750 -1.1156
28383SOL    HW288427   6.542   1.761   2.944  1.2652 -0.3395 -0.7823
28384SOL     OW88428   6.414   8.860   7.958 -0.0216  0.0562 -0.5571
28384SOL    HW188429   6.403   8.904   8.042 -0.3623 -0.2162 -0.4581
28384SOL    HW288430   6.456   8.777   7.980 -2.0272 -0.9675 -0.3953
28385SOL     OW88431   5.391   0.634   5.011  0.4209  0.8266  0.2149
28385SOL    HW188432   5.372   0.710   4.957  2.5025  1.4523  0.2731
28385SOL    HW288433   5.422   0.568   4.949 -2.5616 -0.5329 -0.0167
28386SOL     OW88434   7.960   5.437   9.269  0.4167  0.2845  0.5266
28386SOL    HW188435   8.009   5.496   9.327 -2.0785  2.4020  0.6713
28386SOL    HW288436   7.983   5.466   9.181  0.0064  0.7929  0.5822
28387SOL     OW88437  10.082   9.676   7.879  0.2186 -0.2032 -0.6324
28387SOL    HW188438  10.070   9.770   7.871  1.7147  0.0657 -0.0115
28387SOL    HW288439  10.057   9.657   7.970 -3.2646 -0.9939 -1.6042
28388SOL     OW88440   5.096   6.207   4.782  0.1776  0.0121  0.3532
28388SOL    HW188441   5.099   6.122   4.826  1.7156 -0.3053 -0.3327
28388SOL    HW288442   5.144   6.195   4.701  0.6311  1.5951  0.3473
28389SOL     OW88443   2.035   5.343   7.747  0.3709  0.0309  0.0612
28389SOL    HW188444   1.998   5.412   7.692 -1.2002 -0.6148  0.2632
28389SOL    HW288445   2.129   5.363   7.751  0.1286  1.4680 -0.8431
28390SOL     OW88446   1.341   5.095   9.374 -0.6097 -0.4403  0.4553
28390SOL    HW188447   1.271   5.146   9.415 -1.0693 -0.5106 -0.2330
28390SOL    HW288448   1.297   5.017   9.341 -0.0913 -0.7879  0.5731
28391SOL     OW88449   5.924   8.537   7.665 -0.0946 -0.7262 -0.3807
28391SOL    HW188450   5.879   8.508   7.744 -1.0923 -0.3528 -0.8018
28391SOL    HW288451   5.854   8.563   7.606  0.6424 -0.9570 -1.3778
28392SOL     OW88452   9.484   4.950   9.703 -0.0484 -0.2611  0.3542
28392SOL    HW188453   9.434   5.031   9.708  0.7614  0.4570 -1.7599
28392SOL    HW288454   9.418   4.881   9.707 -0.7926  0.4851  1.7253
28393SOL     OW88455   4.272   1.377  11.361  0.4793 -0.2641  0.0108
28393SOL    HW188456   4.200   1.424  11.320  0.5470 -1.5364 -1.6964
28393SOL    HW288457   4.343   1.441  11.366 -0.2171  0.5115  0.1154
28394SOL     OW88458   0.113   4.115   3.959  0.0555  0.4947 -0.1984
28394SOL    HW188459   0.099   4.204   3.927  0.1557  0.4052 -0.4961
28394SOL    HW288460   0.049   4.062   3.912  0.3554  0.3271 -0.4242
28395SOL     OW88461   4.240  10.556   4.805 -0.1984  0.0482 -0.0797
28395SOL    HW188462   4.247  10.647   4.775  0.4364  0.0144 -0.0426
28395SOL    HW288463   4.156  10.526   4.770  0.1695  0.2429 -1.1894
28396SOL     OW88464   6.912   3.190   5.024  0.3712  0.4313  0.1054
28396SOL    HW188465   6.878   3.114   5.071 -0.8573  1.1942  0.4920
28396SOL    HW288466   6.840   3.219   4.969  0.5648  1.7619  0.5168
28397SOL     OW88467   6.412   1.776   0.588 -0.0397  0.2539 -0.5434
28397SOL    HW188468   6.339   1.827   0.623  0.8515  0.7993  0.5797
28397SOL    HW288469   6.398   1.687   0.622 -0.8366  0.0452 -1.3629
28398SOL     OW88470   0.265   7.711   3.174 -0.3006  0.1159  0.1784
28398SOL    HW188471   0.331   7.779   3.168 -0.7202  0.5803  0.7358
28398SOL    HW288472   0.270   7.665   3.090  0.6404  0.2198  0.1731
28399SOL     OW88473   5.019   8.978   0.770  0.1656  0.2484 -0.2587
28399SOL    HW188474   4.963   8.929   0.829  0.8567 -0.7271 -0.3912
28399SOL    HW288475   5.017   8.929   0.688  1.5577 -0.0695 -0.1304
28400SOL     OW88476   9.018   7.421   3.822 -0.8401  0.1407  0.4476
28400SOL    HW188477   9.055   7.357   3.883 -0.6522  0.1421  0.3375
28400SOL    HW288478   8.979   7.488   3.877 -0.7242  0.1112  0.5673
28401SOL     OW88479   7.424   0.206   7.561  0.7125  0.4854  0.1886
28401SOL    HW188480   7.480   0.283   7.546  1.5939 -0.1205  0.2547
28401SOL    HW288481   7.466   0.160   7.634  1.1630 -0.9299 -0.9176
28402SOL     OW88482  10.959   3.708   3.455  0.1008  0.0233  0.3133
28402SOL    HW188483  10.919   3.743   3.534 -1.6034 -1.9561  0.4140
28402SOL    HW288484  10.901   3.637   3.428  1.2202 -0.0868 -2.1074
28403SOL     OW88485   3.232   6.444   3.564  0.7657  0.2521 -0.5541
28403SOL    HW188486   3.292   6.382   3.608  1.6145  0.1139 -1.8439
28403SOL    HW288487   3.203   6.397   3.486 -0.8612  0.4267 -0.0800
28404SOL     OW88488   1.035   0.231   1.853 -0.1010 -0.2239 -0.5547
28404SOL    HW188489   0.976   0.164   1.889 -1.0845  1.7992  1.9093
28404SOL    HW288490   1.116   0.221   1.903  0.8806 -1.4347 -2.2770
28405SOL     OW88491   8.091   0.589   9.180  1.0003 -0.2196 -0.1768
28405SOL    HW188492   8.003   0.624   9.162  0.0110 -1.8842  1.0878
28405SOL    HW288493   8.136   0.592   9.096 -0.7313 -0.5156 -1.1625
28406SOL     OW88494   1.336   7.414   6.999 -0.1886  0.1785  0.2150
28406SOL    HW188495   1.252   7.408   7.044  0.2143 -0.6544  0.8814
28406SOL    HW288496   1.371   7.499   7.027 -0.4061  0.1277  0.6557
28407SOL     OW88497  10.021   3.277   5.046 -0.4586  0.5740  0.3310
28407SOL    HW188498  10.029   3.185   5.068 -0.8569  0.9994  2.4715
28407SOL    HW288499  10.111   3.306   5.028 -0.4595 -0.4489 -1.5903
28408SOL     OW88500  10.159   1.522   3.447 -0.4660 -0.0442  0.3316
28408SOL    HW188501  10.174   1.610   3.482 -1.4946  0.2216  0.1420
28408SOL    HW288502  10.241   1.499   3.403 -1.2935  2.2710 -2.6801
28409SOL     OW88503  11.057   4.726   4.683 -0.0482 -0.0253 -0.4281
28409SOL    HW188504  11.068   4.719   4.778 -2.7710  0.7920  0.0485
28409SOL    HW288505  10.963   4.713   4.669  0.1930  0.4353 -2.9694
28410SOL     OW88506   7.702   5.814   7.062  0.5418  0.3219 -0.5991
28410SOL    HW188507   7.771   5.748   7.067  2.4713  2.1996 -0.8089
28410SOL    HW288508   7.631   5.780   7.118  1.4095 -1.8977 -0.7574
28411SOL     OW88509   9.764   6.379   8.576 -0.3616 -0.3752  0.0960
28411SOL    HW188510   9.858   6.364   8.589 -0.4909 -1.8632 -0.4494
28411SOL    HW288511   9.759   6.434   8.498  0.0534 -0.8181 -0.2522
28412SOL     OW88512   0.224   5.083   5.931  0.0777  0.7039 -0.4459
28412SOL    HW188513   0.289   5.102   5.999 -1.7993 -0.0536  1.6775
28412SOL    HW288514   0.192   4.995   5.952 -2.1823  1.3464 -0.9239
28413SOL     OW88515  10.181   3.553   3.143 -0.0843  0.0932  0.2526
28413SOL    HW188516  10.191   3.643   3.114 -0.7727 -0.1244 -0.7201
28413SOL    HW288517  10.184   3.557   3.239  0.7691  1.0221  0.2019
28414SOL     OW88518   4.454   4.333   7.880 -0.5780  0.2363  0.3615
28414SOL    HW188519   4.403   4.318   7.800  0.1219  1.1998 -0.2776
28414SOL    HW288520   4.452   4.428   7.892  1.5348  0.3759 -0.0174
28415SOL     OW88521   6.726   8.706   1.504 -0.1835  0.0189  0.6370
28415SOL    HW188522   6.752   8.720   1.413 -0.7814  1.2449  0.6367
28415SOL    HW288523   6.796   8.652   1.541  1.4065  1.6292  0.1304
28416SOL     OW88524   3.535   0.250  11.273 -0.2146  0.1890  0.3034
28416SOL    HW188525   3.613   0.294  11.307 -1.6374  1.8971  1.5406
28416SOL    HW288526   3.474   0.249  11.347 -0.4392 -3.6376  0.2397
28417SOL     OW88527   4.767   8.388   3.950 -0.1769  0.2493  0.3477
28417SOL    HW188528   4.845   8.334   3.962  0.3038  0.9069  0.2422
28417SOL    HW288529   4.779   8.428   3.864 -0.6331  0.3555  0.3312
28418SOL     OW88530   1.500   6.859   2.528  0.1047 -0.0296 -0.0024
28418SOL    HW188531   1.580   6.900   2.495 -0.1308 -0.7174 -1.5339
28418SOL    HW288532   1.528   6.810   2.605  0.3551  3.1331  2.1101
28419SOL     OW88533   0.145   7.506   6.284 -0.3355  0.1704 -0.0671
28419SOL    HW188534   0.052   7.530   6.289 -0.6787 -0.7826 -1.2618
28419SOL    HW288535   0.170   7.530   6.195  0.2050 -0.7698 -0.1775
28420SOL     OW88536   6.805   4.813   0.135  0.1897  0.3744  0.5088
28420SOL    HW188537   6.853   4.730   0.133 -1.5632 -0.7066  0.6510
28420SOL    HW288538   6.841   4.859   0.210  1.7166  0.0798 -0.0211
28421SOL     OW88539   5.454   6.918   2.063  0.4294 -0.2898 -0.2589
28421SOL    HW188540   5.392   6.909   1.990 -1.6507 -0.5440  1.4216
28421SOL    HW288541   5.525   6.971   2.028  0.1686 -1.4755 -2.8301
28422SOL     OW88542   6.214   7.303   2.498  0.9673  0.3895  0.3296
28422SOL    HW188543   6.244   7.377   2.549  0.9872  1.1677 -0.7703
28422SOL    HW288544   6.123   7.323   2.475  0.9362  0.0261  0.1124
28423SOL     OW88545   1.204   6.425   2.812 -0.4175  0.1962 -0.4553
28423SOL    HW188546   1.141   6.354   2.824  1.0500 -1.2214 -0.7286
28423SOL    HW288547   1.173   6.472   2.734 -1.2416 -0.3271 -0.4481
28424SOL     OW88548   9.206  10.868   8.242 -0.0329  0.0718 -0.1968
28424SOL    HW188549   9.281  10.809   8.256 -0.9024 -0.9044  0.5026
28424SOL    HW288550   9.203  10.881   8.147  1.7215  1.0955 -0.1659
28425SOL     OW88551   1.715   5.877   3.522 -0.2953 -0.2867 -0.0260
28425SOL    HW188552   1.725   5.782   3.515  0.6371 -0.5251  3.1606
28425SOL    HW288553   1.621   5.892   3.521 -0.4837 -1.3633  0.5756
28426SOL     OW88554   1.778   4.853   3.832 -0.0899 -0.6504 -0.0811
28426SOL    HW188555   1.719   4.898   3.772 -1.0870  0.0335  1.3875
28426SOL    HW288556   1.724   4.831   3.908  1.3485 -0.7087  0.9633
28427SOL     OW88557   5.521   0.868   3.878 -0.0725  0.4275 -0.0577
28427SOL    HW188558   5.441   0.919   3.889 -1.1070 -0.3961 -2.9365
28427SOL    HW288559   5.559   0.863   3.966 -1.8161  2.9938  0.9497
28428SOL     OW88560   1.747   4.668   8.898  0.7394 -0.4001 -0.4052
28428SOL    HW188561   1.682   4.614   8.943  1.0253  0.4546  1.0964
28428SOL    HW288562   1.707   4.756   8.895  0.7819 -0.4056 -1.7347
28429SOL     OW88563   3.543   3.892  11.342  0.0043 -0.3310  0.4969
28429SOL    HW188564   3.466   3.840  11.363  1.1689 -2.2750  0.2331
28429SOL    HW288565   3.613   3.854  11.396  1.1151  0.3474 -0.4108
28430SOL     OW88566   5.630   8.542   4.637  0.0562  0.2790  0.5178
28430SOL    HW188567   5.542   8.569   4.608  0.6028  3.9438  1.6871
28430SOL    HW288568   5.621   8.532   4.732  0.6240 -0.7213  0.4698
28431SOL     OW88569   9.003   7.729   2.684 -0.2945 -0.2668 -0.1466
28431SOL    HW188570   8.996   7.732   2.588  1.7061  2.8202 -0.3528
28431SOL    HW288571   8.920   7.766   2.715 -0.3882  0.0493 -0.7533
28432SOL     OW88572   2.687   4.799   3.697 -0.0394 -0.0343 -0.7905
28432SOL    HW188573   2.726   4.827   3.780 -0.0853 -0.9940 -0.4376
28432SOL    HW288574   2.730   4.854   3.631 -0.5781  1.3110 -0.0699
28433SOL     OW88575   5.902  10.430   2.831  0.4401 -0.0406 -0.2237
28433SOL    HW188576   5.815  10.397   2.807  0.8002  0.1374 -1.9235
28433SOL    HW288577   5.887  10.520   2.858 -0.0714 -0.4487  0.9196
28434SOL     OW88578   4.363  10.619   0.985  0.0308  0.4533  0.1306
28434SOL    HW188579   4.389  10.651   1.071  0.2207  0.5285  0.0442
28434SOL    HW288580   4.267  10.630   0.984 -0.0151  0.1116  0.4685
28435SOL     OW88581   9.780   3.959   8.650  0.2823 -0.4881  0.0814
28435SOL    HW188582   9.812   4.031   8.704 -2.3331  0.9137 -0.0919
28435SOL    HW288583   9.694   3.939   8.685 -0.6387 -0.9578 -2.2550
28436SOL     OW88584   9.384   4.659   1.119 -0.3345  0.0085  0.6738
28436SOL    HW188585   9.290   4.675   1.112 -0.8504 -2.7808 -0.1443
28436SOL    HW288586   9.403   4.667   1.212 -1.7702 -1.0453  1.0871
28437SOL     OW88587   7.111   5.838   8.365 -0.5701  0.0462  0.0646
28437SOL    HW188588   7.060   5.784   8.426 -0.4862 -0.9317 -0.7094
28437SOL    HW288589   7.075   5.817   8.279  0.1659  0.4608 -0.3524
28438SOL     OW88590  11.305   9.273  11.296  0.0992 -0.1898  0.1397
28438SOL    HW188591  11.296   9.222  11.216  0.1369 -0.4065  0.2748
28438SOL    HW288592  11.367   9.342  11.272 -0.5372  0.2570 -0.2706
28439SOL     OW88593   1.689  11.145   0.812  0.5522  0.4794 -0.1898
28439SOL    HW188594   1.621  11.159   0.745  0.8942  1.8690 -0.2647
28439SOL    HW288595   1.707  11.232   0.847  1.9794  0.0699  0.1540
28440SOL     OW88596   9.751   9.614   1.221  0.3656  0.1521  0.1442
28440SOL    HW188597   9.844   9.633   1.211  0.1894 -0.1766 -2.9286
28440SOL    HW288598   9.743   9.578   1.309  2.9846  0.9874  0.7914
28441SOL     OW88599   2.825   1.526   3.877 -0.3914 -0.3345 -0.3420
28441SOL    HW188600   2.826   1.620   3.896  1.5019 -0.2168 -0.8275
28441SOL    HW288601   2.826   1.520   3.782  4.1582 -0.6479 -0.5343
28442SOL     OW88602   8.691   9.018   4.567  0.5911 -0.0567 -0.2334
28442SOL    HW188603   8.599   9.030   4.589  0.7816  0.6403  0.2252
28442SOL    HW288604   8.723   8.954   4.631  0.5780  0.2067  0.0432
28443SOL     OW88605   7.452   7.350   2.975  0.0975  0.2256 -0.6486
28443SOL    HW188606   7.486   7.263   2.953 -1.9084 -0.5599 -0.9010
28443SOL    HW288607   7.367   7.333   3.015  0.5562  2.0096  1.2562
28444SOL     OW88608   5.185   4.424   9.519  0.2233  0.0666 -0.0760
28444SOL    HW188609   5.238   4.367   9.576  0.3312  0.8475  0.6325
28444SOL    HW288610   5.095   4.408   9.547  0.0967 -0.9750 -1.0179
28445SOL     OW88611   9.158   8.218   8.202 -0.0600 -0.0417  0.1807
28445SOL    HW188612   9.110   8.295   8.233 -0.9405 -0.9469  1.1634
28445SOL    HW288613   9.250   8.241   8.214 -0.1829  1.7589 -1.8174
28446SOL     OW88614   7.854   5.605   5.743  0.1242  0.5360  0.4753
28446SOL    HW188615   7.937   5.559   5.756  0.0781  0.4170  0.3640
28446SOL    HW288616   7.854   5.675   5.807  0.7860  1.1924 -0.2309
28447SOL     OW88617   6.879  10.650   6.133 -0.0907  0.1169  0.2598
28447SOL    HW188618   6.842  10.656   6.044 -0.4835  1.5794  0.4953
28447SOL    HW288619   6.954  10.592   6.123 -0.8289 -0.7111 -0.7867
28448SOL     OW88620   6.726   2.678   3.712  0.4051 -0.4947  0.3886
28448SOL    HW188621   6.756   2.596   3.675  0.4253 -1.0931  1.6663
28448SOL    HW288622   6.703   2.657   3.803 -1.2990  0.5106  0.2424
28449SOL     OW88623   2.511   7.913   7.704  0.0502  0.2130 -0.0511
28449SOL    HW188624   2.583   7.911   7.767  0.6786  1.0387 -0.7030
28449SOL    HW288625   2.520   7.831   7.655 -0.2153 -0.2573  0.6820
28450SOL     OW88626   8.476   6.569   2.261  0.2214 -0.4841  0.1142
28450SOL    HW188627   8.440   6.601   2.344 -0.9980 -0.6708 -0.3229
28450SOL    HW288628   8.422   6.492   2.240  1.5271 -1.3765 -0.0752
28451SOL     OW88629   5.005   8.500   7.282 -0.2438  0.0981  0.0879
28451SOL    HW188630   5.086   8.542   7.312 -0.8260  3.2447 -2.2161
28451SOL    HW288631   4.936   8.561   7.308 -1.6173 -1.2068 -0.3678
28452SOL     OW88632   1.966  10.005   1.771  0.0668 -0.0058  0.3358
28452SOL    HW188633   1.901  10.065   1.735  0.2355  1.1271  1.8094
28452SOL    HW288634   2.050  10.043   1.744  0.2219 -1.7628 -2.0463
28453SOL     OW88635   7.978   5.570   5.075  0.5550  0.5913  0.0178
28453SOL    HW188636   7.934   5.615   5.147  1.8874  0.9037  0.6739
28453SOL    HW288637   7.955   5.478   5.085 -0.0291  0.7649  0.2758
28454SOL     OW88638  10.617   4.023   9.325 -0.1262  0.4244  0.7893
28454SOL    HW188639  10.607   3.932   9.298  0.8198  0.8685 -1.2045
28454SOL    HW288640  10.708   4.028   9.356 -0.5459  0.4349  2.0712
28455SOL     OW88641   1.201   1.643   8.244  0.0964  0.6870  0.1959
28455SOL    HW188642   1.133   1.594   8.290 -2.6649  1.9570 -2.2000
28455SOL    HW288643   1.236   1.703   8.310 -1.0026 -0.0893  1.5397
28456SOL     OW88644  11.107   1.504   8.929 -0.0050  0.2289  0.2696
28456SOL    HW188645  11.123   1.593   8.960 -0.6571  0.4023  0.1367
28456SOL    HW288646  11.157   1.448   8.988  0.5581  0.6920  0.2373
28457SOL     OW88647  10.482   2.196   7.412  0.3545 -0.1391 -0.5571
28457SOL    HW188648  10.577   2.192   7.419  0.3536  1.3755  1.2396
28457SOL    HW288649  10.450   2.151   7.490 -0.3755 -0.0176 -0.7774
28458SOL     OW88650   3.586   4.157   1.707 -0.6924 -1.2379 -0.8313
28458SOL    HW188651   3.521   4.186   1.643 -0.5972 -3.2839 -1.9555
28458SOL    HW288652   3.666   4.142   1.656 -0.2308 -1.6589 -0.0184
28459SOL     OW88653   3.211   9.466   7.088 -0.3035  0.1482  0.2618
28459SOL    HW188654   3.256   9.532   7.034  0.1345  0.9881  1.5760
28459SOL    HW288655   3.246   9.382   7.058  0.7927  0.6729  0.0117
28460SOL     OW88656   6.101   4.808   9.021  0.1801  0.1649 -0.1201
28460SOL    HW188657   6.138   4.896   9.019 -1.3405  0.8254 -0.9125
28460SOL    HW288658   6.174   4.751   8.999  0.9093  1.3485 -0.8887
28461SOL     OW88659   8.619   9.826   9.577 -0.2519  0.3630  0.4306
28461SOL    HW188660   8.624   9.769   9.654 -0.7929  0.4441  0.5254
28461SOL    HW288661   8.711   9.848   9.558 -0.0008 -0.8721  0.1461
28462SOL     OW88662  10.401   4.450   4.853  0.6445 -0.0339 -0.7168
28462SOL    HW188663  10.470   4.504   4.815  0.3207  0.0033 -1.2668
28462SOL    HW288664  10.422   4.361   4.823  1.0190 -0.1760 -0.0455
28463SOL     OW88665   2.096   8.188   7.167 -0.1802  0.0196  0.0740
28463SOL    HW188666   2.043   8.185   7.247  2.0839 -1.8021  1.6470
28463SOL    HW288667   2.141   8.104   7.165  1.8821  1.0584 -1.7261
28464SOL     OW88668   9.692   1.262   1.972  0.4866 -0.1176  0.0970
28464SOL    HW188669   9.786   1.249   1.961  0.5459  0.3417  0.0056
28464SOL    HW288670   9.686   1.326   2.044  0.2942  0.7769 -0.6994
28465SOL     OW88671   4.147   8.837   1.772 -0.0753 -0.4388  0.7746
28465SOL    HW188672   4.080   8.854   1.705 -1.7393 -1.4889  2.0829
28465SOL    HW288673   4.152   8.919   1.822 -0.1402 -0.2362  0.4486
28466SOL     OW88674   3.910   3.173   9.240 -0.3474  0.2116  0.3735
28466SOL    HW188675   3.892   3.088   9.281 -0.2366 -1.1264 -2.0989
28466SOL    HW288676   3.994   3.200   9.277 -0.4792 -0.6573  1.3586
28467SOL     OW88677   3.598   0.978  10.877  0.1969  0.1538  0.3651
28467SOL    HW188678   3.693   0.973  10.880  0.1534 -0.1510  2.6413
28467SOL    HW288679   3.578   1.071  10.866  0.8010  0.7485  3.4153
28468SOL     OW88680   5.880   2.762   0.819  0.4089 -0.4463  0.0882
28468SOL    HW188681   5.786   2.750   0.804  0.8005 -2.3593 -1.0565
28468SOL    HW288682   5.888   2.768   0.915 -0.7002 -2.0047  0.3078
28469SOL     OW88683   5.801   0.684   7.575 -1.0020 -0.5202 -0.0461
28469SOL    HW188684   5.860   0.695   7.500  1.1000 -0.9058  1.4795
28469SOL    HW288685   5.794   0.589   7.586 -0.6727 -0.4661  0.6901
28470SOL     OW88686   0.060   1.879   9.491 -0.1838  0.1622  0.3727
28470SOL    HW188687   0.083   1.786   9.487 -0.5325  0.0638  0.6326
28470SOL    HW288688   0.143   1.925   9.481 -0.1035 -0.1668 -0.5696
28471SOL     OW88689   6.939   4.948   9.509 -0.1941 -0.8056 -0.1415
28471SOL    HW188690   6.845   4.962   9.499  0.2037  2.4168 -0.2126
28471SOL    HW288691   6.950   4.919   9.599 -1.2583 -1.6485 -0.2648
28472SOL     OW88692   3.224   7.869   6.653  0.1832  0.2089  0.2775
28472SOL    HW188693   3.274   7.903   6.579 -0.2599 -1.4640 -0.8456
28472SOL    HW288694   3.290   7.845   6.719  0.6532  0.6105 -0.0422
28473SOL     OW88695  10.330   1.765   4.117 -0.4366  0.3198  0.0892
28473SOL    HW188696  10.339   1.672   4.098 -1.8542 -0.3187  2.1440
28473SOL    HW288697  10.317   1.806   4.032  1.4235 -1.1542 -0.9826
28474SOL     OW88698   0.204   4.422   9.776 -0.0797  0.5440  0.6322
28474SOL    HW188699   0.167   4.488   9.834 -0.7450  0.3270  0.4577
28474SOL    HW288700   0.167   4.442   9.690  1.1613  1.0780  0.1912
28475SOL     OW88701   8.869   9.674   7.191  0.3399 -0.9478  0.2055
28475SOL    HW188702   8.942   9.639   7.242  0.5121 -0.4890  0.2789
28475SOL    HW288703   8.801   9.607   7.197  0.7337 -1.3495  0.1903
28476SOL     OW88704   1.802   5.676   9.978  0.1059  0.1538 -0.9737
28476SOL    HW188705   1.737   5.653   9.911  0.7001 -0.5017 -1.3479
28476SOL    HW288706   1.858   5.598   9.983  0.7529  0.6447 -0.5339
28477SOL     OW88707   4.672   5.592   0.721 -0.1047  0.4409 -0.0076
28477SOL    HW188708   4.636   5.504   0.722 -0.7708  0.6878 -1.0088
28477SOL    HW288709   4.646   5.629   0.806  0.7507 -0.5171  0.7055
28478SOL     OW88710   2.376   4.615  11.214  0.0907 -0.5702  0.2484
28478SOL    HW188711   2.419   4.553  11.272 -1.3354 -1.6668  0.1721
28478SOL    HW288712   2.422   4.606  11.130  0.3611 -0.9791  0.4421
28479SOL     OW88713   6.382  11.191   5.700 -0.6872  0.8205 -0.0449
28479SOL    HW188714   6.346  11.176   5.787 -0.7464  2.8020  0.3230
28479SOL    HW288715   6.434  11.113   5.682 -1.0336  0.1742  1.5605
28480SOL     OW88716   9.365   4.010   9.100  0.1774  0.2394 -0.2509
28480SOL    HW188717   9.300   3.986   9.034 -0.7448 -0.7462  0.9659
28480SOL    HW288718   9.427   3.937   9.101 -1.0994 -0.9362  1.5147
28481SOL     OW88719   6.458   3.309   5.955 -0.1491  0.4314  0.0478
28481SOL    HW188720   6.534   3.263   5.991 -1.4019 -1.0029  0.9991
28481SOL    HW288721   6.495   3.383   5.908  1.9157 -0.9496 -0.6487
28482SOL     OW88722   0.827   3.264   0.734 -0.1066  0.1894 -0.3709
28482SOL    HW188723   0.765   3.208   0.781  2.0605 -1.3875  0.8044
28482SOL    HW288724   0.814   3.241   0.642 -1.5094  0.1945 -0.2049
28483SOL     OW88725   0.981   0.626  11.029  0.1087  0.1334 -0.2639
28483SOL    HW188726   0.960   0.615  10.936  0.5428  0.0148 -0.3514
28483SOL    HW288727   0.995   0.537  11.061 -2.2607 -0.0471  0.4770
28484SOL     OW88728   4.123   8.772   4.768 -0.0079  0.5376  0.3398
28484SOL    HW188729   4.126   8.857   4.811 -1.7293  0.8540 -0.0770
28484SOL    HW288730   4.035   8.767   4.730  0.1818 -1.2637  0.0149
28485SOL     OW88731  10.155   0.005   3.984  0.1378  0.0128  0.5888
28485SOL    HW188732  10.111   0.029   4.066 -0.5343 -0.3791  0.3408
28485SOL    HW288733  10.202   0.085   3.959  0.3762  0.1322  1.3630
28486SOL     OW88734   2.146   4.534   5.819  0.3504 -0.1205 -0.0598
28486SOL    HW188735   2.117   4.602   5.758 -2.1069 -0.4226  0.6655
28486SOL    HW288736   2.074   4.526   5.882  0.5771 -3.3370 -0.0812
28487SOL     OW88737  10.848   4.977   4.441 -0.0220  0.6707  0.0526
28487SOL    HW188738  10.834   5.049   4.380  1.6440  0.8034 -0.2289
28487SOL    HW288739  10.941   4.955   4.431  0.3128  0.6946  2.5501
28488SOL     OW88740   5.238   3.583   7.773 -0.3086  0.9908  0.0501
28488SOL    HW188741   5.278   3.548   7.853 -0.7517  3.3164  1.3891
28488SOL    HW288742   5.175   3.516   7.746  1.1386 -0.6508  0.5696
28489SOL     OW88743   5.837   1.959   9.808 -0.1489  0.2796 -0.3791
28489SOL    HW188744   5.876   1.942   9.722 -0.2487  0.3860 -0.4460
28489SOL    HW288745   5.902   2.013   9.854  0.5183 -0.9149  0.1236
28490SOL     OW88746   1.145   9.485   6.259  0.2123 -0.6254 -0.0328
28490SOL    HW188747   1.167   9.578   6.268  1.3113 -0.5584 -2.4559
28490SOL    HW288748   1.176   9.462   6.172 -2.0889 -2.7335 -0.4027
28491SOL     OW88749   9.358   6.763   2.111 -0.0028  0.2574 -0.1658
28491SOL    HW188750   9.442   6.796   2.143  0.2018 -0.3319 -0.0822
28491SOL    HW288751   9.381   6.705   2.039 -0.3246 -0.0386 -0.0312
28492SOL     OW88752  10.718   6.393   6.079  0.2103 -0.2595 -0.2092
28492SOL    HW188753  10.740   6.423   5.991  1.6942 -0.0512  0.2008
28492SOL    HW288754  10.732   6.470   6.135 -1.1170 -0.2704  0.1746
28493SOL     OW88755   7.068   8.729   1.384  0.3307 -0.5492  0.2798
28493SOL    HW188756   7.053   8.688   1.469  0.9513 -1.8421 -0.2021
28493SOL    HW288757   6.981   8.735   1.344 -0.0604  0.6930  1.2440
28494SOL     OW88758   4.066   7.178   9.064  0.2790  0.0355  0.0334
28494SOL    HW188759   3.986   7.127   9.057 -0.0392  0.3843  0.8761
28494SOL    HW288760   4.135   7.113   9.079 -0.1764 -0.1548  1.4923
28495SOL     OW88761   0.233   0.398   9.856 -0.0464  0.5985 -0.7684
28495SOL    HW188762   0.317   0.440   9.875  0.2088 -0.2089 -0.0443
28495SOL    HW288763   0.174   0.471   9.834  0.8450  1.1701 -1.3201
28496SOL     OW88764   2.382   1.772   2.611  0.1774  0.4044 -0.4170
28496SOL    HW188765   2.435   1.789   2.688  0.4248  2.5629 -1.0219
28496SOL    HW288766   2.439   1.791   2.537 -0.8095  0.7798 -1.1074
28497SOL     OW88767   0.934   2.643   7.583 -0.2013  0.5076  0.0954
28497SOL    HW188768   0.937   2.650   7.488 -0.9803 -0.9652 -0.0634
28497SOL    HW288769   1.024   2.622   7.609  0.3667  2.4765 -0.1344
28498SOL     OW88770   7.256   4.261  10.151 -0.2158 -0.4821  0.6237
28498SOL    HW188771   7.308   4.286  10.075 -1.7719 -0.5813 -0.5293
28498SOL    HW288772   7.241   4.167  10.139 -2.2604 -0.1174 -0.1706
28499SOL     OW88773   2.059   4.733   2.535 -0.4635  0.2964  0.1559
28499SOL    HW188774   2.137   4.678   2.542 -1.0421 -0.8192 -1.4032
28499SOL    HW288775   2.081   4.797   2.467 -1.0871 -0.4011 -0.7233
28500SOL     OW88776   8.068   7.921   8.788 -0.6572 -0.1316  0.7578
28500SOL    HW188777   7.999   7.864   8.821 -0.1841 -0.4382  1.2344
28500SOL    HW288778   8.083   7.890   8.699 -0.0359 -1.1186  1.1905
28501SOL     OW88779   4.500   8.182   7.997 -0.5075  0.2939  0.2843
28501SOL    HW188780   4.447   8.248   8.041 -2.1290 -0.8360  0.1396
28501SOL    HW288781   4.437   8.135   7.941  1.0168  0.0612 -1.3105
28502SOL     OW88782   2.339  10.923   9.573  0.1487  0.0718 -0.3956
28502SOL    HW188783   2.315  10.831   9.581  1.1547 -0.2553 -1.0178
28502SOL    HW288784   2.371  10.946   9.660  0.6803 -0.4006 -0.4620
28503SOL     OW88785   5.869  11.310   5.857  0.3801 -0.1791 -0.0385
28503SOL    HW188786   5.858  11.402   5.880 -0.8855 -0.4740  0.6207
28503SOL    HW288787   5.785  11.270   5.877  1.3529 -1.7738  1.0862
28504SOL     OW88788   6.530   4.416   4.059  0.4075  0.2712  0.5378
28504SOL    HW188789   6.614   4.379   4.086  0.4810  0.4713  0.5815
28504SOL    HW288790   6.548   4.509   4.045  0.3349  0.2042 -0.0401
28505SOL     OW88791   6.242   6.465   3.667 -0.0602  0.2398  0.7281
28505SOL    HW188792   6.327   6.463   3.710 -0.2697  0.2749  1.1501
28505SOL    HW288793   6.187   6.406   3.718 -0.2809  0.1907  0.4386
28506SOL     OW88794   2.549   8.098   9.097  0.1575 -0.5926 -0.4105
28506SOL    HW188795   2.592   8.051   9.026  1.2839  0.4683 -0.4448
28506SOL    HW288796   2.456   8.092   9.076  0.3684 -1.6253 -1.1340
28507SOL     OW88797   4.551   9.222   9.644 -0.2875  0.2315 -0.7336
28507SOL    HW188798   4.456   9.222   9.652 -0.2852 -1.7355 -0.2730
28507SOL    HW288799   4.569   9.278   9.568 -1.8452  0.1891 -1.1550
28508SOL     OW88800   0.016   6.952   6.599  0.0851 -0.2923  0.2663
28508SOL    HW188801  -0.023   7.024   6.649  0.9876  0.1940  0.2971
28508SOL    HW288802   0.001   6.874   6.653  1.9826  0.3683  1.9080
28509SOL     OW88803  10.961   2.242  11.238 -0.1897  0.2200  0.0017
28509SOL    HW188804  10.914   2.186  11.299  0.1451  1.7559  1.7559
28509SOL    HW288805  11.054   2.226  11.257 -0.0836  1.7045  0.9437
28510SOL     OW88806   6.923   6.927   8.100  0.8461  0.1995  0.2025
28510SOL    HW188807   6.920   6.997   8.035  0.2035  0.2460  0.2781
28510SOL    HW288808   6.859   6.954   8.167 -0.2000 -0.9633 -0.2897
28511SOL     OW88809   9.594   4.659   0.129 -0.0252 -0.0177  0.0765
28511SOL    HW188810   9.575   4.590   0.066 -0.1108 -0.6756  0.8132
28511SOL    HW288811   9.551   4.737   0.093 -0.1987 -0.4167 -0.5915
28512SOL     OW88812   6.518   8.248   2.344 -0.3608  0.0184  0.2142
28512SOL    HW188813   6.478   8.324   2.387  1.6649  1.3128 -0.0524
28512SOL    HW288814   6.579   8.214   2.408 -1.2921 -1.4860  0.3516
28513SOL     OW88815   2.747   1.016   6.953 -0.0657  0.7159  0.0868
28513SOL    HW188816   2.800   0.966   6.891 -0.8426  1.3703 -1.1532
28513SOL    HW288817   2.739   1.103   6.913 -1.4608  0.8431  0.5898
28514SOL     OW88818  10.966   2.922   3.008 -0.0916 -0.1251  0.3883
28514SOL    HW188819  10.909   2.987   3.048 -0.9213 -1.1952  1.0163
28514SOL    HW288820  10.985   2.860   3.078  0.5500 -0.6419 -0.2272
28515SOL     OW88821   4.144   4.583   5.005  0.0317  0.1874  0.4003
28515SOL    HW188822   4.053   4.611   4.995  0.3011  0.5444 -1.3764
28515SOL    HW288823   4.138   4.495   5.041 -1.0130  0.2075  0.3113
28516SOL     OW88824   6.633   3.017   6.297 -0.2039  0.0807 -0.2903
28516SOL    HW188825   6.609   3.065   6.377  0.0651 -0.4779  0.1382
28516SOL    HW288826   6.648   2.927   6.327  1.0988  0.1180 -0.7507
28517SOL     OW88827   0.955   7.192   0.457 -0.0581  0.3325 -0.6716
28517SOL    HW188828   0.964   7.135   0.381 -1.9301  1.5210 -1.8824
28517SOL    HW288829   1.029   7.253   0.452  0.9143 -0.7992 -0.4050
28518SOL     OW88830   4.390   6.397   6.430  0.3390  0.5373  0.3800
28518SOL    HW188831   4.449   6.462   6.390  2.5156 -1.7533 -0.3673
28518SOL    HW288832   4.431   6.377   6.514 -0.2074 -0.0026  0.5181
28519SOL     OW88833  11.020  10.226   4.514 -0.0220 -0.4338  0.6605
28519SOL    HW188834  10.972  10.144   4.526 -0.2495 -0.4341 -0.1440
28519SOL    HW288835  10.956  10.295   4.532 -0.6270 -0.4212 -1.2298
28520SOL     OW88836   0.038   9.899   9.558  0.0814  0.0928  0.1561
28520SOL    HW188837   0.053   9.830   9.622 -0.6877 -0.1697  0.0640
28520SOL    HW288838  -0.037   9.948   9.592  1.6410  1.9741  1.1089
28521SOL     OW88839   0.023   8.406   7.719 -0.4733  0.2478  0.1206
28521SOL    HW188840   0.093   8.468   7.702  0.5098 -0.6231  0.8646
28521SOL    HW288841   0.035   8.380   7.811 -0.6635 -1.2282 -0.2359
28522SOL     OW88842   4.251   6.106   1.572 -0.1673  0.0911  0.2779
28522SOL    HW188843   4.297   6.126   1.490 -1.9738  0.2202 -0.7589
28522SOL    HW288844   4.256   6.186   1.623  1.1082 -0.0374  0.3845
28523SOL     OW88845  10.527  10.630   0.460  0.1307  0.0541  0.0134
28523SOL    HW188846  10.594  10.697   0.446 -0.2402  0.1813 -1.2443
28523SOL    HW288847  10.468  10.669   0.524  0.4378  0.5487  0.0022
28524SOL     OW88848  11.003   8.080  10.901  0.8869 -0.4273  0.1721
28524SOL    HW188849  11.091   8.057  10.871  1.2518  0.1312  0.7986
28524SOL    HW288850  10.957   8.107  10.821  1.2981 -0.6762 -0.1533
28525SOL     OW88851   1.703   1.095   4.282 -0.0638  0.0438  0.1203
28525SOL    HW188852   1.694   1.078   4.188  2.6665 -0.6636 -0.1057
28525SOL    HW288853   1.724   1.009   4.319 -0.3123  0.4605  1.2645
28526SOL     OW88854   0.307   6.355   0.346  0.4402  0.2906  0.4457
28526SOL    HW188855   0.278   6.415   0.277  0.4059 -0.5681 -0.3087
28526SOL    HW288856   0.393   6.389   0.373  0.0787  1.1164  0.5793
28527SOL     OW88857   1.566   5.734   8.538  0.1984 -0.1712 -0.6829
28527SOL    HW188858   1.630   5.789   8.584 -1.3047  0.1789  1.1495
28527SOL    HW288859   1.576   5.647   8.578  0.3673 -0.4294 -1.2756
28528SOL     OW88860   3.948   4.836   9.870  0.3761 -0.0863  0.3455
28528SOL    HW188861   4.013   4.899   9.902  0.1124  0.2262  0.2744
28528SOL    HW288862   3.978   4.813   9.782 -0.0069  0.6280  0.0195
28529SOL     OW88863   1.926   0.830   9.512 -0.2119 -0.8844  0.0115
28529SOL    HW188864   1.908   0.922   9.532 -2.9639 -1.1135 -0.9224
28529SOL    HW288865   1.996   0.833   9.446  1.0338  0.3924  1.3253
28530SOL     OW88866   5.828   6.366   9.093  1.0738 -0.3618  0.5220
28530SOL    HW188867   5.739   6.331   9.105  0.6817  0.1238 -0.8396
28530SOL    HW288868   5.837   6.376   8.998  2.1360  0.7735  0.7283
28531SOL     OW88869   0.143   6.143  10.679  0.0327 -0.6807  0.0370
28531SOL    HW188870   0.155   6.175  10.769  0.1825 -0.6462  0.0053
28531SOL    HW288871   0.104   6.217  10.633  1.3299 -0.1595 -0.2929
28532SOL     OW88872   1.584   8.270   3.777 -0.5885 -0.3385  0.1387
28532SOL    HW188873   1.555   8.189   3.820 -0.5819 -0.3833  0.0595
28532SOL    HW288874   1.672   8.250   3.744 -1.3101 -0.9241 -1.5360
28533SOL     OW88875   4.341   0.727  10.966 -0.0566  0.2288 -0.2673
28533SOL    HW188876   4.314   0.654  11.021  1.7520  0.1845  0.6322
28533SOL    HW288877   4.434   0.713  10.950  0.3100  2.2272 -0.2054
28534SOL     OW88878   9.647   6.191   6.991  0.4781  0.0927  0.1948
28534SOL    HW188879   9.586   6.168   7.061  0.3599  1.9573  0.7569
28534SOL    HW288880   9.734   6.176   7.028  0.4081  0.7317  0.6303
28535SOL     OW88881   1.213   7.033   7.203  0.3534 -0.7459  0.4758
28535SOL    HW188882   1.255   7.102   7.254  0.2654  0.0735 -0.5165
28535SOL    HW288883   1.125   7.067   7.184  0.3569 -1.0544 -0.1434
28536SOL     OW88884   4.711   3.888   7.962  0.2883  0.1475  0.3352
28536SOL    HW188885   4.734   3.848   7.878  4.2738  2.5677  0.0147
28536SOL    HW288886   4.733   3.820   8.027  1.4096 -0.2444 -0.4191
28537SOL     OW88887   7.301   6.936   6.686 -0.3984  0.6807  0.6265
28537SOL    HW188888   7.304   6.842   6.702  1.3053  0.7337  0.7380
28537SOL    HW288889   7.265   6.944   6.598  0.6733 -0.1558  0.0895
28538SOL     OW88890   2.354   0.112   0.434 -0.4411 -0.0031  0.7704
28538SOL    HW188891   2.319   0.179   0.376  0.5007 -0.2711 -0.1402
28538SOL    HW288892   2.277   0.070   0.472 -1.0518  0.7927  0.4266
28539SOL     OW88893   6.469   6.200   2.539 -0.0958  0.3576  0.2937
28539SOL    HW188894   6.469   6.204   2.444  1.1487  0.8115  0.2931
28539SOL    HW288895   6.376   6.203   2.563 -0.3903  2.0128 -0.8450
28540SOL     OW88896   9.866   2.136   6.011  0.1071 -0.1221  0.0132
28540SOL    HW188897   9.862   2.223   5.971 -0.6321 -0.8636 -1.6324
28540SOL    HW288898   9.806   2.083   5.958 -0.4104 -1.3513  1.7304
28541SOL     OW88899   2.336   5.949   0.726 -0.5053 -0.6528 -0.6104
28541SOL    HW188900   2.363   5.939   0.817  0.1385 -0.8723 -0.8149
28541SOL    HW288901   2.408   5.998   0.685  0.3423 -2.5544 -1.5149
28542SOL     OW88902   6.162   8.689   2.842  0.2985  0.0498 -0.1102
28542SOL    HW188903   6.250   8.686   2.881  0.3833  1.6994 -0.1112
28542SOL    HW288904   6.133   8.779   2.854 -1.7338 -0.6306  0.5656
28543SOL     OW88905   2.193   3.275   2.322 -0.0808  0.7577 -0.0434
28543SOL    HW188906   2.100   3.295   2.332 -0.3074  0.7034 -1.6971
28543SOL    HW288907   2.238   3.343   2.372 -0.9734  1.7832 -0.5946
28544SOL     OW88908   3.867   4.563   4.451  0.5323  0.3969  0.4766
28544SOL    HW188909   3.960   4.587   4.451 -0.1790  3.5137  1.1767
28544SOL    HW288910   3.826   4.625   4.392 -1.1940 -0.7423  0.4032
28545SOL     OW88911   9.876   3.507   0.926 -0.0196 -0.3080 -0.2578
28545SOL    HW188912   9.884   3.602   0.920  0.3026 -0.2833  0.3999
28545SOL    HW288913   9.831   3.481   0.846  0.5909  0.3139 -0.8125
28546SOL     OW88914   4.433   9.010   9.833 -0.3459 -0.4407 -0.4836
28546SOL    HW188915   4.475   8.999   9.748  0.3347 -0.5726 -0.1311
28546SOL    HW288916   4.498   9.054   9.887 -1.4649  1.4412 -0.5915
28547SOL     OW88917   2.939   3.022   2.433  0.7086 -0.6329  0.0622
28547SOL    HW188918   2.902   3.073   2.505 -0.6876  0.1328 -1.1221
28547SOL    HW288919   2.892   2.939   2.435  0.0307 -0.2767 -0.4607
28548SOL     OW88920   2.851   6.035   1.486 -0.3122  0.3908  0.0774
28548SOL    HW188921   2.825   6.038   1.579 -0.2668 -0.2864  0.1219
28548SOL    HW288922   2.785   6.088   1.441 -0.9517 -0.1297  0.3763
28549SOL     OW88923   3.772  10.787   7.434  0.0163 -0.3951  0.0173
28549SOL    HW188924   3.720  10.747   7.503  0.3760 -2.5847 -0.9082
28549SOL    HW288925   3.842  10.834   7.481 -0.1782 -1.2149  1.1535
28550SOL     OW88926   4.676   5.566   3.059  0.1593 -0.0798 -0.4455
28550SOL    HW188927   4.696   5.495   2.998 -0.5245 -0.6072 -0.0836
28550SOL    HW288928   4.581   5.579   3.049 -0.1107 -0.7099  1.0376
28551SOL     OW88929   0.764   2.687   8.537 -0.1229  0.5200 -0.2035
28551SOL    HW188930   0.806   2.601   8.543 -0.2408  0.5494  1.8134
28551SOL    HW288931   0.829   2.743   8.494  1.4727  0.2684  1.7218
28552SOL     OW88932  10.176   2.542   7.424 -0.5506  0.1694  0.1517
28552SOL    HW188933  10.120   2.474   7.386 -0.1931 -0.0218 -0.0397
28552SOL    HW288934  10.115   2.604   7.465 -1.0338  1.0291 -1.7617
28553SOL     OW88935   7.566   0.400   0.183  0.3235 -0.1013  0.2689
28553SOL    HW188936   7.510   0.405   0.105  0.4515 -1.0136  0.1100
28553SOL    HW288937   7.612   0.317   0.175  1.6784  0.5946  0.4258
28554SOL     OW88938   7.404   2.068   6.339  0.0211 -0.2380 -0.5715
28554SOL    HW188939   7.416   2.020   6.422  3.3800  0.2922 -0.6393
28554SOL    HW288940   7.340   2.015   6.291 -2.2421 -0.4768  2.3294
28555SOL     OW88941   1.535   4.545  10.584  0.3607  0.3762  0.1622
28555SOL    HW188942   1.517   4.519  10.494  0.5927  1.5346 -0.2459
28555SOL    HW288943   1.615   4.499  10.607 -0.9753 -1.8307  0.6574
28556SOL     OW88944   4.920  10.788   7.085 -0.3898 -0.5938  0.1186
28556SOL    HW188945   4.890  10.721   7.023 -1.4374  0.4559 -0.5569
28556SOL    HW288946   4.928  10.868   7.032 -2.7854  0.7143  1.5633
28557SOL     OW88947   7.696   5.522   5.497 -0.5021  0.6670 -0.0711
28557SOL    HW188948   7.735   5.437   5.520  0.0190  0.6505 -0.9787
28557SOL    HW288949   7.751   5.586   5.542 -0.1002  0.5878 -0.4441
28558SOL     OW88950   9.607   7.938   8.390  0.1638 -0.3969 -0.7585
28558SOL    HW188951   9.546   7.923   8.318 -0.2011  1.2468 -0.8177
28558SOL    HW288952   9.656   7.856   8.397 -2.0556 -1.7997 -0.6787
28559SOL     OW88953  11.260   0.478   3.065 -0.1848 -0.6736 -0.1539
28559SOL    HW188954  11.254   0.491   2.971 -0.6020  1.5555  0.1285
28559SOL    HW288955  11.314   0.551   3.096 -0.6607 -0.9500  1.4153
28560SOL     OW88956   7.979   7.498   6.646  0.1537 -0.8975 -0.0560
28560SOL    HW188957   8.011   7.436   6.580 -0.8886 -1.8255  0.2872
28560SOL    HW288958   8.014   7.582   6.618  0.4951 -1.4219 -1.2791
28561SOL     OW88959   3.185   4.788   7.993  0.4903 -0.7112  0.3129
28561SOL    HW188960   3.136   4.799   7.912  2.2470 -1.5942 -0.9418
28561SOL    HW288961   3.124   4.743   8.052 -0.2635 -1.6680 -1.1332
28562SOL     OW88962   3.340   5.624   5.196 -0.3084 -0.3269  0.0988
28562SOL    HW188963   3.283   5.701   5.198 -1.3189 -0.9869 -1.1910
28562SOL    HW288964   3.405   5.644   5.128 -2.2744 -1.6454 -2.3496
28563SOL     OW88965   1.730   1.322   6.078  0.0424  0.3167  0.3026
28563SOL    HW188966   1.770   1.326   6.165 -0.3939 -1.3181  0.6022
28563SOL    HW288967   1.794   1.275   6.024 -0.3776 -0.0989  0.1570
28564SOL     OW88968   5.450  10.344   1.948 -0.2000  0.0231  0.2861
28564SOL    HW188969   5.506  10.276   1.986  0.1189  0.6595  0.9845
28564SOL    HW288970   5.380  10.296   1.905 -0.3479 -0.7333  1.3363
28565SOL     OW88971   6.991  11.170   8.297 -0.0566 -0.2718  0.4101
28565SOL    HW188972   7.055  11.169   8.226  1.1150 -0.4370  1.4400
28565SOL    HW288973   6.971  11.078   8.314  0.1465 -0.2586  0.7204
28566SOL     OW88974   1.421  11.148   5.677  0.0648 -0.5802 -0.2236
28566SOL    HW188975   1.346  11.208   5.681  0.0512 -0.6216  0.1577
28566SOL    HW288976   1.497  11.206   5.676  0.0329 -0.3976 -3.1034
28567SOL     OW88977   0.233   7.434   0.338 -0.1333 -0.0244 -0.3724
28567SOL    HW188978   0.176   7.481   0.278 -1.4249 -0.5242  0.4142
28567SOL    HW288979   0.248   7.496   0.409 -0.3220 -0.1449 -0.2248
28568SOL     OW88980   0.055   9.738   6.289  0.2074 -0.0355  0.4580
28568SOL    HW188981  -0.036   9.708   6.290 -0.1933  0.6793 -2.9069
28568SOL    HW288982   0.053   9.824   6.330 -0.3163 -0.5721  1.6258
28569SOL     OW88983   7.422   1.801  10.290  0.5630 -0.1033 -0.3203
28569SOL    HW188984   7.464   1.876  10.247  0.1319  0.4500  0.2154
28569SOL    HW288985   7.473   1.787  10.369 -1.3505  1.8471  1.4052
28570SOL     OW88986   9.194   6.199   6.028 -0.0246 -0.2010 -0.2451
28570SOL    HW188987   9.226   6.175   5.942 -1.4368 -0.3749 -0.7530
28570SOL    HW288988   9.272   6.222   6.078  0.8081 -0.0978 -1.5642
28571SOL     OW88989   8.473   6.020  10.633  0.3190  0.0315  0.5577
28571SOL    HW188990   8.513   6.096  10.591  1.5810 -0.3841  0.9540
28571SOL    HW288991   8.509   6.020  10.721 -0.7060 -0.2835  0.9917
28572SOL     OW88992   3.944   9.403   1.066 -0.1328 -0.2115 -0.4297
28572SOL    HW188993   3.904   9.341   1.005 -0.2969  0.4905 -1.0331
28572SOL    HW288994   4.020   9.438   1.019 -1.2921  1.6859 -0.9524
28573SOL     OW88995  11.246   4.831   5.615  0.6135 -0.5705 -0.0470
28573SOL    HW188996  11.162   4.786   5.626 -0.6025  1.5352 -0.1690
28573SOL    HW288997  11.236   4.881   5.534  1.2428  1.1797  0.9040
28574SOL     OW88998   3.895   9.543  10.931 -0.2711 -0.1220  0.1239
28574SOL    HW188999   3.953   9.533  10.855 -2.0091  1.2910 -1.4946
28574SOL    HW289000   3.807   9.532  10.896 -1.1875  1.5153  1.7157
28575SOL     OW89001  10.021   9.100   0.003  0.2826  0.1328  0.2056
28575SOL    HW189002   9.970   9.123   0.081 -0.3524 -1.2103  0.2223
28575SOL    HW289003  10.045   9.184  -0.036 -2.9363  0.8916 -0.4671
28576SOL     OW89004  11.169   6.928   7.234 -0.2591 -0.6324  0.1819
28576SOL    HW189005  11.124   6.872   7.298 -1.8585  1.6392  1.1607
28576SOL    HW289006  11.099   6.960   7.178  0.5219  0.7989 -0.0046
28577SOL     OW89007   1.062   7.344   4.907 -0.0569  0.7693  0.1950
28577SOL    HW189008   1.008   7.280   4.861 -0.5358  0.5229  1.0797
28577SOL    HW289009   1.152   7.321   4.884 -0.2494  0.0878  0.1148
28578SOL     OW89010   2.089   0.011  10.302 -0.8503 -0.2682 -0.4040
28578SOL    HW189011   2.110  -0.082  10.313  0.7593  0.0837 -0.2984
28578SOL    HW289012   2.036   0.033  10.378  1.2043 -0.4319  1.1581
28579SOL     OW89013   0.665   5.022   7.511  0.5575  0.1125 -0.9935
28579SOL    HW189014   0.747   5.062   7.539 -0.6441  1.8546  0.2055
28579SOL    HW289015   0.623   4.993   7.592 -0.9825  1.2678 -1.3241
28580SOL     OW89016   9.781   9.883   5.761 -0.4359  0.0474  0.5794
28580SOL    HW189017   9.750   9.814   5.820 -0.3729 -0.1034  0.4384
28580SOL    HW289018   9.872   9.898   5.788 -0.3548 -0.1368  0.4198
28581SOL     OW89019   0.677   8.677   1.012  0.4569 -0.5230  0.0487
28581SOL    HW189020   0.764   8.646   1.040 -0.1507 -1.8319  0.5650
28581SOL    HW289021   0.636   8.707   1.093  0.0790 -0.7998 -0.0406
28582SOL     OW89022   1.221   7.145   0.735 -1.1688 -0.3189  0.0219
28582SOL    HW189023   1.222   7.054   0.764  0.3095 -0.4150 -0.2486
28582SOL    HW289024   1.313   7.171   0.735 -1.4998  0.9298 -0.6992
28583SOL     OW89025   3.129   5.935   1.661  0.6539 -0.4100 -0.4391
28583SOL    HW189026   3.153   5.974   1.578  1.7327  0.5761  0.3044
28583SOL    HW289027   3.041   5.969   1.679  0.1704 -1.0917 -1.4223
28584SOL     OW89028   2.308   4.586   4.161  0.1628  0.1560  0.0248
28584SOL    HW189029   2.221   4.563   4.194 -0.4721  2.8606  0.4620
28584SOL    HW289030   2.291   4.641   4.084  1.6019 -2.1060 -2.0899
28585SOL     OW89031   7.659   5.398   5.950  0.2460 -0.0817 -0.1051
28585SOL    HW189032   7.614   5.384   6.033 -1.6669  0.6896 -0.9480
28585SOL    HW289033   7.726   5.464   5.969  0.5000 -0.6568  1.0244
28586SOL     OW89034   8.753   3.078   4.920 -0.6295 -0.5903 -0.6699
28586SOL    HW189035   8.764   3.098   5.013 -2.3128 -1.9803 -0.1219
28586SOL    HW289036   8.801   2.997   4.907  0.5418  0.1826 -1.3043
28587SOL     OW89037   5.964  10.064   4.972  0.5130 -0.0871 -0.0280
28587SOL    HW189038   5.889  10.027   4.925  0.5825  0.2458 -0.4156
28587SOL    HW289039   5.987  10.142   4.921  0.9733 -0.0565  0.2230
28588SOL     OW89040   4.325   2.424   2.748 -0.4664 -0.0685  0.2800
28588SOL    HW189041   4.268   2.391   2.679 -0.7730  1.1703 -0.0805
28588SOL    HW289042   4.307   2.518   2.752  1.4412  0.3343  0.2625
28589SOL     OW89043   4.616   7.470  11.001  0.1520 -0.0392 -0.6076
28589SOL    HW189044   4.627   7.563  11.021 -1.5692  0.2881 -1.0436
28589SOL    HW289045   4.644   7.462  10.910  0.8486 -0.0743 -0.3969
28590SOL     OW89046   5.624   0.006   3.544  0.1035 -0.2517 -0.2656
28590SOL    HW189047   5.591   0.096   3.545 -1.7503 -0.8717 -0.2122
28590SOL    HW289048   5.648  -0.010   3.453  1.7527  0.7001 -0.0293
28591SOL     OW89049   9.412  10.673   1.118 -0.0839  0.1543  0.4178
28591SOL    HW189050   9.354  10.620   1.172 -0.3364 -0.4015 -0.3917
28591SOL    HW289051   9.359  10.700   1.043  0.8872 -1.0408 -0.7625
28592SOL     OW89052   3.746   0.483   7.180  0.3376 -0.4203  0.0598
28592SOL    HW189053   3.828   0.511   7.222  0.0109 -0.6773  0.8853
28592SOL    HW289054   3.770   0.465   7.090  0.9569  0.6634 -0.0092
28593SOL     OW89055   4.838   7.222   9.198 -0.0355  0.4452  0.5925
28593SOL    HW189056   4.917   7.222   9.251 -0.9588 -0.7847  2.0775
28593SOL    HW289057   4.834   7.134   9.160 -0.4629  0.6377  0.1758
28594SOL     OW89058   6.811   8.229  10.556  0.3782  0.4183  0.0514
28594SOL    HW189059   6.845   8.162  10.497  0.5432  0.9516 -0.4732
28594SOL    HW289060   6.718   8.208  10.565  0.4852 -0.0458  0.1300
28595SOL     OW89061   2.129   4.008   6.003 -0.3657  0.0661  0.2304
28595SOL    HW189062   2.128   3.933   5.943  2.5791 -1.8364  2.2821
28595SOL    HW289063   2.186   4.072   5.961  1.7016 -1.2647  0.8691
28596SOL     OW89064   4.408   0.636   9.949 -0.2475 -0.0758 -0.4095
28596SOL    HW189065   4.478   0.687   9.990 -1.5005 -0.0515  1.8416
28596SOL    HW289066   4.392   0.679   9.865  0.5861  1.5646  0.2384
28597SOL     OW89067   0.778  10.712   4.472  0.2796 -0.2532  0.0157
28597SOL    HW189068   0.829  10.692   4.550 -1.0816  0.1560  1.0594
28597SOL    HW289069   0.749  10.627   4.439 -2.1057 -0.3635  2.0830
28598SOL     OW89070   4.323   0.681   2.705  0.6396 -0.2595  0.2214
28598SOL    HW189071   4.243   0.663   2.754  0.9716  3.4315  2.4531
28598SOL    HW289072   4.293   0.706   2.618 -0.5230 -0.0465  0.6723
28599SOL     OW89073   1.585  10.151   6.543 -0.2600 -0.3305  0.6439
28599SOL    HW189074   1.551  10.092   6.475  0.5119 -0.6689  0.5448
28599SOL    HW289075   1.664  10.189   6.505  0.4729 -0.9165  1.5356
28600SOL     OW89076   0.127  11.086   7.882  0.1387 -0.0801  0.2827
28600SOL    HW189077   0.052  11.073   7.940  0.1941  0.0174  0.3770
28600SOL    HW289078   0.175  11.004   7.886  0.4786  0.1401  0.8616
28601SOL     OW89079  11.302   0.464   6.843 -0.5091  0.3632  0.1406
28601SOL    HW189080  11.391   0.478   6.874 -0.8440  0.8749  0.9184
28601SOL    HW289081  11.248   0.468   6.923 -0.9871 -2.4368  0.0503
28602SOL     OW89082   6.158   0.959   6.118 -0.0176  0.2624 -0.1017
28602SOL    HW189083   6.192   0.891   6.176 -0.1021  0.1026 -0.2406
28602SOL    HW289084   6.072   0.981   6.154 -0.0957  0.1206 -0.2026
28603SOL     OW89085   3.606   8.675   4.860  0.4141 -1.0532 -0.0854
28603SOL    HW189086   3.618   8.752   4.916  1.7354 -1.1621 -0.1813
28603SOL    HW289087   3.529   8.630   4.896 -0.3574  0.2758 -0.0059
28604SOL     OW89088   5.134   5.597   0.050  0.3012 -0.2477  0.1681
28604SOL    HW189089   5.156   5.533   0.118  0.2945  0.9280  1.3127
28604SOL    HW289090   5.213   5.651   0.042 -0.7727  1.7022  1.6707
28605SOL     OW89091   4.832   8.532   3.707  0.2393  0.1726 -0.0015
28605SOL    HW189092   4.771   8.592   3.663  0.1776  0.3555  0.3337
28605SOL    HW289093   4.863   8.475   3.637  0.0096  0.3536 -0.2548
28606SOL     OW89094   2.531   9.971   2.443  0.1986  0.0308 -0.2577
28606SOL    HW189095   2.606   9.913   2.429 -0.6224 -1.0037 -0.4659
28606SOL    HW289096   2.568  10.059   2.436  1.2825 -0.4547 -0.9613
28607SOL     OW89097   3.111   0.440   3.336  0.2835  0.2665 -0.3932
28607SOL    HW189098   3.157   0.519   3.364  0.8605 -0.1248 -0.2282
28607SOL    HW289099   3.148   0.370   3.389 -0.3676 -0.0899 -0.3904
28608SOL     OW89100   5.219   4.202   5.853  0.4015 -0.6862  0.0594
28608SOL    HW189101   5.195   4.120   5.809  0.4402 -0.8609  0.3633
28608SOL    HW289102   5.137   4.232   5.892  0.0435  0.2072 -1.3189
28609SOL     OW89103   0.142   2.016   0.447  0.2731 -0.3844  0.4219
28609SOL    HW189104   0.155   1.927   0.480 -0.3698 -0.4334  0.5571
28609SOL    HW289105   0.141   2.007   0.352 -1.1608 -0.7432  0.4386
28610SOL     OW89106   4.611   5.616   2.503  0.1589  0.1683  0.2580
28610SOL    HW189107   4.560   5.598   2.583  0.5697 -1.8339  0.0954
28610SOL    HW289108   4.556   5.583   2.432  1.2323 -1.1181  0.0011
28611SOL     OW89109   7.497   2.512   7.688  0.0797  0.0022  0.7967
28611SOL    HW189110   7.485   2.418   7.673 -1.1687  0.0981  1.1374
28611SOL    HW289111   7.475   2.553   7.605 -0.2181  0.0536  0.9009
28612SOL     OW89112   2.340   9.219   6.249 -0.6734 -0.4224 -0.0177
28612SOL    HW189113   2.301   9.259   6.172 -0.6288 -1.5866 -0.6701
28612SOL    HW289114   2.364   9.130   6.221  1.4199 -0.1363  0.6771
28613SOL     OW89115   3.973   5.178   8.996 -0.9028  0.1554  0.7946
28613SOL    HW189116   3.892   5.226   8.979 -0.0898  1.1252 -0.5063
28613SOL    HW289117   4.019   5.179   8.913  0.3016 -0.6804  1.4243
28614SOL     OW89118   8.398   4.257   2.885  0.1475  0.4231  0.0691
28614SOL    HW189119   8.470   4.232   2.943 -1.5636 -0.2498  2.0564
28614SOL    HW289120   8.428   4.337   2.843  1.0302  1.7579  2.9494
28615SOL     OW89121   1.583   9.392   6.799  0.4047 -0.0256  0.4869
28615SOL    HW189122   1.658   9.353   6.842  0.2988  0.5879  1.2459
28615SOL    HW289123   1.607   9.483   6.785  0.0434  0.0274  0.1610
28616SOL     OW89124   9.305   7.583  11.052 -0.4273  0.6409  0.5188
28616SOL    HW189125   9.355   7.594  11.133 -2.0073 -0.5865  1.7205
28616SOL    HW289126   9.331   7.497  11.020 -0.8671  0.5216  0.4835
28617SOL     OW89127   1.044   1.347   2.114  0.2042 -0.5468  0.3434
28617SOL    HW189128   1.138   1.348   2.132  0.4940 -0.8302 -1.0330
28617SOL    HW289129   1.007   1.293   2.184  1.1525 -0.9732  0.5369
28618SOL     OW89130   8.543   1.940  10.532  0.3645 -0.6218  0.0439
28618SOL    HW189131   8.515   2.030  10.516 -2.3704 -1.3840 -0.0772
28618SOL    HW289132   8.637   1.946  10.550  0.1787  2.2851  0.4925
28619SOL     OW89133   7.582   1.797   6.298  0.5998  0.0939 -1.1890
28619SOL    HW189134   7.548   1.732   6.235 -2.8446 -1.0721  1.5478
28619SOL    HW289135   7.535   1.878   6.276  1.0488  0.2843 -1.4530
28620SOL     OW89136   1.314   9.956   7.110 -0.3705 -0.2153 -0.3265
28620SOL    HW189137   1.356   9.918   7.187 -0.8771 -0.6641 -0.2714
28620SOL    HW289138   1.313  10.050   7.129 -1.0184 -0.3702  0.4846
28621SOL     OW89139   1.860   6.978   3.032  0.1128 -0.2022  0.7875
28621SOL    HW189140   1.777   7.010   2.996 -0.6228 -0.5402  2.1222
28621SOL    HW289141   1.915   6.965   2.955 -0.4655  1.6515 -0.0184
28622SOL     OW89142   7.993  10.243   9.350 -0.2482 -0.1434 -0.0653
28622SOL    HW189143   8.083  10.249   9.319 -0.1087 -0.5007  0.2665
28622SOL    HW289144   7.945  10.308   9.298  0.3278  0.5170  0.2310
28623SOL     OW89145   8.935   4.732   8.495 -0.5826  0.3930 -0.0974
28623SOL    HW189146   8.855   4.778   8.520 -0.6618  0.3645 -0.2954
28623SOL    HW289147   9.005   4.793   8.516 -0.6075  0.1488  0.7177
28624SOL     OW89148   4.840   7.855   8.403  0.4003  0.7842 -0.4089
28624SOL    HW189149   4.797   7.792   8.460 -0.9629  1.1596 -0.9751
28624SOL    HW289150   4.920   7.811   8.373 -0.1125 -0.3422 -0.1466
28625SOL     OW89151  10.674   9.228   6.697  0.2045  0.6324 -0.5621
28625SOL    HW189152  10.596   9.245   6.645  0.2205 -0.4756 -0.9812
28625SOL    HW289153  10.660   9.142   6.735  1.4070  0.2076 -1.0136
28626SOL     OW89154   5.868   6.031   2.176 -0.4253  0.2002 -0.1061
28626SOL    HW189155   5.900   5.941   2.186 -3.0044 -0.8954 -0.9178
28626SOL    HW289156   5.793   6.037   2.235  1.0497  2.6590  1.7221
28627SOL     OW89157   9.858   4.191  10.987  0.1020  0.2106  0.3692
28627SOL    HW189158   9.938   4.244  10.988  1.2600 -1.3721 -1.3764
28627SOL    HW289159   9.874   4.120  11.049 -0.4750  0.5640  0.9355
28628SOL     OW89160   7.275   7.477   6.200 -0.1362  0.7830 -0.3747
28628SOL    HW189161   7.253   7.405   6.259  0.3216  1.1137  0.2110
28628SOL    HW289162   7.310   7.434   6.122  2.3403  0.3690  0.8411
28629SOL     OW89163   7.693  10.393  10.800 -0.8417 -0.2467 -0.3204
28629SOL    HW189164   7.618  10.393  10.740 -0.1049 -0.7888 -1.2657
28629SOL    HW289165   7.768  10.371  10.745 -0.0105  0.0651  0.6526
28630SOL     OW89166   7.545   3.975   1.057  0.3797  0.3079  0.1960
28630SOL    HW189167   7.522   4.040   1.123 -0.5301 -1.2402  1.5020
28630SOL    HW289168   7.637   3.954   1.075  0.3387  0.3987  0.5161
28631SOL     OW89169   0.153   2.287   9.915 -0.0149  0.1724 -0.5435
28631SOL    HW189170   0.208   2.259   9.989  0.1800 -0.5652 -0.9638
28631SOL    HW289171   0.073   2.319   9.957  1.3137  2.8756  0.2154
28632SOL     OW89172   9.943   4.610   9.027  0.7972  0.1066  0.0686
28632SOL    HW189173   9.862   4.660   9.034 -0.6861 -1.6976 -2.4604
28632SOL    HW289174   9.920   4.523   9.061  1.7105 -0.3439 -0.4259
28633SOL     OW89175   2.431  10.407   2.492 -0.3978  0.0667  0.4210
28633SOL    HW189176   2.484  10.334   2.460 -0.7454  0.3732 -0.9156
28633SOL    HW289177   2.494  10.480   2.499 -0.0844 -0.2974  1.6018
28634SOL     OW89178   1.122   7.059   8.454 -0.3152 -0.5364 -0.0899
28634SOL    HW189179   1.087   6.991   8.397 -2.8530  0.4313  0.1879
28634SOL    HW289180   1.169   7.118   8.395  0.8094 -1.7987 -0.5081
28635SOL     OW89181   1.820  10.724   4.891 -0.0356  0.1979  0.6436
28635SOL    HW189182   1.738  10.768   4.914 -0.6992 -0.8146  0.2995
28635SOL    HW289183   1.850  10.769   4.813 -1.8931 -1.3293 -1.0638
28636SOL     OW89184   4.114   2.730   7.136  0.5673 -0.4420 -0.3133
28636SOL    HW189185   4.170   2.751   7.210 -0.0951  0.8226 -0.1526
28636SOL    HW289186   4.120   2.634   7.128 -0.8362 -0.8707  2.6145
28637SOL     OW89187   9.291   1.766   6.619  0.3987  0.1786  0.4314
28637SOL    HW189188   9.278   1.673   6.596  0.6789  0.2064  0.1445
28637SOL    HW289189   9.260   1.814   6.542 -0.2475  0.3484  0.7908
28638SOL     OW89190   0.695  10.873   8.266  0.7740  0.4172 -0.4528
28638SOL    HW189191   0.661  10.812   8.330 -0.2090  0.4460 -0.9291
28638SOL    HW289192   0.790  10.865   8.273  0.6715 -1.2769 -0.6081
28639SOL     OW89193   3.203   3.957  11.282  0.5661 -0.1124  0.2121
28639SOL    HW189194   3.193   3.993  11.194 -3.3368  0.1872  0.6338
28639SOL    HW289195   3.168   3.868  11.277  0.7377 -0.2631  1.3606
28640SOL     OW89196   1.130   2.201   9.963  0.1414 -0.3241 -0.3487
28640SOL    HW189197   1.066   2.170   9.899 -0.1390  0.0700 -0.2619
28640SOL    HW289198   1.089   2.184  10.048  0.4259 -0.6581 -0.2752
28641SOL     OW89199   2.511   0.782   8.238  0.0188  0.2358 -0.9034
28641SOL    HW189200   2.577   0.721   8.205  0.1630 -0.9125  1.2464
28641SOL    HW289201   2.542   0.805   8.326 -0.6522  2.5237 -1.2092
28642SOL     OW89202   4.458   5.747   9.635  0.0929 -0.2502 -0.3663
28642SOL    HW189203   4.388   5.732   9.572  0.2095 -3.6223  0.0856
28642SOL    HW289204   4.517   5.809   9.592  0.3390 -2.5788 -3.8103
28643SOL     OW89205   7.552   0.862   5.468  0.0257  0.7032 -0.8059
28643SOL    HW189206   7.584   0.950   5.452  0.8290  0.3876 -0.9801
28643SOL    HW289207   7.631   0.808   5.473 -0.4724 -0.0800 -1.1572
28644SOL     OW89208   5.106   1.229   3.559 -0.0920 -0.4448 -0.3278
28644SOL    HW189209   5.161   1.182   3.497 -1.1840  0.3662 -1.9894
28644SOL    HW289210   5.157   1.232   3.640  1.6628 -0.9453 -1.3746
28645SOL     OW89211   5.122  10.810   2.140  0.1023 -0.2510  0.0489
28645SOL    HW189212   5.137  10.721   2.108  2.5067 -0.1004  0.5967
28645SOL    HW289213   5.141  10.866   2.066  1.3616 -0.1026  0.4602
28646SOL     OW89214   6.451   9.716   4.136 -0.5296  0.8026  0.0377
28646SOL    HW189215   6.483   9.785   4.078 -0.0547 -0.6301 -1.5182
28646SOL    HW289216   6.430   9.643   4.077  0.8143 -1.0626  1.7068
28647SOL     OW89217   7.093   0.726   3.175  0.2250  0.4173 -0.0995
28647SOL    HW189218   7.157   0.797   3.165  0.4844  0.3794  1.1109
28647SOL    HW289219   7.092   0.683   3.089  0.7170  1.3366 -0.5859
28648SOL     OW89220   0.082   1.422   5.068  0.3459  0.2215 -0.5157
28648SOL    HW189221   0.129   1.376   4.999  0.2130  1.5165 -1.5211
28648SOL    HW289222   0.147   1.482   5.105  0.5029 -0.6877  0.7237
28649SOL     OW89223   0.734  10.614   3.468  0.4361 -0.3785 -0.0271
28649SOL    HW189224   0.682  10.541   3.501  0.6195 -0.6376 -0.3102
28649SOL    HW289225   0.694  10.636   3.383 -0.0083  0.2576  0.3395
28650SOL     OW89226   5.676   1.167   1.826 -0.3217  0.0094  0.0437
28650SOL    HW189227   5.752   1.150   1.769 -0.2165 -1.6856  0.6397
28650SOL    HW289228   5.610   1.104   1.796 -0.9257  0.3754  0.5965
28651SOL     OW89229   6.722   4.701   8.525 -0.0334 -0.0814  0.3445
28651SOL    HW189230   6.684   4.639   8.464 -1.3088  1.8177 -0.8771
28651SOL    HW289231   6.791   4.651   8.569  0.1507 -1.8515 -1.7722
28652SOL     OW89232   9.495   1.359   5.948 -0.3094  0.5498  0.4219
28652SOL    HW189233   9.453   1.286   5.902 -1.3314  1.2881  0.1578
28652SOL    HW289234   9.538   1.409   5.879 -0.1674  0.5641  0.5212
28653SOL     OW89235   3.815  10.074   2.574 -0.0921 -0.1449  0.0639
28653SOL    HW189236   3.895  10.039   2.535  0.3926  2.3973 -1.4639
28653SOL    HW289237   3.832  10.075   2.668  0.4432 -2.3911  0.0415
28654SOL     OW89238   2.036   7.784   6.325  0.7989 -0.3200 -0.1054
28654SOL    HW189239   1.966   7.738   6.279  0.6605  0.3401 -0.5695
28654SOL    HW289240   2.097   7.811   6.256  0.4218  0.9704  0.0336
28655SOL     OW89241   3.030  11.078   8.158  0.4344 -0.7050 -0.3431
28655SOL    HW189242   3.034  10.991   8.199  1.6742 -1.2151 -1.4618
28655SOL    HW289243   3.091  11.131   8.210 -0.2307 -0.5132  0.2648
28656SOL     OW89244  10.499   3.035   2.496  0.2144  0.1719  0.2348
28656SOL    HW189245  10.547   3.039   2.578  1.0367 -0.5948 -0.1823
28656SOL    HW289246  10.462   2.947   2.494 -1.8863  0.9929  0.8917
28657SOL     OW89247   5.753   4.774   3.529  0.3454  0.2181  0.4305
28657SOL    HW189248   5.707   4.773   3.613 -0.3893  0.6086  0.0400
28657SOL    HW289249   5.724   4.694   3.485  1.3940 -0.4393  0.8816
28658SOL     OW89250   3.673   4.629   7.742  0.0768 -0.1254  0.0400
28658SOL    HW189251   3.640   4.540   7.729 -2.2073  0.6711  0.0205
28658SOL    HW289252   3.596   4.680   7.767  1.2656  1.9440 -0.3032
28659SOL     OW89253  11.282   6.850   8.493  0.5697  0.5333 -0.3192
28659SOL    HW189254  11.244   6.783   8.549  0.1856  1.4315  0.5066
28659SOL    HW289255  11.258   6.824   8.404  1.8442 -1.3358 -0.1803
28660SOL     OW89256   5.718   6.770   3.213 -0.4489  0.0868 -0.5332
28660SOL    HW189257   5.719   6.866   3.216 -0.6509  0.1555 -2.2130
28660SOL    HW289258   5.625   6.747   3.217 -0.3692 -0.1238  0.9754
28661SOL     OW89259   4.011   0.978  11.129  0.6212 -0.3468  0.2710
28661SOL    HW189260   4.102   1.002  11.145  0.0750  1.7953  0.4365
28661SOL    HW289261   4.012   0.935  11.044  1.4912  1.8056 -0.8664
28662SOL     OW89262   6.361   0.196   7.784  0.1461 -0.1195  0.4107
28662SOL    HW189263   6.277   0.150   7.788 -0.3630  0.8229  0.8482
28662SOL    HW289264   6.355   0.249   7.704 -1.1914  2.7151  2.2381
28663SOL     OW89265   1.503   0.580   7.453 -0.1553 -0.2789  0.5064
28663SOL    HW189266   1.451   0.541   7.382  1.2480 -0.4750 -0.4724
28663SOL    HW289267   1.589   0.594   7.413  0.1352  1.4001  1.6282
28664SOL     OW89268   7.139  10.583  10.199  0.1604 -0.0485 -0.1361
28664SOL    HW189269   7.110  10.569  10.289 -0.2380  0.2374 -0.2130
28664SOL    HW289270   7.232  10.604  10.206  0.0085  0.5139  0.2578
28665SOL     OW89271   5.842   8.455  10.398 -0.0066 -0.3860  0.6279
28665SOL    HW189272   5.775   8.462  10.466 -0.3491  0.3021  0.2325
28665SOL    HW289273   5.924   8.478  10.443 -0.3773  1.1347  0.5887
28666SOL     OW89274   8.532   9.598   7.838  0.3043 -0.0198  0.0069
28666SOL    HW189275   8.454   9.544   7.822 -0.5208  0.3999  2.3012
28666SOL    HW289276   8.498   9.686   7.854  1.2390  0.1899  0.9666
28667SOL     OW89277   9.002  10.301   3.060  0.0628 -0.2128  0.5402
28667SOL    HW189278   8.926  10.305   3.002 -0.2069  0.4879  0.9419
28667SOL    HW289279   8.967  10.277   3.145  0.0388  1.8605  1.1581
28668SOL     OW89280   9.605  10.733   8.973 -0.1201  0.3523  0.1992
28668SOL    HW189281   9.588  10.765   9.062  1.1058 -0.3770  0.7363
28668SOL    HW289282   9.661  10.800   8.933 -1.8461  1.3892 -0.5711
28669SOL     OW89283   0.424   7.977  11.022 -0.2916  0.2033 -0.3913
28669SOL    HW189284   0.377   7.903  10.983 -0.6406  0.7011 -0.9320
28669SOL    HW289285   0.359   8.047  11.027 -0.3317  0.0780  1.3583
28670SOL     OW89286   0.314   7.923   7.288  0.1210  0.8394  0.1104
28670SOL    HW189287   0.289   7.868   7.362  1.1703  0.9175  0.5310
28670SOL    HW289288   0.238   7.919   7.229 -1.3239  1.9029  1.7989
28671SOL     OW89289   4.931  10.476  11.199 -0.0733 -0.1771 -0.6274
28671SOL    HW189290   4.870  10.433  11.259  1.3173 -0.7906  0.4053
28671SOL    HW289291   5.015  10.431  11.214  0.6473  0.6634 -1.9637
28672SOL     OW89292   2.422  10.233   2.911  0.0267 -0.0480 -0.0875
28672SOL    HW189293   2.423  10.161   2.849 -3.4695  1.0710 -1.6794
28672SOL    HW289294   2.469  10.304   2.867  0.3011 -0.2250 -0.0812
28673SOL     OW89295   9.885   7.064   5.786 -0.3068 -0.2860 -0.5559
28673SOL    HW189296   9.899   7.081   5.879  0.4390  1.9786 -1.0276
28673SOL    HW289297   9.954   7.001   5.763  2.6042  2.6154 -0.4780
28674SOL     OW89298   7.302   5.008   1.864  0.1793 -0.3392 -0.2088
28674SOL    HW189299   7.289   5.103   1.871  1.0843 -0.2257  0.0689
28674SOL    HW289300   7.216   4.974   1.841 -0.2152  0.5256 -0.0644
28675SOL     OW89301   8.563   2.449   4.655  0.3374 -0.0193 -0.5557
28675SOL    HW189302   8.649   2.410   4.635  0.6592 -0.3011  1.2104
28675SOL    HW289303   8.505   2.374   4.667  0.6218  0.0404  1.4336
28676SOL     OW89304   7.798   1.276   4.774  0.5737  0.0848 -0.3256
28676SOL    HW189305   7.708   1.295   4.749  0.7901  1.3090 -0.2190
28676SOL    HW289306   7.793   1.250   4.866  0.4922  1.5894  0.1087
28677SOL     OW89307  11.382   5.584   7.735  0.6092 -0.3059  0.7698
28677SOL    HW189308  11.467   5.549   7.710  0.0058 -1.1006 -0.1989
28677SOL    HW289309  11.366   5.547   7.822  0.5633 -1.3811  0.3091
28678SOL     OW89310   8.686   3.517   9.420  0.4111  0.0881  0.1740
28678SOL    HW189311   8.736   3.460   9.479  0.6865 -0.3768 -0.4934
28678SOL    HW289312   8.605   3.469   9.404  0.9607 -0.4918 -0.9903
28679SOL     OW89313   5.769   2.561  11.210  0.0136 -0.2814 -0.2578
28679SOL    HW189314   5.837   2.626  11.189  3.0760 -2.1584  2.7774
28679SOL    HW289315   5.717   2.602  11.279  2.2352 -0.9815  1.9949
28680SOL     OW89316   9.510   5.322   9.719 -0.4889 -0.3612  0.1639
28680SOL    HW189317   9.575   5.329   9.788 -1.4956  1.3705  1.0028
28680SOL    HW289318   9.462   5.405   9.722 -3.5860 -1.9998  0.4641
28681SOL     OW89319   5.375   5.347  11.248 -0.0097 -0.3162 -0.2733
28681SOL    HW189320   5.329   5.366  11.330 -0.2920  2.2370 -0.9426
28681SOL    HW289321   5.307   5.310  11.191 -0.3284 -0.0484 -0.0674
28682SOL     OW89322   5.907   2.036   5.140  0.2944  0.3329  0.5152
28682SOL    HW189323   5.968   1.969   5.172 -1.6700 -2.0070 -0.3109
28682SOL    HW289324   5.880   2.004   5.054 -1.0278  2.0128  0.2641
28683SOL     OW89325   4.903   7.359   3.694 -0.6100  0.7195 -0.2381
28683SOL    HW189326   4.819   7.343   3.737 -0.7539 -1.5229 -1.2020
28683SOL    HW289327   4.968   7.324   3.755 -0.3404  2.4383  0.5004
28684SOL     OW89328   4.342   9.639   9.539  0.2637  0.6692  0.1473
28684SOL    HW189329   4.432   9.667   9.552  0.9573 -1.8816  1.5440
28684SOL    HW289330   4.328   9.644   9.444  2.2692 -0.0152 -0.2190
28685SOL     OW89331   2.025   1.043   4.834 -0.7387  0.2531  0.3368
28685SOL    HW189332   1.960   0.994   4.785  0.2991 -1.9511  1.0357
28685SOL    HW289333   1.980   1.072   4.914 -1.0285 -0.7291  0.5324
28686SOL     OW89334   3.817   0.277  10.593 -0.6531 -0.6375  0.1029
28686SOL    HW189335   3.834   0.333  10.669  1.1601 -1.6754  0.5150
28686SOL    HW289336   3.748   0.323  10.544  0.1368  1.4783  0.8732
28687SOL     OW89337   3.645  10.765   0.177 -0.0070  0.6246 -0.0028
28687SOL    HW189338   3.579  10.731   0.116 -1.2210  1.1130  0.9795
28687SOL    HW289339   3.728  10.735   0.143 -0.7029  0.4435 -1.6010
28688SOL     OW89340   6.651   5.054  10.690 -0.5840  0.4173 -0.5744
28688SOL    HW189341   6.578   5.116  10.686 -1.2517 -0.3615 -0.7666
28688SOL    HW289342   6.644   5.014  10.777 -0.6807 -0.0021 -0.7716
28689SOL     OW89343   8.232   4.431   0.042 -0.0099 -0.4522 -0.1159
28689SOL    HW189344   8.244   4.436   0.137 -1.7857  1.4253  0.0822
28689SOL    HW289345   8.271   4.512   0.009  1.8962 -1.7521 -1.2085
28690SOL     OW89346   0.103   5.694   4.901  0.6048 -0.4313 -0.0415
28690SOL    HW189347   0.048   5.699   4.823  2.0174 -0.4479 -1.0766
28690SOL    HW289348   0.079   5.770   4.953 -0.1356 -0.2498 -0.6395
28691SOL     OW89349   4.977   9.870   3.202  0.3135 -0.7061  0.6300
28691SOL    HW189350   4.917   9.896   3.132  0.0023  0.2704  1.2312
28691SOL    HW289351   4.980   9.775   3.197  0.4877 -0.6413 -0.8547
28692SOL     OW89352   6.176   3.973  10.917 -0.2878  0.2972 -0.2304
28692SOL    HW189353   6.168   3.981  10.822 -0.4115  2.3584 -0.0798
28692SOL    HW289354   6.153   3.882  10.935  1.4002 -0.6359 -2.3208
28693SOL     OW89355   1.783   7.412   2.600  0.0624  0.1599 -0.5840
28693SOL    HW189356   1.709   7.362   2.634  0.8675 -1.6416 -1.3632
28693SOL    HW289357   1.744   7.471   2.535 -0.6001 -1.7503 -2.0265
28694SOL     OW89358   1.977   2.493   9.575  0.1617 -0.3765  0.0041
28694SOL    HW189359   1.917   2.424   9.547 -0.8802  0.6777 -0.4609
28694SOL    HW289360   2.048   2.447   9.619 -1.1480 -1.6423  0.8745
28695SOL     OW89361   8.028   0.261  10.124  0.5633  0.1958 -0.4999
28695SOL    HW189362   8.028   0.300  10.211  1.0354 -0.2196 -0.3027
28695SOL    HW289363   7.985   0.325  10.068  0.5741  0.6192 -0.0271
28696SOL     OW89364   9.008   8.574  10.140 -0.1421 -0.9162  0.2173
28696SOL    HW189365   8.956   8.534  10.070  0.2192 -1.3093  0.1735
28696SOL    HW289366   9.070   8.506  10.167  0.4162 -0.4189  0.2116
28697SOL     OW89367   9.894   0.350   8.737 -0.5109 -0.2697 -0.0619
28697SOL    HW189368   9.907   0.303   8.819  1.6279  2.6700  1.4752
28697SOL    HW289369   9.980   0.352   8.696 -0.9194  0.7512 -0.9414
28698SOL     OW89370   8.322   0.033  11.197 -0.6488 -0.2285 -0.1311
28698SOL    HW189371   8.246   0.054  11.251 -0.7687 -1.5078  0.2393
28698SOL    HW289372   8.393   0.017  11.259  0.6424  3.1821 -0.5027
28699SOL     OW89373   7.866   8.739   3.729 -0.3015  1.0803  0.2836
28699SOL    HW189374   7.790   8.687   3.755  0.4952  0.1880  0.8647
28699SOL    HW289375   7.836   8.830   3.735 -1.5190  0.7271 -0.1512
28700SOL     OW89376   0.858   2.028   2.509  0.0694 -0.3931  0.0348
28700SOL    HW189377   0.865   1.998   2.418 -0.6742 -0.6996  0.0732
28700SOL    HW289378   0.846   2.123   2.503  0.9582 -0.2831 -0.1452
28701SOL     OW89379   5.823   0.485   6.578 -0.7576 -0.1678  0.0659
28701SOL    HW189380   5.814   0.438   6.494 -0.5675  0.0126 -0.0549
28701SOL    HW289381   5.901   0.447   6.618  0.3925  1.1798 -0.7802
28702SOL     OW89382   5.342   3.632   5.592  0.0293 -0.5049 -0.0798
28702SOL    HW189383   5.419   3.607   5.643 -0.2590  0.4490  0.8537
28702SOL    HW289384   5.377   3.654   5.505  0.7282 -0.6788  0.1492
28703SOL     OW89385   1.388   5.930   6.204 -0.3744  0.6904  0.1420
28703SOL    HW189386   1.338   5.989   6.148  0.1453  1.6163  0.6227
28703SOL    HW289387   1.333   5.917   6.281 -0.8245 -0.0984 -0.2927
28704SOL     OW89388   9.040   3.401   3.196  0.0219 -1.0212 -0.2192
28704SOL    HW189389   8.956   3.446   3.205  0.8251  0.8175 -1.2486
28704SOL    HW289390   9.078   3.404   3.284  0.6398  1.7111 -0.4777
28705SOL     OW89391   3.091   8.646  10.309 -0.0974 -0.4876  0.1688
28705SOL    HW189392   3.006   8.668  10.347  0.5470  1.5804  0.5128
28705SOL    HW289393   3.105   8.713  10.242  2.0811  0.4008  1.4261
28706SOL     OW89394   4.082   4.069   9.765 -0.2843 -0.2736  0.9704
28706SOL    HW189395   4.076   4.155   9.807 -2.0625  0.6787 -1.0329
28706SOL    HW289396   4.095   4.089   9.672  0.5875 -2.2207  0.6291
28707SOL     OW89397   5.112   3.231   1.846 -0.2468 -0.3308  0.0713
28707SOL    HW189398   5.160   3.166   1.795  0.1794 -1.3179  1.6619
28707SOL    HW289399   5.133   3.315   1.805  3.6951 -0.5628  1.2039
28708SOL     OW89400   6.837   9.661   7.638  0.0193 -0.2653 -1.0467
28708SOL    HW189401   6.882   9.598   7.695  1.2466  2.1401  0.8192
28708SOL    HW289402   6.760   9.614   7.607 -0.1504 -2.0927  1.7783
28709SOL     OW89403   4.702   8.115   8.422  0.6224  0.1163  0.1277
28709SOL    HW189404   4.613   8.080   8.412  0.6533  0.1223 -0.1661
28709SOL    HW289405   4.757   8.055   8.372  0.7070  0.4550 -0.1820
28710SOL     OW89406   4.090  10.019  10.053 -0.2735  0.3567  0.1082
28710SOL    HW189407   4.154   9.978   9.995 -0.0893 -0.1927  0.6910
28710SOL    HW289408   4.143  10.055  10.124 -0.5511  0.5492  0.2177
28711SOL     OW89409   2.838   7.457   9.298  0.3109  0.1143  0.0476
28711SOL    HW189410   2.891   7.441   9.220  1.1837  0.1722  0.6167
28711SOL    HW289411   2.748   7.463   9.265  0.7855  1.3571 -1.1252
28712SOL     OW89412   0.465   6.864   7.432 -0.3892  0.5040  0.1744
28712SOL    HW189413   0.432   6.864   7.522  1.3416  0.9939  0.8378
28712SOL    HW289414   0.445   6.952   7.399  1.6602  1.4138  1.1664
28713SOL     OW89415   0.561   6.050   3.052  0.4666  0.0648  0.3739
28713SOL    HW189416   0.619   6.052   3.128 -0.4683  0.9021  1.1024
28713SOL    HW289417   0.492   6.113   3.074 -0.8372 -1.0621 -0.3553
28714SOL     OW89418   0.597   5.269   8.458 -0.4004 -0.4950 -0.5842
28714SOL    HW189419   0.685   5.231   8.450 -0.7098 -1.1892 -0.7406
28714SOL    HW289420   0.538   5.196   8.442 -1.0100  0.0263 -0.7490
28715SOL     OW89421   6.876   8.225   6.283 -0.4643 -0.0314  0.4026
28715SOL    HW189422   6.911   8.271   6.206  0.1478 -0.4540  0.4136
28715SOL    HW289423   6.911   8.274   6.358 -1.7084  0.8570  0.4335
28716SOL     OW89424  10.605   4.310  11.293  0.4122  0.1331 -0.3391
28716SOL    HW189425  10.524   4.325  11.245  0.2664 -0.4554 -0.2906
28716SOL    HW289426  10.668   4.372  11.256 -0.2073  0.9781 -0.0039
28717SOL     OW89427   3.635   8.457   7.496  0.1297 -0.5845 -0.1900
28717SOL    HW189428   3.571   8.496   7.438  0.1306 -1.1800 -0.6014
28717SOL    HW289429   3.629   8.363   7.479  0.3481 -0.7385  0.5465
28718SOL     OW89430  11.008   1.533   5.516 -0.1467 -0.5212 -0.0094
28718SOL    HW189431  10.999   1.443   5.545  1.0114 -0.7846 -0.4194
28718SOL    HW289432  10.945   1.542   5.445  0.6177 -1.4046 -0.8249
28719SOL     OW89433   0.260   9.012   9.826  0.3160 -0.1576  0.0350
28719SOL    HW189434   0.337   8.967   9.791  1.6565  0.3630  2.1221
28719SOL    HW289435   0.287   9.043   9.913 -2.3766 -0.2618  1.0172
28720SOL     OW89436   8.782  10.512   6.697 -0.3387  0.8515  0.1483
28720SOL    HW189437   8.772  10.418   6.678  1.1259  0.5011  0.9722
28720SOL    HW289438   8.745  10.522   6.785 -0.1859  0.9741  0.1983
28721SOL     OW89439   1.731   5.634  10.288 -0.0474  0.7865  0.2699
28721SOL    HW189440   1.670   5.563  10.309 -0.5682  1.2549  0.3574
28721SOL    HW289441   1.731   5.636  10.192 -0.3679  0.9463  0.2694
28722SOL     OW89442   4.780   8.485   8.555 -0.4038 -0.8109  0.2397
28722SOL    HW189443   4.731   8.568   8.549 -0.8842 -0.8367  2.6485
28722SOL    HW289444   4.770   8.445   8.469  0.6526  2.0361 -1.3449
28723SOL     OW89445   8.247   1.231   6.877 -0.4530  0.0831  0.4197
28723SOL    HW189446   8.170   1.238   6.820  0.3551  1.6382 -0.5532
28723SOL    HW289447   8.237   1.147   6.921 -2.9551  0.4666  0.7003
28724SOL     OW89448   5.662   6.830   0.838 -0.4168  0.0016 -0.6785
28724SOL    HW189449   5.644   6.740   0.864 -0.8718  0.0332 -0.8847
28724SOL    HW289450   5.597   6.849   0.770 -1.4521  1.0627  0.5655
28725SOL     OW89451   1.391   0.839   1.982  0.3940  0.5071 -0.1983
28725SOL    HW189452   1.350   0.792   1.909 -0.2757 -3.3435  2.3717
28725SOL    HW289453   1.318   0.879   2.029  0.0978 -1.4240  1.1155
28726SOL     OW89454   2.278   6.032  10.708 -0.2433  0.1188 -0.0452
28726SOL    HW189455   2.193   5.991  10.693 -0.1554 -0.5441  1.1732
28726SOL    HW289456   2.265   6.123  10.680 -1.0600 -0.1946 -0.7655
28727SOL     OW89457   3.788   2.864  10.132 -0.4228 -0.4400 -0.1308
28727SOL    HW189458   3.798   2.845  10.225  1.0831  3.9518  0.8566
28727SOL    HW289459   3.870   2.909  10.108 -1.7980  0.8378 -2.8806
28728SOL     OW89460   8.872   6.628   8.683  0.5688  0.2140 -0.0677
28728SOL    HW189461   8.852   6.708   8.634 -1.2748  1.2492  2.2228
28728SOL    HW289462   8.968   6.624   8.684  0.7074  2.4379 -0.2118
28729SOL     OW89463   5.754  10.471   7.108  0.4247 -0.3140  0.4788
28729SOL    HW189464   5.724  10.398   7.163  0.1666 -0.0131  0.7386
28729SOL    HW289465   5.791  10.534   7.169  0.0323  0.0739  0.3258
28730SOL     OW89466   5.152   3.288  10.330  0.6839 -0.1402  0.2356
28730SOL    HW189467   5.087   3.220  10.309 -0.4222  1.1151 -0.6203
28730SOL    HW289468   5.100   3.368  10.337  1.7226  0.4001  2.8480
28731SOL     OW89469  10.378   8.916   6.204  0.3357  0.1985  0.0939
28731SOL    HW189470  10.468   8.948   6.210  0.1945  0.6962 -0.3441
28731SOL    HW289471  10.337   8.971   6.138 -0.4816  0.4116  0.7559
28732SOL     OW89472   7.700   9.288   4.151  0.2722 -0.5018 -0.1569
28732SOL    HW189473   7.617   9.282   4.199  0.5926 -0.2246  0.4278
28732SOL    HW289474   7.691   9.223   4.081  1.0655 -3.3261  2.1472
28733SOL     OW89475   2.571   5.712   3.430  0.0056 -0.1332 -0.2655
28733SOL    HW189476   2.522   5.680   3.506  2.6571 -0.1068  1.5792
28733SOL    HW289477   2.620   5.636   3.399  0.0825  0.2186 -1.0349
28734SOL     OW89478   1.388   9.214   9.929 -0.1919 -0.0280 -0.0146
28734SOL    HW189479   1.352   9.302   9.924  0.2484  0.1725  0.2346
28734SOL    HW289480   1.440   9.204   9.849 -0.5703 -0.2141 -0.2406
28735SOL     OW89481   5.576   4.941   4.014  0.1761  0.0347  0.2956
28735SOL    HW189482   5.494   4.972   3.976 -1.2090 -0.8702  2.3467
28735SOL    HW289483   5.564   4.847   4.026  2.2684 -0.4674 -1.0261
28736SOL     OW89484   2.927   3.672   9.035  0.5230 -0.6641  0.2201
28736SOL    HW189485   2.900   3.605   9.098  1.0609 -1.2318 -0.1432
28736SOL    HW289486   2.915   3.754   9.082 -1.1718 -0.9240  0.3139
28737SOL     OW89487  10.730   9.792   4.568  0.2686 -0.0752 -0.1965
28737SOL    HW189488  10.758   9.744   4.646 -1.1603  0.9602  1.0010
28737SOL    HW289489  10.731   9.727   4.498  0.5496 -1.2940  0.9080
28738SOL     OW89490   0.818   7.505   1.727 -0.2789  0.0618 -0.1671
28738SOL    HW189491   0.890   7.534   1.784  0.7544 -1.3018 -0.7011
28738SOL    HW289492   0.854   7.512   1.639 -0.9010 -0.3570 -0.4582
28739SOL     OW89493   5.659   7.491   1.987 -0.4462 -0.3990 -0.0682
28739SOL    HW189494   5.752   7.470   1.973 -0.7644 -0.6703 -2.1818
28739SOL    HW289495   5.613   7.437   1.922 -2.0348  0.1934  0.5300
28740SOL     OW89496   3.795   4.465   5.556  0.3981 -0.1083 -0.0500
28740SOL    HW189497   3.806   4.505   5.642 -0.2156 -1.5515  0.7444
28740SOL    HW289498   3.779   4.538   5.496  1.2223  0.9491  0.9852
28741SOL     OW89499  10.283   2.266   8.882 -0.3843 -0.3884  0.2996
28741SOL    HW189500  10.376   2.246   8.892 -0.4405 -0.6058  0.3825
28741SOL    HW289501  10.279   2.323   8.805 -0.0348  0.6750  1.0441
28742SOL     OW89502  11.022   6.748   8.321 -0.1048  0.1774 -0.1901
28742SOL    HW189503  10.930   6.725   8.337 -0.0882  0.8618  1.0411
28742SOL    HW289504  11.072   6.684   8.372  0.1764 -0.9983 -1.8709
28743SOL     OW89505   9.429   8.275   0.318 -0.1551  0.0824  0.1687
28743SOL    HW189506   9.497   8.337   0.293 -1.3538  0.9428 -1.0713
28743SOL    HW289507   9.412   8.225   0.238  0.2415 -1.3669  0.9416
28744SOL     OW89508   7.643   8.467   3.169 -0.0189 -0.3051  0.0259
28744SOL    HW189509   7.711   8.428   3.114  0.9341  0.0346  0.9271
28744SOL    HW289510   7.682   8.547   3.202 -0.3536 -0.7630  1.6097
28745SOL     OW89511  10.272   0.297   8.879 -0.2131 -0.5979 -0.1072
28745SOL    HW189512  10.368   0.303   8.871 -0.2501  0.3633  0.0987
28745SOL    HW289513  10.258   0.260   8.966 -0.0376 -0.7895 -0.1565
28746SOL     OW89514   4.121   6.642   7.714 -0.1297  0.1362  0.5624
28746SOL    HW189515   4.066   6.706   7.670 -0.9991 -1.5209 -0.8714
28746SOL    HW289516   4.210   6.672   7.699 -0.5204  1.1722  0.2319
28747SOL     OW89517   7.272   3.894   5.574 -0.1077 -0.5319 -0.0599
28747SOL    HW189518   7.231   3.979   5.593  1.1584  0.0073  0.3377
28747SOL    HW289519   7.210   3.830   5.608 -1.9930  0.1266 -2.0076
28748SOL     OW89520   9.510   1.645   4.163 -0.1560 -0.4398 -0.0070
28748SOL    HW189521   9.526   1.615   4.074  0.3275  0.0197 -0.0864
28748SOL    HW289522   9.547   1.734   4.165 -0.8141 -0.1651  0.4424
28749SOL     OW89523   9.756   3.328   1.251 -0.0513 -0.5598  0.6156
28749SOL    HW189524   9.826   3.390   1.271 -0.4256 -0.0788  0.4359
28749SOL    HW289525   9.703   3.326   1.331  0.7445 -1.7236  1.1531
28750SOL     OW89526   6.972   9.613   6.934  0.2837  0.1724 -0.1773
28750SOL    HW189527   6.932   9.581   6.853 -0.9863 -0.2151  0.5731
28750SOL    HW289528   6.948   9.548   6.999  1.8528  0.1447  0.3912
28751SOL     OW89529   2.422   5.422   1.885 -0.1895  0.2457 -0.2724
28751SOL    HW189530   2.473   5.469   1.819  0.5503  0.2540  0.2845
28751SOL    HW289531   2.418   5.333   1.853 -1.1028  0.5578 -1.0521
28752SOL     OW89532   3.192   5.265   2.281 -0.1903  0.2672 -0.2894
28752SOL    HW189533   3.153   5.296   2.363  0.4191 -0.2363  0.2124
28752SOL    HW289534   3.159   5.324   2.214 -2.6133 -0.7067 -0.0815
28753SOL     OW89535   6.889   7.318   0.814  0.3088  0.5853  0.3306
28753SOL    HW189536   6.876   7.325   0.719  3.3062 -0.4862 -0.2679
28753SOL    HW289537   6.889   7.224   0.831  1.0379  0.7335  1.1947
28754SOL     OW89538   7.919   6.563   5.683 -0.4656 -0.1685  0.1714
28754SOL    HW189539   7.894   6.486   5.735 -3.0895  0.9125  0.6852
28754SOL    HW289540   7.867   6.555   5.603  1.0139 -0.0907 -0.8213
28755SOL     OW89541   1.572   1.480   7.524  0.0503  0.1814 -0.5106
28755SOL    HW189542   1.526   1.499   7.442 -0.1644  3.2113  0.2051
28755SOL    HW289543   1.554   1.555   7.579  2.8180 -0.2842  1.1959
28756SOL     OW89544   9.197   9.292  10.698 -0.0033  0.1483  0.1784
28756SOL    HW189545   9.292   9.291  10.699  0.0133 -1.3681 -0.0680
28756SOL    HW289546   9.174   9.384  10.690  1.4544  0.4897 -0.4096
28757SOL     OW89547   4.286   8.943  10.674  0.0468 -0.0617  0.3149
28757SOL    HW189548   4.335   9.017  10.709 -0.2028 -0.3540  1.3045
28757SOL    HW289549   4.194   8.968  10.683 -0.0178  0.0535 -0.5823
28758SOL     OW89550   9.745   7.802   4.697 -0.2524 -0.9004 -0.9412
28758SOL    HW189551   9.752   7.719   4.651 -0.9413 -1.7582  0.4399
28758SOL    HW289552   9.740   7.778   4.789  0.0492  0.7100 -0.4771
28759SOL     OW89553   7.006  11.005   5.938 -0.6197  0.6406  0.2373
28759SOL    HW189554   7.017  10.935   5.873 -2.2084 -0.1008  0.7011
28759SOL    HW289555   7.062  10.979   6.011  0.1386  0.7792 -0.2824
28760SOL     OW89556   4.665   8.453   5.361  0.5452 -0.3462  0.2709
28760SOL    HW189557   4.636   8.452   5.452  2.3237  0.5867  0.8937
28760SOL    HW289558   4.745   8.401   5.360 -0.1683 -1.4989 -1.0717
28761SOL     OW89559   9.716   7.527   7.524  0.2304 -0.3005 -0.7163
28761SOL    HW189560   9.670   7.573   7.594  0.8298  1.3584 -1.3639
28761SOL    HW289561   9.693   7.575   7.445  1.5143 -0.6361 -1.3096
28762SOL     OW89562   5.862   7.447   9.784 -0.2570 -0.4067  0.1153
28762SOL    HW189563   5.833   7.501   9.857  2.4342  1.1800  0.1398
28762SOL    HW289564   5.952   7.474   9.768 -0.1456 -1.9983 -2.6356
28763SOL     OW89565   6.990   7.747   9.238 -0.0783 -0.7511 -0.0905
28763SOL    HW189566   6.958   7.670   9.191 -1.5913  0.7156 -1.5979
28763SOL    HW289567   6.963   7.732   9.329 -1.9839 -1.2211 -0.6911
28764SOL     OW89568  10.750   7.652   1.302 -0.0963  0.1385 -0.1482
28764SOL    HW189569  10.698   7.732   1.308 -0.7310 -0.0483 -2.2150
28764SOL    HW289570  10.699   7.594   1.245  0.7141 -1.4464  0.6761
28765SOL     OW89571   5.818   8.813   9.940 -0.0946  0.0736 -0.0625
28765SOL    HW189572   5.799   8.824   9.846 -1.6531 -0.4647  0.1533
28765SOL    HW289573   5.732   8.820   9.982  0.6024  0.4022  1.3470
28766SOL     OW89574   8.723  10.268   6.547 -0.1437 -0.3313 -0.0258
28766SOL    HW189575   8.816  10.261   6.528 -0.2663  1.7966 -1.8797
28766SOL    HW289576   8.680  10.215   6.480 -0.2972  0.2261 -0.3804
28767SOL     OW89577   0.499   9.665  10.658  0.8038  0.3087 -0.2524
28767SOL    HW189578   0.511   9.579  10.619  1.8180 -0.1419  0.9516
28767SOL    HW289579   0.553   9.723  10.605  1.9429 -0.2418  0.2594
28768SOL     OW89580   5.671   4.790   6.030  0.3420  0.1765 -0.4092
28768SOL    HW189581   5.622   4.726   5.980  0.8166 -0.9190  0.4820
28768SOL    HW289582   5.613   4.866   6.035 -0.4025 -0.3228 -1.1294
28769SOL     OW89583   2.470   2.771   2.704 -0.2601 -0.2671  0.0986
28769SOL    HW189584   2.471   2.866   2.719 -2.1772 -0.1627 -0.1349
28769SOL    HW289585   2.480   2.733   2.791  1.5211  0.1118  0.0837
28770SOL     OW89586  10.668   8.126   4.562  0.1980  0.1383 -0.5661
28770SOL    HW189587  10.698   8.199   4.508  2.9203 -0.6442 -0.2615
28770SOL    HW289588  10.659   8.164   4.650 -1.2178  0.7043 -0.9251
28771SOL     OW89589   0.589   4.559   4.469 -0.5082  0.7030 -0.0530
28771SOL    HW189590   0.593   4.628   4.535 -0.7413  1.1573 -0.5072
28771SOL    HW289591   0.502   4.569   4.430 -0.3979  0.3928 -0.3804
28772SOL     OW89592   4.410   8.456   3.253  0.2869  0.8434  0.0511
28772SOL    HW189593   4.393   8.546   3.279 -0.3533  0.2451  1.8610
28772SOL    HW289594   4.504   8.454   3.235  0.2933  1.8840 -0.0916
28773SOL     OW89595   8.445   9.229   7.090 -0.3638  0.1899 -0.1862
28773SOL    HW189596   8.386   9.154   7.099  0.8912 -0.6632  1.4369
28773SOL    HW289597   8.434   9.277   7.172 -1.2389  1.9125 -1.2540
28774SOL     OW89598  11.306   2.260   1.894 -0.1787  0.1141  0.2427
28774SOL    HW189599  11.315   2.209   1.813 -0.6349 -0.0158  0.2724
28774SOL    HW289600  11.215   2.287   1.896 -0.2192 -0.0498  0.8139
28775SOL     OW89601   5.039   2.017   7.206 -0.3363 -0.3212 -0.4232
28775SOL    HW189602   4.984   2.009   7.284  0.5998 -0.0219  0.2765
28775SOL    HW289603   4.985   2.068   7.145  0.7624  4.1402  1.8980
28776SOL     OW89604   1.651   7.209   3.066 -0.4421 -0.7318 -0.2689
28776SOL    HW189605   1.628   7.209   2.974 -0.9155  1.3678 -0.2206
28776SOL    HW289606   1.567   7.220   3.112 -0.0074  0.6638  0.2502
28777SOL     OW89607   5.358   3.806   8.119 -0.0152 -0.0463 -0.0845
28777SOL    HW189608   5.314   3.819   8.203 -0.3568  0.7590 -0.3741
28777SOL    HW289609   5.433   3.750   8.139  0.5410  1.0277  0.9637
28778SOL     OW89610   2.701   8.478  11.033 -0.2295  0.4880 -0.0283
28778SOL    HW189611   2.710   8.559  10.983  0.2608 -0.1887 -1.0761
28778SOL    HW289612   2.646   8.422  10.978  2.2431 -1.1505 -1.0295
28779SOL     OW89613  10.281   5.146   7.567  0.5346 -0.3536 -0.5250
28779SOL    HW189614  10.292   5.082   7.637 -0.6051  0.0148  0.0154
28779SOL    HW289615  10.370   5.172   7.544  0.9570  0.8027  2.0041
28780SOL     OW89616   2.914  10.768   5.818 -0.2128 -0.0732  0.0419
28780SOL    HW189617   2.995  10.783   5.770 -1.1144  0.5455 -1.3295
28780SOL    HW289618   2.877  10.688   5.779 -1.2093  0.7223 -0.6931
28781SOL     OW89619   1.702   1.206   1.498  0.2043  0.0967 -0.0213
28781SOL    HW189620   1.781   1.154   1.513 -0.1268 -0.1248  1.0361
28781SOL    HW289621   1.633   1.161   1.546 -0.4760  0.5501 -0.5396
28782SOL     OW89622   0.355   1.937  10.590  0.0977  0.2415  1.1035
28782SOL    HW189623   0.429   1.877  10.604 -0.1245 -0.3244 -0.0837
28782SOL    HW289624   0.389   2.005  10.532 -0.6856 -0.7972 -0.6254
28783SOL     OW89625   8.007   6.022   8.963 -0.7173 -0.5124  0.3947
28783SOL    HW189626   7.978   5.969   8.888 -1.0903 -0.1806  0.3001
28783SOL    HW289627   7.948   6.097   8.963 -1.4744 -1.0702  1.7145
28784SOL     OW89628   4.434  10.361  10.385  0.2741 -0.2422  0.2661
28784SOL    HW189629   4.494  10.350  10.459  0.3904 -1.9400 -0.0475
28784SOL    HW289630   4.362  10.414  10.421  0.8714 -0.0861  1.2749
28785SOL     OW89631   4.000   7.157   5.816  0.2055 -0.1447  0.3500
28785SOL    HW189632   4.045   7.177   5.898 -1.6966  2.2982  0.9259
28785SOL    HW289633   3.983   7.242   5.776  1.5803 -1.2417 -2.9936
28786SOL     OW89634   0.079   9.746   1.786 -0.4317 -0.2122 -0.0596
28786SOL    HW189635   0.085   9.840   1.770  0.5149  0.0677  1.6803
28786SOL    HW289636   0.167   9.721   1.813  0.0584 -2.1595 -2.9812
28787SOL     OW89637   2.075   6.965  11.215  0.0936 -0.3490 -0.5519
28787SOL    HW189638   2.023   6.885  11.207  1.2105 -1.2733  0.9627
28787SOL    HW289639   2.027   7.030  11.164 -1.3261 -1.7456 -1.0644
28788SOL     OW89640   0.419   5.864   3.958 -0.3492  0.1514 -0.1298
28788SOL    HW189641   0.474   5.800   3.914 -1.5893 -0.4849 -0.8144
28788SOL    HW289642   0.447   5.861   4.050  0.8515 -0.0205 -0.4894
28789SOL     OW89643   9.595   9.851   1.404 -0.2579  0.0795  0.2631
28789SOL    HW189644   9.540   9.927   1.423 -1.3842 -0.7535  0.4549
28789SOL    HW289645   9.606   9.852   1.309 -2.7318 -1.0919 -0.1208
28790SOL     OW89646   4.395   1.149   1.876 -0.2210 -0.4420  0.2134
28790SOL    HW189647   4.358   1.064   1.899 -2.7713  0.9530  1.8099
28790SOL    HW289648   4.380   1.203   1.954  2.0217  1.2886 -0.4485
28791SOL     OW89649   1.932   0.399   2.304  0.4183 -0.6117  0.0729
28791SOL    HW189650   1.860   0.373   2.361 -0.3228  2.2920  0.6171
28791SOL    HW289651   2.010   0.396   2.360  0.0937 -0.2085  0.5587
28792SOL     OW89652   1.981   3.003   9.945 -0.3324 -0.2063 -0.1662
28792SOL    HW189653   1.972   3.050   9.862 -2.5885  0.4929  0.4091
28792SOL    HW289654   1.990   3.072  10.011  2.3118 -0.7655  0.1477
28793SOL     OW89655   2.677   7.701   6.897  0.1296 -0.3780  0.1932
28793SOL    HW189656   2.627   7.621   6.915  1.0111 -0.7546  1.1122
28793SOL    HW289657   2.764   7.670   6.873  0.7028  0.2887  1.2763
28794SOL     OW89658   7.881   1.569   5.458  0.1763 -0.4074  0.5499
28794SOL    HW189659   7.891   1.663   5.474  0.8572  0.2329 -2.9153
28794SOL    HW289660   7.792   1.560   5.426  0.5193 -0.7115 -0.3415
28795SOL     OW89661   7.920   0.252  11.245 -0.8923 -0.0054  0.5703
28795SOL    HW189662   7.896   0.298  11.326 -0.2645 -0.3055  0.9308
28795SOL    HW289663   7.846   0.194  11.227 -0.6101 -0.6561  1.4722
28796SOL     OW89664   3.483   9.928   5.191 -0.1312  0.3099  0.2467
28796SOL    HW189665   3.499   9.876   5.269 -2.5913 -2.4702 -0.8921
28796SOL    HW289666   3.418   9.878   5.142  0.5939  2.3640 -3.1622
28797SOL     OW89667   4.485   2.953   0.776 -0.3971 -0.1303  0.4888
28797SOL    HW189668   4.401   2.980   0.740 -0.5880  0.4379  1.3244
28797SOL    HW289669   4.549   3.010   0.735 -0.4406 -0.4433 -0.0152
28798SOL     OW89670   3.806   7.053   7.929 -0.7067 -0.1388  0.4028
28798SOL    HW189671   3.795   7.075   7.836 -1.7653 -1.0605  0.2846
28798SOL    HW289672   3.769   7.128   7.976 -1.5708 -0.3273  0.0448
28799SOL     OW89673  11.360   3.935   6.666 -0.0947 -0.7171  0.0153
28799SOL    HW189674  11.291   4.001   6.659 -2.6392 -2.8627  2.4839
28799SOL    HW289675  11.435   3.982   6.702 -0.2435  1.6223 -2.3665
28800SOL     OW89676   8.720   5.763  10.217 -0.6982 -0.5381  0.5614
28800SOL    HW189677   8.698   5.672  10.197  0.9183 -0.6755 -0.8423
28800SOL    HW289678   8.695   5.811  10.139  0.4577 -0.1524  0.3992
28801SOL     OW89679   2.623   6.016  10.928 -0.2470  0.0306 -0.4386
28801SOL    HW189680   2.534   5.987  10.946 -0.0298 -0.1626  0.3798
28801SOL    HW289681   2.613   6.090  10.869 -1.0724  1.4000  1.3313
28802SOL     OW89682   4.959  10.334   6.042 -0.1791 -0.0509 -0.0248
28802SOL    HW189683   4.940  10.294   5.957  1.5749  1.1978 -1.0653
28802SOL    HW289684   5.054  10.345   6.042 -0.3487  1.7459  1.2849
28803SOL     OW89685   5.319   2.887  10.967  0.5567 -0.2022 -0.0044
28803SOL    HW189686   5.256   2.868  11.037  0.2890 -2.1230 -0.6939
28803SOL    HW289687   5.313   2.812  10.908  0.3022  1.6182 -2.4735
28804SOL     OW89688  10.653   8.572   4.021  0.2090 -0.2478  0.4168
28804SOL    HW189689  10.652   8.511   3.948 -0.0782  0.2390  0.0048
28804SOL    HW289690  10.744   8.575   4.049  0.5392  0.4176 -0.6632
28805SOL     OW89691   0.628   3.430   2.616  0.1018 -0.3081 -0.1635
28805SOL    HW189692   0.554   3.400   2.669 -1.0386  0.3992 -1.2955
28805SOL    HW289693   0.631   3.525   2.631  0.7812 -0.3315 -0.1294
28806SOL     OW89694   0.317   2.284   0.447  0.1200 -0.1550  0.5097
28806SOL    HW189695   0.284   2.215   0.505 -2.1137 -0.4449 -0.9908
28806SOL    HW289696   0.396   2.246   0.409  1.3504 -0.1534  2.8628
28807SOL     OW89697  10.664   0.044   2.784 -0.3221 -0.1583 -0.2825
28807SOL    HW189698  10.657   0.112   2.851  0.9000  0.2346 -0.5259
28807SOL    HW289699  10.738  -0.010   2.813 -0.2777 -0.4422 -0.9065
28808SOL     OW89700   1.615   3.716  10.960  0.0437  0.2090 -0.2440
28808SOL    HW189701   1.639   3.670  10.880 -0.5704 -0.9524  0.2304
28808SOL    HW289702   1.666   3.798  10.956 -0.1301  0.2731 -1.9044
28809SOL     OW89703   7.010   0.037   8.947  0.1469  0.1352  0.0872
28809SOL    HW189704   6.932   0.068   8.901  0.7985  0.5902 -0.7463
28809SOL    HW289705   7.001  -0.058   8.951 -0.6920  0.2225  0.4732
28810SOL     OW89706   0.473  10.319   6.208 -0.9239 -0.0458  0.2455
28810SOL    HW189707   0.399  10.271   6.244 -0.4483 -2.0656 -1.2647
28810SOL    HW289708   0.550  10.270   6.237 -0.4154 -0.2437 -1.3292
28811SOL     OW89709   4.297   6.418   1.404 -0.2606 -0.9431  0.0493
28811SOL    HW189710   4.328   6.328   1.411  4.8652  0.4413 -0.9549
28811SOL    HW289711   4.296   6.436   1.310 -1.5396  0.0335  0.2187
28812SOL     OW89712   7.250   0.113  11.077  0.7949  0.2729  0.7015
28812SOL    HW189713   7.242   0.190  11.020  0.2340  0.8293  1.4970
28812SOL    HW289714   7.261   0.040  11.017 -1.5336  0.6030 -0.2458
28813SOL     OW89715  10.718   5.859   8.225 -0.6449 -0.1110 -0.1174
28813SOL    HW189716  10.804   5.876   8.265 -1.5235  1.2048  1.3285
28813SOL    HW289717  10.659   5.920   8.269 -2.3477 -1.0261 -1.0481
28814SOL     OW89718   1.004   5.207   0.762 -0.0141  0.3400 -0.9173
28814SOL    HW189719   1.033   5.296   0.747  0.5732  0.4105  0.4597
28814SOL    HW289720   1.069   5.170   0.822 -0.4094 -0.9149 -1.2261
28815SOL     OW89721   8.453   7.400   5.762  0.7530  0.3923 -0.5007
28815SOL    HW189722   8.379   7.350   5.729  1.1400  0.7207 -1.9725
28815SOL    HW289723   8.430   7.422   5.852 -1.7685  1.9691 -1.4057
28816SOL     OW89724   5.721   3.579   6.714  0.1047 -0.1607 -0.0572
28816SOL    HW189725   5.749   3.495   6.752 -0.0608  0.5479  1.7405
28816SOL    HW289726   5.643   3.602   6.763  0.5634  1.3910 -0.0153
28817SOL     OW89727   3.001   9.073   3.119 -0.1994 -0.4274 -0.2122
28817SOL    HW189728   3.087   9.059   3.080  0.5274  1.7241  0.4538
28817SOL    HW289729   2.984   8.993   3.169  1.8668 -0.5319  0.4082
28818SOL     OW89730   3.454   5.838  10.190  0.0144 -0.1877 -0.2578
28818SOL    HW189731   3.543   5.851  10.222 -1.0502  0.3745  2.7489
28818SOL    HW289732   3.414   5.925  10.196 -1.0808 -0.6635 -0.4980
28819SOL     OW89733  10.193  10.378   2.316  0.2219  0.1914  0.5150
28819SOL    HW189734  10.237  10.389   2.400  0.6344 -0.3642  0.3789
28819SOL    HW289735  10.246  10.313   2.269 -0.6272 -0.3523  0.2759
28820SOL     OW89736   0.982   1.090   0.661 -0.8795 -0.1301 -0.0659
28820SOL    HW189737   0.964   1.183   0.654 -1.3984 -0.1620  0.7884
28820SOL    HW289738   1.020   1.079   0.748  0.9024 -0.4490 -0.8419
28821SOL     OW89739   4.211   8.760   5.653  0.6803  0.2864  0.2562
28821SOL    HW189740   4.127   8.784   5.614  0.8851  0.9450  0.2057
28821SOL    HW289741   4.274   8.766   5.581  0.9130  0.6425  0.4846
28822SOL     OW89742   2.519   8.915   8.200  0.2629 -0.3510  0.0102
28822SOL    HW189743   2.547   8.835   8.156 -0.9121  0.3708 -2.2196
28822SOL    HW289744   2.573   8.920   8.278  1.2620 -2.6373 -0.4573
28823SOL     OW89745   5.548   9.748   2.228 -0.3617  0.6822 -0.8533
28823SOL    HW189746   5.562   9.819   2.164 -0.3126  1.0637 -0.4271
28823SOL    HW289747   5.631   9.701   2.230 -0.6392  0.1326 -1.7075
28824SOL     OW89748   7.803   9.554  11.110  0.3290 -0.6430  0.5945
28824SOL    HW189749   7.720   9.532  11.153  0.5287 -3.4532 -0.2792
28824SOL    HW289750   7.782   9.559  11.017  1.2724 -2.6278  0.2134
28825SOL     OW89751   0.701   3.357   6.024  0.4741 -0.1346  0.4092
28825SOL    HW189752   0.643   3.386   6.094  0.8833  3.0905 -0.4380
28825SOL    HW289753   0.780   3.326   6.070 -0.2431 -0.4939  1.4314
28826SOL     OW89754   7.752   5.203   2.423  0.2201  0.0285  0.0558
28826SOL    HW189755   7.798   5.122   2.400  1.0643 -0.0427  1.8157
28826SOL    HW289756   7.661   5.177   2.435  0.1790 -0.3311 -0.9148
28827SOL     OW89757   5.177   4.657   2.929 -0.0935 -0.2512 -0.2721
28827SOL    HW189758   5.174   4.751   2.946 -0.8728 -0.0478 -1.4175
28827SOL    HW289759   5.141   4.647   2.841  0.1108 -1.6142 -0.2301
28828SOL     OW89760   0.575   5.658   1.287 -0.1509 -0.0856  0.0703
28828SOL    HW189761   0.548   5.687   1.200  0.3624 -0.8565 -0.3629
28828SOL    HW289762   0.665   5.626   1.275  1.7409  3.9430  1.7789
28829SOL     OW89763   7.608   8.521   0.668  0.4187 -0.3457 -0.0168
28829SOL    HW189764   7.692   8.485   0.641  0.1688 -1.7931  1.0161
28829SOL    HW289765   7.600   8.497   0.761 -0.3427  1.3248  0.4012
28830SOL     OW89766   9.457  10.507   4.743 -0.3537 -0.1013  0.3399
28830SOL    HW189767   9.480  10.416   4.760 -0.1738 -0.3038 -0.9204
28830SOL    HW289768   9.430  10.509   4.651  0.4821  1.2757  0.0895
28831SOL     OW89769  11.298  10.400   1.649  0.5919 -0.2396 -0.2078
28831SOL    HW189770  11.393  10.394   1.643  0.5466 -1.4792  0.0137
28831SOL    HW289771  11.275  10.343   1.723 -0.4864 -1.8159 -1.6830
28832SOL     OW89772   1.133   2.374   8.162  0.4277  0.2801  0.2009
28832SOL    HW189773   1.148   2.313   8.090 -0.5628 -0.3257  0.4740
28832SOL    HW289774   1.206   2.435   8.158  1.0651 -0.5014 -0.5274
28833SOL     OW89775   4.718   2.275   4.064  0.1937 -0.5238  0.5585
28833SOL    HW189776   4.720   2.369   4.044 -1.1571 -0.5704  0.1372
28833SOL    HW289777   4.688   2.270   4.155  0.8236 -0.5396  0.7725
28834SOL     OW89778   6.436   6.685   5.909  0.3138  0.3400 -0.5071
28834SOL    HW189779   6.425   6.690   5.814  1.6258 -1.5722 -0.8134
28834SOL    HW289780   6.527   6.712   5.924  0.3877 -0.2274  0.1036
28835SOL     OW89781   3.454  11.048   1.074 -0.1709 -0.2969 -0.3428
28835SOL    HW189782   3.362  11.043   1.047 -0.1041  0.7088 -0.8031
28835SOL    HW289783   3.451  11.039   1.169 -0.6372 -1.3492 -0.4366
28836SOL     OW89784   6.897   3.965   9.850  0.7480 -0.0836 -0.6749
28836SOL    HW189785   6.885   3.877   9.813 -0.2239  0.0504 -0.6964
28836SOL    HW289786   6.953   3.950   9.927  0.1881 -0.8021 -0.3844
28837SOL     OW89787   7.890   6.964   1.332  0.4729  0.4143  0.1815
28837SOL    HW189788   7.964   6.903   1.332  0.1403 -0.0012  0.6650
28837SOL    HW289789   7.815   6.910   1.359 -0.2427  0.5489 -1.4521
28838SOL     OW89790   5.286   2.541   1.301  0.1722 -0.2158 -0.7750
28838SOL    HW189791   5.285   2.478   1.372  1.1173  0.6334  0.0338
28838SOL    HW289792   5.218   2.604   1.323  0.8707  0.3850 -0.2747
28839SOL     OW89793   5.608  11.380   4.371 -0.2447 -0.3262  0.0747
28839SOL    HW189794   5.663  11.444   4.325 -0.8122 -1.4736 -2.3518
28839SOL    HW289795   5.526  11.378   4.321 -0.0808 -3.2256 -0.2315
28840SOL     OW89796   4.426  10.438   0.246 -0.3224  0.1308  0.0598
28840SOL    HW189797   4.510  10.422   0.289 -0.3420  0.6396  0.2966
28840SOL    HW289798   4.403  10.354   0.206  1.6820  0.6818 -2.4943
28841SOL     OW89799  10.715   7.065   0.900 -0.3785  0.1606 -0.0380
28841SOL    HW189800  10.634   7.032   0.861 -0.1949  0.9508 -1.1409
28841SOL    HW289801  10.777   6.993   0.890 -0.8799 -0.3866  0.6641
28842SOL     OW89802   4.379   1.615   9.098  0.1341 -0.5434  0.0700
28842SOL    HW189803   4.285   1.628   9.105  0.3296  2.0511 -1.0450
28842SOL    HW289804   4.393   1.524   9.125 -2.5703 -0.7832  0.9454
28843SOL     OW89805  11.008   5.876   5.248 -0.2298 -0.3109  0.1277
28843SOL    HW189806  11.081   5.817   5.229  0.5179  0.9893 -1.2776
28843SOL    HW289807  11.049   5.960   5.269 -1.3039  0.2650  0.0227
28844SOL     OW89808   8.628   2.717  10.746  0.4834  0.1654  0.0152
28844SOL    HW189809   8.645   2.734  10.838 -2.0816 -0.6217  0.7420
28844SOL    HW289810   8.688   2.647  10.722 -0.0079 -0.8758  1.6523
28845SOL     OW89811   3.033   9.874   3.327  1.1145 -0.5222  0.1027
28845SOL    HW189812   3.075   9.960   3.325 -0.5201  0.3147  0.3449
28845SOL    HW289813   3.038   9.842   3.237  0.8711  0.2632 -0.1930
28846SOL     OW89814   0.859   3.684   6.587 -0.2058 -0.4650 -0.1553
28846SOL    HW189815   0.826   3.639   6.664 -0.6691  1.4137  0.7929
28846SOL    HW289816   0.780   3.703   6.535  0.0132 -0.9331 -0.6729
28847SOL     OW89817   9.966   4.896   5.843  0.6299 -0.3645  0.1264
28847SOL    HW189818   9.885   4.844   5.849  0.3138  0.1824  0.6802
28847SOL    HW289819   9.986   4.897   5.750 -0.0559 -0.4286 -0.0294
28848SOL     OW89820  10.142   1.651   7.755  0.3289  0.3519  0.3148
28848SOL    HW189821  10.078   1.604   7.703  1.3827 -1.1507  0.3100
28848SOL    HW289822  10.181   1.714   7.695  1.7204 -1.5439 -0.8729
28849SOL     OW89823   7.262   4.052   1.866  0.5750 -0.3242 -0.6823
28849SOL    HW189824   7.300   3.964   1.869  1.1044 -0.0863 -0.1369
28849SOL    HW289825   7.320   4.101   1.807  0.9437 -0.0413 -0.0903
28850SOL     OW89826   7.546   7.930   3.845  1.0087  0.3543  0.3579
28850SOL    HW189827   7.610   7.977   3.898 -0.5653  0.0349  2.6543
28850SOL    HW289828   7.479   7.902   3.906 -1.1160  0.2367 -1.8532
28851SOL     OW89829   4.287  11.250   0.996 -0.3749  0.2648 -0.0831
28851SOL    HW189830   4.308  11.161   1.026 -1.8811  0.0667  0.4409
28851SOL    HW289831   4.351  11.306   1.040  0.2995 -0.4943 -0.0572
28852SOL     OW89832   1.633   2.699   0.432  0.1374  0.5642  0.3179
28852SOL    HW189833   1.653   2.616   0.391  1.4543 -0.4343  2.7802
28852SOL    HW289834   1.542   2.717   0.407  0.2810 -0.8845 -1.3801
28853SOL     OW89835   4.802  11.249   3.335  0.0325 -0.1136 -0.1611
28853SOL    HW189836   4.782  11.224   3.425  1.7643  1.5573  0.7439
28853SOL    HW289837   4.865  11.321   3.342 -0.9408  1.1490 -2.6737
28854SOL     OW89838  10.188   9.505  10.936 -0.3613 -0.1152 -0.2648
28854SOL    HW189839  10.273   9.513  10.894 -1.9860  0.4233 -3.8443
28854SOL    HW289840  10.199   9.436  11.002  2.4851 -0.9453 -1.4816
28855SOL     OW89841  10.519   3.701  10.429  0.2784  0.5193  1.0368
28855SOL    HW189842  10.597   3.690  10.484  0.7480 -0.6888  0.1596
28855SOL    HW289843  10.552   3.739  10.348  0.3470 -2.0752 -0.2204
28856SOL     OW89844   3.847   8.455  10.280 -0.0603  0.0237 -0.2445
28856SOL    HW189845   3.762   8.439  10.240  0.0512  0.4196 -0.6408
28856SOL    HW289846   3.904   8.482  10.208 -0.2340  2.2159  0.3556
28857SOL     OW89847   2.470   9.330   8.280  0.9397  0.2219 -0.2128
28857SOL    HW189848   2.435   9.256   8.229  2.0393 -0.4189 -0.0621
28857SOL    HW289849   2.393   9.366   8.326  0.3786 -0.7866 -0.3354
28858SOL     OW89850   3.315   7.083   2.898  0.1223  0.4387 -0.5463
28858SOL    HW189851   3.387   7.115   2.844  1.9361  0.0633  1.5177
28858SOL    HW289852   3.344   7.098   2.988 -2.2684 -0.0147  0.3780
28859SOL     OW89853   2.080  10.805   3.801 -0.8574  0.7028 -0.1592
28859SOL    HW189854   1.986  10.807   3.817 -1.0390  1.1627 -1.1562
28859SOL    HW289855   2.096  10.883   3.747 -0.5314 -1.2210 -3.0952
28860SOL     OW89856   2.583  10.499   8.731 -0.1570 -0.2073 -0.0727
28860SOL    HW189857   2.664  10.451   8.748 -0.0077  0.0339 -0.0878
28860SOL    HW289858   2.599  10.543   8.648 -0.2904 -0.1302 -0.0570
28861SOL     OW89859   1.841   4.609  10.173 -0.7515  0.1040  0.5721
28861SOL    HW189860   1.790   4.566  10.242  1.7476  0.0270  2.5711
28861SOL    HW289861   1.919   4.642  10.219  1.2231 -0.2173 -2.2683
28862SOL     OW89862   0.977   4.231   9.629 -0.1166  0.2021  0.3463
28862SOL    HW189863   0.913   4.280   9.681  0.3580  0.2763  0.8653
28862SOL    HW289864   0.980   4.144   9.670  0.3449  0.2975  0.5258
28863SOL     OW89865  11.091   8.036   6.143  0.2289  0.3881  0.3811
28863SOL    HW189866  11.011   8.017   6.193 -0.0750  0.5457 -0.0380
28863SOL    HW289867  11.108   8.128   6.161  0.6789  0.1966  0.9722
28864SOL     OW89868   4.503   0.129   4.614 -0.1415  0.1117  0.1001
28864SOL    HW189869   4.508   0.198   4.680  0.2557  0.1059  0.0821
28864SOL    HW289870   4.414   0.134   4.581 -0.5671 -0.3524  1.1356
28865SOL     OW89871   9.262   7.540   9.260 -0.0874 -0.0844 -0.0561
28865SOL    HW189872   9.296   7.618   9.303 -0.4514 -0.0993  0.2651
28865SOL    HW289873   9.179   7.522   9.304  0.1777 -0.8779  0.1407
28866SOL     OW89874  10.577   7.448   1.594  0.3444  0.0044 -0.3199
28866SOL    HW189875  10.562   7.357   1.621 -1.2113  0.4270  0.3530
28866SOL    HW289876  10.540   7.453   1.506  0.9094 -0.1279 -0.5717
28867SOL     OW89877   4.808   1.934   7.684 -0.3747  0.1237 -0.2615
28867SOL    HW189878   4.759   1.866   7.732  0.2639 -1.2456 -1.4790
28867SOL    HW289879   4.842   1.991   7.752 -1.3592 -0.4725  0.7757
28868SOL     OW89880   3.091   5.802   9.579 -0.2381 -0.1785  0.1305
28868SOL    HW189881   3.028   5.750   9.629  0.1696 -0.9352 -0.1257
28868SOL    HW289882   3.171   5.749   9.578  0.1733  0.4289 -0.1938
28869SOL     OW89883   0.941   1.149  10.370  0.4838  0.5033 -0.0209
28869SOL    HW189884   1.000   1.222  10.351  2.2559 -0.9189 -0.2399
28869SOL    HW289885   0.863   1.168  10.318  0.9044  2.1941 -0.1216
28870SOL     OW89886   5.699   0.422   8.869  0.2152 -0.1093 -0.0123
28870SOL    HW189887   5.704   0.393   8.960 -0.7235  2.5991  1.0109
28870SOL    HW289888   5.638   0.362   8.827 -1.4975  0.1740  1.9131
28871SOL     OW89889   9.284   6.102   1.552 -0.0915 -0.5537 -0.2567
28871SOL    HW189890   9.324   6.187   1.537 -0.9134 -0.0550  0.2418
28871SOL    HW289891   9.232   6.085   1.474 -0.0477 -0.5222 -0.2922
28872SOL     OW89892   2.455   0.629   9.132 -0.0442 -0.1810 -0.5164
28872SOL    HW189893   2.388   0.561   9.127 -0.1323 -0.2790  1.3288
28872SOL    HW289894   2.525   0.589   9.183 -0.8440  1.5930  2.2186
28873SOL     OW89895   4.395   9.274   3.022  0.2419  0.6221  0.3648
28873SOL    HW189896   4.381   9.223   3.101  0.6808  2.9258  2.0100
28873SOL    HW289897   4.318   9.255   2.968 -0.3725 -0.5143  1.5859
28874SOL     OW89898   5.356   3.744   7.556 -0.0820  0.1176 -0.4059
28874SOL    HW189899   5.307   3.703   7.627  0.0441 -0.5280 -0.6891
28874SOL    HW289900   5.422   3.798   7.600  0.1547 -0.4726 -0.0292
28875SOL     OW89901   9.069   3.557   5.008  0.3157  0.5258 -0.0654
28875SOL    HW189902   9.104   3.627   5.064  1.9490 -2.0066  2.3346
28875SOL    HW289903   9.139   3.540   4.945  0.2796  0.5073 -0.1005
28876SOL     OW89904   3.585   7.326   4.845 -0.0590 -0.8821  0.8576
28876SOL    HW189905   3.615   7.261   4.909  1.6854  1.2638  2.3574
28876SOL    HW289906   3.522   7.379   4.893 -0.6968 -0.8264 -0.0326
28877SOL     OW89907   2.553   0.398   2.422  0.3499 -0.3199 -0.1978
28877SOL    HW189908   2.623   0.334   2.429  0.5427  0.0597  4.6833
28877SOL    HW289909   2.592   0.471   2.375  2.4627 -1.1043  0.2075
28878SOL     OW89910  11.010   3.019   2.500  0.1412 -0.0314 -0.6620
28878SOL    HW189911  10.975   2.947   2.448  1.2590 -0.6089 -0.6611
28878SOL    HW289912  10.938   3.081   2.508 -0.9019 -1.2169 -0.5414
28879SOL     OW89913   7.609   6.442  10.551  0.1136  0.1568  0.5916
28879SOL    HW189914   7.644   6.519  10.506 -0.3575 -0.1333 -0.2930
28879SOL    HW289915   7.514   6.453  10.547  0.0599  0.1378  1.5563
28880SOL     OW89916   0.345   3.595   6.187  0.3238 -0.0551  0.2620
28880SOL    HW189917   0.316   3.593   6.096  0.1645  0.8808  0.2841
28880SOL    HW289918   0.276   3.550   6.236  0.6130 -0.9368 -0.1213
28881SOL     OW89919   8.167   8.694   3.215 -0.1621  0.2604  0.0686
28881SOL    HW189920   8.142   8.632   3.147  0.6766  0.3314 -0.3123
28881SOL    HW289921   8.192   8.639   3.289  0.7610  0.1343 -0.3321
28882SOL     OW89922   0.726   1.041   8.355  0.0533  0.1720 -0.2908
28882SOL    HW189923   0.693   1.001   8.274  0.7863 -1.4134  0.1690
28882SOL    HW289924   0.699   0.981   8.424  1.2920  0.3978  0.4097
28883SOL     OW89925   1.985   4.553   8.725 -0.6905 -0.0026 -0.6892
28883SOL    HW189926   1.907   4.584   8.771 -0.1866 -1.0439  0.9373
28883SOL    HW289927   2.050   4.622   8.739 -0.9747  0.3572 -1.1102
28884SOL     OW89928   1.985   9.442   2.890 -0.6459 -0.2600  0.4801
28884SOL    HW189929   1.977   9.354   2.927  0.2558  0.0546  1.4603
28884SOL    HW289930   1.897   9.463   2.859 -0.8714 -1.5088  0.1968
28885SOL     OW89931   2.934   3.223   4.327 -0.0800 -0.4130  0.2780
28885SOL    HW189932   3.025   3.192   4.325  0.9936  2.1692 -4.0368
28885SOL    HW289933   2.940   3.312   4.360 -0.4562  0.7277 -2.4323
28886SOL     OW89934  10.445   6.431   3.684 -0.7340  0.2445 -0.0577
28886SOL    HW189935  10.447   6.367   3.755  0.4558  0.5144  0.1664
28886SOL    HW289936  10.410   6.383   3.609 -2.9211  0.1942  0.9184
28887SOL     OW89937   4.027   2.050   5.827 -0.4062  0.3061 -0.1303
28887SOL    HW189938   3.931   2.058   5.832 -0.5586 -0.9980 -0.5176
28887SOL    HW289939   4.051   2.005   5.908 -0.1128  0.6772 -0.0115
28888SOL     OW89940  11.365  10.195   1.898  0.2867 -0.0921 -0.3572
28888SOL    HW189941  11.349  10.161   1.986 -2.4197  0.7997 -0.4111
28888SOL    HW289942  11.416  10.274   1.912  0.8416 -0.5513  0.2988
28889SOL     OW89943   7.236   1.879   5.643  0.2926 -0.0999 -0.2794
28889SOL    HW189944   7.256   1.929   5.564  1.1480  1.3819  0.8132
28889SOL    HW289945   7.178   1.936   5.694 -0.5437 -1.1827  0.0236
28890SOL     OW89946   2.821   9.577   1.137 -0.3736  0.0886  0.4561
28890SOL    HW189947   2.878   9.619   1.072  0.7123  0.5406  1.6374
28890SOL    HW289948   2.809   9.488   1.105  1.9630 -0.3770  0.6952
28891SOL     OW89949   6.312   3.822   8.781  0.1478  0.3807  0.5471
28891SOL    HW189950   6.322   3.803   8.874  2.1070  1.4960  0.6189
28891SOL    HW289951   6.367   3.757   8.737 -0.2189  0.2945  0.2054
28892SOL     OW89952   3.744  10.469   4.492  0.1939  0.5371 -0.3590
28892SOL    HW189953   3.826  10.459   4.443  0.5211  0.6875  0.1554
28892SOL    HW289954   3.678  10.429   4.435  0.3936  1.5938 -1.3946
28893SOL     OW89955   6.012   1.915   7.555 -0.0657 -0.1025 -0.5474
28893SOL    HW189956   5.917   1.907   7.539 -0.1174 -1.9021  0.4509
28893SOL    HW289957   6.029   2.009   7.546 -2.3884  0.6534  1.5507
28894SOL     OW89958   7.983  10.918   6.257 -0.2699  0.2421  0.3265
28894SOL    HW189959   8.077  10.926   6.239 -0.1398 -0.9092  0.4334
28894SOL    HW289960   7.977  10.929   6.352  0.0991 -2.2286  0.6951
28895SOL     OW89961   8.083   3.519   7.394  0.6831  0.4377  0.4393
28895SOL    HW189962   8.057   3.576   7.466 -0.4065  0.9142 -0.2951
28895SOL    HW289963   8.001   3.496   7.351  1.3189  0.2704 -0.7293
28896SOL     OW89964   6.603   0.136   5.141 -0.3395 -0.3859 -0.2093
28896SOL    HW189965   6.567   0.176   5.220 -1.6012  1.7252 -1.7570
28896SOL    HW289966   6.690   0.175   5.132 -0.9189  0.8265 -0.8113
28897SOL     OW89967   9.345   5.411   3.615 -0.2066 -0.1232  0.2123
28897SOL    HW189968   9.320   5.437   3.703  1.6809 -0.4827  0.9037
28897SOL    HW289969   9.310   5.480   3.559 -3.9529 -1.3067  0.8134
28898SOL     OW89970   9.531   4.479  11.332 -0.2158 -0.3342 -0.4764
28898SOL    HW189971   9.502   4.520  11.250  1.4446  0.5460 -0.6618
28898SOL    HW289972   9.578   4.401  11.304  1.9087  0.8898 -0.5445
28899SOL     OW89973   7.695   6.017   4.072 -0.1412 -0.2448  0.0464
28899SOL    HW189974   7.723   6.089   4.015  0.5734 -0.1687  0.4873
28899SOL    HW289975   7.634   5.966   4.018  0.5241 -0.1809 -0.7817
28900SOL     OW89976   3.398  10.607   7.434  0.6374 -0.6734  0.3010
28900SOL    HW189977   3.459  10.628   7.363  0.8361 -0.1030  0.6356
28900SOL    HW289978   3.447  10.627   7.514 -0.6156  1.6587  0.5746
28901SOL     OW89979   0.798   2.135   1.970  0.0446  0.1010  0.6182
28901SOL    HW189980   0.744   2.147   1.892  0.6398 -0.8464  0.0515
28901SOL    HW289981   0.843   2.219   1.981  0.2517  0.1129 -0.2876
28902SOL     OW89982   3.003  11.250   0.662 -0.2789 -0.2610 -0.1189
28902SOL    HW189983   3.004  11.303   0.741  0.0496  0.7754 -0.7987
28902SOL    HW289984   3.073  11.186   0.674 -0.6566 -0.5307  0.6944
28903SOL     OW89985   6.318   2.902   2.465 -0.0651 -0.3106 -0.3106
28903SOL    HW189986   6.323   2.857   2.381  1.1261  1.3570 -1.1729
28903SOL    HW289987   6.254   2.972   2.452 -0.7584 -0.7467  0.5590
28904SOL     OW89988   1.806   1.804   5.164  1.4986 -0.2544 -0.1943
28904SOL    HW189989   1.838   1.756   5.240  1.1505 -2.4113 -1.3355
28904SOL    HW289990   1.796   1.738   5.095 -2.7070  0.6859 -0.7823
28905SOL     OW89991   3.758   4.274   5.282 -0.3707 -0.2280  0.0085
28905SOL    HW189992   3.762   4.369   5.290 -0.3465 -0.2609  0.4460
28905SOL    HW289993   3.698   4.247   5.352  0.6154 -0.6326  0.7185
28906SOL     OW89994   7.491   7.175   9.697  0.1576  0.3069  0.4334
28906SOL    HW189995   7.495   7.237   9.770  1.0313 -0.2413  0.8675
28906SOL    HW289996   7.577   7.181   9.655 -0.5193  1.0212 -0.9096
28907SOL     OW89997   8.668   4.998   2.708  0.1906  1.1571 -0.0507
28907SOL    HW189998   8.600   4.937   2.680  1.9071 -2.0412  2.1120
28907SOL    HW289999   8.620   5.069   2.752 -1.8470 -1.6926  2.7373
28908SOL     OW90000   4.368   5.894   2.276  0.5221  0.1345  0.0529
28908SOL    HW190001   4.363   5.988   2.257 -1.9047 -0.3507 -2.3576
28908SOL    HW290002   4.350   5.888   2.370  0.9081  2.0737  0.2966
28909SOL     OW90003   6.375   7.669   3.676 -0.1241  0.4769 -0.5227
28909SOL    HW190004   6.290   7.689   3.638  0.5038  1.9829 -1.2198
28909SOL    HW290005   6.360   7.670   3.771 -0.9125  0.5353 -0.6426
28910SOL     OW90006   6.768   0.905  10.047  0.1399  0.1962 -0.2505
28910SOL    HW190007   6.798   0.910  10.138  0.3771  0.5916 -0.3442
28910SOL    HW290008   6.742   0.995  10.026 -3.6773 -0.5236  0.6524
28911SOL     OW90009   8.360   5.896   9.533 -0.2238  0.0864 -0.5034
28911SOL    HW190010   8.271   5.874   9.561  0.3745  0.1979  1.7097
28911SOL    HW290011   8.355   5.987   9.506 -0.9433 -0.1673 -1.2740
28912SOL     OW90012   4.278   7.548   9.835 -0.0992 -0.1454  0.0548
28912SOL    HW190013   4.217   7.590   9.774  0.5269 -0.9917 -1.1830
28912SOL    HW290014   4.223   7.489   9.887 -0.3986 -0.7655 -0.9296
28913SOL     OW90015   9.301   1.957   4.117  0.0045  0.1171  0.2929
28913SOL    HW190016   9.396   1.971   4.122  0.1677 -0.8033 -0.0379
28913SOL    HW290017   9.267   1.994   4.198  0.1684  3.9354 -1.1941
28914SOL     OW90018  10.916   3.387   6.990  0.3463 -0.3943  0.2577
28914SOL    HW190019  10.970   3.437   6.929  0.8779  1.0590  1.8129
28914SOL    HW290020  10.854   3.452   7.025 -1.1778 -1.6046 -0.0911
28915SOL     OW90021   6.236   0.133   8.392 -0.1745  0.1962  0.3400
28915SOL    HW190022   6.146   0.104   8.404  0.0348 -0.2845  0.7794
28915SOL    HW290023   6.289   0.058   8.419  0.3832  1.0254  1.6639
28916SOL     OW90024   9.603   0.261   8.602 -0.8759  0.1792  0.4132
28916SOL    HW190025   9.562   0.346   8.619  0.6909  0.7426  1.6353
28916SOL    HW290026   9.652   0.242   8.682 -0.2745 -1.3471 -0.2774
28917SOL     OW90027   2.649   5.803   2.988  0.1565  0.0850  0.0975
28917SOL    HW190028   2.740   5.774   2.994  0.5889  1.3794  0.2364
28917SOL    HW290029   2.613   5.788   3.076  0.1873 -0.5870 -0.0051
28918SOL     OW90030   3.191   6.268  10.113 -0.4989  0.2703  0.3023
28918SOL    HW190031   3.199   6.328  10.039 -0.5532 -1.2385 -1.0042
28918SOL    HW290032   3.114   6.298  10.161 -2.3784 -0.4554 -2.0371
28919SOL     OW90033   1.962   8.053   6.871  0.6810 -0.8423  0.0953
28919SOL    HW190034   1.910   8.044   6.951  1.7016 -1.6988  0.6904
28919SOL    HW290035   2.020   8.126   6.888 -0.2268  0.0488 -0.5307
28920SOL     OW90036   9.515  10.658   7.784 -0.5123 -0.6098  0.3178
28920SOL    HW190037   9.506  10.644   7.879 -0.9765 -1.4845  0.1600
28920SOL    HW290038   9.425  10.656   7.751 -0.2522 -3.3847 -0.5193
28921SOL     OW90039  10.816   8.870   8.678 -0.9209  0.6360 -0.5080
28921SOL    HW190040  10.785   8.960   8.671  1.2915  1.5710  0.4179
28921SOL    HW290041  10.879   8.873   8.751 -0.9357 -1.7140 -0.3263
28922SOL     OW90042   1.100  10.499   1.666 -0.2492 -0.2761 -0.0689
28922SOL    HW190043   1.044  10.574   1.684  0.9281  0.3028  1.3567
28922SOL    HW290044   1.166  10.533   1.605  0.7831  0.1075  1.2332
28923SOL     OW90045   0.627   1.723   0.874 -0.1897  0.2698  0.1562
28923SOL    HW190046   0.668   1.810   0.873  1.5113 -0.4944 -0.4350
28923SOL    HW290047   0.642   1.689   0.786 -3.2667  0.4058 -0.5390
28924SOL     OW90048   6.326  10.156   6.390 -0.3650 -0.7606 -0.1338
28924SOL    HW190049   6.261  10.178   6.324  0.9628 -1.0996 -1.6211
28924SOL    HW290050   6.304  10.211   6.465 -2.5074 -1.0800 -0.4811
28925SOL     OW90051   6.642   2.699   0.291 -0.6259  0.6482 -0.2209
28925SOL    HW190052   6.631   2.653   0.374  3.6565 -0.7336 -0.1696
28925SOL    HW290053   6.660   2.789   0.315  1.2426  0.1259  0.5147
28926SOL     OW90054   0.435  10.597   7.239 -0.0473 -0.2600 -0.1326
28926SOL    HW190055   0.475  10.678   7.273  2.3757 -1.4099 -0.0540
28926SOL    HW290056   0.342  10.605   7.263  0.5314  1.4633  1.9055
28927SOL     OW90057  10.335   3.792   2.908 -0.2212  0.0312 -0.2013
28927SOL    HW190058  10.329   3.854   2.834  0.3070 -0.0207 -0.2903
28927SOL    HW290059  10.260   3.734   2.896  0.3390 -0.5178 -1.2040
28928SOL     OW90060   5.634   4.171   4.201  0.6751  0.2790 -0.0045
28928SOL    HW190061   5.575   4.218   4.143  0.2780 -2.1737 -1.7636
28928SOL    HW290062   5.717   4.219   4.195 -0.2582  1.9697  0.0520
28929SOL     OW90063   4.907   3.623   3.980 -0.0890  0.1089 -0.2856
28929SOL    HW190064   4.887   3.529   3.981 -1.2121  0.3096  1.3477
28929SOL    HW290065   4.821   3.666   3.973  0.2945  1.0030  0.2861
28930SOL     OW90066   4.786   8.535   9.956  0.9948 -0.4722  0.1085
28930SOL    HW190067   4.782   8.616  10.008  0.3611 -0.5967  0.2604
28930SOL    HW290068   4.797   8.566   9.866 -0.5919 -0.1574 -0.0007
28931SOL     OW90069   9.026   5.788   2.532 -0.0438 -0.0494  0.1764
28931SOL    HW190070   9.100   5.830   2.576  1.2275 -1.9378 -0.0308
28931SOL    HW290071   8.965   5.766   2.603  0.7334 -0.6326  0.6894
28932SOL     OW90072   4.468  11.397   1.137  0.2509 -0.0130 -0.1879
28932SOL    HW190073   4.536  11.423   1.199  1.5837  1.8002 -2.2580
28932SOL    HW290074   4.403  11.466   1.143 -0.6390 -0.8835  0.5748
28933SOL     OW90075   9.177   7.276   1.881 -0.6225 -0.4690 -0.2864
28933SOL    HW190076   9.100   7.225   1.859 -1.9529  0.6783  1.4547
28933SOL    HW290077   9.162   7.362   1.840  1.6169 -1.2843 -3.2544
28934SOL     OW90078   4.710  10.756   2.521  0.0565  0.0685  0.1643
28934SOL    HW190079   4.627  10.796   2.545  1.9797  4.7896  0.0428
28934SOL    HW290080   4.709  10.753   2.425 -0.3474 -0.9621  0.1876
28935SOL     OW90081   8.990   8.313   5.840  0.1755 -0.0630 -0.0373
28935SOL    HW190082   8.899   8.328   5.864  0.3037  0.7731 -0.0454
28935SOL    HW290083   9.039   8.379   5.889  0.6840  0.0586 -0.6915
28936SOL     OW90084   1.705   3.486   5.260 -0.3068  0.1774 -0.6536
28936SOL    HW190085   1.713   3.501   5.166  0.6909 -1.3299 -0.8366
28936SOL    HW290086   1.733   3.396   5.273  1.0383  0.7917  1.2784
28937SOL     OW90087   8.721   1.347   8.410  0.8765  0.6413 -0.2477
28937SOL    HW190088   8.743   1.257   8.433 -3.7944 -0.5126  0.9079
28937SOL    HW290089   8.685   1.341   8.322  0.7482  1.4284 -0.2547
28938SOL     OW90090   2.025   6.834   5.182 -0.1335 -0.4919  0.2969
28938SOL    HW190091   2.029   6.751   5.230  0.6523  0.0029  1.0899
28938SOL    HW290092   2.115   6.853   5.158 -0.1119  0.8309  1.3235
28939SOL     OW90093  10.456   9.704  10.927  0.0160  0.2747  0.1806
28939SOL    HW190094  10.474   9.622  10.973  0.2013  1.0570  1.5740
28939SOL    HW290095  10.524   9.764  10.958 -0.9450  1.3439  0.3011
28940SOL     OW90096   4.084   3.676  10.030 -0.2974 -0.6865 -0.0889
28940SOL    HW190097   4.170   3.639  10.009 -0.3791 -1.3054  0.6268
28940SOL    HW290098   4.053   3.714   9.948 -1.2137 -4.2005 -1.5329
28941SOL     OW90099  11.202   9.108   3.165 -0.1090 -0.0194 -0.0827
28941SOL    HW190100  11.278   9.050   3.153 -0.9028 -1.4566  1.4343
28941SOL    HW290101  11.131   9.065   3.117 -0.0832  1.1376 -1.1994
28942SOL     OW90102   5.862   1.986   9.318  0.1816  0.0083  1.1370
28942SOL    HW190103   5.788   1.929   9.297 -0.9726  1.4815  1.0316
28942SOL    HW290104   5.936   1.950   9.269 -1.2477  0.4087 -1.4332
28943SOL     OW90105   6.486   3.687   4.300 -0.2746  0.2105  0.2761
28943SOL    HW190106   6.405   3.711   4.256 -0.2107  0.0452  0.0667
28943SOL    HW290107   6.537   3.768   4.303  0.0145  0.0688 -0.5868
28944SOL     OW90108   9.885   3.380   7.364  0.1496  0.1265 -0.3564
28944SOL    HW190109   9.892   3.372   7.269  1.3771  1.5760 -0.4361
28944SOL    HW290110   9.951   3.321   7.399 -0.5885 -0.7288 -0.3553
28945SOL     OW90111   7.587   8.760   4.546 -0.0517  0.6497  0.2853
28945SOL    HW190112   7.596   8.825   4.615 -2.6849  2.1477 -0.6327
28945SOL    HW290113   7.520   8.700   4.579  1.3429 -0.8519  0.5260
28946SOL     OW90114  11.310   9.094   8.133  0.0819 -0.4665  0.1390
28946SOL    HW190115  11.267   9.011   8.110  0.6798 -0.5072 -0.8857
28946SOL    HW290116  11.367   9.072   8.206  1.8265 -1.4796 -1.4342
28947SOL     OW90117   6.702  10.732   9.722  0.4053 -0.1260  0.1960
28947SOL    HW190118   6.744  10.790   9.659  1.3772  0.4549  1.3467
28947SOL    HW290119   6.611  10.725   9.691  0.6994  0.6549 -0.8923
28948SOL     OW90120   2.598   2.635   7.449  0.4675 -0.6282 -0.5301
28948SOL    HW190121   2.683   2.661   7.413  0.0995  1.0494 -0.2697
28948SOL    HW290122   2.539   2.635   7.374  0.5497 -1.1142 -0.5957
28949SOL     OW90123   5.887   4.377   3.527  0.1302  0.0346  0.2129
28949SOL    HW190124   5.856   4.328   3.451  1.6214  0.0918 -0.4697
28949SOL    HW290125   5.971   4.337   3.549  1.6363  2.4912 -0.6402
28950SOL     OW90126   6.328   4.044   1.081 -0.0219 -0.2489  0.2602
28950SOL    HW190127   6.298   4.068   0.994 -0.3807 -0.6144  0.2812
28950SOL    HW290128   6.255   3.996   1.120 -0.4044  1.1309  1.3008
28951SOL     OW90129   8.451   5.574   2.991 -0.5186 -0.0941 -0.2016
28951SOL    HW190130   8.527   5.568   2.933 -0.5279  2.4027 -0.5915
28951SOL    HW290131   8.377   5.587   2.931 -1.0724 -1.1524  0.2376
28952SOL     OW90132   3.602   0.135   0.941  0.2219  0.2088 -0.3846
28952SOL    HW190133   3.653   0.062   0.907  0.5305  0.0124  0.4674
28952SOL    HW290134   3.668   0.200   0.966 -0.0672  0.9705 -1.5418
28953SOL     OW90135   0.288   5.480   2.673  0.5718 -0.6651  0.2128
28953SOL    HW190136   0.282   5.387   2.695 -1.0913 -0.1626  2.1808
28953SOL    HW290137   0.198   5.504   2.648  1.2237  0.1765 -1.5313
28954SOL     OW90138   6.730   4.172   8.393 -0.1508 -0.3011 -0.3166
28954SOL    HW190139   6.762   4.260   8.370  1.0827 -0.1939  1.6027
28954SOL    HW290140   6.766   4.115   8.325 -0.5543  0.5730 -1.3091
28955SOL     OW90141   1.197   8.512   0.793  0.0001 -0.1811  0.3176
28955SOL    HW190142   1.227   8.443   0.734 -0.8526  0.0307 -0.3878
28955SOL    HW290143   1.208   8.593   0.742 -1.0109 -0.0265  0.3214
28956SOL     OW90144   4.521  11.040   8.548 -0.1154 -0.0662  0.1972
28956SOL    HW190145   4.454  11.094   8.591  2.2404  1.5466  2.0977
28956SOL    HW290146   4.525  10.960   8.602 -1.2074 -0.6750 -0.5794
28957SOL     OW90147   1.797  10.128  10.154  0.2186  0.0883  0.4059
28957SOL    HW190148   1.838  10.189  10.092 -0.1251  0.8938  0.9607
28957SOL    HW290149   1.704  10.145  10.147  0.2089  0.6081  1.5628
28958SOL     OW90150   2.635   3.858   5.205 -0.4459 -0.8117  0.2354
28958SOL    HW190151   2.719   3.858   5.250  0.8662 -0.1480 -2.0160
28958SOL    HW290152   2.570   3.877   5.272  1.3086 -0.3775  1.8687
28959SOL     OW90153   7.228   7.528   0.518  0.5141  0.0657 -0.4852
28959SOL    HW190154   7.280   7.595   0.473 -0.2796  0.1923 -1.2478
28959SOL    HW290155   7.147   7.523   0.467  1.2129 -2.6933 -1.4585
28960SOL     OW90156   0.629   2.934   5.674 -0.1212 -0.2059 -0.8790
28960SOL    HW190157   0.680   2.991   5.616 -1.4894  0.8334 -1.1260
28960SOL    HW290158   0.570   2.888   5.615 -0.2484 -0.5390 -0.4890
28961SOL     OW90159   1.436   3.500   3.735  0.3937  0.3656 -0.2664
28961SOL    HW190160   1.417   3.591   3.715 -1.8244 -0.2437 -1.2648
28961SOL    HW290161   1.409   3.489   3.826  0.0247  0.5523 -0.3516
28962SOL     OW90162   5.487   1.570   3.613  0.0078  0.0525  0.2144
28962SOL    HW190163   5.504   1.655   3.652  2.0649 -0.7476  1.2259
28962SOL    HW290164   5.391   1.563   3.610 -0.2026  1.5300  2.0338
28963SOL     OW90165   3.898   8.076   6.084 -0.2039  0.9609  0.3133
28963SOL    HW190166   3.927   7.990   6.112  2.1645  2.1248  1.6818
28963SOL    HW290167   3.965   8.106   6.023 -0.3361  2.3428  0.8192
28964SOL     OW90168   6.709   7.387  10.253 -0.2171 -0.3005 -0.4313
28964SOL    HW190169   6.624   7.423  10.278  0.1722  0.1278  0.2883
28964SOL    HW290170   6.712   7.399  10.158 -0.0910  1.6494 -0.2374
28965SOL     OW90171   5.111   5.786   4.624  0.4439 -0.0606  0.3927
28965SOL    HW190172   5.109   5.691   4.611  1.3090 -0.3665  2.2374
28965SOL    HW290173   5.037   5.818   4.572  0.0666 -1.7383 -0.1822
28966SOL     OW90174  10.585   0.410   4.390  0.4824 -0.8606  0.1661
28966SOL    HW190175  10.543   0.325   4.373 -1.6897  0.1831 -0.0378
28966SOL    HW290176  10.656   0.414   4.327 -0.4015 -1.8623 -0.9521
28967SOL     OW90177   9.008   0.984   9.096  0.5196  0.0877  0.0525
28967SOL    HW190178   9.067   1.018   9.164  0.2465 -0.6405  0.6591
28967SOL    HW290179   9.041   1.023   9.015  1.2025  0.5136  0.5226
28968SOL     OW90180  10.611   4.594   4.743  0.0665 -0.1326 -0.2986
28968SOL    HW190181  10.661   4.676   4.737  1.8161 -1.1588 -0.4497
28968SOL    HW290182  10.676   4.525   4.727 -1.7635 -1.4886 -2.6286
28969SOL     OW90183   6.004   7.443   9.180 -0.0670 -0.0798 -0.0563
28969SOL    HW190184   6.052   7.408   9.255  0.6852 -0.9337 -0.9208
28969SOL    HW290185   6.044   7.528   9.163  1.6124 -1.0272 -1.1379
28970SOL     OW90186   1.925   1.975   7.747 -0.3595  0.1079  0.5701
28970SOL    HW190187   1.903   1.898   7.799 -0.9889  0.0206  0.1921
28970SOL    HW290188   1.869   2.045   7.782  0.6721  0.5697  1.3404
28971SOL     OW90189   2.228   7.257   4.473 -0.5888  0.3652 -0.0458
28971SOL    HW190190   2.139   7.291   4.459  0.0894  2.1001 -0.3236
28971SOL    HW290191   2.230   7.231   4.565 -1.3381  0.4393 -0.0031
28972SOL     OW90192   1.500   7.442   4.045 -0.4601  0.7399  0.4474
28972SOL    HW190193   1.556   7.494   4.103  0.4596  2.6995 -2.0097
28972SOL    HW290194   1.557   7.374   4.010 -0.1149  1.5026 -0.5171
28973SOL     OW90195  11.164  10.365   5.565  0.7177 -0.2451 -0.4256
28973SOL    HW190196  11.167  10.272   5.585  1.1596  0.1606  1.6574
28973SOL    HW290197  11.256  10.391   5.561  0.5934  0.3355  0.3014
28974SOL     OW90198  11.075   7.069   6.133  0.2337 -0.0197  0.1630
28974SOL    HW190199  11.100   7.152   6.174  1.2850 -0.0018 -0.4829
28974SOL    HW290200  11.157   7.020   6.125 -0.5273 -1.6024  1.5318
28975SOL     OW90201   2.781   6.714   0.124  0.0708 -0.5287  0.2121
28975SOL    HW190202   2.812   6.625   0.139  1.2777 -0.4570 -1.5559
28975SOL    HW290203   2.829   6.744   0.047 -2.3976  0.6492 -0.9840
28976SOL     OW90204   2.212   3.112   4.054 -0.0554 -0.3479  0.3283
28976SOL    HW190205   2.172   3.033   4.088  1.1995 -0.7611  0.9227
28976SOL    HW290206   2.302   3.109   4.086  0.4263  0.5988 -0.8426
28977SOL     OW90207   8.675   7.330   7.991  0.0928  0.0152  0.8357
28977SOL    HW190208   8.606   7.338   7.925 -1.4707 -2.3439  2.0363
28977SOL    HW290209   8.632   7.353   8.073  1.1924  0.0082  1.4329
28978SOL     OW90210   9.299   4.317   1.634 -0.0111 -0.5870  0.0334
28978SOL    HW190211   9.390   4.322   1.662  0.2784  0.1800 -0.9815
28978SOL    HW290212   9.254   4.274   1.707  0.9598 -0.0065  1.0137
28979SOL     OW90213   6.749   0.765   5.771 -0.1611  0.3749 -0.6847
28979SOL    HW190214   6.673   0.805   5.812 -0.6020  1.0630 -2.1121
28979SOL    HW290215   6.803   0.735   5.844 -0.9581  1.4547  0.3787
28980SOL     OW90216   7.770   2.179   5.749  0.1440 -0.1683  0.2415
28980SOL    HW190217   7.737   2.266   5.727 -1.0541 -1.0878 -2.0182
28980SOL    HW290218   7.839   2.163   5.685  0.3007 -0.9070  0.5797
28981SOL     OW90219   5.193   1.094   4.993 -0.4843 -0.2478 -0.1469
28981SOL    HW190220   5.160   1.078   5.081 -2.9199 -1.7660 -1.2412
28981SOL    HW290221   5.287   1.110   5.005 -0.7769 -0.2639  2.7031
28982SOL     OW90222   9.680   3.031   6.202 -0.0265  0.3010 -0.4200
28982SOL    HW190223   9.767   3.067   6.180 -0.8121  1.3064 -2.0974
28982SOL    HW290224   9.675   3.037   6.298  0.6516  2.9853 -0.4682
28983SOL     OW90225   2.187   7.794   8.936  0.0022  0.3712  0.5186
28983SOL    HW190226   2.100   7.816   8.970 -0.2590 -1.1853  0.9484
28983SOL    HW290227   2.195   7.843   8.855 -0.9920  1.0751  0.8323
28984SOL     OW90228   8.737   3.806  10.208 -0.1545 -0.4226 -0.3252
28984SOL    HW190229   8.828   3.788  10.182  0.2226  1.8441 -0.8027
28984SOL    HW290230   8.743   3.886  10.261 -1.8981 -0.0474 -0.6498
28985SOL     OW90231   7.663   6.529   7.562  0.5171  0.2049 -0.2732
28985SOL    HW190232   7.630   6.472   7.632 -0.7342 -0.3875 -1.3222
28985SOL    HW290233   7.616   6.612   7.575  1.2953  0.5585  0.3918
28986SOL     OW90234   5.488   3.110   3.321  0.4353 -0.0559 -0.8517
28986SOL    HW190235   5.420   3.089   3.384  0.7588  0.6600 -0.2478
28986SOL    HW290236   5.464   3.196   3.288  2.8045  1.8903  1.9518
28987SOL     OW90237   6.904   2.405   6.028  0.2457 -0.3477  0.0583
28987SOL    HW190238   6.851   2.485   6.022 -0.1990 -0.5789  0.8248
28987SOL    HW290239   6.992   2.434   6.004  0.0812  0.3612  0.2777
28988SOL     OW90240   8.708   6.861   2.390 -0.5499 -0.5621 -0.1932
28988SOL    HW190241   8.640   6.928   2.399  2.3961  2.5488  0.8510
28988SOL    HW290242   8.700   6.807   2.469 -1.2182  0.3203  0.3520
28989SOL     OW90243   5.748   9.769   7.554 -0.4532 -0.6224  0.3526
28989SOL    HW190244   5.697   9.726   7.623  2.3801 -1.0054  2.4005
28989SOL    HW290245   5.839   9.749   7.575  0.8458  3.0314 -0.8891
28990SOL     OW90246   5.516   1.233   6.334  0.5484  0.7539 -0.0971
28990SOL    HW190247   5.555   1.164   6.281 -1.7042  0.6988 -1.8374
28990SOL    HW290248   5.428   1.202   6.353 -0.3596  2.8775 -0.5072
28991SOL     OW90249   6.496   6.605   0.448 -0.1621  0.0609  0.5518
28991SOL    HW190250   6.539   6.607   0.534 -0.6949  4.9694  1.0206
28991SOL    HW290251   6.562   6.570   0.389  1.6072  0.0148  2.4438
28992SOL     OW90252   5.739  11.362   7.775 -0.2663 -0.6576  0.3472
28992SOL    HW190253   5.723  11.276   7.814 -1.2436 -0.9954 -0.7260
28992SOL    HW290254   5.695  11.358   7.690 -0.6248  1.0302  0.4195
28993SOL     OW90255   9.927   5.695   1.179 -0.5005 -0.1108 -0.0469
28993SOL    HW190256   9.858   5.711   1.244  0.4800  2.1391  0.5260
28993SOL    HW290257   9.891   5.730   1.097 -1.8901 -3.2837 -0.9406
28994SOL     OW90258   1.366   4.422   8.609  0.5553 -0.2535  0.2764
28994SOL    HW190259   1.383   4.411   8.703  0.0296 -0.0502  0.3991
28994SOL    HW290260   1.453   4.425   8.569  0.7758 -0.7362  0.7101
28995SOL     OW90261   4.691   8.047   3.338 -0.1633 -0.1586  0.3501
28995SOL    HW190262   4.653   7.960   3.350 -2.6983  0.7306 -0.5062
28995SOL    HW290263   4.696   8.059   3.243 -1.3871  1.1600  0.3968
28996SOL     OW90264   0.678   6.088   4.812 -0.3146  0.2922  0.1418
28996SOL    HW190265   0.676   6.002   4.769 -1.5433  0.2352  0.2724
28996SOL    HW290266   0.746   6.137   4.766 -0.1165 -0.4973 -0.4226
28997SOL     OW90267   8.029   7.910   3.164 -0.1437  0.2705  0.1036
28997SOL    HW190268   7.941   7.884   3.193  0.4163 -2.1114 -0.1975
28997SOL    HW290269   8.013   7.988   3.110 -2.3258 -1.1119 -1.4329
28998SOL     OW90270   0.543   3.685   5.702  0.2487  0.1655 -0.2865
28998SOL    HW190271   0.538   3.739   5.781  0.8946 -1.1738  0.6964
28998SOL    HW290272   0.512   3.743   5.632 -0.3350  1.3843  0.9306
28999SOL     OW90273   8.487   5.218   2.447  0.3643 -0.0301 -0.0776
28999SOL    HW190274   8.425   5.267   2.502  1.3336  0.4373  0.6358
28999SOL    HW290275   8.431   5.171   2.385 -0.6618  1.0956 -0.0580
29000SOL     OW90276  10.304   3.825   7.480 -0.0802 -0.4536  0.1721
29000SOL    HW190277  10.241   3.755   7.462  0.0287 -0.4876 -0.0741
29000SOL    HW290278  10.356   3.792   7.553  1.4980 -1.6276 -1.4112
29001SOL     OW90279   7.944   2.718   3.579  1.0051  0.3880  0.3150
29001SOL    HW190280   7.868   2.747   3.530  0.3259 -3.1793 -1.0444
29001SOL    HW290281   8.019   2.754   3.532  0.2288  0.8255 -0.6122
29002SOL     OW90282   0.728   3.065   7.602  0.4554 -0.2283  0.1855
29002SOL    HW190283   0.679   3.118   7.665 -0.8585 -0.4579 -0.5957
29002SOL    HW290284   0.712   2.975   7.629  0.3743 -0.3070 -0.1169
29003SOL     OW90285  10.948  10.649  10.781  0.2037 -0.4557 -0.3992
29003SOL    HW190286  10.953  10.554  10.793 -0.7550 -0.3097  1.5252
29003SOL    HW290287  10.875  10.676  10.837  0.4022  1.4049 -0.9911
29004SOL     OW90288   0.575   9.847   6.200 -0.1037 -0.5108 -0.0327
29004SOL    HW190289   0.667   9.857   6.178  0.4718 -2.0038  1.4778
29004SOL    HW290290   0.569   9.759   6.238 -1.5949  0.5511  2.4149
29005SOL     OW90291   0.135   2.732   0.648  0.2976  0.3143  0.5330
29005SOL    HW190292   0.179   2.786   0.714 -1.9675  0.4178  2.0824
29005SOL    HW290293   0.197   2.661   0.630  1.5301  1.0083  1.7919
29006SOL     OW90294   0.117  10.301   2.131 -0.4024  0.1282 -0.1658
29006SOL    HW190295   0.213  10.303   2.137 -0.4345  0.5748  0.2862
29006SOL    HW290296   0.087  10.342   2.213 -0.9540  1.3916 -0.9618
29007SOL     OW90297   6.916   4.904   5.979 -0.1038 -0.0226  0.3817
29007SOL    HW190298   6.981   4.954   5.929  0.1980  0.1634  0.9491
29007SOL    HW290299   6.854   4.872   5.913 -0.1096  0.8163 -0.0274
29008SOL     OW90300   0.037  10.207   5.739  0.5759 -0.1842 -0.1964
29008SOL    HW190301   0.126  10.187   5.768  0.5012  1.5890  1.4510
29008SOL    HW290302   0.041  10.298   5.709 -0.6531 -0.1065 -0.1817
29009SOL     OW90303  11.021   8.754   4.225  0.2163 -0.2279  0.2370
29009SOL    HW190304  10.962   8.746   4.300 -0.3140 -0.3061 -0.1895
29009SOL    HW290305  10.991   8.688   4.163 -0.0474  0.5827 -0.5222
29010SOL     OW90306   6.207   5.734   8.265  0.2036 -0.4297  0.2010
29010SOL    HW190307   6.262   5.812   8.254 -0.8305  0.0729 -1.9486
29010SOL    HW290308   6.228   5.679   8.189 -1.4738 -0.6819 -0.1248
29011SOL     OW90309   6.151   9.968   4.756  0.3054 -0.2051 -0.2754
29011SOL    HW190310   6.096   9.940   4.830 -1.0610  2.1533 -0.3047
29011SOL    HW290311   6.211  10.032   4.793 -1.5430  2.3445 -1.3686
29012SOL     OW90312   4.033   4.272   1.381 -0.1622  0.2355  0.7168
29012SOL    HW190313   4.057   4.364   1.374 -0.3233  0.2126 -0.4252
29012SOL    HW290314   3.990   4.252   1.297 -0.3024 -0.8241  1.0201
29013SOL     OW90315   5.432   2.569   5.071  0.2204  0.2557 -0.0960
29013SOL    HW190316   5.464   2.598   4.986 -0.6912  0.3026 -0.4318
29013SOL    HW290317   5.434   2.474   5.066  0.6984  0.2584  0.0358
29014SOL     OW90318   2.788   2.373   8.425  0.1459 -0.1675  0.3680
29014SOL    HW190319   2.789   2.285   8.387 -1.2041 -0.3441  0.6807
29014SOL    HW290320   2.708   2.375   8.478 -0.1633  1.4416 -0.1102
29015SOL     OW90321   7.598   4.791   3.379 -0.6242 -0.5413  0.1345
29015SOL    HW190322   7.653   4.803   3.302 -0.4331  1.4616  0.5315
29015SOL    HW290323   7.516   4.836   3.357 -0.2122  0.9286  1.4089
29016SOL     OW90324  11.112  10.778   3.549  0.1997  0.7052 -0.0817
29016SOL    HW190325  11.199  10.815   3.567  0.2740  1.6222 -2.0967
29016SOL    HW290326  11.097  10.796   3.456 -1.3147 -1.2282 -0.2670
29017SOL     OW90327   1.261   3.031   7.078  0.1979 -0.2276  0.5623
29017SOL    HW190328   1.296   3.035   6.989 -1.2147 -0.1588 -0.0064
29017SOL    HW290329   1.239   2.939   7.091 -1.7019  0.0901 -0.0363
29018SOL     OW90330   9.732   7.765   7.715 -0.2219 -0.4408 -0.1348
29018SOL    HW190331   9.739   7.802   7.803 -1.2572  1.6811 -0.8806
29018SOL    HW290332   9.807   7.705   7.708 -0.2581 -0.8719  2.2408
29019SOL     OW90333   9.937   0.571  11.209  0.1405  0.2675  0.8243
29019SOL    HW190334   9.923   0.629  11.134 -1.6477 -1.3817 -0.2040
29019SOL    HW290335   9.865   0.509  11.205  1.9859 -2.0917  1.8283
29020SOL     OW90336   7.335   6.635   4.555 -0.3016 -0.7158  0.1604
29020SOL    HW190337   7.338   6.624   4.460  2.5618  1.3219 -0.0872
29020SOL    HW290338   7.370   6.553   4.589 -0.5623 -1.1361 -0.5421
29021SOL     OW90339   6.927  10.902   8.106 -0.4720  0.2575  0.7698
29021SOL    HW190340   6.885  10.958   8.041 -2.1219  1.4757  2.7640
29021SOL    HW290341   7.020  10.921   8.098 -0.2922 -1.3282 -2.7017
29022SOL     OW90342   1.512  11.310   9.987  0.3853 -0.0022  0.3323
29022SOL    HW190343   1.587  11.331   9.931  0.2495  0.5075  0.3409
29022SOL    HW290344   1.439  11.357   9.947 -0.0576 -0.9596 -0.0143
29023SOL     OW90345   0.976   9.633   3.724 -0.4499 -0.0262  1.1392
29023SOL    HW190346   1.061   9.639   3.768  0.0410 -2.8226  0.7381
29023SOL    HW290347   0.996   9.608   3.634 -1.6105  2.4191  0.1093
29024SOL     OW90348   6.630   8.427  10.831 -0.6417 -1.0040 -0.1021
29024SOL    HW190349   6.669   8.341  10.847 -0.0627 -0.6496  0.4467
29024SOL    HW290350   6.634   8.472  10.916  0.7490  0.2286 -0.7703
29025SOL     OW90351   0.105   0.368   0.797 -0.0929 -0.0002  0.1168
29025SOL    HW190352   0.148   0.343   0.879 -1.9009 -0.5739  0.9305
29025SOL    HW290353   0.014   0.339   0.807 -0.6875  1.1304 -1.5552
29026SOL     OW90354   1.097   9.120   0.134 -0.0203  0.2293 -0.2670
29026SOL    HW190355   1.149   9.063   0.077 -0.2184  0.9723 -1.2226
29026SOL    HW290356   1.012   9.077   0.139  0.7104 -1.1155  1.4951
29027SOL     OW90357  10.011   1.350  10.854 -0.0520 -0.3872  0.1595
29027SOL    HW190358  10.001   1.405  10.777 -0.2306  0.1511  0.5582
29027SOL    HW290359   9.927   1.357  10.900 -0.0792 -0.9991  0.2135
29028SOL     OW90360   1.136   6.940   6.922  0.2901 -0.5514  0.2850
29028SOL    HW190361   1.166   6.850   6.908  1.8414  0.0985 -0.9436
29028SOL    HW290362   1.167   6.962   7.010  1.3136 -0.7253 -0.0174
29029SOL     OW90363   0.688   7.468   3.174 -0.0521 -0.1527 -0.2163
29029SOL    HW190364   0.662   7.431   3.258  1.8191 -2.1209 -0.3995
29029SOL    HW290365   0.606   7.483   3.127 -1.0342 -1.0901  1.1330
29030SOL     OW90366   8.659   8.107   0.936  0.1456 -0.0521  0.1078
29030SOL    HW190367   8.737   8.161   0.924 -0.5019  0.8954  0.0345
29030SOL    HW290368   8.592   8.169   0.964 -0.5886 -0.8505  0.1426
29031SOL     OW90369   1.630  10.572   8.153 -0.6876 -0.1383 -0.4365
29031SOL    HW190370   1.721  10.540   8.154 -0.4789  0.4695  0.2837
29031SOL    HW290371   1.633  10.656   8.199 -1.5098  0.1846 -0.9557
29032SOL     OW90372   0.859   6.502   0.318 -0.4973  0.1253 -0.2289
29032SOL    HW190373   0.788   6.446   0.286  0.2658 -0.2098 -1.4231
29032SOL    HW290374   0.897   6.454   0.391 -2.0015  0.6975  0.9927
29033SOL     OW90375   9.609   9.443   7.705  0.6295  0.4368  0.0577
29033SOL    HW190376   9.616   9.419   7.797 -2.2715  0.9477  0.5063
29033SOL    HW290377   9.659   9.524   7.697  1.6446 -0.0751  0.9349
29034SOL     OW90378   7.295   9.782   1.396  0.0342 -0.1066 -0.1486
29034SOL    HW190379   7.269   9.838   1.470 -0.0661 -0.5931  0.1887
29034SOL    HW290380   7.255   9.823   1.320 -0.6518 -0.1293  0.1925
29035SOL     OW90381   3.450   8.774   3.417  0.4713 -0.4676  0.2829
29035SOL    HW190382   3.449   8.694   3.364  0.7718 -0.2481 -0.0587
29035SOL    HW290383   3.500   8.750   3.495 -0.2483 -0.8884  0.6287
29036SOL     OW90384  11.062   5.615   2.480 -0.5490  0.0203 -0.6909
29036SOL    HW190385  11.034   5.617   2.389  0.0838 -0.9267 -0.9231
29036SOL    HW290386  11.157   5.631   2.476 -0.6693  1.0039 -0.1024
29037SOL     OW90387   9.361   0.152   8.182  0.3423 -0.2358  0.1517
29037SOL    HW190388   9.314   0.069   8.171 -1.4520  0.5239  1.6031
29037SOL    HW290389   9.423   0.136   8.253 -0.3614 -0.2169  0.7820
29038SOL     OW90390  10.032  11.117   5.396  0.0374 -0.5196 -0.0305
29038SOL    HW190391  10.059  11.202   5.432 -0.1078 -0.4996  0.0334
29038SOL    HW290392   9.996  11.138   5.310  3.2171 -0.9066 -1.5824
29039SOL     OW90393   5.467   7.179   7.809 -0.3856 -0.7784 -0.1479
29039SOL    HW190394   5.556   7.209   7.827 -1.0340 -0.1733  2.5283
29039SOL    HW290395   5.477   7.086   7.789  0.8425 -0.6850 -0.0751
29040SOL     OW90396   5.514   5.567   7.687  0.0133 -0.1233  0.4127
29040SOL    HW190397   5.494   5.624   7.613  0.6169 -0.0580  0.2909
29040SOL    HW290398   5.438   5.575   7.745  0.3930  1.3740  0.7435
29041SOL     OW90399   8.843   0.461   5.335  0.0177 -0.3271  0.0338
29041SOL    HW190400   8.781   0.507   5.279  0.4171 -0.0056 -0.1495
29041SOL    HW290401   8.794   0.444   5.416 -0.1402  0.3963  0.0937
29042SOL     OW90402   4.727  11.122   2.305  0.4988 -0.0487 -0.2082
29042SOL    HW190403   4.709  11.213   2.281 -2.3835 -0.6728 -0.7804
29042SOL    HW290404   4.760  11.082   2.225 -0.3389  0.0133 -0.5959
29043SOL     OW90405   8.458   9.750  10.006  0.1665 -0.0626 -0.0089
29043SOL    HW190406   8.540   9.707  10.029 -0.0229  0.1126  1.0886
29043SOL    HW290407   8.402   9.680   9.973  1.5358  0.1996 -3.1745
29044SOL     OW90408  10.453   2.079   7.147 -0.3499 -0.0441 -0.7404
29044SOL    HW190409  10.513   2.119   7.210  0.2822  1.3082 -2.1127
29044SOL    HW290410  10.482   1.989   7.139 -0.7708 -0.3876  1.2548
29045SOL     OW90411   8.509   1.492   7.928  0.1588 -0.3468  0.4493
29045SOL    HW190412   8.529   1.565   7.870  2.0960  1.2054  2.8673
29045SOL    HW290413   8.581   1.430   7.915 -0.9443 -1.4264 -0.8444
29046SOL     OW90414   5.056   1.404  11.102  0.0878  0.2581  0.0361
29046SOL    HW190415   5.040   1.457  11.024  1.1031 -0.8908 -0.9876
29046SOL    HW290416   5.063   1.315  11.069 -1.6325 -0.5782  1.7282
29047SOL     OW90417   4.912   4.111   6.889 -0.2240 -0.8981 -0.3290
29047SOL    HW190418   4.877   4.027   6.860  1.7257 -1.8653  0.0206
29047SOL    HW290419   4.961   4.144   6.814  0.3163 -0.8296  0.0461
29048SOL     OW90420   0.991   3.870   3.153 -0.2476 -0.5874 -0.1588
29048SOL    HW190421   0.998   3.887   3.059 -0.1283 -0.7717 -0.1831
29048SOL    HW290422   1.053   3.799   3.169  1.1382  0.7178  0.4009
29049SOL     OW90423   8.689   1.000   9.882 -0.2080  0.2186 -0.0312
29049SOL    HW190424   8.614   1.052   9.851  0.0191  0.2931 -0.4700
29049SOL    HW290425   8.716   0.949   9.805  0.2685  0.2787  0.0934
29050SOL     OW90426   0.826   8.727   9.691 -0.1482  0.3109  0.4364
29050SOL    HW190427   0.782   8.807   9.661  2.8730  1.8250 -0.3775
29050SOL    HW290428   0.762   8.684   9.747 -2.0270  3.1806  0.7004
29051SOL     OW90429   8.908   2.488   6.593  0.5834 -0.5807  0.6065
29051SOL    HW190430   8.863   2.531   6.667  2.2235  0.3097  1.1461
29051SOL    HW290431   8.950   2.412   6.632  1.8867  0.1767  0.7467
29052SOL     OW90432  11.293   2.786   8.915 -0.8875  0.1741 -0.4706
29052SOL    HW190433  11.276   2.872   8.877 -0.7443  0.9534  1.1605
29052SOL    HW290434  11.247   2.725   8.857 -0.4678  1.2595 -2.0178
29053SOL     OW90435   1.147   2.588   8.389  0.2496 -0.1986 -0.0758
29053SOL    HW190436   1.192   2.505   8.373  0.8365 -0.1483  1.1580
29053SOL    HW290437   1.197   2.653   8.340  1.2942 -0.2119  0.9287
29054SOL     OW90438   7.350   2.572   9.240 -0.4192  0.1805  0.1454
29054SOL    HW190439   7.331   2.625   9.318 -1.5808 -0.3749  0.2597
29054SOL    HW290440   7.303   2.490   9.255  0.2698 -0.3717 -0.6394
29055SOL     OW90441   3.426   2.204   4.140 -0.4028 -0.3473 -0.0689
29055SOL    HW190442   3.379   2.275   4.096  1.7009 -0.2493 -2.4148
29055SOL    HW290443   3.497   2.248   4.187  1.2496 -0.8130 -1.9852
29056SOL     OW90444  11.212   0.828   8.428  0.6017  0.2676  0.1540
29056SOL    HW190445  11.289   0.776   8.450  0.8703  1.2685  1.6971
29056SOL    HW290446  11.139   0.766   8.432  1.2447 -0.6013 -0.9186
29057SOL     OW90447   3.977   4.172   0.324  0.2444 -0.0887  0.1185
29057SOL    HW190448   4.017   4.096   0.366  0.9091  0.6592  0.8589
29057SOL    HW290449   4.013   4.247   0.370 -1.4193  0.6511  0.2990
29058SOL     OW90450   7.421   1.070   1.036  0.3980  0.7639 -0.0088
29058SOL    HW190451   7.506   1.037   1.008  1.0065 -0.5929  3.0205
29058SOL    HW290452   7.367   0.991   1.046  0.6103  0.8974  3.4475
29059SOL     OW90453   1.918  10.873   4.669  0.6222 -0.0650 -0.1769
29059SOL    HW190454   1.985  10.939   4.688  2.0890 -1.1917 -1.1852
29059SOL    HW290455   1.963  10.808   4.614 -0.8850 -1.6848  0.4052
29060SOL     OW90456   5.687   3.521   1.609 -0.0939  0.9363  0.4467
29060SOL    HW190457   5.711   3.480   1.692 -0.1617  1.9707  0.9833
29060SOL    HW290458   5.599   3.557   1.624 -1.4494 -1.4361 -1.0089
29061SOL     OW90459   3.748   4.621   1.248  0.4279  0.3775  0.3948
29061SOL    HW190460   3.720   4.631   1.157  1.4846  0.6172  0.0931
29061SOL    HW290461   3.726   4.704   1.289  1.5649  0.9259 -0.0807
29062SOL     OW90462   5.480   5.919   3.729 -0.1114 -0.3949  0.5483
29062SOL    HW190463   5.497   5.982   3.659  0.4416 -1.6335 -0.4609
29062SOL    HW290464   5.544   5.850   3.715  0.0693 -0.6374  2.3483
29063SOL     OW90465   4.008  10.297   0.047 -0.4144  0.1875  0.1705
29063SOL    HW190466   3.997  10.220  -0.009  0.2630 -0.3847  0.8157
29063SOL    HW290467   3.920  10.316   0.079 -0.4729 -0.7997  0.6351
29064SOL     OW90468   8.689   9.509   0.074  0.1382  0.4644  0.3577
29064SOL    HW190469   8.703   9.508   0.169  0.1524  1.6853  0.3833
29064SOL    HW290470   8.678   9.417   0.050 -2.7420  0.2749  1.9831
29065SOL     OW90471   8.894   9.935   6.385 -0.2719  0.1013  0.4046
29065SOL    HW190472   8.872   9.851   6.347 -0.8736  0.7084 -0.6378
29065SOL    HW290473   8.981   9.956   6.351  0.6139 -0.8320  1.9838
29066SOL     OW90474  10.052   4.767  11.038 -0.4445 -0.1204  0.3710
29066SOL    HW190475   9.983   4.801  10.980  0.1811 -0.5874 -0.6841
29066SOL    HW290476  10.090   4.695  10.988  2.7628  1.8969 -0.3986
29067SOL     OW90477   6.361   4.100   6.948  0.3178  0.7587 -0.2974
29067SOL    HW190478   6.351   4.039   6.875  1.4177  0.6701 -0.3965
29067SOL    HW290479   6.382   4.044   7.023  1.8026  1.0041 -0.4860
29068SOL     OW90480   2.480   5.229  10.923 -0.0620  0.1986  0.4291
29068SOL    HW190481   2.574   5.240  10.939 -0.0880 -0.2410  0.8838
29068SOL    HW290482   2.467   5.268  10.836  0.2046  1.8806  1.0995
29069SOL     OW90483   0.836   3.300   3.704  0.2375  0.3207  0.5259
29069SOL    HW190484   0.780   3.314   3.628  2.0165 -1.6121 -1.2744
29069SOL    HW290485   0.910   3.250   3.670  1.3482 -0.2314  3.4803
29070SOL     OW90486   9.676  10.552  11.145  0.0873  0.2282 -0.1556
29070SOL    HW190487   9.660  10.642  11.115 -1.1087 -0.6100 -2.3114
29070SOL    HW290488   9.702  10.505  11.065  2.0964 -1.0868  1.1703
29071SOL     OW90489   0.788   6.740  10.486  0.5371  0.3804 -0.5902
29071SOL    HW190490   0.780   6.670  10.551  0.7733  0.2564 -0.6956
29071SOL    HW290491   0.866   6.788  10.511 -1.2231  2.4909  1.3029
29072SOL     OW90492   9.818   2.994   7.784 -0.2997  0.3969 -0.0257
29072SOL    HW190493   9.743   3.027   7.735  1.1051  1.5634 -1.5159
29072SOL    HW290494   9.796   3.011   7.876 -2.0845  0.1355 -0.3749
29073SOL     OW90495   4.248  11.195   7.094 -0.0651 -0.5861  0.2119
29073SOL    HW190496   4.236  11.237   7.179 -0.7147  0.1544 -0.2326
29073SOL    HW290497   4.168  11.215   7.045  0.3355 -0.9201 -0.6128
29074SOL     OW90498   4.090  10.604  11.195  1.3036  0.0491 -0.3775
29074SOL    HW190499   4.138  10.531  11.155  4.0682  1.9373 -0.7883
29074SOL    HW290500   4.151  10.639  11.260 -1.3304 -0.1126  2.3796
29075SOL     OW90501   2.904   6.865  10.631 -0.5574  0.1954  0.1150
29075SOL    HW190502   2.839   6.915  10.581 -0.3717  0.4427  0.1170
29075SOL    HW290503   2.988   6.898  10.600 -0.4398  0.4482  0.6847
29076SOL     OW90504   3.456   2.289   2.577  0.2270  0.0747  0.1545
29076SOL    HW190505   3.400   2.222   2.615 -2.2520  0.9586 -1.6888
29076SOL    HW290506   3.523   2.240   2.529 -1.5672 -1.1878 -1.2118
29077SOL     OW90507   6.549   2.467   5.828  0.1796  0.2250 -0.2901
29077SOL    HW190508   6.621   2.529   5.841  1.4453 -1.5081  1.5104
29077SOL    HW290509   6.558   2.405   5.900 -3.3558  0.0923  0.1851
29078SOL     OW90510   3.643   4.252   5.879 -0.2651  0.7403 -0.3007
29078SOL    HW190511   3.601   4.201   5.948  0.0906  1.6650  0.6175
29078SOL    HW290512   3.684   4.186   5.822  0.4117  0.0035  0.9949
29079SOL     OW90513   9.114   9.987   4.796 -0.7615  0.0230 -0.3786
29079SOL    HW190514   9.101  10.081   4.794 -0.9523  0.0381  0.7480
29079SOL    HW290515   9.147   9.969   4.884 -0.2596 -0.9058 -0.7384
29080SOL     OW90516   0.590   0.171   5.789 -0.2477  0.2903 -0.3080
29080SOL    HW190517   0.559   0.248   5.740 -1.2519 -0.2953 -0.6188
29080SOL    HW290518   0.595   0.101   5.724  0.5915  0.0664 -0.0118
29081SOL     OW90519   4.391   5.188   2.516 -0.2287  0.5435 -0.6846
29081SOL    HW190520   4.337   5.143   2.581 -0.0871  0.8145 -0.3807
29081SOL    HW290521   4.438   5.255   2.565  1.5706 -0.6793 -0.6559
29082SOL     OW90522   0.551  11.016  11.080  0.5387 -0.1839 -0.1047
29082SOL    HW190523   0.619  11.084  11.086  0.5968 -0.2295 -0.2560
29082SOL    HW290524   0.540  11.002  10.987 -0.9406  1.0994 -0.1638
29083SOL     OW90525   0.051   1.249   7.329 -0.3832  0.0445 -0.0548
29083SOL    HW190526   0.048   1.158   7.357  0.1725  0.2894  0.8768
29083SOL    HW290527   0.126   1.286   7.377 -0.0437  0.7622 -1.1134
29084SOL     OW90528   4.791   3.584  10.970 -0.0055  0.1556  0.0441
29084SOL    HW190529   4.766   3.654  11.030  1.4969  1.0252 -0.2898
29084SOL    HW290530   4.885   3.573  10.983  0.4730  0.6697 -2.4280
29085SOL     OW90531   5.651   1.904   6.633 -0.0195  0.1097  0.1352
29085SOL    HW190532   5.713   1.977   6.628  0.9500 -0.5488  1.6977
29085SOL    HW290533   5.650   1.880   6.725 -1.3111 -1.0237 -0.1495
29086SOL     OW90534   9.886   7.544   2.095 -0.1474 -0.5291  0.8339
29086SOL    HW190535   9.810   7.594   2.065  0.1930  1.1024  2.4929
29086SOL    HW290536   9.852   7.485   2.161 -0.2445 -1.1878  0.2130
29087SOL     OW90537   5.845   0.581   4.748  0.5690  0.2595  0.0434
29087SOL    HW190538   5.929   0.550   4.781  0.1230 -0.9788  0.0854
29087SOL    HW290539   5.859   0.593   4.654  0.1208 -2.6146 -0.4871
29088SOL     OW90540   2.064   4.980   0.266 -0.2039  0.1548 -0.5228
29088SOL    HW190541   2.035   5.066   0.297  1.5451  0.4196  0.4875
29088SOL    HW290542   2.144   4.998   0.218  0.8033 -1.0001  0.6527
29089SOL     OW90543   3.877   4.026  11.103 -0.1846  0.1030 -0.4089
29089SOL    HW190544   3.916   4.050  11.187  2.0780  0.3648 -1.4477
29089SOL    HW290545   3.874   3.930  11.104  1.7330 -0.0161 -0.7342
29090SOL     OW90546   9.949   5.295   1.932 -0.1624  0.4967 -0.0733
29090SOL    HW190547  10.023   5.355   1.933 -1.2527  1.9636  2.2530
29090SOL    HW290548   9.967   5.233   2.003 -0.1621 -0.5408 -0.9454
29091SOL     OW90549  11.298   6.288   3.939  0.0197 -0.0965 -0.0280
29091SOL    HW190550  11.344   6.297   4.022 -0.6855 -1.1437  0.4875
29091SOL    HW290551  11.352   6.227   3.889  0.1535  0.1097 -0.1393
29092SOL     OW90552   8.491   6.991   2.360  0.2257 -0.1174 -0.1638
29092SOL    HW190553   8.467   6.992   2.268  0.3375  0.8861 -0.1938
29092SOL    HW290554   8.409   7.003   2.407  0.0405 -1.5615 -0.0872
29093SOL     OW90555   7.218   4.089   7.985  0.8391  0.3274 -0.2077
29093SOL    HW190556   7.166   4.121   7.911  0.8500 -1.6537 -1.1340
29093SOL    HW290557   7.201   4.152   8.055 -1.5032  0.6825 -0.9859
29094SOL     OW90558   6.012   3.452   6.804  0.0431  0.1742 -0.3633
29094SOL    HW190559   5.975   3.539   6.819  0.5762  0.6356 -1.5703
29094SOL    HW290560   6.035   3.420   6.891 -0.3950  1.1424  0.1188
29095SOL     OW90561   3.854   7.493   3.327  0.8394  0.4520 -0.0187
29095SOL    HW190562   3.920   7.425   3.344  0.6295 -0.2546 -1.8962
29095SOL    HW290563   3.787   7.477   3.393  2.4270  1.1031  1.8610
29096SOL     OW90564   0.148   1.440   7.836 -0.1437  0.3175 -0.5532
29096SOL    HW190565   0.236   1.443   7.873  0.1466 -0.9151 -1.1066
29096SOL    HW290566   0.110   1.360   7.871  0.3158 -1.1934 -3.1843
29097SOL     OW90567   6.148   4.547   7.050  0.5790 -0.2710  0.5734
29097SOL    HW190568   6.151   4.569   7.143  0.6836 -0.3223  0.5825
29097SOL    HW290569   6.181   4.625   7.006 -0.4259  0.1387  0.5162
29098SOL     OW90570   5.814  11.059  11.349 -0.4839  0.2170  0.0215
29098SOL    HW190571   5.885  11.047  11.413 -0.1727  0.1342 -0.3339
29098SOL    HW290572   5.789  10.970  11.324  0.0233  0.2560 -0.6521
29099SOL     OW90573   8.905   1.888   4.274 -0.1704 -0.2557  0.2931
29099SOL    HW190574   8.952   1.893   4.357  0.9106  1.2081 -0.3515
29099SOL    HW290575   8.886   1.795   4.262  0.8043 -0.6400  1.5530
29100SOL     OW90576   6.746   0.113   8.882 -0.4707 -0.3392  0.0187
29100SOL    HW190577   6.735   0.180   8.949 -0.1925 -0.8032  0.5318
29100SOL    HW290578   6.670   0.056   8.892 -0.6598 -0.1543 -0.3570
29101SOL     OW90579   9.531   8.427   9.837  0.0371 -0.0995 -0.2743
29101SOL    HW190580   9.523   8.521   9.850  0.7619 -0.2638  1.8861
29101SOL    HW290581   9.563   8.417   9.747  1.0407  1.7812 -0.1697
29102SOL     OW90582  10.010   4.954   4.843 -0.6188  1.0302 -0.7337
29102SOL    HW190583  10.078   4.923   4.903 -0.3907  0.7085 -1.1603
29102SOL    HW290584   9.948   5.000   4.900 -0.9213 -0.1254 -0.1086
29103SOL     OW90585   9.722   1.538  10.075 -0.9012  0.3463  0.2645
29103SOL    HW190586   9.698   1.536   9.982 -2.8941  3.6282  0.5494
29103SOL    HW290587   9.721   1.446  10.102 -0.9986 -0.6549 -2.7458
29104SOL     OW90588  11.102   4.809   6.345 -0.1936  0.1178  0.6693
29104SOL    HW190589  11.162   4.817   6.419  0.1986 -0.7595  0.4659
29104SOL    HW290590  11.159   4.795   6.269 -0.4552  3.3534 -0.2407
29105SOL     OW90591   5.660   4.820   4.566 -0.1818  0.2751  1.1138
29105SOL    HW190592   5.622   4.904   4.539  0.0401 -0.6145 -2.4979
29105SOL    HW290593   5.754   4.836   4.568 -0.2591  0.8358  3.6833
29106SOL     OW90594  11.338   6.408   0.753 -0.0485 -0.0230  0.3327
29106SOL    HW190595  11.246   6.382   0.755 -0.2036  0.2840 -1.2450
29106SOL    HW290596  11.355   6.429   0.661  1.9483 -1.2968  0.3315
29107SOL     OW90597   0.302   4.802   7.731 -0.1341 -0.4003  0.1239
29107SOL    HW190598   0.314   4.717   7.772  0.0506 -0.4854 -0.1038
29107SOL    HW290599   0.317   4.865   7.801 -0.4859 -0.5605  0.3418
29108SOL     OW90600   0.002   5.780   0.010 -0.5307 -0.0227  0.5267
29108SOL    HW190601  -0.088   5.812   0.005 -0.3081  0.5023 -0.3660
29108SOL    HW290602   0.053   5.857   0.034 -0.3261 -0.3430  1.1351
29109SOL     OW90603   4.609   9.403   0.265  0.7681  0.0357  0.0680
29109SOL    HW190604   4.545   9.334   0.280  1.5810 -0.6288  0.5261
29109SOL    HW290605   4.621   9.404   0.170 -0.1812  0.4234 -0.0635
29110SOL     OW90606  11.330   5.620   3.324 -0.3013  0.3160 -0.1072
29110SOL    HW190607  11.361   5.636   3.413 -0.3958 -2.0613  0.4370
29110SOL    HW290608  11.235   5.626   3.331 -0.2675  3.2766 -0.8254
29111SOL     OW90609   3.600   4.803   6.159 -0.0052  0.0335 -0.2609
29111SOL    HW190610   3.634   4.871   6.102  0.1321 -1.1996 -1.7123
29111SOL    HW290611   3.526   4.843   6.204 -0.9532  0.6724 -2.2987
29112SOL     OW90612   4.251   8.536   6.718  0.2317 -0.2085 -0.0257
29112SOL    HW190613   4.226   8.445   6.708  0.5680 -0.2396 -0.6636
29112SOL    HW290614   4.345   8.538   6.697  0.4671  0.1189  0.9879
29113SOL     OW90615  10.183   1.781   4.358 -0.3378  0.3592 -0.7940
29113SOL    HW190616  10.239   1.767   4.282  1.5397  0.8582  0.4266
29113SOL    HW290617  10.133   1.700   4.366  0.9020 -0.5016 -1.3922
29114SOL     OW90618   1.975   6.068   1.076  0.2235 -0.4160 -0.0212
29114SOL    HW190619   1.932   6.101   1.154  2.1739  0.6386  0.6837
29114SOL    HW290620   1.945   6.127   1.006 -1.8359 -1.6056 -0.2097
29115SOL     OW90621   1.971   4.440   5.363 -0.2759  0.5491 -0.3426
29115SOL    HW190622   1.943   4.362   5.412  1.3275  0.9769  1.4114
29115SOL    HW290623   2.049   4.412   5.316 -0.7818  0.6293 -1.2582
29116SOL     OW90624   5.447   9.544   3.577  0.4664  0.1015 -0.1251
29116SOL    HW190625   5.491   9.593   3.508 -1.0668 -0.8514 -1.8616
29116SOL    HW290626   5.376   9.601   3.606  0.4245  0.0481 -0.1211
29117SOL     OW90627   2.255  10.617  11.258 -1.1181  0.1072 -0.1827
29117SOL    HW190628   2.170  10.588  11.226 -1.1611  0.9145 -0.8574
29117SOL    HW290629   2.244  10.625  11.352 -2.3985  1.9833 -0.4265
29118SOL     OW90630   6.298   7.442   5.866  0.8052  0.7024 -0.6250
29118SOL    HW190631   6.231   7.510   5.878  0.4431  0.4168 -0.9764
29118SOL    HW290632   6.381   7.490   5.867  0.6021  1.0520 -0.0906
29119SOL     OW90633   5.900   1.121   0.134  0.3676  0.7706 -0.1428
29119SOL    HW190634   5.859   1.072   0.063  0.6483  1.6456 -0.9320
29119SOL    HW290635   5.941   1.054   0.190  3.1239  0.1379 -2.6394
29120SOL     OW90636   4.903   5.739   3.018  0.0061 -0.3061 -0.0729
29120SOL    HW190637   4.977   5.715   3.073 -0.6252  0.1400  1.0049
29120SOL    HW290638   4.845   5.663   3.021 -0.0899 -0.2302 -0.0167
29121SOL     OW90639   8.858   4.470   2.884  0.0193 -0.4368 -0.2469
29121SOL    HW190640   8.773   4.439   2.855 -0.2271  1.8149 -2.2582
29121SOL    HW290641   8.918   4.399   2.862 -1.0552 -1.1819 -0.8582
29122SOL     OW90642  10.943   0.020   6.312  0.0290  0.9148  0.1338
29122SOL    HW190643  10.960  -0.071   6.336  0.7752  0.8625 -0.5391
29122SOL    HW290644  11.025   0.066   6.333 -0.4755  1.5057  0.8323
29123SOL     OW90645   4.130   1.954   0.577 -0.5839 -0.5438  0.0196
29123SOL    HW190646   4.097   1.979   0.664 -1.9679 -0.8150 -0.3931
29123SOL    HW290647   4.215   1.997   0.570  0.8185 -2.6194  2.5453
29124SOL     OW90648   9.366   5.013   3.353  0.4440 -0.0646  0.0221
29124SOL    HW190649   9.446   4.992   3.305  0.5509 -0.3135  0.3056
29124SOL    HW290650   9.296   4.973   3.301  0.7728 -2.5595  1.3526
29125SOL     OW90651   4.196   2.107   1.624 -0.7477  0.2066  0.4158
29125SOL    HW190652   4.210   2.014   1.644  0.7235  0.0799 -0.9978
29125SOL    HW290653   4.101   2.118   1.626 -0.9394 -1.2790  0.8060
29126SOL     OW90654   9.433   5.697   3.996  0.4714 -0.0337  0.0045
29126SOL    HW190655   9.339   5.708   4.010  0.5924  0.3815  0.5450
29126SOL    HW290656   9.443   5.606   3.969 -0.1974  0.2000 -1.0912
29127SOL     OW90657   3.588   6.993   5.168 -0.8426  0.2965  0.1923
29127SOL    HW190658   3.602   7.031   5.082  1.7282  0.6353  0.6609
29127SOL    HW290659   3.645   7.044   5.226 -0.6702 -1.4219  1.6435
29128SOL     OW90660   5.938   9.971   9.755  0.5105  0.4561 -0.0563
29128SOL    HW190661   5.887   9.892   9.740  0.0029  0.7668  0.0019
29128SOL    HW290662   5.898  10.037   9.698  0.4255  0.8693  0.4662
29129SOL     OW90663   3.661   3.045   9.445 -0.8576  0.0212 -0.2330
29129SOL    HW190664   3.607   3.040   9.525 -0.4799 -1.3515 -0.0312
29129SOL    HW290665   3.750   3.031   9.476 -0.5763  0.5700 -0.7780
29130SOL     OW90666   3.112   1.934   6.459  0.3699 -0.1427 -0.0852
29130SOL    HW190667   3.109   1.917   6.553 -1.0652 -0.9902 -0.2512
29130SOL    HW290668   3.029   1.976   6.439  1.0031  0.7964 -0.8618
29131SOL     OW90669   2.972  10.279   6.161 -0.2494 -0.0754  0.3978
29131SOL    HW190670   3.054  10.240   6.191 -0.8616 -0.8932  1.0596
29131SOL    HW290671   2.913  10.272   6.236 -1.1773 -0.2479 -0.3265
29132SOL     OW90672   1.719  10.129   1.233 -0.2504  0.0842  0.6356
29132SOL    HW190673   1.674  10.166   1.309  0.2767  1.0076  0.5035
29132SOL    HW290674   1.727  10.201   1.171  1.6894  0.0538  0.7778
29133SOL     OW90675   3.986   6.593   0.607 -0.1307  0.2440  0.5303
29133SOL    HW190676   3.939   6.588   0.690  1.8789 -2.3237  1.6652
29133SOL    HW290677   4.033   6.676   0.610 -0.7937  0.5864  1.5550
29134SOL     OW90678   7.513   8.330   2.213 -0.3827  0.3600  0.2842
29134SOL    HW190679   7.433   8.302   2.257 -0.9682 -1.5638 -1.7999
29134SOL    HW290680   7.578   8.263   2.238  0.1906  1.0805  0.7702
29135SOL     OW90681   2.983  11.356   1.310 -0.3775 -0.0430 -0.2648
29135SOL    HW190682   2.930  11.379   1.387 -0.1102 -0.3034  0.0007
29135SOL    HW290683   2.966  11.426   1.248 -0.1209  0.4975  0.2687
29136SOL     OW90684   4.420   5.960   7.598  0.1211  0.1004  0.6093
29136SOL    HW190685   4.387   6.039   7.642 -1.2433 -0.9451  1.5585
29136SOL    HW290686   4.396   5.889   7.657 -0.4774 -1.2263 -1.1679
29137SOL     OW90687   6.566   2.118   5.306  0.6271 -0.7814 -0.4027
29137SOL    HW190688   6.590   2.189   5.366  2.6602 -1.2828 -0.5419
29137SOL    HW290689   6.522   2.162   5.233  1.6448  0.3146 -0.3858
29138SOL     OW90690   9.086  10.562   9.622 -0.2130  0.1212 -0.1527
29138SOL    HW190691   9.001  10.520   9.637 -0.7482  1.4259  0.6299
29138SOL    HW290692   9.066  10.643   9.575  0.2835  1.6446  2.0967
29139SOL     OW90693   1.310   7.460   0.052  0.0235 -0.8002  0.1005
29139SOL    HW190694   1.232   7.515   0.045 -0.0334 -0.6343  1.6362
29139SOL    HW290695   1.285   7.390   0.113  1.5580  0.2751  2.0959
29140SOL     OW90696   2.429   4.332   7.650 -0.2654 -0.2259  0.3754
29140SOL    HW190697   2.404   4.309   7.561 -1.1441 -0.5323  0.6987
29140SOL    HW290698   2.517   4.295   7.661  0.1988  0.5209 -0.6253
29141SOL     OW90699   9.929   8.704  10.023  0.3905 -0.1342  0.1623
29141SOL    HW190700   9.835   8.703  10.039  0.2015  0.5547 -0.7831
29141SOL    HW290701   9.957   8.791  10.051  0.3447  0.4592 -1.4930
29142SOL     OW90702   7.161   3.636   4.623  0.2389 -0.0129 -0.2873
29142SOL    HW190703   7.191   3.548   4.645  1.3530  0.5389  0.4749
29142SOL    HW290704   7.097   3.657   4.691  1.2067  0.3973  0.5136
29143SOL     OW90705   4.140   6.200   9.817 -0.0522 -0.4774 -0.1333
29143SOL    HW190706   4.221   6.150   9.821 -0.5189 -1.3334 -0.9127
29143SOL    HW290707   4.123   6.225   9.908 -0.8936 -3.5676  0.6911
29144SOL     OW90708  10.113   6.166   5.762  0.0288 -0.0669 -0.3865
29144SOL    HW190709  10.179   6.104   5.730 -0.2899 -1.2126  1.0660
29144SOL    HW290710  10.034   6.144   5.713  0.3605  0.4154 -1.1645
29145SOL     OW90711   1.781   6.496  11.393 -0.8058  0.3066  0.4146
29145SOL    HW190712   1.775   6.507  11.298 -1.2280 -0.6791  0.3192
29145SOL    HW290713   1.704   6.444  11.416 -0.7978  0.6798  1.3269
29146SOL     OW90714   8.170   9.712   7.555 -0.5985 -0.2452 -0.3542
29146SOL    HW190715   8.163   9.802   7.525  1.1931 -0.6997 -2.3712
29146SOL    HW290716   8.184   9.719   7.650 -0.1615  1.5964 -0.5233
29147SOL     OW90717   5.953   2.331   2.288 -0.1897  0.5860  0.2839
29147SOL    HW190718   5.934   2.325   2.382  0.0822  0.4736  0.3328
29147SOL    HW290719   5.978   2.423   2.275 -0.4839  0.6652  0.2720
29148SOL     OW90720   1.668   0.377   3.189 -0.5757  0.1597  0.4987
29148SOL    HW190721   1.591   0.361   3.134  0.1742  0.3807 -0.6533
29148SOL    HW290722   1.654   0.465   3.225 -0.0097  1.0362 -1.2647
29149SOL     OW90723   4.927   7.709  11.173  0.5717  0.1617  0.0402
29149SOL    HW190724   4.895   7.621  11.155  0.0604  0.3766 -0.1478
29149SOL    HW290725   5.013   7.713  11.131  0.8386 -0.4186  0.5194
29150SOL     OW90726   3.495   1.563   0.623 -0.1652  0.1785 -0.4958
29150SOL    HW190727   3.567   1.625   0.631 -1.1303  1.2448  0.3126
29150SOL    HW290728   3.465   1.549   0.713  1.2469 -3.0114 -0.4058
29151SOL     OW90729   4.697  10.385   6.215 -0.1830 -0.3525 -0.2791
29151SOL    HW190730   4.672  10.469   6.253  0.6459 -0.3694  0.3272
29151SOL    HW290731   4.793  10.388   6.211 -0.2057 -0.7889 -1.3671
29152SOL     OW90732   5.150   3.034   8.948  0.3276 -0.6625  0.0064
29152SOL    HW190733   5.235   2.996   8.969 -0.6131 -2.7909  0.2135
29152SOL    HW290734   5.168   3.093   8.875  1.9212 -1.4276 -0.2615
29153SOL     OW90735   7.710   1.234  11.373  0.2105  0.1064  0.2274
29153SOL    HW190736   7.710   1.144  11.338 -1.2638  0.6302 -1.2241
29153SOL    HW290737   7.784   1.276  11.329  0.1704 -0.0632 -0.0072
29154SOL     OW90738  10.249   9.304   4.644  0.4706  0.1142 -0.2397
29154SOL    HW190739  10.275   9.390   4.612 -0.6069  0.5172 -0.0755
29154SOL    HW290740  10.191   9.269   4.576  0.3389 -0.1750  0.0151
29155SOL     OW90741   3.093  10.920   6.251 -0.7356  0.6187 -0.1912
29155SOL    HW190742   3.061  10.842   6.206 -0.2463  0.9373 -1.0976
29155SOL    HW290743   3.095  10.988   6.184 -1.5038  1.5191  0.6636
29156SOL     OW90744   3.221   0.574   4.321  0.5223  0.2820  0.1111
29156SOL    HW190745   3.191   0.658   4.287  0.0238  0.8807  1.8998
29156SOL    HW290746   3.316   0.580   4.319  0.4939  0.7482 -0.0835
29157SOL     OW90747   6.483   6.745   5.569 -0.0947 -0.0227  0.2145
29157SOL    HW190748   6.565   6.741   5.520  0.9017 -1.2393  1.8523
29157SOL    HW290749   6.485   6.830   5.613  0.3791 -0.1186  0.3828
29158SOL     OW90750   6.504   5.608   6.322  0.4050 -0.2221  0.2082
29158SOL    HW190751   6.417   5.644   6.340  0.7881  0.4716  0.7364
29158SOL    HW290752   6.500   5.518   6.355 -0.2738 -0.3783 -0.2696
29159SOL     OW90753  10.828   2.994   6.036  0.3492 -0.1302 -0.1847
29159SOL    HW190754  10.882   3.030   5.966 -0.6314  0.9441 -0.4146
29159SOL    HW290755  10.807   3.070   6.091  0.8425 -0.9034  1.1022
29160SOL     OW90756   0.330   3.045   1.386 -0.2966 -0.3462 -0.0003
29160SOL    HW190757   0.240   3.071   1.364 -0.5560 -1.2149 -0.0231
29160SOL    HW290758   0.372   3.126   1.414 -1.3157 -0.0489  0.7618
29161SOL     OW90759   9.564   5.628   7.458 -0.0463 -0.0085 -0.4467
29161SOL    HW190760   9.531   5.563   7.521 -0.3446  0.7348  0.1808
29161SOL    HW290761   9.499   5.627   7.388 -2.1643  2.2526  1.2937
29162SOL     OW90762   8.750  10.441   4.969 -0.0865 -0.0253  0.2092
29162SOL    HW190763   8.697  10.423   5.047  0.7221 -3.5427  0.1224
29162SOL    HW290764   8.820  10.498   5.001  0.3809 -1.5976  2.2452
29163SOL     OW90765   1.234   3.672   8.819 -0.1933  0.1542 -0.7365
29163SOL    HW190766   1.279   3.747   8.858  1.1322 -1.3463  0.7792
29163SOL    HW290767   1.195   3.626   8.894 -1.1238 -0.5934 -1.6509
29164SOL     OW90768   2.813   1.746   5.274  0.2475 -0.0315 -0.3225
29164SOL    HW190769   2.836   1.833   5.308 -1.1384 -0.0353  0.7288
29164SOL    HW290770   2.897   1.701   5.263  0.9883  1.4430 -0.9328
29165SOL     OW90771   8.412   8.227   9.521 -0.1560  0.1052  0.0456
29165SOL    HW190772   8.353   8.292   9.483 -0.4898 -0.2241 -0.0019
29165SOL    HW290773   8.406   8.241   9.615  1.7321  1.8645 -0.0144
29166SOL     OW90774   4.143   4.793   2.655 -0.5124 -1.2931  0.4108
29166SOL    HW190775   4.059   4.770   2.615 -0.3613 -2.0553  0.5245
29166SOL    HW290776   4.203   4.724   2.626 -0.3359 -1.7190  1.7262
29167SOL     OW90777   6.883   8.133   6.886  0.3878 -0.3489 -0.0658
29167SOL    HW190778   6.942   8.066   6.920  1.9651  0.0039 -1.9247
29167SOL    HW290779   6.797   8.110   6.921  1.1544 -2.4514  0.5575
29168SOL     OW90780   1.518   8.413   1.145  0.0234 -0.7490  0.6465
29168SOL    HW190781   1.494   8.487   1.089  2.5918 -0.8775 -0.7606
29168SOL    HW290782   1.484   8.336   1.100  1.4781 -0.7881 -0.4691
29169SOL     OW90783   0.457   1.157   3.360 -0.1218  0.2240 -0.6284
29169SOL    HW190784   0.491   1.096   3.425 -0.1801  0.7278 -0.1227
29169SOL    HW290785   0.385   1.202   3.403  1.5049  2.4887 -0.0606
29170SOL     OW90786   7.475   8.599  10.207 -0.3590 -0.4264 -0.5585
29170SOL    HW190787   7.401   8.558  10.252 -0.8998  0.6148 -0.4785
29170SOL    HW290788   7.449   8.602  10.115  0.4927 -1.9937 -0.9010
29171SOL     OW90789   7.477  10.937   0.672  0.0406 -0.1113  0.3147
29171SOL    HW190790   7.513  10.849   0.659  0.8652  0.3838 -0.9280
29171SOL    HW290791   7.551  10.988   0.706 -0.4923  0.0665  1.2413
29172SOL     OW90792   1.154   8.969   6.550  0.1579 -0.1707 -0.0702
29172SOL    HW190793   1.146   9.039   6.615  0.6377  1.2000 -1.4102
29172SOL    HW290794   1.116   8.892   6.592 -1.7322  1.2429  0.9555
29173SOL     OW90795   8.700  10.487   6.958 -0.1761  0.3379  0.0633
29173SOL    HW190796   8.735  10.562   7.007 -0.4090  2.3679 -2.6753
29173SOL    HW290797   8.607  10.508   6.946 -0.1554 -0.1633 -1.0769
29174SOL     OW90798   0.035   0.233   1.720  0.7874 -0.3125 -0.8566
29174SOL    HW190799   0.053   0.301   1.785  1.4152 -3.2407  2.2586
29174SOL    HW290800  -0.061   0.227   1.718  0.7699 -1.6223  1.5118
29175SOL     OW90801   7.337   9.058   0.775 -0.0322  0.2240 -0.2328
29175SOL    HW190802   7.247   9.058   0.742  0.0793  2.8914 -0.7801
29175SOL    HW290803   7.337   9.122   0.847  1.3007 -0.1370  0.1206
29176SOL     OW90804   7.735   7.078   3.516  0.2986  0.1777  0.4474
29176SOL    HW190805   7.775   7.120   3.592  1.2823  1.3172 -0.6404
29176SOL    HW290806   7.713   7.150   3.458 -2.7229 -0.4562  0.6249
29177SOL     OW90807   2.939   3.667   5.542 -0.0471  0.0240 -0.6123
29177SOL    HW190808   2.931   3.685   5.635 -1.6347 -0.4691 -0.6134
29177SOL    HW290809   3.003   3.596   5.536  1.1821  1.0493 -0.0508
29178SOL     OW90810   4.170   8.629   4.205  0.0855  0.2156 -0.5362
29178SOL    HW190811   4.263   8.624   4.228  0.7482 -0.0587 -3.0360
29178SOL    HW290812   4.150   8.723   4.205  0.8198  0.3846 -1.5710
29179SOL     OW90813   4.922   5.977   1.151  0.3011 -0.1960  0.5352
29179SOL    HW190814   4.909   5.958   1.244 -1.6236  2.2119  0.8693
29179SOL    HW290815   4.836   6.007   1.121  0.9235 -0.7304 -2.0109
29180SOL     OW90816  10.039   4.565   2.844  0.0618 -0.0966  0.1783
29180SOL    HW190817  10.106   4.558   2.776 -1.2751  0.8686 -1.3225
29180SOL    HW290818  10.078   4.526   2.922  2.5601  0.9559 -0.4739
29181SOL     OW90819   2.198   8.413   3.495  0.0835 -0.4353  0.2355
29181SOL    HW190820   2.121   8.455   3.456  0.4156 -1.2095 -1.3425
29181SOL    HW290821   2.162   8.339   3.544 -0.1839 -0.8105 -0.5144
29182SOL     OW90822   0.319   6.270   8.969  0.0444 -0.0565  0.2966
29182SOL    HW190823   0.355   6.331   8.905  0.1993 -1.5773 -1.1277
29182SOL    HW290824   0.391   6.254   9.030  0.4379  0.1115 -0.1222
29183SOL     OW90825   7.289   5.055   1.299  0.2179  0.2400  0.1413
29183SOL    HW190826   7.207   5.103   1.287 -0.6584 -1.1621  0.2198
29183SOL    HW290827   7.276   5.004   1.379  0.8994 -0.5207 -0.2136
29184SOL     OW90828   9.236   2.249   9.525 -0.2068  0.9350  0.0613
29184SOL    HW190829   9.252   2.251   9.619 -0.7151  2.6782  0.1372
29184SOL    HW290830   9.323   2.241   9.486  0.1551  1.8803  0.6462
29185SOL     OW90831   1.813   9.234   6.849  0.1327 -0.2996  0.1431
29185SOL    HW190832   1.907   9.228   6.867 -0.1750 -1.3752  1.5040
29185SOL    HW290833   1.809   9.252   6.755  1.6893 -1.8963 -0.3016
29186SOL     OW90834   1.338   6.589   5.659 -0.6631  0.1340 -0.1531
29186SOL    HW190835   1.287   6.508   5.652 -0.5853 -0.0464  1.1140
29186SOL    HW290836   1.273   6.659   5.659 -0.8473 -0.0311  0.3370
29187SOL     OW90837   8.491   6.842   4.195  0.4267  0.1837  0.0721
29187SOL    HW190838   8.481   6.863   4.287  0.6712  1.9722 -0.2735
29187SOL    HW290839   8.585   6.844   4.180  0.4564 -1.0974 -0.0258
29188SOL     OW90840   6.615   3.976   4.274  0.6495  0.0881  0.1317
29188SOL    HW190841   6.638   4.063   4.245  2.4943 -0.3948  0.0575
29188SOL    HW290842   6.695   3.940   4.311  0.8758 -2.7102 -2.6310
29189SOL     OW90843   2.011   3.866  10.446  0.2596  0.3674 -0.4275
29189SOL    HW190844   2.077   3.840  10.382  0.2053  1.5655 -0.9948
29189SOL    HW290845   2.061   3.910  10.515  0.2483 -0.3792  0.0685
29190SOL     OW90846   5.564   2.639   4.490 -0.2545 -0.2117  0.9422
29190SOL    HW190847   5.567   2.564   4.431 -0.6567  0.3434  0.1958
29190SOL    HW290848   5.645   2.686   4.473 -0.9680  0.6727 -0.1737
29191SOL     OW90849   8.444   8.975   8.220  0.4067  0.6735 -0.3095
29191SOL    HW190850   8.472   9.016   8.302 -1.4429  0.2041  0.6082
29191SOL    HW290851   8.492   8.892   8.217 -0.2341  0.2402  0.8226
29192SOL     OW90852   0.853   9.844   2.386  0.1261  0.2340  0.1837
29192SOL    HW190853   0.933   9.833   2.334  0.4243  0.0718  0.6745
29192SOL    HW290854   0.884   9.874   2.471 -0.4317  1.4278 -0.0234
29193SOL     OW90855   5.393   6.924   1.197  0.4448 -0.2292 -0.1209
29193SOL    HW190856   5.440   6.941   1.279  0.1442 -0.8808  0.1885
29193SOL    HW290857   5.419   6.836   1.173  0.1460 -0.2200 -0.4705
29194SOL     OW90858   1.184   2.830   3.660 -0.0607 -0.2477 -0.2817
29194SOL    HW190859   1.179   2.796   3.750 -2.5379 -0.8758 -0.5719
29194SOL    HW290860   1.094   2.824   3.628  0.8887 -0.8085 -3.1003
29195SOL     OW90861   8.538   5.484   2.192 -0.1950  0.0588  0.2599
29195SOL    HW190862   8.533   5.480   2.287 -2.4590 -1.1431  0.1699
29195SOL    HW290863   8.550   5.576   2.172  0.4234  0.3157  1.6909
29196SOL     OW90864   0.067   3.900   1.823  0.5968  0.2272 -0.1065
29196SOL    HW190865  -0.000   3.953   1.866  0.9882  0.4132  0.2832
29196SOL    HW290866   0.018   3.846   1.760  0.1497  0.7694 -0.2394
29197SOL     OW90867   4.070   4.854   1.782 -0.4816 -0.8723 -0.4200
29197SOL    HW190868   4.133   4.918   1.751 -1.4978  2.1487  3.0389
29197SOL    HW290869   4.123   4.779   1.808  1.3138  0.2538 -0.6750
29198SOL     OW90870   2.278   0.355   2.787  0.2603 -0.8861  0.2534
29198SOL    HW190871   2.371   0.337   2.797  0.4250  0.5488  1.6435
29198SOL    HW290872   2.234   0.279   2.824  0.8509 -1.6032 -0.4753
29199SOL     OW90873   7.553   4.884   0.460 -0.0650 -0.3141  0.6877
29199SOL    HW190874   7.534   4.837   0.379  1.2952 -0.8766  0.6641
29199SOL    HW290875   7.469   4.889   0.506 -1.2587  1.4881 -1.4643
29200SOL     OW90876   4.886   1.127   6.694 -0.0331 -0.1119  0.1066
29200SOL    HW190877   4.966   1.104   6.646 -0.9072  1.8001 -2.4800
29200SOL    HW290878   4.824   1.058   6.673 -0.3618  0.6365 -1.5110
29201SOL     OW90879   0.015   2.097   2.101  0.2769  0.0130 -0.2948
29201SOL    HW190880  -0.040   2.141   2.037 -0.5377 -2.0565 -1.1119
29201SOL    HW290881   0.062   2.167   2.145 -1.4671  1.7185 -1.0070
29202SOL     OW90882   2.243   2.145   2.619 -0.1521  0.2213 -0.1932
29202SOL    HW190883   2.334   2.167   2.643 -0.6054  0.8794  1.0364
29202SOL    HW290884   2.192   2.221   2.647 -1.0227  0.1175 -1.4251
29203SOL     OW90885   1.262   9.971   2.713  0.2654  0.3328  0.5973
29203SOL    HW190886   1.311   9.918   2.650  1.2571 -0.6555  2.1454
29203SOL    HW290887   1.317  10.048   2.726 -0.8108  1.4518 -1.0659
29204SOL     OW90888   1.295   9.846   2.050  0.6328  0.0565  0.2083
29204SOL    HW190889   1.364   9.792   2.089  1.1658  0.7218  0.2232
29204SOL    HW290890   1.343   9.919   2.010  0.1513 -0.7316 -1.9563
29205SOL     OW90891   8.854   7.198   6.362 -0.3075 -0.3825  0.1743
29205SOL    HW190892   8.832   7.117   6.315 -0.1291  0.0130 -0.6085
29205SOL    HW290893   8.780   7.256   6.345  0.0165 -0.0415 -0.0765
29206SOL     OW90894   4.920   9.662   3.555 -0.1905 -0.0502 -0.1662
29206SOL    HW190895   4.844   9.716   3.580 -0.3180 -0.5725  0.5790
29206SOL    HW290896   4.970   9.719   3.495 -0.6641  0.6546  0.0886
29207SOL     OW90897   2.691   7.081   9.899  0.2049  0.2942  0.6755
29207SOL    HW190898   2.778   7.091   9.860 -0.2068  0.9340 -0.1018
29207SOL    HW290899   2.698   7.002   9.954  0.4844 -1.3475 -1.5877
29208SOL     OW90900   2.583  10.730  10.046 -0.1522  0.2384  0.3551
29208SOL    HW190901   2.549  10.644  10.069 -2.2043  1.2599  1.4786
29208SOL    HW290902   2.678  10.719  10.040 -0.5016 -2.6855 -2.2675
29209SOL     OW90903   9.644   4.412   8.802  0.4945  0.0571  0.1778
29209SOL    HW190904   9.690   4.486   8.763  1.1241 -0.3127  0.1925
29209SOL    HW290905   9.585   4.451   8.866  2.4664  0.4469  1.8659
29210SOL     OW90906   0.812   8.835   0.788  0.1874  0.5500 -0.0154
29210SOL    HW190907   0.736   8.781   0.811  0.0683  1.1371  1.0112
29210SOL    HW290908   0.774   8.912   0.746  0.4169 -0.6914 -2.7350
29211SOL     OW90909  10.382  10.454   4.792  0.3578 -0.3782  0.5650
29211SOL    HW190910  10.404  10.544   4.815  2.7863 -0.6916 -0.2614
29211SOL    HW290911  10.345  10.460   4.704  0.0890 -0.1639  0.6893
29212SOL     OW90912   7.385   9.098   1.259  0.1361  0.2487  0.1294
29212SOL    HW190913   7.293   9.073   1.249 -0.0326  0.2346  1.6257
29212SOL    HW290914   7.421   9.091   1.170 -0.8704 -1.4770 -0.1987
29213SOL     OW90915   1.269  10.181   8.496 -0.2183 -0.2533  0.0004
29213SOL    HW190916   1.198  10.190   8.559 -1.3854 -1.1877 -1.1231
29213SOL    HW290917   1.254  10.250   8.432 -1.3044 -1.5962 -1.2827
29214SOL     OW90918   3.967   7.372   1.293  0.2982  0.1537 -0.2374
29214SOL    HW190919   3.982   7.460   1.327  0.0239  0.0659  0.1208
29214SOL    HW290920   3.886   7.343   1.336  0.0739 -0.0549 -0.7825
29215SOL     OW90921  10.156  10.209   5.588 -0.4979  0.2200  0.2531
29215SOL    HW190922  10.111  10.137   5.545 -1.8210  0.0325  1.8912
29215SOL    HW290923  10.247  10.200   5.559 -1.0987 -0.5644 -1.5570
29216SOL     OW90924   9.085   5.754  10.587 -0.2526  0.5069  0.7019
29216SOL    HW190925   9.004   5.803  10.572  0.9609  2.2132 -0.7354
29216SOL    HW290926   9.082   5.683  10.522 -0.7413  0.3258  0.9128
29217SOL     OW90927   3.096   5.443   9.538  0.1895  0.5287  0.1574
29217SOL    HW190928   3.038   5.421   9.610  2.6209 -1.0677  1.7862
29217SOL    HW290929   3.144   5.362   9.520  1.0921  1.4370 -1.9136
29218SOL     OW90930   2.640   2.318   7.175 -0.5106 -0.1749  0.3916
29218SOL    HW190931   2.713   2.265   7.142 -0.0926 -0.6983  2.0172
29218SOL    HW290932   2.669   2.408   7.164  0.2251 -0.3703  0.6586
29219SOL     OW90933   3.550   9.113   5.038  0.2970 -0.0876  0.0623
29219SOL    HW190934   3.566   9.202   5.006  0.8193 -0.2737 -0.2089
29219SOL    HW290935   3.464   9.090   5.003 -0.2434  0.6406  0.8802
29220SOL     OW90936   5.788   4.110   6.381  0.2656 -0.2161 -0.5464
29220SOL    HW190937   5.811   4.017   6.384  0.0375 -0.2624  0.7329
29220SOL    HW290938   5.871   4.156   6.368  0.6244 -0.5330  0.5245
29221SOL     OW90939   5.503   9.441   5.914  0.1506  0.1164 -0.6324
29221SOL    HW190940   5.416   9.429   5.876  0.2091 -0.6972 -0.5246
29221SOL    HW290941   5.488   9.495   5.991 -0.1827  0.4464 -0.9263
29222SOL     OW90942   4.163   3.564   6.482  0.6497 -0.5450  0.0033
29222SOL    HW190943   4.181   3.648   6.524  0.5030 -0.1098 -0.7807
29222SOL    HW290944   4.196   3.499   6.544 -0.9976 -0.0210  1.5313
29223SOL     OW90945   5.563   5.093   4.473  0.3387  0.2300  0.1194
29223SOL    HW190946   5.585   5.087   4.380 -0.4277  1.2413 -0.1441
29223SOL    HW290947   5.548   5.186   4.488 -2.3920 -0.1919  0.5570
29224SOL     OW90948   1.713   4.241  10.508 -0.5325  0.3165 -0.9484
29224SOL    HW190949   1.696   4.179  10.579  2.4750 -0.6748 -0.9337
29224SOL    HW290950   1.745   4.186  10.436 -2.5196  1.4142 -2.7938
29225SOL     OW90951   1.774   8.880   6.373 -0.2526  0.4807 -0.1514
29225SOL    HW190952   1.834   8.948   6.341  1.6665 -2.0268 -2.3152
29225SOL    HW290953   1.703   8.879   6.309  0.5066 -0.5270 -0.9987
29226SOL     OW90954   7.116   7.707   0.854  0.2440 -0.7842 -0.0728
29226SOL    HW190955   7.188   7.763   0.883  1.2482 -0.2477 -3.1636
29226SOL    HW290956   7.106   7.642   0.923  2.1530  0.4927  1.5127
29227SOL     OW90957   6.172   6.711   6.768  0.6565  0.4325  0.0608
29227SOL    HW190958   6.162   6.745   6.857  2.0557  0.4725  0.2236
29227SOL    HW290959   6.267   6.705   6.755  0.4630 -1.0182 -0.8880
29228SOL     OW90960   2.712   9.694   4.032  0.2030  0.4263  0.0642
29228SOL    HW190961   2.727   9.600   4.024  1.3995  0.6352 -0.3028
29228SOL    HW290962   2.616   9.704   4.028  0.1323 -0.5570 -2.3113
29229SOL     OW90963   3.682   1.671   6.886 -0.5446 -0.6317  0.3478
29229SOL    HW190964   3.699   1.687   6.794 -1.8231 -2.3682 -0.2538
29229SOL    HW290965   3.766   1.684   6.930  0.1095  0.0452 -1.0729
29230SOL     OW90966   6.737   3.075   2.049 -0.0909 -0.2915 -0.0585
29230SOL    HW190967   6.672   3.144   2.065 -0.6483 -0.7311 -0.3691
29230SOL    HW290968   6.684   2.996   2.034  0.5090 -0.5463 -0.8475
29231SOL     OW90969   7.718  10.665  10.006  0.4729  0.1218  0.4192
29231SOL    HW190970   7.810  10.643  10.016  0.6376  0.2871 -0.5950
29231SOL    HW290971   7.696  10.635   9.918 -0.1826  0.9499  0.2848
29232SOL     OW90972   6.344   0.802  10.465 -0.2938 -0.1675  0.3923
29232SOL    HW190973   6.377   0.746  10.395  0.9828 -0.0659  0.8939
29232SOL    HW290974   6.250   0.810  10.447  0.0299 -0.0086 -1.4035
29233SOL     OW90975   2.645   3.174   8.883  0.3476 -0.2220 -0.0980
29233SOL    HW190976   2.725   3.136   8.847 -0.6291 -2.4250 -0.1197
29233SOL    HW290977   2.637   3.135   8.970 -0.2493  0.6470  0.2427
29234SOL     OW90978   8.966   2.637   7.645  0.9803 -0.3092 -0.1087
29234SOL    HW190979   8.971   2.728   7.617  3.2337 -0.3482 -0.0184
29234SOL    HW290980   8.982   2.587   7.565  2.6769 -0.5195  0.3177
29235SOL     OW90981   7.765   7.407   2.667 -0.2791  0.1376  0.2872
29235SOL    HW190982   7.838   7.398   2.606 -0.8818  0.5665 -0.5215
29235SOL    HW290983   7.782   7.342   2.735 -0.8616 -2.1659 -1.6171
29236SOL     OW90984   7.616   0.733   9.821  0.1177 -0.1090  0.0255
29236SOL    HW190985   7.610   0.787   9.742 -1.7412 -0.9838 -0.4852
29236SOL    HW290986   7.533   0.748   9.867  0.4750 -0.8925  0.9692
29237SOL     OW90987   7.513   3.850   2.590  0.2345 -0.2386  0.0935
29237SOL    HW190988   7.481   3.940   2.595  0.3431 -0.2559  1.2359
29237SOL    HW290989   7.434   3.796   2.584  0.0677 -0.2055  1.7064
29238SOL     OW90990   7.000   2.828  10.752  0.6928 -0.3865 -0.1340
29238SOL    HW190991   6.940   2.825  10.677 -0.6078 -0.2940  0.8539
29238SOL    HW290992   6.942   2.839  10.828  2.0349  0.7129  0.7855
29239SOL     OW90993   4.747   5.883   2.428  0.4906  0.4264 -0.0297
29239SOL    HW190994   4.801   5.835   2.366  0.6213  0.3563  0.1386
29239SOL    HW290995   4.692   5.816   2.469  0.4355  0.4673 -0.0369
29240SOL     OW90996   7.962  10.520  10.502 -0.4379 -0.1471 -0.1928
29240SOL    HW190997   7.874  10.540  10.533 -0.3998 -0.9877  0.4845
29240SOL    HW290998   7.980  10.588  10.437 -1.7219 -0.1788 -0.6102
29241SOL     OW90999  10.811   5.023   4.150  0.2303 -0.5921 -0.3038
29241SOL    HW191000  10.721   5.052   4.160  0.4150 -0.4871  1.3064
29241SOL    HW291001  10.806   4.947   4.092 -0.7304  0.1632 -1.2470
29242SOL     OW91002  10.316   2.843   7.881  0.3222 -0.6515  0.0467
29242SOL    HW191003  10.339   2.910   7.946  0.9747 -0.8416  0.0165
29242SOL    HW291004  10.400   2.807   7.852  0.1309  0.3442 -1.8899
29243SOL     OW91005   0.385   6.646   6.838  0.7153 -0.7612 -0.2942
29243SOL    HW191006   0.332   6.643   6.917  0.0829 -0.5987 -0.6986
29243SOL    HW291007   0.329   6.607   6.770  0.4437  0.9489 -1.0978
29244SOL     OW91008   5.845   4.599   2.273 -0.3620  0.2335 -0.3892
29244SOL    HW191009   5.870   4.511   2.245 -1.4448  0.0157 -0.7572
29244SOL    HW291010   5.761   4.615   2.228 -0.0741  1.5438 -0.5149
29245SOL     OW91011   3.293   6.007   3.514  0.0232  0.6865  0.4441
29245SOL    HW191012   3.319   5.917   3.491 -1.1869  0.0630  1.4081
29245SOL    HW291013   3.341   6.062   3.452 -0.2648 -0.7027 -1.0723
29246SOL     OW91014   4.976   6.453  11.013  0.4566  0.3240  0.7006
29246SOL    HW191015   4.948   6.424  10.926 -1.3667  2.6823  0.3936
29246SOL    HW291016   4.950   6.383  11.072 -3.4380  0.9557 -0.0220
29247SOL     OW91017   5.925  10.295  11.377  0.2625 -0.5619  0.3720
29247SOL    HW191018   5.942  10.355  11.304 -1.7472  0.5868  0.7682
29247SOL    HW291019   5.897  10.352  11.449  0.3236 -1.8255  1.4312
29248SOL     OW91020   5.118   3.111  10.814  0.1627  0.9916  0.3417
29248SOL    HW191021   5.210   3.092  10.832  0.2685  0.8630 -0.3276
29248SOL    HW291022   5.083   3.031  10.774 -0.3873  0.8431  1.0957
29249SOL     OW91023   1.608   6.601   2.310  0.2625  0.4988 -0.0255
29249SOL    HW191024   1.665   6.621   2.385  0.3006  1.0121 -0.1912
29249SOL    HW291025   1.652   6.529   2.265  0.7105  0.8016 -0.0730
29250SOL     OW91026   4.506   8.136   3.151 -0.2541  0.1161 -0.1413
29250SOL    HW191027   4.473   8.046   3.160  1.1905 -0.2687  2.3115
29250SOL    HW291028   4.463   8.184   3.222  0.4140  0.8719 -0.2374
29251SOL     OW91029   3.934  10.643   0.173  0.1712  0.1379 -0.2944
29251SOL    HW191030   3.948  10.697   0.251  0.4852  0.8885 -0.8582
29251SOL    HW291031   4.021  10.612   0.150 -0.0987 -1.2604  0.4621
29252SOL     OW91032  10.427   2.989   6.320 -0.1871  0.4400 -0.0796
29252SOL    HW191033  10.466   2.906   6.347  0.0280  0.7457  0.5768
29252SOL    HW291034  10.431   2.987   6.224  0.3228 -0.0677 -0.0570
29253SOL     OW91035   8.260   5.661   1.853 -0.4005 -0.2564  0.0459
29253SOL    HW191036   8.352   5.664   1.879  0.3746  0.1667 -2.4871
29253SOL    HW291037   8.259   5.612   1.771 -1.9713  2.1067 -1.5194
29254SOL     OW91038   6.151   1.322   4.071  0.1792  0.4161 -0.1914
29254SOL    HW191039   6.206   1.319   3.993 -1.5977 -0.0842 -1.5003
29254SOL    HW291040   6.164   1.236   4.113 -0.1842 -0.0021 -0.9195
29255SOL     OW91041   2.594   1.169   5.830  0.0312 -0.1518  0.0564
29255SOL    HW191042   2.613   1.075   5.828  1.5675  0.1264  0.5533
29255SOL    HW291043   2.627   1.202   5.746  0.2202  0.0698  0.2173
29256SOL     OW91044   9.818   9.137   4.529  0.2858 -0.3354  0.5701
29256SOL    HW191045   9.805   9.222   4.488  2.5473  0.0857  0.5686
29256SOL    HW291046   9.760   9.137   4.606  0.3222  1.2447  0.6179
29257SOL     OW91047   7.957   5.250   8.010 -0.2606  0.2671  0.2375
29257SOL    HW191048   7.865   5.270   8.027 -0.6621 -1.8150  0.8003
29257SOL    HW291049   7.978   5.181   8.072  1.4618  0.1441 -0.4335
29258SOL     OW91050   4.274   7.009   9.832 -0.0419  0.5812 -0.3465
29258SOL    HW191051   4.340   6.946   9.860 -1.4654 -0.4350  0.8500
29258SOL    HW291052   4.203   6.955   9.797 -1.1673  1.5259  0.4221
29259SOL     OW91053   1.602   3.007   5.664  0.1550  0.1229 -0.0477
29259SOL    HW191054   1.619   3.020   5.571 -0.9397  1.3902 -0.1125
29259SOL    HW291055   1.586   3.095   5.698  0.8056 -0.2850  1.4035
29260SOL     OW91056   1.129   3.288   0.745  0.0448 -0.4903 -0.5461
29260SOL    HW191057   1.042   3.274   0.707  0.8020 -3.4748 -1.4069
29260SOL    HW291058   1.113   3.342   0.822 -2.5369 -0.7701 -0.7955
29261SOL     OW91059   4.918   1.561   3.531 -0.6220 -0.6679  0.0558
29261SOL    HW191060   4.888   1.636   3.479  0.8114 -0.9901 -1.3196
29261SOL    HW291061   4.931   1.491   3.467 -0.4944 -1.6336  1.1039
29262SOL     OW91062   6.405  11.218  10.735  0.6236 -0.0443  0.1578
29262SOL    HW191063   6.483  11.201  10.682  0.5271  0.5030 -0.1716
29262SOL    HW291064   6.368  11.298  10.697  1.0905  0.9267  1.6651
29263SOL     OW91065   3.746   3.159   1.284 -0.2937 -0.7127  0.6254
29263SOL    HW191066   3.815   3.217   1.318 -0.8202  0.7779 -0.7453
29263SOL    HW291067   3.674   3.217   1.263 -0.7180 -1.8098 -1.1657
29264SOL     OW91068   5.811   4.692   1.280 -0.8750  0.1529 -0.0487
29264SOL    HW191069   5.867   4.617   1.264 -2.1276 -1.2348  1.6463
29264SOL    HW291070   5.867   4.755   1.325  0.5186  0.8540 -2.5731
29265SOL     OW91071   7.507   9.143   7.068  0.1427 -0.5942  0.0587
29265SOL    HW191072   7.438   9.168   7.007  0.6140 -1.5411 -0.9060
29265SOL    HW291073   7.461   9.095   7.138 -0.5777  1.6589  1.2209
29266SOL     OW91074   9.622   6.287   4.652 -0.4159 -0.3388 -0.7558
29266SOL    HW191075   9.709   6.268   4.615 -0.4571 -0.5696 -0.7339
29266SOL    HW291076   9.619   6.383   4.656  0.9604 -0.2990  1.8591
29267SOL     OW91077   1.351  10.786   2.188  0.5010  0.1931  0.0594
29267SOL    HW191078   1.432  10.770   2.235 -0.1104  0.5654  1.2800
29267SOL    HW291079   1.342  10.882   2.187  0.9339  0.2571 -1.6097
29268SOL     OW91080   1.468   3.555   6.857 -0.2967  0.2648 -0.2751
29268SOL    HW191081   1.381   3.545   6.819 -0.0703  0.0074 -0.7259
29268SOL    HW291082   1.458   3.624   6.923 -0.6047  0.9875 -1.0680
29269SOL     OW91083   3.409   9.140   6.673  0.0372  0.2833  0.2413
29269SOL    HW191084   3.439   9.068   6.728  0.4507  0.5123  0.3223
29269SOL    HW291085   3.368   9.201   6.734 -0.0259  0.2656  0.2163
29270SOL     OW91086   8.982   2.840   4.437  0.0623  0.5821  0.0799
29270SOL    HW191087   9.035   2.891   4.499 -1.9249  2.1720  0.5664
29270SOL    HW291088   8.960   2.902   4.368  2.4776 -1.2266 -2.5611
29271SOL     OW91089   3.706   3.887   9.753  0.2676 -0.1653 -0.4665
29271SOL    HW191090   3.703   3.982   9.759  1.7879 -0.1252  0.2305
29271SOL    HW291091   3.629   3.857   9.801 -0.7903  0.7065 -1.5520
29272SOL     OW91092   0.753   4.707   3.222  0.5923 -0.1616 -0.5743
29272SOL    HW191093   0.826   4.769   3.229 -0.0085  0.5841 -0.7933
29272SOL    HW291094   0.794   4.625   3.194  1.0730  0.9081 -3.2935
29273SOL     OW91095   3.383   1.054   5.276  0.0508  0.0097 -0.1864
29273SOL    HW191096   3.313   1.030   5.337 -0.6401  0.7534 -0.6581
29273SOL    HW291097   3.455   1.082   5.332 -0.7976  1.2775  0.3112
29274SOL     OW91098   9.236   5.784   5.581 -0.1627  0.6662  0.4457
29274SOL    HW191099   9.171   5.715   5.592  0.3996  0.1633  0.7180
29274SOL    HW291100   9.218   5.822   5.495 -0.6664  0.3826  0.4272
29275SOL     OW91101   9.620   5.184   5.861  0.2596 -0.2207  0.2136
29275SOL    HW191102   9.636   5.114   5.798 -1.1486  1.2473 -1.8963
29275SOL    HW291103   9.530   5.170   5.891  0.5515 -0.2755  1.0935
29276SOL     OW91104   8.067   6.203   0.689  0.5865 -0.3932 -0.0730
29276SOL    HW191105   8.066   6.297   0.672  2.0880 -0.1417  1.0225
29276SOL    HW291106   8.060   6.164   0.602  0.6738  0.7459 -0.6171
29277SOL     OW91107  11.370   2.194   0.247 -0.4072  0.3147 -0.1183
29277SOL    HW191108  11.320   2.222   0.171  1.1949  2.4662 -0.4801
29277SOL    HW291109  11.457   2.173   0.212  0.3298  1.2535  1.0689
29278SOL     OW91110   0.961   8.753  10.201 -0.0008 -0.6110  0.5210
29278SOL    HW191111   0.909   8.765  10.122  0.5797 -0.4773  0.1613
29278SOL    HW291112   0.998   8.840  10.219  1.4602 -1.0591 -0.1800
29279SOL     OW91113   6.255   2.514  11.056 -0.1735 -0.2644  0.4959
29279SOL    HW191114   6.260   2.561  10.973 -0.3518 -1.3859 -0.1635
29279SOL    HW291115   6.262   2.422  11.032 -3.0048 -0.8028  1.4181
29280SOL     OW91116   5.924   8.006   5.480 -0.0044 -0.5698 -0.0590
29280SOL    HW191117   5.966   8.010   5.565 -0.5570  1.9841  0.1963
29280SOL    HW291118   5.931   8.096   5.446 -2.7548 -0.6777 -1.1949
29281SOL     OW91119   9.710   6.850   1.479 -0.5836 -0.1738 -0.1416
29281SOL    HW191120   9.743   6.769   1.440  0.4229  0.3206 -0.3621
29281SOL    HW291121   9.657   6.890   1.410 -1.8509 -1.0643  0.2752
29282SOL     OW91122   6.390   0.204   9.669  0.7037 -0.3674  0.0358
29282SOL    HW191123   6.472   0.178   9.627  0.5092 -0.8337 -0.0575
29282SOL    HW291124   6.338   0.124   9.673  0.4817 -0.2008  0.6277
29283SOL     OW91125   5.406   2.597   5.351  0.4257 -0.3430  0.3260
29283SOL    HW191126   5.468   2.535   5.389  1.7790  1.5563  1.4453
29283SOL    HW291127   5.417   2.587   5.256  2.2481 -0.3058  0.4952
29284SOL     OW91128   7.452   6.957   4.301 -0.3575 -0.2944 -0.4576
29284SOL    HW191129   7.371   6.998   4.269  0.5047  1.7286 -0.1929
29284SOL    HW291130   7.519   6.983   4.238  0.1210 -1.9987 -0.7074
29285SOL     OW91131   2.910   7.691   6.068 -0.4784 -0.9653  0.1143
29285SOL    HW191132   2.893   7.781   6.096 -1.1045 -0.6663 -1.1724
29285SOL    HW291133   2.830   7.644   6.092 -0.8253 -0.8081 -0.6979
29286SOL     OW91134   1.815  10.634  10.629  0.0820  0.3381 -0.5311
29286SOL    HW191135   1.883  10.593  10.574 -0.6876  1.4294 -2.4050
29286SOL    HW291136   1.837  10.607  10.718  1.6804 -1.1512 -1.3038
29287SOL     OW91137   3.704   3.243   4.849 -0.0771  0.3447 -0.2869
29287SOL    HW191138   3.681   3.202   4.767 -0.9433  1.4848 -0.6397
29287SOL    HW291139   3.635   3.217   4.910  1.3710 -1.7768  0.5658
29288SOL     OW91140   9.870   3.020   1.780  0.6931 -0.2185 -0.1796
29288SOL    HW191141   9.941   2.957   1.765  0.4671 -0.3738 -0.6378
29288SOL    HW291142   9.838   3.040   1.692 -0.5746 -1.0041  0.0755
29289SOL     OW91143   4.529   2.092   9.895  0.5478  0.2073  0.5970
29289SOL    HW191144   4.593   2.068   9.828  0.9170  1.7077  0.3677
29289SOL    HW291145   4.568   2.064   9.978  0.5795 -0.6689  0.2999
29290SOL     OW91146   9.198   7.867   7.220  0.4344  0.6630  0.4034
29290SOL    HW191147   9.162   7.928   7.285 -0.4995 -0.8237  1.3212
29290SOL    HW291148   9.229   7.792   7.270  1.1521  0.1587 -0.7452
29291SOL     OW91149   4.463   6.692   4.563  0.0405 -0.1554 -0.2229
29291SOL    HW191150   4.558   6.700   4.567  0.0066 -0.1383  0.8320
29291SOL    HW291151   4.431   6.754   4.629 -0.7015 -0.1105 -0.6203
29292SOL     OW91152   7.406   9.893   3.665 -0.3974  0.0430  0.1054
29292SOL    HW191153   7.498   9.918   3.657 -0.0892 -1.4124 -1.8720
29292SOL    HW291154   7.399   9.853   3.751  0.6685  0.7018  0.5202
29293SOL     OW91155   4.171   9.863   8.542  0.1827  0.1894 -0.1506
29293SOL    HW191156   4.110   9.935   8.558  0.0439  0.1436 -0.4841
29293SOL    HW291157   4.120   9.784   8.559  0.8485  0.1772  2.1472
29294SOL     OW91158   0.994  10.366   9.588 -0.0769 -0.6627  0.3214
29294SOL    HW191159   0.933  10.352   9.515 -1.0123  0.7176  0.7976
29294SOL    HW291160   1.031  10.453   9.570  2.5319 -1.8319 -0.4750
29295SOL     OW91161   1.791   2.003   2.384 -0.1160 -0.0341 -0.2019
29295SOL    HW191162   1.772   1.921   2.339 -0.3309 -0.7119  1.0835
29295SOL    HW291163   1.882   2.023   2.359  1.0099 -2.2420  1.7448
29296SOL     OW91164   9.971   6.556   9.247 -0.0996  0.5021  0.1958
29296SOL    HW191165  10.006   6.565   9.336  1.7912 -0.5093 -0.3860
29296SOL    HW291166   9.977   6.644   9.210 -0.3344  0.8116  0.8772
29297SOL     OW91167  10.918   6.903   4.855 -0.5715  0.4493  0.3486
29297SOL    HW191168  10.950   6.825   4.900 -1.1343  1.3013  2.3480
29297SOL    HW291169  10.834   6.876   4.817 -0.6786  0.0095  0.8831
29298SOL     OW91170   2.767  10.243   8.681  1.0342 -0.0204 -0.1036
29298SOL    HW191171   2.803  10.330   8.700 -0.9480  1.3700 -2.2038
29298SOL    HW291172   2.837  10.198   8.634  1.2859  1.3707 -1.1237
29299SOL     OW91173   7.282   7.598   3.026 -0.1733  0.3693  0.2357
29299SOL    HW191174   7.377   7.594   3.020 -0.0735 -0.5486  1.8151
29299SOL    HW291175   7.265   7.656   3.100 -0.7245 -1.4608  1.6213
29300SOL     OW91176   6.460   7.262   8.041 -0.6979 -0.1056  0.2089
29300SOL    HW191177   6.365   7.252   8.045 -0.4845 -2.4265  1.2871
29300SOL    HW291178   6.493   7.207   8.112  1.4248  1.6699  0.7042
29301SOL     OW91179   7.781  10.869   1.221  0.4551  0.4520 -0.2836
29301SOL    HW191180   7.779  10.831   1.133  2.1335 -0.8809  0.1884
29301SOL    HW291181   7.857  10.927   1.221  1.2464 -0.5346  0.6127
29302SOL     OW91182   7.535  10.922   1.780  0.3768  0.4143 -0.2055
29302SOL    HW191183   7.609  10.864   1.798  0.2881  0.3695  0.0103
29302SOL    HW291184   7.459  10.875   1.812  0.4357  1.1528  1.0779
29303SOL     OW91185   0.041   6.469   5.899  0.1053 -0.0019  0.1550
29303SOL    HW191186   0.058   6.390   5.951  2.3637 -0.7926 -1.6466
29303SOL    HW291187   0.079   6.540   5.950 -0.4876 -0.2784  1.0158
29304SOL     OW91188   2.258   0.222  11.323  0.3842  0.0510 -0.1012
29304SOL    HW191189   2.205   0.150  11.354  0.6682 -1.0756 -2.0552
29304SOL    HW291190   2.207   0.301  11.345 -1.4736 -0.9104 -0.7123
29305SOL     OW91191   2.515  10.488  10.175 -0.0833 -0.1566 -0.4607
29305SOL    HW191192   2.525  10.425  10.104  0.3422  0.1864 -0.7100
29305SOL    HW291193   2.432  10.464  10.217  0.5250 -1.4641  0.0335
29306SOL     OW91194   4.093   2.584   3.946 -0.2210  0.0766  0.3191
29306SOL    HW191195   4.111   2.515   3.882  2.4666 -0.1038  1.1461
29306SOL    HW291196   4.154   2.655   3.923 -1.3715  1.2825  0.8451
29307SOL     OW91197   3.499   2.219   2.233  0.1864 -1.1723  0.4856
29307SOL    HW191198   3.547   2.180   2.306  1.3649 -0.2103  0.2562
29307SOL    HW291199   3.545   2.191   2.155  1.0960  0.6100  0.3162
29308SOL     OW91200  10.176   2.855   2.307  0.1246  0.0400 -0.4921
29308SOL    HW191201  10.093   2.886   2.272  0.3808  1.1378 -0.1632
29308SOL    HW291202  10.235   2.853   2.231 -0.1374 -0.5300 -0.6835
29309SOL     OW91203   4.822   9.180   7.391 -0.2923 -0.9160  0.0096
29309SOL    HW191204   4.789   9.247   7.331 -0.5880  0.3090  1.4934
29309SOL    HW291205   4.914   9.169   7.367  0.2866  1.4489  0.9655
29310SOL     OW91206   5.487   4.453   4.810  0.1945 -0.1242  0.6431
29310SOL    HW191207   5.542   4.506   4.867  2.7305  0.7612 -2.3156
29310SOL    HW291208   5.482   4.503   4.728 -2.9629 -1.4197 -0.1082
29311SOL     OW91209  10.976   8.632  10.072  0.2951  0.3319 -0.2505
29311SOL    HW191210  11.043   8.678  10.020  2.9736 -0.9042  1.8569
29311SOL    HW291211  10.998   8.540  10.063  1.1568  0.0606  3.2173
29312SOL     OW91212   1.757   8.706   3.902  0.1835  0.0183  0.1630
29312SOL    HW191213   1.852   8.715   3.912  0.0222  1.3169  0.7393
29312SOL    HW291214   1.724   8.796   3.901 -1.0339 -0.4090 -0.1321
29313SOL     OW91215   5.244   0.037   3.541  0.2429  0.4144  0.3036
29313SOL    HW191216   5.272   0.032   3.450  2.5353 -0.8061  0.9975
29313SOL    HW291217   5.302   0.102   3.581  0.3409 -0.1929  1.1995
29314SOL     OW91218   4.266   7.489   3.696  0.9912  0.5952 -0.0999
29314SOL    HW191219   4.173   7.509   3.708  0.2079 -1.2979 -2.4216
29314SOL    HW291220   4.278   7.405   3.741  1.2919  0.2469 -0.8295
29315SOL     OW91221   7.271   6.542   5.555 -0.5026  0.0536  0.2847
29315SOL    HW191222   7.252   6.455   5.520  1.2276  0.1144 -0.8827
29315SOL    HW291223   7.342   6.575   5.500  0.7242  1.1134  2.4261
29316SOL     OW91224   9.825   8.639   9.401  0.3593  0.5448 -0.0866
29316SOL    HW191225   9.839   8.599   9.487  0.2261  0.3921 -0.1348
29316SOL    HW291226   9.883   8.590   9.342 -0.4565 -0.1709 -0.3109
29317SOL     OW91227   5.872   5.846   5.267 -0.9005  0.3559 -0.1620
29317SOL    HW191228   5.941   5.878   5.325 -2.7503 -0.7839  2.9427
29317SOL    HW291229   5.909   5.768   5.226 -0.7109 -1.2063  2.6982
29318SOL     OW91230  10.549   6.882   7.043 -0.4928  0.0042 -0.2235
29318SOL    HW191231  10.517   6.887   7.133 -2.0098 -1.5659 -0.6405
29318SOL    HW291232  10.640   6.853   7.052  0.0926  2.0160  0.8655
29319SOL     OW91233   9.681   7.042   9.040 -0.2818  0.0292 -0.3561
29319SOL    HW191234   9.662   6.982   9.111  0.1792  0.3248  0.0252
29319SOL    HW291235   9.757   7.004   8.996 -0.1008  0.2348 -0.2255
29320SOL     OW91236   7.874   3.985   6.226  0.0414  0.0564  0.4718
29320SOL    HW191237   7.912   4.047   6.287 -0.2488  2.1836 -1.3843
29320SOL    HW291238   7.828   3.922   6.282  1.2731  0.8349  2.4758
29321SOL     OW91239   1.504   8.457   1.623  0.9729 -0.0356 -0.0277
29321SOL    HW191240   1.534   8.366   1.627 -0.1542 -0.4772 -0.9183
29321SOL    HW291241   1.450   8.460   1.544  2.4573  1.8808 -1.0263
29322SOL     OW91242   8.420   2.051   5.667  0.4880  0.4646  0.0100
29322SOL    HW191243   8.501   2.028   5.713  1.6522 -1.0277 -2.5992
29322SOL    HW291244   8.439   2.034   5.575 -3.2242 -1.3047 -0.6071
29323SOL     OW91245   6.171   8.839   3.671  0.1290  0.4994 -0.4901
29323SOL    HW191246   6.156   8.752   3.708  0.4521  0.5548 -0.2177
29323SOL    HW291247   6.110   8.846   3.598 -2.4915  1.3980  1.6052
29324SOL     OW91248  11.185   0.862   8.158 -0.0771 -0.0081 -0.5476
29324SOL    HW191249  11.105   0.900   8.121  0.2146  0.3549 -0.8140
29324SOL    HW291250  11.171   0.862   8.252  0.4433  2.0210 -0.4273
29325SOL     OW91251   0.601   1.908   7.645 -0.4449  0.4130  0.6091
29325SOL    HW191252   0.567   1.916   7.556  1.3614  0.2267 -0.1266
29325SOL    HW291253   0.634   1.994   7.667  0.1225  0.1785  0.6801
29326SOL     OW91254   0.891   2.377   2.717 -0.0183 -0.3350 -0.3717
29326SOL    HW191255   0.844   2.295   2.734 -0.7711  0.4244  1.4901
29326SOL    HW291256   0.822   2.443   2.710  0.6178  0.2686 -1.1411
29327SOL     OW91257   6.737   7.297  10.559 -0.1336 -0.1974  0.3545
29327SOL    HW191258   6.705   7.239  10.628  2.9486 -0.8848  1.3778
29327SOL    HW291259   6.702   7.260  10.478 -1.9241 -0.7707  1.3445
29328SOL     OW91260   5.954  11.223   5.094  0.4138  0.0219 -0.2872
29328SOL    HW191261   5.908  11.280   5.033  2.6299 -0.1738 -2.2521
29328SOL    HW291262   5.886  11.194   5.155 -2.1627 -0.5248 -3.1823
29329SOL     OW91263   5.036   3.762   6.602  0.0488  0.2608  0.3019
29329SOL    HW191264   4.995   3.826   6.661 -1.0249  1.5116 -1.6868
29329SOL    HW291265   4.988   3.681   6.616 -0.5763  0.6991  0.7319
29330SOL     OW91266   2.280   6.519   9.983  0.5382  0.0382 -0.1658
29330SOL    HW191267   2.243   6.567   9.909  0.5827 -0.5440 -0.5660
29330SOL    HW291268   2.360   6.479   9.948 -0.2005 -1.4432 -0.1998
29331SOL     OW91269   0.651   1.728   7.099  0.1975  0.9840  0.4279
29331SOL    HW191270   0.675   1.820   7.112  1.5530  0.8970 -1.1359
29331SOL    HW291271   0.735   1.682   7.101 -0.4498 -0.2100  0.9592
29332SOL     OW91272   3.024   7.413   6.617 -0.0295  0.8319 -0.9740
29332SOL    HW191273   3.001   7.355   6.545 -1.9459  0.8460 -0.4398
29332SOL    HW291274   2.988   7.369   6.695  1.9593  0.8223 -0.0112
29333SOL     OW91275   9.466  10.124   3.268 -0.0878  0.0972  0.5208
29333SOL    HW191276   9.398  10.123   3.201 -0.2594  1.2523  0.6493
29333SOL    HW291277   9.426  10.169   3.343  0.4427 -0.2276  1.0068
29334SOL     OW91278  11.148   0.286   6.427  0.7269 -0.2432  0.1429
29334SOL    HW191279  11.162   0.198   6.391  0.3828 -0.6568  0.9879
29334SOL    HW291280  11.236   0.324   6.429  1.1448 -1.1898  1.2925
29335SOL     OW91281  10.321  10.098   8.842  0.1965  0.5069 -0.7749
29335SOL    HW191282  10.252  10.061   8.897  0.6145 -2.3500 -1.9981
29335SOL    HW291283  10.274  10.137   8.768 -0.1909  0.1018 -0.7477
29336SOL     OW91284  11.093   4.544   9.778  0.2379  0.3312  0.3502
29336SOL    HW191285  11.096   4.609   9.708  0.2850 -0.9468 -0.8757
29336SOL    HW291286  11.088   4.460   9.733  1.2811 -0.6034  1.8727
29337SOL     OW91287   0.609   2.044   8.148  0.2376  1.0936  0.8240
29337SOL    HW191288   0.519   2.017   8.170  0.1129  0.9932  0.2143
29337SOL    HW291289   0.598   2.126   8.100  0.1775 -0.5189 -2.2200
29338SOL     OW91290  10.919   0.689   5.062 -0.4978  0.3675 -0.2459
29338SOL    HW191291  10.935   0.770   5.014  0.3669 -0.6479 -1.7560
29338SOL    HW291292  10.979   0.625   5.023 -0.4535 -0.7738  1.5540
29339SOL     OW91293   1.101   2.196   7.648  0.4114  0.0323  0.3512
29339SOL    HW191294   1.177   2.140   7.634  1.1295  1.1845 -0.5874
29339SOL    HW291295   1.106   2.261   7.578 -1.5792  0.0080  0.1486
29340SOL     OW91296   8.418   9.213  10.866  0.2123 -0.4105  0.2605
29340SOL    HW191297   8.446   9.301  10.840 -0.6239 -0.0582  0.5156
29340SOL    HW291298   8.478   9.189  10.937 -0.3856  0.5161  1.1078
29341SOL     OW91299   5.137   2.746  10.048 -0.2916 -0.6650  0.1873
29341SOL    HW191300   5.231   2.743  10.032 -0.4407  0.3310 -1.1212
29341SOL    HW291301   5.105   2.661  10.018 -0.0428 -0.2467 -1.3799
29342SOL     OW91302   5.369   3.918   2.897 -0.7898 -0.1952 -0.4635
29342SOL    HW191303   5.299   3.873   2.943 -1.4395  0.1722 -1.0755
29342SOL    HW291304   5.444   3.913   2.956 -2.4517  3.2783  2.2942
29343SOL     OW91305   9.523   7.481  10.354  0.3232  0.0172  0.3909
29343SOL    HW191306   9.556   7.444  10.273 -0.1449 -1.9443  1.0443
29343SOL    HW291307   9.508   7.574  10.334  1.6085 -0.1027 -1.2927
29344SOL     OW91308   0.453   1.887   5.335  0.3530  0.5457  1.0140
29344SOL    HW191309   0.511   1.906   5.409  0.5001 -2.3809  1.8070
29344SOL    HW291310   0.511   1.888   5.258  1.0700 -0.2817  1.5167
29345SOL     OW91311   0.333   0.580   3.898 -0.1433 -0.3736 -0.4422
29345SOL    HW191312   0.285   0.662   3.880  1.2215  0.2621 -1.3412
29345SOL    HW291313   0.275   0.531   3.956 -0.3151  1.9637  1.5442
29346SOL     OW91314   9.576   4.647   8.409 -1.0989  0.6702  1.2150
29346SOL    HW191315   9.494   4.681   8.445 -0.8934  1.7661  0.7006
29346SOL    HW291316   9.585   4.691   8.325  0.3076  1.0190  1.5191
29347SOL     OW91317  10.311   1.754  11.384 -0.3980 -0.3828  0.2466
29347SOL    HW191318  10.298   1.704  11.304 -1.9365 -2.5768  1.7735
29347SOL    HW291319  10.403   1.737  11.408 -0.3124 -0.7691 -0.3424
29348SOL     OW91320   5.335   7.593   1.068 -0.6737 -0.2715  0.2681
29348SOL    HW191321   5.269   7.533   1.032  0.1953 -0.9487 -0.2342
29348SOL    HW291322   5.352   7.655   0.998 -2.0018  0.9707  0.9891
29349SOL     OW91323  10.250   2.381  10.981  0.4542  0.1328 -0.2446
29349SOL    HW191324  10.343   2.362  10.994  0.5869  0.5058 -0.6160
29349SOL    HW291325  10.209   2.359  11.065  1.3944  3.1765  1.1908
29350SOL     OW91326   1.422   5.920   4.890 -1.0705 -0.5735 -0.0136
29350SOL    HW191327   1.338   5.902   4.846 -0.5777 -1.5432 -0.5807
29350SOL    HW291328   1.407   6.003   4.935 -1.7656  0.2135 -1.5989
29351SOL     OW91329   1.369   1.200  11.001  0.1129  0.1126 -0.8873
29351SOL    HW191330   1.447   1.219  10.948 -1.6805 -0.8268 -4.1068
29351SOL    HW291331   1.394   1.124  11.054  1.3655 -0.1699 -1.8406
29352SOL     OW91332  10.499   1.992   2.019 -0.2495 -0.4544  0.5445
29352SOL    HW191333  10.558   1.968   2.090 -1.4659 -0.2113  1.6806
29352SOL    HW291334  10.411   1.978   2.054 -0.9722  2.3649  0.1315
29353SOL     OW91335   7.018   4.495   1.575 -0.0283  0.1692  0.2755
29353SOL    HW191336   6.954   4.425   1.575  0.6016 -0.5148  2.8880
29353SOL    HW291337   6.970   4.572   1.605  0.0959 -0.0542  1.0551
29354SOL     OW91338   0.566   9.515   1.865  0.1548  0.0157 -0.6229
29354SOL    HW191339   0.542   9.427   1.891 -1.7697  0.4582 -0.7627
29354SOL    HW291340   0.651   9.505   1.822  0.4178 -1.6016  0.2033
29355SOL     OW91341   4.789   6.309   7.460  0.7474 -0.0347 -0.1879
29355SOL    HW191342   4.754   6.235   7.409 -0.3116  0.0607  0.3665
29355SOL    HW291343   4.730   6.381   7.441  0.0408 -0.1195  1.5153
29356SOL     OW91344   9.877   3.853   5.070  0.2622 -0.1994  0.7570
29356SOL    HW191345   9.887   3.761   5.094 -0.6312 -0.6763 -0.5941
29356SOL    HW291346   9.830   3.892   5.144 -0.3771 -1.0938  0.8360
29357SOL     OW91347   8.325   7.179   8.312 -0.1584  0.5537 -0.1921
29357SOL    HW191348   8.372   7.097   8.330 -0.8299  0.5362  1.6923
29357SOL    HW291349   8.266   7.157   8.240 -0.4486 -0.6792  0.3933
29358SOL     OW91350   3.098   7.083  10.780 -0.2965 -0.3161 -0.1632
29358SOL    HW191351   3.147   7.135  10.717 -0.4311 -1.9836 -1.7254
29358SOL    HW291352   3.011   7.125  10.783  0.2664  0.8523  0.3398
29359SOL     OW91353   4.552   0.107   4.264  0.1208 -0.4181  0.1576
29359SOL    HW191354   4.553   0.063   4.179  0.9800 -2.3913  1.1264
29359SOL    HW291355   4.466   0.084   4.301 -0.1015  0.1256 -0.0156
29360SOL     OW91356   7.187   9.493   3.102  0.4283 -0.5917 -0.1493
29360SOL    HW191357   7.134   9.518   3.027  0.5964 -1.0826 -0.4338
29360SOL    HW291358   7.249   9.565   3.113 -1.4153  0.8975  1.3041
29361SOL     OW91359   5.885   2.750   5.525 -0.3165  0.3974 -0.5074
29361SOL    HW191360   5.901   2.817   5.458 -1.5711 -0.1352 -1.3547
29361SOL    HW291361   5.969   2.742   5.570 -0.6839  4.3488  1.3196
29362SOL     OW91362  11.084   7.880   7.748  0.1624 -0.3646 -0.1148
29362SOL    HW191363  11.068   7.936   7.672 -0.0537 -0.9781 -0.5318
29362SOL    HW291364  10.999   7.842   7.767  0.2277 -0.2519  0.4092
29363SOL     OW91365   0.891   7.250   7.912  0.3386  0.8689  0.1649
29363SOL    HW191366   0.841   7.268   7.992 -0.5462  0.5991 -0.3155
29363SOL    HW291367   0.843   7.295   7.843 -0.4879 -1.1790 -0.6609
29364SOL     OW91368   4.852   3.992   9.122  0.0990  0.1704  0.4127
29364SOL    HW191369   4.888   3.904   9.133  1.2942  0.7538  1.3137
29364SOL    HW291370   4.795   4.005   9.198  1.1882  0.7581  1.1545
29365SOL     OW91371   9.255   6.596   4.188  0.1089 -0.1476 -0.2456
29365SOL    HW191372   9.350   6.602   4.183  0.0447  0.0097 -1.6721
29365SOL    HW291373   9.228   6.570   4.100 -1.0286 -2.3509  0.6793
29366SOL     OW91374   4.796   0.113  11.377 -0.2752  0.3599 -0.0116
29366SOL    HW191375   4.830   0.130  11.465 -3.1881  1.0455  1.1365
29366SOL    HW291376   4.794   0.018  11.370  0.9441  0.3017  0.2248
29367SOL     OW91377   4.599   1.091   3.946 -0.2916  0.0736  0.3137
29367SOL    HW191378   4.544   1.081   4.023 -0.9555 -2.0706 -0.3579
29367SOL    HW291379   4.538   1.092   3.872  0.3749  1.3324 -0.2500
29368SOL     OW91380   9.069   7.563   1.776  0.5111  0.5551 -0.4654
29368SOL    HW191381   9.004   7.503   1.739  1.1287  0.0708 -0.7718
29368SOL    HW291382   9.079   7.632   1.711  1.0984  0.0592 -0.9066
29369SOL     OW91383   7.229  10.543   9.278  0.3209  0.5463 -0.1083
29369SOL    HW191384   7.284  10.599   9.333  2.7663 -1.3854 -0.3910
29369SOL    HW291385   7.277  10.537   9.195  0.0803 -1.7611 -0.1447
29370SOL     OW91386   6.616   8.444   3.466 -0.1795  0.0744 -0.1688
29370SOL    HW191387   6.649   8.440   3.376 -0.1803  0.2077 -0.1758
29370SOL    HW291388   6.685   8.404   3.519 -0.9890 -1.7783 -0.4371
29371SOL     OW91389   8.171  11.192  10.024  0.4403 -0.0601 -0.0867
29371SOL    HW191390   8.181  11.204   9.929  0.5901  0.5660  0.0025
29371SOL    HW291391   8.090  11.238  10.045  1.7717  2.1836  0.4932
29372SOL     OW91392   2.613   5.813  11.257  0.2124 -0.8345 -0.6475
29372SOL    HW191393   2.518   5.810  11.247  0.2926 -0.4162 -1.6273
29372SOL    HW291394   2.635   5.732  11.304 -0.5673 -1.2207 -0.9360
29373SOL     OW91395   4.795   0.229   6.200  0.4487 -0.1735  0.0717
29373SOL    HW191396   4.747   0.219   6.118 -0.8551  0.0851  0.7694
29373SOL    HW291397   4.873   0.174   6.190  1.2017  1.1531 -1.9688
29374SOL     OW91398   4.406   7.180   7.187  0.3488  0.0721  0.0575
29374SOL    HW191399   4.439   7.090   7.190  2.0529  0.6773  0.8834
29374SOL    HW291400   4.414   7.204   7.094  1.0156 -0.2446  0.0226
29375SOL     OW91401   4.105  10.148   6.989  0.2910  0.4247 -0.1000
29375SOL    HW191402   4.051  10.114   7.060  0.2345 -0.8955 -0.7358
29375SOL    HW291403   4.147  10.070   6.952  1.5388  1.2642 -0.5141
29376SOL     OW91404   2.144   6.190   2.201  0.2316  0.4392  0.1892
29376SOL    HW191405   2.184   6.219   2.283  2.0105  0.9071 -0.7820
29376SOL    HW291406   2.158   6.096   2.200 -2.5886 -0.0925  1.8088
29377SOL     OW91407   4.062   1.935   5.170 -0.0077 -0.2380  0.8969
29377SOL    HW191408   4.035   1.846   5.147  2.2589 -0.9325  0.6404
29377SOL    HW291409   4.009   1.992   5.116  0.2887 -1.5668 -0.8813
29378SOL     OW91410   1.897   2.125   4.501 -0.3663 -0.0781 -0.4307
29378SOL    HW191411   1.973   2.175   4.531 -0.1944 -1.1080  0.9601
29378SOL    HW291412   1.922   2.034   4.516 -2.0004 -0.4221  0.3649
29379SOL     OW91413   4.028   6.702   9.521 -0.4313 -0.3441  0.2972
29379SOL    HW191414   4.067   6.712   9.434  1.1070 -1.1565  0.8700
29379SOL    HW291415   3.976   6.622   9.514 -1.2689  0.2202 -0.1858
29380SOL     OW91416   6.481   2.080  10.316 -0.2608  0.2024 -0.2056
29380SOL    HW191417   6.444   2.154  10.365  0.0863  0.2610 -0.0352
29380SOL    HW291418   6.548   2.120  10.260 -1.6642  0.3890 -1.8739
29381SOL     OW91419   5.017   1.471   4.338 -0.1885  0.5829  0.0087
29381SOL    HW191420   5.001   1.377   4.331  0.6277  0.4725 -0.5052
29381SOL    HW291421   4.959   1.500   4.409  0.9667 -0.6443  1.5199
29382SOL     OW91422   2.053  10.556  10.459  0.0071 -0.2255  0.3536
29382SOL    HW191423   2.084  10.558  10.368 -1.1339  1.3112 -0.0399
29382SOL    HW291424   2.132  10.568  10.512  0.8912 -2.5127 -0.3369
29383SOL     OW91425  11.290   4.927   6.594 -0.7166  0.5585  0.2405
29383SOL    HW191426  11.316   4.838   6.568 -0.8023  0.7224 -0.4201
29383SOL    HW291427  11.352   4.950   6.664 -0.7260 -0.0355  0.4526
29384SOL     OW91428   0.940  10.582   0.612  0.0531  0.3447 -0.3983
29384SOL    HW191429   0.960  10.573   0.519 -2.5587 -0.2983 -0.9978
29384SOL    HW291430   0.912  10.494   0.639 -1.7667  1.0589  0.2368
29385SOL     OW91431   0.681   6.753   2.055 -0.4617 -0.1970 -0.1355
29385SOL    HW191432   0.648   6.742   2.144  3.7070  3.8619  2.3141
29385SOL    HW291433   0.669   6.845   2.035 -0.1864 -0.7375 -3.4045
29386SOL     OW91434   1.287   9.990   3.426 -0.1488  0.0987  0.3177
29386SOL    HW191435   1.219  10.057   3.427  0.2854  0.6042 -1.2008
29386SOL    HW291436   1.299   9.966   3.518 -0.8720  1.5267  0.8080
29387SOL     OW91437   6.327  10.922   4.616  0.1076 -0.0349  0.3299
29387SOL    HW191438   6.405  10.924   4.671  0.2631 -1.4151  0.1907
29387SOL    HW291439   6.260  10.881   4.671  0.4423 -2.0538 -0.6765
29388SOL     OW91440   2.946   7.719   7.773 -0.4194 -0.7364 -0.2463
29388SOL    HW191441   3.026   7.735   7.822 -0.0585  0.8003 -1.2921
29388SOL    HW291442   2.936   7.623   7.774  0.8696 -0.8794  0.7356
29389SOL     OW91443   7.081   4.213  11.117 -0.0754 -0.7547  0.1887
29389SOL    HW191444   7.072   4.211  11.212  1.4816  1.2920  0.4702
29389SOL    HW291445   7.015   4.276  11.088  2.2529  2.0801  0.5216
29390SOL     OW91446   1.251   4.270   4.486 -0.0396  0.6266  0.3777
29390SOL    HW191447   1.196   4.345   4.462  0.2424  1.0895  1.1218
29390SOL    HW291448   1.264   4.222   4.404 -0.1733  1.4314 -0.1274
29391SOL     OW91449   5.026   1.206   1.775 -0.4695 -0.4576 -0.2314
29391SOL    HW191450   5.089   1.278   1.780  2.1030 -2.5963  1.4409
29391SOL    HW291451   4.969   1.219   1.851 -1.7047  1.1350 -1.3791
29392SOL     OW91452   1.234   9.101   6.055 -0.3561  0.2513 -0.1250
29392SOL    HW191453   1.206   9.080   6.144  0.9842  1.8678  0.7265
29392SOL    HW291454   1.209   9.023   6.004 -1.1728 -0.7116  1.6218
29393SOL     OW91455   9.742   7.596   8.946 -0.1686  0.3609  0.2091
29393SOL    HW191456   9.663   7.649   8.952 -1.3336 -1.0484 -1.8352
29393SOL    HW291457   9.732   7.530   9.015 -1.2966 -0.4281 -0.6781
29394SOL     OW91458   8.162   3.043   0.719 -0.5143  0.2338  0.1097
29394SOL    HW191459   8.187   3.083   0.637 -1.6930  0.4638 -0.1502
29394SOL    HW291460   8.171   3.113   0.784  1.1818 -0.1517  0.3555
29395SOL     OW91461   1.159   7.408   8.683 -0.5458 -0.0695  0.0428
29395SOL    HW191462   1.114   7.447   8.758 -0.1489  0.7698 -0.1346
29395SOL    HW291463   1.225   7.351   8.721 -0.1082  0.6299  0.3422
29396SOL     OW91464   6.278   4.276   5.119  0.3737  0.5469  0.5168
29396SOL    HW191465   6.362   4.230   5.120  0.0667 -0.0827 -0.7641
29396SOL    HW291466   6.225   4.230   5.185  0.4393 -0.2454  0.0329
29397SOL     OW91467   5.780   2.835   4.697 -0.2389  0.0965 -1.0695
29397SOL    HW191468   5.810   2.801   4.613 -1.8478 -2.0475 -0.8659
29397SOL    HW291469   5.737   2.918   4.676  0.3377  0.1307 -2.1903
29398SOL     OW91470   9.854  10.648   2.969 -0.6331 -0.2703 -0.0748
29398SOL    HW191471   9.909  10.711   2.924 -0.1742 -0.9085 -0.4324
29398SOL    HW291472   9.900  10.564   2.959 -1.1459 -0.6377  0.5162
29399SOL     OW91473   5.362   2.767   1.807  0.2872 -0.6482 -0.3443
29399SOL    HW191474   5.295   2.812   1.859  0.9018 -1.3785  1.1516
29399SOL    HW291475   5.313   2.707   1.751 -0.6999  2.8330 -3.6231
29400SOL     OW91476   9.355   2.565   2.258 -0.1810 -0.0880 -0.3058
29400SOL    HW191477   9.397   2.504   2.198  1.8082  1.7790 -0.9433
29400SOL    HW291478   9.389   2.542   2.344 -1.7579 -1.7126 -0.0661
29401SOL     OW91479   0.193   7.888   1.018  0.3179 -0.5818  0.9719
29401SOL    HW191480   0.162   7.945   0.947 -2.9951 -2.2938  0.8193
29401SOL    HW291481   0.253   7.827   0.975 -0.9785 -1.0474 -0.2773
29402SOL     OW91482   2.864   2.887   3.911  0.5014  0.1504 -0.8048
29402SOL    HW191483   2.872   2.951   3.981  2.4372  0.7146 -1.4586
29402SOL    HW291484   2.892   2.805   3.950  0.8781  0.3188 -0.7181
29403SOL     OW91485   4.879   4.899   2.264 -0.6631 -0.1134  0.3595
29403SOL    HW191486   4.871   4.816   2.217  0.9741  0.1778 -0.4645
29403SOL    HW291487   4.914   4.874   2.350 -0.0400 -0.2582  0.0625
29404SOL     OW91488   5.505   0.083   0.544 -0.1118 -0.3404 -0.3724
29404SOL    HW191489   5.414   0.109   0.559  0.1615  1.4979 -1.6552
29404SOL    HW291490   5.518   0.095   0.450  1.1814 -1.5696 -0.3750
29405SOL     OW91491   5.508   1.722   7.339  0.5295 -0.3918  0.8933
29405SOL    HW191492   5.517   1.799   7.283  0.7975 -0.0123  1.4537
29405SOL    HW291493   5.414   1.703   7.339  0.4629 -0.0710  0.7506
29406SOL     OW91494   8.845   6.745   4.976 -0.0226  0.1570  0.2963
29406SOL    HW191495   8.879   6.705   4.896  2.6603  2.0322  0.3813
29406SOL    HW291496   8.760   6.703   4.989 -1.0741  0.4620 -4.0608
29407SOL     OW91497   0.187   4.807   8.900 -0.5443 -0.3213  0.2630
29407SOL    HW191498   0.115   4.771   8.952 -0.0453 -0.6108  0.7596
29407SOL    HW291499   0.260   4.813   8.961 -0.6780  1.8187  0.2815
29408SOL     OW91500   5.910  10.947   7.335  0.0022  0.4257 -0.0372
29408SOL    HW191501   5.921  11.036   7.370  2.9772  0.8432 -1.6900
29408SOL    HW291502   5.939  10.889   7.405  0.3688  0.9086  0.2154
29409SOL     OW91503   6.894   3.764   5.952 -0.2713  0.0002 -0.1011
29409SOL    HW191504   6.853   3.708   5.886 -1.0544  0.6950 -0.2164
29409SOL    HW291505   6.823   3.788   6.011 -0.1930  1.7965 -0.6940
29410SOL     OW91506  10.867   6.518   1.776  0.3756 -0.1399 -0.8720
29410SOL    HW191507  10.826   6.546   1.694 -0.9302 -1.9484 -0.9038
29410SOL    HW291508  10.801   6.462   1.817  1.7057 -0.7231  0.5528
29411SOL     OW91509   1.728   6.822   7.858  0.2731  0.5229 -0.0785
29411SOL    HW191510   1.787   6.765   7.810 -0.4651  0.6469 -1.1721
29411SOL    HW291511   1.641   6.785   7.843  0.1341 -0.5310  2.7144
29412SOL     OW91512   0.590   9.363   5.463 -0.3734  0.8725  0.1768
29412SOL    HW191513   0.618   9.405   5.381 -1.6389  1.3471 -0.0410
29412SOL    HW291514   0.494   9.360   5.456 -0.3762 -0.9694  0.7461
29413SOL     OW91515   2.929   5.399   8.189 -0.0574  0.3921 -0.0769
29413SOL    HW191516   2.922   5.476   8.246  1.4919 -0.4690  1.3667
29413SOL    HW291517   2.953   5.328   8.248  3.6105 -0.1723 -1.9735
29414SOL     OW91518   5.772   1.785   4.314  0.2441  0.1527 -0.4055
29414SOL    HW191519   5.799   1.773   4.223 -0.4813  1.5819 -0.8367
29414SOL    HW291520   5.849   1.760   4.365  1.7284  2.1416 -1.5261
29415SOL     OW91521   3.637   7.098   2.879 -0.0157  0.2530 -0.3490
29415SOL    HW191522   3.701   7.062   2.940  1.9136  1.5945 -1.4837
29415SOL    HW291523   3.642   7.041   2.802 -1.1199 -0.3520 -0.0027
29416SOL     OW91524   0.250   4.694   1.468 -0.6035 -0.2176  0.4336
29416SOL    HW191525   0.252   4.617   1.410  0.7674  0.8545 -1.0326
29416SOL    HW291526   0.161   4.694   1.505 -1.5218 -0.9927 -1.6242
29417SOL     OW91527   9.293   9.629   5.958 -0.3020 -0.0236  0.1793
29417SOL    HW191528   9.298   9.637   5.863 -0.2155  0.0832  0.1933
29417SOL    HW291529   9.345   9.701   5.992 -2.5508  1.6267  0.3289
29418SOL     OW91530  11.372   9.043   4.749  0.4737 -0.2689  0.3854
29418SOL    HW191531  11.392   9.030   4.842 -1.8606 -3.0030  0.6538
29418SOL    HW291532  11.283   9.010   4.739  0.3510  0.6771 -2.7181
29419SOL     OW91533   3.604   0.227   0.211 -0.5870  0.1857 -0.4090
29419SOL    HW191534   3.642   0.151   0.168  0.4111  0.2581  0.3301
29419SOL    HW291535   3.538   0.190   0.270  0.1360 -0.1433  0.2054
29420SOL     OW91536   8.186   7.528   2.604  0.3588 -0.8222  0.0352
29420SOL    HW191537   8.183   7.594   2.534  0.0990  1.1650  1.8291
29420SOL    HW291538   8.280   7.518   2.622  0.3579 -0.1173  0.4742
29421SOL     OW91539   9.057   8.931  10.144  0.5702  0.5710 -0.4495
29421SOL    HW191540   9.073   8.855  10.088 -0.1688 -0.1571  0.3122
29421SOL    HW291541   9.094   8.907  10.229 -2.9962 -0.5759  0.9422
29422SOL     OW91542   5.336   7.122   0.902  0.1939  0.3554 -0.1073
29422SOL    HW191543   5.306   7.041   0.861 -0.1441  0.5694 -0.2820
29422SOL    HW291544   5.410   7.095   0.957  1.8884  0.3277 -2.2743
29423SOL     OW91545   3.542  10.662  10.074  0.5411  0.5871 -0.3743
29423SOL    HW191546   3.553  10.664  10.169 -2.9081 -2.0055  0.2485
29423SOL    HW291547   3.610  10.602  10.043  0.0879 -0.5640  0.8058
29424SOL     OW91548   4.751   4.254  10.511 -0.4612 -0.2423  0.3241
29424SOL    HW191549   4.757   4.257  10.606  0.2015  0.5389  0.2687
29424SOL    HW291550   4.765   4.345  10.482 -0.7614 -0.4463 -0.5067
29425SOL     OW91551   3.193   3.152   3.867 -0.1303 -0.6905 -0.5612
29425SOL    HW191552   3.104   3.160   3.833  0.1287 -0.8650 -1.3030
29425SOL    HW291553   3.194   3.208   3.945  0.3512  3.0832 -2.9799
29426SOL     OW91554   6.107   6.291   1.081 -0.0391  0.3109 -0.3279
29426SOL    HW191555   6.200   6.279   1.099 -0.1920 -1.0667 -0.3752
29426SOL    HW291556   6.101   6.379   1.043  0.7905  1.7748  2.6183
29427SOL     OW91557   9.552   1.936   1.612 -0.0849  0.4104  0.1249
29427SOL    HW191558   9.475   1.933   1.555 -0.4984  0.3118  0.6837
29427SOL    HW291559   9.523   1.895   1.693  1.1369 -1.4428 -0.3217
29428SOL     OW91560   1.926   6.912   1.787  0.1642  0.1661  0.2944
29428SOL    HW191561   1.873   6.990   1.797 -0.0162  0.2322 -1.0567
29428SOL    HW291562   2.015   6.941   1.807  0.3612  1.1492 -1.8355
29429SOL     OW91563   1.959   3.182  10.812 -0.4336  0.4130  0.2098
29429SOL    HW191564   1.892   3.118  10.837  0.0839 -0.5583 -0.8163
29429SOL    HW291565   2.021   3.182  10.884  0.8392 -2.0642 -0.7804
29430SOL     OW91566   6.346   9.486   3.973 -0.4268 -0.1742  0.0616
29430SOL    HW191567   6.256   9.490   4.006 -0.2316  1.0134  0.5083
29430SOL    HW291568   6.380   9.405   4.009 -0.7243  0.3178  1.5472
29431SOL     OW91569   3.573   1.354   9.118 -0.6248  0.7096  0.3713
29431SOL    HW191570   3.496   1.313   9.079  1.1477 -2.4100 -0.2676
29431SOL    HW291571   3.620   1.392   9.045 -0.3655  0.3795  0.3600
29432SOL     OW91572   4.852   0.012   5.566  0.4372  0.4223 -0.4176
29432SOL    HW191573   4.814  -0.068   5.530  1.7548 -0.1641 -0.5880
29432SOL    HW291574   4.827   0.081   5.504 -1.4859  0.3494  0.2079
29433SOL     OW91575   2.731   1.503   2.275 -0.0607 -0.1221  0.3634
29433SOL    HW191576   2.700   1.416   2.298 -1.0358  0.2377  0.4449
29433SOL    HW291577   2.823   1.490   2.252  0.7240 -0.6593  3.4295
29434SOL     OW91578   2.713   8.292   5.421  0.4346 -0.2575 -0.3373
29434SOL    HW191579   2.679   8.381   5.408 -0.1959 -0.4731 -0.1759
29434SOL    HW291580   2.759   8.297   5.504 -0.4043 -0.3073  0.1461
29435SOL     OW91581   2.726   2.819   9.483 -0.1571 -0.2465  0.3171
29435SOL    HW191582   2.692   2.766   9.555 -2.1340  1.6273  0.8569
29435SOL    HW291583   2.671   2.794   9.408 -1.0845  0.9666  0.5705
29436SOL     OW91584   5.003   7.728   7.373 -0.1565 -0.2048 -1.0538
29436SOL    HW191585   5.075   7.670   7.397 -0.0236  0.4353  0.2076
29436SOL    HW291586   5.038   7.816   7.385 -1.1806  0.1186 -0.2203
29437SOL     OW91587  10.431   7.830   1.031  0.0800  0.1307  0.1105
29437SOL    HW191588  10.386   7.802   0.951 -0.5411  0.2336  0.4138
29437SOL    HW291589  10.439   7.925   1.022 -1.1064  0.3089  0.7088
29438SOL     OW91590   6.576   1.979   4.077 -0.4822 -0.2936 -0.1400
29438SOL    HW191591   6.501   1.935   4.115  0.0709 -0.6848  0.5181
29438SOL    HW291592   6.543   2.065   4.050 -1.0101 -0.2036  0.7547
29439SOL     OW91593   1.851   4.240   5.528  0.0417  0.0454  0.6052
29439SOL    HW191594   1.827   4.181   5.600 -0.3132  0.3668  0.7516
29439SOL    HW291595   1.783   4.227   5.462  1.6700 -2.1115 -0.8004
29440SOL     OW91596   8.886   7.037   0.944 -0.2787 -0.3530  0.5315
29440SOL    HW191597   8.907   7.028   0.851  1.7692 -0.8459  0.9956
29440SOL    HW291598   8.791   7.026   0.949 -0.4813  0.1220 -1.5409
29441SOL     OW91599   5.735   3.462   1.862  0.1888 -0.0153 -0.1252
29441SOL    HW191600   5.684   3.480   1.941 -0.8595 -2.5262 -0.1188
29441SOL    HW291601   5.812   3.415   1.893 -0.0515 -0.6984 -0.5241
29442SOL     OW91602   2.008   4.251   1.970  0.6124 -0.6957 -0.7910
29442SOL    HW191603   2.092   4.286   1.941 -0.0967  0.8089 -1.1564
29442SOL    HW291604   2.004   4.163   1.932  1.2965 -0.1506 -2.2122
29443SOL     OW91605   0.150   4.869  10.795 -0.1316  0.2433 -0.2267
29443SOL    HW191606   0.178   4.873  10.887  0.9940 -2.3667 -0.3719
29443SOL    HW291607   0.223   4.907  10.746 -1.3315  3.0007 -0.0496
29444SOL     OW91608   4.294   1.904   8.344  0.3198  0.1711  0.0119
29444SOL    HW191609   4.331   1.820   8.315 -0.9437  0.2456 -2.0099
29444SOL    HW291610   4.266   1.888   8.434  1.0676 -1.2418  0.0288
29445SOL     OW91611   1.694   7.881   6.161 -0.1605 -0.0056  0.2842
29445SOL    HW191612   1.787   7.863   6.149 -0.1867  0.1907 -0.2102
29445SOL    HW291613   1.675   7.849   6.249 -0.2326 -2.5234 -0.5679
29446SOL     OW91614   0.903   8.665   4.230  0.4192 -0.3232 -0.1201
29446SOL    HW191615   0.868   8.679   4.318  0.6255 -0.7053  0.0282
29446SOL    HW291616   0.975   8.603   4.243  0.4422 -0.3932 -0.5613
29447SOL     OW91617   6.320   3.657   6.835 -0.3080 -0.0497  0.5674
29447SOL    HW191618   6.338   3.576   6.788 -1.7314 -1.0783  1.6877
29447SOL    HW291619   6.317   3.631   6.928  2.3797  1.8932  1.3164
29448SOL     OW91620   0.949   1.120   6.206 -0.3310  0.2349  0.3281
29448SOL    HW191621   0.904   1.038   6.228  1.3294 -1.0375 -0.8450
29448SOL    HW291622   0.896   1.158   6.136 -0.7439 -0.1604  0.4181
29449SOL     OW91623   8.696   2.701   8.691  0.3610  0.2427 -0.2116
29449SOL    HW191624   8.666   2.763   8.624 -0.4219 -0.6722 -0.7242
29449SOL    HW291625   8.735   2.629   8.642  0.4812 -0.0859  0.3557
29450SOL     OW91626   2.208   7.191   9.288 -0.2594 -0.2378  0.0760
29450SOL    HW191627   2.134   7.249   9.268 -0.6060 -0.6887  0.0319
29450SOL    HW291628   2.273   7.249   9.329 -0.4937  0.2310 -0.1989
29451SOL     OW91629   7.506   8.054   5.718 -0.0939 -0.8175 -0.2775
29451SOL    HW191630   7.565   7.981   5.738  0.6383  0.2706  1.8492
29451SOL    HW291631   7.494   8.099   5.802 -0.2816  1.6723 -1.5410
29452SOL     OW91632   7.321   8.963   4.694  0.2622  0.0267  0.2084
29452SOL    HW191633   7.398   8.988   4.745  0.0908  0.0374  0.4627
29452SOL    HW291634   7.312   8.869   4.707 -1.0100  0.3294  1.9295
29453SOL     OW91635   4.486   2.630   4.751  0.4927  0.1710 -0.0745
29453SOL    HW191636   4.411   2.624   4.810  0.7850  0.8450  0.3782
29453SOL    HW291637   4.468   2.708   4.698 -1.2271 -1.9922 -2.9827
29454SOL     OW91638   1.785   3.779   7.141  0.9463 -0.5274 -0.0788
29454SOL    HW191639   1.828   3.849   7.190 -1.2110  0.8708 -0.0490
29454SOL    HW291640   1.726   3.739   7.204 -2.9143  2.1900 -1.5933
29455SOL     OW91641   2.284   9.365   3.913 -0.5407  0.4335  0.1274
29455SOL    HW191642   2.340   9.386   3.988  0.7415  0.9669 -0.9480
29455SOL    HW291643   2.209   9.423   3.922  0.0297  1.1263  0.5087
29456SOL     OW91644   4.669   8.250   5.805 -0.1884  0.0747  0.0324
29456SOL    HW191645   4.713   8.288   5.881 -0.1655  0.7149 -0.2926
29456SOL    HW291646   4.740   8.229   5.744 -0.3599  2.5833 -1.1678
29457SOL     OW91647   9.859   7.077   3.158 -0.1401 -0.0716  0.3958
29457SOL    HW191648   9.868   6.982   3.144 -1.2310 -0.2745  0.9802
29457SOL    HW291649   9.770   7.097   3.131  0.8258  1.2804 -2.1294
29458SOL     OW91650   2.501   5.259   3.250 -0.2372 -0.2625  0.0777
29458SOL    HW191651   2.578   5.234   3.199  0.7266  0.9743  0.8923
29458SOL    HW291652   2.428   5.252   3.188  0.8222  0.6626 -1.3318
29459SOL     OW91653   3.733   8.951   2.425 -0.3237 -0.1017  0.2628
29459SOL    HW191654   3.825   8.974   2.415 -0.5865  1.1694  0.6540
29459SOL    HW291655   3.700   9.011   2.492 -1.8141  0.5093 -0.9489
29460SOL     OW91656  11.086   8.479   3.424  0.1198  0.2156 -0.3942
29460SOL    HW191657  11.039   8.439   3.351  0.4300  1.8223 -1.5377
29460SOL    HW291658  11.095   8.409   3.489 -3.8931 -0.1972 -0.0436
29461SOL     OW91659   1.825   1.348   4.262  0.2084 -0.0786 -0.1180
29461SOL    HW191660   1.764   1.404   4.215  0.9865  0.4164 -0.5740
29461SOL    HW291661   1.776   1.268   4.281 -0.6554  0.4199 -0.2161
29462SOL     OW91662   6.052   6.389   0.058 -0.0297 -0.2651 -0.1973
29462SOL    HW191663   5.980   6.346   0.010 -0.2710 -1.4262  1.1408
29462SOL    HW291664   6.065   6.472   0.012  0.2527 -1.5902 -2.7509
29463SOL     OW91665   2.467   8.936  11.264  0.3796 -0.2045  0.0616
29463SOL    HW191666   2.410   8.894  11.329 -0.2522 -1.1752 -1.0835
29463SOL    HW291667   2.550   8.950  11.310 -0.4072  0.1965  1.4140
29464SOL     OW91668   1.417   0.243   0.440  0.5037 -0.6105  0.0345
29464SOL    HW191669   1.345   0.225   0.379  0.9404  2.5254 -1.6315
29464SOL    HW291670   1.478   0.170   0.427 -1.0623 -1.8607 -0.6032
29465SOL     OW91671   8.657   9.575  10.081  0.2643 -0.1190 -0.0430
29465SOL    HW191672   8.672   9.482  10.061  1.2071  0.1818 -0.8146
29465SOL    HW291673   8.743   9.610  10.100 -0.2138  0.3916  1.2703
29466SOL     OW91674   6.912   9.467   7.361  0.0224  0.1277 -0.1647
29466SOL    HW191675   7.007   9.468   7.350 -0.1155 -2.1503 -2.5553
29466SOL    HW291676   6.884   9.555   7.337  1.3618  0.1091 -1.9877
29467SOL     OW91677   6.226   9.865   7.213  0.0532 -0.7136 -0.3332
29467SOL    HW191678   6.247   9.827   7.127 -0.1204 -0.3476 -0.5402
29467SOL    HW291679   6.130   9.873   7.212  0.1722  4.2743 -2.3250
29468SOL     OW91680   8.392   6.674   3.770  0.4151 -0.5399  0.1222
29468SOL    HW191681   8.486   6.655   3.776  0.2269 -1.9075 -0.8149
29468SOL    HW291682   8.375   6.677   3.676 -1.3052 -4.9809  0.0965
29469SOL     OW91683  10.060   4.729   6.308  0.0400 -0.6617  0.3521
29469SOL    HW191684  10.002   4.734   6.384  0.5324 -1.0653  0.7649
29469SOL    HW291685  10.117   4.655   6.327  1.8021  0.7165  0.7729
29470SOL     OW91686   6.548   1.276   9.666  0.4124 -0.7801 -0.2838
29470SOL    HW191687   6.465   1.232   9.645 -0.4897  1.2106 -1.1517
29470SOL    HW291688   6.537   1.307   9.756  0.2366 -0.5773 -0.3745
29471SOL     OW91689   2.744  11.277   0.664  0.4166  0.1962 -0.5002
29471SOL    HW191690   2.709  11.342   0.603  1.8981  1.4576 -0.0760
29471SOL    HW291691   2.835  11.265   0.636  0.5289 -0.7412  0.2261
29472SOL     OW91692   7.053   6.651   1.670  0.2287 -0.4435 -0.1871
29472SOL    HW191693   7.014   6.597   1.601 -0.8432 -0.2280  0.2253
29472SOL    HW291694   7.047   6.596   1.749 -0.7070  0.1951  0.1975
29473SOL     OW91695   9.238   4.550   3.034  0.2830  0.2849 -0.0698
29473SOL    HW191696   9.166   4.553   3.097  0.3231  3.5346 -0.0219
29473SOL    HW291697   9.317   4.540   3.088  0.1161  0.2812  0.1719
29474SOL     OW91698   9.441   8.616   2.498  0.3182 -0.0962 -0.0229
29474SOL    HW191699   9.474   8.607   2.409  1.5469 -0.0692  0.4130
29474SOL    HW291700   9.493   8.554   2.550 -1.7170 -1.5670  0.3708
29475SOL     OW91701   0.830   5.517  11.395  0.1615 -0.7320  0.2041
29475SOL    HW191702   0.907   5.497  11.343  0.3382  3.5518 -1.5614
29475SOL    HW291703   0.757   5.512  11.334 -1.1712 -4.4287  1.7806
29476SOL     OW91704   3.758   2.774   9.736 -0.1364  0.0462  0.3591
29476SOL    HW191705   3.719   2.861   9.749  2.7700  1.9326 -1.9351
29476SOL    HW291706   3.807   2.758   9.816 -0.5171  0.6478  0.7247
29477SOL     OW91707   0.905   8.797   5.912 -0.4288 -0.3687  0.4522
29477SOL    HW191708   0.911   8.807   6.007 -1.0842 -1.2931  0.6061
29477SOL    HW291709   0.992   8.769   5.885 -0.3142 -0.3581  0.8090
29478SOL     OW91710   1.174   0.290   2.306  0.7149 -0.3422  0.2679
29478SOL    HW191711   1.123   0.345   2.247 -2.5376 -1.3693  1.8595
29478SOL    HW291712   1.252   0.267   2.257 -1.8063 -1.2496 -3.7909
29479SOL     OW91713  11.373   6.221  11.267  0.3756  0.5691 -0.4891
29479SOL    HW191714  11.327   6.181  11.193 -1.0600  0.4516  0.4160
29479SOL    HW291715  11.376   6.314  11.246 -1.3022  0.7429 -0.0823
29480SOL     OW91716   9.338   7.302   8.205  0.5775 -0.1078  0.1586
29480SOL    HW191717   9.401   7.370   8.181  0.7274 -0.2122  0.2620
29480SOL    HW291718   9.309   7.266   8.121 -0.3307  0.8345  0.0439
29481SOL     OW91719   8.971   4.544   7.058 -0.3506 -0.7234  0.0352
29481SOL    HW191720   8.926   4.618   7.016  1.1641  0.2587  0.0424
29481SOL    HW291721   8.905   4.505   7.116 -1.2753  0.4399 -0.1934
29482SOL     OW91722   4.030  10.473   7.470 -0.4376  0.1988  0.0943
29482SOL    HW191723   3.936  10.470   7.487 -0.3386 -1.9686  0.6453
29482SOL    HW291724   4.067  10.414   7.535  1.1956  0.2256 -0.7667
29483SOL     OW91725   0.341   6.483   1.378  0.1295  0.4200 -0.0757
29483SOL    HW191726   0.417   6.429   1.355 -0.2459 -0.6001  0.9820
29483SOL    HW291727   0.369   6.573   1.360  0.3794 -0.1523 -2.9880
29484SOL     OW91728   1.451   4.778   7.080  1.2027 -0.0906  0.0838
29484SOL    HW191729   1.419   4.856   7.125  0.6270 -1.1277  1.5621
29484SOL    HW291730   1.425   4.791   6.989  0.7956  1.2733  0.3672
29485SOL     OW91731  10.454   4.395   7.089  0.3414 -0.3514  0.2926
29485SOL    HW191732  10.362   4.369   7.089  0.4518 -0.7599  0.5406
29485SOL    HW291733  10.490   4.355   7.010  0.4600 -0.7856  0.5578
29486SOL     OW91734   4.801   0.568   9.538  0.0548  0.1414 -0.3140
29486SOL    HW191735   4.780   0.611   9.455 -1.8052  1.0480  0.5622
29486SOL    HW291736   4.765   0.479   9.528  2.1875 -0.6619 -1.4052
29487SOL     OW91737   2.411   3.238   6.842 -0.1693 -0.3512  0.2291
29487SOL    HW191738   2.465   3.169   6.802  0.7947  0.8414 -0.5791
29487SOL    HW291739   2.398   3.208   6.932  1.2719 -1.0236  0.2428
29488SOL     OW91740   4.114   9.587   9.229  0.5565  0.0228 -0.7519
29488SOL    HW191741   4.172   9.629   9.165  0.4734 -2.6605 -2.7149
29488SOL    HW291742   4.027   9.589   9.188  0.5039 -1.7482 -0.7727
29489SOL     OW91743   6.788   2.267   9.016 -0.1561  0.0056  0.1589
29489SOL    HW191744   6.854   2.197   9.022 -0.8511 -0.5685  1.5302
29489SOL    HW291745   6.839   2.347   9.006  0.7054 -0.5517 -0.0175
29490SOL     OW91746   7.703   2.234   9.448 -0.3029  0.3166  0.1952
29490SOL    HW191747   7.770   2.298   9.426  0.2660  0.4250  2.0282
29490SOL    HW291748   7.703   2.173   9.375 -0.1507  1.8307 -1.1173
29491SOL     OW91749   9.732   4.608  10.697  0.2810  0.3395 -0.2140
29491SOL    HW191750   9.721   4.524  10.742 -2.5660  0.6106 -0.2440
29491SOL    HW291751   9.784   4.586  10.619 -0.4214 -1.4177 -0.2407
29492SOL     OW91752   2.144  10.249   9.041  0.4951  0.7201  0.6484
29492SOL    HW191753   2.173  10.221   9.127 -0.3817  1.3098  1.1564
29492SOL    HW291754   2.194  10.329   9.023  0.5768  0.6747  0.6742
29493SOL     OW91755   7.200   7.723   3.314 -0.4230  0.2864 -0.2766
29493SOL    HW191756   7.226   7.757   3.399  0.6836 -0.0858 -0.4467
29493SOL    HW291757   7.114   7.682   3.328 -1.7437  2.9625 -0.0382
29494SOL     OW91758   1.955   4.629   7.020  0.2615 -0.7225  0.1354
29494SOL    HW191759   1.991   4.682   7.091  0.9131  1.5839 -1.7689
29494SOL    HW291760   1.863   4.618   7.041  0.2498  0.6934  0.9127
29495SOL     OW91761   0.399   2.155   2.596  0.0552  0.1141  0.0646
29495SOL    HW191762   0.370   2.200   2.675  0.3179  2.6317 -1.1770
29495SOL    HW291763   0.337   2.181   2.528 -1.6596 -3.9340 -0.2249
29496SOL     OW91764   0.245   3.420   3.487  0.0164  0.2750 -0.3884
29496SOL    HW191765   0.277   3.355   3.550 -0.3778 -0.2795 -0.7562
29496SOL    HW291766   0.213   3.492   3.542  0.5979  0.2368  0.0156
29497SOL     OW91767   1.239   0.426   7.354 -0.8262 -0.0721 -0.0923
29497SOL    HW191768   1.175   0.497   7.348 -1.3284 -0.3400  1.5931
29497SOL    HW291769   1.217   0.381   7.436  0.2713 -1.4017 -0.5000
29498SOL     OW91770   4.071   9.499   6.100 -0.2281  0.3204  0.1888
29498SOL    HW191771   4.022   9.546   6.168 -0.5207  0.0236  0.1838
29498SOL    HW291772   4.107   9.568   6.045 -0.5611  0.5478  0.2502
29499SOL     OW91773   7.355   1.065   5.613  0.1551 -0.2096 -0.6741
29499SOL    HW191774   7.412   1.043   5.539 -0.6718 -0.0306 -1.3893
29499SOL    HW291775   7.306   1.141   5.583 -0.1168 -0.0701  0.1092
29500SOL     OW91776   6.922   0.750   9.159 -0.4551 -0.4058 -0.2290
29500SOL    HW191777   6.952   0.810   9.091  1.2826 -0.3278  0.5507
29500SOL    HW291778   6.910   0.806   9.236 -0.8185 -0.7464 -0.0339
29501SOL     OW91779   6.209   9.465   8.433 -0.5220 -0.7197 -0.2446
29501SOL    HW191780   6.266   9.389   8.425  1.1361  0.4122  0.2133
29501SOL    HW291781   6.269   9.539   8.446 -2.1154  0.4355  1.0793
29502SOL     OW91782   0.195   4.362   2.865  0.8829 -0.6461 -0.1226
29502SOL    HW191783   0.174   4.293   2.801 -0.7085 -1.3963  1.1505
29502SOL    HW291784   0.111   4.387   2.902  1.5548  1.2759  0.2203
29503SOL     OW91785  10.457   0.404   7.801 -0.0630  0.3027 -0.1330
29503SOL    HW191786  10.402   0.338   7.842  0.4144 -0.7436 -1.1169
29503SOL    HW291787  10.407   0.433   7.725 -0.1836  0.9444  0.1833
29504SOL     OW91788   1.194   5.004   6.538 -0.1216 -0.0749  0.1028
29504SOL    HW191789   1.175   4.936   6.474  1.0588 -0.6166  0.2981
29504SOL    HW291790   1.246   5.069   6.490 -1.4101  0.8167 -0.1353
29505SOL     OW91791   9.846   0.790   9.990  0.1345 -0.5373 -0.0328
29505SOL    HW191792   9.922   0.783   9.932  0.0285 -0.7242 -0.1485
29505SOL    HW291793   9.862   0.870  10.041 -0.0611 -0.0386 -0.7370
29506SOL     OW91794   5.235  11.298   4.910 -0.1530  0.1037  0.1294
29506SOL    HW191795   5.265  11.372   4.859  0.6830 -0.0914  0.3278
29506SOL    HW291796   5.275  11.309   4.996  1.9093 -1.7758 -0.4969
29507SOL     OW91797   9.506   7.280   5.903 -0.0909  0.2277 -0.4739
29507SOL    HW191798   9.425   7.236   5.929  0.5769 -1.2925 -0.8724
29507SOL    HW291799   9.488   7.373   5.916 -1.4877 -0.1584  0.5673
29508SOL     OW91800   7.910   6.820   4.071  0.1614 -0.2432  0.0104
29508SOL    HW191801   7.984   6.772   4.033 -1.9025 -2.0582 -1.9636
29508SOL    HW291802   7.901   6.783   4.159  1.1838 -0.4803  0.0278
29509SOL     OW91803   4.350   5.696   6.298  0.3917  0.2473 -0.4475
29509SOL    HW191804   4.262   5.674   6.266 -0.6047 -0.3954  2.3759
29509SOL    HW291805   4.352   5.792   6.298  0.4997  0.2779 -2.3913
29510SOL     OW91806   5.525   0.669  11.068  0.2446 -0.4497  0.4067
29510SOL    HW191807   5.610   0.643  11.103  1.0682 -0.8844 -1.7726
29510SOL    HW291808   5.513   0.760  11.098  1.0036 -0.7020  1.5241
29511SOL     OW91809   7.823  11.069   9.890  0.3102  0.5187  0.4212
29511SOL    HW191810   7.738  11.035   9.916 -0.5987  0.5676 -2.2510
29511SOL    HW291811   7.883  10.995   9.899 -0.2011  0.2027  1.3464
29512SOL     OW91812   0.539   7.613  10.467  0.2669  0.2994  0.0619
29512SOL    HW191813   0.633   7.595  10.477  0.1193 -1.0177 -0.6914
29512SOL    HW291814   0.517   7.579  10.380 -0.4264  2.7993 -0.8282
29513SOL     OW91815   0.107   1.824   9.959  0.7878 -0.2854  0.0855
29513SOL    HW191816   0.201   1.837   9.945  1.0051 -0.5495  1.1793
29513SOL    HW291817   0.077   1.782   9.879  1.4537  0.4734 -0.5831
29514SOL     OW91818   9.884  10.961   4.706 -0.2350 -0.8124 -0.2251
29514SOL    HW191819   9.852  10.991   4.791 -1.0699 -1.2677 -0.3715
29514SOL    HW291820   9.805  10.946   4.654  0.2013 -1.8843 -0.6178
29515SOL     OW91821   6.273   7.548   7.861 -0.0411  0.0162 -0.2337
29515SOL    HW191822   6.208   7.478   7.856  0.8548 -1.2639  3.3227
29515SOL    HW291823   6.353   7.510   7.827  0.5193 -0.9180  1.9667
29516SOL     OW91824   0.020   4.844   3.414 -0.0653 -0.3871  0.0343
29516SOL    HW191825   0.012   4.794   3.495 -1.0462 -4.1842 -2.1523
29516SOL    HW291826   0.110   4.877   3.414  0.5768 -1.9962  1.7543
29517SOL     OW91827   9.680   4.587   6.151  0.6120 -0.4029 -0.1249
29517SOL    HW191828   9.770   4.555   6.158  1.1965  0.5279 -2.3171
29517SOL    HW291829   9.625   4.511   6.167  1.5877 -0.4309  4.3005
29518SOL     OW91830  10.838   4.000   7.937 -0.2836  0.1719  0.0395
29518SOL    HW191831  10.885   3.920   7.961  0.9913  0.8861  0.0614
29518SOL    HW291832  10.899   4.070   7.959 -1.2686  1.1374 -0.2261
29519SOL     OW91833   1.879   0.473   1.554  0.2756  0.4152 -0.0267
29519SOL    HW191834   1.854   0.490   1.464 -0.5078 -0.9212 -0.0856
29519SOL    HW291835   1.964   0.429   1.548 -0.0858 -0.2793 -0.1658
29520SOL     OW91836   5.357   7.583   9.599  0.1077 -0.4045 -0.3473
29520SOL    HW191837   5.360   7.492   9.570  3.6015 -0.3129 -0.6966
29520SOL    HW291838   5.378   7.634   9.520  0.8201  0.4797  0.3928
29521SOL     OW91839   9.199   4.695   7.338  0.0476 -0.0578 -0.4361
29521SOL    HW191840   9.213   4.629   7.270 -0.0056 -0.1204 -0.3867
29521SOL    HW291841   9.162   4.646   7.411  3.3891 -0.7257  1.0258
29522SOL     OW91842   9.388   0.334  10.118 -0.6693  0.4997 -0.0639
29522SOL    HW191843   9.327   0.395  10.159 -1.6321  0.3224 -1.1850
29522SOL    HW291844   9.332   0.276  10.066  0.4901  0.7239 -1.6305
29523SOL     OW91845   3.271   7.102  10.540  0.1940 -0.2622  0.2381
29523SOL    HW191846   3.326   7.076  10.465 -0.2665 -0.8370  0.0905
29523SOL    HW291847   3.325   7.084  10.617  0.5435  0.0087  0.0558
29524SOL     OW91848  10.575   4.675   0.071 -0.6220  0.1857 -0.0139
29524SOL    HW191849  10.556   4.738   0.140 -1.1173 -0.8082  0.7973
29524SOL    HW291850  10.602   4.596   0.118  0.2953 -0.1202 -1.0072
29525SOL     OW91851  10.391  10.109   5.424  0.0470 -0.0891  0.2787
29525SOL    HW191852  10.404  10.052   5.500  1.6538 -0.3061 -0.1223
29525SOL    HW291853  10.434  10.063   5.352 -1.7041 -0.0225 -0.8554
29526SOL     OW91854  10.888   6.274   4.307  0.1793 -0.6939  0.3888
29526SOL    HW191855  10.842   6.281   4.224 -0.4139  0.6394  0.8026
29526SOL    HW291856  10.886   6.363   4.343  0.4726 -1.2347  1.7984
29527SOL     OW91857   3.605   0.008   2.615  0.6356 -0.1169 -0.4311
29527SOL    HW191858   3.582  -0.015   2.525  1.1011  0.2265 -0.6398
29527SOL    HW291859   3.525   0.047   2.651  0.0947 -1.2815 -0.3309
29528SOL     OW91860   4.586   9.004  10.266 -0.7552  0.7937 -0.2969
29528SOL    HW191861   4.625   8.946  10.331  0.2867 -0.0241 -1.5805
29528SOL    HW291862   4.614   9.092  10.292 -1.9445  0.7078  1.3963
29529SOL     OW91863   7.573   7.587   8.888 -0.3889  0.2276  0.3904
29529SOL    HW191864   7.591   7.671   8.845  0.3745 -0.1336 -0.0190
29529SOL    HW291865   7.627   7.524   8.841 -1.7566 -0.7018  0.0024
29530SOL     OW91866   5.137   2.133   9.741 -0.0872  0.3069  0.7836
29530SOL    HW191867   5.148   2.130   9.646  0.5598  1.2097  0.8144
29530SOL    HW291868   5.044   2.152   9.754 -0.4884 -1.2395  0.3750
29531SOL     OW91869   7.837   2.379   6.144 -0.3672  0.7904 -0.0213
29531SOL    HW191870   7.876   2.385   6.231 -0.0372 -0.0681 -0.0984
29531SOL    HW291871   7.747   2.351   6.159  0.0098 -0.4633  0.0038
29532SOL     OW91872   2.705   0.831   0.824  0.0599  0.2028 -0.7299
29532SOL    HW191873   2.685   0.916   0.863  1.4910  0.3808 -0.3113
29532SOL    HW291874   2.775   0.850   0.761 -0.1997 -0.5356 -1.2435
29533SOL     OW91875   2.685   5.130  11.231  0.0651 -0.4037  0.4294
29533SOL    HW191876   2.659   5.222  11.239  0.6268 -0.1132 -0.7501
29533SOL    HW291877   2.730   5.126  11.147 -0.0585 -1.7960  0.4106
29534SOL     OW91878  10.300   5.055  10.467  0.0266 -0.0949 -0.1184
29534SOL    HW191879  10.261   4.975  10.503  1.2254 -0.2182  0.9603
29534SOL    HW291880  10.227   5.100  10.424 -0.9367 -1.1253  0.3928
29535SOL     OW91881   4.441   9.220   2.306  0.2724 -0.2266  0.7799
29535SOL    HW191882   4.348   9.211   2.283  0.3497 -0.3250  0.4971
29535SOL    HW291883   4.444   9.205   2.400  0.0248 -0.4198  0.7585
29536SOL     OW91884   9.164   4.572   5.739  0.0319  0.3627 -0.0631
29536SOL    HW191885   9.198   4.626   5.667  1.6379 -0.6734 -0.1179
29536SOL    HW291886   9.071   4.595   5.743  0.6900  3.3634  0.1498
29537SOL     OW91887   9.932  10.787   6.843 -0.0421 -0.5319  0.1676
29537SOL    HW191888   9.893  10.869   6.876  0.8913 -0.2776  0.6796
29537SOL    HW291889  10.010  10.815   6.797  1.4019 -1.2343  2.0494
29538SOL     OW91890  10.309   1.992   1.677 -0.0413 -0.3617  0.5782
29538SOL    HW191891  10.296   2.048   1.753  0.1490 -0.6798  0.8480
29538SOL    HW291892  10.391   2.022   1.638  0.5856 -1.0826  1.2910
29539SOL     OW91893   0.804   2.306   8.953  0.5277 -0.0661 -0.2087
29539SOL    HW191894   0.875   2.279   8.895  0.9485  1.7815 -0.6451
29539SOL    HW291895   0.736   2.338   8.894 -0.2526 -0.8416  0.2474
29540SOL     OW91896   8.935   9.119   0.274  0.1847  0.1445  0.6845
29540SOL    HW191897   8.915   9.201   0.319  0.3930  0.4436  0.2276
29540SOL    HW291898   8.985   9.144   0.197 -0.8119 -0.2997 -0.1310
29541SOL     OW91899   4.549   3.929   0.886 -0.4741  0.6163  0.3863
29541SOL    HW191900   4.497   3.956   0.961 -0.6719  0.5281  0.2811
29541SOL    HW291901   4.610   3.864   0.921  0.9115  2.1224  0.9274
29542SOL     OW91902   0.891   7.269   4.079 -0.2002  0.5161 -0.1277
29542SOL    HW191903   0.893   7.331   4.152  1.1751 -1.7305  1.9279
29542SOL    HW291904   0.798   7.260   4.057 -0.5941  1.7180  0.9153
29543SOL     OW91905   5.389   1.673   3.294  0.7456  0.3222  0.2322
29543SOL    HW191906   5.309   1.713   3.328  0.0885 -0.5348 -0.2684
29543SOL    HW291907   5.420   1.735   3.228  1.7691  1.7596  1.9965
29544SOL     OW91908   6.306   7.493   6.414  0.1899  0.5959  0.2159
29544SOL    HW191909   6.273   7.437   6.484  0.3086  1.5491  1.0543
29544SOL    HW291910   6.385   7.532   6.451 -0.2215  1.7838 -0.1249
29545SOL     OW91911   2.627   4.800   6.188  0.4086 -0.0076  0.0256
29545SOL    HW191912   2.625   4.816   6.094  3.4557  0.2716 -0.0940
29545SOL    HW291913   2.575   4.721   6.200 -1.5985  0.9736 -1.5738
29546SOL     OW91914   5.929   9.532   2.338 -0.4422  0.0569 -0.4798
29546SOL    HW191915   5.858   9.539   2.274  0.8165  0.0196 -1.9206
29546SOL    HW291916   6.006   9.508   2.287  0.5019 -0.5213  1.1285
29547SOL     OW91917   1.892   1.519   5.259 -0.2857 -0.2235  0.0956
29547SOL    HW191918   1.949   1.497   5.332 -0.9377 -0.2807  0.6000
29547SOL    HW291919   1.949   1.516   5.182  0.3626 -0.3657  0.5707
29548SOL     OW91920   2.095   4.785   9.801  0.0331 -0.0819  0.2097
29548SOL    HW191921   2.076   4.781   9.707  1.6177 -0.4698 -0.1161
29548SOL    HW291922   2.077   4.876   9.825  2.2370  0.7956 -1.1082
29549SOL     OW91923   9.107   0.509   1.411  0.0535  0.0132  0.3687
29549SOL    HW191924   9.154   0.498   1.494  1.1523 -0.6986 -0.3220
29549SOL    HW291925   9.046   0.581   1.428  0.6621  0.2791  1.6150
29550SOL     OW91926   8.853   8.210   0.146 -0.0142 -0.6106  0.0744
29550SOL    HW191927   8.795   8.219   0.070  0.8208 -0.8958 -0.6105
29550SOL    HW291928   8.828   8.127   0.185  0.0505 -0.8295 -0.3373
29551SOL     OW91929  10.918   7.966   9.437 -0.3245  0.1690  0.4035
29551SOL    HW191930  10.834   8.010   9.450  0.1187  1.2757 -0.3423
29551SOL    HW291931  10.961   7.969   9.523 -0.2185  1.4071  0.3251
29552SOL     OW91932   8.974  10.396   7.907 -0.0048  0.3616  0.0025
29552SOL    HW191933   8.960  10.303   7.926 -1.0819  0.6160  0.5463
29552SOL    HW291934   8.896  10.422   7.858  0.7378  0.7635 -1.0120
29553SOL     OW91935   6.331   5.130  10.771  0.2781  0.2826  0.4069
29553SOL    HW191936   6.295   5.096  10.689  1.0519 -0.9696  0.5590
29553SOL    HW291937   6.289   5.078  10.839  1.8532 -0.7806  0.6206
29554SOL     OW91938  10.897   9.306   9.748  0.2485 -0.6199  0.0408
29554SOL    HW191939  10.859   9.286   9.663 -0.2953  1.5133 -0.2583
29554SOL    HW291940  10.880   9.227   9.800 -2.5911 -0.6500 -0.7563
29555SOL     OW91941   2.051   6.577  10.933  0.2042  0.6838  0.1317
29555SOL    HW191942   2.030   6.522  10.858  0.7064  0.5860  0.0610
29555SOL    HW291943   2.092   6.655  10.895  1.3209  0.2189  0.3598
29556SOL     OW91944   7.604   8.312   5.657  0.2791  0.2564  0.0526
29556SOL    HW191945   7.550   8.233   5.650 -1.2157  1.2592 -0.3167
29556SOL    HW291946   7.689   8.286   5.622 -0.3647 -1.0276 -0.6350
29557SOL     OW91947   7.005   4.806   0.828 -0.1055  0.5190  0.2378
29557SOL    HW191948   7.048   4.809   0.914 -1.3557  0.0298  0.9105
29557SOL    HW291949   7.000   4.713   0.807  1.7955  0.6916 -1.2421
29558SOL     OW91950   1.409   9.763   0.746  0.3875  0.2136 -0.6699
29558SOL    HW191951   1.394   9.670   0.729  1.3912 -0.2768  0.9321
29558SOL    HW291952   1.322   9.802   0.741 -0.3202 -1.1300  0.3311
29559SOL     OW91953   4.988   3.750   1.300  0.4781  0.7831 -0.3617
29559SOL    HW191954   5.074   3.758   1.343 -0.1806 -1.6337  1.6674
29559SOL    HW291955   4.980   3.657   1.279 -1.9198  0.7815  0.2356
29560SOL     OW91956   8.991   5.974   8.662  0.0768  0.5212  0.3712
29560SOL    HW191957   8.950   5.922   8.593  0.5901  1.9135 -1.0284
29560SOL    HW291958   9.018   6.055   8.619  1.6950  0.8551  1.8896
29561SOL     OW91959   5.778   8.158   5.870  0.5898 -0.7373 -0.2570
29561SOL    HW191960   5.691   8.119   5.867  0.2979 -0.2521  1.0663
29561SOL    HW291961   5.798   8.166   5.963  1.0962  1.2189 -0.4789
29562SOL     OW91962   2.813   4.863   7.342 -0.4266 -0.0561  0.1893
29562SOL    HW191963   2.902   4.858   7.377 -0.6215 -0.4056  0.6448
29562SOL    HW291964   2.769   4.786   7.378 -0.4753 -0.7521 -1.2877
29563SOL     OW91965   7.821   1.852  10.854  0.1764  0.4529  0.1131
29563SOL    HW191966   7.866   1.843  10.938  1.2311 -1.3333 -0.5727
29563SOL    HW291967   7.733   1.816  10.870  0.1609  0.7011  0.5985
29564SOL     OW91968   0.836  10.031  10.950  0.2750 -0.2996  0.1816
29564SOL    HW191969   0.861  10.099  11.012  1.0657  0.5731 -1.0447
29564SOL    HW291970   0.746  10.008  10.975  0.0076  1.1454  0.6840
29565SOL     OW91971   2.818   1.847   7.632 -0.3525  0.1195  0.2999
29565SOL    HW191972   2.875   1.845   7.555 -0.2791  1.9499  0.2651
29565SOL    HW291973   2.732   1.868   7.598 -0.5241 -0.0554  0.6187
29566SOL     OW91974   6.250  11.002   4.385 -0.4858 -0.2093 -0.4833
29566SOL    HW191975   6.155  10.987   4.385 -0.1492 -2.8325 -0.9270
29566SOL    HW291976   6.280  10.968   4.469  0.0016  1.4602  0.0584
29567SOL     OW91977   1.264   3.652   1.510  0.2340 -0.1617 -0.1877
29567SOL    HW191978   1.272   3.746   1.493  0.7013 -0.1956 -0.1699
29567SOL    HW291979   1.338   3.632   1.568 -0.5811 -0.2929  0.8524
29568SOL     OW91980  10.413  10.118  10.845  0.4714  0.2433  0.5756
29568SOL    HW191981  10.394  10.200  10.890  1.3881  0.7084  0.1392
29568SOL    HW291982  10.362  10.052  10.893 -1.4966  1.2736 -0.0035
29569SOL     OW91983   0.231   4.516   5.043 -0.1091 -0.0490 -0.1378
29569SOL    HW191984   0.215   4.422   5.050 -0.9552  0.0692 -0.3425
29569SOL    HW291985   0.178   4.555   5.112 -3.8211  0.6365 -3.0340
29570SOL     OW91986   9.499  11.187   5.010 -0.0898 -0.1865  0.0784
29570SOL    HW191987   9.431  11.123   4.986 -1.1164  0.9197 -0.0393
29570SOL    HW291988   9.560  11.137   5.065 -1.0820 -1.1798  0.3224
29571SOL     OW91989   9.662   7.418   6.161 -0.2852 -0.3791  0.3003
29571SOL    HW191990   9.573   7.430   6.194 -1.2685 -1.0448 -1.9341
29571SOL    HW291991   9.674   7.323   6.159 -0.3124 -0.3731 -1.2615
29572SOL     OW91992   6.432   4.545   3.334 -0.0049  0.0687  0.6467
29572SOL    HW191993   6.465   4.516   3.419 -0.3679  0.3810  0.8968
29572SOL    HW291994   6.338   4.557   3.348 -0.1286 -0.2191  0.1064
29573SOL     OW91995   1.966   2.680   4.875  0.2914  0.1320 -0.0335
29573SOL    HW191996   1.909   2.669   4.798 -0.8100 -0.4705  0.8468
29573SOL    HW291997   2.028   2.607   4.870 -2.3910 -2.4656  1.8333
29574SOL     OW91998   2.586   4.626   7.465 -0.7250 -0.3757  0.2475
29574SOL    HW191999   2.569   4.653   7.375 -0.1972 -0.9025 -0.0172
29574SOL    HW292000   2.612   4.534   7.458  1.0704  0.0463  0.7317
29575SOL     OW92001   8.197   6.567   7.856 -0.2170  0.1574  0.1181
29575SOL    HW192002   8.206   6.527   7.943  0.9763 -1.0945 -0.5458
29575SOL    HW292003   8.286   6.593   7.832 -0.6963  1.5052 -0.2938
29576SOL     OW92004   4.905   4.566   9.326 -0.0343  0.4197 -0.0273
29576SOL    HW192005   4.885   4.659   9.312 -0.0258  0.1208 -2.5404
29576SOL    HW292006   4.837   4.536   9.387 -0.2977  1.9750  0.4928
29577SOL     OW92007   7.865   7.149  10.178 -0.4565  0.5972  0.5626
29577SOL    HW192008   7.851   7.085  10.248  1.4790 -0.2193  0.2568
29577SOL    HW292009   7.914   7.219  10.220 -1.1855  1.1462  0.5136
29578SOL     OW92010   6.844   0.810  10.645  0.7651 -0.5156  0.3104
29578SOL    HW192011   6.876   0.864  10.572  0.1501  0.2644  0.6080
29578SOL    HW292012   6.751   0.829  10.650  0.7342 -0.8348  1.0738
29579SOL     OW92013   1.772   6.584   1.857 -0.1203 -0.1543 -0.3443
29579SOL    HW192014   1.724   6.565   1.938  0.8966  2.8969  1.1432
29579SOL    HW292015   1.723   6.655   1.816  2.7997  3.1538  1.2842
29580SOL     OW92016  10.132   8.543   1.543 -0.8458 -0.2342 -0.1619
29580SOL    HW192017  10.226   8.563   1.543 -0.5872 -1.2342 -1.5210
29580SOL    HW292018  10.097   8.598   1.472 -0.8730 -1.4088 -1.0895
29581SOL     OW92019   3.629   4.148   0.039  0.1192  0.5639 -0.1295
29581SOL    HW192020   3.605   4.072  -0.014 -0.5044  0.0231  0.8932
29581SOL    HW292021   3.551   4.203   0.039  0.6791  1.3996 -1.1460
29582SOL     OW92022   5.662   2.865   5.219  0.1295  0.5826 -0.2084
29582SOL    HW192023   5.697   2.874   5.308 -0.4791  0.3754  0.0581
29582SOL    HW292024   5.666   2.772   5.201 -0.7574  0.4860  0.0308
29583SOL     OW92025   1.409   3.525  11.023 -0.0707 -0.4533  0.2738
29583SOL    HW192026   1.482   3.584  11.010  0.8803 -1.9748 -2.0994
29583SOL    HW292027   1.434   3.470  11.097  0.7878 -0.3556  0.0611
29584SOL     OW92028   8.174   4.288   5.527 -0.0175 -1.0392 -0.1416
29584SOL    HW192029   8.236   4.225   5.490  0.1151 -1.9210  1.4904
29584SOL    HW292030   8.205   4.373   5.497  1.5166 -1.5278 -0.0187
29585SOL     OW92031   7.133   5.976   2.264  0.3132 -0.1140  0.1672
29585SOL    HW192032   7.190   6.039   2.219  0.4509 -1.4113 -1.6393
29585SOL    HW292033   7.085   6.027   2.328  2.1756  1.3680  0.4675
29586SOL     OW92034   7.680   1.775   1.188 -0.2170 -0.5169  0.2146
29586SOL    HW192035   7.747   1.763   1.255 -2.7635  1.4530  3.3613
29586SOL    HW292036   7.630   1.694   1.187  0.6857 -1.0854 -0.4205
29587SOL     OW92037   6.467   4.468   3.609 -0.0282 -0.6546  0.2166
29587SOL    HW192038   6.525   4.535   3.644  1.0096 -0.7257 -1.2784
29587SOL    HW292039   6.455   4.406   3.682  1.3370 -0.3508  0.7362
29588SOL     OW92040   4.197  11.010  10.535  0.1972  0.0300 -0.3547
29588SOL    HW192041   4.261  11.081  10.542 -0.5525  0.7935 -1.0561
29588SOL    HW292042   4.200  10.967  10.620  0.5802  0.9820  0.1275
29589SOL     OW92043   1.671  10.510   0.496  0.1513  0.0869  0.0890
29589SOL    HW192044   1.597  10.452   0.512  0.6643 -0.7952 -0.6097
29589SOL    HW292045   1.665  10.577   0.564 -0.2773 -0.9614  1.1131
29590SOL     OW92046  11.385   6.394   2.365  0.5534  0.4128 -0.0150
29590SOL    HW192047  11.347   6.449   2.433 -1.3742  0.5241 -1.0997
29590SOL    HW292048  11.321   6.397   2.293  1.2842 -1.7287 -0.8411
29591SOL     OW92049   8.874  10.265   0.275  0.0865  0.0686 -0.0771
29591SOL    HW192050   8.883  10.234   0.365  0.1585 -0.0902 -0.1386
29591SOL    HW292051   8.788  10.231   0.247 -0.4666  1.1012  0.3190
29592SOL     OW92052   6.077   4.999  10.012  0.3025  0.3391  0.1490
29592SOL    HW192053   6.156   5.007   9.960 -0.1739  2.2075 -0.3453
29592SOL    HW292054   6.006   4.994   9.948 -0.1344  0.6617  0.6040
29593SOL     OW92055   9.195   6.757   7.152  0.6010 -0.4274 -0.5085
29593SOL    HW192056   9.137   6.693   7.109  0.1189 -0.7691  0.6144
29593SOL    HW292057   9.149   6.780   7.232 -0.3515  3.0518 -1.8664
29594SOL     OW92058   7.775  10.892  10.605 -0.4631  0.2858  0.1043
29594SOL    HW192059   7.735  10.810  10.574 -0.4377  0.8046 -1.3790
29594SOL    HW292060   7.804  10.872  10.694 -1.9035 -0.8283  0.3701
29595SOL     OW92061  10.323   3.946   4.854  0.7190 -0.1778  0.0193
29595SOL    HW192062  10.298   3.866   4.808 -0.4064 -0.0741  0.4455
29595SOL    HW292063  10.306   4.016   4.790 -0.3731 -0.0821  0.3954
29596SOL     OW92064   5.078   4.774   5.887 -0.5791  0.2861 -0.0724
29596SOL    HW192065   5.156   4.820   5.916  1.1754 -3.2933  1.4896
29596SOL    HW292066   5.013   4.791   5.955  0.0888  0.3329  0.5565
29597SOL     OW92067   5.724  11.356   7.276 -0.3602 -0.2681 -0.4050
29597SOL    HW192068   5.815  11.330   7.292 -0.8627 -0.8301  1.8701
29597SOL    HW292069   5.673  11.278   7.296 -1.3626 -0.1757 -2.3390
29598SOL     OW92070   9.812   5.808   0.965  0.4578  0.4280  0.1282
29598SOL    HW192071   9.770   5.754   0.897 -1.2922  0.6290  0.9818
29598SOL    HW292072   9.827   5.892   0.923 -3.4758  1.6096  0.7250
29599SOL     OW92073   3.213   9.110   1.892  0.0832  1.2852 -0.4922
29599SOL    HW192074   3.148   9.050   1.927 -0.2463  2.9893  2.0938
29599SOL    HW292075   3.295   9.084   1.933  0.4587  1.0425 -1.3700
29600SOL     OW92076   4.082   5.348   1.180  0.1841 -0.0951 -0.1856
29600SOL    HW192077   4.176   5.334   1.193  0.5091  2.5809  1.0869
29600SOL    HW292078   4.042   5.313   1.260 -0.0968 -2.3053 -1.2315
29601SOL     OW92079   3.053  11.087   4.894 -0.7195 -0.2303 -0.3292
29601SOL    HW192080   3.015  11.040   4.968  0.7723  0.9190  1.2319
29601SOL    HW292081   3.094  11.164   4.933  0.6392  0.0941 -2.2819
29602SOL     OW92082   1.671   4.099   3.293  0.2655  0.3892  0.0363
29602SOL    HW192083   1.641   4.093   3.203 -0.4335 -0.9034  0.3234
29602SOL    HW292084   1.713   4.015   3.310  2.3836  1.4392  0.2554
29603SOL     OW92085   0.180   3.351   4.522  0.3144  0.3033  0.2599
29603SOL    HW192086   0.134   3.268   4.518  1.0656 -0.1845  1.4464
29603SOL    HW292087   0.272   3.327   4.530  0.5395  1.2442  0.6182
29604SOL     OW92088   3.516   5.822   1.201  0.0231 -0.1661  0.2372
29604SOL    HW192089   3.507   5.914   1.225  0.2407  0.2702 -1.2269
29604SOL    HW292090   3.609   5.803   1.212 -0.3025 -0.7829  2.3383
29605SOL     OW92091   1.021   3.296  10.958  0.1103 -0.3809  0.1842
29605SOL    HW192092   1.067   3.240  10.895  0.2041 -0.1464  0.0425
29605SOL    HW292093   1.044   3.260  11.043  0.4350 -0.3598  0.1059
29606SOL     OW92094   4.990   0.044   3.374 -0.2868 -0.3002  0.2478
29606SOL    HW192095   5.074   0.018   3.411 -0.9152 -0.6523  1.5207
29606SOL    HW292096   5.010   0.116   3.314  0.6518  1.6269  2.7012
29607SOL     OW92097   4.462   9.621   1.011  0.1096  0.0637  0.1822
29607SOL    HW192098   4.486   9.559   1.081  0.7480 -1.4132 -1.2702
29607SOL    HW292099   4.442   9.566   0.936  0.8695  1.6290 -1.2410
29608SOL     OW92100   2.154  11.308   2.211  0.3999  0.5688  0.9973
29608SOL    HW192101   2.103  11.386   2.235 -1.3383 -0.0550 -0.4008
29608SOL    HW292102   2.091  11.253   2.164  2.2513 -0.5283 -0.3057
29609SOL     OW92103   3.488   2.486   6.473 -1.0849 -0.0064  0.0058
29609SOL    HW192104   3.453   2.455   6.557  1.2456  0.8027  1.3856
29609SOL    HW292105   3.431   2.558   6.448 -2.0119 -0.4684  0.7202
29610SOL     OW92106   9.092   4.375   9.487  0.2664 -0.3236 -0.6882
29610SOL    HW192107   9.031   4.324   9.434 -0.0724 -0.2815 -0.3431
29610SOL    HW292108   9.174   4.326   9.485 -0.1533 -1.0630 -0.0670
29611SOL     OW92109   3.506   4.279   4.052 -0.4723  0.0904 -0.4999
29611SOL    HW192110   3.573   4.267   4.120 -1.5719 -0.6589  0.4975
29611SOL    HW292111   3.522   4.208   3.990  0.4479  0.6897 -0.9625
29612SOL     OW92112   6.848   5.928   0.883  0.0376  0.7033  0.0692
29612SOL    HW192113   6.835   5.834   0.876  3.8716  0.0889 -1.8872
29612SOL    HW292114   6.927   5.937   0.937  1.1680  2.5178 -1.7065
29613SOL     OW92115   8.994   6.069   7.946 -0.0244  0.2735 -0.3565
29613SOL    HW192116   9.090   6.074   7.947  0.0641 -0.4286 -2.0393
29613SOL    HW292117   8.966   6.142   8.001  1.4764  0.0674  0.7439
29614SOL     OW92118   4.415   0.769   6.489  0.0454 -0.4361  0.6034
29614SOL    HW192119   4.482   0.793   6.425 -0.9800 -1.4779 -0.9317
29614SOL    HW292120   4.362   0.848   6.499 -0.9832 -0.7961 -1.4382
29615SOL     OW92121   2.021   4.531   0.086 -0.0645 -0.2500  0.3426
29615SOL    HW192122   2.070   4.485   0.155  0.9804 -0.8657 -0.7731
29615SOL    HW292123   2.068   4.614   0.075 -1.2741  0.6326  1.5610
29616SOL     OW92124  10.287   7.616   0.829  0.5211  0.7411 -0.2065
29616SOL    HW192125  10.353   7.593   0.764  1.3880  1.4910  0.3675
29616SOL    HW292126  10.207   7.574   0.799  1.3686 -0.5765 -0.6770
29617SOL     OW92127   8.887   0.445  11.063 -0.4673  0.2585 -0.2739
29617SOL    HW192128   8.819   0.393  11.023 -0.7948  0.5703 -0.1297
29617SOL    HW292129   8.861   0.536  11.047  0.5257  0.3978 -1.2692
29618SOL     OW92130   4.726   9.284   3.022 -0.3624 -0.2123 -0.2182
29618SOL    HW192131   4.706   9.377   3.016 -1.3218 -0.3663  0.4579
29618SOL    HW292132   4.789   9.277   3.093  0.5215  0.0257 -0.9537
29619SOL     OW92133   4.554  11.099   7.667  0.4901  0.5399 -0.0438
29619SOL    HW192134   4.575  11.153   7.743  0.7331 -0.3575  0.5416
29619SOL    HW292135   4.472  11.135   7.634  0.1778  0.6913  0.8825
29620SOL     OW92136  11.352   4.902   8.459 -0.1475  0.3202  0.8081
29620SOL    HW192137  11.319   4.981   8.417 -2.1718 -0.3915  0.9305
29620SOL    HW292138  11.282   4.837   8.448  0.8832 -1.0583  1.8655
29621SOL     OW92139   5.639   2.829   6.781 -0.6847 -0.1288  0.7116
29621SOL    HW192140   5.697   2.862   6.712 -0.7135 -1.8133 -0.1728
29621SOL    HW292141   5.638   2.898   6.847  2.7419 -0.2232  1.0187
29622SOL     OW92142   7.477  11.244   4.297 -0.5311 -0.2382  0.4588
29622SOL    HW192143   7.544  11.188   4.336 -1.1313 -0.2538  1.5031
29622SOL    HW292144   7.417  11.183   4.254 -0.2746 -0.2729  0.1454
29623SOL     OW92145   0.700   8.036   7.491 -0.2888 -0.3655 -0.0708
29623SOL    HW192146   0.675   7.967   7.430 -1.2673 -0.6054  0.5789
29623SOL    HW292147   0.755   7.991   7.556 -0.5575 -0.4335  0.1071
29624SOL     OW92148   2.494   8.541   7.388  0.0750 -0.2587 -0.8635
29624SOL    HW192149   2.539   8.532   7.304  0.5792 -0.2324 -0.5974
29624SOL    HW292150   2.475   8.635   7.394 -0.2850 -0.3114 -1.1089
29625SOL     OW92151   9.761   6.516   9.585 -0.0695 -0.1140  0.0490
29625SOL    HW192152   9.840   6.472   9.553 -0.0723 -1.0905  1.3274
29625SOL    HW292153   9.700   6.444   9.606 -1.0151  0.5959 -0.1821
29626SOL     OW92154   8.164   7.746   4.613  0.3012  0.0589 -0.8544
29626SOL    HW192155   8.144   7.839   4.607  0.4345  0.0984 -0.7166
29626SOL    HW292156   8.190   7.733   4.704  0.9950  0.0358 -1.0496
29627SOL     OW92157   8.658   3.936   5.694  0.3761  0.6031 -0.2252
29627SOL    HW192158   8.650   3.889   5.611 -2.4005  1.3732 -0.4770
29627SOL    HW292159   8.753   3.949   5.704  0.9573 -1.5201 -2.0730
29628SOL     OW92160   3.119   6.897   1.471  0.1274 -0.0273 -0.1954
29628SOL    HW192161   3.160   6.965   1.419 -0.3723  0.5598  0.1710
29628SOL    HW292162   3.026   6.904   1.451  0.1178 -0.8852 -0.4841
29629SOL     OW92163  10.293  10.724   3.447 -0.1619 -0.1138  0.0323
29629SOL    HW192164  10.252  10.773   3.519 -0.9731 -1.0137  0.2083
29629SOL    HW292165  10.381  10.705   3.478  0.1057  1.0693  0.0328
29630SOL     OW92166   4.218   5.914   1.177  0.3161  0.6223 -0.1307
29630SOL    HW192167   4.205   5.824   1.148  1.1367  0.2837  0.5324
29630SOL    HW292168   4.145   5.962   1.137 -0.2854 -0.3761 -0.2706
29631SOL     OW92169   0.288   8.476   5.776  0.5114 -0.1980  0.2110
29631SOL    HW192170   0.266   8.424   5.853  0.1876 -0.9322 -0.3700
29631SOL    HW292171   0.312   8.562   5.812 -0.2481 -0.3318  1.0855
29632SOL     OW92172  10.079   4.280  10.841  0.7297  0.0398 -0.2239
29632SOL    HW192173  10.043   4.228  10.769 -0.2435  0.7039 -0.2363
29632SOL    HW292174  10.148   4.225  10.878  0.3689 -0.8561 -0.8406
29633SOL     OW92175  10.741  10.647   2.769 -0.6866  0.6611  0.3441
29633SOL    HW192176  10.674  10.580   2.758  0.2885 -0.1585 -0.9443
29633SOL    HW292177  10.810  10.605   2.819 -0.4745  1.0111  0.3552
29634SOL     OW92178   7.145   9.059   6.628  0.2623 -0.0996 -0.0316
29634SOL    HW192179   7.222   9.014   6.663  1.3928  2.8497  1.6065
29634SOL    HW292180   7.082   9.058   6.700  0.4647  1.2299  0.1789
29635SOL     OW92181   8.199   9.071   1.453  0.2683 -0.1096 -0.3924
29635SOL    HW192182   8.272   9.043   1.398  0.7175 -1.0463  0.6424
29635SOL    HW292183   8.141   8.995   1.455  1.9040 -1.4791  3.1414
29636SOL     OW92184   2.159  10.964   2.423 -0.0142  0.5515  0.1467
29636SOL    HW192185   2.251  10.967   2.394  0.2404 -1.5619  0.5852
29636SOL    HW292186   2.110  10.994   2.347  0.9179 -0.6433 -0.9836
29637SOL     OW92187   0.613   3.437   9.587 -0.5327 -0.1314 -0.1446
29637SOL    HW192188   0.665   3.393   9.654  2.6704  0.3267 -2.0951
29637SOL    HW292189   0.612   3.529   9.614  1.0641  0.1167 -0.7535
29638SOL     OW92190   2.736   1.100   0.147  0.2866 -0.0734 -0.0177
29638SOL    HW192191   2.653   1.133   0.181  0.0808 -1.7446  1.2061
29638SOL    HW292192   2.763   1.166   0.083 -1.6205  0.8569  0.0581
29639SOL     OW92193   5.794   4.600   1.601 -0.2551  0.0256  0.2082
29639SOL    HW192194   5.718   4.655   1.622 -0.6724 -0.7124  0.6394
29639SOL    HW292195   5.773   4.562   1.516  0.2562  0.9085 -0.3311
29640SOL     OW92196   2.663   0.485   3.622  0.3803 -0.1560  0.3778
29640SOL    HW192197   2.674   0.390   3.632  0.9775 -0.0230  1.0556
29640SOL    HW292198   2.639   0.515   3.709 -3.4117 -0.1148 -0.5110
29641SOL     OW92199   4.181   9.130   3.721  0.4312 -0.0371  0.3787
29641SOL    HW192200   4.165   9.111   3.814 -0.2537 -0.3907  0.1999
29641SOL    HW292201   4.232   9.055   3.690 -1.4267 -1.1802 -0.0904
29642SOL     OW92202   0.227   4.641   0.904  0.2399  0.0664  0.0687
29642SOL    HW192203   0.207   4.598   0.820  0.4911 -0.6685  0.3794
29642SOL    HW292204   0.150   4.695   0.921 -0.2938 -0.6101 -0.1086
29643SOL     OW92205   4.637   0.330  11.227 -0.4630 -0.0111  0.6867
29643SOL    HW192206   4.708   0.379  11.185 -1.0313  0.1256 -0.1411
29643SOL    HW292207   4.668   0.239  11.227 -0.0535  0.1274  0.8375
29644SOL     OW92208   3.236   9.331   4.323  0.3272  0.0424  0.3089
29644SOL    HW192209   3.282   9.359   4.244  0.6551  0.0043  0.4860
29644SOL    HW292210   3.189   9.252   4.296  0.5156 -0.0256  0.1782
29645SOL     OW92211   9.536   5.195   1.881  0.2509 -0.1872 -0.1295
29645SOL    HW192212   9.603   5.258   1.907  0.1740 -0.0223 -0.3237
29645SOL    HW292213   9.454   5.234   1.911  0.3294 -0.8929  1.0592
29646SOL     OW92214   2.829   6.655  10.838  0.3881  0.1533 -0.7145
29646SOL    HW192215   2.777   6.675  10.916  1.0521  1.5278 -0.5758
29646SOL    HW292216   2.871   6.739  10.816  2.2973 -0.8079 -0.9699
29647SOL     OW92217   1.932   2.226  10.390  0.2024 -0.5051  0.3115
29647SOL    HW192218   1.999   2.294  10.384  0.7008 -1.0286 -0.1339
29647SOL    HW292219   1.952   2.179  10.471  0.0098 -0.2878  0.4879
29648SOL     OW92220   8.516   1.693   8.334 -0.1183 -0.2773 -0.4316
29648SOL    HW192221   8.443   1.725   8.388  0.2586  1.1203 -0.7333
29648SOL    HW292222   8.485   1.608   8.301 -1.2946 -0.0655  0.0735
29649SOL     OW92223   0.655   8.232  11.086  0.0042  0.1918  0.5882
29649SOL    HW192224   0.675   8.142  11.115 -0.2975  0.0796  0.4463
29649SOL    HW292225   0.708   8.244  11.007 -0.4474 -0.0883  0.2403
29650SOL     OW92226   2.610   5.870   1.827 -0.1433  0.1331 -0.1406
29650SOL    HW192227   2.613   5.775   1.830 -0.5706  0.1252  2.0839
29650SOL    HW292228   2.539   5.890   1.765  0.0625 -0.9628 -0.7519
29651SOL     OW92229   7.630  10.285   1.611  0.3012 -0.2013 -0.1314
29651SOL    HW192230   7.599  10.236   1.687 -1.1389  1.8026  0.6777
29651SOL    HW292231   7.583  10.247   1.537 -1.2101  0.2582  0.5506
29652SOL     OW92232   6.328   6.182   1.889 -0.0896 -0.4117  0.0122
29652SOL    HW192233   6.383   6.235   1.946 -0.0912  0.6027 -0.8930
29652SOL    HW292234   6.248   6.168   1.940 -1.2058  2.7359 -0.6224
29653SOL     OW92235  10.709   2.623   4.538 -0.5937 -0.2570  0.2056
29653SOL    HW192236  10.688   2.559   4.606  1.7182 -0.6191  0.6715
29653SOL    HW292237  10.783   2.672   4.574  0.1459  0.1020 -1.7041
29654SOL     OW92238   7.311   4.572   5.165  0.1349 -0.3473  0.1545
29654SOL    HW192239   7.380   4.638   5.177  0.3560 -0.3247 -1.1457
29654SOL    HW292240   7.344   4.516   5.096 -1.0713 -0.4559 -0.3467
29655SOL     OW92241   2.721   4.008   5.857 -0.1007  0.7728 -0.2091
29655SOL    HW192242   2.800   4.043   5.817 -0.1330  1.5316  0.3811
29655SOL    HW292243   2.711   4.056   5.939  0.8043 -1.7459  1.5105
29656SOL     OW92244   2.504   7.019   2.481 -0.6912 -0.3451 -0.1832
29656SOL    HW192245   2.490   6.924   2.478 -0.5991 -0.3495 -1.9204
29656SOL    HW292246   2.419   7.056   2.456 -0.9235  0.0801  1.1525
29657SOL     OW92247   8.302   6.720   4.911 -0.6197  0.3332  0.3296
29657SOL    HW192248   8.252   6.638   4.918  1.0686 -1.0688 -2.1014
29657SOL    HW292249   8.272   6.773   4.984 -3.9211 -1.2933  0.3447
29658SOL     OW92250   3.778   4.912  10.079  0.4074  0.2571 -0.2640
29658SOL    HW192251   3.807   4.887  10.167  0.9820 -0.6313 -0.6927
29658SOL    HW292252   3.851   4.888  10.022 -0.6141 -0.7252 -1.1969
29659SOL     OW92253   4.319  10.648   0.418  0.1255 -0.5175  0.0675
29659SOL    HW192254   4.367  10.725   0.388 -1.4010  1.1507  1.7010
29659SOL    HW292255   4.331  10.584   0.348  1.7365  1.0606 -1.1826
29660SOL     OW92256  10.659   3.827   2.701  0.2358  0.3935 -0.4539
29660SOL    HW192257  10.743   3.853   2.665 -0.6751  1.2920 -2.0238
29660SOL    HW292258  10.603   3.812   2.625 -0.3474 -2.8088  0.4179
29661SOL     OW92259   0.387   6.041   5.912  0.5684 -0.0406  0.4145
29661SOL    HW192260   0.410   6.103   5.981  0.6416  0.5380 -0.1216
29661SOL    HW292261   0.306   5.999   5.942  0.3340  0.5628  0.6255
29662SOL     OW92262   0.653   8.069   1.422 -0.1982  0.4579 -0.6604
29662SOL    HW192263   0.577   8.127   1.408 -0.9967 -0.3204  0.2857
29662SOL    HW292264   0.633   7.991   1.369  0.0329  0.3287 -0.5561
29663SOL     OW92265   7.229   2.880   5.270 -0.6616 -0.0015 -0.2856
29663SOL    HW192266   7.219   2.952   5.332 -1.3247 -2.9144  3.3014
29663SOL    HW292267   7.157   2.820   5.290  0.8590 -2.5471 -1.8454
29664SOL     OW92268   7.331   2.661  10.505  0.0223 -0.0644 -0.1751
29664SOL    HW192269   7.376   2.621  10.431  0.8049  0.7287 -0.1505
29664SOL    HW292270   7.398   2.714  10.548 -0.3659 -0.6617  1.2186
29665SOL     OW92271   7.406   5.453   7.149 -0.3005  0.2384  0.6702
29665SOL    HW192272   7.327   5.471   7.098 -0.5123  0.1035  0.9458
29665SOL    HW292273   7.376   5.398   7.221  0.1154 -0.1570  0.5503
29666SOL     OW92274   2.002   3.608   5.883 -0.2325  0.3238 -0.2349
29666SOL    HW192275   1.931   3.544   5.885 -0.7805  0.9115 -0.4194
29666SOL    HW292276   2.053   3.591   5.962 -0.5691 -0.1189 -0.1116
29667SOL     OW92277   3.131   8.496   7.407  0.1441  0.0251  0.4279
29667SOL    HW192278   3.100   8.408   7.427 -1.3951  0.4424 -0.0096
29667SOL    HW292279   3.218   8.500   7.447  0.4726 -1.8561 -0.0101
29668SOL     OW92280   7.342   9.051   7.581  0.3807 -0.3153 -0.2288
29668SOL    HW192281   7.400   9.011   7.646 -1.0753 -2.2219 -0.0093
29668SOL    HW292282   7.292   9.116   7.630  0.5126 -0.5022  0.1594
29669SOL     OW92283   3.008   6.869   3.148 -0.4479  0.1371 -0.6387
29669SOL    HW192284   2.992   6.916   3.066 -1.8942 -0.0644 -0.5086
29669SOL    HW292285   3.003   6.937   3.216 -0.6045  0.0946 -0.6077
29670SOL     OW92286   1.861   4.514   1.056 -0.4586  0.1508  0.5302
29670SOL    HW192287   1.792   4.448   1.064 -0.9565  0.7035  0.8258
29670SOL    HW292288   1.859   4.562   1.139  0.0241  0.4195  0.3916
29671SOL     OW92289   6.988   3.629   9.355  0.1721 -0.0811  0.0782
29671SOL    HW192290   6.895   3.652   9.362  0.4915  1.0696  0.7170
29671SOL    HW292291   6.996   3.551   9.410 -0.4234 -0.2110 -0.0076
29672SOL     OW92292   3.370   6.662   5.038 -0.2863  0.1022  0.1307
29672SOL    HW192293   3.387   6.572   5.066 -0.8587 -0.3633 -0.9503
29672SOL    HW292294   3.454   6.706   5.046  0.2688 -0.8263 -0.3622
29673SOL     OW92295   0.698   6.491  10.931 -0.1819  0.1654  0.1469
29673SOL    HW192296   0.636   6.467  11.001 -0.8081  1.0724 -0.0801
29673SOL    HW292297   0.778   6.515  10.978  0.4203 -2.0870  0.3989
29674SOL     OW92298   7.390   5.544  10.976  0.2880  0.1233  0.1286
29674SOL    HW192299   7.308   5.550  11.024  0.9101 -0.0250  1.2443
29674SOL    HW292300   7.367   5.502  10.894 -0.6401 -0.5198  0.7046
29675SOL     OW92301  11.176   3.947   0.147 -0.7284 -0.2444 -1.3392
29675SOL    HW192302  11.101   3.972   0.094 -1.4996  0.1670 -0.0976
29675SOL    HW292303  11.138   3.911   0.227  0.3641  0.7801 -0.3132
29676SOL     OW92304   9.643   3.434   9.042 -0.6941 -0.0024 -0.5707
29676SOL    HW192305   9.562   3.392   9.012 -1.8595  0.8066  1.2792
29676SOL    HW292306   9.653   3.511   8.985 -1.2111 -0.1209 -0.8264
29677SOL     OW92307  11.232   8.909   6.498 -0.1896 -0.2988  0.2366
29677SOL    HW192308  11.321   8.935   6.522 -0.9206  0.7153  2.0576
29677SOL    HW292309  11.212   8.960   6.420 -1.3378  4.5961  3.3001
29678SOL     OW92310   2.340   8.303  10.615 -0.1518  0.0607  0.0412
29678SOL    HW192311   2.262   8.290  10.560 -0.4664  1.4293  0.1319
29678SOL    HW292312   2.413   8.283  10.557 -0.5441 -2.8029  0.3892
29679SOL     OW92313  10.077   5.984   8.651  0.8440  0.0405 -0.0740
29679SOL    HW192314  10.165   5.994   8.615 -0.0117  1.7356 -1.9038
29679SOL    HW292315  10.030   5.934   8.584 -0.2202  1.3991 -0.3942
29680SOL     OW92316  10.351   9.168   1.133 -0.4582 -0.0378 -0.0583
29680SOL    HW192317  10.334   9.093   1.076  1.2584 -0.1646 -0.4540
29680SOL    HW292318  10.378   9.238   1.074  1.0710 -0.0862  0.5246
29681SOL     OW92319   3.020   5.198   3.823 -0.2194  0.3012  0.0484
29681SOL    HW192320   3.075   5.120   3.813 -0.0829  0.4072 -0.0284
29681SOL    HW292321   2.993   5.221   3.734  2.0494  2.0034 -0.2901
29682SOL     OW92322   6.801   2.952   0.482  0.3488  0.2583  0.3346
29682SOL    HW192323   6.797   2.906   0.566  1.4340 -0.0465  0.2278
29682SOL    HW292324   6.763   3.039   0.501 -0.2311 -0.1082  0.9111
29683SOL     OW92325  10.547   1.569   0.522  0.1863 -0.2894 -0.3320
29683SOL    HW192326  10.609   1.541   0.590  0.6627 -0.9616 -1.0165
29683SOL    HW292327  10.477   1.504   0.526  0.8328 -1.0880 -1.2953
29684SOL     OW92328   4.842   9.361   0.379 -0.0241  0.1536  0.4727
29684SOL    HW192329   4.760   9.397   0.345  0.4255  0.1688 -0.6519
29684SOL    HW292330   4.833   9.365   0.474 -0.6442  1.7132  0.3745
29685SOL     OW92331   1.286   4.826   9.327 -0.6039 -0.0713 -0.2596
29685SOL    HW192332   1.274   4.745   9.278  2.7624 -1.1563  0.4426
29685SOL    HW292333   1.252   4.806   9.414  0.8381 -1.0701  0.1156
29686SOL     OW92334   8.847   1.000  10.310  0.6948 -0.5512  0.3781
29686SOL    HW192335   8.876   0.974  10.222 -1.8017 -0.8419 -0.4580
29686SOL    HW292336   8.919   1.052  10.345  1.3399  0.5199 -2.2985
29687SOL     OW92337   1.409   2.979   0.371 -0.9688  0.3258  0.0894
29687SOL    HW192338   1.395   3.009   0.281 -0.1448 -0.7126 -0.4019
29687SOL    HW292339   1.448   3.054   0.415  1.5288 -0.0785 -1.2468
29688SOL     OW92340   5.675  11.121   4.454 -0.3060  0.0414  0.6178
29688SOL    HW192341   5.690  11.119   4.548  0.8512  0.2344  0.4581
29688SOL    HW292342   5.660  11.213   4.433 -0.0004  0.0746  0.5393
29689SOL     OW92343   4.241   8.986   8.256  0.4127 -0.1734  0.0743
29689SOL    HW192344   4.327   8.959   8.225  1.7799  1.7437  1.9533
29689SOL    HW292345   4.241   8.967   8.349 -1.5193 -0.7874  0.0020
29690SOL     OW92346   8.221   0.829   1.255  0.2078  0.1010  0.4035
29690SOL    HW192347   8.304   0.781   1.256 -0.3292 -0.8825  1.9967
29690SOL    HW292348   8.247   0.921   1.255  1.2631 -0.1356 -1.2499
29691SOL     OW92349   3.014   4.933   9.807 -0.1544 -0.4926  0.4565
29691SOL    HW192350   3.057   4.951   9.724  0.5040  1.8252  1.2081
29691SOL    HW292351   3.031   4.841   9.824  2.9865 -0.1439 -0.1778
29692SOL     OW92352   4.946   7.121   6.300 -0.0327  0.5801  0.0085
29692SOL    HW192353   5.015   7.183   6.275 -0.3140  0.7044 -0.4595
29692SOL    HW292354   4.993   7.052   6.347  0.3409  0.9242  0.1495
29693SOL     OW92355   4.648   9.736   8.159  0.0087  0.1309 -0.5810
29693SOL    HW192356   4.643   9.714   8.253 -1.1993  1.4133 -0.3168
29693SOL    HW292357   4.741   9.757   8.145  0.0596  0.7785  0.5420
29694SOL     OW92358  10.990   0.220  10.851 -0.1447  0.5581  0.0361
29694SOL    HW192359  11.051   0.294  10.846 -0.2961  0.7268  0.6126
29694SOL    HW292360  11.024   0.157  10.788  2.1872 -0.4887  2.1712
29695SOL     OW92361   9.917   2.224   4.327  0.0228  0.2442 -0.1636
29695SOL    HW192362   9.951   2.313   4.336 -0.1971  0.2698  0.4504
29695SOL    HW292363   9.992   2.173   4.298  0.3187  0.5024  0.1428
29696SOL     OW92364  10.863   0.327   5.502 -0.6037 -0.3309 -0.2111
29696SOL    HW192365  10.815   0.409   5.513 -0.2911 -0.0615 -0.8453
29696SOL    HW292366  10.921   0.323   5.578 -0.7560 -0.0634 -0.0783
29697SOL     OW92367   3.931   0.340   2.269  0.2618 -0.2137 -0.0550
29697SOL    HW192368   3.943   0.352   2.175 -1.2698 -1.4151 -0.4576
29697SOL    HW292369   3.873   0.263   2.276  0.5405 -0.2990  1.8726
29698SOL     OW92370   0.470   0.730   8.389 -0.7885  0.0650 -0.5802
29698SOL    HW192371   0.500   0.649   8.431 -1.6412  1.2569  2.7052
29698SOL    HW292372   0.410   0.701   8.321 -1.8143 -2.1243  1.0923
29699SOL     OW92373  10.250   1.943  10.307  0.6645  0.3462 -0.0710
29699SOL    HW192374  10.280   1.967  10.395 -1.8664 -1.1884  1.3202
29699SOL    HW292375  10.170   1.995  10.294 -1.3195 -2.3970  0.3584
29700SOL     OW92376   2.501   4.556   4.317  0.2065 -0.6133 -0.1492
29700SOL    HW192377   2.427   4.586   4.265  1.4532  2.0954 -0.5627
29700SOL    HW292378   2.504   4.616   4.392 -0.1540 -2.9839  1.8975
29701SOL     OW92379   1.267   8.482  10.800  0.5203 -0.0827 -0.0338
29701SOL    HW192380   1.299   8.572  10.796 -0.2179  0.1767 -0.2013
29701SOL    HW292381   1.172   8.491  10.813  0.5626 -0.8378  0.8454
29702SOL     OW92382   4.220   2.526   9.241 -0.0487 -0.0307 -0.4842
29702SOL    HW192383   4.250   2.571   9.162 -1.2446  2.1901  0.2647
29702SOL    HW292384   4.131   2.498   9.221  0.6073 -1.9758 -0.8660
29703SOL     OW92385   6.925   5.913   9.637 -0.1302 -0.0406 -0.3845
29703SOL    HW192386   6.931   5.882   9.547 -0.7637 -0.3003 -0.3380
29703SOL    HW292387   7.014   5.944   9.658  0.0295 -0.0296 -1.0741
29704SOL     OW92388  10.726   2.380   4.680 -0.4018 -0.2233 -0.0249
29704SOL    HW192389  10.773   2.413   4.756  0.6205  0.8716 -1.0860
29704SOL    HW292390  10.787   2.320   4.638 -0.1328  0.7764 -1.1076
29705SOL     OW92391  10.599   7.754   3.047  0.1912  0.4599 -0.3322
29705SOL    HW192392  10.583   7.664   3.076  0.4100 -0.0081 -1.5834
29705SOL    HW292393  10.629   7.800   3.126 -0.8577 -0.3091  0.5382
29706SOL     OW92394   4.464   7.609   6.550 -0.3158  0.0176  0.2861
29706SOL    HW192395   4.550   7.566   6.551 -1.0116 -1.4256  0.0680
29706SOL    HW292396   4.459   7.655   6.634 -0.1000 -1.4922  1.1548
29707SOL     OW92397   2.895   9.614   3.317  0.3687 -0.0151  0.0465
29707SOL    HW192398   2.934   9.700   3.337  0.0233 -0.0253  0.7936
29707SOL    HW292399   2.910   9.562   3.396  0.8407 -0.7491 -0.5144
29708SOL     OW92400   1.266   7.280   2.902 -0.0370  0.1347 -0.5566
29708SOL    HW192401   1.218   7.285   2.985  2.0333  0.3369  0.6980
29708SOL    HW292402   1.315   7.363   2.898  0.3090 -0.1130 -1.7261
29709SOL     OW92403   4.571   2.625   5.211 -0.5970 -0.0622  0.2983
29709SOL    HW192404   4.626   2.635   5.133 -2.2669 -1.2930 -1.0918
29709SOL    HW292405   4.505   2.693   5.202  0.5723  1.3994  1.9593
29710SOL     OW92406   2.891   1.239   7.787  0.1113  0.1039 -0.1509
29710SOL    HW192407   2.852   1.323   7.811  0.8033  0.0387  1.2863
29710SOL    HW292408   2.981   1.261   7.761  0.4214 -0.2247  0.6204
29711SOL     OW92409   4.755   6.591   6.091 -0.1399  0.2463  0.3334
29711SOL    HW192410   4.787   6.540   6.165  0.7903 -1.9151 -1.4461
29711SOL    HW292411   4.796   6.677   6.101  1.5777 -0.6332  1.2272
29712SOL     OW92412   4.558   0.216   2.748  0.2570  0.3659 -0.9697
29712SOL    HW192413   4.650   0.192   2.761 -0.3334 -1.2576  0.6674
29712SOL    HW292414   4.513   0.180   2.825 -1.6873  1.5659 -1.4772
29713SOL     OW92415   1.157   5.005   0.548 -0.2356  0.0535 -0.0300
29713SOL    HW192416   1.085   5.058   0.581 -0.5550 -0.7326  0.5807
29713SOL    HW292417   1.236   5.052   0.574 -0.5118  0.1792  0.5834
29714SOL     OW92418   5.401  10.435   8.984 -0.0684 -0.6754 -0.2586
29714SOL    HW192419   5.310  10.453   9.005 -0.4925 -1.1599 -1.5817
29714SOL    HW292420   5.451  10.489   9.046 -1.2388  0.9497 -0.6698
29715SOL     OW92421   0.325   1.340   0.538  0.3752  0.4637 -0.2133
29715SOL    HW192422   0.348   1.271   0.601 -0.1617  0.7098  0.2568
29715SOL    HW292423   0.275   1.295   0.470  0.1615  0.3573  0.0126
29716SOL     OW92424  10.319   6.006   5.667  0.0236  0.5551 -0.1231
29716SOL    HW192425  10.336   6.065   5.594  2.2497 -0.9061 -0.8688
29716SOL    HW292426  10.319   5.919   5.629 -1.0177 -0.1107  1.2928
29717SOL     OW92427   7.255   1.246   9.234 -0.6362 -0.0041 -0.1245
29717SOL    HW192428   7.181   1.200   9.194  0.5721 -2.3941  0.2550
29717SOL    HW292429   7.235   1.248   9.327 -0.3752 -0.3465 -0.0620
29718SOL     OW92430   4.401  10.038  10.957  0.1463 -0.5065 -0.3912
29718SOL    HW192431   4.321  10.089  10.973  0.3375 -0.3674  0.1084
29718SOL    HW292432   4.369   9.949  10.942  0.0858 -1.3266  3.5492
29719SOL     OW92433  10.744   3.217   8.643  0.0563  0.7325 -0.1891
29719SOL    HW192434  10.711   3.129   8.661  1.0683  0.4976  0.6249
29719SOL    HW292435  10.796   3.207   8.564 -1.9691  1.1617 -1.6438
29720SOL     OW92436   9.641   9.151   5.284 -0.6384 -0.0122 -0.2953
29720SOL    HW192437   9.669   9.238   5.315 -1.1179 -0.1066  0.4386
29720SOL    HW292438   9.666   9.091   5.355 -0.6065 -0.4228 -0.6505
29721SOL     OW92439   7.604  10.358   6.436  0.2362 -0.4964 -0.2720
29721SOL    HW192440   7.606  10.281   6.379 -0.9554 -0.9252  0.2405
29721SOL    HW292441   7.521  10.351   6.483 -0.7056  1.9503 -1.3838
29722SOL     OW92442   5.895   2.402   6.772  0.1032 -0.5463  0.0234
29722SOL    HW192443   5.866   2.314   6.747 -0.5538 -0.7097  1.2890
29722SOL    HW292444   5.815   2.451   6.788  0.4676  0.2856 -0.6500
29723SOL     OW92445   9.663   1.523   8.594  0.1137  0.0158  0.7349
29723SOL    HW192446   9.576   1.556   8.614 -0.2278 -1.1682  1.3007
29723SOL    HW292447   9.649   1.457   8.526  0.5106 -0.4887  1.1335
29724SOL     OW92448   9.024   1.302  11.069  0.7620  0.2206  0.2385
29724SOL    HW192449   9.033   1.296  10.974 -1.1985 -1.6485  0.0894
29724SOL    HW292450   9.012   1.212  11.098  1.5565  0.7270  2.3086
29725SOL     OW92451   8.486   5.253   1.342 -1.0550  0.3540 -0.5599
29725SOL    HW192452   8.518   5.181   1.397  0.2047 -0.9540 -2.8350
29725SOL    HW292453   8.529   5.331   1.377 -0.5710 -0.3684  0.5023
29726SOL     OW92454   6.603  10.157   3.082 -0.1988 -0.1102  0.0135
29726SOL    HW192455   6.606  10.063   3.096 -0.1804 -0.2446 -0.8500
29726SOL    HW292456   6.516  10.183   3.111 -1.5958 -0.9670 -3.0053
29727SOL     OW92457  10.209   6.847   9.917 -0.5974 -0.4153  0.0026
29727SOL    HW192458  10.217   6.930   9.963  0.7172  0.2616 -1.3758
29727SOL    HW292459  10.193   6.783   9.986  0.4486  0.6786  1.3194
29728SOL     OW92460   1.955   5.466  10.043 -0.4507 -0.1948  0.6151
29728SOL    HW192461   1.893   5.396  10.064 -0.0632 -0.9887 -0.7751
29728SOL    HW292462   2.036   5.420  10.022  0.6799  0.8300  2.4987
29729SOL     OW92463   8.940   7.490   7.612 -0.3455  0.1544 -0.0069
29729SOL    HW192464   8.873   7.506   7.678 -0.9065  1.3967 -0.8458
29729SOL    HW292465   8.969   7.577   7.586  0.1954 -0.3255 -1.0695
29730SOL     OW92466   8.917   4.797   6.070  0.1507  0.2145  0.1615
29730SOL    HW192467   8.868   4.848   6.133  0.0762 -2.3663  2.3624
29730SOL    HW292468   8.951   4.862   6.008 -0.2568  2.8403  2.4839
29731SOL     OW92469   8.050   1.193   4.951 -0.0376  0.1196 -0.2558
29731SOL    HW192470   8.041   1.285   4.926 -0.8089  0.7217  1.9854
29731SOL    HW292471   8.075   1.148   4.871 -0.2432  2.1934 -1.5374
29732SOL     OW92472   3.461   3.660   7.612  0.5546  0.0693 -0.3450
29732SOL    HW192473   3.455   3.755   7.608  1.1134  0.0754 -1.0680
29732SOL    HW292474   3.547   3.639   7.578  0.9756 -0.6282  1.0567
29733SOL     OW92475   4.509   7.322   2.824  0.1412 -0.0222  0.6068
29733SOL    HW192476   4.433   7.371   2.793 -0.7661  0.4045  3.2916
29733SOL    HW292477   4.570   7.389   2.854  0.8058 -0.4272  0.1875
29734SOL     OW92478   1.666   4.757   8.589 -0.1644  0.4426  0.9883
29734SOL    HW192479   1.685   4.833   8.643 -0.1283  1.1345  0.0302
29734SOL    HW292480   1.704   4.779   8.503  0.7687 -1.0792  0.9676
29735SOL     OW92481   7.495  10.553   6.893 -0.0127 -0.0041 -0.4806
29735SOL    HW192482   7.548  10.485   6.852  1.8891  1.8234 -1.2575
29735SOL    HW292483   7.544  10.577   6.972  1.4170  2.8302 -2.0221
29736SOL     OW92484   6.784   5.994   7.308  0.6114  0.6374  0.2345
29736SOL    HW192485   6.795   5.909   7.265  0.2617  0.5510  0.3142
29736SOL    HW292486   6.689   6.004   7.317  0.6825  0.5511  1.1943
29737SOL     OW92487  10.167  10.872   6.734 -0.2227 -0.2116 -0.9285
29737SOL    HW192488  10.184  10.782   6.706 -1.1731 -0.6961 -0.0270
29737SOL    HW292489  10.244  10.921   6.705  0.3919 -1.3408 -1.2761
29738SOL     OW92490   3.707   9.620   9.573  0.0886 -0.3295 -0.5268
29738SOL    HW192491   3.788   9.671   9.569 -0.3595  0.5869  0.9950
29738SOL    HW292492   3.661   9.643   9.493  1.1320 -0.5352 -1.2106
29739SOL     OW92493   8.177   8.187   7.111  0.0225 -0.1285  0.0037
29739SOL    HW192494   8.267   8.207   7.139  0.2278 -0.9843 -0.0055
29739SOL    HW292495   8.122   8.237   7.171  0.5026  0.7742 -0.2828
29740SOL     OW92496   1.823   4.893   8.397 -0.0758  0.0448  0.2795
29740SOL    HW192497   1.910   4.931   8.408 -0.0609 -0.0143  0.3650
29740SOL    HW292498   1.787   4.938   8.321 -0.7206  1.4720  1.3657
29741SOL     OW92499   9.696  10.975   4.040  0.0850 -0.0287 -0.4801
29741SOL    HW192500   9.716  10.881   4.039 -1.2870 -0.5509  3.1177
29741SOL    HW292501   9.601  10.979   4.027  0.2289  0.9721 -1.3685
29742SOL     OW92502   3.573   6.324  10.246  0.0590  0.5671  0.4211
29742SOL    HW192503   3.547   6.410  10.214 -0.1349  0.2264 -0.3562
29742SOL    HW292504   3.668   6.325  10.242  0.0530  0.7008  0.2827
29743SOL     OW92505   4.337   6.586   8.844  0.0643  0.4025  0.2606
29743SOL    HW192506   4.255   6.558   8.803 -0.9359  3.4189  0.0012
29743SOL    HW292507   4.391   6.618   8.771  1.5352 -1.4876  0.4332
29744SOL     OW92508   2.336   4.432   5.512 -0.6043 -0.1754 -0.1390
29744SOL    HW192509   2.296   4.460   5.595  0.0415  0.2697  0.0306
29744SOL    HW292510   2.374   4.512   5.476  3.5716 -1.0912  1.5835
29745SOL     OW92511   4.662   2.818   8.063  0.2317 -0.3948  0.2785
29745SOL    HW192512   4.737   2.848   8.012  0.6887 -1.4581  0.3051
29745SOL    HW292513   4.668   2.868   8.145  2.2209 -1.9953  1.2106
29746SOL     OW92514   0.267   0.969   7.678  0.3866  0.2644  0.2111
29746SOL    HW192515   0.324   1.023   7.734  2.0804 -1.3875  0.1922
29746SOL    HW292516   0.242   0.895   7.734 -2.4495  1.3018  0.4478
29747SOL     OW92517   0.151  11.348   5.934 -0.5194 -0.8670 -0.3689
29747SOL    HW192518   0.180  11.433   5.966 -1.0848 -0.3473 -1.1643
29747SOL    HW292519   0.093  11.315   6.002 -1.7787  0.2579 -0.8471
29748SOL     OW92520   2.180   0.659   7.390 -0.2410 -0.0588 -0.1459
29748SOL    HW192521   2.241   0.606   7.339  1.3173  2.2559 -0.8729
29748SOL    HW292522   2.136   0.597   7.448  0.4572 -2.2837 -1.8595
29749SOL     OW92523  10.323   6.149   5.442  0.5231  0.5329 -0.3690
29749SOL    HW192524  10.255   6.118   5.382  1.1905 -0.4079 -0.6587
29749SOL    HW292525  10.391   6.184   5.386  0.9028  0.1699 -0.1409
29750SOL     OW92526   2.820   3.845   2.425 -0.2312  0.4704 -0.5459
29750SOL    HW192527   2.877   3.853   2.348  0.4925  1.1102  0.0427
29750SOL    HW292528   2.814   3.750   2.440  0.7977  0.3933 -0.5438
29751SOL     OW92529   2.781   2.239   8.852  0.4974 -0.0322  0.1887
29751SOL    HW192530   2.722   2.291   8.797 -0.8168 -0.4011  1.1956
29751SOL    HW292531   2.861   2.233   8.801 -0.2485  0.6850 -1.1396
29752SOL     OW92532   4.853   9.999   1.373  0.4323 -0.3753 -0.0066
29752SOL    HW192533   4.811  10.081   1.345 -0.9139  0.3394  3.4973
29752SOL    HW292534   4.929   9.990   1.316  1.2095  3.8970  0.0039
29753SOL     OW92535   9.017   8.272   9.329 -0.3963  0.1849 -0.4537
29753SOL    HW192536   8.937   8.259   9.278 -0.4863 -1.1751 -0.0040
29753SOL    HW292537   9.022   8.196   9.387  1.0401  0.4143 -0.2242
29754SOL     OW92538   3.791   7.607   6.624 -0.7009 -0.7827 -0.0533
29754SOL    HW192539   3.859   7.667   6.596 -0.5614 -0.6642  0.5162
29754SOL    HW292540   3.755   7.571   6.543 -1.8898  1.2685 -0.5155
29755SOL     OW92541   4.823  11.062   2.909  0.2234 -0.1121 -0.0833
29755SOL    HW192542   4.829  11.059   3.004  2.0990 -2.1079 -0.1888
29755SOL    HW292543   4.741  11.017   2.889 -0.8794  1.5112  0.5755
29756SOL     OW92544   4.862   1.356   6.257 -0.1328  0.4897  0.3157
29756SOL    HW192545   4.922   1.371   6.330  1.2132  1.9607 -1.0142
29756SOL    HW292546   4.780   1.398   6.285 -0.8424 -2.0389  2.3922
29757SOL     OW92547   4.303   9.511   1.612 -0.2625 -0.2798 -0.4542
29757SOL    HW192548   4.368   9.449   1.580  2.2265  1.6655  0.4919
29757SOL    HW292549   4.245   9.526   1.537  0.1777 -2.2815 -1.2559
29758SOL     OW92550   8.401  10.117   0.703 -0.2911  0.1058  0.1634
29758SOL    HW192551   8.407  10.125   0.798  0.0911  1.5244  0.0381
29758SOL    HW292552   8.479  10.068   0.677  1.4439  2.6087  0.2980
29759SOL     OW92553   3.467   2.522   4.378  0.0398  0.1008 -0.2896
29759SOL    HW192554   3.523   2.456   4.335 -1.1965 -1.4887  0.4365
29759SOL    HW292555   3.381   2.509   4.339 -0.4461  0.6099  0.5957
29760SOL     OW92556   3.406   7.784   7.646  0.2943 -0.1412  0.1776
29760SOL    HW192557   3.338   7.818   7.705  1.6894  2.3178  0.5109
29760SOL    HW292558   3.357   7.750   7.570 -1.3463  0.6151  0.8493
29761SOL     OW92559   2.670   3.577   7.637  0.2998 -0.3213 -0.2798
29761SOL    HW192560   2.714   3.543   7.714  1.1569  0.5753 -0.3455
29761SOL    HW292561   2.620   3.503   7.602 -1.0664 -0.4568  1.7693
29762SOL     OW92562   6.873   3.726   2.928  0.1842  0.8267  0.1129
29762SOL    HW192563   6.780   3.741   2.909  0.4563  1.7241 -0.5554
29762SOL    HW292564   6.920   3.785   2.870  1.2169 -0.1193 -0.0554
29763SOL     OW92565   8.394   0.548  11.091  0.0289  0.3803 -0.2322
29763SOL    HW192566   8.330   0.619  11.090  0.5339  0.8476 -1.4392
29763SOL    HW292567   8.396   0.518  11.182 -2.4469 -0.1495 -0.2871
29764SOL     OW92568   1.046   6.889   3.907  0.0624 -0.3128  0.5885
29764SOL    HW192569   1.111   6.844   3.853  0.5558 -0.0145  0.9240
29764SOL    HW292570   1.057   6.982   3.886 -0.9490 -0.3360 -0.1017
29765SOL     OW92571   8.608   8.675   2.977  0.2782  0.1394  0.2865
29765SOL    HW192572   8.540   8.715   2.922  0.2487 -0.4940 -0.1488
29765SOL    HW292573   8.618   8.735   3.051 -0.5717  0.3625  0.2227
29766SOL     OW92574   6.762  10.283   8.848 -0.1051  0.1452 -0.3323
29766SOL    HW192575   6.743  10.348   8.781 -0.1131 -0.0252 -0.4971
29766SOL    HW292576   6.846  10.310   8.886 -1.7386  2.2848  2.0568
29767SOL     OW92577   3.966   5.362   5.621 -0.7307 -0.1954 -0.5934
29767SOL    HW192578   3.916   5.280   5.616  0.4932 -0.9051 -1.5084
29767SOL    HW292579   4.024   5.360   5.546  1.2500  0.2389  0.8535
29768SOL     OW92580   5.151   9.229   4.855  0.2057  0.1943 -0.2683
29768SOL    HW192581   5.140   9.134   4.859 -0.7892  0.2927 -0.4982
29768SOL    HW292582   5.246   9.241   4.849  0.3554 -0.7751 -0.1307
29769SOL     OW92583   4.752   0.447   6.349  0.6267  1.1117  0.0838
29769SOL    HW192584   4.763   0.376   6.286  0.1056  1.8867 -0.9066
29769SOL    HW292585   4.801   0.419   6.426  0.7928 -0.1147 -0.4528
29770SOL     OW92586   9.706   6.194   3.475  0.7249 -0.0009 -0.6936
29770SOL    HW192587   9.640   6.261   3.492  1.5250  0.6734 -0.1636
29770SOL    HW292588   9.786   6.228   3.515  0.9961 -1.5872  0.2205
29771SOL     OW92589   4.206  10.004  11.383  0.2964 -0.0534 -0.2069
29771SOL    HW192590   4.255   9.924  11.402 -1.0032 -0.9575 -0.5407
29771SOL    HW292591   4.115   9.980  11.400 -0.1215  1.3415 -0.4008
29772SOL     OW92592   3.545   4.608   0.426  0.0650 -0.1288 -0.1747
29772SOL    HW192593   3.613   4.645   0.483  0.6074  0.3655 -1.1116
29772SOL    HW292594   3.463   4.625   0.472  0.2443  2.5906 -0.6992
29773SOL     OW92595   1.824   5.469   2.749 -0.3825 -0.2062 -0.0517
29773SOL    HW192596   1.796   5.399   2.690 -0.9468  0.2932 -0.3930
29773SOL    HW292597   1.904   5.436   2.790 -0.4895 -0.9316 -0.4152
29774SOL     OW92598   9.469   8.624   4.954  0.5820  0.3984 -0.2081
29774SOL    HW192599   9.466   8.661   4.865 -0.9110  0.4394 -0.1600
29774SOL    HW292600   9.454   8.530   4.941 -2.8523  0.7721  0.1651
29775SOL     OW92601   7.712  11.052   6.875  0.1511  0.1102  0.0236
29775SOL    HW192602   7.800  11.090   6.875  1.6150 -2.9106 -0.5151
29775SOL    HW292603   7.696  11.027   6.784 -0.6892 -0.4875  0.3212
29776SOL     OW92604   6.577   1.792   1.032 -0.3228  0.0321  0.0229
29776SOL    HW192605   6.600   1.747   0.951  1.4417  1.2751 -0.2248
29776SOL    HW292606   6.609   1.735   1.102  0.7447  0.2882 -0.2481
29777SOL     OW92607   0.752   9.212   0.049  0.2127 -0.3575 -0.1621
29777SOL    HW192608   0.753   9.118   0.034  0.3763 -0.3960  0.0913
29777SOL    HW292609   0.824   9.246  -0.006 -0.5682 -0.2431 -1.1365
29778SOL     OW92610   5.054   4.780   1.936 -0.0494  0.0411 -0.2975
29778SOL    HW192611   5.140   4.811   1.965 -0.2076 -0.6612  0.9948
29778SOL    HW292612   5.008   4.859   1.907  0.2196  0.7596  1.1504
29779SOL     OW92613   6.496   6.099   9.405  0.4560 -0.1887 -0.1101
29779SOL    HW192614   6.544   6.072   9.483  0.9429  0.5054 -0.1595
29779SOL    HW292615   6.561   6.095   9.334  0.2010 -0.1283 -0.3502
29780SOL     OW92616  10.047   6.644   0.131  0.1848 -0.7407  0.8354
29780SOL    HW192617   9.969   6.699   0.142  1.0452  0.7433 -0.1858
29780SOL    HW292618  10.120   6.699   0.159  0.8274 -2.4289  2.6634
29781SOL     OW92619   7.334   9.260   0.150 -0.3678 -0.2838  0.4981
29781SOL    HW192620   7.372   9.227   0.232  1.0927 -0.1034 -0.0685
29781SOL    HW292621   7.333   9.183   0.093 -1.4738 -0.4317  0.7000
29782SOL     OW92622   5.463   9.506   2.553  0.4045 -0.8872  0.1733
29782SOL    HW192623   5.456   9.599   2.532 -1.8484 -1.3187 -1.2898
29782SOL    HW292624   5.557   9.490   2.562  0.8167  1.7125  1.5469
29783SOL     OW92625   0.034   2.119   4.116  0.0417  0.0558 -0.6724
29783SOL    HW192626   0.092   2.194   4.129  0.1969 -0.1550 -0.1447
29783SOL    HW292627   0.090   2.052   4.077  0.1114 -0.0909 -0.3180
29784SOL     OW92628   7.077   9.127   4.729  0.2592  0.2564  0.1510
29784SOL    HW192629   7.157   9.075   4.719 -0.3006 -0.5239 -0.3811
29784SOL    HW292630   7.027   9.110   4.649 -0.0427  1.4556  0.0553
29785SOL     OW92631   0.951   5.327   8.060 -0.0288  0.2893  0.2894
29785SOL    HW192632   0.960   5.231   8.067  0.1824 -0.0083 -2.8129
29785SOL    HW292633   1.038   5.357   8.035 -0.1235  1.3264  1.1584
29786SOL     OW92634  11.343   0.121  11.069  0.2244  0.5837  0.1282
29786SOL    HW192635  11.341   0.033  11.033 -2.9182  0.7990 -0.4379
29786SOL    HW292636  11.361   0.108  11.162  1.5362 -0.4809 -0.2429
29787SOL     OW92637   5.651   3.827   2.074  0.6917 -0.0328  0.1632
29787SOL    HW192638   5.638   3.764   2.145 -1.0312  0.1415  0.0431
29787SOL    HW292639   5.675   3.909   2.119 -0.7372  0.1701  0.6041
29788SOL     OW92640   2.972  11.346   4.569  0.5474  0.2576  0.0055
29788SOL    HW192641   3.037  11.377   4.506  0.4435 -0.0209 -0.2380
29788SOL    HW292642   2.889  11.347   4.522  0.2683  1.1679  0.4890
29789SOL     OW92643   4.992  10.987  10.586  0.4526 -0.0006  0.1452
29789SOL    HW192644   5.068  11.032  10.622  0.5263 -1.8326  2.5610
29789SOL    HW292645   5.016  10.895  10.588 -0.8210 -0.4107 -1.7001
29790SOL     OW92646   1.682   2.680   5.119  0.2874  0.2233 -0.0381
29790SOL    HW192647   1.739   2.634   5.181  1.0070 -0.6633 -1.3352
29790SOL    HW292648   1.678   2.623   5.043 -1.0950  1.0067 -0.5884
29791SOL     OW92649   4.720   5.757  10.996 -0.3139 -0.3483  0.3816
29791SOL    HW192650   4.769   5.675  10.999  0.1991 -0.0393  0.8178
29791SOL    HW292651   4.679   5.764  11.082  1.1354  0.7189  1.0336
29792SOL     OW92652   2.728   5.339   1.788 -0.1281 -0.9588 -0.3547
29792SOL    HW192653   2.737   5.336   1.883 -0.1330 -2.2871 -0.3782
29792SOL    HW292654   2.650   5.287   1.769  1.1121 -2.5952 -1.2035
29793SOL     OW92655   1.107   7.633   7.986  0.2860 -0.4416 -0.6820
29793SOL    HW192656   1.120   7.648   7.893  2.3017 -0.2281 -0.4157
29793SOL    HW292657   1.140   7.545   8.002 -1.6313 -1.1605 -0.4202
29794SOL     OW92658   5.315   9.053   3.925 -0.2456 -0.1838  0.2871
29794SOL    HW192659   5.374   9.062   3.850 -1.2986  0.7510 -0.4577
29794SOL    HW292660   5.361   9.096   3.997  0.4837 -0.5070  0.0273
29795SOL     OW92661   9.674   3.419   7.849  0.1797 -0.0274  0.7731
29795SOL    HW192662   9.670   3.440   7.755 -0.3731  0.5343  0.9179
29795SOL    HW292663   9.719   3.494   7.888 -2.4033  1.3128  1.3912
29796SOL     OW92664   6.303   4.029   7.680  0.0059  0.2462 -0.3072
29796SOL    HW192665   6.351   3.951   7.708 -0.4719  0.4564  1.2072
29796SOL    HW292666   6.229   4.034   7.740 -0.7167  1.1350 -1.2343
29797SOL     OW92667   9.863   7.367   5.205 -0.3348 -0.3918  0.5520
29797SOL    HW192668   9.780   7.340   5.244 -0.1524 -1.0727  0.4760
29797SOL    HW292669   9.924   7.372   5.279 -0.1185 -1.1779  0.4317
29798SOL     OW92670  10.447   7.272   2.836  0.7491  0.4531  0.5525
29798SOL    HW192671  10.392   7.194   2.839 -0.7792  1.5081  1.0971
29798SOL    HW292672  10.387   7.345   2.853  1.8656  1.9049 -1.3135
29799SOL     OW92673   9.600   5.093   8.143 -0.2674 -0.0262  0.0062
29799SOL    HW192674   9.624   5.173   8.191  2.2279 -0.6542 -0.0963
29799SOL    HW292675   9.594   5.121   8.052 -1.5486  0.4494  0.2142
29800SOL     OW92676   2.053   2.171   3.596 -0.2007 -0.3065 -0.0888
29800SOL    HW192677   2.133   2.159   3.648  0.3896  1.2355 -0.5780
29800SOL    HW292678   1.988   2.114   3.638  1.1588 -1.6711  0.2704
29801SOL     OW92679   0.102   5.710   0.487 -0.1997 -0.4614 -0.2659
29801SOL    HW192680   0.013   5.676   0.473 -0.8738  0.9155  0.5194
29801SOL    HW292681   0.091   5.783   0.547  1.6184 -0.9344  0.7138
29802SOL     OW92682   4.936   4.364   3.371  0.0301  0.0747  0.5281
29802SOL    HW192683   5.030   4.350   3.377  0.1420  0.5524  0.0276
29802SOL    HW292684   4.902   4.287   3.327  0.1844 -0.0998  0.7141
29803SOL     OW92685   3.690   9.494   0.157 -0.1684  0.1449  0.0988
29803SOL    HW192686   3.768   9.545   0.136  1.1326 -2.1544 -1.1011
29803SOL    HW292687   3.626   9.519   0.091 -0.1605  1.3818  0.5346
29804SOL     OW92688   0.285   8.410   8.238  0.3525 -0.8296  0.3337
29804SOL    HW192689   0.219   8.399   8.307  0.3251 -3.4428 -0.0310
29804SOL    HW292690   0.349   8.340   8.254  0.6964 -1.0933 -1.8994
29805SOL     OW92691   6.683   7.430   9.980 -0.6070 -0.0466 -0.1930
29805SOL    HW192692   6.730   7.378   9.915  0.2339 -2.2532  1.9743
29805SOL    HW292693   6.591   7.404   9.970 -0.3667 -1.0269  0.0065
29806SOL     OW92694   3.119   7.942   8.832  0.1587 -0.5630  0.0925
29806SOL    HW192695   3.194   8.001   8.832  1.0233 -1.6266  0.3836
29806SOL    HW292696   3.133   7.886   8.755 -0.9280 -0.0695 -0.4866
29807SOL     OW92697   1.179   8.125   6.817  0.6406  0.4337  0.3152
29807SOL    HW192698   1.246   8.126   6.749 -1.3745  2.0125 -1.8241
29807SOL    HW292699   1.198   8.202   6.870  0.0151  1.4852 -0.9154
29808SOL     OW92700   3.526   9.490  10.221 -0.2669 -0.0557 -0.4271
29808SOL    HW192701   3.540   9.408  10.174  0.8067  1.2677 -2.5615
29808SOL    HW292702   3.555   9.558  10.161 -0.1593  1.8636  1.6422
29809SOL     OW92703   3.617  10.664   5.253 -0.3687  0.3101 -0.0024
29809SOL    HW192704   3.636  10.708   5.335  0.8652 -0.2570  0.0468
29809SOL    HW292705   3.689  10.691   5.195 -3.3500  4.1832 -2.4035
29810SOL     OW92706  10.011   9.700  11.084  0.4256 -0.2128 -0.3598
29810SOL    HW192707  10.048   9.630  11.030 -3.5490 -1.9800 -1.1496
29810SOL    HW292708   9.967   9.758  11.022  0.7017  1.0680  0.5916
29811SOL     OW92709   4.444   0.250   1.863  0.1750  0.2529 -0.4022
29811SOL    HW192710   4.411   0.284   1.780  1.0718 -0.6272 -1.1379
29811SOL    HW292711   4.365   0.227   1.912 -0.3675  0.9467 -0.9289
29812SOL     OW92712   9.913   3.767   0.869  0.3602 -0.3886 -0.2491
29812SOL    HW192713   9.974   3.797   0.802  0.3954 -0.0100 -0.0502
29812SOL    HW292714   9.893   3.845   0.920 -0.0030 -0.5864 -0.0831
29813SOL     OW92715   1.487   4.059  10.403 -0.1054  0.6609 -0.3470
29813SOL    HW192716   1.544   4.092  10.333  1.3713 -0.2083  0.4109
29813SOL    HW292717   1.540   4.064  10.482 -1.3830  0.6174  0.5392
29814SOL     OW92718   6.694   3.861   8.294  0.8036  0.0420 -0.1563
29814SOL    HW192719   6.786   3.850   8.316  0.8926 -0.3877 -0.7132
29814SOL    HW292720   6.694   3.890   8.203  0.3706 -0.6959 -0.4035
29815SOL     OW92721   7.748   9.545   1.220  0.2271 -0.1170  0.4870
29815SOL    HW192722   7.734   9.453   1.242 -2.6754 -0.4924 -2.1301
29815SOL    HW292723   7.826   9.545   1.165  0.9907 -0.7831  1.5388
29816SOL     OW92724   8.284   5.750   3.142 -0.1821  0.2403  0.0583
29816SOL    HW192725   8.327   5.695   3.076  0.0512  0.9999 -0.4387
29816SOL    HW292726   8.232   5.689   3.194  0.3891 -0.5051 -0.2223
29817SOL     OW92727   0.973   5.840   6.180  0.6787 -0.7958  0.0493
29817SOL    HW192728   1.040   5.779   6.211  0.8948 -0.2857  0.6096
29817SOL    HW292729   0.969   5.825   6.085  0.7397 -1.6564  0.1685
29818SOL     OW92730   8.249   9.776   8.341 -0.3371 -0.2937  0.5279
29818SOL    HW192731   8.282   9.808   8.424  0.2333  2.4068 -0.6371
29818SOL    HW292732   8.310   9.810   8.276 -1.1172 -1.7825 -1.0827
29819SOL     OW92733   3.971  11.330  11.272  0.7460  0.2573 -0.8207
29819SOL    HW192734   3.907  11.280  11.221  0.4552  1.3643 -1.5723
29819SOL    HW292735   3.932  11.417  11.281  2.8717  1.5314 -2.8371
29820SOL     OW92736   2.646   2.433   8.674  0.4864  0.2241 -0.2830
29820SOL    HW192737   2.553   2.424   8.650  0.5605 -1.4142 -0.0451
29820SOL    HW292738   2.658   2.528   8.686 -1.0480  0.5044 -0.7100
29821SOL     OW92739   0.251   9.376   9.391  0.1926  0.4183  0.6185
29821SOL    HW192740   0.184   9.324   9.436 -0.2553  0.4047 -0.0484
29821SOL    HW292741   0.212   9.397   9.306  1.1208  0.2380  0.1415
29822SOL     OW92742   0.577   5.450   8.254 -0.2552 -0.4334 -0.1871
29822SOL    HW192743   0.521   5.510   8.304  0.6065 -0.4473  0.8047
29822SOL    HW292744   0.599   5.380   8.316 -1.4401 -1.9383 -1.3869
29823SOL     OW92745   2.258   7.218   4.070 -0.2919 -0.0302  0.7453
29823SOL    HW192746   2.344   7.219   4.029 -0.2179 -0.0982  0.8987
29823SOL    HW292747   2.240   7.125   4.087 -1.6917 -0.3527 -1.9946
29824SOL     OW92748   9.643   0.563   6.706  0.6996  0.0925  0.0638
29824SOL    HW192749   9.727   0.594   6.672  1.0360 -0.4132  0.4277
29824SOL    HW292750   9.594   0.536   6.628  1.1529 -0.2832 -0.0958
29825SOL     OW92751  10.387  10.908   8.553 -0.0820  0.0736 -0.4049
29825SOL    HW192752  10.347  10.896   8.466 -0.4506 -0.2685 -0.1933
29825SOL    HW292753  10.416  10.999   8.553  0.4267 -0.0730 -1.0935
29826SOL     OW92754   1.350   8.245   9.319 -0.0791 -0.1693  0.1010
29826SOL    HW192755   1.413   8.194   9.268  0.2576 -0.8091  1.1355
29826SOL    HW292756   1.303   8.181   9.372 -0.0446  0.5168  0.9987
29827SOL     OW92757   8.767   4.551   9.665  0.3782 -0.4497 -0.2641
29827SOL    HW192758   8.749   4.515   9.578 -1.4633 -1.9358  0.6598
29827SOL    HW292759   8.792   4.642   9.649 -2.3008  0.0472 -2.2244
29828SOL     OW92760   5.076   0.382   5.793 -0.4302  0.0884  0.2740
29828SOL    HW192761   5.010   0.316   5.770  0.0665 -1.1704  2.1870
29828SOL    HW292762   5.149   0.331   5.827  0.1663  1.6048  1.3783
29829SOL     OW92763   6.165   3.507   4.382 -0.4203 -0.1195 -0.0002
29829SOL    HW192764   6.085   3.537   4.339 -1.0604 -0.2844  1.0326
29829SOL    HW292765   6.236   3.540   4.327 -1.0917  2.6164  0.6631
29830SOL     OW92766   4.380   2.819   5.154 -0.0820  0.4725  0.3458
29830SOL    HW192767   4.416   2.896   5.197  0.1215  0.3403  0.4161
29830SOL    HW292768   4.397   2.833   5.061  0.7088  0.1306  0.4282
29831SOL     OW92769   7.070   4.174   3.637  0.3957 -0.2930 -0.4440
29831SOL    HW192770   7.064   4.139   3.548 -1.8800 -1.3690  0.0586
29831SOL    HW292771   7.117   4.107   3.687 -0.9483 -1.1179 -0.2325
29832SOL     OW92772   5.471   9.367   6.967 -0.2036 -0.1228  0.6615
29832SOL    HW192773   5.469   9.299   6.900 -0.7972  1.6403 -1.2166
29832SOL    HW292774   5.563   9.373   6.992 -0.0090 -0.9858  0.2009
29833SOL     OW92775  10.127   1.747   5.482  0.2222  0.3998 -0.5223
29833SOL    HW192776  10.086   1.830   5.457 -0.5119 -0.2109 -1.4702
29833SOL    HW292777  10.174   1.766   5.562 -1.3599  1.3318  0.2402
29834SOL     OW92778  11.116   2.798   3.650  0.1587 -0.1156 -0.1621
29834SOL    HW192779  11.112   2.745   3.730 -0.1949  1.9380  1.2663
29834SOL    HW292780  11.107   2.734   3.579 -1.6650 -1.8212  1.4616
29835SOL     OW92781   4.179   5.642   6.871  0.2093 -0.4496 -0.3192
29835SOL    HW192782   4.124   5.579   6.917  0.7190  0.1871  1.2280
29835SOL    HW292783   4.132   5.725   6.878  0.5023 -0.2557 -0.5998
29836SOL     OW92784   7.006   9.906   4.021 -0.2934 -0.7933 -0.1004
29836SOL    HW192785   6.940   9.961   3.977 -0.6889 -0.4996  0.8392
29836SOL    HW292786   7.018   9.832   3.961  1.5847  1.1331 -2.3081
29837SOL     OW92787   4.710   9.768   5.056 -0.1676  0.3556 -0.0133
29837SOL    HW192788   4.753   9.690   5.091  0.3188  0.5824 -0.1003
29837SOL    HW292789   4.697   9.825   5.132 -1.6961 -0.3310  0.2875
29838SOL     OW92790   4.701  10.275   1.790  0.1772 -0.2992  0.3151
29838SOL    HW192791   4.647  10.288   1.868  1.8305 -0.8224  1.6078
29838SOL    HW292792   4.658  10.327   1.722 -1.0746  0.5222  1.6781
29839SOL     OW92793   4.349   3.143   4.281 -0.1008 -0.7017  0.8364
29839SOL    HW192794   4.394   3.088   4.216 -0.3021  2.9281 -2.7328
29839SOL    HW292795   4.256   3.121   4.271  0.0616 -1.9617  1.8523
29840SOL     OW92796   7.263   5.332   9.223 -0.3402  0.1204 -0.3800
29840SOL    HW192797   7.197   5.270   9.192 -1.5250  2.3278 -2.6155
29840SOL    HW292798   7.218   5.382   9.292 -0.4992  0.6143 -0.8384
29841SOL     OW92799  10.980   0.464   4.383 -0.0093 -0.1331  0.3730
29841SOL    HW192800  10.984   0.420   4.468  0.3549 -2.3537 -0.7187
29841SOL    HW292801  10.887   0.471   4.364 -0.1368  1.3477  1.3846
29842SOL     OW92802  10.918  11.332   4.406 -0.2947 -0.3687  0.3041
29842SOL    HW192803  10.897  11.273   4.334 -0.2940  0.2008 -0.1653
29842SOL    HW292804  11.010  11.352   4.395 -0.9131  1.9932 -1.2559
29843SOL     OW92805   5.850   8.051   4.191  0.0626 -0.3490 -0.1726
29843SOL    HW192806   5.890   7.972   4.153 -0.5963 -0.5120 -0.5506
29843SOL    HW292807   5.813   8.097   4.116  0.3607  0.2849  0.0595
29844SOL     OW92808   1.076   5.869   8.613 -0.3747 -0.5923 -0.2791
29844SOL    HW192809   1.088   5.780   8.581 -0.5615 -0.9737  0.6889
29844SOL    HW292810   0.983   5.875   8.633 -0.4702  0.0112 -0.8721
29845SOL     OW92811   6.186   5.582   4.855 -0.0266 -0.3294 -0.1664
29845SOL    HW192812   6.155   5.643   4.787  0.5860 -0.3067 -0.4264
29845SOL    HW292813   6.107   5.536   4.882 -0.4935  0.5190 -0.0246
29846SOL     OW92814   5.523   7.641  11.297  0.7706  0.0636 -0.2526
29846SOL    HW192815   5.580   7.652  11.373 -1.1283 -0.7161  1.3685
29846SOL    HW292816   5.577   7.593  11.234  2.2359  0.2731  0.7834
29847SOL     OW92817   4.602   1.543   9.308 -0.1016 -0.4263 -0.3009
29847SOL    HW192818   4.648   1.502   9.381  1.2138 -1.1421 -1.4754
29847SOL    HW292819   4.562   1.470   9.260 -0.4236 -0.0311 -0.6435
29848SOL     OW92820   7.232   3.410   6.491  0.3834 -0.2621 -0.6949
29848SOL    HW192821   7.233   3.316   6.477  0.5084 -0.3551 -0.0908
29848SOL    HW292822   7.141   3.436   6.475 -0.0214 -0.7417  0.6964
29849SOL     OW92823   2.289   3.811   6.382 -0.0198  0.2310  0.6244
29849SOL    HW192824   2.307   3.900   6.352  1.2366  0.4100  1.7995
29849SOL    HW292825   2.278   3.820   6.477 -1.5760 -0.6348  0.5681
29850SOL     OW92826   2.991   2.412   1.293 -0.3904  0.4473  0.0907
29850SOL    HW192827   3.010   2.326   1.256 -1.1839  0.8945 -1.4243
29850SOL    HW292828   2.900   2.405   1.324  0.0188  0.3104  1.3249
29851SOL     OW92829  11.140   0.091  10.655 -0.2235  0.8710  0.3515
29851SOL    HW192830  11.166   0.162  10.596 -1.0083  0.6723 -0.2477
29851SOL    HW292831  11.214   0.030  10.652  0.5514  1.7483  1.0387
29852SOL     OW92832   3.221   1.405  10.906  0.5906 -0.0002 -0.0430
29852SOL    HW192833   3.204   1.490  10.947 -0.6469 -0.0234 -0.4897
29852SOL    HW292834   3.174   1.408  10.823 -0.3843 -1.5457  0.4156
29853SOL     OW92835   1.713   3.423   4.998  0.0661  0.0399  0.0286
29853SOL    HW192836   1.795   3.404   4.953  0.1828  0.7869 -0.0879
29853SOL    HW292837   1.650   3.361   4.962  0.2394  0.4058 -0.9176
29854SOL     OW92838   9.779   9.618   3.632 -0.0845  0.0750  0.5617
29854SOL    HW192839   9.836   9.676   3.682  0.3197  1.2196 -1.1650
29854SOL    HW292840   9.802   9.634   3.541 -1.0796 -1.6584 -0.0371
29855SOL     OW92841   3.481   2.079   9.234 -0.2593  0.0236 -0.2960
29855SOL    HW192842   3.563   2.030   9.223 -0.0504  0.2383  0.2698
29855SOL    HW292843   3.461   2.113   9.146  0.1201 -0.2428 -0.4882
29856SOL     OW92844   1.581   7.801   8.017  0.1520  0.0815  0.8095
29856SOL    HW192845   1.557   7.894   8.008 -0.3172 -0.0608  0.6069
29856SOL    HW292846   1.502   7.758   8.049 -0.2459 -0.5820 -0.9391
29857SOL     OW92847  11.329   1.772  10.425  0.8579  0.0807 -0.0707
29857SOL    HW192848  11.381   1.766  10.345  2.0830 -1.8201  0.7893
29857SOL    HW292849  11.389   1.743  10.494 -1.4869 -3.0330  0.8932
29858SOL     OW92850   0.637   3.523   8.890  0.2437 -0.3445 -0.0975
29858SOL    HW192851   0.552   3.502   8.852 -0.3112  0.2411  0.7644
29858SOL    HW292852   0.683   3.573   8.823 -0.1973 -0.4404 -0.4715
29859SOL     OW92853   5.372   8.009   1.855 -0.4462 -0.1192 -0.1096
29859SOL    HW192854   5.467   8.021   1.856 -0.4726  0.7029 -2.1669
29859SOL    HW292855   5.361   7.915   1.841  0.0884 -0.1184 -0.5782
29860SOL     OW92856   5.467   3.251   4.653  0.2517 -0.6702  0.5342
29860SOL    HW192857   5.523   3.274   4.727  0.3185 -2.8097  1.2109
29860SOL    HW292858   5.380   3.284   4.678  0.1465 -1.8676  1.8679
29861SOL     OW92859   5.540   7.715  10.405 -0.4063 -0.2418 -0.2212
29861SOL    HW192860   5.464   7.718  10.463 -1.9140  0.0858 -2.0926
29861SOL    HW292861   5.558   7.621  10.394  1.0093 -0.3153  2.0218
29862SOL     OW92862   3.598   6.407   2.307 -0.2156 -0.1138  0.2525
29862SOL    HW192863   3.564   6.318   2.315  1.8130 -0.8031  1.9630
29862SOL    HW292864   3.618   6.417   2.214 -2.1948 -0.7228 -0.2841
29863SOL     OW92865   1.267   9.748   7.696  0.4384 -0.5043  0.5667
29863SOL    HW192866   1.243   9.666   7.740  0.1299  0.0920  1.5320
29863SOL    HW292867   1.349   9.727   7.651  0.3393 -1.3629  0.7654
29864SOL     OW92868  10.974   7.158   1.904  0.3092  0.7869  0.0371
29864SOL    HW192869  10.888   7.175   1.864  0.8695  1.9198 -0.7537
29864SOL    HW292870  10.992   7.067   1.884  0.3519  1.1817 -1.9458
29865SOL     OW92871   7.316  10.480   6.001 -0.6930 -0.0891  0.5214
29865SOL    HW192872   7.370  10.430   6.062  1.5789  1.4031 -0.1176
29865SOL    HW292873   7.302  10.564   6.045  0.3980  0.7537 -0.6748
29866SOL     OW92874   7.126  10.386   8.513 -0.4074  0.3798  0.6575
29866SOL    HW192875   7.053  10.443   8.490 -1.2858 -0.4189  1.3918
29866SOL    HW292876   7.186  10.393   8.439 -1.1710  1.1259  0.0871
29867SOL     OW92877   1.937   0.693  10.854  1.2178  0.2171 -0.0248
29867SOL    HW192878   1.963   0.725  10.941  2.3645  0.6761 -0.5141
29867SOL    HW292879   1.970   0.603  10.852  0.3427 -0.1243  0.3582
29868SOL     OW92880  10.083   1.092   0.383  0.3344 -0.2277  0.5348
29868SOL    HW192881   9.990   1.098   0.405  0.4825  0.9511  0.8917
29868SOL    HW292882  10.096   1.159   0.316  0.7453 -1.0165 -0.2018
29869SOL     OW92883   8.769   1.372   5.079 -0.3007  0.1167  0.1421
29869SOL    HW192884   8.740   1.446   5.025 -0.6912  0.8951  1.3849
29869SOL    HW292885   8.767   1.405   5.168  0.5089 -1.0964  0.6338
29870SOL     OW92886   1.956   7.575   1.057  0.3199 -0.0710  0.2780
29870SOL    HW192887   1.973   7.666   1.035 -0.6294 -0.6364 -3.6950
29870SOL    HW292888   1.872   7.576   1.103 -0.2360  1.0603 -0.7072
29871SOL     OW92889   4.345   9.704   2.926 -0.7153 -0.2365 -0.1901
29871SOL    HW192890   4.300   9.660   2.854 -2.0472 -0.6842  0.8875
29871SOL    HW292891   4.321   9.654   3.004  1.2617 -0.1933  0.5077
29872SOL     OW92892   1.664  10.464   8.998  0.3078  0.2452  0.3446
29872SOL    HW192893   1.730  10.399   8.976  1.4076  1.0599  1.1011
29872SOL    HW292894   1.708  10.548   8.986 -0.2291  0.7901  1.9034
29873SOL     OW92895   0.986   5.321  10.199  0.1604  0.7514  0.4538
29873SOL    HW192896   1.021   5.404  10.166 -0.0914  1.4006  1.7831
29873SOL    HW292897   1.059   5.259  10.190  0.3865  1.1240 -0.4217
29874SOL     OW92898   9.428  11.070   4.367  0.2231  0.3237 -0.0820
29874SOL    HW192899   9.435  11.030   4.454 -2.3566 -1.0803 -0.4199
29874SOL    HW292900   9.446  11.163   4.383 -1.4150  0.3498  2.2400
29875SOL     OW92901   1.783   8.926   6.652 -0.0999 -0.2856 -0.3642
29875SOL    HW192902   1.813   9.017   6.646  1.0445 -0.6248 -0.1645
29875SOL    HW292903   1.797   8.891   6.564  0.9735 -0.6907 -0.0499
29876SOL     OW92904  10.466   4.997   5.397 -0.0045  0.3439 -0.0092
29876SOL    HW192905  10.508   5.070   5.351 -0.6789  1.4364  1.0515
29876SOL    HW292906  10.373   5.020   5.398 -0.1010 -0.0345  1.1951
29877SOL     OW92907   7.917   4.536   4.345 -0.1201 -0.1635 -0.0494
29877SOL    HW192908   7.924   4.487   4.262 -0.0735 -2.4328  1.2167
29877SOL    HW292909   7.822   4.545   4.358 -0.2359 -2.0989  0.8436
29878SOL     OW92910   8.756   8.017   3.092 -0.4482  0.4280  0.1212
29878SOL    HW192911   8.825   7.960   3.126 -0.5927 -0.2555 -0.6906
29878SOL    HW292912   8.800   8.101   3.078  0.4106 -0.1903 -1.0395
29879SOL     OW92913   5.422   7.301   0.724  0.6146 -0.5329  0.0646
29879SOL    HW192914   5.509   7.307   0.762  0.3148 -0.6699  0.7876
29879SOL    HW292915   5.372   7.246   0.785  0.0320 -0.4833 -0.3537
29880SOL     OW92916   4.503   4.456   3.898  0.4579  0.7321  0.2819
29880SOL    HW192917   4.412   4.462   3.868 -0.5570 -1.1034  2.6481
29880SOL    HW292918   4.523   4.544   3.931 -1.1681  0.7112  1.4524
29881SOL     OW92919   2.189   1.762   2.062 -0.2407  0.1018 -0.4475
29881SOL    HW192920   2.133   1.747   2.139 -2.4033 -0.4107 -2.0339
29881SOL    HW292921   2.260   1.818   2.095 -1.5374  0.5925  1.7303
29882SOL     OW92922  11.327   3.569   7.989  1.1867  0.1124  0.1567
29882SOL    HW192923  11.351   3.609   7.906 -1.5761 -1.2521 -1.4385
29882SOL    HW292924  11.278   3.638   8.035  3.3389  1.1149  1.0830
29883SOL     OW92925   4.409   3.906   5.845  0.0413 -0.0918 -0.3070
29883SOL    HW192926   4.471   3.971   5.811 -0.2978  0.9093  0.9254
29883SOL    HW292927   4.377   3.860   5.767  2.5168 -0.8531 -0.9706
29884SOL     OW92928   3.658   8.044   7.077 -0.3718  0.3839  0.0196
29884SOL    HW192929   3.752   8.059   7.087 -0.4627  1.1273 -0.1964
29884SOL    HW292930   3.648   7.949   7.090  0.6304 -0.0007 -1.6912
29885SOL     OW92931   3.768   8.644   0.452  0.5152  0.3851 -0.0623
29885SOL    HW192932   3.760   8.553   0.478  0.4328  0.1174 -1.0011
29885SOL    HW292933   3.697   8.657   0.389  1.1180  0.8370 -0.6529
29886SOL     OW92934   7.464   0.587   6.016  0.0139 -0.1307  0.0873
29886SOL    HW192935   7.515   0.624   5.944 -0.3294 -0.2939 -0.2434
29886SOL    HW292936   7.389   0.647   6.025 -1.7264 -1.8386 -1.8890
29887SOL     OW92937   3.511   5.512   2.068  0.6489  0.2804  0.0421
29887SOL    HW192938   3.602   5.483   2.057  0.3744 -1.4581  1.8502
29887SOL    HW292939   3.507   5.546   2.157 -1.2395 -3.1778  1.4400
29888SOL     OW92940   5.022   4.032   5.749  0.3561  0.2108 -0.0356
29888SOL    HW192941   4.938   4.049   5.793  1.4614  1.0552  1.8390
29888SOL    HW292942   5.020   3.938   5.730 -1.5909  0.4492 -1.3507
29889SOL     OW92943   6.786   7.417  11.041  0.3523  0.3759 -0.2468
29889SOL    HW192944   6.845   7.354  10.999  1.4423  0.1441  1.5549
29889SOL    HW292945   6.720   7.363  11.083  0.6296  0.4781  0.3288
29890SOL     OW92946   9.253   6.421   1.863  0.3140 -0.1875  0.5102
29890SOL    HW192947   9.165   6.455   1.845  0.4055 -0.0363  0.3423
29890SOL    HW292948   9.277   6.460   1.947  0.8722  1.0915 -0.2065
29891SOL     OW92949   0.932   6.708   9.683  0.1058 -0.1676  0.0520
29891SOL    HW192950   0.952   6.796   9.652  0.4429 -0.1539  0.3009
29891SOL    HW292951   0.864   6.720   9.749  1.5404  0.1265  1.5401
29892SOL     OW92952   9.257   5.105   9.035  0.2195  0.0578  0.1019
29892SOL    HW192953   9.243   5.184   8.982 -0.1303 -0.3335 -0.3984
29892SOL    HW292954   9.289   5.138   9.119  1.7955  0.6331 -0.6818
29893SOL     OW92955   7.018   8.682   3.057  0.4353 -0.6108 -0.4443
29893SOL    HW192956   6.953   8.712   2.993  0.0188 -0.3820  0.0751
29893SOL    HW292957   7.029   8.589   3.039  0.6829 -0.4507 -1.1606
29894SOL     OW92958   9.477  10.479   2.617 -0.0853  0.3850  0.0481
29894SOL    HW192959   9.469  10.503   2.524 -1.6046  0.5156  0.2030
29894SOL    HW292960   9.565  10.508   2.641 -1.0590  4.0472 -0.2958
29895SOL     OW92961   7.307   5.746   0.265  0.1532  0.4263  0.1934
29895SOL    HW192962   7.318   5.669   0.321  0.7364  0.9727  0.8521
29895SOL    HW292963   7.380   5.803   0.289 -0.0156  0.9911 -0.6102
29896SOL     OW92964   6.895   8.547   8.875  0.1716 -0.2144 -0.1176
29896SOL    HW192965   6.969   8.517   8.822 -0.7092 -3.1796  0.1741
29896SOL    HW292966   6.926   8.541   8.966 -0.9125 -3.4343  0.1571
29897SOL     OW92967   9.658   5.275   9.956  0.2204  0.8991 -0.0653
29897SOL    HW192968   9.678   5.356  10.003  0.7090  0.4415  0.5423
29897SOL    HW292969   9.623   5.216  10.024 -0.7966  0.8263 -0.6308
29898SOL     OW92970  10.407   1.088   3.357  0.3615  0.3485  1.2450
29898SOL    HW192971  10.479   1.130   3.308 -0.5049  0.2550 -0.1735
29898SOL    HW292972  10.443   1.004   3.384  0.3470 -0.3908 -0.8233
29899SOL     OW92973   2.924   8.181   3.487  0.2965  0.4481 -0.0486
29899SOL    HW192974   2.909   8.087   3.492 -2.2523  0.7858 -0.3119
29899SOL    HW292975   2.990   8.191   3.419  0.4194 -1.1195 -0.1922
29900SOL     OW92976   5.187  11.334   2.130 -0.3977 -0.6670 -0.1925
29900SOL    HW192977   5.182  11.377   2.215 -0.2590 -0.7076 -0.1652
29900SOL    HW292978   5.225  11.400   2.072  0.5264 -1.0042  0.0132
29901SOL     OW92979   0.356   8.072   3.341 -0.1084  0.3543  0.1254
29901SOL    HW192980   0.282   8.047   3.286 -0.5179 -0.9477  1.2005
29901SOL    HW292981   0.419   8.000   3.332  0.7257  1.1051 -0.2200
29902SOL     OW92982   0.621   5.305   2.311 -0.3948 -0.2642 -0.4795
29902SOL    HW192983   0.697   5.267   2.267 -0.7791 -1.7413  0.0617
29902SOL    HW292984   0.645   5.396   2.327  0.3796 -0.1061 -2.2885
29903SOL     OW92985   9.375   7.725   4.853 -0.0023 -0.1142  0.9642
29903SOL    HW192986   9.333   7.658   4.908  2.4833 -2.4869  0.1771
29903SOL    HW292987   9.467   7.723   4.879  0.7086  0.7308 -1.2784
29904SOL     OW92988   8.860   3.252   0.234  0.0624  0.4320 -0.0253
29904SOL    HW192989   8.910   3.245   0.153  0.8453  0.8223  0.4088
29904SOL    HW292990   8.810   3.333   0.224  0.1938  0.5050 -0.1008
29905SOL     OW92991   8.873   9.163   3.110 -0.3039 -0.0984  0.1205
29905SOL    HW192992   8.792   9.144   3.158 -0.4272 -2.1278 -0.7890
29905SOL    HW292993   8.943   9.146   3.174 -0.5102  3.4914  1.5197
29906SOL     OW92994  10.037  11.048   9.680 -0.1131 -0.1398 -0.3975
29906SOL    HW192995  10.023  10.954   9.677 -2.8194  0.1621 -0.0057
29906SOL    HW292996   9.967  11.081   9.737  1.8208  1.9452  0.9374
29907SOL     OW92997   3.677   1.968   4.451  0.0058 -0.2790  0.4311
29907SOL    HW192998   3.590   1.954   4.489 -0.0855 -1.9247 -0.2969
29907SOL    HW292999   3.665   1.953   4.358  0.7396  1.2354  0.0676
29908SOL     OW93000   8.478   7.632   9.647  0.0829 -0.4813 -0.8215
29908SOL    HW193001   8.427   7.701   9.689 -2.5225 -2.5183 -0.3527
29908SOL    HW293002   8.414   7.583   9.595  1.6300 -2.9292 -0.5966
29909SOL     OW93003   3.796   6.715   3.464 -0.8232 -0.7970 -0.1362
29909SOL    HW193004   3.804   6.652   3.535  0.0614  0.0702  0.5521
29909SOL    HW293005   3.712   6.759   3.480  0.5012  1.2018  1.9350
29910SOL     OW93006   8.231   4.809   7.849  0.3599 -0.2529  0.3419
29910SOL    HW193007   8.297   4.740   7.848  0.9695  0.3265  0.3168
29910SOL    HW293008   8.281   4.891   7.848 -0.2976  0.2102  1.8546
29911SOL     OW93009   3.259   5.500   1.690  0.5752  0.0847  0.5314
29911SOL    HW193010   3.323   5.568   1.710  1.3087 -0.6608  0.7379
29911SOL    HW293011   3.199   5.542   1.627 -0.5813  1.8108  2.6427
29912SOL     OW93012   2.086   5.180   7.470 -0.4620 -0.0945 -0.1451
29912SOL    HW193013   1.999   5.170   7.433  0.0936 -2.3630 -1.0393
29912SOL    HW293014   2.073   5.183   7.565 -1.4582 -1.5143 -0.2167
29913SOL     OW93015  10.666   8.813   9.119 -0.3841  0.4882  0.2561
29913SOL    HW193016  10.640   8.774   9.203 -2.4155  0.7414 -0.1949
29913SOL    HW293017  10.601   8.780   9.057  1.0412  0.3703 -1.2318
29914SOL     OW93018   2.286   7.783   0.572 -0.2956  0.0467  0.3707
29914SOL    HW193019   2.268   7.864   0.524 -1.2084 -0.1409  0.3833
29914SOL    HW293020   2.268   7.805   0.663 -0.8375 -0.2541  0.3368
29915SOL     OW93021   1.618   8.646  10.309 -0.2629 -0.4394  0.0286
29915SOL    HW193022   1.702   8.603  10.323 -0.1420  0.0544  0.9226
29915SOL    HW293023   1.595   8.682  10.395  0.7942  3.3286 -1.0886
29916SOL     OW93024   7.743   2.821   6.929  0.1799 -0.1654  0.0451
29916SOL    HW193025   7.726   2.791   6.839  1.7147 -0.8706 -0.0469
29916SOL    HW293026   7.761   2.914   6.920 -0.9212  0.0372 -0.1959
29917SOL     OW93027   9.754   0.464   0.341 -0.5044  0.6079  0.1709
29917SOL    HW193028   9.764   0.531   0.408 -0.1209  1.4337 -0.6853
29917SOL    HW293029   9.840   0.459   0.300 -0.5702 -0.3104  0.1259
29918SOL     OW93030   0.281   9.136   7.205  0.7911 -0.2269 -0.1707
29918SOL    HW193031   0.217   9.074   7.240  1.6399  0.0791  2.0755
29918SOL    HW293032   0.309   9.098   7.123 -0.0620 -1.8903  0.2758
29919SOL     OW93033   3.430   3.436   8.634  0.4307 -0.4170 -0.0469
29919SOL    HW193034   3.343   3.408   8.608  0.2251  1.4052 -1.4847
29919SOL    HW293035   3.416   3.520   8.677  1.5129  0.1281 -0.7235
29920SOL     OW93036   7.680   8.037   3.246 -0.1010  0.4314 -0.6928
29920SOL    HW193037   7.613   8.053   3.180 -2.8011 -0.3899  1.6792
29920SOL    HW293038   7.695   8.123   3.285 -0.1932  0.5221 -0.8542
29921SOL     OW93039   9.917   1.675   9.136  0.5465 -0.2203  0.0151
29921SOL    HW193040  10.001   1.688   9.091  0.8326 -0.2111  0.5450
29921SOL    HW293041   9.882   1.595   9.097  0.2733  0.3691 -0.9901
29922SOL     OW93042   6.267   8.778   2.219  0.5475 -0.0276 -0.1204
29922SOL    HW193043   6.264   8.685   2.198 -0.6296 -0.1299  0.4200
29922SOL    HW293044   6.355   8.793   2.252  0.1766 -1.3525  1.5399
29923SOL     OW93045  10.902  10.954   2.703  0.3189 -0.7207 -0.2919
29923SOL    HW193046  10.924  10.951   2.610  0.4023  3.1058 -0.5763
29923SOL    HW293047  10.810  10.929   2.707 -0.6692  2.0927 -2.0027
29924SOL     OW93048   0.651   0.950  10.602 -0.2118 -0.2165 -0.2422
29924SOL    HW193049   0.646   1.042  10.629  2.4477 -0.6339  2.2325
29924SOL    HW293050   0.646   0.953  10.506  0.1993  2.5521 -0.2632
29925SOL     OW93051   6.195   8.741   0.641 -0.0118  0.0386  0.4222
29925SOL    HW193052   6.121   8.700   0.686  0.0948  0.8336  1.3533
29925SOL    HW293053   6.154   8.807   0.585 -0.3079 -2.1329 -2.1371
29926SOL     OW93054   3.112   5.442   2.498  0.2316 -0.0835  0.1073
29926SOL    HW193055   3.053   5.407   2.565  0.9210  1.1545  1.4127
29926SOL    HW293056   3.192   5.465   2.546  1.1110 -0.0727 -1.3182
29927SOL     OW93057  10.318  10.473   9.788  0.6899  0.0316  0.3591
29927SOL    HW193058  10.229  10.439   9.783  1.0555 -0.8785 -0.1838
29927SOL    HW293059  10.373  10.402   9.754  1.6609  0.4290  1.0565
29928SOL     OW93060   3.284   4.184   5.456 -0.1640 -0.2605 -0.2652
29928SOL    HW193061   3.345   4.187   5.530  0.7351 -1.7986 -0.9016
29928SOL    HW293062   3.333   4.143   5.385 -1.9285 -1.6288 -0.7860
29929SOL     OW93063   8.515   8.337   5.170 -0.1457 -0.4637 -0.1882
29929SOL    HW193064   8.596   8.286   5.165  0.8975  1.0604  0.4701
29929SOL    HW293065   8.455   8.292   5.111  1.5744 -0.9491 -1.6709
29930SOL     OW93066   8.529  10.338   8.350 -0.0950 -0.1577  0.1752
29930SOL    HW193067   8.594  10.402   8.322 -1.2349  0.6592 -0.7436
29930SOL    HW293068   8.574  10.254   8.346  0.9884  0.4190 -0.1218
29931SOL     OW93069   7.843   8.046   4.688 -0.8036 -0.2595  0.1219
29931SOL    HW193070   7.883   8.017   4.770  0.2087  0.5316 -0.0668
29931SOL    HW293071   7.758   8.080   4.714 -0.4116  0.1689  0.8830
29932SOL     OW93072   4.382   3.543   0.771  0.1293  0.0745 -0.1592
29932SOL    HW193073   4.310   3.601   0.794  0.9715 -0.1245  3.7138
29932SOL    HW293074   4.364   3.462   0.820  2.9445  0.0776  1.0813
29933SOL     OW93075   9.086   0.161   6.943 -0.5066 -0.6867  0.3306
29933SOL    HW193076   9.088   0.114   6.859  1.3854  0.3996 -0.2926
29933SOL    HW293077   8.996   0.195   6.949 -0.8558 -1.3016 -0.9497
29934SOL     OW93078   1.235   1.751   9.395 -0.2274 -0.2783  0.1591
29934SOL    HW193079   1.268   1.719   9.312  1.0422  0.7865  0.2162
29934SOL    HW293080   1.283   1.833   9.410 -0.6555 -0.2867  1.7789
29935SOL     OW93081   0.230   8.741   5.202 -0.3192  0.1323 -0.1050
29935SOL    HW193082   0.266   8.818   5.157 -3.6536  1.2244 -1.2132
29935SOL    HW293083   0.230   8.765   5.294  2.6554 -0.4088  0.1437
29936SOL     OW93084   8.743   1.174   1.064  0.9104 -0.1149  0.4216
29936SOL    HW193085   8.661   1.162   1.112  0.3786  2.0302  0.1522
29936SOL    HW293086   8.726   1.138   0.978  0.0254  0.7939  0.1960
29937SOL     OW93087   2.777  10.315   9.304 -0.5075 -0.5014  0.1688
29937SOL    HW193088   2.780  10.219   9.313 -0.1722 -0.7211 -1.9303
29937SOL    HW293089   2.784  10.331   9.210  0.7662  1.6610  0.5690
29938SOL     OW93090   4.230   9.424  10.160 -0.0053 -0.0587  0.2249
29938SOL    HW193091   4.203   9.511  10.133 -0.9023 -0.0952  0.9594
29938SOL    HW293092   4.229   9.372  10.080 -0.3915  0.3754 -0.0550
29939SOL     OW93093  10.191   6.354   8.267 -0.1585  0.1142 -0.0994
29939SOL    HW193094  10.228   6.428   8.315  2.5149 -0.4142 -1.1526
29939SOL    HW293095  10.187   6.383   8.176 -2.5987  0.1641 -0.0478
29940SOL     OW93096   3.201  10.329  11.151 -0.0083  0.2597  0.4857
29940SOL    HW193097   3.127  10.288  11.196 -0.1157  0.5201  0.5439
29940SOL    HW293098   3.205  10.283  11.067 -1.0128  1.0892 -0.0334
29941SOL     OW93099  10.435   2.619  11.152  0.6779 -0.1492  0.4936
29941SOL    HW193100  10.497   2.691  11.144  0.7903 -0.4478 -1.8169
29941SOL    HW293101  10.490   2.543  11.171  1.1820 -0.5001 -1.9836
29942SOL     OW93102   0.586   0.676   3.013  0.2338 -0.2551  0.1052
29942SOL    HW193103   0.644   0.650   3.085  0.0568  0.7707  0.6400
29942SOL    HW293104   0.634   0.654   2.934  2.2117  2.2632  0.5050
29943SOL     OW93105   5.913   2.873   6.141 -0.5450 -0.1683 -0.2503
29943SOL    HW193106   5.978   2.825   6.089 -0.9882 -0.8737 -0.1717
29943SOL    HW293107   5.877   2.807   6.200  0.2859  0.7274  1.3081
29944SOL     OW93108   7.663   2.287  11.369 -0.0827  0.4390 -0.0987
29944SOL    HW193109   7.598   2.296  11.300 -0.7118  2.6877  0.6804
29944SOL    HW293110   7.733   2.347  11.344  2.4510 -2.8043 -1.5590
29945SOL     OW93111   1.120   4.811   6.321 -0.0254  1.4539 -0.5096
29945SOL    HW193112   1.029   4.837   6.336 -0.8588 -0.7914 -1.2642
29945SOL    HW293113   1.132   4.818   6.227 -0.1120 -0.2713 -0.6694
29946SOL     OW93114  10.428   1.859   8.242 -0.2264  0.2375 -0.7634
29946SOL    HW193115  10.447   1.927   8.177 -1.6630  1.6999  0.2752
29946SOL    HW293116  10.339   1.877   8.271  0.4021 -0.2353  1.7350
29947SOL     OW93117   5.623   9.420   5.663 -0.1205 -0.3568 -0.6647
29947SOL    HW193118   5.602   9.438   5.755  2.2075  0.3641 -0.1941
29947SOL    HW293119   5.591   9.332   5.648  1.8168 -1.6124  1.7355
29948SOL     OW93120   6.129   9.800   4.546  0.0999  0.1540 -0.1685
29948SOL    HW193121   6.172   9.718   4.570 -1.3243 -0.6058 -0.1299
29948SOL    HW293122   6.143   9.858   4.621  0.6082 -0.2379  0.0458
29949SOL     OW93123   4.873   9.119  10.097 -0.3688 -0.0818  0.4244
29949SOL    HW193124   4.789   9.105  10.053  0.3172 -0.0543 -0.9504
29949SOL    HW293125   4.891   9.212  10.085  0.1086 -0.1947  0.2469
29950SOL     OW93126   7.357   9.798  11.384 -0.6485  0.3420 -0.2548
29950SOL    HW193127   7.354   9.778  11.291 -0.1238  0.5262 -0.3186
29950SOL    HW293128   7.324   9.719  11.427 -0.1019 -0.0626 -0.5640
29951SOL     OW93129   5.578  10.748  10.565 -0.0063 -0.2594 -0.3616
29951SOL    HW193130   5.606  10.660  10.589 -1.9860 -0.3112  2.1789
29951SOL    HW293131   5.651  10.805  10.588  0.1977 -0.9573  0.7840
29952SOL     OW93132   3.507   0.535   3.906  0.2730 -0.2276  0.0075
29952SOL    HW193133   3.567   0.471   3.943 -0.5233 -0.3964  1.0365
29952SOL    HW293134   3.426   0.487   3.893 -0.4766  0.6632  1.2045
29953SOL     OW93135   4.873   3.558   6.621  0.3368  1.0190  0.2053
29953SOL    HW193136   4.801   3.506   6.658  0.3612  1.5418  1.0295
29953SOL    HW293137   4.925   3.496   6.572  0.2776  0.2836  1.0410
29954SOL     OW93138   0.612   2.276   8.539  0.1023 -0.3653 -0.0153
29954SOL    HW193139   0.527   2.314   8.560 -0.3750 -1.9577  1.1512
29954SOL    HW293140   0.670   2.310   8.607  0.5621  1.1068 -1.0884
29955SOL     OW93141   6.241   3.257   1.369  0.1219 -0.4850  0.0135
29955SOL    HW193142   6.325   3.224   1.401  0.3774 -0.4585 -0.6228
29955SOL    HW293143   6.242   3.239   1.275  1.1055  3.0699 -0.8039
29956SOL     OW93144   6.966   2.547   8.120 -0.1970  0.5842 -0.2920
29956SOL    HW193145   7.006   2.578   8.201 -2.0188  1.6169  0.2641
29956SOL    HW293146   7.003   2.459   8.107  2.7284  1.6991 -0.2321
29957SOL     OW93147   3.699   6.980  10.212 -0.0776  0.2649  0.1446
29957SOL    HW193148   3.782   7.009  10.174 -0.3599 -0.9106 -1.4573
29957SOL    HW293149   3.637   7.049  10.190  0.3329  0.8593  0.8216
29958SOL     OW93150   9.219   6.480   5.139  0.3337  0.4673  1.3501
29958SOL    HW193151   9.173   6.438   5.212  0.0969  0.8565  1.4279
29958SOL    HW293152   9.280   6.541   5.180  0.6289  0.2523  1.2359
29959SOL     OW93153   6.009   3.764   1.509 -0.2499  0.2645  0.1936
29959SOL    HW193154   5.953   3.689   1.488  1.0438 -0.0470 -2.4935
29959SOL    HW293155   5.992   3.827   1.440  4.8807 -1.1578 -2.9001
29960SOL     OW93156   4.288   6.860   7.915  0.1062 -0.3752 -0.7619
29960SOL    HW193157   4.315   6.803   7.843  0.6684  0.5984 -1.3336
29960SOL    HW293158   4.348   6.935   7.911 -2.2489  1.5848 -1.6902
29961SOL     OW93159   4.676   3.562   3.699  0.0462 -0.3228  0.3750
29961SOL    HW193160   4.593   3.524   3.672  0.6094 -1.4065  0.0762
29961SOL    HW293161   4.685   3.642   3.649  0.2128 -1.3497 -1.3069
29962SOL     OW93162   5.786   1.345   7.878 -0.3387 -0.1000 -0.2494
29962SOL    HW193163   5.851   1.275   7.871 -1.0101 -0.7353 -0.2646
29962SOL    HW293164   5.821   1.415   7.823  1.0565  0.1533  0.9092
29963SOL     OW93165   0.262   6.305   5.130 -0.0564  0.4665  0.6479
29963SOL    HW193166   0.256   6.310   5.225 -0.0806  0.0205  0.6698
29963SOL    HW293167   0.355   6.311   5.112  0.0325 -0.4148  0.7610
29964SOL     OW93168   0.730   5.476   0.933  0.3553 -0.5836 -0.4145
29964SOL    HW193169   0.815   5.484   0.975 -0.1777 -0.3542  0.6510
29964SOL    HW293170   0.687   5.404   0.980 -0.5851  0.2483  0.0267
29965SOL     OW93171   1.038   1.410   5.770 -0.4148 -0.5232  0.1570
29965SOL    HW193172   1.095   1.485   5.788  0.1139 -0.5422 -1.2667
29965SOL    HW293173   0.950   1.441   5.791 -0.1701  0.3988 -0.1173
29966SOL     OW93174   5.126   8.816   0.246  0.1310  0.2264  0.1807
29966SOL    HW193175   5.105   8.800   0.337  0.2409  0.1463  0.1918
29966SOL    HW293176   5.133   8.911   0.239  1.1852  0.1806  0.4933
29967SOL     OW93177   6.170   2.126   4.500  0.3310 -0.5994 -0.2755
29967SOL    HW193178   6.212   2.155   4.419  2.8582 -0.4756  0.9573
29967SOL    HW293179   6.185   2.197   4.562  0.5185 -1.6196  0.9030
29968SOL     OW93180   3.805   6.458   9.454  0.3386  0.3595  0.1198
29968SOL    HW193181   3.895   6.436   9.429  0.2466 -0.2830  0.3186
29968SOL    HW293182   3.753   6.385   9.422  0.1449 -0.2021  1.6250
29969SOL     OW93183   1.721   1.573   0.663 -0.0130  0.2025  0.3423
29969SOL    HW193184   1.710   1.617   0.579  0.8295  0.4686  0.3558
29969SOL    HW293185   1.777   1.632   0.714  1.2246 -0.9127  0.3221
29970SOL     OW93186   9.600   3.523   1.650  0.7144  0.8118 -0.2963
29970SOL    HW193187   9.541   3.470   1.704 -0.9790  2.5516 -0.3279
29970SOL    HW293188   9.686   3.481   1.660 -0.6398 -2.5433 -1.1424
29971SOL     OW93189   9.263   9.230   6.715  0.2034  0.0733 -0.4258
29971SOL    HW193190   9.242   9.173   6.640 -1.5195  1.2099 -0.8745
29971SOL    HW293191   9.310   9.303   6.676  0.1738  0.1836 -0.2523
29972SOL     OW93192  11.142  11.135   6.045 -0.8736  0.1448 -0.4245
29972SOL    HW193193  11.218  11.089   6.008 -0.1525  0.4972  0.5652
29972SOL    HW293194  11.115  11.195   5.976  0.7603  1.1500 -0.2388
29973SOL     OW93195   9.257   0.797   0.941  0.5992  0.0526 -0.0674
29973SOL    HW193196   9.331   0.841   0.901  1.6454  0.3473  2.0366
29973SOL    HW293197   9.253   0.712   0.899  3.7169 -0.9566  1.3577
29974SOL     OW93198  10.142   0.678   4.443 -0.0398  0.5085  0.9858
29974SOL    HW193199  10.228   0.707   4.412  0.1983  0.2815  1.4167
29974SOL    HW293200  10.094   0.758   4.460 -0.7668  0.6774 -1.5037
29975SOL     OW93201   4.425   2.998   8.170  0.6745  0.1235  0.0567
29975SOL    HW193202   4.451   2.930   8.232  2.3677  1.4967  0.9496
29975SOL    HW293203   4.341   3.031   8.204  1.4428  0.6721  1.5135
29976SOL     OW93204   3.137   3.352   0.422 -0.4137  0.1471  0.1557
29976SOL    HW193205   3.221   3.391   0.397 -0.8439  0.8376 -0.2305
29976SOL    HW293206   3.154   3.257   0.421  0.0038  0.2170 -1.2277
29977SOL     OW93207  10.991   1.931  11.090  1.0516 -0.2107 -0.1219
29977SOL    HW193208  10.897   1.914  11.093  0.8495  0.6173 -1.1869
29977SOL    HW293209  11.004   1.982  11.010  2.0341  1.8970  1.2877
29978SOL     OW93210   8.152   7.170   1.049 -0.9708  0.9682  0.2527
29978SOL    HW193211   8.161   7.127   0.964 -1.0878  1.0874  0.1801
29978SOL    HW293212   8.058   7.174   1.064 -0.9770  1.5052  0.1016
29979SOL     OW93213   6.916   6.179  10.317  0.0985 -1.1680  0.0848
29979SOL    HW193214   6.958   6.107  10.363  0.7626 -0.3721  0.7489
29979SOL    HW293215   6.966   6.257  10.343 -2.8098  0.1155  2.3050
29980SOL     OW93216   6.967   9.542   6.357  0.6433 -0.5988  0.2702
29980SOL    HW193217   6.953   9.453   6.390 -0.2093 -0.5679  0.0285
29980SOL    HW293218   6.990   9.593   6.434 -0.8694 -0.6228  0.7734
29981SOL     OW93219   3.787   9.319  10.116  0.1345 -0.0718  0.0875
29981SOL    HW193220   3.705   9.277  10.142  0.2147  0.7266  1.7638
29981SOL    HW293221   3.827   9.256  10.056 -1.6300 -0.5250 -0.6780
29982SOL     OW93222  11.314  10.188  10.279 -0.2732 -0.2504  0.3788
29982SOL    HW193223  11.249  10.231  10.224  0.5126  0.2581 -0.1838
29982SOL    HW293224  11.338  10.254  10.344  1.3044  0.4159 -0.7921
29983SOL     OW93225   4.618   0.593   7.607  0.1754 -0.3564 -0.1969
29983SOL    HW193226   4.564   0.608   7.529  1.6858  1.4114 -0.9692
29983SOL    HW293227   4.672   0.517   7.585 -0.4629 -0.8124 -0.2387
29984SOL     OW93228   1.131   7.398   6.120 -0.1690 -0.0828  0.0348
29984SOL    HW193229   1.191   7.415   6.047  0.1119  1.7570  0.6215
29984SOL    HW293230   1.159   7.313   6.154 -0.1119 -0.8495 -1.7769
29985SOL     OW93231   4.821   1.512   3.816  0.4695 -0.2066  0.5604
29985SOL    HW193232   4.864   1.587   3.856  0.3175  1.2473 -1.8135
29985SOL    HW293233   4.832   1.524   3.722 -0.7214 -2.4756  0.0339
29986SOL     OW93234   8.818  11.322   2.827  0.1603  0.2270  0.4404
29986SOL    HW193235   8.893  11.327   2.768 -0.5634  2.0594 -0.4180
29986SOL    HW293236   8.838  11.386   2.896  0.4220 -0.9904  1.5438
29987SOL     OW93237   8.115   9.969  11.206  0.3086 -0.1313 -0.2563
29987SOL    HW193238   8.201   9.928  11.217  0.3754  0.0020 -0.2838
29987SOL    HW293239   8.057   9.916  11.261  0.2196 -0.8129 -0.9944
29988SOL     OW93240   0.570   4.792   4.633 -0.0198 -0.5464  0.1585
29988SOL    HW193241   0.599   4.806   4.723 -0.9847  2.2147  0.1538
29988SOL    HW293242   0.629   4.845   4.580  1.0366 -2.7604 -1.0004
29989SOL     OW93243   3.131   1.236   4.244 -0.0125  0.0524 -0.1247
29989SOL    HW193244   3.108   1.289   4.168  0.2425  1.3696  0.6937
29989SOL    HW293245   3.210   1.277   4.279  0.9933 -1.6808 -0.2370
29990SOL     OW93246   2.070   7.828   1.642 -0.4387  0.0545  0.2012
29990SOL    HW193247   2.088   7.857   1.553 -1.9390 -2.8846 -1.1986
29990SOL    HW293248   2.154   7.800   1.676  0.6396  3.4711  0.7971
29991SOL     OW93249   8.335   9.994   6.389  0.4699 -0.1417  0.5880
29991SOL    HW193250   8.296   9.981   6.302  1.1354  0.2116  0.2298
29991SOL    HW293251   8.351   9.906   6.422  1.0610 -0.2733 -0.0363
29992SOL     OW93252   9.201   6.739   7.439 -0.5573  0.4348  0.7959
29992SOL    HW193253   9.175   6.661   7.488 -1.4896 -0.3000 -0.7779
29992SOL    HW293254   9.263   6.706   7.373 -1.1118  0.9647 -0.0131
29993SOL     OW93255   3.989   9.122  10.542 -0.1564  0.3079 -0.6920
29993SOL    HW193256   4.017   9.212  10.530  2.0573 -0.2865 -0.3476
29993SOL    HW293257   3.984   9.086  10.453 -1.6944  0.8872 -0.8844
29994SOL     OW93258   0.891   3.922   0.156  0.0542 -0.1525 -1.2034
29994SOL    HW193259   0.830   3.994   0.174 -0.6152 -0.7298 -1.1177
29994SOL    HW293260   0.855   3.848   0.203  0.5231 -0.6449 -1.6100
29995SOL     OW93261   5.449  10.943   4.904  0.4051 -0.2700 -0.1716
29995SOL    HW193262   5.504  10.892   4.844  2.7023  1.8305  0.0001
29995SOL    HW293263   5.499  10.946   4.986 -1.4733 -0.8691  1.0750
29996SOL     OW93264   5.023   8.541   5.567  0.1880  0.4658  0.0314
29996SOL    HW193265   4.990   8.454   5.590 -0.6601  1.7065  4.5066
29996SOL    HW293266   5.091   8.558   5.633 -0.2328  3.4729 -0.2112
29997SOL     OW93267   3.085   3.248   8.498 -0.3246  0.6772 -0.5667
29997SOL    HW193268   3.156   3.185   8.500 -0.0447  0.9811 -0.8788
29997SOL    HW293269   3.062   3.261   8.590 -0.0983  0.4433 -0.4773
29998SOL     OW93270  10.905   0.983   6.493  0.3321 -0.4507  0.2249
29998SOL    HW193271  10.999   0.966   6.496  0.1974 -1.1992  0.1810
29998SOL    HW293272  10.871   0.922   6.428 -0.1970 -0.2160  0.2762
29999SOL     OW93273   7.048   4.055   7.446 -0.2857 -0.8171 -0.6893
29999SOL    HW193274   7.044   4.126   7.510  0.5339 -2.3519  1.1562
29999SOL    HW293275   7.093   4.093   7.371 -1.7035  1.1774 -0.6011
30000SOL     OW93276   1.389   6.462   2.989  0.1107  0.5613  0.6461
30000SOL    HW193277   1.326   6.459   2.918 -2.1930  0.7705  2.5369
30000SOL    HW293278   1.443   6.384   2.978 -1.3338 -0.3306 -0.3337
30001SOL     OW93279   0.151   4.154   8.528 -0.3725 -0.2681 -0.2406
30001SOL    HW193280   0.227   4.201   8.564 -1.6805  0.5028  1.6887
30001SOL    HW293281   0.103   4.220   8.479 -0.5696 -0.3583 -0.1719
30002SOL     OW93282   5.164   3.033  10.097 -0.1577  0.4006 -0.1826
30002SOL    HW193283   5.165   2.939  10.079 -0.5790  0.3305  0.1393
30002SOL    HW293284   5.092   3.045  10.159  0.8819  0.7160  1.0010
30003SOL     OW93285   8.383   3.864  11.134  0.0513 -0.0064  0.1680
30003SOL    HW193286   8.419   3.894  11.217  0.6737 -1.2871  0.3779
30003SOL    HW293287   8.419   3.776  11.122  0.7638  0.5303 -1.9482
30004SOL     OW93288   4.020   5.148  10.491 -0.1481  0.0418 -0.1214
30004SOL    HW193289   4.100   5.130  10.441 -0.0109 -1.5889  0.6344
30004SOL    HW293290   4.051   5.174  10.577 -0.4226  1.6199 -0.4519
30005SOL     OW93291   3.793   1.190   8.304  0.4292  0.4342 -0.3833
30005SOL    HW193292   3.800   1.269   8.357 -1.9650  0.6379 -0.2749
30005SOL    HW293293   3.803   1.221   8.214 -0.2167  0.8540 -0.3237
30006SOL     OW93294   4.079   0.068   8.057  0.0343  0.1418  0.2177
30006SOL    HW193295   3.985   0.079   8.044 -0.1269 -1.2889 -0.0320
30006SOL    HW293296   4.109   0.151   8.095 -1.8047 -0.3234  2.9166
30007SOL     OW93297   0.353   5.473   0.567 -0.0617 -0.0975  0.0035
30007SOL    HW193298   0.344   5.559   0.526  0.1298  0.3866  0.9659
30007SOL    HW293299   0.424   5.483   0.630 -1.0006 -0.5522  1.1646
30008SOL     OW93300   2.729   4.051   6.323 -0.0062 -0.1326 -0.1589
30008SOL    HW193301   2.780   4.026   6.400 -0.6302 -1.4289 -0.1224
30008SOL    HW293302   2.682   4.130   6.349 -0.8789 -1.0342  1.1212
30009SOL     OW93303   2.453   2.752   2.987  0.1509 -0.5195 -0.2552
30009SOL    HW193304   2.361   2.728   2.974  0.1809 -2.3964  2.3848
30009SOL    HW293305   2.466   2.750   3.082  1.8980  3.9576 -0.1556
30010SOL     OW93306   4.505  10.465   6.701  0.1358  0.2561 -0.0034
30010SOL    HW193307   4.594  10.471   6.734  0.3278  0.2048 -0.5028
30010SOL    HW293308   4.452  10.509   6.767  0.6795  1.3714 -0.2863
30011SOL     OW93309   0.983   5.752  10.904  0.2616  0.9153 -0.0019
30011SOL    HW193310   1.073   5.756  10.870 -0.3000  0.3046 -1.6462
30011SOL    HW293311   0.966   5.840  10.936  1.8348  0.7469  1.4262
30012SOL     OW93312   9.310   1.698   1.314  0.3052 -0.1622 -0.8204
30012SOL    HW193313   9.309   1.760   1.386 -3.4812  1.7978 -2.2367
30012SOL    HW293314   9.374   1.733   1.253  2.7053 -1.2179  0.9597
30013SOL     OW93315   7.575  10.097   6.351 -0.0706 -0.0208  0.4083
30013SOL    HW193316   7.523  10.022   6.382  1.0637 -1.1683 -0.3381
30013SOL    HW293317   7.662  10.084   6.391 -0.2727  1.8319  1.5938
30014SOL     OW93318   1.762   7.401   5.892  0.4938 -0.0801  0.8366
30014SOL    HW193319   1.747   7.318   5.845 -1.5553  1.2111 -0.9814
30014SOL    HW293320   1.696   7.401   5.961 -1.6987  1.2829 -1.0948
30015SOL     OW93321   4.502  11.047   5.143 -0.0953  0.6772  0.3036
30015SOL    HW193322   4.496  11.125   5.198 -0.1185  2.1084 -1.5897
30015SOL    HW293323   4.587  11.056   5.099  0.6836 -1.2905  1.3067
30016SOL     OW93324   5.786   7.802   6.930 -0.4078  0.1554 -0.2229
30016SOL    HW193325   5.765   7.766   6.844 -1.0918 -0.3184  0.1300
30016SOL    HW293326   5.747   7.740   6.992  0.3060  0.3460  0.4339
30017SOL     OW93327   7.076   4.934  11.382  0.6775  0.3646  0.1863
30017SOL    HW193328   7.128   4.945  11.462 -0.4854  2.2721  0.7535
30017SOL    HW293329   7.059   5.024  11.353  0.8075 -0.2843 -2.0533
30018SOL     OW93330  11.267   6.777   6.906  0.2660 -0.0479  0.0445
30018SOL    HW193331  11.328   6.824   6.963 -0.9849 -0.1948  1.5551
30018SOL    HW293332  11.257   6.691   6.946 -0.2756 -0.3347 -0.6771
30019SOL     OW93333   1.126   8.716   4.780  0.0132 -0.3718 -0.4379
30019SOL    HW193334   1.097   8.806   4.766 -0.6721 -0.5282 -0.1006
30019SOL    HW293335   1.166   8.690   4.697  0.7259  0.4247 -0.3556
30020SOL     OW93336   5.855   8.495   9.301  0.0684  0.0010 -0.0484
30020SOL    HW193337   5.771   8.473   9.341 -0.1778  0.0319 -0.5353
30020SOL    HW293338   5.840   8.483   9.207  0.0598  1.8391 -0.3077
30021SOL     OW93339   4.484   0.784   5.749  0.0475 -0.0634  0.0970
30021SOL    HW193340   4.405   0.792   5.802  0.3649 -0.6156  0.6555
30021SOL    HW293341   4.542   0.853   5.782  0.6825 -1.1152  1.2518
30022SOL     OW93342  11.138   8.684   6.664 -0.0957 -0.0514 -0.2146
30022SOL    HW193343  11.139   8.775   6.636  2.3264  0.0769  0.0739
30022SOL    HW293344  11.212   8.644   6.617 -0.9867 -1.8402 -0.1998
30023SOL     OW93345   5.073   1.634   7.136  0.7252  0.4397  0.0329
30023SOL    HW193346   5.135   1.636   7.209  0.6691 -0.2625  0.1048
30023SOL    HW293347   5.013   1.706   7.155  1.4808  1.1028 -0.0147
30024SOL     OW93348  10.702   9.902  11.045 -0.3346  0.3000 -0.1506
30024SOL    HW193349  10.678   9.987  11.008  0.5434  1.1063  1.0522
30024SOL    HW293350  10.691   9.913  11.139 -1.6257 -1.4065 -0.0442
30025SOL     OW93351   6.402   6.650   4.890  0.3487 -0.7430 -0.1203
30025SOL    HW193352   6.431   6.665   4.800  1.4172 -1.0136  0.1727
30025SOL    HW293353   6.333   6.716   4.903  1.0209  0.1109 -0.7336
30026SOL     OW93354   9.831   6.571   4.355  0.6554  0.4528 -0.0889
30026SOL    HW193355   9.871   6.511   4.292  2.2028 -0.2907  1.5180
30026SOL    HW293356   9.793   6.640   4.301  2.2580  0.0656 -1.8414
30027SOL     OW93357   1.948   7.103   1.535 -0.6724 -0.4485 -0.0970
30027SOL    HW193358   1.911   7.026   1.491 -2.8061  0.8808 -0.7881
30027SOL    HW293359   1.894   7.115   1.613 -0.7489  0.6683 -0.3040
30028SOL     OW93360   8.224   7.179   0.261 -0.0730 -0.6440 -0.1454
30028SOL    HW193361   8.157   7.241   0.233  1.0831  1.0916  0.7113
30028SOL    HW293362   8.187   7.093   0.242 -1.8956  0.2840 -1.0660
30029SOL     OW93363   7.360   9.191   3.754 -0.0387  0.7097 -0.2846
30029SOL    HW193364   7.280   9.188   3.702 -1.7803  0.5115  2.1981
30029SOL    HW293365   7.360   9.108   3.802  1.3386  0.9917  0.2599
30030SOL     OW93366   9.004   4.904   5.305 -0.6925  0.3126 -0.0459
30030SOL    HW193367   8.947   4.839   5.347 -0.6908  0.4033  0.0966
30030SOL    HW293368   9.067   4.851   5.256 -0.1694  0.1872  0.7540
30031SOL     OW93369   0.212   5.257   1.438  0.1522  0.1974  0.6800
30031SOL    HW193370   0.239   5.349   1.439  1.4393 -0.1436  2.3904
30031SOL    HW293371   0.147   5.252   1.368  1.6053  1.9427 -0.8920
30032SOL     OW93372   1.474   9.833   7.940  0.1987 -0.3841  0.8544
30032SOL    HW193373   1.483   9.739   7.954  1.3117 -0.4460 -0.1215
30032SOL    HW293374   1.471   9.843   7.845  0.4781  0.5983  0.9371
30033SOL     OW93375   2.213   7.189   9.976 -0.3726  0.2518 -0.2944
30033SOL    HW193376   2.301   7.223   9.994 -0.6182  0.7296  0.0157
30033SOL    HW293377   2.158   7.267   9.966 -0.8309 -0.0460 -0.1434
30034SOL     OW93378   8.473  10.025   9.413 -0.0935  0.3657  0.3348
30034SOL    HW193379   8.400   9.999   9.470  0.8551 -0.7367  1.0952
30034SOL    HW293380   8.547   9.973   9.444  0.7709  0.6941 -1.1012
30035SOL     OW93381   7.820   9.245   4.643 -0.2316 -0.6891 -0.0464
30035SOL    HW193382   7.787   9.321   4.596  1.6006  0.1194 -0.1076
30035SOL    HW293383   7.781   9.170   4.598  0.4448  0.1106 -2.0737
30036SOL     OW93384   4.942   3.912   3.334 -0.4796  0.0860 -0.3045
30036SOL    HW193385   5.004   3.982   3.354  0.3510 -1.0309  1.2603
30036SOL    HW293386   4.968   3.880   3.248  0.9879 -0.1871  0.2098
30037SOL     OW93387   9.895   1.139   6.979 -0.0708  0.5362 -0.2703
30037SOL    HW193388   9.980   1.121   7.019 -0.0788  0.4002 -0.3128
30037SOL    HW293389   9.894   1.234   6.966 -0.6167  0.7872  1.3236
30038SOL     OW93390   2.204   0.823   3.958  0.1189 -0.2144  0.5618
30038SOL    HW193391   2.252   0.790   3.882 -0.6409  0.1746 -0.1027
30038SOL    HW293392   2.240   0.910   3.974 -2.1859  1.2887 -1.7003
30039SOL     OW93393   7.503   4.295   9.587 -0.0972 -0.0289 -0.3097
30039SOL    HW193394   7.415   4.272   9.617 -0.4410  1.9114  0.2981
30039SOL    HW293395   7.489   4.337   9.501  0.4835 -1.7254 -1.2760
30040SOL     OW93396   5.289  11.252   8.784  0.2884 -0.0601 -0.2425
30040SOL    HW193397   5.344  11.330   8.790 -0.0374  0.2155 -0.7253
30040SOL    HW293398   5.346  11.185   8.746  0.7432 -0.2349  0.7404
30041SOL     OW93399   5.719   3.295   7.070  0.2148 -0.2347  0.2214
30041SOL    HW193400   5.797   3.251   7.103  0.1934 -0.6188 -0.2220
30041SOL    HW293401   5.662   3.304   7.146 -0.5351 -2.5879  0.0001
30042SOL     OW93402   3.525   3.120   6.601 -0.3554  0.2506 -0.0654
30042SOL    HW193403   3.490   3.194   6.551 -0.6515  0.3115  0.2274
30042SOL    HW293404   3.578   3.071   6.537 -1.2388 -0.0259 -0.6061
30043SOL     OW93405   3.001   7.901   6.827 -0.0159  0.3008  0.0808
30043SOL    HW193406   3.079   7.858   6.793  0.4302  1.8581 -0.9603
30043SOL    HW293407   3.021   7.917   6.920 -0.0712 -1.3677  0.4139
30044SOL     OW93408   0.781   9.502   4.399 -0.2859 -0.0866 -0.6904
30044SOL    HW193409   0.824   9.582   4.430 -0.5529  0.3924 -1.4986
30044SOL    HW293410   0.736   9.530   4.319 -1.0488 -0.8701 -0.5415
30045SOL     OW93411   0.753   4.053   5.599  0.1598 -0.2439  0.3083
30045SOL    HW193412   0.846   4.033   5.597  0.9357  2.9399 -0.9202
30045SOL    HW293413   0.727   4.055   5.507 -1.2010 -1.2405  0.6399
30046SOL     OW93414   8.615  10.936   7.192  0.2439 -0.3048 -0.1561
30046SOL    HW193415   8.687  10.977   7.144 -0.7808  0.3148 -1.2143
30046SOL    HW293416   8.619  10.844   7.167  0.5175 -0.2299 -0.3953
30047SOL     OW93417   9.248   5.253   1.888 -0.1830 -0.0523  0.1817
30047SOL    HW193418   9.185   5.182   1.905 -0.3496  0.1442  0.3879
30047SOL    HW293419   9.202   5.311   1.828  0.0488 -0.2511 -0.1861
30048SOL     OW93420   0.064   8.385   3.240  0.5231 -0.3095 -0.0035
30048SOL    HW193421  -0.001   8.417   3.178 -0.0097 -0.7894  0.2935
30048SOL    HW293422   0.021   8.311   3.284  0.5978  0.4852  1.4644
30049SOL     OW93423   2.933   7.395   1.455 -0.3645  0.1258  0.5121
30049SOL    HW193424   3.016   7.363   1.490  0.4363  2.4192  0.8795
30049SOL    HW293425   2.879   7.409   1.533 -1.1275 -1.3021  0.2766
30050SOL     OW93426  10.476  10.662   1.047 -0.4058 -0.1222 -0.6296
30050SOL    HW193427  10.450  10.592   1.106  0.8107 -0.7173 -0.7845
30050SOL    HW293428  10.513  10.730   1.103  2.8160 -1.5897 -0.7701
30051SOL     OW93429   2.401   6.130   4.070 -0.9278  0.3107 -0.3170
30051SOL    HW193430   2.486   6.097   4.100 -0.5397  1.4109 -0.1885
30051SOL    HW293431   2.339   6.062   4.098 -0.1764 -0.2064  0.1451
30052SOL     OW93432   6.877   0.906   3.727  0.3046  0.2398  0.0795
30052SOL    HW193433   6.809   0.839   3.737 -0.8202  1.5506  2.0482
30052SOL    HW293434   6.901   0.902   3.634 -3.1061  0.2455 -0.9761
30053SOL     OW93435   1.000   1.499   9.992  0.0844  0.0054  0.3002
30053SOL    HW193436   0.986   1.410   9.959  0.7044 -0.3266  0.9159
30053SOL    HW293437   0.922   1.519  10.043  0.2782 -0.4749  0.7837
30054SOL     OW93438   0.598   4.144   7.803 -0.0879  0.4315 -0.0766
30054SOL    HW193439   0.581   4.221   7.748 -3.4455 -0.5691 -0.6712
30054SOL    HW293440   0.520   4.135   7.856  1.9276 -0.2685  3.0536
30055SOL     OW93441   6.958   5.714   1.438 -0.5888  0.1504  0.5870
30055SOL    HW193442   6.900   5.709   1.514  1.5593  2.4068  2.5422
30055SOL    HW293443   7.032   5.659   1.461 -0.6591 -0.5084 -0.6780
30056SOL     OW93444   5.885   7.551   3.275  0.4908  0.3956  0.0243
30056SOL    HW193445   5.927   7.635   3.258  1.1311 -0.2646 -1.9461
30056SOL    HW293446   5.842   7.528   3.192 -1.0183 -0.4863  1.0017
30057SOL     OW93447   5.692   8.496   8.525 -0.8175  0.1654  0.7764
30057SOL    HW193448   5.614   8.451   8.559 -1.3771  0.3496 -0.2177
30057SOL    HW293449   5.673   8.589   8.536 -0.6932  0.2069  0.6393
30058SOL     OW93450   5.900   4.861   9.541  0.1201  0.0752 -0.8187
30058SOL    HW193451   5.814   4.885   9.509  0.1736 -0.4915 -1.4142
30058SOL    HW293452   5.937   4.806   9.472  0.3346 -0.9830  0.1062
30059SOL     OW93453   1.861   9.734   9.085 -0.1434  0.0515 -0.4735
30059SOL    HW193454   1.887   9.749   9.176 -2.2587  0.1478  0.1774
30059SOL    HW293455   1.943   9.727   9.037  1.0900  3.0417  0.9386
30060SOL     OW93456   1.963   5.933   4.271  0.6485 -0.0436  0.3808
30060SOL    HW193457   2.008   5.895   4.346  0.3406 -2.5822 -0.6322
30060SOL    HW293458   2.033   5.957   4.211  0.8378  0.9115  0.9584
30061SOL     OW93459   4.548   2.868   7.538  0.3034 -0.6125 -0.5199
30061SOL    HW193460   4.608   2.896   7.468 -2.0492  1.7976 -1.7441
30061SOL    HW293461   4.580   2.781   7.563  3.0809 -0.2941 -2.4233
30062SOL     OW93462   9.773   1.406   5.995  0.2189  0.6088 -0.2097
30062SOL    HW193463   9.682   1.400   6.023  0.8325  1.5384  2.2800
30062SOL    HW293464   9.778   1.351   5.917 -1.8734 -1.6899  1.1137
30063SOL     OW93465   1.355   1.391   1.239 -0.0286  0.2184 -0.0084
30063SOL    HW193466   1.439   1.350   1.220  0.1775 -1.0135  2.9922
30063SOL    HW293467   1.374   1.484   1.240  0.8544  0.0763 -1.1866
30064SOL     OW93468   9.292   1.395  11.192 -0.1506  0.3445 -0.1051
30064SOL    HW193469   9.229   1.346  11.140  1.5566 -0.9917 -0.9911
30064SOL    HW293470   9.299   1.480  11.148 -0.7951  0.2565 -0.3911
30065SOL     OW93471  11.168   8.621   3.665  0.0450 -0.0398 -0.2386
30065SOL    HW193472  11.134   8.598   3.579 -0.7009 -1.6790  0.4454
30065SOL    HW293473  11.227   8.695   3.649  0.6121 -0.8526 -2.2705
30066SOL     OW93474   0.301   6.895  10.755 -0.0141 -0.6599  0.0561
30066SOL    HW193475   0.375   6.843  10.724  0.9799 -1.2752  3.0629
30066SOL    HW293476   0.336   6.983  10.766  0.4632 -1.0185  1.7798
30067SOL     OW93477   4.768   7.031   2.334 -0.1803 -0.0248  0.0091
30067SOL    HW193478   4.799   7.097   2.396  0.6817  0.1706 -0.6072
30067SOL    HW293479   4.832   6.960   2.341  0.6220  0.4999 -1.4813
30068SOL     OW93480   7.520   9.950   9.667  0.0911  0.2026 -0.6814
30068SOL    HW193481   7.472   9.875   9.633 -1.1712  0.3856  0.5812
30068SOL    HW293482   7.530  10.008   9.591 -0.1047 -0.6456 -1.3691
30069SOL     OW93483  10.523   2.867   5.014 -0.7155  0.0261  0.1964
30069SOL    HW193484  10.541   2.941   4.956 -0.5961 -1.2094 -1.3791
30069SOL    HW293485  10.557   2.896   5.099 -1.5690  2.1610 -0.1197
30070SOL     OW93486   5.694  10.155   4.157  0.0127  0.5349 -0.4763
30070SOL    HW193487   5.681  10.235   4.208  3.4914  1.9867 -1.5576
30070SOL    HW293488   5.760  10.106   4.206 -1.3515 -1.2871 -0.3465
30071SOL     OW93489   7.502   0.972  11.280 -0.3990 -0.6427  0.5967
30071SOL    HW193490   7.520   0.912  11.352 -1.4054 -1.5673  0.1213
30071SOL    HW293491   7.585   0.978  11.233 -0.1673 -1.3658  0.8885
30072SOL     OW93492   4.896   9.895  10.658 -0.3893 -0.3391  0.1966
30072SOL    HW193493   4.912   9.914  10.751  1.7809 -1.1926  0.0683
30072SOL    HW293494   4.856   9.974  10.624  1.0757  0.9732  1.3489
30073SOL     OW93495   0.992   0.516   8.056 -0.1919  0.0364 -0.3321
30073SOL    HW193496   0.898   0.535   8.046  0.0267  1.3024 -0.1448
30073SOL    HW293497   0.994   0.437   8.110 -1.1594 -0.4361 -0.9485
30074SOL     OW93498   4.429   4.293   8.860  0.2051  0.1310 -0.5264
30074SOL    HW193499   4.475   4.360   8.809  0.5658 -0.7760 -1.4292
30074SOL    HW293500   4.342   4.288   8.822 -0.6455  1.6806  1.0341
30075SOL     OW93501   4.156   4.155   1.580  0.8292  0.3058  0.0757
30075SOL    HW193502   4.089   4.176   1.514  2.4197  0.4400 -1.5630
30075SOL    HW293503   4.200   4.237   1.596  2.1041 -0.2074 -0.6411
30076SOL     OW93504   3.714   6.425   4.925  0.2416 -0.1255 -0.4894
30076SOL    HW193505   3.631   6.448   4.884  0.5791  0.2969 -0.9471
30076SOL    HW293506   3.726   6.491   4.994 -1.0004 -1.6380  1.2697
30077SOL     OW93507   5.254   7.278   5.315  0.2041 -0.6861  0.1844
30077SOL    HW193508   5.327   7.230   5.354  0.8431  0.5956  0.6153
30077SOL    HW293509   5.267   7.269   5.221  0.9130 -0.4944  0.2561
30078SOL     OW93510   1.802   6.375   4.534  0.3391 -0.4127 -0.6415
30078SOL    HW193511   1.810   6.464   4.502 -0.7010 -0.3941 -0.8768
30078SOL    HW293512   1.788   6.385   4.629  0.0815 -0.3187 -0.6888
30079SOL     OW93513  10.866  11.085  10.674 -0.5086 -0.0286 -0.2307
30079SOL    HW193514  10.897  11.011  10.727  0.4720 -0.4396 -1.3332
30079SOL    HW293515  10.874  11.161  10.731 -0.2150 -0.5711  0.4624
30080SOL     OW93516   2.961   3.224  10.321 -0.4374 -0.0947 -1.0090
30080SOL    HW193517   2.949   3.130  10.334  1.7376 -0.4822 -1.2507
30080SOL    HW293518   3.054   3.232  10.299  0.3137  2.4394  2.2692
30081SOL     OW93519   8.847   4.968   5.823 -0.0204  0.0439 -0.2206
30081SOL    HW193520   8.753   4.961   5.806 -0.3477  0.2177  1.3880
30081SOL    HW293521   8.858   5.053   5.864  0.9698  0.3671 -1.1371
30082SOL     OW93522   8.639   2.824   4.118  0.1808  0.1251 -0.0709
30082SOL    HW193523   8.660   2.905   4.166 -0.0343  0.6848 -0.8931
30082SOL    HW293524   8.674   2.754   4.173 -2.9399  0.4264  2.6225
30083SOL     OW93525   3.860   5.872   7.123 -0.2401  0.2180  0.1830
30083SOL    HW193526   3.935   5.849   7.178 -0.4088  0.3339  0.4633
30083SOL    HW293527   3.810   5.791   7.116  0.5784 -0.2166 -1.0815
30084SOL     OW93528   1.326   7.689   4.300  0.3967  0.4286 -0.1316
30084SOL    HW193529   1.344   7.637   4.378 -0.8324  0.8400  0.4515
30084SOL    HW293530   1.371   7.773   4.317  1.8476 -0.1720 -0.7979
30085SOL     OW93531   0.096   0.841   4.749  0.0441  0.0410  0.1498
30085SOL    HW193532   0.090   0.859   4.655 -1.7692 -1.7240 -0.1472
30085SOL    HW293533   0.053   0.915   4.790  0.9829  0.9030 -0.3817
30086SOL     OW93534   2.110   7.569   3.649  0.4776 -0.0293  0.2850
30086SOL    HW193535   2.096   7.516   3.728 -0.0818 -1.3120 -0.6458
30086SOL    HW293536   2.095   7.509   3.577 -2.2205  1.8141 -0.8859
30087SOL     OW93537   1.227   4.130   6.561  0.0277  0.0567  0.2127
30087SOL    HW193538   1.260   4.093   6.643  1.0095  0.3350 -0.0397
30087SOL    HW293539   1.146   4.175   6.586 -1.4942 -2.6069  0.4545
30088SOL     OW93540   3.333   2.441   7.988 -0.2734 -0.6584  0.5126
30088SOL    HW193541   3.254   2.418   7.940  0.1421  0.2898 -0.7020
30088SOL    HW293542   3.341   2.536   7.977  1.3658 -0.8080  0.0398
30089SOL     OW93543   3.340   2.688  10.068  0.0977  0.7406  0.0603
30089SOL    HW193544   3.287   2.753  10.021  3.9770  3.6963 -0.7165
30089SOL    HW293545   3.328   2.711  10.160  1.0192  2.3734 -0.1815
30090SOL     OW93546  10.981  10.980   9.419 -0.0548 -0.2660  0.4330
30090SOL    HW193547  10.956  11.064   9.381 -0.2661 -0.3583  0.3693
30090SOL    HW293548  10.941  10.915   9.362  1.5442 -0.4458 -0.5715
30091SOL     OW93549  11.201   8.730  10.266 -0.3867  0.1926  0.3202
30091SOL    HW193550  11.161   8.755  10.350 -1.2988  0.7954 -0.2825
30091SOL    HW293551  11.143   8.766  10.200 -0.9237 -2.1732 -0.6105
30092SOL     OW93552   6.713   4.091  10.546 -0.0963 -0.4866 -0.1645
30092SOL    HW193553   6.774   4.141  10.599 -0.5453  0.5272 -0.5878
30092SOL    HW293554   6.755   4.086  10.460  0.5304 -1.9385  0.1939
30093SOL     OW93555   4.894   0.438   3.318  0.0449 -0.2119 -0.4998
30093SOL    HW193556   4.838   0.512   3.295 -1.9139 -1.4020  0.2208
30093SOL    HW293557   4.981   0.464   3.289 -0.3521  2.8031  0.6379
30094SOL     OW93558  10.314   7.447   0.384  0.5311  0.3229 -0.1123
30094SOL    HW193559  10.282   7.537   0.390 -0.9267 -0.1830 -0.0971
30094SOL    HW293560  10.377   7.449   0.311  1.5086  1.6178  0.7217
30095SOL     OW93561  10.608   9.068   6.181  0.2206  0.3347 -0.0307
30095SOL    HW193562  10.670   9.057   6.253  2.2856  1.1726 -1.5875
30095SOL    HW293563  10.660   9.054   6.102 -1.9314 -0.4046 -1.4011
30096SOL     OW93564   4.024   3.588   7.076 -0.3673 -0.2890  0.2744
30096SOL    HW193565   4.050   3.627   6.993 -0.7722  0.1467  0.3505
30096SOL    HW293566   3.937   3.551   7.059  0.0605 -1.2936  0.1601
30097SOL     OW93567   9.076   2.937   0.316 -0.2900  0.4633  0.4030
30097SOL    HW193568   8.990   2.916   0.352  0.0052  0.9458  1.4539
30097SOL    HW293569   9.064   3.021   0.272 -0.6753 -0.1768 -0.7448
30098SOL     OW93570   0.499   6.191   8.280  0.1030  0.3738  0.6679
30098SOL    HW193571   0.409   6.190   8.312  0.2030  0.9811  0.9797
30098SOL    HW293572   0.506   6.273   8.230  0.5040  0.3713  0.7171
30099SOL     OW93573   2.617   3.947   3.351 -0.3412 -0.2035  0.5894
30099SOL    HW193574   2.661   4.024   3.388  0.9735 -0.7716  0.2456
30099SOL    HW293575   2.539   3.936   3.405  0.3951  0.3032  1.7886
30100SOL     OW93576   0.955   8.962   0.543  0.1605 -0.5677 -0.1723
30100SOL    HW193577   0.961   9.036   0.603  0.2086  0.5939 -1.5326
30100SOL    HW293578   0.995   8.889   0.590 -0.7047  0.0219  1.5627
30101SOL     OW93579   4.928   6.770  10.473 -0.1479 -0.1562 -0.3921
30101SOL    HW193580   4.845   6.726  10.456 -0.8349 -0.0359  2.1867
30101SOL    HW293581   4.994   6.701  10.472 -0.6979 -0.7005  0.1129
30102SOL     OW93582  10.038   5.138   3.831  0.3781  0.4817 -0.2342
30102SOL    HW193583   9.986   5.069   3.789 -0.1205 -0.1272  1.3073
30102SOL    HW293584   9.974   5.205   3.855  0.2444 -0.2362  1.5998
30103SOL     OW93585   4.640   3.673   3.945 -0.2024  0.1627  0.0614
30103SOL    HW193586   4.562   3.663   4.000 -0.0722  0.9606  0.4092
30103SOL    HW293587   4.631   3.606   3.878  0.8746 -2.6308  2.4863
30104SOL     OW93588   5.133   1.892   1.513 -0.0790 -0.1216 -0.3309
30104SOL    HW193589   5.182   1.932   1.441 -0.8215 -0.1213 -0.8535
30104SOL    HW293590   5.136   1.798   1.495 -0.8019 -0.0801 -0.7347
30105SOL     OW93591   7.648  10.699   5.680  0.3669  0.3138 -0.4999
30105SOL    HW193592   7.713  10.642   5.640 -0.5211 -0.0301 -1.5005
30105SOL    HW293593   7.584  10.640   5.718 -0.6358  0.6044 -1.6675
30106SOL     OW93594   3.475   9.594   2.792  0.0386 -0.5389 -0.3234
30106SOL    HW193595   3.401   9.534   2.788 -2.7497  2.5197  0.3459
30106SOL    HW293596   3.452   9.664   2.730  2.8949  0.0681 -0.8069
30107SOL     OW93597   5.015  11.305   7.891 -0.1084 -0.1794 -0.1904
30107SOL    HW193598   4.999  11.223   7.844 -2.7071 -0.6544  1.2730
30107SOL    HW293599   5.109  11.319   7.886  0.1955 -2.3734 -1.9020
30108SOL     OW93600   4.738   3.668   8.151  0.1361 -0.3281  0.6299
30108SOL    HW193601   4.829   3.670   8.121 -0.0939  0.4497 -0.0660
30108SOL    HW293602   4.743   3.643   8.243  0.9428 -1.9017  0.2062
30109SOL     OW93603   8.634   3.412   4.849  0.2465  0.4403 -0.7247
30109SOL    HW193604   8.723   3.386   4.873 -0.3329 -0.7544  0.2880
30109SOL    HW293605   8.618   3.492   4.899  1.1442  1.3341 -1.8259
30110SOL     OW93606  10.160   4.275   5.553  0.4537 -0.0719 -0.1248
30110SOL    HW193607  10.139   4.249   5.464  0.8559 -0.5820 -0.0751
30110SOL    HW293608  10.084   4.247   5.605 -0.4043  1.4377 -0.4864
30111SOL     OW93609   0.713   4.915  10.272  0.2346 -0.0578 -0.1645
30111SOL    HW193610   0.716   5.009  10.252 -0.6014 -0.1912 -0.9954
30111SOL    HW293611   0.622   4.899  10.296  0.3512 -0.6751 -0.1292
30112SOL     OW93612   8.261   3.861   1.347  0.3034 -0.3864  0.2522
30112SOL    HW193613   8.195   3.925   1.371  1.0644  0.3644  0.3742
30112SOL    HW293614   8.212   3.791   1.304 -0.6281 -0.0924  0.8202
30113SOL     OW93615   4.560   5.568   6.970  0.6285  0.2144  0.0074
30113SOL    HW193616   4.536   5.648   6.924  2.0214  0.0167 -1.1283
30113SOL    HW293617   4.631   5.530   6.918  0.2253 -1.5954  0.7031
30114SOL     OW93618   1.531   9.144   5.994  0.3389 -0.1795  0.2769
30114SOL    HW193619   1.539   9.219   6.053 -0.5933  1.6055 -1.7095
30114SOL    HW293620   1.480   9.178   5.920  1.3456 -2.3096 -1.4918
30115SOL     OW93621   5.049   8.989   6.483 -0.7402 -0.1978 -1.2182
30115SOL    HW193622   5.035   8.897   6.461 -0.0072 -0.4634 -0.6230
30115SOL    HW293623   5.059   8.989   6.578 -0.3218  0.4436 -1.2632
30116SOL     OW93624   0.999   4.221   6.695  0.2283 -0.9702  0.3099
30116SOL    HW193625   0.980   4.231   6.788  0.4019 -1.5793  0.4177
30116SOL    HW293626   0.929   4.268   6.650  1.4671  1.4991  0.7521
30117SOL     OW93627   3.128   3.251   2.841 -0.0514  0.1314  0.0080
30117SOL    HW193628   3.077   3.285   2.914  0.9244  1.2827  0.1838
30117SOL    HW293629   3.159   3.166   2.870 -0.1834  0.3151  0.6879
30118SOL     OW93630   6.746   7.324   5.137  0.7877  0.6991 -0.5368
30118SOL    HW193631   6.814   7.265   5.105  2.4671  2.3861 -0.2460
30118SOL    HW293632   6.789   7.409   5.144 -0.5523  1.2819  2.3006
30119SOL     OW93633   9.150   4.955   1.845  0.2379  0.4823  0.1301
30119SOL    HW193634   9.216   4.985   1.782  1.0262 -1.2617  0.0555
30119SOL    HW293635   9.191   4.879   1.887 -1.9556 -1.0404 -0.3469
30120SOL     OW93636   2.498   2.082   7.768 -0.5620  0.6065 -0.3465
30120SOL    HW193637   2.582   2.053   7.803 -0.0200  0.4410 -1.7138
30120SOL    HW293638   2.432   2.029   7.814  0.1590 -0.0712 -0.0775
30121SOL     OW93639  10.531   2.803   3.844  0.0138  0.1165 -0.3777
30121SOL    HW193640  10.495   2.735   3.900  0.7256  0.5817  0.6820
30121SOL    HW293641  10.558   2.873   3.904  0.0129  1.0055 -1.3670
30122SOL     OW93642   1.058   6.241   1.086  0.5516 -0.1427  0.2505
30122SOL    HW193643   1.020   6.298   1.019  0.3255 -1.4739 -0.8051
30122SOL    HW293644   1.152   6.241   1.067  0.7514  0.9439  1.1255
30123SOL     OW93645   5.466   5.261   3.562  0.3035  0.2446  0.1115
30123SOL    HW193646   5.535   5.265   3.497  0.7882  0.0701  0.6044
30123SOL    HW293647   5.456   5.351   3.592 -0.2324  0.4006 -0.5150
30124SOL     OW93648   8.880  10.221   1.223 -0.1352 -0.7680  0.8711
30124SOL    HW193649   8.802  10.200   1.275  0.0009 -1.0367  0.9683
30124SOL    HW293650   8.935  10.143   1.231 -1.3276 -2.0477 -2.0235
30125SOL     OW93651   4.077   9.548   0.548  0.2340  0.3004 -0.6342
30125SOL    HW193652   4.028   9.600   0.484  1.9213  0.9228 -1.4647
30125SOL    HW293653   4.131   9.612   0.595 -0.4039 -0.2499  0.9185
30126SOL     OW93654   1.794  10.999   2.990 -0.0196 -0.2642  0.8963
30126SOL    HW193655   1.766  10.931   2.928  0.6933  0.6355 -0.4645
30126SOL    HW293656   1.716  11.016   3.043 -0.7132 -0.9326  0.1275
30127SOL     OW93657  11.308   8.070   4.553  0.1522  0.1690 -0.1328
30127SOL    HW193658  11.382   8.010   4.563  0.0537  0.1535  0.5301
30127SOL    HW293659  11.244   8.041   4.619  0.4521  1.5135  0.7962
30128SOL     OW93660   7.677   5.737   8.759 -0.3610 -0.3823 -0.1395
30128SOL    HW193661   7.755   5.705   8.804  0.5714  1.1014 -0.6398
30128SOL    HW293662   7.623   5.775   8.828  0.4993  0.7807 -0.0915
30129SOL     OW93663   2.573   6.527  10.740 -0.5796 -0.2239 -0.1746
30129SOL    HW193664   2.523   6.599  10.779 -0.7567 -0.0723 -0.6761
30129SOL    HW293665   2.661   6.562  10.730 -0.1831 -0.7015  1.3037
30130SOL     OW93666   0.806   4.354   9.799 -0.4930  0.2693  0.0553
30130SOL    HW193667   0.710   4.361   9.804 -0.5123  0.7487 -0.7818
30130SOL    HW293668   0.828   4.285   9.862 -1.5021 -0.6533 -0.5559
30131SOL     OW93669   2.555   7.489   8.467 -0.0128 -0.0812 -0.3480
30131SOL    HW193670   2.567   7.507   8.373  1.5472  1.7508  0.1347
30131SOL    HW293671   2.626   7.428   8.488 -0.3619 -0.4894 -0.3316
30132SOL     OW93672   6.647   1.709   9.801 -0.3345  0.5671  0.3422
30132SOL    HW193673   6.553   1.715   9.782 -0.1803 -0.5454 -0.9806
30132SOL    HW293674   6.688   1.698   9.715  0.8108 -1.0149  1.0406
30133SOL     OW93675   3.752   9.351   2.576 -0.3450 -0.2592  0.4308
30133SOL    HW193676   3.707   9.268   2.594 -0.7804 -0.3112 -0.8075
30133SOL    HW293677   3.724   9.374   2.487  0.3065  0.8717  0.5097
30134SOL     OW93678   4.690  10.336   8.983  0.6000 -0.2150 -0.9247
30134SOL    HW193679   4.676  10.278   9.058 -0.7191  0.9737 -0.1946
30134SOL    HW293680   4.603  10.348   8.946  0.3744  3.0115  0.3249
30135SOL     OW93681   1.911   5.932   8.419 -0.3975  0.6631 -0.0929
30135SOL    HW193682   1.879   5.929   8.328  0.9034 -1.4247 -0.5569
30135SOL    HW293683   1.975   6.003   8.420  1.6454 -1.0338 -1.6277
30136SOL     OW93684   5.369   3.343   0.838  0.2557 -0.6055  0.1875
30136SOL    HW193685   5.303   3.404   0.872  0.9763 -0.7268  1.9023
30136SOL    HW293686   5.320   3.285   0.779 -0.7158  0.7134 -0.3445
30137SOL     OW93687   2.774   6.314   5.892  0.1500 -0.0808  0.2108
30137SOL    HW193688   2.694   6.316   5.839 -0.5554  0.0530  1.2515
30137SOL    HW293689   2.823   6.238   5.859 -0.8312 -0.7086  0.1608
30138SOL     OW93690   3.330   6.630   1.930  0.3869 -0.3331 -0.4480
30138SOL    HW193691   3.340   6.573   1.854 -1.3429  1.0777 -1.8208
30138SOL    HW293692   3.302   6.714   1.894 -0.5062  0.3853  1.7405
30139SOL     OW93693  11.382   0.413   6.421 -0.1193 -0.0577  0.0610
30139SOL    HW193694  11.466   0.399   6.464 -0.8768  0.5671  1.8480
30139SOL    HW293695  11.404   0.456   6.338  1.2906  0.6847  0.7875
30140SOL     OW93696   1.143   3.105   5.388  0.4163  0.4954  0.0662
30140SOL    HW193697   1.125   3.171   5.321 -1.1093 -0.4579 -0.5255
30140SOL    HW293698   1.215   3.141   5.439  1.4916  1.3569 -1.9456
30141SOL     OW93699   3.096   5.974   9.311 -0.4877  0.3652  0.6931
30141SOL    HW193700   3.139   5.908   9.365  1.2051  1.4204  0.7162
30141SOL    HW293701   3.043   5.925   9.249  1.1119 -1.0280  0.3896
30142SOL     OW93702  10.073   6.931   0.666 -0.2905 -0.2915  0.0377
30142SOL    HW193703  10.049   6.870   0.596 -0.0142 -0.0403 -0.2803
30142SOL    HW293704  10.169   6.927   0.668 -0.1168  1.5650 -1.3036
30143SOL     OW93705  11.383   0.729   3.147  0.3362 -0.4418  0.3407
30143SOL    HW193706  11.347   0.810   3.110 -0.7957 -0.4367  1.3812
30143SOL    HW293707  11.389   0.746   3.241  1.7812 -0.9564  0.3656
30144SOL     OW93708   0.756   1.780   4.680 -0.3425 -0.1343 -0.0615
30144SOL    HW193709   0.812   1.834   4.736 -2.4575  1.8904  0.2661
30144SOL    HW293710   0.785   1.690   4.695  2.2464  0.7325  0.6518
30145SOL     OW93711   4.964   0.086   2.384  0.2758  0.1839 -0.1068
30145SOL    HW193712   5.059   0.101   2.386  0.4030 -0.5509  1.7507
30145SOL    HW293713   4.930   0.154   2.326  1.8308  1.1675  0.0716
30146SOL     OW93714   0.860   1.160   1.224 -0.4868 -0.0842 -0.5418
30146SOL    HW193715   0.883   1.251   1.240  0.6783 -0.7336  1.8930
30146SOL    HW293716   0.849   1.122   1.311  1.6593 -2.8806 -1.3328
30147SOL     OW93717   5.671   3.656   2.810  0.3811  0.1456 -0.3201
30147SOL    HW193718   5.680   3.579   2.753  1.5269 -0.2121  0.3201
30147SOL    HW293719   5.669   3.620   2.898  2.1062  0.9121  0.0660
30148SOL     OW93720   5.569   9.287   9.180  0.2416 -0.3592  0.7673
30148SOL    HW193721   5.637   9.220   9.186  0.0645 -0.7785 -1.0739
30148SOL    HW293722   5.507   9.266   9.249 -0.8490 -3.3825 -0.9310
30149SOL     OW93723   0.060   3.919   2.245 -0.2171  0.1909  0.5303
30149SOL    HW193724   0.122   3.847   2.234  0.7864  0.9430  1.0931
30149SOL    HW293725  -0.025   3.876   2.258 -0.2275 -0.8286 -2.2798
30150SOL     OW93726   8.895   2.636  10.151  0.1200  0.7628  0.0693
30150SOL    HW193727   8.967   2.690  10.185 -0.4443  1.1360  0.6811
30150SOL    HW293728   8.866   2.683  10.073  2.6395 -1.0368 -2.1408
30151SOL     OW93729   1.434   7.117   0.492  0.3130  0.6645 -0.0635
30151SOL    HW193730   1.345   7.145   0.514 -0.4917 -1.1220 -0.8674
30151SOL    HW293731   1.488   7.194   0.511 -1.3479  1.7128  0.6913
30152SOL     OW93732   4.196   1.314   8.325 -0.4507 -0.0987 -0.3170
30152SOL    HW193733   4.107   1.342   8.303 -0.5645 -0.8048 -0.8141
30152SOL    HW293734   4.197   1.309   8.421 -0.7543  0.5118 -0.2821
30153SOL     OW93735   0.903   4.166   3.540  0.3888  0.2705  0.3376
30153SOL    HW193736   0.942   4.144   3.456  0.3606  0.0445  0.3842
30153SOL    HW293737   0.978   4.188   3.596  0.5627 -1.3631  0.7916
30154SOL     OW93738   0.432   7.394   3.955  0.0058 -0.3016 -0.0060
30154SOL    HW193739   0.521   7.409   3.988  1.3652 -0.6803 -3.1225
30154SOL    HW293740   0.415   7.302   3.975  0.7981 -0.5381 -0.3686
30155SOL     OW93741   6.695   0.363   0.448 -0.0287  0.2454 -0.0703
30155SOL    HW193742   6.696   0.393   0.539 -1.4222  0.8691 -0.2336
30155SOL    HW293743   6.602   0.361   0.425  0.3172  0.2359 -1.5159
30156SOL     OW93744   3.134   5.916   1.162  0.2193  0.2514  0.1307
30156SOL    HW193745   3.050   5.916   1.117  0.4842 -1.1468 -0.4170
30156SOL    HW293746   3.198   5.893   1.094  0.7712 -0.7547  0.9547
30157SOL     OW93747   9.672   8.821   9.256 -0.0748  0.6191 -0.4826
30157SOL    HW193748   9.749   8.845   9.204 -0.4784  0.3863 -1.2034
30157SOL    HW293749   9.707   8.768   9.328  0.5820  1.6195 -0.0440
30158SOL     OW93750   8.235   1.678   3.010  0.4046 -0.2611  0.0982
30158SOL    HW193751   8.180   1.754   3.029  0.2109 -0.3727 -0.0064
30158SOL    HW293752   8.177   1.618   2.962 -1.0576 -2.5783  4.1546
30159SOL     OW93753  11.061   3.862   8.703  0.8679  0.0813  0.0586
30159SOL    HW193754  11.008   3.892   8.777  2.4582  1.9309  0.5269
30159SOL    HW293755  11.099   3.780   8.733  1.2781  0.6760  1.2138
30160SOL     OW93756   6.817   9.767  10.129  0.2234 -0.4697  0.1349
30160SOL    HW193757   6.839   9.788  10.038  0.8637  2.0348  0.7690
30160SOL    HW293758   6.896   9.725  10.163  0.5852  0.0444 -0.0535
30161SOL     OW93759   9.671   2.417   8.211 -0.6792  0.4092 -0.8163
30161SOL    HW193760   9.598   2.359   8.192 -1.4958  1.3993 -0.7487
30161SOL    HW293761   9.733   2.401   8.139  0.7723 -3.0943  0.9726
30162SOL     OW93762   2.623   2.191   1.124 -0.1846  0.0840 -0.3351
30162SOL    HW193763   2.682   2.200   1.049 -1.6923  0.7997 -1.4951
30162SOL    HW293764   2.646   2.108   1.164 -0.1215 -0.9009 -2.3273
30163SOL     OW93765   6.769   0.953   7.504 -0.4007 -0.4230  0.2473
30163SOL    HW193766   6.716   1.031   7.520 -0.1805 -0.4828  1.3539
30163SOL    HW293767   6.832   0.952   7.576 -0.5516 -1.7490  0.3791
30164SOL     OW93768   8.610   3.302   5.367 -0.3124 -0.2700  0.0775
30164SOL    HW193769   8.531   3.321   5.316 -1.2920  0.8383  1.9149
30164SOL    HW293770   8.600   3.352   5.447  1.4401 -1.5063  1.1507
30165SOL     OW93771  10.081  10.566   8.575 -0.2329 -0.5531  0.0453
30165SOL    HW193772  10.057  10.506   8.504 -1.5665 -2.3211  1.8635
30165SOL    HW293773  10.028  10.644   8.560  2.9237  1.1788 -3.4583
30166SOL     OW93774  11.339   5.687   4.425  0.0106  0.0452  0.2766
30166SOL    HW193775  11.399   5.761   4.435 -0.4122  0.8636 -2.3193
30166SOL    HW293776  11.396   5.612   4.407  0.3707  0.7830 -2.0021
30167SOL     OW93777   7.701   8.678   6.469  0.1409  0.2489 -0.0508
30167SOL    HW193778   7.703   8.739   6.543  0.3613 -1.6096  1.5701
30167SOL    HW293779   7.764   8.715   6.407 -0.3554  2.0942  0.4674
30168SOL     OW93780  10.533   1.742   8.690  0.2076  0.0391 -0.3953
30168SOL    HW193781  10.566   1.812   8.634 -0.3606  0.3816 -0.3052
30168SOL    HW293782  10.529   1.665   8.633 -1.9006  0.7530 -1.2876
30169SOL     OW93783   3.719   4.304  11.230 -0.0242  0.1740  0.4255
30169SOL    HW193784   3.670   4.266  11.157  2.7958 -0.9035 -1.0663
30169SOL    HW293785   3.698   4.249  11.305 -0.6194 -0.6081 -0.3070
30170SOL     OW93786   9.428   3.285   4.457  0.1479 -0.6004  0.6450
30170SOL    HW193787   9.460   3.339   4.386 -1.1825 -0.8603 -0.1891
30170SOL    HW293788   9.347   3.246   4.423 -0.7843 -0.3426  2.4695
30171SOL     OW93789   6.322   1.662   1.000 -0.0861 -0.1598  0.4656
30171SOL    HW193790   6.337   1.602   1.072 -1.1821 -1.0245  0.0049
30171SOL    HW293791   6.362   1.744   1.028  1.5364 -1.1141  1.0606
30172SOL     OW93792   5.024   7.019   7.971  0.1365  0.0153  0.1878
30172SOL    HW193793   5.093   7.071   8.012 -0.3058 -0.1422  1.1623
30172SOL    HW293794   5.041   7.026   7.877  0.3830  1.4950  0.3228
30173SOL     OW93795   2.620   9.882   5.625 -0.5529  0.1220  0.2996
30173SOL    HW193796   2.658   9.922   5.547 -0.2874 -0.9263 -0.1252
30173SOL    HW293797   2.528   9.871   5.603 -0.7494  1.0006  0.6377
30174SOL     OW93798   2.703   8.701  10.854  0.4480 -0.1077 -0.0181
30174SOL    HW193799   2.699   8.743  10.768  2.2786 -0.3465 -0.2562
30174SOL    HW293800   2.635   8.745  10.905  0.7220  1.4979 -0.9595
30175SOL     OW93801   9.285   4.259   3.403 -0.9263 -0.1408 -0.0838
30175SOL    HW193802   9.210   4.214   3.443  0.0698 -1.5702  0.2414
30175SOL    HW293803   9.255   4.282   3.316 -2.1338  0.3597  0.4391
30176SOL     OW93804   9.943   7.398   0.014 -0.3359 -0.5095 -0.1375
30176SOL    HW193805   9.886   7.333   0.054 -1.3695  0.4867  0.0550
30176SOL    HW293806   9.972   7.358  -0.068 -1.3203 -1.0445 -0.2395
30177SOL     OW93807   1.263   5.882   6.439 -0.1096 -0.2153 -0.1318
30177SOL    HW193808   1.280   5.957   6.496 -2.1427 -0.2734  0.6428
30177SOL    HW293809   1.277   5.806   6.495  2.4209 -0.5021 -1.0461
30178SOL     OW93810   2.256   2.969   9.421 -0.0593 -0.2859  0.2068
30178SOL    HW193811   2.240   2.903   9.354  0.6372  0.1906 -0.4565
30178SOL    HW293812   2.235   3.052   9.378 -0.5720 -0.0374  0.9106
30179SOL     OW93813   8.465   0.787  11.352 -0.6367 -0.3760 -0.1475
30179SOL    HW193814   8.475   0.853  11.284 -0.2160 -0.1902  0.0933
30179SOL    HW293815   8.380   0.805  11.392 -0.0552  0.6984  0.6414
30180SOL     OW93816   1.607   1.637   3.433  0.1102 -0.5370  0.4262
30180SOL    HW193817   1.647   1.625   3.519 -2.8187  0.4096  2.0526
30180SOL    HW293818   1.662   1.585   3.374  1.6209 -2.1006  3.0102
30181SOL     OW93819   7.519   7.097   7.231 -0.4931  0.5100 -0.2749
30181SOL    HW193820   7.529   7.191   7.214  1.2804  0.7340  1.5096
30181SOL    HW293821   7.543   7.055   7.148  1.8955  1.6185 -0.2530
30182SOL     OW93822   8.032   0.927   5.595 -0.5504 -0.0963 -0.0433
30182SOL    HW193823   8.115   0.891   5.627  0.1539  0.1561 -1.4597
30182SOL    HW293824   8.044   1.022   5.599 -0.1192 -0.0453 -1.7167
30183SOL     OW93825   6.485  10.659   4.416  0.2937  0.4025 -0.3138
30183SOL    HW193826   6.531  10.655   4.499  3.3113 -1.8787 -1.9260
30183SOL    HW293827   6.430  10.581   4.415  1.7551 -0.6591 -1.1745
30184SOL     OW93828   2.144  10.841   3.452  0.6903 -0.4283 -0.2246
30184SOL    HW193829   2.104  10.796   3.526  0.0836  0.3474 -0.0739
30184SOL    HW293830   2.071  10.861   3.393  1.3661 -2.6006 -1.9102
30185SOL     OW93831   2.088   7.619   5.093  0.8843 -0.0443 -0.2218
30185SOL    HW193832   2.168   7.633   5.144  0.1108 -0.4986  1.1747
30185SOL    HW293833   2.031   7.567   5.151 -1.0202  1.5477 -0.5503
30186SOL     OW93834   0.781   4.416   0.597  0.2807 -0.1160  0.5124
30186SOL    HW193835   0.769   4.379   0.685  1.7715 -2.2249 -0.0976
30186SOL    HW293836   0.726   4.361   0.541  1.1036 -0.2589 -0.1708
30187SOL     OW93837   5.140  10.595   5.997  0.3879 -0.2715 -0.2689
30187SOL    HW193838   5.047  10.580   5.983  0.5230 -1.0827 -0.3513
30187SOL    HW293839   5.144  10.669   6.058 -0.2954  0.0715 -0.6336
30188SOL     OW93840  10.950   1.015   5.233  0.2468 -0.3262  0.1195
30188SOL    HW193841  10.960   0.975   5.147  1.5835 -0.7120  0.4264
30188SOL    HW293842  10.981   0.949   5.294  1.2482  0.6823  0.7349
30189SOL     OW93843   1.033   4.504   0.306  0.3209 -0.0852 -0.6409
30189SOL    HW193844   0.949   4.544   0.331  0.1243 -0.1945 -1.1102
30189SOL    HW293845   1.075   4.482   0.389  0.3550  0.9260 -0.3752
30190SOL     OW93846   2.772   2.042   8.590  0.1507 -0.6144  0.2898
30190SOL    HW193847   2.820   2.124   8.603 -0.7678  0.2003 -1.2052
30190SOL    HW293848   2.839   1.980   8.563  0.8201 -0.2925  1.1621
30191SOL     OW93849   8.309   7.431   7.019  0.6104  0.1172  0.0561
30191SOL    HW193850   8.266   7.512   6.991 -0.6156  1.1180  4.1795
30191SOL    HW293851   8.249   7.361   6.992 -1.0259  1.0880  0.9800
30192SOL     OW93852   1.779   2.355   6.860  0.1610 -0.6316 -0.1659
30192SOL    HW193853   1.863   2.327   6.824 -0.1980 -1.0875 -0.6728
30192SOL    HW293854   1.801   2.396   6.943  0.7001 -2.8903  0.8908
30193SOL     OW93855  11.368   0.643   9.607  0.0303 -0.1855 -0.4877
30193SOL    HW193856  11.428   0.605   9.671  0.3288 -1.1751 -1.3269
30193SOL    HW293857  11.289   0.590   9.613 -1.1799  1.6673  1.2561
30194SOL     OW93858   5.497   9.732   1.731 -0.0390 -0.1772  0.4038
30194SOL    HW193859   5.468   9.748   1.821  0.5747 -0.3993  0.6471
30194SOL    HW293860   5.428   9.678   1.693 -0.2214 -0.2232  0.7957
30195SOL     OW93861  10.246  10.273   0.597  0.2014  0.0196 -0.3594
30195SOL    HW193862  10.322  10.223   0.566 -0.4999 -0.8564 -0.6951
30195SOL    HW293863  10.240  10.346   0.536 -0.8996 -1.4472 -2.1077
30196SOL     OW93864   1.673   9.132   2.944  0.5058 -0.3047  0.0549
30196SOL    HW193865   1.758   9.091   2.959  0.9623  0.4163 -0.4909
30196SOL    HW293866   1.680   9.218   2.985  0.5905  0.3454 -1.2420
30197SOL     OW93867   3.570   8.042   4.761  0.0321 -0.0490 -0.0913
30197SOL    HW193868   3.639   8.055   4.825 -0.9151  0.6986  0.7991
30197SOL    HW293869   3.516   7.972   4.797 -1.4120  1.4341  0.7592
30198SOL     OW93870   8.213   2.342   9.722  0.2574 -0.2831 -0.0321
30198SOL    HW193871   8.184   2.344   9.631  0.8157  1.8002 -0.2051
30198SOL    HW293872   8.308   2.330   9.717  0.0526 -2.5444  0.3984
30199SOL     OW93873   5.457   8.612   8.901  0.1106  0.3594 -0.0393
30199SOL    HW193874   5.520   8.680   8.876  0.1593 -0.9041 -4.1836
30199SOL    HW293875   5.506   8.555   8.960  3.1373 -0.5803 -3.1016
30200SOL     OW93876  10.808   6.240   9.105  0.2900  0.1795  0.1193
30200SOL    HW193877  10.850   6.159   9.135 -1.3718 -0.8002 -0.0598
30200SOL    HW293878  10.810   6.298   9.181 -0.1263 -0.7212  0.8328
30201SOL     OW93879   2.910   9.438   7.705  0.5178  0.4018  0.3719
30201SOL    HW193880   2.816   9.423   7.691  0.6461 -1.9278  1.5371
30201SOL    HW293881   2.950   9.415   7.621  0.1886 -0.4714  0.4442
30202SOL     OW93882   4.249   2.112   3.963 -0.1117  0.0431 -0.0029
30202SOL    HW193883   4.292   2.184   4.009  0.3631 -0.7338  0.7977
30202SOL    HW293884   4.241   2.143   3.873 -0.6473  1.4176  0.4879
30203SOL     OW93885   9.881   5.439   9.627  0.0593  0.2769 -0.9159
30203SOL    HW193886   9.800   5.491   9.624 -0.6645 -0.7073  0.5868
30203SOL    HW293887   9.945   5.498   9.667 -0.7433  0.0667  0.7342
30204SOL     OW93888   7.558   4.852   9.737  0.4117 -0.2334  0.2719
30204SOL    HW193889   7.484   4.904   9.770  1.9702  1.4403  1.3462
30204SOL    HW293890   7.583   4.797   9.811  1.2710  0.4453  0.5038
30205SOL     OW93891   7.660   6.612   1.010 -0.1269 -0.3824  0.1879
30205SOL    HW193892   7.580   6.593   1.061  0.1358 -0.2984  0.6402
30205SOL    HW293893   7.676   6.705   1.025  0.3131 -0.5005  0.4779
30206SOL     OW93894   6.694   1.051   3.426 -0.4891  0.1094 -0.5538
30206SOL    HW193895   6.745   1.131   3.443  0.9908 -0.5396 -1.7217
30206SOL    HW293896   6.754   0.980   3.448 -0.4205 -0.6865 -3.0443
30207SOL     OW93897   6.963  11.028   8.783  0.6817 -0.1535  0.3413
30207SOL    HW193898   6.947  11.096   8.717 -1.7715 -0.6754  0.3221
30207SOL    HW293899   7.030  10.972   8.743  1.2225  1.0662 -0.5253
30208SOL     OW93900   6.473   1.335   7.402  0.4019  0.5243  0.1847
30208SOL    HW193901   6.477   1.428   7.425 -0.1721  0.5044  0.3982
30208SOL    HW293902   6.525   1.327   7.322 -0.3397  1.2157 -0.3902
30209SOL     OW93903   8.166   2.767   5.195  0.0950  0.7436 -0.2976
30209SOL    HW193904   8.071   2.756   5.185  0.3009 -1.6815 -0.0813
30209SOL    HW293905   8.194   2.690   5.244  2.0437  2.0123  0.7091
30210SOL     OW93906   2.100   1.551   4.281  0.3935 -0.5571  0.4932
30210SOL    HW193907   2.059   1.532   4.197  1.4287 -2.4929  0.3589
30210SOL    HW293908   2.027   1.556   4.343 -0.2140 -2.0532 -0.0542
30211SOL     OW93909   1.068  10.430  11.185 -0.2175  0.2171 -0.1095
30211SOL    HW193910   1.078  10.505  11.243  1.7614  0.9429 -1.3051
30211SOL    HW293911   1.156  10.391  11.181 -0.5815 -0.4972 -1.7031
30212SOL     OW93912   4.681   2.838   0.537 -0.0799 -0.0670 -0.1808
30212SOL    HW193913   4.732   2.863   0.460 -0.7690 -0.0623 -0.6437
30212SOL    HW293914   4.595   2.879   0.523  0.6433  2.5033  2.0156
30213SOL     OW93915   1.478   5.054   1.261  0.3244  0.7539  0.0901
30213SOL    HW193916   1.398   5.003   1.263  0.2362  0.8892  0.0076
30213SOL    HW293917   1.451   5.144   1.281  0.2683  1.0355 -1.1873
30214SOL     OW93918   9.148   7.581  10.802  0.1144  0.0834  0.1858
30214SOL    HW193919   9.159   7.528  10.723  0.7112 -0.2657  0.4977
30214SOL    HW293920   9.226   7.564  10.854  0.4810  1.5444  0.1409
30215SOL     OW93921   7.716   6.764   1.393  0.0413  0.5733  0.1988
30215SOL    HW193922   7.622   6.758   1.374  0.2270  0.2948 -0.6643
30215SOL    HW293923   7.726   6.724   1.479 -0.4706 -0.4648 -0.2143
30216SOL     OW93924   3.576   7.099   3.720 -0.4182  0.0035 -0.0288
30216SOL    HW193925   3.506   7.089   3.655  0.6232 -3.3396 -0.8326
30216SOL    HW293926   3.656   7.111   3.668  0.1659 -0.7420  0.6771
30217SOL     OW93927   6.799   6.792   4.204 -0.5830 -0.4368  0.2464
30217SOL    HW193928   6.852   6.814   4.128 -0.7930  1.0624  0.4963
30217SOL    HW293929   6.862   6.784   4.276 -0.5040 -0.6363  0.1546
30218SOL     OW93930   6.464   8.525   9.899 -0.2936 -0.0184  0.5779
30218SOL    HW193931   6.488   8.436   9.874 -0.9040 -0.5522  1.8417
30218SOL    HW293932   6.374   8.519   9.929 -0.5543  1.1549  0.0919
30219SOL     OW93933   4.214   6.207  10.255 -0.4602 -0.8433 -0.4930
30219SOL    HW193934   4.294   6.259  10.261 -1.1731  0.1242  1.5897
30219SOL    HW293935   4.180   6.224  10.167  0.4881  0.4687 -0.6287
30220SOL     OW93936   4.780   9.698   2.253  0.2132 -0.0818  0.3372
30220SOL    HW193937   4.812   9.663   2.336  0.8242  0.9986  0.5671
30220SOL    HW293938   4.685   9.693   2.260  0.2588  0.1659  1.1669
30221SOL     OW93939   2.133  10.930   7.625 -0.4167  0.9067 -0.1537
30221SOL    HW193940   2.086  10.911   7.705  0.6256  0.8937  0.4741
30221SOL    HW293941   2.224  10.906   7.644 -0.5789 -1.9859 -2.2863
30222SOL     OW93942   0.885   5.342   2.766 -0.5417 -0.1499 -0.8377
30222SOL    HW193943   0.924   5.258   2.788 -0.2136 -0.1698 -1.4684
30222SOL    HW293944   0.793   5.334   2.790 -0.5172 -0.6995 -0.9265
30223SOL     OW93945   8.043   4.358   1.821 -0.0204 -0.7206 -0.4145
30223SOL    HW193946   8.115   4.302   1.790 -0.1685 -1.1292 -0.0260
30223SOL    HW293947   8.005   4.394   1.741  0.7911 -0.2795 -0.6119
30224SOL     OW93948  10.068  10.278   9.260  0.0408  0.3959  0.3575
30224SOL    HW193949  10.006  10.262   9.331  0.0873 -1.5623  0.0023
30224SOL    HW293950  10.013  10.304   9.185 -0.1543  0.7437  0.6202
30225SOL     OW93951   1.874   8.810  10.660 -0.1435 -0.2820 -0.5857
30225SOL    HW193952   1.813   8.854  10.719  0.7914 -0.1445  0.3203
30225SOL    HW293953   1.887   8.723  10.700  1.5098  0.2765  0.1961
30226SOL     OW93954   7.940   8.087   0.294  0.6162  0.0104 -0.3034
30226SOL    HW193955   7.942   8.029   0.218  0.3678 -0.0116 -0.2946
30226SOL    HW293956   7.932   8.028   0.369  0.3506  0.0571 -0.2954
30227SOL     OW93957   5.422   8.527   7.311  0.0668 -0.2555 -0.0557
30227SOL    HW193958   5.412   8.509   7.217  1.3888 -0.1870 -0.2239
30227SOL    HW293959   5.393   8.617   7.321  2.6863  0.7896 -0.9651
30228SOL     OW93960   0.890  10.118   1.844 -0.4900 -0.3181  0.0097
30228SOL    HW193961   0.846  10.045   1.886 -1.1015 -1.6532 -2.6931
30228SOL    HW293962   0.983  10.095   1.846 -0.4036  0.0995  1.3864
30229SOL     OW93963   0.485   2.228   1.156 -0.0227 -0.1300 -0.2764
30229SOL    HW193964   0.571   2.200   1.126  0.3671  0.3223  0.3804
30229SOL    HW293965   0.462   2.163   1.223  0.6846  0.8041  0.9286
30230SOL     OW93966   3.493   9.937  10.826 -0.1339 -0.4289  0.3721
30230SOL    HW193967   3.478  10.020  10.872  0.8950  0.3889 -0.6963
30230SOL    HW293968   3.452   9.951  10.740 -0.1653 -1.1258  0.2716
30231SOL     OW93969   2.692   3.296   3.237 -0.7151  0.1132  0.3477
30231SOL    HW193970   2.708   3.316   3.329  1.9244 -0.1723  0.0382
30231SOL    HW293971   2.665   3.380   3.199 -1.5961  0.2859  1.2921
30232SOL     OW93972   6.527   3.180   4.192  0.5704  0.2176 -0.6304
30232SOL    HW193973   6.584   3.195   4.267  0.8534 -0.2498 -0.7473
30232SOL    HW293974   6.585   3.185   4.116  0.7525 -1.6242 -0.6689
30233SOL     OW93975   7.168   7.285   1.368 -0.3404 -0.4802  0.2726
30233SOL    HW193976   7.220   7.307   1.445  1.1498 -0.2098 -0.7776
30233SOL    HW293977   7.225   7.304   1.294 -2.7389  2.3150 -1.1068
30234SOL     OW93978   2.109   3.478   6.741  0.1649 -0.1591 -0.5285
30234SOL    HW193979   2.059   3.547   6.697  0.1752 -0.3327 -0.8138
30234SOL    HW293980   2.123   3.511   6.829 -1.4856 -0.6216 -0.0642
30235SOL     OW93981   9.388   5.435   7.539 -0.3218  0.2955 -0.5922
30235SOL    HW193982   9.312   5.463   7.591 -1.6269  1.5655 -3.0271
30235SOL    HW293983   9.366   5.347   7.510 -0.1360  0.0489  0.0108
30236SOL     OW93984   3.480   4.968   4.394  0.0712  0.2566 -0.4641
30236SOL    HW193985   3.467   4.874   4.407  2.3900 -0.2883 -1.3848
30236SOL    HW293986   3.519   4.974   4.306 -2.3152  2.3561 -1.5007
30237SOL     OW93987   5.469   8.767   3.240 -0.5811 -0.1430  0.7300
30237SOL    HW193988   5.519   8.841   3.206 -0.2465 -1.1346 -1.1146
30237SOL    HW293989   5.383   8.804   3.263  0.3109  1.2091  2.0885
30238SOL     OW93990   5.152   2.115   3.079  0.1009  0.0841 -0.3581
30238SOL    HW193991   5.201   2.194   3.058  0.6267 -0.3929 -0.9646
30238SOL    HW293992   5.077   2.116   3.019  0.0567  0.1707 -0.3015
30239SOL     OW93993   9.712   0.659   9.578  0.5969  0.0103 -0.4120
30239SOL    HW193994   9.765   0.734   9.552  1.6608 -0.6762 -0.2804
30239SOL    HW293995   9.622   0.691   9.575  1.1031  1.7747  1.1531
30240SOL     OW93996  10.452   2.403   1.182 -0.2986  0.7767  0.6173
30240SOL    HW193997  10.483   2.492   1.199  0.9316  0.0892  2.3388
30240SOL    HW293998  10.499   2.349   1.246 -2.4551 -0.8601  0.9292
30241SOL     OW93999   4.591  10.635   9.701 -0.3415  0.1751  0.3136
30241SOL    HW194000   4.665  10.682   9.739  2.3188 -1.4973 -2.3942
30241SOL    HW294001   4.540  10.606   9.777  1.5719  1.6597  2.2963
30242SOL     OW94002  11.345   4.177   2.307  0.5930  0.0687 -0.5059
30242SOL    HW194003  11.389   4.104   2.264  0.1672 -0.9716  0.7351
30242SOL    HW294004  11.254   4.170   2.279  0.3631 -0.4710  0.3191
30243SOL     OW94005   7.561   6.509   6.831  0.3663 -0.1739  0.0643
30243SOL    HW194006   7.573   6.444   6.901 -0.3218  0.9700  1.2939
30243SOL    HW294007   7.502   6.467   6.768 -0.5481 -0.5343  1.1321
30244SOL     OW94008   9.529   7.340   4.796 -0.0165  0.4719 -0.1067
30244SOL    HW194009   9.507   7.256   4.837 -0.0890  0.2273 -0.6492
30244SOL    HW294010   9.600   7.375   4.851  3.1298 -1.9490 -2.2892
30245SOL     OW94011   8.669   3.741   5.465 -0.5940 -0.6134  0.4513
30245SOL    HW194012   8.722   3.820   5.451 -2.2692  0.3854 -0.6903
30245SOL    HW294013   8.712   3.673   5.413 -0.2415  0.0883 -0.1993
30246SOL     OW94014   1.582   6.075   7.189 -0.7558 -0.2365  0.1291
30246SOL    HW194015   1.581   5.980   7.186 -2.7365 -0.2857  0.9934
30246SOL    HW294016   1.534   6.101   7.109  0.1507  0.0593 -0.3278
30247SOL     OW94017   2.478   9.234   4.943  0.1881  0.2061 -0.0100
30247SOL    HW194018   2.432   9.274   4.870  0.8024  1.0391  0.0452
30247SOL    HW294019   2.435   9.269   5.021 -1.1860 -1.5116  0.0758
30248SOL     OW94020   6.204   9.074   4.178 -0.7890  0.6025 -0.5389
30248SOL    HW194021   6.236   8.995   4.221  0.4894  1.0741 -0.5797
30248SOL    HW294022   6.250   9.076   4.094 -0.6303  1.5179 -0.4387
30249SOL     OW94023   1.564   2.333   5.582  0.0324 -0.1152  0.2552
30249SOL    HW194024   1.549   2.420   5.619  1.1771 -0.9096  2.7732
30249SOL    HW294025   1.495   2.278   5.620  0.0879 -0.5842 -0.3017
30250SOL     OW94026   3.662  10.192   4.749  0.0888  0.1548 -0.3935
30250SOL    HW194027   3.602  10.247   4.699  0.0021 -0.5428 -1.0706
30250SOL    HW294028   3.745  10.240   4.747  0.2500 -0.1200 -1.7275
30251SOL     OW94029   1.183   3.300   5.182 -0.4394  0.2570  0.1460
30251SOL    HW194030   1.135   3.305   5.099 -1.4821  0.5329  0.7605
30251SOL    HW294031   1.199   3.391   5.207  2.1485  0.2094 -1.0088
30252SOL     OW94032   0.135   2.178   3.730 -0.2465  0.6221  0.2185
30252SOL    HW194033   0.162   2.131   3.809  1.7941  3.0263  1.0685
30252SOL    HW294034   0.082   2.251   3.762 -1.0174  0.5547 -0.8334
30253SOL     OW94035   5.089   4.382   1.588 -0.5901  0.0493  0.3081
30253SOL    HW194036   5.040   4.407   1.509 -0.6948 -0.1722  0.3014
30253SOL    HW294037   5.083   4.286   1.590 -1.0003  0.0836  0.8562
30254SOL     OW94038   8.334   6.788   1.014  0.6920 -0.1651 -0.2866
30254SOL    HW194039   8.279   6.733   1.070 -2.3675  1.4359 -1.4826
30254SOL    HW294040   8.300   6.774   0.926  1.1844  2.0014 -0.8847
30255SOL     OW94041   1.118   7.677   0.008  0.0090 -0.0255 -0.6183
30255SOL    HW194042   1.071   7.595   0.027 -1.1240  0.5163 -0.9874
30255SOL    HW294043   1.062   7.745   0.044  0.8529  0.6055 -0.4849
30256SOL     OW94044   7.143   9.361   6.190  0.0978 -0.3139 -0.0277
30256SOL    HW194045   7.130   9.299   6.261  0.2891 -0.3663 -0.0388
30256SOL    HW294046   7.054   9.381   6.159 -0.0350  0.2348  0.6766
30257SOL     OW94047   2.789   1.499   1.079  0.5231 -0.0369 -0.2487
30257SOL    HW194048   2.803   1.463   1.167  0.9694  1.3596  0.2930
30257SOL    HW294049   2.847   1.448   1.023  0.2483 -0.9372  0.2620
30258SOL     OW94050   3.447   3.069   8.860  0.1412  0.8144 -0.6518
30258SOL    HW194051   3.362   3.101   8.831 -0.3023  1.0357  0.8270
30258SOL    HW294052   3.427   2.988   8.908  0.6776  1.2517  0.3309
30259SOL     OW94053   0.138   2.330  10.928  0.1564 -0.5365 -0.3839
30259SOL    HW194054   0.113   2.329  10.835  0.4235  1.4667 -0.5229
30259SOL    HW294055   0.211   2.392  10.932 -0.7088  0.4439  1.3320
30260SOL     OW94056  10.464   6.208   6.590 -0.3669  0.5218  0.3520
30260SOL    HW194057  10.545   6.252   6.565  1.9486 -2.4876  1.8236
30260SOL    HW294058  10.412   6.276   6.631  1.9022  2.3884  0.3786
30261SOL     OW94059   8.401   2.812   0.912  0.0369  0.3595  0.4054
30261SOL    HW194060   8.473   2.776   0.964  1.2720  1.0575 -0.7662
30261SOL    HW294061   8.396   2.904   0.937  0.0795  0.4966 -0.0642
30262SOL     OW94062  10.208   8.848  11.349  0.4698  0.3167 -0.0086
30262SOL    HW194063  10.186   8.935  11.381 -0.1774  0.9047 -1.8938
30262SOL    HW294064  10.129   8.818  11.304  0.8410 -1.0519  0.1898
30263SOL     OW94065   4.294   7.392  11.178  0.2152  0.5074 -0.1995
30263SOL    HW194066   4.338   7.330  11.119  0.1646 -0.5718  0.8498
30263SOL    HW294067   4.225   7.431  11.124  2.8116  2.8498 -2.1548
30264SOL     OW94068   3.998   6.719   4.132  0.3459 -0.2764 -0.1549
30264SOL    HW194069   3.913   6.715   4.176  0.5792 -0.6321  0.2623
30264SOL    HW294070   3.990   6.793   4.071 -0.1914 -0.1837  0.0273
30265SOL     OW94071   9.825   5.619   2.084 -0.0471  0.4019  0.3203
30265SOL    HW194072   9.834   5.708   2.050  0.3222  0.0958 -0.3816
30265SOL    HW294073   9.905   5.604   2.134  0.3529  0.0890 -0.4162
30266SOL     OW94074   3.739   2.252   3.867  0.3280  0.1574  0.3044
30266SOL    HW194075   3.730   2.234   3.774  0.9592  1.5084 -0.0373
30266SOL    HW294076   3.649   2.258   3.899  0.0751  1.5046 -0.6035
30267SOL     OW94077   6.352   7.829   2.862  0.0271 -0.2228  0.0867
30267SOL    HW194078   6.358   7.904   2.803 -2.5918  0.8656  1.0704
30267SOL    HW294079   6.410   7.851   2.935  0.2211  0.2624 -0.2110
30268SOL     OW94080   4.623   3.389   7.239  0.5170  0.3053 -0.0548
30268SOL    HW194081   4.638   3.483   7.229 -2.3949  0.7464 -1.1133
30268SOL    HW294082   4.659   3.349   7.160  1.7549  0.4736  0.3966
30269SOL     OW94083  10.446   1.269   7.801 -0.2351 -0.0973  0.3465
30269SOL    HW194084  10.505   1.245   7.728 -0.3711 -1.0524  0.5295
30269SOL    HW294085  10.485   1.348   7.838 -0.6607  0.9518 -1.3262
30270SOL     OW94086   8.076   1.265   9.599 -0.8856  0.0035 -0.5639
30270SOL    HW194087   8.068   1.289   9.691  1.1004  0.2951 -0.4222
30270SOL    HW294088   8.074   1.349   9.552 -1.1234 -0.0892 -0.7221
30271SOL     OW94089   9.198   2.179   7.935  0.1669 -0.5501 -0.3607
30271SOL    HW194090   9.184   2.274   7.939  4.7639  0.5183 -2.8763
30271SOL    HW294091   9.223   2.154   8.023 -0.1233  0.7634  0.1173
30272SOL     OW94092   3.498   8.319   5.216 -0.2144 -0.0945 -0.0770
30272SOL    HW194093   3.459   8.351   5.297 -1.4145  0.7105 -0.9323
30272SOL    HW294094   3.437   8.252   5.185  0.4112 -0.6395 -0.1477
30273SOL     OW94095   3.275   9.745   5.083  0.3597 -0.1256  0.3559
30273SOL    HW194096   3.234   9.701   5.158 -2.2126 -0.2902 -1.0113
30273SOL    HW294097   3.201   9.783   5.036  2.1203  1.8980 -0.9071
30274SOL     OW94098   5.889   8.561   2.750  0.0217  0.2540  0.0448
30274SOL    HW194099   5.855   8.588   2.665 -0.5515 -0.4763  0.0305
30274SOL    HW294100   5.920   8.642   2.791 -1.8357  0.9643  0.1133
30275SOL     OW94101   6.444   9.171   4.672 -0.8814  0.4110  0.0984
30275SOL    HW194102   6.360   9.211   4.650 -0.9622  0.5409  0.6269
30275SOL    HW294103   6.487   9.235   4.730  0.0625  0.8505 -1.0372
30276SOL     OW94104   7.592   3.649   1.429  0.1316  0.4101  0.0002
30276SOL    HW194105   7.541   3.572   1.407  0.4435  0.1625  0.1260
30276SOL    HW294106   7.534   3.703   1.482 -0.2096  0.4337 -0.3961
30277SOL     OW94107   3.670   1.855   3.082 -0.1787 -0.0825 -0.3467
30277SOL    HW194108   3.671   1.884   3.173 -2.4529 -0.3610 -0.1836
30277SOL    HW294109   3.757   1.878   3.048  0.5766  0.3618  1.7680
30278SOL     OW94110   9.763   4.519   2.923 -0.4720 -0.2554  0.0668
30278SOL    HW194111   9.714   4.443   2.890 -0.6297 -0.7378  1.3442
30278SOL    HW294112   9.825   4.539   2.854  0.6818 -2.5759  0.3056
30279SOL     OW94113   6.958  11.022   9.285 -0.1016  0.4263 -0.1658
30279SOL    HW194114   7.022  10.951   9.291 -1.9681 -1.2586  1.4782
30279SOL    HW294115   6.886  10.984   9.235 -0.9116  1.3550  0.2788
30280SOL     OW94116  10.613   9.355   9.449  0.4549 -0.1755 -0.2035
30280SOL    HW194117  10.703   9.384   9.464  1.5283 -2.6724 -1.1971
30280SOL    HW294118  10.597   9.373   9.356  0.5580 -1.1871 -0.4299
30281SOL     OW94119  11.371   7.198   3.814  0.2894 -0.3065 -0.0365
30281SOL    HW194120  11.447   7.167   3.766 -0.5927 -0.5049 -1.3648
30281SOL    HW294121  11.339   7.273   3.763  1.2432  1.6517  2.0471
30282SOL     OW94122   2.458   6.859   6.586 -0.0752 -0.2175  0.4549
30282SOL    HW194123   2.406   6.847   6.507 -1.6487  1.4133  1.1749
30282SOL    HW294124   2.405   6.820   6.656  0.4865 -0.0669  0.9741
30283SOL     OW94125   2.625   1.217   5.557  0.2405 -0.4687 -0.1419
30283SOL    HW194126   2.549   1.176   5.515  0.9028  0.3798 -2.2813
30283SOL    HW294127   2.610   1.311   5.549  1.0852 -0.2861  0.2504
30284SOL     OW94128   5.447   4.882   2.270 -0.3506 -0.0160  0.1469
30284SOL    HW194129   5.381   4.852   2.208 -0.5243  0.3088  0.1725
30284SOL    HW294130   5.404   4.877   2.355  0.2667 -1.5883  0.3989
30285SOL     OW94131   0.064   9.087   8.582  0.5571 -0.2630 -0.3710
30285SOL    HW194132   0.064   9.042   8.667  0.3481  3.3818  1.7441
30285SOL    HW294133   0.146   9.137   8.582 -0.7206  1.9560 -0.9764
30286SOL     OW94134   0.728  10.450   8.107 -0.6712 -0.0380  0.5545
30286SOL    HW194135   0.738  10.457   8.202  0.8656  1.9178  0.2906
30286SOL    HW294136   0.707  10.539   8.078 -1.2679 -0.6346 -0.9446
30287SOL     OW94137   4.396   2.592   6.756  0.0915  0.2501 -0.0134
30287SOL    HW194138   4.343   2.632   6.687  1.3023 -0.0462 -1.1677
30287SOL    HW294139   4.486   2.608   6.728  0.6184  0.2680  1.6040
30288SOL     OW94140   2.000   0.619   2.514 -0.0481 -0.5044 -0.2096
30288SOL    HW194141   2.080   0.657   2.476 -0.2491 -0.0657 -0.2033
30288SOL    HW294142   1.932   0.639   2.450 -0.4105  0.3423  0.4239
30289SOL     OW94143   8.992   4.072  10.224  0.5372 -0.2828 -0.3324
30289SOL    HW194144   8.971   4.147  10.169  0.0113 -1.6617 -2.1081
30289SOL    HW294145   8.908   4.046  10.263  0.7440  0.1209  0.4005
30290SOL     OW94146   0.136  11.010   9.504  0.5564 -0.3060  0.0771
30290SOL    HW194147   0.104  11.100   9.494  0.7890 -0.2503 -0.1716
30290SOL    HW294148   0.231  11.018   9.504  0.5795 -0.5723 -0.1291
30291SOL     OW94149   9.992   7.846   2.363 -0.0891  0.2496  0.2447
30291SOL    HW194150   9.922   7.781   2.375  0.7758 -0.7287  0.1685
30291SOL    HW294151  10.026   7.861   2.451 -0.6096  0.9831  0.3258
30292SOL     OW94152   1.488   5.344  11.290  0.3169  0.1125  0.2737
30292SOL    HW194153   1.512   5.352  11.198  0.5083 -0.8623  0.2392
30292SOL    HW294154   1.410   5.289  11.290 -0.8613  1.6941  0.5449
30293SOL     OW94155   0.083   6.227   0.474 -0.1982 -0.5065  0.2960
30293SOL    HW194156   0.166   6.271   0.457 -0.5714  0.5149  0.9919
30293SOL    HW294157   0.023   6.298   0.497 -0.8520 -1.3673  1.3360
30294SOL     OW94158   2.862   0.789   9.106 -0.1969  0.2919 -0.2582
30294SOL    HW194159   2.940   0.803   9.051 -0.8111 -0.5315 -1.3806
30294SOL    HW294160   2.893   0.803   9.195  1.1287  0.4658 -0.7199
30295SOL     OW94161   7.604   5.894   9.573  0.2969  0.1170 -0.3481
30295SOL    HW194162   7.575   5.981   9.546 -1.4757 -0.4336 -0.3537
30295SOL    HW294163   7.538   5.834   9.536  1.2844 -1.2029 -0.0547
30296SOL     OW94164   7.295   9.536   8.448  0.5692  0.2385  0.6866
30296SOL    HW194165   7.331   9.623   8.434  0.4235  0.5215  1.9882
30296SOL    HW294166   7.364   9.476   8.418  1.9277  0.7659  2.5966
30297SOL     OW94167  10.052   9.774  10.666 -0.1323  0.0228 -0.1624
30297SOL    HW194168  10.126   9.759  10.724  1.3325 -0.0392 -1.9431
30297SOL    HW294169  10.075   9.853  10.617 -0.4271 -0.8941 -1.8896
30298SOL     OW94170   9.731   1.419   8.111  0.6645  0.6142  0.1923
30298SOL    HW194171   9.729   1.362   8.035  0.7538 -0.1661  0.7566
30298SOL    HW294172   9.789   1.491   8.086  0.4755  0.5057 -0.5630
30299SOL     OW94173   7.556   4.439   4.688  0.6692  0.1633 -0.0194
30299SOL    HW194174   7.588   4.350   4.704  1.8007  0.8280  1.8169
30299SOL    HW294175   7.619   4.476   4.627 -1.2614 -1.0251 -2.9765
30300SOL     OW94176   4.072   8.074   7.959 -0.1188  0.1076  0.7160
30300SOL    HW194177   3.995   8.058   7.904 -0.1380  1.5768  0.2650
30300SOL    HW294178   4.059   8.018   8.035 -0.3324 -1.6145 -0.5340
30301SOL     OW94179   9.698   6.449  11.159  0.2260  0.1989 -0.3000
30301SOL    HW194180   9.790   6.422  11.158  0.2013  0.0331  0.8990
30301SOL    HW294181   9.699   6.537  11.121  1.0862  0.7571  0.9413
30302SOL     OW94182   5.509   8.577  11.167  0.0082  0.4999 -0.7833
30302SOL    HW194183   5.417   8.556  11.181 -0.7796  1.8120 -3.3758
30302SOL    HW294184   5.557   8.512  11.218 -2.3053 -1.7537 -1.3021
30303SOL     OW94185   6.213   9.673   6.116 -0.2838 -0.0833  0.5065
30303SOL    HW194186   6.284   9.683   6.180 -0.0306  0.3000  0.1689
30303SOL    HW294187   6.247   9.610   6.053  0.0207  0.5979 -0.0179
30304SOL     OW94188   8.624  10.428  11.168 -0.3375  0.0573  0.0441
30304SOL    HW194189   8.707  10.460  11.204  0.0838  0.4276 -1.2064
30304SOL    HW294190   8.641  10.336  11.146 -0.3638  0.0410  0.0936
30305SOL     OW94191   8.226   3.388   2.586 -0.3642 -0.0225 -0.1848
30305SOL    HW194192   8.213   3.400   2.680  0.2406 -0.9395  0.0298
30305SOL    HW294193   8.320   3.374   2.576 -0.0630  2.2716 -1.2159
30306SOL     OW94194   1.062  10.175   0.593 -0.0729 -0.3946 -0.0037
30306SOL    HW194195   1.054  10.085   0.564 -0.8171 -0.4934  0.4621
30306SOL    HW294196   1.103  10.170   0.679 -1.9835 -0.4958  0.9780
30307SOL     OW94197   0.882   4.321   5.334 -0.4997  0.3477  0.2727
30307SOL    HW194198   0.943   4.375   5.384  0.2089  1.3975 -1.6176
30307SOL    HW294199   0.832   4.383   5.282 -1.8028 -0.6505  0.2852
30308SOL     OW94200   8.397  11.097   1.534  0.4655  0.4828 -0.2902
30308SOL    HW194201   8.393  11.051   1.450  0.7020 -0.3513  0.1457
30308SOL    HW294202   8.347  11.043   1.594  0.1448  1.1694  0.0775
30309SOL     OW94203   3.473   0.078   6.129 -1.0269 -0.5221 -0.0143
30309SOL    HW194204   3.504   0.056   6.041 -0.7614  0.0812 -0.0745
30309SOL    HW294205   3.528   0.026   6.187 -0.6850 -0.3386 -0.1723
30310SOL     OW94206   0.571   6.995   1.216  0.4618 -0.7605  0.1139
30310SOL    HW194207   0.581   6.919   1.274  0.4374  0.4661  1.8102
30310SOL    HW294208   0.513   7.054   1.264  0.9684  0.5985 -0.8734
30311SOL     OW94209   8.030   0.881   1.013 -0.6999  0.3818  0.2151
30311SOL    HW194210   8.117   0.876   1.053 -0.1702  1.0995 -0.7888
30311SOL    HW294211   7.990   0.796   1.031  0.7792 -0.5135 -0.5279
30312SOL     OW94212   6.967   0.100   7.658  0.4062  0.5334  0.6992
30312SOL    HW194213   6.917   0.148   7.724 -0.7137  0.1812  0.1430
30312SOL    HW294214   6.962   0.008   7.687 -0.5783  0.3036 -0.1543
30313SOL     OW94215   6.442  10.775   3.755  0.7207 -0.1664  0.1679
30313SOL    HW194216   6.471  10.690   3.722  0.1541  0.0940 -1.0570
30313SOL    HW294217   6.399  10.816   3.680  0.4658  0.9595  0.9126
30314SOL     OW94218   1.435   4.320   9.505  0.1109  0.1999 -0.7064
30314SOL    HW194219   1.497   4.393   9.501  0.6380 -0.1298  0.8984
30314SOL    HW294220   1.355   4.358   9.540 -0.4538  0.5068 -2.2527
30315SOL     OW94221  10.664   9.412   8.313 -0.1731 -0.3840  0.1122
30315SOL    HW194222  10.748   9.416   8.268  0.1014 -3.5223  0.1621
30315SOL    HW294223  10.614   9.344   8.268 -1.6073 -0.5525  1.8033
30316SOL     OW94224   4.116   7.235   2.585  0.5939 -0.3654  0.6719
30316SOL    HW194225   4.039   7.275   2.624 -1.1169 -0.3632 -2.4048
30316SOL    HW294226   4.189   7.290   2.613 -0.8522  1.1987  1.5257
30317SOL     OW94227  10.797   3.630   7.045 -0.1307 -0.5444  0.2900
30317SOL    HW194228  10.816   3.705   6.989  1.0254 -2.5027 -2.1474
30317SOL    HW294229  10.706   3.607   7.025 -0.0008 -0.6974 -0.1306
30318SOL     OW94230  11.389   3.507   1.876 -0.1851 -0.5793 -0.3284
30318SOL    HW194231  11.390   3.565   1.800  0.4955 -1.5508 -1.0846
30318SOL    HW294232  11.338   3.555   1.942 -0.0491  0.6523 -1.0861
30319SOL     OW94233   8.501   2.262   7.788 -0.1536  0.0132  0.0737
30319SOL    HW194234   8.445   2.184   7.784  0.1932 -0.1964 -1.0159
30319SOL    HW294235   8.582   2.235   7.744  0.6486  0.4481  1.2281
30320SOL     OW94236   1.723  10.139   9.716 -0.3795 -0.0691 -0.0197
30320SOL    HW194237   1.661  10.204   9.682  0.7779  0.9870 -0.1697
30320SOL    HW294238   1.745  10.085   9.640 -2.2241 -1.4322  0.3427
30321SOL     OW94239   4.205  10.688  10.567  0.1613 -0.4241  0.4762
30321SOL    HW194240   4.203  10.763  10.506  0.2111  0.9658  2.1078
30321SOL    HW294241   4.298  10.670  10.579  0.1407 -1.3510 -0.5704
30322SOL     OW94242   0.565   1.455   2.366 -0.6786 -0.4069  0.2527
30322SOL    HW194243   0.518   1.444   2.449  0.0575 -0.1748  0.7098
30322SOL    HW294244   0.628   1.524   2.384 -0.1529 -0.7263 -0.3512
30323SOL     OW94245   9.860   6.073   9.836 -0.5875  0.2892  0.1115
30323SOL    HW194246   9.903   6.158   9.844 -0.0366  0.1484 -1.1625
30323SOL    HW294247   9.896   6.035   9.756  0.2808 -1.7850  1.4040
30324SOL     OW94248  10.877   4.702   9.260  0.5235 -0.2016 -0.6537
30324SOL    HW194249  10.821   4.771   9.226  1.9683 -0.0421 -2.9537
30324SOL    HW294250  10.817   4.641   9.303 -1.0915  1.1235 -0.9301
30325SOL     OW94251   0.127   1.630   9.456 -0.1468 -0.3520 -0.1694
30325SOL    HW194252   0.218   1.604   9.473 -0.5152 -1.2966  0.4435
30325SOL    HW294253   0.090   1.555   9.409 -0.9726 -0.5502  0.7710
30326SOL     OW94254  10.123   8.948   3.745  0.4211  0.9508  0.6789
30326SOL    HW194255  10.212   8.952   3.708  0.7254 -0.1214  1.2607
30326SOL    HW294256  10.137   8.939   3.839 -0.2969  0.1861  0.7179
30327SOL     OW94257   7.865   8.394   3.843  0.0839  0.6376 -0.6406
30327SOL    HW194258   7.952   8.365   3.813  0.4729  1.4469 -0.3160
30327SOL    HW294259   7.881   8.433   3.928 -0.2228  2.8955 -1.5575
30328SOL     OW94260   4.858   9.630   5.881 -0.5635  0.6665  0.3737
30328SOL    HW194261   4.876   9.548   5.925  0.2936 -0.3417 -1.7385
30328SOL    HW294262   4.846   9.693   5.952 -0.8410 -1.1635  2.0366
30329SOL     OW94263   3.703   7.768   9.374  0.3276  0.8772  0.0987
30329SOL    HW194264   3.770   7.818   9.328  0.5531 -0.1560 -0.7211
30329SOL    HW294265   3.725   7.676   9.357 -0.6742  0.5092  0.7113
30330SOL     OW94266   7.279   7.747   9.304 -0.2992 -0.3855  0.3737
30330SOL    HW194267   7.341   7.792   9.247  0.4056  1.2804  2.3036
30330SOL    HW294268   7.193   7.774   9.273  0.0050 -0.8327 -0.8870
30331SOL     OW94269   2.816   8.961   3.494  0.4122 -0.0820 -0.3120
30331SOL    HW194270   2.778   8.930   3.412  0.5302  1.4310 -0.9648
30331SOL    HW294271   2.871   9.035   3.469  1.1680 -0.1589  1.0297
30332SOL     OW94272   2.113   3.492   3.353 -0.0047  0.5127  0.0204
30332SOL    HW194273   2.091   3.565   3.295  0.2489  0.9192  0.4283
30332SOL    HW294274   2.077   3.415   3.309  0.4262  0.7753 -0.8135
30333SOL     OW94275   2.948  10.889   4.114  0.0180  0.1251  0.7202
30333SOL    HW194276   2.993  10.815   4.155 -0.1320 -0.0320  0.5995
30333SOL    HW294277   2.889  10.850   4.050 -0.7103  0.2914  1.2745
30334SOL     OW94278   1.098   9.405   1.396 -0.0374 -0.3155  0.3760
30334SOL    HW194279   1.160   9.455   1.448  1.1840 -1.3794 -0.0238
30334SOL    HW294280   1.019   9.460   1.394  0.5696  0.6583  1.6205
30335SOL     OW94281   4.396  10.097   6.844  0.5323  0.2942  0.0356
30335SOL    HW194282   4.417  10.022   6.900 -0.6229  0.6975  1.0463
30335SOL    HW294283   4.365  10.058   6.762  2.2537 -0.3014 -0.3706
30336SOL     OW94284   9.503   1.751   7.802  0.2617 -0.6599 -0.3150
30336SOL    HW194285   9.598   1.741   7.794  0.2773 -1.9153  1.0639
30336SOL    HW294286   9.489   1.780   7.892 -0.6096  0.6422 -0.8444
30337SOL     OW94287   3.594   3.043  10.583 -0.4602  0.2523  0.8522
30337SOL    HW194288   3.649   3.053  10.505 -0.5589 -0.2314  0.7212
30337SOL    HW294289   3.610   3.123  10.633 -0.2569  0.4840  0.4247
30338SOL     OW94290   1.984   6.403   6.838  0.0555  0.6537 -0.1106
30338SOL    HW194291   2.004   6.310   6.826  3.2263  1.1999  0.2157
30338SOL    HW294292   1.956   6.410   6.929 -1.3935 -0.0943 -0.4601
30339SOL     OW94293   6.393   6.448   5.160  0.0159  0.4190  0.4044
30339SOL    HW194294   6.384   6.484   5.072 -0.7363  0.3493  0.4440
30339SOL    HW294295   6.472   6.394   5.156 -1.0181 -1.1140 -0.7877
30340SOL     OW94296   8.249   9.917   6.080 -0.0947 -0.0311 -0.0577
30340SOL    HW194297   8.224   9.830   6.050  0.6555  0.4257 -2.1411
30340SOL    HW294298   8.178   9.974   6.051 -0.6776  0.0737  1.4642
30341SOL     OW94299   1.994   8.259  10.888  0.5585  0.3122  0.3445
30341SOL    HW194300   2.024   8.349  10.878  0.0368  0.4722  0.2079
30341SOL    HW294301   1.961   8.235  10.801  0.9891 -0.1230  0.2945
30342SOL     OW94302   8.120   7.424   1.162 -0.6352  0.0699  0.0562
30342SOL    HW194303   8.160   7.395   1.244 -0.5747  0.4065  0.1465
30342SOL    HW294304   8.155   7.364   1.096  1.0602  1.1503 -0.0956
30343SOL     OW94305   7.529   5.790   4.236  0.5695  0.4986  0.3870
30343SOL    HW194306   7.454   5.847   4.249 -0.6562 -1.1260  0.6607
30343SOL    HW294307   7.549   5.798   4.143 -0.7507 -0.0100  0.0453
30344SOL     OW94308   8.939  10.114   2.641  0.2946 -0.1928 -0.0480
30344SOL    HW194309   8.991  10.082   2.567 -0.1605  0.3080 -0.6011
30344SOL    HW294310   8.902  10.035   2.680  1.4616 -0.5552  0.3603
30345SOL     OW94311   0.979   1.754   2.525 -0.1519  0.2317 -0.4485
30345SOL    HW194312   0.974   1.781   2.434  0.0627 -1.1280 -0.8753
30345SOL    HW294313   1.072   1.764   2.547 -0.0853 -0.0946 -0.5833
30346SOL     OW94314   4.743   9.840   8.892  0.4618  0.1270  0.4273
30346SOL    HW194315   4.777   9.926   8.915 -1.3550  1.4545 -1.5112
30346SOL    HW294316   4.798   9.810   8.819  0.9188 -0.2545  0.9200
30347SOL     OW94317   9.807  10.181   7.664 -0.1929  0.2810  0.1973
30347SOL    HW194318   9.770  10.269   7.661 -2.0616 -0.4718 -0.2207
30347SOL    HW294319   9.836  10.164   7.574  2.4572  1.3245  0.7625
30348SOL     OW94320   8.319   8.127  10.995  0.2339  0.0207 -0.1732
30348SOL    HW194321   8.363   8.096  11.074 -1.3574 -1.5877  0.1183
30348SOL    HW294322   8.237   8.166  11.026 -1.1039 -1.9300 -1.0663
30349SOL     OW94323   3.379   7.018   9.426  0.3199  0.1849 -0.7046
30349SOL    HW194324   3.412   7.108   9.421 -1.2999  0.7773 -1.3481
30349SOL    HW294325   3.320   7.011   9.351  0.1068 -1.2895 -0.4137
30350SOL     OW94326   6.403  11.280   5.066  0.3659  0.2040  0.4370
30350SOL    HW194327   6.352  11.293   5.146  0.7137  0.8225  0.5636
30350SOL    HW294328   6.492  11.307   5.090  0.5531  0.0208 -0.0472
30351SOL     OW94329   1.892   1.444   9.497 -0.3219 -0.0109 -0.3620
30351SOL    HW194330   1.896   1.354   9.463 -1.0328 -0.1778 -0.0300
30351SOL    HW294331   1.803   1.452   9.530 -0.2068  0.7699 -0.2412
30352SOL     OW94332  11.300   8.372   4.539  0.7023  0.1505 -0.0435
30352SOL    HW194333  11.229   8.405   4.594 -0.6193 -0.3254 -1.3907
30352SOL    HW294334  11.298   8.277   4.551  0.1469  0.0027 -1.1574
30353SOL     OW94335   8.119  10.623   9.559  0.1889 -0.1682 -0.0828
30353SOL    HW194336   8.207  10.585   9.559  0.4151  0.3459  0.5004
30353SOL    HW294337   8.116  10.676   9.480  0.8741  0.8557  0.5537
30354SOL     OW94338  10.940   3.979   5.197 -0.0098 -0.4230  0.2147
30354SOL    HW194339  11.032   3.971   5.171 -0.2149  0.9427 -1.0816
30354SOL    HW294340  10.921   4.073   5.188 -1.7158 -0.7850 -0.2246
30355SOL     OW94341   7.254   3.918   0.341  0.0881 -0.0034  0.3264
30355SOL    HW194342   7.182   3.857   0.353 -0.5393  0.6625  0.0507
30355SOL    HW294343   7.212   4.005   0.343  0.9214  0.4057  0.4831
30356SOL     OW94344   5.051   3.184   4.486 -0.0371  0.3473  0.0784
30356SOL    HW194345   5.100   3.107   4.458  0.7951  0.9289 -0.0906
30356SOL    HW294346   5.015   3.220   4.405 -0.9635 -0.2047  0.2248
30357SOL     OW94347  10.303   7.931   6.483  0.1119 -0.2028  0.0153
30357SOL    HW194348  10.383   7.879   6.482  1.2246  1.4180  0.3412
30357SOL    HW294349  10.277   7.933   6.575 -0.7678 -1.3363 -0.1789
30358SOL     OW94350  11.369  11.072   2.949 -0.1058  0.1173 -0.3734
30358SOL    HW194351  11.403  11.068   3.039 -1.0865  0.3116  0.0120
30358SOL    HW294352  11.341  11.163   2.939 -0.4636 -0.0305 -0.7039
30359SOL     OW94353   6.266  10.875   2.644 -0.2633 -0.0048 -0.2023
30359SOL    HW194354   6.300  10.864   2.733 -0.6966  1.6242  0.1926
30359SOL    HW294355   6.195  10.811   2.637  0.9777 -1.4743 -0.0695
30360SOL     OW94356  10.412   4.732   3.607 -0.3552  0.1996 -0.6525
30360SOL    HW194357  10.417   4.780   3.690  0.1260 -0.0958 -0.5109
30360SOL    HW294358  10.475   4.661   3.616 -0.4199  0.0669 -1.2107
30361SOL     OW94359  11.007   7.579   9.341  0.4895  0.0662 -0.0675
30361SOL    HW194360  10.957   7.561   9.262 -1.5489  0.1267  1.1381
30361SOL    HW294361  11.055   7.660   9.322  2.0913 -1.2586 -2.0904
30362SOL     OW94362   7.636   4.632   4.370  0.0072 -0.1976 -0.0613
30362SOL    HW194363   7.572   4.686   4.415  0.1553 -0.6167  0.6725
30362SOL    HW294364   7.706   4.692   4.346 -0.2285  0.0930 -0.0281
30363SOL     OW94365   5.630   9.557   1.099 -0.3202 -0.6110  0.6093
30363SOL    HW194366   5.643   9.474   1.053 -0.9671  1.1582 -3.1570
30363SOL    HW294367   5.700   9.613   1.067 -1.2741  0.9939  1.2147
30364SOL     OW94368   8.702   7.010   4.065  0.0661  0.2279 -0.3041
30364SOL    HW194369   8.707   7.054   4.149  2.9958 -0.7976  0.1564
30364SOL    HW294370   8.747   7.069   4.004 -1.0684  0.4490 -0.9738
30365SOL     OW94371   1.421   9.417  10.762  0.1157  0.2533  0.1732
30365SOL    HW194372   1.418   9.327  10.730 -0.3686  0.1918  0.3782
30365SOL    HW294373   1.398   9.471  10.687  0.8065  0.2389 -0.0553
30366SOL     OW94374   3.717   7.796   0.421 -0.1041  0.0224 -0.0448
30366SOL    HW194375   3.712   7.882   0.463  1.4132  0.1881 -0.1345
30366SOL    HW294376   3.697   7.734   0.491  1.3755  0.3481  0.7177
30367SOL     OW94377   2.359   4.706   2.033  0.1594 -0.2731 -0.6432
30367SOL    HW194378   2.395   4.649   1.965 -0.6716 -1.1505 -0.3566
30367SOL    HW294379   2.430   4.717   2.096  1.8989  2.6326 -2.8193
30368SOL     OW94380   0.993   7.101   0.184  0.1258 -0.1972  0.1637
30368SOL    HW194381   1.048   7.067   0.113 -0.5405  2.3233 -1.6826
30368SOL    HW294382   0.906   7.065   0.167  0.2968 -0.8667  0.6662
30369SOL     OW94383   9.773   2.892   6.807 -0.3163 -0.3201  0.3971
30369SOL    HW194384   9.788   2.839   6.884 -0.0387  0.3105  0.7864
30369SOL    HW294385   9.680   2.915   6.810 -0.3527 -0.4760  0.4286
30370SOL     OW94386   4.716   4.312   4.746 -0.0431  0.0312 -0.3607
30370SOL    HW194387   4.759   4.383   4.698  2.8006  0.1603  2.0821
30370SOL    HW294388   4.734   4.234   4.694 -1.0705  0.7154 -1.8101
30371SOL     OW94389   1.909   6.460   0.629 -0.1918  0.5055 -0.6849
30371SOL    HW194390   1.986   6.490   0.679  0.5597 -0.2750 -1.3426
30371SOL    HW294391   1.918   6.503   0.544  0.2712 -0.6185 -1.2321
30372SOL     OW94392  10.463   5.204   0.446  0.4242  0.5967  0.9328
30372SOL    HW194393  10.442   5.298   0.446  0.9245  0.8109 -2.3056
30372SOL    HW294394  10.556   5.200   0.470  0.6158  1.0455  0.3041
30373SOL     OW94395   0.131   3.458   5.020  0.1937  0.2005 -0.4343
30373SOL    HW194396   0.103   3.457   4.928 -0.6322  1.6731 -0.2307
30373SOL    HW294397   0.092   3.380   5.058 -1.0631  0.5792 -0.9022
30374SOL     OW94398   5.674   9.257   2.688 -0.2362 -0.1235 -0.5224
30374SOL    HW194399   5.665   9.340   2.642 -2.1887  0.1697  0.3185
30374SOL    HW294400   5.612   9.198   2.645 -0.6137 -0.4275  0.4223
30375SOL     OW94401   9.231   4.755   5.550  0.3154  0.1686 -0.6728
30375SOL    HW194402   9.233   4.738   5.455 -1.7945  0.1263 -0.7568
30375SOL    HW294403   9.171   4.829   5.560 -0.8732 -0.9309  0.7352
30376SOL     OW94404  10.256   1.503   2.027  0.1686  0.5176 -1.2253
30376SOL    HW194405  10.227   1.421   2.066 -0.5490  0.6485 -1.4742
30376SOL    HW294406  10.289   1.479   1.941  1.8593  0.2114 -0.5410
30377SOL     OW94407   9.914   3.784   6.774 -0.0211  0.4095  0.2766
30377SOL    HW194408   9.860   3.826   6.841 -2.6506 -0.6744 -1.0007
30377SOL    HW294409   9.874   3.811   6.691  0.8962 -1.1350 -0.7165
30378SOL     OW94410  10.865   9.324   1.266 -0.8096 -0.6953 -0.1476
30378SOL    HW194411  10.872   9.229   1.281  0.0910 -0.6665 -0.3083
30378SOL    HW294412  10.950   9.358   1.295 -2.0860  0.4486  2.6470
30379SOL     OW94413   2.879   8.028  10.471 -0.2810 -0.1201  0.3239
30379SOL    HW194414   2.793   8.066  10.490  0.6051  2.2210 -0.0038
30379SOL    HW294415   2.885   8.030  10.376  0.2382  0.0025  0.3595
30380SOL     OW94416  11.102   9.068   9.441 -0.3404 -0.5422 -0.3453
30380SOL    HW194417  11.158   9.060   9.519  0.3616 -0.2541 -0.8141
30380SOL    HW294418  11.049   8.988   9.442 -0.9910 -0.1376  0.9238
30381SOL     OW94419   0.323   4.194   3.371  0.0694 -0.6362 -0.1117
30381SOL    HW194420   0.295   4.122   3.427  1.1618 -1.3223 -0.4179
30381SOL    HW294421   0.241   4.233   3.340 -0.5379 -1.1871  0.7567
30382SOL     OW94422   2.464   5.593   7.565  0.2319  0.4272  0.2958
30382SOL    HW194423   2.437   5.502   7.562 -1.8386  0.9678  0.6325
30382SOL    HW294424   2.559   5.591   7.556  0.0752 -1.6395 -1.6928
30383SOL     OW94425   3.470   5.871   8.497 -0.9710 -0.0150 -0.5779
30383SOL    HW194426   3.563   5.875   8.517 -0.9660 -2.4866  0.2228
30383SOL    HW294427   3.464   5.813   8.421 -1.8118  0.6576 -1.0396
30384SOL     OW94428   4.667   0.481   8.440 -0.2935 -0.3396 -0.3490
30384SOL    HW194429   4.690   0.388   8.433  1.7778 -0.0851  1.7732
30384SOL    HW294430   4.736   0.526   8.390  0.0399  0.1328  0.5117
30385SOL     OW94431   4.748   1.311   5.369  0.1272  0.2877  0.1033
30385SOL    HW194432   4.830   1.346   5.334  0.5363  0.2797  1.0044
30385SOL    HW294433   4.768   1.220   5.390  0.0432  0.4140  0.7630
30386SOL     OW94434   2.075   8.969   8.695  1.0066  0.0236  0.3500
30386SOL    HW194435   2.100   8.949   8.605  1.0221  0.6793  0.2074
30386SOL    HW294436   2.021   8.895   8.721  1.9386 -0.7352  0.1923
30387SOL     OW94437   1.573   9.045   2.482 -0.3174  0.2923  0.3948
30387SOL    HW194438   1.531   9.023   2.565 -1.0794  1.4023  0.3310
30387SOL    HW294439   1.661   9.075   2.506  0.4198 -1.8062  0.5518
30388SOL     OW94440   9.502   5.311  10.232  0.3402 -0.1487 -0.4662
30388SOL    HW194441   9.548   5.391  10.254 -0.0487  0.4921 -1.8648
30388SOL    HW294442   9.452   5.332  10.153  0.1355 -1.7304 -0.8051
30389SOL     OW94443   3.435   1.438   7.527  0.3635  0.4641  0.2181
30389SOL    HW194444   3.435   1.444   7.623  1.6070  0.0315  0.2636
30389SOL    HW294445   3.413   1.347   7.509 -1.3222  0.8710  0.0227
30390SOL     OW94446   9.530   1.760   8.862  0.8560 -0.0127 -0.3229
30390SOL    HW194447   9.532   1.856   8.866  0.1861  0.1130 -2.2013
30390SOL    HW294448   9.600   1.737   8.800  1.1239 -0.7675  0.2392
30391SOL     OW94449   1.819   9.457  11.170 -0.0965 -0.1802 -0.0545
30391SOL    HW194450   1.893   9.412  11.211  0.0296  0.0457 -0.0293
30391SOL    HW294451   1.860   9.513  11.104 -0.4167 -2.3038 -2.2147
30392SOL     OW94452  10.428   0.650   4.390 -0.5055  0.7601 -0.0438
30392SOL    HW194453  10.482   0.572   4.378 -1.1515 -0.0364  1.8497
30392SOL    HW294454  10.469   0.717   4.335  1.1523 -0.3860 -0.2682
30393SOL     OW94455   9.955   6.509  11.073  0.5019  0.0991  0.1166
30393SOL    HW194456   9.896   6.563  11.021  0.0702 -0.2500  0.2369
30393SOL    HW294457  10.034   6.562  11.083  0.2739  0.5008 -0.1923
30394SOL     OW94458   1.361   7.657   8.098  0.2186 -0.4185 -0.0827
30394SOL    HW194459   1.342   7.622   8.185 -0.5755 -0.7572 -0.3831
30394SOL    HW294460   1.278   7.650   8.051  0.1024  1.6421 -0.2449
30395SOL     OW94461   9.237   7.888   6.947 -0.4936  0.1212 -0.1297
30395SOL    HW194462   9.299   7.957   6.970 -0.6910 -0.2448  1.6447
30395SOL    HW294463   9.217   7.845   7.030 -1.6656 -0.9972 -0.9510
30396SOL     OW94464   7.398   4.225   2.885  0.1148  0.3300  0.3865
30396SOL    HW194465   7.453   4.242   2.961  0.5786  1.1964 -0.1225
30396SOL    HW294466   7.457   4.189   2.819 -0.1549  0.1884  0.2157
30397SOL     OW94467   0.954   0.565   0.074 -0.3211 -0.3568 -0.0118
30397SOL    HW194468   0.875   0.528   0.034  0.1472 -0.7180 -0.6174
30397SOL    HW294469   0.946   0.659   0.060  1.0633 -0.5814 -3.4164
30398SOL     OW94470   3.443   7.254   0.433 -0.2016 -0.0538 -0.2719
30398SOL    HW194471   3.534   7.237   0.408 -0.7872 -0.2234 -2.4665
30398SOL    HW294472   3.409   7.168   0.456  0.3936  0.1274  1.3999
30399SOL     OW94473   4.547   8.524   3.528  0.0312 -0.3716 -0.3885
30399SOL    HW194474   4.528   8.431   3.544 -0.2008 -0.1023  1.0018
30399SOL    HW294475   4.592   8.525   3.444  2.1942 -2.0051  0.6745
30400SOL     OW94476   9.924   2.836   0.219 -0.3670 -0.4888  0.2546
30400SOL    HW194477   9.881   2.771   0.275 -2.8408  1.1828  0.4539
30400SOL    HW294478   9.887   2.822   0.132  0.4422 -0.4604 -0.1103
30401SOL     OW94479   5.608   9.696   2.889  0.5934  0.2072  0.4075
30401SOL    HW194480   5.570   9.608   2.889 -0.6738  0.6587  2.5780
30401SOL    HW294481   5.623   9.715   2.982  3.1212  1.3826 -0.1512
30402SOL     OW94482   6.682   9.275   6.141  0.6311  0.1563 -0.3729
30402SOL    HW194483   6.598   9.271   6.187  0.1555 -0.0326 -1.2330
30402SOL    HW294484   6.715   9.185   6.144  0.2122 -0.0249 -1.0977
30403SOL     OW94485   3.990   9.126  10.230 -0.3176 -0.0635  0.1701
30403SOL    HW194486   3.897   9.109  10.246  0.0075 -1.2448  0.9399
30403SOL    HW294487   3.994   9.219  10.206 -1.6887  0.0017  0.1392
30404SOL     OW94488   3.359   1.843   4.996 -0.2053  0.1030  0.1606
30404SOL    HW194489   3.301   1.913   4.967 -1.8870  0.2758  3.4531
30404SOL    HW294490   3.332   1.767   4.945 -0.5525  1.0825 -1.1693
30405SOL     OW94491  10.672   3.769   9.274  0.8370 -0.2696  0.5341
30405SOL    HW194492  10.754   3.756   9.322  1.5621  0.5841 -0.4217
30405SOL    HW294493  10.688   3.729   9.188 -0.6203 -2.2612  1.1178
30406SOL     OW94494  10.333  10.573   3.209 -0.4309 -0.1494  0.5302
30406SOL    HW194495  10.307  10.607   3.294  1.7711  0.0398  1.1899
30406SOL    HW294496  10.347  10.651   3.155  2.9971  0.0962  1.5508
30407SOL     OW94497   9.795  11.212   4.105  0.3014  0.3547  0.3088
30407SOL    HW194498   9.749  11.133   4.078 -0.1092 -0.1570  2.3078
30407SOL    HW294499   9.728  11.280   4.106  0.2615  0.3153  0.2927
30408SOL     OW94500  10.768   4.912   9.900  0.2936  0.4985 -0.1161
30408SOL    HW194501  10.823   4.843   9.938 -0.5311  0.4243  0.9947
30408SOL    HW294502  10.722   4.869   9.828  0.8562  0.2750 -0.3487
30409SOL     OW94503   0.004   8.076   1.957 -0.3415  0.2998 -0.3257
30409SOL    HW194504  -0.033   8.023   2.028  0.6064 -1.0319 -0.7737
30409SOL    HW294505  -0.034   8.039   1.877 -0.5649  1.0703 -0.5761
30410SOL     OW94506   0.836   5.006   1.140 -0.3893  0.6938  0.6065
30410SOL    HW194507   0.827   4.953   1.219 -0.4103 -0.1526  0.0484
30410SOL    HW294508   0.893   5.078   1.166 -1.4536  1.1616  1.7451
30411SOL     OW94509   3.141   7.558   3.323 -0.0149 -0.0125 -0.0106
30411SOL    HW194510   3.204   7.562   3.251  1.6479 -0.5719  1.3309
30411SOL    HW294511   3.116   7.466   3.327 -0.8737  0.1894 -0.4672
30412SOL     OW94512   8.703  10.447   5.872 -0.2512 -0.0192  0.0116
30412SOL    HW194513   8.660  10.495   5.943 -1.0737 -0.8480  0.0972
30412SOL    HW294514   8.791  10.428   5.906 -0.5167 -0.0933  0.6750
30413SOL     OW94515   0.942  10.460   3.510 -0.4343 -0.1960 -0.5665
30413SOL    HW194516   0.868  10.519   3.492 -0.9908 -0.5932  0.3902
30413SOL    HW294517   0.932  10.435   3.601  1.0388 -0.0561 -0.3394
30414SOL     OW94518   9.521   6.255   9.882 -0.1292 -0.3194  0.2308
30414SOL    HW194519   9.556   6.172   9.914  1.8547  0.2663 -0.3368
30414SOL    HW294520   9.563   6.321   9.936 -0.2464  0.4281 -0.5745
30415SOL     OW94521   0.781   3.418   0.014  0.3756  0.5851  0.0928
30415SOL    HW194522   0.850   3.442  -0.048  0.5962  0.2309  0.1967
30415SOL    HW294523   0.822   3.425   0.100  0.4769 -0.2496  0.1204
30416SOL     OW94524   7.598   7.749  10.788  0.5542  0.8007 -0.3144
30416SOL    HW194525   7.605   7.731  10.695 -0.6136 -0.3601 -0.2130
30416SOL    HW294526   7.671   7.701  10.828  1.4340  1.8124 -0.6621
30417SOL     OW94527   6.437   5.975   0.940  0.0376  0.2311 -0.2597
30417SOL    HW194528   6.444   5.918   0.863 -1.0083  0.0890 -0.2594
30417SOL    HW294529   6.387   6.050   0.910 -1.0758 -0.1975  0.4701
30418SOL     OW94530   6.177   3.894   1.742  0.1237 -0.1147 -0.4517
30418SOL    HW194531   6.182   3.815   1.796  0.1820  0.1235 -0.1069
30418SOL    HW294532   6.099   3.940   1.774 -0.1632 -0.2453 -0.9469
30419SOL     OW94533   9.403  10.917   4.683  0.1797 -0.4220  0.1680
30419SOL    HW194534   9.363  10.935   4.768 -0.8954 -1.2797 -0.1323
30419SOL    HW294535   9.354  10.841   4.650 -0.0629  0.4806 -1.6234
30420SOL     OW94536   6.573   4.167   4.661  0.0879  0.2005 -0.1754
30420SOL    HW194537   6.629   4.236   4.695  1.0267 -0.3610 -0.5310
30420SOL    HW294538   6.622   4.086   4.676 -0.5117 -0.2829 -0.7178
30421SOL     OW94539  10.891  11.242   9.762  0.1582  0.2604  0.0202
30421SOL    HW194540  10.819  11.185   9.790 -0.7473  1.5142  0.3506
30421SOL    HW294541  10.863  11.330   9.788  2.4726  0.6492  1.5682
30422SOL     OW94542   4.629   3.791   5.128  0.6708  0.0333 -0.3937
30422SOL    HW194543   4.652   3.878   5.094  0.4509  0.8423  1.4185
30422SOL    HW294544   4.610   3.806   5.220  3.4523 -2.4162  0.7209
30423SOL     OW94545   8.968   3.730   3.059  0.2467 -0.1205 -0.2352
30423SOL    HW194546   9.048   3.779   3.037 -0.1062  0.4463 -0.2769
30423SOL    HW294547   8.954   3.673   2.983  1.5608 -1.4893  0.5057
30424SOL     OW94548   1.474   1.891   7.855  0.5824 -0.5741  0.5243
30424SOL    HW194549   1.525   1.811   7.870 -0.0420 -1.1987 -0.6057
30424SOL    HW294550   1.398   1.882   7.912  0.8450 -0.4593  0.8994
30425SOL     OW94551   4.181   8.684   5.907 -0.2820 -0.1873 -0.0565
30425SOL    HW194552   4.192   8.687   5.812 -1.0018  0.4713 -0.1246
30425SOL    HW294553   4.111   8.621   5.922  0.4813 -1.0320  0.1156
30426SOL     OW94554   2.726  10.857   0.488  0.1066 -0.2407 -0.5619
30426SOL    HW194555   2.716  10.903   0.572  0.5557 -1.0350 -0.0512
30426SOL    HW294556   2.777  10.779   0.510  2.6663  0.8874 -2.0552
30427SOL     OW94557   3.092   0.374   8.059 -0.2088 -0.0780 -0.7472
30427SOL    HW194558   3.016   0.421   8.024 -0.6447 -0.0852  0.1460
30427SOL    HW294559   3.129   0.435   8.123  0.9014  0.1583 -1.5875
30428SOL     OW94560   1.680   1.575   2.747 -0.3100 -0.5248  0.1792
30428SOL    HW194561   1.740   1.507   2.777  0.1069 -0.9961 -1.5795
30428SOL    HW294562   1.736   1.638   2.702 -0.9441 -0.1341 -0.0765
30429SOL     OW94563   1.608  10.530   8.477  0.1372  0.0471 -0.4117
30429SOL    HW194564   1.522  10.566   8.455 -0.0009 -0.2542 -0.3689
30429SOL    HW294565   1.589  10.447   8.520  0.4518 -0.0386 -0.4347
30430SOL     OW94566   0.339   8.146   6.852 -0.7305 -0.4497 -0.1700
30430SOL    HW194567   0.368   8.216   6.794 -0.0053 -1.1566 -0.6775
30430SOL    HW294568   0.294   8.084   6.795  0.6276 -1.5120 -0.1518
30431SOL     OW94569   8.757   9.399  10.652  0.3504 -0.2236  0.6993
30431SOL    HW194570   8.776   9.348  10.573  1.1648  1.3697 -0.1946
30431SOL    HW294571   8.666   9.380  10.672  0.1017 -0.6052 -0.6866
30432SOL     OW94572   9.082   0.902   9.856  0.0519 -0.2715  0.5948
30432SOL    HW194573   9.147   0.852   9.905 -0.4436 -0.8676  0.6536
30432SOL    HW294574   9.063   0.847   9.780  0.6426  0.5342 -0.1633
30433SOL     OW94575   6.645   3.175   2.547  0.2094  0.2577  0.2317
30433SOL    HW194576   6.619   3.247   2.490 -1.8091 -0.9435 -0.4654
30433SOL    HW294577   6.685   3.111   2.487  0.6190  0.1597  0.6042
30434SOL     OW94578   5.488  10.108   9.134  0.2356 -0.6296  0.1071
30434SOL    HW194579   5.398  10.135   9.114  0.0517 -1.2253  0.1126
30434SOL    HW294580   5.513  10.051   9.061  1.4598  1.3509 -1.1196
30435SOL     OW94581   3.676   3.749   0.154 -0.2148 -0.1931 -0.0321
30435SOL    HW194582   3.672   3.769   0.247  0.3801 -2.1357  0.4600
30435SOL    HW294583   3.767   3.723   0.139 -0.1821  0.5304 -1.2735
30436SOL     OW94584   2.911   5.530   5.070  0.5547  0.7896  0.5306
30436SOL    HW194585   2.881   5.507   4.982 -2.3991 -0.6395  1.7871
30436SOL    HW294586   2.993   5.481   5.081  0.5246  0.3122 -1.1023
30437SOL     OW94587   2.272   9.402  10.096  0.4694  0.5129 -0.1755
30437SOL    HW194588   2.353   9.357  10.070  0.8684  0.6496  0.7718
30437SOL    HW294589   2.279   9.409  10.191 -0.8392  0.2121 -0.0457
30438SOL     OW94590   5.668   4.142   7.785 -0.1620  0.0905 -0.0353
30438SOL    HW194591   5.653   4.231   7.754 -0.4007  0.2612  0.5510
30438SOL    HW294592   5.580   4.105   7.793 -0.4693  1.1571  3.6263
30439SOL     OW94593   2.898  10.965   7.339 -0.0236 -0.0166 -0.0043
30439SOL    HW194594   2.848  10.890   7.307 -1.1677  1.2772 -1.4256
30439SOL    HW294595   2.980  10.963   7.290 -0.4532  0.1628 -0.7553
30440SOL     OW94596   7.675   4.751   2.649 -0.0637  0.0401  0.1961
30440SOL    HW194597   7.718   4.825   2.607 -0.9996  0.2567 -0.3863
30440SOL    HW294598   7.584   4.756   2.622 -0.3472 -0.7651  0.9370
30441SOL     OW94599   0.400   6.042  10.030  0.1515  0.0396 -0.1864
30441SOL    HW194600   0.448   6.028  10.112 -1.8252 -0.5352  0.9387
30441SOL    HW294601   0.422   6.132  10.005  1.3298 -0.0033  0.6006
30442SOL     OW94602   1.051   5.726   1.756  0.0536 -0.2764 -0.2921
30442SOL    HW194603   1.029   5.696   1.668  0.6444  2.0964 -1.3428
30442SOL    HW294604   1.136   5.769   1.746 -0.6018  1.4494  1.0723
30443SOL     OW94605   5.504   1.536   7.117 -0.2669  0.1736 -0.5452
30443SOL    HW194606   5.486   1.597   7.189 -2.1381  0.2525 -1.0355
30443SOL    HW294607   5.599   1.538   7.108 -0.1343  1.6225  0.6626
30444SOL     OW94608   4.632  10.596   0.649  0.5767 -0.2113 -0.3393
30444SOL    HW194609   4.590  10.681   0.663 -0.1123 -0.6167  0.0921
30444SOL    HW294610   4.583  10.535   0.704  1.5558 -0.7537 -0.0268
30445SOL     OW94611   8.947   1.697   9.305 -0.0481 -0.2408  0.5986
30445SOL    HW194612   8.943   1.616   9.254  1.2409 -1.0957  1.7859
30445SOL    HW294613   8.859   1.707   9.342 -0.3235 -0.8948  0.1281
30446SOL     OW94614   2.627   3.393  10.285  0.2797  0.1716 -0.1636
30446SOL    HW194615   2.594   3.443  10.210 -1.5132  0.6586  0.9083
30446SOL    HW294616   2.654   3.309  10.248  1.5300  1.1755 -1.6834
30447SOL     OW94617   8.216   7.894  10.921 -0.5339  0.0624 -0.1868
30447SOL    HW194618   8.192   7.929  10.835  1.0930 -2.0684 -1.6226
30447SOL    HW294619   8.265   7.965  10.963 -2.1211  1.4604 -0.5924
30448SOL     OW94620   4.594   7.434  10.720 -0.3688  0.1600  0.3466
30448SOL    HW194621   4.545   7.459  10.642 -0.1672  1.6965  0.6967
30448SOL    HW294622   4.584   7.339  10.724  1.0709 -0.2209 -2.4983
30449SOL     OW94623   4.946   0.196  11.162  0.1847 -0.5605 -0.4580
30449SOL    HW194624   5.039   0.180  11.178  0.3765  0.0320 -0.9576
30449SOL    HW294625   4.902   0.158  11.239  0.8120 -1.0769 -0.3438
30450SOL     OW94626   6.013   9.438   6.259  0.0286  0.7315  0.0862
30450SOL    HW194627   6.022   9.476   6.346 -1.2112  0.4927  0.3375
30450SOL    HW294628   6.095   9.460   6.214  1.0432  0.1216  1.5741
30451SOL     OW94629   8.754   6.905   9.782  0.0238 -0.2740 -0.4515
30451SOL    HW194630   8.776   6.952   9.701 -0.2999 -0.8727 -0.8881
30451SOL    HW294631   8.832   6.916   9.837 -1.2005  3.7064  0.8874
30452SOL     OW94632   7.707   2.771   3.430 -0.7077  0.2626 -0.2039
30452SOL    HW194633   7.771   2.771   3.359  0.1717  0.1362  0.5672
30452SOL    HW294634   7.622   2.769   3.386 -0.2099  1.3603 -1.2534
30453SOL     OW94635   3.966   9.297   8.389 -0.1300  0.0133 -0.1095
30453SOL    HW194636   4.061   9.285   8.380 -0.2703 -0.6454 -0.8969
30453SOL    HW294637   3.936   9.217   8.433 -0.2797  0.3891  0.4805
30454SOL     OW94638   4.847   4.184   1.040  0.6015 -0.3263 -1.0008
30454SOL    HW194639   4.885   4.272   1.033 -1.2888  0.5602 -0.8327
30454SOL    HW294640   4.769   4.188   0.984  0.5344 -1.9371 -1.0422
30455SOL     OW94641   2.346   1.854   6.626  0.0079  0.1201  0.0238
30455SOL    HW194642   2.346   1.949   6.642  0.2215  0.4271 -1.6313
30455SOL    HW294643   2.355   1.816   6.713 -2.3394  1.5476  1.0018
30456SOL     OW94644   3.055  11.258  10.747 -0.0584 -0.0478  0.0875
30456SOL    HW194645   3.112  11.297  10.681  2.1836 -1.9256  0.8126
30456SOL    HW294646   3.102  11.268  10.830 -1.2057 -0.8543  0.8801
30457SOL     OW94647   0.702  10.206  10.224 -0.1366 -0.2781  0.2210
30457SOL    HW194648   0.710  10.151  10.302  1.2969  0.3917  0.5774
30457SOL    HW294649   0.672  10.146  10.156 -1.3646 -0.8820  1.2541
30458SOL     OW94650   5.162   0.402   2.649 -0.2550  0.0807  0.8758
30458SOL    HW194651   5.096   0.471   2.641  0.3171  0.7059  1.4486
30458SOL    HW294652   5.245   0.449   2.648  0.2113 -0.7214 -0.1930
30459SOL     OW94653   3.133  10.233   9.644 -0.1018 -0.1531 -0.0812
30459SOL    HW194654   3.099  10.190   9.723  1.1254  0.5262  0.8369
30459SOL    HW294655   3.058  10.281   9.609 -0.5068  0.0246  1.0044
30460SOL     OW94656   9.151   3.863   8.938 -0.1837  0.2583  0.1328
30460SOL    HW194657   9.116   3.839   8.852 -2.4428 -0.0027  1.0422
30460SOL    HW294658   9.140   3.784   8.991  0.1927  0.7358  0.9426
30461SOL     OW94659   1.639   7.849   3.262  0.4508  0.0187  0.5573
30461SOL    HW194660   1.624   7.827   3.354  0.4945 -0.8940  0.3545
30461SOL    HW294661   1.690   7.776   3.228 -1.5640 -0.8407 -0.7967
30462SOL     OW94662   0.620   7.708   5.895  0.9298 -0.3195  0.4062
30462SOL    HW194663   0.614   7.799   5.865  0.2133 -0.1414  1.0676
30462SOL    HW294664   0.649   7.660   5.818 -1.5912  0.0084 -0.8687
30463SOL     OW94665   4.774   9.908   0.539  0.2960 -0.5681  0.0508
30463SOL    HW194666   4.768   9.813   0.542  2.6052 -0.7470  1.2222
30463SOL    HW294667   4.764   9.936   0.630 -2.8857  0.5980 -0.5445
30464SOL     OW94668   4.765  10.644   6.882  0.2228  0.7993  0.1984
30464SOL    HW194669   4.725  10.682   6.804  1.8882  0.3184 -0.9414
30464SOL    HW294670   4.700  10.659   6.951 -3.0346 -1.9827 -1.9148
30465SOL     OW94671   8.424   6.249   1.362  0.2354  0.5636 -0.4875
30465SOL    HW194672   8.483   6.295   1.421  0.3015  2.2412 -1.7806
30465SOL    HW294673   8.448   6.157   1.371  1.5896  0.9832  0.5872
30466SOL     OW94674   4.771   4.576   8.066 -0.1743 -0.0494 -0.6284
30466SOL    HW194675   4.676   4.576   8.054 -0.4024 -0.9451  0.9427
30466SOL    HW294676   4.789   4.654   8.119 -0.0915 -0.1433 -0.5168
30467SOL     OW94677   0.427   3.514   6.490 -0.4048 -0.2351 -0.4656
30467SOL    HW194678   0.345   3.561   6.476  0.0141  0.0585 -2.1229
30467SOL    HW294679   0.400   3.424   6.510 -1.1386 -0.0821 -0.7427
30468SOL     OW94680   5.935   4.461  10.370  0.3098  0.2055 -0.2655
30468SOL    HW194681   5.951   4.490  10.280 -0.5092  0.7573 -0.2495
30468SOL    HW294682   6.021   4.457  10.410  0.5941  1.0024 -0.7714
30469SOL     OW94683   6.260   6.063   9.812 -0.7809  0.0374  0.0762
30469SOL    HW194684   6.272   6.079   9.718 -1.3374  0.0885  0.0125
30469SOL    HW294685   6.330   6.113   9.854 -1.1973  0.9114 -0.2508
30470SOL     OW94686   2.619  10.255   1.848 -0.8761  0.2100  0.1142
30470SOL    HW194687   2.649  10.222   1.764  1.7304 -1.7328  1.6545
30470SOL    HW294688   2.603  10.177   1.901 -2.1441  1.3680  1.5381
30471SOL     OW94689  10.135   6.665   2.333 -0.4369  0.2799 -0.0765
30471SOL    HW194690  10.145   6.618   2.416 -0.3952 -0.1111 -0.3023
30471SOL    HW294691  10.137   6.597   2.266 -0.1567  0.6228 -0.4230
30472SOL     OW94692   7.043   5.508   7.831  0.5317  0.8658 -0.9054
30472SOL    HW194693   6.976   5.526   7.897  1.0588 -0.4230  0.0157
30472SOL    HW294694   6.995   5.470   7.757  0.0973  1.1138 -0.7565
30473SOL     OW94695   6.243   7.381   4.328  0.6863  0.0474  0.6846
30473SOL    HW194696   6.264   7.290   4.345  0.4817  0.3002  2.4461
30473SOL    HW294697   6.322   7.429   4.355  0.8411  0.4048 -0.3358
30474SOL     OW94698   7.096   2.984   0.872  0.3470 -0.3601  0.2159
30474SOL    HW194699   7.032   2.960   0.939  0.6303 -0.5310  0.4243
30474SOL    HW294700   7.096   3.080   0.872 -0.1778 -0.3550 -0.0415
30475SOL     OW94701   4.546   2.194   1.800  0.2553 -0.2107 -0.8764
30475SOL    HW194702   4.551   2.106   1.837  1.4932  0.7381  1.4189
30475SOL    HW294703   4.467   2.232   1.838 -1.1621 -0.7550 -3.0791
30476SOL     OW94704   2.507   8.313   2.310 -0.5797  0.4304 -0.5826
30476SOL    HW194705   2.594   8.315   2.269 -0.8926 -2.1126 -1.5623
30476SOL    HW294706   2.500   8.397   2.356  2.1910  0.9154 -0.8709
30477SOL     OW94707   3.455   3.995   3.215  0.7229 -0.8124 -0.4328
30477SOL    HW194708   3.461   3.934   3.289  0.1712 -0.7275 -0.3094
30477SOL    HW294709   3.397   4.065   3.247  2.3503  0.4542 -0.1075
30478SOL     OW94710   5.880   6.572  10.759 -0.1059 -0.3271 -0.9547
30478SOL    HW194711   5.821   6.583  10.833  0.1739  0.6269 -0.8591
30478SOL    HW294712   5.879   6.478  10.741 -0.9626 -0.4365 -0.3940
30479SOL     OW94713  10.411   9.899   0.263 -0.1307 -0.1147  0.5213
30479SOL    HW194714  10.440   9.990   0.268 -0.8758  0.0974  1.1438
30479SOL    HW294715  10.491   9.849   0.247  0.1708  0.7332 -0.8255
30480SOL     OW94716   3.143   3.652  10.445  0.0340 -0.1972 -0.2495
30480SOL    HW194717   3.144   3.667  10.540 -0.9737 -0.3468 -0.1968
30480SOL    HW294718   3.197   3.574  10.433  2.3326  1.2999 -0.1153
30481SOL     OW94719   4.436   8.620   3.793  0.3935  0.2204 -0.3058
30481SOL    HW194720   4.491   8.697   3.778  0.1966  0.4543  0.1488
30481SOL    HW294721   4.374   8.621   3.721  1.0814 -0.1421 -0.9208
30482SOL     OW94722   4.656   9.304  10.310 -0.1176 -0.3524 -0.7808
30482SOL    HW194723   4.664   9.352  10.227  0.6026  0.1944 -0.4153
30482SOL    HW294724   4.746   9.297  10.342 -0.5668  1.7107  1.1997
30483SOL     OW94725   6.001   9.672   1.010 -0.2272  0.0068  0.4002
30483SOL    HW194726   5.931   9.608   0.997 -0.0472 -0.2797  0.8312
30483SOL    HW294727   6.058   9.661   0.933  0.4105 -1.1404  1.0122
30484SOL     OW94728   4.801   7.311   7.341  0.4682 -1.0732  0.1133
30484SOL    HW194729   4.883   7.337   7.383  0.8741 -0.3766 -1.0676
30484SOL    HW294730   4.828   7.256   7.267 -0.2226 -2.1322  0.6123
30485SOL     OW94731  10.518   7.461   7.096  0.4468  0.3749 -0.2425
30485SOL    HW194732  10.604   7.503   7.094  0.0108  1.3727  0.8171
30485SOL    HW294733  10.477   7.487   7.013  1.9846 -2.0691 -1.9313
30486SOL     OW94734   1.222  10.940   9.178  0.2235 -0.1190  0.0704
30486SOL    HW194735   1.261  10.860   9.215 -1.1640  0.2508  2.6027
30486SOL    HW294736   1.283  11.009   9.203  0.3338 -0.1156 -0.2045
30487SOL     OW94737   6.296   9.473   8.151 -0.4515 -0.0982  0.0539
30487SOL    HW194738   6.343   9.390   8.145 -0.0699  0.1771 -0.9486
30487SOL    HW294739   6.364   9.536   8.176 -0.3634  0.2158 -0.9312
30488SOL     OW94740   3.591   9.552   2.206  0.4047  0.3423  0.5543
30488SOL    HW194741   3.667   9.566   2.150  0.4101  0.3071  0.5528
30488SOL    HW294742   3.540   9.484   2.162  0.0256  0.8420  0.2053
30489SOL     OW94743   2.769  10.197   5.370  0.2729 -0.1571 -0.6466
30489SOL    HW194744   2.680  10.184   5.337 -0.0557  1.0510 -0.2843
30489SOL    HW294745   2.775  10.291   5.388  1.0620 -0.4629  0.9057
30490SOL     OW94746   0.369   1.300   9.649  0.3605 -0.0178  0.8370
30490SOL    HW194747   0.414   1.313   9.732  0.6773 -1.0019  0.8275
30490SOL    HW294748   0.362   1.205   9.639 -0.7340  0.1017  0.3057
30491SOL     OW94749   0.485  10.590  10.049 -0.0583 -0.2669 -0.2544
30491SOL    HW194750   0.485  10.685  10.061 -0.4119 -0.5027  2.1571
30491SOL    HW294751   0.562  10.560  10.097 -1.9162 -1.4301  2.2613
30492SOL     OW94752   9.940   5.824   4.712 -0.6120 -0.4995  0.7102
30492SOL    HW194753   9.947   5.732   4.736 -0.0663 -0.2332  1.6083
30492SOL    HW294754   9.858   5.853   4.753 -1.4001 -0.8672 -0.5642
30493SOL     OW94755   7.321   3.469   4.396  0.6976  0.4366  0.2130
30493SOL    HW194756   7.264   3.504   4.327 -0.8252 -1.1482  0.6072
30493SOL    HW294757   7.339   3.545   4.452  0.1253  1.2614 -0.6744
30494SOL     OW94758   1.343   5.389   2.548  0.6015 -0.5432  0.1908
30494SOL    HW194759   1.418   5.377   2.489  0.3751  0.1912 -0.2677
30494SOL    HW294760   1.267   5.378   2.491  0.3426  3.4077 -0.4715
30495SOL     OW94761   9.260   1.431   8.004 -0.1939  0.2669 -0.2179
30495SOL    HW194762   9.244   1.337   7.996  2.0733 -0.1239 -0.7499
30495SOL    HW294763   9.343   1.438   8.051  0.3271  1.9675 -1.3070
30496SOL     OW94764   2.963   3.172   1.899  0.3941 -0.4933 -0.3802
30496SOL    HW194765   3.057   3.165   1.880  0.0424 -2.6018 -1.7775
30496SOL    HW294766   2.949   3.109   1.970  0.3596  1.5221  1.4883
30497SOL     OW94767   4.367   5.571   6.696 -0.4198 -0.2429  0.0365
30497SOL    HW194768   4.315   5.594   6.773  0.6466 -1.0673  1.0229
30497SOL    HW294769   4.451   5.613   6.710  0.0174 -0.9713 -0.3368
30498SOL     OW94770   0.123  10.916   6.371  0.1096 -0.3724 -0.2821
30498SOL    HW194771   0.187  10.986   6.388 -0.1562 -0.0374 -0.6269
30498SOL    HW294772   0.048  10.939   6.426  1.3502 -2.4105  2.5637
30499SOL     OW94773   1.585   4.156   0.793 -0.1941  0.2335 -0.4243
30499SOL    HW194774   1.609   4.075   0.838  2.8162  1.0222 -0.3776
30499SOL    HW294775   1.603   4.140   0.701 -0.7274  0.5066 -0.5850
30500SOL     OW94776   4.649   5.106  11.187 -0.1395 -0.1388 -0.6699
30500SOL    HW194777   4.587   5.077  11.254  0.6216 -1.8490 -0.6614
30500SOL    HW294778   4.625   5.057  11.109  0.8301 -0.3913 -0.8224
30501SOL     OW94779   7.800   5.862   3.862 -0.1187 -0.0817  0.4329
30501SOL    HW194780   7.788   5.920   3.787  0.5153  1.9223  1.7866
30501SOL    HW294781   7.895   5.859   3.875 -0.1715 -1.1072  0.6377
30502SOL     OW94782   3.254   9.537   6.480 -0.4928 -0.7627  0.1475
30502SOL    HW194783   3.280   9.558   6.391 -1.4423 -2.9622 -0.7252
30502SOL    HW294784   3.326   9.483   6.514  0.0128  0.3182  0.8786
30503SOL     OW94785   1.161   0.860   1.065 -0.2674  0.6039  0.2057
30503SOL    HW194786   1.098   0.790   1.082 -1.0506  1.4050  0.7481
30503SOL    HW294787   1.243   0.815   1.045 -0.8110 -0.4590  0.2856
30504SOL     OW94788   6.204   8.496   3.597  0.6711 -1.0065 -0.1857
30504SOL    HW194789   6.158   8.501   3.681  2.2580 -2.4405  0.8641
30504SOL    HW294790   6.231   8.404   3.590  2.3680 -0.4813 -1.2414
30505SOL     OW94791   0.963   0.424   7.792 -0.5226  0.3344 -0.1626
30505SOL    HW194792   0.972   0.471   7.875 -1.8313 -0.2845  0.3530
30505SOL    HW294793   0.936   0.336   7.817  0.4471 -0.2756 -1.1952
30506SOL     OW94794   1.396   5.367   1.834  0.0139  0.3842 -0.0406
30506SOL    HW194795   1.305   5.394   1.825 -0.3522 -0.5783  0.5688
30506SOL    HW294796   1.443   5.419   1.768 -0.9460  0.9830 -0.2784
30507SOL     OW94797  11.197   3.701   9.977  0.3490 -0.3116 -0.5355
30507SOL    HW194798  11.213   3.782  10.026  0.0646  0.7666 -2.1677
30507SOL    HW294799  11.168   3.638  10.044  0.6894  0.8837  0.7791
30508SOL     OW94800   8.934   1.062   0.608 -0.2457  0.0603  0.1476
30508SOL    HW194801   8.952   0.974   0.641 -2.0553  0.8198  3.5736
30508SOL    HW294802   8.843   1.060   0.579 -0.4223  0.8455  0.5911
30509SOL     OW94803  10.067   5.239   4.846  0.1931 -0.3041 -0.4493
30509SOL    HW194804  10.136   5.288   4.891  1.0418 -0.6651 -1.3155
30509SOL    HW294805   9.989   5.292   4.857  0.4909 -0.1012  0.9552
30510SOL     OW94806  10.968   8.874  10.825  0.0555 -0.2952  0.2647
30510SOL    HW194807  10.918   8.956  10.828 -0.3362 -0.3586 -2.5627
30510SOL    HW294808  11.057   8.899  10.851 -0.0513  1.0380 -0.5608
30511SOL     OW94809   8.325   5.215   7.995  0.0724 -0.2158  0.3455
30511SOL    HW194810   8.372   5.172   8.066  0.4731  0.6385  0.6162
30511SOL    HW294811   8.369   5.300   7.986  0.6362 -0.6563 -1.5369
30512SOL     OW94812  11.199   3.091   5.622 -0.1224 -0.3756 -0.1456
30512SOL    HW194813  11.271   3.132   5.670 -0.7083 -0.2386  0.6434
30512SOL    HW294814  11.240   3.017   5.576  0.7128  0.3578 -0.6100
30513SOL     OW94815  10.723   6.009   9.692 -0.0567 -0.3402  0.2599
30513SOL    HW194816  10.673   5.983   9.615 -0.4821 -0.3150  0.5277
30513SOL    HW294817  10.811   6.027   9.658 -0.0580 -0.9986 -0.1124
30514SOL     OW94818   9.347   3.424  11.107 -0.1661  0.0616 -1.0795
30514SOL    HW194819   9.419   3.360  11.112  0.1546  0.4814 -0.1489
30514SOL    HW294820   9.354   3.474  11.188 -0.8161  0.8597 -1.5067
30515SOL     OW94821   4.388   6.047   4.337 -0.4399 -0.1943  0.6810
30515SOL    HW194822   4.346   6.021   4.419 -0.5653 -1.2063  0.3074
30515SOL    HW294823   4.315   6.058   4.275 -0.4003  1.1507  0.8360
30516SOL     OW94824   9.049   6.938   7.963 -0.0716  0.2956  0.6807
30516SOL    HW194825   8.964   6.908   7.931  0.0870  0.0720  0.4680
30516SOL    HW294826   9.112   6.906   7.899 -0.1849  4.0855 -1.6228
30517SOL     OW94827  10.924   3.702   0.597 -0.2451  0.2220 -0.5398
30517SOL    HW194828  10.937   3.722   0.505  1.2503 -0.2295 -0.4386
30517SOL    HW294829  10.988   3.756   0.643  0.8209 -1.4845  0.0447
30518SOL     OW94830  10.840   7.689   9.552 -0.3166  0.5805  0.2435
30518SOL    HW194831  10.874   7.625   9.489 -1.0452 -1.6215  1.9476
30518SOL    HW294832  10.768   7.732   9.506  0.9418  1.0905 -1.3560
30519SOL     OW94833   9.182   1.781   9.462  0.0963  0.4186 -0.1077
30519SOL    HW194834   9.133   1.731   9.396  1.9394 -1.6047 -0.0394
30519SOL    HW294835   9.116   1.839   9.501 -1.5313  0.0807 -2.1506
30520SOL     OW94836   4.850   2.853  10.224  0.7900 -0.3087 -0.6401
30520SOL    HW194837   4.755   2.855  10.239  0.5108 -0.7856 -2.2030
30520SOL    HW294838   4.874   2.761  10.238  1.0290 -0.1955 -0.2882
30521SOL     OW94839   8.913   9.582   7.469 -0.7664 -0.2524 -0.2525
30521SOL    HW194840   8.824   9.575   7.504  0.3075 -0.2448  2.7767
30521SOL    HW294841   8.943   9.668   7.498  0.3990 -0.4422 -0.8465
30522SOL     OW94842   1.696   2.692   9.973  0.2714  0.0248 -0.0898
30522SOL    HW194843   1.741   2.697   9.889 -0.8080 -1.3603 -0.7862
30522SOL    HW294844   1.752   2.637  10.027  0.0574 -0.6444 -0.5362
30523SOL     OW94845   1.368  10.260   9.526  0.2108  0.4411  0.2306
30523SOL    HW194846   1.315  10.333   9.558  0.1397  0.4422  0.1122
30523SOL    HW294847   1.459  10.288   9.540  0.2767  1.6177 -2.0343
30524SOL     OW94848   3.960   8.208   4.783 -0.2949  0.4021 -0.3772
30524SOL    HW194849   3.917   8.292   4.766 -0.1677  0.1480 -2.0386
30524SOL    HW294850   4.047   8.232   4.815 -0.9736  0.8886  1.2568
30525SOL     OW94851   8.540   8.884   7.613  0.1054 -0.2364  0.2769
30525SOL    HW194852   8.585   8.833   7.680 -1.1455 -2.8197 -0.7084
30525SOL    HW294853   8.545   8.830   7.534 -0.9163  1.4025 -0.9764
30526SOL     OW94854   7.691   5.461   0.851  0.6871 -0.3846 -0.4725
30526SOL    HW194855   7.747   5.534   0.878  1.2772 -0.8943 -0.3044
30526SOL    HW294856   7.699   5.397   0.922  0.6637 -0.8798 -0.9081
30527SOL     OW94857   9.198  10.948   5.782  0.1277 -0.2182  0.7382
30527SOL    HW194858   9.257  11.016   5.815  1.2013  0.2425 -1.8826
30527SOL    HW294859   9.111  10.987   5.788  0.5311  0.6772  0.9567
30528SOL     OW94860   0.651   0.352   9.962  0.2834 -0.5326 -0.0691
30528SOL    HW194861   0.666   0.268   9.919 -0.2337 -1.1055  0.8292
30528SOL    HW294862   0.738   0.388   9.976  0.6032 -1.6435  0.9222
30529SOL     OW94863   9.310  10.958   4.965 -0.7265 -0.5593  0.3472
30529SOL    HW194864   9.220  10.927   4.955  0.1749 -2.7330 -2.6171
30529SOL    HW294865   9.343  10.911   5.042 -2.2844  0.9913  2.0617
30530SOL     OW94866   5.654   1.332   7.449  0.1973 -0.5639  0.1417
30530SOL    HW194867   5.601   1.364   7.375  2.7043 -0.5662 -1.7693
30530SOL    HW294868   5.673   1.411   7.500  0.6342 -0.0907 -0.7213
30531SOL     OW94869   5.226   1.079   0.271  0.6364 -0.0962  0.6935
30531SOL    HW194870   5.160   1.037   0.325 -0.3785 -0.4090 -0.7424
30531SOL    HW294871   5.213   1.043   0.183  1.0055  1.7634 -0.1800
30532SOL     OW94872   6.284   2.935   1.900  0.1250  0.5291 -0.1490
30532SOL    HW194873   6.326   3.014   1.864 -0.1146  0.5550 -0.3742
30532SOL    HW294874   6.222   2.908   1.832 -0.0964  0.3907  0.1081
30533SOL     OW94875   5.245   5.445   8.249 -0.1098 -0.2096 -0.1821
30533SOL    HW194876   5.274   5.369   8.300 -0.3084  0.8628  1.6006
30533SOL    HW294877   5.277   5.520   8.298 -0.0736  0.8910 -1.8191
30534SOL     OW94878   9.551  11.223  10.049 -0.1490  0.2031  0.9945
30534SOL    HW194879   9.524  11.310  10.077 -0.4648  0.0909  1.0375
30534SOL    HW294880   9.643  11.216  10.077  0.3672  1.1081 -0.3895
30535SOL     OW94881  11.338   4.307   2.545  0.1783  0.0263  0.3163
30535SOL    HW194882  11.365   4.395   2.517  2.1753 -0.2779  1.1209
30535SOL    HW294883  11.352   4.252   2.468 -3.2534  0.6891 -0.9603
30536SOL     OW94884   3.243   3.785   2.243  0.4685  0.7578 -0.4854
30536SOL    HW194885   3.290   3.762   2.323  0.1730  0.8692 -0.2732
30536SOL    HW294886   3.282   3.868   2.215  0.2750  0.9507 -0.2017
30537SOL     OW94887   5.055   5.580   1.217  0.2442  0.1663 -0.2046
30537SOL    HW194888   4.992   5.652   1.227  0.7669  0.3874  2.0500
30537SOL    HW294889   5.080   5.583   1.124 -2.1167  0.8292 -0.8974
30538SOL     OW94890   0.184   9.415  11.255 -0.5431  0.2683  0.3231
30538SOL    HW194891   0.272   9.381  11.271 -0.3449  0.3248 -0.6038
30538SOL    HW294892   0.156   9.373  11.174 -0.2498  2.3205 -0.9396
30539SOL     OW94893   4.924   0.318   7.480  0.5503 -0.5426  0.4556
30539SOL    HW194894   4.911   0.359   7.566  2.1550  1.2645 -0.1070
30539SOL    HW294895   4.964   0.233   7.501 -2.3103 -1.7540  1.6075
30540SOL     OW94896   0.741  10.240   5.231 -0.3092  0.1496 -0.0086
30540SOL    HW194897   0.674  10.282   5.285 -0.7908 -1.7604  0.9829
30540SOL    HW294898   0.768  10.163   5.281  1.4116 -0.0753 -1.1698
30541SOL     OW94899   7.396   4.600   0.493 -0.1625  0.1244  0.3731
30541SOL    HW194900   7.462   4.593   0.424  1.0503  1.9660  1.2947
30541SOL    HW294901   7.392   4.512   0.531  1.2892 -0.1888 -0.1372
30542SOL     OW94902  10.322   6.894   1.116  0.5907  0.4396  0.1198
30542SOL    HW194903  10.322   6.805   1.151 -0.0120  0.1200 -0.6663
30542SOL    HW294904  10.234   6.927   1.136  0.8599  0.9143  0.5382
30543SOL     OW94905   4.565   9.891   1.625 -0.0513  0.0729  0.1694
30543SOL    HW194906   4.519   9.898   1.709  0.5856  2.4087  0.3770
30543SOL    HW294907   4.522   9.955   1.568  0.4944 -0.4158 -0.8180
30544SOL     OW94908   1.209   3.846   9.463 -0.3080  0.0174  0.0982
30544SOL    HW194909   1.253   3.915   9.512 -0.7689  0.2731  0.1585
30544SOL    HW294910   1.267   3.829   9.388  0.7075 -0.8179  1.0482
30545SOL     OW94911   7.680   5.249   1.029  0.0151  0.0660 -0.3092
30545SOL    HW194912   7.661   5.161   0.997 -1.7126  0.2370  0.1144
30545SOL    HW294913   7.596   5.280   1.064  0.8043  1.5356  0.3721
30546SOL     OW94914  10.590   4.031   2.876 -0.1365 -0.2296  0.3007
30546SOL    HW194915  10.627   3.983   2.803 -0.6744 -1.1883  0.6361
30546SOL    HW294916  10.561   3.963   2.937 -0.9998  0.5124  0.7450
30547SOL     OW94917  10.111   1.970   6.018  0.0747 -0.0277 -0.1401
30547SOL    HW194918  10.040   1.991   6.078  0.5947  1.1286  0.0979
30547SOL    HW294919  10.190   1.972   6.072  0.3314 -1.0210 -0.4583
30548SOL     OW94920   7.955   0.867   9.210  0.5383 -0.1304 -0.1491
30548SOL    HW194921   7.875   0.817   9.192  0.3411  0.3590 -0.6961
30548SOL    HW294922   7.975   0.849   9.301  0.2712 -0.9175 -0.2364
30549SOL     OW94923   4.784   8.454   7.099 -0.2753  0.0091 -0.1676
30549SOL    HW194924   4.856   8.474   7.159 -0.6608  2.4079 -0.3980
30549SOL    HW294925   4.709   8.501   7.135 -1.3696 -1.1873 -0.7753
30550SOL     OW94926   6.587   7.159   7.787 -0.4862  0.2800  0.4423
30550SOL    HW194927   6.533   7.185   7.712 -1.4572 -1.1305  0.6165
30550SOL    HW294928   6.536   7.092   7.831  1.4034 -1.1299  0.6191
30551SOL     OW94929   5.297   4.821   2.499 -0.0821 -0.0279 -0.1285
30551SOL    HW194930   5.219   4.770   2.476 -0.3765  0.5837 -0.5138
30551SOL    HW294931   5.347   4.763   2.556 -0.8731 -0.3840  0.2228
30552SOL     OW94932   1.262   9.358   8.919  0.7311  0.1865  0.0013
30552SOL    HW194933   1.234   9.325   8.833 -0.7224  0.2312  0.4246
30552SOL    HW294934   1.243   9.451   8.916  1.3701  0.3247  0.1215
30553SOL     OW94935   8.286   9.500   9.878 -0.2086 -0.2667 -0.4277
30553SOL    HW194936   8.320   9.456   9.800  2.6572  0.8606  0.0656
30553SOL    HW294937   8.320   9.449   9.951 -0.3183  0.4220  0.1145
30554SOL     OW94938   0.990   1.823   5.877  0.1311 -0.2469 -0.1549
30554SOL    HW194939   1.027   1.906   5.908  0.2333  0.1943 -1.4034
30554SOL    HW294940   0.958   1.780   5.956 -1.1713  1.6151  0.3959
30555SOL     OW94941   9.679  10.594   8.674 -0.4615 -0.5808  0.9073
30555SOL    HW194942   9.754  10.575   8.731 -0.1957  0.5760  0.9775
30555SOL    HW294943   9.610  10.624   8.734  0.3325  2.1940  0.5715
30556SOL     OW94944   3.913   7.077   2.979 -0.9013  0.3581 -0.0873
30556SOL    HW194945   3.919   7.172   2.973 -0.3987  0.3482  0.1949
30556SOL    HW294946   3.866   7.061   3.060 -2.1002  0.3822 -0.7615
30557SOL     OW94947   6.976   6.143   8.153 -0.0619  0.4025 -0.3524
30557SOL    HW194948   6.948   6.186   8.072 -1.1710  0.3404 -0.0197
30557SOL    HW294949   6.896   6.106   8.189  0.5043  0.0123  0.5348
30558SOL     OW94950   3.556   9.398   6.172  0.0367 -0.3449  0.3769
30558SOL    HW194951   3.593   9.310   6.174  1.4237  0.2246  0.7301
30558SOL    HW294952   3.594   9.442   6.247 -0.5366  0.6065  0.1287
30559SOL     OW94953   0.980   3.531  11.170  0.1949  0.1843  0.2564
30559SOL    HW194954   0.918   3.602  11.152  0.6050  0.2358 -1.1048
30559SOL    HW294955   1.040   3.533  11.095  1.1049 -0.6505  0.9415
30560SOL     OW94956   2.755   2.160   0.177  0.2734  0.4397  0.3576
30560SOL    HW194957   2.783   2.202   0.258  0.0945  0.2125  0.5391
30560SOL    HW294958   2.833   2.116   0.144 -0.4036 -2.4734  2.2479
30561SOL     OW94959   4.322  10.397   8.084 -0.4526 -0.7310 -0.2950
30561SOL    HW194960   4.229  10.413   8.071 -0.2517 -0.0108 -0.8946
30561SOL    HW294961   4.332  10.389   8.179 -1.0549 -0.3768 -0.2011
30562SOL     OW94962   5.890   1.616   3.638 -0.2267  0.4870 -0.1656
30562SOL    HW194963   5.824   1.623   3.568 -1.1593  1.1831  0.7569
30562SOL    HW294964   5.876   1.694   3.691 -0.0597 -0.4153  1.2477
30563SOL     OW94965   1.256   9.490   0.499  0.1941  0.5920  0.2888
30563SOL    HW194966   1.184   9.546   0.469  0.9275  0.1389 -2.5254
30563SOL    HW294967   1.234   9.403   0.466  0.9955 -0.0108  1.2925
30564SOL     OW94968  10.361   7.553   3.119  0.0328  0.7086 -0.9061
30564SOL    HW194969  10.437   7.505   3.154 -1.0211 -0.8521 -0.6669
30564SOL    HW294970  10.342   7.619   3.186 -0.5726 -0.7911  0.4722
30565SOL     OW94971   6.575   7.241   6.450 -0.1830  0.4604 -0.3280
30565SOL    HW194972   6.658   7.256   6.404  0.0035 -0.2981 -0.2484
30565SOL    HW294973   6.508   7.253   6.382  0.0570 -0.0120 -0.6507
30566SOL     OW94974   5.598   5.837   0.499  0.3051 -0.4845  0.0105
30566SOL    HW194975   5.679   5.786   0.505  1.1838  0.4135 -2.7862
30566SOL    HW294976   5.618   5.920   0.543  1.2628  0.0727 -1.4081
30567SOL     OW94977   0.408   4.402   3.553 -0.1891 -0.0501 -0.2527
30567SOL    HW194978   0.417   4.327   3.495  1.6679  0.7616 -1.0770
30567SOL    HW294979   0.336   4.452   3.516  0.2125 -0.1415 -1.1905
30568SOL     OW94980   8.217   9.814   0.646  0.3339 -0.0961 -0.3324
30568SOL    HW194981   8.173   9.802   0.562 -1.2661  2.5577  0.0139
30568SOL    HW294982   8.310   9.799   0.626  0.1649  1.5616 -2.8657
30569SOL     OW94983   5.775   3.026   1.658  0.1267 -0.1795  0.3675
30569SOL    HW194984   5.834   3.002   1.586 -0.6180 -0.2970 -0.2229
30569SOL    HW294985   5.822   3.093   1.707  0.0219  1.0968 -1.1771
30570SOL     OW94986   8.467  11.369   8.815  0.5014  0.6234  0.1482
30570SOL    HW194987   8.540  11.337   8.763 -0.1341 -0.4635 -0.1306
30570SOL    HW294988   8.409  11.411   8.752  0.2220  0.2189  0.1270
30571SOL     OW94989   0.184   7.647  10.119 -0.4670 -0.1027  0.5947
30571SOL    HW194990   0.198   7.735  10.084 -3.4295 -0.0292 -0.6455
30571SOL    HW294991   0.116   7.657  10.186 -1.6002 -1.5362 -0.2671
30572SOL     OW94992   2.966   8.413   5.574 -0.0013 -0.1841 -0.3467
30572SOL    HW194993   2.934   8.380   5.658  0.2106 -0.0482 -0.2122
30572SOL    HW294994   3.032   8.478   5.597 -0.6778  0.6056 -0.6156
30573SOL     OW94995   5.330   4.580   6.167 -0.3324 -0.1718 -0.0189
30573SOL    HW194996   5.389   4.597   6.241 -0.0399 -1.3348  0.0297
30573SOL    HW294997   5.299   4.491   6.181 -3.7239  1.0361  1.0575
30574SOL     OW94998  10.669   6.853   3.851 -0.5687 -0.2942  0.1455
30574SOL    HW194999  10.755   6.836   3.812 -1.5320 -0.8119 -1.8418
30574SOL    HW295000  10.650   6.944   3.829 -0.5136 -0.1508  0.6683
30575SOL     OW95001   5.003   5.198   0.902 -0.4161  0.6338  0.6566
30575SOL    HW195002   4.958   5.137   0.960 -1.3375  0.0776 -0.5958
30575SOL    HW295003   4.948   5.202   0.824  1.4438  0.2885 -0.7557
30576SOL     OW95004  11.243   9.628   1.148 -0.1446 -0.2979  0.3879
30576SOL    HW195005  11.316   9.567   1.141 -0.3894 -0.4540 -1.0453
30576SOL    HW295006  11.284   9.712   1.167  0.4386 -0.3406 -0.6358
30577SOL     OW95007   9.092   7.635   6.495 -0.6526 -0.2690 -0.4743
30577SOL    HW195008   9.135   7.636   6.580 -2.4871 -0.7057  0.5007
30577SOL    HW295009   9.158   7.599   6.435  0.6530  0.0074  0.7348
30578SOL     OW95010   8.858  11.011   4.960 -0.2881 -0.0101  0.0279
30578SOL    HW195011   8.913  10.933   4.967 -2.3129 -1.4290  0.8850
30578SOL    HW295012   8.810  10.999   4.878  1.4478  1.8210 -1.3584
30579SOL     OW95013  10.471   8.490   5.155 -0.2357 -0.0242  0.1987
30579SOL    HW195014  10.423   8.554   5.208  1.2914  0.5351  0.9374
30579SOL    HW295015  10.552   8.535   5.131  1.0367 -1.7877  1.0118
30580SOL     OW95016   2.295  10.617  10.539  0.0877  0.1450  0.2773
30580SOL    HW195017   2.390  10.612  10.530  0.2845  1.8391  0.9016
30580SOL    HW295018   2.276  10.711  10.534 -1.5070 -0.1336  0.5905
30581SOL     OW95019   6.791   4.304   7.060 -0.1988  0.5713 -0.0655
30581SOL    HW195020   6.741   4.266   7.133 -1.1823  0.6797 -0.6634
30581SOL    HW295021   6.791   4.236   6.993 -1.8496  1.5152 -1.0891
30582SOL     OW95022   8.051   5.778   8.162 -0.3549  0.2491 -0.0343
30582SOL    HW195023   7.994   5.755   8.235 -1.9379  0.7655 -1.0557
30582SOL    HW295024   8.076   5.693   8.124  0.7240 -0.0373  1.2341
30583SOL     OW95025   2.709   8.088   7.371 -0.2857  0.1549  0.4588
30583SOL    HW195026   2.792   8.119   7.408  0.2839 -1.2780  0.4488
30583SOL    HW295027   2.705   7.996   7.394 -2.9456  0.6100  2.3172
30584SOL     OW95028   7.287   5.552   7.730 -0.7869  0.2167  0.3761
30584SOL    HW195029   7.198   5.535   7.759 -1.6428 -0.1131 -2.1569
30584SOL    HW295030   7.342   5.520   7.801 -2.5834 -3.3357  0.4236
30585SOL     OW95031   3.837   9.532   2.073  0.0232  0.1434 -0.4841
30585SOL    HW195032   3.768   9.492   2.020  0.6842 -1.0546 -0.4866
30585SOL    HW295033   3.912   9.473   2.063  0.1637 -0.1632  1.8148
30586SOL     OW95034   2.321   6.165  10.170  0.3929 -0.4818 -0.1716
30586SOL    HW195035   2.338   6.072  10.162 -0.1352 -0.5639 -0.4396
30586SOL    HW295036   2.407   6.206  10.164  0.4703 -0.8077 -2.4314
30587SOL     OW95037   9.753   4.794   9.039  0.1540  0.3857  0.0414
30587SOL    HW195038   9.732   4.855   8.968 -0.5889 -0.9113 -0.9079
30587SOL    HW295039   9.669   4.777   9.082  0.2635 -0.2723  0.0174
30588SOL     OW95040   9.012  11.110   7.533 -0.5765 -0.4147 -0.0492
30588SOL    HW195041   9.070  11.046   7.573 -1.1036 -1.6453 -1.1802
30588SOL    HW295042   8.967  11.152   7.606 -0.6417 -1.7436  0.6977
30589SOL     OW95043   3.657   1.608  11.350  0.2665  0.1590  0.7537
30589SOL    HW195044   3.682   1.669  11.420 -1.9451 -0.7705  2.4496
30589SOL    HW295045   3.635   1.527  11.395  1.0232 -1.2598 -1.2678
30590SOL     OW95046   3.249   8.017   2.519 -0.3957  0.0721 -0.4333
30590SOL    HW195047   3.318   8.061   2.569 -1.2143 -0.0341  0.8341
30590SOL    HW295048   3.266   7.924   2.531 -0.5781  0.0444 -0.3894
30591SOL     OW95049   0.873   7.372   9.386 -0.0767 -0.1573 -0.3662
30591SOL    HW195050   0.892   7.299   9.444 -0.8484 -0.8833 -1.0062
30591SOL    HW295051   0.779   7.367   9.371 -0.2594  1.3543  0.0861
30592SOL     OW95052   6.074   9.231  10.837 -0.1963  0.4404  0.0621
30592SOL    HW195053   6.139   9.179  10.789 -1.8187 -0.2938 -1.4245
30592SOL    HW295054   6.055   9.305  10.779 -1.4085  0.1182  0.0305
30593SOL     OW95055   6.817  10.292   3.796  0.4171  0.5697 -0.6546
30593SOL    HW195056   6.880  10.351   3.837  2.1564 -1.7701  0.2883
30593SOL    HW295057   6.849  10.281   3.707 -0.5089  1.7792 -1.1676
30594SOL     OW95058   5.130   0.878   6.879 -0.2148 -0.4074  0.2086
30594SOL    HW195059   5.067   0.949   6.885  0.9527  0.5923  1.4499
30594SOL    HW295060   5.102   0.826   6.804 -1.9871  0.4784  0.2113
30595SOL     OW95061   8.124   3.092  10.900 -0.8114 -0.1961 -0.0899
30595SOL    HW195062   8.092   3.146  10.973 -2.4535 -0.3042 -0.6968
30595SOL    HW295063   8.108   3.002  10.928  1.8831 -0.4703  0.8996
30596SOL     OW95064   7.732  10.375   7.090  0.5780 -0.2904  0.2890
30596SOL    HW195065   7.813  10.350   7.045  0.7887 -1.4250  1.2500
30596SOL    HW295066   7.681  10.294   7.094 -1.4338  0.7476 -1.8521
30597SOL     OW95067   2.435   3.942   5.368 -0.6813 -0.1148 -0.3406
30597SOL    HW195068   2.463   3.916   5.456 -0.1881 -1.8232 -0.9606
30597SOL    HW295069   2.352   3.896   5.354 -1.8220  1.7670 -0.0301
30598SOL     OW95070   9.978  10.644   5.611  0.4830 -0.1924 -0.3319
30598SOL    HW195071   9.967  10.554   5.579 -0.9217 -0.0315 -0.3415
30598SOL    HW295072   9.905  10.692   5.573 -1.5921 -0.0861  3.3777
30599SOL     OW95073  11.366   2.326   6.770  0.3020  0.6294  0.0245
30599SOL    HW195074  11.407   2.390   6.711 -2.1242  2.0774 -0.2696
30599SOL    HW295075  11.341   2.377   6.847 -0.5925 -0.2218  0.3266
30600SOL     OW95076   0.336   4.613   0.207 -0.4595  0.4010 -0.5718
30600SOL    HW195077   0.314   4.546   0.142 -0.2622 -0.1521 -0.0782
30600SOL    HW295078   0.406   4.665   0.166  1.2009 -1.2752  0.0132
30601SOL     OW95079   7.687   5.232   5.730  0.5031  0.3051  0.4284
30601SOL    HW195080   7.680   5.279   5.812  1.9338  0.4456  0.4991
30601SOL    HW295081   7.596   5.215   5.704  0.0120  1.2451  1.4480
30602SOL     OW95082   4.159  11.184   1.336  0.1902  0.1077  0.1204
30602SOL    HW195083   4.141  11.246   1.408  0.7237  0.0832  0.2833
30602SOL    HW295084   4.102  11.212   1.265 -0.3222  0.1549  0.5477
30603SOL     OW95085   2.414  10.737   1.278 -0.7753 -0.6269 -0.5936
30603SOL    HW195086   2.426  10.758   1.186 -0.4906 -0.5966 -0.5504
30603SOL    HW295087   2.468  10.801   1.325 -0.1751 -1.2353 -0.4463
30604SOL     OW95088   5.214   8.573   4.957  0.3495  0.3564  0.0843
30604SOL    HW195089   5.215   8.657   5.002  0.7785 -0.0422  0.8355
30604SOL    HW295090   5.216   8.508   5.027 -0.7893 -0.2944 -0.4560
30605SOL     OW95091   6.906   6.355   5.616  0.2260 -0.3790 -0.2797
30605SOL    HW195092   6.926   6.285   5.679 -1.6796 -0.0521  0.7566
30605SOL    HW295093   6.815   6.340   5.591 -0.1422  1.5629 -0.2492
30606SOL     OW95094   3.108   7.707   0.125 -0.1793 -0.3048 -0.0026
30606SOL    HW195095   3.092   7.615   0.108 -1.7458  0.1578 -1.3306
30606SOL    HW295096   3.163   7.736   0.053  1.6664 -0.5130  1.2683
30607SOL     OW95097   5.160  11.361   7.286  0.7664  0.4953  0.1224
30607SOL    HW195098   5.193  11.419   7.355 -1.4427  0.3115  1.4520
30607SOL    HW295099   5.160  11.274   7.326  0.5738  0.1913 -0.5236
30608SOL     OW95100   1.793   0.144   0.110  0.6100  0.5063 -0.0733
30608SOL    HW195101   1.797   0.195   0.192 -0.7261 -0.0818  0.3839
30608SOL    HW295102   1.761   0.058   0.137  1.3346 -0.0971 -1.0624
30609SOL     OW95103   6.823   9.391   3.010 -0.0883  0.1096 -0.6089
30609SOL    HW195104   6.815   9.296   3.005  0.8826 -0.0090 -0.1269
30609SOL    HW295105   6.852   9.417   2.923 -1.4781  0.1039 -1.0946
30610SOL     OW95106   3.272   3.572   8.974 -0.3896 -0.0498 -0.1674
30610SOL    HW195107   3.258   3.565   8.879 -0.3014  0.0037 -0.1841
30610SOL    HW295108   3.200   3.626   9.005 -1.8134 -2.0172  0.1545
30611SOL     OW95109   1.177   3.892   0.181  0.4904 -0.0498 -0.4943
30611SOL    HW195110   1.081   3.886   0.176  0.4927  0.9170 -2.8031
30611SOL    HW295111   1.192   3.973   0.230  0.1946 -0.8213  0.9511
30612SOL     OW95112   2.559   7.023   1.646  0.0990  0.2388  0.2020
30612SOL    HW195113   2.581   6.950   1.704 -2.7464 -2.9153 -2.2658
30612SOL    HW295114   2.507   7.082   1.701  0.1008 -1.0266  1.6341
30613SOL     OW95115   6.609   1.823   5.978 -0.5752  0.1905 -0.1950
30613SOL    HW195116   6.553   1.837   5.902 -1.9201  0.7623  0.8571
30613SOL    HW295117   6.589   1.735   6.008  0.1670 -0.1443 -0.6490
30614SOL     OW95118   0.669   7.056   6.092 -0.1834 -0.1209 -0.8726
30614SOL    HW195119   0.600   7.004   6.133  0.4019 -0.1007  0.1633
30614SOL    HW295120   0.641   7.147   6.104  0.6398 -0.0476  0.7450
30615SOL     OW95121   9.010   4.205   3.072  0.3018  0.2097 -0.2396
30615SOL    HW195122   9.002   4.295   3.101 -0.6915  0.2702 -0.6611
30615SOL    HW295123   9.008   4.210   2.976  1.6940 -0.1465 -0.3187
30616SOL     OW95124   7.031  11.276   9.339  0.0407  0.6308 -0.2684
30616SOL    HW195125   6.988  11.292   9.423  1.9156 -0.2308  0.9207
30616SOL    HW295126   7.023  11.182   9.326 -0.1601  0.7502 -1.0352
30617SOL     OW95127   6.613   3.494   0.398  0.2500 -0.5769 -0.4727
30617SOL    HW195128   6.587   3.586   0.404 -0.0178 -0.7556  2.5574
30617SOL    HW295129   6.688   3.494   0.338  0.6617  1.7078 -0.0542
30618SOL     OW95130   3.987   6.846   8.663 -0.1463  0.1067 -0.0744
30618SOL    HW195131   4.066   6.856   8.717 -0.6331  0.1912  0.6475
30618SOL    HW295132   4.016   6.862   8.574  1.1639 -2.2906 -0.1610
30619SOL     OW95133  10.317   1.825   5.290 -0.1217 -0.7185 -0.0883
30619SOL    HW195134  10.278   1.746   5.326  1.0115 -1.2901 -0.0686
30619SOL    HW295135  10.408   1.801   5.272 -0.0586  0.2387 -1.1604
30620SOL     OW95136   8.290  10.763  11.302 -0.8714  0.1398 -0.8537
30620SOL    HW195137   8.202  10.774  11.265 -2.2249  2.1161  2.5704
30620SOL    HW295138   8.276  10.716  11.384  1.4101 -0.0242 -0.4892
30621SOL     OW95139   2.068  10.537   9.144  0.5035 -0.2849 -0.0102
30621SOL    HW195140   2.137  10.527   9.078 -0.3679  0.6696 -1.0904
30621SOL    HW295141   2.061  10.631   9.157  1.0223 -0.4745  1.8647
30622SOL     OW95142   4.790   8.788  11.373  0.3771  0.1951  0.3480
30622SOL    HW195143   4.705   8.811  11.410  0.8142  0.8292  0.9918
30622SOL    HW295144   4.776   8.787  11.278 -0.5966 -0.7673  0.4818
30623SOL     OW95145   6.489   5.420   6.028  0.2329 -0.6753  0.7646
30623SOL    HW195146   6.581   5.407   6.052  0.8575  1.8860  0.0681
30623SOL    HW295147   6.491   5.429   5.932 -0.5918  0.3237  0.8278
30624SOL     OW95148  10.098   9.329   5.761  0.2710  0.1310  0.1447
30624SOL    HW195149  10.137   9.415   5.745  0.6226 -0.0853 -0.1886
30624SOL    HW295150  10.053   9.308   5.679 -1.9052  1.0676  1.0411
30625SOL     OW95151   1.598   9.094  10.847 -0.4148  0.4356  0.4360
30625SOL    HW195152   1.627   9.154  10.915 -0.5783  1.5398 -0.4459
30625SOL    HW295153   1.653   9.016  10.858  0.3139  1.0342  1.1209
30626SOL     OW95154   8.362   6.136   5.782  0.0809 -0.1545 -0.4434
30626SOL    HW195155   8.310   6.147   5.861  1.1463  1.1447  0.1174
30626SOL    HW295156   8.396   6.047   5.787  0.7797  0.1608  0.9838
30627SOL     OW95157   2.020   3.120   1.258 -0.4115 -0.3582 -0.0902
30627SOL    HW195158   1.926   3.110   1.270 -0.8337  3.1945  0.5754
30627SOL    HW295159   2.058   3.106   1.344 -0.6214  0.5356  0.1534
30628SOL     OW95160  10.999   3.975   1.704  0.1708  0.1054  0.0354
30628SOL    HW195161  11.023   3.924   1.782 -0.7628 -1.2542 -0.5247
30628SOL    HW295162  11.072   3.961   1.643 -0.9360 -2.3161 -0.8766
30629SOL     OW95163   2.949   4.822   2.874  0.6134 -0.2933  0.5050
30629SOL    HW195164   2.863   4.790   2.845  0.4179 -1.9582  2.6793
30629SOL    HW295165   3.012   4.765   2.829  0.7176  1.4134 -1.6914
30630SOL     OW95166   9.743   4.751   3.413 -0.3574  0.4035  0.2063
30630SOL    HW195167   9.716   4.706   3.493  0.1770  0.6702  0.5452
30630SOL    HW295168   9.813   4.810   3.441  0.4710 -0.1623 -0.6154
30631SOL     OW95169   3.313   6.853   8.948 -0.0287 -0.0408  0.3340
30631SOL    HW195170   3.379   6.784   8.941 -0.7454 -0.7099  0.0204
30631SOL    HW295171   3.355   6.930   8.909  0.7639 -0.3067  0.6495
30632SOL     OW95172   3.307   3.851   6.016 -0.2152 -0.0488 -0.0972
30632SOL    HW195173   3.355   3.778   6.056  2.1768  0.8532 -1.1086
30632SOL    HW295174   3.323   3.840   5.922  0.6018  2.0002 -0.2339
30633SOL     OW95175  10.977   3.831   7.473  0.0963 -0.2863 -0.9930
30633SOL    HW195176  10.982   3.749   7.425 -0.9629 -1.0011  0.0550
30633SOL    HW295177  10.885   3.856   7.468  0.2431  0.3811 -0.5486
30634SOL     OW95178  10.782   7.649  11.296 -0.4553  0.5686 -0.6518
30634SOL    HW195179  10.851   7.704  11.333 -0.5129  1.8021 -2.2971
30634SOL    HW295180  10.827   7.588  11.238 -0.6989  1.2616 -1.5932
30635SOL     OW95181   1.988  10.563   7.179 -0.0589 -0.6860 -0.3026
30635SOL    HW195182   1.915  10.506   7.204  1.4455 -2.4553  0.2963
30635SOL    HW295183   2.045  10.564   7.255  1.4592 -0.9129 -1.3887
30636SOL     OW95184   6.916   5.087   6.387 -0.3068 -0.1047 -0.1540
30636SOL    HW195185   6.964   5.169   6.401 -1.6775  0.5990  0.6326
30636SOL    HW295186   6.863   5.077   6.466  1.9678 -3.3297  1.1739
30637SOL     OW95187   7.755  10.589   5.055 -0.2606 -0.0496  0.3903
30637SOL    HW195188   7.778  10.497   5.066 -1.5933 -0.5692 -0.8458
30637SOL    HW295189   7.810  10.619   4.982 -0.8206 -0.2684 -0.1295
30638SOL     OW95190   6.226   2.304   4.699  0.1279  0.5444  0.0307
30638SOL    HW195191   6.163   2.364   4.739  0.0840 -0.2642  1.2410
30638SOL    HW295192   6.311   2.333   4.733  0.2272  0.5983 -0.2606
30639SOL     OW95193   8.464   1.396  10.637  0.1210  0.3713 -0.7969
30639SOL    HW195194   8.438   1.480  10.599 -1.7691 -0.5653 -1.7405
30639SOL    HW295195   8.556   1.386  10.614  0.2165  1.9098 -1.1727
30640SOL     OW95196  10.377   3.339   9.299 -0.5831  0.0455 -0.2220
30640SOL    HW195197  10.451   3.355   9.357  0.1934 -0.2286 -1.1180
30640SOL    HW295198  10.353   3.248   9.314  0.8072 -0.5971 -1.6206
30641SOL     OW95199   1.006   6.306   0.095  0.0942  0.1825  0.1029
30641SOL    HW195200   1.070   6.247   0.055  0.0071  0.2409 -0.1205
30641SOL    HW295201   1.040   6.322   0.183  0.3264  0.1199  0.0244
30642SOL     OW95202  11.335   4.192   2.896 -0.0465 -0.1761 -0.8282
30642SOL    HW195203  11.251   4.198   2.851 -0.6283  0.1982  0.2878
30642SOL    HW295204  11.315   4.209   2.988  1.1464 -0.7620 -0.4408
30643SOL     OW95205  11.320   0.205   7.696  0.6299  0.2339  0.0682
30643SOL    HW195206  11.260   0.280   7.696 -0.9902 -1.0134 -0.5611
30643SOL    HW295207  11.321   0.175   7.787 -1.0362 -0.7425 -0.2139
30644SOL     OW95208   4.406   8.508   0.587 -0.2527  0.5317  0.3990
30644SOL    HW195209   4.310   8.513   0.579 -0.1350  1.0652 -0.8279
30644SOL    HW295210   4.421   8.510   0.682 -1.4521  0.4596  0.6184
30645SOL     OW95211   9.784   7.471   7.818 -0.5607  0.3888 -0.4316
30645SOL    HW195212   9.701   7.488   7.774 -1.4100  1.2898  1.3791
30645SOL    HW295213   9.763   7.476   7.911  1.2768 -0.6886  0.0947
30646SOL     OW95214   1.271   4.155   4.250 -0.9068  0.5393  0.6663
30646SOL    HW195215   1.358   4.165   4.212 -0.3208  0.7317  2.0052
30646SOL    HW295216   1.211   4.163   4.176  0.2231  0.1184 -0.3156
30647SOL     OW95217   9.487   7.780   0.513  0.4677 -0.0964  0.4272
30647SOL    HW195218   9.417   7.758   0.451 -1.3342 -1.3768  2.7300
30647SOL    HW295219   9.530   7.855   0.474 -1.4452  0.0323 -1.6966
30648SOL     OW95220   0.488   4.397   1.153 -0.0516 -0.3590 -0.2407
30648SOL    HW195221   0.487   4.412   1.248 -1.0502  2.5374 -0.6083
30648SOL    HW295222   0.396   4.406   1.127  0.5132  1.8832 -1.7765
30649SOL     OW95223  11.338   0.832  11.300 -0.3538 -0.1770 -0.2715
30649SOL    HW195224  11.395   0.873  11.365  1.1202 -2.5479  0.0195
30649SOL    HW295225  11.296   0.760  11.347 -1.0127 -0.5255 -1.3635
30650SOL     OW95226   1.585   4.831   5.643 -0.1704 -0.4689 -0.2199
30650SOL    HW195227   1.552   4.868   5.561  0.3126 -0.7125 -0.5290
30650SOL    HW295228   1.671   4.795   5.620 -0.3266 -1.1421  0.2348
30651SOL     OW95229   0.295   3.507   7.602  0.6240 -0.0594 -0.4110
30651SOL    HW195230   0.337   3.429   7.637  0.6195  0.6842  1.3549
30651SOL    HW295231   0.281   3.563   7.678 -0.5460  1.1234 -1.4399
30652SOL     OW95232   0.638   1.589   6.439  0.5722  0.2014  0.2838
30652SOL    HW195233   0.636   1.685   6.447  0.5870  0.3286 -0.9608
30652SOL    HW295234   0.721   1.571   6.395  0.2323 -0.3250 -0.1476
30653SOL     OW95235  10.712   6.386   7.610 -0.0512 -0.0908 -0.0699
30653SOL    HW195236  10.744   6.307   7.565  1.2152  1.3461 -1.8241
30653SOL    HW295237  10.789   6.419   7.655 -0.0595  1.1680 -0.9380
30654SOL     OW95238   5.587   6.560   9.694 -0.1456  0.3412 -0.4222
30654SOL    HW195239   5.508   6.596   9.736 -0.4603 -1.1722  0.3441
30654SOL    HW295240   5.557   6.480   9.652  0.6286  0.7056 -1.7390
30655SOL     OW95241   6.026   3.512   6.431 -0.1208  0.0756 -0.4251
30655SOL    HW195242   5.934   3.534   6.439 -0.1475  0.0955 -0.7568
30655SOL    HW295243   6.030   3.418   6.449 -0.2625 -0.0020 -0.7750
30656SOL     OW95244   6.901   1.944   5.016  0.2501  0.1243 -0.3313
30656SOL    HW195245   6.827   1.886   4.997 -0.1960  0.3171  0.7342
30656SOL    HW295246   6.863   2.015   5.066  0.9242  0.9769 -0.9985
30657SOL     OW95247  10.328   9.217   2.982  0.2548 -0.4040  0.2673
30657SOL    HW195248  10.365   9.272   2.914  1.2210 -1.0234  0.2858
30657SOL    HW295249  10.234   9.235   2.978  0.4892  0.9138 -0.0146
30658SOL     OW95250   8.647   6.050   5.548  0.6278 -0.1622  0.4200
30658SOL    HW195251   8.602   6.013   5.624  0.2521  0.3638  0.4642
30658SOL    HW295252   8.581   6.053   5.480  0.6661  0.3566  0.3991
30659SOL     OW95253   5.093   9.168   4.512 -0.4896  0.2517 -0.0896
30659SOL    HW195254   5.001   9.166   4.486 -0.8703  0.5367  1.1625
30659SOL    HW295255   5.137   9.213   4.441 -1.2199 -0.4154 -0.9846
30660SOL     OW95256   2.935   3.073   2.158  0.2937  0.2271 -0.4047
30660SOL    HW195257   2.965   3.033   2.240 -1.0009 -1.0289 -0.5046
30660SOL    HW295258   2.852   3.030   2.139 -0.1532  1.5469 -1.6279
30661SOL     OW95259   2.220   2.560   7.907 -0.3668  0.3432 -0.1512
30661SOL    HW195260   2.288   2.517   7.855  0.4882  0.5396  0.7746
30661SOL    HW295261   2.262   2.639   7.940 -1.2210  0.7409  0.0080
30662SOL     OW95262   1.545   7.776   9.219 -0.5361  0.0705  0.0953
30662SOL    HW195263   1.478   7.708   9.207 -0.2839 -0.1183 -0.2790
30662SOL    HW295264   1.605   7.763   9.145 -0.5218  0.7440 -0.0156
30663SOL     OW95265   2.076   1.439   8.698 -0.0472  0.1781  0.0883
30663SOL    HW195266   2.122   1.470   8.776 -0.3119  0.1407  0.2604
30663SOL    HW295267   1.985   1.465   8.712  0.0228  0.7486 -0.5134
30664SOL     OW95268   2.791   5.483   2.201  0.3026 -0.1704  0.2775
30664SOL    HW195269   2.771   5.414   2.139  0.9123  0.3128 -0.4778
30664SOL    HW295270   2.831   5.552   2.148 -0.4657  0.8443  0.9826
30665SOL     OW95271  10.798   4.230   4.392 -0.6629  0.4858  0.2060
30665SOL    HW195272  10.793   4.317   4.353 -0.9698  0.4854  0.2385
30665SOL    HW295273  10.707   4.199   4.394 -0.3731 -0.6094 -1.5475
30666SOL     OW95274   1.223   4.868  10.286 -0.4556 -0.0466 -0.0216
30666SOL    HW195275   1.165   4.879  10.361  0.3062  0.1488  0.5619
30666SOL    HW295276   1.302   4.827  10.322 -0.4045 -0.7394 -0.8768
30667SOL     OW95277  10.598   9.186   5.311 -0.5631 -0.0941  0.5211
30667SOL    HW195278  10.541   9.247   5.265  0.5103 -0.6596 -1.7535
30667SOL    HW295279  10.559   9.100   5.294 -0.0349 -0.3301  0.4816
30668SOL     OW95280   4.561   9.194   3.273 -0.1293 -0.2114  0.2986
30668SOL    HW195281   4.625   9.152   3.331 -0.0542 -2.7280 -1.4542
30668SOL    HW295282   4.609   9.208   3.191 -1.6351 -1.7481 -0.9057
30669SOL     OW95283   4.428   0.921   7.873  0.1588  0.4331  0.4136
30669SOL    HW195284   4.413   0.901   7.966 -1.2261 -0.4801  0.0289
30669SOL    HW295285   4.500   0.863   7.848  1.8530  2.0566  1.3568
30670SOL     OW95286   1.505   4.994   9.599 -0.1568 -0.0406 -0.1104
30670SOL    HW195287   1.466   5.014   9.513  1.9816 -0.3694 -1.2375
30670SOL    HW295288   1.480   4.903   9.615  0.8261 -0.5389 -1.2410
30671SOL     OW95289   6.363   5.849   4.064 -0.7296  0.0570  0.4447
30671SOL    HW195290   6.444   5.798   4.064 -0.7805 -0.0262  0.9274
30671SOL    HW295291   6.293   5.784   4.062 -0.7878  0.1360 -0.6451
30672SOL     OW95292   3.946   5.169   4.605 -0.1067 -0.0131  0.3640
30672SOL    HW195293   3.982   5.213   4.528  0.4219 -0.1632  0.5201
30672SOL    HW295294   3.865   5.129   4.574  0.0149  0.0694 -0.0706
30673SOL     OW95295   6.262  11.073   0.716 -0.6176  0.5405  0.1718
30673SOL    HW195296   6.180  11.066   0.765  0.3003 -0.3945  1.6633
30673SOL    HW295297   6.301  11.154   0.748 -0.3678  0.3190  0.4328
30674SOL     OW95298   9.647  10.593   1.204  0.2930 -0.1402  0.2113
30674SOL    HW195299   9.556  10.617   1.188  0.3584  0.2927  0.4728
30674SOL    HW295300   9.662  10.517   1.148  0.3016  0.8940 -1.2370
30675SOL     OW95301   3.130  10.308   8.846  0.8255  0.2843 -0.2011
30675SOL    HW195302   3.054  10.366   8.849  0.8500  0.3040  0.0214
30675SOL    HW295303   3.205  10.367   8.838  0.8617  0.2902  0.1755
30676SOL     OW95304   1.940  10.698   9.747 -0.1856  0.5962 -0.8773
30676SOL    HW195305   1.872  10.640   9.780  0.2356  0.4861 -0.1821
30676SOL    HW295306   1.955  10.669   9.657  0.0883 -0.4430 -0.5024
30677SOL     OW95307   2.103   1.743   2.868 -0.1272  0.3234  0.3268
30677SOL    HW195308   2.116   1.660   2.822 -1.4965  0.7624 -0.9210
30677SOL    HW295309   2.146   1.808   2.813  0.4590  0.5264  1.0131
30678SOL     OW95310   6.891   8.694   3.674  0.6944  0.9584  0.1269
30678SOL    HW195311   6.818   8.656   3.724  0.4797 -0.0077 -0.8775
30678SOL    HW295312   6.850   8.740   3.602  1.0676 -0.6439 -1.1681
30679SOL     OW95313   2.215   7.662   9.867  0.0516 -0.3231 -0.1729
30679SOL    HW195314   2.293   7.612   9.847 -0.3307 -0.2350 -2.1558
30679SOL    HW295315   2.217   7.736   9.806 -1.8809 -0.6779 -0.7463
30680SOL     OW95316  10.526   0.963   8.623  0.5073 -0.5457  0.2528
30680SOL    HW195317  10.614   0.948   8.588  0.7685  0.2992  0.5235
30680SOL    HW295318  10.533   0.938   8.716  0.7384  0.4758  0.5173
30681SOL     OW95319   5.493  10.562   5.549  0.2095 -0.0831  0.4930
30681SOL    HW195320   5.557  10.619   5.593  0.3980  0.2248 -0.1697
30681SOL    HW295321   5.409  10.607   5.560  0.2092 -0.1510  0.7822
30682SOL     OW95322  10.505   3.518   2.749 -0.1509 -0.2196  0.0173
30682SOL    HW195323  10.449   3.548   2.820  1.7869 -1.5986  2.2859
30682SOL    HW295324  10.537   3.432   2.778  0.6852 -0.8833 -2.5809
30683SOL     OW95325   6.775   4.823  10.866  0.6249 -0.1588  0.1538
30683SOL    HW195326   6.738   4.878  10.935 -0.0688 -0.9518  0.4254
30683SOL    HW295327   6.702   4.768  10.837  1.6302 -1.9835  0.9240
30684SOL     OW95328   6.331   4.046   5.799  0.6224  0.2720  0.2195
30684SOL    HW195329   6.312   3.953   5.809 -0.2350  0.4610  0.4540
30684SOL    HW295330   6.337   4.060   5.704  1.0814 -0.0779  0.1950
30685SOL     OW95331   6.511   8.560   0.751  0.3763 -0.1775 -0.2937
30685SOL    HW195332   6.565   8.492   0.712  1.6757 -0.1783  1.3697
30685SOL    HW295333   6.513   8.632   0.688  0.2813 -1.0925 -1.3593
30686SOL     OW95334   1.715   2.232   5.992 -0.4103 -0.0718  0.4995
30686SOL    HW195335   1.772   2.175   6.044 -0.6203 -0.7925 -0.0497
30686SOL    HW295336   1.773   2.268   5.925 -0.1898  0.6889  1.0678
30687SOL     OW95337   1.586   4.948   6.290  0.3414 -0.7355  0.2905
30687SOL    HW195338   1.528   4.998   6.233  0.9538 -1.4603 -1.0302
30687SOL    HW295339   1.552   4.858   6.285 -0.1610 -0.6527  1.8466
30688SOL     OW95340   4.940   0.523   6.783 -0.1561 -0.0356 -0.0244
30688SOL    HW195341   4.993   0.474   6.846 -0.3522  1.1073  1.0784
30688SOL    HW295342   4.917   0.604   6.829  0.6707  1.3871 -1.9786
30689SOL     OW95343   5.396   2.925   1.069  0.3415 -0.1462 -0.1732
30689SOL    HW195344   5.417   2.991   1.135  0.5069 -0.7175  0.3512
30689SOL    HW295345   5.415   2.968   0.985 -1.4907  1.2138  0.0235
30690SOL     OW95346   8.246   2.987   7.251 -0.3611  0.2487  0.6127
30690SOL    HW195347   8.156   3.014   7.268 -0.2925 -0.1384  1.6648
30690SOL    HW295348   8.290   3.067   7.221 -1.5438 -0.0113 -2.0844
30691SOL     OW95349   5.276  10.077   0.269 -0.0811 -0.2526 -0.5374
30691SOL    HW195350   5.223  10.152   0.241 -0.1533 -0.3807 -0.7420
30691SOL    HW295351   5.333  10.113   0.337 -0.5153 -0.1439 -0.2288
30692SOL     OW95352   5.576   1.605   5.565  0.2365  0.0708  0.4518
30692SOL    HW195353   5.608   1.692   5.590  0.4262  0.1716 -0.1168
30692SOL    HW295354   5.482   1.619   5.548  0.4207  0.3400 -0.3910
30693SOL     OW95355   7.691   8.317  11.163  0.2173 -0.0323 -0.0111
30693SOL    HW195356   7.692   8.409  11.138  0.5329  0.1503  0.6425
30693SOL    HW295357   7.618   8.310  11.226 -0.3087 -0.3949 -0.6459
30694SOL     OW95358   3.081  10.187   5.106  0.2370 -0.1444  0.1783
30694SOL    HW195359   3.134  10.119   5.147  0.0721  1.2919  3.0175
30694SOL    HW295360   3.113  10.192   5.016  2.4490 -1.7536  0.7991
30695SOL     OW95361   9.628   0.842  10.367  0.4344 -0.4363 -0.5053
30695SOL    HW195362   9.667   0.927  10.384 -0.8755  0.6829 -2.6531
30695SOL    HW295363   9.556   0.835  10.429  1.1702 -0.4708  0.3667
30696SOL     OW95364   0.639  11.073   4.398 -0.1464  0.2413  0.3573
30696SOL    HW195365   0.632  11.069   4.494 -2.7606 -2.0371  0.1661
30696SOL    HW295366   0.724  11.033   4.379 -0.3400 -0.8421  1.6499
30697SOL     OW95367   5.182   4.052   7.586  0.3643  0.0303  0.6364
30697SOL    HW195368   5.131   3.994   7.643  1.0634  0.3994  1.6790
30697SOL    HW295369   5.205   4.127   7.643 -0.2647  1.1885 -0.5867
30698SOL     OW95370   1.748   5.802   1.830  0.2800  0.2132 -0.2880
30698SOL    HW195371   1.842   5.805   1.850  0.3986  0.0936 -0.8241
30698SOL    HW295372   1.705   5.819   1.914  0.7875  1.2427 -0.2242
30699SOL     OW95373   3.702   9.892   1.852 -0.1112 -0.3331  0.6191
30699SOL    HW195374   3.643   9.963   1.879 -0.9302 -0.4899 -0.6795
30699SOL    HW295375   3.645   9.830   1.807  1.0472 -0.5245 -0.6273
30700SOL     OW95376   1.215   3.296   9.190  0.1462  0.1216  0.4131
30700SOL    HW195377   1.251   3.378   9.224  1.3967  0.1919 -0.9941
30700SOL    HW295378   1.129   3.320   9.155  0.1928  0.6806  0.6730
30701SOL     OW95379   9.359   9.727  10.956  0.3572  0.4451  1.0915
30701SOL    HW195380   9.334   9.742  11.048  1.5344  0.4767  1.4236
30701SOL    HW295381   9.292   9.667  10.923  0.3607 -0.2059  2.2116
30702SOL     OW95382   9.190   6.660   6.623 -0.2623 -0.3064  0.2867
30702SOL    HW195383   9.203   6.740   6.571 -0.4716 -0.3132  0.2193
30702SOL    HW295384   9.248   6.670   6.698 -0.3394 -0.0587  0.3142
30703SOL     OW95385   4.762   1.682  10.909 -0.1773  0.0858  0.2607
30703SOL    HW195386   4.807   1.708  10.828  1.2042  0.8655  1.2273
30703SOL    HW295387   4.701   1.613  10.882  1.0213 -0.4354 -1.2639
30704SOL     OW95388   5.743   1.492   7.028  0.1996  0.2326 -0.2023
30704SOL    HW195389   5.718   1.424   6.966 -0.7889 -0.4861  0.9307
30704SOL    HW295390   5.795   1.446   7.094 -1.4755  0.2723  1.2258
30705SOL     OW95391   0.575   7.287   4.575  0.1013 -0.3075 -0.1287
30705SOL    HW195392   0.561   7.329   4.660 -1.3733 -0.1997 -0.3907
30705SOL    HW295393   0.494   7.237   4.560  0.1043  0.1274 -1.7187
30706SOL     OW95394  10.852   4.326   6.378  0.1657 -0.4905  0.5453
30706SOL    HW195395  10.874   4.409   6.422 -0.4933  0.0356 -0.0833
30706SOL    HW295396  10.794   4.281   6.438 -2.5383  1.2096 -0.6032
30707SOL     OW95397  11.099   0.616   7.915 -0.0730  0.0396  0.2488
30707SOL    HW195398  11.007   0.642   7.906 -0.9505 -2.4372  1.1455
30707SOL    HW295399  11.112   0.550   7.846  1.3752  1.1287 -0.5552
30708SOL     OW95400  10.184   0.155   7.509 -0.1873 -0.1611 -0.1826
30708SOL    HW195401  10.195   0.172   7.415  0.9431  0.3424  0.0290
30708SOL    HW295402  10.266   0.113   7.535 -1.9623 -4.0421 -0.2039
30709SOL     OW95403   3.406   1.986   2.694  0.1411  0.1131  0.4653
30709SOL    HW195404   3.311   1.980   2.708 -0.1417  1.9376 -0.3355
30709SOL    HW295405   3.442   2.008   2.780 -0.3332  0.7122  0.5192
30710SOL     OW95406   0.474   1.492   0.373  0.2205  0.2641  0.0790
30710SOL    HW195407   0.421   1.495   0.293  1.7296  1.9240 -0.9711
30710SOL    HW295408   0.443   1.416   0.420 -0.7638 -0.7800 -2.0944
30711SOL     OW95409  10.411   7.878   7.162  0.5588  0.1274  0.2927
30711SOL    HW195410  10.440   7.939   7.230 -0.9241  1.3648 -0.1225
30711SOL    HW295411  10.452   7.911   7.082  0.1787  0.2716  0.1557
30712SOL     OW95412  11.018   5.533   1.974  0.2172  0.2681  0.2061
30712SOL    HW195413  11.015   5.618   2.019  0.2198  1.0451 -1.2141
30712SOL    HW295414  11.059   5.474   2.037  2.3025  1.8452  0.4215
30713SOL     OW95415   3.772  11.304  10.410 -0.1537 -0.5519  0.0776
30713SOL    HW195416   3.848  11.254  10.440 -0.5171 -1.7442 -0.8918
30713SOL    HW295417   3.799  11.339  10.325 -0.7240 -1.1614 -0.3727
30714SOL     OW95418   6.174   6.714   8.252  0.0561  0.2141  0.3765
30714SOL    HW195419   6.100   6.774   8.238 -0.3578 -0.4371 -0.3055
30714SOL    HW295420   6.135   6.627   8.250  0.6799 -0.0988  1.1731
30715SOL     OW95421   2.411   7.774   1.076 -0.1177 -0.2602  0.6331
30715SOL    HW195422   2.410   7.684   1.108  1.9196 -0.9540 -0.9849
30715SOL    HW295423   2.485   7.815   1.121 -1.0232  0.6356  1.3469
30716SOL     OW95424   8.860   6.366   7.407  0.5399  0.1581  0.4726
30716SOL    HW195425   8.811   6.300   7.359  0.2507  0.1818  0.7348
30716SOL    HW295426   8.860   6.335   7.498  0.7165  0.3302  0.5332
30717SOL     OW95427   0.207   3.149   2.018  0.2110 -0.4440  0.0458
30717SOL    HW195428   0.183   3.060   1.992  0.7440 -1.1713  1.8818
30717SOL    HW295429   0.163   3.162   2.102  2.0619  0.1206  0.9599
30718SOL     OW95430   9.581   8.184   7.484  0.0581  0.6114  0.0707
30718SOL    HW195431   9.546   8.264   7.445 -1.4607  0.7933  1.6871
30718SOL    HW295432   9.547   8.184   7.573 -0.0266 -1.8765  0.1019
30719SOL     OW95433   7.170   5.294   1.274  0.2579  0.6321 -0.5976
30719SOL    HW195434   7.092   5.309   1.221  0.1646 -0.1691 -0.7007
30719SOL    HW295435   7.173   5.369   1.334 -0.7973  0.4849 -0.3429
30720SOL     OW95436   4.389   0.072   8.266  0.0975  0.1159 -0.1644
30720SOL    HW195437   4.425   0.001   8.213 -0.2183 -1.5164  1.6970
30720SOL    HW295438   4.294   0.063   8.257  0.0393 -0.2771  0.7740
30721SOL     OW95439   5.867   5.960  10.293  0.8581  0.2685 -0.6378
30721SOL    HW195440   5.826   5.892  10.345  0.3193  0.5958 -0.6274
30721SOL    HW295441   5.824   5.954  10.207 -2.3595  3.3234  0.5323
30722SOL     OW95442   9.977   2.323   8.123  0.0498 -0.2086 -0.2984
30722SOL    HW195443   9.991   2.380   8.199 -1.6529 -1.9700  1.4393
30722SOL    HW295444  10.013   2.373   8.050  1.8598  1.5368  1.6384
30723SOL     OW95445   4.166  10.678   2.337  0.4765  0.5618  0.5225
30723SOL    HW195446   4.136  10.753   2.286  0.6175  0.7204  0.6742
30723SOL    HW295447   4.205  10.620   2.271 -1.3704 -0.2812  0.1201
30724SOL     OW95448  11.171   0.893   0.421 -0.1754  0.2321 -0.0171
30724SOL    HW195449  11.132   0.978   0.403 -0.3803  0.1327 -0.0505
30724SOL    HW295450  11.261   0.912   0.447  0.0571  0.3989 -0.9122
30725SOL     OW95451   3.655   1.859   9.603  0.2633 -0.4422 -0.4712
30725SOL    HW195452   3.651   1.951   9.576  1.4664  0.0390  0.8895
30725SOL    HW295453   3.698   1.861   9.688  2.1395 -2.4473 -1.2810
30726SOL     OW95454   8.617   6.995   5.543  0.6760  0.0517 -0.1582
30726SOL    HW195455   8.704   6.958   5.557  0.3222 -1.1277 -0.9307
30726SOL    HW295456   8.621   7.034   5.455  0.7958  1.1679  0.3215
30727SOL     OW95457   0.371   8.915   3.246 -0.1285 -0.1603 -0.1137
30727SOL    HW195458   0.366   8.957   3.160  0.6918 -0.9085 -0.5433
30727SOL    HW295459   0.296   8.856   3.248 -0.6637  0.5112  0.0589
30728SOL     OW95460   5.074   7.188   8.527 -0.1864  0.0923  0.1202
30728SOL    HW195461   4.986   7.225   8.531 -0.4236 -0.4833  0.4019
30728SOL    HW295462   5.132   7.259   8.555 -0.5127  0.6210 -0.5273
30729SOL     OW95463   7.784  10.635   0.020  0.3151 -0.4785 -0.0892
30729SOL    HW195464   7.856  10.689  -0.011 -0.5850  0.7005 -0.1754
30729SOL    HW295465   7.812  10.606   0.107  0.7358  0.2818  0.0369
30730SOL     OW95466   1.666   7.940   1.103 -0.0268  0.3816 -0.1186
30730SOL    HW195467   1.739   7.898   1.059 -1.2955 -1.4789 -0.5455
30730SOL    HW295468   1.631   8.001   1.038  0.1296  0.0743 -0.4936
30731SOL     OW95469   9.082   8.116   7.676  0.2056 -0.0777  0.2818
30731SOL    HW195470   9.105   8.128   7.768 -0.4105  0.0961  0.4159
30731SOL    HW295471   8.995   8.155   7.667  0.6020  0.6563 -0.5645
30732SOL     OW95472   8.770   8.915   8.281  0.1131  0.4950  0.3751
30732SOL    HW195473   8.770   8.931   8.375  0.6307 -0.1306  0.4867
30732SOL    HW295474   8.685   8.873   8.264 -0.2296  1.1361  0.4590
30733SOL     OW95475   9.905  10.747   5.332 -0.2557 -0.0886 -0.3225
30733SOL    HW195476   9.822  10.760   5.286 -0.1218  0.5321 -0.4034
30733SOL    HW295477   9.896  10.799   5.413 -1.0730 -2.3432  1.1254
30734SOL     OW95478   2.513   8.279   3.703 -0.5161 -0.3876 -0.3564
30734SOL    HW195479   2.424   8.255   3.677 -0.4033 -0.3831 -0.7515
30734SOL    HW295480   2.567   8.257   3.627  0.0006 -1.5157  0.3145
30735SOL     OW95481   0.585   1.953   8.547 -0.1527 -0.3238 -0.0004
30735SOL    HW195482   0.642   2.023   8.516 -0.8667  0.8183  1.1552
30735SOL    HW295483   0.630   1.872   8.523  1.7020  0.5407  0.4361
30736SOL     OW95484   0.091  11.214   6.187  0.3302 -0.0105  0.1636
30736SOL    HW195485   0.036  11.240   6.261  1.6007 -2.4237  2.1159
30736SOL    HW295486   0.179  11.208   6.223  0.9202 -1.7219 -1.3862
30737SOL     OW95487   9.510   9.667  10.094  0.2108 -0.0300  0.1484
30737SOL    HW195488   9.481   9.758  10.091 -0.8988 -0.3574  0.5074
30737SOL    HW295489   9.477   9.633  10.177 -0.2959 -1.0448 -0.4412
30738SOL     OW95490   0.805   0.275   8.239 -0.1099  0.6535 -0.0183
30738SOL    HW195491   0.760   0.307   8.161 -0.4203 -0.7592 -0.4436
30738SOL    HW295492   0.896   0.266   8.212 -0.2048  0.2302 -0.2025
30739SOL     OW95493   5.552   3.006  10.691 -0.0176  0.0213 -0.1474
30739SOL    HW195494   5.578   3.007  10.783 -0.3850  0.1930 -0.0464
30739SOL    HW295495   5.536   3.098  10.669 -1.5189 -0.1670  0.0717
30740SOL     OW95496   5.155   2.782   6.017  0.0712 -0.0110  0.1133
30740SOL    HW195497   5.191   2.800   6.103 -0.4025 -1.2798  0.5968
30740SOL    HW295498   5.063   2.807   6.024 -0.0149 -0.3026  0.0435
30741SOL     OW95499   1.017   9.376  10.480 -0.1522 -0.3615 -0.2753
30741SOL    HW195500   1.033   9.401  10.389  1.4977  2.2460  0.6170
30741SOL    HW295501   1.084   9.311  10.499  0.4848  0.2206 -0.5057
30742SOL     OW95502   3.621   1.854  10.673  0.5731  0.4508 -0.2708
30742SOL    HW195503   3.610   1.932  10.618 -1.2839 -0.3303 -1.0648
30742SOL    HW295504   3.537   1.810  10.670  1.5902 -1.6515  0.1099
30743SOL     OW95505   4.215   0.740   2.470 -0.2506  0.3114 -1.0699
30743SOL    HW195506   4.134   0.691   2.484  0.4492 -0.0073  3.3783
30743SOL    HW295507   4.186   0.830   2.451 -1.6636  0.0902 -0.1150
30744SOL     OW95508   8.622   2.942   8.529  0.1014 -0.2981  0.1878
30744SOL    HW195509   8.618   2.915   8.437  0.9402 -0.3506  0.1550
30744SOL    HW295510   8.534   2.972   8.549 -0.6818 -2.2998 -0.0157
30745SOL     OW95511   6.774   7.247   2.967 -0.2531  0.2709  0.6372
30745SOL    HW195512   6.860   7.253   3.009 -0.0574 -1.4686  0.5299
30745SOL    HW295513   6.773   7.320   2.905  0.4790  1.3001  1.7793
30746SOL     OW95514   4.627   3.061   5.962  0.1441  0.2108  0.4897
30746SOL    HW195515   4.592   3.010   5.889 -4.6512  1.0963  1.7762
30746SOL    HW295516   4.641   2.996   6.031  0.6116 -0.1262  0.0831
30747SOL     OW95517   4.665   0.671   3.019 -0.1018 -0.4409  0.3828
30747SOL    HW195518   4.604   0.623   2.963  0.2044  0.4744 -0.7704
30747SOL    HW295519   4.619   0.681   3.102 -0.9601 -0.9788 -0.0156
30748SOL     OW95520   4.217   0.079  10.435  0.1451  0.3313  0.2201
30748SOL    HW195521   4.257   0.144  10.492  2.1147  0.0280 -0.7332
30748SOL    HW295522   4.124   0.100  10.436  0.6241  2.6899  0.5323
30749SOL     OW95523   6.904   2.852   3.505  0.5767  0.2059  0.3087
30749SOL    HW195524   6.898   2.931   3.451 -0.0572  0.5936  0.9297
30749SOL    HW295525   6.843   2.868   3.578  2.4358  0.3039  1.9194
30750SOL     OW95526   4.427   2.876   7.070  0.2257  0.7247 -0.0327
30750SOL    HW195527   4.376   2.813   7.020  1.8184 -0.1182 -0.6805
30750SOL    HW295528   4.384   2.878   7.156  1.1602 -2.7958  0.7155
30751SOL     OW95529   4.324   7.466   6.368 -0.0445  0.1551  0.0144
30751SOL    HW195530   4.371   7.536   6.414  0.7905 -0.8816  0.7873
30751SOL    HW295531   4.310   7.501   6.280  1.0309  1.0184  0.1580
30752SOL     OW95532   9.788   4.772   9.431  0.7672  0.1054  1.0200
30752SOL    HW195533   9.748   4.855   9.457 -0.3258 -0.0191 -0.1356
30752SOL    HW295534   9.880   4.781   9.454  0.4105  1.0984  2.1586
30753SOL     OW95535   2.909   4.276  10.356 -0.3586 -0.1384  0.0892
30753SOL    HW195536   2.957   4.323  10.287 -0.6982 -0.4389 -0.3594
30753SOL    HW295537   2.818   4.275  10.325 -0.3211 -1.2719 -0.0153
30754SOL     OW95538   1.730   8.981  11.383  0.3455 -0.2108 -0.2230
30754SOL    HW195539   1.757   8.930  11.306  0.6034  1.1918 -1.1025
30754SOL    HW295540   1.811   9.023  11.413 -0.1698  1.1230 -0.6405
30755SOL     OW95541   3.160   3.742   3.564 -0.3741  0.3068  0.6280
30755SOL    HW195542   3.123   3.666   3.609  1.4305 -0.5508  0.7503
30755SOL    HW295543   3.140   3.727   3.471 -3.5731  1.7791  0.9700
30756SOL     OW95544   8.861   0.783   9.247  0.2048  0.1487  0.1431
30756SOL    HW195545   8.854   0.826   9.332  0.3347 -1.1151  0.8156
30756SOL    HW295546   8.939   0.821   9.207  1.5637 -0.9349  1.6140
30757SOL     OW95547   2.126  10.700   0.393  0.3713  0.1621 -1.0022
30757SOL    HW195548   2.067  10.627   0.371 -0.7889  0.6785  0.2703
30757SOL    HW295549   2.161  10.678   0.479 -1.0946  1.7037  0.0685
30758SOL     OW95550   9.617   3.675   1.061  0.0089 -0.1910  0.1076
30758SOL    HW195551   9.626   3.598   1.006 -1.3205 -1.0352  1.0074
30758SOL    HW295552   9.705   3.713   1.064  0.3729 -0.8107 -1.5467
30759SOL     OW95553   9.570   9.786   9.761 -0.0060 -0.5392 -0.5959
30759SOL    HW195554   9.594   9.865   9.713 -0.7369 -0.6275 -1.1169
30759SOL    HW295555   9.641   9.774   9.825  0.2755  0.3431 -0.7358
30760SOL     OW95556   7.452   8.112  11.227  0.5072 -1.0642 -0.2120
30760SOL    HW195557   7.488   8.053  11.161 -0.4715 -1.7391 -0.1650
30760SOL    HW295558   7.460   8.063  11.309 -1.3751 -1.6784 -0.3312
30761SOL     OW95559   3.952   4.303   0.732 -1.1830 -0.0635  0.1540
30761SOL    HW195560   3.900   4.228   0.703 -2.1621  0.8032 -0.3932
30761SOL    HW295561   3.973   4.350   0.651 -3.0230  1.8102  0.6705
30762SOL     OW95562   7.065   6.037   6.279  0.7532  0.4721  0.1315
30762SOL    HW195563   7.103   6.125   6.286  1.7524  0.0296  0.5144
30762SOL    HW295564   7.004   6.032   6.352  0.3225  1.0138 -0.1811
30763SOL     OW95565   1.445  10.774   6.862 -0.5536  0.6481 -0.2146
30763SOL    HW195566   1.389  10.716   6.811  0.3345  0.0562 -0.5571
30763SOL    HW295567   1.520  10.719   6.887 -0.2898  1.3137  0.5151
30764SOL     OW95568   1.646   0.455   8.120  0.7087  0.5533 -0.5233
30764SOL    HW195569   1.726   0.424   8.076  0.7190 -0.9492  0.4893
30764SOL    HW295570   1.577   0.441   8.055  1.2123  1.6365 -1.3206
30765SOL     OW95571   2.244   3.212   0.783  0.0865 -0.6456 -0.2794
30765SOL    HW195572   2.171   3.229   0.843  0.9447  0.5234  0.4878
30765SOL    HW295573   2.207   3.221   0.696 -0.5042  0.8675  0.0989
30766SOL     OW95574   5.726   5.002   6.420 -0.1461  0.5696  0.1060
30766SOL    HW195575   5.641   4.971   6.451  0.0132  0.6203  0.5974
30766SOL    HW295576   5.717   5.097   6.412  0.1374  0.6787  1.0254
30767SOL     OW95577   9.309   9.029   1.348  0.0113  0.0685 -0.5373
30767SOL    HW195578   9.311   9.080   1.429 -0.0911  0.7801 -0.9713
30767SOL    HW295579   9.285   9.093   1.281  0.2812 -0.4760 -1.1556
30768SOL     OW95580   2.095   1.359   6.905  0.3627 -0.5842  0.0426
30768SOL    HW195581   2.135   1.317   6.829  0.1924 -0.8891  0.1181
30768SOL    HW295582   2.006   1.380   6.877  0.0858 -1.2867  0.3587
30769SOL     OW95583   9.831   0.311  10.739  0.0005 -0.2584 -0.8097
30769SOL    HW195584   9.802   0.311  10.830 -0.5385 -1.2740 -0.9658
30769SOL    HW295585   9.783   0.384  10.699 -0.1560 -0.1326 -0.3947
30770SOL     OW95586   9.855   4.171   9.167  0.1105  0.1503 -0.0776
30770SOL    HW195587   9.814   4.230   9.103 -0.3851  0.3768  0.4341
30770SOL    HW295588   9.783   4.145   9.225  0.4531 -0.4456  0.0927
30771SOL     OW95589   9.712   9.190   7.149  0.1238 -0.1945 -0.2751
30771SOL    HW195590   9.769   9.229   7.216 -1.0866 -1.1304  1.3752
30771SOL    HW295591   9.733   9.097   7.151 -0.1631 -0.2760 -0.9629
30772SOL     OW95592   6.347   9.246   5.633 -0.4943  0.3517 -0.4321
30772SOL    HW195593   6.349   9.181   5.562 -1.0086 -0.0801 -0.0598
30772SOL    HW295594   6.321   9.327   5.589  2.8524  1.0529 -1.4341
30773SOL     OW95595   6.258   6.817   6.412  0.6230 -0.2417 -0.6229
30773SOL    HW195596   6.304   6.740   6.379 -0.4532 -1.1173 -0.1472
30773SOL    HW295597   6.327   6.878   6.437  1.4898 -1.0055 -1.1195
30774SOL     OW95598   1.790   5.433   9.520 -0.5637 -0.1705 -0.1876
30774SOL    HW195599   1.766   5.525   9.533  0.3282  0.3919 -2.1510
30774SOL    HW295600   1.860   5.435   9.455  0.8600 -2.1395  1.1490
30775SOL     OW95601  10.823   8.968  10.550  0.0335  0.1347  0.1311
30775SOL    HW195602  10.773   9.015  10.483  0.2780  0.7723  0.3926
30775SOL    HW295603  10.799   9.009  10.632  0.8395  0.3335  0.2807
30776SOL     OW95604   9.111  10.677   5.317 -0.0365  0.1959  0.3074
30776SOL    HW195605   9.016  10.684   5.308  0.1028  0.7730 -1.0305
30776SOL    HW295606   9.135  10.740   5.384 -0.2519  2.9047 -1.9725
30777SOL     OW95607   4.450   6.028   8.816 -0.4638 -0.3349  0.4524
30777SOL    HW195608   4.370   5.975   8.823 -0.7217 -0.0631 -0.2795
30777SOL    HW295609   4.418   6.118   8.813 -0.1984 -0.2647 -0.7138
30778SOL     OW95610   7.007   3.200   4.720  0.1611  0.0857 -0.3772
30778SOL    HW195611   6.933   3.253   4.751 -0.4848 -0.9903 -0.0108
30778SOL    HW295612   6.998   3.117   4.767  2.2772  0.3138  0.5468
30779SOL     OW95613   2.391   4.748   4.523 -0.1364  0.0378  0.0572
30779SOL    HW195614   2.373   4.700   4.605 -0.5093  2.6298  1.6184
30779SOL    HW295615   2.312   4.801   4.509  1.0944  1.8694 -0.2865
30780SOL     OW95616   6.972   1.252  10.543  0.0654 -0.2611  0.0594
30780SOL    HW195617   6.878   1.266  10.546 -0.0295 -1.0063  1.9422
30780SOL    HW295618   7.004   1.313  10.477 -1.9148 -1.1990 -1.8716
30781SOL     OW95619   5.275   6.904   2.851 -0.2747  1.0574  0.0631
30781SOL    HW195620   5.197   6.960   2.856 -0.2455  1.2763 -1.4145
30781SOL    HW295621   5.310   6.920   2.764  0.3439 -0.4843 -0.0062
30782SOL     OW95622   6.510   8.560   8.113 -0.2877 -0.3445  0.1251
30782SOL    HW195623   6.467   8.477   8.134  0.0732 -0.6508 -0.3200
30782SOL    HW295624   6.512   8.563   8.017  0.8111 -0.4100  0.1358
30783SOL     OW95625   3.796   0.736   6.621 -0.1333  0.2249 -0.5529
30783SOL    HW195626   3.846   0.696   6.550 -0.2178 -1.7662  0.4588
30783SOL    HW295627   3.715   0.686   6.625  0.3590 -0.4965  1.6728
30784SOL     OW95628   5.067   4.572  11.312  0.0225  0.5244  0.1841
30784SOL    HW195629   5.151   4.613  11.292  0.6959 -1.0643 -0.4182
30784SOL    HW295630   5.013   4.589  11.235  0.4008  0.0503 -0.1945
30785SOL     OW95631   8.391   3.722   8.057 -0.6694  0.0070  0.2200
30785SOL    HW195632   8.461   3.746   8.118 -0.1004 -1.7817  0.3393
30785SOL    HW295633   8.315   3.772   8.087  0.3986  1.5732  0.4244
30786SOL     OW95634   7.003  10.924  10.828  0.4553  0.0754  0.0321
30786SOL    HW195635   6.957  10.851  10.871 -0.2299  2.2580  3.3437
30786SOL    HW295636   6.940  10.959  10.766  0.8805 -2.1520 -1.8238
30787SOL     OW95637   7.512   4.087   8.518  0.3025  0.8367 -0.5332
30787SOL    HW195638   7.523   4.183   8.519  0.7135  0.7846  0.5228
30787SOL    HW295639   7.594   4.055   8.481 -0.0926  0.9068 -1.5154
30788SOL     OW95640   1.483   8.767   0.575 -0.2570  0.2437  0.5780
30788SOL    HW195641   1.555   8.747   0.515  0.7049 -0.0099  1.7829
30788SOL    HW295642   1.408   8.782   0.518  1.2479  2.9375 -0.9204
30789SOL     OW95643   7.150   8.338   9.507  0.0803  0.0212 -0.2086
30789SOL    HW195644   7.124   8.418   9.553  2.0044  2.0525 -2.3499
30789SOL    HW295645   7.205   8.292   9.570 -2.0860 -0.3428  1.5155
30790SOL     OW95646   5.233   5.458   5.491  0.4786  0.2010  0.8914
30790SOL    HW195647   5.145   5.486   5.516  1.3196  1.9308  2.1588
30790SOL    HW295648   5.254   5.388   5.552  0.2173  0.2452  1.0345
30791SOL     OW95649   4.019   3.677   7.933 -0.3274  0.3830  0.0460
30791SOL    HW195650   4.082   3.728   7.883 -0.8616  0.1941 -0.8446
30791SOL    HW295651   4.020   3.716   8.020  0.3805  0.9329 -0.1988
30792SOL     OW95652   4.831   5.670   8.328  0.0848 -1.0188 -0.7637
30792SOL    HW195653   4.746   5.678   8.284 -1.4738 -1.8024  1.8834
30792SOL    HW295654   4.833   5.581   8.361  1.7403 -0.8574 -0.3264
30793SOL     OW95655  11.017  10.050   3.347 -0.4705  0.2460 -0.4115
30793SOL    HW195656  11.060   9.971   3.378  0.2674  0.1889 -1.5145
30793SOL    HW295657  11.035  10.052   3.253 -2.1149  0.7094 -0.7611
30794SOL     OW95658   4.746   7.683   5.411  0.1673 -0.8564  0.4077
30794SOL    HW195659   4.774   7.679   5.319 -0.0318  0.8230  0.2401
30794SOL    HW295660   4.678   7.616   5.418 -0.2879 -0.5666 -0.8546
30795SOL     OW95661   0.496   8.691   7.122 -0.0704 -0.0679 -0.5340
30795SOL    HW195662   0.573   8.671   7.069  0.5992 -2.5485  1.1928
30795SOL    HW295663   0.514   8.651   7.207 -3.2978 -0.8745 -0.0846
30796SOL     OW95664   1.553   0.894   8.808 -0.7339  0.3135 -0.2316
30796SOL    HW195665   1.629   0.945   8.838 -2.7500  3.5584 -0.1577
30796SOL    HW295666   1.584   0.850   8.729  1.6250  0.3175  0.6127
30797SOL     OW95667   7.706   8.087   4.006 -0.3067  0.6684  0.1141
30797SOL    HW195668   7.655   8.086   4.087  0.1444  1.7030  0.4207
30797SOL    HW295669   7.782   8.141   4.027  0.0469  0.5522 -0.8608
30798SOL     OW95670   5.237   9.051   4.211  0.1566 -0.3101  0.2782
30798SOL    HW195671   5.169   8.993   4.177 -2.1203  0.6244  2.8414
30798SOL    HW295672   5.272   9.004   4.287  0.2198  0.4873  0.7521
30799SOL     OW95673   4.038   6.794   2.333  0.0253  0.3900 -0.3818
30799SOL    HW195674   3.988   6.875   2.328 -1.4660 -0.5354 -1.3200
30799SOL    HW295675   4.024   6.761   2.422 -1.9255 -0.3544 -0.9227
30800SOL     OW95676   9.768   8.865   3.932  0.8357 -0.6810  0.4593
30800SOL    HW195677   9.791   8.858   3.840 -1.7295  0.8561 -0.4088
30800SOL    HW295678   9.782   8.957   3.953 -1.4156 -0.3231  0.6717
30801SOL     OW95679   7.854   9.174   8.714 -0.7623 -0.1026  0.0794
30801SOL    HW195680   7.773   9.221   8.696 -0.9062 -0.3695  0.0282
30801SOL    HW295681   7.900   9.171   8.630 -0.9380 -0.4038 -0.0076
30802SOL     OW95682   0.691   0.519   2.787 -0.1010 -0.2063 -0.4398
30802SOL    HW195683   0.654   0.433   2.764  1.7483 -1.7208  1.7342
30802SOL    HW295684   0.779   0.499   2.820 -0.5238  2.1724  2.6063
30803SOL     OW95685   6.099   4.763  10.316 -0.4458 -0.3622  0.0441
30803SOL    HW195686   6.180   4.804  10.289  0.3643 -1.4916  0.6381
30803SOL    HW295687   6.091   4.686  10.260 -0.2063 -1.1777  1.0922
30804SOL     OW95688   1.780   9.206   6.569 -0.2364 -0.2281 -0.1195
30804SOL    HW195689   1.721   9.207   6.494 -0.2357  1.4146 -0.1208
30804SOL    HW295690   1.868   9.203   6.532 -0.2409  0.3837 -0.1754
30805SOL     OW95691   2.788   6.967   6.870  0.0137 -0.3133  0.0263
30805SOL    HW195692   2.698   6.934   6.863  0.0279 -0.5952  0.9319
30805SOL    HW295693   2.834   6.898   6.918  1.2017 -1.0517 -2.0565
30806SOL     OW95694  10.022   2.445   6.344 -0.0629 -0.3680 -0.0671
30806SOL    HW195695  10.016   2.409   6.433  0.3098  0.1110  0.1557
30806SOL    HW295696   9.972   2.384   6.290  1.9603 -2.1821  0.0020
30807SOL     OW95697  10.877   6.743   7.979 -0.0531 -0.2634  0.2794
30807SOL    HW195698  10.890   6.793   7.898 -0.2450  0.2261  0.5500
30807SOL    HW295699  10.953   6.762   8.032  0.3464 -1.0191  0.0058
30808SOL     OW95700   7.441   2.537   7.413 -0.4836  0.2213 -0.5278
30808SOL    HW195701   7.392   2.613   7.382  2.0369  1.6480 -1.3191
30808SOL    HW295702   7.533   2.560   7.398  0.5457 -1.7915  1.9294
30809SOL     OW95703   1.897   6.383   3.521  0.1333  0.5806  0.2397
30809SOL    HW195704   1.902   6.292   3.493 -1.3438  0.1793  1.1636
30809SOL    HW295705   1.827   6.384   3.586  1.8196  1.8979  2.1489
30810SOL     OW95706   2.020   4.852  10.541 -0.1838 -0.1103 -0.1111
30810SOL    HW195707   2.087   4.850  10.609  0.3829  0.9364 -0.6230
30810SOL    HW295708   1.942   4.814  10.583  0.1681  0.4590  1.1063
30811SOL     OW95709   9.253   5.879   1.071 -0.9938  0.3883  0.3358
30811SOL    HW195710   9.300   5.813   1.123 -0.7343 -1.6879 -2.2933
30811SOL    HW295711   9.322   5.935   1.036 -0.5787 -1.1624 -1.5279
30812SOL     OW95712  10.404   9.572   1.847  0.1116  0.2933  0.5891
30812SOL    HW195713  10.374   9.481   1.843 -0.5707  0.5153  0.6613
30812SOL    HW295714  10.461   9.582   1.770 -1.8383  0.5258 -0.8911
30813SOL     OW95715   2.293   0.062   2.908  0.4417 -0.0901 -0.1526
30813SOL    HW195716   2.292   0.029   2.998 -0.4880 -2.0874 -0.8485
30813SOL    HW295717   2.384   0.087   2.893  0.7340 -0.2989  1.1327
30814SOL     OW95718   4.367   1.687   5.974 -0.4742 -0.3705  0.7157
30814SOL    HW195719   4.351   1.598   5.944 -0.5773 -0.0423 -0.2392
30814SOL    HW295720   4.388   1.678   6.067 -2.1926 -1.2185  1.0640
30815SOL     OW95721   5.437   6.608   2.640  0.1492  0.7088 -0.1211
30815SOL    HW195722   5.369   6.568   2.694  0.6564 -0.1592 -0.1124
30815SOL    HW295723   5.516   6.602   2.692  1.2889 -2.7170 -1.9640
30816SOL     OW95724   1.158   4.537   7.757 -0.9165  1.2077 -0.2137
30816SOL    HW195725   1.243   4.578   7.743  0.1625 -0.6537  0.5158
30816SOL    HW295726   1.123   4.579   7.836  0.7639 -0.1047  1.3050
30817SOL     OW95727   5.865   1.901   0.280 -0.3446  0.0673 -0.1613
30817SOL    HW195728   5.944   1.954   0.291 -0.3680 -0.4528  3.8574
30817SOL    HW295729   5.896   1.811   0.288 -1.1463 -0.2295 -0.3503
30818SOL     OW95730   3.344   6.593   7.108 -0.0645 -0.1164 -0.1682
30818SOL    HW195731   3.403   6.614   7.036 -1.7303  1.5514 -1.1462
30818SOL    HW295732   3.295   6.517   7.078  0.8483 -0.8580  0.2048
30819SOL     OW95733   6.274   3.317   2.166  0.8301 -0.9349 -0.7108
30819SOL    HW195734   6.211   3.297   2.096 -0.5870  0.4607  0.0949
30819SOL    HW295735   6.260   3.410   2.184  0.9554 -1.3046  1.6043
30820SOL     OW95736   9.827   7.670   4.454  0.2575 -0.4450  0.5414
30820SOL    HW195737   9.814   7.756   4.416  1.1071  0.9116  3.1068
30820SOL    HW295738   9.741   7.628   4.447 -0.2712  0.7256 -0.3868
30821SOL     OW95739  11.130   8.610   0.183 -0.6007  0.4996 -0.2372
30821SOL    HW195740  11.101   8.681   0.241  0.5824  1.0677 -0.2948
30821SOL    HW295741  11.147   8.653   0.099  0.2987  0.2046 -0.2235
30822SOL     OW95742   3.145   6.896   1.079 -0.3380  0.5445  0.2456
30822SOL    HW195743   3.213   6.837   1.110 -0.4561  0.3205  0.0800
30822SOL    HW295744   3.160   6.903   0.985 -1.0593 -0.1914  0.0583
30823SOL     OW95745   1.854   7.281   0.035  0.1118  0.2772  0.0162
30823SOL    HW195746   1.891   7.322  -0.043 -0.9653 -0.8303 -1.1132
30823SOL    HW295747   1.762   7.265   0.013 -0.1231 -0.3948  1.3747
30824SOL     OW95748   7.526   3.905   0.783  0.6649  0.1444  0.2144
30824SOL    HW195749   7.437   3.892   0.750  1.2036 -0.7429 -0.9769
30824SOL    HW295750   7.518   3.899   0.878 -0.5696  0.2865  0.1380
30825SOL     OW95751   4.670   5.126   1.989  0.2480  0.0400  0.6147
30825SOL    HW195752   4.631   5.100   2.072  0.2455 -0.5207  0.4379
30825SOL    HW295753   4.743   5.066   1.976 -1.2076 -1.5256 -0.9637
30826SOL     OW95754   1.214   2.028   0.931  0.5544  0.0534  0.6050
30826SOL    HW195755   1.269   2.061   0.859  0.3491 -1.1697 -0.1460
30826SOL    HW295756   1.271   2.030   1.008  1.2249  0.0803  0.1139
30827SOL     OW95757   7.692   2.167   7.198  0.4902  0.4557 -0.1717
30827SOL    HW195758   7.616   2.217   7.228  0.0547 -0.3462  0.0860
30827SOL    HW295759   7.686   2.170   7.102  0.0846  0.3184 -0.1517
30828SOL     OW95760   1.283   8.234   0.282 -0.0608 -0.2827  0.3683
30828SOL    HW195761   1.298   8.142   0.302 -0.4911 -0.0355  2.0011
30828SOL    HW295762   1.317   8.246   0.193  0.4369 -1.8892  0.3186
30829SOL     OW95763   4.588   4.285   2.182 -0.1611 -0.4941 -0.1718
30829SOL    HW195764   4.600   4.274   2.276 -0.4197  0.1175 -0.0679
30829SOL    HW295765   4.495   4.304   2.172 -0.4212 -1.8888 -0.6763
30830SOL     OW95766   1.028   7.934   0.814  0.0970  0.1938 -0.2942
30830SOL    HW195767   1.003   7.937   0.722 -0.1878 -0.9917 -0.2630
30830SOL    HW295768   1.002   7.847   0.844 -0.2085  0.7145  1.0265
30831SOL     OW95769   9.395  10.476   5.015  0.0589 -0.3210  0.0444
30831SOL    HW195770   9.469  10.513   5.064 -0.7537  0.1953  0.9268
30831SOL    HW295771   9.407  10.509   4.926 -1.0814  2.9357  0.9333
30832SOL     OW95772   8.432   1.915   6.444 -0.0084 -0.0755 -0.1110
30832SOL    HW195773   8.463   1.994   6.400 -0.2664 -0.0057 -0.1680
30832SOL    HW295774   8.349   1.893   6.401  1.6203 -2.2988 -2.3815
30833SOL     OW95775   9.039   8.542   6.958 -0.2353 -0.3595 -0.0847
30833SOL    HW195776   9.004   8.567   6.873 -1.1378  0.2431  0.4501
30833SOL    HW295777   9.060   8.448   6.949  0.5230 -0.0977 -1.2237
30834SOL     OW95778   4.495   0.996  10.406  0.0782  0.4692 -0.0186
30834SOL    HW195779   4.473   0.905  10.429 -1.1498  0.6514 -0.3740
30834SOL    HW295780   4.565   0.988  10.342 -1.1332 -0.3395 -1.3114
30835SOL     OW95781   1.239   1.294   2.495 -0.6834 -0.2158 -0.0755
30835SOL    HW195782   1.261   1.202   2.480 -0.2499 -0.0747 -0.3503
30835SOL    HW295783   1.155   1.293   2.541 -0.3281 -0.7675  0.5704
30836SOL     OW95784  10.818   9.830  10.276  0.1594 -0.1795  0.5888
30836SOL    HW195785  10.743   9.774  10.296  1.1222 -1.5290  0.5258
30836SOL    HW295786  10.885   9.770  10.243  1.4936  0.8912  1.2438
30837SOL     OW95787   1.103   1.356  10.277 -0.6207  0.3114 -0.3161
30837SOL    HW195788   1.188   1.367  10.233 -1.5729 -1.0530 -2.7223
30837SOL    HW295789   1.045   1.418  10.232 -1.7620 -1.5274 -1.4874
30838SOL     OW95790   4.125   5.645   1.884  0.4966  0.0677 -0.1542
30838SOL    HW195791   4.097   5.670   1.972  0.8714  1.3806 -0.3860
30838SOL    HW295792   4.216   5.675   1.879  0.6252 -0.4247 -0.8272
30839SOL     OW95793   8.146   3.115   9.752  0.5504 -0.2243  0.1151
30839SOL    HW195794   8.166   3.031   9.793 -0.3301 -0.2723  0.4550
30839SOL    HW295795   8.232   3.154   9.735  0.9846  0.1283  2.7251
30840SOL     OW95796   7.833   1.853   3.246 -0.0134 -0.0031 -0.6409
30840SOL    HW195797   7.878   1.901   3.315 -0.0723 -0.3052 -0.3882
30840SOL    HW295798   7.760   1.909   3.221  0.6742  0.6362 -1.2754
30841SOL     OW95799   9.510   8.325   6.055  0.8398  0.0265 -0.1783
30841SOL    HW195800   9.468   8.306   6.139  0.5811  0.6877 -0.1458
30841SOL    HW295801   9.504   8.243   6.006 -0.4908  0.0869 -0.1590
30842SOL     OW95802   6.280   8.092   2.410  0.3156 -0.0563 -0.2637
30842SOL    HW195803   6.372   8.107   2.386  0.7410  1.0373  1.7944
30842SOL    HW295804   6.230   8.126   2.336  1.5619 -0.1910 -1.2005
30843SOL     OW95805   1.863   7.071   4.569  0.4561 -0.2897  0.1640
30843SOL    HW195806   1.781   7.105   4.606  0.7037 -0.5938  1.0017
30843SOL    HW295807   1.861   7.100   4.477 -0.8822 -0.8230 -0.0067
30844SOL     OW95808  10.812   2.755   3.437 -0.1776 -0.7088 -0.0945
30844SOL    HW195809  10.749   2.768   3.508  1.1263  0.5916  0.8706
30844SOL    HW295810  10.809   2.660   3.420 -2.3274 -0.6954 -0.0670
30845SOL     OW95811  10.031   1.207   9.956 -0.0433 -0.0761 -0.6935
30845SOL    HW195812   9.954   1.172  10.000  0.2002  1.7367  1.3782
30845SOL    HW295813   9.996   1.271   9.894 -0.2806 -1.0051 -1.5462
30846SOL     OW95814   5.985   7.787  11.085  0.0260  0.2947  0.8133
30846SOL    HW195815   5.971   7.711  11.029  0.1560 -0.0005  1.1834
30846SOL    HW295816   5.988   7.861  11.024 -1.6461  0.2052  0.5721
30847SOL     OW95817   3.691   5.848  10.290 -0.3424 -0.1504 -0.1695
30847SOL    HW195818   3.763   5.804  10.334  0.5259  0.5019 -0.8822
30847SOL    HW295819   3.699   5.940  10.317 -0.2644  0.1147 -1.0479
30848SOL     OW95820   0.536   8.164   7.675  0.5429 -0.1550 -0.0326
30848SOL    HW195821   0.580   8.102   7.616  1.8468  0.8229 -0.1276
30848SOL    HW295822   0.604   8.227   7.700 -0.7038  1.2003  0.1224
30849SOL     OW95823   4.311   3.385   6.650  0.4533 -0.2890 -1.0809
30849SOL    HW195824   4.265   3.307   6.618 -1.8956  0.7407 -0.4350
30849SOL    HW295825   4.342   3.360   6.737 -1.8981 -0.0256 -0.0897
30850SOL     OW95826   2.457  10.159   8.152  0.4351  0.0890 -0.1683
30850SOL    HW195827   2.433  10.209   8.230 -1.0767  0.3656 -0.7800
30850SOL    HW295828   2.376  10.152   8.102  1.4152  0.0712 -1.8125
30851SOL     OW95829   5.977   9.476   7.772 -0.1057  0.3266 -0.1577
30851SOL    HW195830   5.978   9.381   7.781 -0.0753  0.2825 -0.6483
30851SOL    HW295831   6.059   9.505   7.813 -0.2748  0.1745  0.3032
30852SOL     OW95832   1.791   8.484   0.859 -0.2723  0.1568 -0.1497
30852SOL    HW195833   1.846   8.505   0.784  0.5492 -0.0802  0.3640
30852SOL    HW295834   1.838   8.414   0.904 -1.8185 -1.2292 -0.5903
30853SOL     OW95835  10.023   9.365   8.871 -0.4838 -0.2934  0.2557
30853SOL    HW195836   9.958   9.295   8.867 -1.3385  0.4718  0.4868
30853SOL    HW295837  10.060   9.368   8.783 -0.7743 -0.7207  0.1138
30854SOL     OW95838   9.536   9.977   6.459  0.2349 -0.0786  0.2503
30854SOL    HW195839   9.482  10.047   6.422 -1.9994 -0.4855  2.4412
30854SOL    HW295840   9.482   9.898   6.452  0.7089 -0.6096  2.0541
30855SOL     OW95841   2.681   6.149   2.506  0.2652  0.1150 -0.0044
30855SOL    HW195842   2.711   6.091   2.436 -1.2646 -0.4239 -0.2451
30855SOL    HW295843   2.744   6.222   2.505  1.4973 -0.9128 -0.5161
30856SOL     OW95844   1.394   9.777   5.470  0.1847 -0.4724  0.0912
30856SOL    HW195845   1.303   9.782   5.500  0.3457 -0.1953  0.5389
30856SOL    HW295846   1.428   9.866   5.478 -0.0869 -0.1392 -1.9850
30857SOL     OW95847   0.178   7.134   4.105 -0.0031  0.6116 -0.4058
30857SOL    HW195848   0.131   7.122   4.187  1.9717  3.9592  1.4481
30857SOL    HW295849   0.120   7.186   4.050 -0.4870  0.1842 -0.3030
30858SOL     OW95850   2.648  11.204   0.334 -0.1170  0.0592 -0.1126
30858SOL    HW195851   2.605  11.120   0.349  0.4388 -0.1151  0.5529
30858SOL    HW295852   2.577  11.266   0.318 -0.6879 -0.0547  1.7728
30859SOL     OW95853   6.609   5.005   9.248 -0.0421  0.3235 -0.2062
30859SOL    HW195854   6.653   5.018   9.333 -0.8694 -1.0716  0.4695
30859SOL    HW295855   6.582   5.093   9.221 -2.7343  0.5148  2.6223
30860SOL     OW95856   9.541   3.514  11.397  0.1929  0.1857  0.3258
30860SOL    HW195857   9.546   3.501  11.491 -0.9888 -2.7856  0.1146
30860SOL    HW295858   9.598   3.445  11.361 -1.1028 -0.1985 -1.0989
30861SOL     OW95859   5.485   0.440   0.558 -0.6390  0.1196 -0.0374
30861SOL    HW195860   5.476   0.350   0.528  0.3048 -0.0255  0.0651
30861SOL    HW295861   5.421   0.489   0.508 -3.3319 -1.0533  2.0035
30862SOL     OW95862   0.726   0.561   5.857  0.3382 -0.3333 -0.5252
30862SOL    HW195863   0.766   0.474   5.858  2.1714  0.3738  2.1848
30862SOL    HW295864   0.639   0.548   5.894 -0.4674 -1.3265 -2.6356
30863SOL     OW95865   2.762   0.572   6.580  0.8022 -0.6988  0.9147
30863SOL    HW195866   2.831   0.566   6.646  3.5720 -1.7152 -1.8183
30863SOL    HW295867   2.746   0.666   6.570 -1.5599 -0.4924  4.5706
30864SOL     OW95868   0.994   4.871   9.151  0.1009  0.3208  0.0716
30864SOL    HW195869   1.034   4.841   9.069  0.1414  0.4515  0.0434
30864SOL    HW295870   1.045   4.948   9.176 -0.4011  0.7456 -0.1912
30865SOL     OW95871  10.957   5.911  10.459  0.1131 -0.3435  0.1345
30865SOL    HW195872  10.985   5.831  10.413  0.9479 -0.1990  0.3825
30865SOL    HW295873  11.026   5.927  10.524 -0.2903  0.3144  0.4069
30866SOL     OW95874   6.253   8.850   7.086 -0.7674 -0.0543  0.1964
30866SOL    HW195875   6.159   8.838   7.100 -0.6765 -2.2202 -0.6462
30866SOL    HW295876   6.269   8.810   7.000  0.8209  0.8963  0.0208
30867SOL     OW95877   2.526   3.350   0.018  0.2423 -0.5187 -0.1980
30867SOL    HW195878   2.533   3.444   0.031 -1.8739 -0.3264 -0.1302
30867SOL    HW295879   2.433   3.335   0.000  0.7233 -2.4577 -1.3604
30868SOL     OW95880   1.409   1.558   1.750  0.2209 -0.1326  0.5875
30868SOL    HW195881   1.399   1.484   1.808  0.4897 -0.6686 -0.0340
30868SOL    HW295882   1.499   1.551   1.718  0.0300  0.0550 -0.0112
30869SOL     OW95883   6.533   3.583   7.858  0.8226 -0.0376  0.1287
30869SOL    HW195884   6.542   3.587   7.953  1.6222 -1.2792  0.1243
30869SOL    HW295885   6.509   3.492   7.839 -0.7846  0.5307 -0.7721
30870SOL     OW95886  10.854   2.771  10.585  0.3311 -0.1369 -0.3872
30870SOL    HW195887  10.804   2.695  10.615  0.9908 -0.0653  0.9118
30870SOL    HW295888  10.943   2.755  10.613  0.3738  1.4060  0.5010
30871SOL     OW95889   8.266   8.872   2.505 -0.2533  0.4252 -0.1450
30871SOL    HW195890   8.348   8.840   2.469 -1.1974 -1.7236 -0.5084
30871SOL    HW295891   8.288   8.903   2.592  0.7720 -1.1598  0.1874
30872SOL     OW95892   4.584   2.746  10.207 -0.5341  0.2179 -0.4358
30872SOL    HW195893   4.519   2.776  10.271 -0.1066 -1.0718  0.6593
30872SOL    HW295894   4.539   2.678  10.157 -0.4451  0.2782 -0.5980
30873SOL     OW95895   5.379   2.753   4.342 -0.5000  0.2756  0.0516
30873SOL    HW195896   5.417   2.840   4.327  1.8869 -0.7467 -0.3512
30873SOL    HW295897   5.444   2.708   4.394 -1.0823 -1.6995 -0.8474
30874SOL     OW95898  10.226   4.739   7.946  0.0280 -0.7828  0.2494
30874SOL    HW195899  10.133   4.762   7.957  0.1717 -0.4302  0.7694
30874SOL    HW295900  10.239   4.665   8.006 -0.2817 -1.8423 -0.9584
30875SOL     OW95901   3.918   0.963   3.204 -0.0029 -0.1047 -0.5411
30875SOL    HW195902   3.961   1.001   3.127  2.6537 -0.4910  0.6146
30875SOL    HW295903   3.850   1.027   3.227  0.9001  1.3435 -1.6757
30876SOL     OW95904   4.792   9.500   3.753 -0.4894  0.2779 -0.2859
30876SOL    HW195905   4.704   9.488   3.718 -0.4674  2.7756 -1.3254
30876SOL    HW295906   4.834   9.562   3.694  1.1911  0.9352  1.5013
30877SOL     OW95907   0.403   9.685   2.630 -0.1357 -0.7175 -0.3740
30877SOL    HW195908   0.394   9.591   2.646 -1.2207 -0.6554 -0.4912
30877SOL    HW295909   0.411   9.693   2.535  1.3053 -0.7644 -0.2741
30878SOL     OW95910   9.842   2.950   4.491  0.4692 -0.7764 -0.1708
30878SOL    HW195911   9.814   3.012   4.423 -0.7423 -0.6246  0.4356
30878SOL    HW295912   9.893   3.004   4.552 -0.5280 -0.3564  0.3210
30879SOL     OW95913   0.108   0.426   3.202 -0.6513 -0.4172  0.2694
30879SOL    HW195914   0.164   0.351   3.224  0.4218  0.5199  0.8624
30879SOL    HW295915   0.156   0.472   3.133 -0.1430  0.9578  1.4778
30880SOL     OW95916   8.845   9.414   3.651 -0.1664 -0.0717  0.0423
30880SOL    HW195917   8.922   9.356   3.656 -1.0179 -1.1510  1.4863
30880SOL    HW295918   8.801   9.388   3.570 -0.0987 -0.9162  0.2595
30881SOL     OW95919   3.167   3.570   9.639  0.7708 -0.3927 -0.4944
30881SOL    HW195920   3.111   3.492   9.646 -1.7334  1.3997  2.4306
30881SOL    HW295921   3.243   3.549   9.694 -0.1870 -0.6335  0.8035
30882SOL     OW95922   5.972  10.811   7.610 -0.3849  0.1480  0.7852
30882SOL    HW195923   5.946  10.776   7.695 -1.0424 -0.3343  0.3985
30882SOL    HW295924   5.997  10.902   7.628 -1.2341  0.2801  1.3795
30883SOL     OW95925   9.979   8.825  11.212 -0.0585  0.0926  0.1047
30883SOL    HW195926   9.899   8.873  11.231  1.0870  1.7844  0.8383
30883SOL    HW295927   9.982   8.756  11.278 -0.6314  0.3523  0.4065
30884SOL     OW95928   3.071   8.810  11.054 -0.3179 -0.5387 -0.2687
30884SOL    HW195929   3.044   8.870  11.123 -0.0215 -2.0398  1.2124
30884SOL    HW295930   3.145   8.763  11.091 -0.0328 -1.2647 -1.6947
30885SOL     OW95931   6.558   0.273   7.096 -0.0701 -0.6156  0.2508
30885SOL    HW195932   6.526   0.216   7.167 -0.9066  0.4198  0.7413
30885SOL    HW295933   6.651   0.282   7.113  0.1862 -2.2175 -0.1222
30886SOL     OW95934  10.194   9.967  10.351 -0.0187 -0.8562  0.1412
30886SOL    HW195935  10.156   9.985  10.437 -1.1142 -0.9674 -0.2959
30886SOL    HW295936  10.173  10.044  10.299  1.4105 -0.4000  0.1912
30887SOL     OW95937   4.680   8.302   0.366 -0.1247  0.0092 -0.0692
30887SOL    HW195938   4.704   8.277   0.276  0.2510  0.3388 -0.0631
30887SOL    HW295939   4.649   8.392   0.358  0.7826  0.3676  0.2638
30888SOL     OW95940   4.566   3.117   9.145  0.3450  0.7783 -0.0607
30888SOL    HW195941   4.575   3.194   9.201 -0.7048  0.4298  0.6323
30888SOL    HW295942   4.619   3.050   9.189 -1.1196  0.2694  1.0216
30889SOL     OW95943   0.689   0.207   9.698 -0.3676  0.2289 -0.0614
30889SOL    HW195944   0.610   0.178   9.652  0.3479 -1.8582 -0.0667
30889SOL    HW295945   0.732   0.266   9.636 -1.1876  0.2113 -0.6585
30890SOL     OW95946   3.343   4.919   2.882  0.2187  0.4393 -0.0618
30890SOL    HW195947   3.332   4.826   2.905 -0.4932  0.4869 -0.1794
30890SOL    HW295948   3.434   4.925   2.852  0.4280 -0.1150  0.4252
30891SOL     OW95949   9.113   0.591   5.211  0.0276 -0.1459 -0.5509
30891SOL    HW195950   9.205   0.569   5.195 -0.3331  0.0164 -3.2605
30891SOL    HW295951   9.075   0.509   5.244  1.4593  0.3095  2.6400
30892SOL     OW95952   5.671   7.113   1.951 -0.2647 -0.1167 -0.3125
30892SOL    HW195953   5.754   7.158   1.940 -0.6957  0.8836  0.3637
30892SOL    HW295954   5.606   7.173   1.915 -1.0352  0.6256  2.0906
30893SOL     OW95955   9.331   5.037   1.682  0.2833  0.0217  0.7935
30893SOL    HW195956   9.384   5.084   1.747  0.5687  1.3448 -0.3385
30893SOL    HW295957   9.389   4.969   1.648  1.0429  0.9789  0.1069
30894SOL     OW95958   3.451   1.837   2.472 -0.3637 -0.4640  0.2282
30894SOL    HW195959   3.451   1.912   2.532 -1.1142 -1.2749  1.2724
30894SOL    HW295960   3.429   1.875   2.387 -0.1765  0.5755  0.6246
30895SOL     OW95961   2.094  10.077   4.209 -0.1557  0.0488 -0.0713
30895SOL    HW195962   2.146  10.155   4.230 -3.6882  2.5423  0.3395
30895SOL    HW295963   2.087  10.077   4.114 -2.2144  1.8447  0.0234
30896SOL     OW95964  10.250   9.681  10.380  0.0987 -0.0032  0.2472
30896SOL    HW195965  10.222   9.773  10.380  0.5959  0.1556  0.9600
30896SOL    HW295966  10.315   9.676  10.450  2.3531 -0.2112 -1.7419
30897SOL     OW95967   2.654  10.545   8.476  0.6055 -0.5507  0.0103
30897SOL    HW195968   2.634  10.634   8.448  1.2141 -0.7163 -1.0194
30897SOL    HW295969   2.728  10.519   8.421 -0.1537 -2.0265 -0.3659
30898SOL     OW95970  10.602   3.338   6.393  0.3183 -0.4381  0.5709
30898SOL    HW195971  10.658   3.392   6.448  0.3076  0.3403 -0.1686
30898SOL    HW295972  10.526   3.318   6.448 -0.6529  1.9936  0.2372
30899SOL     OW95973   9.719   1.441   6.742  0.2500  0.5125 -0.0182
30899SOL    HW195974   9.692   1.403   6.826 -0.9996 -0.5937 -0.8689
30899SOL    HW295975   9.765   1.369   6.697 -0.9245  0.4013 -1.1001
30900SOL     OW95976  10.156   3.920   1.302 -0.0591 -0.3373 -0.0977
30900SOL    HW195977  10.091   3.870   1.352  0.0908 -0.7800 -0.3359
30900SOL    HW295978  10.234   3.865   1.304  0.5735  0.5636  0.8841
30901SOL     OW95979   4.772   5.678   6.064 -0.2575  0.5906  0.7408
30901SOL    HW195980   4.762   5.758   6.116 -0.4555  1.6057 -0.7893
30901SOL    HW295981   4.705   5.619   6.098  0.1220  0.9306  2.1312
30902SOL     OW95982   0.928   2.815   5.480 -0.2576 -0.9558  0.1586
30902SOL    HW195983   0.886   2.878   5.421  1.3572 -0.4314 -0.4813
30902SOL    HW295984   0.928   2.733   5.430 -1.0882 -1.1462  0.4383
30903SOL     OW95985   1.782   0.668   9.875 -0.1001 -0.2362  0.0948
30903SOL    HW195986   1.695   0.667   9.836 -0.0187  1.9981 -0.3051
30903SOL    HW295987   1.767   0.650   9.968 -1.2433  1.7288  0.3473
30904SOL     OW95988   8.069   4.346   6.026  0.5385 -0.5690  0.2021
30904SOL    HW195989   8.102   4.278   5.967  1.1794  0.8505 -1.1419
30904SOL    HW295990   8.016   4.402   5.971  0.7260  0.5072  1.0863
30905SOL     OW95991   2.728   2.808   4.968  0.0196 -0.3064 -0.1497
30905SOL    HW195992   2.733   2.861   4.888  0.5185 -1.4938 -0.9468
30905SOL    HW295993   2.653   2.750   4.952  0.2301 -0.6666  0.1644
30906SOL     OW95994   1.773  11.300   2.391  0.1564 -0.0008 -0.0018
30906SOL    HW195995   1.765  11.367   2.458 -0.5256 -0.3591  0.2909
30906SOL    HW295996   1.752  11.218   2.436  0.2870 -0.3211 -0.5107
30907SOL     OW95997   5.261   2.246   7.039  0.0621 -0.5821 -0.1986
30907SOL    HW195998   5.248   2.262   7.133 -0.5270 -1.0559 -0.1965
30907SOL    HW295999   5.242   2.153   7.027 -1.4553 -0.2021 -1.0486
30908SOL     OW96000   8.645  10.128  11.084  0.0957  0.4516 -0.3557
30908SOL    HW196001   8.594  10.077  11.146 -0.2190  1.1968  0.0150
30908SOL    HW296002   8.734  10.126  11.119  0.4074 -1.1212 -1.1798
30909SOL     OW96003   0.122   8.372  11.221  0.6737 -1.0061 -0.2603
30909SOL    HW196004   0.059   8.320  11.172  0.9219 -1.6948  0.1384
30909SOL    HW296005   0.114   8.460  11.185 -0.3716 -1.1267 -0.3503
30910SOL     OW96006  11.300   5.160   8.356  0.4340  0.5871  0.2722
30910SOL    HW196007  11.366   5.226   8.337  0.4482  0.5604  0.2265
30910SOL    HW296008  11.223   5.210   8.384 -0.1216  0.7273 -1.4015
30911SOL     OW96009  11.060   0.595  10.130 -0.1079  0.0971 -0.0294
30911SOL    HW196010  10.965   0.600  10.120 -0.0802 -0.2407 -0.5543
30911SOL    HW296011  11.073   0.544  10.210 -0.3594  1.7169  1.0926
30912SOL     OW96012   6.423   8.756   4.478  0.0667 -0.2208 -0.0934
30912SOL    HW196013   6.479   8.830   4.453  0.3360 -0.3301  0.1705
30912SOL    HW296014   6.361   8.793   4.541 -0.2621 -0.0644 -0.5060
30913SOL     OW96015   0.413   2.688   6.236  0.1298 -0.1182 -0.3743
30913SOL    HW196016   0.493   2.737   6.215  0.1290 -0.7962 -2.1701
30913SOL    HW296017   0.416   2.612   6.178 -1.2112 -0.8210  0.4254
30914SOL     OW96018   5.271   5.163   0.387 -0.2115 -0.0977 -0.3828
30914SOL    HW196019   5.177   5.179   0.391 -0.0934  0.4514  0.3186
30914SOL    HW296020   5.307   5.213   0.460  0.9369  1.9252 -2.2389
30915SOL     OW96021   0.348   0.641   5.866  0.2224  0.1632 -0.0413
30915SOL    HW196022   0.339   0.732   5.893  1.5881  0.6633 -1.1508
30915SOL    HW296023   0.352   0.644   5.770  2.3818 -0.7984 -0.0473
30916SOL     OW96024   3.936   8.889   0.048  0.5024 -0.2954 -0.2120
30916SOL    HW196025   3.939   8.795   0.065  1.8835 -0.3275 -0.5276
30916SOL    HW296026   3.860   8.900  -0.011 -0.0575 -1.1044  0.3402
30917SOL     OW96027   7.477   4.304   8.204 -0.2283 -0.2281 -0.0514
30917SOL    HW196028   7.470   4.282   8.111 -0.9801 -1.5391  0.2807
30917SOL    HW296029   7.387   4.319   8.232  0.0008  0.2763  0.4468
30918SOL     OW96030  10.836   7.887   9.190 -0.7762 -0.5259  0.0852
30918SOL    HW196031  10.858   7.921   9.277  0.0232  0.0540 -0.3306
30918SOL    HW296032  10.743   7.867   9.195 -1.4222  2.1991  0.2146
30919SOL     OW96033   4.713   6.903   2.641 -0.6182 -0.4392 -0.3780
30919SOL    HW196034   4.755   6.919   2.725  0.8672 -0.2227 -1.1353
30919SOL    HW296035   4.659   6.981   2.626  0.5767  0.3884 -0.4768
30920SOL     OW96036   8.047  10.777   6.765  0.3572  0.2308  0.6039
30920SOL    HW196037   8.128  10.750   6.723  0.5950  0.1964  1.0720
30920SOL    HW296038   8.009  10.695   6.798  0.7903  0.3855  1.5207
30921SOL     OW96039   3.556   3.282   7.665 -0.6704  0.0854  0.4542
30921SOL    HW196040   3.614   3.222   7.618  0.3688  1.1987  0.2518
30921SOL    HW296041   3.597   3.294   7.750 -0.7267  0.6822  0.4045
30922SOL     OW96042   8.645   6.925   2.736  0.0816 -0.1869 -0.2482
30922SOL    HW196043   8.553   6.928   2.762  0.4339 -1.4974  1.2285
30922SOL    HW296044   8.690   6.980   2.799  0.5822 -1.2667  0.3656
30923SOL     OW96045   0.003   6.995   4.730 -0.0999  0.0529 -0.0845
30923SOL    HW196046   0.018   6.919   4.787  0.0424 -1.6375 -2.2369
30923SOL    HW296047  -0.092   7.007   4.730 -0.2338 -0.9371 -0.6908
30924SOL     OW96048   3.177   0.025   4.723  0.3262  0.1833  0.0930
30924SOL    HW196049   3.239   0.010   4.651  1.0963 -0.0316  0.7896
30924SOL    HW296050   3.091   0.006   4.685  0.6453  0.8383 -0.9891
30925SOL     OW96051   8.522   3.558   0.586  0.9721 -0.5973  0.0717
30925SOL    HW196052   8.516   3.653   0.582  0.6227 -0.6736 -1.7151
30925SOL    HW296053   8.490   3.528   0.501  0.8989 -2.3234  0.6741
30926SOL     OW96054   7.613   1.538   4.956 -0.2943  0.4765 -0.3190
30926SOL    HW196055   7.593   1.511   5.046 -0.3951  0.6640 -0.2839
30926SOL    HW296056   7.615   1.456   4.906 -0.6475  0.4076 -0.2251
30927SOL     OW96057   9.289   4.548   3.896 -0.4953  0.0211  0.4091
30927SOL    HW196058   9.194   4.548   3.898 -0.4925  0.1172  0.5256
30927SOL    HW296059   9.315   4.622   3.950 -0.3671  0.5757 -0.3953
30928SOL     OW96060  11.320   0.315  10.543 -0.1261  0.0296  0.4677
30928SOL    HW196061  11.330   0.274  10.629  0.2974 -1.1554 -0.1126
30928SOL    HW296062  11.371   0.258  10.484  1.7666  2.2397 -0.1687
30929SOL     OW96063   8.059   5.095   1.452 -0.2338 -1.0437  0.3926
30929SOL    HW196064   8.001   5.081   1.378 -2.3142  2.3069  1.2164
30929SOL    HW296065   8.112   5.171   1.428 -0.4332 -0.3455  1.9920
30930SOL     OW96066   4.340   3.717   3.577  0.4090 -0.5120 -0.5573
30930SOL    HW196067   4.395   3.784   3.618  0.8529 -1.1577 -0.0857
30930SOL    HW296068   4.281   3.767   3.519  0.5038  0.3117  0.0355
30931SOL     OW96069   5.043   7.154   0.622 -0.0768  0.4506  0.2250
30931SOL    HW196070   4.964   7.207   0.632 -1.8057 -1.7923 -0.6322
30931SOL    HW296071   5.061   7.121   0.711  0.6177  1.8393  0.6328
30932SOL     OW96072   5.878   3.935   7.732 -0.2368 -0.3600 -0.1859
30932SOL    HW196073   5.878   3.890   7.648  1.8138  0.9027 -0.9333
30932SOL    HW296074   5.821   4.010   7.719 -1.5573 -1.2512  0.2410
30933SOL     OW96075   1.964   6.813   9.099  0.2486 -0.1379  0.6942
30933SOL    HW196076   1.963   6.851   9.011  0.1950 -2.7549 -0.5191
30933SOL    HW296077   1.885   6.847   9.141  0.6083  1.6660  0.0180
30934SOL     OW96078   0.282   7.582   1.660 -0.3829 -0.6328  0.4529
30934SOL    HW196079   0.333   7.663   1.660 -1.1628 -0.1138  1.4784
30934SOL    HW296080   0.345   7.514   1.684 -0.1944  0.0486  2.0367
30935SOL     OW96081   0.522   5.166   9.885 -0.1572 -0.6372  0.0866
30935SOL    HW196082   0.610   5.132   9.897 -0.0097  0.4032  2.5572
30935SOL    HW296083   0.535   5.258   9.860 -0.4858 -0.2322  1.3111
30936SOL     OW96084   2.961   1.898   6.710  0.0586 -0.1504  0.7552
30936SOL    HW196085   2.904   1.844   6.655 -1.5980  2.9133 -0.8284
30936SOL    HW296086   2.918   1.900   6.795 -0.5315 -0.3525  0.4690
30937SOL     OW96087   1.398   5.426   9.061  0.2862 -0.0964  0.1029
30937SOL    HW196088   1.453   5.473   8.998  0.7498 -0.5694  0.1477
30937SOL    HW296089   1.446   5.431   9.144 -0.7338  1.2899  0.6649
30938SOL     OW96090   5.168   6.157   3.209  0.6417 -0.7611  0.0097
30938SOL    HW196091   5.205   6.160   3.121  0.9324  2.1110  0.1252
30938SOL    HW296092   5.093   6.216   3.206  1.3235  0.3219  1.9118
30939SOL     OW96093   1.589   7.551   1.864  0.6068  0.4187  0.3914
30939SOL    HW196094   1.548   7.637   1.864  0.0449  0.1556  1.0290
30939SOL    HW296095   1.541   7.502   1.798  0.9381  0.5857  0.0156
30940SOL     OW96096   3.764   2.432  10.781 -0.2132  0.1252 -0.1795
30940SOL    HW196097   3.831   2.398  10.723 -1.0117 -1.8631 -0.0363
30940SOL    HW296098   3.811   2.482  10.847  1.1140 -1.0682 -0.1888
30941SOL     OW96099   4.346   1.183   2.488  0.0352  0.3916  0.0054
30941SOL    HW196100   4.353   1.189   2.584  0.4441  1.6371 -0.0785
30941SOL    HW296101   4.277   1.119   2.473  0.3710 -0.2661  1.1256
30942SOL     OW96102   3.102   2.958   8.273  0.3419 -0.8264 -0.0328
30942SOL    HW196103   3.176   3.001   8.317 -0.2784 -0.5307  0.7608
30942SOL    HW296104   3.076   3.019   8.204 -1.0011  0.4973  1.5532
30943SOL     OW96105  10.882   9.389  10.775 -0.2322  0.4498  0.1219
30943SOL    HW196106  10.920   9.422  10.693  2.2449  0.5123  1.2230
30943SOL    HW296107  10.910   9.451  10.842  0.4522 -1.2427  1.4917
30944SOL     OW96108  11.227   6.175   3.563  0.0133 -0.4714 -0.3435
30944SOL    HW196109  11.266   6.172   3.651 -0.4006  0.3481 -0.1190
30944SOL    HW296110  11.301   6.195   3.506 -0.1031  1.5183  0.1354
30945SOL     OW96111   0.231   3.700   8.083  0.4661 -0.1716 -0.3078
30945SOL    HW196112   0.244   3.618   8.035  0.6630 -0.4368  0.1888
30945SOL    HW296113   0.280   3.688   8.165 -1.9403 -0.7693  1.1572
30946SOL     OW96114   1.604   0.989   0.174 -0.5901  0.3896  0.4620
30946SOL    HW196115   1.553   1.031   0.243  1.4480 -0.5278  2.6490
30946SOL    HW296116   1.695   0.999   0.202  0.1532 -2.5813 -0.5899
30947SOL     OW96117   6.064   6.379  10.966  0.4051 -0.0993 -0.3779
30947SOL    HW196118   6.057   6.350  10.875 -1.1090 -0.0758 -0.3014
30947SOL    HW296119   5.975   6.370  11.000  0.9992 -0.3255  1.1729
30948SOL     OW96120   6.220   4.716   6.826  0.1664  0.1411 -0.4524
30948SOL    HW196121   6.273   4.774   6.881  0.1509  0.4570 -0.7646
30948SOL    HW296122   6.137   4.761   6.818  0.2795  0.2530 -1.0048
30949SOL     OW96123   7.222  10.044  11.277 -0.2811 -0.0682  0.0864
30949SOL    HW196124   7.261   9.966  11.318 -0.3780 -0.8999 -1.3382
30949SOL    HW296125   7.291  10.077  11.219 -1.2971 -1.0507 -1.8031
30950SOL     OW96126   9.182   9.015   8.326  0.0227 -0.0255  1.1887
30950SOL    HW196127   9.134   9.052   8.251  1.3424  1.4897  1.0330
30950SOL    HW296128   9.203   8.926   8.299 -2.4342 -0.6716  1.1655
30951SOL     OW96129   1.060   8.291  10.985  0.5610 -0.6606 -0.0154
30951SOL    HW196130   0.988   8.245  10.942 -0.2048 -2.5659  2.9542
30951SOL    HW296131   1.049   8.383  10.960 -1.3675 -1.2560 -1.6097
30952SOL     OW96132   0.098   6.703  11.115  0.1890 -0.4396  0.2442
30952SOL    HW196133   0.114   6.658  11.032 -1.4563  2.0435 -1.5809
30952SOL    HW296134   0.157   6.779  11.111 -0.0371 -0.2049  1.2883
30953SOL     OW96135   0.170  10.638  11.298  0.3688 -0.6373  0.0955
30953SOL    HW196136   0.208  10.556  11.267  1.3586 -0.0119 -0.4062
30953SOL    HW296137   0.244  10.684  11.340  0.3348  0.8462 -1.3772
30954SOL     OW96138   1.107   0.078   6.583 -0.4492 -0.0115 -0.4178
30954SOL    HW196139   1.157   0.011   6.537 -0.3864 -0.1261 -0.1838
30954SOL    HW296140   1.117   0.056   6.675  0.6271  1.0324 -0.2600
30955SOL     OW96141   4.980   4.304   9.843 -0.2588 -0.3147 -0.8235
30955SOL    HW196142   4.920   4.284   9.914  1.9431  0.9629  1.5342
30955SOL    HW296143   4.999   4.219   9.803  0.5001 -1.5631  1.9254
30956SOL     OW96144   7.478   5.185  11.190 -0.2200 -0.0826 -0.1783
30956SOL    HW196145   7.531   5.131  11.249 -1.3594  0.1853  1.1306
30956SOL    HW296146   7.427   5.121  11.139 -0.7344 -0.2895  0.5785
30957SOL     OW96147   0.758   4.438   3.424  0.5851  0.4683  0.0158
30957SOL    HW196148   0.688   4.438   3.358 -0.8842  0.2516  1.5038
30957SOL    HW296149   0.794   4.349   3.421 -1.2446 -0.3774  1.2312
30958SOL     OW96150   7.913  10.179   8.096  0.2773  0.2487  0.3635
30958SOL    HW196151   7.957  10.118   8.036  0.2643 -1.2098  1.7624
30958SOL    HW296152   7.836  10.131   8.126 -0.4005  1.4462  0.5910
30959SOL     OW96153   3.203   8.538   1.568 -0.3869 -0.5724 -0.3643
30959SOL    HW196154   3.192   8.538   1.663  1.4091 -1.7473 -0.1069
30959SOL    HW296155   3.228   8.628   1.547  0.5504 -0.6084  0.4829
30960SOL     OW96156   5.070   9.300   7.748  0.0711 -0.1349 -0.0456
30960SOL    HW196157   5.083   9.209   7.774  1.2996 -0.1813 -0.7417
30960SOL    HW296158   4.975   9.309   7.741 -0.0376 -1.8042 -1.4411
30961SOL     OW96159   4.168   5.019   4.959 -0.3579  0.2104 -0.5390
30961SOL    HW196160   4.143   5.108   4.936 -1.2813  0.0308 -0.2470
30961SOL    HW296161   4.146   5.010   5.052  0.0121 -0.2268 -0.4840
30962SOL     OW96162  10.165   6.437   1.116  0.4741  0.4580  0.0280
30962SOL    HW196163  10.091   6.414   1.059  0.7132  0.1346 -0.1540
30962SOL    HW296164  10.216   6.500   1.064  0.7302  0.1095 -0.1531
30963SOL     OW96165   0.566   9.983  11.013  0.3441 -0.9231 -0.3509
30963SOL    HW196166   0.552   9.997  10.919 -0.9358  0.5292  0.0192
30963SOL    HW296167   0.548   9.890  11.026  0.4694 -1.1299 -1.5253
30964SOL     OW96168  10.665   7.959   4.792  0.1155 -0.0974 -0.0148
30964SOL    HW196169  10.673   7.864   4.785 -1.9850 -0.4644  1.5184
30964SOL    HW296170  10.672   7.991   4.702  1.8666 -1.5687 -0.4522
30965SOL     OW96171   8.517   7.680   2.140  0.7956  0.3651  0.3682
30965SOL    HW196172   8.578   7.750   2.116 -0.0047  1.7720  2.1225
30965SOL    HW296173   8.449   7.725   2.191 -1.4479 -1.2252 -1.0636
30966SOL     OW96174   1.253   7.307   1.336  0.2987 -0.0382 -0.4257
30966SOL    HW196175   1.317   7.355   1.284 -0.9251  1.8248 -0.3010
30966SOL    HW296176   1.173   7.310   1.283  0.0949 -1.7300 -0.2757
30967SOL     OW96177   5.088   1.369   8.306  0.3499  0.1179 -0.1784
30967SOL    HW196178   5.109   1.455   8.342 -0.1678  0.1417  0.0670
30967SOL    HW296179   5.158   1.353   8.242  2.8692 -1.1184  2.6674
30968SOL     OW96180  10.638   1.813   3.973  0.0147 -0.3798  0.0311
30968SOL    HW196181  10.692   1.746   4.014  1.1605  0.7729  0.4984
30968SOL    HW296182  10.598   1.860   4.047  0.2355  0.2416 -0.2407
30969SOL     OW96183   6.266   4.320   3.489 -0.1912 -0.3220 -0.8010
30969SOL    HW196184   6.299   4.308   3.578 -0.2252 -0.0098 -0.7432
30969SOL    HW296185   6.296   4.242   3.441  0.0242 -0.3806 -0.5745
30970SOL     OW96186   9.433   4.101   6.083  0.2875 -0.3860  0.0214
30970SOL    HW196187   9.394   4.063   6.004  1.3772 -1.4736 -0.0138
30970SOL    HW296188   9.489   4.032   6.118  1.0652  0.6378  0.8596
30971SOL     OW96189   6.335   7.361   3.727  0.6262 -0.2883 -0.8116
30971SOL    HW196190   6.295   7.293   3.674  1.0503  0.3887 -2.0615
30971SOL    HW296191   6.326   7.441   3.674  3.0227  0.0047 -0.9198
30972SOL     OW96192   3.638   9.743   6.864  0.7432 -0.0077 -0.1789
30972SOL    HW196193   3.722   9.743   6.910  0.7180 -1.3419 -0.0978
30972SOL    HW296194   3.588   9.673   6.906  1.1052 -2.0677 -2.8646
30973SOL     OW96195   7.579   3.122  10.134  0.0664 -0.1542  0.2391
30973SOL    HW196196   7.635   3.068  10.190 -0.2253  0.9381  1.6401
30973SOL    HW296197   7.516   3.162  10.194 -0.4410  0.8412 -0.9061
30974SOL     OW96198   4.651   4.836   9.830 -0.0784 -0.0869 -0.3496
30974SOL    HW196199   4.639   4.894   9.905  0.6108 -0.6298  0.2076
30974SOL    HW296200   4.571   4.782   9.828 -0.1216 -0.0369 -0.0286
30975SOL     OW96201   4.335   1.948   8.074 -0.0106 -0.0673 -0.0094
30975SOL    HW196202   4.335   1.940   8.170  0.2516  1.7093  0.1710
30975SOL    HW296203   4.252   1.910   8.047  0.9206 -2.8069  0.6619
30976SOL     OW96204   6.796   6.667   1.974  0.1770  0.1170  0.0754
30976SOL    HW196205   6.862   6.601   1.995 -0.5513  0.0495  2.4112
30976SOL    HW296206   6.809   6.736   2.039 -1.5603  0.4455  0.1285
30977SOL     OW96207   3.944   2.344   5.926  0.0858  0.1660 -0.2062
30977SOL    HW196208   4.012   2.411   5.919  1.8937 -1.5614  0.0799
30977SOL    HW296209   3.981   2.267   5.882 -3.3980  0.2975 -4.0402
30978SOL     OW96210   8.547   6.179   0.290 -0.0228 -0.4415 -0.4376
30978SOL    HW196211   8.547   6.229   0.208  0.2973 -3.4310 -2.4160
30978SOL    HW296212   8.456   6.185   0.321 -0.5100 -0.3676 -1.7844
30979SOL     OW96213   7.007   5.068   2.361  0.5646 -0.4370  0.7717
30979SOL    HW196214   6.925   5.084   2.314  2.2771 -0.1462 -2.4645
30979SOL    HW296215   7.049   5.154   2.365  0.2468 -0.3404  3.5475
30980SOL     OW96216  10.775   2.801   4.175 -0.0579  0.0518 -0.2096
30980SOL    HW196217  10.804   2.837   4.091  2.3845  2.2318  1.3961
30980SOL    HW296218  10.698   2.853   4.197 -1.1475 -1.0064 -1.3300
30981SOL     OW96219   1.574  11.155   2.764  0.8811  0.2193  0.1453
30981SOL    HW196220   1.653  11.142   2.711 -0.2596 -1.3725 -1.2909
30981SOL    HW296221   1.523  11.220   2.715 -0.4878 -1.7556 -1.2257
30982SOL     OW96222   2.756   2.343   3.058  0.0246  0.2711 -0.2834
30982SOL    HW196223   2.704   2.306   3.129  1.1450  0.5027  0.6979
30982SOL    HW296224   2.772   2.270   2.999 -0.2947 -0.1054  0.0883
30983SOL     OW96225   1.869   9.800   9.916 -0.1699 -0.1785  0.7634
30983SOL    HW196226   1.857   9.872   9.978 -0.2014  0.2982  0.2204
30983SOL    HW296227   1.780   9.776   9.890 -0.2917 -1.8577  2.5224
30984SOL     OW96228   5.545   9.528   5.425 -0.4672 -0.1098  0.2636
30984SOL    HW196229   5.578   9.512   5.513  1.4124  0.1799 -0.3412
30984SOL    HW296230   5.531   9.622   5.421  0.4655  0.0263 -0.0534
30985SOL     OW96231   8.406   2.912   5.703 -0.1651  0.1080  0.1118
30985SOL    HW196232   8.417   3.001   5.668 -1.2948  0.6059  0.9603
30985SOL    HW296233   8.489   2.894   5.748  0.4815  0.2930 -0.9791
30986SOL     OW96234   2.261   7.763   5.264  0.2489 -0.2540  0.0543
30986SOL    HW196235   2.188   7.813   5.300  0.2908 -1.6305  2.2509
30986SOL    HW296236   2.307   7.730   5.341  2.6334 -0.2601 -1.2803
30987SOL     OW96237  11.089   1.731   9.833  0.4601  0.3245  0.2100
30987SOL    HW196238  11.012   1.728   9.776  1.2049  0.4535 -0.8238
30987SOL    HW296239  11.092   1.821   9.865  0.4548  0.4403 -0.1186
30988SOL     OW96240   1.331   8.807   2.758 -1.0572  0.3607 -0.4042
30988SOL    HW196241   1.397   8.877   2.759 -1.6998  1.0046  0.9294
30988SOL    HW296242   1.338   8.768   2.671  2.4324 -0.9192  0.2975
30989SOL     OW96243   8.481   8.301   0.990 -0.1500  0.0594  0.7227
30989SOL    HW196244   8.500   8.360   0.917  0.9030 -0.3283  0.6597
30989SOL    HW296245   8.420   8.349   1.045 -1.7429 -0.0258 -0.9038
30990SOL     OW96246   2.783   6.041   3.763 -0.3601  0.1620  0.1096
30990SOL    HW196247   2.861   6.037   3.707 -0.7622 -0.1767 -0.4292
30990SOL    HW296248   2.793   6.123   3.811 -0.4003  0.8887 -1.0578
30991SOL     OW96249   6.497   6.815   8.957 -0.6157  0.1834 -0.1132
30991SOL    HW196250   6.515   6.822   9.051  0.3138  2.4906 -0.3862
30991SOL    HW296251   6.472   6.724   8.944 -0.5736 -0.2499  2.3329
30992SOL     OW96252   0.654   9.583   4.187 -0.0382 -0.3527 -0.0085
30992SOL    HW196253   0.616   9.528   4.119 -3.0530  0.0036  1.2253
30992SOL    HW296254   0.687   9.660   4.140  0.0674 -1.1494 -1.2771
30993SOL     OW96255   9.218   1.948   4.780 -0.3819  0.0979 -0.6513
30993SOL    HW196256   9.299   1.943   4.831 -0.1044  0.3744 -1.0581
30993SOL    HW296257   9.204   2.042   4.765 -0.6497  0.0386 -0.7871
30994SOL     OW96258   6.989  10.774   0.996 -0.1399 -0.7465 -0.4354
30994SOL    HW196259   7.006  10.865   0.971 -0.6508 -0.3586  0.5678
30994SOL    HW296260   6.990  10.726   0.913 -0.4339  0.2647 -1.0526
30995SOL     OW96261   3.923   3.077   9.884  0.2666  0.1491  0.3970
30995SOL    HW196262   4.011   3.079   9.921  0.2424 -1.0864  0.5657
30995SOL    HW296263   3.866   3.100   9.958  0.4777  1.7820  0.0866
30996SOL     OW96264   3.316   8.304   0.772 -0.4011  0.0170  0.0507
30996SOL    HW196265   3.248   8.246   0.737  1.0297 -1.4949 -0.3781
30996SOL    HW296266   3.360   8.338   0.694  0.7372 -0.7984  0.3113
30997SOL     OW96267   1.530   9.349   8.869  0.0422  0.0956  0.4065
30997SOL    HW196268   1.549   9.255   8.869  1.5667  0.3786  0.2037
30997SOL    HW296269   1.434   9.354   8.866 -0.0436 -1.4657 -2.0550
30998SOL     OW96270   4.173   4.114   8.405  0.3076  0.2480  0.3243
30998SOL    HW196271   4.102   4.052   8.392  0.8145 -0.3856  0.5211
30998SOL    HW296272   4.176   4.165   8.324  1.1747 -1.3248 -0.6678
30999SOL     OW96273  10.025   2.710   7.553  0.0058  0.2136  0.9122
30999SOL    HW196274  10.045   2.725   7.645 -2.2292  0.7538  1.3886
30999SOL    HW296275   9.944   2.760   7.538  1.3962  1.8944 -1.9212
31000SOL     OW96276   0.882   4.100   9.977 -1.1324  0.1363 -0.0080
31000SOL    HW196277   0.945   4.101  10.049 -1.4172  1.6025  0.2473
31000SOL    HW296278   0.797   4.087  10.020 -1.3921  1.7928  0.0286
31001SOL     OW96279   0.028   6.882  10.796 -0.4341 -0.0803  0.6025
31001SOL    HW196280   0.115   6.903  10.761 -0.9789  0.3986 -0.5154
31001SOL    HW296281  -0.016   6.967  10.800 -0.8286 -0.3123  1.2494
31002SOL     OW96282   8.623   7.969   6.832 -0.3234  0.2987  0.6113
31002SOL    HW196283   8.649   7.979   6.740 -0.4011 -3.1469  0.0698
31002SOL    HW296284   8.531   7.997   6.834  0.0961  1.8410  0.0376
31003SOL     OW96285   5.084   9.764   5.828  0.5769  0.1980  0.1065
31003SOL    HW196286   5.054   9.851   5.855  0.8629  0.6104 -0.8622
31003SOL    HW296287   5.007   9.708   5.838  0.0311  0.8337 -0.4484
31004SOL     OW96288  10.175   4.335   2.396 -0.0838  0.0599  0.1155
31004SOL    HW196289  10.133   4.254   2.368  2.9303 -1.0353 -1.7642
31004SOL    HW296290  10.241   4.306   2.460 -0.1556  1.3019  0.7787
31005SOL     OW96291   0.684   9.735   2.197  0.3917 -0.0209 -0.5468
31005SOL    HW196292   0.703   9.647   2.228  2.6104  0.1414 -1.2181
31005SOL    HW296293   0.738   9.792   2.252 -0.7620  0.9084 -0.3278
31006SOL     OW96294   2.509   4.340   0.610 -0.0010  0.0607  0.4877
31006SOL    HW196295   2.577   4.405   0.630 -0.2844  0.3079  0.6566
31006SOL    HW296296   2.521   4.322   0.516  0.8290 -0.5258  0.6973
31007SOL     OW96297   8.480   1.629   2.531 -0.1988  0.6160 -0.5162
31007SOL    HW196298   8.406   1.600   2.584  0.2855 -0.4225 -0.3846
31007SOL    HW296299   8.506   1.712   2.570  0.5524 -0.4240  1.3146
31008SOL     OW96300   6.696  11.253   0.262  0.1248 -0.1551 -0.0609
31008SOL    HW196301   6.614  11.301   0.280 -0.3904 -0.8670 -0.4771
31008SOL    HW296302   6.760  11.322   0.246 -0.7631  0.4170 -1.3510
31009SOL     OW96303   3.800   5.972   6.112  0.7379 -0.0365  0.1862
31009SOL    HW196304   3.744   5.941   6.041  0.9956  0.3024 -0.1670
31009SOL    HW296305   3.747   6.037   6.158  1.1267  0.9018 -0.6557
31010SOL     OW96306   2.440   4.568   0.352  0.1356 -0.5244  0.1720
31010SOL    HW196307   2.421   4.660   0.333 -2.0038 -1.0897 -0.6830
31010SOL    HW296308   2.534   4.560   0.337  0.6502  1.8301  1.6773
31011SOL     OW96309  11.322   8.150   4.990  0.2619 -0.0765 -0.0656
31011SOL    HW196310  11.416   8.143   4.972  0.9231 -1.3721  3.2231
31011SOL    HW296311  11.283   8.074   4.948  0.8251 -0.1208 -0.5234
31012SOL     OW96312  10.476  10.304   8.168 -0.4972  0.3626  0.1165
31012SOL    HW196313  10.497  10.368   8.236 -1.9039  1.3193 -0.2954
31012SOL    HW296314  10.395  10.263   8.199 -0.0044 -0.7344  0.0187
31013SOL     OW96315  10.100   1.551   4.448  0.0100 -0.1616  0.0324
31013SOL    HW196316  10.072   1.583   4.534 -1.9553 -1.4508 -0.0797
31013SOL    HW296317  10.076   1.459   4.447  0.0996 -0.2064 -1.8568
31014SOL     OW96318   3.953   5.881   0.377 -0.0342 -0.5636 -0.3699
31014SOL    HW196319   3.899   5.853   0.304 -0.7326  0.6326 -0.3408
31014SOL    HW296320   3.993   5.801   0.410 -0.2993 -1.2157 -1.5847
31015SOL     OW96321   4.453   8.622   1.194  0.5252  0.4490  0.1615
31015SOL    HW196322   4.491   8.710   1.192 -0.7270  1.0386  1.1454
31015SOL    HW296323   4.364   8.635   1.225  0.0730 -1.1026 -0.3999
31016SOL     OW96324   1.058   2.770   8.727 -0.6828  0.3003  0.3897
31016SOL    HW196325   1.103   2.854   8.728  2.2180 -1.1285 -0.2139
31016SOL    HW296326   1.045   2.751   8.634 -0.9339 -0.1208  0.5070
31017SOL     OW96327   2.600   6.881   7.730 -0.0432 -0.3608  0.5308
31017SOL    HW196328   2.544   6.803   7.737  1.2292 -1.2500  1.3192
31017SOL    HW296329   2.646   6.885   7.814 -0.5290  1.6239  0.7322
31018SOL     OW96330   2.824   5.961   5.938 -0.2522 -0.1943 -0.7788
31018SOL    HW196331   2.876   5.882   5.924 -0.3679 -0.3026 -0.6007
31018SOL    HW296332   2.855   6.022   5.872  1.7932  0.5882  0.8071
31019SOL     OW96333  11.393   0.889   9.744  0.4252  0.0135  0.6652
31019SOL    HW196334  11.316   0.935   9.778  0.8936  0.3137  1.3525
31019SOL    HW296335  11.360   0.804   9.717 -0.1370  0.1140  1.0079
31020SOL     OW96336   0.552   8.353  10.749  0.1372  0.3401  0.1438
31020SOL    HW196337   0.531   8.426  10.808 -2.0690 -0.0730 -0.0330
31020SOL    HW296338   0.540   8.389  10.661  1.1267  0.3237 -0.0015
31021SOL     OW96339   4.673  10.400   8.655 -0.1778  0.2704 -0.8819
31021SOL    HW196340   4.766  10.400   8.635 -0.1347 -0.0410 -0.6855
31021SOL    HW296341   4.661  10.328   8.716 -0.5256  0.3910 -0.8019
31022SOL     OW96342   7.279   1.778   4.649  0.1814  0.1033  0.5096
31022SOL    HW196343   7.254   1.711   4.585  0.5417  0.4176  0.0339
31022SOL    HW296344   7.312   1.729   4.724 -0.1778 -0.2683  0.4228
31023SOL     OW96345   9.207   0.333   6.742 -0.3088  0.2383 -0.4565
31023SOL    HW196346   9.117   0.304   6.750 -0.5857  1.2196  0.1577
31023SOL    HW296347   9.244   0.278   6.673 -1.5436  0.2223 -1.1260
31024SOL     OW96348   1.265   3.968   7.205  0.7042 -0.3249  0.2611
31024SOL    HW196349   1.278   4.024   7.129  0.2726  0.5301  0.8087
31024SOL    HW296350   1.188   3.915   7.183  0.3700  0.1621  0.2373
31025SOL     OW96351   7.024   5.419   0.059  0.0998  0.0175  0.8961
31025SOL    HW196352   6.978   5.343   0.023 -0.4563  0.9760 -0.4939
31025SOL    HW296353   7.116   5.393   0.061  0.2520  0.0645 -1.7683
31026SOL     OW96354   5.953   0.470  11.147 -0.0693  0.1126 -0.7711
31026SOL    HW196355   6.034   0.512  11.119  0.1542  0.7851  0.7999
31026SOL    HW296356   5.893   0.543  11.164  0.0803 -0.1925  1.2509
31027SOL     OW96357   2.119   4.385   1.248  0.4304 -0.2772 -0.2307
31027SOL    HW196358   2.038   4.349   1.282  0.9429 -2.2790 -0.9938
31027SOL    HW296359   2.095   4.425   1.164 -0.0279  0.6053  0.3079
31028SOL     OW96360   5.108   1.093   5.698  0.6152 -0.4407 -0.2217
31028SOL    HW196361   5.133   1.049   5.617  0.3571 -1.4538  0.2245
31028SOL    HW296362   5.127   1.185   5.683  1.2227 -0.7085 -1.1796
31029SOL     OW96363   5.604   1.302   5.266  0.1246 -0.0519  0.0331
31029SOL    HW196364   5.664   1.341   5.203 -1.4350  2.5193  0.0394
31029SOL    HW296365   5.531   1.363   5.273 -0.9437 -1.4308  2.5133
31030SOL     OW96366   6.971   4.780   2.347  0.2573 -0.1191 -0.4124
31030SOL    HW196367   6.973   4.875   2.360  1.1019 -0.3553  1.5091
31030SOL    HW296368   6.880   4.755   2.363  0.3729  0.1796  0.8000
31031SOL     OW96369  10.446   3.039   9.532  0.3937 -0.4039  0.3223
31031SOL    HW196370  10.468   3.056   9.440  0.9778  0.3649  0.5886
31031SOL    HW296371  10.530   3.026   9.575  0.1775  0.0270  0.8888
31032SOL     OW96372   6.078   6.530  10.187  0.2032  0.0860 -0.4188
31032SOL    HW196373   6.140   6.460  10.206 -0.6834 -0.0131  2.5947
31032SOL    HW296374   6.019   6.493  10.121  0.8814 -1.2896 -0.2769
31033SOL     OW96375   6.058   2.885   7.155 -0.3043  0.3328 -0.0660
31033SOL    HW196376   6.049   2.793   7.179  0.8196  0.5227  1.1795
31033SOL    HW296377   6.004   2.894   7.076 -1.9048 -0.9569  0.8151
31034SOL     OW96378  10.294   0.997   9.106  0.2470  0.9840 -0.2763
31034SOL    HW196379  10.236   0.922   9.097  1.1110  0.4061 -1.1978
31034SOL    HW296380  10.369   0.964   9.156  2.4751  0.0547 -3.8369
31035SOL     OW96381   1.818   1.302   0.701  0.2828  0.7366  0.3316
31035SOL    HW196382   1.743   1.274   0.755  0.5503 -2.5758 -0.7890
31035SOL    HW296383   1.779   1.327   0.618  0.3172 -0.5739 -0.1052
31036SOL     OW96384   0.892   7.858   6.614  0.1438 -0.1355  0.4349
31036SOL    HW196385   0.913   7.765   6.621  0.4444 -0.1393 -0.3338
31036SOL    HW296386   0.931   7.884   6.530  1.1413  0.9734  1.2164
31037SOL     OW96387  10.076   6.161   9.653  0.5892 -0.1714  0.5703
31037SOL    HW196388  10.044   6.238   9.699 -0.0304 -0.5817  0.8511
31037SOL    HW296389  10.172   6.169   9.656  0.6008  2.0667 -1.9584
31038SOL     OW96390   0.998   1.471   8.998  0.5796  0.0327 -0.0178
31038SOL    HW196391   0.955   1.547   8.957  0.3733 -0.0671  0.0109
31038SOL    HW296392   0.975   1.478   9.090  1.8452  0.7972  0.2689
31039SOL     OW96393   5.331   5.654   0.747  0.2605 -0.4153  0.1417
31039SOL    HW196394   5.409   5.623   0.701  1.2097  0.1730  1.3006
31039SOL    HW296395   5.363   5.725   0.803 -1.0751 -0.2981  0.7898
31040SOL     OW96396   4.411   7.813   5.090 -0.2872 -0.1966  0.2595
31040SOL    HW196397   4.475   7.882   5.072  0.3247 -0.5576  0.9861
31040SOL    HW296398   4.397   7.817   5.184  0.8626 -1.9917  0.5528
31041SOL     OW96399   9.025   6.663   6.096  0.2384  0.2489  0.2545
31041SOL    HW196400   9.073   6.584   6.073 -0.0911  0.2077 -0.3153
31041SOL    HW296401   9.002   6.703   6.012 -0.9748  0.1009  0.4857
31042SOL     OW96402  10.670  10.844   3.345  0.0315 -0.7001 -0.4847
31042SOL    HW196403  10.699  10.822   3.257 -0.1244 -1.9324 -0.2384
31042SOL    HW296404  10.734  10.908   3.376  1.0333 -1.4968 -0.8801
31043SOL     OW96405   4.567   2.324   4.287 -0.7478  0.4400  0.0014
31043SOL    HW196406   4.591   2.235   4.315 -0.0946  0.3485 -0.7993
31043SOL    HW296407   4.559   2.373   4.368 -2.6793 -0.7137  0.5638
31044SOL     OW96408   4.065  10.242   2.325 -0.7858  0.0001  0.0638
31044SOL    HW196409   4.006  10.171   2.352 -0.9914  0.4613  0.8731
31044SOL    HW296410   4.103  10.273   2.407 -1.4382  1.4790 -0.1649
31045SOL     OW96411  10.641   0.779   3.765  0.0375  0.1045 -0.4395
31045SOL    HW196412  10.582   0.854   3.755 -1.6913 -1.4126 -2.7766
31045SOL    HW296413  10.719   0.803   3.715  0.2481  1.0246  0.3121
31046SOL     OW96414  10.228   0.574   5.543 -0.1868 -0.1304 -0.2469
31046SOL    HW196415  10.167   0.628   5.493 -0.9709  0.3218  1.1347
31046SOL    HW296416  10.314   0.600   5.512 -0.6417  0.0740 -1.4011
31047SOL     OW96417   6.227  10.575   6.130  0.1082  0.8106  0.1405
31047SOL    HW196418   6.168  10.583   6.055 -1.2500  1.6918  1.2559
31047SOL    HW296419   6.169  10.560   6.205  1.4654 -0.6258  0.9506
31048SOL     OW96420   2.751   6.131  10.288  0.3328  0.3057 -0.0878
31048SOL    HW196421   2.756   6.073  10.212  0.9737  0.0007  0.1848
31048SOL    HW296422   2.688   6.199  10.262  0.2410 -0.0209 -0.7344
31049SOL     OW96423   8.478   5.735   5.292 -0.0964  0.1607  0.5734
31049SOL    HW196424   8.452   5.659   5.343 -0.9054  0.7290  1.0218
31049SOL    HW296425   8.474   5.706   5.201  0.0573 -0.4605  0.7625
31050SOL     OW96426   5.654   9.834   8.605  0.5156 -0.6528 -0.4019
31050SOL    HW196427   5.570   9.871   8.578  1.2700  0.5982 -1.1202
31050SOL    HW296428   5.713   9.909   8.611  1.6139 -1.5200 -0.0091
31051SOL     OW96429   7.754   6.023   3.632  0.6529 -0.5929 -0.5004
31051SOL    HW196430   7.810   6.044   3.557 -0.0047  0.9803 -0.6057
31051SOL    HW296431   7.738   6.108   3.674  0.0950 -1.2971  0.7735
31052SOL     OW96432   3.310   5.952   0.110 -0.1418 -0.2768 -0.8202
31052SOL    HW196433   3.215   5.964   0.112 -0.2822 -1.3297 -0.0434
31052SOL    HW296434   3.336   5.961   0.202  0.6572  0.9933 -1.1514
31053SOL     OW96435   3.625   1.880   3.690  0.1260 -0.6064 -0.0861
31053SOL    HW196436   3.535   1.886   3.721  0.2456  0.5667  0.0801
31053SOL    HW296437   3.678   1.870   3.769  0.2488  0.1884 -0.0556
31054SOL     OW96438  10.227  10.386   7.797  0.0513  0.2473  0.2578
31054SOL    HW196439  10.179  10.380   7.715  1.6001 -1.4496 -0.5812
31054SOL    HW296440  10.313  10.420   7.772 -0.2440  2.1042  1.5623
31055SOL     OW96441   7.735   6.674   0.083  0.0870  0.2227  0.0780
31055SOL    HW196442   7.763   6.765   0.076  0.8004  0.0670  0.8060
31055SOL    HW296443   7.642   6.679   0.104 -0.7009  0.7565 -2.9433
31056SOL     OW96444   3.914   3.027   8.002 -0.0586 -0.2661  0.1429
31056SOL    HW196445   3.842   2.980   7.961 -1.0746  0.5534  0.9301
31056SOL    HW296446   3.883   3.046   8.091  0.5043  1.4255  0.0210
31057SOL     OW96447   6.784   8.555   2.181 -0.3451 -0.7456  0.1458
31057SOL    HW196448   6.791   8.526   2.090  1.0191 -1.9754  0.6050
31057SOL    HW296449   6.838   8.635   2.184 -1.7503  0.2703 -0.4645
31058SOL     OW96450   3.678   2.901   7.564  0.2289  0.7498 -0.1716
31058SOL    HW196451   3.721   2.932   7.485 -0.6786  0.3362 -0.8467
31058SOL    HW296452   3.588   2.881   7.537  0.4092 -1.2058  0.5190
31059SOL     OW96453   8.851   9.730   0.162  0.5682 -0.0385 -1.2319
31059SOL    HW196454   8.828   9.701   0.250  1.0470  1.4801 -0.5622
31059SOL    HW296455   8.767   9.750   0.121  0.3632 -0.3727 -0.9806
31060SOL     OW96456   7.751   4.066   6.880 -0.0651 -0.7200 -0.0039
31060SOL    HW196457   7.730   4.141   6.823 -1.0431  0.0334  1.3032
31060SOL    HW296458   7.793   4.003   6.821 -1.9352 -0.4026 -1.8007
31061SOL     OW96459  10.598   4.567   7.802 -0.1474 -0.1568 -0.2352
31061SOL    HW196460  10.545   4.500   7.759  0.2244 -0.2244 -0.6027
31061SOL    HW296461  10.629   4.525   7.882 -0.3552 -0.2401 -0.1975
31062SOL     OW96462   7.550   4.388   0.044  0.9734  0.4646  0.5604
31062SOL    HW196463   7.626   4.330   0.031  0.2523 -0.4014  0.0572
31062SOL    HW296464   7.515   4.402  -0.044 -1.4532 -1.9636  1.0060
31063SOL     OW96465   6.302   6.681   2.940 -0.2736  0.0227 -0.1439
31063SOL    HW196466   6.329   6.755   2.995  1.5048  0.3161 -1.3191
31063SOL    HW296467   6.367   6.613   2.958 -1.5634 -1.0722  0.4985
31064SOL     OW96468   1.401   0.456   7.955  0.2945  0.3246  0.0760
31064SOL    HW196469   1.380   0.518   7.885  1.2085 -0.6653 -1.1286
31064SOL    HW296470   1.318   0.444   8.002 -0.3232  1.0835 -0.7719
31065SOL     OW96471  10.555   6.595   7.757  0.3698  0.2887  0.0078
31065SOL    HW196472  10.606   6.659   7.707  0.9382 -1.0722 -1.2160
31065SOL    HW296473  10.618   6.529   7.783 -0.6214 -1.1762 -1.1142
31066SOL     OW96474   5.198   6.594   1.120  0.6384 -0.1281 -0.4726
31066SOL    HW196475   5.265   6.662   1.123  0.1902  0.3230  2.6294
31066SOL    HW296476   5.235   6.522   1.172 -0.1715 -0.9923 -1.0640
31067SOL     OW96477   8.420  11.276   1.817  0.2586 -0.0047 -0.3274
31067SOL    HW196478   8.373  11.205   1.861 -0.0429  0.4006  0.0087
31067SOL    HW296479   8.512  11.248   1.818 -0.0697 -1.3405 -1.9668
31068SOL     OW96480   2.404   2.650   0.767  0.4320 -0.6542  0.1908
31068SOL    HW196481   2.365   2.683   0.847  0.2349 -0.0016 -0.1695
31068SOL    HW296482   2.408   2.726   0.709  1.9342 -0.7696  0.1027
31069SOL     OW96483   2.044   9.773   6.713 -0.2072  0.9269 -0.3038
31069SOL    HW196484   2.078   9.690   6.748  2.4868  1.3121 -1.7089
31069SOL    HW296485   1.949   9.767   6.724  0.0218 -1.6363  1.1026
31070SOL     OW96486   9.126  10.458   8.544  0.9822 -0.1434  0.6899
31070SOL    HW196487   9.048  10.435   8.595 -0.3968 -3.3830 -2.4046
31070SOL    HW296488   9.100  10.534   8.492  1.0883  0.7859  1.9470
31071SOL     OW96489   5.668   0.709   6.863  0.6413  0.4707  0.3122
31071SOL    HW196490   5.717   0.733   6.784  0.7815 -1.4022 -0.2172
31071SOL    HW296491   5.596   0.771   6.866 -0.0193 -0.0892 -1.9442
31072SOL     OW96492   3.882   0.425   9.241  0.3602 -0.4043  0.0586
31072SOL    HW196493   3.905   0.458   9.155 -0.7747 -0.4117 -0.2626
31072SOL    HW296494   3.817   0.487   9.275 -0.4303 -1.2680  0.2020
31073SOL     OW96495  10.077  10.037  10.589  0.0978  0.1972 -0.1349
31073SOL    HW196496  10.145  10.103  10.573 -0.1343  0.4379 -0.1454
31073SOL    HW296497  10.057  10.044  10.682 -0.4845  0.6994 -0.2823
31074SOL     OW96498   2.173  10.621   0.138  0.0905  0.0701  0.0137
31074SOL    HW196499   2.099  10.648   0.084  0.0748 -1.7994 -1.0038
31074SOL    HW296500   2.170  10.679   0.214 -2.1808  0.3034 -0.1801
31075SOL     OW96501   0.858   5.972  10.538  0.0353 -0.2031  0.7528
31075SOL    HW196502   0.861   6.033  10.465  1.1304 -0.8024  0.2634
31075SOL    HW296503   0.831   6.025  10.613 -2.2298  0.1926 -0.2717
31076SOL     OW96504   6.897   1.087   3.107 -0.0191  0.4456  0.0183
31076SOL    HW196505   6.873   0.995   3.099  2.6924 -0.5468  1.7047
31076SOL    HW296506   6.823   1.127   3.153 -2.2753 -0.2441 -2.7250
31077SOL     OW96507   0.854   0.698   9.718  0.3995  0.3411 -0.1751
31077SOL    HW196508   0.879   0.624   9.662  2.6583  0.7445  0.1706
31077SOL    HW296509   0.899   0.680   9.801 -1.6841  0.4909  1.0572
31078SOL     OW96510   7.396   9.567   4.603 -0.0562  0.3051  0.5868
31078SOL    HW196511   7.370   9.486   4.647 -0.0816  0.2331  0.4425
31078SOL    HW296512   7.328   9.630   4.626 -0.7769 -0.0798 -0.3735
31079SOL     OW96513   9.328   7.062   7.387  0.1505 -0.4189  0.0692
31079SOL    HW196514   9.379   7.112   7.452  0.1196 -0.3910  0.0721
31079SOL    HW296515   9.267   7.011   7.440  1.0247 -1.4192  0.1431
31080SOL     OW96516   6.399   8.301   8.031  0.1987  0.2508  0.2771
31080SOL    HW196517   6.416   8.322   7.940 -0.9347  1.9637  0.4290
31080SOL    HW296518   6.486   8.285   8.069  0.6946 -0.1276 -0.9888
31081SOL     OW96519   7.194   8.167   9.292  0.1178  0.3864  0.4125
31081SOL    HW196520   7.104   8.154   9.261  0.3904  3.6788 -2.4090
31081SOL    HW296521   7.188   8.237   9.357  0.6223  0.7885  0.0415
31082SOL     OW96522  11.137   0.874   4.786 -0.0669 -0.2328  0.0738
31082SOL    HW196523  11.115   0.884   4.694  0.4009  0.4994  0.0324
31082SOL    HW296524  11.189   0.951   4.807 -0.4724 -0.2007  1.0428
31083SOL     OW96525   0.873   0.493   3.839  0.4067 -0.0616 -0.2063
31083SOL    HW196526   0.887   0.419   3.899 -0.4558 -0.1148 -0.0657
31083SOL    HW296527   0.801   0.465   3.783 -1.0133  1.2894  0.8705
31084SOL     OW96528   5.868  10.062   8.649  0.5297  0.0250 -0.2016
31084SOL    HW196529   5.882   9.992   8.713 -0.6936  0.8787  1.0397
31084SOL    HW296530   5.907  10.140   8.690 -0.2230  0.5687 -0.4920
31085SOL     OW96531   4.310   7.566   7.600 -0.0618  0.4912  0.1374
31085SOL    HW196532   4.384   7.597   7.652 -0.7179  1.3650  0.5552
31085SOL    HW296533   4.333   7.589   7.510  0.5936 -0.0940  0.1396
31086SOL     OW96534   0.230   6.596   0.657  0.4660 -0.7042 -0.6853
31086SOL    HW196535   0.290   6.618   0.586  0.8843  1.1255  0.1810
31086SOL    HW296536   0.286   6.593   0.735 -0.3798 -0.0461 -0.0347
31087SOL     OW96537   2.729   8.533   9.987  0.3197  0.7733 -0.4395
31087SOL    HW196538   2.817   8.516   9.952 -0.5395 -2.5949 -1.3585
31087SOL    HW296539   2.672   8.525   9.910 -1.1063 -1.2182  0.7366
31088SOL     OW96540   7.025   9.173   5.794 -0.8587 -0.4434 -0.2952
31088SOL    HW196541   7.107   9.209   5.828 -1.1052  0.4483 -0.6066
31088SOL    HW296542   6.990   9.120   5.866 -0.2254 -0.4828 -0.0118
31089SOL     OW96543   2.994   3.919   1.699 -0.3713  0.0870  0.0490
31089SOL    HW196544   3.051   3.940   1.774 -0.5743  3.3864 -0.5611
31089SOL    HW296545   2.905   3.921   1.735 -0.4082  0.6817 -0.0623
31090SOL     OW96546   2.771   6.168   4.228 -0.2330  0.0211 -0.1009
31090SOL    HW196547   2.842   6.150   4.166  0.4919  0.1047  0.6898
31090SOL    HW296548   2.720   6.087   4.229  0.8755 -0.7010  0.6417
31091SOL     OW96549   2.401   4.592   1.235 -0.1388  0.4805 -0.4210
31091SOL    HW196550   2.454   4.520   1.201  0.7826  1.3537 -0.9086
31091SOL    HW296551   2.350   4.553   1.306  2.0554 -0.1522  0.8993
31092SOL     OW96552   1.015   5.529   3.159  0.1862 -0.4041 -0.4182
31092SOL    HW196553   0.954   5.469   3.201  0.1052 -0.1354 -0.1513
31092SOL    HW296554   0.997   5.614   3.200  0.5583 -0.2738 -0.5234
31093SOL     OW96555  11.310   9.510  10.259 -0.2040  0.1156 -0.4277
31093SOL    HW196556  11.219   9.529  10.283 -0.5196 -0.3961 -1.2130
31093SOL    HW296557  11.307   9.487  10.167  0.7998  0.5659 -0.5846
31094SOL     OW96558   9.859   2.642   6.943  0.4033  0.4182 -0.2487
31094SOL    HW196559   9.862   2.564   6.887  1.2751 -0.0005  0.3639
31094SOL    HW296560   9.791   2.622   7.008  1.3001 -0.2572  0.5022
31095SOL     OW96561   7.813   9.731   0.700 -0.0665 -0.0073  0.4539
31095SOL    HW196562   7.863   9.783   0.638  1.6598 -0.8518  1.0829
31095SOL    HW296563   7.873   9.662   0.727 -1.5312 -0.9603  1.3796
31096SOL     OW96564   0.360   8.427   4.114 -0.2583  0.4017 -0.1589
31096SOL    HW196565   0.455   8.438   4.110 -0.2475  0.4051  0.0524
31096SOL    HW296566   0.337   8.452   4.204 -0.4630  0.4307 -0.2184
31097SOL     OW96567   6.458   2.781  11.164  0.1722  0.0492  0.2450
31097SOL    HW196568   6.511   2.703  11.147 -2.4768 -1.7175 -0.6764
31097SOL    HW296569   6.466   2.834  11.084  1.1340  0.2078  0.4402
31098SOL     OW96570   0.077   9.909   5.200  0.2305  0.5311  0.0946
31098SOL    HW196571   0.139   9.839   5.179  1.6428  1.9970 -0.8846
31098SOL    HW296572   0.064   9.903   5.295  0.7417 -0.7054  0.0977
31099SOL     OW96573   5.819   6.399   3.896  0.0325  0.6494 -0.2364
31099SOL    HW196574   5.799   6.480   3.848  3.0661  0.3208 -2.3702
31099SOL    HW296575   5.768   6.331   3.851 -0.5433  0.9837 -0.1013
31100SOL     OW96576   5.236   5.484   8.935 -0.1203  0.0232 -0.0489
31100SOL    HW196577   5.311   5.542   8.924 -0.8073  1.1069  0.7744
31100SOL    HW296578   5.236   5.461   9.028 -0.3472 -0.6260 -0.2027
31101SOL     OW96579   1.969   8.694   4.959  0.2658 -0.2411  0.3569
31101SOL    HW196580   1.959   8.613   5.009  0.3251  0.3724  1.3925
31101SOL    HW296581   1.886   8.739   4.971  0.4119  0.0713  0.1874
31102SOL     OW96582   4.658   1.572   6.735 -0.3627 -0.2356  0.4532
31102SOL    HW196583   4.645   1.553   6.828 -0.8953 -0.9622  0.2339
31102SOL    HW296584   4.735   1.521   6.710  0.7809  1.2289  0.8730
31103SOL     OW96585  10.235   3.169   4.415  0.5929  0.0338  0.2039
31103SOL    HW196586  10.271   3.098   4.468  0.1096 -0.2054  0.2135
31103SOL    HW296587  10.231   3.244   4.475  1.1059  0.0754  0.1911
31104SOL     OW96588   4.880   4.838   9.352 -0.2193  0.2608 -0.3129
31104SOL    HW196589   4.814   4.902   9.324  0.3347  1.6064  1.3168
31104SOL    HW296590   4.962   4.888   9.357 -0.1000 -0.0337  2.7090
31105SOL     OW96591   8.042  11.116   9.043 -0.8690 -0.2339  0.2647
31105SOL    HW196592   8.108  11.134   8.976 -1.8134  0.6517 -0.4751
31105SOL    HW296593   8.016  11.203   9.074 -1.1553 -0.6032  1.0792
31106SOL     OW96594   2.754   9.589   4.362  0.5599  0.0009  0.3812
31106SOL    HW196595   2.782   9.667   4.316  0.1850 -0.2397 -0.2579
31106SOL    HW296596   2.819   9.522   4.339  1.4486  0.3610  1.7100
31107SOL     OW96597   5.049   3.803   7.841  0.0043  0.3197  0.0598
31107SOL    HW196598   4.967   3.761   7.812  0.1724  0.9933 -1.5014
31107SOL    HW296599   5.112   3.731   7.845  0.0321  0.2017 -1.5912
31108SOL     OW96600   0.695   6.170  11.019  0.0209 -0.4322  0.0501
31108SOL    HW196601   0.688   6.265  11.025  1.5012 -0.2911 -0.1222
31108SOL    HW296602   0.628   6.137  11.079 -0.8909  0.6950 -0.3051
31109SOL     OW96603   7.343  10.395   2.353 -0.2788 -0.0788  0.5590
31109SOL    HW196604   7.382  10.404   2.440 -1.7469 -1.1497  1.3792
31109SOL    HW296605   7.302  10.309   2.354 -0.8438  0.1429 -0.9884
31110SOL     OW96606   0.056  11.083   9.813  0.5386 -0.2935 -0.1159
31110SOL    HW196607   0.134  11.027   9.810 -0.1088 -1.1760 -0.8384
31110SOL    HW296608   0.065  11.140   9.737 -0.2558 -1.4295 -1.0932
31111SOL     OW96609   9.563   6.315   7.941  0.2514 -0.3365 -0.2312
31111SOL    HW196610   9.633   6.345   8.000  0.7362  0.1063 -0.9982
31111SOL    HW296611   9.610   6.284   7.863 -0.2164 -3.3143  0.5564
31112SOL     OW96612  10.349   8.583  10.534  0.6895 -0.4065  0.1257
31112SOL    HW196613  10.286   8.642  10.491  0.1093  0.0864  1.6105
31112SOL    HW296614  10.415   8.642  10.570  1.9958 -0.9105 -1.3078
31113SOL     OW96615   2.375   2.983   4.659 -0.2412  0.2257  0.6270
31113SOL    HW196616   2.351   2.977   4.567  0.5084 -0.2854  0.4546
31113SOL    HW296617   2.327   3.059   4.692  2.1226  2.6049 -1.0252
31114SOL     OW96618   3.122   7.920   7.068  0.0131 -0.5232  0.3285
31114SOL    HW196619   3.049   7.964   7.112  0.2602 -0.8782  1.1073
31114SOL    HW296620   3.198   7.975   7.087  0.0721 -0.5330  0.1192
31115SOL     OW96621   4.360  10.745   1.228  0.3257  0.2570 -0.7671
31115SOL    HW196622   4.284  10.770   1.280  0.2116  0.0524 -0.8350
31115SOL    HW296623   4.432  10.741   1.291 -0.0090 -0.9794 -0.4377
31116SOL     OW96624  11.290   3.636   7.489 -0.7225 -0.8589  0.3252
31116SOL    HW196625  11.304   3.701   7.421 -2.1364  0.7852  1.5055
31116SOL    HW296626  11.358   3.570   7.474  2.2729  1.9461  0.3477
31117SOL     OW96627   2.198   5.032   2.452 -0.3426  0.0924  0.0901
31117SOL    HW196628   2.242   5.048   2.369  1.5339  0.1455  1.0420
31117SOL    HW296629   2.159   5.116   2.475 -1.4764 -0.0885 -1.0138
31118SOL     OW96630   6.208   6.116   5.671 -0.1532  0.1310  0.3218
31118SOL    HW196631   6.122   6.077   5.660 -0.3178  0.4030  0.6070
31118SOL    HW296632   6.193   6.211   5.667  0.6128  0.2424 -3.1925
31119SOL     OW96633   5.529   4.617   6.426  0.2724  0.0407  0.0190
31119SOL    HW196634   5.501   4.587   6.512  0.9030 -0.2265  0.1372
31119SOL    HW296635   5.581   4.695   6.444 -1.4392  1.3148 -0.2918
31120SOL     OW96636   9.710   0.735   5.384 -0.1963  0.1526  0.5596
31120SOL    HW196637   9.622   0.743   5.345  0.1359 -3.5069 -1.4261
31120SOL    HW296638   9.770   0.753   5.311  0.6032 -0.2877  1.0992
31121SOL     OW96639  10.389   4.616  11.023  0.0924  0.2768  0.3946
31121SOL    HW196640  10.318   4.555  11.002  0.4142 -0.4625  1.3849
31121SOL    HW296641  10.359   4.662  11.101 -0.0805  1.3090 -0.2532
31122SOL     OW96642   7.036   9.653   2.584  0.0680  0.2468  0.2089
31122SOL    HW196643   7.095   9.578   2.594 -0.7685 -0.2764  1.3848
31122SOL    HW296644   7.035   9.694   2.670 -2.2264 -0.4968  0.6027
31123SOL     OW96645   0.086   9.026   1.904  0.0063 -0.6103 -0.1721
31123SOL    HW196646  -0.004   9.056   1.914  0.0782 -0.2203 -0.6391
31123SOL    HW296647   0.128   9.094   1.852  1.1929  0.4253  1.9692
31124SOL     OW96648   5.638  10.691   7.311  0.2122  0.0476  0.7133
31124SOL    HW196649   5.699  10.644   7.369  1.2863  1.1295  0.4905
31124SOL    HW296650   5.693  10.725   7.241 -0.7370  0.6472  0.2441
31125SOL     OW96651   1.920   7.701   7.539  0.0426  0.0255 -0.2169
31125SOL    HW196652   1.825   7.695   7.548 -0.4218  2.2876 -2.4028
31125SOL    HW296653   1.950   7.744   7.619 -0.4515 -2.1993  1.2676
31126SOL     OW96654   6.607  10.342   8.080  0.0484  0.1721 -0.3425
31126SOL    HW196655   6.536  10.278   8.071  1.9552 -2.1925  0.3933
31126SOL    HW296656   6.592  10.382   8.166 -1.1577  0.7783 -0.8067
31127SOL     OW96657   8.999   9.062   9.686  0.4566 -0.4643  0.0761
31127SOL    HW196658   8.915   9.088   9.723  0.7193  0.0409  0.3101
31127SOL    HW296659   8.984   8.972   9.655 -1.4395  0.9030 -3.6814
31128SOL     OW96660   1.945   6.448   1.240  0.0809 -0.3775  0.2409
31128SOL    HW196661   1.911   6.432   1.151 -0.0157  0.2671  0.1605
31128SOL    HW296662   1.891   6.391   1.295 -2.4144  1.8941  0.3428
31129SOL     OW96663   7.558   5.279   5.258  0.2606  0.0078 -0.0903
31129SOL    HW196664   7.497   5.292   5.331  1.2863  3.2325  0.3408
31129SOL    HW296665   7.528   5.339   5.191  1.0711 -0.7729 -1.1886
31130SOL     OW96666   0.139  10.181   9.970  0.2150  0.9024 -0.7668
31130SOL    HW196667   0.204  10.246   9.996  1.1705  0.6213 -2.3418
31130SOL    HW296668   0.188  10.114   9.923 -0.5620 -1.5975  1.7129
31131SOL     OW96669   2.229   6.184   7.238 -0.1908  0.3268 -0.0959
31131SOL    HW196670   2.300   6.245   7.260  0.4544  0.2642 -1.9022
31131SOL    HW296671   2.220   6.190   7.143 -1.2594 -1.1596 -0.1217
31132SOL     OW96672   6.964   6.048   7.585 -0.4798 -0.2287  0.5241
31132SOL    HW196673   6.977   6.066   7.492  1.8779 -1.5540  0.5061
31132SOL    HW296674   7.017   6.114   7.630 -1.0160 -0.0500  0.9043
31133SOL     OW96675   2.535   1.379   0.243  0.1028 -0.1207  0.0663
31133SOL    HW196676   2.458   1.415   0.287  1.2452  0.4032  1.7286
31133SOL    HW296677   2.547   1.292   0.282 -0.3744 -0.7606 -1.1425
31134SOL     OW96678   6.058   3.846   0.975 -0.3908 -0.1053 -0.4330
31134SOL    HW196679   6.141   3.818   0.936 -0.4754 -0.3860 -0.4143
31134SOL    HW296680   6.049   3.791   1.053 -2.0364 -2.2092 -1.9961
31135SOL     OW96681   1.310   4.523   2.492 -0.1940  0.0303  0.1821
31135SOL    HW196682   1.339   4.547   2.404  1.1952  1.0127  0.8685
31135SOL    HW296683   1.342   4.434   2.505 -0.7811 -0.2735 -0.4670
31136SOL     OW96684   7.617  11.294   0.233  0.0611 -0.1796 -0.6696
31136SOL    HW196685   7.592  11.264   0.145  2.3503 -0.4639 -1.2738
31136SOL    HW296686   7.709  11.270   0.241 -0.3714 -1.2430  2.2970
31137SOL     OW96687   6.471   7.910   5.247  0.3839 -0.5199 -0.1603
31137SOL    HW196688   6.507   7.997   5.232  1.2712 -0.5948  1.3718
31137SOL    HW296689   6.488   7.863   5.165 -0.8285  0.9459 -1.3094
31138SOL     OW96690   6.772  10.070   3.946  0.3618 -0.2700  0.4629
31138SOL    HW196691   6.781  10.105   4.034  1.5173 -0.4163  0.4289
31138SOL    HW296692   6.789  10.145   3.889 -0.0343 -0.2522  0.3715
31139SOL     OW96693   1.757  10.572   5.847  0.7778 -0.1178 -0.2271
31139SOL    HW196694   1.693  10.618   5.903  1.5143  1.0289 -0.2882
31139SOL    HW296695   1.822  10.639   5.827  0.3562 -0.3824 -2.7829
31140SOL     OW96696   6.277   5.898   8.789  0.2093  0.3876  0.3163
31140SOL    HW196697   6.275   5.914   8.694 -1.7963  1.0750  0.4271
31140SOL    HW296698   6.313   5.810   8.797 -1.9544 -0.7686 -1.3256
31141SOL     OW96699   9.651   8.500   6.693 -0.4311  0.3454 -0.2645
31141SOL    HW196700   9.670   8.542   6.609 -0.5473  1.6985  0.3518
31141SOL    HW296701   9.556   8.511   6.703 -0.4933 -0.2609 -0.1804
31142SOL     OW96702   0.742   0.379   8.972  0.2137 -0.1299  0.2177
31142SOL    HW196703   0.782   0.365   9.058 -0.5318  1.8899  0.9720
31142SOL    HW296704   0.690   0.301   8.957  0.4848 -0.6005  1.5400
31143SOL     OW96705   3.382   3.851   6.943 -0.1541  0.2982  0.5511
31143SOL    HW196706   3.437   3.929   6.952 -1.2392  1.3414 -1.3083
31143SOL    HW296707   3.292   3.884   6.945 -0.6213 -0.7401 -1.2996
31144SOL     OW96708   8.369   4.530   1.094 -0.1470  0.7249 -0.3143
31144SOL    HW196709   8.458   4.541   1.128 -0.3072 -0.9878  0.7996
31144SOL    HW296710   8.375   4.456   1.034 -0.6543  1.1723 -0.9226
31145SOL     OW96711   5.039   4.627   7.795  0.4181  0.4086 -0.2929
31145SOL    HW196712   4.961   4.619   7.850  0.8276 -0.3258  0.1969
31145SOL    HW296713   5.004   4.636   7.706 -0.2713  2.4180  0.1402
31146SOL     OW96714   1.671   0.977   8.161 -0.2331  0.1117 -0.3380
31146SOL    HW196715   1.589   0.938   8.130 -0.6080 -0.2085  1.0088
31146SOL    HW296716   1.725   0.983   8.082 -0.4842 -2.2953 -0.7753
31147SOL     OW96717   6.011   2.983   1.246 -0.0053  0.0969  0.1331
31147SOL    HW196718   6.082   3.021   1.195  0.9055  0.4571  1.5835
31147SOL    HW296719   5.978   2.911   1.192  0.4033  0.9105 -1.2483
31148SOL     OW96720   2.301   4.789   1.563 -0.0873  0.1817  0.2618
31148SOL    HW196721   2.387   4.761   1.593 -0.0381  1.4219  1.3643
31148SOL    HW296722   2.319   4.842   1.485 -0.0184 -0.9354 -0.5165
31149SOL     OW96723   0.340   9.955   2.285  0.1235 -0.1240  0.8483
31149SOL    HW196724   0.334   9.944   2.191  1.6753 -1.1680  0.8366
31149SOL    HW296725   0.421  10.005   2.298 -1.4902  2.5089  1.5159
31150SOL     OW96726   1.841  10.147   4.655  0.4828 -0.6413  0.0418
31150SOL    HW196727   1.847  10.179   4.566  0.1860 -1.0322 -0.1227
31150SOL    HW296728   1.867  10.222   4.710  2.3718 -0.9110 -0.4231
31151SOL     OW96729  10.477  10.925   8.833  0.2405 -0.1788 -0.0894
31151SOL    HW196730  10.503  11.007   8.874 -0.1450 -0.7033  1.2355
31151SOL    HW296731  10.429  10.952   8.755  2.3451  0.8174 -1.1302
31152SOL     OW96732  10.731   0.940   0.213 -0.0232  0.3447  0.5954
31152SOL    HW196733  10.775   0.932   0.129 -2.4602 -1.8761 -0.6228
31152SOL    HW296734  10.788   0.894   0.275  0.7400  0.0773 -0.2984
31153SOL     OW96735   9.404  11.139   0.204 -0.3894  0.1510  1.1688
31153SOL    HW196736   9.373  11.193   0.131  3.3663 -1.4411 -1.9727
31153SOL    HW296737   9.369  11.052   0.186 -0.6380  0.0528  2.1184
31154SOL     OW96738   8.787   7.568   6.817  0.6034 -0.0119 -0.1033
31154SOL    HW196739   8.712   7.613   6.856  2.1593  1.3755  1.4433
31154SOL    HW296740   8.812   7.624   6.743  2.2215  1.5241  1.5120
31155SOL     OW96741   8.155  10.008   7.503 -0.6547 -0.2024  0.5135
31155SOL    HW196742   8.129  10.033   7.414  1.7033  1.1455  0.1371
31155SOL    HW296743   8.154  10.090   7.552 -0.3538 -0.6672  1.3129
31156SOL     OW96744   9.990   9.508   2.598  0.3198  0.2430  0.7533
31156SOL    HW196745   9.920   9.569   2.622 -0.5767 -0.4471 -0.0338
31156SOL    HW296746  10.023   9.541   2.514  2.5075  1.8566  2.1551
31157SOL     OW96747   4.510   8.803   2.847  0.5335  0.5018 -0.0440
31157SOL    HW196748   4.519   8.897   2.832  0.7354  0.5197  0.1804
31157SOL    HW296749   4.497   8.766   2.760 -0.9238  0.8822 -0.0145
31158SOL     OW96750   9.557   9.415   7.063  0.0897  0.3005  0.3016
31158SOL    HW196751   9.622   9.351   7.091  2.7478  2.9231  0.6861
31158SOL    HW296752   9.512   9.373   6.990  0.7126 -2.4527  1.3686
31159SOL     OW96753   3.170   0.967   5.594  0.1187  0.0268  0.1855
31159SOL    HW196754   3.233   0.957   5.666 -0.1851 -1.1389  0.3081
31159SOL    HW296755   3.132   0.880   5.583 -1.5731  0.7173  0.2020
31160SOL     OW96756  11.362   3.599   5.204 -0.2610 -0.3940  0.1456
31160SOL    HW196757  11.348   3.543   5.280 -0.0126 -2.9398 -1.5411
31160SOL    HW296758  11.417   3.547   5.145 -1.0658  1.1142 -2.0986
31161SOL     OW96759   1.885   5.235   5.673 -0.7147  0.4777 -0.2293
31161SOL    HW196760   1.851   5.324   5.681  1.1434  1.1144  1.3557
31161SOL    HW296761   1.902   5.207   5.763 -1.1502 -1.4606 -0.6979
31162SOL     OW96762   6.214   0.143   6.947  0.2124  0.4980  0.1057
31162SOL    HW196763   6.169   0.081   7.004 -1.7674  1.7720 -0.0014
31162SOL    HW296764   6.235   0.092   6.869  1.1532 -0.7286  1.1059
31163SOL     OW96765   4.469   1.007   9.772 -0.2454 -0.4365  0.6177
31163SOL    HW196766   4.416   0.983   9.848 -0.5402  1.4059  1.0282
31163SOL    HW296767   4.539   1.063   9.808 -0.9628  1.3031 -0.5558
31164SOL     OW96768   2.987   7.071   2.127 -0.7115 -0.2749  0.3906
31164SOL    HW196769   3.067   7.018   2.129 -0.6995 -0.2488  1.5289
31164SOL    HW296770   2.932   7.031   2.060  1.3233  1.3113 -2.4915
31165SOL     OW96771  10.617   5.552   4.780  0.4661  0.1315  0.0249
31165SOL    HW196772  10.700   5.505   4.787  0.5341  0.1894 -0.3911
31165SOL    HW296773  10.615   5.609   4.857  1.8386  1.7791 -1.0765
31166SOL     OW96774   7.188   5.987   9.607  0.5313  0.0643  0.1596
31166SOL    HW196775   7.174   6.030   9.522 -1.1419 -1.0673 -0.1933
31166SOL    HW296776   7.281   5.999   9.625  0.9863  0.1099 -1.9519
31167SOL     OW96777   9.301   6.424  10.925  0.2855  0.6073  0.2112
31167SOL    HW196778   9.340   6.349  10.970  0.1521  0.2465 -0.2689
31167SOL    HW296779   9.279   6.485  10.995 -1.7165 -0.7723  0.8619
31168SOL     OW96780   5.741   4.279   4.665  0.1225 -0.2128  0.2112
31168SOL    HW196781   5.818   4.223   4.672 -0.6142 -1.2032  0.5003
31168SOL    HW296782   5.667   4.220   4.674 -0.7144  0.5055 -1.4591
31169SOL     OW96783   3.349   7.268   7.373 -0.0188  0.2918 -0.2339
31169SOL    HW196784   3.347   7.192   7.315 -0.8674 -1.1744  1.6061
31169SOL    HW296785   3.259   7.279   7.403  0.2121  1.6374  0.0565
31170SOL     OW96786   3.183   5.897   5.624  0.2713 -0.3854 -0.2488
31170SOL    HW196787   3.095   5.920   5.595  0.0473 -0.0283  0.6737
31170SOL    HW296788   3.238   5.968   5.591  0.0424 -0.0617  0.0539
31171SOL     OW96789   1.933   8.195   9.299  0.1413  0.1209  0.1069
31171SOL    HW196790   1.973   8.258   9.360  1.6529 -1.7011  1.0902
31171SOL    HW296791   1.976   8.214   9.215  0.7202  0.2780  0.4317
31172SOL     OW96792   7.511   4.455  11.177 -0.1315 -0.1748  0.2492
31172SOL    HW196793   7.445   4.418  11.118  0.6107 -1.1072 -0.0124
31172SOL    HW296794   7.591   4.460  11.124  0.3263 -0.2290  0.9189
31173SOL     OW96795   2.053  11.053   5.452  0.2350  0.4991  0.2466
31173SOL    HW196796   2.052  11.011   5.538  0.0578  0.6555  0.3225
31173SOL    HW296797   2.125  11.117   5.458  0.3217  0.4033  0.2261
31174SOL     OW96798  11.181   6.846   2.650 -0.1112 -0.1966  0.1795
31174SOL    HW196799  11.273   6.838   2.625 -0.3691 -1.9810 -0.3332
31174SOL    HW296800  11.180   6.836   2.746  0.2959  0.8371  0.3072
31175SOL     OW96801   4.734   3.252   1.773 -0.2070 -0.3139 -0.4879
31175SOL    HW196802   4.754   3.346   1.773  0.3125 -0.4174  0.2287
31175SOL    HW296803   4.717   3.230   1.864  0.3614 -1.0539 -0.5486
31176SOL     OW96804   1.848   5.361   6.388  0.0747 -0.6173 -0.6337
31176SOL    HW196805   1.885   5.316   6.464 -0.9253  0.2037  0.3810
31176SOL    HW296806   1.758   5.329   6.383  0.1615 -0.7476 -1.5654
31177SOL     OW96807   4.882   3.919   9.948 -0.0744 -0.0952 -0.1086
31177SOL    HW196808   4.793   3.890   9.968  0.3181 -0.7642  0.7265
31177SOL    HW296809   4.895   3.996  10.002  0.4698 -1.0488  1.1659
31178SOL     OW96810   4.472   6.993   4.549  0.3079 -0.3589  0.2954
31178SOL    HW196811   4.513   7.049   4.614 -1.2986  1.7808 -0.4004
31178SOL    HW296812   4.536   6.987   4.478  1.0586 -0.5943  0.9841
31179SOL     OW96813   8.495   3.005  10.748 -0.1998 -0.0767  0.3361
31179SOL    HW196814   8.427   2.954  10.704 -1.1091 -0.1630  1.7735
31179SOL    HW296815   8.501   2.967  10.836  1.4283  0.1995  0.3813
31180SOL     OW96816   1.693   9.193   8.306  0.0480  0.1059 -0.5827
31180SOL    HW196817   1.703   9.122   8.242 -1.2249 -1.0127  0.4292
31180SOL    HW296818   1.773   9.188   8.359 -0.5547 -1.3795  0.2400
31181SOL     OW96819   7.127   4.169   7.212 -0.0209 -0.1051 -0.0492
31181SOL    HW196820   7.135   4.249   7.160  0.6427  0.7331  1.2833
31181SOL    HW296821   7.048   4.126   7.178 -1.7327  2.2424  0.6853
31182SOL     OW96822   1.252   7.348   9.103 -0.2898 -0.1471  0.0119
31182SOL    HW196823   1.192   7.331   9.030  0.1846  0.5913 -0.5564
31182SOL    HW296824   1.253   7.443   9.113 -0.1110 -0.2191  0.7891
31183SOL     OW96825   8.936  11.209   7.771  0.2051  0.4687 -0.3109
31183SOL    HW196826   9.014  11.174   7.816 -0.1986  0.4305  0.3689
31183SOL    HW296827   8.916  11.290   7.817 -0.5556  0.1361 -0.0394
31184SOL     OW96828   1.965   6.445   2.406  0.4717  0.2399 -0.3093
31184SOL    HW196829   1.905   6.385   2.361 -0.3136  0.3447  0.5701
31184SOL    HW296830   2.038   6.455   2.345 -1.6579  2.3801 -2.7993
31185SOL     OW96831   0.857   7.369   1.988 -0.3493  0.0410 -0.1207
31185SOL    HW196832   0.867   7.335   1.899 -1.9712  1.1256 -0.7739
31185SOL    HW296833   0.763   7.364   2.004 -0.1080  0.1926  1.4130
31186SOL     OW96834   1.333   1.050   7.955 -0.1933  0.3192 -0.1071
31186SOL    HW196835   1.341   1.139   7.989 -1.9314 -0.3856  2.4474
31186SOL    HW296836   1.240   1.030   7.962  0.2714 -2.0222  0.3346
31187SOL     OW96837   0.373   2.763   0.343  0.9543  0.3106 -0.2582
31187SOL    HW196838   0.457   2.754   0.388 -0.0352 -3.1522  1.2714
31187SOL    HW296839   0.336   2.674   0.345 -3.4187  1.9031  0.5466
31188SOL     OW96840   4.009   4.001   3.583  0.0285  0.0818  0.2778
31188SOL    HW196841   3.941   4.057   3.546 -2.5426 -1.9057  1.6385
31188SOL    HW296842   4.036   4.045   3.663 -0.7682  0.1831  0.4962
31189SOL     OW96843   2.774   2.933   0.469 -0.3075 -0.2056  0.1418
31189SOL    HW196844   2.706   2.994   0.498  0.3250  0.2610  0.6714
31189SOL    HW296845   2.754   2.917   0.377 -0.4715  0.8221 -0.0139
31190SOL     OW96846   5.080   2.731   7.934 -0.3524 -0.1389 -0.0387
31190SOL    HW196847   5.004   2.724   7.876 -0.1722 -1.1080 -0.1738
31190SOL    HW296848   5.134   2.655   7.913  0.6349  0.4962  0.0999
31191SOL     OW96849  11.119  10.598   1.521 -0.0781 -0.5919 -0.5036
31191SOL    HW196850  11.187  10.644   1.571  1.5460 -1.8090 -1.4751
31191SOL    HW296851  11.109  10.515   1.567 -2.2708  0.2345  0.6599
31192SOL     OW96852   5.111   2.716   0.738  0.1264 -0.2371 -0.2862
31192SOL    HW196853   5.096   2.789   0.679  0.1105 -0.2946 -0.3545
31192SOL    HW296854   5.072   2.641   0.693  0.4292 -0.3471 -0.3687
31193SOL     OW96855   5.950   6.673   4.277 -0.1267  0.4902 -0.1206
31193SOL    HW196856   6.027   6.729   4.286 -0.4224  0.6489  1.6811
31193SOL    HW296857   5.884   6.713   4.333 -0.3020 -1.6954  1.3848
31194SOL     OW96858   9.440   8.835   6.673  0.1180 -0.3689  0.4824
31194SOL    HW196859   9.415   8.748   6.643  0.3249 -0.0493 -0.6672
31194SOL    HW296860   9.364   8.866   6.723  0.4023 -1.5486  1.6861
31195SOL     OW96861   4.471   0.209   9.612 -0.0317 -0.1933 -0.1625
31195SOL    HW196862   4.496   0.295   9.646 -2.1321  0.2530  0.3907
31195SOL    HW296863   4.426   0.167   9.685 -0.0890 -1.3095 -0.8126
31196SOL     OW96864   6.674   2.299   0.390 -0.4229 -0.1995  0.1280
31196SOL    HW196865   6.654   2.351   0.312 -2.1069 -0.5852  0.2688
31196SOL    HW296866   6.680   2.210   0.358 -2.7032 -0.5890  0.6110
31197SOL     OW96867   0.804   6.903   5.880 -0.4271 -0.3690 -0.2750
31197SOL    HW196868   0.871   6.970   5.888 -0.8495  0.3633 -2.1698
31197SOL    HW296869   0.735   6.931   5.940  0.1247 -0.0500  0.2217
31198SOL     OW96870   7.800   3.473   6.665  0.0288 -0.4877 -0.1940
31198SOL    HW196871   7.887   3.438   6.647  0.6921  1.5225 -1.2203
31198SOL    HW296872   7.758   3.480   6.579 -1.0097 -1.0496  0.2446
31199SOL     OW96873   5.494   6.364   6.386 -0.2423 -0.1279  0.1099
31199SOL    HW196874   5.441   6.444   6.392 -0.9369 -0.5524 -0.2786
31199SOL    HW296875   5.504   6.335   6.476  0.5450  0.7300  0.3170
31200SOL     OW96876   5.081   7.041   4.018 -0.1824  0.4948  0.8061
31200SOL    HW196877   5.138   7.041   3.940  0.9513  0.7166  1.6061
31200SOL    HW296878   5.045   7.130   4.021 -1.9329 -0.1036 -0.6242
31201SOL     OW96879   8.072   4.019   4.787 -0.1788 -0.1173 -0.0556
31201SOL    HW196880   7.998   3.977   4.832 -1.2755  2.9314  1.2800
31201SOL    HW296881   8.033   4.097   4.747  2.2671  1.4358  0.4305
31202SOL     OW96882   9.249  10.183  10.418 -0.1246  0.3850  0.3294
31202SOL    HW196883   9.246  10.205  10.325  0.2737 -0.8977 -0.0011
31202SOL    HW296884   9.323  10.124  10.427  0.6028  1.4422  1.6952
31203SOL     OW96885   0.663   9.569   7.243 -0.5337  0.0238 -0.0228
31203SOL    HW196886   0.588   9.581   7.302 -0.0635  0.1437  0.5702
31203SOL    HW296887   0.660   9.645   7.184 -1.2563 -0.3215 -0.4349
31204SOL     OW96888   8.973   8.339   5.519 -0.5569  0.7248 -0.0497
31204SOL    HW196889   8.903   8.394   5.483 -1.4152  0.3160  0.9748
31204SOL    HW296890   8.980   8.365   5.610 -1.9763 -1.7957  0.8857
31205SOL     OW96891   6.817   4.587   0.481  0.5376 -0.1776 -0.3989
31205SOL    HW196892   6.879   4.658   0.499 -0.1995  0.7733 -1.4036
31205SOL    HW296893   6.764   4.580   0.560  2.1380 -1.2861  0.6368
31206SOL     OW96894   3.914   7.845   5.872 -0.2614 -0.1362  0.3002
31206SOL    HW196895   3.835   7.829   5.924  0.1936  0.4577  1.2039
31206SOL    HW296896   3.884   7.901   5.801 -0.8407 -0.7330  0.0541
31207SOL     OW96897   9.896   7.531   3.207  0.1943 -0.1113 -0.0261
31207SOL    HW196898   9.950   7.607   3.231  0.3228 -0.6225  1.3970
31207SOL    HW296899   9.959   7.467   3.174  0.5026 -0.7050  1.6264
31208SOL     OW96900   4.730   2.306   1.232 -0.3554  0.2157  0.2544
31208SOL    HW196901   4.680   2.386   1.251  0.3264  0.5736  0.5551
31208SOL    HW296902   4.723   2.296   1.137 -0.6733  0.4770  0.2481
31209SOL     OW96903   6.137   7.002  10.041  0.1505 -0.0784 -0.4437
31209SOL    HW196904   6.112   7.055  10.116  2.5814  2.0659 -0.9930
31209SOL    HW296905   6.188   6.930  10.078  0.2649  0.2560  0.0497
31210SOL     OW96906   5.006   3.493  10.049  0.2079 -0.1694 -0.0105
31210SOL    HW196907   4.975   3.557   9.985 -0.0992  0.9230  1.1947
31210SOL    HW296908   5.059   3.543  10.110 -3.4081 -0.0320  3.4517
31211SOL     OW96909   1.576   8.757   3.091  0.2032  0.3910 -0.4618
31211SOL    HW196910   1.487   8.729   3.112  0.1514  0.7921 -0.1215
31211SOL    HW296911   1.609   8.692   3.029  0.2771 -0.6921  0.7017
31212SOL     OW96912   8.026   1.429   4.798  0.1564 -0.4920 -0.3353
31212SOL    HW196913   8.054   1.513   4.761 -0.1413  0.4920  1.5506
31212SOL    HW296914   7.940   1.413   4.759 -0.3050  0.6823  0.1372
31213SOL     OW96915   9.258   2.332  10.559 -0.4035 -0.6343  0.0596
31213SOL    HW196916   9.202   2.303  10.487 -1.0002  0.7271 -0.0602
31213SOL    HW296917   9.314   2.400  10.519 -0.7303  0.1269  0.8701
31214SOL     OW96918   9.323   9.905   0.089  0.3067 -0.3967  0.7724
31214SOL    HW196919   9.329   9.952   0.006  0.2311  0.4274  1.2234
31214SOL    HW296920   9.233   9.871   0.091  0.1139  0.1080  0.7901
31215SOL     OW96921   3.611  10.641   6.259  0.0214 -0.2830  0.4052
31215SOL    HW196922   3.583  10.678   6.343  1.0568  0.0435  0.6247
31215SOL    HW296923   3.616  10.547   6.274 -1.0093 -0.3659  0.3301
31216SOL     OW96924   4.207   1.191   4.732 -0.2527  0.6650 -0.1643
31216SOL    HW196925   4.222   1.137   4.809 -2.0950  0.1649 -0.1133
31216SOL    HW296926   4.262   1.268   4.746 -0.1884  0.3621  1.4281
31217SOL     OW96927   5.988   9.814   2.973 -0.7268  0.6698 -0.2739
31217SOL    HW196928   5.964   9.749   2.908  1.1784  0.5992 -0.9816
31217SOL    HW296929   5.987   9.767   3.056 -0.6187  0.0679 -0.6141
31218SOL     OW96930   1.370   4.568   1.192 -0.5547  0.2318  0.0471
31218SOL    HW196931   1.375   4.648   1.243  1.2558  0.0176  0.2739
31218SOL    HW296932   1.427   4.584   1.116  0.6722 -1.1457  0.6110
31219SOL     OW96933   0.896   2.369   3.465 -0.3375  0.5881  0.1033
31219SOL    HW196934   0.811   2.388   3.506  0.4127  0.0230  2.0184
31219SOL    HW296935   0.881   2.287   3.418 -1.1727  1.1609 -0.6851
31220SOL     OW96936   4.624   2.741   2.968 -0.2166  0.4495 -0.2086
31220SOL    HW196937   4.529   2.751   2.970 -0.2912 -0.0355 -0.8941
31220SOL    HW296938   4.648   2.761   2.877  0.5951  2.6778  0.4159
31221SOL     OW96939   4.603   4.942  10.976  0.1003 -0.4214  0.5567
31221SOL    HW196940   4.670   4.891  10.931 -0.5298 -0.0046 -0.9120
31221SOL    HW296941   4.530   4.882  10.986  0.5941 -0.8216  1.9962
31222SOL     OW96942  11.198   5.316   2.584 -0.2123 -0.0087 -0.3055
31222SOL    HW196943  11.166   5.340   2.497 -0.4008 -0.4247 -0.3529
31222SOL    HW296944  11.166   5.227   2.598  2.6317 -1.2478 -1.1703
31223SOL     OW96945   6.944   0.533   8.454  0.4973  0.1602  0.1890
31223SOL    HW196946   7.000   0.470   8.407  1.0065 -0.6493  1.8235
31223SOL    HW296947   6.861   0.488   8.464 -0.4676  1.2673 -2.0097
31224SOL     OW96948   8.931   8.131   3.905  0.3395 -0.1364 -0.0278
31224SOL    HW196949   8.862   8.151   3.842  1.1225  3.3585  0.0562
31224SOL    HW296950   8.996   8.082   3.855 -0.0598  0.6526 -1.3546
31225SOL     OW96951   2.666   6.032   7.385 -0.1377 -0.1624  0.0009
31225SOL    HW196952   2.610   5.955   7.380 -0.2869 -0.1558  1.1504
31225SOL    HW296953   2.755   5.998   7.382 -0.2021 -0.2467 -0.9808
31226SOL     OW96954   2.014   0.673   4.765 -0.3711  0.1863  0.0870
31226SOL    HW196955   1.974   0.594   4.729  0.1612  1.3272 -3.4589
31226SOL    HW296956   2.094   0.685   4.713  1.4088  1.2732  2.8288
31227SOL     OW96957   2.950   4.889   2.521 -0.1870 -0.1519 -0.5934
31227SOL    HW196958   2.926   4.981   2.512 -1.4623 -0.3820  0.2859
31227SOL    HW296959   3.046   4.890   2.525 -0.1873  1.1449 -0.5016
31228SOL     OW96960   8.171   9.723   5.308 -0.1331 -0.5387 -0.4779
31228SOL    HW196961   8.175   9.768   5.393 -1.2514 -1.0252 -0.1423
31228SOL    HW296962   8.215   9.782   5.247 -0.9396  0.7024  0.0921
31229SOL     OW96963  10.938   9.998   8.603  0.0802  0.4086 -0.5726
31229SOL    HW196964  10.913  10.002   8.510  1.4887  1.1520 -0.9480
31229SOL    HW296965  11.009   9.934   8.606 -0.1099  0.2199  0.0381
31230SOL     OW96966   9.710   3.218   9.227 -0.7256 -0.0639 -0.4517
31230SOL    HW196967   9.742   3.195   9.140 -1.5321 -0.0452 -0.7615
31230SOL    HW296968   9.706   3.314   9.227  0.1584 -0.0170 -0.0624
31231SOL     OW96969   6.457   9.605   8.390  0.1619  0.1228 -0.5049
31231SOL    HW196970   6.520   9.534   8.378 -0.0715 -0.1963  0.1031
31231SOL    HW296971   6.479   9.669   8.323 -0.4918 -1.1331 -1.9767
31232SOL     OW96972   7.555  11.378   8.340  0.0860 -0.5464 -0.2308
31232SOL    HW196973   7.529  11.392   8.249 -0.3179 -0.7137 -0.1393
31232SOL    HW296974   7.608  11.298   8.337 -0.8474 -1.1765 -0.1517
31233SOL     OW96975  11.234   6.280   6.905 -0.1686  0.1142 -0.1504
31233SOL    HW196976  11.324   6.250   6.891 -0.3930 -0.3586 -0.6159
31233SOL    HW296977  11.211   6.248   6.992 -0.1763 -0.4935 -0.3743
31234SOL     OW96978   1.577   5.203   3.676 -0.2023  0.0169  0.2615
31234SOL    HW196979   1.581   5.147   3.599  0.8594 -1.5102  1.3677
31234SOL    HW296980   1.489   5.191   3.710 -0.1430 -0.5875  0.2083
31235SOL     OW96981   7.331   4.342  11.011  0.6138  0.2189 -0.0439
31235SOL    HW196982   7.250   4.303  11.046  0.0455  1.2786 -0.1318
31235SOL    HW296983   7.384   4.267  10.984 -0.6779 -0.4873 -0.7342
31236SOL     OW96984   7.874   2.771   3.195  0.2812  0.1165 -0.3404
31236SOL    HW196985   7.827   2.781   3.112  0.0818  0.1890 -0.2176
31236SOL    HW296986   7.934   2.698   3.180 -1.3419 -1.3712  0.1812
31237SOL     OW96987   5.515   4.391   1.345  0.0038 -0.6075  0.4936
31237SOL    HW196988   5.505   4.482   1.317 -1.2782 -0.6026  0.9309
31237SOL    HW296989   5.551   4.347   1.268  1.2915  0.3816  0.4953
31238SOL     OW96990   9.880   2.450   4.654 -0.3584 -0.2133  0.4618
31238SOL    HW196991   9.807   2.388   4.644 -0.3196 -0.1799 -0.1004
31238SOL    HW296992   9.957   2.399   4.629 -0.4056  0.2400 -0.6591
31239SOL     OW96993   0.158  11.194  10.806 -0.5941  0.0609  0.4335
31239SOL    HW196994   0.242  11.236  10.789 -0.4849  0.2266  1.3225
31239SOL    HW296995   0.176  11.100  10.805 -0.7697  0.0068 -1.2076
31240SOL     OW96996   4.176   5.625   6.520 -0.7808  0.2212 -0.2449
31240SOL    HW196997   4.238   5.665   6.459 -0.7827  1.7680  0.7305
31240SOL    HW296998   4.229   5.593   6.592 -1.0568  1.2893  0.4544
31241SOL     OW96999  10.260   8.828   1.905 -0.5538  0.2251 -0.9895
31241SOL    HW197000  10.240   8.736   1.922 -2.3111  1.0953  2.5242
31241SOL    HW297001  10.355   8.829   1.888 -0.2900 -2.0938 -0.0315
31242SOL     OW97002   3.543   8.173  10.418  0.1830 -0.4524  0.0705
31242SOL    HW197003   3.494   8.254  10.414 -1.6734 -1.5716 -1.8883
31242SOL    HW297004   3.629   8.194  10.380  0.0326  0.7602  0.3931
31243SOL     OW97005   6.856   1.925   6.329  0.0322 -0.1108  0.0350
31243SOL    HW197006   6.903   1.863   6.272 -0.7982  1.8955 -3.1324
31243SOL    HW297007   6.926   1.976   6.370  0.6729 -1.9715  1.4259
31244SOL     OW97008   1.828   3.209   4.602  0.2619  0.0166 -0.2036
31244SOL    HW197009   1.780   3.134   4.566  0.0581  0.7147 -1.4128
31244SOL    HW297010   1.863   3.176   4.685 -2.2888 -0.5184  0.7537
31245SOL     OW97011  11.239   6.846  10.512  0.5896 -0.0231  0.0185
31245SOL    HW197012  11.328   6.867  10.540  1.2943 -0.1448 -1.9436
31245SOL    HW297013  11.213   6.773  10.567  2.4192 -1.1633 -0.5246
31246SOL     OW97014  11.217   8.928  10.836 -0.2588 -0.0608 -0.2844
31246SOL    HW197015  11.226   9.015  10.875  1.5165 -0.4602  0.2420
31246SOL    HW297016  11.288   8.923  10.772 -1.0005 -0.7494 -1.0839
31247SOL     OW97017   4.782   2.364  11.371 -0.3002  0.1640  0.2544
31247SOL    HW197018   4.771   2.427  11.300  1.9357  2.9424  2.1161
31247SOL    HW297019   4.874   2.337  11.365 -0.6905 -1.3563  0.7373
31248SOL     OW97020   1.431  11.381   9.089  0.0377  0.5424  0.1135
31248SOL    HW197021   1.425  11.356   8.997 -1.2842  1.1293  0.0182
31248SOL    HW297022   1.507  11.439   9.093  0.9711 -0.6097 -0.3207
31249SOL     OW97023   4.238   9.507   0.132  0.0552 -0.7240 -0.4149
31249SOL    HW197024   4.333   9.505   0.143  0.0119  0.1336  0.1823
31249SOL    HW297025   4.206   9.435   0.187  0.2774 -0.2659  0.3256
31250SOL     OW97026  10.959   5.200   8.793  0.1579  0.1045  0.1116
31250SOL    HW197027  11.049   5.234   8.793  1.2356 -2.4904  1.0267
31250SOL    HW297028  10.966   5.114   8.752 -1.6235 -0.7791  1.5265
31251SOL     OW97029   7.389   3.077  11.198  0.2924  0.5512 -0.4424
31251SOL    HW197030   7.331   3.056  11.125  0.0084 -0.4306  0.0498
31251SOL    HW297031   7.400   2.994  11.245  0.8066  1.0749  0.3916
31252SOL     OW97032   8.294   6.237   0.062 -0.1926  0.2261  0.6226
31252SOL    HW197033   8.365   6.200   0.008 -0.8908 -2.2996  1.2819
31252SOL    HW297034   8.226   6.259  -0.001  0.0674 -0.1051  0.2142
31253SOL     OW97035   1.493   6.836  10.971  0.0304  0.5305  0.3162
31253SOL    HW197036   1.409   6.882  10.975  0.3396  1.3186 -1.2461
31253SOL    HW297037   1.547   6.880  11.037 -0.7468  0.0657  1.2782
31254SOL     OW97038   3.233   4.760   1.761  0.4628 -0.1142  0.0273
31254SOL    HW197039   3.212   4.795   1.848 -0.5751 -0.6807  0.0241
31254SOL    HW297040   3.305   4.815   1.729 -0.3621  1.2721  0.4931
31255SOL     OW97041   7.215  10.853   8.061  0.1372 -0.0267  0.0011
31255SOL    HW197042   7.291  10.910   8.049  0.0962 -0.0862 -0.5761
31255SOL    HW297043   7.252  10.767   8.076  0.1852 -0.0907 -0.4734
31256SOL     OW97044   3.071   4.190   6.021  0.2113  0.2913 -0.2296
31256SOL    HW197045   3.090   4.118   6.081  1.9263 -0.7018 -1.8649
31256SOL    HW297046   3.032   4.148   5.944 -0.5134  1.3467 -0.4614
31257SOL     OW97047   1.910   5.894   5.015  0.3819 -0.1567  0.0959
31257SOL    HW197048   1.973   5.938   5.072  1.0822  0.7821 -1.3665
31257SOL    HW297049   1.957   5.818   4.981  1.2319  1.2436 -2.0083
31258SOL     OW97050   4.305  11.238   1.915 -0.5907 -0.2661 -0.3837
31258SOL    HW197051   4.387  11.222   1.867 -1.2145 -0.7530 -1.3341
31258SOL    HW297052   4.332  11.284   1.994  0.5215  0.2638 -1.0404
31259SOL     OW97053  10.876   8.826   1.669 -0.3685 -0.4950  0.1121
31259SOL    HW197054  10.966   8.811   1.639 -0.5468  2.2155 -2.2413
31259SOL    HW297055  10.856   8.915   1.640 -4.0773 -1.2407 -0.1301
31260SOL     OW97056   3.034   9.842  11.006 -0.0057 -0.0341 -0.4421
31260SOL    HW197057   3.052   9.934  11.024 -1.1849  0.4279 -1.4972
31260SOL    HW297058   2.943   9.841  10.975 -0.2668 -1.6544  0.2714
31261SOL     OW97059   4.531   5.159  10.623  0.0960 -0.1674  0.1709
31261SOL    HW197060   4.468   5.221  10.660  0.0427 -0.2198  0.1690
31261SOL    HW297061   4.502   5.073  10.656  1.0839 -0.0340  1.4821
31262SOL     OW97062   9.026   1.412  10.676  0.0711  0.5570 -0.4902
31262SOL    HW197063   9.027   1.318  10.695 -0.6150  0.1224 -2.4153
31262SOL    HW297064   8.969   1.449  10.743  1.2268 -0.2126  0.9743
31263SOL     OW97065   1.777   0.113   3.843 -0.4397  0.5610 -0.3574
31263SOL    HW197066   1.686   0.104   3.814 -0.9445 -0.1500  1.2786
31263SOL    HW297067   1.785   0.206   3.865 -1.7978  0.1508  2.3613
31264SOL     OW97068  11.334   9.416   2.052  0.3106 -0.1570  0.0922
31264SOL    HW197069  11.384   9.480   2.102  2.0072  0.0392 -1.7371
31264SOL    HW297070  11.285   9.468   1.988 -1.0746 -0.4746  0.8498
31265SOL     OW97071   1.265   1.611   7.693 -0.2410 -0.6761  0.5737
31265SOL    HW197072   1.247   1.524   7.658 -0.2339 -0.4283 -0.0470
31265SOL    HW297073   1.342   1.598   7.750  0.8882 -0.7625 -0.9134
31266SOL     OW97074   1.749  10.965   5.912  0.2616 -0.1002 -0.1727
31266SOL    HW197075   1.655  10.984   5.915  0.3065  0.4635 -1.5590
31266SOL    HW297076   1.777  10.969   6.003 -0.6640  1.8880  0.0855
31267SOL     OW97077   2.070   3.351   2.916 -0.7072 -0.8460  0.5204
31267SOL    HW197078   2.023   3.339   2.999 -1.0796 -0.7817  0.3234
31267SOL    HW297079   2.001   3.348   2.850 -0.4207 -0.8044  0.2206
31268SOL     OW97080   3.097   2.021   0.717  0.2945 -0.7467 -0.4376
31268SOL    HW197081   3.024   2.080   0.733  0.9587 -0.4875  2.2988
31268SOL    HW297082   3.057   1.935   0.703 -0.5779 -0.2293 -1.1493
31269SOL     OW97083   6.604  11.084   7.718  0.3763  0.1888 -0.1511
31269SOL    HW197084   6.533  11.148   7.709 -0.3906 -0.5157  0.7839
31269SOL    HW297085   6.648  11.085   7.633 -2.0736 -0.9275 -1.5152
31270SOL     OW97086   9.578   8.833   6.359  0.6640 -1.2647  0.0434
31270SOL    HW197087   9.487   8.856   6.343  0.6735 -1.2709 -0.0186
31270SOL    HW297088   9.620   8.840   6.273  0.8182 -0.8211  0.1540
31271SOL     OW97089  11.289   3.167   0.802  0.1286 -0.1770  0.3293
31271SOL    HW197090  11.233   3.144   0.876  1.5653 -0.8679  1.2659
31271SOL    HW297091  11.302   3.084   0.755 -0.9176  0.2960 -0.8101
31272SOL     OW97092   7.956   5.342   0.137  0.5526 -0.2777 -0.2207
31272SOL    HW197093   8.018   5.323   0.066 -0.2084  0.8764 -1.2297
31272SOL    HW297094   7.887   5.393   0.095 -0.1904 -0.0289  1.2588
31273SOL     OW97095   5.408   2.698   7.483 -0.5039  0.0875 -0.3425
31273SOL    HW197096   5.357   2.633   7.434 -1.0407  1.2674 -1.4127
31273SOL    HW297097   5.498   2.687   7.451 -0.7479  0.4421 -1.1958
31274SOL     OW97098   0.821   6.796  11.385 -0.2581  0.0556  0.3384
31274SOL    HW197099   0.782   6.863  11.440 -0.2900  0.4749 -0.1920
31274SOL    HW297100   0.882   6.750  11.443  1.2149  1.7791  0.2473
31275SOL     OW97101   4.598   9.803   4.163 -0.4714  0.0536 -0.3319
31275SOL    HW197102   4.637   9.728   4.118  2.2219  1.0672  0.1485
31275SOL    HW297103   4.543   9.764   4.231  1.7704 -1.5917  0.6851
31276SOL     OW97104  10.337   6.226   0.891 -0.2691  0.4369 -0.3766
31276SOL    HW197105  10.251   6.261   0.865  0.4061  0.3686 -2.9869
31276SOL    HW297106  10.324   6.131   0.892 -0.4832  0.4706  0.2948
31277SOL     OW97107  10.686   0.447   2.684 -0.1701 -0.0413  0.0845
31277SOL    HW197108  10.633   0.511   2.732 -0.0676  0.7936 -0.8641
31277SOL    HW297109  10.624   0.377   2.663 -0.0899 -0.6730  1.8424
31278SOL     OW97110   2.964   0.727  11.189 -0.2103  0.0155 -0.7638
31278SOL    HW197111   2.952   0.776  11.270 -0.3896 -0.7272 -0.3239
31278SOL    HW297112   3.001   0.790  11.127 -0.6154  0.7428 -0.2807
31279SOL     OW97113   2.588   7.309   0.211  0.8447 -0.2837  0.2290
31279SOL    HW197114   2.672   7.352   0.228  0.0419  1.5575 -0.2183
31279SOL    HW297115   2.585   7.300   0.116 -0.3948  1.7509  0.0322
31280SOL     OW97116   8.796   5.979   2.647  0.0845  0.4329 -0.6147
31280SOL    HW197117   8.759   5.981   2.559 -0.5262  1.2743 -0.3486
31280SOL    HW297118   8.787   5.888   2.675 -0.7533  0.3946 -0.9885
31281SOL     OW97119   9.722   7.326  10.815 -0.2398 -0.6051 -0.3622
31281SOL    HW197120   9.692   7.316  10.724 -0.6485  0.3998 -0.3532
31281SOL    HW297121   9.816   7.343  10.807 -0.0625 -1.5852 -0.5219
31282SOL     OW97122   3.925   7.825   6.881 -1.0558 -0.3197 -0.4337
31282SOL    HW197123   3.976   7.768   6.823  0.8584  0.4053  0.4498
31282SOL    HW297124   3.889   7.767   6.947 -0.4084 -0.7200 -0.4226
31283SOL     OW97125   2.282   2.101   1.590  0.1053  0.3609 -0.3043
31283SOL    HW197126   2.298   2.051   1.670 -0.0810  0.2261 -0.3483
31283SOL    HW297127   2.187   2.114   1.590  0.2920  1.9544  0.4441
31284SOL     OW97128  10.648   3.531   1.211 -0.5077  0.7345 -0.0669
31284SOL    HW197129  10.688   3.564   1.291  0.4967 -1.7431  0.5471
31284SOL    HW297130  10.554   3.530   1.230 -0.3581  1.0056  0.7376
31285SOL     OW97131   1.463  11.122   2.366 -0.0596  0.3180  0.1724
31285SOL    HW197132   1.536  11.065   2.342 -0.1264  0.5391 -0.5967
31285SOL    HW297133   1.388  11.086   2.319 -0.2247  0.6952  0.1444
31286SOL     OW97134  10.320   4.368   9.341  0.4750  0.2482 -0.1941
31286SOL    HW197135  10.239   4.417   9.357 -0.1162  0.1019 -2.3285
31286SOL    HW297136  10.326   4.307   9.415 -0.7623  1.0195  0.5896
31287SOL     OW97137   2.119   0.724   4.188  0.5316 -0.3325 -0.0267
31287SOL    HW197138   2.119   0.637   4.149 -1.0352 -0.3869  0.0235
31287SOL    HW297139   2.145   0.782   4.116 -0.7695 -0.6038 -0.7543
31288SOL     OW97140   0.689   0.222   3.795 -0.0628  0.3128 -0.8124
31288SOL    HW197141   0.683   0.317   3.805  1.6183  0.3168  0.6021
31288SOL    HW297142   0.620   0.188   3.852  1.0772  0.6602  0.8317
31289SOL     OW97143   0.351   9.366   8.323 -0.6209  0.2536  0.4868
31289SOL    HW197144   0.348   9.290   8.265  1.9761  1.1969 -1.0712
31289SOL    HW297145   0.266   9.409   8.312 -1.2972 -1.2369 -0.2948
31290SOL     OW97146   6.423   1.312   4.719 -0.4678  0.1474 -0.4732
31290SOL    HW197147   6.438   1.389   4.774  1.4543  0.4020 -1.2593
31290SOL    HW297148   6.435   1.344   4.630 -1.0193 -0.7847 -0.8912
31291SOL     OW97149   6.252   8.153   5.343  0.3148  0.0448  0.1681
31291SOL    HW197150   6.305   8.102   5.404  1.9390  1.4439  0.0106
31291SOL    HW297151   6.271   8.115   5.257 -2.2141 -2.1298  0.4506
31292SOL     OW97152   2.414  10.948   9.826  0.1270  0.8379  0.2806
31292SOL    HW197153   2.401  10.945   9.921  0.1213 -0.6346  0.2544
31292SOL    HW297154   2.509  10.953   9.814  0.1221  1.1157  0.3720
31293SOL     OW97155   7.364   9.895   4.754  0.5075  0.0546 -0.3350
31293SOL    HW197156   7.458   9.885   4.738  0.3615  1.5227 -2.4215
31293SOL    HW297157   7.339   9.814   4.798  2.5400 -0.8554 -0.7311
31294SOL     OW97158   6.195  10.476   9.556  0.3719 -0.3715  0.1926
31294SOL    HW197159   6.162  10.551   9.506  0.7145 -0.6271 -0.4271
31294SOL    HW297160   6.136  10.469   9.631  0.2284  0.4083  0.1600
31295SOL     OW97161   7.549   3.047   7.574 -0.1238  1.1968  0.9006
31295SOL    HW197162   7.529   3.140   7.586  1.3612  1.3773  2.2724
31295SOL    HW297163   7.603   3.024   7.649 -0.8541 -0.9257  0.8475
31296SOL     OW97164   5.436  10.106   4.411  0.1554  0.5401  0.2969
31296SOL    HW197165   5.427  10.099   4.316  1.1611 -0.4517  0.2524
31296SOL    HW297166   5.349  10.130   4.442 -0.8368 -1.5203 -0.6790
31297SOL     OW97167   6.307   4.275   0.553 -0.4162 -0.5915  0.0582
31297SOL    HW197168   6.341   4.347   0.606 -1.7610  0.7132 -0.7798
31297SOL    HW297169   6.290   4.314   0.467  0.6104 -2.3721 -1.0243
31298SOL     OW97170   6.021   8.643   5.355  0.5638 -0.2548 -0.3743
31298SOL    HW197171   5.938   8.601   5.377  0.1935  0.2770 -0.7306
31298SOL    HW297172   6.087   8.577   5.375  0.0680 -0.6368  0.0405
31299SOL     OW97173  10.154   5.204   0.919 -0.0232 -0.3977  0.4418
31299SOL    HW197174  10.133   5.245   1.003  0.0172 -1.3142  0.9034
31299SOL    HW297175  10.232   5.251   0.888  0.1850 -0.3071  1.0933
31300SOL     OW97176   1.092  10.952   5.824  0.2471 -0.0072  0.0833
31300SOL    HW197177   1.162  10.967   5.887 -0.4344 -1.2247  1.1962
31300SOL    HW297178   1.037  11.031   5.829  1.0772  0.6000 -0.2085
31301SOL     OW97179   4.229   3.821   4.036 -0.2236 -0.6764 -0.1133
31301SOL    HW197180   4.142   3.860   4.041  0.0062 -0.2235  0.5813
31301SOL    HW297181   4.230   3.775   3.953 -0.4910  0.8312 -0.9908
31302SOL     OW97182  10.452   4.919   8.082  0.4291 -0.1414 -0.4222
31302SOL    HW197183  10.366   4.927   8.042  0.7881 -1.4459 -1.5282
31302SOL    HW297184  10.512   4.902   8.009  1.7197  1.1979  0.2602
31303SOL     OW97185   7.952   4.251   4.697  0.2832  1.2867  0.8422
31303SOL    HW197186   7.955   4.230   4.604 -0.1830 -0.3633  1.1697
31303SOL    HW297187   8.031   4.303   4.712  1.6798 -0.4608 -0.0203
31304SOL     OW97188   6.465   9.487   2.875 -0.0383 -0.1951 -0.3482
31304SOL    HW197189   6.405   9.413   2.877  0.0647 -0.3195  2.0590
31304SOL    HW297190   6.536   9.460   2.816 -0.9195 -1.2172 -0.9706
31305SOL     OW97191   6.933   7.939   1.875  0.0213  0.1421 -0.6485
31305SOL    HW197192   7.020   7.931   1.834 -0.2699  1.1127 -1.5006
31305SOL    HW297193   6.911   8.032   1.866 -0.6586  0.1063  0.5076
31306SOL     OW97194   6.444   8.924   6.401 -0.3202 -0.1832 -0.1719
31306SOL    HW197195   6.444   9.018   6.380 -0.3448 -0.1094  0.1557
31306SOL    HW297196   6.497   8.917   6.481  2.9406 -0.9136 -2.1925
31307SOL     OW97197   1.778   9.403  10.675  0.2663  0.2454 -0.0718
31307SOL    HW197198   1.869   9.392  10.702  0.3976  1.3409 -0.0134
31307SOL    HW297199   1.755   9.492  10.701 -1.4228 -0.5994  1.6139
31308SOL     OW97200   3.470   9.888   9.640  0.4121  0.5158 -0.0521
31308SOL    HW197201   3.408   9.860   9.573  1.7042  0.1728 -1.1374
31308SOL    HW297202   3.484   9.810   9.694  0.4822  0.3750 -0.2739
31309SOL     OW97203   2.896   1.144   2.676 -0.3197 -0.5489  0.2731
31309SOL    HW197204   2.913   1.100   2.593 -1.7006  0.2782 -0.4818
31309SOL    HW297205   2.956   1.218   2.677 -0.5917 -0.3236 -0.1735
31310SOL     OW97206  10.402  10.464  10.069 -0.6888 -0.3403 -0.4103
31310SOL    HW197207  10.437  10.553  10.070 -0.9982 -0.2081  1.4838
31310SOL    HW297208  10.376  10.449   9.978 -1.7951  1.9564 -0.5165
31311SOL     OW97209   3.312   7.945   9.797 -0.0056  0.0455 -0.1954
31311SOL    HW197210   3.286   7.976   9.883  2.3368 -1.0234  0.9770
31311SOL    HW297211   3.281   7.854   9.793 -2.1869  0.7551 -1.5127
31312SOL     OW97212  11.111   9.111   0.482  0.7583  0.2551  0.7514
31312SOL    HW197213  11.115   9.151   0.569 -0.4853  1.1605  0.4146
31312SOL    HW297214  11.146   9.178   0.423  0.3599  0.1537  0.3973
31313SOL     OW97215   7.723   9.093   1.598 -0.7129 -0.9262  0.7302
31313SOL    HW197216   7.756   9.019   1.648 -1.6930 -1.8741  0.0123
31313SOL    HW297217   7.725   9.063   1.507  0.5410  0.5770  0.2124
31314SOL     OW97218   4.321   0.916   5.280  0.3644  0.3609 -1.1234
31314SOL    HW197219   4.237   0.871   5.287  0.6860  0.0224  1.5684
31314SOL    HW297220   4.298   1.009   5.273 -0.2810  0.3427  0.3469
31315SOL     OW97221   0.594   5.016   0.080 -0.7039  0.1827 -0.4886
31315SOL    HW197222   0.529   5.072   0.037  0.4121  1.2759 -0.8569
31315SOL    HW297223   0.665   5.076   0.102  0.0277 -0.9076  0.2121
31316SOL     OW97224   6.318   9.914  10.331 -0.4697 -0.7333 -0.2204
31316SOL    HW197225   6.342   9.892  10.421  3.5678 -1.5957 -1.3302
31316SOL    HW297226   6.344  10.005  10.320 -2.6440 -0.0297 -0.1246
31317SOL     OW97227  10.133   4.606   0.097 -0.0593 -0.4492 -0.4401
31317SOL    HW197228  10.105   4.623   0.187  1.9393  1.1108 -0.0340
31317SOL    HW297229  10.069   4.650   0.043  0.3452  1.2107  0.3674
31318SOL     OW97230   1.073   3.627   4.370 -0.1741 -0.2537  0.4700
31318SOL    HW197231   1.005   3.661   4.313  0.2725 -0.7122 -0.3494
31318SOL    HW297232   1.085   3.536   4.343 -0.7346 -0.8409  2.0493
31319SOL     OW97233   2.453   2.295   0.325  0.9026 -0.4754 -0.0652
31319SOL    HW197234   2.454   2.229   0.256  1.7321 -0.3714 -0.1730
31319SOL    HW297235   2.480   2.248   0.404  1.0546 -0.3610 -0.0479
31320SOL     OW97236   6.730   6.376   5.971  0.1919 -0.3227 -0.5758
31320SOL    HW197237   6.676   6.440   6.017  0.2683 -0.9652  0.4496
31320SOL    HW297238   6.788   6.341   6.039  0.9133 -0.6785 -1.3536
31321SOL     OW97239   6.020   9.934   6.739  0.0467 -0.3587 -0.8575
31321SOL    HW197240   5.979   9.862   6.691  2.1253 -0.8300 -2.0224
31321SOL    HW297241   6.096   9.895   6.782 -0.2300  0.6403  0.6249
31322SOL     OW97242  11.242  10.442   4.703 -0.3193 -0.3402  0.0678
31322SOL    HW197243  11.269  10.534   4.698 -0.5124 -0.3302 -0.9626
31322SOL    HW297244  11.150  10.446   4.730  0.1639 -0.3187  1.8718
31323SOL     OW97245  10.364   3.700   1.284 -0.1057 -0.4278  0.1994
31323SOL    HW197246  10.434   3.739   1.338 -2.5201  2.0838  1.7897
31323SOL    HW297247  10.364   3.751   1.204  1.0891 -1.7536 -0.6960
31324SOL     OW97248  10.773   6.889   0.663  0.1195  0.5836  0.6529
31324SOL    HW197249  10.741   6.801   0.641  0.1521  0.5163  0.8656
31324SOL    HW297250  10.832   6.874   0.738 -0.8966  0.9465  1.5448
31325SOL     OW97251   4.488   8.585   7.990 -0.1509  0.2001  0.6671
31325SOL    HW197252   4.394   8.603   7.991 -0.3747 -0.7895 -0.7060
31325SOL    HW297253   4.517   8.614   7.903  0.8188  0.4510  1.0595
31326SOL     OW97254   0.449   5.008   4.272  0.0090 -0.1910  0.7072
31326SOL    HW197255   0.393   4.993   4.349 -0.3297  0.3603  0.5691
31326SOL    HW297256   0.508   4.933   4.271 -0.3204 -0.4623  1.2162
31327SOL     OW97257   1.026   3.802   7.232 -0.0768 -0.3473  0.3241
31327SOL    HW197258   0.941   3.822   7.193 -0.2045  0.5287  1.0228
31327SOL    HW297259   1.034   3.707   7.224 -0.2632 -0.2427 -1.4677
31328SOL     OW97260   0.182   3.403   8.589  0.5041  0.6379 -0.1691
31328SOL    HW197261   0.115   3.336   8.579  0.5164  0.6919 -0.6326
31328SOL    HW297262   0.148   3.480   8.543  0.7951  0.7262 -0.2428
31329SOL     OW97263   3.554   5.095   7.866  0.0158  0.6056 -0.5195
31329SOL    HW197264   3.553   5.075   7.960 -0.7247  1.3843 -0.3450
31329SOL    HW297265   3.503   5.025   7.826  1.0402 -0.2077 -0.4686
31330SOL     OW97266   5.291   8.011   6.420  0.1924  0.3909 -0.4695
31330SOL    HW197267   5.367   7.984   6.471  1.1223  0.1295 -1.9566
31330SOL    HW297268   5.217   7.965   6.461  1.1977 -1.4565 -0.6332
31331SOL     OW97269   9.542   3.434   3.925 -0.7069 -0.0937  0.4934
31331SOL    HW197270   9.542   3.338   3.924  0.3970 -0.1654  2.5148
31331SOL    HW297271   9.617   3.459   3.871 -1.6717 -0.2864 -1.0024
31332SOL     OW97272   8.183   3.689   2.309  0.4170  0.3389  0.0697
31332SOL    HW197273   8.246   3.689   2.236  0.8051  0.3298  0.3999
31332SOL    HW297274   8.228   3.737   2.378 -0.2254  0.9437  0.0754
31333SOL     OW97275   3.161   2.856   5.506  0.0435 -0.0447 -0.2666
31333SOL    HW197276   3.236   2.803   5.531 -1.0563 -0.5618  2.3121
31333SOL    HW297277   3.163   2.930   5.567  0.0182  1.5044 -2.0404
31334SOL     OW97278   2.981   1.125   1.524  0.4025  0.3571 -0.2247
31334SOL    HW197279   3.044   1.117   1.452  1.0195  0.0012  0.3440
31334SOL    HW297280   2.899   1.093   1.487  0.9699 -0.9151 -0.4440
31335SOL     OW97281   0.820   9.286   1.129 -0.2008  0.2757 -0.0044
31335SOL    HW197282   0.732   9.308   1.099  0.7665  1.6824 -2.1125
31335SOL    HW297283   0.826   9.190   1.119 -0.6876  0.4372 -2.3977
31336SOL     OW97284   9.273  10.101   0.775 -0.1513 -0.6666  0.2802
31336SOL    HW197285   9.237  10.190   0.775  1.1406 -0.0436  2.2996
31336SOL    HW297286   9.351  10.108   0.832  0.2936 -2.9729  0.0380
31337SOL     OW97287   8.756   3.305   6.200 -0.2106 -0.2514 -0.6878
31337SOL    HW197288   8.764   3.339   6.110 -0.9968  0.2431 -0.5805
31337SOL    HW297289   8.756   3.384   6.254  0.0726 -0.5421 -0.2646
31338SOL     OW97290   6.436   6.573  10.881 -0.3273  0.1876  0.0367
31338SOL    HW197291   6.454   6.588  10.974 -2.7201 -2.1159  1.0063
31338SOL    HW297292   6.346   6.604  10.869 -0.3125 -0.2331 -1.3186
31339SOL     OW97293   0.013   1.460   5.743 -0.5483  0.2547 -0.8255
31339SOL    HW197294  -0.025   1.479   5.657 -2.2853  0.0676 -0.1306
31339SOL    HW297295   0.103   1.432   5.723 -0.6387  1.0095 -2.5024
31340SOL     OW97296  10.643   8.474   8.488  0.2554  0.3915 -0.1937
31340SOL    HW197297  10.685   8.440   8.567 -1.1744  1.1060  0.9303
31340SOL    HW297298  10.552   8.445   8.496 -0.0343  0.9733 -1.2905
31341SOL     OW97299   4.741   1.743   9.093  0.3172 -0.7880  0.3211
31341SOL    HW197300   4.802   1.816   9.087  0.5394 -0.8295  1.7745
31341SOL    HW297301   4.780   1.674   9.038 -0.3819  0.4548 -1.8662
31342SOL     OW97302   7.714   7.042   3.114  0.9039 -0.0549  0.3440
31342SOL    HW197303   7.768   7.113   3.150  1.1330 -0.3420  0.5653
31342SOL    HW297304   7.626   7.061   3.146  1.4060 -1.3648  2.7027
31343SOL     OW97305   8.302   7.613  10.883  0.7781 -0.3610  0.1214
31343SOL    HW197306   8.252   7.552  10.936  0.1054  0.6611  0.6968
31343SOL    HW297307   8.314   7.690  10.939  0.0702  0.7415 -1.1781
31344SOL     OW97308   7.407   5.531   7.473 -0.3573 -0.1157 -0.0018
31344SOL    HW197309   7.345   5.513   7.543  0.1522 -1.6447  0.0974
31344SOL    HW297310   7.436   5.444   7.443  0.3068  0.5185 -1.3177
31345SOL     OW97311   4.940   3.479   5.126 -0.1695  0.1314  0.3317
31345SOL    HW197312   4.964   3.454   5.036 -0.6315  1.4199 -0.1789
31345SOL    HW297313   4.973   3.568   5.135  0.2966 -0.1626  1.6300
31346SOL     OW97314   3.878   2.293   2.723  0.0179  0.2428  0.3353
31346SOL    HW197315   3.957   2.258   2.764 -0.6851 -1.8703  0.0261
31346SOL    HW297316   3.911   2.347   2.651  1.2143 -1.5821 -0.5621
31347SOL     OW97317   2.582   7.528   0.793 -0.2473  0.0648 -0.0737
31347SOL    HW197318   2.537   7.464   0.737  0.0446  1.1593 -1.6306
31347SOL    HW297319   2.522   7.603   0.795  1.4561  1.6295 -2.3404
31348SOL     OW97320   3.516   4.693   4.348 -0.2996  0.2158  0.3138
31348SOL    HW197321   3.536   4.622   4.409 -1.2582  0.1251  0.5516
31348SOL    HW297322   3.558   4.668   4.266  0.5023  0.0436  0.7737
31349SOL     OW97323   0.125   4.777   4.483 -0.5637 -0.2785 -0.3009
31349SOL    HW197324   0.122   4.835   4.407 -0.4002  0.4772  0.2629
31349SOL    HW297325   0.047   4.722   4.475 -1.4014  0.8616 -0.1810
31350SOL     OW97326  11.103   7.371   1.960 -0.2254  0.2134 -0.0612
31350SOL    HW197327  11.145   7.404   1.880 -0.7676 -0.7806 -0.7758
31350SOL    HW297328  11.068   7.286   1.935  0.0301 -0.3390  1.3945
31351SOL     OW97329  11.379   3.800   6.417  0.4897 -0.7165 -0.3410
31351SOL    HW197330  11.359   3.835   6.504  2.5386 -1.3158  0.4494
31351SOL    HW297331  11.297   3.765   6.385 -0.4745  0.1711  1.0477
31352SOL     OW97332   0.861   1.936   7.932 -0.0818  0.0113 -0.1890
31352SOL    HW197333   0.767   1.955   7.933 -0.9954 -3.5501 -2.2453
31352SOL    HW297334   0.883   1.914   8.022 -1.9253 -1.7550 -0.1247
31353SOL     OW97335   3.515   5.489   6.317 -0.5403 -0.6523  0.4359
31353SOL    HW197336   3.567   5.431   6.373 -0.3770 -0.2472  0.7119
31353SOL    HW297337   3.450   5.527   6.376 -0.0108  0.2118  0.4928
31354SOL     OW97338   0.351   9.988   8.626 -0.5972  0.3497 -0.0424
31354SOL    HW197339   0.299  10.066   8.643  0.3769  1.0948 -0.3779
31354SOL    HW297340   0.365   9.988   8.531 -1.9295 -1.1282 -0.2882
31355SOL     OW97341   4.081   8.391   1.656 -0.8939  0.2197 -0.2397
31355SOL    HW197342   4.031   8.318   1.619  0.7569 -1.2484  0.2637
31355SOL    HW297343   4.146   8.349   1.713  2.5862  1.7068 -2.7034
31356SOL     OW97344   7.466   4.578  10.258 -0.3684  0.1447  0.2299
31356SOL    HW197345   7.430   4.567  10.169 -0.2688  0.4572  0.1486
31356SOL    HW297346   7.397   4.624  10.305  0.6476  2.5443 -0.4610
31357SOL     OW97347   5.795   9.576   2.113  0.2030  0.3210 -0.4371
31357SOL    HW197348   5.845   9.652   2.082 -0.3576 -0.1516 -2.7206
31357SOL    HW297349   5.826   9.504   2.059 -1.1433 -0.5071 -0.1441
31358SOL     OW97350   5.235   0.091   0.307 -0.1472 -0.0965  0.1518
31358SOL    HW197351   5.292   0.074   0.232 -0.3638  0.4987 -0.1562
31358SOL    HW297352   5.270   0.172   0.346 -0.1988 -0.2570  0.5373
31359SOL     OW97353   1.097   7.188  10.684  0.1700  0.2788  0.7107
31359SOL    HW197354   1.021   7.181  10.742 -0.5349  1.2876 -0.0396
31359SOL    HW297355   1.114   7.099  10.656 -2.5125  0.2327 -1.2547
31360SOL     OW97356   6.933   3.131   6.374 -0.2824 -0.2493 -0.6839
31360SOL    HW197357   6.897   3.218   6.358  0.4954  0.0442 -0.8997
31360SOL    HW297358   6.873   3.090   6.437 -1.0957  0.1371 -1.1944
31361SOL     OW97359  10.840  10.241   2.500 -0.2613  0.1153 -0.0137
31361SOL    HW197360  10.841  10.151   2.466  0.8239  0.5605 -1.2295
31361SOL    HW297361  10.801  10.293   2.429  0.5945  0.8386  0.0334
31362SOL     OW97362  10.862   1.500   6.791 -0.3742  0.0395 -0.2537
31362SOL    HW197363  10.772   1.468   6.794 -0.0147 -1.3556 -2.3177
31362SOL    HW297364  10.915   1.422   6.774  1.3786  0.6789  1.7172
31363SOL     OW97365   0.231   9.683  10.787 -0.1067 -0.6661  0.7991
31363SOL    HW197366   0.319   9.668  10.753  0.6042  0.4297  2.0821
31363SOL    HW297367   0.173   9.657  10.715  1.2247 -1.9868  0.1469
31364SOL     OW97368   6.969   5.556  11.203 -0.7764  0.2364 -0.1013
31364SOL    HW197369   6.927   5.640  11.217 -1.1715  0.1794 -0.9200
31364SOL    HW297370   6.984   5.521  11.291 -0.3550  1.2776  0.2535
31365SOL     OW97371   2.827   5.275   2.634 -0.3445 -0.3207 -0.4152
31365SOL    HW197372   2.806   5.210   2.567 -0.2183 -2.1598  1.2428
31365SOL    HW297373   2.795   5.358   2.598  0.6570 -1.0366 -3.1696
31366SOL     OW97374   7.473   7.305   8.721  0.5760  0.0156  0.8833
31366SOL    HW197375   7.540   7.364   8.687  1.3203  0.6025  3.1831
31366SOL    HW297376   7.404   7.307   8.655  0.6945  3.2487  0.6789
31367SOL     OW97377   5.463   3.892   0.213 -0.6112  0.0947 -0.2850
31367SOL    HW197378   5.520   3.934   0.148 -0.2854 -1.0609 -0.7682
31367SOL    HW297379   5.421   3.820   0.165 -1.2787 -0.0355  0.4811
31368SOL     OW97380   3.003   8.114   5.539  0.2122 -0.3785  0.0832
31368SOL    HW197381   2.961   8.099   5.623  3.9416  0.3221  2.2611
31368SOL    HW297382   2.992   8.208   5.523  2.1303  0.1099  1.4243
31369SOL     OW97383   2.191   1.092   5.199  0.3533 -0.2336 -0.0642
31369SOL    HW197384   2.222   1.002   5.187  1.5241  0.1154  0.1483
31369SOL    HW297385   2.123   1.085   5.267 -0.4957 -1.1128 -0.9689
31370SOL     OW97386   1.181   2.223   4.535 -0.1758 -0.1657  0.3379
31370SOL    HW197387   1.107   2.235   4.475  0.4092  0.3746 -0.3030
31370SOL    HW297388   1.214   2.135   4.516 -0.6303 -0.3886  0.5924
31371SOL     OW97389   9.341   8.172  10.124 -0.6162 -0.0621 -0.4134
31371SOL    HW197390   9.275   8.156  10.192 -1.5856  2.2931 -0.7129
31371SOL    HW297391   9.414   8.212  10.170  0.4861 -2.1937 -0.1714
31372SOL     OW97392   6.418   8.511   7.151  0.1581 -0.4310 -0.4950
31372SOL    HW197393   6.467   8.429   7.153 -0.1717 -0.6249 -0.1413
31372SOL    HW297394   6.408   8.531   7.058  2.6944  0.7075 -0.5943
31373SOL     OW97395   5.864   0.259  10.632 -0.0088  0.3391 -0.6413
31373SOL    HW197396   5.772   0.280  10.613 -1.0991 -2.4926  0.8399
31373SOL    HW297397   5.896   0.216  10.553 -0.1816  0.6731 -0.8963
31374SOL     OW97398   1.291   0.546   9.702  0.2377 -0.2603  0.3464
31374SOL    HW197399   1.240   0.526   9.781 -0.3104 -1.1715 -0.2226
31374SOL    HW297400   1.305   0.640   9.706 -0.4073 -0.1849  1.1610
31375SOL     OW97401   9.509   4.340   3.243 -0.6463  0.1412 -0.1096
31375SOL    HW197402   9.427   4.358   3.288 -0.4489 -1.3804  0.9263
31375SOL    HW297403   9.574   4.336   3.312 -0.1511 -1.1648 -0.6219
31376SOL     OW97404   1.348   7.922   6.431 -0.0867 -0.4036  0.0113
31376SOL    HW197405   1.317   8.009   6.407  0.5857 -0.6207 -1.8177
31376SOL    HW297406   1.329   7.867   6.354 -0.2085 -1.8032  0.9994
31377SOL     OW97407   9.190  10.529   4.590 -0.0577  0.1940 -0.0147
31377SOL    HW197408   9.250  10.514   4.517 -0.2442  1.0219 -0.3509
31377SOL    HW297409   9.171  10.623   4.586  1.6853  0.7292  2.4471
31378SOL     OW97410   5.941   4.798   1.498 -0.4876 -0.4204  0.0628
31378SOL    HW197411   6.022   4.794   1.548 -0.2378 -0.4333 -0.3396
31378SOL    HW297412   5.877   4.754   1.553  0.2285 -2.2093 -0.4847
31379SOL     OW97413  10.460   4.465   6.212  0.0449 -1.1032 -0.4495
31379SOL    HW197414  10.436   4.516   6.135 -3.1953 -1.2717  0.2943
31379SOL    HW297415  10.545   4.500   6.239 -1.7478  3.8243 -0.1421
31380SOL     OW97416   2.593   6.202   6.988  0.0991  0.0504  0.1141
31380SOL    HW197417   2.541   6.214   6.909  1.0759 -0.4871 -0.6249
31380SOL    HW297418   2.645   6.282   6.995 -1.6319  1.1319  1.5204
31381SOL     OW97419   3.153   2.225  11.380  0.1655 -0.2463 -0.4058
31381SOL    HW197420   3.098   2.299  11.351  1.5941  1.0544  0.0634
31381SOL    HW297421   3.127   2.211  11.471  2.0174  1.8180  0.5243
31382SOL     OW97422   4.999   7.985  11.384 -0.1065 -0.4026 -0.2940
31382SOL    HW197423   5.020   7.892  11.383  0.3038 -0.3480  0.9801
31382SOL    HW297424   5.074   8.026  11.427  0.3072  0.7017 -1.9921
31383SOL     OW97425   9.656   9.919   2.709 -0.4601  0.2714  0.2702
31383SOL    HW197426   9.586   9.940   2.647  0.9538  3.2032 -0.5442
31383SOL    HW297427   9.663   9.998   2.763  0.7769 -0.8230  1.7667
31384SOL     OW97428   7.193   7.719   6.280 -0.2542  0.1188 -0.4127
31384SOL    HW197429   7.176   7.768   6.199  1.7709  0.2122 -0.8446
31384SOL    HW297430   7.193   7.627   6.252 -0.7888  0.0717 -0.2624
31385SOL     OW97431   2.491   2.590   7.717  0.1451 -0.2718  0.4931
31385SOL    HW197432   2.497   2.597   7.622 -0.0536  0.0893  0.5042
31385SOL    HW297433   2.478   2.497   7.733 -0.1829 -0.2927  0.1423
31386SOL     OW97434   7.041   5.088   0.608  0.6936  0.1475 -0.2344
31386SOL    HW197435   7.027   5.183   0.612 -1.3558  0.0195 -2.0405
31386SOL    HW297436   6.974   5.051   0.665 -0.6575 -0.2495 -1.9908
31387SOL     OW97437   3.812   3.365   7.442  0.1366  0.3348 -0.4639
31387SOL    HW197438   3.745   3.300   7.421  0.0707  0.7355 -1.5816
31387SOL    HW297439   3.781   3.405   7.524 -0.8624  0.3377 -0.8249
31388SOL     OW97440   7.354   3.557   5.661 -0.3753  0.2408 -0.0038
31388SOL    HW197441   7.414   3.632   5.653 -1.2551  0.7533 -3.1557
31388SOL    HW297442   7.317   3.565   5.749  0.7096  2.6227  0.3120
31389SOL     OW97443   0.649  10.389   8.763  0.4829  0.1886  0.0581
31389SOL    HW197444   0.555  10.378   8.746  0.3368  1.4488 -0.0470
31389SOL    HW297445   0.675  10.307   8.806 -0.9671  0.3374  1.3274
31390SOL     OW97446   4.443   8.783   6.360 -0.2761  0.0326  0.5579
31390SOL    HW197447   4.432   8.811   6.451 -1.1811 -0.5086  0.6241
31390SOL    HW297448   4.357   8.795   6.320 -0.4064 -1.5498  0.2949
31391SOL     OW97449   0.154   0.220   0.408 -0.9969 -0.5031 -0.4471
31391SOL    HW197450   0.102   0.220   0.328 -0.9998 -1.3315 -0.4543
31391SOL    HW297451   0.106   0.164   0.468 -1.0098  0.1360  0.1531
31392SOL     OW97452   6.503   4.603   8.905 -0.3455 -0.1587 -0.4227
31392SOL    HW197453   6.495   4.511   8.880  1.3438 -0.0006 -1.7109
31392SOL    HW297454   6.587   4.608   8.949 -1.5729  0.3275  2.0327
31393SOL     OW97455   0.456   0.140   8.567 -0.0398  0.5643 -0.1961
31393SOL    HW197456   0.527   0.133   8.632  0.0463 -2.4134 -0.4362
31393SOL    HW297457   0.488   0.090   8.492 -2.2839 -0.7381 -0.3766
31394SOL     OW97458   6.261   4.699  10.880  0.2535  0.1150  0.9216
31394SOL    HW197459   6.195   4.735  10.940 -0.4359 -0.6352  0.6308
31394SOL    HW297460   6.277   4.610  10.913  0.7760  0.1285  0.7070
31395SOL     OW97461   5.793   4.809  10.673 -0.2494  0.4789  0.2456
31395SOL    HW197462   5.870   4.769  10.633 -0.9896 -0.7680  0.0127
31395SOL    HW297463   5.794   4.777  10.763 -1.6105 -1.2984 -0.3114
31396SOL     OW97464   7.447   6.554   1.175  0.1736 -0.0439 -0.5454
31396SOL    HW197465   7.389   6.606   1.230 -0.0074  0.3716 -1.1198
31396SOL    HW297466   7.406   6.468   1.172  0.7181 -0.3672  0.7849
31397SOL     OW97467   6.862   4.363   6.220 -0.3909  0.2488  0.2062
31397SOL    HW197468   6.830   4.424   6.153  0.5959  0.2436 -0.2887
31397SOL    HW297469   6.934   4.409   6.262 -2.6731  1.3899  3.2231
31398SOL     OW97470   1.187   9.475   6.669 -0.1562  0.6252  0.7318
31398SOL    HW197471   1.179   9.529   6.747  0.1656 -0.3231  1.4306
31398SOL    HW297472   1.242   9.402   6.695 -0.2961  0.1305 -0.2959
31399SOL     OW97473   3.460   2.373   3.033 -0.0490  0.0708 -0.1450
31399SOL    HW197474   3.506   2.338   3.109 -0.2625 -0.1360 -0.1115
31399SOL    HW297475   3.521   2.437   2.996 -1.0148  2.2661  1.8142
31400SOL     OW97476   8.989   5.123   3.436 -0.1602 -0.4726 -0.1196
31400SOL    HW197477   9.066   5.141   3.383 -0.4778  0.8242 -0.1869
31400SOL    HW297478   8.969   5.207   3.477 -1.5512 -0.7827 -0.1211
31401SOL     OW97479   1.791   3.144   8.117 -0.7055  0.3770 -0.4098
31401SOL    HW197480   1.799   3.208   8.187  2.8909 -0.6243  0.2628
31401SOL    HW297481   1.747   3.069   8.158  2.4455 -0.6922  1.3319
31402SOL     OW97482   1.756   1.602   4.962 -0.1700 -0.1955 -0.9433
31402SOL    HW197483   1.733   1.523   5.012  1.0514  0.9199  1.5966
31402SOL    HW297484   1.834   1.576   4.913  0.0572 -0.6472 -0.3601
31403SOL     OW97485   9.596   2.984   8.726 -0.1648 -1.1640  0.4340
31403SOL    HW197486   9.509   3.023   8.735  0.6466  0.7740  0.3705
31403SOL    HW297487   9.614   2.985   8.632  0.8416  0.7226  0.5862
31404SOL     OW97488   9.551   0.688  11.175  0.4252  0.4883 -0.1383
31404SOL    HW197489   9.608   0.690  11.251  1.2323 -0.1714 -0.6999
31404SOL    HW297490   9.603   0.645  11.107 -0.0560  1.5803 -1.2451
31405SOL     OW97491   9.560  11.142  11.315 -0.1680  0.2885  0.4603
31405SOL    HW197492   9.494  11.079  11.289 -1.3758  1.2322  1.1488
31405SOL    HW297493   9.515  11.202  11.374  1.3498  0.8467  1.1173
31406SOL     OW97494   5.323   4.884   5.506  0.1671 -0.3011 -0.6459
31406SOL    HW197495   5.231   4.871   5.530  0.2683 -0.5774 -0.4161
31406SOL    HW297496   5.338   4.978   5.521  0.9583 -0.8684  2.9302
31407SOL     OW97497   4.447   9.638   0.267 -0.3830  0.3246 -0.3819
31407SOL    HW197498   4.535   9.605   0.248 -0.4649  0.9039 -1.9449
31407SOL    HW297499   4.409   9.573   0.326  0.9793 -0.0964  0.0622
31408SOL     OW97500   2.369   2.708   5.596  0.0084  0.6012  0.2548
31408SOL    HW197501   2.352   2.703   5.690 -2.0602  2.0583  0.0285
31408SOL    HW297502   2.373   2.802   5.578 -1.1565  0.3808 -1.3276
31409SOL     OW97503   8.653   3.845   9.746 -0.0558  0.4158  0.5917
31409SOL    HW197504   8.688   3.918   9.797 -1.1102  0.4815  1.2565
31409SOL    HW297505   8.729   3.810   9.699  1.0326  0.1643  2.4265
31410SOL     OW97506   2.135   2.408  10.336 -0.3413  0.5849  0.2298
31410SOL    HW197507   2.099   2.494  10.315  0.4453  0.8005 -0.2489
31410SOL    HW297508   2.210   2.426  10.393  0.4888  0.2944 -0.7471
31411SOL     OW97509   8.623   4.372   9.830 -1.2066  0.4086  0.2633
31411SOL    HW197510   8.567   4.331   9.764 -0.2129 -0.1221 -0.2765
31411SOL    HW297511   8.693   4.414   9.779  1.3609 -2.5956  0.9687
31412SOL     OW97512   9.406   7.240   2.609 -0.0431 -0.3717 -0.5937
31412SOL    HW197513   9.451   7.310   2.562  2.1983 -0.5556  1.0815
31412SOL    HW297514   9.363   7.189   2.541  0.1099  1.3381 -2.0631
31413SOL     OW97515   0.774  10.695   9.322 -0.0755  0.4645 -0.5042
31413SOL    HW197516   0.746  10.608   9.351  1.0433  0.8399  1.9475
31413SOL    HW297517   0.706  10.754   9.356  0.2977  0.7461 -0.2440
31414SOL     OW97518   3.437   3.864  10.320 -0.4213  0.0453  0.8133
31414SOL    HW197519   3.428   3.953  10.354 -0.4195  0.8904 -1.2384
31414SOL    HW297520   3.347   3.832  10.312 -0.4116 -0.2488  1.7822
31415SOL     OW97521   5.524   4.943  10.662 -0.0012  0.3226  0.1862
31415SOL    HW197522   5.589   4.900  10.608 -1.4161 -0.6547 -0.8184
31415SOL    HW297523   5.551   5.035  10.665  2.5025 -0.3867  1.5159
31416SOL     OW97524   0.487   2.576   6.910  0.0294  0.4496  0.2076
31416SOL    HW197525   0.469   2.559   7.002  1.5086  0.1338  0.4513
31416SOL    HW297526   0.409   2.544   6.864 -1.2247  1.6423  1.4124
31417SOL     OW97527   6.945   4.243   4.314 -0.1644 -0.0286 -0.3301
31417SOL    HW197528   6.908   4.155   4.322 -0.6500  0.1374 -0.6931
31417SOL    HW297529   6.878   4.293   4.267 -0.3439  0.8123  0.7605
31418SOL     OW97530   8.537   9.979   3.769  0.0541 -0.1726  0.0526
31418SOL    HW197531   8.550   9.999   3.676 -1.3675 -0.7034 -0.2940
31418SOL    HW297532   8.486  10.053   3.803  0.1449 -0.2176  0.2895
31419SOL     OW97533   5.796   2.608   0.527  0.0877  0.2334  0.0893
31419SOL    HW197534   5.804   2.689   0.578 -1.8526  0.5518 -0.0321
31419SOL    HW297535   5.744   2.633   0.450 -0.6424 -1.1242  0.1038
31420SOL     OW97536   6.857   0.933   9.350  0.0886 -0.1634  0.2868
31420SOL    HW197537   6.814   0.957   9.432  1.2139  1.4620  0.4617
31420SOL    HW297538   6.950   0.951   9.367  0.4777 -0.8722 -0.9966
31421SOL     OW97539   3.853   1.572   7.287 -0.4276  0.0928 -0.2945
31421SOL    HW197540   3.770   1.556   7.333 -0.3740 -1.3211 -0.6576
31421SOL    HW297541   3.920   1.541   7.348 -0.3017 -0.8759 -0.9128
31422SOL     OW97542   1.182   9.899   0.243 -0.1314 -0.3843  0.4888
31422SOL    HW197543   1.249   9.838   0.212 -0.3455 -0.2019 -0.3530
31422SOL    HW297544   1.104   9.877   0.192 -0.6165 -0.3471  1.1943
31423SOL     OW97545   7.649   3.748   3.452  0.0988 -0.3074  0.3972
31423SOL    HW197546   7.613   3.663   3.430  0.3098 -0.3820  0.3377
31423SOL    HW297547   7.607   3.809   3.390  3.5142 -1.0111 -3.0054
31424SOL     OW97548   1.286   2.693  10.536 -0.0807 -0.2540 -0.2936
31424SOL    HW197549   1.241   2.622  10.490 -0.5711 -0.1124 -0.0394
31424SOL    HW297550   1.294   2.762  10.471  0.8923 -0.7299 -0.7093
31425SOL     OW97551   4.608  10.503   3.142  0.6730 -0.6974  0.0940
31425SOL    HW197552   4.562  10.579   3.176  1.2329 -0.6796  0.8133
31425SOL    HW297553   4.539  10.449   3.104  0.1415 -0.3458  0.5476
31426SOL     OW97554   9.483   9.380   4.605  0.0936  0.3737 -0.5682
31426SOL    HW197555   9.502   9.468   4.637 -0.3272  0.4403 -0.5028
31426SOL    HW297556   9.565   9.332   4.616 -0.2820  0.1378  1.4646
31427SOL     OW97557   5.416   6.985   5.647 -0.3581  0.2050 -0.1885
31427SOL    HW197558   5.475   7.042   5.598 -0.0825 -0.3798 -0.5532
31427SOL    HW297559   5.370   7.043   5.707 -0.3245  0.8555 -0.7860
31428SOL     OW97560   5.803   3.070  10.398 -0.2072  0.0760  0.3650
31428SOL    HW197561   5.814   3.083  10.492 -2.4254  0.6764  0.5977
31428SOL    HW297562   5.724   3.016  10.390  0.5448 -0.8723 -1.1361
31429SOL     OW97563   8.673   0.614  11.195  0.7818  0.0664  0.7228
31429SOL    HW197564   8.612   0.541  11.183 -0.3344  1.1876 -0.8333
31429SOL    HW297565   8.635   0.665  11.266 -1.1207  1.6428 -1.2865
31430SOL     OW97566   9.753  10.454   5.393 -0.2975 -0.1274 -0.5680
31430SOL    HW197567   9.814  10.493   5.330  0.8654 -2.0215 -0.6930
31430SOL    HW297568   9.808  10.426   5.466 -1.2907 -0.1302  0.1942
31431SOL     OW97569   6.907   9.361   0.213  0.4140  0.7314  0.4078
31431SOL    HW197570   6.980   9.365   0.152  0.8081 -1.9861  0.5823
31431SOL    HW297571   6.831   9.388   0.161  0.5105 -2.7007 -1.7900
31432SOL     OW97572   6.660   3.744   3.407 -0.1849 -0.0316 -0.0001
31432SOL    HW197573   6.750   3.740   3.440 -0.4678 -2.6269  0.6818
31432SOL    HW297574   6.606   3.741   3.486 -0.8732 -0.4818 -0.4836
31433SOL     OW97575   6.713   7.945   6.508  0.2518 -0.4856 -0.3038
31433SOL    HW197576   6.760   8.010   6.559 -0.0775 -1.5037  1.3628
31433SOL    HW297577   6.684   7.992   6.429  1.4874  0.9019  0.0342
31434SOL     OW97578   4.288   5.182   4.544 -0.2069  0.3608  0.3822
31434SOL    HW197579   4.332   5.102   4.517  0.0274  0.6521 -0.1133
31434SOL    HW297580   4.205   5.182   4.496  0.0266  0.6740 -0.0258
31435SOL     OW97581   1.106   4.833   6.736  0.0155 -0.1469 -0.5081
31435SOL    HW197582   1.011   4.835   6.740  0.0665  0.7516  1.7054
31435SOL    HW297583   1.129   4.890   6.662 -1.1409  0.2611 -0.5650
31436SOL     OW97584   5.687   4.539   3.414 -0.3995  0.1843  0.5351
31436SOL    HW197585   5.644   4.479   3.353 -0.3505 -0.9668  1.6064
31436SOL    HW297586   5.753   4.486   3.458 -1.2240  0.6557  2.4533
31437SOL     OW97587   9.925   4.675   6.533  0.2567  0.1656  0.0120
31437SOL    HW197588   9.889   4.734   6.599 -1.4363  0.1261 -0.8452
31437SOL    HW297589   9.914   4.588   6.570  0.7910  0.2336  0.3489
31438SOL     OW97590   0.432   6.740   3.091  0.0510  0.3509 -0.1097
31438SOL    HW197591   0.424   6.785   3.007  0.4760  0.0965 -0.2862
31438SOL    HW297592   0.471   6.655   3.070 -0.3846  0.0480  0.2703
31439SOL     OW97593   5.614   8.454   8.035 -0.2410 -0.1976 -0.1281
31439SOL    HW197594   5.620   8.392   7.962 -1.1200 -2.3458  1.4994
31439SOL    HW297595   5.524   8.443   8.067  0.3588  0.1052  1.7448
31440SOL     OW97596   5.277   6.410   9.978 -0.2355 -0.7677 -0.1430
31440SOL    HW197597   5.339   6.431  10.048 -0.9686  2.0285 -0.2168
31440SOL    HW297598   5.215   6.482   9.978 -2.8257 -2.8341 -0.9027
31441SOL     OW97599   9.531  11.035   5.715  0.1126  0.0436  0.0981
31441SOL    HW197600   9.618  11.058   5.747  0.7127  0.5417 -1.7202
31441SOL    HW297601   9.529  10.940   5.716  0.4375  0.0414  0.7634
31442SOL     OW97602   0.239   8.222   0.854  0.2550  0.6617  0.1936
31442SOL    HW197603   0.203   8.242   0.768 -0.5782 -0.5550  0.2321
31442SOL    HW297604   0.163   8.196   0.906  1.0847 -1.3625  0.4630
31443SOL     OW97605   3.040   4.617   8.151 -0.3159 -0.2705 -0.1049
31443SOL    HW197606   3.030   4.528   8.120 -2.2812 -0.4458  0.8909
31443SOL    HW297607   3.062   4.608   8.244 -0.6442  0.2800  0.0330
31444SOL     OW97608   6.920   3.852   5.031 -0.1924  0.5854  0.3089
31444SOL    HW197609   6.881   3.940   5.038 -0.4657  0.5073 -0.1863
31444SOL    HW297610   6.986   3.850   5.100 -0.0585  1.2493  0.2115
31445SOL     OW97611   2.234   5.640   2.308  0.6917  0.3418 -0.3279
31445SOL    HW197612   2.210   5.644   2.401  1.2841 -0.0047 -0.1565
31445SOL    HW297613   2.322   5.604   2.308  0.3280 -0.5893 -1.0877
31446SOL     OW97614   0.201   6.683   8.577  0.7993 -0.0217 -0.2147
31446SOL    HW197615   0.285   6.725   8.599  0.4897  0.7603 -0.4737
31446SOL    HW297616   0.135   6.747   8.604  0.3769  0.6873 -2.6694
31447SOL     OW97617   5.275   2.744   8.741 -0.2028  0.1830  0.3068
31447SOL    HW197618   5.192   2.715   8.704 -0.4474  1.0986  0.1187
31447SOL    HW297619   5.286   2.691   8.820 -1.2428  0.4475  0.6425
31448SOL     OW97620   2.282   9.534   5.665  0.1291  0.2712 -0.0057
31448SOL    HW197621   2.331   9.462   5.626  0.9673  1.1573 -0.6479
31448SOL    HW297622   2.297   9.608   5.605 -2.0095  0.5757 -0.2313
31449SOL     OW97623   8.222   1.530   7.666  0.5142  0.0187  0.2544
31449SOL    HW197624   8.212   1.530   7.761 -1.1476 -0.7001  0.0990
31449SOL    HW297625   8.308   1.571   7.652  1.7100 -1.6569  2.1311
31450SOL     OW97626   9.512   9.210   2.180 -0.4007 -0.6865  0.1048
31450SOL    HW197627   9.453   9.140   2.207  0.5638 -0.8120  2.0756
31450SOL    HW297628   9.560   9.233   2.259 -1.4707  3.0398 -0.1720
31451SOL     OW97629   0.580   8.569   5.347  0.5427  0.0155 -0.3493
31451SOL    HW197630   0.566   8.558   5.441  1.3194 -1.0530 -0.3299
31451SOL    HW297631   0.675   8.559   5.336  0.3280 -1.2016 -1.3820
31452SOL     OW97632   7.924   5.387   0.672  0.5106  0.4726  0.0557
31452SOL    HW197633   7.934   5.439   0.593  0.8417 -0.9874 -0.9092
31452SOL    HW297634   7.844   5.420   0.712 -1.5596 -0.8423 -2.6306
31453SOL     OW97635  10.649  11.213   3.486 -0.0598 -0.2208  0.2139
31453SOL    HW197636  10.631  11.157   3.561  2.6158  1.4043  2.2656
31453SOL    HW297637  10.722  11.171   3.441 -0.5760 -0.3318 -0.5369
31454SOL     OW97638   2.144  11.001   6.365  0.6057  0.0676  0.0125
31454SOL    HW197639   2.132  11.076   6.307  0.7906  1.6786  1.9389
31454SOL    HW297640   2.097  11.025   6.445  1.7948 -1.2567  1.1692
31455SOL     OW97641   6.120   2.617   3.041 -0.5632  0.5993 -0.2151
31455SOL    HW197642   6.053   2.549   3.042 -0.2912  0.3328 -0.1395
31455SOL    HW297643   6.180   2.590   2.971 -0.1102  0.4255  0.2342
31456SOL     OW97644   0.937   2.475   8.506 -0.3609 -0.1267 -0.0647
31456SOL    HW197645   0.960   2.437   8.591 -0.8911 -1.6132 -0.5738
31456SOL    HW297646   1.020   2.507   8.471  0.3059 -1.8000 -0.0922
31457SOL     OW97647   1.022   7.412   8.932 -0.3367  0.0899 -0.4387
31457SOL    HW197648   0.938   7.396   8.890  0.0999 -0.9500 -0.9772
31457SOL    HW297649   1.000   7.445   9.019 -1.2844  0.5296 -0.8356
31458SOL     OW97650   7.199   8.748   4.980  0.2703 -0.7596 -0.4083
31458SOL    HW197651   7.280   8.705   5.008  0.8587  1.0422  0.8876
31458SOL    HW297652   7.130   8.684   4.998  1.2167 -1.6386  0.2380
31459SOL     OW97653   5.044  11.180   0.579 -0.4495  0.3926 -0.1740
31459SOL    HW197654   5.120  11.181   0.638 -0.8209  0.8872  0.3001
31459SOL    HW297655   5.016  11.088   0.579 -1.5341  0.6803  1.8531
31460SOL     OW97656   0.191   6.833   4.596  0.1571  0.2352 -0.4793
31460SOL    HW197657   0.233   6.874   4.520  0.6705 -0.4898 -0.5950
31460SOL    HW297658   0.122   6.895   4.622 -0.2479  0.3364 -1.7420
31461SOL     OW97659   6.990  10.470   4.841 -0.0801 -0.0409  0.2998
31461SOL    HW197660   7.037  10.462   4.757  1.7973  0.1245  1.2862
31461SOL    HW297661   6.899  10.448   4.819  0.4010 -0.2791 -1.7200
31462SOL     OW97662  11.345   1.154  10.173 -1.0619 -0.3149 -0.0518
31462SOL    HW197663  11.347   1.221  10.241 -1.2135  0.1799 -0.5305
31462SOL    HW297664  11.420   1.098  10.193 -1.8619 -0.9512  1.2960
31463SOL     OW97665   2.837   0.767   2.161 -0.4125  0.4081 -0.4413
31463SOL    HW197666   2.795   0.698   2.212 -1.3747  0.5430 -1.0382
31463SOL    HW297667   2.900   0.807   2.222 -0.6462 -0.2489  0.2473
31464SOL     OW97668   0.265   0.180   6.048 -0.0814  0.6027 -0.0968
31464SOL    HW197669   0.318   0.236   5.991  0.2734  0.3977  0.0230
31464SOL    HW297670   0.315   0.176   6.130  0.4145 -0.6842 -0.4328
31465SOL     OW97671   1.345   1.306   5.282 -0.1996  0.9040 -0.7740
31465SOL    HW197672   1.351   1.232   5.221 -2.2895  0.4544 -0.5119
31465SOL    HW297673   1.436   1.333   5.295  1.0213 -3.2017  1.0732
31466SOL     OW97674   2.432   3.081  10.548 -0.2282  0.4714  0.3674
31466SOL    HW197675   2.514   3.033  10.560 -1.1910 -1.8079 -1.3893
31466SOL    HW297676   2.382   3.064  10.627  0.6479  1.1883  1.0934
31467SOL     OW97677  10.872   7.187   9.094 -0.1777  0.7362  0.0202
31467SOL    HW197678  10.857   7.179   9.188  0.6850 -1.6416  0.0289
31467SOL    HW297679  10.950   7.242   9.086 -1.5139  2.8253  0.5250
31468SOL     OW97680   5.837  11.110   0.532 -0.4285  0.1277  0.0287
31468SOL    HW197681   5.904  11.173   0.557  0.2758 -0.3801 -0.5287
31468SOL    HW297682   5.765  11.163   0.496  0.0812  0.6172 -0.2813
31469SOL     OW97683   0.030   5.112   1.618 -0.6208 -0.6962  0.1208
31469SOL    HW197684   0.057   5.035   1.569  3.0355  0.5457 -0.1258
31469SOL    HW297685   0.050   5.186   1.560  0.1581  0.6189  1.9577
31470SOL     OW97686   4.435   3.646   4.112  0.0330  0.3181 -0.5289
31470SOL    HW197687   4.374   3.715   4.087 -0.7356 -0.5333 -1.0756
31470SOL    HW297688   4.470   3.674   4.197 -0.1510  1.4364 -0.8084
31471SOL     OW97689  10.450   6.285   3.303 -0.4906  0.2387 -0.5776
31471SOL    HW197690  10.481   6.238   3.226  1.9789 -1.2900  1.1810
31471SOL    HW297691  10.372   6.239   3.331 -2.1195  1.5244 -2.7125
31472SOL     OW97692  10.612  11.337   8.916 -0.1813 -0.0328 -0.1881
31472SOL    HW197693  10.520  11.365   8.916 -0.5993 -1.3578 -0.1172
31472SOL    HW297694  10.642  11.352   9.006  0.2076  1.9727 -0.5872
31473SOL     OW97695   5.231   0.158   5.898  0.5793  0.1649 -0.6926
31473SOL    HW197696   5.166   0.111   5.844 -1.1997 -0.0456  1.4891
31473SOL    HW297697   5.294   0.091   5.923  0.3728 -0.1439 -0.9872
31474SOL     OW97698   4.862   7.391   7.897  0.5527 -0.0260  0.0016
31474SOL    HW197699   4.945   7.361   7.935  0.7496  0.4293 -0.0640
31474SOL    HW297700   4.823   7.445   7.966 -1.0797 -2.5265  1.1902
31475SOL     OW97701  11.301   4.791   6.124  0.3564  0.3316 -0.7885
31475SOL    HW197702  11.348   4.744   6.055  1.1992  0.7071 -0.4818
31475SOL    HW297703  11.329   4.882   6.114 -0.3808  0.5816 -0.6518
31476SOL     OW97704   5.162   8.963   4.673  0.3564 -0.1094 -0.5414
31476SOL    HW197705   5.148   9.049   4.632  1.2513  0.5330  0.4705
31476SOL    HW297706   5.255   8.945   4.660  0.3937 -0.4481  0.1444
31477SOL     OW97707   5.383   4.654   2.721 -0.2286 -0.8559 -0.5275
31477SOL    HW197708   5.478   4.666   2.713 -0.1713 -0.5018  0.4473
31477SOL    HW297709   5.373   4.571   2.766 -0.2893 -0.0372  1.0568
31478SOL     OW97710   2.513   0.116   7.276  0.2593 -0.7522  0.7430
31478SOL    HW197711   2.506   0.209   7.254  1.0901 -0.7205  0.5690
31478SOL    HW297712   2.489   0.071   7.195  2.3239 -0.6416 -0.0185
31479SOL     OW97713  10.090   8.064   9.889 -0.1511 -0.1262  0.8759
31479SOL    HW197714  10.068   7.975   9.915 -1.0947 -0.1493  0.0353
31479SOL    HW297715  10.077   8.067   9.794  3.7254 -0.1948  0.1574
31480SOL     OW97716   3.096   0.996   9.120 -0.3760 -0.8081 -0.7297
31480SOL    HW197717   3.056   1.082   9.109  3.4650  1.2952 -0.0092
31480SOL    HW297718   3.052   0.958   9.196 -1.3318  1.0691 -0.2915
31481SOL     OW97719   5.332   7.442  10.402 -0.3673 -0.1281 -0.1188
31481SOL    HW197720   5.242   7.417  10.425 -1.6256  3.9412  0.1165
31481SOL    HW297721   5.382   7.426  10.482 -1.5283  0.2691  0.7154
31482SOL     OW97722   6.861   8.802  11.132  0.3835  0.2163  0.0558
31482SOL    HW197723   6.861   8.788  11.226  2.8868 -2.8085 -0.2468
31482SOL    HW297724   6.949   8.831  11.111 -0.2788  1.3949 -1.3558
31483SOL     OW97725  11.379   3.132   0.143 -0.0763 -0.2182 -0.4761
31483SOL    HW197726  11.446   3.063   0.144 -0.8235 -0.9930  1.3467
31483SOL    HW297727  11.299   3.088   0.173 -0.3334  1.6139  1.8390
31484SOL     OW97728  10.977   7.256   9.855  0.0792  0.3193  0.5908
31484SOL    HW197729  11.072   7.250   9.852 -0.0087 -1.8499  0.2662
31484SOL    HW297730  10.956   7.340   9.814  1.8365  0.8658  0.7614
31485SOL     OW97731   3.214   2.119   1.440  0.1794 -0.5528 -0.6600
31485SOL    HW197732   3.258   2.071   1.510  0.2954  0.5311  0.0375
31485SOL    HW297733   3.286   2.158   1.389  0.0910  1.0110  0.3318
31486SOL     OW97734   0.067   0.933   1.728 -0.6002 -0.4290  0.1774
31486SOL    HW197735   0.156   0.954   1.758 -1.5981  0.8415  2.4232
31486SOL    HW297736   0.078   0.914   1.634  1.8237  1.1031  0.0606
31487SOL     OW97737   2.236   6.994   9.070  0.2902 -1.0115 -0.0570
31487SOL    HW197738   2.204   7.071   9.022  1.3375  0.3119  1.2644
31487SOL    HW297739   2.218   7.015   9.162 -0.2810 -2.8081  0.2722
31488SOL     OW97740   3.767   1.260  11.146 -0.1095  0.7052  0.4184
31488SOL    HW197741   3.806   1.338  11.183  0.2163  1.8380 -2.0754
31488SOL    HW297742   3.840   1.200  11.132  0.0283  0.9516  0.0706
31489SOL     OW97743   1.980   2.592   1.070 -0.1002  0.4319  0.5124
31489SOL    HW197744   1.917   2.664   1.072  1.8413  2.1885  1.4744
31489SOL    HW297745   1.981   2.558   1.159 -0.1449 -0.0404  0.3378
31490SOL     OW97746   9.463   6.439   6.334  0.1171  0.1505  0.0952
31490SOL    HW197747   9.457   6.454   6.240 -2.1146 -1.3105 -0.0659
31490SOL    HW297748   9.475   6.344   6.342  1.1449  0.3529  1.2966
31491SOL     OW97749   6.053   6.243   8.124 -0.2401 -0.1701 -0.2761
31491SOL    HW197750   6.088   6.241   8.035 -1.8548  0.9910 -0.9915
31491SOL    HW297751   6.095   6.169   8.168  1.3889 -0.1431 -1.6785
31492SOL     OW97752   3.397   0.346   6.647  0.3764 -0.8997  0.1828
31492SOL    HW197753   3.441   0.267   6.616  0.4890 -1.2046  1.0913
31492SOL    HW297754   3.322   0.314   6.696 -0.1757 -0.4057 -0.3176
31493SOL     OW97755   2.266   5.059   7.035  0.0192 -0.3195  0.1143
31493SOL    HW197756   2.233   5.044   7.123 -1.2685 -0.2419 -0.3256
31493SOL    HW297757   2.358   5.034   7.039 -0.5071 -2.3929  0.9488
31494SOL     OW97758   4.347   1.550   3.987  0.0374  0.3402  0.1631
31494SOL    HW197759   4.442   1.538   3.990  0.2539  1.4122 -1.0828
31494SOL    HW297760   4.322   1.569   4.077  1.1953  1.2360  0.3197
31495SOL     OW97761   9.568   5.076   0.864  0.2146 -0.2183  0.1724
31495SOL    HW197762   9.560   4.982   0.875  0.2222 -0.1894  0.4155
31495SOL    HW297763   9.531   5.114   0.944 -1.5255  0.0424 -0.6983
31496SOL     OW97764   9.829   4.045   7.661  0.1676 -0.2702 -0.1537
31496SOL    HW197765   9.870   4.035   7.575  1.0100 -0.9920  0.3162
31496SOL    HW297766   9.743   4.082   7.642 -0.0495 -1.3305 -1.3950
31497SOL     OW97767   1.769   2.949   6.664 -0.3333 -0.1660 -0.1623
31497SOL    HW197768   1.684   2.935   6.705 -0.0174  1.0029  0.9591
31497SOL    HW297769   1.832   2.930   6.733  0.2747  0.2186 -0.6008
31498SOL     OW97770   1.665  10.024   7.161  0.7665 -0.1205  0.0699
31498SOL    HW197771   1.735  10.052   7.220  0.0977  1.5118  0.1562
31498SOL    HW297772   1.701  10.036   7.073  0.3007  1.7506  0.0830
31499SOL     OW97773   8.644   2.704   0.984 -0.5715 -0.0142  0.1964
31499SOL    HW197774   8.660   2.632   1.045 -1.0282 -0.1939  0.1101
31499SOL    HW297775   8.698   2.683   0.908 -1.0232 -0.4883  0.0003
31500SOL     OW97776   5.625   2.908   2.398 -0.3496  0.0933  0.3257
31500SOL    HW197777   5.561   2.881   2.465  1.4323 -0.7895  1.7643
31500SOL    HW297778   5.649   2.998   2.423  0.7743 -0.4524  1.3020
31501SOL     OW97779  10.356   7.930  10.470 -0.3209 -0.2433 -0.1689
31501SOL    HW197780  10.281   7.932  10.410  0.6357  0.2825 -1.3851
31501SOL    HW297781  10.343   8.007  10.525  0.4523  1.1823 -1.8631
31502SOL     OW97782   8.199   9.477   6.648 -0.2866 -0.3276  0.7124
31502SOL    HW197783   8.229   9.395   6.686  0.3793 -0.5875 -0.3494
31502SOL    HW297784   8.193   9.460   6.554  2.3946  1.5317  0.0814
31503SOL     OW97785   6.973   9.707   6.151  0.2089  0.4160  0.0587
31503SOL    HW197786   6.956   9.639   6.216  0.5004 -1.6547 -1.8676
31503SOL    HW297787   7.064   9.692   6.124  0.2422  1.5110 -0.4788
31504SOL     OW97788   1.872   5.985   7.069 -0.4909  0.1137  0.1138
31504SOL    HW197789   1.945   5.931   7.037  0.5297  0.8044  1.1837
31504SOL    HW297790   1.811   5.989   6.996  1.7712  1.6845 -1.8468
31505SOL     OW97791   0.910   4.104  11.036 -0.2015 -0.0108 -0.0556
31505SOL    HW197792   0.928   4.123  11.128  1.0864  0.3504 -0.3710
31505SOL    HW297793   0.882   4.187  10.999  0.0323  0.0188 -0.1670
31506SOL     OW97794   2.782   9.043   1.941  0.1856  0.2048 -0.3868
31506SOL    HW197795   2.729   9.035   1.861 -2.2646  0.4126  1.0902
31506SOL    HW297796   2.754   8.969   1.996  0.5395  1.0165  0.9427
31507SOL     OW97797   9.621   3.792   3.487  0.2024  0.5246 -0.1874
31507SOL    HW197798   9.539   3.746   3.504 -0.0120  0.8698 -0.2728
31507SOL    HW297799   9.610   3.877   3.529  0.9453  0.1723  0.7515
31508SOL     OW97800   3.539   6.048  11.351  0.3503  0.1369  0.5456
31508SOL    HW197801   3.599   6.033  11.278 -0.5518 -0.0259 -0.1885
31508SOL    HW297802   3.509   5.961  11.375 -2.2395  0.3549 -1.4259
31509SOL     OW97803   4.017   4.022   2.381  0.7073  0.7775 -0.3827
31509SOL    HW197804   4.088   3.966   2.413  1.1149  1.3745 -0.2296
31509SOL    HW297805   3.956   4.027   2.454  0.6512  0.4932 -0.4111
31510SOL     OW97806   1.275   9.185   3.024  0.2600  0.4297 -0.2429
31510SOL    HW197807   1.263   9.236   3.104  0.5104  0.9930 -0.5667
31510SOL    HW297808   1.327   9.109   3.053 -1.6132 -0.6085  0.6023
31511SOL     OW97809   0.987  10.409   7.956  0.2514 -0.4124 -0.2237
31511SOL    HW197810   1.027  10.345   8.015 -0.0421 -0.2984  0.1059
31511SOL    HW297811   0.992  10.492   8.004 -2.7804 -0.8149  1.0538
31512SOL     OW97812   8.808   3.555   5.314  0.3382 -0.1245 -0.4068
31512SOL    HW197813   8.775   3.467   5.331 -0.1321  0.2288  0.5960
31512SOL    HW297814   8.903   3.545   5.314  0.2845 -0.7402 -0.9908
31513SOL     OW97815   7.856   4.704   9.452 -0.1604  0.4456  0.0386
31513SOL    HW197816   7.896   4.675   9.370  1.0247  0.3784  0.6201
31513SOL    HW297817   7.924   4.757   9.495 -1.2058  1.5211  0.4094
31514SOL     OW97818   8.880   8.600   9.467  0.3973 -0.4838 -0.2863
31514SOL    HW197819   8.893   8.655   9.390  2.3375 -0.8435 -0.2715
31514SOL    HW297820   8.969   8.572   9.491 -0.4724 -3.6853 -0.3768
31515SOL     OW97821   9.979   4.108   5.321  0.5879 -0.2351 -0.2872
31515SOL    HW197822   9.993   4.061   5.403 -2.0932  0.3355  0.5899
31515SOL    HW297823  10.048   4.075   5.262  0.5241 -3.1749  1.1258
31516SOL     OW97824   4.773  11.209   1.245 -0.5109 -0.6623 -0.1426
31516SOL    HW197825   4.868  11.212   1.233 -0.7028 -2.0886 -2.6415
31516SOL    HW297826   4.754  11.283   1.303  1.8401  1.4262 -1.8116
31517SOL     OW97827   5.785   6.330   3.309  0.3536 -0.4231 -0.2827
31517SOL    HW197828   5.814   6.367   3.393  0.7250 -1.3026 -0.0138
31517SOL    HW297829   5.867   6.315   3.262  0.1370  0.1885 -0.8635
31518SOL     OW97830   2.919   3.819   7.253  1.1644  0.0588  0.8303
31518SOL    HW197831   2.990   3.850   7.198  1.8646  0.5251  1.9768
31518SOL    HW297832   2.921   3.723   7.243  0.1227  0.1911 -1.3156
31519SOL     OW97833  10.595   1.080   0.922  0.3409  0.1086  0.7143
31519SOL    HW197834  10.506   1.074   0.957  0.5072 -0.2247  1.0911
31519SOL    HW297835  10.644   1.129   0.987  0.3210  0.7148  0.2760
31520SOL     OW97836   9.690   2.531   3.527  0.0411 -0.3116  0.6990
31520SOL    HW197837   9.700   2.578   3.444  1.4894  0.2078  1.1270
31520SOL    HW297838   9.657   2.597   3.588 -1.8027 -0.8890  0.3867
31521SOL     OW97839   1.652  10.016   2.054 -0.2889  0.0844  0.1040
31521SOL    HW197840   1.638   9.922   2.063 -1.1408  0.0847 -0.9622
31521SOL    HW297841   1.714  10.024   1.981  0.1170  0.3306  0.4776
31522SOL     OW97842  10.983   6.109   1.849 -0.3108 -0.4949 -0.0735
31522SOL    HW197843  11.073   6.077   1.860 -0.7656 -1.4538  1.0786
31522SOL    HW297844  10.983   6.194   1.892  0.1484 -0.2969 -0.4573
31523SOL     OW97845   0.420   6.708   0.495 -0.3557  0.1878  0.3722
31523SOL    HW197846   0.392   6.784   0.444 -1.6628  0.1994  1.0655
31523SOL    HW297847   0.496   6.738   0.544  1.6297 -0.1238 -2.2978
31524SOL     OW97848   1.389  10.377   9.854 -0.2573  0.3877 -0.0390
31524SOL    HW197849   1.295  10.359   9.847  0.1481 -2.5251  0.7360
31524SOL    HW297850   1.416  10.398   9.764 -1.5284  0.6763 -0.3712
31525SOL     OW97851   9.067   3.959   4.244 -0.2653  0.3584  0.4840
31525SOL    HW197852   8.981   3.935   4.209 -0.7732  1.4203  0.9767
31525SOL    HW297853   9.069   4.054   4.242  1.5144  0.3545 -0.9448
31526SOL     OW97854  10.983   5.371   3.944 -0.5844  0.0765 -0.3392
31526SOL    HW197855  11.023   5.290   3.912 -1.7114 -0.5225 -0.2659
31526SOL    HW297856  11.056   5.421   3.980  0.2008 -0.6886 -0.8374
31527SOL     OW97857   3.667   4.215   4.535  0.5349  0.6423  0.4570
31527SOL    HW197858   3.733   4.192   4.600  0.9677  0.3795 -0.0694
31527SOL    HW297859   3.584   4.183   4.572  0.6859  1.0430  1.1506
31528SOL     OW97860   4.986   1.011   7.311  0.4801 -0.4356  0.3777
31528SOL    HW197861   4.927   1.086   7.306 -0.0994 -0.9030 -0.1278
31528SOL    HW297862   4.977   0.979   7.401  0.2483 -0.2694  0.4143
31529SOL     OW97863   7.362   8.909   6.717  0.7439 -0.2613  0.1671
31529SOL    HW197864   7.363   8.814   6.705 -1.5348 -0.2144 -1.0260
31529SOL    HW297865   7.343   8.921   6.810 -1.1937 -1.0623 -0.0668
31530SOL     OW97866   5.052   0.116   0.989  0.1743  0.4918 -0.0022
31530SOL    HW197867   4.958   0.101   0.996  0.0778  1.4541  1.0932
31530SOL    HW297868   5.061   0.211   0.980  1.0509  0.4236  0.0353
31531SOL     OW97869   0.910   3.177   2.041  0.1317  0.4469  0.1100
31531SOL    HW197870   0.928   3.181   2.136 -0.0967  0.5489  0.1487
31531SOL    HW297871   0.842   3.242   2.027  2.8850  3.4154 -0.7492
31532SOL     OW97872   6.986   7.335   5.496  0.0521 -0.0271 -0.2290
31532SOL    HW197873   7.065   7.382   5.469  0.5871 -0.2696  0.8620
31532SOL    HW297874   6.932   7.402   5.538  0.1834 -0.0810  0.0327
31533SOL     OW97875  10.708   7.695   4.778  0.2181  0.6905 -0.2244
31533SOL    HW197876  10.730   7.632   4.846 -1.1327  0.9305  0.4593
31533SOL    HW297877  10.633   7.656   4.733  1.2841  0.3762 -1.8155
31534SOL     OW97878   9.934  11.262   4.339  0.3305 -0.5099 -0.5504
31534SOL    HW197879   9.948  11.177   4.382  0.8800  0.7010  1.8736
31534SOL    HW297880   9.925  11.241   4.246  1.3091 -3.1247 -0.1479
31535SOL     OW97881   8.598  10.093   1.690  0.2224 -0.0839  0.1638
31535SOL    HW197882   8.580  10.181   1.722 -0.2308  0.3410 -1.1644
31535SOL    HW297883   8.516  10.064   1.650 -0.1433 -1.7850  1.9684
31536SOL     OW97884   3.350  10.390   7.925  0.2349  0.4542 -0.8655
31536SOL    HW197885   3.366  10.344   8.007  0.3953  0.2008 -1.0379
31536SOL    HW297886   3.262  10.361   7.899  0.0222  0.8343 -0.5882
31537SOL     OW97887   2.714   8.591   5.805  0.2468 -0.0994  0.1472
31537SOL    HW197888   2.712   8.684   5.826  0.8434  0.1108 -0.6930
31537SOL    HW297889   2.651   8.580   5.735 -0.7808 -0.5726  1.1181
31538SOL     OW97890   5.696   1.587   3.425  0.1105  0.4827  0.1327
31538SOL    HW197891   5.619   1.587   3.482  0.4670 -1.5543  0.6892
31538SOL    HW297892   5.671   1.641   3.350 -2.6626 -1.7973 -0.7387
31539SOL     OW97893  10.785   1.365   6.286 -0.8079  0.1250 -0.0793
31539SOL    HW197894  10.814   1.322   6.366  0.2029  1.5954  0.3705
31539SOL    HW297895  10.788   1.459   6.306 -0.4542  0.5249 -1.8561
31540SOL     OW97896  10.954   0.721   7.005 -0.3742  0.2857  0.1780
31540SOL    HW197897  10.875   0.763   7.038  0.3297  2.1111 -0.3258
31540SOL    HW297898  10.924   0.669   6.930 -1.2919 -0.2753  0.9104
31541SOL     OW97899   9.772   8.353   7.699 -0.6676 -0.0851  0.2087
31541SOL    HW197900   9.763   8.390   7.611 -3.4640 -0.2590  0.3202
31541SOL    HW297901   9.686   8.368   7.740 -0.3688 -2.4778  1.9175
31542SOL     OW97902   7.416   0.279   9.459 -0.3542 -0.1117 -0.2481
31542SOL    HW197903   7.431   0.186   9.475 -1.4282 -0.1034  0.9229
31542SOL    HW297904   7.387   0.283   9.368 -0.7599 -0.9875 -0.1685
31543SOL     OW97905  10.498   0.906   0.711  0.3011  0.9175 -0.0181
31543SOL    HW197906  10.582   0.870   0.681  1.0476  1.1000  1.7441
31543SOL    HW297907  10.518   0.994   0.742 -0.7217  1.2990 -0.3906
31544SOL     OW97908   7.242  11.210   8.746  0.0885 -0.4426  0.0453
31544SOL    HW197909   7.162  11.223   8.697  0.8134  0.1490 -1.0199
31544SOL    HW297910   7.283  11.297   8.748  0.9785 -0.8541  0.0602
31545SOL     OW97911   4.688   1.789   6.208 -0.2633 -0.3029 -0.2714
31545SOL    HW197912   4.688   1.872   6.160 -0.1662 -0.1619 -0.0290
31545SOL    HW297913   4.599   1.756   6.199 -0.5186  0.2107  0.2878
31546SOL     OW97914   5.868   2.127   8.963 -0.3202 -0.1782 -0.4620
31546SOL    HW197915   5.800   2.124   9.031  0.3598  0.1664  0.2553
31546SOL    HW297916   5.862   2.042   8.919 -0.0743 -0.8446  0.7467
31547SOL     OW97917   6.357   0.705   8.090 -0.1899  0.1234  0.2441
31547SOL    HW197918   6.428   0.708   8.026  0.3528 -1.0509  0.7689
31547SOL    HW297919   6.294   0.771   8.059  0.9351  0.9011 -0.4392
31548SOL     OW97920   8.763   1.537   6.819 -0.3958  0.0280  0.4003
31548SOL    HW197921   8.743   1.495   6.735 -1.6664 -0.6981  1.0244
31548SOL    HW297922   8.816   1.613   6.796 -0.5226 -0.2868 -1.0416
31549SOL     OW97923   4.503   4.638  10.609  0.8869 -0.7930  0.5772
31549SOL    HW197924   4.564   4.652  10.537  0.9661 -1.7449  0.4466
31549SOL    HW297925   4.437   4.578  10.574 -1.8102  2.3800 -0.2139
31550SOL     OW97926  10.426   5.624   6.299 -0.0284 -0.0973  0.4199
31550SOL    HW197927  10.444   5.581   6.383  0.6946 -0.5821  0.0286
31550SOL    HW297928  10.497   5.595   6.242  0.1916  1.2210 -0.0075
31551SOL     OW97929   1.467  11.103   3.030  0.9852 -0.2113 -0.1439
31551SOL    HW197930   1.426  11.185   3.058 -0.7747 -1.2554  0.5074
31551SOL    HW297931   1.495  11.120   2.940  0.2560  0.9780 -0.1669
31552SOL     OW97932   9.387  10.973   6.719 -0.0661 -0.5321 -0.0177
31552SOL    HW197933   9.428  10.982   6.633 -1.0395  1.4697 -0.3463
31552SOL    HW297934   9.415  11.051   6.767 -3.2772  0.9204 -0.2462
31553SOL     OW97935   3.730   2.007   7.881 -0.8904  0.7025 -0.2458
31553SOL    HW197936   3.754   2.090   7.921  2.4507 -0.2457  0.0205
31553SOL    HW297937   3.659   2.029   7.820  1.0254  4.1050 -1.4840
31554SOL     OW97938   9.411   6.728   0.024  0.3191 -0.0297  0.3775
31554SOL    HW197939   9.431   6.634   0.030 -0.6841 -0.2061  1.3967
31554SOL    HW297940   9.488   6.766  -0.018  0.8974 -1.2586  0.2589
31555SOL     OW97941   4.267   6.541   2.045 -0.2945 -0.4064 -0.7734
31555SOL    HW197942   4.311   6.512   2.124  2.4149  1.4993 -1.4374
31555SOL    HW297943   4.215   6.465   2.017  0.3705 -1.8356  1.5954
31556SOL     OW97944   3.871   1.369   6.121 -1.2004 -0.1938  0.0540
31556SOL    HW197945   3.867   1.445   6.179  0.3452 -0.1581  0.1740
31556SOL    HW297946   3.946   1.388   6.064 -0.1482 -2.0580  0.7334
31557SOL     OW97947   0.659   9.084   0.718  0.4246 -1.0818 -0.6291
31557SOL    HW197948   0.736   9.139   0.725 -1.5466  1.8944 -0.3711
31557SOL    HW297949   0.624   9.104   0.631 -0.7536 -1.3400 -0.2343
31558SOL     OW97950   2.831   6.299   4.842 -0.2425 -0.0908  0.2647
31558SOL    HW197951   2.790   6.304   4.928  0.3673  0.1379  0.5492
31558SOL    HW297952   2.841   6.205   4.825 -0.7642 -0.1427  0.2501
31559SOL     OW97953   7.903   5.834   6.806 -0.1821  0.0946  0.0327
31559SOL    HW197954   7.852   5.911   6.782 -0.8025  0.8510  3.2916
31559SOL    HW297955   7.838   5.765   6.816 -0.1521  0.1736  0.8450
31560SOL     OW97956   5.812   3.873   5.076  0.0121 -0.2446  0.2520
31560SOL    HW197957   5.896   3.839   5.106  1.8904  2.6188 -1.2665
31560SOL    HW297958   5.826   3.891   4.983 -2.9220 -1.3081 -0.5047
31561SOL     OW97959   9.340   0.886   7.673 -0.0841  0.3122 -0.2690
31561SOL    HW197960   9.375   0.821   7.612  0.7692  0.7567 -0.2792
31561SOL    HW297961   9.358   0.970   7.631  1.2287  0.6663  0.9175
31562SOL     OW97962   2.452  10.485   5.327 -0.3411 -0.5309 -0.0609
31562SOL    HW197963   2.437  10.391   5.329 -0.3390 -0.5639 -1.0277
31562SOL    HW297964   2.542  10.496   5.356 -0.7057 -0.7140  1.2181
31563SOL     OW97965   3.030   9.186   7.975 -0.2670  0.1401  0.1552
31563SOL    HW197966   3.022   9.206   7.882 -1.4224 -0.9133  0.0063
31563SOL    HW297967   3.123   9.162   7.986  0.1233  1.2622 -0.4962
31564SOL     OW97968   6.283   8.685   2.613 -0.3502  0.1392  0.3879
31564SOL    HW197969   6.222   8.729   2.554  1.5011  2.2412 -0.0917
31564SOL    HW297970   6.242   8.690   2.699 -1.1880  0.8112 -0.0404
31565SOL     OW97971   6.985   3.801   0.200 -0.0632 -0.6234  0.1139
31565SOL    HW197972   7.005   3.731   0.138 -0.8945 -1.1701  0.4478
31565SOL    HW297973   6.913   3.849   0.160 -0.4503 -0.8373  0.5389
31566SOL     OW97974   7.895  10.623   5.655 -0.0615 -0.8074  0.2471
31566SOL    HW197975   7.988  10.623   5.677 -0.0383 -1.9531  0.1642
31566SOL    HW297976   7.892  10.640   5.561 -0.0148  0.5281  0.4567
31567SOL     OW97977   7.359   3.034   0.308 -0.0278 -0.1279  0.5185
31567SOL    HW197978   7.429   2.996   0.255  0.6403  1.9402 -0.1863
31567SOL    HW297979   7.383   3.013   0.398  0.8036 -0.5818  0.2057
31568SOL     OW97980   2.404   5.837   5.681 -0.4392 -0.4772  0.2565
31568SOL    HW197981   2.453   5.919   5.681  0.2778 -0.7593 -2.8681
31568SOL    HW297982   2.343   5.846   5.608  0.2654 -2.9585 -0.7586
31569SOL     OW97983   3.555   3.908   4.293  0.0150 -0.3447  0.5267
31569SOL    HW197984   3.640   3.914   4.250 -0.3669  0.3483 -0.1795
31569SOL    HW297985   3.556   3.824   4.338  0.8734 -0.5804  0.0869
31570SOL     OW97986   1.353   1.122   7.562  0.5650  0.0613  0.3993
31570SOL    HW197987   1.447   1.132   7.550  1.0809 -4.4056 -1.0860
31570SOL    HW297988   1.344   1.056   7.630 -1.3239 -1.2757 -1.0179
31571SOL     OW97989   9.609   3.508   0.763 -0.1281  0.6438 -0.1612
31571SOL    HW197990   9.588   3.484   0.853 -1.8523 -1.0145 -0.9282
31571SOL    HW297991   9.591   3.602   0.758 -0.8728  0.5860  0.9972
31572SOL     OW97992   6.414   6.689   2.392 -0.3075  0.3073  0.0684
31572SOL    HW197993   6.391   6.604   2.429  2.0908 -0.3039  0.3379
31572SOL    HW297994   6.391   6.753   2.460  1.2450 -0.5131  1.4205
31573SOL     OW97995   2.001   2.781   6.318  0.0273  0.5848  0.1965
31573SOL    HW197996   1.931   2.723   6.290 -1.1119  1.2926  1.4571
31573SOL    HW297997   1.985   2.795   6.411  0.4626  2.6215  0.0095
31574SOL     OW97998   0.029   4.496   6.227 -0.3067 -0.5179 -0.3631
31574SOL    HW197999   0.090   4.525   6.159 -1.2406  3.7577  0.3253
31574SOL    HW298000  -0.040   4.451   6.178  1.0239 -1.1917 -1.7024
31575SOL     OW98001   1.289  10.808   9.862 -0.6095 -0.4768  0.6970
31575SOL    HW198002   1.306  10.902   9.866  0.2993 -0.5216 -1.2268
31575SOL    HW298003   1.311  10.776   9.950 -0.2766  0.9907  1.1716
31576SOL     OW98004   0.430   1.138   7.824  0.2055 -0.1952 -0.0156
31576SOL    HW198005   0.473   1.087   7.892  1.0179  0.0368 -0.3466
31576SOL    HW298006   0.499   1.157   7.760 -0.3995  0.1296 -0.5894
31577SOL     OW98007   3.359   2.519   7.093  0.3544  0.0343 -0.1204
31577SOL    HW198008   3.421   2.591   7.078  0.4278 -0.0539 -0.2482
31577SOL    HW298009   3.328   2.495   7.005 -0.0109  0.2071 -0.0392
31578SOL     OW98010   3.320  10.111   9.460 -0.0182 -0.8453 -0.0534
31578SOL    HW198011   3.293  10.191   9.414  0.8479 -0.2592  0.4137
31578SOL    HW298012   3.291  10.125   9.550  1.3169 -0.4384  0.3340
31579SOL     OW98013   0.593   5.594  11.300 -0.5992 -0.4350  0.2161
31579SOL    HW198014   0.593   5.502  11.274 -1.6756 -0.1200 -1.0041
31579SOL    HW298015   0.525   5.634  11.246 -2.1255  0.5270  2.6735
31580SOL     OW98016   4.977   9.395   9.251  0.9251 -0.1005  0.0021
31580SOL    HW198017   5.055   9.360   9.294  0.3293 -1.4010  0.0682
31580SOL    HW298018   4.963   9.480   9.293  2.6157  0.4155 -0.4037
31581SOL     OW98019   1.154   1.358   0.781  0.2589  0.1201  0.0182
31581SOL    HW198020   1.209   1.316   0.847  0.1766  0.8315  0.5560
31581SOL    HW298021   1.199   1.343   0.698  1.3604  0.8323  0.4639
31582SOL     OW98022   7.187   9.604   0.505 -0.0140 -0.7246  0.1142
31582SOL    HW198023   7.151   9.690   0.485 -1.0311 -1.1163  0.1687
31582SOL    HW298024   7.281   9.618   0.514  0.2579 -0.1114 -2.7436
31583SOL     OW98025   4.461   8.549   4.505  0.2432  1.0651  0.0399
31583SOL    HW198026   4.452   8.538   4.410  0.1626  2.9593 -0.2188
31583SOL    HW298027   4.413   8.630   4.524 -0.4798  0.2662  1.8437
31584SOL     OW98028   3.172   3.913   7.701  0.3648  0.1547 -0.3068
31584SOL    HW198029   3.218   3.850   7.757  2.0323  1.6055  0.0432
31584SOL    HW298030   3.111   3.958   7.760 -0.2629 -0.5747 -0.3900
31585SOL     OW98031   5.455   0.062   8.270 -0.1986 -0.1723 -0.1593
31585SOL    HW198032   5.419   0.122   8.205  0.0028  1.5652  1.2354
31585SOL    HW298033   5.378   0.020   8.309 -0.7141  2.1222  1.5025
31586SOL     OW98034   6.833   8.563   7.789 -0.6103  0.2740 -0.2545
31586SOL    HW198035   6.858   8.602   7.873  0.1340 -0.0182 -0.3315
31586SOL    HW298036   6.793   8.635   7.740  0.8463  0.9813 -0.4417
31587SOL     OW98037   2.209   6.832   3.884  0.4091  0.4050 -0.2859
31587SOL    HW198038   2.130   6.880   3.909 -0.8334 -2.3446  1.6112
31587SOL    HW298039   2.274   6.857   3.950  0.2236  0.5296 -0.1482
31588SOL     OW98040   5.884   2.371   5.358 -0.3872  0.4725  0.0309
31588SOL    HW198041   5.846   2.342   5.441 -0.3135  0.3876  0.0346
31588SOL    HW298042   5.817   2.352   5.292 -1.0491  1.8727  0.2668
31589SOL     OW98043   3.337   6.480   0.275  0.7524  0.3603 -0.0767
31589SOL    HW198044   3.377   6.403   0.317  0.9416 -0.2533 -1.3286
31589SOL    HW298045   3.253   6.449   0.243  0.1876  1.0817  0.6509
31590SOL     OW98046   5.373   0.593   2.573 -0.0429 -0.0406  0.0814
31590SOL    HW198047   5.453   0.595   2.520 -0.5825 -1.5994 -0.8646
31590SOL    HW298048   5.379   0.671   2.628  2.8043 -0.7933  1.0534
31591SOL     OW98049  10.786  10.389   4.498 -0.3204  0.4155  0.3408
31591SOL    HW198050  10.758  10.306   4.458  0.3014  0.3919 -0.0574
31591SOL    HW298051  10.731  10.455   4.456  0.5026  0.4206 -0.7730
31592SOL     OW98052   6.104   7.031  11.318 -0.3358  0.5184 -0.8410
31592SOL    HW198053   6.179   6.992  11.362 -0.6218 -0.6754 -1.3783
31592SOL    HW298054   6.050   7.065  11.389  0.0777  0.2172 -0.3734
31593SOL     OW98055   7.352   7.749  10.124  0.1465  0.2057 -0.0297
31593SOL    HW198056   7.262   7.778  10.110  0.6401  1.4476 -0.8183
31593SOL    HW298057   7.344   7.658  10.153 -1.4963  1.1339  2.8632
31594SOL     OW98058  10.793   5.023   2.516 -0.0958 -0.4556  0.3530
31594SOL    HW198059  10.810   4.931   2.495 -2.8721 -0.8223 -0.7315
31594SOL    HW298060  10.794   5.067   2.431  2.2293  0.8142  0.9471
31595SOL     OW98061   5.015  10.913   0.617 -0.0412 -0.4815 -0.5326
31595SOL    HW198062   4.937  10.884   0.570  0.2604 -1.5776 -0.3802
31595SOL    HW298063   5.043  10.837   0.667  0.9673 -0.0204 -0.3665
31596SOL     OW98064   3.370   3.262   3.475  0.1318 -0.0999  0.1897
31596SOL    HW198065   3.438   3.251   3.541 -0.3622  0.2441  0.7600
31596SOL    HW298066   3.359   3.357   3.468 -0.6145 -0.1610  0.4414
31597SOL     OW98067   3.305   9.286   0.308  1.0725  0.1856  0.9562
31597SOL    HW198068   3.331   9.236   0.230  0.8735  2.5825 -0.7853
31597SOL    HW298069   3.210   9.279   0.310  0.8734  1.7978 -0.3498
31598SOL     OW98070  10.390   3.017   1.783 -0.1718 -0.0231 -0.0440
31598SOL    HW198071  10.334   3.082   1.740  1.5552  2.4147  1.1924
31598SOL    HW298072  10.361   3.017   1.874 -0.3853 -1.3346 -0.0827
31599SOL     OW98073   9.114   7.319   9.853 -0.1036  0.0673  0.2478
31599SOL    HW198074   9.106   7.256   9.781 -0.2135  0.4937 -0.1127
31599SOL    HW298075   9.135   7.265   9.930 -1.4287 -0.5546  0.1967
31600SOL     OW98076   2.383  11.068   9.023 -0.3787 -0.0102  0.1814
31600SOL    HW198077   2.296  11.036   9.047 -0.6832  0.0595 -0.8107
31600SOL    HW298078   2.441  10.995   9.044 -1.1668 -1.6738 -2.8428
31601SOL     OW98079   8.177   8.761   0.248 -0.8107  0.0812  0.0396
31601SOL    HW198080   8.250   8.741   0.189 -2.0678  1.5357 -2.1548
31601SOL    HW298081   8.139   8.841   0.211 -2.5046  0.2873  2.0976
31602SOL     OW98082   7.787  10.851   7.758  0.4544 -0.4261 -0.1881
31602SOL    HW198083   7.798  10.803   7.676 -0.1304 -0.3083 -0.3363
31602SOL    HW298084   7.726  10.798   7.809 -2.1876  1.3091 -1.3201
31603SOL     OW98085   5.618   8.940  11.157 -0.0453  0.4823 -0.0163
31603SOL    HW198086   5.643   8.933  11.249 -0.2336 -1.4628 -0.0800
31603SOL    HW298087   5.542   8.883  11.148  0.0164  0.5741 -1.4036
31604SOL     OW98088   7.873  10.036   1.352  0.6679 -0.1729 -0.7991
31604SOL    HW198089   7.830  10.027   1.267 -0.6010 -0.3910 -0.1525
31604SOL    HW298090   7.811  10.085   1.406  1.1062 -0.7343  0.2536
31605SOL     OW98091   9.501   2.601   1.592  0.5758  0.2093  0.1572
31605SOL    HW198092   9.556   2.540   1.641 -0.2355  0.0317  0.8822
31605SOL    HW298093   9.551   2.621   1.513  0.1188 -2.9136 -1.0835
31606SOL     OW98094   6.534   6.660   0.005  0.2248  0.0654 -0.5602
31606SOL    HW198095   6.456   6.646   0.058  0.3754  1.0817 -0.0269
31606SOL    HW298096   6.603   6.612   0.051  0.7676  2.4002  1.3052
31607SOL     OW98097  10.727   9.505   5.024  0.3133  0.4203 -0.2833
31607SOL    HW198098  10.718   9.415   4.993  0.5766 -0.0005  0.8388
31607SOL    HW298099  10.766   9.498   5.111  0.0363  1.6030 -0.0365
31608SOL     OW98100   4.401   8.465   6.984  0.6357 -0.0630  0.3466
31608SOL    HW198101   4.433   8.409   7.054  1.1223 -0.6191 -0.2990
31608SOL    HW298102   4.430   8.422   6.903 -2.5354 -1.1256 -0.3674
31609SOL     OW98103   6.223   2.332   4.327 -0.1865 -0.4931  0.0093
31609SOL    HW198104   6.187   2.405   4.276 -0.5084 -1.6447 -1.4696
31609SOL    HW298105   6.316   2.331   4.305 -0.5122 -1.6449 -1.4537
31610SOL     OW98106   6.792   6.053   8.518 -0.0621 -0.3092 -0.9008
31610SOL    HW198107   6.820   5.967   8.488  1.5021 -0.3815  0.6345
31610SOL    HW298108   6.870   6.109   8.506  0.6432 -0.3029  2.6450
31611SOL     OW98109   1.604  11.194  10.218  0.5290 -0.4685 -0.0027
31611SOL    HW198110   1.573  11.112  10.257 -1.9900  0.7013  0.6299
31611SOL    HW298111   1.551  11.203  10.138  0.9982  0.4004 -0.2233
31612SOL     OW98112   2.533   9.367   6.876 -0.3583  0.0099 -0.3332
31612SOL    HW198113   2.582   9.287   6.858  0.1542  0.2287  0.0718
31612SOL    HW298114   2.490   9.351   6.959  0.1513  0.3422 -0.0018
31613SOL     OW98115   6.375   7.087   2.492 -0.1232  0.2917 -0.0320
31613SOL    HW198116   6.319   7.164   2.501  0.4721  0.8155 -0.7033
31613SOL    HW298117   6.342   7.026   2.558 -0.6881  1.0685  0.4237
31614SOL     OW98118   2.247   5.421   9.652  0.5042  0.1179  0.2780
31614SOL    HW198119   2.184   5.487   9.683  1.1129  0.0564  1.7298
31614SOL    HW298120   2.193   5.348   9.622 -0.1385  0.6047  0.2224
31615SOL     OW98121   4.396  11.139   3.970  0.2579  0.0577 -0.1685
31615SOL    HW198122   4.420  11.047   3.956  0.9524  0.1499  0.3801
31615SOL    HW298123   4.303  11.143   3.946 -0.0632 -1.0060  0.7835
31616SOL     OW98124   4.123   3.901   6.221 -0.0268 -0.0286 -0.0611
31616SOL    HW198125   4.057   3.944   6.274 -1.2205  0.0283 -1.5380
31616SOL    HW298126   4.074   3.844   6.162  1.4209 -2.6278  1.0435
31617SOL     OW98127   1.887  10.810   1.937  0.0485 -0.2955 -0.1275
31617SOL    HW198128   1.878  10.811   2.032 -0.2148 -0.2899 -0.1527
31617SOL    HW298129   1.941  10.732   1.919 -1.8961 -1.7085 -0.1419
31618SOL     OW98130   1.826   5.837   4.616  0.0315  0.4663 -0.1371
31618SOL    HW198131   1.905   5.892   4.616  0.5268 -0.1675  1.7056
31618SOL    HW298132   1.810   5.818   4.708 -0.9203 -1.3451 -0.6254
31619SOL     OW98133   2.498   7.929  10.224  0.2789  0.4765  0.1821
31619SOL    HW198134   2.445   7.940  10.303 -0.8488 -3.3920  0.1836
31619SOL    HW298135   2.460   7.990  10.161 -1.9367  0.2990  1.2502
31620SOL     OW98136   0.526   8.383   0.080 -0.3693  0.2448 -0.2451
31620SOL    HW198137   0.462   8.381   0.009 -0.3092 -2.9242 -0.3187
31620SOL    HW298138   0.480   8.344   0.155  1.3015 -1.7785 -0.1987
31621SOL     OW98139   9.385   1.096   5.331 -0.0804  0.1735  0.5029
31621SOL    HW198140   9.359   1.009   5.359 -0.7159  0.6383  1.4129
31621SOL    HW298141   9.476   1.104   5.360  0.2239 -0.4461 -0.2466
31622SOL     OW98142  11.354  10.525   9.818  0.1737  0.3346 -0.2457
31622SOL    HW198143  11.267  10.489   9.834 -0.6268  1.7358 -1.1828
31622SOL    HW298144  11.406  10.450   9.790 -1.2501 -0.2554 -1.4834
31623SOL     OW98145   4.924   4.885   1.252  0.1716 -0.3977  0.0098
31623SOL    HW198146   4.905   4.921   1.165 -1.7554 -0.8030  0.2198
31623SOL    HW298147   5.001   4.829   1.239  0.4560  0.2584 -1.2400
31624SOL     OW98148   9.055   0.620   6.701 -0.0660  0.2569  0.2668
31624SOL    HW198149   9.096   0.593   6.783 -0.7785 -0.5126  0.3845
31624SOL    HW298150   9.017   0.706   6.720 -0.3008  0.0450  0.7775
31625SOL     OW98151   9.705   0.527  10.669  0.3128 -0.2712  0.2924
31625SOL    HW198152   9.661   0.609  10.692  2.1782  0.8732 -0.0251
31625SOL    HW298153   9.688   0.516  10.576 -1.7704 -1.4620  0.7477
31626SOL     OW98154   2.374   1.889   6.957  0.0847  0.3867 -0.7286
31626SOL    HW198155   2.374   1.933   7.042 -2.8027  1.0052 -0.9484
31626SOL    HW298156   2.377   1.796   6.979 -1.7926  0.4894  0.1842
31627SOL     OW98157   9.490   7.696   8.750 -0.2308 -0.2336  0.2503
31627SOL    HW198158   9.507   7.602   8.738  1.8606  0.2055 -0.7324
31627SOL    HW298159   9.428   7.719   8.681 -1.1221 -0.9553  0.7878
31628SOL     OW98160   4.731   5.606   5.022  0.0016  0.5921 -0.0072
31628SOL    HW198161   4.648   5.581   4.983 -0.5751 -0.4103  1.7324
31628SOL    HW298162   4.776   5.657   4.954 -1.2705 -0.3298 -1.6050
31629SOL     OW98163   7.090   7.624  10.056  0.3410 -0.0496  0.0113
31629SOL    HW198164   7.164   7.579  10.015  2.2084  1.5766  1.3934
31629SOL    HW298165   7.054   7.680   9.988  1.6359  0.5819 -0.1735
31630SOL     OW98166  10.898   2.643   9.261  0.0008  0.3553 -0.4764
31630SOL    HW198167  10.877   2.600   9.344 -0.9017 -1.4700 -1.5837
31630SOL    HW298168  10.936   2.727   9.286 -1.2540  0.3197  1.7501
31631SOL     OW98169   9.360   4.533  10.055 -0.1274  0.4965 -0.1679
31631SOL    HW198170   9.342   4.481  10.133  1.0182  0.5944  0.1778
31631SOL    HW298171   9.275   4.573  10.032 -0.5439  0.1855  0.8114
31632SOL     OW98172   2.126   1.535   9.665  0.1051 -0.9237 -0.2129
31632SOL    HW198173   2.058   1.548   9.599 -2.4026  2.5894  2.7063
31632SOL    HW298174   2.202   1.581   9.629 -0.8733  0.0768 -1.0829
31633SOL     OW98175   5.369   9.118   8.003 -0.0796 -0.0946 -0.2042
31633SOL    HW198176   5.317   9.054   8.051 -1.0953  0.5739 -0.3756
31633SOL    HW298177   5.392   9.073   7.922 -0.6303 -0.3192 -0.2454
31634SOL     OW98178   2.896   2.959  10.368  0.1918  0.0369  0.3124
31634SOL    HW198179   2.952   2.934  10.442 -0.3284 -3.4354 -0.3170
31634SOL    HW298180   2.809   2.927  10.391 -0.0226 -0.9757 -1.6614
31635SOL     OW98181  10.134   1.134   1.118 -0.3066 -0.0197  0.0631
31635SOL    HW198182  10.217   1.144   1.165  0.5290 -2.5673 -0.7165
31635SOL    HW298183  10.066   1.150   1.184  0.7676  1.4847  0.8576
31636SOL     OW98184   4.739   0.990   5.779 -0.0349  0.0975  0.4308
31636SOL    HW198185   4.797   1.044   5.726 -0.4257  1.0377  0.9488
31636SOL    HW298186   4.791   0.968   5.857 -0.4804  1.2537  1.0730
31637SOL     OW98187   1.836   7.210   6.869  0.1300 -0.3585 -0.2075
31637SOL    HW198188   1.924   7.179   6.890  0.8159  0.3286 -1.8872
31637SOL    HW298189   1.785   7.131   6.855  0.6855 -0.7645  0.0436
31638SOL     OW98190   7.367   6.435   9.364 -0.0515 -0.4654 -0.3889
31638SOL    HW198191   7.292   6.416   9.419  0.3429 -0.4652  0.1652
31638SOL    HW298192   7.339   6.507   9.308 -0.7374 -1.0349 -0.7744
31639SOL     OW98193  10.961   7.115   5.640  0.0391 -0.1371 -0.1123
31639SOL    HW198194  10.927   7.101   5.728  0.9950  0.2605  0.3425
31639SOL    HW298195  10.912   7.054   5.584 -1.6171  0.6436  0.4333
31640SOL     OW98196   0.232   3.602   9.229  0.4773  0.0489 -0.3277
31640SOL    HW198197   0.242   3.508   9.214  0.9736 -0.4838  2.7169
31640SOL    HW298198   0.311   3.640   9.190  0.4530 -0.8158 -1.2725
31641SOL     OW98199   6.627   3.780   6.551 -0.1811  0.3466  0.4908
31641SOL    HW198200   6.558   3.831   6.508 -0.6063  0.5368  1.3597
31641SOL    HW298201   6.641   3.705   6.494 -0.8044  0.5362  0.0752
31642SOL     OW98202   7.109   5.968   3.809  0.1930  0.2044  0.2435
31642SOL    HW198203   7.061   6.027   3.752  0.8429 -0.3800 -0.9394
31642SOL    HW298204   7.085   5.995   3.898  2.3250  3.8699 -0.1108
31643SOL     OW98205   1.464   6.012   3.550  0.0169 -0.1607 -0.6988
31643SOL    HW198206   1.526   6.086   3.546  1.2684 -1.1764 -0.8624
31643SOL    HW298207   1.386   6.049   3.592  1.0380  0.9706  0.3098
31644SOL     OW98208   3.427   8.605   3.928 -0.0605  0.1355  0.2731
31644SOL    HW198209   3.446   8.567   3.843 -0.6050  1.1272 -0.3029
31644SOL    HW298210   3.504   8.584   3.981  1.0427  0.9443 -0.9536
31645SOL     OW98211   8.221   5.626   2.848  0.2030 -0.4850  0.2883
31645SOL    HW198212   8.150   5.626   2.912  0.7586 -0.5291  0.9263
31645SOL    HW298213   8.189   5.573   2.775 -0.1354 -1.1257  0.8953
31646SOL     OW98214   8.861  10.875  10.469  0.1777 -0.4174 -0.1260
31646SOL    HW198215   8.774  10.879  10.430 -0.0456  2.4042  0.3863
31646SOL    HW298216   8.913  10.938  10.418  1.0733  0.1155  1.3681
31647SOL     OW98217   3.207   1.095   4.791  0.6101  0.1885  0.0373
31647SOL    HW198218   3.138   1.097   4.858  0.4033 -1.3052 -0.0849
31647SOL    HW298219   3.161   1.102   4.708  0.5635 -0.8701 -0.0474
31648SOL     OW98220   4.230   8.280   1.858 -0.4155 -0.5444  0.3288
31648SOL    HW198221   4.301   8.221   1.832  2.3785  1.4832  2.6702
31648SOL    HW298222   4.184   8.233   1.928  0.7926 -0.6154  1.0987
31649SOL     OW98223   1.403   7.904  10.756 -0.3116 -0.0008  1.1353
31649SOL    HW198224   1.336   7.864  10.700 -1.1875 -0.6090  2.5638
31649SOL    HW298225   1.485   7.885  10.712 -0.9690 -0.4744  0.0683
31650SOL     OW98226   5.649   6.098   0.528  0.1800 -0.4292 -0.7021
31650SOL    HW198227   5.562   6.103   0.488  0.0629 -2.6293 -0.8299
31650SOL    HW298228   5.687   6.184   0.511 -1.2190 -0.0730 -2.4143
31651SOL     OW98229   6.980   9.397   0.489 -0.3797  0.6414 -0.0623
31651SOL    HW198230   7.067   9.432   0.509 -0.1778 -0.5180  1.2591
31651SOL    HW298231   6.975   9.398   0.394 -0.0471  3.3479 -0.1216
31652SOL     OW98232   2.468   9.994   7.437  0.0863 -1.1670  0.4957
31652SOL    HW198233   2.408  10.038   7.496 -1.3961 -0.0931 -1.6991
31652SOL    HW298234   2.551  10.042   7.446 -1.2549  1.7285 -1.2357
31653SOL     OW98235   3.829   0.620   0.770  0.2755  0.8890 -0.0758
31653SOL    HW198236   3.898   0.568   0.730  1.4775  0.1880  2.6690
31653SOL    HW298237   3.835   0.705   0.727  0.0877 -0.3157 -2.7115
31654SOL     OW98238  10.701   8.352  10.875 -0.1196  0.0155 -0.2161
31654SOL    HW198239  10.763   8.377  10.944  0.2356 -0.3823 -0.3911
31654SOL    HW298240  10.640   8.426  10.870  0.6569  0.6523 -0.4143
31655SOL     OW98241   9.135   9.581  10.595  0.8323  0.1115  0.1199
31655SOL    HW198242   9.061   9.575  10.655  2.0675 -0.5448  1.6606
31655SOL    HW298243   9.176   9.665  10.614  0.1950  0.7431 -1.1403
31656SOL     OW98244   2.029   5.622   4.995 -0.2834  0.0678  0.7162
31656SOL    HW198245   1.958   5.563   4.973  0.1972 -0.4463  0.5167
31656SOL    HW298246   2.055   5.598   5.084  0.1476 -0.2629  0.5028
31657SOL     OW98247   9.129  10.399   0.744  0.3665  0.6195  0.1335
31657SOL    HW198248   9.146  10.397   0.650  1.3335  0.7368  0.2913
31657SOL    HW298249   9.067  10.471   0.755  0.5382  0.8528 -0.3771
31658SOL     OW98250   7.191  10.899   8.718  0.0130  0.0743 -0.4816
31658SOL    HW198251   7.286  10.910   8.715  0.1321 -0.8869 -0.5616
31658SOL    HW298252   7.172  10.891   8.811  0.0472 -0.0264 -0.4830
31659SOL     OW98253   2.169   0.990   9.701 -0.1476 -0.0831 -0.3870
31659SOL    HW198254   2.106   1.061   9.707  1.5228  1.4398  0.0241
31659SOL    HW298255   2.183   0.961   9.791  0.8825  0.6585 -0.2981
31660SOL     OW98256  10.958  11.358   3.173 -0.0333  0.1748  0.2089
31660SOL    HW198257  10.923  11.284   3.222 -0.0526  1.1104  1.6548
31660SOL    HW298258  11.041  11.379   3.215  0.4745  0.3454 -0.8361
31661SOL     OW98259   0.759   4.804  10.651  0.0603  0.2062 -0.0854
31661SOL    HW198260   0.706   4.868  10.698 -2.8449 -1.7983 -0.3787
31661SOL    HW298261   0.721   4.800  10.563  2.7586  0.8824 -1.4065
31662SOL     OW98262   6.664  10.608   6.708  0.7050  0.8114 -0.2300
31662SOL    HW198263   6.678  10.689   6.659 -0.7007  1.0918 -0.2033
31662SOL    HW298264   6.617  10.635   6.787 -1.1118 -0.1555 -0.9037
31663SOL     OW98265   6.488   9.846  10.549 -0.0125 -0.1821  0.2868
31663SOL    HW198266   6.547   9.873  10.478  0.4684  1.4945  1.2646
31663SOL    HW298267   6.540   9.785  10.601 -0.0527 -0.7195 -0.2990
31664SOL     OW98268   8.597   9.940   2.536 -0.0041  0.8923  0.0598
31664SOL    HW198269   8.575   9.855   2.573  0.4074  0.6705 -0.2038
31664SOL    HW298270   8.608   9.997   2.612 -0.4378  0.7524  0.2312
31665SOL     OW98271   7.605   5.882   5.696  0.6503 -0.3706 -0.4010
31665SOL    HW198272   7.679   5.821   5.701  0.3698 -0.6547  0.4873
31665SOL    HW298273   7.530   5.830   5.725  0.3071  0.2451 -0.1686
31666SOL     OW98274   4.117   7.498  11.001 -0.6259 -0.2499  0.2485
31666SOL    HW198275   4.105   7.418  10.949  0.7039  1.1379 -2.3318
31666SOL    HW298276   4.172   7.554  10.947  0.7733  1.3830  3.1581
31667SOL     OW98277   0.625   2.126   7.358  0.0306 -0.9869 -0.2188
31667SOL    HW198278   0.712   2.108   7.393  0.6800  0.6153 -0.8940
31667SOL    HW298279   0.608   2.055   7.296  0.8629 -1.3149 -0.0767
31668SOL     OW98280   1.171   6.075   1.796  0.1661 -0.3363 -0.4246
31668SOL    HW198281   1.219   6.027   1.728  1.6176  1.1664 -0.5365
31668SOL    HW298282   1.182   6.022   1.875  3.7216  0.7875  0.0021
31669SOL     OW98283   0.910   8.283   1.902 -0.3767 -0.2935  0.0316
31669SOL    HW198284   0.882   8.247   1.987  0.7622  0.5937  0.8240
31669SOL    HW298285   0.828   8.302   1.856 -1.0205 -1.0246  0.8356
31670SOL     OW98286   4.207   0.832   1.145 -0.2420 -0.1368  1.0307
31670SOL    HW198287   4.165   0.761   1.194 -2.4789  0.0832 -0.4131
31670SOL    HW298288   4.186   0.911   1.195  0.9551 -0.3045  1.8305
31671SOL     OW98289   3.536   4.818  10.633 -1.1803  0.0366  0.3880
31671SOL    HW198290   3.492   4.884  10.687 -0.8062  0.8322 -0.2527
31671SOL    HW298291   3.538   4.856  10.545  1.3837  0.3753  0.5101
31672SOL     OW98292   1.812   8.592  11.114 -0.5437  0.9425  0.8542
31672SOL    HW198293   1.743   8.547  11.162 -0.7842  1.1497  0.7030
31672SOL    HW298294   1.796   8.569  11.022 -0.0541  0.5006  0.8690
31673SOL     OW98295   7.005   0.542   6.385 -0.2789 -0.2608 -0.0204
31673SOL    HW198296   6.998   0.634   6.410 -0.8038 -0.5112  0.7772
31673SOL    HW298297   7.042   0.499   6.462 -2.1045 -1.0845  0.4331
31674SOL     OW98298   0.702   5.058  10.889 -0.1426  0.2312  0.3653
31674SOL    HW198299   0.633   5.100  10.940  0.4825  3.3273 -1.0968
31674SOL    HW298300   0.666   5.049  10.802  1.1040  1.6003 -0.3416
31675SOL     OW98301  10.641   3.782  10.862  0.6993 -0.0254  0.0113
31675SOL    HW198302  10.584   3.707  10.875  0.7648 -0.2586 -0.9527
31675SOL    HW298303  10.729   3.750  10.885  0.6629 -0.1089  0.0332
31676SOL     OW98304   1.570   7.058  10.787  0.1235 -0.5617 -0.5161
31676SOL    HW198305   1.555   7.074  10.694 -1.0473 -0.5671 -0.3425
31676SOL    HW298306   1.549   6.966  10.800  2.8735 -1.2952 -0.7255
31677SOL     OW98307   6.566   4.666   3.994  0.3737 -0.0085 -0.2514
31677SOL    HW198308   6.595   4.742   4.045  0.5504 -0.5151  0.4140
31677SOL    HW298309   6.493   4.699   3.941 -0.7690  0.2108  1.3686
31678SOL     OW98310   5.577   8.994   4.347  0.3178 -0.3103  0.3211
31678SOL    HW198311   5.512   9.065   4.342  1.6459  0.9126 -0.4645
31678SOL    HW298312   5.658   9.038   4.373  0.7168 -1.9058  1.9956
31679SOL     OW98313   6.556   4.498   9.464  0.1802  0.2758  0.1413
31679SOL    HW198314   6.600   4.485   9.548  1.9188  0.0571 -0.7578
31679SOL    HW298315   6.584   4.584   9.435 -1.5259  0.9606  0.3823
31680SOL     OW98316   0.690   0.720   6.594  0.0955  0.1147  0.1195
31680SOL    HW198317   0.736   0.637   6.610 -1.1530 -0.8861 -1.1251
31680SOL    HW298318   0.740   0.786   6.641  2.2954 -1.0463 -0.4656
31681SOL     OW98319   0.860   2.129  11.329  0.2387 -0.3812  0.1240
31681SOL    HW198320   0.956   2.124  11.332  0.1618 -1.7948  0.9530
31681SOL    HW298321   0.840   2.141  11.237  1.2520  1.4508  0.0918
31682SOL     OW98322  11.289   1.652   7.025  0.1823 -0.2957 -0.4529
31682SOL    HW198323  11.235   1.624   7.099  0.2200  0.8040 -0.0005
31682SOL    HW298324  11.245   1.614   6.949  0.1964 -1.5207  0.1191
31683SOL     OW98325   4.837   7.629   3.099 -0.4333  0.1372  0.1008
31683SOL    HW198326   4.889   7.549   3.110 -0.2080  0.3135  0.3210
31683SOL    HW298327   4.826   7.663   3.187  0.1999  0.8059 -0.0756
31684SOL     OW98328   8.499   9.753   0.917  0.5213 -0.0066 -0.1801
31684SOL    HW198329   8.566   9.822   0.922  0.0752  0.4287 -0.1495
31684SOL    HW298330   8.459   9.753   1.004  0.7643 -0.5662 -0.0593
31685SOL     OW98331   7.588  10.341   2.231 -0.6733  0.4510 -0.0459
31685SOL    HW198332   7.655  10.409   2.238 -1.6116  1.4150 -0.3876
31685SOL    HW298333   7.525  10.362   2.299  0.4967 -1.8082  1.9268
31686SOL     OW98334   2.380   9.425   3.180  0.0289  0.2907 -0.1901
31686SOL    HW198335   2.322   9.349   3.190 -0.0999  0.3037 -0.7969
31686SOL    HW298336   2.452   9.393   3.125  0.2959  0.4382  0.0717
31687SOL     OW98337   8.448   6.730   8.715 -0.4089 -0.7697  0.1479
31687SOL    HW198338   8.528   6.750   8.667 -0.3404  0.3576  0.6941
31687SOL    HW298339   8.389   6.802   8.693  0.0028  0.4069  2.5725
31688SOL     OW98340   1.217   7.864   2.295 -0.2153  0.2525 -0.0194
31688SOL    HW198341   1.295   7.813   2.272 -0.1920  0.7223 -1.0810
31688SOL    HW298342   1.146   7.800   2.292 -0.0181  0.0321 -0.1131
31689SOL     OW98343   2.294   0.617   9.899 -0.2539 -0.5396 -0.1073
31689SOL    HW198344   2.328   0.581   9.982 -1.6478  2.0270  1.7257
31689SOL    HW298345   2.314   0.710   9.904 -2.0432 -0.0140 -1.8145
31690SOL     OW98346   9.744   0.550   7.294 -0.4398  0.0094 -0.0372
31690SOL    HW198347   9.710   0.534   7.382 -1.8746 -1.3706 -0.8010
31690SOL    HW298348   9.688   0.498   7.237  0.2929  1.1026 -1.8100
31691SOL     OW98349   3.099   5.099  10.514  0.3089 -0.1269  0.1807
31691SOL    HW198350   3.148   5.180  10.500 -0.0811  0.4032  1.7286
31691SOL    HW298351   3.164   5.036  10.544  0.2228  0.3283  1.3768
31692SOL     OW98352   3.314   0.768   5.050  0.0167  0.3224  0.1711
31692SOL    HW198353   3.288   0.677   5.064 -0.9541  0.9399  2.9580
31692SOL    HW298354   3.243   0.820   5.088  0.8180  2.2686 -0.8237
31693SOL     OW98355   4.641   5.732   7.639 -0.0563 -0.0100  0.3839
31693SOL    HW198356   4.642   5.760   7.731  0.0316 -2.3995  1.1736
31693SOL    HW298357   4.726   5.691   7.626 -1.5139 -3.5017  0.6134
31694SOL     OW98358   8.208   9.223   7.909 -0.5326 -0.0264 -0.3641
31694SOL    HW198359   8.230   9.143   7.860 -1.6549 -0.3871 -0.2984
31694SOL    HW298360   8.203   9.194   8.000  3.2859  0.9649  0.3442
31695SOL     OW98361  10.507   2.577   2.720  0.1617 -0.8536  0.1318
31695SOL    HW198362  10.576   2.633   2.684 -0.5966  0.1149  0.1589
31695SOL    HW298363  10.446   2.563   2.648 -0.6707 -0.0013  0.6497
31696SOL     OW98364   6.741   1.450   8.446 -0.2879  0.6437  0.5571
31696SOL    HW198365   6.730   1.366   8.490 -0.3037  0.8480  0.9459
31696SOL    HW298366   6.657   1.467   8.404  0.4414 -0.6911 -1.5794
31697SOL     OW98367   9.453   0.158   7.872  0.2655 -0.4692  0.0153
31697SOL    HW198368   9.490   0.245   7.887 -0.8794  0.4093 -1.8563
31697SOL    HW298369   9.529   0.100   7.867  1.0645  0.4628  0.9712
31698SOL     OW98370   3.971   2.497   2.505 -0.0763 -0.1519  0.4931
31698SOL    HW198371   3.998   2.588   2.491  0.8059 -0.4688  0.0780
31698SOL    HW298372   3.877   2.498   2.491 -0.1705  0.8107  1.0714
31699SOL     OW98373   4.251  10.920   8.442  0.0015  0.0035  0.5629
31699SOL    HW198374   4.298  10.910   8.525  0.6110 -1.0815  0.1137
31699SOL    HW298375   4.315  10.960   8.383  0.4238 -1.4540 -0.0418
31700SOL     OW98376   3.943   5.035   2.491 -0.1601 -0.0952 -0.1303
31700SOL    HW198377   3.952   4.990   2.407 -1.1889 -1.2386  0.3426
31700SOL    HW298378   4.031   5.030   2.530 -0.2040 -1.6204 -0.1564
31701SOL     OW98379   3.475   7.010   1.663 -0.3418  0.3602 -0.3756
31701SOL    HW198380   3.460   6.948   1.592 -0.4135  1.7960 -1.6645
31701SOL    HW298381   3.570   7.020   1.665 -0.4392  2.3050 -2.1208
31702SOL     OW98382   0.717   9.444   3.453  0.4885 -0.4934 -0.3587
31702SOL    HW198383   0.781   9.376   3.433  2.3457  1.3545 -1.0902
31702SOL    HW298384   0.766   9.526   3.446 -1.2392  0.8762  2.1039
31703SOL     OW98385   5.775   2.016   6.166  0.0208 -0.0133 -0.3768
31703SOL    HW198386   5.805   1.934   6.128  0.5613  0.0029 -0.0139
31703SOL    HW298387   5.716   1.990   6.237  0.5315 -0.1109  0.0205
31704SOL     OW98388   1.089   5.945   5.373 -0.3772  0.3990  0.0483
31704SOL    HW198389   1.088   5.858   5.332 -0.3579 -0.0282  0.9287
31704SOL    HW298390   1.004   5.982   5.352 -0.1035  0.4789 -0.9725
31705SOL     OW98391   6.881   7.170  10.867 -0.0536  0.5280 -0.2107
31705SOL    HW198392   6.914   7.114  10.797  1.8734 -0.5495  1.4555
31705SOL    HW298393   6.887   7.259  10.832  1.9043  0.1017 -1.0446
31706SOL     OW98394   5.764   1.883   1.285 -0.3517 -0.2976  0.1434
31706SOL    HW198395   5.805   1.864   1.369 -1.5116 -0.2738  0.7338
31706SOL    HW298396   5.754   1.797   1.243 -0.3715 -0.3804  0.3177
31707SOL     OW98397   4.943  10.521   5.097 -0.2327 -0.3265 -0.3751
31707SOL    HW198398   4.849  10.521   5.080 -0.7020 -2.0245  1.7496
31707SOL    HW298399   4.959  10.604   5.143 -0.6125  0.1169 -1.0271
31708SOL     OW98400   5.321   8.522   5.681  0.4608  0.3960 -0.7230
31708SOL    HW198401   5.278   8.540   5.764 -0.1951  0.9503 -1.1685
31708SOL    HW298402   5.294   8.432   5.659  2.3683 -0.5948  0.6757
31709SOL     OW98403   6.173   2.979   6.657  0.6608 -0.2845 -0.0759
31709SOL    HW198404   6.140   2.923   6.727 -0.5617  0.6235  0.1092
31709SOL    HW298405   6.183   2.921   6.582  2.2769 -1.3447  0.8847
31710SOL     OW98406   1.755   3.405  10.740 -0.4433  0.3563  0.0102
31710SOL    HW198407   1.805   3.325  10.725 -0.0216  0.9353 -2.0526
31710SOL    HW298408   1.794   3.443  10.818  1.3178 -0.0262 -0.6317
31711SOL     OW98409   9.761   6.753   3.671  0.1835 -0.2181 -0.5019
31711SOL    HW198410   9.746   6.690   3.741  3.9534 -0.9095 -0.1035
31711SOL    HW298411   9.773   6.699   3.592  2.0457  0.0153 -0.4235
31712SOL     OW98412   1.367   9.492   9.844 -0.2620  0.0512  0.9482
31712SOL    HW198413   1.364   9.569   9.788  0.6458 -0.9088 -0.4871
31712SOL    HW298414   1.410   9.523   9.924 -1.0739  1.3141  0.9260
31713SOL     OW98415   4.984   9.063   0.215  0.4915 -0.0374  0.4329
31713SOL    HW198416   4.911   9.070   0.276 -1.0617 -1.7838 -1.1107
31713SOL    HW298417   4.955   9.111   0.137  0.0910 -2.2930 -0.9065
31714SOL     OW98418   6.314   1.846  11.176  0.6564 -0.5768 -0.3256
31714SOL    HW198419   6.354   1.905  11.112  1.6684  0.4068  1.1664
31714SOL    HW298420   6.377   1.774  11.184  0.8379 -0.3787  0.0327
31715SOL     OW98421  11.380   0.044   7.955  0.3639  0.3884 -0.3866
31715SOL    HW198422  11.382   0.112   8.023  2.5937  0.7177 -0.6999
31715SOL    HW298423  11.460  -0.007   7.970 -0.2076 -0.8742 -1.4488
31716SOL     OW98424   8.435   5.283   5.655  0.5207  0.2580  0.6135
31716SOL    HW198425   8.411   5.218   5.589 -0.6439  1.3211 -0.0576
31716SOL    HW298426   8.453   5.232   5.734 -1.1037 -0.8474  0.3264
31717SOL     OW98427   1.090  11.300   5.257 -0.1496 -0.0546  0.3715
31717SOL    HW198428   1.073  11.326   5.167 -1.7330 -0.8877  0.3889
31717SOL    HW298429   1.175  11.257   5.254  0.3463  0.9322 -0.4941
31718SOL     OW98430   6.687   1.748   0.191  0.1896 -0.1788  0.1593
31718SOL    HW198431   6.635   1.805   0.134 -0.1416 -0.1641  0.4756
31718SOL    HW298432   6.677   1.786   0.279 -1.1265 -1.4953  0.6026
31719SOL     OW98433   8.871   8.272   3.063 -0.1637 -0.4721 -0.4151
31719SOL    HW198434   8.817   8.316   2.998 -3.1802  0.5816  2.5254
31719SOL    HW298435   8.904   8.342   3.118 -3.2801 -1.4119  3.0502
31720SOL     OW98436   9.122   2.034   9.394 -0.3521  0.5087 -0.2590
31720SOL    HW198437   9.032   2.027   9.361  0.1486 -0.9368 -1.3893
31720SOL    HW298438   9.126   2.123   9.431 -1.9118  1.0079 -1.1619
31721SOL     OW98439  10.289   5.899   5.147 -0.5475 -0.3789  0.1190
31721SOL    HW198440  10.313   5.872   5.058 -0.2021 -1.7769  0.5949
31721SOL    HW298441  10.290   5.817   5.197 -0.4972  0.4148  1.4623
31722SOL     OW98442   7.735   5.986   7.850 -0.2651 -0.4070  0.3163
31722SOL    HW198443   7.759   6.037   7.928 -2.7864  2.1727 -0.3939
31722SOL    HW298444   7.655   5.940   7.875  0.8971 -2.5429  0.2997
31723SOL     OW98445   8.041   1.642   1.121 -0.3166 -0.9005  0.2896
31723SOL    HW198446   8.003   1.556   1.140 -0.1587 -0.8633  0.7846
31723SOL    HW298447   7.974   1.687   1.069 -0.3494 -1.3672 -0.0759
31724SOL     OW98448   0.600   5.821  10.565 -0.1970  0.2357  0.5228
31724SOL    HW198449   0.642   5.736  10.578  1.0825  0.9064  0.9575
31724SOL    HW298450   0.672   5.882  10.552 -1.0439  1.3948  0.9992
31725SOL     OW98451   8.084   8.226   3.330 -0.0521 -0.5349 -0.7548
31725SOL    HW198452   8.163   8.177   3.310  1.1093 -0.4488  2.8629
31725SOL    HW298453   8.111   8.287   3.399 -2.7815  1.1306 -1.0152
31726SOL     OW98454   6.586   9.211   6.634 -0.0836  0.5445 -0.1201
31726SOL    HW198455   6.532   9.191   6.558  0.5242  1.0706 -0.7090
31726SOL    HW298456   6.571   9.304   6.650  0.8683  0.7722 -0.4856
31727SOL     OW98457   6.168   4.245   8.914  0.2471  0.6772  0.0813
31727SOL    HW198458   6.092   4.294   8.944  0.6083  1.4700 -0.2578
31727SOL    HW298459   6.145   4.217   8.826 -0.0306  0.0761  0.3434
31728SOL     OW98460   9.747   6.081   4.845  0.5684  0.0632  0.4072
31728SOL    HW198461   9.711   6.132   4.773  2.7131 -0.6088 -1.2298
31728SOL    HW298462   9.749   6.143   4.919 -2.0566  0.6297  0.0806
31729SOL     OW98463   1.957   5.184   8.110  0.6831  0.2407  0.1744
31729SOL    HW198464   2.044   5.146   8.102  0.6192  0.2621 -0.6831
31729SOL    HW298465   1.931   5.205   8.021  0.0653  0.8488  0.4840
31730SOL     OW98466   9.671   4.141   6.858  0.0121 -0.4340  0.4477
31730SOL    HW198467   9.750   4.191   6.877  0.6010 -0.5757 -1.4836
31730SOL    HW298468   9.682   4.060   6.908  0.2931  0.2116  1.4781
31731SOL     OW98469   8.860   4.502  10.875 -0.1112  0.1639 -0.5877
31731SOL    HW198470   8.821   4.569  10.819  1.1691 -1.0802 -3.1603
31731SOL    HW298471   8.903   4.442  10.814  0.0884 -2.1826  1.6770
31732SOL     OW98472   5.886   3.777   2.642 -0.0595  0.3366  0.4536
31732SOL    HW198473   5.817   3.716   2.667  0.2316 -0.4981 -0.6740
31732SOL    HW298474   5.894   3.767   2.547  0.6954  1.4012  0.3765
31733SOL     OW98475   9.290   0.001  11.147 -0.1838  0.2293 -0.0654
31733SOL    HW198476   9.224   0.066  11.122 -0.2694 -0.0391 -0.5479
31733SOL    HW298477   9.369   0.027  11.100  0.2581  0.9340  1.0182
31734SOL     OW98478   4.687   6.168   5.824 -0.2858 -0.2400  0.2187
31734SOL    HW198479   4.601   6.132   5.801 -0.0212 -1.4412  1.0130
31734SOL    HW298480   4.668   6.254   5.861 -1.0362  0.0150 -0.7136
31735SOL     OW98481   5.011   8.668  10.596  0.6559  0.3704 -0.2460
31735SOL    HW198482   5.071   8.740  10.618  0.1231  0.4676  0.9303
31735SOL    HW298483   4.946   8.708  10.539  1.3323  0.4067 -1.0208
31736SOL     OW98484   5.448  10.119   8.703  0.2203  0.5002 -0.8893
31736SOL    HW198485   5.507  10.109   8.628 -0.5488 -1.7460 -1.2817
31736SOL    HW298486   5.360  10.114   8.665 -0.1799 -0.2019  0.0773
31737SOL     OW98487   9.849   8.473   2.630 -0.1243  0.0038  0.4141
31737SOL    HW198488   9.899   8.494   2.551 -0.6620  1.3916  0.3990
31737SOL    HW298489   9.901   8.408   2.676  1.3677  0.9237  0.0705
31738SOL     OW98490  10.573   9.391   2.887 -0.0519  0.4674 -0.1462
31738SOL    HW198491  10.626   9.322   2.926 -1.0589  0.2119  0.8186
31738SOL    HW298492  10.627   9.425   2.815  1.3896  0.1952  0.7592
31739SOL     OW98493   5.818   2.395   4.383  0.7683 -0.5887 -0.3527
31739SOL    HW198494   5.728   2.402   4.351  0.5636 -0.9073  0.1294
31739SOL    HW298495   5.847   2.485   4.393  1.0533 -0.4771 -1.9788
31740SOL     OW98496  10.828   8.526   1.555  0.1257 -0.6489  0.2793
31740SOL    HW198497  10.851   8.616   1.578  2.6085 -1.1842  0.1925
31740SOL    HW298498  10.796   8.532   1.465  1.2235  0.0557 -0.0897
31741SOL     OW98499   2.088   8.819   4.610 -0.4555  0.3451  0.7355
31741SOL    HW198500   2.153   8.831   4.540 -0.5219 -1.2065  0.3857
31741SOL    HW298501   2.140   8.794   4.686 -0.4931  0.9354  0.9654
31742SOL     OW98502  10.486   3.870   7.272  0.1422  0.2497  0.4754
31742SOL    HW198503  10.401   3.875   7.316 -0.4257 -0.2114 -0.5381
31742SOL    HW298504  10.478   3.930   7.198  0.1875 -0.8570 -0.4470
31743SOL     OW98505   2.945   4.957   1.143  0.1983 -0.6765 -0.0704
31743SOL    HW198506   2.863   4.908   1.141  0.0217 -0.3595 -1.0951
31743SOL    HW298507   2.996   4.921   1.071  0.6659 -0.3759  0.1092
31744SOL     OW98508   1.425   4.281   3.263 -0.2708  0.2487 -0.0715
31744SOL    HW198509   1.504   4.229   3.245  0.7971  1.6286  0.4343
31744SOL    HW298510   1.355   4.217   3.271  0.6563 -0.9774 -1.2578
31745SOL     OW98511   7.185   5.907   5.505 -0.6300 -0.3333  0.0410
31745SOL    HW198512   7.229   5.989   5.528  1.4732 -0.9275 -1.5423
31745SOL    HW298513   7.103   5.910   5.554 -0.2290  2.2859  0.7409
31746SOL     OW98514   9.923   5.564   8.192 -0.1530  0.5864 -0.2152
31746SOL    HW198515   9.998   5.574   8.251  1.1314  1.3838 -1.8997
31746SOL    HW298516   9.900   5.653   8.167 -1.9385  0.3729  0.5494
31747SOL     OW98517   7.758   9.188   0.930 -0.3548 -0.2335  0.0603
31747SOL    HW198518   7.833   9.182   0.989  1.0794  0.8115 -1.5430
31747SOL    HW298519   7.791   9.155   0.846 -1.4151  1.0151 -0.8903
31748SOL     OW98520  10.930  10.079   1.207 -0.1221  0.0438  0.1395
31748SOL    HW198521  10.960  10.170   1.205  1.0191 -0.3340 -1.3428
31748SOL    HW298522  10.851  10.079   1.153  0.3211  0.0171 -0.5183
31749SOL     OW98523  10.302   5.059  11.392 -0.2158 -0.2183  0.4376
31749SOL    HW198524  10.290   5.114  11.470  0.5152 -0.0223  0.4211
31749SOL    HW298525  10.217   5.017  11.379 -0.3577 -0.2241  1.3223
31750SOL     OW98526   1.645   7.983   7.662 -0.3376 -0.3210  0.4959
31750SOL    HW198527   1.713   8.038   7.624 -2.0917  1.8532  0.3343
31750SOL    HW298528   1.614   8.031   7.739 -1.5609 -1.3506  0.6962
31751SOL     OW98529   0.776   4.570   0.371 -0.0168 -0.7569  0.0405
31751SOL    HW198530   0.775   4.666   0.371 -0.6236 -0.7598 -0.0306
31751SOL    HW298531   0.773   4.545   0.463  1.3373 -0.7089  0.1149
31752SOL     OW98532   7.785   5.501  10.785  0.0788 -0.5462 -0.0034
31752SOL    HW198533   7.778   5.520  10.878 -1.9105  2.0725 -0.5521
31752SOL    HW298534   7.694   5.499  10.754  0.7010 -0.6784 -2.0033
31753SOL     OW98535   1.775   8.288   7.372 -0.1018  0.2792  0.1754
31753SOL    HW198536   1.702   8.253   7.320  1.0126 -1.3336 -0.3677
31753SOL    HW298537   1.787   8.377   7.338 -0.1560 -0.3410 -1.5567
31754SOL     OW98538   8.581   8.729   7.845 -0.1349 -0.0501 -0.0981
31754SOL    HW198539   8.502   8.677   7.832 -1.4356  1.3796  1.5504
31754SOL    HW298540   8.649   8.665   7.868 -0.7469 -1.3046 -1.6199
31755SOL     OW98541  10.787   7.799   2.854  0.6170 -0.0001 -0.1808
31755SOL    HW198542  10.811   7.710   2.828 -1.3069 -0.5184 -0.3032
31755SOL    HW298543  10.715   7.787   2.916  0.6911  1.4716  0.2212
31756SOL     OW98544   0.375   7.290   3.262  0.2222 -0.3650  0.1718
31756SOL    HW198545   0.423   7.247   3.333 -0.6613 -0.9141  0.4586
31756SOL    HW298546   0.331   7.364   3.304  1.2474  0.4649 -0.1995
31757SOL     OW98547   7.706   0.203   4.379 -0.0965  0.2504  0.7829
31757SOL    HW198548   7.641   0.156   4.328 -0.0831  0.2185  0.7951
31757SOL    HW298549   7.662   0.283   4.407 -0.1222  0.2405  0.7701
31758SOL     OW98550   6.670   3.019   1.379 -0.2045  0.4068 -0.2727
31758SOL    HW198551   6.630   3.106   1.387 -0.8735  0.2679 -1.7965
31758SOL    HW298552   6.627   2.980   1.304  1.0428 -0.7451 -0.4215
31759SOL     OW98553  10.756   4.931   9.232 -0.2109 -0.2599 -0.5005
31759SOL    HW198554  10.667   4.948   9.203 -0.8782 -0.3139  1.3996
31759SOL    HW298555  10.808   5.002   9.194 -1.1572  0.1229 -1.1030
31760SOL     OW98556   9.437   7.346   4.037 -0.3221  0.1246 -0.1087
31760SOL    HW198557   9.383   7.400   3.979  0.8730  1.4906  0.0114
31760SOL    HW298558   9.405   7.366   4.125  0.7098  1.3810  0.0099
31761SOL     OW98559   3.420   2.011   1.117 -0.0882  0.3907 -0.0150
31761SOL    HW198560   3.420   2.102   1.146 -1.4497  0.5142 -0.3275
31761SOL    HW298561   3.380   2.014   1.030  1.7561 -0.2623 -0.9466
31762SOL     OW98562  11.351   6.586   3.092 -0.6106  0.4069  0.5762
31762SOL    HW198563  11.424   6.590   3.154  0.5903  0.8560 -0.7897
31762SOL    HW298564  11.282   6.540   3.139  0.8802 -0.8890  1.6215
31763SOL     OW98565  11.263   3.866   5.715 -0.4670 -0.1763 -0.0456
31763SOL    HW198566  11.297   3.776   5.718  0.1225  0.0515  2.4503
31763SOL    HW298567  11.325   3.913   5.660 -0.7350 -1.2540 -1.3194
31764SOL     OW98568   0.864   9.495   9.383  0.0645 -0.2161 -0.3647
31764SOL    HW198569   0.866   9.501   9.478 -1.7967 -0.7820 -0.2594
31764SOL    HW298570   0.937   9.551   9.354  0.2290  0.5120  1.3480
31765SOL     OW98571   3.703   0.650   4.862 -0.0613 -0.0126 -0.8185
31765SOL    HW198572   3.653   0.685   4.936  1.1482 -0.6106  0.3343
31765SOL    HW298573   3.684   0.556   4.863 -0.5239  0.0653 -1.6726
31766SOL     OW98574   4.310   5.817  10.552 -0.4350 -0.0741 -0.0184
31766SOL    HW198575   4.378   5.859  10.604 -0.6555 -1.1363  1.1578
31766SOL    HW298576   4.342   5.825  10.461  1.1037 -0.2686  0.4689
31767SOL     OW98577   5.790   6.554   7.256 -0.2040  0.1910  0.6338
31767SOL    HW198578   5.821   6.505   7.180 -2.6828 -0.5894  0.0591
31767SOL    HW298579   5.855   6.536   7.324  1.6085  0.2247 -1.0107
31768SOL     OW98580   8.367   2.699   6.240 -0.2442  0.3024 -0.2552
31768SOL    HW198581   8.297   2.634   6.236  0.0483  0.0261 -0.9981
31768SOL    HW298582   8.411   2.681   6.323 -0.1990 -0.4262 -0.4245
31769SOL     OW98583   0.683   4.334   5.736 -0.2143 -0.1378  0.2946
31769SOL    HW198584   0.709   4.253   5.691  1.2040  0.3327  0.2339
31769SOL    HW298585   0.658   4.393   5.665  0.5064  0.0754  0.2096
31770SOL     OW98586   3.216   5.872   8.390 -0.1835  0.3402 -0.1976
31770SOL    HW198587   3.304   5.901   8.412 -0.2108 -0.2832  0.8126
31770SOL    HW298588   3.184   5.935   8.325  1.2039  0.2551 -0.9957
31771SOL     OW98589   8.328   0.253   5.204  0.1538  0.0271  0.4340
31771SOL    HW198590   8.318   0.339   5.163  0.5902 -0.6280 -1.1118
31771SOL    HW298591   8.244   0.210   5.191  0.3153 -0.2104  0.1760
31772SOL     OW98592   0.363   4.292   8.646  0.0364  1.1366 -0.3913
31772SOL    HW198593   0.431   4.328   8.589  1.5070 -0.2071  0.4108
31772SOL    HW298594   0.370   4.344   8.726  0.4764  0.6873 -0.1311
31773SOL     OW98595   0.451  10.877   3.325  0.1295 -0.0434  0.1081
31773SOL    HW198596   0.531  10.876   3.273 -0.8079  0.3119 -1.3847
31773SOL    HW298597   0.423  10.969   3.326 -0.4481 -0.2147  0.3229
31774SOL     OW98598   6.951   7.668   4.541 -0.1783  0.7735  0.3910
31774SOL    HW198599   6.858   7.678   4.561  0.2038  2.0901  1.6515
31774SOL    HW298600   6.954   7.594   4.480 -2.0190  0.5642  0.4886
31775SOL     OW98601   8.403   7.676   0.217  0.0605 -0.0681 -0.7692
31775SOL    HW198602   8.319   7.631   0.221  0.0758 -0.1028 -0.8523
31775SOL    HW298603   8.463   7.612   0.180  0.6405 -0.8501  1.3525
31776SOL     OW98604   3.984   5.866   9.386 -0.1133 -0.1644 -0.2830
31776SOL    HW198605   3.914   5.802   9.383  1.5652 -2.1115  0.0105
31776SOL    HW298606   4.008   5.872   9.479 -0.7647  1.5541 -0.1787
31777SOL     OW98607   9.693   0.498   9.065  0.0440 -0.4527 -0.6179
31777SOL    HW198608   9.636   0.528   9.136  0.2586 -0.6188 -0.3701
31777SOL    HW298609   9.705   0.574   9.009  2.2969  0.5680  1.1118
31778SOL     OW98610   4.153   3.211   2.501  0.1273  0.7746 -0.4769
31778SOL    HW198611   4.117   3.136   2.549  1.1531  0.3542 -0.3388
31778SOL    HW298612   4.120   3.288   2.549  1.1900  0.3665  0.9897
31779SOL     OW98613   1.106   4.758   7.415 -0.1965 -0.6712 -0.0223
31779SOL    HW198614   1.104   4.846   7.379  0.7851 -0.7519 -0.2941
31779SOL    HW298615   1.162   4.709   7.356 -0.7062 -1.4770  0.1462
31780SOL     OW98616   5.406   4.169   0.521 -0.2322  0.1193 -0.0656
31780SOL    HW198617   5.393   4.262   0.502 -0.8300  0.0264 -0.1498
31780SOL    HW298618   5.343   4.124   0.465  1.5844 -0.4918 -1.7097
31781SOL     OW98619   8.843   2.814   9.951  0.3604  0.5099 -0.4432
31781SOL    HW198620   8.750   2.830   9.936 -0.2198 -0.8767  1.3540
31781SOL    HW298621   8.887   2.873   9.890 -1.6746  1.5143 -1.0410
31782SOL     OW98622   4.125   0.746   7.449  0.2444 -0.5528 -0.4007
31782SOL    HW198623   4.179   0.677   7.409 -0.0871 -0.7776 -0.4588
31782SOL    HW298624   4.185   0.789   7.510  0.9291  0.1728 -1.5408
31783SOL     OW98625   5.351  11.272   6.068  0.3983  0.1136  0.3983
31783SOL    HW198626   5.418  11.340   6.074 -0.6862  1.1081  1.9800
31783SOL    HW298627   5.379  11.206   6.132  1.6153 -1.1583 -1.3534
31784SOL     OW98628   0.622   6.741   8.808  0.7628  0.6520  0.4491
31784SOL    HW198629   0.644   6.748   8.901  2.2987  1.7868  0.0471
31784SOL    HW298630   0.695   6.692   8.770 -1.3308 -2.6115  0.2623
31785SOL     OW98631   6.644   1.569   5.770 -0.2740 -0.1220  0.3325
31785SOL    HW198632   6.675   1.529   5.850  1.4574 -0.7836 -0.6218
31785SOL    HW298633   6.571   1.514   5.742 -1.2070  0.3895  1.6544
31786SOL     OW98634   6.277   3.402  10.792 -0.3301 -0.0552  0.1986
31786SOL    HW198635   6.190   3.414  10.754  0.4468 -0.8557 -1.9201
31786SOL    HW298636   6.318   3.488  10.783 -0.0423 -0.3181 -1.0960
31787SOL     OW98637   2.532   7.914   4.620  0.0663  0.1368 -0.2813
31787SOL    HW198638   2.560   7.827   4.648  0.8056  0.2202 -0.7386
31787SOL    HW298639   2.491   7.900   4.535 -0.0333  0.2042 -0.2440
31788SOL     OW98640   4.590   0.860  11.265  0.0157 -0.3881 -0.3946
31788SOL    HW198641   4.520   0.794  11.260  1.4977 -2.0355 -0.5232
31788SOL    HW298642   4.605   0.873  11.359  0.1794 -0.7674 -0.3665
31789SOL     OW98643   5.209   1.176   4.212  0.2394  0.1615  0.5040
31789SOL    HW198644   5.156   1.206   4.285 -0.1063 -0.1249  0.3768
31789SOL    HW298645   5.208   1.249   4.150 -0.9407 -0.2380  0.0150
31790SOL     OW98646   0.212   6.022   8.814  0.6032 -0.3772  0.2177
31790SOL    HW198647   0.135   5.971   8.839  0.0161  0.6210  0.5127
31790SOL    HW298648   0.259   6.038   8.896 -0.5434  1.6395  0.5507
31791SOL     OW98649   3.666   9.034   7.207 -0.1647 -0.4833 -0.1494
31791SOL    HW198650   3.743   8.976   7.211  0.9279  0.9195  0.2697
31791SOL    HW298651   3.666   9.079   7.291 -1.3137 -0.2756 -0.2493
31792SOL     OW98652   5.499   6.617   2.377  0.1393 -0.3181 -0.5984
31792SOL    HW198653   5.457   6.614   2.463  1.7982  3.4592  0.5477
31792SOL    HW298654   5.589   6.589   2.394  0.6397  1.0259 -0.9601
31793SOL     OW98655   2.790   4.732   8.141 -0.1329 -0.0583  0.5345
31793SOL    HW198656   2.872   4.689   8.116 -0.0309 -0.2929  1.2516
31793SOL    HW298657   2.791   4.732   8.237 -0.7469  0.3737  0.5478
31794SOL     OW98658  10.850   9.691  10.987 -0.1390 -0.2981  0.1594
31794SOL    HW198659  10.838   9.617  11.047  0.2874  0.7708  1.6079
31794SOL    HW298660  10.800   9.763  11.027 -0.4424  0.2533 -1.1487
31795SOL     OW98661   7.114   1.445   8.248 -0.1120 -0.0993 -0.4647
31795SOL    HW198662   7.138   1.524   8.297  0.6573 -0.6133  0.0058
31795SOL    HW298663   7.018   1.444   8.248 -0.1211  0.6212 -0.1363
31796SOL     OW98664   0.737   6.188   2.097 -0.1602 -0.8248  0.3471
31796SOL    HW198665   0.796   6.139   2.040 -1.1619 -1.0095 -0.5646
31796SOL    HW298666   0.675   6.229   2.037  0.1420  0.8927  1.1490
31797SOL     OW98667   5.134   5.956   4.844  0.1294  0.1692 -0.3988
31797SOL    HW198668   5.054   5.915   4.879 -0.7724  0.8088 -1.6375
31797SOL    HW298669   5.151   5.909   4.762 -0.7465  2.0048 -1.6874
31798SOL     OW98670   8.000   8.285   9.975 -0.1250  0.6248  0.6225
31798SOL    HW198671   7.976   8.245  10.059 -0.2053  1.1462  0.8490
31798SOL    HW298672   8.091   8.258   9.961 -0.4186 -0.2788  0.3921
31799SOL     OW98673   2.290   1.292   0.091  0.1407 -0.1322  0.1374
31799SOL    HW198674   2.214   1.274   0.147  0.2012 -2.3864 -0.4140
31799SOL    HW298675   2.346   1.349   0.144 -0.1297 -1.6027  2.1278
31800SOL     OW98676   6.704  10.444   9.619  0.2511 -0.3935  0.4601
31800SOL    HW198677   6.632  10.412   9.674 -0.8984  1.9245  0.4168
31800SOL    HW298678   6.721  10.533   9.650  2.2242 -0.4163 -0.4160
31801SOL     OW98679   5.299   8.254   3.201  0.4211  0.1790  0.2211
31801SOL    HW198680   5.225   8.264   3.141  0.5782 -0.7364 -0.1451
31801SOL    HW298681   5.310   8.340   3.241 -1.7152  0.0254  1.2826
31802SOL     OW98682   8.618   8.850   5.583  0.3681 -0.1187 -0.3245
31802SOL    HW198683   8.644   8.786   5.516 -0.2955  1.8567 -2.6115
31802SOL    HW298684   8.678   8.923   5.572  0.1981  0.2963  1.2488
31803SOL     OW98685   9.885   6.629  10.263  0.2533  0.1124 -0.4876
31803SOL    HW198686   9.843   6.704  10.220  1.4251  0.8873 -0.3299
31803SOL    HW298687   9.870   6.644  10.357 -1.4355 -1.0514 -0.5236
31804SOL     OW98688   2.999   4.014   0.162  0.2535  0.4400  0.2354
31804SOL    HW198689   2.911   4.023   0.197 -0.0157 -0.7247 -0.1012
31804SOL    HW298690   3.020   4.100   0.125 -1.8837  0.0101 -2.2766
31805SOL     OW98691   0.256  11.118   8.798  0.2745  0.1708  0.1969
31805SOL    HW198692   0.168  11.080   8.803  0.0547  0.7562  1.1557
31805SOL    HW298693   0.271  11.152   8.886  1.4009  0.2252 -0.0123
31806SOL     OW98694   9.240   5.278   5.714 -0.2252  0.1464 -0.5954
31806SOL    HW198695   9.151   5.260   5.685 -0.6327 -0.3182  0.8417
31806SOL    HW298696   9.259   5.209   5.778  0.1370  1.7477  1.1280
31807SOL     OW98697   4.582   0.514   1.726 -0.5483 -0.2095 -0.0269
31807SOL    HW198698   4.534   0.590   1.759 -0.5813 -0.3959  0.3592
31807SOL    HW298699   4.522   0.471   1.665 -0.3407  0.3639 -0.6480
31808SOL     OW98700   4.477   4.570   8.114 -0.5026 -0.4539 -0.1321
31808SOL    HW198701   4.529   4.566   8.194  0.4445  0.6901 -0.6537
31808SOL    HW298702   4.386   4.571   8.144 -0.1917 -1.0976  0.8650
31809SOL     OW98703   4.277   5.882   1.968 -0.6840  0.4594  0.2240
31809SOL    HW198704   4.352   5.885   2.027 -0.2287  2.8070 -0.3748
31809SOL    HW298705   4.205   5.920   2.018 -0.4125  2.0221 -0.5003
31810SOL     OW98706   6.673   0.568   4.719 -0.4294  0.1141  0.8038
31810SOL    HW198707   6.578   0.574   4.711 -0.5489 -0.3700  1.7698
31810SOL    HW298708   6.698   0.500   4.655 -0.6719  0.5696  0.2192
31811SOL     OW98709   0.614   2.759   0.473  0.0986  0.1697 -0.3156
31811SOL    HW198710   0.702   2.770   0.438  0.1950 -1.4696 -0.6645
31811SOL    HW298711   0.624   2.770   0.568  0.4922  0.9006 -0.4340
31812SOL     OW98712   5.587  10.173  10.108  0.2408 -0.0421 -0.4536
31812SOL    HW198713   5.677  10.148  10.127  0.1855  0.8002  1.1177
31812SOL    HW298714   5.534  10.117  10.165 -0.1317  0.4245 -0.3307
31813SOL     OW98715   6.889   8.844   7.352 -0.2841 -0.3645 -0.0839
31813SOL    HW198716   6.827   8.916   7.336 -0.0679 -0.0191  0.6026
31813SOL    HW298717   6.919   8.858   7.442  0.2223 -0.9672 -0.1555
31814SOL     OW98718   5.845   8.404  10.890  0.5053 -0.0178  0.0887
31814SOL    HW198719   5.815   8.478  10.838  1.4003  0.0665 -0.3243
31814SOL    HW298720   5.891   8.348  10.828  2.3856  0.5337  0.9089
31815SOL     OW98721   3.907   5.070   8.648 -0.1169 -0.2763 -0.3148
31815SOL    HW198722   3.839   5.137   8.653 -0.0536 -0.2292 -0.0740
31815SOL    HW298723   3.960   5.095   8.573 -0.6024 -0.5360 -0.7489
31816SOL     OW98724   5.661   2.966   9.390 -0.0296  0.3261  0.7098
31816SOL    HW198725   5.742   2.915   9.381  0.8327  1.8490 -0.6029
31816SOL    HW298726   5.688   3.046   9.435 -1.2504 -0.0562  2.1942
31817SOL     OW98727  10.690   5.845  10.625 -0.0184  0.2444 -0.6842
31817SOL    HW198728  10.719   5.919  10.572 -0.2347  0.1374 -0.9542
31817SOL    HW298729  10.687   5.772  10.563 -0.7003  0.2139 -0.6235
31818SOL     OW98730  10.318   8.013  11.022  0.4469 -0.3671 -0.3412
31818SOL    HW198731  10.398   7.964  11.005 -0.2958 -1.1302 -1.9366
31818SOL    HW298732  10.260   7.950  11.063 -0.6538 -1.0774 -2.7615
31819SOL     OW98733   9.057  11.319   3.824 -0.1726  0.4989  0.0216
31819SOL    HW198734   9.032  11.305   3.733 -1.7017  0.5464  0.4076
31819SOL    HW298735   9.085  11.233   3.855 -0.1223  0.3768 -0.3652
31820SOL     OW98736   4.435   0.237   7.305  0.1163 -0.2056  0.4556
31820SOL    HW198737   4.339   0.243   7.308  0.1601  1.5161 -0.1768
31820SOL    HW298738   4.464   0.288   7.380  0.5217  1.0033 -0.4793
31821SOL     OW98739   8.603   1.171   8.204 -0.0522  0.1417 -0.2832
31821SOL    HW198740   8.651   1.090   8.188 -0.3904 -0.4671  1.6491
31821SOL    HW298741   8.545   1.179   8.128  0.0461 -1.3681 -0.5470
31822SOL     OW98742   2.397   8.443   8.332  0.4049 -0.9195  0.3736
31822SOL    HW198743   2.474   8.398   8.297 -0.7782 -1.4425 -1.6962
31822SOL    HW298744   2.322   8.391   8.301 -0.8875  0.8464  0.3809
31823SOL     OW98745   9.086   7.177   9.095 -0.4594 -0.1045  0.0260
31823SOL    HW198746   9.051   7.224   9.170  0.2317  0.1318  0.2077
31823SOL    HW298747   9.161   7.128   9.129  0.2547  0.5014 -0.6189
31824SOL     OW98748   3.515   9.460   3.326 -0.4806 -0.3048 -0.2648
31824SOL    HW198749   3.495   9.370   3.353 -0.1437 -0.5605 -0.8547
31824SOL    HW298750   3.549   9.451   3.237 -0.1711  0.3807 -0.2176
31825SOL     OW98751   3.010   7.069   6.088 -0.0321  0.2962  0.3391
31825SOL    HW198752   2.917   7.073   6.069 -0.0967 -0.8130  0.3422
31825SOL    HW298753   3.014   7.051   6.182  0.1297 -1.3522  0.0453
31826SOL     OW98754   3.165   9.135   3.835  0.1227 -0.0563  0.8679
31826SOL    HW198755   3.125   9.055   3.801  0.1047  0.2968  0.0454
31826SOL    HW298756   3.205   9.177   3.759 -0.4288  1.0410  1.1575
31827SOL     OW98757   1.019   3.570   3.745 -0.5230 -0.2052 -0.2756
31827SOL    HW198758   1.013   3.482   3.707 -1.9220  0.2008 -1.0522
31827SOL    HW298759   1.113   3.583   3.759  0.1523 -0.3702 -3.6866
31828SOL     OW98760  10.877   8.763   8.991  0.0693 -0.0520 -0.0274
31828SOL    HW198761  10.798   8.790   9.038 -0.2856 -0.6211 -0.3007
31828SOL    HW298762  10.848   8.697   8.929  0.7386 -0.1782 -0.2179
31829SOL     OW98763   4.283   4.050   2.768 -0.1962 -0.1503  0.0220
31829SOL    HW198764   4.274   3.959   2.739  1.3302 -0.4133  0.3399
31829SOL    HW298765   4.328   4.045   2.852  0.0316  0.9115 -0.0179
31830SOL     OW98766  10.521   4.385   5.858  0.2042 -0.2142 -0.4608
31830SOL    HW198767  10.487   4.454   5.916  1.0059  0.4444 -0.7478
31830SOL    HW298768  10.530   4.428   5.773  0.1882 -0.8365 -0.7795
31831SOL     OW98769   4.790  10.071   6.073 -0.0868 -0.5211  0.1993
31831SOL    HW198770   4.721  10.062   6.139  0.3897 -0.2886  0.7419
31831SOL    HW298771   4.775  10.157   6.033  0.3302 -0.1343  0.8505
31832SOL     OW98772   0.464   2.954   9.116 -0.3440 -0.1202  0.3346
31832SOL    HW198773   0.401   2.992   9.177 -0.3985 -2.4021  1.8421
31832SOL    HW298774   0.544   3.004   9.129 -0.4142 -0.4393  2.2048
31833SOL     OW98775   3.417   0.271   4.217  0.2436  0.1838  0.2229
31833SOL    HW198776   3.440   0.213   4.289  0.9737  1.0095  0.6679
31833SOL    HW298777   3.339   0.317   4.247 -0.2406 -0.4186 -0.0663
31834SOL     OW98778   8.491  10.133   0.992 -0.8979 -0.4725  0.0673
31834SOL    HW198779   8.479  10.146   1.086 -1.8110 -0.9343  0.0180
31834SOL    HW298780   8.551  10.059   0.986 -0.6072 -0.2608  0.2788
31835SOL     OW98781   3.863   4.678   7.095  0.2539  0.2927  0.5819
31835SOL    HW198782   3.939   4.699   7.149 -0.7899 -0.2424  2.3561
31835SOL    HW298783   3.817   4.762   7.086  0.8399  0.5435 -0.1886
31836SOL     OW98784   9.524  10.357   0.268 -0.0591  0.0524 -0.0419
31836SOL    HW198785   9.509  10.273   0.225  0.3246  0.0967 -0.2664
31836SOL    HW298786   9.598  10.395   0.222 -0.5348  0.7341 -0.2643
31837SOL     OW98787   5.198   5.630   4.139 -0.3062 -0.3440 -0.3468
31837SOL    HW198788   5.205   5.540   4.171  4.1808  0.1074  0.5980
31837SOL    HW298789   5.129   5.669   4.192 -0.8594 -2.6301  0.7626
31838SOL     OW98790  10.962   5.633   3.577  0.1036 -0.6694 -0.2774
31838SOL    HW198791  11.048   5.674   3.589 -0.2911 -0.1378  0.9487
31838SOL    HW298792  10.957   5.613   3.484  1.4438 -0.4512 -0.4117
31839SOL     OW98793   3.649   7.791   2.110 -0.0528 -0.3399 -0.9155
31839SOL    HW198794   3.668   7.881   2.135  1.2549 -0.2490 -2.1217
31839SOL    HW298795   3.731   7.744   2.124 -1.2204 -1.8776  1.6947
31840SOL     OW98796   5.909   5.542   5.248  0.1935 -0.7450  0.1151
31840SOL    HW198797   5.942   5.454   5.228 -1.0677 -1.4942  1.1416
31840SOL    HW298798   5.920   5.591   5.167 -0.9890 -2.4683 -1.1556
31841SOL     OW98799   5.672   5.661   3.032  0.2745 -0.0053 -0.0044
31841SOL    HW198800   5.613   5.705   2.971 -0.5822  0.3229  1.0311
31841SOL    HW298801   5.615   5.602   3.082  1.0661 -0.7338  0.0508
31842SOL     OW98802  11.065   5.591   3.273 -0.3523 -0.0518 -1.0461
31842SOL    HW198803  10.991   5.531   3.265  1.2988 -2.2748 -0.5306
31842SOL    HW298804  11.070   5.635   3.188 -2.0887  0.0171 -1.1550
31843SOL     OW98805   7.253   4.178   9.017 -0.0283  0.3268 -0.4222
31843SOL    HW198806   7.162   4.156   9.040 -0.1728  1.6009  0.3029
31843SOL    HW298807   7.250   4.194   8.923 -0.5318  0.1989 -0.4307
31844SOL     OW98808   2.651   0.723   8.939 -0.0597  0.3772  0.0089
31844SOL    HW198809   2.607   0.689   9.017 -0.0022 -1.9882 -0.9034
31844SOL    HW298810   2.737   0.750   8.971 -0.5686  0.9040  1.0136
31845SOL     OW98811   3.024   8.178  11.126  0.2973 -0.2150  0.4819
31845SOL    HW198812   3.117   8.181  11.106  0.5018 -1.7801  1.0509
31845SOL    HW298813   2.989   8.107  11.072 -0.3881 -0.2207  0.9142
31846SOL     OW98814   0.654   8.871  10.275 -0.8336  0.0334 -0.6698
31846SOL    HW198815   0.628   8.834  10.191 -1.5654 -1.7529  0.2997
31846SOL    HW298816   0.748   8.885  10.267 -0.5482 -1.9582 -1.1346
31847SOL     OW98817   7.207   1.868   9.321 -0.3037 -0.2568 -0.4382
31847SOL    HW198818   7.287   1.912   9.291 -0.5542  0.6925  0.2543
31847SOL    HW298819   7.181   1.915   9.400  0.4310 -2.7817  1.4417
31848SOL     OW98820   8.493   6.132   9.924 -0.1433 -0.4448  0.0184
31848SOL    HW198821   8.494   6.174   9.838  0.2791 -1.2657 -0.3916
31848SOL    HW298822   8.404   6.097   9.932  0.2285 -1.6392 -0.7448
31849SOL     OW98823   2.757   1.577  11.094 -0.3669  0.2630  0.1489
31849SOL    HW198824   2.725   1.651  11.145  0.2341  0.3239  0.4424
31849SOL    HW298825   2.804   1.523  11.157  1.9590  1.2397 -0.6540
31850SOL     OW98826   7.364   2.574   6.149 -0.7021  0.1316 -0.6214
31850SOL    HW198827   7.409   2.494   6.119 -1.6889 -0.6330 -0.1390
31850SOL    HW298828   7.430   2.642   6.143  0.2584 -0.7813 -0.7826
31851SOL     OW98829   0.238   1.902   4.222  0.0739  0.3056  0.1490
31851SOL    HW198830   0.193   1.850   4.288 -1.7775  1.6071  0.0173
31851SOL    HW298831   0.218   1.993   4.246  2.7474  0.9841  0.0862
31852SOL     OW98832   2.034   7.543   1.909  0.2593  0.0722 -0.3438
31852SOL    HW198833   2.065   7.631   1.926 -1.1441  0.3757  0.8120
31852SOL    HW298834   2.102   7.486   1.945  0.4094  0.6941  0.3824
31853SOL     OW98835   7.101   4.024   8.242  0.7649 -0.1039  0.5956
31853SOL    HW198836   7.192   4.020   8.269  0.3642  1.1931  2.3363
31853SOL    HW298837   7.063   3.942   8.274  1.1712 -0.3397  0.4750
31854SOL     OW98838   4.885   7.086  10.296 -0.0384  0.5724 -0.2929
31854SOL    HW198839   4.815   7.136  10.253  0.5387  1.5626 -0.1198
31854SOL    HW298840   4.921   7.146  10.362  0.4873 -0.1807  0.1248
31855SOL     OW98841   9.380   0.319   0.962 -0.4091 -0.6086  0.2635
31855SOL    HW198842   9.300   0.298   0.914 -0.7071  0.4525  0.2706
31855SOL    HW298843   9.423   0.385   0.909  0.1923 -0.7639  0.5475
31856SOL     OW98844   5.008   1.856   1.754 -0.2037  0.5410 -0.6478
31856SOL    HW198845   5.101   1.859   1.776  0.0381  0.5122 -1.6400
31856SOL    HW298846   5.002   1.894   1.667 -1.4135  2.6455  0.2648
31857SOL     OW98847   2.908   9.122   0.228  0.0790 -0.2801  0.7963
31857SOL    HW198848   2.953   9.050   0.272  0.0212 -1.5483 -1.1302
31857SOL    HW298849   2.941   9.201   0.272 -0.9379 -1.4584  3.9524
31858SOL     OW98850   5.375   7.319  11.364  0.2802  0.0395 -0.0054
31858SOL    HW198851   5.418   7.369  11.433  0.3429 -1.8893  1.4345
31858SOL    HW298852   5.445   7.301  11.301  0.6801  0.2125  0.3782
31859SOL     OW98853   7.313   9.625   8.745  0.2455  0.2222 -0.3911
31859SOL    HW198854   7.234   9.613   8.692 -0.7877  1.0155  0.9024
31859SOL    HW298855   7.292   9.584   8.829  0.8778  1.1744  0.2517
31860SOL     OW98856   2.986   9.782   5.540  0.1197  0.3292 -0.5579
31860SOL    HW198857   2.909   9.828   5.506  1.4864  1.8125 -1.7622
31860SOL    HW298858   2.978   9.789   5.635 -1.3744  0.1932 -0.6477
31861SOL     OW98859   6.116   4.377   7.905  0.0597 -0.2701 -0.6551
31861SOL    HW198860   6.181   4.405   7.841 -0.1248  1.6088 -0.0658
31861SOL    HW298861   6.154   4.298   7.944  1.3064 -0.0401 -1.3456
31862SOL     OW98862   3.128   2.739   8.500  0.3787  0.6123  0.3148
31862SOL    HW198863   3.141   2.645   8.485 -0.4105  0.2792  1.4966
31862SOL    HW298864   3.088   2.771   8.420 -0.5576 -0.3524  0.3674
31863SOL     OW98865   3.365   4.362   1.717 -0.5471  0.2777 -0.3279
31863SOL    HW198866   3.364   4.441   1.771 -1.1978 -0.6160  0.9993
31863SOL    HW298867   3.334   4.392   1.631 -1.5288  1.3261  0.3604
31864SOL     OW98868  11.206   7.434   4.650  0.1774 -0.4093  0.6140
31864SOL    HW198869  11.225   7.515   4.697 -0.5713  0.2219 -0.1382
31864SOL    HW298870  11.110   7.434   4.640  0.2783 -0.7504 -0.4911
31865SOL     OW98871   0.361   9.186   7.471 -0.1932  0.5041  0.7924
31865SOL    HW198872   0.331   9.194   7.381 -1.9375  0.1761  1.3005
31865SOL    HW298873   0.456   9.191   7.466 -0.1533 -1.1451 -1.2466
31866SOL     OW98874   2.376   2.253   8.120  0.5659 -0.5812 -0.5233
31866SOL    HW198875   2.464   2.226   8.145  0.3312 -1.3353 -0.4967
31866SOL    HW298876   2.323   2.240   8.199 -0.1133 -2.6734 -1.2532
31867SOL     OW98877  11.179   1.001   6.492  0.8642 -0.3048  0.2940
31867SOL    HW198878  11.218   1.077   6.536  0.6966  0.8259 -1.4074
31867SOL    HW298879  11.246   0.933   6.501  1.3149  0.2326  1.2703
31868SOL     OW98880  10.123   2.212  10.515 -0.1489 -0.3034  0.1928
31868SOL    HW198881  10.153   2.284  10.460 -0.6079 -1.9676 -2.4176
31868SOL    HW298882  10.197   2.152  10.519  0.0922  0.0440  2.0055
31869SOL     OW98883   2.161  11.298   1.476  0.0232  0.1297 -0.1595
31869SOL    HW198884   2.074  11.339   1.467  0.0447  0.2746  0.2406
31869SOL    HW298885   2.149  11.210   1.442  0.8881  1.4985 -4.6699
31870SOL     OW98886  10.080   1.679  10.106  0.6081 -0.2286 -0.1706
31870SOL    HW198887  10.156   1.696  10.161  0.7898  0.3780 -0.6012
31870SOL    HW298888  10.006   1.711  10.157  0.6848 -0.4428  0.0748
31871SOL     OW98889   0.805   6.988   8.022  0.1764  0.2409 -0.0890
31871SOL    HW198890   0.727   7.012   7.973  0.8372 -0.4121 -1.5282
31871SOL    HW298891   0.877   7.034   7.978  0.9340 -1.2541 -0.4760
31872SOL     OW98892   9.738  11.303   7.541  0.1791  0.1520 -0.3211
31872SOL    HW198893   9.687  11.294   7.621  0.2460  0.7721 -0.1981
31872SOL    HW298894   9.789  11.383   7.554 -0.7277  0.9752 -1.4642
31873SOL     OW98895   5.840   6.397   5.621 -0.1894 -0.6927 -0.1731
31873SOL    HW198896   5.824   6.393   5.715  1.1668  3.0085  0.3822
31873SOL    HW298897   5.800   6.480   5.594  3.3860  0.7098 -1.8387
31874SOL     OW98898   1.397   9.119   0.391  0.7396 -0.3154  0.0869
31874SOL    HW198899   1.364   9.030   0.376 -1.7150  0.7618 -1.3480
31874SOL    HW298900   1.461   9.133   0.321 -0.1869 -0.3338 -0.7708
31875SOL     OW98901   0.859   7.051   2.353 -0.1870  0.0750  0.1518
31875SOL    HW198902   0.950   7.075   2.338  0.4799 -1.3484  1.6978
31875SOL    HW298903   0.863   6.970   2.403 -2.3088 -0.0110  0.2718
31876SOL     OW98904   3.291   0.427   9.937  0.4094  0.4959 -0.0403
31876SOL    HW198905   3.321   0.518   9.941 -1.4038  1.2030 -1.1015
31876SOL    HW298906   3.212   0.431   9.884  0.2012 -1.7039  0.0308
31877SOL     OW98907   8.749   1.680   5.861 -0.3329  0.5040  0.3031
31877SOL    HW198908   8.717   1.680   5.951  1.2398  2.3584  0.9473
31877SOL    HW298909   8.683   1.633   5.811 -2.0659  0.8494  2.1598
31878SOL     OW98910   0.186   0.639   5.193 -0.4073  0.3593 -0.2368
31878SOL    HW198911   0.173   0.625   5.287  2.4914 -0.6311  0.1294
31878SOL    HW298912   0.230   0.723   5.188  2.1890 -0.8912 -0.3062
31879SOL     OW98913  10.644   2.917   0.891 -0.7294  0.2364 -0.3049
31879SOL    HW198914  10.677   3.006   0.900 -0.4169  0.1721 -0.7631
31879SOL    HW298915  10.623   2.889   0.980 -0.2194  0.5394 -0.0884
31880SOL     OW98916   4.137   5.207   7.367  0.1833  0.5352  0.1257
31880SOL    HW198917   4.073   5.272   7.398 -0.7829 -0.0974 -0.4682
31880SOL    HW298918   4.148   5.227   7.274 -0.4357 -0.3744 -0.1594
31881SOL     OW98919   7.830   2.849   9.501  0.5007 -0.1455  0.2348
31881SOL    HW198920   7.860   2.909   9.569  2.6731  0.2984 -1.0432
31881SOL    HW298921   7.739   2.876   9.484 -0.8128 -1.3857  4.0704
31882SOL     OW98922   7.516   8.802   7.950 -0.2385 -0.2852 -0.2580
31882SOL    HW198923   7.452   8.781   7.882  1.0999  0.0339 -1.6801
31882SOL    HW298924   7.541   8.717   7.987 -0.1967 -0.5615 -0.9122
31883SOL     OW98925   9.282   0.653  11.273  0.4691 -0.3807  0.0519
31883SOL    HW198926   9.282   0.709  11.350  0.1626 -1.0069  0.5103
31883SOL    HW298927   9.370   0.665  11.235  0.9057 -0.6768  0.9459
31884SOL     OW98928   5.309  10.920   5.700  1.1342 -0.2414 -0.2657
31884SOL    HW198929   5.400  10.901   5.725  2.1877  1.0629 -2.7287
31884SOL    HW298930   5.287  10.852   5.637 -0.0581 -1.2169  1.1596
31885SOL     OW98931   7.560   4.501   1.317  0.1702  0.0088 -0.2489
31885SOL    HW198932   7.642   4.546   1.336  0.5126  0.4251 -2.4430
31885SOL    HW298933   7.494   4.571   1.320  0.1535 -0.0145 -0.0955
31886SOL     OW98934  11.240  10.709   5.008 -0.4619  0.0677  0.7146
31886SOL    HW198935  11.283  10.739   5.088  0.7432 -0.5377  0.3168
31886SOL    HW298936  11.295  10.637   4.977 -0.3970  0.8695 -1.1360
31887SOL     OW98937   5.245   7.389   8.577 -0.1758 -0.2728  0.9930
31887SOL    HW198938   5.315   7.369   8.640  1.0364 -1.0179 -0.5317
31887SOL    HW298939   5.290   7.412   8.496 -1.5621 -3.4357 -0.8999
31888SOL     OW98940   6.346   4.978   8.509 -0.4308  0.1840  0.0159
31888SOL    HW198941   6.328   4.895   8.464 -0.0271 -0.4095  0.9043
31888SOL    HW298942   6.423   4.959   8.563 -0.5040  1.0587  0.4409
31889SOL     OW98943   9.554   3.395   4.239 -0.2806 -0.1587  0.3100
31889SOL    HW198944   9.594   3.375   4.155 -1.6353 -1.5564 -0.0372
31889SOL    HW298945   9.601   3.473   4.269  2.1478 -1.2414 -0.4033
31890SOL     OW98946   5.831   1.277   9.448  0.1506  0.4414 -0.2343
31890SOL    HW198947   5.882   1.309   9.373  0.3547 -2.0314 -1.2457
31890SOL    HW298948   5.882   1.204   9.482 -1.4653 -0.4560  0.3669
31891SOL     OW98949   2.703   0.589   9.243 -0.1277 -0.1526  0.5069
31891SOL    HW198950   2.705   0.597   9.338  0.3365  2.6966  0.3532
31891SOL    HW298951   2.757   0.661   9.212 -0.1647 -1.0838 -1.9423
31892SOL     OW98952   7.694   0.543   6.864 -0.3185  0.3146  0.2147
31892SOL    HW198953   7.767   0.606   6.856  0.6477 -0.5423  1.8451
31892SOL    HW298954   7.647   0.551   6.781 -0.1588  3.0912  0.3011
31893SOL     OW98955   9.243   9.371   0.719  0.0804 -0.2886  0.0563
31893SOL    HW198956   9.204   9.321   0.648 -1.9937 -0.2782  1.1162
31893SOL    HW298957   9.296   9.308   0.767  2.0111 -0.1688 -1.7543
31894SOL     OW98958   3.254   3.255   7.858  0.0515 -0.2336 -0.1695
31894SOL    HW198959   3.169   3.233   7.821  1.6121 -3.1496 -2.4276
31894SOL    HW298960   3.298   3.306   7.790  0.0993  1.4901  1.0878
31895SOL     OW98961   3.891   3.649   9.199  0.4330 -0.4518 -0.0342
31895SOL    HW198962   3.799   3.631   9.219  0.0869 -0.0088 -1.1594
31895SOL    HW298963   3.922   3.570   9.154  0.2327 -0.1134 -0.7853
31896SOL     OW98964   6.812   7.678   5.372 -0.3078 -0.0813  0.1984
31896SOL    HW198965   6.743   7.741   5.391  0.9984  0.9589  1.7723
31896SOL    HW298966   6.844   7.704   5.285 -0.5111  0.7428  0.3569
31897SOL     OW98967   3.866   7.270  10.184  0.0234 -0.3546  0.3393
31897SOL    HW198968   3.934   7.206  10.205  1.5201  1.0771  0.0471
31897SOL    HW298969   3.891   7.348  10.232 -1.0257  0.4352 -0.3600
31898SOL     OW98970   4.300   2.093   4.380 -0.3011  0.7701 -0.6639
31898SOL    HW198971   4.317   2.006   4.344  1.0775  0.3381  0.8844
31898SOL    HW298972   4.286   2.149   4.304 -0.9117 -0.7239 -1.7068
31899SOL     OW98973   1.941   3.987   8.559  0.6107 -0.2875  0.1729
31899SOL    HW198974   1.918   4.022   8.645  0.2960  0.1357 -0.0784
31899SOL    HW298975   1.890   4.040   8.497  1.8695  0.3240 -0.3624
31900SOL     OW98976   5.348   5.381   6.358  0.2773  0.1300  0.2066
31900SOL    HW198977   5.388   5.393   6.444 -0.0088 -1.4061  0.5847
31900SOL    HW298978   5.349   5.468   6.319  1.4966  0.6321  1.2844
31901SOL     OW98979   2.839   2.564  10.858 -0.0822 -0.8043 -0.2965
31901SOL    HW198980   2.806   2.489  10.908  3.0000 -1.6012  0.7641
31901SOL    HW298981   2.905   2.527  10.800  1.0688  0.9776 -0.2074
31902SOL     OW98982   4.146   6.707  11.233  0.4129  0.2777  0.1865
31902SOL    HW198983   4.068   6.763  11.225  1.5778  2.0759  0.6035
31902SOL    HW298984   4.126   6.650  11.307  0.1646  1.9968  1.5365
31903SOL     OW98985   5.838   3.864  11.084 -0.3532  0.2042  0.2416
31903SOL    HW198986   5.865   3.820  11.003  2.7985  4.8557 -1.7379
31903SOL    HW298987   5.798   3.946  11.054 -2.2078  0.6398  3.4899
31904SOL     OW98988   4.512   3.902   7.170 -0.0825 -0.0711 -0.0646
31904SOL    HW198989   4.480   3.965   7.234  1.0673 -0.3111  0.7886
31904SOL    HW298990   4.441   3.894   7.106 -1.0312  0.6057  0.8664
31905SOL     OW98991   9.666   7.901   8.687 -0.0996  0.9346  0.1637
31905SOL    HW198992   9.646   7.913   8.595  0.8164 -0.1277 -0.1960
31905SOL    HW298993   9.594   7.847   8.721 -0.4117  1.2865  0.0624
31906SOL     OW98994   5.251   2.451   7.868 -0.1309 -0.6363  0.1999
31906SOL    HW198995   5.331   2.499   7.844 -0.7568  0.1735 -0.3002
31906SOL    HW298996   5.254   2.372   7.813  0.2433 -0.5325  0.0670
31907SOL     OW98997   3.735   5.188   4.162  0.2568 -0.0042  0.1536
31907SOL    HW198998   3.825   5.159   4.145 -0.2586 -0.2038 -2.7793
31907SOL    HW298999   3.738   5.283   4.151 -0.2892 -0.2283 -2.7098
31908SOL     OW99000   4.113   5.798   5.594 -0.0126  0.0578 -0.3354
31908SOL    HW199001   4.205   5.776   5.609 -0.4004 -0.7379  1.0855
31908SOL    HW299002   4.088   5.745   5.519 -0.0786 -2.0974  1.1034
31909SOL     OW99003   2.608   7.828   1.729  0.5001 -0.5723  0.0119
31909SOL    HW199004   2.677   7.858   1.788 -0.5184 -1.0282  1.5130
31909SOL    HW299005   2.527   7.860   1.769 -0.2161 -0.7305 -1.2707
31910SOL     OW99006   4.528   8.208   9.400  0.3729  0.6933 -0.6730
31910SOL    HW199007   4.511   8.302   9.396 -2.2008  0.5825  2.9609
31910SOL    HW299008   4.441   8.168   9.391  1.0352 -1.1568  0.6095
31911SOL     OW99009   9.126   7.124   6.485  0.0489 -0.0359  0.0318
31911SOL    HW199010   9.055   7.181   6.457 -0.9490 -0.8741  0.7974
31911SOL    HW299011   9.182   7.179   6.539 -0.6987  0.3038  0.4591
31912SOL     OW99012   8.539   3.954   2.051  0.5343  0.3785  0.2893
31912SOL    HW199013   8.572   4.034   2.093  0.0894  0.1431  1.1014
31912SOL    HW299014   8.456   3.981   2.011  0.8821  0.5640 -0.3283
31913SOL     OW99015   0.710   0.715   5.636  0.0627  0.7815 -0.0253
31913SOL    HW199016   0.723   0.687   5.726 -1.0314  2.2855  0.6429
31913SOL    HW299017   0.780   0.672   5.587  2.0821  1.6846  1.8892
31914SOL     OW99018   2.347   1.118   6.724  0.6394 -0.0206  0.1726
31914SOL    HW199019   2.403   1.091   6.651 -0.3987  0.3367 -0.7772
31914SOL    HW299020   2.390   1.081   6.802  2.2071  0.2839 -0.5109
31915SOL     OW99021   9.246  10.057   1.806 -0.4462  0.7639  0.0116
31915SOL    HW199022   9.240  10.088   1.897 -2.7417 -0.0958  0.2142
31915SOL    HW299023   9.333  10.017   1.800 -0.5673  0.0765  2.0787
31916SOL     OW99024   8.210   3.245  10.252 -0.0724 -0.4484  0.2051
31916SOL    HW199025   8.299   3.276  10.237 -0.4560  1.0798  0.9274
31916SOL    HW299026   8.154   3.308  10.208 -0.8345 -0.9373  0.4484
31917SOL     OW99027   9.157   7.908   5.626 -0.5049  0.2682 -0.0836
31917SOL    HW199028   9.212   7.870   5.557 -1.3481 -0.7136 -0.2310
31917SOL    HW299029   9.218   7.961   5.678  0.2949  0.3799 -1.1009
31918SOL     OW99030   7.432   8.257   0.370  0.1115 -0.2183  0.0806
31918SOL    HW199031   7.399   8.347   0.379 -0.8101 -0.5045 -0.2442
31918SOL    HW299032   7.496   8.262   0.299  0.8077  0.3600  0.7318
31919SOL     OW99033   9.354   3.658   8.455 -0.2750  0.0340  0.0325
31919SOL    HW199034   9.415   3.639   8.526 -0.6271 -1.2140  0.0308
31919SOL    HW299035   9.373   3.591   8.389  1.2065  2.1570 -1.8527
31920SOL     OW99036   9.260  11.256  10.239 -0.5369  0.7679 -0.1865
31920SOL    HW199037   9.186  11.297  10.282 -0.6418  2.5340 -1.9249
31920SOL    HW299038   9.324  11.326  10.227 -0.5865  0.4472 -2.9774
31921SOL     OW99039   2.418   1.319   9.004  0.0479 -0.2163  0.4553
31921SOL    HW199040   2.338   1.284   8.964  0.6258 -0.1072 -0.8498
31921SOL    HW299041   2.476   1.243   9.012  0.4285 -0.0001 -0.1831
31922SOL     OW99042   1.253   5.773   1.454 -0.2933 -0.4538 -0.4050
31922SOL    HW199043   1.277   5.761   1.362 -0.4398  1.3967 -0.7273
31922SOL    HW299044   1.164   5.739   1.460 -0.2057 -0.7895 -0.8928
31923SOL     OW99045   4.745   5.222   9.310  0.2147 -0.2411  0.0271
31923SOL    HW199046   4.778   5.301   9.269  1.1550  0.3664  1.8221
31923SOL    HW299047   4.739   5.158   9.239 -1.2873  1.6054 -1.6110
31924SOL     OW99048   5.340   0.620   6.322  0.1506  0.0099 -0.3253
31924SOL    HW199049   5.333   0.614   6.227 -1.0160  0.3015 -0.2726
31924SOL    HW299050   5.263   0.573   6.355  0.6785 -0.3184  0.4863
31925SOL     OW99051  10.867  10.498   6.429 -0.6591  0.1840 -0.1401
31925SOL    HW199052  10.838  10.486   6.339 -3.1283  0.4147  0.5550
31925SOL    HW299053  10.897  10.589   6.432  0.1035 -0.0320 -0.8767
31926SOL     OW99054   6.811  11.352   4.578 -0.0599 -0.5348 -0.2314
31926SOL    HW199055   6.741  11.415   4.593 -0.3319 -1.0386  0.6260
31926SOL    HW299056   6.883  11.404   4.542 -0.4735  0.1656 -0.0473
31927SOL     OW99057   1.320   2.962   4.211  0.3159  0.0790  0.2711
31927SOL    HW199058   1.287   3.050   4.193  2.8006  1.1109  0.3322
31927SOL    HW299059   1.367   2.970   4.294  0.5032 -1.3387  0.3325
31928SOL     OW99060   3.984  10.554   5.560  0.7096 -0.0345  0.0639
31928SOL    HW199061   3.975  10.579   5.468 -0.3187  1.7182  0.6004
31928SOL    HW299062   4.055  10.608   5.594  1.0271 -0.6093  0.3380
31929SOL     OW99063   3.404   8.697   9.150  0.8329  0.1283 -0.4879
31929SOL    HW199064   3.468   8.696   9.221  0.1752  1.4861  0.1561
31929SOL    HW299065   3.422   8.778   9.103 -0.6908  0.7902  0.0025
31930SOL     OW99066   7.084  10.747   5.370  0.0411  0.4219 -0.7858
31930SOL    HW199067   7.035  10.827   5.386  1.7036  1.2839  0.3504
31930SOL    HW299068   7.042  10.680   5.424  0.6977  1.3903  0.9912
31931SOL     OW99069   2.666   2.960   1.293 -0.0468  0.1150  0.1771
31931SOL    HW199070   2.592   2.929   1.241  1.0189 -2.8810  0.2635
31931SOL    HW299071   2.678   2.893   1.361  1.7048  1.3767  1.2127
31932SOL     OW99072   4.682   5.579   4.505  0.0169  0.4301 -0.2622
31932SOL    HW199073   4.600   5.592   4.457 -0.5632  1.7428  0.9918
31932SOL    HW299074   4.660   5.513   4.572  0.5640 -0.7009 -1.1644
31933SOL     OW99075   7.278   6.578   7.935  0.2694 -0.0946 -1.0741
31933SOL    HW199076   7.203   6.613   7.984 -0.4560  0.2549 -2.3673
31933SOL    HW299077   7.330   6.531   8.000 -1.0174 -0.2477 -0.1107
31934SOL     OW99078   4.246   5.683   3.236  0.1105  0.1863  0.4201
31934SOL    HW199079   4.271   5.768   3.199  1.3280  0.1337  1.0858
31934SOL    HW299080   4.245   5.696   3.330 -0.9384 -0.2263  0.4829
31935SOL     OW99081   9.273   4.207   5.010  0.1707  0.3966 -0.2448
31935SOL    HW199082   9.202   4.160   4.968 -0.4289  2.4317 -1.6656
31935SOL    HW299083   9.349   4.150   5.001 -0.7672 -0.7921 -0.8101
31936SOL     OW99084  10.047   9.958   4.619  0.4023 -0.4956  0.1058
31936SOL    HW199085  10.051   9.941   4.524  0.8629 -0.3500  0.0993
31936SOL    HW299086  10.038  10.053   4.626  0.9058 -0.4539  0.2208
31937SOL     OW99087   0.917   0.433   2.905 -0.3776  0.1067 -0.0605
31937SOL    HW199088   0.963   0.415   2.987 -0.6907  1.3133  0.4032
31937SOL    HW299089   0.947   0.365   2.845 -1.1374 -1.5779  1.4133
31938SOL     OW99090   3.751   8.617   7.052  0.1517 -0.2991  0.2661
31938SOL    HW199091   3.780   8.570   7.131  1.4080 -0.7219 -0.4160
31938SOL    HW299092   3.832   8.643   7.009 -0.5242  0.5664 -0.5258
31939SOL     OW99093   4.122   2.659   5.633  0.6427  0.2630 -0.1268
31939SOL    HW199094   4.117   2.614   5.548 -2.2527 -0.2684  0.2048
31939SOL    HW299095   4.159   2.744   5.612  2.2008 -0.6772 -1.4968
31940SOL     OW99096   4.059   1.578   6.291 -0.3875 -0.3033  0.2375
31940SOL    HW199097   4.051   1.643   6.221 -0.5060  0.7189  1.1585
31940SOL    HW299098   3.971   1.574   6.329 -0.3407 -0.8906  0.2911
31941SOL     OW99099  10.301   3.727   4.604  0.0378 -0.6917 -0.1729
31941SOL    HW199100  10.206   3.733   4.616 -0.1361  0.2544 -1.7778
31941SOL    HW299101  10.314   3.735   4.510  1.8259  0.7313  0.1476
31942SOL     OW99102  10.299   7.122   1.788  0.1270 -0.1088 -0.6861
31942SOL    HW199103  10.212   7.150   1.760 -0.7539 -2.3690 -0.3732
31942SOL    HW299104  10.282   7.057   1.857  2.0686 -0.5363 -0.5618
31943SOL     OW99105   6.612   1.460  11.087 -0.0755  0.2322 -0.2183
31943SOL    HW199106   6.570   1.489  11.006 -0.0589 -2.3417 -1.2740
31943SOL    HW299107   6.688   1.410  11.058 -0.2260 -0.9943  1.3440
31944SOL     OW99108   8.177   2.003   5.518  0.8484  0.1315  0.4886
31944SOL    HW199109   8.139   2.091   5.528  0.9380  0.1020  1.0991
31944SOL    HW299110   8.260   2.007   5.566 -0.6415 -1.2358  3.4689
31945SOL     OW99111   1.577   5.629   9.829 -0.6281  0.0780 -0.0855
31945SOL    HW199112   1.602   5.540   9.850  0.5238  0.4885  0.3719
31945SOL    HW299113   1.498   5.620   9.777 -0.5072 -1.2047 -0.0803
31946SOL     OW99114   2.160   7.273  10.960 -0.0930  0.2943  0.3954
31946SOL    HW199115   2.240   7.241  11.002  0.8306  0.4163 -1.2051
31946SOL    HW299116   2.178   7.267  10.866 -1.2016  2.1934  0.0099
31947SOL     OW99117   6.945   6.836   8.418  0.2653 -0.1461 -0.1259
31947SOL    HW199118   6.869   6.895   8.420  0.0800 -0.3843  0.0332
31947SOL    HW299119   7.020   6.893   8.406 -0.0340  0.0076 -1.3979
31948SOL     OW99120   5.504   1.216   8.862 -0.2782  0.2942 -0.1567
31948SOL    HW199121   5.542   1.303   8.849  0.9115  0.2797  2.6346
31948SOL    HW299122   5.416   1.233   8.895 -0.7262  0.3628 -1.3163
31949SOL     OW99123   9.359   8.118   2.507  0.0604 -0.0343 -0.2103
31949SOL    HW199124   9.355   8.206   2.544 -3.9321  0.5017 -1.3647
31949SOL    HW299125   9.407   8.128   2.425  4.6557 -0.2727  2.1486
31950SOL     OW99126  11.192   6.494   5.629  0.2782  0.1650  0.6910
31950SOL    HW199127  11.266   6.441   5.658  1.0270  0.7923 -0.0273
31950SOL    HW299128  11.152   6.525   5.711  0.5009 -0.5947  1.0954
31951SOL     OW99129   8.368   6.397   3.940  0.6864  0.2138  0.7338
31951SOL    HW199130   8.361   6.350   3.857  0.6531 -2.2745  2.0630
31951SOL    HW299131   8.452   6.443   3.935  0.9159 -0.3110 -0.4727
31952SOL     OW99132   6.490   3.104  11.233  0.1785  0.3442  0.0725
31952SOL    HW199133   6.547   3.115  11.157 -0.8013  0.4075 -0.6779
31952SOL    HW299134   6.445   3.021  11.218  0.2626  0.1646  0.7859
31953SOL     OW99135  10.072   7.314   2.761 -0.4197 -0.7711  0.1360
31953SOL    HW199136  10.076   7.383   2.695  0.8157 -0.8035  0.1400
31953SOL    HW299137  10.106   7.356   2.841 -0.5448 -1.1204  0.3754
31954SOL     OW99138   5.528   9.166   5.635 -0.4231 -0.3241  0.2770
31954SOL    HW199139   5.546   9.117   5.555  0.9965  0.5794  0.0049
31954SOL    HW299140   5.516   9.100   5.702 -0.6526 -1.0716 -0.4829
31955SOL     OW99141   3.720   0.557   2.944  0.2689  0.2659  0.1007
31955SOL    HW199142   3.755   0.600   2.866 -0.8658  0.7857 -0.1461
31955SOL    HW299143   3.676   0.479   2.910 -1.0653  0.9956  0.0732
31956SOL     OW99144   5.924   7.558   0.710 -0.3394  0.0797  0.0647
31956SOL    HW199145   5.831   7.560   0.686 -0.3382  0.7345  0.0994
31956SOL    HW299146   5.965   7.622   0.651 -0.0824  0.5789  0.7778
31957SOL     OW99147   3.871   6.518   2.584 -0.2780  0.9200  0.3093
31957SOL    HW199148   3.930   6.448   2.558 -0.4328  1.4634 -1.6445
31957SOL    HW299149   3.928   6.587   2.617 -0.1478 -0.2146  2.6748
31958SOL     OW99150   3.555   2.654   3.523  0.1804  0.2461  0.0957
31958SOL    HW199151   3.621   2.710   3.483 -0.1885  1.2534  0.8251
31958SOL    HW299152   3.491   2.639   3.453  0.0992  1.0654 -0.0205
31959SOL     OW99153   5.210  10.587   8.696 -0.2661  0.5519  0.0316
31959SOL    HW199154   5.286  10.560   8.645  0.3287 -1.2769  1.7411
31959SOL    HW299155   5.233  10.673   8.730  0.8983  0.1956  0.1900
31960SOL     OW99156   0.393   0.382   1.349 -0.2653  0.2873  0.3288
31960SOL    HW199157   0.354   0.312   1.296  1.8332 -1.8859  1.4680
31960SOL    HW299158   0.382   0.353   1.439 -1.4304  2.6426  1.0311
31961SOL     OW99159   8.577   6.470   0.881  0.4765  0.0640  0.3579
31961SOL    HW199160   8.612   6.449   0.967  2.2404  2.1377  0.2483
31961SOL    HW299161   8.535   6.390   0.851  2.0385 -1.4684  2.0732
31962SOL     OW99162   8.823   1.441   7.652  0.3581  0.0674  0.7549
31962SOL    HW199163   8.812   1.486   7.568  3.0424 -1.5432 -0.6021
31962SOL    HW299164   8.737   1.405   7.672 -0.3338  0.4386 -1.3623
31963SOL     OW99165   1.233   1.637  10.404  0.1289 -0.2080  0.3841
31963SOL    HW199166   1.141   1.658  10.420  0.9620  2.6081  2.0889
31963SOL    HW299167   1.234   1.597  10.317 -2.5900  0.3194  0.0353
31964SOL     OW99168   3.721   8.431   5.304 -0.0989  0.2851 -0.3863
31964SOL    HW199169   3.786   8.362   5.318  1.3060  0.7077 -3.8570
31964SOL    HW299170   3.654   8.389   5.250 -1.6346  0.4917  1.2673
31965SOL     OW99171   2.455   0.942   9.445 -0.1758  0.2616  0.8183
31965SOL    HW199172   2.431   0.945   9.352 -1.0632  0.3969  1.0391
31965SOL    HW299173   2.435   0.852   9.472  1.1337 -0.1030  0.6191
31966SOL     OW99174   0.390   4.905   8.710 -0.1537  0.0106  0.0548
31966SOL    HW199175   0.342   4.982   8.681 -0.0219  0.7564  1.6833
31966SOL    HW299176   0.332   4.862   8.773  0.9997  0.5820  1.5802
31967SOL     OW99177   8.298   3.679   6.177 -1.2823  0.4529 -0.0623
31967SOL    HW199178   8.271   3.614   6.112 -1.9296  1.0865 -0.4307
31967SOL    HW299179   8.216   3.707   6.218 -1.0250  1.1654 -0.0246
31968SOL     OW99180   1.221   7.153   6.273 -0.2951  0.2294  0.5109
31968SOL    HW199181   1.246   7.168   6.364 -0.4931 -0.7674  0.7398
31968SOL    HW299182   1.297   7.113   6.232 -0.1954  0.7032  0.2218
31969SOL     OW99183   4.102   9.688   6.885  0.0325  0.0731  0.6388
31969SOL    HW199184   4.113   9.600   6.921 -0.4717 -0.3114 -0.1104
31969SOL    HW299185   4.017   9.716   6.917 -0.0417  0.0716  0.4444
31970SOL     OW99186   7.854   9.472   7.334  0.2901 -0.0115 -0.4176
31970SOL    HW199187   7.886   9.556   7.304  1.2097 -0.9026 -2.0743
31970SOL    HW299188   7.932   9.417   7.343 -0.2833 -0.7036  0.6267
31971SOL     OW99189   5.058  10.763   9.651 -0.1107  0.1927 -0.1958
31971SOL    HW199190   5.000  10.751   9.576 -1.5050 -0.9309  0.9923
31971SOL    HW299191   5.072  10.675   9.685  0.1613  0.7127  1.0933
31972SOL     OW99192  11.274  10.319  10.712 -0.2130  0.4763 -0.2739
31972SOL    HW199193  11.187  10.356  10.729  0.1367  0.3688  1.9094
31972SOL    HW299194  11.323  10.333  10.792  1.0234 -1.6564 -0.5784
31973SOL     OW99195   7.616   8.218   0.952  0.2584 -0.3463  0.2588
31973SOL    HW199196   7.597   8.311   0.965 -0.5153 -0.8703  4.1671
31973SOL    HW299197   7.703   8.217   0.911  0.9940  2.1334  1.5631
31974SOL     OW99198   0.967   9.718   0.912  0.7021 -0.2317  0.2051
31974SOL    HW199199   0.899   9.704   0.847  0.0146  1.4141  0.5298
31974SOL    HW299200   1.032   9.772   0.868  0.4349  0.5414  0.7332
31975SOL     OW99201   5.806   2.617  10.757  0.5967  0.3411 -0.2240
31975SOL    HW199202   5.864   2.541  10.752  0.5444  0.3447 -0.9738
31975SOL    HW299203   5.767   2.623  10.670 -0.8443  0.1022  0.3707
31976SOL     OW99204  10.700   6.539   4.295  0.7993 -0.3754  0.1846
31976SOL    HW199205  10.697   6.630   4.326  1.0171 -0.9090  1.8611
31976SOL    HW299206  10.742   6.545   4.209 -0.7912  1.2933 -0.5538
31977SOL     OW99207   9.349   7.103   2.013  0.1277 -0.3146  0.4776
31977SOL    HW199208   9.392   7.054   1.943  1.6311  0.7519  0.5966
31977SOL    HW299209   9.296   7.168   1.967 -0.1054 -0.6169  0.3219
31978SOL     OW99210   9.340   7.935   6.650 -0.2249  0.0583  0.1049
31978SOL    HW199211   9.376   7.989   6.721  2.5619 -0.6847 -0.6014
31978SOL    HW299212   9.316   7.853   6.692  1.0679 -0.2411  0.3209
31979SOL     OW99213   6.270   8.761   1.529 -0.0619  0.1720 -0.0087
31979SOL    HW199214   6.204   8.756   1.459 -0.8719 -1.8624  0.8358
31979SOL    HW299215   6.345   8.712   1.495 -0.9344 -1.9530  0.9715
31980SOL     OW99216   3.440   9.472   8.025  0.1954 -0.1378 -0.3059
31980SOL    HW199217   3.464   9.450   8.115 -1.5417  1.9259  0.7399
31980SOL    HW299218   3.445   9.567   8.021 -0.4118 -0.1434 -2.2342
31981SOL     OW99219   6.206   1.932   0.699 -0.3747 -0.1964  0.2288
31981SOL    HW199220   6.125   1.924   0.649 -1.1510  1.0282  1.2125
31981SOL    HW299221   6.255   2.001   0.654 -0.0875 -0.6022 -0.0864
31982SOL     OW99222   5.137   5.543  10.968 -0.3196 -0.0350 -0.6028
31982SOL    HW199223   5.067   5.606  10.989  0.8327  1.6435 -1.5947
31982SOL    HW299224   5.099   5.458  10.990 -1.5657  1.0320  1.8364
31983SOL     OW99225   8.997   8.293  10.193 -0.7036 -0.6567  0.4748
31983SOL    HW199226   8.916   8.319  10.148  0.7446  1.3420 -1.1912
31983SOL    HW299227   9.049   8.251  10.125  0.3522 -0.3242  1.0630
31984SOL     OW99228   8.850   0.349   8.071 -0.7257  0.1095  0.1336
31984SOL    HW199229   8.758   0.374   8.069 -0.3036  1.7361 -0.3223
31984SOL    HW299230   8.898   0.432   8.067  0.7685 -0.6084  1.6386
31985SOL     OW99231   4.859   0.077   2.927  0.1075  0.3184 -0.3285
31985SOL    HW199232   4.884  -0.009   2.895 -0.3230  0.1215 -0.1412
31985SOL    HW299233   4.810   0.060   3.007  0.8267  0.7889  0.2227
31986SOL     OW99234   3.849   6.347   8.501  0.0748  0.0665  0.5393
31986SOL    HW199235   3.813   6.390   8.423  2.1624  0.8548 -0.0718
31986SOL    HW299236   3.856   6.417   8.566 -1.6235 -0.5801  1.4762
31987SOL     OW99237  10.256   4.939   3.251  0.0257  0.3873 -0.3366
31987SOL    HW199238  10.311   4.905   3.182  0.3485 -0.3076  0.2491
31987SOL    HW299239  10.309   5.007   3.293  1.0309 -1.1947  1.0965
31988SOL     OW99240   5.079   1.753  10.455 -0.0749 -0.6619  0.3406
31988SOL    HW199241   5.087   1.786  10.365 -0.1907 -1.1318  0.1546
31988SOL    HW299242   5.145   1.801  10.504  0.9361 -1.3741 -0.2796
31989SOL     OW99243   6.177   2.288  10.701  0.2719 -0.5821 -0.6694
31989SOL    HW199244   6.215   2.314  10.617 -0.6922 -0.7831 -1.1922
31989SOL    HW299245   6.100   2.345  10.710  0.8991  0.1147  0.5554
31990SOL     OW99246   2.658   4.198   8.638 -0.0570  0.0029  0.8911
31990SOL    HW199247   2.695   4.201   8.726 -1.1853 -1.7152  1.4872
31990SOL    HW299248   2.616   4.283   8.626 -0.2904  0.0968  2.2175
31991SOL     OW99249   3.897   9.818   1.358 -0.6742  0.0392 -0.1470
31991SOL    HW199250   3.949   9.740   1.338 -0.1851 -0.5357  2.8788
31991SOL    HW299251   3.957   9.875   1.406 -1.9323  0.7627  0.6349
31992SOL     OW99252   2.673   1.747   1.395 -0.5871  0.4292 -0.0331
31992SOL    HW199253   2.677   1.653   1.376  2.1904  0.5015 -0.1405
31992SOL    HW299254   2.643   1.751   1.486  0.5564 -0.6716  0.4322
31993SOL     OW99255   1.164   1.645   1.623  0.2954 -0.1075  0.0587
31993SOL    HW199256   1.085   1.653   1.677  0.4964  1.6858  0.1527
31993SOL    HW299257   1.229   1.604   1.681 -0.4401 -1.3121  0.0732
31994SOL     OW99258  10.886   2.157   8.847  0.0516  0.6112  0.0446
31994SOL    HW199259  10.900   2.185   8.938 -0.7102  0.2153  0.2909
31994SOL    HW299260  10.964   2.106   8.826 -0.4037 -0.5164  0.9770
31995SOL     OW99261   2.980   5.487   7.299  0.5083  0.2677 -0.5852
31995SOL    HW199262   3.038   5.430   7.350  0.5362  0.1048 -0.7981
31995SOL    HW299263   3.012   5.576   7.317  1.0871  0.1561 -1.0215
31996SOL     OW99264   4.807   1.239   2.635  0.2157 -0.5584  0.3769
31996SOL    HW199265   4.744   1.280   2.693  0.7001 -2.4267  2.3514
31996SOL    HW299266   4.781   1.147   2.632  1.0985 -0.8020 -1.2175
31997SOL     OW99267   3.178   2.115   5.166  0.0979  0.2156  0.9094
31997SOL    HW199268   3.084   2.108   5.183  0.5199 -1.7570  2.9413
31997SOL    HW299269   3.219   2.064   5.237  2.6184 -0.3717 -0.8295
31998SOL     OW99270   1.969   6.611   8.366  0.0415 -0.1222  1.2293
31998SOL    HW199271   2.009   6.691   8.332  0.0291 -0.4181  0.5022
31998SOL    HW299272   1.978   6.618   8.461  1.7293 -0.1304  1.0955
31999SOL     OW99273   3.809   4.578   4.804 -0.9060  0.4232  0.4568
31999SOL    HW199274   3.828   4.623   4.886  1.3429 -2.1850  1.4913
31999SOL    HW299275   3.740   4.516   4.826  0.5431 -1.1381  0.7688
32000SOL     OW99276   0.864   9.970   9.772 -0.6698 -0.6720  0.1953
32000SOL    HW199277   0.827  10.054   9.801  1.8633  0.5233  0.1922
32000SOL    HW299278   0.866   9.977   9.677  2.3096  0.6267  0.2670
32001SOL     OW99279  10.356   1.840   7.824  0.6378  0.0384 -0.4256
32001SOL    HW199280  10.296   1.890   7.880  0.3726  0.3502 -0.9821
32001SOL    HW299281  10.328   1.749   7.833  0.8823  0.0245  0.2973
32002SOL     OW99282   0.204   3.153   4.996  0.3716 -0.1162  0.0056
32002SOL    HW199283   0.129   3.193   5.040  1.1322  5.1300 -2.6114
32002SOL    HW299284   0.275   3.158   5.061 -0.1851  0.5695  0.5833
32003SOL     OW99285  10.706   8.620  11.143 -0.0828  0.2020  0.0963
32003SOL    HW199286  10.714   8.689  11.077 -0.7714 -0.9740 -1.2717
32003SOL    HW299287  10.709   8.666  11.227 -0.9390  1.9317 -0.7766
32004SOL     OW99288   5.483   9.651   0.252  0.5484 -0.0977  0.4915
32004SOL    HW199289   5.479   9.713   0.325  0.3963 -1.2740  1.5082
32004SOL    HW299290   5.440   9.572   0.285 -0.4353 -0.3222 -1.2278
32005SOL     OW99291   5.360   6.400   4.419 -0.2052 -0.4902  0.2337
32005SOL    HW199292   5.344   6.475   4.476 -1.6686 -0.2492 -0.4703
32005SOL    HW299293   5.442   6.420   4.375 -0.6582  0.7689 -0.0555
32006SOL     OW99294   5.317   8.517   3.220 -0.3580  0.6337 -0.0415
32006SOL    HW199295   5.233   8.560   3.205 -1.7493 -1.4228  1.2620
32006SOL    HW299296   5.378   8.588   3.239 -1.4452  2.2852 -2.3378
32007SOL     OW99297   0.450   7.554  10.195 -0.0821  0.0189 -0.7235
32007SOL    HW199298   0.360   7.583  10.177 -0.4793 -0.8491 -0.2219
32007SOL    HW299299   0.439   7.470  10.241  0.9324  0.7098  0.8897
32008SOL     OW99300   9.018   8.458   4.318  0.0198 -0.1989  0.5407
32008SOL    HW199301   8.997   8.387   4.377 -2.0424  0.0212  0.1420
32008SOL    HW299302   8.995   8.425   4.231 -1.0092  0.9320  0.3558
32009SOL     OW99303   6.462   5.129   2.480  0.3722 -0.6642  0.0089
32009SOL    HW199304   6.423   5.208   2.520  0.2087 -0.2215 -1.0057
32009SOL    HW299305   6.555   5.150   2.472  0.3513 -0.6303 -0.1398
32010SOL     OW99306   0.085   2.087   5.880 -0.1960 -0.4151 -0.3271
32010SOL    HW199307   0.066   2.038   5.800 -0.0982 -0.1047 -0.5407
32010SOL    HW299308   0.064   2.177   5.858  0.2864 -0.2570 -0.1562
32011SOL     OW99309   3.770   5.085  10.709  0.2386 -0.6886  0.2072
32011SOL    HW199310   3.736   5.013  10.656 -0.4710 -0.5353  0.4438
32011SOL    HW299311   3.854   5.107  10.668  0.6191 -1.8434  0.3104
32012SOL     OW99312   0.653   1.657   4.147  0.0937  0.0262  0.5756
32012SOL    HW199313   0.622   1.746   4.164 -0.6400  0.0349 -0.6246
32012SOL    HW299314   0.584   1.619   4.092  2.2080  0.0755 -2.3510
32013SOL     OW99315   9.365   6.408   0.414 -0.0719  0.3801  0.0675
32013SOL    HW199316   9.417   6.358   0.476  0.3889  3.9115  2.8709
32013SOL    HW299317   9.290   6.439   0.465 -0.8188  1.7417 -1.7444
32014SOL     OW99318   7.280   2.086   0.037  0.3286  0.1652 -0.4065
32014SOL    HW199319   7.365   2.131   0.041  1.0258 -1.0296 -1.1577
32014SOL    HW299320   7.282   2.026   0.112 -0.5424  1.2325  0.5115
32015SOL     OW99321   8.290   4.758   6.226 -0.5528 -0.0010 -0.0775
32015SOL    HW199322   8.295   4.687   6.162 -1.1697  2.3153 -2.8681
32015SOL    HW299323   8.199   4.758   6.255 -2.2077  2.8509 -4.2964
32016SOL     OW99324   2.646  11.140   4.125 -0.2566  0.0497 -0.4154
32016SOL    HW199325   2.573  11.107   4.073  1.2801 -1.9472 -1.4538
32016SOL    HW299326   2.713  11.163   4.061  1.3128 -1.4954  0.5698
32017SOL     OW99327  10.403   7.222   0.724 -0.0825  0.7588 -0.1336
32017SOL    HW199328  10.366   7.229   0.813 -0.0060  1.8630 -0.1839
32017SOL    HW299329  10.428   7.311   0.701  1.8958  0.1820 -0.4307
32018SOL     OW99330   2.191  10.283   1.212 -0.6251  0.1901 -0.1708
32018SOL    HW199331   2.252  10.349   1.244 -0.7730  0.3202 -0.1556
32018SOL    HW299332   2.130  10.269   1.285 -1.2790  0.8637 -0.5686
32019SOL     OW99333   7.347   5.133   7.062  0.1476 -0.2115  0.0123
32019SOL    HW199334   7.393   5.116   6.980  0.4882  0.0009  0.1531
32019SOL    HW299335   7.364   5.225   7.080  1.9879 -0.7526  1.4576
32020SOL     OW99336   1.666   7.206   9.991  0.3140  0.5548  0.2598
32020SOL    HW199337   1.640   7.259  10.067  1.4451  0.2373  0.8844
32020SOL    HW299338   1.586   7.199   9.939  0.1733  3.1472 -0.0273
32021SOL     OW99339   9.582   8.579   0.484  0.1932 -1.1393  0.2319
32021SOL    HW199340   9.563   8.578   0.578 -1.9845  0.5682 -0.0900
32021SOL    HW299341   9.631   8.660   0.471  2.8749 -2.6610  0.1870
32022SOL     OW99342   1.836   7.801   8.066 -0.0710 -0.0802 -0.3741
32022SOL    HW199343   1.742   7.817   8.052 -0.6442 -2.0028  0.9140
32022SOL    HW299344   1.860   7.738   7.999  0.4927  0.8998 -1.1154
32023SOL     OW99345   7.114   4.418   1.328 -0.1227 -0.3087  0.0116
32023SOL    HW199346   7.090   4.497   1.280  3.0323  1.1590  0.5398
32023SOL    HW299347   7.113   4.445   1.420 -1.2355 -1.5994  0.4052
32024SOL     OW99348   3.856   4.648   3.106  0.6409  0.0567 -0.5650
32024SOL    HW199349   3.913   4.684   3.174  0.0873 -1.1217  0.5555
32024SOL    HW299350   3.908   4.579   3.065  1.3129  1.3558 -2.0059
32025SOL     OW99351   5.533  10.490  10.330  0.1299  0.7305  0.4049
32025SOL    HW199352   5.556  10.418  10.389  1.5027  1.6378  1.0400
32025SOL    HW299353   5.617  10.530  10.308 -0.6150  2.2853  0.2707
32026SOL     OW99354   3.363   4.636   2.955  0.0206  0.2965  0.1516
32026SOL    HW199355   3.452   4.656   2.983 -0.3104 -0.1311  1.5940
32026SOL    HW299356   3.370   4.552   2.910  0.6621  1.2924 -1.7512
32027SOL     OW99357   2.020   5.137  10.539  0.2642 -0.2842  0.3580
32027SOL    HW199358   2.017   5.042  10.526 -2.7178 -0.0273 -1.7270
32027SOL    HW299359   2.009   5.174  10.452 -2.6603  1.8774  1.4754
32028SOL     OW99360   0.253   9.739   0.245  0.3544  0.0023  0.2229
32028SOL    HW199361   0.328   9.780   0.202  1.5222 -2.1316  0.0927
32028SOL    HW299362   0.177   9.766   0.193  1.1710  1.2393 -0.3619
32029SOL     OW99363   6.268   8.270   2.954  0.0984 -0.4360 -0.4682
32029SOL    HW199364   6.231   8.358   2.963  2.6238  0.6455  0.1611
32029SOL    HW299365   6.221   8.218   3.020 -0.7560  0.6613 -0.1712
32030SOL     OW99366   4.948   6.575   6.303 -0.1611  0.0175 -0.2172
32030SOL    HW199367   4.982   6.665   6.293 -2.4100  0.9982  0.3180
32030SOL    HW299368   4.987   6.544   6.385  1.0450  0.2746 -0.6645
32031SOL     OW99369   4.869   5.409   8.887 -0.0105 -0.5198 -0.0384
32031SOL    HW199370   4.882   5.319   8.859  1.9526 -0.6664  1.1919
32031SOL    HW299371   4.874   5.460   8.807  0.4623 -1.3505 -0.5520
32032SOL     OW99372   8.518  10.702   6.322  0.3885  0.5081  0.5021
32032SOL    HW199373   8.436  10.740   6.352  0.7771  2.1536 -0.4050
32032SOL    HW299374   8.574  10.699   6.399  0.6539  2.6927  0.4419
32033SOL     OW99375  11.261   6.882   9.944 -0.2727  0.1174 -0.3678
32033SOL    HW199376  11.308   6.939  10.005  1.0776 -1.2975 -0.0145
32033SOL    HW299377  11.173   6.874   9.981 -0.2080  1.1916  0.0641
32034SOL     OW99378   6.162   9.004   9.887  0.1779 -0.0951 -0.3706
32034SOL    HW199379   6.203   9.052   9.959  1.5440 -0.1198 -1.1196
32034SOL    HW299380   6.218   8.927   9.874  2.2700  1.8010 -3.9563
32035SOL     OW99381   5.816   2.654   4.907 -0.6060 -0.2934 -0.1346
32035SOL    HW199382   5.845   2.586   4.847 -0.3307 -0.4134  0.1326
32035SOL    HW299383   5.812   2.733   4.853 -1.5940 -0.6557 -0.6067
32036SOL     OW99384   1.647  11.296   6.348  0.4829  0.2179  0.0393
32036SOL    HW199385   1.738  11.318   6.368 -0.0890  1.2607  1.7246
32036SOL    HW299386   1.622  11.234   6.417  0.0015 -0.3299 -0.6100
32037SOL     OW99387   1.358   1.528   7.340 -0.1979  0.4949  0.2128
32037SOL    HW199388   1.283   1.578   7.370 -1.7278 -0.9778 -0.9834
32037SOL    HW299389   1.329   1.437   7.343  1.8037 -0.1897  0.4241
32038SOL     OW99390   4.196   9.077   0.741 -0.1802  0.1502 -0.1312
32038SOL    HW199391   4.255   9.083   0.816  2.4398 -0.3621 -1.9916
32038SOL    HW299392   4.196   8.984   0.719 -2.8068 -0.0807  0.5549
32039SOL     OW99393   2.059   5.709   1.326 -0.7230  0.6337  0.2773
32039SOL    HW199394   1.978   5.666   1.353 -0.5157 -0.3196 -0.5532
32039SOL    HW299395   2.031   5.775   1.262 -0.7769 -0.3394 -0.7293
32040SOL     OW99396   1.055   7.177   2.710  0.1514  0.0453  0.4356
32040SOL    HW199397   1.104   7.227   2.775  1.8899 -0.1523 -0.6496
32040SOL    HW299398   0.969   7.219   2.707  0.7933  1.4894  1.2138
32041SOL     OW99399   5.093   4.118   3.610 -0.1593 -0.3542 -0.4265
32041SOL    HW199400   5.039   4.193   3.635  0.4849 -0.0452  0.0615
32041SOL    HW299401   5.047   4.042   3.646 -0.9570 -0.2302 -1.1543
32042SOL     OW99402   1.132  10.494   2.581  0.0358 -0.5930  0.2069
32042SOL    HW199403   1.132  10.412   2.530  0.7587  0.6444 -1.9448
32042SOL    HW299404   1.048  10.535   2.560  0.8793  0.5429 -1.1733
32043SOL     OW99405   2.380   3.355   9.699 -0.3266 -1.0394 -0.1127
32043SOL    HW199406   2.406   3.443   9.728 -2.1375 -0.0611 -1.2945
32043SOL    HW299407   2.457   3.322   9.654  0.2651  0.0985  0.0048
32044SOL     OW99408   2.233   9.029   5.874 -0.3903 -0.1580 -0.1323
32044SOL    HW199409   2.253   8.971   5.799 -0.2438 -0.5262  0.1859
32044SOL    HW299410   2.319   9.057   5.905 -0.4837  1.6388 -1.3453
32045SOL     OW99411   5.088   7.989   4.223  0.2066 -0.0898  0.0366
32045SOL    HW199412   5.030   8.065   4.216  0.9197  0.3526 -1.6268
32045SOL    HW299413   5.160   8.018   4.279  1.4620  1.1910 -2.1062
32046SOL     OW99414   0.967   3.196   5.720  0.1811  0.4310 -0.0004
32046SOL    HW199415   0.877   3.195   5.753  0.1624  0.4465 -0.0519
32046SOL    HW299416   0.987   3.104   5.704  0.4160  0.3571  0.6800
32047SOL     OW99417   4.759   9.405   5.333  0.4812  0.2987 -0.3674
32047SOL    HW199418   4.772   9.478   5.394 -1.7247  0.3233  0.1541
32047SOL    HW299419   4.781   9.328   5.385  0.8388  0.4529 -0.2797
32048SOL     OW99420   2.344   9.749   5.516  0.1254 -0.3951 -0.2545
32048SOL    HW199421   2.367   9.799   5.438  1.3074 -2.4005 -1.2727
32048SOL    HW299422   2.310   9.814   5.578 -0.8874  1.2542 -2.4288
32049SOL     OW99423   0.757   7.595   4.191  0.5469 -0.2382 -0.0142
32049SOL    HW199424   0.776   7.685   4.218 -0.6932  0.4671 -1.3330
32049SOL    HW299425   0.669   7.578   4.224  0.8437 -1.0563  0.3872
32050SOL     OW99426   2.121   6.554   7.728  0.3574  0.1732 -0.7522
32050SOL    HW199427   2.074   6.527   7.807 -0.8800 -1.0038 -1.8325
32050SOL    HW299428   2.195   6.605   7.760 -0.6167  0.5081  1.1165
32051SOL     OW99429   8.980   5.058  11.005 -0.3650 -0.1251 -0.4717
32051SOL    HW199430   8.937   4.975  11.026  0.2337 -0.4189 -0.3818
32051SOL    HW299431   9.072   5.044  11.029 -0.3984  0.8194  0.2320
32052SOL     OW99432   3.104   7.338   2.602 -0.3689 -0.6230 -0.1186
32052SOL    HW199433   3.115   7.431   2.625 -1.3121  0.0708 -2.1524
32052SOL    HW299434   3.177   7.320   2.543  0.3647 -1.4969  1.0170
32053SOL     OW99435   1.170   2.970   4.777  0.0728  0.5049  0.5306
32053SOL    HW199436   1.095   2.949   4.722 -1.1478 -2.3932  2.9775
32053SOL    HW299437   1.160   3.064   4.796 -0.6523  1.0827 -2.2645
32054SOL     OW99438   8.461   9.403   3.461 -0.2634  0.5959 -0.1335
32054SOL    HW199439   8.391   9.467   3.458 -1.3102 -0.5073  0.1162
32054SOL    HW299440   8.443   9.350   3.539 -0.1403 -0.7631 -0.9853
32055SOL     OW99441   0.598   5.263   1.060 -0.0608  0.5370 -0.7554
32055SOL    HW199442   0.559   5.234   0.977 -2.9479  0.1672  0.6159
32055SOL    HW299443   0.607   5.183   1.111 -1.4864  1.1362  0.4862
32056SOL     OW99444   2.083   5.109   3.188 -0.3345 -0.0754  0.3978
32056SOL    HW199445   2.000   5.072   3.156 -0.9947  1.8395 -0.2911
32056SOL    HW299446   2.150   5.050   3.155 -1.2988 -0.5570 -0.7864
32057SOL     OW99447   2.297   9.962   0.881  0.6217  0.1537 -0.3464
32057SOL    HW199448   2.310   9.968   0.787 -0.3226 -3.3018 -0.8364
32057SOL    HW299449   2.204   9.940   0.891  0.9272 -0.5325  1.3062
32058SOL     OW99450   2.779   9.063   0.810 -0.1268 -0.2974  0.1366
32058SOL    HW199451   2.804   9.117   0.885  0.0117 -0.9098  0.5378
32058SOL    HW299452   2.700   9.104   0.776  0.2382  0.4324  0.1420
32059SOL     OW99453   7.850   5.609   7.170 -0.5898 -0.6104 -0.9340
32059SOL    HW199454   7.777   5.552   7.192 -0.6820 -0.2480 -0.2607
32059SOL    HW299455   7.874   5.651   7.253  1.0502 -1.4747 -0.9316
32060SOL     OW99456   7.558   7.497   4.766 -0.0682 -0.0655  0.5729
32060SOL    HW199457   7.469   7.467   4.782 -0.7865  0.7578 -1.5070
32060SOL    HW299458   7.582   7.457   4.683  1.2040  0.3393  0.7294
32061SOL     OW99459  10.996   8.186   6.526 -0.1615  0.3715 -0.7961
32061SOL    HW199460  10.930   8.240   6.484  0.5348  0.9886 -1.1109
32061SOL    HW299461  11.031   8.131   6.456 -0.5818 -0.2101 -0.5592
32062SOL     OW99462  10.923   5.046   7.124  0.2914  0.4309  0.2475
32062SOL    HW199463  10.851   5.038   7.062 -0.1207  1.9368  0.4773
32062SOL    HW299464  11.000   5.017   7.076  0.0577  1.9668 -1.1536
32063SOL     OW99465   2.298   5.822   8.032  0.0645 -0.0960 -0.6182
32063SOL    HW199466   2.278   5.797   8.122  2.0483 -0.0615 -0.1292
32063SOL    HW299467   2.301   5.918   8.034  0.6016 -0.1096 -0.5924
32064SOL     OW99468   4.085   4.490   1.624  0.3525  0.0641 -0.0954
32064SOL    HW199469   3.999   4.462   1.655 -0.0023  1.0882 -0.0943
32064SOL    HW299470   4.073   4.504   1.530 -0.2570  2.7192  0.2801
32065SOL     OW99471  11.168   5.237   9.506  0.3279  0.3276 -0.1248
32065SOL    HW199472  11.261   5.227   9.483 -0.0486 -0.7958 -1.2524
32065SOL    HW299473  11.169   5.257   9.600  1.6925 -0.1849 -0.0087
32066SOL     OW99474  10.271   2.430   5.451 -0.4435  0.0823 -0.2472
32066SOL    HW199475  10.228   2.423   5.537 -0.2669  0.5047 -0.1173
32066SOL    HW299476  10.204   2.465   5.393 -0.6049 -0.3438 -0.3125
32067SOL     OW99477   0.157   5.831   4.613 -0.4353 -0.2336 -0.4485
32067SOL    HW199478   0.250   5.845   4.630 -0.6329  0.7145 -0.0501
32067SOL    HW299479   0.120   5.920   4.610 -1.1450 -0.5367 -1.6950
32068SOL     OW99480   2.093   3.827   5.031  0.5155  0.4446 -0.6195
32068SOL    HW199481   2.076   3.894   5.097  0.5564 -0.0623 -0.0795
32068SOL    HW299482   2.084   3.744   5.078 -0.4231  0.0354 -1.4861
32069SOL     OW99483   2.961   9.440   2.406  0.0938 -0.2596  0.0830
32069SOL    HW199484   2.886   9.490   2.373  0.3209  0.1767  0.2181
32069SOL    HW299485   2.939   9.423   2.498  0.0897 -0.2644  0.0813
32070SOL     OW99486  10.940   9.176   2.497 -0.2632 -0.2698 -0.1464
32070SOL    HW199487  11.015   9.227   2.469  0.1239 -1.1656 -0.7975
32070SOL    HW299488  10.901   9.144   2.416 -1.0542 -0.2287  0.2051
32071SOL     OW99489   1.791   1.947   6.663  0.5751  0.1294 -0.2384
32071SOL    HW199490   1.806   1.957   6.569  0.1166  1.5937 -0.1861
32071SOL    HW299491   1.850   1.876   6.689  1.3970  0.3268 -1.4651
32072SOL     OW99492   4.581   7.116   1.764  0.0901 -0.5861  0.4093
32072SOL    HW199493   4.570   7.045   1.826  1.7143 -1.3520 -0.0998
32072SOL    HW299494   4.562   7.077   1.679  1.8469 -0.7109  0.0288
32073SOL     OW99495   2.232   8.827   3.924  0.7076  0.2881  0.5667
32073SOL    HW199496   2.305   8.832   3.862 -0.3759  2.2789 -0.6826
32073SOL    HW299497   2.219   8.918   3.952 -1.2808  0.0094  0.7030
32074SOL     OW99498   2.954   3.867   0.512  0.4148  0.2808  0.2069
32074SOL    HW199499   2.903   3.868   0.430  2.9609 -3.0861 -1.6681
32074SOL    HW299500   2.905   3.807   0.569 -0.1296  0.7575  0.2510
32075SOL     OW99501   7.097   5.413   4.832 -0.3692 -0.3375  0.5370
32075SOL    HW199502   7.033   5.456   4.889 -0.8264 -1.5350  0.9686
32075SOL    HW299503   7.173   5.399   4.888  0.7927  2.1393 -0.2862
32076SOL     OW99504   2.248   9.946   5.666 -0.0144  0.1774 -0.2283
32076SOL    HW199505   2.184   9.934   5.737  0.0243 -0.3487 -0.2772
32076SOL    HW299506   2.269  10.039   5.668  0.6020  0.0240  0.9756
32077SOL     OW99507   3.966   3.228   5.896  0.3453 -0.2344  0.1657
32077SOL    HW199508   3.943   3.273   5.977  0.2312  1.4615 -0.7796
32077SOL    HW299509   4.048   3.269   5.868  1.0591 -1.6660  0.0430
32078SOL     OW99510   6.832   9.638   9.460 -0.4901  0.1159  0.5424
32078SOL    HW199511   6.759   9.596   9.507 -0.4756  0.0024  0.4633
32078SOL    HW299512   6.910   9.608   9.506 -0.5279  0.7670  1.0456
32079SOL     OW99513   2.428   3.273  10.759  0.0580  0.1381  0.0123
32079SOL    HW199514   2.401   3.252  10.670  0.2349  0.2826 -0.0762
32079SOL    HW299515   2.491   3.204  10.781 -0.3742 -0.1988  0.2190
32080SOL     OW99516   5.440   9.193   8.875 -0.7013  0.6693  0.2738
32080SOL    HW199517   5.489   9.272   8.897 -1.5700  0.8559  1.6417
32080SOL    HW299518   5.425   9.200   8.780  0.6282  1.3131  0.0855
32081SOL     OW99519   3.862   0.983  10.839  0.4841  0.5476 -0.4530
32081SOL    HW199520   3.907   0.899  10.850  1.3960  1.0809  0.0186
32081SOL    HW299521   3.931   1.049  10.848  0.0794  1.3090 -2.3901
32082SOL     OW99522   4.535   9.125   2.819  0.2953 -0.6421 -0.0436
32082SOL    HW199523   4.629   9.109   2.814  0.5411 -0.3809  2.4357
32082SOL    HW299524   4.525   9.188   2.890 -1.7647 -0.7045 -0.2086
32083SOL     OW99525   8.584  11.353   5.896  0.3228 -0.3091 -0.3353
32083SOL    HW199526   8.659  11.299   5.871  0.8603  0.1531  0.2709
32083SOL    HW299527   8.559  11.398   5.815  1.8928  0.9800 -0.1378
32084SOL     OW99528   6.243  10.993   5.144  0.0356  0.3660  0.0384
32084SOL    HW199529   6.200  11.071   5.107 -0.4327  0.0277 -0.1355
32084SOL    HW299530   6.300  11.028   5.213  0.3587  0.9342 -0.4957
32085SOL     OW99531   1.211   9.805  10.092  0.0382 -0.2123 -0.0517
32085SOL    HW199532   1.173   9.892  10.107 -0.0595 -0.3895  0.7751
32085SOL    HW299533   1.300   9.823  10.062  0.3702  0.1746  1.1169
32086SOL     OW99534   2.799   6.181   3.375 -0.2016 -0.5571 -0.6579
32086SOL    HW199535   2.791   6.209   3.284 -2.9332  0.3853 -0.2210
32086SOL    HW299536   2.757   6.095   3.379  0.4319 -0.8621 -0.3837
32087SOL     OW99537   3.249   3.244   1.042 -0.2934  0.6747  0.0481
32087SOL    HW199538   3.174   3.218   1.095  1.1159 -0.1570  1.7552
32087SOL    HW299539   3.291   3.161   1.018  0.8650  1.1438  0.3646
32088SOL     OW99540   8.183   5.900   2.158 -0.0303 -0.3531 -0.4464
32088SOL    HW199541   8.190   5.962   2.086 -0.6130 -0.2483 -0.4195
32088SOL    HW299542   8.109   5.844   2.135 -0.8434  0.2932  0.5158
32089SOL     OW99543   2.778   1.426   1.593 -0.3290  0.1557 -0.4118
32089SOL    HW199544   2.748   1.503   1.641 -2.8721 -1.0226  0.0355
32089SOL    HW299545   2.801   1.363   1.661  1.8053  0.4779 -0.7709
32090SOL     OW99546   4.753   3.124   0.236 -0.6805 -0.2367  0.7634
32090SOL    HW199547   4.695   3.147   0.164  0.0672  0.5367  0.3886
32090SOL    HW299548   4.780   3.208   0.274 -1.7073 -0.6410  2.4971
32091SOL     OW99549   3.767   3.489   3.820  0.0558 -0.2985 -0.3149
32091SOL    HW199550   3.820   3.434   3.879 -1.5892  0.3638  1.9414
32091SOL    HW299551   3.738   3.429   3.752  0.3760 -1.6488  0.6811
32092SOL     OW99552   3.782   0.131   2.209  0.0193 -0.1847 -0.2050
32092SOL    HW199553   3.721   0.098   2.143  1.2816 -0.0390 -1.5003
32092SOL    HW299554   3.868   0.108   2.176  0.7475  0.8583  0.8679
32093SOL     OW99555  10.818   3.468  10.625  0.1419  0.0830 -0.6120
32093SOL    HW199556  10.893   3.497  10.574 -1.0935  1.3158 -1.8087
32093SOL    HW299557  10.787   3.547  10.669  1.1063 -0.9067  2.0884
32094SOL     OW99558   5.024   5.060   3.271 -0.1418  0.0673 -1.1112
32094SOL    HW199559   5.024   5.149   3.235 -1.3588 -0.4353 -2.4694
32094SOL    HW299560   4.931   5.038   3.277  0.1489 -1.0509 -0.6187
32095SOL     OW99561   5.536   9.867   6.387 -0.2767 -0.4896 -0.1768
32095SOL    HW199562   5.540   9.878   6.292  1.3170 -2.7509 -0.4354
32095SOL    HW299563   5.502   9.779   6.400 -2.2522  0.4044  1.4619
32096SOL     OW99564   9.363   4.515   4.858  0.4511 -0.3648  0.1153
32096SOL    HW199565   9.399   4.426   4.854 -1.1192 -1.0414  0.4813
32096SOL    HW299566   9.432   4.570   4.820  0.9085 -1.8871 -1.3906
32097SOL     OW99567   6.864   3.435   9.741  0.1592  0.5776  0.2229
32097SOL    HW199568   6.909   3.382   9.807 -0.4357 -0.1760  0.0435
32097SOL    HW299569   6.771   3.425   9.763 -0.3824 -2.4118 -2.6113
32098SOL     OW99570   6.232   2.389   1.223  0.5950  0.1178 -0.0820
32098SOL    HW199571   6.183   2.311   1.249 -0.6640  1.4296  1.6903
32098SOL    HW299572   6.320   2.375   1.256  0.7387 -1.0875 -0.9208
32099SOL     OW99573  10.205   4.822   1.625  0.4298 -0.0159 -0.1319
32099SOL    HW199574  10.143   4.859   1.563 -0.6054  0.2649  1.0274
32099SOL    HW299575  10.283   4.877   1.617  0.5572 -0.3869 -1.6224
32100SOL     OW99576  10.088   6.034   1.348 -0.1173 -0.1902  0.1976
32100SOL    HW199577  10.119   5.963   1.405 -1.2072  0.9984  2.4147
32100SOL    HW299578   9.994   6.019   1.341 -0.7236  2.0256  2.3426
32101SOL     OW99579   9.495   4.836   7.131  0.4138  0.2336 -0.4964
32101SOL    HW199580   9.468   4.847   7.222 -1.3191  0.4071 -0.9901
32101SOL    HW299581   9.531   4.747   7.127 -1.3362 -0.5533 -0.0081
32102SOL     OW99582   1.328   8.101   2.289 -0.0281  0.0623 -0.5060
32102SOL    HW199583   1.259   8.164   2.270 -0.4254  0.6314  2.3533
32102SOL    HW299584   1.287   8.016   2.274 -1.5534  0.3757  1.3962
32103SOL     OW99585   8.418   8.101   8.899 -0.1891  0.2978  0.0021
32103SOL    HW199586   8.435   8.049   8.821 -0.5352 -1.1445  0.8519
32103SOL    HW299587   8.464   8.055   8.970 -1.4950  0.4545  0.9924
32104SOL     OW99588   9.620   6.729   6.030  0.1058 -0.2247  0.3340
32104SOL    HW199589   9.706   6.732   6.071 -0.2959  1.1683  1.1454
32104SOL    HW299590   9.620   6.648   5.979  3.0406  1.1803 -2.2106
32105SOL     OW99591   0.847  10.378   1.582 -0.2644 -0.0824  0.1521
32105SOL    HW199592   0.938  10.350   1.588 -0.4940 -1.2988 -1.4173
32105SOL    HW299593   0.820  10.392   1.673  1.0880 -1.0119  0.7190
32106SOL     OW99594   1.845   2.363   7.987 -0.2934  0.2156 -0.2627
32106SOL    HW199595   1.785   2.375   8.061  1.3069  1.3467  0.9151
32106SOL    HW299596   1.925   2.408   8.013  0.7196 -0.3175 -2.2403
32107SOL     OW99597   9.361   7.128   0.714 -0.4827 -0.0740 -0.2970
32107SOL    HW199598   9.330   7.100   0.801  1.3000 -1.0797  0.0830
32107SOL    HW299599   9.431   7.190   0.733  0.7166 -1.1772 -0.9402
32108SOL     OW99600   8.595   5.842   4.464 -0.7361  0.0750 -0.0715
32108SOL    HW199601   8.664   5.783   4.495 -0.9422 -1.1698 -1.8148
32108SOL    HW299602   8.557   5.879   4.544  1.6159  0.4665  0.9589
32109SOL     OW99603   8.753   5.486   5.450 -0.6111 -0.9602 -0.2570
32109SOL    HW199604   8.668   5.446   5.429 -0.3532 -0.7928 -1.7861
32109SOL    HW299605   8.751   5.501   5.544 -1.6857 -2.3224 -0.0396
32110SOL     OW99606  10.098   3.707   1.464  0.3906 -0.5783  0.2870
32110SOL    HW199607  10.004   3.727   1.458  0.8382  1.3182 -2.3677
32110SOL    HW299608  10.108   3.627   1.413  0.2296 -0.7097  0.4608
32111SOL     OW99609   5.864   3.036   5.312  0.0482 -0.4983  0.0969
32111SOL    HW199610   5.943   3.086   5.295  0.0770 -0.7487 -0.5119
32111SOL    HW299611   5.792   3.097   5.292  0.0748 -0.1053  1.1334
32112SOL     OW99612   4.925   9.847   1.866 -0.1155 -0.4921 -0.7575
32112SOL    HW199613   4.867   9.901   1.812 -0.7439 -0.2630  0.1133
32112SOL    HW299614   4.878   9.763   1.874 -0.3326 -0.3195 -0.0847
32113SOL     OW99615   4.689   4.738   7.686 -0.1416  0.3501  0.4893
32113SOL    HW199616   4.599   4.748   7.715 -0.1581  0.9524  0.2439
32113SOL    HW299617   4.683   4.681   7.609 -0.4001  1.0265  0.0030
32114SOL     OW99618   7.782   1.570   0.726  0.4467 -0.1710 -0.0808
32114SOL    HW199619   7.694   1.569   0.764  0.0763  0.9375 -0.8736
32114SOL    HW299620   7.827   1.642   0.770  0.7090 -0.2376 -0.2379
32115SOL     OW99621   1.710   0.138   2.518 -0.2451  0.3197  0.4429
32115SOL    HW199622   1.727   0.231   2.507 -0.9055  0.4803  0.7096
32115SOL    HW299623   1.743   0.118   2.606  1.2398 -0.0363 -0.1722
32116SOL     OW99624   8.554   4.321   4.658 -0.3716 -0.1526 -1.1923
32116SOL    HW199625   8.618   4.327   4.730 -0.7015  0.0321 -0.9122
32116SOL    HW299626   8.557   4.230   4.631 -0.5937 -0.3313 -0.6265
32117SOL     OW99627   9.092   5.952   4.228 -0.3593 -0.5027 -0.2027
32117SOL    HW199628   9.142   5.886   4.181  0.1940 -0.1476 -0.1314
32117SOL    HW299629   9.009   5.910   4.249 -0.1909 -1.0175 -0.5544
32118SOL     OW99630   4.726  10.378  10.520 -0.0502 -0.2323 -0.2641
32118SOL    HW199631   4.807  10.359  10.473  0.1157 -0.6984  0.2050
32118SOL    HW299632   4.723  10.474  10.526  0.8795 -0.2358  0.4307
32119SOL     OW99633   6.933   5.265   5.260  0.0186  0.6257 -0.2455
32119SOL    HW199634   7.017   5.238   5.297  0.6583  1.5596 -0.9650
32119SOL    HW299635   6.900   5.186   5.215  0.9521  0.5081 -0.7361
32120SOL     OW99636   5.637  11.121  10.797  0.8099 -0.0743  0.0804
32120SOL    HW199637   5.587  11.202  10.795 -0.1561 -0.6186  1.0878
32120SOL    HW299638   5.578  11.055  10.760  0.6038 -0.7902  1.5842
32121SOL     OW99639   0.993   8.566   7.944 -0.4553  0.3123  0.4544
32121SOL    HW199640   1.057   8.609   7.887 -0.2683 -0.4953  0.0384
32121SOL    HW299641   1.028   8.478   7.958 -2.6538 -1.0919 -1.8875
32122SOL     OW99642   7.146   2.972   4.906  0.5312  0.0747  0.5547
32122SOL    HW199643   7.191   3.056   4.911 -0.2919  0.5053  0.9961
32122SOL    HW299644   7.108   2.961   4.994 -1.2164  0.3036 -0.1312
32123SOL     OW99645   9.561   5.382   2.791 -0.2523  0.2214 -0.1773
32123SOL    HW199646   9.538   5.407   2.702  0.5736  1.8028  0.0119
32123SOL    HW299647   9.480   5.351   2.829 -1.3454  2.4140 -0.5615
32124SOL     OW99648   8.384   6.893   2.786 -0.1333  0.8576 -0.5927
32124SOL    HW199649   8.413   6.838   2.859 -0.2989  1.8934  0.2693
32124SOL    HW299650   8.297   6.923   2.811  0.2477  2.1105 -0.6865
32125SOL     OW99651  10.586   0.439   3.291 -0.1406 -0.5003  0.1836
32125SOL    HW199652  10.547   0.501   3.352 -1.5714 -0.1004 -1.0705
32125SOL    HW299653  10.645   0.386   3.344  0.1913  1.1296  1.5101
32126SOL     OW99654  10.351   9.324   1.738  0.3569 -0.1074  0.1543
32126SOL    HW199655  10.364   9.258   1.806 -0.5412 -0.3260  0.1271
32126SOL    HW299656  10.256   9.332   1.730  0.4158  1.9662  0.8986
32127SOL     OW99657   2.847   2.995  10.104  0.4328 -0.1112  0.5907
32127SOL    HW199658   2.896   2.997  10.186  1.2405 -0.2663  0.1257
32127SOL    HW299659   2.772   3.052  10.119  2.4177  2.8074  0.2879
32128SOL     OW99660   2.950   3.470   4.436  0.4481 -0.6299 -0.1324
32128SOL    HW199661   3.037   3.500   4.460  0.5862  1.1530 -2.4621
32128SOL    HW299662   2.895   3.496   4.510  1.7304 -1.0666  1.0176
32129SOL     OW99663   1.236   6.453   4.181  0.0858  0.2438 -0.3070
32129SOL    HW199664   1.153   6.493   4.209  0.0362 -1.5879  2.4469
32129SOL    HW299665   1.297   6.471   4.252  0.7863 -2.2690 -0.2100
32130SOL     OW99666   0.719  10.786  10.754  0.0883  0.0578  0.1798
32130SOL    HW199667   0.797  10.840  10.763  0.2361  0.0490 -0.9546
32130SOL    HW299668   0.745  10.700  10.786  0.5711  0.0343 -0.2717
32131SOL     OW99669   5.527   8.572   2.691  0.2630  0.2407  0.1926
32131SOL    HW199670   5.595   8.557   2.625  0.1252 -0.6178  0.2258
32131SOL    HW299671   5.494   8.484   2.711 -0.4287  0.5900  0.6274
32132SOL     OW99672   1.876   4.078   0.033  0.8418  0.2464 -0.0391
32132SOL    HW199673   1.956   4.104   0.078  0.5893 -0.2121  0.6865
32132SOL    HW299674   1.805   4.116   0.085  0.5799  0.7147 -0.7215
32133SOL     OW99675   1.234   5.022   2.837  0.1572  0.7177  0.5489
32133SOL    HW199676   1.289   4.954   2.875  1.5585  1.5553  0.1035
32133SOL    HW299677   1.255   5.101   2.887 -0.7331  1.0362  0.4425
32134SOL     OW99678   5.097   9.797   5.289  0.0518 -0.1056  0.2807
32134SOL    HW199679   5.008   9.765   5.305 -0.6678  1.3763 -0.5278
32134SOL    HW299680   5.141   9.789   5.374 -0.8031 -0.9945  0.6540
32135SOL     OW99681   3.839   4.849   5.682  0.1702 -0.0801  0.1835
32135SOL    HW199682   3.780   4.788   5.726 -0.9393 -0.6700 -1.9779
32135SOL    HW299683   3.860   4.806   5.598  0.1520  2.0403 -0.9831
32136SOL     OW99684   7.746   8.405   6.601 -0.0168 -0.3263 -0.0995
32136SOL    HW199685   7.806   8.459   6.653  1.5402 -3.3517  1.4843
32136SOL    HW299686   7.696   8.468   6.549  3.0387  2.5003  0.0728
32137SOL     OW99687   2.511   0.445   3.857  0.1134  0.1208 -0.4136
32137SOL    HW199688   2.543   0.377   3.916  0.6792 -0.2168 -1.1013
32137SOL    HW299689   2.448   0.400   3.801  0.5975  0.1248 -0.9652
32138SOL     OW99690   2.024   8.031   5.768  0.8233 -0.2587 -0.2703
32138SOL    HW199691   2.002   7.961   5.707 -0.2895  0.2601 -0.4950
32138SOL    HW299692   2.109   8.007   5.803  0.9871 -1.1221 -1.2228
32139SOL     OW99693   3.861   2.578   9.384  0.2269  0.4232  0.4358
32139SOL    HW199694   3.943   2.624   9.402  0.4937  0.5681 -1.0147
32139SOL    HW299695   3.796   2.648   9.379 -0.3923  0.1617  3.4588
32140SOL     OW99696   1.879   1.728   7.231 -0.1315  0.1453  0.5681
32140SOL    HW199697   1.822   1.740   7.155  0.5061 -1.1306 -0.1687
32140SOL    HW299698   1.943   1.799   7.224 -0.8518  0.8220  0.6796
32141SOL     OW99699   3.723   2.575   6.563  0.3990  0.0446 -0.4863
32141SOL    HW199700   3.641   2.540   6.529  0.0180 -1.3466  1.6475
32141SOL    HW299701   3.773   2.498   6.590  0.7542  0.9896  1.7860
32142SOL     OW99702   3.475   8.642   6.057  0.1343 -0.0651  0.2710
32142SOL    HW199703   3.527   8.612   6.132 -0.1766  1.6117  1.2065
32142SOL    HW299704   3.537   8.650   5.985  0.4986 -1.3992  0.4124
32143SOL     OW99705   1.439   7.542   2.843 -0.0689 -0.2733  0.5572
32143SOL    HW199706   1.382   7.556   2.767 -0.1931  0.7521  0.8246
32143SOL    HW299707   1.497   7.618   2.844 -0.0651 -0.2808  1.4838
32144SOL     OW99708   3.812   1.302   7.051  0.2491 -0.1026 -0.7836
32144SOL    HW199709   3.877   1.315   7.120  0.3789 -1.3238 -0.6447
32144SOL    HW299710   3.829   1.372   6.989 -0.0221  1.1614  0.5217
32145SOL     OW99711   6.307  11.003   9.573 -0.6873 -0.3167  0.3838
32145SOL    HW199712   6.323  11.059   9.497 -0.5334 -0.8131  0.0456
32145SOL    HW299713   6.334  11.056   9.648 -1.5872  0.4779  0.1693
32146SOL     OW99714   9.386   5.868  10.013  0.2196 -0.0390  0.1985
32146SOL    HW199715   9.462   5.911   9.973  1.4545 -2.6427 -0.4607
32146SOL    HW299716   9.315   5.884   9.951  0.3887  1.6509  0.3759
32147SOL     OW99717   5.477   9.836   0.443 -0.7634  0.3700  0.0464
32147SOL    HW199718   5.419   9.805   0.512 -1.6586  0.5881 -0.5914
32147SOL    HW299719   5.461   9.931   0.439  1.4453  0.8895  1.5169
32148SOL     OW99720   3.581   4.120   7.196 -0.0049  0.1619 -0.1445
32148SOL    HW199721   3.510   4.125   7.132  0.6459  0.2686 -0.8606
32148SOL    HW299722   3.586   4.027   7.219 -0.8313  0.2465  0.4466
32149SOL     OW99723   5.064   7.851   9.637 -0.2079 -0.3162  0.7105
32149SOL    HW199724   5.016   7.881   9.714 -0.7996 -0.6522  0.4779
32149SOL    HW299725   5.025   7.767   9.615 -2.6139  1.3149 -2.0901
32150SOL     OW99726   8.896   5.180   3.026 -0.2495  0.3337 -0.0850
32150SOL    HW199727   8.908   5.242   2.954 -1.4491  1.8176  0.9372
32150SOL    HW299728   8.982   5.175   3.067  0.2277  0.1523 -1.0835
32151SOL     OW99729   8.696   6.012  10.799  0.4106 -0.2444  0.2135
32151SOL    HW199730   8.737   5.940  10.848  2.1461 -0.7958 -1.8993
32151SOL    HW299731   8.720   6.091  10.848  2.2036 -0.7572  0.2383
32152SOL     OW99732   1.037  11.071   1.478 -0.1792 -0.2163 -0.0608
32152SOL    HW199733   0.998  10.984   1.474 -1.5954  0.3554  0.6366
32152SOL    HW299734   1.027  11.097   1.570  2.5473 -0.3247  0.3331
32153SOL     OW99735   8.840   5.857  11.016 -0.1058  0.0395  0.0633
32153SOL    HW199736   8.861   5.766  10.995  1.6955  0.0825  1.4010
32153SOL    HW299737   8.759   5.853  11.067  0.7689 -1.0155  1.4472
32154SOL     OW99738   9.781   9.464  10.974  0.1809  0.3883 -0.0441
32154SOL    HW199739   9.728   9.537  11.007 -3.7511 -2.0830 -0.2717
32154SOL    HW299740   9.781   9.475  10.879 -1.8506 -0.6480 -0.2186
32155SOL     OW99741   2.705   7.638  10.839 -0.3454 -0.3062 -0.2173
32155SOL    HW199742   2.801   7.637  10.844 -0.3209 -1.8543 -0.5304
32155SOL    HW299743   2.676   7.638  10.930 -0.0911  1.6263 -0.0861
32156SOL     OW99744   1.450   5.021   7.959  0.4844  0.4982  0.2764
32156SOL    HW199745   1.516   5.049   7.895  1.1933 -1.2281  0.1953
32156SOL    HW299746   1.481   4.936   7.989 -2.3237 -0.9854 -0.6990
32157SOL     OW99747   8.579   8.172   3.577  0.4008  0.0505  0.2665
32157SOL    HW199748   8.616   8.105   3.519  0.4782 -1.6054  2.1146
32157SOL    HW299749   8.486   8.148   3.585  0.1425  0.9228 -0.0171
32158SOL     OW99750   5.862   4.809   8.910 -0.4269 -0.2311 -0.3348
32158SOL    HW199751   5.844   4.715   8.912  1.0201 -0.5172  0.0695
32158SOL    HW299752   5.945   4.819   8.956 -1.9225  1.5839  2.2385
32159SOL     OW99753   2.139  11.358   0.452 -0.5094 -0.0746 -0.2748
32159SOL    HW199754   2.141  11.418   0.527  2.3198 -0.5913  0.1419
32159SOL    HW299755   2.115  11.273   0.490  1.8629 -0.5503  0.2984
32160SOL     OW99756  10.467   7.542   7.611 -0.7396 -0.0836 -0.3776
32160SOL    HW199757  10.381   7.515   7.580 -0.0983 -2.3083 -0.3783
32160SOL    HW299758  10.528   7.499   7.551  0.4021  1.2211 -0.2031
32161SOL     OW99759   0.615   2.157   5.001  0.4547  0.1592  0.5281
32161SOL    HW199760   0.532   2.133   4.960  0.1186 -1.3426  1.9804
32161SOL    HW299761   0.680   2.103   4.955  0.4201  0.2504  0.3711
32162SOL     OW99762   5.834   0.737   5.256 -0.5439  0.3086  0.2400
32162SOL    HW199763   5.881   0.815   5.227 -0.8148  0.8378  1.1919
32162SOL    HW299764   5.756   0.734   5.201 -0.8406  1.0601  0.6119
32163SOL     OW99765   9.633   4.268  11.199 -0.2452  0.3853  0.5233
32163SOL    HW199766   9.697   4.225  11.257  0.4867  0.6407 -0.0766
32163SOL    HW299767   9.604   4.199  11.140 -0.3225  0.3295  0.6268
32164SOL     OW99768   1.108   9.434   4.622 -0.0050  0.4928 -0.0999
32164SOL    HW199769   1.018   9.407   4.638 -0.6176  2.0182 -0.7708
32164SOL    HW299770   1.125   9.500   4.689  0.7356 -0.0138  0.2216
32165SOL     OW99771  10.409  10.240   2.893  0.1688 -0.4175 -0.1042
32165SOL    HW199772  10.435  10.177   2.826 -0.4479 -1.0302  0.2185
32165SOL    HW299773  10.313  10.236   2.894  0.1771 -1.2498  1.5702
32166SOL     OW99774   7.249   3.849   8.747  0.4470  0.3444  0.1139
32166SOL    HW199775   7.197   3.832   8.826 -0.8843  0.6076 -0.6804
32166SOL    HW299776   7.321   3.905   8.777  0.9916 -1.0246  1.4636
32167SOL     OW99777   4.424   6.459   9.229  0.0740  0.7323 -0.5088
32167SOL    HW199778   4.400   6.519   9.300  1.6492  1.5125 -0.5780
32167SOL    HW299779   4.401   6.372   9.263 -2.2717  1.3164 -0.4190
32168SOL     OW99780   9.737   2.936   9.834  0.0063  0.0696 -0.2448
32168SOL    HW199781   9.672   2.949   9.903  0.9121  1.0572  0.4621
32168SOL    HW299782   9.750   2.841   9.831 -2.5144 -0.3141 -1.4485
32169SOL     OW99783   4.251   4.613   9.271 -0.2407 -0.3897  0.1586
32169SOL    HW199784   4.233   4.520   9.284  0.3915 -0.2353  2.5982
32169SOL    HW299785   4.344   4.617   9.249 -0.3879 -0.3466 -0.4888
32170SOL     OW99786   4.742   1.188   1.638  0.2517 -0.0332  0.4861
32170SOL    HW199787   4.824   1.220   1.599  1.6266 -2.6550  0.9952
32170SOL    HW299788   4.741   1.225   1.726  0.4407  0.6787  0.1997
32171SOL     OW99789   2.452  10.681   7.084  0.1428  0.1621  0.4219
32171SOL    HW199790   2.463  10.685   7.179  1.5128  1.3499  0.2437
32171SOL    HW299791   2.524  10.628   7.053 -0.9692 -1.2240  0.1081
32172SOL     OW99792   2.340   0.012   1.628  0.2227 -0.3428  0.0262
32172SOL    HW199793   2.348  -0.068   1.680  0.7006 -0.3144 -0.0026
32172SOL    HW299794   2.254   0.005   1.586  1.0825 -1.8223 -1.6034
32173SOL     OW99795   4.872   1.653   5.349 -0.8790 -0.7181  0.2474
32173SOL    HW199796   4.932   1.718   5.388 -1.0766 -0.4772  0.1552
32173SOL    HW299797   4.919   1.570   5.356 -0.8001 -0.6344  0.7482
32174SOL     OW99798   3.265   9.312   1.332  0.1830  0.2987 -0.1320
32174SOL    HW199799   3.210   9.389   1.346  0.5033  0.5752 -0.3876
32174SOL    HW299800   3.342   9.345   1.285  1.1489  0.1299  1.2862
32175SOL     OW99801   2.817   6.474   1.583 -0.2905  0.2815  0.1368
32175SOL    HW199802   2.768   6.464   1.502  0.0630 -0.7651  0.0325
32175SOL    HW299803   2.764   6.429   1.649  0.7814 -1.4484 -0.1026
32176SOL     OW99804   5.369   3.671   2.279  0.8730  0.6133 -0.2959
32176SOL    HW199805   5.437   3.722   2.324  0.3999  1.1195 -0.1465
32176SOL    HW299806   5.315   3.737   2.234  0.1092  0.2611  0.0900
32177SOL     OW99807   7.558   0.542  10.028 -0.1456 -0.5961 -0.5572
32177SOL    HW199808   7.512   0.507   9.952 -1.4199 -3.3663  1.3271
32177SOL    HW299809   7.505   0.616  10.056  1.1442  1.4599 -3.0826
32178SOL     OW99810   1.623   1.836   9.630  0.9275  0.2831 -0.2308
32178SOL    HW199811   1.538   1.875   9.647  0.9337  0.2137 -0.0315
32178SOL    HW299812   1.628   1.762   9.690  0.0329 -1.3474 -2.0701
32179SOL     OW99813   3.796   3.539   8.754 -0.3820 -0.0128  0.6902
32179SOL    HW199814   3.868   3.597   8.778 -0.3239 -0.4706  1.6378
32179SOL    HW299815   3.731   3.551   8.823 -1.2713  0.4707 -0.2098
32180SOL     OW99816   9.810   7.195   1.683 -0.2464  0.1067  0.1864
32180SOL    HW199817   9.894   7.170   1.722 -0.4446  0.3455  0.7805
32180SOL    HW299818   9.749   7.128   1.714 -0.7606  1.2149  1.7077
32181SOL     OW99819   0.631   7.482   4.409 -0.0579 -0.7776 -0.6205
32181SOL    HW199820   0.649   7.557   4.465  1.5825 -1.5671 -0.0452
32181SOL    HW299821   0.580   7.423   4.464 -0.7848 -0.3981 -0.8656
32182SOL     OW99822   4.384  10.996   9.539 -0.1751  0.3138  0.2683
32182SOL    HW199823   4.448  10.954   9.482  1.6696  0.2932  2.2173
32182SOL    HW299824   4.396  11.090   9.524  1.2557  0.3713  1.4603
32183SOL     OW99825   5.815  10.116   3.880 -0.5931  0.7009  0.1537
32183SOL    HW199826   5.774  10.103   3.966 -0.5814 -1.4810 -0.1159
32183SOL    HW299827   5.905  10.086   3.892 -0.3127  1.2953 -0.3946
32184SOL     OW99828   3.419   7.728   0.211 -0.7937 -0.0227  0.0545
32184SOL    HW199829   3.473   7.649   0.223 -0.0259  0.4728 -0.0355
32184SOL    HW299830   3.429   7.750   0.118 -0.3124  0.6597  0.2616
32185SOL     OW99831   9.620   8.437   8.097 -0.5082 -0.0925  0.0982
32185SOL    HW199832   9.650   8.504   8.034 -1.9897  1.0105  0.5020
32185SOL    HW299833   9.700   8.396   8.128  0.3464  0.2526 -1.5259
32186SOL     OW99834   9.802   1.225   0.404 -0.1605 -0.3362  0.3892
32186SOL    HW199835   9.817   1.318   0.389  0.0786 -0.2417  1.1580
32186SOL    HW299836   9.777   1.220   0.496  0.4893 -1.1090  0.5343
32187SOL     OW99837   9.483   4.145   7.959  0.1538 -0.3728 -0.4934
32187SOL    HW199838   9.457   4.073   8.016 -0.0532 -1.7553 -2.2703
32187SOL    HW299839   9.554   4.110   7.906 -1.8206 -0.2922 -3.4069
32188SOL     OW99840   0.682   7.552   5.653 -0.5690  0.2604  0.1119
32188SOL    HW199841   0.658   7.610   5.581  2.0356  1.2073 -0.0861
32188SOL    HW299842   0.611   7.487   5.655 -0.6578  0.0178 -3.4816
32189SOL     OW99843   1.998   0.076  10.001  0.1757 -0.7981 -0.0393
32189SOL    HW199844   2.045   0.010  10.052  0.0884 -0.1292  0.9570
32189SOL    HW299845   2.064   0.143   9.981 -0.2312 -0.0045  1.1055
32190SOL     OW99846   8.504   2.380  10.008 -0.2937 -0.0167 -0.7821
32190SOL    HW199847   8.551   2.358   9.928  1.0780 -0.8253  0.2022
32190SOL    HW299848   8.568   2.430  10.060 -0.5939 -0.9014  0.4755
32191SOL     OW99849  10.796   1.570   5.347  0.5982  0.3370  0.3159
32191SOL    HW199850  10.739   1.493   5.359  0.1958  0.3291 -1.4121
32191SOL    HW299851  10.758   1.637   5.404  0.9516 -0.7140  1.8544
32192SOL     OW99852   6.148  11.039   2.017  0.9020  0.8960 -0.4999
32192SOL    HW199853   6.127  10.947   2.031  0.1175  1.0685 -0.5009
32192SOL    HW299854   6.158  11.047   1.923 -2.0049  1.3855 -0.8656
32193SOL     OW99855   9.428   9.646   8.484 -0.0771  0.3495 -0.1754
32193SOL    HW199856   9.346   9.617   8.525  0.3389  0.8007  1.0431
32193SOL    HW299857   9.442   9.584   8.412  0.0383 -1.6340  1.4296
32194SOL     OW99858   9.745   1.355   4.153  0.1643 -0.2391 -0.3197
32194SOL    HW199859   9.743   1.265   4.183 -0.1886 -0.0574  0.2139
32194SOL    HW299860   9.656   1.387   4.164  0.2623  0.1449 -0.5964
32195SOL     OW99861   4.963  10.210   4.305  0.2324  0.2897  0.0928
32195SOL    HW199862   4.921  10.211   4.219 -0.3028 -1.3108  0.3152
32195SOL    HW299863   4.928  10.288   4.349  0.2681  0.9487 -1.0000
32196SOL     OW99864   5.806   7.709   9.927  0.0517  0.4160 -0.1743
32196SOL    HW199865   5.727   7.709   9.874 -0.6021 -1.3152  0.7498
32196SOL    HW299866   5.781   7.757  10.007  0.5166  1.4731 -0.6351
32197SOL     OW99867   4.555  10.535   6.447  0.1565 -0.1794  0.5743
32197SOL    HW199868   4.477  10.583   6.420  0.5325  0.3955  0.4915
32197SOL    HW299869   4.525  10.478   6.518 -0.5668 -0.7570 -0.1728
32198SOL     OW99870   4.210   3.087  10.911  0.5322  0.0050 -0.0186
32198SOL    HW199871   4.201   3.179  10.883 -0.2375 -0.4750 -1.4958
32198SOL    HW299872   4.126   3.067  10.952  0.4954 -0.1858 -0.1868
32199SOL     OW99873  10.042   4.212   8.446  0.3593  0.6179 -0.7001
32199SOL    HW199874  10.105   4.275   8.480  0.3041  1.3416 -1.8740
32199SOL    HW299875  10.089   4.129   8.444 -0.1175  0.1279  2.5989
32200SOL     OW99876   1.705   4.530   1.700 -0.1273  0.7565 -0.1894
32200SOL    HW199877   1.721   4.624   1.709 -1.5650  0.9650  0.5819
32200SOL    HW299878   1.706   4.497   1.790 -3.2029  0.7229 -0.0534
32201SOL     OW99879   9.634   2.066   5.829  0.9574 -0.4050  0.2636
32201SOL    HW199880   9.587   2.149   5.832  2.3186  0.4030  0.2561
32201SOL    HW299881   9.580   2.005   5.879 -0.2514  0.3797 -0.0552
32202SOL     OW99882   3.036   1.239   9.005  0.5178 -0.0579  0.4807
32202SOL    HW199883   3.060   1.303   8.939 -1.6352 -0.9140 -1.2615
32202SOL    HW299884   2.961   1.278   9.049  0.4607 -0.5249  0.7988
32203SOL     OW99885   4.660   3.492   7.964  0.0672 -0.1538  0.0887
32203SOL    HW199886   4.569   3.518   7.948  0.0912  0.5521  1.0100
32203SOL    HW299887   4.686   3.544   8.040  1.1956 -0.4681 -0.0768
32204SOL     OW99888   0.518   2.062  10.896 -0.0181 -0.0504 -0.7256
32204SOL    HW199889   0.537   2.116  10.819 -0.4198 -0.7589 -1.3264
32204SOL    HW299890   0.423   2.065  10.904  0.0778  0.8227  0.3456
32205SOL     OW99891   3.161   8.368   6.216 -0.3198 -0.1929  0.0441
32205SOL    HW199892   3.102   8.359   6.291 -0.2518 -0.4072  0.0718
32205SOL    HW299893   3.249   8.365   6.253 -0.2388  3.0212  0.3754
32206SOL     OW99894   7.139   4.209   9.885 -0.4131 -0.1684 -0.0444
32206SOL    HW199895   7.075   4.193   9.815 -1.5973  0.7778  0.7560
32206SOL    HW299896   7.146   4.304   9.889  0.0047 -0.2223  0.7807
32207SOL     OW99897   3.821   5.117   8.262 -0.0923  0.3767  0.6883
32207SOL    HW199898   3.891   5.165   8.218 -0.0581  1.4750  1.8774
32207SOL    HW299899   3.754   5.183   8.280 -0.8081 -0.3731  0.8438
32208SOL     OW99900   6.031   3.443   5.186 -0.1791  0.0471 -0.0225
32208SOL    HW199901   6.023   3.465   5.093 -1.0582 -0.4707 -0.0797
32208SOL    HW299902   6.021   3.348   5.190 -0.2612  0.0743  0.6116
32209SOL     OW99903   1.882  10.387   7.467  0.6845 -0.2375  0.3557
32209SOL    HW199904   1.790  10.363   7.476  0.5696  0.3548  0.7679
32209SOL    HW299905   1.883  10.482   7.471  1.2147 -0.1932 -0.6502
32210SOL     OW99906   7.816   4.587   1.322  0.0268  0.1677 -0.4864
32210SOL    HW199907   7.849   4.671   1.352 -0.2087  0.0961 -0.0083
32210SOL    HW299908   7.856   4.574   1.237  1.9323 -0.3196  0.4310
32211SOL     OW99909   1.853   8.908   2.303  0.1098  0.2748  0.3664
32211SOL    HW199910   1.801   8.964   2.246  0.8500  0.9033  0.2820
32211SOL    HW299911   1.910   8.969   2.350 -0.5376 -0.2321  1.8291
32212SOL     OW99912   7.115   2.421   4.284  0.1626  0.0232 -0.2295
32212SOL    HW199913   7.198   2.434   4.237  1.3891 -3.0129  0.8816
32212SOL    HW299914   7.138   2.428   4.376 -0.8736 -0.6757  0.0927
32213SOL     OW99915  11.001   8.381   3.194 -0.2541 -0.5899  0.2875
32213SOL    HW199916  11.050   8.376   3.112 -1.2101  1.4412 -0.4712
32213SOL    HW299917  10.909   8.386   3.166 -0.7979 -2.3986  1.6062
32214SOL     OW99918   2.116   1.659   6.465  0.0139  0.2200 -0.2976
32214SOL    HW199919   2.100   1.748   6.435 -2.3950 -0.2136 -0.4761
32214SOL    HW299920   2.180   1.623   6.403  1.2369  1.8688 -0.0484
32215SOL     OW99921   5.974  10.148   5.245 -0.5051 -0.2069 -0.1491
32215SOL    HW199922   5.943  10.073   5.296  0.4114 -0.4780  0.0252
32215SOL    HW299923   5.960  10.122   5.154 -0.7593 -0.3384 -0.0733
32216SOL     OW99924  10.804   8.411   1.800 -0.2856 -0.4167 -0.0747
32216SOL    HW199925  10.829   8.436   1.712 -0.5845 -1.5967 -0.5213
32216SOL    HW299926  10.733   8.470   1.823  2.0795  2.2909  0.8145
32217SOL     OW99927   3.902   5.401   2.684  0.1435  0.7344 -0.1652
32217SOL    HW199928   3.872   5.383   2.595 -0.6118  0.1654  0.1934
32217SOL    HW299929   3.918   5.314   2.722 -0.8075  0.8971  0.6664
32218SOL     OW99930   4.520   6.750   0.225  0.1830 -0.4102  0.2493
32218SOL    HW199931   4.584   6.802   0.176 -1.3763  0.2171 -1.2575
32218SOL    HW299932   4.491   6.808   0.295  0.5837 -0.3524  0.3691
32219SOL     OW99933   1.300   1.855   8.485  0.2451  0.1866  0.5422
32219SOL    HW199934   1.287   1.897   8.570 -1.0159  2.1026 -0.5193
32219SOL    HW299935   1.236   1.897   8.427  1.3776 -0.7033 -1.4786
32220SOL     OW99936  10.320   7.445   5.824  0.2683  0.6455 -0.5682
32220SOL    HW199937  10.237   7.408   5.853 -0.0357  1.9575  0.3137
32220SOL    HW299938  10.298   7.533   5.793  1.2068  0.7123 -1.0735
32221SOL     OW99939   6.565   3.539   4.518 -0.1468  0.1261 -0.6882
32221SOL    HW199940   6.658   3.530   4.497  0.1317  0.8024  0.1952
32221SOL    HW299941   6.533   3.605   4.457  0.3673  1.1573  0.1239
32222SOL     OW99942   2.861   1.815  10.207 -0.0268 -0.2797 -0.5310
32222SOL    HW199943   2.804   1.891  10.197 -0.1393 -0.3418 -0.3692
32222SOL    HW299944   2.806   1.741  10.184  0.0320 -0.3277 -0.5159
32223SOL     OW99945   6.526   4.228   0.789 -0.4647  0.9358 -0.2401
32223SOL    HW199946   6.528   4.265   0.877  1.2658  0.1077  0.1224
32223SOL    HW299947   6.618   4.231   0.761 -0.8248  0.1345 -1.5661
32224SOL     OW99948   7.869   7.161   5.873  0.0733 -0.0880  0.3184
32224SOL    HW199949   7.900   7.074   5.850  3.7932  1.3426 -0.8291
32224SOL    HW299950   7.802   7.146   5.940 -2.9799 -3.9526 -3.0448
32225SOL     OW99951   0.684  10.634   6.469 -0.1114  0.8204 -0.6699
32225SOL    HW199952   0.613  10.655   6.408 -0.8859  0.2445  0.0174
32225SOL    HW299953   0.642  10.586   6.540  0.8833  0.9209  0.0127
32226SOL     OW99954   2.644   4.900   5.916 -0.3430  0.4884  0.4878
32226SOL    HW199955   2.595   4.828   5.876 -0.8188  1.2713 -0.3905
32226SOL    HW299956   2.703   4.930   5.848  0.5491  0.3101  1.1687
32227SOL     OW99957  11.023   9.899  10.503 -0.0885 -0.4374  0.4853
32227SOL    HW199958  11.007   9.882  10.596  0.6065  1.1024  0.9177
32227SOL    HW299959  10.937   9.889  10.462 -0.8635  1.0550  1.6711
32228SOL     OW99960   5.445   7.229   4.499 -0.8962 -0.0420 -0.0886
32228SOL    HW199961   5.498   7.150   4.492  0.6921  0.6889  2.4368
32228SOL    HW299962   5.493   7.294   4.448  0.2423  0.3830  1.4571
32229SOL     OW99963   8.908   1.561  10.865  0.5338  0.4742 -0.2167
32229SOL    HW199964   8.984   1.612  10.892  0.9331  1.0698 -2.3036
32229SOL    HW299965   8.877   1.520  10.946  0.5674  3.4942  1.5168
32230SOL     OW99966   0.153   1.097   6.441  0.3081 -0.5584 -0.2443
32230SOL    HW199967   0.082   1.149   6.404  0.0880 -0.5930  0.1270
32230SOL    HW299968   0.137   1.097   6.536  1.1578 -0.0306 -0.0854
32231SOL     OW99969   9.356   2.952  11.363 -0.1093 -0.3948  0.3788
32231SOL    HW199970   9.340   2.953  11.268 -0.4695 -2.1316  0.3875
32231SOL    HW299971   9.273   2.976  11.402 -1.2494 -3.6252  0.2821
32232SOL     OW99972   7.656   6.823   9.485 -0.2433  0.2598 -0.7856
32232SOL    HW199973   7.632   6.865   9.403  0.9172  2.6468 -0.0113
32232SOL    HW299974   7.604   6.870   9.551 -0.1859 -0.7237 -0.0244
32233SOL     OW99975   4.039   3.278   7.139 -0.3888 -0.2810  0.2913
32233SOL    HW199976   3.960   3.238   7.102  0.1231 -1.0726  0.0508
32233SOL    HW299977   4.010   3.365   7.167 -1.8415 -1.2518  1.9857
32234SOL     OW99978   2.583   0.042   8.331 -0.3270  0.8563 -0.6874
32234SOL    HW199979   2.578   0.135   8.312  0.0939  1.0429  0.0797
32234SOL    HW299980   2.542   0.032   8.417  0.2190  0.4424 -0.4655
32235SOL     OW99981   5.133   9.058   8.230 -0.0194  0.4070 -0.5318
32235SOL    HW199982   5.216   9.020   8.258 -0.7085  0.8503  2.3890
32235SOL    HW299983   5.069   9.027   8.293 -1.3780  3.0530 -0.4381
32236SOL     OW99984  11.236   9.611   6.772  0.6602 -0.5499  0.3026
32236SOL    HW199985  11.301   9.680   6.762 -1.3012  1.7462  1.9613
32236SOL    HW299986  11.258   9.569   6.855  0.0998  0.2125  0.8531
32237SOL     OW99987   7.045   0.852   0.806 -0.4067  0.1008 -0.0787
32237SOL    HW199988   7.062   0.881   0.716 -0.6016 -1.4958 -0.6640
32237SOL    HW299989   6.994   0.772   0.796  1.8225 -1.6444  1.3443
32238SOL     OW99990  10.944  11.277   5.120  0.3318  0.5560 -0.1963
32238SOL    HW199991  10.990  11.267   5.037  0.3099  0.1447 -0.1638
32238SOL    HW299992  10.853  11.294   5.095 -0.1411 -1.7593 -0.2926
32239SOL     OW99993   2.929   5.293   3.303 -0.6977  0.5409 -0.1119
32239SOL    HW199994   2.923   5.228   3.234  0.2619  0.1856  0.1259
32239SOL    HW299995   3.012   5.338   3.287 -0.0789 -0.0585  1.2354
32240SOL     OW99996   4.772   2.980   7.407 -0.4660  0.4636 -0.4896
32240SOL    HW199997   4.770   3.075   7.406 -2.0638  0.5519  1.8552
32240SOL    HW299998   4.843   2.957   7.466 -0.4374  0.2252 -0.6124
32241SOL     OW99999   0.994   8.809   5.210  0.3870 -0.1427  0.1074
32241SOL    HW1    0   1.000   8.780   5.119  0.5926 -0.5772  0.2607
32241SOL    HW2    1   0.903   8.795   5.234  0.3364 -0.0419 -0.0262
32242SOL     OW    2   6.451   8.250   7.729 -0.0071  0.1951 -0.4647
32242SOL    HW1    3   6.442   8.166   7.774 -1.3346  1.1916  1.2862
32242SOL    HW2    4   6.496   8.230   7.647  1.8208 -1.8627  0.9386
32243SOL     OW    5   2.922   9.227   2.069 -0.3168  0.4408  0.1398
32243SOL    HW1    6   2.871   9.307   2.057  0.4453  0.7782 -1.0692
32243SOL    HW2    7   2.858   9.156   2.064 -0.7471  0.8781 -0.8320
32244SOL     OW    8   3.721  10.859   3.144  0.2554 -0.2820  0.2801
32244SOL    HW1    9   3.749  10.948   3.166  0.2003 -0.5313  1.4527
32244SOL    HW2   10   3.800  10.817   3.110  0.2683  0.2219 -0.3254
32245SOL     OW   11  10.063   9.107   2.071 -0.1155 -0.0448  0.9283
32245SOL    HW1   12  10.155   9.127   2.085  0.2616 -1.9159  1.3810
32245SOL    HW2   13  10.039   9.049   2.143 -0.7544 -2.1508 -0.8632
32246SOL     OW   14   1.565   9.434   9.538 -0.2865  0.5231 -0.9161
32246SOL    HW1   15   1.647   9.385   9.542 -0.4690  0.2492 -0.4015
32246SOL    HW2   16   1.587   9.521   9.573 -0.4049  0.1747  0.0533
32247SOL     OW   17   6.007   6.087   6.716 -0.2483  0.2153  0.0493
32247SOL    HW1   18   5.982   6.091   6.808 -1.9145 -1.1747 -0.2991
32247SOL    HW2   19   5.925   6.094   6.667  0.5383  0.3923 -1.3177
32248SOL     OW   20  10.159   3.302   2.870  0.0517  0.1065  0.1539
32248SOL    HW1   21  10.130   3.324   2.781  1.8605 -0.7191 -0.6847
32248SOL    HW2   22  10.079   3.280   2.916 -0.7822 -1.2862 -1.8120
32249SOL     OW   23   0.274   0.299   9.085 -0.2199  0.2567 -0.1722
32249SOL    HW1   24   0.342   0.234   9.103 -0.9564 -1.0028 -1.7406
32249SOL    HW2   25   0.322   0.374   9.049  0.5858  0.4078  1.1755
32250SOL     OW   26   5.245  10.527   1.109 -0.6138 -0.6880 -0.1690
32250SOL    HW1   27   5.200  10.572   1.038  0.0968  0.5318  0.1167
32250SOL    HW2   28   5.338  10.535   1.088 -0.3391  0.4905  1.3228
32251SOL     OW   29  11.172   5.049  11.312 -0.2302 -0.6845  0.0046
32251SOL    HW1   30  11.158   5.143  11.309  0.8038 -0.5477 -1.0837
32251SOL    HW2   31  11.133   5.022  11.396  0.3844  0.8488  0.8277
32252SOL     OW   32   1.175   3.432   8.679 -0.0870 -0.1674  0.3693
32252SOL    HW1   33   1.220   3.516   8.681  2.9190 -1.5849 -1.2794
32252SOL    HW2   34   1.190   3.395   8.766 -1.0844  0.7834  0.9699
32253SOL     OW   35   1.584   6.239   3.887 -0.5685 -0.5050  0.1279
32253SOL    HW1   36   1.599   6.293   3.964 -1.0498 -2.6728  1.8267
32253SOL    HW2   37   1.672   6.222   3.852 -0.4683  2.8282 -1.6364
32254SOL     OW   38   7.032  10.420   5.087  0.3796  0.1010 -0.4053
32254SOL    HW1   39   7.077  10.335   5.088 -0.6886 -0.5181 -1.4701
32254SOL    HW2   40   7.034  10.446   4.995 -1.6954 -0.1324 -0.5690
32255SOL     OW   41   6.222   5.268   8.142  0.2755 -0.2892  0.0005
32255SOL    HW1   42   6.289   5.244   8.207 -0.6947 -0.6867  0.8892
32255SOL    HW2   43   6.144   5.286   8.195  0.0573  1.5583 -0.9093
32256SOL     OW   44   9.860   8.142  10.188 -0.2814  0.0793  0.1508
32256SOL    HW1   45   9.849   8.226  10.144 -2.9648  0.1888  0.8517
32256SOL    HW2   46   9.927   8.158  10.255 -0.3925  1.5053 -0.0534
32257SOL     OW   47   2.253   8.012  10.951  0.4898 -0.4507 -0.1023
32257SOL    HW1   48   2.193   8.038  11.021 -0.3331  0.1019 -0.9746
32257SOL    HW2   49   2.295   8.094  10.924  0.4345 -0.5761 -0.5741
32258SOL     OW   50   1.113   1.545   1.394 -0.2885  0.0210 -0.1519
32258SOL    HW1   51   1.147   1.585   1.474 -0.6259  2.1718 -1.0296
32258SOL    HW2   52   1.189   1.541   1.335 -0.0118 -1.6684  0.2712
32259SOL     OW   53   5.627  11.075   2.851 -0.0262  0.3047  0.4909
32259SOL    HW1   54   5.567  11.001   2.862  0.8379 -0.5086 -0.0972
32259SOL    HW2   55   5.686  11.047   2.781  0.5898  1.3806  0.5674
32260SOL     OW   56   0.162   3.260   3.001  0.2307 -0.3826 -0.2601
32260SOL    HW1   57   0.187   3.220   2.918  0.7143 -0.2339 -0.1883
32260SOL    HW2   58   0.073   3.229   3.016 -0.6884  1.2695 -1.8734
32261SOL     OW   59  11.220   4.307   4.245 -0.0668 -0.2278  0.5261
32261SOL    HW1   60  11.178   4.300   4.159  0.6485  0.9998  0.0465
32261SOL    HW2   61  11.313   4.316   4.224  0.1157  0.0380  1.4395
32262SOL     OW   62   3.039   7.473   4.935  0.6077  0.5055  0.4618
32262SOL    HW1   63   3.007   7.424   5.010  1.3509  0.4269  0.7382
32262SOL    HW2   64   3.080   7.407   4.879 -1.8131  0.2134 -1.0905
32263SOL     OW   65   7.612   6.511   4.551 -0.0031  0.1744  0.8834
32263SOL    HW1   66   7.689   6.469   4.514 -1.8311 -2.0252 -0.6783
32263SOL    HW2   67   7.587   6.576   4.485 -0.6119 -0.5435  0.3846
32264SOL     OW   68   1.102   1.507   0.103 -0.0565 -0.0085 -0.4798
32264SOL    HW1   69   1.064   1.450   0.036  1.2344 -0.9409 -0.4356
32264SOL    HW2   70   1.196   1.505   0.087  0.1457  0.9255  0.4559
32265SOL     OW   71   2.687   9.397   1.851 -0.2928 -0.4754  0.3524
32265SOL    HW1   72   2.703   9.304   1.866  0.1401 -0.7660 -1.6414
32265SOL    HW2   73   2.634   9.400   1.772 -1.9212  0.9280  1.4249
32266SOL     OW   74   3.534   7.113   0.807  0.2661  0.0658  0.3742
32266SOL    HW1   75   3.517   7.123   0.901 -0.9861  0.8140  0.0936
32266SOL    HW2   76   3.448   7.125   0.766  0.6804 -0.9540 -0.8256
32267SOL     OW   77   3.763   5.625   1.183 -0.2160  0.2157 -0.3810
32267SOL    HW1   78   3.769   5.680   1.106 -1.1426 -1.2949 -1.6028
32267SOL    HW2   79   3.783   5.537   1.152 -0.5855 -0.4367  1.0934
32268SOL     OW   80   6.965   4.428  10.596 -0.0277 -0.3728 -0.7261
32268SOL    HW1   81   6.924   4.356  10.644 -1.7165  0.9340 -0.1072
32268SOL    HW2   82   7.056   4.427  10.625 -0.3871 -1.2821  0.4496
32269SOL     OW   83   5.945   7.799   1.623  0.1292  0.6471 -0.0521
32269SOL    HW1   84   6.015   7.775   1.563  2.7270  1.9387  2.1924
32269SOL    HW2   85   5.942   7.895   1.619 -0.6573  0.6681  0.7415
32270SOL     OW   86   4.396   8.249   0.083 -0.2706 -0.4637  0.5593
32270SOL    HW1   87   4.473   8.212   0.039  0.1056  0.2535  0.5889
32270SOL    HW2   88   4.427   8.333   0.117 -1.2517  0.1527 -0.0340
32271SOL     OW   89   3.912   6.523  10.092 -0.2904 -0.7285 -0.4294
32271SOL    HW1   90   3.870   6.484  10.169  0.7986 -0.4203  0.3403
32271SOL    HW2   91   3.845   6.581  10.055 -0.5445 -0.2352  0.7704
32272SOL     OW   92   0.301   2.122   6.883  0.4982 -0.1115  0.0174
32272SOL    HW1   93   0.345   2.204   6.906 -1.6334  1.3069 -0.5806
32272SOL    HW2   94   0.285   2.130   6.789 -0.9860 -0.5392  0.2118
32273SOL     OW   95   5.491   3.877   5.887 -0.3318 -0.0033  0.1374
32273SOL    HW1   96   5.532   3.922   5.960 -0.7598  0.5370  0.0487
32273SOL    HW2   97   5.398   3.874   5.909 -0.4037 -0.2334 -0.1806
32274SOL     OW   98   4.557   0.452   0.062  0.1145 -0.9177 -0.3482
32274SOL    HW1   99   4.481   0.415   0.107 -0.2160 -0.5652 -0.6140
32274SOL    HW2  100   4.561   0.407  -0.022  0.2618 -1.0090 -0.2933
32275SOL     OW  101   8.664   5.640   5.684  0.2586  0.6423 -0.2213
32275SOL    HW1  102   8.710   5.633   5.768 -0.4540  1.5926  0.2727
32275SOL    HW2  103   8.581   5.593   5.698 -0.4830  1.9988  0.0957
32276SOL     OW  104   6.450   8.269   9.571  0.8782 -0.4655  0.4134
32276SOL    HW1  105   6.467   8.361   9.554 -4.1159  0.4800 -1.3336
32276SOL    HW2  106   6.496   8.222   9.502 -0.0317  1.2160 -1.4226
32277SOL     OW  107   0.754   7.721   2.875 -0.1383  0.5518 -0.2299
32277SOL    HW1  108   0.767   7.671   2.955 -0.5719 -0.1033 -0.5554
32277SOL    HW2  109   0.764   7.813   2.901  0.6321  0.2997  0.3832
32278SOL     OW  110   1.967   4.683  10.812 -0.0037 -0.5854 -0.1597
32278SOL    HW1  111   1.920   4.686  10.895  0.4510 -0.0042  0.0849
32278SOL    HW2  112   2.059   4.700  10.836  0.1971 -0.8316 -0.7295
32279SOL     OW  113   0.564   2.373   2.118  0.3913 -0.2257  0.2780
32279SOL    HW1  114   0.544   2.378   2.025 -1.0925  1.0805  0.6249
32279SOL    HW2  115   0.495   2.319   2.156 -0.9118  1.8163  1.0314
32280SOL     OW  116   0.105   6.028   8.408  0.3176 -0.1083 -0.4629
32280SOL    HW1  117   0.069   6.059   8.324  0.6016  1.1050 -0.1564
32280SOL    HW2  118   0.032   5.981   8.449 -0.0980  0.0402 -1.0149
32281SOL     OW  119   1.251   7.148   6.563 -0.0750 -0.6794 -0.0116
32281SOL    HW1  120   1.308   7.195   6.623 -0.4231  0.0040 -0.1955
32281SOL    HW2  121   1.167   7.194   6.570  0.1107 -0.0043 -1.6640
32282SOL     OW  122   1.519   9.930   8.658  0.1053  0.2356 -0.5047
32282SOL    HW1  123   1.592   9.897   8.711 -0.3970 -0.7798 -0.4260
32282SOL    HW2  124   1.482  10.001   8.710 -0.3580 -0.7214  0.5048
32283SOL     OW  125   2.515   4.596   3.648  0.1219 -0.2594  0.0816
32283SOL    HW1  126   2.446   4.623   3.588 -0.0368  1.0532  0.8214
32283SOL    HW2  127   2.559   4.677   3.673  2.1322 -1.0879 -0.5710
32284SOL     OW  128   8.723   4.472   6.791 -0.6010 -0.4234 -0.1990
32284SOL    HW1  129   8.793   4.457   6.728 -1.1910  0.0058 -0.9735
32284SOL    HW2  130   8.746   4.554   6.834 -0.4745 -0.4373 -0.2419
32285SOL     OW  131   2.679   3.789   6.233  0.3252  0.4629 -0.1939
32285SOL    HW1  132   2.720   3.875   6.222  0.3870  0.2733 -1.7325
32285SOL    HW2  133   2.586   3.808   6.245  0.6001  0.8176  1.7382
32286SOL     OW  134   0.861   2.622  11.134 -1.1052  0.1676 -0.5291
32286SOL    HW1  135   0.897   2.534  11.147  0.9289  1.1333  1.0056
32286SOL    HW2  136   0.816   2.617  11.050  0.0434 -2.0222 -1.0989
32287SOL     OW  137   4.354   3.913   2.183 -0.6602  0.5177  0.4034
32287SOL    HW1  138   4.446   3.911   2.160 -0.5575 -0.9883  0.8344
32287SOL    HW2  139   4.310   3.949   2.106  0.3317  1.9341  0.4621
32288SOL     OW  140   6.381   2.448   9.849  0.5236  0.1538 -0.0620
32288SOL    HW1  141   6.328   2.374   9.880  1.6685 -0.5475  0.3186
32288SOL    HW2  142   6.365   2.517   9.913  0.0049 -0.0109 -0.0056
32289SOL     OW  143   1.349   9.577   9.197 -0.2523 -0.0798  0.2372
32289SOL    HW1  144   1.374   9.669   9.201  0.8384 -0.4217  2.2899
32289SOL    HW2  145   1.433   9.530   9.194 -0.7423 -1.0644  1.3789
32290SOL     OW  146   3.365   7.751  11.315  0.0824  0.2338 -0.4127
32290SOL    HW1  147   3.299   7.763  11.247  0.9514 -0.5839 -1.4318
32290SOL    HW2  148   3.445   7.785  11.277 -0.1735  3.9829  1.8489
32291SOL     OW  149   8.682   3.224  10.767  0.2327  0.1530  0.7135
32291SOL    HW1  150   8.627   3.152  10.738 -1.0237  1.1571  0.4757
32291SOL    HW2  151   8.729   3.252  10.689 -0.2795  0.4096  0.4844
32292SOL     OW  152  11.167   0.025   0.820 -0.0982 -0.2963  0.0800
32292SOL    HW1  153  11.095  -0.017   0.774 -0.3322  0.9563 -0.7684
32292SOL    HW2  154  11.233  -0.043   0.829 -0.4865 -0.8703 -1.1604
32293SOL     OW  155   3.940   2.257   3.136  0.4453  0.4594  0.0994
32293SOL    HW1  156   3.949   2.181   3.078  1.2591  1.3791 -1.0145
32293SOL    HW2  157   3.913   2.328   3.078  3.7498  2.0373  0.3210
32294SOL     OW  158   4.157   8.481   7.101 -0.2637 -0.7602 -0.1057
32294SOL    HW1  159   4.189   8.471   7.191  0.4295 -0.3327 -0.3028
32294SOL    HW2  160   4.234   8.506   7.050 -0.7255 -0.6422 -0.7566
32295SOL     OW  161   5.222   5.181   8.037 -0.1031 -0.7323 -0.2183
32295SOL    HW1  162   5.146   5.227   8.074  1.0338  0.9857  0.0861
32295SOL    HW2  163   5.258   5.243   7.973  2.7464 -0.2166  1.7015
32296SOL     OW  164   9.858   6.697   8.592 -0.3230  0.1243 -0.3430
32296SOL    HW1  165   9.919   6.771   8.590 -0.7749  0.5326  0.3937
32296SOL    HW2  166   9.908   6.626   8.632 -0.2732  0.4074  0.1029
32297SOL     OW  167   7.249   3.804   3.081  0.7807 -0.5617 -0.6193
32297SOL    HW1  168   7.254   3.741   3.153 -2.2009 -0.3380 -0.0934
32297SOL    HW2  169   7.278   3.886   3.119 -2.1715 -0.0979  0.9257
32298SOL     OW  170   8.855   4.768   8.134  0.3538  0.1788  0.2529
32298SOL    HW1  171   8.928   4.773   8.196  1.2182 -2.4603 -0.4507
32298SOL    HW2  172   8.879   4.699   8.073 -2.0076  0.3621 -1.0139
32299SOL     OW  173   2.008   6.287  11.376 -0.1103  0.0899  0.4548
32299SOL    HW1  174   2.063   6.264  11.301 -1.4498  0.8128 -0.7744
32299SOL    HW2  175   1.988   6.202  11.417  1.2341 -0.2493  0.4694
32300SOL     OW  176   7.268   2.139   9.985  0.1497 -0.2186  0.4838
32300SOL    HW1  177   7.225   2.225   9.991  0.4342 -0.1097  1.0756
32300SOL    HW2  178   7.349   2.156   9.937  0.3135 -0.1084  0.7941
32301SOL     OW  179   7.380   5.521   0.458  0.7967 -0.7475 -0.1214
32301SOL    HW1  180   7.323   5.548   0.530 -0.0918  0.0524 -1.0848
32301SOL    HW2  181   7.370   5.426   0.452  0.1816 -0.7064  0.2333
32302SOL     OW  182   2.496   7.361  11.338  0.2222  0.1212 -0.1718
32302SOL    HW1  183   2.539   7.446  11.325  0.2730  0.2904  1.0431
32302SOL    HW2  184   2.491   7.324  11.250  3.2504 -0.1324 -0.3301
32303SOL     OW  185  10.956   7.937   2.327  0.1120  0.4658 -0.1273
32303SOL    HW1  186  10.923   7.942   2.416 -0.0398  2.0585 -0.2424
32303SOL    HW2  187  11.015   8.012   2.319  0.3974  0.1446 -1.2602
32304SOL     OW  188   0.279   3.786   6.794 -0.2935  0.0678  0.4741
32304SOL    HW1  189   0.278   3.783   6.890  0.5643 -2.3561  0.4605
32304SOL    HW2  190   0.244   3.701   6.767  2.4714 -0.6344 -1.3078
32305SOL     OW  191   1.712   3.517   3.700 -0.0459  0.1692  0.2780
32305SOL    HW1  192   1.618   3.501   3.689  0.1373  0.2707 -2.0668
32305SOL    HW2  193   1.728   3.509   3.794 -2.4248  0.3355  0.7492
32306SOL     OW  194   2.717   4.307   7.623 -0.7230 -0.1547 -0.6002
32306SOL    HW1  195   2.735   4.268   7.538  1.4413  0.9437 -0.7020
32306SOL    HW2  196   2.746   4.241   7.687  3.9564  1.3693 -0.7550
32307SOL     OW  197   0.546   7.567   7.942  0.3297 -0.3109  0.2831
32307SOL    HW1  198   0.575   7.490   7.893  0.8463 -1.0362  1.6868
32307SOL    HW2  199   0.591   7.640   7.901 -1.0373 -0.5704 -1.8113
32308SOL     OW  200   1.963   9.604  10.175  0.1344  0.2641  0.5077
32308SOL    HW1  201   1.942   9.562  10.259 -0.1154  0.3013  0.4665
32308SOL    HW2  202   1.916   9.688  10.178  1.7565  1.2024  1.1864
32309SOL     OW  203   5.348   4.864   7.755 -0.3891 -0.1624  0.0425
32309SOL    HW1  204   5.383   4.793   7.700 -0.8209 -1.1003  0.9494
32309SOL    HW2  205   5.413   4.873   7.825  0.7670  1.8343 -1.1886
32310SOL     OW  206   6.360   8.618   3.826 -0.1155 -0.2060 -0.1486
32310SOL    HW1  207   6.394   8.529   3.822 -0.1780 -0.1925 -1.2789
32310SOL    HW2  208   6.268   8.608   3.848 -0.7558 -0.6144 -2.6789
32311SOL     OW  209   6.432   7.097   3.317  0.3966 -0.6933 -0.4912
32311SOL    HW1  210   6.518   7.057   3.312  0.2296 -0.9239 -2.2186
32311SOL    HW2  211   6.433   7.164   3.248 -0.8227 -0.7681 -0.6057
32312SOL     OW  212  10.500   6.029   1.125  0.7125  0.4670 -0.2128
32312SOL    HW1  213  10.510   6.027   1.220  0.2582 -0.0533 -0.1714
32312SOL    HW2  214  10.549   6.106   1.097  0.4361  0.9065  0.4942
32313SOL     OW  215   0.356   2.374   6.145 -0.0623  0.5748 -0.1221
32313SOL    HW1  216   0.350   2.280   6.134 -2.3074  0.4582  1.4041
32313SOL    HW2  217   0.364   2.387   6.240 -0.8611  1.9283 -0.2076
32314SOL     OW  218   6.814   2.290   4.510  0.1050  0.1213 -0.2141
32314SOL    HW1  219   6.790   2.314   4.599  0.5680 -1.1593  0.2801
32314SOL    HW2  220   6.824   2.194   4.513 -0.7102 -0.0494 -1.8371
32315SOL     OW  221   3.203   7.956   5.655  0.0218 -0.3616  0.0063
32315SOL    HW1  222   3.218   8.005   5.736  0.3877 -0.3747 -0.0535
32315SOL    HW2  223   3.133   8.004   5.610  0.0720 -0.1472  0.1565
32316SOL     OW  224   5.194   0.968   9.507 -0.8092  0.0760  0.3966
32316SOL    HW1  225   5.261   0.990   9.442  0.1558 -1.2148  0.9014
32316SOL    HW2  226   5.127   0.921   9.457  0.0558 -1.1450  0.3324
32317SOL     OW  227   3.380   3.098   7.554  0.1048  0.0929  0.3900
32317SOL    HW1  228   3.301   3.061   7.594  0.3531 -0.4839  0.3529
32317SOL    HW2  229   3.349   3.178   7.510 -0.3979  0.0430  0.6472
32318SOL     OW  230   9.017   5.662   5.355  0.1235 -0.6139  0.1655
32318SOL    HW1  231   8.927   5.691   5.345 -0.5138 -2.9268 -1.8329
32318SOL    HW2  232   9.061   5.689   5.275  0.2129 -2.5510 -0.4937
32319SOL     OW  233  10.881   3.042   0.784  0.6347  0.1397 -0.5314
32319SOL    HW1  234  10.912   2.953   0.803 -0.4268 -0.4495 -1.4840
32319SOL    HW2  235  10.848   3.037   0.695 -3.2612  0.4086  0.7169
32320SOL     OW  236   0.705   6.229   1.185 -0.0905  0.3473  0.1431
32320SOL    HW1  237   0.628   6.217   1.240  0.9458 -2.2034  1.1709
32320SOL    HW2  238   0.779   6.209   1.242  1.1092 -1.1049 -1.7880
32321SOL     OW  239   2.336   0.287   8.475 -0.0448  0.1718  0.1506
32321SOL    HW1  240   2.358   0.315   8.386 -1.1875  1.5428  0.2574
32321SOL    HW2  241   2.303   0.366   8.517 -1.8402 -0.9739  1.0225
32322SOL     OW  242   2.236   3.797  11.345  0.6184 -0.1520 -0.1578
32322SOL    HW1  243   2.251   3.775  11.437 -0.7004  0.7934  0.3009
32322SOL    HW2  244   2.163   3.741  11.318 -0.5205  1.1818  0.0537
32323SOL     OW  245   8.549   0.343   3.214 -0.0162 -0.3495 -0.2105
32323SOL    HW1  246   8.532   0.254   3.183  1.6163 -1.0493  0.7634
32323SOL    HW2  247   8.536   0.337   3.309  0.1053  0.4601 -0.1396
32324SOL     OW  248   4.613   4.268   0.862 -0.0692 -0.2451 -0.8808
32324SOL    HW1  249   4.639   4.360   0.868  1.1315 -0.3465 -3.1702
32324SOL    HW2  250   4.558   4.253   0.939 -0.0984  2.3020 -0.3169
32325SOL     OW  251   3.847   8.803  10.694  0.0701  0.0699 -0.3672
32325SOL    HW1  252   3.873   8.824  10.604 -0.1649 -1.1245 -0.7358
32325SOL    HW2  253   3.752   8.792  10.690 -0.0514  0.8422  0.2137
32326SOL     OW  254   0.786  11.275   4.755  0.1943 -0.1978 -0.2092
32326SOL    HW1  255   0.797  11.216   4.830 -1.2950 -0.6117 -0.2889
32326SOL    HW2  256   0.858  11.253   4.696  0.7747 -0.5893  0.6217
32327SOL     OW  257   2.737  10.539   0.264 -0.2401 -0.0644  0.8913
32327SOL    HW1  258   2.778  10.608   0.211  0.3148 -0.8427  0.2810
32327SOL    HW2  259   2.787  10.539   0.346 -1.0481  1.0880  1.4106
32328SOL     OW  260   9.852   7.214  10.225 -0.0764 -0.1725 -0.1624
32328SOL    HW1  261   9.853   7.167  10.309 -0.8173  0.7238  0.3580
32328SOL    HW2  262   9.920   7.171  10.173 -0.3044 -1.4120  0.5253
32329SOL     OW  263   2.597   0.886   7.588  0.4766  0.0251  0.0656
32329SOL    HW1  264   2.547   0.861   7.511  1.2722 -1.8092  0.1080
32329SOL    HW2  265   2.688   0.883   7.560  0.8616 -1.7783  1.3263
32330SOL     OW  266   7.710   3.201   7.265 -0.0239  0.0053  0.0310
32330SOL    HW1  267   7.700   3.106   7.279  1.8545 -0.5360 -1.8718
32330SOL    HW2  268   7.734   3.235   7.351 -0.1716 -1.3283  0.6244
32331SOL     OW  269   3.958   0.319   2.689 -0.3785  0.2530  0.1684
32331SOL    HW1  270   3.948   0.292   2.598 -0.1498 -0.0244  0.2231
32331SOL    HW2  271   3.929   0.244   2.740 -0.9835  0.5899  0.3298
32332SOL     OW  272   0.737   3.251   6.525  0.5158  0.2451  0.6497
32332SOL    HW1  273   0.782   3.180   6.479  1.2184  0.3968  1.0838
32332SOL    HW2  274   0.743   3.326   6.466 -2.3916 -0.6333 -0.9286
32333SOL     OW  275   5.492   2.843  10.146  0.3029  0.4535 -0.3213
32333SOL    HW1  276   5.532   2.762  10.178  1.7406  1.0096 -0.6239
32333SOL    HW2  277   5.454   2.884  10.223 -1.7265 -1.1572 -0.3700
32334SOL     OW  278   6.332   4.004   4.296  0.1705  0.7997 -0.3441
32334SOL    HW1  279   6.411   3.955   4.272  0.3651  0.8166  0.2402
32334SOL    HW2  280   6.363   4.070   4.359 -0.9676 -2.2066  3.7854
32335SOL     OW  281   5.596   6.958   7.501  0.3669  0.0659 -0.2209
32335SOL    HW1  282   5.547   6.877   7.513  0.9272 -0.5659 -1.9260
32335SOL    HW2  283   5.657   6.960   7.575 -0.6805 -0.2621  0.6881
32336SOL     OW  284  11.395  11.213   1.193  0.0112  0.2010 -0.1107
32336SOL    HW1  285  11.331  11.246   1.257  0.0671 -0.4548  0.2873
32336SOL    HW2  286  11.469  11.274   1.199  0.0180  0.1355  0.4522
32337SOL     OW  287   3.517   6.433   4.714  0.0033 -0.2766  0.0130
32337SOL    HW1  288   3.473   6.395   4.638  0.4046 -2.2110  0.6909
32337SOL    HW2  289   3.487   6.524   4.716 -0.7819 -0.4542 -1.8702
32338SOL     OW  290   3.381   4.293   9.681  0.4251  0.2161  0.6717
32338SOL    HW1  291   3.409   4.383   9.662 -1.0942  0.8264  1.1737
32338SOL    HW2  292   3.346   4.297   9.770 -0.1823 -0.7471  0.4888
32339SOL     OW  293   0.465   6.792   8.604  0.6001  0.1135  0.1484
32339SOL    HW1  294   0.523   6.857   8.567  1.4733 -0.3602  0.6447
32339SOL    HW2  295   0.513   6.757   8.679 -0.6142  0.2118  1.0116
32340SOL     OW  296  10.928   0.242   5.021  0.2160  0.1863 -0.1815
32340SOL    HW1  297  11.003   0.190   4.993  1.9899  1.8536  1.1618
32340SOL    HW2  298  10.940   0.327   4.978 -0.8483  0.5101  0.1321
32341SOL     OW  299   2.017   2.356   6.169 -0.8697 -0.0855 -0.2559
32341SOL    HW1  300   2.037   2.446   6.144  0.2144  0.0082  0.8977
32341SOL    HW2  301   2.004   2.360   6.263  0.2670 -1.3159 -0.0295
32342SOL     OW  302   2.606   3.594   2.215  0.1529  0.6788 -0.1304
32342SOL    HW1  303   2.539   3.544   2.168 -0.6197 -0.2308  1.8175
32342SOL    HW2  304   2.670   3.617   2.148  0.1456 -2.2422 -1.3216
32343SOL     OW  305   9.903  10.084   7.013 -0.0513 -0.6542  0.3462
32343SOL    HW1  306   9.812  10.101   7.039 -0.1478  1.1888 -0.9869
32343SOL    HW2  307   9.897  10.010   6.953 -0.9574  0.5985 -1.1656
32344SOL     OW  308   3.512  10.099   3.399  0.1837 -0.6232 -0.5094
32344SOL    HW1  309   3.600  10.061   3.404  0.7107  0.5414 -0.7011
32344SOL    HW2  310   3.482  10.101   3.489  0.3001 -1.1483 -0.4562
32345SOL     OW  311   9.383   9.180   0.878  0.0530 -0.0459 -0.2642
32345SOL    HW1  312   9.457   9.201   0.821 -0.2555  0.6355 -0.4272
32345SOL    HW2  313   9.421   9.172   0.965  0.1525  1.5828 -0.1284
32346SOL     OW  314   8.443   7.012   9.450 -0.0317 -0.1819  0.4607
32346SOL    HW1  315   8.500   7.026   9.525 -0.4335 -0.3719  0.8083
32346SOL    HW2  316   8.391   7.093   9.445  0.5071  0.1367 -0.0716
32347SOL     OW  317   6.996   6.864   7.791  0.3597 -0.1258  0.6349
32347SOL    HW1  318   7.056   6.842   7.861  0.7260 -0.3258  0.2641
32347SOL    HW2  319   7.037   6.829   7.712  1.0985  2.0150 -0.0262
32348SOL     OW  320   1.642   9.925   3.749 -0.3745 -0.3052 -0.5316
32348SOL    HW1  321   1.558   9.884   3.731 -0.5723 -0.5332  0.8030
32348SOL    HW2  322   1.634   9.957   3.839  1.0712 -0.6210 -0.2689
32349SOL     OW  323   1.902   1.618   2.487  0.3544 -0.0250 -1.0236
32349SOL    HW1  324   1.838   1.650   2.424 -2.7742 -2.8929  0.3385
32349SOL    HW2  325   1.904   1.685   2.556 -1.3236  0.0919 -1.0549
32350SOL     OW  326   8.030   4.375   1.403 -0.3286  0.2266  0.0423
32350SOL    HW1  327   8.020   4.419   1.319  1.3904 -0.8496 -0.7943
32350SOL    HW2  328   8.120   4.341   1.402 -0.9515 -1.6655  1.4106
32351SOL     OW  329   8.534   6.485   0.427 -0.4437  0.1621  0.1570
32351SOL    HW1  330   8.573   6.432   0.497 -1.0212  0.0611  0.4128
32351SOL    HW2  331   8.544   6.576   0.457  1.2866  0.2842 -0.6607
32352SOL     OW  332   1.468   3.295   2.129  0.2278 -0.2085  0.0592
32352SOL    HW1  333   1.423   3.359   2.074  1.6103  1.8351  1.2120
32352SOL    HW2  334   1.516   3.240   2.066 -1.9718 -1.0180 -1.0272
32353SOL     OW  335   3.157   1.609   9.399  0.2771 -0.5501 -0.2669
32353SOL    HW1  336   3.238   1.649   9.431  0.6276 -0.7794 -0.8495
32353SOL    HW2  337   3.124   1.559   9.474 -0.0341  0.6091  0.3924
32354SOL     OW  338   7.105   6.003  10.473  0.3161  0.1045  0.0788
32354SOL    HW1  339   7.181   5.966  10.518  0.2442  1.4916  1.3933
32354SOL    HW2  340   7.108   5.963  10.386  0.9789 -1.9442  0.9767
32355SOL     OW  341   5.233   0.963   5.511  0.2079  0.0723 -0.5569
32355SOL    HW1  342   5.309   0.945   5.567 -0.7019 -1.8702  0.1573
32355SOL    HW2  343   5.208   0.878   5.477 -1.7776  0.6280 -0.6071
32356SOL     OW  344   7.144  10.982   6.196  0.2460 -0.0138 -0.2442
32356SOL    HW1  345   7.090  11.043   6.245  1.0269  1.3979 -1.0850
32356SOL    HW2  346   7.233  11.016   6.204  0.4092  0.2718 -2.5981
32357SOL     OW  347   2.029   9.880   3.632  0.1644  0.0662  0.1590
32357SOL    HW1  348   1.942   9.892   3.595  0.8999 -0.1858 -1.7731
32357SOL    HW2  349   2.071   9.966   3.623  0.0623  0.2510  1.3040
32358SOL     OW  350   6.105   5.664   2.848  0.2730 -0.1665 -0.1719
32358SOL    HW1  351   6.024   5.712   2.860 -0.9909 -2.5043  1.4457
32358SOL    HW2  352   6.101   5.631   2.759  0.2909  1.1434 -0.6703
32359SOL     OW  353   4.473  11.284   7.413  0.2859  0.0763  0.3932
32359SOL    HW1  354   4.509  11.371   7.430  1.6534 -0.2846 -0.4964
32359SOL    HW2  355   4.418  11.265   7.489  0.9417  1.2010  1.1688
32360SOL     OW  356   0.752   2.739   1.969  0.2513  0.5124 -1.4438
32360SOL    HW1  357   0.747   2.813   1.909  0.3466  2.1766  0.4708
32360SOL    HW2  358   0.786   2.776   2.050 -0.5066 -1.4678 -0.1226
32361SOL     OW  359   3.693  10.250   2.183 -0.2148  0.0393 -0.4818
32361SOL    HW1  360   3.761  10.185   2.199 -0.2276  0.8677  4.4412
32361SOL    HW2  361   3.737  10.334   2.195 -1.6522  0.6423  0.9010
32362SOL     OW  362   1.772   1.027   3.577 -0.2500  0.3419 -0.0142
32362SOL    HW1  363   1.701   0.964   3.574 -0.5265  0.5119  1.8151
32362SOL    HW2  364   1.729   1.112   3.577 -0.2415  0.4458  2.7701
32363SOL     OW  365   5.810   5.395   2.487  0.3124 -0.3378 -0.1596
32363SOL    HW1  366   5.729   5.348   2.508 -0.2141  1.1392  1.3886
32363SOL    HW2  367   5.784   5.458   2.419 -0.0831  0.7263  0.9496
32364SOL     OW  368   2.357   2.104   6.780 -0.0824  0.2175 -0.0981
32364SOL    HW1  369   2.308   2.162   6.839 -2.0552 -0.4184 -1.0134
32364SOL    HW2  370   2.367   2.023   6.829 -0.6731  0.0845 -0.1902
32365SOL     OW  371   6.854   9.652   3.589 -0.0606 -0.5983 -0.1635
32365SOL    HW1  372   6.895   9.653   3.502 -0.7306  1.6047 -0.4973
32365SOL    HW2  373   6.840   9.744   3.610 -0.7737 -1.1322  1.9004
32366SOL     OW  374   1.850   8.219   4.186 -0.1441  0.9070 -0.1464
32366SOL    HW1  375   1.875   8.288   4.125 -3.9799  2.0905 -0.6195
32366SOL    HW2  376   1.865   8.256   4.273  2.7188  0.2432 -0.2582
32367SOL     OW  377  10.529   3.375   8.741 -0.5200  0.3324 -0.1363
32367SOL    HW1  378  10.585   3.353   8.667  0.9662 -0.4744  1.1777
32367SOL    HW2  379  10.461   3.308   8.741 -1.3720  1.1387 -1.5535
32368SOL     OW  380   8.670   8.010   5.381 -0.0329 -0.0394  0.1911
32368SOL    HW1  381   8.753   7.971   5.406  0.0744 -0.1759 -0.3751
32368SOL    HW2  382   8.616   8.004   5.460  0.9247  1.2642  0.9868
32369SOL     OW  383   2.265  10.408   2.696 -0.3716 -0.2221  0.0577
32369SOL    HW1  384   2.297  10.490   2.733  1.9708 -1.5274  1.1008
32369SOL    HW2  385   2.298  10.408   2.606 -0.7697  0.1545 -0.0951
32370SOL     OW  386   1.352   3.113   1.321  0.3314 -0.3414  0.3745
32370SOL    HW1  387   1.269   3.069   1.308 -0.9440  1.8489  0.6209
32370SOL    HW2  388   1.391   3.117   1.233  0.3421 -1.6601  0.3100
32371SOL     OW  389   1.484  10.975   5.861 -0.0755  0.1977  0.4716
32371SOL    HW1  390   1.394  10.993   5.887 -1.8386 -3.3304 -2.2669
32371SOL    HW2  391   1.493  11.019   5.776  0.6518  0.2407  0.5663
32372SOL     OW  392   6.382   7.847   6.210 -0.5517 -0.0804 -0.2411
32372SOL    HW1  393   6.462   7.899   6.217 -0.4341 -0.0281 -1.6685
32372SOL    HW2  394   6.369   7.835   6.116 -0.9848 -2.0193  0.0193
32373SOL     OW  395   6.424   0.365   8.686  0.4022  0.3650 -0.4757
32373SOL    HW1  396   6.436   0.321   8.771 -0.5576 -1.8425 -1.3863
32373SOL    HW2  397   6.400   0.455   8.709 -1.1996 -0.5040  1.6648
32374SOL     OW  398   1.735   2.156   5.499 -0.0691 -0.5268  0.2709
32374SOL    HW1  399   1.683   2.231   5.528  1.9953  1.0196  0.1819
32374SOL    HW2  400   1.709   2.143   5.408 -0.4913  0.0114  0.3098
32375SOL     OW  401   4.379   0.491   8.472  0.5955 -1.0938 -0.4224
32375SOL    HW1  402   4.328   0.410   8.472  0.9234 -1.3121  0.7408
32375SOL    HW2  403   4.469   0.462   8.455  0.4345 -0.7574 -2.0002
32376SOL     OW  404   0.380   9.390   6.436 -0.2946  0.1161  0.5788
32376SOL    HW1  405   0.349   9.315   6.384  2.0835  1.0671 -2.5292
32376SOL    HW2  406   0.331   9.465   6.401 -1.6744  0.2855  2.7225
32377SOL     OW  407   4.157   3.402   2.249  0.5530 -0.7452 -0.0655
32377SOL    HW1  408   4.140   3.315   2.215  1.1029 -1.4086  1.2897
32377SOL    HW2  409   4.252   3.407   2.258  0.4779 -0.2934  0.5540
32378SOL     OW  410   5.053   1.716   7.619 -0.2920  0.0453  0.8946
32378SOL    HW1  411   5.102   1.636   7.639 -1.7763 -0.9438  0.7706
32378SOL    HW2  412   4.963   1.695   7.644 -1.2507  0.6771 -1.6850
32379SOL     OW  413  10.992   7.234   4.200  0.8975 -0.1295  0.5989
32379SOL    HW1  414  11.056   7.283   4.149  1.5640 -1.8029 -0.2618
32379SOL    HW2  415  11.044   7.172   4.251  0.0478 -0.7554  0.7322
32380SOL     OW  416   7.145  10.723   1.504  0.0458 -0.2731 -0.5311
32380SOL    HW1  417   7.086  10.701   1.576 -0.0387  2.2003  0.2289
32380SOL    HW2  418   7.088  10.746   1.431  0.1224 -0.9483 -0.8136
32381SOL     OW  419  10.414   4.993   8.540  0.0631 -0.3514 -0.1950
32381SOL    HW1  420  10.406   5.053   8.613  0.2870 -1.4994  0.7998
32381SOL    HW2  421  10.414   5.049   8.462  2.7039  1.1602  0.7618
32382SOL     OW  422   1.180   6.848   6.205 -0.7117  0.3774 -0.1788
32382SOL    HW1  423   1.121   6.924   6.202  1.2862  1.9846 -1.3120
32382SOL    HW2  424   1.232   6.862   6.284 -2.5654 -1.7219  1.5583
32383SOL     OW  425   1.866   4.133   8.814  0.2203  0.1815 -0.5307
32383SOL    HW1  426   1.791   4.157   8.761  0.1603 -1.0135 -1.0274
32383SOL    HW2  427   1.852   4.040   8.836  2.2832 -0.5476 -1.9709
32384SOL     OW  428   9.098   7.058  10.177 -0.2140  0.5060 -0.1846
32384SOL    HW1  429   9.140   7.143  10.168  0.0831  0.1467 -3.2771
32384SOL    HW2  430   9.168   6.995  10.162 -0.8277 -0.2314 -0.0275
32385SOL     OW  431   9.145   0.029   8.666  0.1977  0.0618  0.5444
32385SOL    HW1  432   9.085   0.068   8.603  0.8924 -0.3412 -0.3780
32385SOL    HW2  433   9.099  -0.048   8.699  0.4498 -0.6013 -0.6282
32386SOL     OW  434   2.798   8.292   1.131 -0.7728 -0.2476  0.1533
32386SOL    HW1  435   2.790   8.197   1.120 -0.0441 -0.4273  1.0461
32386SOL    HW2  436   2.774   8.307   1.223 -0.2186  0.3496  0.2036
32387SOL     OW  437   0.527   7.330   1.241  0.4027  0.1080  0.1879
32387SOL    HW1  438   0.470   7.260   1.273 -1.8572  1.5888 -0.3852
32387SOL    HW2  439   0.525   7.322   1.146  4.3456 -2.1369  0.0588
32388SOL     OW  440   9.414   2.994   5.827 -0.6507  0.4168 -0.1810
32388SOL    HW1  441   9.381   2.912   5.792 -1.1449  0.1906  0.7769
32388SOL    HW2  442   9.338   3.052   5.828 -0.5473  0.5524  0.0862
32389SOL     OW  443   4.064   4.384   6.797  0.4528  0.3120  0.0516
32389SOL    HW1  444   4.102   4.330   6.728 -0.9514 -0.4138 -0.2083
32389SOL    HW2  445   4.135   4.440   6.827  2.0913 -1.9248  0.5611
32390SOL     OW  446   5.447  10.551   5.950  0.8104  0.5074  0.5107
32390SOL    HW1  447   5.375  10.614   5.950  0.5487  0.2299 -0.3108
32390SOL    HW2  448   5.407  10.470   5.917  1.1364 -0.0977  1.5506
32391SOL     OW  449   8.437   3.574   3.046  0.1552  0.3883  0.1301
32391SOL    HW1  450   8.462   3.555   3.136 -0.7913  0.9153  0.5137
32391SOL    HW2  451   8.453   3.668   3.036  0.2231  0.3383 -0.2417
32392SOL     OW  452   5.279   8.821   9.761  0.6947 -0.4313 -0.1303
32392SOL    HW1  453   5.198   8.771   9.774  0.5508  0.0534  1.0018
32392SOL    HW2  454   5.311   8.837   9.849  0.6474  1.5929 -0.4312
32393SOL     OW  455   4.871  10.484   1.055 -0.2530  0.0630 -0.3926
32393SOL    HW1  456   4.897  10.392   1.063  0.1027  0.2110  0.2310
32393SOL    HW2  457   4.784  10.488   1.095  0.2539  0.2269  0.7188
32394SOL     OW  458   9.955   8.858   7.462 -0.2147  0.8330  0.2660
32394SOL    HW1  459   9.993   8.919   7.526  1.0066 -0.1064  0.4631
32394SOL    HW2  460  10.006   8.778   7.472 -1.3117  0.0100 -0.5112
32395SOL     OW  461   6.783  10.825   8.816  0.3077 -0.1581  0.1827
32395SOL    HW1  462   6.845  10.899   8.812 -0.9908  0.9420 -0.2797
32395SOL    HW2  463   6.701  10.861   8.783 -0.5492 -1.6343  0.6313
32396SOL     OW  464   9.993   4.940   3.137 -0.5650  0.2624  0.3984
32396SOL    HW1  465  10.087   4.933   3.123 -0.3382 -2.9151  2.5041
32396SOL    HW2  466   9.985   4.981   3.223 -0.9679 -1.1406  1.0616
32397SOL     OW  467   7.775   8.375   3.473 -0.7021 -0.5905  0.2888
32397SOL    HW1  468   7.744   8.426   3.399 -0.5985 -1.1148 -0.1262
32397SOL    HW2  469   7.841   8.429   3.515 -2.0045  0.4592  1.0640
32398SOL     OW  470   0.057   1.264   9.732  0.0813  0.0908 -0.3502
32398SOL    HW1  471   0.124   1.208   9.693  0.0074  0.2885 -0.7700
32398SOL    HW2  472  -0.008   1.276   9.662 -1.9776 -2.5533  0.9109
32399SOL     OW  473   4.673   3.833   1.941 -0.1382  0.3721  0.7880
32399SOL    HW1  474   4.654   3.822   1.848 -2.5515 -0.0461  1.2753
32399SOL    HW2  475   4.618   3.907   1.969  1.2548  1.1231  1.7197
32400SOL     OW  476   8.829   2.273   9.448 -0.5703 -0.0557  0.0059
32400SOL    HW1  477   8.844   2.251   9.540 -2.2360  0.4174  0.4328
32400SOL    HW2  478   8.905   2.326   9.423  0.3788 -0.9921  0.8015
32401SOL     OW  479   8.471   7.419   6.053 -0.0244 -0.6592 -0.5468
32401SOL    HW1  480   8.558   7.402   6.090  0.6856  0.5876 -1.5787
32401SOL    HW2  481   8.414   7.354   6.095  0.8567  0.2064  2.2102
32402SOL     OW  482   3.094   9.515   0.061 -0.0880  0.3007 -0.0442
32402SOL    HW1  483   3.185   9.491   0.082  0.2351  2.2900  1.0695
32402SOL    HW2  484   3.101   9.562  -0.022  0.2443  2.3045  1.0730
32403SOL     OW  485   0.427   8.499   1.463  0.1669  0.0923  0.0103
32403SOL    HW1  486   0.507   8.509   1.514  0.6512  0.6477 -0.8446
32403SOL    HW2  487   0.422   8.405   1.443  0.5579  0.0486  0.1237
32404SOL     OW  488   3.081   9.107   1.338 -0.3861 -0.2981  0.1552
32404SOL    HW1  489   3.112   9.073   1.423 -0.9313 -1.2811 -0.0292
32404SOL    HW2  490   3.147   9.171   1.313 -0.9198  1.0464  1.9843
32405SOL     OW  491   5.686   2.862   7.261  0.1530  0.3478 -0.5924
32405SOL    HW1  492   5.681   2.775   7.301 -1.5737  1.0263  0.7604
32405SOL    HW2  493   5.631   2.856   7.183  0.4666  0.0827 -0.7943
32406SOL     OW  494   2.845   8.420   6.407 -0.0445  0.2294  0.4431
32406SOL    HW1  495   2.778   8.405   6.340  2.3416  0.2013 -2.1454
32406SOL    HW2  496   2.876   8.509   6.391  1.0515 -0.0169  1.0311
32407SOL     OW  497   0.555   3.343   7.467  0.1157  0.2510  0.4093
32407SOL    HW1  498   0.573   3.306   7.553  1.0032  0.8309  0.4877
32407SOL    HW2  499   0.598   3.429   7.469  2.8625 -0.9260 -1.6562
32408SOL     OW  500  11.390   9.754   4.144  0.5424 -0.8865 -0.4824
32408SOL    HW1  501  11.315   9.790   4.190  2.3208  2.7062 -0.0562
32408SOL    HW2  502  11.462   9.760   4.208  2.1864  0.3718 -2.3429
32409SOL     OW  503   8.356   5.786  10.726 -0.1079 -0.0323  0.1109
32409SOL    HW1  504   8.402   5.866  10.698  0.9112 -1.5438 -3.0891
32409SOL    HW2  505   8.420   5.740  10.780  0.2471  0.1910 -0.1107
32410SOL     OW  506   2.562   5.532   6.913 -0.0722 -0.3382  0.0352
32410SOL    HW1  507   2.483   5.477   6.914  0.4622 -1.1243  0.3912
32410SOL    HW2  508   2.627   5.481   6.961  0.5512  0.4626  0.0639
32411SOL     OW  509  10.111   6.997   7.945 -0.8625  0.0455  0.4826
32411SOL    HW1  510  10.037   6.943   7.915 -0.7339 -0.6901  1.4571
32411SOL    HW2  511  10.179   6.935   7.967  0.5149  0.7590 -1.4918
32412SOL     OW  512   0.913   4.117   1.388  0.1485  0.1602  0.4691
32412SOL    HW1  513   0.905   4.052   1.457 -0.9167 -3.2606 -2.5496
32412SOL    HW2  514   0.829   4.163   1.387 -0.6526 -1.2649  0.1562
32413SOL     OW  515   5.322   4.184   6.784  0.1559 -0.2970  0.3360
32413SOL    HW1  516   5.408   4.201   6.823 -0.8703  2.0549  1.7591
32413SOL    HW2  517   5.294   4.101   6.824  1.0671 -0.2464  1.1224
32414SOL     OW  518   0.187   4.002   7.719  0.4141 -0.0893 -0.0137
32414SOL    HW1  519   0.113   3.974   7.665  0.1138  0.3429  0.1767
32414SOL    HW2  520   0.148   4.053   7.790  0.9456  0.6159 -0.2252
32415SOL     OW  521  11.175   6.522   9.405 -0.0301 -0.5337  0.3436
32415SOL    HW1  522  11.181   6.589   9.336 -0.6969 -1.8836 -1.0839
32415SOL    HW2  523  11.114   6.457   9.370  1.9905 -2.8371  0.8174
32416SOL     OW  524   9.323   6.917   9.220 -0.3287  0.2570  0.4388
32416SOL    HW1  525   9.314   6.998   9.270 -0.2629  0.2611  0.4439
32416SOL    HW2  526   9.416   6.895   9.225 -0.4860 -0.2698  1.1401
32417SOL     OW  527  11.133  10.002   6.420 -0.2792 -0.1133  0.0178
32417SOL    HW1  528  11.107  10.014   6.512 -0.5510  0.7576 -0.1652
32417SOL    HW2  529  11.065  10.048   6.370  0.3542  0.1821 -0.5813
32418SOL     OW  530   1.832   9.423   9.255 -0.8222  0.3037 -0.0057
32418SOL    HW1  531   1.880   9.499   9.287 -0.7626  0.4998 -0.5471
32418SOL    HW2  532   1.897   9.352   9.254  0.0133  0.9771 -2.4356
32419SOL     OW  533   1.144  10.771   4.259 -0.2419  0.0740  0.2078
32419SOL    HW1  534   1.215  10.818   4.303  0.7529 -1.7586  0.6721
32419SOL    HW2  535   1.121  10.826   4.185  0.2043  1.7311  1.2563
32420SOL     OW  536   2.358   5.243   3.021 -0.0979  0.2752  0.8019
32420SOL    HW1  537   2.383   5.295   2.944  0.3919  0.6582  1.2146
32420SOL    HW2  538   2.273   5.205   2.998 -0.5521  1.4070  0.5659
32421SOL     OW  539   5.993   8.077   1.664  0.3374 -0.0166  0.0689
32421SOL    HW1  540   6.056   8.096   1.734 -0.9140  0.5664  1.0950
32421SOL    HW2  541   5.982   8.160   1.619  0.3001 -0.1126 -0.0972
32422SOL     OW  542   8.487   6.439   7.249  0.1170 -0.2215 -0.3194
32422SOL    HW1  543   8.438   6.368   7.290  1.1739 -0.8650 -0.1556
32422SOL    HW2  544   8.446   6.450   7.163  0.5717 -1.7133 -0.7570
32423SOL     OW  545   7.630   8.973   7.672  0.5201  0.5845 -0.0497
32423SOL    HW1  546   7.635   9.041   7.739 -0.6253 -0.0197  0.6769
32423SOL    HW2  547   7.658   9.017   7.592  1.1971  1.5189  0.6764
32424SOL     OW  548   5.700   5.537  10.521  0.5484 -0.0235  0.7011
32424SOL    HW1  549   5.638   5.528  10.593  0.2345 -0.8183  0.3471
32424SOL    HW2  550   5.771   5.477  10.543  0.2852 -0.5328  0.1855
32425SOL     OW  551   8.940   8.803   8.533 -0.0623  0.1210 -0.1982
32425SOL    HW1  552   8.897   8.719   8.550 -0.4576  0.3588  0.0027
32425SOL    HW2  553   8.929   8.852   8.615  0.6534  0.1628 -0.1170
32426SOL     OW  554   6.103   7.715   9.120  0.1139 -0.4067 -0.2284
32426SOL    HW1  555   6.067   7.742   9.035 -0.3334  0.4154  0.2127
32426SOL    HW2  556   6.049   7.760   9.184  1.5062  0.3332  0.4760
32427SOL     OW  557  10.443   5.901   4.331 -0.4637 -0.2455  0.0657
32427SOL    HW1  558  10.502   5.896   4.255 -0.5774 -1.3169  0.0226
32427SOL    HW2  559  10.408   5.812   4.339 -0.0974 -0.2639  1.6546
32428SOL     OW  560   1.013   4.545   7.115 -0.3955  0.4910  0.4999
32428SOL    HW1  561   1.001   4.540   7.020  0.1082  1.6593  0.3606
32428SOL    HW2  562   0.964   4.470   7.149  1.0550 -1.1608 -0.8113
32429SOL     OW  563   4.910   9.665  10.021 -0.7362  0.0101 -0.0084
32429SOL    HW1  564   4.980   9.706   9.970 -0.4562  1.7218  1.6607
32429SOL    HW2  565   4.830   9.681   9.969 -0.3114  0.6956 -0.4602
32430SOL     OW  566   6.475   7.210   5.733 -0.0475 -0.2697  0.1053
32430SOL    HW1  567   6.422   7.285   5.706  0.1053 -0.4776 -0.7732
32430SOL    HW2  568   6.560   7.249   5.757 -0.4422  0.0102  1.1099
32431SOL     OW  569   7.585   4.224   7.268  0.3282 -0.0287  0.0453
32431SOL    HW1  570   7.666   4.248   7.315  0.8842  0.0386 -0.9286
32431SOL    HW2  571   7.589   4.129   7.262  0.1347 -0.0564  0.3477
32432SOL     OW  572   5.585  10.235   7.989  0.2218  0.0791 -0.6282
32432SOL    HW1  573   5.492  10.213   7.982 -0.0617  1.0386  0.0306
32432SOL    HW2  574   5.605  10.227   8.082  0.9471 -0.6567 -0.8361
32433SOL     OW  575   5.483  11.211   8.181 -0.6172  0.4710  0.1538
32433SOL    HW1  576   5.563  11.164   8.205 -1.0133  0.2836  1.1271
32433SOL    HW2  577   5.506  11.304   8.188 -0.4838  0.4173  0.4066
32434SOL     OW  578   4.421   6.050   3.425  0.7433 -0.6795  0.0053
32434SOL    HW1  579   4.351   6.007   3.376  0.7420  0.1845 -0.7881
32434SOL    HW2  580   4.375   6.103   3.490  0.7759 -3.1850  2.2124
32435SOL     OW  581   0.343   1.530   4.281  0.4172  0.8028 -0.5192
32435SOL    HW1  582   0.366   1.590   4.352  0.5404 -1.4237  1.4373
32435SOL    HW2  583   0.280   1.469   4.320  0.5342 -0.5300 -2.2974
32436SOL     OW  584   8.467   7.031   5.774 -0.0607  0.5264  0.2552
32436SOL    HW1  585   8.510   7.001   5.694 -1.0858  0.2691 -0.2163
32436SOL    HW2  586   8.394   7.084   5.743  0.8801  2.3818  1.0614
32437SOL     OW  587   0.550   9.504   6.655  0.1737  0.5635 -0.3472
32437SOL    HW1  588   0.481   9.450   6.617  1.3400 -0.3793 -1.1852
32437SOL    HW2  589   0.581   9.557   6.582 -0.2510  1.6514  0.2364
32438SOL     OW  590  11.133   2.552   9.588  0.1481 -0.1899  0.5730
32438SOL    HW1  591  11.152   2.541   9.495  1.8789 -0.9935  0.9926
32438SOL    HW2  592  11.156   2.469   9.627 -0.7210  0.0868  1.7305
32439SOL     OW  593   8.544   0.808   8.481 -0.6796  0.1435 -0.0483
32439SOL    HW1  594   8.483   0.809   8.407 -0.8876 -0.1576  0.1135
32439SOL    HW2  595   8.595   0.728   8.469 -0.2720  0.4260 -0.2146
32440SOL     OW  596  10.294   7.946   2.625  0.6191 -0.6784 -0.1476
32440SOL    HW1  597  10.263   7.915   2.540 -0.2054 -1.6279  0.4768
32440SOL    HW2  598  10.259   7.883   2.688 -0.3190  0.9823  1.0988
32441SOL     OW  599   5.628   7.763   5.402  0.0145  0.1417 -0.2567
32441SOL    HW1  600   5.561   7.695   5.403  0.4598 -0.4154 -2.6888
32441SOL    HW2  601   5.710   7.717   5.418 -0.0082  0.6667  1.6007
32442SOL     OW  602   3.459   7.257  10.309 -0.1471  0.5405  1.0211
32442SOL    HW1  603   3.448   7.352  10.307  0.5534  0.6613  2.0433
32442SOL    HW2  604   3.528   7.241  10.245 -0.2513  0.7191  0.8599
32443SOL     OW  605   9.020   3.010  10.648  0.0585  0.6327 -0.2258
32443SOL    HW1  606   9.042   2.959  10.727  0.3803 -0.7596 -1.1652
32443SOL    HW2  607   8.984   2.945  10.588 -1.3558  1.8918 -0.8004
32444SOL     OW  608  11.196   2.249   9.702 -0.2730 -0.2919 -0.1965
32444SOL    HW1  609  11.208   2.160   9.667  0.3619 -0.4744  0.4567
32444SOL    HW2  610  11.283   2.288   9.696 -0.5662  0.3228 -0.5484
32445SOL     OW  611   2.495   1.761   1.897 -0.5128  0.3550 -0.3501
32445SOL    HW1  612   2.456   1.717   1.973  0.8653 -0.6785 -0.1894
32445SOL    HW2  613   2.564   1.816   1.933  1.7172 -1.8631 -0.8945
32446SOL     OW  614   8.308   8.791   1.116 -0.0779 -0.0382  0.5505
32446SOL    HW1  615   8.264   8.742   1.185 -0.0103  0.1689  0.7446
32446SOL    HW2  616   8.369   8.729   1.077 -0.8804 -0.4689 -0.0385
32447SOL     OW  617   8.218   6.885   4.397  0.4918  0.2421  0.2762
32447SOL    HW1  618   8.140   6.877   4.453 -0.0909  0.2072 -0.5149
32447SOL    HW2  619   8.242   6.794   4.379  0.1872  0.2539 -0.1919
32448SOL     OW  620   4.055   4.681   7.320  0.3315  0.1652  0.1786
32448SOL    HW1  621   4.063   4.592   7.285  1.9252 -0.2322  1.4350
32448SOL    HW2  622   4.063   4.670   7.415  1.4963  1.7315  0.2942
32449SOL     OW  623   0.165   6.130   1.373 -0.0851 -1.1539 -0.4249
32449SOL    HW1  624   0.179   6.039   1.348 -0.7631 -1.7290  1.1181
32449SOL    HW2  625   0.070   6.142   1.369 -0.0402 -0.6805 -0.1513
32450SOL     OW  626   3.275   2.941   6.737 -0.1329  0.4380  0.9756
32450SOL    HW1  627   3.295   3.033   6.716 -2.7396  0.7050 -0.7468
32450SOL    HW2  628   3.195   2.945   6.789 -1.4354 -0.8927 -0.8244
32451SOL     OW  629   6.036   9.903   8.160  0.8241 -0.2071  0.5476
32451SOL    HW1  630   5.943   9.881   8.158  1.3691 -2.7893  0.8335
32451SOL    HW2  631   6.078   9.828   8.201  3.2833 -0.0377 -1.4022
32452SOL     OW  632   1.006   4.575   0.650  0.2234  0.4204  0.2831
32452SOL    HW1  633   0.934   4.516   0.673 -1.4920  1.5805 -1.8310
32452SOL    HW2  634   1.060   4.525   0.588 -0.4776  0.5836 -0.4680
32453SOL     OW  635  10.307   5.074   4.813  0.7994  0.5787  0.0769
32453SOL    HW1  636  10.228   5.128   4.816  0.1120 -0.3794 -0.3358
32453SOL    HW2  637  10.277   4.990   4.779  1.5195 -0.6381  2.2617
32454SOL     OW  638   5.215   0.850   2.037 -0.4062  0.3954  0.2471
32454SOL    HW1  639   5.185   0.778   2.093 -5.2109  1.8924  0.0762
32454SOL    HW2  640   5.236   0.808   1.953  0.0958 -1.1141  1.0913
32455SOL     OW  641   0.593   5.232   1.481 -0.1141  0.0450 -0.3024
32455SOL    HW1  642   0.529   5.187   1.425  1.1089 -0.2610 -1.5077
32455SOL    HW2  643   0.604   5.173   1.556 -1.1876  0.0813 -0.0990
32456SOL     OW  644   2.688   0.365   9.081 -0.4648 -0.1500 -0.2030
32456SOL    HW1  645   2.685   0.440   9.140  0.1241  1.0582 -1.6340
32456SOL    HW2  646   2.779   0.334   9.086 -0.0907  0.6866 -1.2818
32457SOL     OW  647   1.795   6.998  10.146 -0.3030  0.9992  0.1568
32457SOL    HW1  648   1.732   7.046  10.200 -2.1801 -0.0091 -0.9897
32457SOL    HW2  649   1.769   7.018  10.056  0.7547  0.2033 -0.3469
32458SOL     OW  650   9.491   9.604   5.522  0.4415  0.0317  0.7780
32458SOL    HW1  651   9.479   9.511   5.500  1.4220  0.2703 -1.0198
32458SOL    HW2  652   9.584   9.612   5.542  0.6111  0.8172 -0.2553
32459SOL     OW  653  11.029   2.706   7.339  0.1187 -0.1458 -0.3065
32459SOL    HW1  654  11.047   2.612   7.337 -0.4505 -0.2541 -0.4617
32459SOL    HW2  655  11.114   2.747   7.320  0.6294 -0.5937  0.9305
32460SOL     OW  656   4.422   1.613   4.341  0.4288  0.2619 -0.3667
32460SOL    HW1  657   4.444   1.614   4.435 -2.1594  1.8793  0.3298
32460SOL    HW2  658   4.369   1.535   4.330  0.1115  0.4676 -0.3076
32461SOL     OW  659   0.353   0.754   7.503 -0.1338  0.2081  0.1322
32461SOL    HW1  660   0.345   0.849   7.515 -0.0494  0.1061  1.0374
32461SOL    HW2  661   0.264   0.721   7.510  0.0034  0.0618  1.3094
32462SOL     OW  662  10.047   7.953   9.625  0.3972 -0.2622  0.0228
32462SOL    HW1  663  10.018   7.970   9.535  0.1136  0.4483  0.2459
32462SOL    HW2  664   9.995   7.878   9.653  0.5388 -0.5374 -0.4280
32463SOL     OW  665   7.073   8.566   9.620 -0.2090 -0.1288 -0.7919
32463SOL    HW1  666   7.124   8.644   9.639  0.2085  0.1379 -2.7688
32463SOL    HW2  667   6.983   8.590   9.643  0.1506  0.2973  0.2417
32464SOL     OW  668   3.375   5.321   5.776  0.3205  0.2687  0.2298
32464SOL    HW1  669   3.392   5.411   5.748 -0.6314  0.4530  0.1813
32464SOL    HW2  670   3.290   5.300   5.736  0.3127 -0.4881  0.6257
32465SOL     OW  671   7.586   0.405   0.868 -0.4047  0.3095 -0.3687
32465SOL    HW1  672   7.619   0.319   0.842  2.1136  1.1867 -0.3937
32465SOL    HW2  673   7.549   0.442   0.787 -0.9513 -0.4929 -0.4932
32466SOL     OW  674   5.316   0.812   2.757  0.5879  0.2194 -0.2135
32466SOL    HW1  675   5.399   0.852   2.785 -0.6918  1.0000  2.8096
32466SOL    HW2  676   5.265   0.886   2.723  0.9306 -0.2047 -1.7403
32467SOL     OW  677   6.742  11.288   8.071  0.2111 -0.7991 -0.5234
32467SOL    HW1  678   6.717  11.344   8.145 -0.8166 -1.8371 -0.0575
32467SOL    HW2  679   6.736  11.346   7.995 -0.4496 -0.1537  0.0009
32468SOL     OW  680   5.125  10.515   9.093 -0.1462 -0.1996  0.0963
32468SOL    HW1  681   5.032  10.535   9.086 -0.2863 -0.8296  0.1319
32468SOL    HW2  682   5.162  10.592   9.135 -0.8111 -0.3320  0.9646
32469SOL     OW  683   6.488   3.654   7.411  0.3709  0.3269  0.2921
32469SOL    HW1  684   6.456   3.742   7.431  1.3019  0.5867  0.7007
32469SOL    HW2  685   6.557   3.638   7.476 -0.8427 -1.3382  1.2373
32470SOL     OW  686  10.969   5.427  11.023 -0.2245  0.0203 -0.5214
32470SOL    HW1  687  10.896   5.486  11.004 -0.0681  0.1394 -0.7583
32470SOL    HW2  688  11.026   5.434  10.947  1.1760  1.6387  0.6203
32471SOL     OW  689   9.147   3.714  11.152 -0.8223  0.2932  0.0960
32471SOL    HW1  690   9.106   3.638  11.111  1.2262 -0.6006 -0.3993
32471SOL    HW2  691   9.118   3.788  11.099  0.2233 -0.6160 -1.8393
32472SOL     OW  692  10.005   9.142   0.688 -0.3778 -0.3038  0.7148
32472SOL    HW1  693   9.982   9.111   0.776  0.7428 -1.0225  0.7741
32472SOL    HW2  694  10.078   9.203   0.703  0.8231 -1.5670  0.1850
32473SOL     OW  695   0.481   6.426   8.146  0.0867 -0.0232 -0.3105
32473SOL    HW1  696   0.454   6.478   8.222 -0.9407 -1.9830  0.7517
32473SOL    HW2  697   0.420   6.452   8.076  0.7417  1.4602 -0.3643
32474SOL     OW  698   7.467   3.565   7.159  0.0121 -0.3182 -0.1866
32474SOL    HW1  699   7.557   3.546   7.184  0.5597  0.8819 -1.1193
32474SOL    HW2  700   7.447   3.500   7.091  0.4069 -0.1870 -0.4319
32475SOL     OW  701   0.108   1.228  10.633 -0.2705 -0.2270  0.2683
32475SOL    HW1  702   0.197   1.205  10.660 -1.1600 -1.6081  2.3095
32475SOL    HW2  703   0.094   1.315  10.670  0.7403  0.7098 -1.4588
32476SOL     OW  704  10.107   5.195   4.540  0.1190 -0.0951  0.2947
32476SOL    HW1  705  10.166   5.207   4.615  0.8159  0.0706 -0.2718
32476SOL    HW2  706  10.043   5.130   4.570 -0.3297  0.8381  1.4435
32477SOL     OW  707   6.933   5.058   1.154  0.2758  0.3118 -0.0228
32477SOL    HW1  708   6.881   5.051   1.234  1.8658 -0.3792  0.9908
32477SOL    HW2  709   6.938   5.152   1.137 -0.1456  0.4602  0.6412
32478SOL     OW  710   9.207  10.057   2.096 -0.2811 -0.5741  0.1823
32478SOL    HW1  711   9.121  10.039   2.059 -0.2999  0.4651 -0.3293
32478SOL    HW2  712   9.199  10.032   2.188 -1.0961 -0.5833  0.1182
32479SOL     OW  713   2.084   8.281   9.573 -0.3358  0.2719  0.1500
32479SOL    HW1  714   2.143   8.207   9.558  0.5959  1.0813 -0.2886
32479SOL    HW2  715   2.011   8.244   9.622  0.3189 -0.8508  0.3080
32480SOL     OW  716   7.575   8.227   1.936  0.0069  0.5947  0.2609
32480SOL    HW1  717   7.500   8.283   1.956  1.5893  2.0925  2.4786
32480SOL    HW2  718   7.553   8.142   1.976 -0.9763  0.6349 -0.1611
32481SOL     OW  719   5.855   3.089   7.205  0.8015  0.6309 -0.7323
32481SOL    HW1  720   5.797   3.020   7.235  0.0591  1.5816  0.0764
32481SOL    HW2  721   5.932   3.043   7.171 -0.1032 -0.6137 -1.1468
32482SOL     OW  722   7.957   5.694   8.394  0.9458  0.1344  0.3528
32482SOL    HW1  723   7.862   5.682   8.399  0.4487  1.7131 -2.8100
32482SOL    HW2  724   7.992   5.636   8.463 -2.2597 -0.2660  1.8391
32483SOL     OW  725   9.838  10.521   5.108 -0.2750 -0.1511 -0.3820
32483SOL    HW1  726   9.779  10.592   5.132 -1.2372 -0.8362 -0.6370
32483SOL    HW2  727   9.797  10.481   5.031  1.1020  0.0417 -1.2463
32484SOL     OW  728   4.516   9.957   7.121 -0.2375 -0.7584  0.5372
32484SOL    HW1  729   4.467   9.972   7.202 -0.3186 -0.6526  0.4681
32484SOL    HW2  730   4.535   9.863   7.122 -0.0201 -0.7135  0.8035
32485SOL     OW  731   9.817   0.813   7.516 -0.1002 -0.0152 -0.1742
32485SOL    HW1  732   9.749   0.774   7.461 -0.4847  0.4541 -0.0459
32485SOL    HW2  733   9.797   0.907   7.514 -1.8181 -0.1979  2.9953
32486SOL     OW  734   4.102   0.746   5.276 -0.2131  0.0233  0.2912
32486SOL    HW1  735   4.024   0.766   5.328  0.5489 -2.6336  2.6965
32486SOL    HW2  736   4.073   0.679   5.213 -0.0514 -0.3951  0.6597
32487SOL     OW  737   0.268  10.636   6.024  0.0430 -0.1072 -0.4155
32487SOL    HW1  738   0.185  10.622   5.978  0.0178 -0.6845 -0.1984
32487SOL    HW2  739   0.243  10.640   6.116  0.3181 -0.8100 -0.3075
32488SOL     OW  740   1.504   4.906   9.214 -0.1475  0.2436 -0.1752
32488SOL    HW1  741   1.489   4.892   9.120 -0.4383 -1.0196  0.0301
32488SOL    HW2  742   1.418   4.891   9.254  0.3439 -1.0802  0.4541
32489SOL     OW  743   9.780   1.929   9.112 -0.4866  0.1886 -0.2023
32489SOL    HW1  744   9.783   1.939   9.017  2.3954 -2.2856 -0.5333
32489SOL    HW2  745   9.801   1.837   9.127  0.8929  0.8722  2.8306
32490SOL     OW  746   1.372   3.381   1.092 -0.5324  0.4421  0.0028
32490SOL    HW1  747   1.408   3.292   1.093  0.7647  0.8990 -1.2951
32490SOL    HW2  748   1.395   3.417   1.177 -1.1407 -0.4622  0.5765
32491SOL     OW  749   3.313   5.717   8.740  0.1401  0.2642  0.2948
32491SOL    HW1  750   3.377   5.684   8.677  0.0962 -1.9569  1.3139
32491SOL    HW2  751   3.360   5.716   8.824 -0.9233 -0.5738  0.9060
32492SOL     OW  752   2.117   2.593   8.377  0.1203  0.1904  0.2667
32492SOL    HW1  753   2.174   2.541   8.433  0.2232  0.1689  0.1411
32492SOL    HW2  754   2.090   2.532   8.308 -2.0577 -0.5618  1.6635
32493SOL     OW  755   9.682   6.867   0.827 -0.0293  0.3141 -0.3336
32493SOL    HW1  756   9.683   6.871   0.731  2.7931 -1.9799 -0.5212
32493SOL    HW2  757   9.636   6.785   0.847 -1.5002  1.2673  0.3896
32494SOL     OW  758  10.554   4.203   6.189  0.2689 -0.3138  0.1424
32494SOL    HW1  759  10.518   4.289   6.210  1.3127  0.0640  0.4408
32494SOL    HW2  760  10.640   4.222   6.151  0.5690 -1.2227  0.3453
32495SOL     OW  761   7.627   9.815   1.763  0.1036  0.2694  0.3379
32495SOL    HW1  762   7.573   9.750   1.717  1.6508  0.0508 -1.2899
32495SOL    HW2  763   7.689   9.764   1.814 -0.1776  0.4987  0.9108
32496SOL     OW  764   4.916   3.284   9.690  0.1570  0.2164 -0.0732
32496SOL    HW1  765   4.994   3.304   9.742 -0.5677  0.9593  0.7810
32496SOL    HW2  766   4.864   3.227   9.747 -1.8739  3.1256  1.2174
32497SOL     OW  767   8.788   7.995   0.312  0.2577  0.3241 -0.3368
32497SOL    HW1  768   8.697   7.966   0.306  0.3890  0.1234 -1.6330
32497SOL    HW2  769   8.794   8.036   0.398 -0.6221 -1.1482  0.4819
32498SOL     OW  770   5.482   5.587   5.531  0.3521  0.0001  0.1927
32498SOL    HW1  771   5.453   5.678   5.534 -0.7934 -0.3742  1.3884
32498SOL    HW2  772   5.416   5.542   5.479 -0.3095 -0.5287  1.4437
32499SOL     OW  773   4.441  11.133   0.266 -0.3526 -0.2023  0.3636
32499SOL    HW1  774   4.535  11.142   0.284 -0.2514  0.4528 -0.4488
32499SOL    HW2  775   4.435  11.131   0.171 -1.0184 -2.0040  0.4144
32500SOL     OW  776   0.689   4.258   6.004  0.6899 -0.4036  0.1276
32500SOL    HW1  777   0.674   4.280   5.912  2.3300 -0.9686 -0.3165
32500SOL    HW2  778   0.602   4.250   6.042 -0.0398  2.4772 -0.7064
32501SOL     OW  779   6.263  10.563  11.254 -0.2574 -0.1638 -0.0606
32501SOL    HW1  780   6.288  10.637  11.199  2.1112 -0.4760  0.4786
32501SOL    HW2  781   6.199  10.599  11.316 -0.7183  0.8851 -1.1068
32502SOL     OW  782   4.643   7.037   1.498 -0.2965  0.4400  0.4099
32502SOL    HW1  783   4.659   6.947   1.527  0.3228  1.0019  1.8739
32502SOL    HW2  784   4.714   7.088   1.536  0.3309  1.3231 -1.7761
32503SOL     OW  785   4.989   4.376   8.705  0.2426 -0.5553  0.2761
32503SOL    HW1  786   4.953   4.287   8.703 -0.4813 -0.4533  3.2461
32503SOL    HW2  787   4.993   4.397   8.798  1.5548  2.0948 -0.2971
32504SOL     OW  788   3.560   9.705   5.714 -0.5331 -0.2422  0.1572
32504SOL    HW1  789   3.576   9.641   5.644 -0.1191 -0.3387  0.3365
32504SOL    HW2  790   3.561   9.653   5.794  1.3142  0.1807  0.4513
32505SOL     OW  791   8.411   1.828   7.935 -0.5539  0.1206 -0.4527
32505SOL    HW1  792   8.446   1.767   7.870  1.3941  0.6925 -0.0128
32505SOL    HW2  793   8.485   1.846   7.993 -1.9440  0.4563  1.3101
32506SOL     OW  794   4.212   4.355   9.261 -0.1084  0.1096 -0.1169
32506SOL    HW1  795   4.144   4.337   9.196 -0.5785 -2.4742  0.9399
32506SOL    HW2  796   4.294   4.350   9.212 -0.5483  3.5242 -1.4618
32507SOL     OW  797   4.355   1.647   1.221  0.5934 -0.2556  0.1966
32507SOL    HW1  798   4.283   1.673   1.164  1.1397 -2.9589 -1.9297
32507SOL    HW2  799   4.312   1.610   1.298 -0.2155  0.4391  0.1015
32508SOL     OW  800   7.068   6.353   5.187 -0.1762  0.0413 -0.4637
32508SOL    HW1  801   7.035   6.285   5.129 -0.8676  0.5342 -0.6494
32508SOL    HW2  802   7.159   6.366   5.159 -0.3143 -0.1698 -1.0102
32509SOL     OW  803   4.662   8.700   3.056 -0.0444 -0.3967  0.0414
32509SOL    HW1  804   4.744   8.744   3.034  0.3679 -0.5999  1.1003
32509SOL    HW2  805   4.604   8.718   2.982  0.8099  0.1196 -0.5172
32510SOL     OW  806   5.842   6.439   4.538  0.4016 -0.4126 -0.1326
32510SOL    HW1  807   5.928   6.442   4.579  0.1509  0.2523  0.3791
32510SOL    HW2  808   5.836   6.352   4.498  1.5085 -0.2694 -0.6288
32511SOL     OW  809   7.101  10.751   6.782 -0.1690  0.0280 -0.4190
32511SOL    HW1  810   7.098  10.741   6.687  0.9686 -1.3173 -0.3375
32511SOL    HW2  811   7.042  10.824   6.800 -1.8140 -0.8278 -1.9947
32512SOL     OW  812   5.430   5.370   1.790  0.4217  0.1188  0.4323
32512SOL    HW1  813   5.336   5.359   1.802  0.4385  0.1923  0.6327
32512SOL    HW2  814   5.455   5.300   1.730  0.1335  0.4815 -0.1259
32513SOL     OW  815   8.217   4.159   2.410 -0.3882  0.3559  0.0919
32513SOL    HW1  816   8.212   4.222   2.338 -0.3866  1.8244  1.3197
32513SOL    HW2  817   8.254   4.080   2.371 -0.2241  1.1659 -1.4649
32514SOL     OW  818   0.446   5.125   6.506 -0.2827  0.3802  0.0828
32514SOL    HW1  819   0.408   5.186   6.443  0.9211  0.5523 -0.4924
32514SOL    HW2  820   0.504   5.178   6.560  1.1742 -0.2907 -0.7499
32515SOL     OW  821   7.473   9.240   4.368 -0.3809 -0.1465 -1.0749
32515SOL    HW1  822   7.489   9.146   4.378 -1.3653 -0.3376 -1.2457
32515SOL    HW2  823   7.390   9.256   4.412  0.4605  0.9271  0.2413
32516SOL     OW  824   8.749   2.562   4.047 -0.0770 -0.5074 -0.6574
32516SOL    HW1  825   8.678   2.607   4.001  0.2358  0.2943 -0.3654
32516SOL    HW2  826   8.818   2.628   4.055  0.0281 -0.7568  0.6129
32517SOL     OW  827   4.560   7.559   9.923  0.0248 -0.0274  0.8135
32517SOL    HW1  828   4.480   7.533   9.877 -1.0095  0.4336  2.2649
32517SOL    HW2  829   4.570   7.494   9.993  0.6413  0.2224  0.9681
32518SOL     OW  830   1.721   1.953  10.840  0.1537  0.4288  0.1163
32518SOL    HW1  831   1.644   1.992  10.880 -0.7289 -1.0343 -0.0473
32518SOL    HW2  832   1.711   1.971  10.747 -1.2398 -1.6502 -0.2087
32519SOL     OW  833   4.318   8.179   0.416  0.2734 -0.2559  0.5874
32519SOL    HW1  834   4.373   8.125   0.360 -0.8759 -0.1365 -0.6939
32519SOL    HW2  835   4.323   8.266   0.378  0.4332  0.1079  1.4030
32520SOL     OW  836   9.383   6.433   8.421 -0.0789  0.1202 -0.5350
32520SOL    HW1  837   9.426   6.506   8.465 -1.3770 -0.8441  2.5786
32520SOL    HW2  838   9.404   6.356   8.474 -1.7546 -1.1550 -1.5819
32521SOL     OW  839   3.650   1.645   6.588 -0.6605  0.1445  0.7771
32521SOL    HW1  840   3.637   1.558   6.550 -0.6328  0.1540  0.7457
32521SOL    HW2  841   3.589   1.701   6.540 -0.0291  0.3187  0.1669
32522SOL     OW  842   0.885   0.039   0.466  0.2537  0.4911  0.4803
32522SOL    HW1  843   0.849   0.004   0.385  1.5010 -1.7229  0.8161
32522SOL    HW2  844   0.820   0.019   0.533  0.1258  0.5344  0.3702
32523SOL     OW  845  11.199   2.999   8.739 -0.7553  0.2590  0.1734
32523SOL    HW1  846  11.272   3.060   8.731  1.1380 -1.8321  0.4167
32523SOL    HW2  847  11.127   3.041   8.693  0.1317  3.0608  1.1734
32524SOL     OW  848  10.363   3.408   1.671 -0.4532 -0.2336  0.4538
32524SOL    HW1  849  10.330   3.491   1.638 -3.0277 -1.0362  0.8465
32524SOL    HW2  850  10.347   3.412   1.766  0.2199 -0.8479  0.6049
32525SOL     OW  851   8.823   6.280   4.640 -0.2508  0.1098 -0.3297
32525SOL    HW1  852   8.793   6.236   4.561 -0.9615  1.8342 -1.0597
32525SOL    HW2  853   8.888   6.220   4.678 -1.2719 -1.6099 -1.1755
32526SOL     OW  854   3.923   8.012   0.958  0.1986  0.2734 -0.5162
32526SOL    HW1  855   4.005   8.036   0.915  0.4913  0.6095  0.2044
32526SOL    HW2  856   3.863   8.082   0.934  0.1388  0.0666 -0.9841
32527SOL     OW  857   1.023   1.369  11.271 -0.2056 -0.5612 -0.3714
32527SOL    HW1  858   0.997   1.454  11.235 -0.6233 -0.6335 -0.2540
32527SOL    HW2  859   1.062   1.322  11.198  1.3970  0.2756 -0.0971
32528SOL     OW  860   0.934   7.489   8.170 -0.1006 -0.1312 -0.0030
32528SOL    HW1  861   0.988   7.533   8.105  1.7730 -2.3959 -0.1412
32528SOL    HW2  862   0.959   7.529   8.253  3.1598 -2.0889  0.1533
32529SOL     OW  863   5.211   0.811   3.130  0.4044 -0.5811  0.0362
32529SOL    HW1  864   5.132   0.779   3.174  0.9919 -0.5631  1.1193
32529SOL    HW2  865   5.194   0.904   3.115  0.4724 -0.4367  0.8330
32530SOL     OW  866   0.747   0.533   2.261 -0.9180  0.1961  0.9056
32530SOL    HW1  867   0.795   0.549   2.179 -3.7590  3.1875 -0.4230
32530SOL    HW2  868   0.813   0.546   2.330  1.3190 -1.3319 -0.7900
32531SOL     OW  869   1.306   6.861   2.754 -0.1589  0.5854 -0.0495
32531SOL    HW1  870   1.271   6.910   2.828 -0.6625  1.2341 -0.7019
32531SOL    HW2  871   1.322   6.927   2.687  0.9566  0.0990 -0.2780
32532SOL     OW  872   3.412   9.186   0.022  0.7247  0.3270  0.4494
32532SOL    HW1  873   3.317   9.174   0.021  0.6112  0.9954  1.2417
32532SOL    HW2  874   3.447   9.112  -0.027 -0.1707 -0.3721  0.8372
32533SOL     OW  875   7.617   5.416   9.050 -0.0976  0.7690  0.2106
32533SOL    HW1  876   7.540   5.473   9.055  0.3636  1.3839  0.4052
32533SOL    HW2  877   7.608   5.358   9.125 -0.5178  0.6485  0.0727
32534SOL     OW  878   4.059   0.011   1.032  0.0192 -0.6317  0.2230
32534SOL    HW1  879   4.126  -0.057   1.021  0.5777  0.1957 -1.9684
32534SOL    HW2  880   4.092   0.066   1.103  0.2635 -1.8205  1.0549
32535SOL     OW  881   2.069  11.120   0.552 -0.7336 -0.0170 -0.7142
32535SOL    HW1  882   2.017  11.119   0.632  0.1909  0.4400 -0.0876
32535SOL    HW2  883   2.030  11.052   0.497 -1.2534 -0.4892  0.2069
32536SOL     OW  884   3.285   6.160   8.405  0.1029  0.4592  0.3055
32536SOL    HW1  885   3.258   6.215   8.332  1.8539  0.2409 -0.5695
32536SOL    HW2  886   3.319   6.221   8.470  0.5057  0.5363  0.0300
32537SOL     OW  887   3.860   1.149   4.222 -0.2723 -0.5285 -0.3034
32537SOL    HW1  888   3.934   1.200   4.188 -0.9781  1.4357  0.9669
32537SOL    HW2  889   3.803   1.136   4.147 -1.3645  2.9326 -0.2362
32538SOL     OW  890   6.380   9.359   3.236 -0.1800  0.0765 -0.1997
32538SOL    HW1  891   6.303   9.327   3.189  0.6405  0.0629 -1.5849
32538SOL    HW2  892   6.384   9.305   3.315  0.5907 -2.6557 -1.9638
32539SOL     OW  893   0.814   8.341   1.370  0.3892 -0.2661  0.0630
32539SOL    HW1  894   0.897   8.361   1.413 -0.1087 -1.9604  1.9714
32539SOL    HW2  895   0.837   8.275   1.304  0.5756 -0.8954  0.7355
32540SOL     OW  896  10.992   2.059  10.862 -0.1338 -0.1134  0.2078
32540SOL    HW1  897  11.052   2.126  10.830 -1.9405  1.3240 -0.3729
32540SOL    HW2  898  10.999   1.988  10.798  3.1257 -1.4142  1.7697
32541SOL     OW  899   9.610   2.608   5.851 -0.2353  0.3162 -0.3763
32541SOL    HW1  900   9.594   2.568   5.766 -0.2897 -0.8325  0.1591
32541SOL    HW2  901   9.530   2.657   5.870  0.0486  1.1754 -1.2864
32542SOL     OW  902   0.498  10.925   5.539  0.1813 -0.5877 -0.0998
32542SOL    HW1  903   0.430  10.992   5.533 -1.1395 -1.9428 -0.9345
32542SOL    HW2  904   0.466  10.866   5.608  2.0210  0.3219  1.6479
32543SOL     OW  905   0.846   2.283   3.811 -0.5200  0.6321  0.5868
32543SOL    HW1  906   0.817   2.344   3.878 -1.3009  0.6006  0.2897
32543SOL    HW2  907   0.768   2.232   3.789  0.0847 -0.4137  0.7545
32544SOL     OW  908   3.509  11.309   9.158 -0.1182 -0.2339  0.2066
32544SOL    HW1  909   3.594  11.275   9.184  0.7488  1.9658  0.4621
32544SOL    HW2  910   3.477  11.246   9.093  2.0762 -0.6731 -0.5273
32545SOL     OW  911   5.905   4.939   4.365 -0.2984 -0.1612  0.8752
32545SOL    HW1  912   5.819   4.978   4.350  0.5379  1.1220 -0.9201
32545SOL    HW2  913   5.926   4.960   4.456 -0.7918  1.8095  0.5816
32546SOL     OW  914   2.870   4.643   7.589 -0.1555  0.0718  0.1182
32546SOL    HW1  915   2.947   4.586   7.586 -0.9144 -0.9463 -1.3664
32546SOL    HW2  916   2.798   4.587   7.562 -0.8255  1.8895 -2.2426
32547SOL     OW  917  10.338   3.353   9.937  0.0611 -0.2776 -1.1349
32547SOL    HW1  918  10.310   3.361  10.028  0.3317 -0.0109 -1.0726
32547SOL    HW2  919  10.280   3.287   9.899 -0.5137  0.1234 -0.9572
32548SOL     OW  920   0.113   1.762  10.624 -0.0989  0.1591 -0.0763
32548SOL    HW1  921   0.121   1.763  10.720  1.2681  0.2864 -0.1766
32548SOL    HW2  922   0.184   1.818  10.593  0.5814 -1.2698 -1.2320
32549SOL     OW  923   7.518   6.940   2.055  0.6324  0.4623  0.2765
32549SOL    HW1  924   7.441   6.977   2.013  0.2764  1.1167  1.4744
32549SOL    HW2  925   7.590   6.958   1.994  0.4261  2.8876  0.6745
32550SOL     OW  926   1.543   6.247   7.413  0.7166  0.0353  0.2594
32550SOL    HW1  927   1.549   6.208   7.325  0.4699  0.4531  0.0540
32550SOL    HW2  928   1.628   6.229   7.453  0.9331  0.0948 -0.1702
32551SOL     OW  929  11.282   3.367   3.583  0.0935 -0.0750 -0.2114
32551SOL    HW1  930  11.321   3.358   3.496 -0.5276  1.1545 -0.6416
32551SOL    HW2  931  11.325   3.444   3.621 -0.4907  0.1128  0.0856
32552SOL     OW  932   7.932   7.490  10.302  0.4315 -0.4142  0.2432
32552SOL    HW1  933   7.990   7.425  10.261  0.9047  0.3501 -0.3276
32552SOL    HW2  934   7.989   7.536  10.364 -0.3681 -1.8058  2.0753
32553SOL     OW  935   3.503   2.942   7.171  0.9226  0.1177 -0.0159
32553SOL    HW1  936   3.513   2.866   7.112 -0.7212 -1.2485  1.3440
32553SOL    HW2  937   3.459   3.008   7.117 -0.0376 -0.8968 -0.5407
32554SOL     OW  938   8.958   5.495   8.529  0.2619  0.6526  0.3747
32554SOL    HW1  939   9.043   5.519   8.565  0.3668  1.3725 -0.3275
32554SOL    HW2  940   8.897   5.559   8.565 -0.1091 -0.2143  1.3498
32555SOL     OW  941   2.679   6.303   9.812 -0.2389 -0.0624  0.2487
32555SOL    HW1  942   2.675   6.394   9.783  0.5742 -0.1517 -0.1597
32555SOL    HW2  943   2.592   6.286   9.848 -0.5133  0.7658  0.0028
32556SOL     OW  944   5.289   4.389   2.550 -0.5875  0.0713 -0.4038
32556SOL    HW1  945   5.201   4.398   2.513  0.0221  2.0714 -1.5124
32556SOL    HW2  946   5.341   4.456   2.506  1.0191  0.3351  1.7109
32557SOL     OW  947   5.229   0.189   7.437  0.4975  0.0324  0.3262
32557SOL    HW1  948   5.166   0.254   7.405 -0.0983 -0.8254 -0.2974
32557SOL    HW2  949   5.279   0.235   7.504 -1.0303  0.6565  1.0931
32558SOL     OW  950   5.346   5.623   8.459 -0.8113 -0.1039  0.4800
32558SOL    HW1  951   5.436   5.640   8.431 -0.3590 -2.1238  0.5200
32558SOL    HW2  952   5.351   5.538   8.504 -2.8337 -0.6059 -0.1393
32559SOL     OW  953   0.329   3.198   9.824  0.7712  0.7858 -0.2283
32559SOL    HW1  954   0.391   3.182   9.896 -0.4656 -1.5324  0.4066
32559SOL    HW2  955   0.318   3.293   9.824  1.8185  0.9836  1.7833
32560SOL     OW  956   0.124   8.636   7.060 -0.8346 -0.0334 -0.0978
32560SOL    HW1  957   0.101   8.548   7.090 -0.7939  0.0029  0.0446
32560SOL    HW2  958   0.067   8.694   7.111 -0.2988  0.0697  0.3998
32561SOL     OW  959   1.705   5.342   8.175 -0.0745 -0.5620  0.0484
32561SOL    HW1  960   1.682   5.341   8.082  0.2212  0.4226 -0.0513
32561SOL    HW2  961   1.790   5.297   8.179 -0.0557 -0.5478 -0.1772
32562SOL     OW  962   4.983   8.722   7.670  0.1568  0.0965 -0.2881
32562SOL    HW1  963   4.948   8.799   7.625 -1.1695 -0.4500 -0.2353
32562SOL    HW2  964   4.932   8.649   7.635  1.0201 -0.6946  0.0696
32563SOL     OW  965   5.096   9.206   1.810 -0.8000 -0.5628  0.2650
32563SOL    HW1  966   5.167   9.216   1.874 -1.3096 -1.9594  1.0953
32563SOL    HW2  967   5.043   9.134   1.844 -0.3989 -2.2172 -2.3833
32564SOL     OW  968   2.203  10.430   9.439  0.4224 -0.3983  0.0417
32564SOL    HW1  969   2.127  10.387   9.477  0.4967 -1.8733 -1.3701
32564SOL    HW2  970   2.166  10.492   9.376  0.3569  0.6889  1.1114
32565SOL     OW  971   9.511   8.723   5.371  1.0478  0.2265 -0.2900
32565SOL    HW1  972   9.487   8.802   5.419 -0.2490 -0.0551 -0.4352
32565SOL    HW2  973   9.447   8.657   5.400  0.5657 -0.0963 -1.9772
32566SOL     OW  974   5.997   3.129   1.762  0.3623  0.3512 -0.0787
32566SOL    HW1  975   6.021   3.139   1.670 -3.8887 -2.7682 -1.8979
32566SOL    HW2  976   6.022   3.040   1.784 -1.0915  0.1174  0.8038
32567SOL     OW  977   8.465   2.261   5.018  0.0319  0.1096 -0.6369
32567SOL    HW1  978   8.553   2.242   4.985  0.3698  2.4810 -1.2689
32567SOL    HW2  979   8.459   2.356   5.015 -1.5263  0.1826  2.1230
32568SOL     OW  980  10.301  10.700   1.373  0.2587  0.1472  0.3040
32568SOL    HW1  981  10.209  10.725   1.372  0.6822  2.4006  2.9186
32568SOL    HW2  982  10.308  10.636   1.444  0.4844 -1.4517 -1.0976
32569SOL     OW  983   0.984   6.696   2.389 -0.3586 -0.0989 -0.5337
32569SOL    HW1  984   0.988   6.660   2.300 -1.0787 -1.5871  0.0159
32569SOL    HW2  985   0.996   6.621   2.447  0.8644  0.9632  0.6506
32570SOL     OW  986   0.804   7.103  10.858 -0.2643  0.2587 -0.2362
32570SOL    HW1  987   0.742   7.154  10.911 -1.1486  0.3995 -1.3722
32570SOL    HW2  988   0.790   7.012  10.886  0.0890  0.4391  0.5640
32571SOL     OW  989   8.885   8.880  10.587 -0.5319 -0.0406 -0.0392
32571SOL    HW1  990   8.936   8.866  10.507  1.1120  0.1295  0.9232
32571SOL    HW2  991   8.808   8.929  10.559 -0.9271 -1.5504 -1.7790
32572SOL     OW  992   5.102   8.236   2.574 -0.2395  0.1661 -0.2254
32572SOL    HW1  993   5.042   8.233   2.649 -0.0997  1.7292 -0.0238
32572SOL    HW2  994   5.044   8.244   2.498 -0.3405 -0.1013 -0.1769
32573SOL     OW  995   3.040   9.772   9.704  0.1325 -0.1374  0.3029
32573SOL    HW1  996   3.062   9.790   9.795  0.0234 -0.8932  0.4870
32573SOL    HW2  997   3.008   9.682   9.705 -1.6350  0.4571 -0.1831
32574SOL     OW  998   0.179   3.722   4.234  0.6868  0.5829 -0.0509
32574SOL    HW1  999   0.193   3.638   4.190 -1.5152  0.1422  0.0063
32574SOL    HW2 1000   0.155   3.699   4.323  0.2614  1.2806  0.0180
32575SOL     OW 1001   5.504   4.918   6.542 -0.4027 -0.5162 -0.1626
32575SOL    HW1 1002   5.453   4.872   6.608 -1.1805  0.8159  0.2007
32575SOL    HW2 1003   5.445   4.986   6.508  0.8888  0.6367 -0.2028
32576SOL     OW 1004   9.679   8.948   6.696  0.1877  0.4853 -0.1180
32576SOL    HW1 1005   9.597   8.903   6.676  1.5572 -1.0585 -2.7283
32576SOL    HW2 1006   9.736   8.881   6.732  1.1429  0.8999 -0.8078
32577SOL     OW 1007   4.058   6.039   0.977 -0.0556  0.2475  0.0710
32577SOL    HW1 1008   4.005   6.024   0.900  0.2266 -0.1550 -0.0508
32577SOL    HW2 1009   4.007   6.100   1.031 -1.0310 -0.7928  0.3563
32578SOL     OW 1010   1.812   7.374   1.925  0.2025 -0.0386  0.0656
32578SOL    HW1 1011   1.874   7.446   1.913  1.2704 -1.2511 -2.3251
32578SOL    HW2 1012   1.726   7.416   1.923  0.7906  1.5980  2.8229
32579SOL     OW 1013   7.195   3.586   1.890 -0.0291 -0.4845 -0.7718
32579SOL    HW1 1014   7.104   3.596   1.863 -1.0447 -0.6372  2.2711
32579SOL    HW2 1015   7.199   3.498   1.927  1.3607 -0.4622 -0.8229
32580SOL     OW 1016   9.617  11.382   7.985  0.1317 -0.0500 -0.0432
32580SOL    HW1 1017   9.698  11.386   8.036  1.0798  0.8600 -1.5533
32580SOL    HW2 1018   9.548  11.398   8.049  1.2872  1.3561  0.9267
32581SOL     OW 1019   2.644   3.597   2.480 -0.4516 -0.7286 -0.8813
32581SOL    HW1 1020   2.629   3.604   2.385  0.0228  2.4337 -0.8375
32581SOL    HW2 1021   2.571   3.645   2.519  1.1822  1.0793  0.1085
32582SOL     OW 1022   4.210  10.788   8.123 -0.1050  0.4742 -0.5492
32582SOL    HW1 1023   4.117  10.779   8.141  0.0963 -1.0072 -0.1149
32582SOL    HW2 1024   4.238  10.864   8.174 -0.7469 -0.0682  0.6206
32583SOL     OW 1025  11.298   5.828   1.781  0.3549 -0.2929  0.4890
32583SOL    HW1 1026  11.212   5.834   1.823  0.0644  1.1801 -0.2419
32583SOL    HW2 1027  11.315   5.917   1.750  1.4369 -0.9144 -0.7731
32584SOL     OW 1028   8.981   8.726   6.173  0.2784 -0.3417 -0.3785
32584SOL    HW1 1029   8.886   8.738   6.171  0.3601  0.3990 -2.5763
32584SOL    HW2 1030   9.009   8.769   6.254 -1.3186 -1.3641  0.7732
32585SOL     OW 1031   5.829   0.816   4.915  0.0077  0.0880  0.2789
32585SOL    HW1 1032   5.792   0.892   4.959  0.5221  0.5524 -0.0701
32585SOL    HW2 1033   5.824   0.838   4.822 -0.6878 -0.7018  0.1226
32586SOL     OW 1034   3.246   5.282   8.011 -0.3462  0.7182 -0.0173
32586SOL    HW1 1035   3.195   5.363   8.005 -2.8572 -0.6641  0.8418
32586SOL    HW2 1036   3.268   5.260   7.920  1.0560  2.6955 -0.2011
32587SOL     OW 1037  10.229  10.032   7.510 -0.2793  0.2827 -0.0739
32587SOL    HW1 1038  10.298  10.047   7.445 -0.1868  0.6357  0.1041
32587SOL    HW2 1039  10.174   9.964   7.471  1.2326 -1.4128  0.5836
32588SOL     OW 1040   1.811   1.978   9.964 -0.2130  0.0242 -0.0940
32588SOL    HW1 1041   1.813   1.937  10.051 -0.8773 -1.2592 -0.6505
32588SOL    HW2 1042   1.718   1.994   9.948 -0.3084 -1.5054 -1.3240
32589SOL     OW 1043   6.687   8.967   6.200 -0.2045  0.5155  0.4609
32589SOL    HW1 1044   6.600   8.938   6.172  0.2231  0.0097 -0.3943
32589SOL    HW2 1045   6.727   8.889   6.237  0.4160  0.3539 -0.5125
32590SOL     OW 1046   9.148   3.586   7.960  0.1737  0.3903 -0.6392
32590SOL    HW1 1047   9.240   3.583   7.986 -0.2919 -0.1750  1.1246
32590SOL    HW2 1048   9.108   3.510   8.003 -0.8627 -0.1913 -2.5290
32591SOL     OW 1049   4.503  10.250   0.611 -0.5301 -0.4330  0.0335
32591SOL    HW1 1050   4.571  10.238   0.677 -1.3074  1.6801  1.3230
32591SOL    HW2 1051   4.551  10.261   0.529  0.7676  1.2068  0.9338
32592SOL     OW 1052   9.908   1.900   4.255  0.0047 -0.0156  0.5268
32592SOL    HW1 1053   9.953   1.826   4.212 -2.5269 -0.5689 -1.3873
32592SOL    HW2 1054   9.911   1.878   4.348  1.4018 -1.3124  0.2210
32593SOL     OW 1055   6.371   4.337  10.284  0.3587  0.2052 -0.2006
32593SOL    HW1 1056   6.411   4.423  10.298  1.3385 -0.2290 -0.2264
32593SOL    HW2 1057   6.431   4.293  10.223 -0.0295 -0.5721 -0.0312
32594SOL     OW 1058   8.084   9.099   9.085 -0.7018 -0.0154 -0.7595
32594SOL    HW1 1059   8.117   9.029   9.141 -0.0061 -0.2782 -1.4861
32594SOL    HW2 1060   7.989   9.097   9.099 -0.4514  0.9930  1.6389
32595SOL     OW 1061   2.112   4.957   7.749 -0.2894  0.4113 -0.3000
32595SOL    HW1 1062   2.092   4.880   7.695  0.7515 -1.4960  1.8459
32595SOL    HW2 1063   2.028   4.980   7.789 -0.9202  1.4010 -2.0903
32596SOL     OW 1064   0.803   3.430   6.331 -0.0258 -0.3370 -0.0818
32596SOL    HW1 1065   0.809   3.523   6.353 -1.1367  0.3184 -2.2057
32596SOL    HW2 1066   0.712   3.417   6.305  0.0505 -2.0950  0.3667
32597SOL     OW 1067   0.639  10.762   0.296 -0.1486  0.2227 -0.9656
32597SOL    HW1 1068   0.659  10.807   0.214 -3.4165  1.3476 -1.2627
32597SOL    HW2 1069   0.622  10.671   0.271  2.9980 -0.5212 -0.8365
32598SOL     OW 1070   7.471   7.086   8.454 -0.1465  0.3961 -0.2423
32598SOL    HW1 1071   7.440   7.175   8.471 -1.1944  0.2623 -1.2825
32598SOL    HW2 1072   7.521   7.093   8.373 -0.0682  0.0701 -0.2247
32599SOL     OW 1073  10.526   6.941   8.034 -0.0692  0.2000 -0.1777
32599SOL    HW1 1074  10.493   6.996   8.106  0.5165 -0.1721  0.3783
32599SOL    HW2 1075  10.619   6.929   8.053 -0.4477 -2.0965  0.4506
32600SOL     OW 1076   1.280   5.444   6.031 -0.0851  0.1960 -0.1290
32600SOL    HW1 1077   1.215   5.376   6.051 -0.3692  0.4008 -0.3487
32600SOL    HW2 1078   1.364   5.401   6.043 -0.2632 -0.1183  0.0062
32601SOL     OW 1079   2.980   8.187   7.408  0.0284  0.4157 -0.0779
32601SOL    HW1 1080   2.955   8.191   7.500 -1.1122 -1.8293 -0.2085
32601SOL    HW2 1081   3.059   8.132   7.407 -1.9209 -2.6240 -0.6215
32602SOL     OW 1082   2.679   4.158   5.357 -0.7236  0.1695  0.1034
32602SOL    HW1 1083   2.671   4.063   5.361 -1.6232  0.1355 -1.4802
32602SOL    HW2 1084   2.612   4.190   5.418 -0.2120 -0.2047  0.8711
32603SOL     OW 1085   4.758   1.382   2.958  0.7735 -0.1866 -0.6361
32603SOL    HW1 1086   4.850   1.359   2.974  0.6948 -1.7700 -2.1315
32603SOL    HW2 1087   4.736   1.444   3.027  2.3334 -1.4808  1.1225
32604SOL     OW 1088   1.973   6.458   3.037 -0.4290 -0.2504  0.2409
32604SOL    HW1 1089   2.036   6.404   3.084  1.4341  1.5068 -0.1022
32604SOL    HW2 1090   1.935   6.400   2.972  2.3788 -0.9380 -0.9238
32605SOL     OW 1091  10.873   1.493  10.062  0.2539 -0.6567 -0.4049
32605SOL    HW1 1092  10.967   1.473  10.063  0.3731 -0.1341 -0.6995
32605SOL    HW2 1093  10.835   1.434  10.127  0.9867  0.1226  0.7594
32606SOL     OW 1094   3.830   7.730   7.775  0.2229  0.1930 -0.0802
32606SOL    HW1 1095   3.804   7.664   7.839 -0.7789  1.1578  0.5436
32606SOL    HW2 1096   3.925   7.735   7.783  0.0641  0.8272  1.8934
32607SOL     OW 1097   3.168   6.443   8.313  0.0507  0.0967  0.2759
32607SOL    HW1 1098   3.101   6.512   8.318 -1.8866 -1.5705 -1.0968
32607SOL    HW2 1099   3.233   6.469   8.378 -2.4917  1.2242  2.5879
32608SOL     OW 1100   1.814   0.359  10.448  0.2961  0.2459 -0.5325
32608SOL    HW1 1101   1.863   0.314  10.517 -2.8701 -0.6876  1.3063
32608SOL    HW2 1102   1.822   0.302  10.371 -1.0116 -1.9509  0.8512
32609SOL     OW 1103   3.746   3.693   7.914  0.3259 -0.6081 -0.6739
32609SOL    HW1 1104   3.837   3.718   7.926  0.8859 -2.6009 -0.3874
32609SOL    HW2 1105   3.698   3.748   7.975  1.6018 -0.9922  0.7477
32610SOL     OW 1106   3.024   7.849   6.448 -0.4732  0.0172  0.1171
32610SOL    HW1 1107   3.003   7.942   6.459 -0.1303  0.1155 -0.0175
32610SOL    HW2 1108   3.109   7.839   6.492 -0.7636 -0.3550  0.6120
32611SOL     OW 1109  10.248   4.357   8.576 -0.4360  0.2204 -0.2805
32611SOL    HW1 1110  10.225   4.448   8.556 -0.2278  0.0401 -1.3680
32611SOL    HW2 1111  10.340   4.349   8.548 -0.5411 -0.4060 -0.4598
32612SOL     OW 1112   8.951   3.070   3.036 -0.8835 -0.4695  0.6844
32612SOL    HW1 1113   8.871   3.075   3.088 -1.2139  1.0519  0.0930
32612SOL    HW2 1114   8.940   3.137   2.968  0.5398 -0.7980  0.0860
32613SOL     OW 1115   7.901   3.513   9.372  0.2179 -0.3485  0.2859
32613SOL    HW1 1116   7.940   3.501   9.459  0.7541 -0.1053  0.0856
32613SOL    HW2 1117   7.935   3.598   9.343 -1.8314  0.7140  0.8102
32614SOL     OW 1118  10.620   7.450   1.164  0.2040  0.2646 -0.0761
32614SOL    HW1 1119  10.713   7.449   1.140  0.5355  0.0797  1.1893
32614SOL    HW2 1120  10.581   7.381   1.111  0.4615  1.3616 -1.8011
32615SOL     OW 1121   2.005  11.041   5.734  0.0360 -0.2856  0.8964
32615SOL    HW1 1122   2.077  11.103   5.738 -0.7544  0.7264  0.1391
32615SOL    HW2 1123   1.934  11.083   5.783 -0.6947 -0.2797 -0.1114
32616SOL     OW 1124   6.666   2.291   5.487 -0.2197  0.2941  0.3747
32616SOL    HW1 1125   6.741   2.351   5.483  0.2005 -0.2601 -0.5781
32616SOL    HW2 1126   6.701   2.213   5.531 -0.2677  0.0874  0.0518
32617SOL     OW 1127   7.850  11.107   8.215 -0.5796 -0.5305  0.3895
32617SOL    HW1 1128   7.871  11.072   8.301 -0.3849 -0.7921  0.2349
32617SOL    HW2 1129   7.895  11.050   8.153  1.7092  1.3174  0.1895
32618SOL     OW 1130   1.456   5.280   4.205  0.2908 -0.0924 -0.7544
32618SOL    HW1 1131   1.533   5.301   4.257  0.9005 -0.5386 -1.4503
32618SOL    HW2 1132   1.388   5.263   4.270  0.8262  0.1148 -0.1210
32619SOL     OW 1133   4.121   2.006   1.974 -0.3345 -0.3376 -0.2118
32619SOL    HW1 1134   4.083   1.972   2.055 -0.6888  0.0726 -0.2043
32619SOL    HW2 1135   4.051   2.058   1.935  0.2704  0.5718 -0.1092
32620SOL     OW 1136   8.789   3.583   0.716 -0.1542 -0.1558  0.4524
32620SOL    HW1 1137   8.704   3.583   0.672 -0.0069  0.5274  0.1574
32620SOL    HW2 1138   8.833   3.505   0.682  0.0380  0.4692 -0.7919
32621SOL     OW 1139   1.611   9.936   1.082 -0.2383  1.3397 -0.0053
32621SOL    HW1 1140   1.669   9.990   1.135  2.0842 -0.8443 -0.1129
32621SOL    HW2 1141   1.528   9.937   1.129  0.8438  1.9638  2.0102
32622SOL     OW 1142   6.692   7.675   6.378  0.3154  0.5759 -0.0258
32622SOL    HW1 1143   6.653   7.629   6.452  1.9653 -0.1083  0.4832
32622SOL    HW2 1144   6.700   7.766   6.407  3.4489 -0.1427  1.8518
32623SOL     OW 1145  10.375   8.341   9.710  0.1768  0.9943  0.6616
32623SOL    HW1 1146  10.418   8.387   9.783 -0.2539  1.2030  0.7870
32623SOL    HW2 1147  10.292   8.387   9.698  0.0567  0.6940  0.3135
32624SOL     OW 1148   4.133   6.498   6.509  0.5057 -0.1378  0.6879
32624SOL    HW1 1149   4.158   6.580   6.552 -0.4744  1.1431 -1.0817
32624SOL    HW2 1150   4.214   6.463   6.474  0.6044  1.4700 -0.8044
32625SOL     OW 1151   0.553   4.390   7.621 -0.2113 -0.5033  0.2782
32625SOL    HW1 1152   0.570   4.320   7.557 -1.5103  0.1529 -0.8248
32625SOL    HW2 1153   0.533   4.467   7.567 -0.9982  0.1536  1.4779
32626SOL     OW 1154   6.397   2.302  10.438  0.0731 -0.5462  0.0369
32626SOL    HW1 1155   6.344   2.380  10.452  0.1274 -1.0013  3.8418
32626SOL    HW2 1156   6.485   2.337  10.420 -0.2280  0.2735  0.0938
32627SOL     OW 1157   4.302  10.041   0.575  0.1361  0.1960 -0.1899
32627SOL    HW1 1158   4.359  10.116   0.592  0.5200 -0.2208  0.3884
32627SOL    HW2 1159   4.327  10.011   0.488  1.7575 -0.7984  0.5701
32628SOL     OW 1160   6.385   7.017   1.855 -0.4665 -0.0421 -0.2324
32628SOL    HW1 1161   6.373   7.012   1.760 -1.2436  2.0785 -0.3125
32628SOL    HW2 1162   6.360   7.107   1.877 -0.0979 -0.4242  1.9617
32629SOL     OW 1163   8.603   9.044   0.351  0.1912 -0.1098  0.0087
32629SOL    HW1 1164   8.660   9.038   0.274 -0.0650 -2.1963 -0.0635
32629SOL    HW2 1165   8.582   8.954   0.373 -1.0001  0.5093  1.6206
32630SOL     OW 1166   5.352   8.629   5.443 -0.0022  0.0031 -0.2734
32630SOL    HW1 1167   5.342   8.597   5.533 -1.0123  1.2037  0.0817
32630SOL    HW2 1168   5.295   8.706   5.439  0.5974  0.4088 -1.7312
32631SOL     OW 1169  10.815   6.227   7.897  0.2886 -0.3754 -0.1369
32631SOL    HW1 1170  10.780   6.202   7.983 -1.2365 -0.4635 -0.7506
32631SOL    HW2 1171  10.805   6.322   7.895  0.9624 -0.2971  0.0417
32632SOL     OW 1172   0.460   9.077   1.186  0.2227 -0.6269  0.1910
32632SOL    HW1 1173   0.511   9.000   1.160 -1.0744 -0.7398 -2.3147
32632SOL    HW2 1174   0.494   9.148   1.130 -0.5252 -0.0691  0.4281
32633SOL     OW 1175  10.208   7.416   1.281  0.1739  0.3159  0.5207
32633SOL    HW1 1176  10.182   7.481   1.215 -0.2828  0.3762  0.7557
32633SOL    HW2 1177  10.293   7.447   1.313  1.3285 -0.7243 -1.3665
32634SOL     OW 1178  10.909   4.749   2.992  0.0466 -0.7751 -0.0026
32634SOL    HW1 1179  10.985   4.695   2.973  1.4752  0.6260  1.3805
32634SOL    HW2 1180  10.923   4.780   3.082  0.5661  3.6316 -1.3280
32635SOL     OW 1181  10.663   3.541   3.814  0.5324  0.0507  0.6793
32635SOL    HW1 1182  10.598   3.583   3.870  0.4275 -0.8137  1.2349
32635SOL    HW2 1183  10.659   3.588   3.731 -2.5869 -1.5132 -0.2064
32636SOL     OW 1184   9.651   1.278   3.619 -0.0121  0.1966  0.1979
32636SOL    HW1 1185   9.673   1.204   3.675 -0.3478 -1.6575 -1.9499
32636SOL    HW2 1186   9.715   1.274   3.548  0.4930  2.5450  0.4611
32637SOL     OW 1187  10.762   8.663   0.015  0.0789 -0.4119 -0.8892
32637SOL    HW1 1188  10.851   8.629   0.002 -0.3442 -1.6457 -0.7573
32637SOL    HW2 1189  10.717   8.592   0.061 -1.0068  0.1527 -1.0617
32638SOL     OW 1190   9.278   4.740  10.816 -0.7276 -0.6052 -0.0363
32638SOL    HW1 1191   9.194   4.750  10.771 -0.3482  1.1849 -0.4179
32638SOL    HW2 1192   9.336   4.699  10.752 -1.3676 -2.2287  0.3590
32639SOL     OW 1193  10.972   5.714   8.061  0.4358 -0.0416  0.8769
32639SOL    HW1 1194  10.886   5.673   8.071  1.0480 -1.6742 -0.2030
32639SOL    HW2 1195  11.034   5.645   8.083  1.4896  0.6667  0.1921
32640SOL     OW 1196   9.548   3.761   1.758 -0.5142  0.1108 -0.1478
32640SOL    HW1 1197   9.547   3.672   1.721  0.5540 -1.7801  3.8455
32640SOL    HW2 1198   9.640   3.777   1.777 -1.1243 -0.1674  3.7099
32641SOL     OW 1199  11.187  10.298   6.184  0.4885  0.0440  0.1536
32641SOL    HW1 1200  11.242  10.375   6.201 -0.0912  0.9244 -1.6024
32641SOL    HW2 1201  11.227  10.258   6.106 -0.4998 -0.1190 -0.2856
32642SOL     OW 1202   5.301   5.343   4.230  0.2161 -0.0355 -0.4118
32642SOL    HW1 1203   5.372   5.353   4.167  0.2794  1.4889 -0.1549
32642SOL    HW2 1204   5.341   5.365   4.314  0.3231 -2.7589  0.3382
32643SOL     OW 1205   7.963  10.996  10.372  0.2271  0.3070 -0.0523
32643SOL    HW1 1206   7.932  11.023  10.459 -1.7320 -0.4739 -0.4662
32643SOL    HW2 1207   7.912  11.049  10.311  2.9788  2.3335 -0.8274
32644SOL     OW 1208   0.958   9.889   2.626 -0.3369  0.2304  0.6710
32644SOL    HW1 1209   0.961   9.883   2.721  0.1375 -1.0532  0.5980
32644SOL    HW2 1210   1.049   9.878   2.598 -0.4858  0.4809  0.0694
32645SOL     OW 1211   5.904   8.693  10.783 -0.1479 -0.3385  0.3032
32645SOL    HW1 1212   5.810   8.686  10.801 -0.2014 -2.6818 -0.4651
32645SOL    HW2 1213   5.940   8.742  10.857 -2.0333  1.1511  0.2983
32646SOL     OW 1214   1.627   8.447   6.580  0.1636 -0.1727 -0.4983
32646SOL    HW1 1215   1.532   8.457   6.584  0.3009  0.7864  1.1701
32646SOL    HW2 1216   1.661   8.534   6.600  1.4218 -0.3579 -1.6434
32647SOL     OW 1217   9.352   1.998  11.261  0.0405  0.5490  0.1261
32647SOL    HW1 1218   9.381   2.071  11.206 -1.0746  1.4731  0.7144
32647SOL    HW2 1219   9.431   1.948  11.279  0.4301  0.0828 -2.4786
32648SOL     OW 1220   8.855   6.403   5.773 -0.1246 -0.0596 -0.1988
32648SOL    HW1 1221   8.798   6.476   5.749 -0.5594 -0.7135 -1.2804
32648SOL    HW2 1222   8.830   6.333   5.712  1.3085 -0.6135 -0.1998
32649SOL     OW 1223   4.449  10.678  10.660 -0.1580  0.4021 -0.3400
32649SOL    HW1 1224   4.406  10.731  10.727 -1.1719  0.9713 -1.4110
32649SOL    HW2 1225   4.466  10.595  10.704 -0.2014  0.9779  0.8217
32650SOL     OW 1226   9.889   3.089  10.933 -0.5130  0.2057 -0.0107
32650SOL    HW1 1227   9.935   3.007  10.917 -1.6118 -0.4271 -0.0579
32650SOL    HW2 1228   9.876   3.126  10.846  0.7811  0.9024  0.0722
32651SOL     OW 1229   0.737   7.310   5.051 -0.3843 -0.6320 -0.1641
32651SOL    HW1 1230   0.657   7.348   5.089 -0.6883 -0.7114 -0.7135
32651SOL    HW2 1231   0.742   7.348   4.963 -0.8098 -2.0106 -0.8086
32652SOL     OW 1232  10.948   0.338   0.749  0.0925 -0.3177 -0.3045
32652SOL    HW1 1233  10.957   0.277   0.676 -0.0196  0.8683 -1.3521
32652SOL    HW2 1234  10.904   0.288   0.817 -0.6233 -1.1958 -1.3807
32653SOL     OW 1235   4.413  10.490   7.849  0.3105 -0.0813  0.4439
32653SOL    HW1 1236   4.452  10.420   7.796 -1.9614 -0.0969 -1.4152
32653SOL    HW2 1237   4.369  10.444   7.920  0.4117 -0.4025  0.3024
32654SOL     OW 1238  10.144   5.338   1.184  0.7185 -0.1365  0.5535
32654SOL    HW1 1239  10.060   5.368   1.218  0.1299 -1.2340  0.1416
32654SOL    HW2 1240  10.207   5.361   1.252 -0.1997 -0.9571  1.7348
32655SOL     OW 1241   5.307   0.716   6.053 -0.1957  0.0892  0.4500
32655SOL    HW1 1242   5.243   0.786   6.047 -0.8898 -0.6095 -0.7410
32655SOL    HW2 1243   5.363   0.726   5.976  1.7460  1.2115  1.9056
32656SOL     OW 1244   0.371   3.754  10.332  0.3107 -0.6401 -0.2073
32656SOL    HW1 1245   0.380   3.763  10.427  0.6674  3.1152 -0.4381
32656SOL    HW2 1246   0.461   3.743  10.300  0.2826 -0.9586 -0.1797
32657SOL     OW 1247   4.714   3.169  10.352 -0.3780 -0.6206  0.0398
32657SOL    HW1 1248   4.737   3.261  10.336  1.2470 -0.9178  0.4783
32657SOL    HW2 1249   4.658   3.145  10.279  0.7760  0.1826 -1.1580
32658SOL     OW 1250   4.607   1.142   7.704 -0.0731  0.2061  0.6720
32658SOL    HW1 1251   4.692   1.132   7.748  0.1409  2.1566  0.7909
32658SOL    HW2 1252   4.601   1.065   7.647  2.2650  0.5091 -0.1189
32659SOL     OW 1253   4.244  10.517   3.936  0.2688  0.1625 -0.0878
32659SOL    HW1 1254   4.192  10.438   3.950 -0.8855  0.8783 -0.1850
32659SOL    HW2 1255   4.202  10.583   3.991  1.4873  0.6112  0.3449
32660SOL     OW 1256  10.388   2.138   4.090 -0.1689 -0.0028  0.2763
32660SOL    HW1 1257  10.375   2.220   4.138 -0.1682 -0.0148  0.2975
32660SOL    HW2 1258  10.425   2.165   4.006 -1.3886  0.1189 -0.2360
32661SOL     OW 1259  10.146   1.487   0.594  0.3695  0.2349 -0.1522
32661SOL    HW1 1260  10.175   1.395   0.597  0.8809  0.3437 -1.2263
32661SOL    HW2 1261  10.168   1.522   0.680  0.2510 -0.6283  0.2369
32662SOL     OW 1262   2.043   1.999   6.918  0.1534  0.6964 -0.3647
32662SOL    HW1 1263   2.030   1.924   6.860 -0.1846  0.3153  0.1877
32662SOL    HW2 1264   2.063   1.960   7.003 -1.4967  1.1982  0.2852
32663SOL     OW 1265   1.376   2.537   0.655 -0.4114 -0.5894 -0.3113
32663SOL    HW1 1266   1.293   2.551   0.701 -0.9634  0.7663 -1.6314
32663SOL    HW2 1267   1.354   2.479   0.583 -0.9169  1.9304 -2.3298
32664SOL     OW 1268   4.370   7.326   6.619 -0.4762 -0.3827  0.5394
32664SOL    HW1 1269   4.358   7.393   6.552 -2.0075 -0.3804  0.7858
32664SOL    HW2 1270   4.465   7.323   6.633 -0.0982 -0.5583 -1.7598
32665SOL     OW 1271   1.672  10.559   2.812 -0.2331  0.0022  0.2017
32665SOL    HW1 1272   1.706  10.648   2.809  0.0905 -0.1099  0.4799
32665SOL    HW2 1273   1.581  10.568   2.840 -0.0778  0.2132  0.6410
32666SOL     OW 1274   9.177  10.452   5.182 -0.1850 -0.0498 -0.6118
32666SOL    HW1 1275   9.261  10.466   5.137  0.4504  1.4725  0.9495
32666SOL    HW2 1276   9.180  10.510   5.257 -1.7659 -1.5499  0.6916
32667SOL     OW 1277   2.942  11.123   3.447  0.0150  0.6942 -0.4751
32667SOL    HW1 1278   3.022  11.085   3.483 -0.8370  0.5213  1.3290
32667SOL    HW2 1279   2.897  11.050   3.405 -0.3626  0.2375  0.6880
32668SOL     OW 1280   6.309   5.720   9.389  0.2503  0.2613  0.1559
32668SOL    HW1 1281   6.326   5.772   9.311  0.4527  2.0001  1.3097
32668SOL    HW2 1282   6.217   5.695   9.382  0.5417 -0.5880 -1.1589
32669SOL     OW 1283   5.666   1.931   4.901  0.3620 -0.3843 -0.2358
32669SOL    HW1 1284   5.601   1.910   4.967 -1.3480 -2.3326 -2.3504
32669SOL    HW2 1285   5.671   1.852   4.847  1.3906  1.1916 -2.6239
32670SOL     OW 1286   5.237   3.493   2.802 -0.1799 -0.4694  0.1021
32670SOL    HW1 1287   5.246   3.402   2.774  1.4326 -0.6608  1.1443
32670SOL    HW2 1288   5.237   3.543   2.721 -0.3065 -1.3329 -0.4419
32671SOL     OW 1289   2.603   5.771   2.683  0.3828 -0.0574  0.3149
32671SOL    HW1 1290   2.530   5.830   2.702 -0.6621 -1.2928  0.3007
32671SOL    HW2 1291   2.663   5.783   2.756 -1.3453 -1.2937  2.0749
32672SOL     OW 1292  10.250   3.097  10.445 -0.0997  0.1241  0.0257
32672SOL    HW1 1293  10.171   3.147  10.424  0.4074  0.8393 -0.2632
32672SOL    HW2 1294  10.247   3.085  10.539 -1.4889 -1.5096 -0.1929
32673SOL     OW 1295   5.200  10.339   0.473  0.3935  0.0101  0.0752
32673SOL    HW1 1296   5.154  10.267   0.517 -1.6681  0.0288 -1.8481
32673SOL    HW2 1297   5.231  10.395   0.544  0.3074 -1.7197  1.5659
32674SOL     OW 1298   2.980  11.396   6.690 -0.0688  0.3716 -0.9472
32674SOL    HW1 1299   3.037  11.471   6.706 -0.5886  0.4674  0.6490
32674SOL    HW2 1300   2.904  11.412   6.746 -0.5458 -0.9432 -1.1907
32675SOL     OW 1301   4.344   3.707   1.770  0.3591  0.0958  0.4919
32675SOL    HW1 1302   4.289   3.706   1.849  0.9931 -1.2020  0.9386
32675SOL    HW2 1303   4.286   3.677   1.700 -0.1413  1.0208  0.4987
32676SOL     OW 1304   0.029   9.568   8.839 -0.2312  0.4042  0.0608
32676SOL    HW1 1305   0.091   9.520   8.785  0.1321  1.4867 -0.5217
32676SOL    HW2 1306   0.037   9.528   8.926  1.5026  0.6901  0.0710
32677SOL     OW 1307   8.888   5.609   0.970  0.2339 -0.1412 -0.5006
32677SOL    HW1 1308   8.853   5.537   1.023 -1.7381  0.8560 -0.3404
32677SOL    HW2 1309   8.847   5.597   0.884  0.3715  0.4219 -0.6473
32678SOL     OW 1310   1.013   1.810  10.488 -0.2817 -0.1817 -0.5845
32678SOL    HW1 1311   1.059   1.893  10.498 -0.7592  0.2625 -1.8704
32678SOL    HW2 1312   0.934   1.832  10.438 -0.3652 -1.4105 -1.0384
32679SOL     OW 1313   3.755   1.300   7.553 -0.2012 -0.3731 -0.6217
32679SOL    HW1 1314   3.718   1.368   7.497  0.1671  0.1841 -0.1971
32679SOL    HW2 1315   3.748   1.220   7.502 -0.5794 -0.0010 -1.1534
32680SOL     OW 1316   8.474   4.055   1.289 -0.5999 -0.4367  0.1692
32680SOL    HW1 1317   8.516   4.061   1.374  0.0720 -1.4146 -0.0806
32680SOL    HW2 1318   8.412   3.983   1.297  0.7890 -1.7897 -0.6844
32681SOL     OW 1319   3.307  10.053   2.058  0.5356 -0.2171  0.3632
32681SOL    HW1 1320   3.304   9.971   2.008 -1.9919  1.1737 -2.0460
32681SOL    HW2 1321   3.216  10.066   2.087  1.0983  1.2316  1.5704
32682SOL     OW 1322   7.401   2.999   4.517  0.3199  0.0180 -0.2632
32682SOL    HW1 1323   7.441   3.082   4.545  2.8713 -1.3912  0.5168
32682SOL    HW2 1324   7.382   3.012   4.424  1.0364  1.3307 -0.2547
32683SOL     OW 1325   1.065   4.427   6.458  0.1442 -0.3133 -0.5474
32683SOL    HW1 1326   1.116   4.412   6.537  0.1996  1.9964 -0.0587
32683SOL    HW2 1327   0.974   4.425   6.487  0.1490  0.1184 -0.4961
32684SOL     OW 1328  10.120   6.467   6.014  0.7834  0.5097  0.4362
32684SOL    HW1 1329  10.029   6.447   6.035  0.9378  0.0836  0.7140
32684SOL    HW2 1330  10.116   6.507   5.927  0.5138 -1.4537 -0.5227
32685SOL     OW 1331   0.617   6.349   0.938  0.1130 -0.8385  0.7644
32685SOL    HW1 1332   0.659   6.308   1.014 -0.9941  0.6493  2.2411
32685SOL    HW2 1333   0.689   6.380   0.884  0.9329 -0.7042  1.9097
32686SOL     OW 1334   1.069   7.918   4.918  0.1815  0.4572  0.0611
32686SOL    HW1 1335   1.140   7.956   4.969  1.2139  0.2082 -1.1547
32686SOL    HW2 1336   1.078   7.824   4.930  1.2852  0.3156 -1.6284
32687SOL     OW 1337   2.948  10.995   2.944 -0.1195  0.2384 -0.1900
32687SOL    HW1 1338   2.919  10.927   2.883 -0.3055  1.0155 -0.9868
32687SOL    HW2 1339   2.988  10.946   3.016 -1.2795 -0.7619 -0.1843
32688SOL     OW 1340   4.357   7.055   2.021  0.4317  0.6611  0.3840
32688SOL    HW1 1341   4.358   7.116   2.095 -1.0779  2.0126 -0.6267
32688SOL    HW2 1342   4.301   6.983   2.051 -0.2209  1.2267  0.5683
32689SOL     OW 1343   7.015   3.436   6.802 -0.0219 -0.0803 -0.5620
32689SOL    HW1 1344   7.006   3.443   6.707  0.4529  0.5091 -0.5713
32689SOL    HW2 1345   7.020   3.527   6.832 -0.9034 -0.2345  0.1070
32690SOL     OW 1346   6.222   3.183   5.501  0.2242  0.0434  0.0514
32690SOL    HW1 1347   6.306   3.138   5.515  0.0376 -0.4634 -0.4113
32690SOL    HW2 1348   6.171   3.162   5.579  0.8799  1.2112  0.8319
32691SOL     OW 1349  10.783   4.457  11.119  0.6250  0.3173  0.3580
32691SOL    HW1 1350  10.759   4.549  11.125 -2.3428 -0.3904  1.3018
32691SOL    HW2 1351  10.858   4.447  11.178  3.7306  2.7617 -2.8151
32692SOL     OW 1352   1.652   4.611   5.163  0.5846 -0.2673  0.0556
32692SOL    HW1 1353   1.684   4.675   5.227  1.2310  0.5430 -1.0465
32692SOL    HW2 1354   1.573   4.574   5.204  0.5351  0.7962  0.9806
32693SOL     OW 1355   9.291   3.407  10.637 -0.2680  0.0674  0.1216
32693SOL    HW1 1356   9.362   3.454  10.594 -0.4691  0.2918  0.0359
32693SOL    HW2 1357   9.257   3.469  10.701 -0.2076 -0.1371  0.3543
32694SOL     OW 1358   0.054   8.782   7.783 -0.8319 -0.3784  0.1583
32694SOL    HW1 1359   0.099   8.867   7.778 -0.0371 -0.5388  2.9333
32694SOL    HW2 1360   0.003   8.777   7.702  2.4342  0.7895 -2.2053
32695SOL     OW 1361   1.929   0.047   1.660  0.0172 -0.1201 -0.6910
32695SOL    HW1 1362   1.861   0.082   1.603  0.3331 -0.1059 -1.0642
32695SOL    HW2 1363   1.988   0.121   1.675  0.4434 -0.3653 -1.1167
32696SOL     OW 1364   2.535   5.984   5.145  0.1810  0.1118  0.0926
32696SOL    HW1 1365   2.529   5.917   5.213  1.1900  0.6838  0.7787
32696SOL    HW2 1366   2.468   6.048   5.169  0.8530  0.5513  0.8455
32697SOL     OW 1367   4.602   8.701   9.506 -0.1838  0.4025  0.1538
32697SOL    HW1 1368   4.673   8.720   9.445 -1.4111  0.5426 -1.2760
32697SOL    HW2 1369   4.555   8.784   9.515 -0.6352  0.1169  0.4614
32698SOL     OW 1370   6.655   6.422   2.600 -0.3849 -0.5690  0.1172
32698SOL    HW1 1371   6.581   6.479   2.618 -0.7933 -0.9161 -0.4272
32698SOL    HW2 1372   6.625   6.334   2.621  1.0729 -0.4008  3.4753
32699SOL     OW 1373   8.983   7.014   8.521 -0.9194  0.3159  0.2973
32699SOL    HW1 1374   9.003   6.993   8.430  0.0003  0.5611  0.4325
32699SOL    HW2 1375   9.064   6.995   8.569 -0.4658  2.7573  0.6428
32700SOL     OW 1376   1.333  10.206   7.159 -0.2740 -0.5372  0.2900
32700SOL    HW1 1377   1.312  10.299   7.165  0.4868 -0.4070  1.1376
32700SOL    HW2 1378   1.344  10.178   7.250  2.7503 -0.6672 -0.0062
32701SOL     OW 1379   5.805   6.360   0.523  0.5190 -0.0304  0.4863
32701SOL    HW1 1380   5.811   6.454   0.537 -1.3379  0.0737  0.8535
32701SOL    HW2 1381   5.869   6.342   0.454  0.1444  1.6795 -0.3575
32702SOL     OW 1382   0.009  10.392  10.450  0.7249  0.2995 -0.3023
32702SOL    HW1 1383  -0.012  10.364  10.539 -0.4348  2.6984  0.2775
32702SOL    HW2 1384   0.102  10.415  10.453  0.9912 -0.7892 -0.0594
32703SOL     OW 1385   9.845   8.898  10.275 -0.1013 -0.3209 -0.1043
32703SOL    HW1 1386   9.841   8.923  10.367 -1.4084  0.5142 -0.3472
32703SOL    HW2 1387   9.932   8.925  10.246  0.2891 -0.5254  0.8637
32704SOL     OW 1388   7.220   5.184   8.189  0.1058  0.0246  0.2809
32704SOL    HW1 1389   7.306   5.204   8.228  0.2160 -0.7068  0.4264
32704SOL    HW2 1390   7.182   5.270   8.171  0.3926  0.3740  1.2637
32705SOL     OW 1391   2.279   3.537   2.874  0.0778  0.3209 -0.2935
32705SOL    HW1 1392   2.197   3.491   2.891 -0.2106  0.8357 -0.2761
32705SOL    HW2 1393   2.347   3.478   2.907 -0.4524  1.3872  2.9826
32706SOL     OW 1394   7.800   2.752   3.853 -0.0711  0.1136  0.1933
32706SOL    HW1 1395   7.856   2.747   3.776 -1.0023  1.7960 -0.6526
32706SOL    HW2 1396   7.754   2.835   3.844 -0.8355 -0.0383  2.1510
32707SOL     OW 1397   4.827   1.587   5.674 -0.4837 -0.4158 -0.0097
32707SOL    HW1 1398   4.778   1.510   5.704 -1.1113 -0.0899 -0.1749
32707SOL    HW2 1399   4.763   1.659   5.678 -0.1711 -0.0911 -0.7618
32708SOL     OW 1400   4.212   5.433   2.681 -0.3189  0.4521  0.2279
32708SOL    HW1 1401   4.252   5.420   2.767 -0.6565  0.3750  0.3764
32708SOL    HW2 1402   4.143   5.366   2.676  2.2880 -2.3517 -1.7742
32709SOL     OW 1403   6.224   0.785   6.304 -0.1545 -0.2895  0.4669
32709SOL    HW1 1404   6.212   0.693   6.324  0.2088 -0.3617  0.3629
32709SOL    HW2 1405   6.309   0.807   6.340 -0.1456 -0.0490  0.3053
32710SOL     OW 1406   1.774   1.739   7.504 -0.1547  0.0114  0.8196
32710SOL    HW1 1407   1.825   1.727   7.424  2.2516  1.2157  2.0976
32710SOL    HW2 1408   1.683   1.745   7.473  0.8606  3.8607 -2.2959
32711SOL     OW 1409   3.532  11.101   8.389  0.2766 -0.5655 -0.0679
32711SOL    HW1 1410   3.592  11.175   8.387  0.4304 -0.6030  1.5651
32711SOL    HW2 1411   3.531  11.068   8.299  0.9613  0.8028 -0.5994
32712SOL     OW 1412   3.717   3.091  11.041 -0.4456 -0.3250  0.7561
32712SOL    HW1 1413   3.732   3.029  10.970 -2.0938  0.7720 -0.6422
32712SOL    HW2 1414   3.804   3.116  11.070  0.2894 -0.5481 -1.1388
32713SOL     OW 1415   1.407   3.792   9.798 -0.2280  0.6638  0.0764
32713SOL    HW1 1416   1.399   3.887   9.800 -0.7597  0.7875 -3.2316
32713SOL    HW2 1417   1.464   3.774   9.724  1.1673 -1.5998  1.5837
32714SOL     OW 1418   5.894   7.275   7.332  0.0679 -0.5919 -0.2511
32714SOL    HW1 1419   5.822   7.213   7.340  0.4195 -1.1399 -1.1568
32714SOL    HW2 1420   5.875   7.325   7.252  0.2663 -0.1687 -0.0420
32715SOL     OW 1421   5.232   5.972   1.481 -0.0349  0.5174  0.0242
32715SOL    HW1 1422   5.305   5.959   1.543 -0.7136  0.4977  0.8315
32715SOL    HW2 1423   5.206   6.063   1.494 -2.5339 -0.4194  2.4262
32716SOL     OW 1424  10.661   0.241   8.358 -0.0460  0.0399 -0.2821
32716SOL    HW1 1425  10.611   0.300   8.302 -1.6594  1.0711  2.1073
32716SOL    HW2 1426  10.688   0.294   8.432  1.4715 -1.4366  0.3116
32717SOL     OW 1427   6.055   1.875   9.154  0.2617 -0.0640  0.6354
32717SOL    HW1 1428   6.020   1.786   9.155  0.4594 -0.1695  3.1572
32717SOL    HW2 1429   6.126   1.871   9.090  0.1261 -1.6433  0.5319
32718SOL     OW 1430   1.308   0.880   3.294  0.5117 -0.0669 -0.0667
32718SOL    HW1 1431   1.397   0.912   3.278  0.3729  0.9580  1.0211
32718SOL    HW2 1432   1.319   0.788   3.317  1.6323  0.6601  2.6583
32719SOL     OW 1433   8.849   3.416   1.010 -0.5519  0.2785 -0.3311
32719SOL    HW1 1434   8.828   3.470   0.934 -0.4917  1.9017  0.7440
32719SOL    HW2 1435   8.913   3.468   1.059  1.7661 -2.0357 -0.6676
32720SOL     OW 1436   4.572   2.813   8.350 -0.4380  0.0769 -0.6576
32720SOL    HW1 1437   4.609   2.837   8.435  1.7818  1.6821 -1.9927
32720SOL    HW2 1438   4.629   2.743   8.318  0.4267  1.3294 -1.9534
32721SOL     OW 1439   7.883   4.321   5.148  0.0273  0.1045  0.0525
32721SOL    HW1 1440   7.870   4.375   5.071 -1.9448 -1.2134 -0.6336
32721SOL    HW2 1441   7.802   4.330   5.198  0.5856 -0.4184  1.1041
32722SOL     OW 1442   1.491  10.499  10.381  0.7090 -0.7170 -0.5580
32722SOL    HW1 1443   1.575  10.493  10.337  0.4459 -1.1310 -1.0095
32722SOL    HW2 1444   1.436  10.433  10.338  0.7292 -1.8290  1.0442
32723SOL     OW 1445  10.625   8.087   7.107  0.0845  0.3488  0.2404
32723SOL    HW1 1446  10.677   8.167   7.116 -0.8518  0.9813  0.1345
32723SOL    HW2 1447  10.682   8.017   7.141  1.3375  0.8866 -0.6761
32724SOL     OW 1448   9.072   9.024   3.659 -0.1257  0.2691 -0.4212
32724SOL    HW1 1449   8.999   8.972   3.692  0.2625 -0.8573 -1.2861
32724SOL    HW2 1450   9.127   8.962   3.612  0.7104  1.3413 -0.9154
32725SOL     OW 1451   4.151   6.284   2.710  0.4733 -0.2113 -0.3177
32725SOL    HW1 1452   4.113   6.197   2.701 -1.0363  0.4260 -0.4304
32725SOL    HW2 1453   4.150   6.320   2.621  0.0409  0.3363 -0.0928
32726SOL     OW 1454   9.856   9.595  10.610  0.2969 -0.0324 -0.4383
32726SOL    HW1 1455   9.894   9.521  10.656  2.0901 -0.7407 -2.8750
32726SOL    HW2 1456   9.919   9.666  10.623 -0.8340  0.7775  0.8980
32727SOL     OW 1457   2.216  10.903   4.402  0.0345 -0.0234 -0.1601
32727SOL    HW1 1458   2.147  10.956   4.440  0.0623 -0.8248  1.0346
32727SOL    HW2 1459   2.282  10.967   4.374 -0.7685  0.6812 -0.4884
32728SOL     OW 1460   6.669   0.670  10.392  0.4169  0.2819 -0.3682
32728SOL    HW1 1461   6.647   0.677  10.484 -0.7243  0.0393 -0.6126
32728SOL    HW2 1462   6.588   0.689  10.346  0.4786 -1.4986 -1.2912
32729SOL     OW 1463   8.728   8.224  10.822 -0.0336 -0.4900  0.5710
32729SOL    HW1 1464   8.694   8.313  10.820  1.4481  0.0967 -0.2197
32729SOL    HW2 1465   8.683   8.179  10.751 -1.3777 -0.6214  1.4803
32730SOL     OW 1466   3.613   4.318   7.394 -0.0121 -0.5958  0.1137
32730SOL    HW1 1467   3.564   4.245   7.354 -3.4683  2.9324 -2.9046
32730SOL    HW2 1468   3.548   4.365   7.446  0.6199  2.9233 -1.9729
32731SOL     OW 1469   2.055   4.655   0.895 -0.2386 -0.5599 -0.0003
32731SOL    HW1 1470   1.982   4.607   0.934 -0.0884 -0.5125  0.3524
32731SOL    HW2 1471   2.019   4.694   0.816 -0.0407 -2.2706 -0.9811
32732SOL     OW 1472   1.028   9.372   0.172  0.3875  0.2731 -0.4360
32732SOL    HW1 1473   1.045   9.369   0.266  0.1231  1.7818 -0.3308
32732SOL    HW2 1474   1.050   9.284   0.142  0.2427 -0.3122  1.0685
32733SOL     OW 1475   2.867  10.053   6.548 -0.2951 -0.2839 -0.2252
32733SOL    HW1 1476   2.780  10.092   6.546  0.0853  0.5841 -1.8317
32733SOL    HW2 1477   2.921  10.117   6.595 -0.4356 -0.6869  0.5106
32734SOL     OW 1478   0.291   4.110   1.842  0.4170 -0.2685  0.3705
32734SOL    HW1 1479   0.296   4.051   1.917  0.2290  1.0192  1.4370
32734SOL    HW2 1480   0.382   4.128   1.819  0.4975 -2.0240 -0.8648
32735SOL     OW 1481   5.808   7.828   6.649  0.1747  0.2818  0.4536
32735SOL    HW1 1482   5.841   7.768   6.583 -0.0599 -0.9968  1.4554
32735SOL    HW2 1483   5.865   7.905   6.643  0.0522  0.2752 -1.3221
32736SOL     OW 1484   0.624   0.837  10.855  0.3825 -0.4320  0.1957
32736SOL    HW1 1485   0.626   0.849  10.760 -0.9031  0.3925  0.2379
32736SOL    HW2 1486   0.638   0.743  10.868 -1.5513 -0.9417 -0.9632
32737SOL     OW 1487   7.007   5.664   8.567 -0.2251  0.2759  0.1970
32737SOL    HW1 1488   7.010   5.636   8.658 -1.9665  0.5627  0.3820
32737SOL    HW2 1489   7.061   5.600   8.520 -0.3510 -0.6282  1.2503
32738SOL     OW 1490   8.330   8.249   6.177  0.4881  0.1131  0.0382
32738SOL    HW1 1491   8.322   8.254   6.272 -0.4474  0.4440 -0.0425
32738SOL    HW2 1492   8.403   8.307   6.156  0.9918 -0.3079  0.5865
32739SOL     OW 1493   5.699   3.292   6.765 -0.1630 -0.0577  0.3981
32739SOL    HW1 1494   5.707   3.252   6.852  0.3604  0.4288  0.5800
32739SOL    HW2 1495   5.619   3.254   6.729 -0.9774  0.5250  1.5093
32740SOL     OW 1496   5.682   5.812   1.980 -0.2162  0.3686 -0.4134
32740SOL    HW1 1497   5.622   5.863   2.034  0.2532 -0.3387  0.8445
32740SOL    HW2 1498   5.629   5.738   1.948 -0.4713  0.7364 -0.8506
32741SOL     OW 1499   1.466   6.681   9.637  0.3047 -0.4954 -0.2012
32741SOL    HW1 1500   1.424   6.595   9.632 -0.4329 -0.0913 -1.9347
32741SOL    HW2 1501   1.521   6.685   9.558  1.3296  0.1357  0.5233
32742SOL     OW 1502   6.597   3.882   3.197  0.3868  0.2845 -0.2716
32742SOL    HW1 1503   6.504   3.860   3.195  0.2095  0.9702  0.1653
32742SOL    HW2 1504   6.625   3.858   3.285  0.4439  0.7940 -0.1501
32743SOL     OW 1505   3.082   1.882   0.213 -0.0410 -0.5157  0.0949
32743SOL    HW1 1506   2.990   1.883   0.190  0.6185 -0.4407 -2.9090
32743SOL    HW2 1507   3.125   1.838   0.140  2.4269  0.3631  0.9054
32744SOL     OW 1508   0.904   3.972   7.457  0.2708 -0.4472 -0.1928
32744SOL    HW1 1509   0.932   3.882   7.475  1.2117 -0.0732  0.3041
32744SOL    HW2 1510   0.812   3.964   7.432 -0.0779 -1.4068  1.2545
32745SOL     OW 1511   1.722   2.625   8.224  0.4808  0.7027 -0.1214
32745SOL    HW1 1512   1.720   2.533   8.249 -0.8714  1.3600  2.5666
32745SOL    HW2 1513   1.741   2.624   8.130  0.0303 -2.3119 -0.2775
32746SOL     OW 1514   1.000   1.652   9.283  0.9544  0.7648 -0.2186
32746SOL    HW1 1515   0.923   1.633   9.337  2.0310 -0.1137  1.0795
32746SOL    HW2 1516   1.055   1.708   9.339  0.9104  2.0661 -1.4363
32747SOL     OW 1517   2.872   0.392   5.488 -0.0367  0.5265  0.1282
32747SOL    HW1 1518   2.851   0.469   5.435  3.0509  0.0692 -2.0586
32747SOL    HW2 1519   2.931   0.425   5.556 -1.8207  0.6321  1.7293
32748SOL     OW 1520   8.575   1.601   8.691  0.2617  0.1711 -0.1701
32748SOL    HW1 1521   8.638   1.645   8.748 -0.2066  0.0862  0.4224
32748SOL    HW2 1522   8.620   1.521   8.664 -0.0541 -0.5301  1.2871
32749SOL     OW 1523   6.079   6.811   4.506  0.6912 -0.2928  0.0811
32749SOL    HW1 1524   6.112   6.721   4.507  2.4209  0.3064  0.0215
32749SOL    HW2 1525   6.144   6.861   4.555  0.3196  1.1089 -0.8021
32750SOL     OW 1526  10.731  10.022   0.276  0.0498  0.3501 -0.1278
32750SOL    HW1 1527  10.684   9.956   0.326  0.2651 -0.6592 -1.1988
32750SOL    HW2 1528  10.767  10.081   0.341  0.1776 -0.8181  0.8971
32751SOL     OW 1529   3.336   5.044   0.357 -0.1302  0.0723  0.3188
32751SOL    HW1 1530   3.397   4.987   0.404  1.2392  0.9274 -0.3529
32751SOL    HW2 1531   3.263   5.055   0.418  0.2219 -1.2231  1.0368
32752SOL     OW 1532   3.913   9.915   0.592 -0.0742 -0.2193 -0.7943
32752SOL    HW1 1533   3.874   9.995   0.628  0.3725 -0.1005 -0.5739
32752SOL    HW2 1534   3.888   9.846   0.653  0.9967  0.0412 -0.0418
32753SOL     OW 1535   7.783   4.521   9.039 -0.6245  0.0433 -0.4339
32753SOL    HW1 1536   7.720   4.591   9.053  0.1039  0.6113  0.0935
32753SOL    HW2 1537   7.750   4.447   9.091 -1.4126 -0.0295 -1.0219
32754SOL     OW 1538   0.216   1.307   3.424 -0.0234  0.0613 -0.0895
32754SOL    HW1 1539   0.158   1.381   3.407 -0.1269 -0.1672 -0.7504
32754SOL    HW2 1540   0.163   1.245   3.474  0.0960  0.4705  0.5633
32755SOL     OW 1541   9.894  10.557   8.890  0.1902  0.0406  1.0735
32755SOL    HW1 1542   9.919  10.465   8.881 -0.0418  0.1529 -1.5895
32755SOL    HW2 1543   9.976  10.605   8.880 -0.0105  0.1788  0.0276
32756SOL     OW 1544   2.289   0.704   0.710 -0.2925  0.0211  0.6129
32756SOL    HW1 1545   2.238   0.782   0.690 -1.1286 -0.2802  1.4858
32756SOL    HW2 1546   2.368   0.712   0.655  1.1784  3.0246  2.8351
32757SOL     OW 1547   0.359   7.290   0.682 -0.4727 -0.0400  0.3436
32757SOL    HW1 1548   0.309   7.215   0.714  0.7914 -0.8402  0.5040
32757SOL    HW2 1549   0.339   7.361   0.743 -2.2659  0.0024 -0.2341
32758SOL     OW 1550   1.831   8.514   7.233 -0.6107 -0.5719 -0.5584
32758SOL    HW1 1551   1.885   8.499   7.155 -1.8936 -0.5247 -1.4934
32758SOL    HW2 1552   1.893   8.544   7.299  0.6024 -1.1683 -1.3816
32759SOL     OW 1553   2.524   0.783   0.573 -0.4471  0.0444  0.1687
32759SOL    HW1 1554   2.558   0.708   0.523  1.7025 -0.1122  1.7281
32759SOL    HW2 1555   2.588   0.796   0.643 -1.9459  1.9528  1.2798
32760SOL     OW 1556   2.617   2.029   3.128  0.5509  0.6458  0.4126
32760SOL    HW1 1557   2.586   2.119   3.133 -0.3362  0.4139 -0.5256
32760SOL    HW2 1558   2.539   1.976   3.146  0.5303  0.0544 -1.2541
32761SOL     OW 1559   7.036   5.809   4.946 -0.3858  0.1908 -0.4128
32761SOL    HW1 1560   6.971   5.879   4.953  2.6069  3.0864  1.8257
32761SOL    HW2 1561   7.114   5.853   4.912  2.0439 -1.6708  2.3021
32762SOL     OW 1562   5.934  10.437   7.976  0.1992  0.7515  0.0013
32762SOL    HW1 1563   5.965  10.351   7.946 -0.1597 -0.2458  2.2900
32762SOL    HW2 1564   5.849  10.448   7.935  0.8373  0.6977 -1.4201
32763SOL     OW 1565   3.479   5.163   7.497  0.1115  0.0958 -0.4050
32763SOL    HW1 1566   3.407   5.223   7.518 -0.8128 -1.1437  0.1261
32763SOL    HW2 1567   3.554   5.199   7.544 -0.5712  0.5041  0.4188
32764SOL     OW 1568   4.095   4.823   6.910 -0.3410  0.1523 -0.7966
32764SOL    HW1 1569   4.125   4.828   6.819 -0.5361  0.0416 -0.8661
32764SOL    HW2 1570   4.176   4.810   6.960 -0.3253 -0.6832 -1.0321
32765SOL     OW 1571   3.380   5.698   1.877 -0.7732  0.1054 -0.4387
32765SOL    HW1 1572   3.445   5.723   1.812 -0.0304 -1.4467 -0.3351
32765SOL    HW2 1573   3.429   5.644   1.940 -1.4429  1.5539  1.4537
32766SOL     OW 1574   6.814   7.578   2.064  0.2184 -0.5580 -0.4638
32766SOL    HW1 1575   6.838   7.493   2.101 -0.5104 -0.7507 -0.4351
32766SOL    HW2 1576   6.872   7.588   1.988  0.6057 -0.8820 -0.2131
32767SOL     OW 1577   5.922   2.381  10.687 -0.1243 -0.1570  0.0706
32767SOL    HW1 1578   5.889   2.296  10.716 -2.0840  1.2453  2.3599
32767SOL    HW2 1579   5.878   2.396  10.604 -0.0520 -1.1959 -0.1738
32768SOL     OW 1580   2.053  10.583   5.054  0.1605 -0.1269  0.0439
32768SOL    HW1 1581   1.977  10.638   5.040 -1.2009 -2.1617 -1.1594
32768SOL    HW2 1582   2.112  10.605   4.982 -0.8727 -0.9684 -1.1084
32769SOL     OW 1583   3.674   3.517   3.368  0.2812  0.2948 -0.1191
32769SOL    HW1 1584   3.729   3.466   3.428 -0.8986 -1.0257 -0.0952
32769SOL    HW2 1585   3.691   3.608   3.392  1.7238 -0.0940  0.5119
32770SOL     OW 1586   1.987   9.205   5.912  0.3468  0.0079  0.0732
32770SOL    HW1 1587   1.909   9.153   5.892  0.7639 -0.7452  0.3596
32770SOL    HW2 1588   2.060   9.148   5.889  0.8584  1.3882 -2.0117
32771SOL     OW 1589  11.115   7.890  10.735 -0.0733  0.1434  0.1247
32771SOL    HW1 1590  11.145   7.888  10.644 -0.7327 -0.6938 -0.0863
32771SOL    HW2 1591  11.022   7.911  10.729  0.0890  1.0771  0.6765
32772SOL     OW 1592   0.775   7.656  10.985  0.3166 -0.2717 -0.1822
32772SOL    HW1 1593   0.732   7.601  10.919  1.0107 -0.3544 -0.5709
32772SOL    HW2 1594   0.713   7.658  11.058 -0.9090  0.6552 -1.2218
32773SOL     OW 1595   6.730  11.213   8.371  0.0144 -0.2242  1.0345
32773SOL    HW1 1596   6.819  11.207   8.334 -1.2075 -0.6354 -2.1767
32773SOL    HW2 1597   6.732  11.291   8.426  2.9756 -1.5705  3.1406
32774SOL     OW 1598   5.336   8.036   8.735 -0.4724  0.0352  0.2112
32774SOL    HW1 1599   5.331   7.989   8.652  0.5265  1.0245 -0.4348
32774SOL    HW2 1600   5.290   7.980   8.797 -2.0190 -0.3069 -1.1772
32775SOL     OW 1601   5.749   3.913   3.984  0.3826 -0.4970  0.1494
32775SOL    HW1 1602   5.726   3.960   3.903  0.2698  1.5205  1.2858
32775SOL    HW2 1603   5.682   3.939   4.047  0.8470 -1.5075  1.0968
32776SOL     OW 1604   7.590   1.844   0.916 -0.3512  0.1456 -0.0399
32776SOL    HW1 1605   7.656   1.814   0.979 -0.1160 -2.2164 -1.3204
32776SOL    HW2 1606   7.591   1.939   0.924  0.3943 -0.0193  2.7725
32777SOL     OW 1607  11.249   4.227   9.378  0.2352 -0.0563  0.8523
32777SOL    HW1 1608  11.223   4.188   9.461 -0.1007 -0.4386  0.5698
32777SOL    HW2 1609  11.316   4.168   9.343 -1.9887 -1.7816 -0.7414
32778SOL     OW 1610   9.704  10.356   6.762 -0.4163  0.1025 -0.7409
32778SOL    HW1 1611   9.765  10.422   6.794  0.9799 -0.4156 -2.2179
32778SOL    HW2 1612   9.627  10.364   6.819  1.0479  0.7091  1.2297
32779SOL     OW 1613  10.504   8.693   0.187  0.0488 -0.1421 -0.5980
32779SOL    HW1 1614  10.432   8.715   0.246 -0.9224  0.4604 -1.9702
32779SOL    HW2 1615  10.497   8.598   0.174 -0.3621 -0.1173 -0.5540
32780SOL     OW 1616   4.814   8.872   2.643  0.6566  0.4200  0.0173
32780SOL    HW1 1617   4.769   8.833   2.568  1.8626 -0.5961 -0.2165
32780SOL    HW2 1618   4.797   8.812   2.715  1.5496  0.0409 -0.0652
32781SOL     OW 1619   8.789   5.821   8.500  0.3509  0.1650 -0.8779
32781SOL    HW1 1620   8.826   5.812   8.412 -0.9299 -1.7567 -1.2759
32781SOL    HW2 1621   8.753   5.735   8.520  1.2143  0.3501  1.8468
32782SOL     OW 1622   5.006  10.602   8.085  0.3588 -0.3855 -0.4400
32782SOL    HW1 1623   4.925  10.652   8.095  0.0091 -1.2575  1.4511
32782SOL    HW2 1624   5.040  10.592   8.174  1.5260 -1.6975 -0.9843
32783SOL     OW 1625   2.779   9.920   2.325  0.2491 -0.0766  0.3151
32783SOL    HW1 1626   2.769   9.842   2.271 -1.2285  0.1922  0.1509
32783SOL    HW2 1627   2.830   9.981   2.272 -1.0160  0.1083 -0.7182
32784SOL     OW 1628   1.323   4.432   6.213  0.1666  0.3936  0.2089
32784SOL    HW1 1629   1.374   4.399   6.140 -1.3393 -1.3497 -0.1044
32784SOL    HW2 1630   1.327   4.528   6.204  0.4345  0.2281 -1.8550
32785SOL     OW 1631  11.202   7.275   0.205  0.1458 -0.4852  0.0765
32785SOL    HW1 1632  11.196   7.366   0.234 -0.0204 -1.1504  2.3600
32785SOL    HW2 1633  11.157   7.273   0.121  0.4733  1.5933 -0.1921
32786SOL     OW 1634   2.162   5.229   0.053  0.3854  0.5259 -0.3637
32786SOL    HW1 1635   2.100   5.276   0.108  0.9558  1.8303 -0.7851
32786SOL    HW2 1636   2.155   5.273  -0.033  1.1430  0.0265 -0.6889
32787SOL     OW 1637  10.185   0.113  10.092 -0.4978 -0.1253  0.4110
32787SOL    HW1 1638  10.234   0.056  10.151 -0.5748 -0.3779  0.2277
32787SOL    HW2 1639  10.164   0.059  10.016 -2.1433 -0.4061  1.0165
32788SOL     OW 1640   7.929   3.933   5.620  0.0746  0.0481 -0.3071
32788SOL    HW1 1641   7.867   3.941   5.547 -0.7840 -1.9342  0.1599
32788SOL    HW2 1642   7.885   3.978   5.693 -0.0201  0.1665 -0.4353
32789SOL     OW 1643   9.662   9.296   9.069  0.2512  0.1204 -0.3016
32789SOL    HW1 1644   9.740   9.250   9.101 -0.6687 -2.2221 -1.2283
32789SOL    HW2 1645   9.620   9.329   9.149  0.7441 -1.0321  0.4731
32790SOL     OW 1646   8.177  11.008   8.518  0.1217  0.0590 -0.4243
32790SOL    HW1 1647   8.100  10.958   8.544 -0.3708  0.5267 -0.9277
32790SOL    HW2 1648   8.250  10.946   8.524 -0.0955 -0.0921  1.1431
32791SOL     OW 1649  10.747   0.106   2.425 -0.7513  0.1209 -0.3110
32791SOL    HW1 1650  10.743   0.011   2.435 -0.8609  0.1998  0.4454
32791SOL    HW2 1651  10.662   0.137   2.457  0.1890  0.6549  1.8303
32792SOL     OW 1652   8.877   3.459  11.346  0.1602 -0.3949  0.6954
32792SOL    HW1 1653   8.940   3.479  11.277  0.9955 -1.0126  1.2602
32792SOL    HW2 1654   8.801   3.422  11.300  0.3560 -0.0113  0.0502
32793SOL     OW 1655   4.643   5.378  11.119 -0.7793 -0.6793  0.2550
32793SOL    HW1 1656   4.607   5.404  11.203  1.9986 -0.4063  1.4788
32793SOL    HW2 1657   4.670   5.287  11.131  0.5716 -0.3348  0.0550
32794SOL     OW 1658   0.214   5.482   3.136  0.3437 -0.0316  0.3580
32794SOL    HW1 1659   0.307   5.483   3.113  0.4350 -0.7585  0.6724
32794SOL    HW2 1660   0.172   5.532   3.066  0.7070 -1.5127 -0.9977
32795SOL     OW 1661   0.623   8.914  10.773  0.2147 -0.2762 -0.5664
32795SOL    HW1 1662   0.565   8.966  10.829 -0.9865 -2.0991 -0.0521
32795SOL    HW2 1663   0.656   8.977  10.709  2.0386  2.0128  2.3678
32796SOL     OW 1664   7.344   4.709   0.953  0.2075 -0.2826 -0.0892
32796SOL    HW1 1665   7.379   4.621   0.938  0.8120  0.0641 -0.8050
32796SOL    HW2 1666   7.291   4.700   1.032  1.3142 -1.0096  0.6168
32797SOL     OW 1667   7.777   8.298   2.998  0.2199 -0.6573 -0.4753
32797SOL    HW1 1668   7.799   8.328   2.910 -1.6421 -0.0025 -0.7641
32797SOL    HW2 1669   7.690   8.258   2.989 -0.2672 -0.0647  1.1582
32798SOL     OW 1670   8.403   2.499   0.588  0.2673  0.0049 -0.1130
32798SOL    HW1 1671   8.366   2.568   0.532 -0.4554  0.5009  0.9409
32798SOL    HW2 1672   8.391   2.419   0.538  2.7955  0.7823 -2.1956
32799SOL     OW 1673   5.172   1.572   6.110  0.6368  0.3554  0.3337
32799SOL    HW1 1674   5.174   1.664   6.083 -1.7987  0.0098 -1.3373
32799SOL    HW2 1675   5.105   1.569   6.179  1.8974  0.0600  1.5894
32800SOL     OW 1676   8.004   6.112   0.449  0.5838  0.2367 -0.7896
32800SOL    HW1 1677   8.045   6.026   0.449  2.0465  0.9060 -0.6530
32800SOL    HW2 1678   7.994   6.134   0.357  1.3051  0.4045 -0.8360
32801SOL     OW 1679  10.881   2.965   0.482 -0.0634 -0.1471 -0.6387
32801SOL    HW1 1680  10.793   2.930   0.467  0.1404 -1.8556  1.5540
32801SOL    HW2 1681  10.938   2.907   0.432 -0.0223 -0.3712 -0.3305
32802SOL     OW 1682   7.039  10.849  10.150  0.3079 -0.7296 -0.6764
32802SOL    HW1 1683   7.122  10.800  10.152  1.5550  1.1576 -1.9939
32802SOL    HW2 1684   7.058  10.925  10.095 -1.8158  0.7034  0.4373
32803SOL     OW 1685   4.039   1.093   0.567 -0.3060  0.5885 -0.1200
32803SOL    HW1 1686   4.086   1.128   0.643  1.1058 -0.9244 -0.2385
32803SOL    HW2 1687   4.108   1.061   0.509 -1.4419 -1.2695 -0.5247
32804SOL     OW 1688   7.464   7.181   2.500  0.0830  0.2400  0.6919
32804SOL    HW1 1689   7.409   7.211   2.428 -0.1709 -1.0179  0.3358
32804SOL    HW2 1690   7.550   7.168   2.460 -0.0706 -0.5067  0.5868
32805SOL     OW 1691   7.711  10.093   0.386 -0.3927 -0.8519 -0.3511
32805SOL    HW1 1692   7.666  10.027   0.439 -0.3630  0.6770  1.6674
32805SOL    HW2 1693   7.732  10.163   0.447  0.2137  0.7403 -2.2856
32806SOL     OW 1694   2.386   5.068   0.844 -0.1121  0.1211 -0.1350
32806SOL    HW1 1695   2.406   4.976   0.826  0.5609  0.2390  0.0082
32806SOL    HW2 1696   2.447   5.118   0.791  0.1778  0.4813  0.5192
32807SOL     OW 1697   3.991   1.873   2.172  0.1781 -0.6160 -0.5296
32807SOL    HW1 1698   4.033   1.900   2.254 -2.2317 -2.7055  1.5790
32807SOL    HW2 1699   4.045   1.800   2.140  0.5293 -0.4968 -0.2126
32808SOL     OW 1700   3.154   7.003   7.552 -0.2303 -0.0073  0.7588
32808SOL    HW1 1701   3.088   6.948   7.596 -0.0513 -0.1867  0.8067
32808SOL    HW2 1702   3.113   7.027   7.469 -0.6593  0.5139  1.1156
32809SOL     OW 1703   3.613   2.404   3.644  0.1735 -0.1051 -0.2128
32809SOL    HW1 1704   3.590   2.485   3.600  1.3630 -0.0122 -0.7196
32809SOL    HW2 1705   3.707   2.394   3.628  0.2872 -0.9581  0.8679
32810SOL     OW 1706   6.040   2.333   3.039  0.4080 -0.1129  0.5013
32810SOL    HW1 1707   5.984   2.310   3.113  1.3096  2.1328  2.0185
32810SOL    HW2 1708   6.116   2.275   3.047  0.0402 -0.5658  0.7338
32811SOL     OW 1709   4.101   7.514   0.623 -0.1358  0.0227  0.1338
32811SOL    HW1 1710   4.042   7.486   0.693  1.7729 -0.5657  1.5901
32811SOL    HW2 1711   4.074   7.604   0.604  0.6253  1.0441  3.2359
32812SOL     OW 1712   2.542  10.343   1.485  0.1026  0.6168 -0.6410
32812SOL    HW1 1713   2.529  10.250   1.499 -1.7850  1.1490  1.9691
32812SOL    HW2 1714   2.633  10.359   1.507  0.2742 -0.5057 -0.4907
32813SOL     OW 1715   2.514   1.888   6.399  0.1286  0.2215  0.1688
32813SOL    HW1 1716   2.450   1.872   6.468  0.5415 -0.0072  0.4973
32813SOL    HW2 1717   2.468   1.947   6.338  0.3399  1.8326  1.4947
32814SOL     OW 1718   0.384  10.522   9.672 -0.1157  0.2686 -0.0741
32814SOL    HW1 1719   0.304  10.485   9.711  0.4900  1.0359  2.0809
32814SOL    HW2 1720   0.352  10.585   9.607 -1.2946  0.6269  0.8085
32815SOL     OW 1721   1.943  11.049   2.285 -0.3270 -0.3854 -0.0344
32815SOL    HW1 1722   1.920  11.094   2.205 -3.4575 -2.3224 -0.3946
32815SOL    HW2 1723   1.922  10.957   2.268  3.3419 -1.7043  1.4904
32816SOL     OW 1724   2.350  10.321   7.447 -0.6970  0.1085  0.1273
32816SOL    HW1 1725   2.421  10.258   7.431  0.1768  1.4589 -1.7089
32816SOL    HW2 1726   2.344  10.327   7.542  0.8061 -0.9771  0.3260
32817SOL     OW 1727   2.149  10.462   4.437  0.2218  0.6327  0.4209
32817SOL    HW1 1728   2.192  10.380   4.413  1.0895  1.0348  0.5699
32817SOL    HW2 1729   2.159  10.517   4.360  0.3141  0.8603  0.5942
32818SOL     OW 1730   8.492   8.267   1.689  0.9887  0.0963 -0.7341
32818SOL    HW1 1731   8.512   8.285   1.781 -4.6778 -0.7008  1.0432
32818SOL    HW2 1732   8.520   8.176   1.676  1.0797 -0.0786  0.5228
32819SOL     OW 1733   4.980   2.729   8.676 -0.0734 -0.0588 -0.2967
32819SOL    HW1 1734   4.975   2.640   8.640  0.7912  0.0897 -0.8095
32819SOL    HW2 1735   4.987   2.716   8.770  1.0275 -0.5787 -0.4387
32820SOL     OW 1736  10.517   8.771   3.192  0.5224  0.2719  0.2201
32820SOL    HW1 1737  10.546   8.731   3.274 -0.8249  1.0296  1.1078
32820SOL    HW2 1738  10.427   8.741   3.182  0.3157  1.0683 -0.4139
32821SOL     OW 1739  10.256  11.309  10.264 -0.0329 -0.0935  0.0309
32821SOL    HW1 1740  10.352  11.312  10.257  0.0270  0.2756  0.8386
32821SOL    HW2 1741  10.240  11.265  10.348 -0.5829 -0.5677 -0.3191
32822SOL     OW 1742  11.190   8.558   1.140 -0.1773 -0.1661  0.5017
32822SOL    HW1 1743  11.282   8.576   1.163  0.0109  1.0986 -1.0037
32822SOL    HW2 1744  11.158   8.642   1.107 -1.2969 -1.0584 -0.7825
32823SOL     OW 1745   3.656   5.580  10.541 -0.6198 -0.6639 -0.3544
32823SOL    HW1 1746   3.680   5.515  10.607 -0.0009 -0.5155 -0.4298
32823SOL    HW2 1747   3.695   5.662  10.571 -1.9025 -0.1706  0.0591
32824SOL     OW 1748   4.556   5.412   2.243  0.0469 -0.1263  0.5884
32824SOL    HW1 1749   4.540   5.502   2.214 -0.6109 -0.5758 -0.5244
32824SOL    HW2 1750   4.476   5.364   2.218  0.9891 -1.3296 -0.2603
32825SOL     OW 1751   7.872   9.789   7.511  0.4068 -0.0504 -0.8739
32825SOL    HW1 1752   7.959   9.748   7.516  0.6335  0.3181 -1.7209
32825SOL    HW2 1753   7.830   9.746   7.437 -0.0153  0.0019 -0.6639
32826SOL     OW 1754   5.329   4.980  10.959  0.5812  0.0026 -0.0203
32826SOL    HW1 1755   5.346   4.891  10.927 -2.6128 -0.3735 -1.0016
32826SOL    HW2 1756   5.296   5.027  10.883  0.8752  1.6523  0.8296
32827SOL     OW 1757   5.151   1.677   8.725  0.6108 -0.2770  0.2182
32827SOL    HW1 1758   5.130   1.744   8.790 -1.2183 -1.8302  1.3299
32827SOL    HW2 1759   5.148   1.724   8.641  0.4285  1.2407  1.0475
32828SOL     OW 1760   2.448   6.726   9.640  0.1794 -0.2441  0.1420
32828SOL    HW1 1761   2.402   6.679   9.571  0.0999 -0.1944  0.1619
32828SOL    HW2 1762   2.381   6.780   9.682  0.1600 -0.5191  0.4715
32829SOL     OW 1763   9.093   1.971  11.086  0.5246  0.6210  0.2300
32829SOL    HW1 1764   9.166   1.985  11.025  1.4640 -1.0363  0.9203
32829SOL    HW2 1765   9.128   1.994  11.172 -0.1389  0.9055  0.4322
32830SOL     OW 1766   1.515   7.776   9.615 -0.0400  0.1909 -0.0024
32830SOL    HW1 1767   1.438   7.723   9.593  0.1097 -0.6755  1.4212
32830SOL    HW2 1768   1.518   7.773   9.711  1.8222  0.1417 -0.0401
32831SOL     OW 1769   2.322   3.473   5.427  0.6417 -0.0481 -0.0091
32831SOL    HW1 1770   2.306   3.379   5.434 -1.3436  0.3149  0.7097
32831SOL    HW2 1771   2.317   3.505   5.517 -1.8824  1.1798 -0.4978
32832SOL     OW 1772   0.878   4.586   1.298 -0.5506  0.1772  0.2496
32832SOL    HW1 1773   0.838   4.579   1.212 -0.7401  1.0526  0.2533
32832SOL    HW2 1774   0.872   4.498   1.335 -0.9314 -0.0859 -0.4275
32833SOL     OW 1775   4.455   2.855   3.637  0.2096 -0.1146 -0.6893
32833SOL    HW1 1776   4.484   2.934   3.592 -1.9331 -0.1962 -2.3852
32833SOL    HW2 1777   4.362   2.871   3.657  0.3065 -1.3296  1.0157
32834SOL     OW 1778   9.606   6.587   4.558  0.1043 -0.3497 -0.7399
32834SOL    HW1 1779   9.668   6.583   4.485  0.2886 -0.7321 -0.5647
32834SOL    HW2 1780   9.520   6.572   4.518  0.3162 -1.7411 -0.7268
32835SOL     OW 1781   8.307   6.289   4.556 -0.1284  0.2509  0.0575
32835SOL    HW1 1782   8.332   6.198   4.544  0.5801  0.2997  1.0007
32835SOL    HW2 1783   8.301   6.325   4.467 -0.2750 -0.6709 -0.3106
32836SOL     OW 1784   3.715   6.773  10.858 -0.6570  0.0648 -0.2968
32836SOL    HW1 1785   3.708   6.738  10.948 -2.2770  0.9196 -0.0532
32836SOL    HW2 1786   3.727   6.867  10.870 -2.8810  0.4788 -0.9432
32837SOL     OW 1787   0.350   1.204  10.717  0.2823 -0.0515  0.4074
32837SOL    HW1 1788   0.364   1.261  10.793 -0.5835  1.1122 -0.2777
32837SOL    HW2 1789   0.376   1.117  10.748  1.0437  0.5866  1.6728
32838SOL     OW 1790   3.538   7.009   4.592 -0.3685 -0.1195 -0.0612
32838SOL    HW1 1791   3.497   6.991   4.676  2.1133 -0.4605  1.1628
32838SOL    HW2 1792   3.516   7.100   4.573 -0.6645  0.0685  1.1443
32839SOL     OW 1793   5.481   8.746   0.084  0.0876  1.0071  0.2141
32839SOL    HW1 1794   5.446   8.713   0.166  0.0623  1.1800  0.2731
32839SOL    HW2 1795   5.540   8.677   0.053 -0.2100  0.7728  0.1757
32840SOL     OW 1796  11.033  10.189  11.257 -0.1262 -0.2893 -0.0777
32840SOL    HW1 1797  11.003  10.260  11.315 -1.9655 -0.8948 -0.2270
32840SOL    HW2 1798  11.091  10.232  11.195 -1.8056  1.3119 -0.6563
32841SOL     OW 1799  10.601  10.931   4.738 -0.1639 -0.5863 -0.5216
32841SOL    HW1 1800  10.676  10.955   4.791  0.1537 -1.2012 -0.6866
32841SOL    HW2 1801  10.597  10.999   4.670 -0.5607  0.1869  0.2557
32842SOL     OW 1802   8.646   1.093   7.580 -0.3153 -0.3182 -0.3107
32842SOL    HW1 1803   8.575   1.029   7.587  0.8135 -1.6002 -0.2363
32842SOL    HW2 1804   8.698   1.064   7.505  1.4854 -0.8332  1.0770
32843SOL     OW 1805   6.473   9.971   0.998  0.1290  0.5903 -0.4732
32843SOL    HW1 1806   6.553  10.024   0.989 -1.2237  2.5793 -1.7717
32843SOL    HW2 1807   6.483   9.902   0.932  0.9495  0.5785 -0.3476
32844SOL     OW 1808   8.509   2.786   6.705 -0.4353  0.2380 -1.0178
32844SOL    HW1 1809   8.416   2.805   6.714 -0.6603 -1.0475 -0.4267
32844SOL    HW2 1810   8.522   2.772   6.611 -0.4608  2.1139 -1.3415
32845SOL     OW 1811   7.761   4.809   3.158  0.4347 -0.1284 -0.0489
32845SOL    HW1 1812   7.781   4.716   3.143 -0.8037 -0.4070 -0.0566
32845SOL    HW2 1813   7.689   4.828   3.098 -0.2187  0.4804  0.9050
32846SOL     OW 1814   5.631   9.014   3.477  0.1563 -0.2470 -0.3788
32846SOL    HW1 1815   5.600   9.087   3.424 -0.9107  0.3620  1.0330
32846SOL    HW2 1816   5.724   9.005   3.453  0.3261  1.5894 -0.5647
32847SOL     OW 1817   5.793   6.128   0.201  0.3206  0.6666 -0.0660
32847SOL    HW1 1818   5.886   6.147   0.193  0.3879  1.6359  2.2499
32847SOL    HW2 1819   5.750   6.212   0.186 -0.0402  0.6047  0.5572
32848SOL     OW 1820  10.736  10.534   5.228 -0.2031  0.2137  0.1226
32848SOL    HW1 1821  10.723  10.538   5.133  0.6994 -0.0363 -0.0233
32848SOL    HW2 1822  10.826  10.565   5.241 -1.0155  2.3712  1.1025
32849SOL     OW 1823   4.602   9.863  10.723 -0.2736 -0.0102  0.1756
32849SOL    HW1 1824   4.669   9.883  10.657  0.5072 -0.6087  0.7608
32849SOL    HW2 1825   4.619   9.925  10.794 -0.6683  0.1785  0.1031
32850SOL     OW 1826   5.657   1.086   8.101 -0.4247  0.2536 -0.4977
32850SOL    HW1 1827   5.688   1.003   8.065 -0.1247 -0.4214  1.2108
32850SOL    HW2 1828   5.604   1.124   8.031 -0.1807 -1.1493 -1.4941
32851SOL     OW 1829  11.346  10.426   0.860 -0.2293  0.1460  0.5721
32851SOL    HW1 1830  11.305  10.428   0.946 -3.0195 -2.4492 -0.5329
32851SOL    HW2 1831  11.290  10.481   0.806  2.0671  2.5949  0.4874
32852SOL     OW 1832  11.104   9.781   1.605 -0.3021 -0.1141 -0.3516
32852SOL    HW1 1833  11.109   9.816   1.516 -1.3629 -0.1996 -0.4666
32852SOL    HW2 1834  11.187   9.804   1.645  0.4890 -0.6948 -1.5906
32853SOL     OW 1835   4.833   8.511   7.552 -0.2441 -0.1658  1.4566
32853SOL    HW1 1836   4.779   8.558   7.489  1.3312 -0.2413 -0.0296
32853SOL    HW2 1837   4.772   8.456   7.600 -1.3700 -1.2095 -1.0064
32854SOL     OW 1838   8.617   5.516   1.325 -0.5308  0.2593  0.0565
32854SOL    HW1 1839   8.590   5.607   1.313 -0.5506  0.0729 -1.5572
32854SOL    HW2 1840   8.639   5.486   1.237  0.7755 -0.9066  0.7372
32855SOL     OW 1841   3.620   4.949   4.144  0.3718  0.0048  0.1379
32855SOL    HW1 1842   3.559   4.941   4.070  0.5882  0.4651 -0.0894
32855SOL    HW2 1843   3.645   5.041   4.145  0.2584  0.0311  0.8784
32856SOL     OW 1844  10.639   9.313   2.473  0.2531 -0.0210  0.7017
32856SOL    HW1 1845  10.554   9.320   2.429  0.6848  1.5424  0.0404
32856SOL    HW2 1846  10.703   9.308   2.401  0.7126 -1.9411  1.1830
32857SOL     OW 1847   5.168   1.075   7.997 -0.3390 -0.4792  1.2001
32857SOL    HW1 1848   5.250   1.053   8.040 -0.9062 -0.2521  2.4313
32857SOL    HW2 1849   5.101   1.063   8.064 -0.8792  3.3755  1.6107
32858SOL     OW 1850   6.271  10.468   1.946 -0.2242 -0.1009 -0.1570
32858SOL    HW1 1851   6.275  10.429   1.859  0.6248 -2.3345  0.7988
32858SOL    HW2 1852   6.353  10.516   1.955  0.0617 -0.5565 -0.2974
32859SOL     OW 1853   1.669   4.058   4.640  0.4492  0.1722  0.0297
32859SOL    HW1 1854   1.724   4.063   4.562  0.2979  1.1801 -0.0225
32859SOL    HW2 1855   1.579   4.063   4.607  0.3420 -0.5547  0.1873
32860SOL     OW 1856   1.991   0.962   5.919  0.1990  0.0214  0.0992
32860SOL    HW1 1857   2.080   0.995   5.905  0.5677 -1.0668 -0.2258
32860SOL    HW2 1858   2.000   0.867   5.919 -0.6479 -0.1215  2.2373
32861SOL     OW 1859  11.294   8.179  10.314  0.1343  0.1317 -0.2227
32861SOL    HW1 1860  11.264   8.270  10.322  1.1902  0.3984  1.0858
32861SOL    HW2 1861  11.261   8.151  10.229 -0.1131  1.7852 -0.7199
32862SOL     OW 1862   2.000  10.739   8.440 -0.1022  0.0042  0.0463
32862SOL    HW1 1863   1.915  10.710   8.473  0.1527 -2.1433 -1.0031
32862SOL    HW2 1864   2.064  10.687   8.490  0.5452  0.6830 -0.0574
32863SOL     OW 1865   6.051   5.661   4.582 -0.1866 -0.7860 -0.3642
32863SOL    HW1 1866   6.010   5.726   4.525  0.1500  0.1176  0.4017
32863SOL    HW2 1867   6.113   5.615   4.524 -0.7111 -0.6976 -1.0054
32864SOL     OW 1868   6.996   3.506   3.002  0.5369  0.4431 -0.6526
32864SOL    HW1 1869   6.948   3.589   2.996  2.6224  2.2086  3.1130
32864SOL    HW2 1870   7.073   3.518   2.946  0.8602  1.1245 -0.0769
32865SOL     OW 1871   7.300   0.949  10.406  0.3413 -0.1316 -0.0064
32865SOL    HW1 1872   7.265   0.935  10.318  0.5379  0.8220 -0.2412
32865SOL    HW2 1873   7.223   0.940  10.463 -0.0745  0.7141 -0.4114
32866SOL     OW 1874   8.940   7.770   7.084  0.4052  0.6633 -0.0034
32866SOL    HW1 1875   8.864   7.828   7.079  0.4128  1.0691  2.7330
32866SOL    HW2 1876   9.013   7.821   7.049  0.0968  1.7382  0.8589
32867SOL     OW 1877   0.795   8.983   9.088 -0.4428 -0.6385 -0.1153
32867SOL    HW1 1878   0.864   8.958   9.026 -1.3953 -1.3983 -0.9020
32867SOL    HW2 1879   0.841   9.000   9.170  0.7385 -0.5425 -0.7805
32868SOL     OW 1880   3.706   2.822   4.896 -0.4686  0.1451  0.2933
32868SOL    HW1 1881   3.688   2.741   4.944  0.9651 -0.6234 -0.3970
32868SOL    HW2 1882   3.634   2.828   4.832 -0.6870 -0.4969  0.4694
32869SOL     OW 1883   2.444   4.933   6.364  0.1104 -0.1643  0.3698
32869SOL    HW1 1884   2.508   4.903   6.299  1.0922 -1.3649  1.8132
32869SOL    HW2 1885   2.398   4.854   6.391  1.2339 -0.1118  2.6820
32870SOL     OW 1886   9.046   1.205   0.805 -0.1433 -0.0057 -0.0312
32870SOL    HW1 1887   8.987   1.279   0.817  0.2900  0.1772  1.1290
32870SOL    HW2 1888   9.000   1.147   0.744 -2.1869 -0.5087  1.8364
32871SOL     OW 1889   5.522  10.692   9.596 -0.0419 -0.0224  0.3441
32871SOL    HW1 1890   5.437  10.708   9.556  0.0628  1.4533  0.6206
32871SOL    HW2 1891   5.510  10.719   9.687 -0.5480 -4.1432  1.7083
32872SOL     OW 1892   4.052  10.925   5.095  0.0454 -0.0326 -0.4791
32872SOL    HW1 1893   4.131  10.888   5.057 -0.3847 -0.3422 -1.0975
32872SOL    HW2 1894   3.983  10.905   5.031 -0.5984 -0.1116  0.2176
32873SOL     OW 1895  10.439   0.762   5.065  0.4280  0.8676 -0.1553
32873SOL    HW1 1896  10.527   0.799   5.062  0.8441 -0.1295 -1.0375
32873SOL    HW2 1897  10.454   0.667   5.071 -0.5929  0.7277  0.4022
32874SOL     OW 1898   8.689   9.439   4.572  0.1567  0.1576 -0.4726
32874SOL    HW1 1899   8.711   9.349   4.596 -0.4634  0.0146 -0.4036
32874SOL    HW2 1900   8.773   9.482   4.559  0.5657  0.2418  1.9269
32875SOL     OW 1901   9.786   2.341  11.023  0.0638 -0.0852 -0.4638
32875SOL    HW1 1902   9.868   2.390  11.015 -1.0019  2.0750  1.0835
32875SOL    HW2 1903   9.762   2.350  11.115 -1.0506 -2.1890 -0.4917
32876SOL     OW 1904   7.703   5.666   8.493  0.3315 -0.3550 -0.2247
32876SOL    HW1 1905   7.718   5.720   8.571  0.1011 -0.0669 -0.3784
32876SOL    HW2 1906   7.696   5.577   8.526 -0.8949 -0.1096  0.2171
32877SOL     OW 1907   1.253   6.490   6.002  1.0101  0.3993  0.4857
32877SOL    HW1 1908   1.296   6.574   6.014 -0.1230  1.2147 -0.8739
32877SOL    HW2 1909   1.218   6.493   5.913 -0.4036 -0.8982  0.9475
32878SOL     OW 1910   5.361   8.815  11.243  0.0200  0.5061 -0.2207
32878SOL    HW1 1911   5.349   8.741  11.184 -0.6621  0.0961  0.4193
32878SOL    HW2 1912   5.393   8.776  11.325  0.7548  1.0446 -0.2416
32879SOL     OW 1913   7.014   4.593   4.141  0.0440 -0.9146 -0.5600
32879SOL    HW1 1914   6.999   4.615   4.049  1.0642  0.0790 -0.5026
32879SOL    HW2 1915   6.926   4.583   4.178 -0.4290  0.8738 -1.1317
32880SOL     OW 1916  11.228  10.962   9.531 -0.7181 -0.0627 -0.5416
32880SOL    HW1 1917  11.296  10.978   9.465 -0.4402 -0.6195 -0.4012
32880SOL    HW2 1918  11.146  10.968   9.482 -0.5448  0.1373 -0.8136
32881SOL     OW 1919   3.355   4.628   4.892  0.0963 -0.0932  0.7587
32881SOL    HW1 1920   3.270   4.670   4.875 -0.8319 -1.5000  1.6703
32881SOL    HW2 1921   3.368   4.570   4.818 -0.9505 -1.6586  1.7461
32882SOL     OW 1922   8.526  10.364   5.685  0.3564 -0.1543  0.0848
32882SOL    HW1 1923   8.581  10.393   5.758  1.1527 -1.0614 -0.1376
32882SOL    HW2 1924   8.546  10.271   5.675  0.9775  0.1622 -1.9186
32883SOL     OW 1925   3.807   8.152   1.765  0.3686  0.5596 -0.3720
32883SOL    HW1 1926   3.883   8.153   1.706 -1.0080  0.7848 -2.2234
32883SOL    HW2 1927   3.776   8.061   1.761  0.1996  0.6062 -0.0837
32884SOL     OW 1928   0.851  10.924  10.970 -0.2772  0.4307 -0.3627
32884SOL    HW1 1929   0.914  10.917  11.041 -1.1630 -0.8160  0.3442
32884SOL    HW2 1930   0.787  10.855  10.987 -1.2191  0.9202 -1.6735
32885SOL     OW 1931   2.667   4.164   2.874  0.1742  0.1650  0.3690
32885SOL    HW1 1932   2.706   4.251   2.864  0.1991  0.1271  0.1233
32885SOL    HW2 1933   2.646   4.158   2.967 -0.0066  0.5122  0.3548
32886SOL     OW 1934   5.475   8.989   0.372  0.0969  0.1196 -0.2828
32886SOL    HW1 1935   5.389   8.980   0.414 -0.6971  0.6494 -1.6926
32886SOL    HW2 1936   5.475   9.079   0.339  0.9653 -0.0648 -0.7983
32887SOL     OW 1937   2.941   6.350   2.096 -0.0085  0.1892 -0.4922
32887SOL    HW1 1938   2.883   6.328   2.023  0.9447 -1.4409 -0.7958
32887SOL    HW2 1939   3.021   6.300   2.080 -0.1185 -1.0007  2.1507
32888SOL     OW 1940   3.600   1.677   5.560  0.7047 -0.5706  0.5532
32888SOL    HW1 1941   3.573   1.596   5.518  0.9794 -2.0508  3.0172
32888SOL    HW2 1942   3.519   1.713   5.597  0.9862 -1.3078  1.9477
32889SOL     OW 1943  10.706   8.577  10.470  0.2817 -0.3375  0.4191
32889SOL    HW1 1944  10.702   8.482  10.473  0.4000 -0.3276  0.9833
32889SOL    HW2 1945  10.640   8.602  10.404  0.8638 -0.8391 -0.3711
32890SOL     OW 1946   9.300   0.806  10.010  0.3173  0.3947  0.2991
32890SOL    HW1 1947   9.238   0.810  10.082 -0.0976 -1.0665  0.0483
32890SOL    HW2 1948   9.371   0.750  10.042 -0.6127 -1.6055 -0.9021
32891SOL     OW 1949   7.587   8.838   4.092  0.2573  0.1534 -0.1077
32891SOL    HW1 1950   7.581   8.895   4.016 -2.2402  0.6077  0.3314
32891SOL    HW2 1951   7.664   8.869   4.139 -0.2067  2.2666 -0.6191
32892SOL     OW 1952   9.943   2.498   4.325  0.1438 -0.7092 -0.6846
32892SOL    HW1 1953   9.886   2.567   4.357 -0.9773 -2.4330  1.2211
32892SOL    HW2 1954  10.026   2.543   4.305 -1.0603  1.4302 -1.2161
32893SOL     OW 1955   9.211   6.943   1.284 -0.5015 -0.0456  0.0511
32893SOL    HW1 1956   9.247   6.938   1.372 -0.8958 -1.1993  0.1575
32893SOL    HW2 1957   9.278   6.989   1.233 -0.8469  1.8993  1.2263
32894SOL     OW 1958   1.512   6.576   0.853  0.4565  0.4089  0.0836
32894SOL    HW1 1959   1.419   6.598   0.848  0.9794  2.5367 -1.6826
32894SOL    HW2 1960   1.519   6.521   0.931 -2.3679 -0.4360 -0.1316
32895SOL     OW 1961   6.506   0.132   7.335 -0.0159  0.3449  0.1023
32895SOL    HW1 1962   6.486   0.049   7.292  0.6568  0.6363 -0.7998
32895SOL    HW2 1963   6.583   0.113   7.389  1.2243  0.7576 -1.4348
32896SOL     OW 1964   2.530   3.234   9.462 -0.6569 -0.2173 -0.0661
32896SOL    HW1 1965   2.608   3.179   9.459 -0.3648  0.1576 -3.0693
32896SOL    HW2 1966   2.460   3.177   9.430 -0.6330  0.6727 -1.8163
32897SOL     OW 1967   0.523   7.717   0.066  0.0832  0.0802 -0.4158
32897SOL    HW1 1968   0.460   7.770   0.113 -0.1055 -1.7899  1.5754
32897SOL    HW2 1969   0.522   7.632   0.111  4.6721  0.2016  0.3878
32898SOL     OW 1970   3.541   4.454   0.143  0.2286  0.1363 -0.6715
32898SOL    HW1 1971   3.482   4.462   0.218  0.0538  0.3056 -0.8245
32898SOL    HW2 1972   3.488   4.482   0.068  0.2680 -0.4353 -0.9215
32899SOL     OW 1973   6.591   4.353   5.359  0.1683 -0.0856  0.2456
32899SOL    HW1 1974   6.591   4.374   5.266 -0.4779 -1.1588 -0.0249
32899SOL    HW2 1975   6.509   4.389   5.392  0.0691 -0.3030  0.2412
32900SOL     OW 1976   0.808   2.807   9.883  0.2761 -0.3489  0.3319
32900SOL    HW1 1977   0.734   2.810   9.943  0.0740  0.9537  0.0450
32900SOL    HW2 1978   0.777   2.757   9.808 -0.7012  1.0547 -0.2503
32901SOL     OW 1979  10.606   5.331  10.476  0.4751  0.4827 -0.4087
32901SOL    HW1 1980  10.541   5.387  10.434 -0.2210 -0.8159 -1.1219
32901SOL    HW2 1981  10.555   5.268  10.526  1.1687 -0.4474 -0.8423
32902SOL     OW 1982   6.856   2.267   6.530  0.1348 -0.4039 -0.0791
32902SOL    HW1 1983   6.911   2.316   6.591 -1.4049  2.3464 -0.7539
32902SOL    HW2 1984   6.789   2.227   6.584  1.4629 -1.9484  0.4931
32903SOL     OW 1985   9.480   7.777   5.161  0.0029  0.5008 -0.0284
32903SOL    HW1 1986   9.469   7.864   5.123  2.8569 -0.2284 -2.9941
32903SOL    HW2 1987   9.554   7.786   5.221  0.0487  0.2158 -0.0394
32904SOL     OW 1988   6.219   4.164   7.323 -0.5025 -0.3380 -0.2409
32904SOL    HW1 1989   6.161   4.169   7.247  0.6295 -0.3665 -1.1253
32904SOL    HW2 1990   6.277   4.239   7.314  0.2812 -0.8935  0.0575
32905SOL     OW 1991   5.935   2.814  10.904  0.4190  0.5061  0.1241
32905SOL    HW1 1992   5.886   2.742  10.865 -0.9347  1.5956 -0.2657
32905SOL    HW2 1993   5.950   2.786  10.994 -1.6599  0.4568  0.4984
32906SOL     OW 1994   5.201   5.474   9.209 -0.7425  0.1729  1.0542
32906SOL    HW1 1995   5.241   5.421   9.278 -1.6566  0.5114  1.8677
32906SOL    HW2 1996   5.241   5.560   9.219  1.2008 -0.4490 -0.6606
32907SOL     OW 1997   6.491  10.813   8.140  0.0144  0.7677 -0.0330
32907SOL    HW1 1998   6.444  10.786   8.061 -0.2496  0.7542  0.1266
32907SOL    HW2 1999   6.502  10.908   8.130  0.1779  0.7322 -0.1908
32908SOL     OW 2000   3.162   3.621   2.869  0.0543 -0.0803 -0.4959
32908SOL    HW1 2001   3.132   3.566   2.941 -0.3785  0.8639  0.0710
32908SOL    HW2 2002   3.256   3.609   2.865 -0.0685 -1.0535 -0.5573
32909SOL     OW 2003  10.685   3.835   3.890 -0.0963 -0.2329 -0.8162
32909SOL    HW1 2004  10.674   3.902   3.823 -0.8807  0.0454 -0.4276
32909SOL    HW2 2005  10.778   3.839   3.913  0.2472 -0.5286 -2.0642
32910SOL     OW 2006   7.187   1.664   3.078  0.0282  0.4885  0.0312
32910SOL    HW1 2007   7.120   1.601   3.106  1.1393  0.0241  1.8411
32910SOL    HW2 2008   7.239   1.616   3.014 -1.2146  0.7871 -1.2423
32911SOL     OW 2009   6.842   5.814   7.688 -0.0068 -0.3326 -0.0381
32911SOL    HW1 2010   6.853   5.896   7.640 -0.4356 -0.4250 -0.2989
32911SOL    HW2 2011   6.854   5.746   7.622 -1.2283 -0.4555 -0.1699
32912SOL     OW 2012   4.858   1.214   0.301 -0.1534  0.3612  0.2443
32912SOL    HW1 2013   4.841   1.141   0.360 -1.6390 -0.9343 -1.6468
32912SOL    HW2 2014   4.793   1.280   0.325  0.4965  0.6472  1.2616
32913SOL     OW 2015  10.212   9.391   8.643 -0.0996 -0.0963  0.1161
32913SOL    HW1 2016  10.264   9.456   8.690  0.0010 -0.8161  1.0109
32913SOL    HW2 2017  10.211   9.422   8.552 -0.3976  1.3793  0.5955
32914SOL     OW 2018   8.671  10.991   9.907 -0.3265  0.2675 -0.1226
32914SOL    HW1 2019   8.652  11.075   9.865 -1.1212  1.0147  1.6390
32914SOL    HW2 2020   8.652  11.006  10.000  0.8101 -1.4841  0.4291
32915SOL     OW 2021   1.439   6.998   6.862  0.5477  0.0487  0.1986
32915SOL    HW1 2022   1.392   6.984   6.779  0.2542  0.0634  0.3603
32915SOL    HW2 2023   1.518   6.945   6.854  0.7831  0.4733 -0.3091
32916SOL     OW 2024   2.965   2.284   9.893  0.0650 -0.2412  0.7840
32916SOL    HW1 2025   2.975   2.313   9.984 -0.1169 -0.9715  1.0431
32916SOL    HW2 2026   2.873   2.259   9.886  0.3707 -1.3990  0.7695
32917SOL     OW 2027   7.322   5.219   8.528 -0.4558 -0.5537  0.4547
32917SOL    HW1 2028   7.319   5.273   8.449  0.3052  0.0414  0.8298
32917SOL    HW2 2029   7.236   5.230   8.568 -0.2312  0.5562  0.6488
32918SOL     OW 2030   7.134   8.607   3.654 -0.0451 -0.0032  0.4495
32918SOL    HW1 2031   7.050   8.651   3.645  0.0669  0.2788  0.7484
32918SOL    HW2 2032   7.132   8.569   3.742 -0.4358 -1.2391 -0.0659
32919SOL     OW 2033   8.818   0.202   5.661  0.2221 -0.1081 -0.6375
32919SOL    HW1 2034   8.903   0.230   5.695 -0.1010 -0.1931  0.2571
32919SOL    HW2 2035   8.824   0.106   5.656  0.2172 -0.1075 -0.6540
32920SOL     OW 2036   5.620   4.569   8.266  0.6078  0.2156 -0.5161
32920SOL    HW1 2037   5.581   4.482   8.276 -1.3040  1.0458 -0.3463
32920SOL    HW2 2038   5.578   4.605   8.188  1.0306  1.1628 -0.3217
32921SOL     OW 2039   9.165   7.671   4.094  0.1856 -0.5333  0.2985
32921SOL    HW1 2040   9.132   7.585   4.118  0.2195 -1.0178 -1.3011
32921SOL    HW2 2041   9.100   7.705   4.033 -1.0411  1.5910  2.5784
32922SOL     OW 2042   1.481   2.293   2.247 -0.0469 -0.0414 -0.2230
32922SOL    HW1 2043   1.455   2.299   2.339 -1.0713  0.9698 -0.5459
32922SOL    HW2 2044   1.471   2.200   2.225 -0.6810 -0.1431  0.4501
32923SOL     OW 2045   2.692   4.294   3.634  0.2450 -0.5152  0.5079
32923SOL    HW1 2046   2.628   4.224   3.620  0.7363 -0.5854 -1.7555
32923SOL    HW2 2047   2.690   4.310   3.728 -0.9698 -2.5267  0.8745
32924SOL     OW 2048   3.506   6.138  10.985  0.2479  0.3631 -0.1703
32924SOL    HW1 2049   3.483   6.207  11.047 -2.1036 -0.9733  0.5654
32924SOL    HW2 2050   3.429   6.131  10.927  0.7327 -1.1061 -0.6894
32925SOL     OW 2051   4.796   7.267   0.712 -0.3214  0.3592 -0.0112
32925SOL    HW1 2052   4.813   7.230   0.798 -1.0627  0.8443  0.3568
32925SOL    HW2 2053   4.725   7.212   0.677  1.7726 -1.5710 -1.4698
32926SOL     OW 2054   1.089   2.881   4.520 -0.3035 -0.0525  0.1482
32926SOL    HW1 2055   1.181   2.854   4.512 -0.2998 -0.1892  0.6305
32926SOL    HW2 2056   1.058   2.885   4.430  0.3050  0.4395 -0.0468
32927SOL     OW 2057   6.324  10.337   8.744  0.1480  0.4984  0.1763
32927SOL    HW1 2058   6.345  10.413   8.690  1.2105 -0.2272 -0.4533
32927SOL    HW2 2059   6.379  10.267   8.710 -2.3115 -1.1483 -0.6702
32928SOL     OW 2060   9.165   8.268   7.158  0.2559 -0.4055  0.8333
32928SOL    HW1 2061   9.220   8.207   7.207  0.3833 -2.8166 -2.0373
32928SOL    HW2 2062   9.075   8.248   7.186  0.4464 -0.3414  1.5044
32929SOL     OW 2063   4.816   7.280   5.973  0.3621  0.4140 -0.1972
32929SOL    HW1 2064   4.867   7.199   5.973 -1.3670 -0.7393 -0.7173
32929SOL    HW2 2065   4.725   7.250   5.965 -0.2159  2.4702 -2.0756
32930SOL     OW 2066  11.347   7.740   2.983 -0.3488  0.3489  0.0182
32930SOL    HW1 2067  11.278   7.770   3.042  0.1826  0.6236  0.5062
32930SOL    HW2 2068  11.373   7.655   3.017 -1.0089 -0.1451 -0.6564
32931SOL     OW 2069   0.425   5.928   9.374 -0.2675  0.0435  0.4880
32931SOL    HW1 2070   0.499   5.976   9.412 -1.5727  0.1637  3.1047
32931SOL    HW2 2071   0.463   5.848   9.339  0.9076 -1.0208  3.8727
32932SOL     OW 2072   2.364   5.053   5.841 -0.1042  0.2486  0.2675
32932SOL    HW1 2073   2.284   5.003   5.824 -1.3320  1.7336  1.3854
32932SOL    HW2 2074   2.422   4.991   5.885  0.3916 -1.5678 -2.6767
32933SOL     OW 2075  10.608   9.061  11.249  0.3462  0.1803  0.1537
32933SOL    HW1 2076  10.524   9.016  11.243  1.0511 -1.1494 -0.0942
32933SOL    HW2 2077  10.665   9.001  11.296  1.5604  0.4129 -0.9412
32934SOL     OW 2078   4.570   9.332   9.310  0.0398 -0.4848  0.5032
32934SOL    HW1 2079   4.588   9.414   9.356  1.5074 -0.5429  0.0699
32934SOL    HW2 2080   4.477   9.337   9.288  0.2755  1.4426 -0.2200
32935SOL     OW 2081   4.784   9.398   2.041 -0.4557 -0.2130  0.4384
32935SOL    HW1 2082   4.812   9.453   2.113  0.4100  0.5107 -0.4341
32935SOL    HW2 2083   4.815   9.310   2.063  0.1529  0.0826  0.7490
32936SOL     OW 2084   2.589   7.611  11.267  0.0187 -0.2135 -0.0698
32936SOL    HW1 2085   2.612   7.646  11.353 -0.9671 -1.7962  0.8678
32936SOL    HW2 2086   2.672   7.610  11.219  0.7389 -0.1006  1.1374
32937SOL     OW 2087   0.661   4.252   0.442 -0.0778 -0.3851  0.1168
32937SOL    HW1 2088   0.578   4.211   0.466  0.4840 -1.6958 -0.0858
32937SOL    HW2 2089   0.653   4.269   0.348  0.1111 -1.0653 -0.0225
32938SOL     OW 2090   6.874   7.950   7.728  0.5624  0.8276  0.1408
32938SOL    HW1 2091   6.882   7.865   7.686  0.2619 -0.2179  2.0761
32938SOL    HW2 2092   6.867   8.012   7.656  0.7165 -0.7847 -1.3190
32939SOL     OW 2093   4.298   0.637   9.537 -0.4799  0.3224  0.2880
32939SOL    HW1 2094   4.296   0.541   9.542 -0.2465  0.3684  2.5602
32939SOL    HW2 2095   4.369   0.662   9.597 -0.4698  1.9316 -0.3492
32940SOL     OW 2096   0.193  10.041   3.923 -0.0054  0.4604 -0.2909
32940SOL    HW1 2097   0.097  10.046   3.927 -0.0801 -0.3990 -0.7674
32940SOL    HW2 2098   0.222  10.102   3.990 -0.8995  0.3670  0.2082
32941SOL     OW 2099  10.369   1.259   8.486 -0.1005  0.0382 -0.2392
32941SOL    HW1 2100  10.437   1.287   8.547 -0.0050 -0.6495 -0.0291
32941SOL    HW2 2101  10.401   1.177   8.450 -1.8872 -1.5989  1.6712
32942SOL     OW 2102  10.926  11.179   0.364 -0.8027 -0.6331  0.4963
32942SOL    HW1 2103  10.943  11.127   0.286  0.7354  2.5695 -1.5198
32942SOL    HW2 2104  10.832  11.172   0.378 -1.0186 -1.8074 -1.2645
32943SOL     OW 2105   3.274   9.807   3.874  0.3465 -0.5696  0.3963
32943SOL    HW1 2106   3.258   9.802   3.780 -1.0088  0.5182  0.5438
32943SOL    HW2 2107   3.313   9.894   3.887  4.9849 -2.3480  0.3178
32944SOL     OW 2108   4.607   8.921   6.200  0.4249 -0.6568  0.8160
32944SOL    HW1 2109   4.558   8.849   6.240 -0.1848  0.5101  2.2671
32944SOL    HW2 2110   4.541   8.988   6.181  0.4704 -1.5193 -3.3116
32945SOL     OW 2111  10.379   2.065  11.012  0.2938 -0.0290 -0.3988
32945SOL    HW1 2112  10.438   2.031  11.079 -0.7264  0.1398  0.6178
32945SOL    HW2 2113  10.405   2.156  11.001  0.0755  0.1110  0.2183
32946SOL     OW 2114   9.189   8.181   6.113  0.1653 -0.4632  0.1412
32946SOL    HW1 2115   9.120   8.244   6.134  0.3987 -0.0915 -0.1830
32946SOL    HW2 2116   9.143   8.105   6.080 -0.0984 -0.2854  0.0939
32947SOL     OW 2117   4.091  11.173   2.258 -0.4893 -0.2145  0.4946
32947SOL    HW1 2118   4.110  11.088   2.218  0.7078  0.3576 -0.1880
32947SOL    HW2 2119   4.010  11.158   2.307 -0.7361 -1.5392 -0.2579
32948SOL     OW 2120   5.699   6.610  10.006  0.2652  0.1119 -0.2418
32948SOL    HW1 2121   5.668   6.655   9.928  0.7124 -0.8145 -0.9691
32948SOL    HW2 2122   5.781   6.568   9.979  0.5134 -0.0867  0.7722
32949SOL     OW 2123   8.904   0.847   7.889 -0.4333  0.3894 -0.4798
32949SOL    HW1 2124   8.880   0.937   7.865  0.6989  0.6666 -0.6408
32949SOL    HW2 2125   8.952   0.814   7.814  0.2183  0.0804  0.0644
32950SOL     OW 2126  10.933   0.464   4.692  0.3628  0.0288  0.4747
32950SOL    HW1 2127  10.999   0.532   4.679 -1.4349  1.6940 -0.4155
32950SOL    HW2 2128  10.853   0.500   4.653 -0.7942 -2.4041  0.4343
32951SOL     OW 2129   8.003   7.651   8.021 -0.2002 -0.3651 -0.4385
32951SOL    HW1 2130   8.006   7.727   8.079  1.8255 -0.4377 -0.3926
32951SOL    HW2 2131   7.995   7.689   7.933 -1.8424 -0.2125 -0.2484
32952SOL     OW 2132   8.485   7.809   5.035 -0.1605 -0.7673 -0.3862
32952SOL    HW1 2133   8.538   7.874   4.989 -1.4624  0.0208 -0.8055
32952SOL    HW2 2134   8.463   7.850   5.119 -1.6492 -0.3105 -0.9723
32953SOL     OW 2135   8.787   3.871  10.647  0.1346 -0.5294  0.6798
32953SOL    HW1 2136   8.694   3.867  10.628 -0.0152 -0.3859  1.3781
32953SOL    HW2 2137   8.812   3.961  10.626  0.5345 -1.0562 -1.3472
32954SOL     OW 2138   3.662   0.097   7.234 -0.1334  0.2586 -0.2612
32954SOL    HW1 2139   3.675   0.073   7.142 -2.8459  1.2388 -0.9797
32954SOL    HW2 2140   3.638   0.014   7.277  1.7373 -0.3218 -0.2296
32955SOL     OW 2141  10.408  11.268   6.364 -0.5577 -0.4029  0.4174
32955SOL    HW1 2142  10.322  11.276   6.323 -0.6403 -1.3265  0.3891
32955SOL    HW2 2143  10.469  11.259   6.291 -0.5753 -0.9156  0.4633
32956SOL     OW 2144   1.977   0.465   4.404 -0.1757  0.2871  0.3424
32956SOL    HW1 2145   2.022   0.450   4.321  1.5722  1.5535  1.0097
32956SOL    HW2 2146   1.966   0.560   4.409  0.0865  0.2656  1.7169
32957SOL     OW 2147   3.646  10.217   8.251  0.3466 -0.2141 -0.2794
32957SOL    HW1 2148   3.694  10.141   8.282  1.9570  0.8605 -0.0292
32957SOL    HW2 2149   3.685  10.292   8.297 -1.3092  0.7674 -0.3623
32958SOL     OW 2150   4.968   9.186   2.759 -0.2657 -0.5164 -0.7902
32958SOL    HW1 2151   5.027   9.113   2.739 -0.0710 -1.1611  1.7981
32958SOL    HW2 2152   4.900   9.147   2.814 -0.9274  0.9940 -0.4961
32959SOL     OW 2153  11.192   8.085   1.645  0.4473  0.1726 -0.3529
32959SOL    HW1 2154  11.147   8.166   1.666  2.0346  0.9847  0.0653
32959SOL    HW2 2155  11.165   8.065   1.555 -2.1418 -0.3953  0.4898
32960SOL     OW 2156   4.198   5.444   4.798  0.0692 -0.3575 -0.2417
32960SOL    HW1 2157   4.287   5.409   4.804  0.0781 -0.2461  0.3489
32960SOL    HW2 2158   4.191   5.475   4.708 -0.1947 -2.5165 -1.0222
32961SOL     OW 2159   9.303   9.786  11.236  0.5120 -0.0846  0.1646
32961SOL    HW1 2160   9.291   9.716  11.301 -1.3504 -0.0603 -0.0851
32961SOL    HW2 2161   9.394   9.812  11.245  1.2839 -2.5687  0.2424
32962SOL     OW 2162   0.147   1.909   0.181 -0.1480 -0.1894 -0.0201
32962SOL    HW1 2163   0.219   1.855   0.212  0.3533  0.4161 -0.1254
32962SOL    HW2 2164   0.188   1.980   0.132 -0.7472  0.6640  0.6735
32963SOL     OW 2165   8.998  10.610   1.020  0.2469  0.1706 -0.3117
32963SOL    HW1 2166   8.946  10.533   0.997  1.5354 -0.6821 -0.4656
32963SOL    HW2 2167   9.077  10.603   0.966  1.7142  0.0181  1.7318
32964SOL     OW 2168   0.533  10.907   0.965 -0.0786 -0.3147  0.2462
32964SOL    HW1 2169   0.581  10.925   0.884 -0.7709 -1.9043 -0.5658
32964SOL    HW2 2170   0.585  10.839   1.009 -1.1153 -1.4635 -0.2456
32965SOL     OW 2171   5.929   6.138   6.975  0.1524 -0.4286 -0.1976
32965SOL    HW1 2172   5.989   6.155   7.049 -0.6449 -0.8687  0.5732
32965SOL    HW2 2173   5.864   6.208   6.981 -0.0276 -0.5833 -0.3693
32966SOL     OW 2174   2.886   7.941   6.139  0.2858 -0.1570  0.2310
32966SOL    HW1 2175   2.893   7.989   6.222  0.7779  0.3883 -0.1172
32966SOL    HW2 2176   2.974   7.944   6.103 -0.1057  0.3096 -0.7014
32967SOL     OW 2177   7.761   6.339  10.803 -0.1956  0.5012  0.0953
32967SOL    HW1 2178   7.723   6.255  10.775 -0.2964  0.3903  0.5507
32967SOL    HW2 2179   7.729   6.402  10.739  2.1041 -0.2310 -1.8989
32968SOL     OW 2180   5.014   1.082   4.013 -0.6999 -0.3833 -0.5378
32968SOL    HW1 2181   4.984   0.992   4.000 -1.5908 -0.6529  2.5679
32968SOL    HW2 2182   5.055   1.081   4.099  0.1966  1.9993 -0.8713
32969SOL     OW 2183   4.662  11.240   9.362 -0.3568 -0.6004 -0.4900
32969SOL    HW1 2184   4.630  11.318   9.406  0.1619 -0.9474  0.5427
32969SOL    HW2 2185   4.727  11.273   9.300 -0.0175 -0.2142  0.0549
32970SOL     OW 2186   6.916   1.911  10.256  0.3616  0.1264  0.7405
32970SOL    HW1 2187   6.915   1.842  10.189 -2.0577  1.6455 -0.9362
32970SOL    HW2 2188   7.007   1.939  10.261  0.5585  0.3496 -2.4206
32971SOL     OW 2189   0.044  11.031  11.340 -0.5614  0.1802  0.2717
32971SOL    HW1 2190   0.107  11.033  11.268 -0.0499  0.6408  0.7295
32971SOL    HW2 2191  -0.034  10.991  11.301 -0.5800  1.1709 -0.7648
32972SOL     OW 2192  11.110   1.855   4.872 -0.1761  0.0387  0.8975
32972SOL    HW1 2193  11.110   1.950   4.860  1.0810  0.1673  1.7592
32972SOL    HW2 2194  11.195   1.826   4.837 -1.0737 -0.9696 -0.5989
32973SOL     OW 2195   4.790   6.136   0.575 -0.2435 -0.3044  0.2575
32973SOL    HW1 2196   4.718   6.079   0.603  0.1546 -0.6647  0.5726
32973SOL    HW2 2197   4.867   6.079   0.577 -0.1548 -0.2889 -1.3697
32974SOL     OW 2198   7.808   4.017   1.137 -0.1034  0.4686 -0.4130
32974SOL    HW1 2199   7.780   4.047   1.224 -2.6352 -1.5851 -0.4059
32974SOL    HW2 2200   7.833   4.098   1.091 -1.0248  1.8790  1.4104
32975SOL     OW 2201   3.871  10.398   5.023  0.6063  0.0379 -0.3090
32975SOL    HW1 2202   3.895  10.363   4.938 -0.1474 -1.9975  0.2686
32975SOL    HW2 2203   3.782  10.366   5.038  0.4855  0.8893  0.9921
32976SOL     OW 2204   3.920   5.801   4.560 -0.4523  0.1297  0.4044
32976SOL    HW1 2205   3.940   5.888   4.595 -2.9007  0.5076  1.0695
32976SOL    HW2 2206   3.912   5.745   4.638 -0.8344 -0.2247  0.1150
32977SOL     OW 2207   5.844   0.810   5.595 -0.3161 -0.5027  0.1638
32977SOL    HW1 2208   5.876   0.894   5.561 -0.5695 -0.7145 -0.6171
32977SOL    HW2 2209   5.751   0.809   5.574 -0.7340 -0.1790  1.8346
32978SOL     OW 2210   7.690   6.487   3.860 -0.0560 -0.7497  0.8533
32978SOL    HW1 2211   7.603   6.516   3.835 -0.2210 -1.9540 -0.0448
32978SOL    HW2 2212   7.743   6.497   3.781  0.0914 -1.9732  0.7660
32979SOL     OW 2213  11.075   6.611   4.031 -0.4013 -0.1482 -0.2908
32979SOL    HW1 2214  11.123   6.678   4.079  0.0494 -0.6232 -0.0665
32979SOL    HW2 2215  11.121   6.603   3.947 -1.4298  0.9707 -0.9999
32980SOL     OW 2216   5.806   0.529   9.553 -0.3305 -0.1999  0.2463
32980SOL    HW1 2217   5.865   0.468   9.509  0.5596  0.1534  0.9314
32980SOL    HW2 2218   5.755   0.568   9.482  0.8273  0.0870 -0.4568
32981SOL     OW 2219   8.861   6.491   0.401  0.2939  0.1487 -0.2938
32981SOL    HW1 2220   8.793   6.553   0.375  0.0235 -0.0654 -0.1120
32981SOL    HW2 2221   8.834   6.460   0.488  1.0859  0.7083  0.1613
32982SOL     OW 2222   4.410   9.026   7.474 -0.3166  0.5589  0.3516
32982SOL    HW1 2223   4.338   9.032   7.536  0.9897  2.0843  1.8156
32982SOL    HW2 2224   4.438   9.116   7.459  0.0681  0.1553 -1.7145
32983SOL     OW 2225   8.043   6.161   4.839 -0.3727 -0.1358 -0.6885
32983SOL    HW1 2226   8.084   6.193   4.758 -0.0222  2.3572  0.3898
32983SOL    HW2 2227   8.104   6.185   4.908 -1.4879 -0.6188  0.5095
32984SOL     OW 2228   6.884   3.715   9.720  0.2795 -0.0961 -0.1649
32984SOL    HW1 2229   6.848   3.627   9.734  1.3246 -0.9591 -2.4238
32984SOL    HW2 2230   6.979   3.703   9.731  0.3430  1.0421  0.6912
32985SOL     OW 2231   4.124   6.486   8.706 -0.1019 -0.0471  0.4698
32985SOL    HW1 2232   4.146   6.446   8.623  0.5271  2.4230 -0.6534
32985SOL    HW2 2233   4.028   6.496   8.704 -0.3902 -2.1871  1.1807
32986SOL     OW 2234   1.867   0.966   7.544  0.2660  0.0613 -0.1670
32986SOL    HW1 2235   1.859   1.045   7.597  1.1283  0.2372 -0.2858
32986SOL    HW2 2236   1.926   0.910   7.594 -0.2000 -0.4387 -0.1726
32987SOL     OW 2237   6.391   4.352   1.417  0.6792  0.1112 -0.1049
32987SOL    HW1 2238   6.302   4.385   1.428  1.1617  1.1900  0.6797
32987SOL    HW2 2239   6.428   4.351   1.505  1.0903 -1.4057 -0.2700
32988SOL     OW 2240   9.409   8.717   6.096 -0.6220 -1.1143 -0.8147
32988SOL    HW1 2241   9.343   8.741   6.032 -1.4675 -1.1451  0.0275
32988SOL    HW2 2242   9.475   8.669   6.045  0.6139  1.9697 -2.3368
32989SOL     OW 2243   6.354   2.607   6.373  0.1025 -0.3755  0.5838
32989SOL    HW1 2244   6.394   2.643   6.294 -2.1384  0.9153 -0.0664
32989SOL    HW2 2245   6.343   2.514   6.354 -1.3862  0.0834 -1.1681
32990SOL     OW 2246   6.915   6.437   8.773 -0.3049 -0.6136 -0.2734
32990SOL    HW1 2247   6.930   6.513   8.828 -0.9949 -0.1327 -0.7391
32990SOL    HW2 2248   6.820   6.425   8.772 -0.1958 -1.6631  0.0398
32991SOL     OW 2249   6.365   9.310   4.293  0.2003  0.2586  0.0487
32991SOL    HW1 2250   6.328   9.339   4.377  0.9440 -0.5979  0.6985
32991SOL    HW2 2251   6.291   9.273   4.245 -0.4982  1.9124 -0.2407
32992SOL     OW 2252  11.211   2.254   4.650  0.1487 -0.3557 -0.7386
32992SOL    HW1 2253  11.253   2.184   4.699  1.1460  0.7905  0.1321
32992SOL    HW2 2254  11.249   2.248   4.562 -0.4864 -1.4633 -0.9548
32993SOL     OW 2255   8.788  10.900  10.748 -0.7785  0.5274 -0.6381
32993SOL    HW1 2256   8.773  10.818  10.794  2.4381 -0.4924 -1.1514
32993SOL    HW2 2257   8.824  10.874  10.664  0.0357  2.4725 -0.9436
32994SOL     OW 2258   1.448   2.898   0.687 -0.6323 -0.5297  0.2766
32994SOL    HW1 2259   1.369   2.929   0.732 -0.0466  1.6899 -0.1105
32994SOL    HW2 2260   1.499   2.977   0.672  0.4501 -1.5671 -1.8661
32995SOL     OW 2261   8.719   6.880   6.992 -0.7391  0.9208 -0.4878
32995SOL    HW1 2262   8.769   6.920   7.063  0.3389 -1.0820 -0.0416
32995SOL    HW2 2263   8.784   6.838   6.936 -1.7854 -3.1164  0.9539
32996SOL     OW 2264   9.193  10.058   9.693  0.2786  0.0390 -0.2031
32996SOL    HW1 2265   9.281  10.093   9.680  1.1069 -2.3342 -1.5141
32996SOL    HW2 2266   9.206   9.968   9.724 -1.7385  0.4996  2.4047
32997SOL     OW 2267   0.395   8.469   0.711 -0.5232  0.1001 -0.2832
32997SOL    HW1 2268   0.453   8.448   0.784  1.5347 -0.2364 -1.9289
32997SOL    HW2 2269   0.341   8.541   0.744  0.9325  0.5420  1.3047
32998SOL     OW 2270   8.589   7.591   9.063  0.7557  0.1714  1.5716
32998SOL    HW1 2271   8.552   7.503   9.054  1.7182 -0.0696 -0.8067
32998SOL    HW2 2272   8.680   7.576   9.087  0.9020  0.5184  1.2462
32999SOL     OW 2273   5.359   0.152   1.368  0.0950 -0.1441 -0.3719
32999SOL    HW1 2274   5.383   0.192   1.452  0.8589 -1.6425  0.1453
32999SOL    HW2 2275   5.425   0.185   1.306  1.1330 -1.0866  0.1958
33000SOL     OW 2276   5.552   6.950   1.761  0.4532 -0.0568  0.0563
33000SOL    HW1 2277   5.590   7.016   1.819 -0.0737 -0.1536  0.5274
33000SOL    HW2 2278   5.563   6.986   1.673 -3.0783  2.5139  0.4276
33001SOL     OW 2279  10.479   2.834   2.197  0.2512 -0.1374  0.1776
33001SOL    HW1 2280  10.493   2.922   2.164 -0.3794 -0.3009 -0.5443
33001SOL    HW2 2281  10.464   2.781   2.119  1.9097 -1.1555  0.4821
33002SOL     OW 2282   1.470   4.163   1.147 -0.5992 -0.4877 -0.5039
33002SOL    HW1 2283   1.506   4.148   1.234  2.4841 -0.0319 -1.5974
33002SOL    HW2 2284   1.387   4.208   1.163 -0.0381 -0.2465  2.1754
33003SOL     OW 2285   5.220   2.136   0.688  0.2485  0.9491  0.0698
33003SOL    HW1 2286   5.184   2.076   0.754 -0.4704  1.8009  0.4721
33003SOL    HW2 2287   5.293   2.088   0.649 -1.9468 -1.3018 -1.5402
33004SOL     OW 2288   0.729   8.010   8.378 -0.1713  0.8322  0.1211
33004SOL    HW1 2289   0.711   7.947   8.307 -2.0594  1.1213  0.2993
33004SOL    HW2 2290   0.764   8.086   8.333  1.2379  0.0388 -0.1949
33005SOL     OW 2291   7.192   9.443   5.038 -0.4494 -0.2082  0.4778
33005SOL    HW1 2292   7.166   9.500   5.110  1.2406  0.0998  0.8881
33005SOL    HW2 2293   7.135   9.367   5.045 -1.6745  0.7195  0.8785
33006SOL     OW 2294   7.434   3.134   3.858  0.4617 -0.0514 -0.0482
33006SOL    HW1 2295   7.359   3.170   3.905 -0.6068 -1.2124 -0.7950
33006SOL    HW2 2296   7.400   3.108   3.773  0.8055 -3.7881  0.7762
33007SOL     OW 2297   9.270   1.725   0.896 -0.0598  1.0220  0.3497
33007SOL    HW1 2298   9.237   1.636   0.908  1.2967  0.8644  4.3062
33007SOL    HW2 2299   9.357   1.713   0.859 -0.1979  0.8213  0.0729
33008SOL     OW 2300   2.217   3.266   8.729 -0.1948  0.0902  1.0994
33008SOL    HW1 2301   2.302   3.238   8.695 -0.4164 -1.5170  1.7655
33008SOL    HW2 2302   2.202   3.351   8.690  0.7477 -0.5363 -0.7314
33009SOL     OW 2303   9.380   2.941   5.261 -0.1749  0.2451  0.9656
33009SOL    HW1 2304   9.359   2.853   5.295 -0.9844  0.3831  0.8560
33009SOL    HW2 2305   9.298   2.970   5.219  0.8665 -0.0477 -1.4143
33010SOL     OW 2306   7.551   1.297   6.433 -0.4921 -0.1567  0.0118
33010SOL    HW1 2307   7.559   1.362   6.502 -3.6938  0.5381 -0.1371
33010SOL    HW2 2308   7.480   1.240   6.461 -1.1954 -0.4765 -2.2100
33011SOL     OW 2309   5.043   5.540   2.191 -0.1299 -0.1773 -0.2779
33011SOL    HW1 2310   4.973   5.517   2.252 -0.0276  0.1956 -0.0168
33011SOL    HW2 2311   5.055   5.462   2.137 -1.5496  0.1278 -1.0952
33012SOL     OW 2312   1.357   9.747   8.567 -0.3288  0.3965 -0.1764
33012SOL    HW1 2313   1.272   9.788   8.552 -0.4822  0.1677  0.0532
33012SOL    HW2 2314   1.415   9.819   8.590  0.1511  0.9163 -2.7389
33013SOL     OW 2315   8.953   3.135   7.330 -0.1997  0.0229  0.4785
33013SOL    HW1 2316   9.028   3.105   7.279 -1.2706 -1.4110 -0.3318
33013SOL    HW2 2317   8.919   3.210   7.281 -0.5267 -0.6241 -0.3052
33014SOL     OW 2318   7.013   7.599   7.932  0.1663  0.4500 -0.3055
33014SOL    HW1 2319   6.953   7.564   7.998 -0.2139 -0.3209 -1.0402
33014SOL    HW2 2320   7.012   7.694   7.946 -0.0077  0.3128  0.6988
33015SOL     OW 2321   3.378   5.385   9.721 -0.4377  0.1163  0.2155
33015SOL    HW1 2322   3.404   5.293   9.730  1.9126  0.8799  2.4257
33015SOL    HW2 2323   3.417   5.412   9.638  0.7640 -0.3692  0.5898
33016SOL     OW 2324   9.672   6.602   6.353  0.3433 -0.4041  0.1595
33016SOL    HW1 2325   9.622   6.656   6.415  1.2191 -0.6495  1.1042
33016SOL    HW2 2326   9.621   6.521   6.346 -0.6192  0.2563 -0.7345
33017SOL     OW 2327   5.776   4.472   4.864  0.2187 -0.2828 -0.0280
33017SOL    HW1 2328   5.817   4.398   4.909 -1.0147 -0.9922 -0.0201
33017SOL    HW2 2329   5.724   4.433   4.794 -1.2190  0.4634  0.5580
33018SOL     OW 2330   2.089  11.297  10.686  0.2829  0.0569 -0.2385
33018SOL    HW1 2331   2.145  11.227  10.652  0.8904  0.4030  0.0367
33018SOL    HW2 2332   2.142  11.339  10.755 -0.9618 -0.7256  1.2640
33019SOL     OW 2333   6.035   7.310   4.073  0.1982 -0.2236 -0.4136
33019SOL    HW1 2334   6.129   7.298   4.086  0.0826 -2.3264 -1.1761
33019SOL    HW2 2335   6.028   7.350   3.986  0.4020  0.6434 -0.0386
33020SOL     OW 2336   4.063   3.854   1.626  0.3600 -0.6195  0.1463
33020SOL    HW1 2337   4.052   3.947   1.605  4.8823  0.5433  1.7608
33020SOL    HW2 2338   3.997   3.837   1.694  1.1102  2.2452  1.7523
33021SOL     OW 2339   8.128   5.875   5.718 -0.1484 -0.5842 -0.0021
33021SOL    HW1 2340   8.165   5.850   5.634  0.8492 -1.0976  0.5665
33021SOL    HW2 2341   8.169   5.816   5.781  1.0184  1.3695  1.1834
33022SOL     OW 2342   0.936   4.579   6.218 -0.0289 -0.6641 -0.5015
33022SOL    HW1 2343   1.005   4.553   6.280 -0.0001 -0.3414 -0.4003
33022SOL    HW2 2344   0.944   4.515   6.147  0.3887 -0.6176 -0.5015
33023SOL     OW 2345   3.605   1.372   0.040 -0.1928 -0.2506  0.0595
33023SOL    HW1 2346   3.637   1.283   0.024  3.2845  0.5044  1.9624
33023SOL    HW2 2347   3.607   1.382   0.135  0.2852  2.1075 -0.1407
33024SOL     OW 2348  10.696   3.759   7.422  0.4042 -0.1094 -0.5325
33024SOL    HW1 2349  10.645   3.793   7.348  0.1659 -0.6596 -0.6271
33024SOL    HW2 2350  10.756   3.696   7.383  0.6105 -0.0486 -0.3155
33025SOL     OW 2351   1.326   0.463  10.352  0.6835  0.0405  0.1110
33025SOL    HW1 2352   1.347   0.443  10.443 -0.5507 -1.7450  0.0520
33025SOL    HW2 2353   1.353   0.386  10.303 -1.6650 -0.4529 -0.5379
33026SOL     OW 2354   7.052  10.287   9.290  0.3253 -0.0688  0.0671
33026SOL    HW1 2355   6.971  10.334   9.308  0.5819  0.2336  0.4654
33026SOL    HW2 2356   7.112  10.354   9.256  0.5996 -0.1621  0.3553
33027SOL     OW 2357   8.226   6.926  10.909  0.1376 -0.0111  0.3175
33027SOL    HW1 2358   8.307   6.926  10.859  1.0504  0.2042  1.7215
33027SOL    HW2 2359   8.240   6.861  10.978 -0.4274  0.8163  1.2524
33028SOL     OW 2360   4.566  10.263   2.076  0.4145  0.1611  0.5929
33028SOL    HW1 2361   4.618  10.291   2.151  0.8600  0.1208  0.3004
33028SOL    HW2 2362   4.558  10.168   2.087 -0.0357  0.2293  0.9095
33029SOL     OW 2363   6.241   4.581   8.959  0.1569  1.1362 -0.4551
33029SOL    HW1 2364   6.222   4.552   8.869  1.0056 -0.7573 -0.0587
33029SOL    HW2 2365   6.335   4.597   8.960  0.3379  0.0627  0.3863
33030SOL     OW 2366  10.256   0.734  10.117 -0.2035  0.0817  0.2764
33030SOL    HW1 2367  10.332   0.758  10.064  0.7082 -1.4081  0.8453
33030SOL    HW2 2368  10.225   0.651  10.079 -2.2048  1.1493 -0.5835
33031SOL     OW 2369   3.203   6.938   6.480  0.3996 -0.4140  0.0259
33031SOL    HW1 2370   3.223   7.010   6.540 -1.9516  0.2565  0.1096
33031SOL    HW2 2371   3.289   6.906   6.451  1.5822  0.3789  2.3670
33032SOL     OW 2372   1.036  10.857   0.298  0.0087  0.4986 -0.2686
33032SOL    HW1 2373   0.980  10.911   0.354  2.5917 -0.4326  3.5878
33032SOL    HW2 2374   0.999  10.769   0.306 -0.0543  0.4902 -0.6604
33033SOL     OW 2375   3.705   0.665   2.150  0.0517 -0.1648  0.5795
33033SOL    HW1 2376   3.781   0.683   2.095  0.6388 -1.4618  0.9258
33033SOL    HW2 2377   3.707   0.732   2.218 -0.0736  0.8109 -0.3513
33034SOL     OW 2378  10.343   7.287   7.758 -0.3996  0.2143 -0.5216
33034SOL    HW1 2379  10.402   7.294   7.683 -0.5911 -0.8172 -0.7868
33034SOL    HW2 2380  10.357   7.198   7.792 -0.3768  0.6348  0.6173
33035SOL     OW 2381   4.789   1.291   9.068  0.0633 -0.2452 -0.3634
33035SOL    HW1 2382   4.835   1.253   9.143 -0.3703  1.6856  0.9566
33035SOL    HW2 2383   4.697   1.293   9.095  0.3065  3.7693  0.6713
33036SOL     OW 2384   6.093   0.943   4.538  0.6291  0.4657 -0.2722
33036SOL    HW1 2385   6.019   0.909   4.589 -0.3995  0.5836 -1.6235
33036SOL    HW2 2386   6.109   1.030   4.575 -0.4639  0.7731 -0.4813
33037SOL     OW 2387   0.236  10.317   3.598 -0.6527 -0.2793 -0.0973
33037SOL    HW1 2388   0.200  10.229   3.592  0.1097 -0.5233 -1.5074
33037SOL    HW2 2389   0.331  10.303   3.600 -0.5383  0.4461  1.4959
33038SOL     OW 2390   9.942   7.592   1.747  0.5236 -0.1096  0.3868
33038SOL    HW1 2391  10.018   7.635   1.706 -0.7476  0.3176 -1.6547
33038SOL    HW2 2392   9.867   7.645   1.719 -0.5165 -0.0779  2.9668
33039SOL     OW 2393   4.653   7.421   3.396 -0.4430  0.0633 -0.0229
33039SOL    HW1 2394   4.719   7.374   3.345  0.6614 -0.2538  1.6081
33039SOL    HW2 2395   4.609   7.478   3.333  1.7117  0.6221 -1.1012
33040SOL     OW 2396   4.769   5.938   4.944 -0.4446 -0.1954  0.0026
33040SOL    HW1 2397   4.790   5.880   4.871  4.2535  2.8411 -1.5638
33040SOL    HW2 2398   4.843   5.930   5.003 -1.0854  1.9296  1.2037
33041SOL     OW 2399   5.828  10.166   1.808  0.4733  0.0694 -0.4257
33041SOL    HW1 2400   5.835  10.086   1.756  0.3835  0.5338 -1.1692
33041SOL    HW2 2401   5.862  10.142   1.894  1.0124 -0.6018 -0.8172
33042SOL     OW 2402  10.310   7.797  11.198  0.3131 -0.1446  0.3777
33042SOL    HW1 2403  10.243   7.771  11.261  0.6692  0.9475  1.2251
33042SOL    HW2 2404  10.374   7.727  11.200 -0.5906 -1.0177 -0.1563
33043SOL     OW 2405  11.046   2.104   5.266 -0.5203 -0.0145 -0.1300
33043SOL    HW1 2406  10.984   2.031   5.255 -0.9299  0.0946  1.2443
33043SOL    HW2 2407  11.117   2.084   5.206 -0.5209 -1.6730  0.3693
33044SOL     OW 2408   1.192  11.134   2.890 -0.3895  0.2626  0.4344
33044SOL    HW1 2409   1.225  11.070   2.827  1.4731  0.5997  0.9909
33044SOL    HW2 2410   1.127  11.087   2.942 -0.4058 -0.6220 -0.3775
33045SOL     OW 2411   9.831   1.623   0.834  0.1401 -0.3323 -0.5621
33045SOL    HW1 2412   9.900   1.606   0.897 -0.2529 -0.6142 -0.2016
33045SOL    HW2 2413   9.854   1.706   0.794 -0.0719  0.2974  0.5901
33046SOL     OW 2414  10.081   5.569   6.067 -0.0572  0.1597  0.0016
33046SOL    HW1 2415  10.072   5.653   6.023 -0.7302  0.9252  1.5170
33046SOL    HW2 2416  10.166   5.536   6.039  0.0756  1.1846 -0.8628
33047SOL     OW 2417   0.934   9.752   8.760  0.7498  0.8130 -0.1691
33047SOL    HW1 2418   0.936   9.703   8.677 -1.3946 -0.5779  0.5183
33047SOL    HW2 2419   0.927   9.685   8.827 -0.0542  2.0045  0.9778
33048SOL     OW 2420   9.764   8.587   2.047  0.0515 -0.3367  0.0471
33048SOL    HW1 2421   9.747   8.580   1.953  0.8834 -1.0763 -0.0581
33048SOL    HW2 2422   9.813   8.508   2.069  2.5872  1.2263  0.4696
33049SOL     OW 2423   6.586   5.428   1.945 -0.7412 -0.1706 -0.0267
33049SOL    HW1 2424   6.495   5.432   1.915 -0.6265 -0.8848 -0.4852
33049SOL    HW2 2425   6.587   5.357   2.009 -0.4262 -0.4083 -0.2968
33050SOL     OW 2426   4.323  10.693   1.597  0.2557  0.0810 -0.5836
33050SOL    HW1 2427   4.400  10.680   1.541 -0.0148 -0.8818 -0.7632
33050SOL    HW2 2428   4.249  10.674   1.540 -0.0118 -1.3845  0.1950
33051SOL     OW 2429   8.379   2.002   1.056 -0.1862  0.1103 -0.5310
33051SOL    HW1 2430   8.432   1.995   0.977  1.8235 -1.9508  0.8870
33051SOL    HW2 2431   8.428   2.061   1.113 -1.2039  0.9261 -0.4560
33052SOL     OW 2432  11.259   6.692   0.437  0.5714 -0.2919  0.0348
33052SOL    HW1 2433  11.306   6.636   0.499  0.2998 -0.6805 -0.1071
33052SOL    HW2 2434  11.327   6.724   0.377  0.7921 -0.1236  0.3710
33053SOL     OW 2435   2.147   2.203   8.296 -0.0549  0.1310  0.0250
33053SOL    HW1 2436   2.104   2.239   8.374 -0.0397  3.0699 -1.1956
33053SOL    HW2 2437   2.077   2.157   8.249 -0.9841  1.4830  0.0139
33054SOL     OW 2438   1.060   1.581   3.850  0.1213  0.3473  0.4486
33054SOL    HW1 2439   1.019   1.648   3.795 -1.8849  0.0325  1.4614
33054SOL    HW2 2440   1.107   1.630   3.917 -0.0281  0.7325  0.2723
33055SOL     OW 2441   8.073   3.511  11.157 -0.4329  0.4404  0.2305
33055SOL    HW1 2442   8.159   3.469  11.150 -0.7431 -0.1333 -0.1393
33055SOL    HW2 2443   8.067   3.538  11.249 -0.1108 -0.0626  0.4013
33056SOL     OW 2444   3.806   8.472   4.888  0.3762  0.2785 -0.0609
33056SOL    HW1 2445   3.737   8.414   4.918  0.4843 -0.1346 -0.6168
33056SOL    HW2 2446   3.761   8.553   4.865  0.4937  1.4761  3.3184
33057SOL     OW 2447   7.528   2.900   0.117  0.3962 -0.3878 -0.2674
33057SOL    HW1 2448   7.598   2.837   0.133  1.8803  0.9284 -1.3218
33057SOL    HW2 2449   7.478   2.863   0.044  1.7432 -0.0205 -1.4236
33058SOL     OW 2450   7.269   2.743   1.991  0.3017 -0.4705 -0.0895
33058SOL    HW1 2451   7.363   2.728   1.988  0.1210 -2.0764  0.6817
33058SOL    HW2 2452   7.233   2.659   2.022 -1.1890  0.7682  1.7485
33059SOL     OW 2453   7.873   7.708  10.582 -0.2068 -0.9460  0.0236
33059SOL    HW1 2454   7.814   7.784  10.579 -2.2005 -2.3001  1.9177
33059SOL    HW2 2455   7.824   7.639  10.538  0.2996 -1.9096  0.9530
33060SOL     OW 2456   2.963   5.440   5.487  0.4586  0.0540 -0.0282
33060SOL    HW1 2457   2.886   5.397   5.451  0.8506  0.1769 -1.0288
33060SOL    HW2 2458   2.977   5.516   5.431  0.9029  0.4241  0.5630
33061SOL     OW 2459   1.840   4.220   2.606  0.2291  0.2873 -0.6182
33061SOL    HW1 2460   1.780   4.292   2.626  0.2367  0.5691 -1.5403
33061SOL    HW2 2461   1.927   4.257   2.619  0.2247 -0.0469  0.4723
33062SOL     OW 2462   9.429   5.560   0.238 -0.5801 -0.6137 -0.2385
33062SOL    HW1 2463   9.339   5.527   0.242 -1.5522  1.7652  4.0486
33062SOL    HW2 2464   9.425   5.635   0.179 -1.5363 -0.3929  0.0777
33063SOL     OW 2465   3.885   1.878  10.756  0.0486  0.2463  0.4758
33063SOL    HW1 2466   3.797   1.855  10.724  0.0208  0.7047  0.2257
33063SOL    HW2 2467   3.878   1.969  10.783  0.6633  0.5318 -0.3122
33064SOL     OW 2468   9.108   4.748   1.146  0.0560 -0.1354  0.6018
33064SOL    HW1 2469   9.075   4.821   1.197  2.5370  2.8152 -1.6536
33064SOL    HW2 2470   9.058   4.752   1.064  1.6003  0.3779 -0.3430
33065SOL     OW 2471   9.851   8.732   0.520 -0.5366  0.0894 -0.1241
33065SOL    HW1 2472   9.841   8.716   0.427  1.9125 -2.9112 -0.0262
33065SOL    HW2 2473   9.910   8.807   0.525  1.3720 -1.2716 -1.1214
33066SOL     OW 2474   2.358   6.596   1.329 -0.2998 -0.0743 -0.2259
33066SOL    HW1 2475   2.310   6.570   1.407  0.2717 -0.5356 -0.0247
33066SOL    HW2 2476   2.385   6.686   1.347  1.8911 -0.9248  1.1677
33067SOL     OW 2477   7.728   6.335   5.254 -0.4653  0.2379 -0.2100
33067SOL    HW1 2478   7.681   6.271   5.201 -0.2792 -0.2510  0.2028
33067SOL    HW2 2479   7.660   6.381   5.303 -0.6354  0.6748 -0.8483
33068SOL     OW 2480   5.732   3.693   5.838  0.5453  0.1606 -0.4289
33068SOL    HW1 2481   5.773   3.739   5.911 -0.9897 -0.0528  0.6402
33068SOL    HW2 2482   5.641   3.723   5.840  0.0614 -1.1932 -1.1334
33069SOL     OW 2483   2.050  11.273   8.215  0.3159 -0.2071  0.1348
33069SOL    HW1 2484   2.113  11.308   8.277  1.9590 -0.7629 -1.1459
33069SOL    HW2 2485   2.081  11.184   8.196 -0.7909 -0.4635 -0.6004
33070SOL     OW 2486   8.579   5.162   1.644  0.5887  0.3964 -0.1836
33070SOL    HW1 2487   8.507   5.111   1.607  0.9000  0.8749 -1.4763
33070SOL    HW2 2488   8.643   5.170   1.574  1.9544 -0.0464  0.9488
33071SOL     OW 2489   5.366  10.124  10.972  0.0253 -0.2766 -0.6131
33071SOL    HW1 2490   5.430  10.195  10.964 -0.7393  0.3536 -1.2678
33071SOL    HW2 2491   5.313  10.129  10.892 -2.7895  1.1698  1.1845
33072SOL     OW 2492   8.374   4.207   6.570  0.9232  0.1831  0.0528
33072SOL    HW1 2493   8.323   4.147   6.624  0.0059  1.3231  0.4972
33072SOL    HW2 2494   8.427   4.150   6.514 -1.2518 -1.0944 -0.8489
33073SOL     OW 2495   2.068   8.130   1.250  0.0039  0.4390 -0.1328
33073SOL    HW1 2496   2.098   8.047   1.212  0.4723  0.7336 -0.4246
33073SOL    HW2 2497   2.148   8.182   1.259 -0.1219  0.4622  1.0670
33074SOL     OW 2498   8.066   2.635   4.798  0.1022  0.3004  0.6513
33074SOL    HW1 2499   8.021   2.604   4.877  1.1065  0.2291  1.2065
33074SOL    HW2 2500   8.099   2.721   4.821  2.2150 -0.5722  1.0428
33075SOL     OW 2501   8.184   2.108   4.928 -0.7251 -0.5174 -0.9747
33075SOL    HW1 2502   8.177   2.036   4.865 -3.2314  0.3516 -1.7959
33075SOL    HW2 2503   8.134   2.179   4.890  1.3533  1.6075  0.0017
33076SOL     OW 2504   9.476  10.422   4.034  0.4420 -0.5010 -0.0856
33076SOL    HW1 2505   9.412  10.463   4.092  1.4393 -0.9658  1.4083
33076SOL    HW2 2506   9.434  10.342   4.004 -0.1976 -0.1115 -0.2392
33077SOL     OW 2507  11.124   1.355   1.217 -0.0875  0.2227  0.4897
33077SOL    HW1 2508  11.188   1.424   1.203 -0.2338  0.7329  2.1772
33077SOL    HW2 2509  11.041   1.393   1.188  0.2587 -0.3496 -1.4514
33078SOL     OW 2510   0.410   9.919   9.139 -0.0277  0.1544 -0.3015
33078SOL    HW1 2511   0.498   9.909   9.101  0.4736 -0.4899  0.9652
33078SOL    HW2 2512   0.372   9.832   9.132 -0.2469  0.2339 -0.0780
33079SOL     OW 2513   5.068   3.786   1.015 -0.2245  0.2880 -0.0142
33079SOL    HW1 2514   5.077   3.759   1.106 -2.3049  1.9790  0.7798
33079SOL    HW2 2515   5.146   3.837   0.997  0.7332 -0.9681  0.4308
33080SOL     OW 2516   6.532  10.508   6.202  0.6915  0.9884  0.6748
33080SOL    HW1 2517   6.504  10.536   6.115  1.2745 -0.0092  0.1472
33080SOL    HW2 2518   6.561  10.417   6.190 -0.2101  0.4810  2.1154
33081SOL     OW 2519   3.918   8.845   0.546 -0.2375  0.0598 -0.0998
33081SOL    HW1 2520   3.865   8.768   0.528  1.4251 -0.8701 -1.3128
33081SOL    HW2 2521   3.927   8.888   0.461 -0.4180  1.1251  0.4004
33082SOL     OW 2522   0.898   2.288   5.290 -0.6902  0.1840 -0.2584
33082SOL    HW1 2523   0.913   2.334   5.207 -0.4326 -0.2855 -0.4742
33082SOL    HW2 2524   0.925   2.198   5.273 -0.6539  0.0795  0.3341
33083SOL     OW 2525   1.247   2.048   8.964  0.4339 -0.0202  0.2911
33083SOL    HW1 2526   1.246   2.136   9.000 -1.3779  0.2057 -0.2251
33083SOL    HW2 2527   1.331   2.042   8.917  0.5804  1.4110  0.3307
33084SOL     OW 2528   3.635   4.473   7.169 -0.2600 -0.4366  0.2002
33084SOL    HW1 2529   3.651   4.430   7.253  0.8431 -0.0673  0.1993
33084SOL    HW2 2530   3.636   4.566   7.189 -2.4210 -0.3472  0.1608
33085SOL     OW 2531   0.588   0.729   7.356  0.0579 -0.9050 -0.0054
33085SOL    HW1 2532   0.495   0.713   7.338  0.1778 -1.2214 -0.3736
33085SOL    HW2 2533   0.616   0.786   7.285 -0.0846  0.0135  0.6566
33086SOL     OW 2534   8.208  10.582   2.067 -0.0411  0.2880  0.3003
33086SOL    HW1 2535   8.168  10.630   2.138 -0.4627  1.5040 -0.7170
33086SOL    HW2 2536   8.138  10.570   2.003  0.7082  0.6701 -0.6169
33087SOL     OW 2537   8.148   7.358   6.111 -0.3154 -0.0771  0.0515
33087SOL    HW1 2538   8.070   7.332   6.161 -0.5447  1.3192  0.4860
33087SOL    HW2 2539   8.150   7.454   6.119  1.8049 -0.1195  0.5595
33088SOL     OW 2540   6.870   4.746  11.170  0.1335  0.2544 -0.1945
33088SOL    HW1 2541   6.870   4.829  11.217  1.0359 -0.5916  1.3899
33088SOL    HW2 2542   6.962   4.731  11.147  0.0047 -0.3887 -0.3102
33089SOL     OW 2543   8.416   1.173   5.014  0.4197 -0.3339 -0.3197
33089SOL    HW1 2544   8.420   1.268   5.007 -1.3923 -0.1915 -0.0550
33089SOL    HW2 2545   8.350   1.157   5.082  0.0310 -1.7686 -0.9919
33090SOL     OW 2546   0.912   6.986   6.205 -0.5826 -0.3573 -0.0395
33090SOL    HW1 2547   0.818   6.997   6.188 -0.5527 -1.5882 -1.1734
33090SOL    HW2 2548   0.916   6.955   6.295 -1.1521  0.8862  0.4529
33091SOL     OW 2549   9.389   6.118   8.187  0.1227 -0.3976 -0.0963
33091SOL    HW1 2550   9.413   6.210   8.173  0.5616 -0.4599  0.2092
33091SOL    HW2 2551   9.309   6.106   8.136 -0.2832  0.3208  0.3507
33092SOL     OW 2552   1.252   2.814   8.275 -0.0299  0.0029 -0.3532
33092SOL    HW1 2553   1.306   2.869   8.218 -1.7951  3.7873  1.2573
33092SOL    HW2 2554   1.275   2.841   8.364 -1.1315 -1.8259  0.5432
33093SOL     OW 2555   8.938   8.225   4.418 -0.4670 -0.2557  0.1527
33093SOL    HW1 2556   8.975   8.147   4.378  0.8427  0.3377  0.1565
33093SOL    HW2 2557   8.846   8.225   4.390  0.0550 -0.6260 -1.6568
33094SOL     OW 2558  11.094   5.320   7.345 -0.5140  0.4566 -0.6387
33094SOL    HW1 2559  11.026   5.257   7.367  0.9239 -0.0927  2.9143
33094SOL    HW2 2560  11.084   5.390   7.410  2.0350  0.4835 -0.1433
33095SOL     OW 2561  10.320   7.802   4.901 -0.0430  0.3670 -0.4735
33095SOL    HW1 2562  10.228   7.790   4.881 -0.4907  0.7775  1.1301
33095SOL    HW2 2563  10.329   7.769   4.991  1.4911 -0.1911 -0.8058
33096SOL     OW 2564   8.819  11.387   6.183  0.0221 -0.7045  0.4394
33096SOL    HW1 2565   8.780  11.368   6.098 -1.9418  0.0934  1.0842
33096SOL    HW2 2566   8.913  11.391   6.167 -0.3533  0.1768 -1.8437
33097SOL     OW 2567   6.832  10.853   9.966  0.3029 -0.6781 -0.0146
33097SOL    HW1 2568   6.848  10.770   9.923 -0.8271 -0.5663 -0.6931
33097SOL    HW2 2569   6.898  10.858  10.036  0.0124 -2.4028  0.4163
33098SOL     OW 2570  10.479  10.404   1.713 -0.5338  0.3570  0.0984
33098SOL    HW1 2571  10.514  10.331   1.663 -0.1877  0.3445  0.3488
33098SOL    HW2 2572  10.407  10.439   1.660 -0.4671  0.0614 -0.1860
33099SOL     OW 2573  10.409  11.328   7.239  0.4803  0.4639  0.6375
33099SOL    HW1 2574  10.404  11.266   7.311 -1.1925 -2.2744 -1.6155
33099SOL    HW2 2575  10.488  11.304   7.191 -0.8922 -1.0109 -1.0231
33100SOL     OW 2576   2.549   1.604   9.867  0.0696 -0.6325 -0.0878
33100SOL    HW1 2577   2.636   1.563   9.872  0.3095 -0.4750 -1.9393
33100SOL    HW2 2578   2.506   1.559   9.794 -1.7046 -1.2028  1.2627
33101SOL     OW 2579   9.466   7.540   8.424  0.7397 -0.3457  0.1164
33101SOL    HW1 2580   9.377   7.568   8.444 -0.3159 -1.0547 -3.0455
33101SOL    HW2 2581   9.487   7.475   8.491 -1.4371 -0.7256  0.4869
33102SOL     OW 2582   3.918   8.486   2.748  0.0504  0.1312  0.0476
33102SOL    HW1 2583   3.971   8.414   2.783 -0.9703 -0.3975  0.5637
33102SOL    HW2 2584   3.872   8.521   2.824  0.3111  1.1526 -0.2515
33103SOL     OW 2585   3.038   1.173   7.019 -0.2864 -0.4835 -0.0722
33103SOL    HW1 2586   3.038   1.154   7.113  0.2906  1.0401  0.2609
33103SOL    HW2 2587   2.947   1.159   6.992 -1.3168  2.3652  1.4781
33104SOL     OW 2588   2.607   8.867   9.075  0.1043 -0.1698 -0.2686
33104SOL    HW1 2589   2.559   8.908   9.148  1.0311  2.0719 -0.8405
33104SOL    HW2 2590   2.564   8.900   8.997  1.6026  0.7133 -0.7648
33105SOL     OW 2591   2.056   2.152   9.222  0.5872 -0.0183 -0.1493
33105SOL    HW1 2592   2.142   2.123   9.192 -0.1304 -1.3225 -1.0780
33105SOL    HW2 2593   1.997   2.081   9.196 -1.1213  1.8192 -1.5217
33106SOL     OW 2594   0.879   8.377   0.899 -0.5965  0.0843 -0.1095
33106SOL    HW1 2595   0.952   8.329   0.858 -1.2405 -0.3286 -0.8029
33106SOL    HW2 2596   0.921   8.450   0.945  0.1284  0.8169 -1.8620
33107SOL     OW 2597   5.862  10.577   7.426 -0.1957 -0.3891  0.2639
33107SOL    HW1 2598   5.894  10.657   7.469  1.0836  0.0630 -1.4176
33107SOL    HW2 2599   5.789  10.548   7.481 -0.5374  1.7828  1.0631
33108SOL     OW 2600   4.928   4.632   0.988 -0.4713  0.0454  0.0233
33108SOL    HW1 2601   4.947   4.717   0.949 -2.1919  0.5563  0.2039
33108SOL    HW2 2602   5.013   4.589   0.994  0.3862  1.5858 -0.4432
33109SOL     OW 2603   7.417   7.207   9.328  0.2207 -0.3122 -0.5614
33109SOL    HW1 2604   7.388   7.215   9.237  1.4512  2.1825 -0.8319
33109SOL    HW2 2605   7.337   7.189   9.377 -0.5966 -0.8873 -2.0506
33110SOL     OW 2606   3.338   0.896   3.472  0.4173  0.3013 -0.1151
33110SOL    HW1 2607   3.402   0.956   3.432  1.5936 -0.0067  1.2050
33110SOL    HW2 2608   3.314   0.939   3.554  1.8589 -1.3120  1.2239
33111SOL     OW 2609   0.293   2.101   6.100 -0.1280  0.0215  0.0450
33111SOL    HW1 2610   0.311   2.007   6.108 -0.2389  0.0004  0.0469
33111SOL    HW2 2611   0.289   2.116   6.005 -1.5415 -0.2513  0.0440
33112SOL     OW 2612   7.409   8.249   7.671 -0.8730  0.3595 -0.6607
33112SOL    HW1 2613   7.485   8.240   7.728 -0.6940  0.8763 -0.8121
33112SOL    HW2 2614   7.398   8.163   7.631 -2.1671 -0.6255  1.5897
33113SOL     OW 2615   1.260   9.263   3.273  0.1450  0.2950 -0.3112
33113SOL    HW1 2616   1.344   9.220   3.258  0.6484  0.6712  1.2588
33113SOL    HW2 2617   1.281   9.357   3.274 -0.2886  0.3915  0.0673
33114SOL     OW 2618   3.691   7.311   5.675  0.7392 -0.8333 -0.4359
33114SOL    HW1 2619   3.781   7.309   5.708 -0.1467  0.4507  2.2830
33114SOL    HW2 2620   3.642   7.255   5.735 -0.6208 -0.0536 -0.7912
33115SOL     OW 2621   5.450   6.422  10.187  0.0087 -0.4708 -0.1288
33115SOL    HW1 2622   5.443   6.353  10.253  1.0164 -0.4474  0.0213
33115SOL    HW2 2623   5.512   6.485  10.224 -1.5919  1.0212  0.1482
33116SOL     OW 2624   4.077   4.480   2.018 -0.2618 -0.1710  0.0134
33116SOL    HW1 2625   4.059   4.397   1.973  0.3623 -1.0689  1.3619
33116SOL    HW2 2626   4.010   4.540   1.984 -1.2714 -1.4593 -0.3636
33117SOL     OW 2627   4.216   8.706  10.841 -0.2784  0.1580 -0.5633
33117SOL    HW1 2628   4.190   8.704  10.933 -1.0362  1.6108 -0.7208
33117SOL    HW2 2629   4.176   8.786  10.806  1.8503  0.8511 -1.6050
33118SOL     OW 2630   9.378   7.344   2.867  0.3164 -0.3594 -0.0106
33118SOL    HW1 2631   9.442   7.391   2.920  1.1457 -1.4753  0.0154
33118SOL    HW2 2632   9.423   7.329   2.783  0.5491 -2.1854  0.4193
33119SOL     OW 2633   4.289   5.886   2.928 -0.1357  0.0642  0.4693
33119SOL    HW1 2634   4.288   5.899   2.833  2.8288 -0.1201  0.3199
33119SOL    HW2 2635   4.323   5.797   2.940  2.4482  1.0776  1.6204
33120SOL     OW 2636  10.740   5.671   2.335 -0.0584  0.1394  0.5676
33120SOL    HW1 2637  10.684   5.748   2.349 -1.8510 -0.3948 -2.5347
33120SOL    HW2 2638  10.679   5.597   2.338  1.1087 -0.8461  0.5600
33121SOL     OW 2639   2.043  10.010   9.783  0.6688  0.6571 -0.3465
33121SOL    HW1 2640   2.097  10.077   9.741  1.4099  0.7507  0.7107
33121SOL    HW2 2641   2.106   9.945   9.815  0.0518  0.1040 -0.2301
33122SOL     OW 2642   2.817   4.095   3.514  0.2002  0.2609 -0.1023
33122SOL    HW1 2643   2.801   4.176   3.563 -1.9863 -1.4177  2.1715
33122SOL    HW2 2644   2.899   4.061   3.551  1.7162  1.8134 -1.7945
33123SOL     OW 2645   9.400   1.560   1.658  0.7274  0.0013 -0.0271
33123SOL    HW1 2646   9.458   1.493   1.695 -0.6389 -0.6351  1.0643
33123SOL    HW2 2647   9.439   1.643   1.687  0.6077 -0.4428  1.5294
33124SOL     OW 2648  10.113   4.428   1.736 -0.0667 -0.2616  0.1069
33124SOL    HW1 2649  10.186   4.482   1.765  0.1135 -0.2454 -0.3774
33124SOL    HW2 2650  10.120   4.426   1.641 -0.5535 -0.4621  0.0707
33125SOL     OW 2651   2.350   6.868  10.438 -0.0186 -0.2976  0.0059
33125SOL    HW1 2652   2.365   6.813  10.361 -1.0107 -0.4474 -0.0980
33125SOL    HW2 2653   2.273   6.921  10.414 -0.5595 -0.6016  1.0193
33126SOL     OW 2654   0.573   4.025   4.426  0.1034  0.0354 -0.3953
33126SOL    HW1 2655   0.639   4.076   4.380 -0.1071 -0.3057 -1.0811
33126SOL    HW2 2656   0.623   3.956   4.471  0.4657  1.2192  1.0986
33127SOL     OW 2657   0.743   2.264  10.778  0.3796 -0.2573  0.0793
33127SOL    HW1 2658   0.812   2.328  10.759 -0.8577  1.8773  2.2195
33127SOL    HW2 2659   0.790   2.185  10.805  1.9774 -0.7267 -3.5633
33128SOL     OW 2660   8.166   7.842   9.480 -0.6429 -0.0015  0.2251
33128SOL    HW1 2661   8.247   7.853   9.530 -1.1220  0.5743  0.9040
33128SOL    HW2 2662   8.120   7.925   9.492 -0.3355  0.5544 -2.0097
33129SOL     OW 2663   4.461   2.219  11.082  0.0673 -0.1401  0.3793
33129SOL    HW1 2664   4.404   2.296  11.079  0.6045  0.2403 -1.1920
33129SOL    HW2 2665   4.534   2.242  11.024  0.8868 -1.3350  0.9044
33130SOL     OW 2666   4.386   1.695   1.629 -0.6133  0.1798  0.8417
33130SOL    HW1 2667   4.419   1.619   1.678  0.5085 -0.1988 -0.4525
33130SOL    HW2 2668   4.410   1.770   1.683  2.0613 -0.1080  0.2044
33131SOL     OW 2669   4.234   4.121   4.890  0.1330 -0.2160 -0.3116
33131SOL    HW1 2670   4.293   4.157   4.823 -1.4632  1.2267 -1.0048
33131SOL    HW2 2671   4.246   4.179   4.966  0.5749 -0.7420  0.0308
33132SOL     OW 2672  10.489  10.140   8.486 -0.3897  0.2317  0.6906
33132SOL    HW1 2673  10.565  10.121   8.430 -0.6244 -0.7492  0.7051
33132SOL    HW2 2674  10.522  10.129   8.576 -0.8358 -1.4059  0.6872
33133SOL     OW 2675   2.722   0.227   6.135 -0.5198  0.6078  0.4546
33133SOL    HW1 2676   2.752   0.315   6.160  0.2770  0.3208  0.5404
33133SOL    HW2 2677   2.737   0.222   6.041  1.1862 -0.0733  0.7250
33134SOL     OW 2678  11.199   7.997   3.716  0.3903 -0.1183  0.4108
33134SOL    HW1 2679  11.270   7.940   3.748  0.6656 -0.0349 -0.0411
33134SOL    HW2 2680  11.224   8.085   3.747 -0.4380 -0.3422  1.7899
33135SOL     OW 2681   8.273   4.338   9.426 -0.2095  0.3576  0.0475
33135SOL    HW1 2682   8.243   4.414   9.377 -0.2865  1.2223  1.3790
33135SOL    HW2 2683   8.197   4.281   9.432 -0.5625  0.8352  0.2282
33136SOL     OW 2684   8.587   7.743   3.016  0.3289  0.4313 -0.5813
33136SOL    HW1 2685   8.567   7.748   3.109  2.2869  0.7289 -0.1305
33136SOL    HW2 2686   8.626   7.656   3.004 -0.5394  0.1270 -1.2652
33137SOL     OW 2687   3.714   8.839   2.173 -0.1049 -0.3464 -0.4411
33137SOL    HW1 2688   3.739   8.899   2.243 -1.1351 -0.1533 -0.2375
33137SOL    HW2 2689   3.782   8.770   2.177  0.3409  0.1101  0.1686
33138SOL     OW 2690  10.872   1.833   0.323 -0.1776  0.3596 -0.1691
33138SOL    HW1 2691  10.952   1.855   0.371 -0.2400  0.8618 -0.2876
33138SOL    HW2 2692  10.817   1.788   0.388  0.3330 -0.3006 -0.1822
33139SOL     OW 2693   3.904   2.307   7.055  0.0790  0.0385  0.4409
33139SOL    HW1 2694   3.995   2.294   7.028  0.1285  2.4065 -0.6950
33139SOL    HW2 2695   3.853   2.263   6.987  0.3321  1.8342 -0.9787
33140SOL     OW 2696   1.073   8.193   0.460 -0.2005 -0.3265 -0.1676
33140SOL    HW1 2697   1.158   8.214   0.422 -0.1906 -1.3111 -0.7338
33140SOL    HW2 2698   1.046   8.273   0.506  1.4417 -0.2940  0.8231
33141SOL     OW 2699   4.471  11.256   0.755 -0.0510  0.2595 -0.1207
33141SOL    HW1 2700   4.542  11.207   0.797  0.3758  0.2137 -0.8811
33141SOL    HW2 2701   4.486  11.244   0.661 -0.4862  1.0883 -0.3018
33142SOL     OW 2702   1.401   7.739  10.318 -0.2803  0.5565  0.2520
33142SOL    HW1 2703   1.467   7.805  10.341 -0.3041  0.1732  1.4813
33142SOL    HW2 2704   1.381   7.756  10.226  1.0325  1.1088  0.0553
33143SOL     OW 2705   4.863   2.142   0.929  0.1964  0.2111 -0.2494
33143SOL    HW1 2706   4.792   2.078   0.921  0.5948 -0.4846  1.3353
33143SOL    HW2 2707   4.843   2.209   0.863 -3.2640  1.2992  1.6743
33144SOL     OW 2708   1.133   9.241   9.501  0.4783  0.3633 -0.3104
33144SOL    HW1 2709   1.125   9.303   9.428  2.0455 -0.0196 -0.8360
33144SOL    HW2 2710   1.224   9.214   9.500  0.2144 -0.6664  0.9855
33145SOL     OW 2711   8.778  11.269   6.413 -0.0387 -0.0666 -0.6328
33145SOL    HW1 2712   8.783  11.326   6.337  1.4586  0.7750  0.0642
33145SOL    HW2 2713   8.801  11.182   6.380  0.7619  0.3205 -1.1181
33146SOL     OW 2714   2.463   1.346   8.153  0.0977 -0.0910 -0.4827
33146SOL    HW1 2715   2.468   1.435   8.187  3.6594 -0.0571 -0.7305
33146SOL    HW2 2716   2.478   1.355   8.059  2.3717 -0.9685 -0.2762
33147SOL     OW 2717   3.289   0.666   5.491  0.0736 -0.1479  0.5588
33147SOL    HW1 2718   3.237   0.599   5.447  2.2634 -2.9799  1.9364
33147SOL    HW2 2719   3.344   0.617   5.552  1.0130  3.0684  2.5333
33148SOL     OW 2720   9.281   5.868   7.300 -0.1994  0.2715 -0.1961
33148SOL    HW1 2721   9.332   5.882   7.380  0.4013  1.9546 -0.8416
33148SOL    HW2 2722   9.266   5.773   7.298  0.0676  0.1473  1.7164
33149SOL     OW 2723   8.801   6.936   0.123 -0.3982 -0.7169  0.0908
33149SOL    HW1 2724   8.877   6.900   0.169  0.1186  2.1442  1.6802
33149SOL    HW2 2725   8.835   6.963   0.038 -0.4240 -2.3437 -0.4660
33150SOL     OW 2726   0.239   1.634   9.815 -0.0864  0.2389  0.0662
33150SOL    HW1 2727   0.287   1.664   9.737 -0.6192 -0.8412 -0.6971
33150SOL    HW2 2728   0.147   1.650   9.794 -0.2593 -0.3943  0.3227
33151SOL     OW 2729   3.850   2.037   0.161 -0.4726 -0.2139  0.5831
33151SOL    HW1 2730   3.943   2.052   0.174  0.2514 -1.5388 -2.2365
33151SOL    HW2 2731   3.808   2.119   0.187  1.6194  0.8887  0.6845
33152SOL     OW 2732   7.762   6.644   9.704  0.3703 -0.5911 -0.5465
33152SOL    HW1 2733   7.833   6.682   9.756 -0.8813 -0.1251  0.9150
33152SOL    HW2 2734   7.737   6.714   9.644  0.4820 -0.3757 -0.3462
33153SOL     OW 2735   4.858  10.703   8.875  0.2433 -0.1356 -0.2513
33153SOL    HW1 2736   4.883  10.787   8.914 -1.0795 -0.2966  1.0241
33153SOL    HW2 2737   4.879  10.638   8.942  1.9937 -0.9694 -1.5269
33154SOL     OW 2738   4.436   2.838   0.241  0.7400  0.6761  0.3025
33154SOL    HW1 2739   4.354   2.791   0.233  0.3983  1.4851 -1.1951
33154SOL    HW2 2740   4.502   2.770   0.255 -0.1854  0.0387  1.7488
33155SOL     OW 2741   9.029   3.382   1.695 -0.0264 -0.3283  0.1190
33155SOL    HW1 2742   9.100   3.319   1.703  1.4069  1.2862  0.5716
33155SOL    HW2 2743   9.068   3.458   1.653 -1.2833  0.8932  1.0637
33156SOL     OW 2744   5.490   5.363   5.316 -0.5740  0.0070  0.4118
33156SOL    HW1 2745   5.433   5.308   5.371 -0.6326 -1.6077 -1.1860
33156SOL    HW2 2746   5.437   5.441   5.298 -0.5629  0.5994  2.5616
33157SOL     OW 2747   3.655   9.472  10.437  0.1697  0.0234 -0.1372
33157SOL    HW1 2748   3.732   9.483  10.380 -1.4839  0.4132 -2.4215
33157SOL    HW2 2749   3.580   9.489  10.380 -1.6914 -1.2578  1.7722
33158SOL     OW 2750   5.096   1.044   1.581 -0.0141 -0.3242  0.0952
33158SOL    HW1 2751   5.092   1.100   1.658 -1.0684 -0.5077  0.1982
33158SOL    HW2 2752   5.086   0.955   1.615  0.3186 -0.4706 -0.1814
33159SOL     OW 2753   7.241  11.382   5.109  0.4575  0.0610 -0.5629
33159SOL    HW1 2754   7.270  11.452   5.168  1.9664 -1.0727  0.0853
33159SOL    HW2 2755   7.279  11.302   5.145 -1.3510 -1.1504 -1.2011
33160SOL     OW 2756   9.761  10.589   6.908  0.1301 -0.0978  0.2455
33160SOL    HW1 2757   9.827  10.657   6.902 -0.4590  0.7581  2.4099
33160SOL    HW2 2758   9.680  10.631   6.879  0.1179 -0.4538 -0.2383
33161SOL     OW 2759   5.455   0.639   3.238  0.5249  0.6302 -0.0419
33161SOL    HW1 2760   5.546   0.645   3.265 -0.1072  2.4830  1.9644
33161SOL    HW2 2761   5.417   0.724   3.262 -1.7928 -0.1704 -0.5908
33162SOL     OW 2762   0.778   1.026   0.385 -0.0952  0.3088  0.2889
33162SOL    HW1 2763   0.761   1.082   0.309  0.0147  0.6218  0.4939
33162SOL    HW2 2764   0.825   1.082   0.446 -0.5387  0.1811  0.7574
33163SOL     OW 2765   3.731   0.920   4.787  0.2072  0.0653  0.4721
33163SOL    HW1 2766   3.651   0.966   4.814  0.4407  1.3199 -0.8504
33163SOL    HW2 2767   3.720   0.831   4.820 -1.7154  0.2303  0.3745
33164SOL     OW 2768   3.082   2.827   9.954 -0.3950 -0.1882  0.3870
33164SOL    HW1 2769   3.020   2.891   9.987 -0.2774 -0.3796  0.9885
33164SOL    HW2 2770   3.035   2.744   9.959 -0.9719 -0.0221 -1.4816
33165SOL     OW 2771   5.008   6.275   5.060  0.1728  0.4021  0.8407
33165SOL    HW1 2772   5.093   6.297   5.097  0.3568  1.7649 -0.3196
33165SOL    HW2 2773   5.028   6.238   4.974 -0.3705  0.1420  0.8239
33166SOL     OW 2774   1.076  10.704   3.505  0.1016  0.0552 -0.0028
33166SOL    HW1 2775   1.137  10.752   3.559  2.3446 -0.3516 -2.0233
33166SOL    HW2 2776   1.071  10.617   3.546  0.6943  0.1680  0.3198
33167SOL     OW 2777   5.243   0.734   9.669  0.3053  0.0159  0.1661
33167SOL    HW1 2778   5.229   0.659   9.611  2.9304 -0.3231 -0.1756
33167SOL    HW2 2779   5.225   0.810   9.614 -0.1753 -0.3284 -0.1650
33168SOL     OW 2780   4.600   9.094   8.425  0.7709  0.6356 -0.2108
33168SOL    HW1 2781   4.510   9.060   8.433  0.3605  2.1165  3.0240
33168SOL    HW2 2782   4.655   9.026   8.464  0.9350  0.3249 -0.9580
33169SOL     OW 2783   5.667  10.458   0.889 -0.2718  0.2942  0.0970
33169SOL    HW1 2784   5.741  10.518   0.887  0.5521 -0.6784 -2.1914
33169SOL    HW2 2785   5.661  10.430   0.980  1.4701  1.2542  0.5493
33170SOL     OW 2786   1.698   1.921   5.791 -0.2641  0.0710  0.1446
33170SOL    HW1 2787   1.745   1.908   5.874 -0.4436 -1.0833  0.0916
33170SOL    HW2 2788   1.672   2.013   5.792  0.5206  0.2997  0.9540
33171SOL     OW 2789   8.073  11.227   8.009  0.1585 -0.0554 -0.4207
33171SOL    HW1 2790   8.042  11.181   7.931 -3.0994  1.7401 -0.3550
33171SOL    HW2 2791   8.157  11.186   8.029  0.3627 -1.7056 -3.8775
33172SOL     OW 2792   6.277  10.803   7.931  0.1348  0.4440  0.0129
33172SOL    HW1 2793   6.185  10.775   7.936  0.2628  0.0884  0.3986
33172SOL    HW2 2794   6.298  10.797   7.838  0.4576 -1.7484  0.1834
33173SOL     OW 2795   3.107   9.078  10.910 -0.2058  0.0648 -0.3928
33173SOL    HW1 2796   3.016   9.088  10.940  0.4345 -0.2523  1.8379
33173SOL    HW2 2797   3.127   8.986  10.924 -0.1913 -0.4124 -3.0602
33174SOL     OW 2798   3.135   5.719   2.813 -0.3221 -0.2993  0.6900
33174SOL    HW1 2799   3.175   5.640   2.850 -0.9429  0.0799  2.2250
33174SOL    HW2 2800   3.048   5.691   2.784 -0.3596 -0.2824  0.7869
33175SOL     OW 2801   4.854   2.355   7.816  0.2616  0.4511  0.4885
33175SOL    HW1 2802   4.764   2.366   7.784  0.0530  0.1781  0.9750
33175SOL    HW2 2803   4.877   2.440   7.853  0.1757  0.4934  0.4454
33176SOL     OW 2804   0.306  11.208   6.771  0.3713 -0.7924  0.4955
33176SOL    HW1 2805   0.395  11.227   6.742  0.6415 -1.1635  1.0600
33176SOL    HW2 2806   0.289  11.271   6.840 -0.9630  1.3530 -1.6180
33177SOL     OW 2807   5.924   7.543   8.667  0.3657  0.2937  0.5143
33177SOL    HW1 2808   5.846   7.489   8.658 -0.3008  1.5043 -1.9005
33177SOL    HW2 2809   5.935   7.554   8.762 -0.5945 -2.3502  1.0082
33178SOL     OW 2810   6.910   4.975   8.308 -0.4821 -0.2261 -0.2752
33178SOL    HW1 2811   6.886   4.898   8.256  0.1504 -0.2692 -0.5181
33178SOL    HW2 2812   7.000   4.958   8.335 -0.9551 -0.4116  1.2354
33179SOL     OW 2813   5.288   8.218   9.379  0.2816  0.1066 -0.1271
33179SOL    HW1 2814   5.277   8.274   9.456  1.8797 -0.8312  0.8278
33179SOL    HW2 2815   5.289   8.279   9.305 -1.8274  0.9839  0.4871
33180SOL     OW 2816  11.026   2.664   9.812 -0.3401 -0.6403  0.4249
33180SOL    HW1 2817  11.067   2.634   9.732  2.0270  2.8557  0.1206
33180SOL    HW2 2818  11.026   2.760   9.805  0.3570 -0.1276  4.7029
33181SOL     OW 2819   2.753   4.625   5.464 -0.0691  0.0499 -0.2380
33181SOL    HW1 2820   2.657   4.627   5.465 -0.1147  0.2229 -1.9391
33181SOL    HW2 2821   2.775   4.533   5.483 -0.6286 -0.2815 -1.1276
33182SOL     OW 2822   6.079   3.245   6.610  0.3450  0.4089 -0.1558
33182SOL    HW1 2823   6.045   3.280   6.693  1.4345 -0.5762  0.7375
33182SOL    HW2 2824   6.103   3.155   6.630  1.5075  0.4345 -1.3025
33183SOL     OW 2825   0.332   4.208   9.870  0.2134 -0.2664  0.1771
33183SOL    HW1 2826   0.374   4.251   9.945  0.7879 -0.1591 -0.2004
33183SOL    HW2 2827   0.269   4.273   9.838 -0.3614 -0.4836  0.8360
33184SOL     OW 2828   3.046   2.694   2.961 -0.0393  0.1111 -0.1125
33184SOL    HW1 2829   3.065   2.626   3.026 -0.0176  1.3186  1.2043
33184SOL    HW2 2830   2.953   2.714   2.974  0.3341  1.4695  0.7049
33185SOL     OW 2831   4.582   0.082   6.347 -0.5919 -0.1997  0.0953
33185SOL    HW1 2832   4.561   0.167   6.309  1.7336  0.6214  0.4892
33185SOL    HW2 2833   4.677   0.085   6.362 -0.9977 -1.2350  4.0115
33186SOL     OW 2834   3.502  10.484  11.013 -0.6430 -0.3773  0.3103
33186SOL    HW1 2835   3.494  10.572  11.049  2.6487  0.3908 -0.5260
33186SOL    HW2 2836   3.520  10.429  11.090 -2.2360 -0.3146  0.7721
33187SOL     OW 2837   1.725   6.825   5.546 -0.3510 -0.1436 -0.1339
33187SOL    HW1 2838   1.703   6.791   5.459  0.6999 -1.0326 -0.0740
33187SOL    HW2 2839   1.819   6.842   5.541 -0.4643  0.7280  0.5320
33188SOL     OW 2840  10.511   2.423   7.045 -0.0936  0.5942 -0.2684
33188SOL    HW1 2841  10.472   2.421   7.132  2.2266  0.5143  0.8631
33188SOL    HW2 2842  10.492   2.336   7.009 -0.3746  0.3265  0.4957
33189SOL     OW 2843   4.864   4.768   9.006  0.3537  0.0516 -0.3656
33189SOL    HW1 2844   4.805   4.812   9.068 -0.0157 -0.8899 -0.0363
33189SOL    HW2 2845   4.807   4.745   8.933  0.5075 -0.0442 -0.4543
33190SOL     OW 2846   4.828   1.984   2.326  0.3501 -0.5575 -0.0006
33190SOL    HW1 2847   4.736   1.962   2.320  0.4943 -1.2683  0.2467
33190SOL    HW2 2848   4.830   2.069   2.369 -0.2427  0.1475 -1.3246
33191SOL     OW 2849   9.068   0.350   3.820 -0.1760  0.2387  0.6357
33191SOL    HW1 2850   9.109   0.425   3.778 -0.5015  0.5420  0.8521
33191SOL    HW2 2851   9.003   0.319   3.757  2.5304 -2.2981 -1.1840
33192SOL     OW 2852   0.219   6.803   3.679 -0.2968 -0.2666 -0.0446
33192SOL    HW1 2853   0.284   6.751   3.725 -0.3883 -1.0814 -0.8193
33192SOL    HW2 2854   0.265   6.837   3.602 -0.9173 -1.3610 -0.9365
33193SOL     OW 2855   4.910  10.031   0.121  0.2710 -0.5613  0.4697
33193SOL    HW1 2856   4.817  10.010   0.115  0.1891 -0.2337  0.5588
33193SOL    HW2 2857   4.955   9.947   0.111  0.0712 -0.4525 -2.1247
33194SOL     OW 2858   8.952   1.229   1.479 -0.0302  0.0518 -0.1533
33194SOL    HW1 2859   9.018   1.289   1.512  0.3078 -0.3464 -0.1068
33194SOL    HW2 2860   8.906   1.198   1.558  0.5595 -0.6433 -0.0785
33195SOL     OW 2861   0.938   6.191   6.998  0.0546  0.0476 -0.1497
33195SOL    HW1 2862   0.867   6.127   7.010  2.1291 -2.7926 -1.7970
33195SOL    HW2 2863   0.987   6.188   7.080  0.4620 -0.9872 -0.4102
33196SOL     OW 2864   9.034   2.605   0.932  0.5213  0.2960 -0.1201
33196SOL    HW1 2865   9.129   2.618   0.929  0.6174 -0.3743 -0.1421
33196SOL    HW2 2866   9.007   2.643   1.016  0.6663  1.3402 -0.5311
33197SOL     OW 2867  10.308   8.618   5.747 -0.5785  0.2520 -0.4960
33197SOL    HW1 2868  10.394   8.642   5.781  0.4924 -2.6506 -0.8389
33197SOL    HW2 2869  10.287   8.686   5.683  1.7521  0.7197 -0.8294
33198SOL     OW 2870   0.373   7.286  11.271  0.0713 -0.2418  0.1109
33198SOL    HW1 2871   0.369   7.291  11.366  0.5294  1.0936  0.0752
33198SOL    HW2 2872   0.462   7.315  11.249 -0.1382 -0.2115 -0.7379
33199SOL     OW 2873   6.310   1.881   9.855 -0.4810 -0.0497  0.4061
33199SOL    HW1 2874   6.387   1.907   9.905 -0.6799 -0.3036  0.8602
33199SOL    HW2 2875   6.339   1.807   9.803  0.9253  2.7479 -3.1750
33200SOL     OW 2876   1.282   4.977   8.904  0.0929  0.1493  0.0927
33200SOL    HW1 2877   1.296   4.986   8.810  0.8438 -0.0311  0.1749
33200SOL    HW2 2878   1.251   4.887   8.915 -1.0449  0.5128 -0.0839
33201SOL     OW 2879   3.052   7.051   2.957 -0.0551  0.3016  0.5805
33201SOL    HW1 2880   3.004   7.126   2.923 -0.0447 -1.2418 -3.3252
33201SOL    HW2 2881   3.144   7.073   2.945 -0.0588 -0.4330 -1.0206
33202SOL     OW 2882   1.826   9.692   0.651  0.1141  1.1823 -0.0342
33202SOL    HW1 2883   1.898   9.652   0.601 -1.7018  0.9658 -2.6844
33202SOL    HW2 2884   1.797   9.624   0.711  1.2639  0.8317  0.1473
33203SOL     OW 2885   6.460   6.684  11.148  0.0125 -0.1937  0.6103
33203SOL    HW1 2886   6.456   6.649  11.237 -0.5140 -1.5460  0.0895
33203SOL    HW2 2887   6.381   6.738  11.139  0.1400  0.0593  1.0063
33204SOL     OW 2888   9.164   9.481   2.231 -0.1512  0.4515 -0.8086
33204SOL    HW1 2889   9.149   9.572   2.259 -0.5858 -0.1858  1.2266
33204SOL    HW2 2890   9.224   9.446   2.297 -0.3567 -0.8719 -1.3128
33205SOL     OW 2891   5.347   0.318   0.366 -0.1565 -0.5185 -0.1080
33205SOL    HW1 2892   5.273   0.363   0.324  0.2823  0.5398  0.2194
33205SOL    HW2 2893   5.424   0.365   0.334  0.3354 -1.2025  0.0601
33206SOL     OW 2894   0.764  10.256   4.957  0.6091 -0.3669 -0.5603
33206SOL    HW1 2895   0.685  10.280   4.909  0.1027 -2.0091 -0.5893
33206SOL    HW2 2896   0.735  10.242   5.047  0.9976 -0.3010 -0.4199
33207SOL     OW 2897   3.244   2.729   7.911 -0.5259  0.8333 -0.1378
33207SOL    HW1 2898   3.166   2.708   7.860 -1.2472  1.1071  0.8105
33207SOL    HW2 2899   3.212   2.734   8.002  0.4241  1.8131  0.1626
33208SOL     OW 2900   0.983   3.533   4.971  0.5415 -0.0736  0.3499
33208SOL    HW1 2901   0.956   3.480   5.045 -3.2093 -0.9101 -1.3775
33208SOL    HW2 2902   1.011   3.470   4.905 -3.6783 -0.2509 -1.6154
33209SOL     OW 2903   8.548   0.134   2.457  0.6645  0.7329 -0.1503
33209SOL    HW1 2904   8.612   0.069   2.486  0.2759  0.1938 -0.4705
33209SOL    HW2 2905   8.498   0.155   2.537 -0.5319 -0.8987 -0.4125
33210SOL     OW 2906   0.820   6.727   3.425  0.6332  0.1908  0.4534
33210SOL    HW1 2907   0.796   6.641   3.458 -2.0005  0.2880 -0.9214
33210SOL    HW2 2908   0.858   6.772   3.501 -1.5394 -0.8753  2.3088
33211SOL     OW 2909   4.355   3.453   9.387  0.2668 -0.6521 -0.3257
33211SOL    HW1 2910   4.345   3.546   9.407  1.8132 -0.7692  1.2233
33211SOL    HW2 2911   4.286   3.435   9.323 -1.1658  1.1560  0.6088
33212SOL     OW 2912   9.776   3.299   2.375 -0.0657 -0.3512 -0.3659
33212SOL    HW1 2913   9.845   3.339   2.322  1.2107 -2.1187 -0.0967
33212SOL    HW2 2914   9.746   3.224   2.324 -0.5792 -0.6175  0.3024
33213SOL     OW 2915  10.838   9.127   9.974 -0.6401  0.1967 -0.1212
33213SOL    HW1 2916  10.750   9.096   9.951 -0.8861  0.2738  0.7106
33213SOL    HW2 2917  10.892   9.101   9.899 -0.9185 -1.8646  0.3264
33214SOL     OW 2918   1.048  10.136   4.114 -0.1384  0.3851  0.0191
33214SOL    HW1 2919   1.113  10.087   4.064  1.0227  1.3678  0.5122
33214SOL    HW2 2920   1.067  10.227   4.094 -0.4450  0.7374  1.2834
33215SOL     OW 2921   8.248   2.586   3.488  0.2624  0.3459  0.5968
33215SOL    HW1 2922   8.175   2.531   3.461 -0.2618  1.3782 -0.1585
33215SOL    HW2 2923   8.311   2.579   3.416  0.0515  0.9707  0.3430
33216SOL     OW 2924   7.514   2.632   0.287 -0.1398 -0.0769 -0.3638
33216SOL    HW1 2925   7.424   2.651   0.260  0.0532  0.2317 -0.7901
33216SOL    HW2 2926   7.567   2.694   0.238  0.5247 -1.7406 -1.8271
33217SOL     OW 2927   5.505   7.710   4.216  0.0299 -0.1311  0.3659
33217SOL    HW1 2928   5.495   7.804   4.234  2.1447 -0.1388  1.7930
33217SOL    HW2 2929   5.496   7.704   4.120 -0.1641  1.5006  0.2436
33218SOL     OW 2930   7.904   3.235   9.909 -0.2381 -0.1083  0.3183
33218SOL    HW1 2931   7.920   3.178   9.985  2.4510  0.6804  0.4522
33218SOL    HW2 2932   7.955   3.196   9.838  0.6458  1.3830  0.0790
33219SOL     OW 2933   0.590   7.157   0.228  0.0045  0.2228 -0.0652
33219SOL    HW1 2934   0.509   7.170   0.178 -0.0704  2.8641  0.6107
33219SOL    HW2 2935   0.567   7.180   0.318  1.5284  1.2576  0.0944
33220SOL     OW 2936   0.064   4.200   0.355 -0.5905 -0.0578  0.7571
33220SOL    HW1 2937   0.148   4.245   0.351 -0.0925 -0.8696  1.6540
33220SOL    HW2 2938   0.087   4.108   0.362 -1.5505 -0.2416  1.5912
33221SOL     OW 2939   4.532   3.415   8.742  0.7839  0.4193 -0.1284
33221SOL    HW1 2940   4.517   3.365   8.822 -0.8092  2.1725  0.7432
33221SOL    HW2 2941   4.530   3.349   8.672  2.8001 -1.2339  1.2611
33222SOL     OW 2942   8.308   0.076   8.582  0.2106  0.1805 -0.4720
33222SOL    HW1 2943   8.238   0.022   8.619 -0.0156  1.1096  0.5250
33222SOL    HW2 2944   8.277   0.099   8.494  0.4163 -1.4622 -1.0051
33223SOL     OW 2945   5.696   8.701   1.440 -0.6248  0.7097  0.1011
33223SOL    HW1 2946   5.684   8.795   1.426 -3.0176  0.4374 -0.0490
33223SOL    HW2 2947   5.612   8.662   1.417 -1.0189 -1.0635  3.8857
33224SOL     OW 2948   9.308  10.814   8.653 -0.2071 -0.0342 -0.4111
33224SOL    HW1 2949   9.218  10.846   8.656  0.2469  1.2563  0.5402
33224SOL    HW2 2950   9.307  10.734   8.704 -1.0698 -0.7899 -1.5570
33225SOL     OW 2951   3.209   3.426   6.049 -0.1364 -0.0475 -1.0419
33225SOL    HW1 2952   3.274   3.483   6.091 -0.2213  0.4083 -1.5146
33225SOL    HW2 2953   3.128   3.442   6.097  0.3527 -1.5731  0.3970
33226SOL     OW 2954   8.303   8.534   1.605  0.2730  0.4431 -0.5358
33226SOL    HW1 2955   8.398   8.523   1.599  0.2573  0.6033 -1.1177
33226SOL    HW2 2956   8.285   8.538   1.699  0.6823 -1.0371 -0.3587
33227SOL     OW 2957   9.851  10.133   4.798 -0.3201  0.0139  0.2431
33227SOL    HW1 2958   9.903  10.146   4.719  0.4497  0.7461  0.8490
33227SOL    HW2 2959   9.858  10.217   4.845  1.7305 -1.2984  2.5356
33228SOL     OW 2960   9.169   7.919   9.201 -0.3350  0.2640 -0.4531
33228SOL    HW1 2961   9.088   7.887   9.242 -0.1771  0.4705  0.0285
33228SOL    HW2 2962   9.169   7.880   9.114 -0.8851  0.1458 -0.4040
33229SOL     OW 2963   5.675   3.509   8.736 -0.4806 -0.1840 -0.6493
33229SOL    HW1 2964   5.742   3.525   8.670 -0.5113  0.8539 -0.4475
33229SOL    HW2 2965   5.724   3.495   8.817 -0.4919 -0.1207 -0.6323
33230SOL     OW 2966   4.905   6.078   9.076 -0.3420  0.3121  0.1770
33230SOL    HW1 2967   4.840   6.146   9.090  1.6224  2.1942  0.7304
33230SOL    HW2 2968   4.972   6.120   9.022 -0.5304 -2.2051 -2.2248
33231SOL     OW 2969   8.733   6.886   9.092 -0.1991  0.5023  0.6732
33231SOL    HW1 2970   8.790   6.938   9.036  1.5475 -0.6201  1.3293
33231SOL    HW2 2971   8.725   6.801   9.048  1.0023 -0.3100  1.9502
33232SOL     OW 2972   2.501   9.748   7.316 -0.5432 -0.2572 -0.1294
33232SOL    HW1 2973   2.488   9.837   7.349  1.9317  0.4808 -0.9229
33232SOL    HW2 2974   2.493   9.756   7.221 -0.3454 -0.8909 -0.2029
33233SOL     OW 2975  10.421   3.611   9.020 -0.1322 -0.4807  0.9338
33233SOL    HW1 2976  10.357   3.628   8.951 -0.9989 -0.4600  1.7148
33233SOL    HW2 2977  10.489   3.677   9.007 -1.0397  0.5005  0.9968
33234SOL     OW 2978   8.127   2.864   3.467  0.6173 -0.1105  0.6200
33234SOL    HW1 2979   8.118   2.959   3.472  1.0123 -0.0023 -0.3326
33234SOL    HW2 2980   8.194   2.851   3.399 -0.1781 -1.0898 -0.0004
33235SOL     OW 2981   5.410   2.511  10.333 -0.1060 -0.1538  0.0859
33235SOL    HW1 2982   5.476   2.463  10.282  1.0443 -1.8254  2.9378
33235SOL    HW2 2983   5.327   2.472  10.306  0.3719 -0.4484 -1.0441
33236SOL     OW 2984   4.556   4.289   3.290  0.0164 -0.0340  0.3279
33236SOL    HW1 2985   4.478   4.306   3.237  1.1401  0.2255 -1.2956
33236SOL    HW2 2986   4.630   4.302   3.231  1.4015  1.3096  2.2250
33237SOL     OW 2987   3.973  11.353   3.419  0.1499  0.6882  0.2647
33237SOL    HW1 2988   3.950  11.349   3.512 -0.3651 -1.6034  0.0933
33237SOL    HW2 2989   3.931  11.433   3.388 -2.0309  0.0869  1.4406
33238SOL     OW 2990   1.803   1.849   1.958 -0.2087 -0.4975 -0.1525
33238SOL    HW1 2991   1.759   1.768   1.930  1.6519 -2.3983  2.0192
33238SOL    HW2 2992   1.886   1.848   1.910  0.2273 -0.3809  0.5919
33239SOL     OW 2993   0.740   7.375   7.471  0.5000  0.0580 -0.1777
33239SOL    HW1 2994   0.732   7.352   7.378 -0.7655 -0.9921  0.1761
33239SOL    HW2 2995   0.671   7.440   7.486  0.5359  0.0345  0.0945
33240SOL     OW 2996   3.125   7.574  11.151 -0.2059 -0.2869 -0.0148
33240SOL    HW1 2997   3.149   7.655  11.107  3.1881 -1.3588 -0.5035
33240SOL    HW2 2998   3.164   7.582  11.239  2.0725 -2.0403 -0.7417
33241SOL     OW 2999   4.945   7.429  11.097 -0.0486  0.2871 -0.2314
33241SOL    HW1 3000   5.030   7.398  11.129  1.3874  3.3316 -0.7414
33241SOL    HW2 3001   4.892   7.350  11.091  2.9514 -1.8885 -0.5835
33242SOL     OW 3002   5.273   8.041   7.278  0.5384  0.1380 -0.8350
33242SOL    HW1 3003   5.286   8.126   7.319 -0.0616 -0.2563  0.2070
33242SOL    HW2 3004   5.348   7.989   7.306  0.7078  0.1983 -1.1653
33243SOL     OW 3005   1.687   8.977   0.686 -0.2654  0.0019 -0.3340
33243SOL    HW1 3006   1.725   8.890   0.677 -0.7374 -0.1804 -0.5973
33243SOL    HW2 3007   1.601   8.970   0.644 -0.4036  0.5281 -0.1436
33244SOL     OW 3008   1.580   0.408   7.121  0.0207 -0.2597  0.9979
33244SOL    HW1 3009   1.515   0.372   7.061 -0.0244  1.1145  0.1879
33244SOL    HW2 3010   1.589   0.342   7.190  0.2200 -1.9605 -0.6080
33245SOL     OW 3011   1.245   0.533   9.425  0.2514  0.2061 -0.0553
33245SOL    HW1 3012   1.324   0.587   9.428 -0.1613  0.7852  1.7146
33245SOL    HW2 3013   1.227   0.513   9.517 -1.0562 -0.8172 -0.5127
33246SOL     OW 3014   7.251  10.907   4.783 -0.0127 -0.3487  0.0182
33246SOL    HW1 3015   7.266  10.946   4.869 -0.2000 -0.4632  0.1034
33246SOL    HW2 3016   7.226  10.816   4.801 -2.4587  0.2522 -0.0125
33247SOL     OW 3017   1.255   5.992   2.031  0.0756  0.2049  0.4256
33247SOL    HW1 3018   1.264   6.016   2.123 -1.5741  0.3990  0.5787
33247SOL    HW2 3019   1.210   5.908   2.032  0.2095  0.1200 -0.1877
33248SOL     OW 3020   7.065   2.546   4.632 -0.5255 -0.2630 -0.5159
33248SOL    HW1 3021   7.098   2.629   4.597  1.3672 -0.8598 -0.2582
33248SOL    HW2 3022   6.973   2.544   4.606 -0.9818  2.4559  0.5056
33249SOL     OW 3023   0.920   3.087  11.270  0.0267 -0.1916  0.0288
33249SOL    HW1 3024   0.827   3.078  11.251 -0.3274 -2.0344  2.1859
33249SOL    HW2 3025   0.952   2.996  11.274  1.5056  0.3421  1.0762
33250SOL     OW 3026   6.590  11.141   0.657  0.3458 -0.1857 -0.0605
33250SOL    HW1 3027   6.606  11.236   0.653  0.5810 -0.1562  1.0808
33250SOL    HW2 3028   6.512  11.128   0.604  0.3819  0.6293 -0.3402
33251SOL     OW 3029  10.626   0.915   6.225 -0.1435 -0.3244 -0.3775
33251SOL    HW1 3030  10.534   0.893   6.212 -0.3419  0.5590 -0.5193
33251SOL    HW2 3031  10.670   0.830   6.234 -0.9734 -0.7515 -0.2501
33252SOL     OW 3032   8.978   3.784   6.535 -0.2467  0.6912 -0.1102
33252SOL    HW1 3033   9.040   3.780   6.463 -0.3418  1.9404 -0.2927
33252SOL    HW2 3034   8.894   3.806   6.494 -1.1720 -2.2282 -0.0297
33253SOL     OW 3035   2.857   0.367   6.399  0.0195 -0.5531  0.3675
33253SOL    HW1 3036   2.811   0.443   6.435  1.5039  0.6995 -0.2563
33253SOL    HW2 3037   2.833   0.295   6.457 -3.8036 -0.3512 -0.6896
33254SOL     OW 3038   9.897   5.117   7.028  0.1321  0.2744 -0.4424
33254SOL    HW1 3039   9.974   5.150   6.980 -0.3285  0.6249 -0.9540
33254SOL    HW2 3040   9.826   5.176   7.003 -0.1318  0.4314  0.6534
33255SOL     OW 3041   7.869   6.451   8.016 -0.1177  0.5107 -0.3706
33255SOL    HW1 3042   7.786   6.405   8.004  0.2815  0.1519 -1.8605
33255SOL    HW2 3043   7.934   6.394   7.977  1.1114 -0.0118  2.2420
33256SOL     OW 3044   0.676   3.366   0.481  0.0501 -0.2796  0.2442
33256SOL    HW1 3045   0.735   3.361   0.407  0.3166 -2.0502  0.5269
33256SOL    HW2 3046   0.589   3.350   0.443 -0.0601  0.6425  0.0762
33257SOL     OW 3047   5.045   7.924   4.752 -0.4630 -0.2187 -0.4643
33257SOL    HW1 3048   5.069   7.842   4.709  3.2978 -1.4095  3.2083
33257SOL    HW2 3049   5.074   7.993   4.692  0.5142 -1.6523 -1.6993
33258SOL     OW 3050   8.435   5.556   9.745 -0.4252  0.0071 -0.3822
33258SOL    HW1 3051   8.494   5.501   9.796  0.1659  2.4199  1.7136
33258SOL    HW2 3052   8.471   5.551   9.656  1.0456 -1.0426  0.2089
33259SOL     OW 3053   7.626   6.040   4.699 -0.6939 -0.4474  0.2412
33259SOL    HW1 3054   7.601   6.125   4.736 -1.5008 -1.1666  1.4278
33259SOL    HW2 3055   7.623   6.053   4.604  3.1141  1.9618  0.2556
33260SOL     OW 3056   2.682   7.753   0.110  0.1228 -0.0207  0.8184
33260SOL    HW1 3057   2.629   7.725   0.185  0.1029 -0.6086  0.5860
33260SOL    HW2 3058   2.737   7.823   0.146  1.5072 -1.5941  1.9088
33261SOL     OW 3059   3.737  11.188   5.391 -0.3551  0.0326 -0.5533
33261SOL    HW1 3060   3.801  11.259   5.396  0.1493 -0.3782 -1.1068
33261SOL    HW2 3061   3.771  11.121   5.450  0.2402 -0.5819 -1.5678
33262SOL     OW 3062   3.518   0.932   7.055 -0.7025 -0.0497  0.1613
33262SOL    HW1 3063   3.551   0.856   7.007 -0.4227 -0.3926  0.8705
33262SOL    HW2 3064   3.535   0.911   7.147  0.7769  1.5175  0.2935
33263SOL     OW 3065   9.302   9.798   9.729 -0.1660  0.0124  0.1864
33263SOL    HW1 3066   9.391   9.781   9.760 -0.5031  1.2387  2.0087
33263SOL    HW2 3067   9.312   9.812   9.635  1.4761 -0.4234  0.2557
33264SOL     OW 3068   2.965   0.556   3.529 -0.2021  0.1852  0.6673
33264SOL    HW1 3069   2.962   0.495   3.603 -1.5390 -0.5225  0.0501
33264SOL    HW2 3070   2.962   0.501   3.451  0.4770  0.9587  0.0680
33265SOL     OW 3071   5.741   3.647   5.574 -0.1680  0.0152 -0.5301
33265SOL    HW1 3072   5.768   3.556   5.573 -0.8412 -0.2932  2.0212
33265SOL    HW2 3073   5.743   3.672   5.667 -1.6252  2.0808 -0.9672
33266SOL     OW 3074   7.373  11.223   6.027  0.4627  0.0532  0.2472
33266SOL    HW1 3075   7.442  11.160   6.008  0.4330  0.3572 -0.9466
33266SOL    HW2 3076   7.402  11.268   6.106  1.1091 -0.5531  0.3633
33267SOL     OW 3077   1.417  10.148   6.757  0.1454 -0.2585 -0.4785
33267SOL    HW1 3078   1.405  10.062   6.796 -0.6033 -0.4844 -1.1758
33267SOL    HW2 3079   1.467  10.131   6.677 -2.5754 -0.4988 -2.2442
33268SOL     OW 3080   3.621  10.279   9.185 -0.0318  0.5152 -0.2154
33268SOL    HW1 3081   3.716  10.280   9.171  0.3796  0.0988  2.1146
33268SOL    HW2 3082   3.599  10.369   9.208 -0.1851  0.5798 -0.6087
33269SOL     OW 3083   3.357   3.192   2.474  0.1881  0.1700 -0.2109
33269SOL    HW1 3084   3.451   3.175   2.478  0.5479  1.5492 -1.5643
33269SOL    HW2 3085   3.343   3.263   2.537 -0.2776 -1.0954  1.1803
33270SOL     OW 3086   7.641   5.786   1.388  0.3916  0.5176  0.5005
33270SOL    HW1 3087   7.627   5.873   1.425 -0.9384  0.4414  0.2520
33270SOL    HW2 3088   7.553   5.747   1.386  0.9695 -0.8581  0.6786
33271SOL     OW 3089   1.523   1.577   2.029  0.0918 -0.3868 -0.4746
33271SOL    HW1 3090   1.502   1.489   1.999  0.3188 -0.7305  0.3447
33271SOL    HW2 3091   1.574   1.615   1.957 -2.0737 -0.0201 -1.8900
33272SOL     OW 3092   3.002   2.213   5.765  0.3340  0.4747  0.0442
33272SOL    HW1 3093   2.928   2.153   5.758 -0.6420  1.4465  1.4967
33272SOL    HW2 3094   2.976   2.290   5.716  0.5176  0.6833  0.2690
33273SOL     OW 3095   5.263   2.352   2.322 -0.2167  0.2774 -0.0431
33273SOL    HW1 3096   5.264   2.441   2.355 -2.1923  0.7016 -0.9408
33273SOL    HW2 3097   5.332   2.350   2.256  0.6367  0.7745  0.8193
33274SOL     OW 3098  11.216   4.680   3.351  0.3744 -0.6012 -0.2424
33274SOL    HW1 3099  11.171   4.713   3.273  1.8472 -2.3076 -1.8889
33274SOL    HW2 3100  11.290   4.740   3.363 -2.2044  2.4035  2.6571
33275SOL     OW 3101   2.249   4.835  10.700  0.3661  0.0183  0.1064
33275SOL    HW1 3102   2.253   4.829  10.796  1.6339  1.9810  0.2377
33275SOL    HW2 3103   2.287   4.752  10.670  1.6019  0.0855  1.3383
33276SOL     OW 3104  11.129  11.085  11.388 -0.0609 -0.6285 -0.2099
33276SOL    HW1 3105  11.188  11.160  11.392  1.3825 -1.6529 -1.3425
33276SOL    HW2 3106  11.062  11.110  11.324 -1.5638  0.9499  1.8322
33277SOL     OW 3107   6.641   5.933   3.226 -0.6432  0.4716  0.4966
33277SOL    HW1 3108   6.610   5.939   3.136  0.9794 -1.7480 -0.3082
33277SOL    HW2 3109   6.683   6.017   3.243 -0.1840  0.5999 -1.1534
33278SOL     OW 3110  10.940   1.658   5.148  0.3888  0.2109 -0.0126
33278SOL    HW1 3111  10.920   1.624   5.236  0.2133 -1.3345 -0.6104
33278SOL    HW2 3112  11.011   1.602   5.117 -0.2909  0.0154 -1.2734
33279SOL     OW 3113   0.482   2.144   4.727  0.1726 -0.0020 -0.2602
33279SOL    HW1 3114   0.489   2.237   4.705  0.4066  0.1684  0.4976
33279SOL    HW2 3115   0.526   2.099   4.655  2.0442  0.6062  0.4564
33280SOL     OW 3116  11.125   7.498   2.979 -0.0204  0.3844  0.0570
33280SOL    HW1 3117  11.158   7.408   2.982 -1.9925 -0.4658 -1.6022
33280SOL    HW2 3118  11.173   7.539   2.908 -1.6550 -0.5649 -1.7091
33281SOL     OW 3119   4.697   0.428   1.961  0.4025 -0.3777  0.0125
33281SOL    HW1 3120   4.645   0.439   1.882  0.5940 -3.2278 -0.6307
33281SOL    HW2 3121   4.633   0.431   2.033 -0.2630 -1.0466 -0.5400
33282SOL     OW 3122  10.428   9.406   3.675 -0.1801 -0.2461 -0.4188
33282SOL    HW1 3123  10.413   9.492   3.635 -0.0297  0.6966  1.4234
33282SOL    HW2 3124  10.364   9.402   3.747 -0.1801 -1.6870 -0.4731
33283SOL     OW 3125  10.252   3.708   0.304 -0.1946 -0.4085 -0.6268
33283SOL    HW1 3126  10.331   3.677   0.260  1.3184  3.6492 -1.1463
33283SOL    HW2 3127  10.182   3.650   0.272  2.3404 -3.7015 -0.6948
33284SOL     OW 3128   6.879   3.161   1.158 -0.0600 -0.1271 -0.4604
33284SOL    HW1 3129   6.829   3.243   1.157  1.2832  0.7368 -0.6333
33284SOL    HW2 3130   6.922   3.161   1.243 -0.6455 -1.0585 -0.1528
33285SOL     OW 3131   1.707   4.864   2.557  0.3483 -0.1362  0.3046
33285SOL    HW1 3132   1.796   4.884   2.585  0.3787 -1.8054  1.5606
33285SOL    HW2 3133   1.717   4.806   2.482  0.3004  0.6258 -0.2964
33286SOL     OW 3134   7.410   1.718   8.982  0.0332  0.3936 -0.1447
33286SOL    HW1 3135   7.322   1.683   8.969 -0.0493  0.7755 -0.6479
33286SOL    HW2 3136   7.396   1.811   9.000  0.2519  0.1977  1.1124
33287SOL     OW 3137   3.770   3.267   5.157 -0.0378  0.3647  0.2831
33287SOL    HW1 3138   3.762   3.252   5.251  2.4219  0.8338  0.6412
33287SOL    HW2 3139   3.767   3.180   5.118  1.5414 -0.0945  1.0935
33288SOL     OW 3140   8.219   4.868  10.629 -0.1066  0.5818 -0.4381
33288SOL    HW1 3141   8.297   4.825  10.595  1.0415  1.5564  0.8470
33288SOL    HW2 3142   8.174   4.901  10.551  0.6170 -0.2123 -1.2122
33289SOL     OW 3143   2.621   7.285   4.081 -0.5617  0.2915 -0.1537
33289SOL    HW1 3144   2.593   7.315   4.168 -1.9066  0.8442 -0.7540
33289SOL    HW2 3145   2.605   7.359   4.024  0.0933 -0.1562 -0.9399
33290SOL     OW 3146   6.951   4.991   5.720 -0.2810  0.1837  0.2043
33290SOL    HW1 3147   6.916   5.063   5.667  0.1664  0.4434  0.2577
33290SOL    HW2 3148   6.984   4.929   5.655  0.9049  0.8210  0.1728
33291SOL     OW 3149   5.286   5.098   6.474 -0.5363  0.3829 -0.5625
33291SOL    HW1 3150   5.323   5.175   6.431  2.0597  0.1526  1.0552
33291SOL    HW2 3151   5.257   5.129   6.560 -0.0590 -0.2841 -0.1464
33292SOL     OW 3152   7.338   5.286  10.776  0.4308 -0.3199  0.2813
33292SOL    HW1 3153   7.393   5.242  10.841  0.5743  1.4209  1.4112
33292SOL    HW2 3154   7.386   5.275  10.693 -0.5154 -3.9013  0.0729
33293SOL     OW 3155   2.547  10.268  11.329 -0.4094 -0.3625 -0.2287
33293SOL    HW1 3156   2.575  10.237  11.243  0.2653 -2.8255  0.7863
33293SOL    HW2 3157   2.488  10.199  11.360 -1.8980  1.2613  0.6556
33294SOL     OW 3158   3.482   2.492   4.696 -0.7295  0.1290  0.7048
33294SOL    HW1 3159   3.539   2.511   4.770 -1.0405 -0.7341  1.1754
33294SOL    HW2 3160   3.526   2.421   4.649 -0.6963  0.4517  0.2342
33295SOL     OW 3161   9.128   7.356   2.176 -0.0976 -0.0776  0.2495
33295SOL    HW1 3162   9.174   7.314   2.104 -0.3839  2.0485 -1.2590
33295SOL    HW2 3163   9.059   7.294   2.200  0.9704 -1.4918 -0.2199
33296SOL     OW 3164   3.389   3.463   0.834  0.7607 -0.0073 -0.4387
33296SOL    HW1 3165   3.358   3.386   0.883 -1.2252  1.6554  1.0793
33296SOL    HW2 3166   3.317   3.486   0.776  1.5920  0.3533 -1.3555
33297SOL     OW 3167   3.583   2.910  11.244  0.1983  0.1240  0.4078
33297SOL    HW1 3168   3.656   2.895  11.305  1.4018 -0.3732 -1.0700
33297SOL    HW2 3169   3.613   2.984  11.190 -1.6227  1.7615  1.5326
33298SOL     OW 3170   5.705   8.629   7.548 -0.7510  0.4730 -0.1642
33298SOL    HW1 3171   5.610   8.621   7.556 -0.7313 -0.8699 -0.9374
33298SOL    HW2 3172   5.717   8.707   7.494 -1.3630  1.1607  0.6579
33299SOL     OW 3173   7.131   7.193   2.321  0.2483  0.6344  0.7361
33299SOL    HW1 3174   7.211   7.241   2.299 -0.2636  0.7010 -1.1987
33299SOL    HW2 3175   7.153   7.144   2.400  1.9034  1.3596  0.7692
33300SOL     OW 3176   3.246  11.336   1.387 -0.2969 -0.0047  0.1602
33300SOL    HW1 3177   3.151  11.334   1.371 -0.3431 -0.3926  0.4739
33300SOL    HW2 3178   3.255  11.309   1.478  0.3600 -4.0429 -0.9193
33301SOL     OW 3179   8.652   1.654   0.705 -0.3016 -0.2302  0.4259
33301SOL    HW1 3180   8.651   1.747   0.685  2.0046 -0.6258 -2.0078
33301SOL    HW2 3181   8.575   1.618   0.661  0.5827  0.0874 -1.4504
33302SOL     OW 3182   4.240   6.485   5.844  0.4887 -0.6619 -0.0387
33302SOL    HW1 3183   4.252   6.391   5.830 -0.8685 -0.6719 -1.4975
33302SOL    HW2 3184   4.150   6.501   5.815  0.8094  1.1416 -0.1190
33303SOL     OW 3185   5.127   3.379   9.834  0.3450 -0.1896 -0.5145
33303SOL    HW1 3186   5.083   3.415   9.911 -1.5724 -0.9539 -1.1992
33303SOL    HW2 3187   5.219   3.374   9.860 -0.0355  0.8222  1.2333
33304SOL     OW 3188   3.287   1.338   1.068 -0.2698  0.6435  0.9134
33304SOL    HW1 3189   3.264   1.246   1.065  1.6475  0.1239  0.8456
33304SOL    HW2 3190   3.379   1.339   1.095 -0.2051  2.5260  0.7694
33305SOL     OW 3191   8.801   5.124   6.478  0.4331 -0.7262  0.1797
33305SOL    HW1 3192   8.896   5.115   6.472  0.7892  1.5345  1.2087
33305SOL    HW2 3193   8.778   5.079   6.559  1.1192  1.1304  1.4977
33306SOL     OW 3194   0.929   7.622   9.491 -0.0667  0.7622 -0.1025
33306SOL    HW1 3195   1.005   7.623   9.549 -0.0756  1.6516 -0.0813
33306SOL    HW2 3196   0.935   7.539   9.444  0.8307  0.7511  0.0142
33307SOL     OW 3197   6.389   1.044   8.041  0.2086 -0.0952  0.1994
33307SOL    HW1 3198   6.335   1.123   8.034 -0.2222 -0.3183  0.9107
33307SOL    HW2 3199   6.326   0.973   8.052  0.6409 -0.3651  1.0154
33308SOL     OW 3200   6.157   6.474   3.029  0.2228 -0.7031  0.3297
33308SOL    HW1 3201   6.238   6.448   3.072 -0.0266  1.1036  2.0209
33308SOL    HW2 3202   6.181   6.550   2.976 -0.1659 -0.7583  0.0733
33309SOL     OW 3203   9.350   8.601   6.550  0.8112 -0.5256  0.6509
33309SOL    HW1 3204   9.403   8.522   6.537  2.3018  0.4770  0.3266
33309SOL    HW2 3205   9.318   8.623   6.463 -2.5550 -2.6530  1.1982
33310SOL     OW 3206   1.341   8.442   0.470 -0.1202  0.4360 -0.7008
33310SOL    HW1 3207   1.333   8.410   0.380 -0.0440 -1.4126 -0.0938
33310SOL    HW2 3208   1.307   8.531   0.467 -0.4562  0.2830 -2.4886
33311SOL     OW 3209   2.907   6.442   8.549 -0.6670 -0.0251 -0.0662
33311SOL    HW1 3210   2.822   6.434   8.506 -0.1747 -3.4870 -0.6523
33311SOL    HW2 3211   2.889   6.435   8.642 -0.9935 -1.5165 -0.2278
33312SOL     OW 3212   0.847   4.542   8.409  0.1444  0.0858  0.1181
33312SOL    HW1 3213   0.941   4.551   8.419  0.2919 -1.3131  0.2378
33312SOL    HW2 3214   0.812   4.558   8.497  0.5546 -2.1562  0.7616
33313SOL     OW 3215   2.606  10.488   5.853  0.2252 -0.9191 -0.5267
33313SOL    HW1 3216   2.538  10.495   5.920  1.6163 -0.0739  0.8626
33313SOL    HW2 3217   2.685  10.463   5.901  1.1693 -0.7280 -1.9156
33314SOL     OW 3218   8.049   2.590  10.908 -0.1477 -0.0092 -0.3122
33314SOL    HW1 3219   8.039   2.560  10.818  1.3420  0.4548 -0.6658
33314SOL    HW2 3220   8.105   2.523  10.949 -1.7010 -0.7989  0.6048
33315SOL     OW 3221   3.589  10.415   5.370 -0.2290 -0.0024  0.4284
33315SOL    HW1 3222   3.615  10.338   5.319 -1.1557 -0.3708  0.4927
33315SOL    HW2 3223   3.625  10.489   5.321  0.1500 -0.4399  0.0340
33316SOL     OW 3224   2.557   1.827   2.382 -0.3413  0.5099 -0.3912
33316SOL    HW1 3225   2.638   1.874   2.403  0.5197 -0.7853 -0.6517
33316SOL    HW2 3226   2.522   1.872   2.305  0.8099  0.3453 -1.0360
33317SOL     OW 3227   1.763   8.242   7.632  0.4077  0.4162 -0.5795
33317SOL    HW1 3228   1.685   8.284   7.668 -1.0097 -0.3653 -2.5549
33317SOL    HW2 3229   1.755   8.254   7.537  3.5736  1.7677 -0.7990
33318SOL     OW 3230   1.225   2.239   4.810 -0.1088 -0.2612 -0.5814
33318SOL    HW1 3231   1.209   2.219   4.717  1.0615 -0.1144 -0.8314
33318SOL    HW2 3232   1.142   2.217   4.853 -0.9636  0.4671 -1.7765
33319SOL     OW 3233   9.123   9.842   2.729 -0.5470  0.5112 -0.0161
33319SOL    HW1 3234   9.170   9.852   2.812  0.3349  1.4338 -0.5998
33319SOL    HW2 3235   9.181   9.787   2.676 -0.4489  1.0495 -0.4829
33320SOL     OW 3236   2.898   0.842   8.063 -0.0559  0.3165  0.4549
33320SOL    HW1 3237   2.945   0.863   8.143  1.9788 -2.6272  0.2234
33320SOL    HW2 3238   2.842   0.768   8.087 -0.5988  0.4000 -0.5042
33321SOL     OW 3239   7.604   4.794   9.061  0.7761  0.8238  0.4432
33321SOL    HW1 3240   7.607   4.870   9.120  0.2351  1.3760 -0.2246
33321SOL    HW2 3241   7.621   4.831   8.974 -0.6152  0.3667 -0.0449
33322SOL     OW 3242   4.147   1.568   7.869 -0.7205  0.2994 -0.6706
33322SOL    HW1 3243   4.163   1.634   7.801  3.7813 -0.1848 -0.4055
33322SOL    HW2 3244   4.233   1.527   7.883 -2.3128 -2.4462  2.4600
33323SOL     OW 3245   7.952   1.822   5.501  0.5483  0.3124 -0.1332
33323SOL    HW1 3246   7.908   1.842   5.584 -0.6109  1.0666 -0.8975
33323SOL    HW2 3247   8.031   1.875   5.503  2.4892 -2.3636  2.0359
33324SOL     OW 3248  10.236   6.097   8.440 -0.0991  0.0935  0.1947
33324SOL    HW1 3249  10.269   6.027   8.384  0.9036  0.0410  0.8245
33324SOL    HW2 3250  10.250   6.177   8.389 -0.4734 -0.0817 -0.1869
33325SOL     OW 3251   4.632   0.308  10.865  0.1138 -0.3456 -0.0865
33325SOL    HW1 3252   4.651   0.373  10.931 -0.7118  0.7636 -0.9014
33325SOL    HW2 3253   4.636   0.224  10.911  1.0455  0.2849  1.0052
33326SOL     OW 3254   4.484   9.586   8.716 -0.4405 -0.2331  0.2000
33326SOL    HW1 3255   4.499   9.497   8.684 -0.5159 -0.2691  0.2640
33326SOL    HW2 3256   4.511   9.583   8.808  1.6096  0.3584 -0.3208
33327SOL     OW 3257  10.629   1.721   6.651  0.7345 -0.5796 -0.6096
33327SOL    HW1 3258  10.603   1.635   6.685  1.1300 -0.3095  0.3887
33327SOL    HW2 3259  10.562   1.781   6.684  0.4433 -0.4946 -1.3282
33328SOL     OW 3260   7.123   0.724   9.831  0.5942 -0.4477  0.5708
33328SOL    HW1 3261   7.041   0.691   9.868  0.3693 -0.3952  0.1253
33328SOL    HW2 3262   7.111   0.718   9.736  1.3270 -0.9833  0.5049
33329SOL     OW 3263   8.404  10.262  10.432  0.5814 -0.2136  0.2446
33329SOL    HW1 3264   8.310  10.279  10.429  0.5331 -0.5366 -0.2595
33329SOL    HW2 3265   8.444  10.335  10.384  0.6518  0.3284  1.1112
33330SOL     OW 3266   0.952  10.352   3.746  0.0693  0.5348 -0.0056
33330SOL    HW1 3267   0.902  10.270   3.746 -0.3117  0.7615  0.6146
33330SOL    HW2 3268   0.911  10.405   3.815  1.6365  0.4313  1.0599
33331SOL     OW 3269   4.848   4.628  11.123  0.5185 -0.1541 -0.0830
33331SOL    HW1 3270   4.787   4.561  11.093 -0.2687  0.4006  0.2394
33331SOL    HW2 3271   4.795   4.686  11.178  1.9060 -1.2020  2.5417
33332SOL     OW 3272   4.142   0.101   6.481  0.3974  0.2010 -0.6564
33332SOL    HW1 3273   4.195   0.165   6.529 -0.8148  0.5543  0.2769
33332SOL    HW2 3274   4.131   0.029   6.543  0.5951 -0.2932 -1.1975
33333SOL     OW 3275   7.640   6.925  10.179  0.1463  0.1061  0.0381
33333SOL    HW1 3276   7.690   6.953  10.255  1.1659  0.3286 -0.6965
33333SOL    HW2 3277   7.680   6.843  10.152 -0.4303 -0.1506 -0.0624
33334SOL     OW 3278   0.042  11.308  10.399  0.0072 -0.0141  0.5651
33334SOL    HW1 3279   0.074  11.394  10.372 -0.8147  0.3276  0.6591
33334SOL    HW2 3280   0.047  11.309  10.494 -1.0008  0.3387  0.6260
33335SOL     OW 3281   8.158   5.949   3.800  0.3803  0.6527  0.0446
33335SOL    HW1 3282   8.105   6.000   3.739  1.7111  1.2630 -0.6305
33335SOL    HW2 3283   8.200   5.882   3.746  1.5146  1.1563  0.2657
33336SOL     OW 3284   5.750   9.052   9.244 -0.1208  0.1022 -0.2703
33336SOL    HW1 3285   5.793   9.072   9.328 -0.6259 -0.1674  0.0563
33336SOL    HW2 3286   5.820   9.015   9.190  0.3064  0.6564 -0.1138
33337SOL     OW 3287   4.626   4.155   3.546  0.2088  0.4059  0.2255
33337SOL    HW1 3288   4.618   4.193   3.633 -0.1196  2.2269 -0.5598
33337SOL    HW2 3289   4.570   4.209   3.490  0.1063 -0.9503 -1.0638
33338SOL     OW 3290   3.127   8.670   7.662 -0.0891  0.0709  0.1261
33338SOL    HW1 3291   3.037   8.686   7.633 -0.5454  1.3731  2.0929
33338SOL    HW2 3292   3.182   8.709   7.594 -1.0535  0.9443 -0.1649
33339SOL     OW 3293  10.265   6.348   9.473  0.2532  0.0130 -0.7234
33339SOL    HW1 3294  10.316   6.271   9.498  0.5019  0.5864  0.6490
33339SOL    HW2 3295  10.331   6.413   9.449  0.0271 -0.3762 -2.5280
33340SOL     OW 3296  10.252   9.197   9.423 -0.6836  0.1241 -0.4646
33340SOL    HW1 3297  10.279   9.201   9.331  0.1389  0.4807 -0.2164
33340SOL    HW2 3298  10.323   9.150   9.467 -1.6559 -1.1790 -0.2078
33341SOL     OW 3299   9.260   5.648   0.497 -0.1480  0.1280  0.2190
33341SOL    HW1 3300   9.212   5.590   0.555  0.3217  0.1633  0.6527
33341SOL    HW2 3301   9.218   5.638   0.412  0.0581 -1.0059  0.2383
33342SOL     OW 3302   6.577   8.333   8.546 -0.0856 -0.4033 -0.5613
33342SOL    HW1 3303   6.650   8.272   8.530  0.3839  0.1022 -0.3741
33342SOL    HW2 3304   6.597   8.372   8.631 -0.5795 -0.2645 -0.5098
33343SOL     OW 3305   5.565   2.128   3.734 -0.1886 -0.5061  0.3737
33343SOL    HW1 3306   5.580   2.043   3.775 -0.0657 -0.1143  1.1504
33343SOL    HW2 3307   5.527   2.182   3.803 -1.3873 -0.2704 -0.4383
33344SOL     OW 3308   0.515   2.545   9.482  0.2855 -0.4148  0.7671
33344SOL    HW1 3309   0.514   2.634   9.448  0.0444 -0.3158  1.0243
33344SOL    HW2 3310   0.422   2.525   9.499  0.3518 -0.6623  0.8444
33345SOL     OW 3311  10.450   5.486   0.432 -0.5803 -0.1487  1.0106
33345SOL    HW1 3312  10.537   5.525   0.433  0.2424 -1.8764  1.2543
33345SOL    HW2 3313  10.390   5.560   0.443  0.8095  1.1449  0.2904
33346SOL     OW 3314   8.301  10.021   8.175 -0.2599 -0.7562  0.7558
33346SOL    HW1 3315   8.261  10.070   8.246  0.1643 -1.2647  1.3675
33346SOL    HW2 3316   8.354  10.085   8.128 -0.7215 -0.3672  0.7626
33347SOL     OW 3317  11.195   0.741   9.903 -0.5645 -0.1488 -0.2246
33347SOL    HW1 3318  11.136   0.814   9.923 -0.5296  0.0366 -0.7847
33347SOL    HW2 3319  11.151   0.665   9.940 -1.1787 -0.0148 -0.6606
33348SOL     OW 3320   4.444   7.244   5.227  0.2152  0.2217 -0.4213
33348SOL    HW1 3321   4.444   7.192   5.307 -0.3238 -0.9238 -1.1242
33348SOL    HW2 3322   4.459   7.180   5.157  0.2750  1.1264 -1.2636
33349SOL     OW 3323   5.772   2.923  11.351 -0.0974 -0.1802  0.1440
33349SOL    HW1 3324   5.769   2.870  11.431 -0.2902  1.3633  1.2068
33349SOL    HW2 3325   5.865   2.931  11.331 -0.0630 -0.8122  0.0493
33350SOL     OW 3326   6.510   9.474   1.957 -0.3225  0.1647 -0.2134
33350SOL    HW1 3327   6.493   9.546   2.019  2.7534  0.1217  0.8879
33350SOL    HW2 3328   6.488   9.395   2.006  0.8758  0.1935  0.4152
33351SOL     OW 3329   7.511   6.587   9.806  0.4046 -0.0161  0.5965
33351SOL    HW1 3330   7.600   6.601   9.773  0.8123  0.4693  1.8396
33351SOL    HW2 3331   7.458   6.651   9.760  0.7600 -0.0640  0.1094
33352SOL     OW 3332   9.167   0.616   5.698  0.2990 -0.6958  0.2976
33352SOL    HW1 3333   9.212   0.556   5.639 -0.2367  0.8291 -1.7632
33352SOL    HW2 3334   9.101   0.658   5.644  1.1843  2.3597  1.4119
33353SOL     OW 3335   4.039   0.643  10.588 -0.3731  0.3341  0.1102
33353SOL    HW1 3336   4.089   0.724  10.576 -0.1565  0.4071  1.3028
33353SOL    HW2 3337   4.044   0.627  10.683 -0.3239 -1.1326 -0.1228
33354SOL     OW 3338   9.420   4.679   1.383  0.4290  0.7794  0.3658
33354SOL    HW1 3339   9.350   4.740   1.406 -0.0569 -0.1716  1.4985
33354SOL    HW2 3340   9.482   4.685   1.456  1.9315  2.1098 -0.9237
33355SOL     OW 3341   6.434   1.552   4.880 -0.2884 -0.3245  0.4848
33355SOL    HW1 3342   6.513   1.603   4.898  0.6540 -1.5926  0.0534
33355SOL    HW2 3343   6.391   1.543   4.966  0.8726 -0.9724  1.0193
33356SOL     OW 3344   7.817   4.686   1.649  0.1688 -0.3230 -0.2964
33356SOL    HW1 3345   7.812   4.758   1.586 -0.5747 -0.6518 -0.6226
33356SOL    HW2 3346   7.895   4.705   1.700  0.2627  0.4496 -0.7070
33357SOL     OW 3347  11.021   6.775   7.421  0.2233  0.3707  0.1144
33357SOL    HW1 3348  10.940   6.811   7.457 -0.6226  1.5311 -2.7116
33357SOL    HW2 3349  11.005   6.680   7.417 -1.5109  0.6577 -1.3845
33358SOL     OW 3350  11.236   3.318   0.017  0.6398 -0.4367 -0.2467
33358SOL    HW1 3351  11.278   3.242   0.057  0.0939 -0.3211  0.5597
33358SOL    HW2 3352  11.287   3.393   0.047  1.1226 -0.4629 -0.9682
33359SOL     OW 3353   2.297   9.395   3.658 -0.3317  0.4089 -0.1462
33359SOL    HW1 3354   2.277   9.377   3.750 -0.7895 -0.1344 -0.3456
33359SOL    HW2 3355   2.382   9.439   3.660 -0.8014  1.3332  0.6145
33360SOL     OW 3356   3.461   2.448   5.649 -0.7650  0.2900  0.7037
33360SOL    HW1 3357   3.386   2.388   5.651 -0.2581 -0.4123 -0.3599
33360SOL    HW2 3358   3.428   2.525   5.603 -1.6286  1.1875  2.6912
33361SOL     OW 3359   5.353   7.890   9.674  0.4187 -0.0050  0.9436
33361SOL    HW1 3360   5.264   7.855   9.667  0.1370  0.7413  0.7603
33361SOL    HW2 3361   5.400   7.852   9.599  0.5342 -1.1721  1.5810
33362SOL     OW 3362   9.826   5.457   3.585  0.9571  0.1038  0.3429
33362SOL    HW1 3363   9.905   5.490   3.543  0.5717  0.8171  0.1657
33362SOL    HW2 3364   9.776   5.417   3.513  0.0393  1.8140 -0.0270
33363SOL     OW 3365  10.572   8.214   9.039 -0.8784  0.5656  0.1595
33363SOL    HW1 3366  10.663   8.185   9.044 -0.4846  1.3298 -1.6807
33363SOL    HW2 3367  10.545   8.193   8.949 -2.8811 -0.5755  0.9504
33364SOL     OW 3368   9.516   3.505   0.258  0.3824  0.0625  0.1003
33364SOL    HW1 3369   9.425   3.531   0.272  0.2316 -0.5766  0.3644
33364SOL    HW2 3370   9.546   3.475   0.344  1.2299  1.3919  0.2892
33365SOL     OW 3371   6.040   8.072   0.921  0.0695  0.3091 -0.7147
33365SOL    HW1 3372   6.014   8.164   0.925  0.4302  0.4585 -1.6366
33365SOL    HW2 3373   6.136   8.074   0.919  0.2967 -0.2227  2.5562
33366SOL     OW 3374   2.104   0.401   0.845 -0.0012 -0.1277 -0.4125
33366SOL    HW1 3375   2.169   0.445   0.899 -1.1273  3.4098 -1.6989
33366SOL    HW2 3376   2.025   0.399   0.900  0.1568 -1.0218 -0.2032
33367SOL     OW 3377   7.949   7.746   9.997  0.5527 -0.2281  0.2051
33367SOL    HW1 3378   8.036   7.709   9.981  0.1799 -0.8224 -0.5108
33367SOL    HW2 3379   7.896   7.670  10.021 -0.4194 -0.3399 -2.0451
33368SOL     OW 3380  10.747   3.818   3.259  0.1255 -0.5019  0.9638
33368SOL    HW1 3381  10.691   3.750   3.223  0.8665 -0.5132 -0.2388
33368SOL    HW2 3382  10.784   3.780   3.339 -0.7540 -0.8713  1.2019
33369SOL     OW 3383   9.514   8.879   1.589  0.4040 -0.4423  0.1843
33369SOL    HW1 3384   9.599   8.836   1.589  1.3291  1.3272  0.8528
33369SOL    HW2 3385   9.480   8.863   1.501  0.8652 -2.1514  0.2650
33370SOL     OW 3386   6.651   5.004  11.042  0.0573  0.6904 -0.1557
33370SOL    HW1 3387   6.690   4.984  11.127  1.6776  1.2627 -0.7200
33370SOL    HW2 3388   6.619   5.094  11.050  0.4436  0.8356 -0.2227
33371SOL     OW 3389   0.371   2.888   2.663  0.2522 -0.0199  0.1770
33371SOL    HW1 3390   0.385   2.976   2.698  0.6771  0.6119 -1.4700
33371SOL    HW2 3391   0.431   2.833   2.711  0.9720  0.8456  0.2955
33372SOL     OW 3392   9.491   5.721  10.209 -0.0096  0.2170  0.3010
33372SOL    HW1 3393   9.579   5.757  10.221  0.6465 -0.9386 -0.7470
33372SOL    HW2 3394   9.451   5.777  10.144 -0.2012  0.9658  1.0434
33373SOL     OW 3395   7.037   5.834   7.923  0.0662  0.0532  0.1761
33373SOL    HW1 3396   7.113   5.833   7.866  0.4049  0.5260  0.6151
33373SOL    HW2 3397   6.962   5.825   7.864  0.4712 -0.7393 -0.2294
33374SOL     OW 3398   7.414   9.417   4.871  0.3554  0.0659 -0.2141
33374SOL    HW1 3399   7.344   9.456   4.923  1.4898  0.4475  1.0813
33374SOL    HW2 3400   7.462   9.492   4.835 -0.6752 -0.1883 -2.2426
33375SOL     OW 3401   1.952   7.761   9.272  0.1911  0.2340 -0.3183
33375SOL    HW1 3402   1.954   7.818   9.195 -0.0468  2.4381  1.2260
33375SOL    HW2 3403   1.863   7.772   9.307 -0.1554 -1.7813 -0.4035
33376SOL     OW 3404   7.101  10.807   2.467  0.2990  0.1408  0.8259
33376SOL    HW1 3405   7.026  10.752   2.445 -0.0725  1.1432 -0.5354
33376SOL    HW2 3406   7.177  10.757   2.435 -0.0016  0.2404 -0.0682
33377SOL     OW 3407   0.750  10.138   8.133  0.0303  0.2012 -0.0559
33377SOL    HW1 3408   0.728  10.221   8.091 -1.0037 -1.0712 -2.1962
33377SOL    HW2 3409   0.800  10.090   8.067 -0.0292 -1.1726  0.8528
33378SOL     OW 3410   4.844   3.073   6.549 -0.1059  0.1323  0.8850
33378SOL    HW1 3411   4.917   3.075   6.487 -1.1408  1.6174 -0.3615
33378SOL    HW2 3412   4.775   3.025   6.504 -0.7866  1.0046  0.9549
33379SOL     OW 3413   2.634   5.344   7.733 -0.2101 -0.5026 -0.1731
33379SOL    HW1 3414   2.663   5.433   7.752 -0.5207 -0.7719  1.7042
33379SOL    HW2 3415   2.690   5.288   7.787 -0.7696 -1.3734 -0.4698
33380SOL     OW 3416   2.115   0.353   3.377  0.2056 -0.2373 -0.1530
33380SOL    HW1 3417   2.205   0.383   3.373 -0.2646  1.3021  0.2915
33380SOL    HW2 3418   2.062   0.433   3.373 -1.0983 -1.0048  0.8710
33381SOL     OW 3419   5.441   1.213  11.043  0.2260 -0.3708 -0.0967
33381SOL    HW1 3420   5.466   1.304  11.058  0.4351 -0.4740  0.1889
33381SOL    HW2 3421   5.385   1.191  11.117 -0.4892 -0.2317 -0.5807
33382SOL     OW 3422   5.208   9.641   2.261  0.5136 -0.2341  0.5811
33382SOL    HW1 3423   5.296   9.605   2.249  2.1415  2.6871  2.6238
33382SOL    HW2 3424   5.192   9.693   2.182  1.9005  1.4915  1.3816
33383SOL     OW 3425   5.554   8.403   5.449  0.1329 -0.2414 -0.4540
33383SOL    HW1 3426   5.562   8.343   5.523  0.5503 -0.5120 -0.7170
33383SOL    HW2 3427   5.481   8.461   5.473  0.0111 -0.5749 -0.0072
33384SOL     OW 3428   4.177  11.106  11.310  0.1079 -0.2601  0.3556
33384SOL    HW1 3429   4.107  11.170  11.323 -1.1410 -1.5813  0.4854
33384SOL    HW2 3430   4.149  11.029  11.361  0.3388 -1.7767 -1.6628
33385SOL     OW 3431  10.536   9.834   7.650  0.1652 -0.2985 -0.0929
33385SOL    HW1 3432  10.547   9.838   7.555  1.1750 -1.2559 -0.0317
33385SOL    HW2 3433  10.506   9.921   7.675  1.1099  0.3444 -1.1410
33386SOL     OW 3434   1.082   0.638   2.276 -0.6981  0.1356  0.6298
33386SOL    HW1 3435   1.029   0.606   2.349 -2.2187 -0.2747 -0.6096
33386SOL    HW2 3436   1.018   0.667   2.211  0.6182  2.2193  0.1641
33387SOL     OW 3437  10.441   2.155   9.762  0.2292 -0.2128 -0.5751
33387SOL    HW1 3438  10.364   2.143   9.708  0.6529 -2.0824 -0.8191
33387SOL    HW2 3439  10.505   2.092   9.728  1.0761 -0.2675  1.0177
33388SOL     OW 3440   9.304   9.726   5.684  0.7349  0.0545  0.5663
33388SOL    HW1 3441   9.381   9.708   5.630  0.4507 -0.7350  0.4164
33388SOL    HW2 3442   9.253   9.789   5.633  1.2594  0.5727  0.6599
33389SOL     OW 3443   3.135   7.571   3.928 -0.2128  0.5502  0.0648
33389SOL    HW1 3444   3.105   7.555   4.017 -0.2077 -0.3592 -0.0915
33389SOL    HW2 3445   3.085   7.509   3.874  0.2671  0.6274 -0.4802
33390SOL     OW 3446   0.135   9.896   7.290  0.5222  0.1990  0.5675
33390SOL    HW1 3447   0.162   9.968   7.346  0.2188  3.0934 -2.6358
33390SOL    HW2 3448   0.217   9.861   7.255  0.6510  1.9599 -1.0833
33391SOL     OW 3449   8.639   8.410  10.531 -0.3520  0.2779  0.3775
33391SOL    HW1 3450   8.555   8.412  10.577 -0.2678  1.3044  0.5072
33391SOL    HW2 3451   8.700   8.456  10.590 -0.1817  1.3710 -0.6132
33392SOL     OW 3452   8.067   9.076   6.502  0.0544 -0.1078 -0.5539
33392SOL    HW1 3453   8.021   9.038   6.577 -0.5896  1.8648  0.1018
33392SOL    HW2 3454   8.061   9.170   6.515  0.5333  0.2817 -2.7447
33393SOL     OW 3455   3.713   5.634   8.200 -0.0961 -0.0928  0.3212
33393SOL    HW1 3456   3.722   5.612   8.107  0.4254  1.0735  0.0854
33393SOL    HW2 3457   3.799   5.617   8.237  0.8244  2.8967 -0.1883
33394SOL     OW 3458   8.526   8.961   9.313  0.2501  0.3999  0.3590
33394SOL    HW1 3459   8.543   8.869   9.331  0.3216  0.2382 -0.5249
33394SOL    HW2 3460   8.548   8.973   9.221 -4.3789  0.1227 -1.0152
33395SOL     OW 3461   8.109   1.863   6.731 -0.0489 -0.1145  0.5239
33395SOL    HW1 3462   8.039   1.869   6.665  0.6702 -0.5155 -0.2879
33395SOL    HW2 3463   8.064   1.831   6.810 -0.4444 -2.5338 -0.6010
33396SOL     OW 3464   2.545   1.498   2.550  0.2448 -0.3645 -0.2186
33396SOL    HW1 3465   2.497   1.567   2.505 -0.3698 -0.4001  0.3646
33396SOL    HW2 3466   2.517   1.505   2.642  0.6211 -1.0103 -0.0462
33397SOL     OW 3467   3.776   8.791   6.590  0.4430 -0.3968  0.2091
33397SOL    HW1 3468   3.819   8.875   6.606 -0.4738  0.4005 -1.3223
33397SOL    HW2 3469   3.847   8.727   6.591  1.3623  0.5970 -0.0935
33398SOL     OW 3470   5.146   8.717   8.744 -0.1943 -0.1191 -0.3675
33398SOL    HW1 3471   5.068   8.752   8.786 -0.1922 -1.1380  0.5374
33398SOL    HW2 3472   5.112   8.668   8.668 -0.3663  0.0828 -0.4226
33399SOL     OW 3473   6.062   7.567   1.883 -0.4023  0.4016  0.0495
33399SOL    HW1 3474   6.116   7.580   1.805 -1.7376  0.1234 -0.9777
33399SOL    HW2 3475   6.061   7.652   1.926 -0.5369  0.8723 -0.8565
33400SOL     OW 3476  10.490   0.782   8.021  0.0669  0.5549  0.1023
33400SOL    HW1 3477  10.415   0.804   7.967  0.0923 -0.2706 -0.2813
33400SOL    HW2 3478  10.541   0.720   7.969  0.7030  0.6367  0.5993
33401SOL     OW 3479  10.990   2.806   5.596  0.3111  0.3232 -0.6814
33401SOL    HW1 3480  11.038   2.748   5.537 -1.2881 -0.6063 -1.1298
33401SOL    HW2 3481  11.016   2.778   5.684  0.9469  0.1727 -0.9123
33402SOL     OW 3482  10.608   0.256   7.601  0.1245 -0.5021 -0.1706
33402SOL    HW1 3483  10.650   0.327   7.650 -1.9146  0.5405  0.2025
33402SOL    HW2 3484  10.677   0.192   7.587  2.1956  1.7420 -0.9309
33403SOL     OW 3485   2.557   7.951  10.491  0.1347 -0.0209 -0.0968
33403SOL    HW1 3486   2.588   7.869  10.454 -1.4559 -0.0289 -1.5241
33403SOL    HW2 3487   2.485   7.926  10.550 -0.3543  0.3328 -0.5344
33404SOL     OW 3488  11.237   7.274   4.928  0.6213 -0.1784  0.1912
33404SOL    HW1 3489  11.234   7.285   4.833  4.1722  0.6131  0.0401
33404SOL    HW2 3490  11.177   7.340   4.962 -0.3977 -0.2105 -1.4495
33405SOL     OW 3491  11.188   0.854   7.821 -0.0382 -0.2996 -0.3841
33405SOL    HW1 3492  11.120   0.914   7.849  0.7354  0.2091  0.4706
33405SOL    HW2 3493  11.159   0.768   7.852  0.6942  0.2108  1.9166
33406SOL     OW 3494   3.500   5.276   4.915  0.2157 -0.0435  0.2346
33406SOL    HW1 3495   3.591   5.305   4.911 -0.1890  1.3098  0.0151
33406SOL    HW2 3496   3.463   5.325   4.988 -0.5661  0.1683 -0.2895
33407SOL     OW 3497   0.235   3.918   5.773  0.2002  0.0286 -0.6859
33407SOL    HW1 3498   0.245   3.843   5.831  0.0483  1.3775  1.2116
33407SOL    HW2 3499   0.322   3.957   5.769  0.4174 -0.5437 -2.1553
33408SOL     OW 3500   2.737   2.785   1.716  0.0768  0.2608  0.2294
33408SOL    HW1 3501   2.781   2.714   1.764  0.5498  0.9359  0.8194
33408SOL    HW2 3502   2.808   2.829   1.668  0.0089  1.1315  0.8963
33409SOL     OW 3503  10.464   8.100  10.017  0.6314 -0.1625 -0.1363
33409SOL    HW1 3504  10.462   8.038  10.090  0.3500 -0.8499 -0.7132
33409SOL    HW2 3505  10.373   8.125  10.004  1.0059  3.1881  2.3799
33410SOL     OW 3506   0.121   2.795   2.606  0.1242 -0.3653 -0.1505
33410SOL    HW1 3507   0.139   2.734   2.534 -0.1297 -2.3870  1.4050
33410SOL    HW2 3508   0.208   2.828   2.631  0.2330  0.2105 -1.2089
33411SOL     OW 3509   8.323   6.102   6.948  0.1473 -0.3746 -0.0107
33411SOL    HW1 3510   8.399   6.153   6.977 -0.1373  2.2136 -3.1603
33411SOL    HW2 3511   8.249   6.139   6.996  0.0804  1.7581 -1.6131
33412SOL     OW 3512   9.994   9.122   3.226  0.5352  0.4075 -0.0230
33412SOL    HW1 3513  10.037   9.161   3.302  1.7570  1.0472 -1.0085
33412SOL    HW2 3514  10.022   9.176   3.152  0.6672 -1.1466 -1.1527
33413SOL     OW 3515   9.556   2.166  10.873 -0.4155 -0.2680 -0.0241
33413SOL    HW1 3516   9.532   2.190  10.784  0.2501  0.7580  0.0571
33413SOL    HW2 3517   9.648   2.140  10.867 -0.3283 -0.0655  0.3855
33414SOL     OW 3518   1.466   0.020   7.172  0.5321  0.2788  0.2185
33414SOL    HW1 3519   1.456   0.073   7.094 -0.3996  0.1070  0.2103
33414SOL    HW2 3520   1.479   0.083   7.243  1.2068  0.4391 -0.0384
33415SOL     OW 3521  10.416   0.069   7.683 -0.3766 -0.0594 -0.0569
33415SOL    HW1 3522  10.471   0.141   7.653  1.5845 -0.7320  1.6590
33415SOL    HW2 3523  10.358   0.108   7.748  0.7191  0.0056  0.9110
33416SOL     OW 3524   0.211   6.067   6.664  0.8358 -0.0891  0.1306
33416SOL    HW1 3525   0.294   6.024   6.687  1.1550  0.7000  0.5037
33416SOL    HW2 3526   0.151   5.995   6.646  1.5563 -0.6814  0.0179
33417SOL     OW 3527  10.692   8.054   2.843 -0.2787  0.5428 -0.0716
33417SOL    HW1 3528  10.683   8.068   2.938  2.3249  0.8597  0.2266
33417SOL    HW2 3529  10.718   7.962   2.835 -0.3569  0.5527 -0.4487
33418SOL     OW 3530   8.674   4.589   1.570  0.4992 -0.0861  0.1645
33418SOL    HW1 3531   8.709   4.500   1.566  0.2854 -0.2710  1.7520
33418SOL    HW2 3532   8.742   4.640   1.614  0.9349  0.7242 -1.3985
33419SOL     OW 3533  11.384   9.465   1.392  0.1370  0.0351  0.3405
33419SOL    HW1 3534  11.435   9.385   1.407 -0.2444 -0.0303  1.3843
33419SOL    HW2 3535  11.450   9.534   1.385  0.4629 -0.3483 -0.4612
33420SOL     OW 3536   9.808   3.988   1.019  0.6676 -0.0696 -0.4357
33420SOL    HW1 3537   9.778   4.078   1.026  1.3311  0.1972 -1.0025
33420SOL    HW2 3538   9.835   3.965   1.109 -1.7988 -0.5474  0.2556
33421SOL     OW 3539   8.986   9.402   5.356  0.5907  0.7443 -0.5173
33421SOL    HW1 3540   9.025   9.447   5.281 -1.5020  1.7592 -1.0742
33421SOL    HW2 3541   8.905   9.450   5.373  0.8404  0.3835  2.2449
33422SOL     OW 3542   8.917  10.498   0.546  0.2362 -0.2444  0.2682
33422SOL    HW1 3543   8.939  10.588   0.569  1.4642 -0.0824 -1.4064
33422SOL    HW2 3544   8.939  10.490   0.453 -1.5081 -1.7784 -0.0714
33423SOL     OW 3545   4.091   5.065   7.976  0.4378  0.6398  0.2844
33423SOL    HW1 3546   4.084   5.107   8.061 -0.6186  2.7038 -0.7252
33423SOL    HW2 3547   4.001   5.067   7.942  0.3749 -2.3574  0.0749
33424SOL     OW 3548   9.003  11.219   8.768  0.4474 -0.2866 -0.0866
33424SOL    HW1 3549   9.037  11.155   8.706  1.1171  0.5197 -0.5772
33424SOL    HW2 3550   9.028  11.185   8.854 -0.6627 -1.5128 -0.2202
33425SOL     OW 3551   3.022   9.205   9.368  0.1530 -0.3795  0.6320
33425SOL    HW1 3552   3.087   9.161   9.313  0.2699  0.6036 -0.0331
33425SOL    HW2 3553   2.943   9.153   9.359 -0.0295  0.1400 -1.0362
33426SOL     OW 3554   2.968   4.044   5.046  0.3156  0.2253  0.2669
33426SOL    HW1 3555   3.001   4.133   5.046  1.5001 -0.1814 -1.1180
33426SOL    HW2 3556   2.992   4.009   5.132 -0.6976  1.3915  1.0552
33427SOL     OW 3557   9.660   7.831   2.633  0.1933  0.7062  0.4785
33427SOL    HW1 3558   9.679   7.759   2.693  0.0027  1.1001  1.0241
33427SOL    HW2 3559   9.653   7.790   2.547 -0.2003  0.0371  0.8201
33428SOL     OW 3560   7.981   3.434  10.157  0.6666 -0.1498  0.2473
33428SOL    HW1 3561   7.929   3.514  10.162 -1.6856 -1.5937  0.8165
33428SOL    HW2 3562   7.947   3.389  10.080  2.5345 -0.2695 -0.5531
33429SOL     OW 3563  10.856   1.981   5.775 -0.1121 -0.1161  0.2993
33429SOL    HW1 3564  10.938   2.029   5.763 -0.0119 -0.3131  0.2018
33429SOL    HW2 3565  10.864   1.904   5.719 -0.3460 -0.1602  0.3238
33430SOL     OW 3566  11.268   9.614   1.872  0.3683 -0.1641 -0.1757
33430SOL    HW1 3567  11.335   9.624   1.803 -0.7736  0.0068 -1.2994
33430SOL    HW2 3568  11.243   9.704   1.894  0.4230 -0.2306  0.1613
33431SOL     OW 3569   5.406   2.221  10.804  0.5094 -0.2350  0.1118
33431SOL    HW1 3570   5.467   2.189  10.869  0.0439 -0.5360  0.4099
33431SOL    HW2 3571   5.332   2.160  10.808  0.3263 -0.0633 -0.4573
33432SOL     OW 3572   5.987   0.069   5.405  0.6209 -0.1641  0.0579
33432SOL    HW1 3573   5.896   0.086   5.427 -0.1249 -1.4469 -1.8105
33432SOL    HW2 3574   6.021   0.021   5.481 -0.7496 -1.1269  0.1002
33433SOL     OW 3575   0.148   4.944   4.898  0.0757 -0.0084 -0.0682
33433SOL    HW1 3576   0.170   4.975   4.986  1.8255 -0.0290 -0.4619
33433SOL    HW2 3577   0.175   5.015   4.840  0.3803 -0.6230 -0.6910
33434SOL     OW 3578   5.020   4.104   6.140 -0.5051  0.8839  0.2909
33434SOL    HW1 3579   5.007   4.039   6.209 -1.8046  0.5704 -0.2130
33434SOL    HW2 3580   4.959   4.077   6.071 -0.7880  2.4183 -0.0934
33435SOL     OW 3581   2.146   6.690   2.893  0.4710  0.1711 -0.3228
33435SOL    HW1 3582   2.115   6.718   2.808  0.8399  2.0929  0.1320
33435SOL    HW2 3583   2.077   6.632   2.926 -2.1517  3.2786  0.1322
33436SOL     OW 3584   1.457   7.652   8.523  0.3940 -0.0511  0.1269
33436SOL    HW1 3585   1.536   7.653   8.470  1.0174  0.3683  1.0397
33436SOL    HW2 3586   1.473   7.585   8.590  0.2644  0.4952  0.7177
33437SOL     OW 3587   5.089   6.829  11.025 -0.2490  0.2764  0.1540
33437SOL    HW1 3588   5.081   6.924  11.017 -0.0282  0.3127  0.3330
33437SOL    HW2 3589   5.010   6.803  11.072  1.4576  0.8808  3.7309
33438SOL     OW 3590   9.888   9.067   9.922  0.0631  0.6318 -0.5651
33438SOL    HW1 3591   9.952   9.098   9.858  1.4703  2.5239  1.6253
33438SOL    HW2 3592   9.939   9.011   9.981 -0.8380  0.2373 -0.1428
33439SOL     OW 3593   2.654   3.965   4.542  0.4577 -0.1456  0.0420
33439SOL    HW1 3594   2.728   4.016   4.509  0.6092 -0.3442  0.0689
33439SOL    HW2 3595   2.687   3.924   4.621  0.0218  0.5161  0.5782
33440SOL     OW 3596   0.464   4.461  11.275 -0.0505  0.2727  0.9392
33440SOL    HW1 3597   0.558   4.461  11.287 -0.2101  1.8538  2.5665
33440SOL    HW2 3598   0.451   4.425  11.187  2.0254 -0.1255  0.7498
33441SOL     OW 3599   3.373   4.910   6.286 -0.0913  0.2200  0.2761
33441SOL    HW1 3600   3.333   4.841   6.338 -0.0319  0.7603  1.0708
33441SOL    HW2 3601   3.304   4.938   6.226 -1.0054  1.2047  1.6888
33442SOL     OW 3602  10.452   2.327   4.668  0.0837  0.4580  0.1943
33442SOL    HW1 3603  10.502   2.267   4.724  0.5009  1.2439  0.6900
33442SOL    HW2 3604  10.513   2.352   4.599  0.6495  1.9255  1.1596
33443SOL     OW 3605   4.326  10.465   2.811  0.2981 -0.1598  0.2031
33443SOL    HW1 3606   4.235  10.434   2.815 -0.2888  1.5162  0.4592
33443SOL    HW2 3607   4.321  10.558   2.832  2.1678 -0.1702  0.8808
33444SOL     OW 3608   4.670  10.501  11.005  0.1265 -0.4125  0.7851
33444SOL    HW1 3609   4.751  10.464  10.970  0.4768  1.1552 -0.1278
33444SOL    HW2 3610   4.694  10.589  11.034 -1.2108  0.0293  0.6316
33445SOL     OW 3611  10.055   3.572   0.131  0.3176 -0.2810  0.1694
33445SOL    HW1 3612  10.011   3.631   0.069  0.8612 -0.8229 -0.7475
33445SOL    HW2 3613  10.035   3.484   0.100 -2.0199 -0.7165  2.5728
33446SOL     OW 3614   5.286   2.383   0.782 -0.4958  0.4622 -0.2507
33446SOL    HW1 3615   5.243   2.377   0.867  0.6804 -0.6453  0.2993
33446SOL    HW2 3616   5.250   2.309   0.732 -0.1212  0.2380 -0.1958
33447SOL     OW 3617   8.480   1.025  10.274 -0.1147 -0.6798  0.4751
33447SOL    HW1 3618   8.484   1.049  10.182  2.7384  0.4446  0.7935
33447SOL    HW2 3619   8.485   0.929  10.274 -1.9895 -0.8209 -0.5337
33448SOL     OW 3620   0.350   3.394   2.642  0.1482  0.2311  0.9392
33448SOL    HW1 3621   0.276   3.336   2.659  0.2774  0.0050  0.7486
33448SOL    HW2 3622   0.346   3.410   2.547  0.8367 -0.4718  0.7790
33449SOL     OW 3623  10.030   4.822   2.049  0.6047  0.2631 -0.5385
33449SOL    HW1 3624   9.982   4.766   2.110  1.2756 -1.4639 -1.5233
33449SOL    HW2 3625  10.000   4.911   2.069 -0.0144 -0.3539  1.5237
33450SOL     OW 3626   0.786   1.930   6.246  0.5377  0.3251  0.1090
33450SOL    HW1 3627   0.756   1.909   6.335 -1.2126  1.6074 -0.1160
33450SOL    HW2 3628   0.844   2.005   6.257  0.1949  0.5847  0.1681
33451SOL     OW 3629   1.210   9.672  10.343  0.4897  0.0930  0.5432
33451SOL    HW1 3630   1.149   9.599  10.330  1.3655 -0.7218  0.8738
33451SOL    HW2 3631   1.219   9.711  10.256  2.3874 -2.1424 -0.3913
33452SOL     OW 3632   3.355   1.481  10.629 -0.8013 -0.2630  0.4653
33452SOL    HW1 3633   3.376   1.549  10.694 -0.0567 -0.2434  0.2141
33452SOL    HW2 3634   3.270   1.507  10.594 -0.9918 -0.0116  1.0931
33453SOL     OW 3635   3.288   4.160   9.146  0.5238 -0.2053  0.5204
33453SOL    HW1 3636   3.244   4.075   9.136  0.0579 -0.1601  1.9362
33453SOL    HW2 3637   3.294   4.172   9.241  1.3773  0.9468  0.3338
33454SOL     OW 3638   2.867   4.340   2.874 -0.1882  0.0831 -0.1444
33454SOL    HW1 3639   2.930   4.305   2.936 -0.0223  0.3534 -0.1599
33454SOL    HW2 3640   2.917   4.351   2.793 -0.8905 -2.2700 -0.9686
33455SOL     OW 3641   6.633  10.364   3.428  0.2694 -0.0649 -0.1766
33455SOL    HW1 3642   6.567  10.372   3.359  1.1287 -0.1049 -1.0186
33455SOL    HW2 3643   6.588  10.317   3.498 -1.1817  1.5590  0.0580
33456SOL     OW 3644   2.729   4.229   8.922 -0.4627  0.1168  0.1618
33456SOL    HW1 3645   2.715   4.322   8.904  0.0455  0.0703 -0.5162
33456SOL    HW2 3646   2.824   4.219   8.924 -0.5108 -0.4854 -0.3149
33457SOL     OW 3647   7.310   6.011   1.215 -0.3801  0.3177  0.2540
33457SOL    HW1 3648   7.237   5.971   1.262 -0.1836 -1.0392 -0.5356
33457SOL    HW2 3649   7.286   6.003   1.123 -0.0936  1.6117  0.0421
33458SOL     OW 3650   5.399   6.148   0.169  0.1886 -0.4834 -0.0667
33458SOL    HW1 3651   5.484   6.105   0.167  0.2573 -0.4442  1.2375
33458SOL    HW2 3652   5.412   6.231   0.122  0.6182 -0.8872 -0.6709
33459SOL     OW 3653  10.311   0.836  10.653  0.4576  0.1078 -0.1137
33459SOL    HW1 3654  10.266   0.811  10.733 -0.1409  0.4678 -0.3305
33459SOL    HW2 3655  10.342   0.925  10.669  0.3331  0.1820 -0.2813
33460SOL     OW 3656   0.481   4.775   0.941  0.7004  0.2176  0.0431
33460SOL    HW1 3657   0.552   4.722   0.905  1.1386 -1.0905  2.5883
33460SOL    HW2 3658   0.402   4.722   0.927  0.8657 -0.2723  0.8607
33461SOL     OW 3659  10.979   4.040   6.932 -0.1256 -0.3096 -0.2490
33461SOL    HW1 3660  10.986   3.947   6.910 -0.2170 -0.2789 -0.4028
33461SOL    HW2 3661  10.938   4.041   7.018  4.2203 -0.6867  2.1433
33462SOL     OW 3662  11.088   4.587  10.389 -0.0133 -0.3942 -0.5237
33462SOL    HW1 3663  11.093   4.682  10.394  1.2713 -0.3416 -2.0062
33462SOL    HW2 3664  11.062   4.569  10.299  0.3919 -1.4565 -0.4422
33463SOL     OW 3665   6.223   6.490   1.379  0.0811 -0.3249 -0.2186
33463SOL    HW1 3666   6.267   6.575   1.380  4.3821 -2.2614  1.0422
33463SOL    HW2 3667   6.205   6.474   1.286 -0.4503  1.7290 -0.5206
33464SOL     OW 3668   7.238   7.499   7.666 -0.4186  0.4615 -0.2437
33464SOL    HW1 3669   7.209   7.578   7.712 -1.3746 -1.0275  1.8474
33464SOL    HW2 3670   7.331   7.491   7.689 -0.6120  0.3400  0.5085
33465SOL     OW 3671   4.578   7.199   8.175  0.0052  0.2198  0.3995
33465SOL    HW1 3672   4.624   7.203   8.092 -1.6398  0.6750 -0.5220
33465SOL    HW2 3673   4.645   7.222   8.240  1.0837  0.7909 -0.8599
33466SOL     OW 3674  10.208   1.251   2.124  0.1450 -0.0124 -0.1751
33466SOL    HW1 3675  10.301   1.248   2.147  0.7084  0.2245 -2.2434
33466SOL    HW2 3676  10.170   1.179   2.174  1.2725  0.3646  1.3112
33467SOL     OW 3677   2.077   9.779  10.765  0.5743 -0.1650  0.1767
33467SOL    HW1 3678   2.031   9.717  10.822  0.5102 -0.3064 -0.0304
33467SOL    HW2 3679   2.011   9.845  10.743  0.2712 -0.7538 -0.7047
33468SOL     OW 3680   8.696   2.587   6.755 -0.4688  1.0599  0.0647
33468SOL    HW1 3681   8.634   2.660   6.753 -0.0957  1.4426  1.2965
33468SOL    HW2 3682   8.641   2.510   6.771 -0.5647  1.5844  2.7730
33469SOL     OW 3683   0.423   5.627   6.504  0.1161  0.3394  0.4014
33469SOL    HW1 3684   0.353   5.634   6.570  0.3415 -1.1074  0.8294
33469SOL    HW2 3685   0.477   5.704   6.519 -0.9152  1.0505  0.6164
33470SOL     OW 3686  10.303  10.975   0.185  0.5458 -0.0778 -0.2831
33470SOL    HW1 3687  10.385  11.025   0.194  1.1813 -1.0336 -0.5771
33470SOL    HW2 3688  10.284  10.978   0.091 -0.0434  0.5611 -0.1519
33471SOL     OW 3689   3.724   8.083   2.656 -0.0867 -0.0719 -0.3084
33471SOL    HW1 3690   3.693   8.173   2.656  0.2707  0.1272 -2.6155
33471SOL    HW2 3691   3.716   8.054   2.747  0.1822  2.4008  0.5788
33472SOL     OW 3692   7.582   4.362   8.502  0.0759  0.1398  0.1611
33472SOL    HW1 3693   7.643   4.359   8.429  0.6089  1.4255  0.5259
33472SOL    HW2 3694   7.512   4.420   8.472  1.1753  2.1612  1.2495
33473SOL     OW 3695  11.293   5.537   0.132  0.9375  0.2151 -0.2753
33473SOL    HW1 3696  11.215   5.591   0.137  0.1832 -0.8857  0.2113
33473SOL    HW2 3697  11.358   5.592   0.087  0.1036  1.3794 -0.0894
33474SOL     OW 3698   3.463   0.103   5.179 -0.4574  0.7445  0.1584
33474SOL    HW1 3699   3.503   0.117   5.265 -1.2309 -0.1097  0.6664
33474SOL    HW2 3700   3.528   0.052   5.131  0.1841  1.6348  0.0500
33475SOL     OW 3701   6.064   7.216   4.864  1.0542 -1.0458 -0.1274
33475SOL    HW1 3702   6.033   7.126   4.877 -0.0065 -0.7395 -0.4518
33475SOL    HW2 3703   6.083   7.222   4.770  1.0204 -0.8957 -0.1250
33476SOL     OW 3704   6.743   4.084   6.031 -0.5618 -0.0210  0.4112
33476SOL    HW1 3705   6.786   4.137   6.097  1.5613  1.5665 -2.0618
33476SOL    HW2 3706   6.734   3.997   6.072  0.4279  0.9272  2.7964
33477SOL     OW 3707   9.999   7.606   9.368  0.5106 -0.5203 -0.3621
33477SOL    HW1 3708  10.024   7.604   9.460  0.3527 -1.6223 -0.3271
33477SOL    HW2 3709   9.914   7.650   9.368  1.7334  1.9790 -0.3289
33478SOL     OW 3710   5.634   9.481   3.093 -0.3296  0.0027 -0.9399
33478SOL    HW1 3711   5.709   9.422   3.086 -1.9493 -2.5753  1.3272
33478SOL    HW2 3712   5.562   9.435   3.050 -1.1652  1.3731 -1.0981
33479SOL     OW 3713   9.139   6.979   4.949  0.0193 -0.0488 -0.0621
33479SOL    HW1 3714   9.053   7.017   4.969  0.3451  2.2102 -2.4804
33479SOL    HW2 3715   9.123   6.925   4.871  0.4252 -1.4981  0.8152
33480SOL     OW 3716  10.045   3.418   6.717  0.0902 -0.1712  0.9030
33480SOL    HW1 3717  10.123   3.430   6.664 -0.3485  1.3754  0.5666
33480SOL    HW2 3718   9.975   3.459   6.667 -1.1381 -2.1799  0.8386
33481SOL     OW 3719   3.439   3.117   4.090  0.7438  0.2302  0.1215
33481SOL    HW1 3720   3.527   3.152   4.076  1.4861 -1.5899  0.0676
33481SOL    HW2 3721   3.381   3.192   4.074  2.2971  1.6434  0.8869
33482SOL     OW 3722   5.691   9.229   6.073 -0.2472  0.5111 -0.8762
33482SOL    HW1 3723   5.624   9.279   6.025 -1.0645 -0.7038 -1.0414
33482SOL    HW2 3724   5.770   9.237   6.018  0.0603  2.7501 -0.2041
33483SOL     OW 3725   6.686  10.770   7.249 -0.2735  0.0104 -0.1975
33483SOL    HW1 3726   6.636  10.851   7.240 -0.2684 -0.0692 -0.9460
33483SOL    HW2 3727   6.625  10.700   7.225 -1.0561 -0.4719  2.7126
33484SOL     OW 3728   9.752   8.980   2.004  0.3076 -0.2609  0.5928
33484SOL    HW1 3729   9.790   8.917   1.942 -0.4477 -1.6181  1.4628
33484SOL    HW2 3730   9.825   9.002   2.063  0.5917 -0.2560  0.2449
33485SOL     OW 3731   5.769   4.790   0.944  0.1477 -0.1428 -0.7917
33485SOL    HW1 3732   5.838   4.789   1.010 -0.4797  2.2877 -0.0104
33485SOL    HW2 3733   5.807   4.744   0.869  2.3540  0.5108 -0.1467
33486SOL     OW 3734   1.148   6.874   7.597  0.3952  0.0318  0.6724
33486SOL    HW1 3735   1.086   6.946   7.609  1.2964  1.2007 -1.2951
33486SOL    HW2 3736   1.159   6.838   7.685  0.8339  3.0975  2.0090
33487SOL     OW 3737   6.959   7.897   8.707 -0.7866 -0.2114 -0.1411
33487SOL    HW1 3738   7.047   7.889   8.670 -0.5813  0.4406  0.2125
33487SOL    HW2 3739   6.965   7.855   8.793  0.2870  3.3665  1.7115
33488SOL     OW 3740   7.788   0.734   5.492  0.2490  0.1095  0.3436
33488SOL    HW1 3741   7.824   0.663   5.439  0.3608  0.1619  0.3497
33488SOL    HW2 3742   7.849   0.806   5.481  0.2186  0.1544  0.4633
33489SOL     OW 3743   7.690   4.852   8.816 -0.4627 -0.3691 -0.0720
33489SOL    HW1 3744   7.705   4.940   8.782  1.0539 -0.6851 -0.3024
33489SOL    HW2 3745   7.724   4.794   8.748 -2.0528 -1.1795 -0.2243
33490SOL     OW 3746  10.794   1.003   1.223 -0.1078  0.1819 -0.0211
33490SOL    HW1 3747  10.768   1.083   1.178 -0.9364 -0.3267 -0.4652
33490SOL    HW2 3748  10.722   0.941   1.207 -0.9920  0.2873  2.8365
33491SOL     OW 3749   2.510   9.930   3.211 -0.3801  0.6000  0.0278
33491SOL    HW1 3750   2.476   9.907   3.297 -0.5809  1.3582  0.1565
33491SOL    HW2 3751   2.499  10.025   3.205 -1.6334  0.4103 -1.3639
33492SOL     OW 3752   8.984   8.836   1.664 -0.7667  1.0611  0.1715
33492SOL    HW1 3753   8.958   8.928   1.668 -1.0415  1.0304 -0.7486
33492SOL    HW2 3754   9.067   8.836   1.616 -0.1278  0.9421  1.2426
33493SOL     OW 3755   9.186   1.108   0.445 -0.3064  0.0711 -0.0508
33493SOL    HW1 3756   9.175   1.194   0.404  1.8082  1.1666  1.5024
33493SOL    HW2 3757   9.103   1.093   0.490 -0.8584  1.0881 -0.6835
33494SOL     OW 3758   3.357   8.913   8.582  1.0453  0.7264 -0.1253
33494SOL    HW1 3759   3.406   8.920   8.499  0.2812  1.5693 -0.5213
33494SOL    HW2 3760   3.336   9.003   8.605 -0.2277  0.3915  0.0870
33495SOL     OW 3761   8.868   1.549   9.570  0.2457  0.2681 -0.5368
33495SOL    HW1 3762   8.845   1.467   9.525  0.8630 -0.9269  1.2094
33495SOL    HW2 3763   8.955   1.532   9.606 -0.1175  1.2374  0.8702
33496SOL     OW 3764   7.168   4.134   5.668 -0.6269 -0.4482  0.3610
33496SOL    HW1 3765   7.243   4.172   5.713  0.8050  0.1997 -2.3747
33496SOL    HW2 3766   7.096   4.143   5.731  1.3942 -0.5500  2.8465
33497SOL     OW 3767   4.864   0.089   9.963 -0.2729 -0.8936  0.0433
33497SOL    HW1 3768   4.773   0.069   9.985 -0.5666 -0.1628 -0.4906
33497SOL    HW2 3769   4.864   0.104   9.869  0.3320 -0.5158  0.0946
33498SOL     OW 3770   3.681   9.130   3.947 -0.5126  0.5910  0.6682
33498SOL    HW1 3771   3.760   9.129   3.892 -1.2964 -1.3566 -0.5239
33498SOL    HW2 3772   3.701   9.071   4.019 -1.0681 -0.4165  0.0206
33499SOL     OW 3773  10.045   2.405   3.550  0.1513 -0.4238  0.2506
33499SOL    HW1 3774   9.981   2.457   3.501 -0.1087 -0.9237  0.0565
33499SOL    HW2 3775  10.116   2.390   3.488 -0.2651 -1.2218 -0.0453
33500SOL     OW 3776   1.674   1.517   4.125 -0.2598 -0.5032 -0.5927
33500SOL    HW1 3777   1.673   1.605   4.162  0.1315 -2.2034  4.0387
33500SOL    HW2 3778   1.582   1.491   4.122 -0.3642 -0.0709 -1.8360
33501SOL     OW 3779   6.496   1.201   2.423  0.4828  0.1871 -0.7576
33501SOL    HW1 3780   6.479   1.113   2.458  1.8896  0.8846  2.0425
33501SOL    HW2 3781   6.542   1.185   2.341  0.1787 -1.6983 -0.6225
33502SOL     OW 3782   2.999   3.761   9.531  0.2404  0.4378 -0.4498
33502SOL    HW1 3783   2.934   3.698   9.499  1.1714 -0.4959 -0.5354
33502SOL    HW2 3784   3.067   3.708   9.572  1.2096  1.3570 -0.8097
33503SOL     OW 3785  10.474   7.661   7.309 -0.0524 -0.1122  0.1350
33503SOL    HW1 3786  10.393   7.613   7.291  0.4920 -0.8912 -0.2796
33503SOL    HW2 3787  10.473   7.732   7.245 -1.7872  1.6609  1.9472
33504SOL     OW 3788   5.225   8.586  11.190 -0.0596 -0.0513  0.6237
33504SOL    HW1 3789   5.163   8.580  11.263  0.0595  2.1139  0.9719
33504SOL    HW2 3790   5.172   8.574  11.112 -0.3106 -1.6936  1.0230
33505SOL     OW 3791   3.951   6.947  10.713  0.3661  0.0229  0.3905
33505SOL    HW1 3792   3.965   6.854  10.700  2.4063  0.3477 -0.0610
33505SOL    HW2 3793   4.011   6.972  10.783  1.7506  1.4225 -1.1982
33506SOL     OW 3794   3.700   9.931   6.453  0.0078  0.1828  0.2538
33506SOL    HW1 3795   3.646   9.888   6.387  1.2417  0.4424 -0.9725
33506SOL    HW2 3796   3.695   9.873   6.529 -0.5867 -0.6896 -0.4299
33507SOL     OW 3797   2.274   4.953   3.012 -0.0646 -0.0538 -0.4941
33507SOL    HW1 3798   2.251   4.868   3.048 -0.5977  1.2814  2.6264
33507SOL    HW2 3799   2.369   4.949   3.001 -0.0714 -1.0131 -0.2822
33508SOL     OW 3800   0.036   4.037  11.040 -0.4972  0.1504 -0.2483
33508SOL    HW1 3801  -0.012   3.957  11.059 -0.5427  0.0047 -0.9484
33508SOL    HW2 3802  -0.009   4.075  10.965  0.4348  0.0529 -0.8678
33509SOL     OW 3803   9.075   1.394   8.333  0.0468  0.0508 -0.2522
33509SOL    HW1 3804   9.006   1.447   8.372 -0.4526  0.0763 -1.1269
33509SOL    HW2 3805   9.139   1.458   8.301 -0.0337  0.0783 -0.3599
33510SOL     OW 3806  10.695   1.763   4.324 -0.0476 -0.4363 -0.0403
33510SOL    HW1 3807  10.775   1.755   4.272 -0.2000  1.0979 -0.5618
33510SOL    HW2 3808  10.640   1.823   4.274 -0.9695 -0.4038  0.9822
33511SOL     OW 3809   1.167   8.265   1.241  0.7811  0.2617 -0.7416
33511SOL    HW1 3810   1.176   8.326   1.168 -2.1229  1.6798 -0.0764
33511SOL    HW2 3811   1.073   8.246   1.245  1.2811 -2.4010  0.6108
33512SOL     OW 3812   7.497   4.465   2.265 -0.1120  0.0447  0.0335
33512SOL    HW1 3813   7.501   4.428   2.176  2.0685  0.4857 -0.0925
33512SOL    HW2 3814   7.432   4.536   2.258 -0.9614 -0.7850 -0.8444
33513SOL     OW 3815  10.324   1.349   6.434  0.4770  0.5371 -0.1797
33513SOL    HW1 3816  10.355   1.259   6.437  0.0930  0.3374 -1.7669
33513SOL    HW2 3817  10.328   1.373   6.342 -2.4642  1.0838 -0.2359
33514SOL     OW 3818   4.904  10.034   8.088  0.5395 -0.0196  0.0323
33514SOL    HW1 3819   4.914   9.954   8.036  0.4620  0.4328 -0.6924
33514SOL    HW2 3820   4.865  10.097   8.028 -0.1234  0.3390  0.8248
33515SOL     OW 3821   3.781   4.664   6.328 -0.1876  0.2709  0.0335
33515SOL    HW1 3822   3.864   4.711   6.329  0.6596 -1.1038 -1.2735
33515SOL    HW2 3823   3.722   4.721   6.280  0.3725  0.6711 -0.1938
33516SOL     OW 3824   6.271   9.944   3.429 -0.2854  0.2808  0.0068
33516SOL    HW1 3825   6.312   9.914   3.348 -0.7426 -0.8868  0.2031
33516SOL    HW2 3826   6.185   9.977   3.402 -0.1415  0.5973 -0.0772
33517SOL     OW 3827  10.867   7.135   7.319  0.5202 -0.1123  0.2381
33517SOL    HW1 3828  10.930   7.205   7.339  1.8043 -1.2420  0.3187
33517SOL    HW2 3829  10.819   7.122   7.401  0.6215  0.3294  0.3710
33518SOL     OW 3830   1.297   0.256   3.885 -0.7920 -0.3794 -0.0698
33518SOL    HW1 3831   1.208   0.280   3.862 -0.8766 -1.1954 -0.6193
33518SOL    HW2 3832   1.310   0.293   3.973 -0.7644  2.0309 -1.0143
33519SOL     OW 3833   4.636  10.246   2.899 -0.3350 -0.0106 -0.0305
33519SOL    HW1 3834   4.633  10.321   2.839  0.3547 -0.9583 -1.3011
33519SOL    HW2 3835   4.634  10.169   2.842 -1.2579 -0.9868  1.2507
33520SOL     OW 3836   5.515  10.027   1.784  0.0598  0.3095  0.1198
33520SOL    HW1 3837   5.560  10.103   1.745 -0.7256 -0.1355 -1.7670
33520SOL    HW2 3838   5.574   9.954   1.767 -0.7086 -0.0472 -1.1494
33521SOL     OW 3839   7.668   6.841   3.333 -0.1008  0.3265 -0.0352
33521SOL    HW1 3840   7.634   6.901   3.399  0.0091 -1.1180  1.3845
33521SOL    HW2 3841   7.683   6.896   3.256 -1.9018  1.7342  0.5495
33522SOL     OW 3842   8.221   9.397   0.164  0.2139  0.3961  0.0747
33522SOL    HW1 3843   8.294   9.339   0.143 -0.5256  0.0213 -1.7113
33522SOL    HW2 3844   8.251   9.484   0.137 -0.1295  0.1729 -1.0765
33523SOL     OW 3845   4.054   8.116   9.273 -0.4443 -0.1621  0.4217
33523SOL    HW1 3846   3.999   8.160   9.337 -1.3207 -1.0858  0.3307
33523SOL    HW2 3847   4.029   8.155   9.189 -1.3729 -0.9600  0.3148
33524SOL     OW 3848   8.200   2.511   3.741 -0.4104 -0.3314 -0.2564
33524SOL    HW1 3849   8.224   2.593   3.784 -2.4407 -0.4926  1.3230
33524SOL    HW2 3850   8.227   2.523   3.650  2.0969  0.8613  0.5660
33525SOL     OW 3851   6.793   3.047   2.361 -0.3967 -0.1195  0.0288
33525SOL    HW1 3852   6.771   2.977   2.300 -2.1218  0.2477  0.1478
33525SOL    HW2 3853   6.834   3.115   2.307 -2.9672  0.7097 -1.0524
33526SOL     OW 3854   0.777   5.741   6.345  0.3063  0.0870  0.3662
33526SOL    HW1 3855   0.745   5.698   6.266 -1.1545  2.6329 -0.5636
33526SOL    HW2 3856   0.850   5.795   6.314  0.8817 -0.2432  1.1214
33527SOL     OW 3857   2.715   7.570   1.807  0.5294  0.0561  0.3105
33527SOL    HW1 3858   2.759   7.594   1.888 -0.4648  0.7250  0.6809
33527SOL    HW2 3859   2.664   7.647   1.783 -0.7106 -0.7827  0.1073
33528SOL     OW 3860   1.177   5.693   3.949 -0.2900  0.1530  0.3099
33528SOL    HW1 3861   1.219   5.711   3.865 -0.5899  0.1012  0.1502
33528SOL    HW2 3862   1.247   5.706   4.013 -0.4330  1.7682  0.1897
33529SOL     OW 3863   6.413   8.352   6.091 -0.7371 -0.0940  0.0698
33529SOL    HW1 3864   6.330   8.386   6.126 -0.2417  0.8526  0.3542
33529SOL    HW2 3865   6.426   8.402   6.010  0.4610  1.1193  0.9633
33530SOL     OW 3866   4.633   5.535   0.320  0.3494  0.4547  0.0797
33530SOL    HW1 3867   4.639   5.617   0.370 -1.8380  0.3711  0.5579
33530SOL    HW2 3868   4.724   5.515   0.298  1.0361  2.5113  0.7460
33531SOL     OW 3869   7.047   3.849   2.740  0.2394 -0.1565  0.3166
33531SOL    HW1 3870   6.983   3.898   2.688  0.1779 -0.6251 -0.0546
33531SOL    HW2 3871   7.080   3.913   2.803 -0.2716  0.2070  0.2252
33532SOL     OW 3872  10.847   7.468   0.089 -0.2969 -0.4681 -0.5001
33532SOL    HW1 3873  10.838   7.522   0.168  0.6265  1.6249 -1.7406
33532SOL    HW2 3874  10.812   7.522   0.018  0.8471 -1.4110 -1.8446
33533SOL     OW 3875  10.911   2.357  10.995 -0.6739 -0.4986  0.1235
33533SOL    HW1 3876  10.909   2.300  11.071  0.3714 -1.1684 -0.3287
33533SOL    HW2 3877  10.960   2.308  10.929 -0.4393  0.5954 -0.5503
33534SOL     OW 3878  10.955   2.818   8.137  0.3733 -0.2548 -0.1045
33534SOL    HW1 3879  10.953   2.740   8.193 -1.5325  0.0868  0.3570
33534SOL    HW2 3880  10.926   2.786   8.052  0.2112 -0.1675 -0.0816
33535SOL     OW 3881   3.193   4.862  10.731  0.3260  0.0983 -0.4511
33535SOL    HW1 3882   3.229   4.879  10.644  1.5187 -0.3985 -0.0707
33535SOL    HW2 3883   3.214   4.941  10.781  0.3318  0.0651 -0.4019
33536SOL     OW 3884   5.459   5.074   8.548 -0.0242 -0.2328 -0.0333
33536SOL    HW1 3885   5.524   5.045   8.483  1.1810 -0.3939  1.1881
33536SOL    HW2 3886   5.510   5.088   8.628 -1.3657  0.5751  0.7185
33537SOL     OW 3887  10.501   6.628   7.211 -0.1450 -0.0528 -0.2533
33537SOL    HW1 3888  10.569   6.645   7.276 -0.5868 -0.2969  0.2814
33537SOL    HW2 3889  10.429   6.685   7.236 -0.8241 -1.1160  0.2839
33538SOL     OW 3890   5.469   3.454   3.000 -0.5929 -0.4924  0.4959
33538SOL    HW1 3891   5.517   3.388   2.951 -2.0953 -2.5367  1.6455
33538SOL    HW2 3892   5.385   3.461   2.955 -0.8277 -0.1249  0.9757
33539SOL     OW 3893   0.746   3.363   1.811 -0.6641  0.2637  0.4878
33539SOL    HW1 3894   0.663   3.316   1.809 -1.6424  1.9542 -0.8041
33539SOL    HW2 3895   0.722   3.454   1.825  0.9317  0.8867 -0.5349
33540SOL     OW 3896   8.382   2.638   9.791 -0.3514 -0.1569 -0.1426
33540SOL    HW1 3897   8.351   2.614   9.704 -0.5197 -1.6018  0.2818
33540SOL    HW2 3898   8.426   2.559   9.823 -1.2735 -0.0450  1.5118
33541SOL     OW 3899   4.107   4.382   7.901 -0.2583 -0.7427  0.2317
33541SOL    HW1 3900   4.044   4.439   7.857  0.2188 -0.4766 -0.1146
33541SOL    HW2 3901   4.061   4.299   7.912 -0.9482 -0.3148  0.6994
33542SOL     OW 3902   4.651   5.046   2.245  0.1271 -0.6371 -0.1622
33542SOL    HW1 3903   4.737   5.006   2.257 -0.1262 -1.4947 -1.0080
33542SOL    HW2 3904   4.593   4.997   2.302  0.3904  0.7620  1.3742
33543SOL     OW 3905   9.971   4.958   1.110  0.0781  0.4390  0.2592
33543SOL    HW1 3906   9.887   4.930   1.146  0.9200 -0.3675  1.6850
33543SOL    HW2 3907   9.949   5.032   1.054 -1.4083  1.3231  1.9080
33544SOL     OW 3908   4.127   6.460   5.531  0.2570  0.0552  0.2910
33544SOL    HW1 3909   4.153   6.551   5.518  0.9667 -0.0129  1.0974
33544SOL    HW2 3910   4.077   6.461   5.612  0.4327 -0.2922  0.4077
33545SOL     OW 3911   3.760  10.400   3.540  0.0224  0.2475 -0.2543
33545SOL    HW1 3912   3.814  10.434   3.611  1.5479 -0.5545 -0.9787
33545SOL    HW2 3913   3.761  10.305   3.553 -0.2793  0.1493 -0.9300
33546SOL     OW 3914   4.134  10.082   7.534  0.2072  0.2385 -0.3600
33546SOL    HW1 3915   4.130  10.147   7.464  0.5612  0.2776 -0.3456
33546SOL    HW2 3916   4.086  10.121   7.607  0.5559  0.5548 -0.2966
33547SOL     OW 3917   2.778   6.886   5.200 -0.0388 -0.5993  0.5306
33547SOL    HW1 3918   2.869   6.907   5.177 -0.5407  1.7266  0.4771
33547SOL    HW2 3919   2.745   6.837   5.125  0.0317  1.9864 -1.3031
33548SOL     OW 3920   3.750   6.411  10.653 -0.1641  0.1565 -0.0576
33548SOL    HW1 3921   3.729   6.356  10.729 -0.1484  0.1176 -0.0814
33548SOL    HW2 3922   3.664   6.436  10.618 -0.2094  1.7306  1.0769
33549SOL     OW 3923   3.670   7.487   1.864  0.9612  0.4837 -0.3129
33549SOL    HW1 3924   3.623   7.422   1.916  2.4874 -0.5580 -0.1804
33549SOL    HW2 3925   3.729   7.530   1.927  1.5146  0.4766 -0.8198
33550SOL     OW 3926   5.327   4.040   3.489 -0.2888  0.1196 -0.4612
33550SOL    HW1 3927   5.316   3.953   3.450 -0.0593  0.2207 -0.7563
33550SOL    HW2 3928   5.240   4.064   3.520 -0.5733  0.2208 -1.3017
33551SOL     OW 3929   0.371   9.725   1.832 -0.3775 -0.1290  0.0381
33551SOL    HW1 3930   0.431   9.651   1.833 -1.3879 -0.9990 -1.3197
33551SOL    HW2 3931   0.382   9.765   1.746 -1.7516 -0.3158 -0.2455
33552SOL     OW 3932   8.892   9.657   4.950  0.5014  0.3604 -0.5840
33552SOL    HW1 3933   8.907   9.699   4.865 -0.0649  1.3781 -0.2032
33552SOL    HW2 3934   8.810   9.609   4.940 -0.4447  1.8248 -0.1566
33553SOL     OW 3935   3.254   8.217   3.990 -0.2703  0.1572 -0.6598
33553SOL    HW1 3936   3.349   8.205   3.989 -0.3112 -0.1606 -0.9323
33553SOL    HW2 3937   3.241   8.305   4.027  0.2293  0.9952 -2.3710
33554SOL     OW 3938   6.786   2.878   0.736  0.4939 -0.0927 -0.4496
33554SOL    HW1 3939   6.716   2.922   0.784  1.1266  1.4796 -0.8935
33554SOL    HW2 3940   6.771   2.785   0.751 -0.4526  0.2849  1.1743
33555SOL     OW 3941   1.491   7.904   2.824  0.0034 -0.3641  0.2944
33555SOL    HW1 3942   1.434   7.915   2.900 -0.8763 -1.5529 -0.1554
33555SOL    HW2 3943   1.430   7.904   2.750  0.4015 -3.0282 -0.0989
33556SOL     OW 3944  10.497   6.234   8.223  0.0200 -0.1318  0.3674
33556SOL    HW1 3945  10.536   6.165   8.277 -2.8042  0.1261  2.9860
33556SOL    HW2 3946  10.475   6.304   8.284  1.2104  2.4769 -1.9446
33557SOL     OW 3947   5.027   6.327   0.008  0.2218  0.2188 -0.0462
33557SOL    HW1 3948   5.114   6.336  -0.030  0.4613  0.4422  0.5418
33557SOL    HW2 3949   4.978   6.403  -0.025  0.0538 -0.2427 -0.8792
33558SOL     OW 3950   4.086   7.708   9.189 -0.1861  0.2488  0.8471
33558SOL    HW1 3951   4.040   7.624   9.187  0.5895 -0.2652  2.5271
33558SOL    HW2 3952   4.108   7.726   9.098 -0.5077 -1.3044  0.4358
33559SOL     OW 3953  10.055   7.500   0.731 -0.2729  0.6878 -0.1355
33559SOL    HW1 3954   9.963   7.519   0.713 -0.9357 -0.5932  1.6561
33559SOL    HW2 3955  10.062   7.405   0.723  0.2781  0.4782  2.1493
33560SOL     OW 3956  10.400   6.302   9.154  0.2762  0.1757 -0.6224
33560SOL    HW1 3957  10.401   6.397   9.141  0.1873  0.2957  0.1977
33560SOL    HW2 3958  10.308   6.279   9.161  0.1849 -0.2526 -2.6375
33561SOL     OW 3959   6.067   7.788   3.037  0.0903  0.6209  0.0506
33561SOL    HW1 3960   6.091   7.695   3.043 -2.1604  0.0025  0.3720
33561SOL    HW2 3961   6.025   7.797   2.951  2.0734  1.8495 -0.8621
33562SOL     OW 3962   5.655   3.043   8.048  0.4281  0.2466  0.2265
33562SOL    HW1 3963   5.680   3.133   8.029  0.8169  1.1320  4.1109
33562SOL    HW2 3964   5.566   3.049   8.084  0.1703 -1.0261 -0.1394
33563SOL     OW 3965   8.590   9.205  11.076  0.2492 -0.0534  0.1390
33563SOL    HW1 3966   8.505   9.224  11.115 -0.0805  0.2523 -0.7151
33563SOL    HW2 3967   8.623   9.130  11.127 -0.4216 -0.0329  0.6206
33564SOL     OW 3968   2.189   4.830  10.994 -0.0033  0.2943  0.5528
33564SOL    HW1 3969   2.137   4.879  11.058  1.1968  0.9574  1.0515
33564SOL    HW2 3970   2.277   4.867  11.002  0.7127 -1.2908  0.2340
33565SOL     OW 3971   5.649   6.579   4.657  0.1050  0.2999 -0.2872
33565SOL    HW1 3972   5.683   6.518   4.592 -0.7943 -0.3023 -0.2053
33565SOL    HW2 3973   5.682   6.547   4.741 -0.3711 -0.0919 -0.2436
33566SOL     OW 3974   9.348   3.581   8.179  0.2662  0.1479 -0.2614
33566SOL    HW1 3975   9.425   3.525   8.192 -0.7508 -0.9130  1.6598
33566SOL    HW2 3976   9.277   3.533   8.220 -0.7625  2.6646  1.1048
33567SOL     OW 3977   9.503  10.997   6.451 -0.2163  0.0297  0.4166
33567SOL    HW1 3978   9.464  11.032   6.371  1.0033  0.9886  0.2069
33567SOL    HW2 3979   9.596  11.018   6.443 -0.0174 -0.1869  1.9223
33568SOL     OW 3980  10.590  10.229   9.787 -0.1789 -0.7088 -0.3593
33568SOL    HW1 3981  10.631  10.180   9.859  0.3646  2.0240  1.3561
33568SOL    HW2 3982  10.663  10.263   9.736 -0.2406  1.6260  0.9230
33569SOL     OW 3983   4.297   9.301   5.060  0.1017  0.1476  0.0559
33569SOL    HW1 3984   4.372   9.353   5.091 -0.4411 -0.5676  2.9384
33569SOL    HW2 3985   4.334   9.216   5.038  0.1477 -0.3961  2.0409
33570SOL     OW 3986   8.525   1.531   2.267  0.3255  0.1971  0.0796
33570SOL    HW1 3987   8.590   1.596   2.238 -0.0811 -0.2910 -2.1103
33570SOL    HW2 3988   8.508   1.553   2.358  1.4296  2.1375 -0.1297
33571SOL     OW 3989   6.018   2.542   1.240 -0.3239  0.0821  0.4557
33571SOL    HW1 3990   6.096   2.488   1.227 -0.4996 -0.3256  1.0240
33571SOL    HW2 3991   5.987   2.518   1.328 -0.7190  0.7122  0.4967
33572SOL     OW 3992   4.357   6.321   5.512  0.4464 -0.4191 -0.2454
33572SOL    HW1 3993   4.356   6.293   5.420  0.1164  1.0064 -0.7096
33572SOL    HW2 3994   4.279   6.375   5.521  1.3566  0.8448  0.3965
33573SOL     OW 3995  10.981   7.049   0.207  0.0507  0.2999 -0.0710
33573SOL    HW1 3996  10.892   7.046   0.172 -0.2874  1.8982  0.5795
33573SOL    HW2 3997  11.014   6.960   0.195 -2.3311 -0.9086  1.4908
33574SOL     OW 3998   1.132   6.320   4.833 -0.4804 -0.4120 -0.5932
33574SOL    HW1 3999   1.045   6.305   4.869 -0.6821  0.1978 -0.8207
33574SOL    HW2 4000   1.149   6.243   4.778 -0.0629 -1.4791  0.9576
33575SOL     OW 4001   6.890   2.557   9.981  0.0771 -0.7032  0.2893
33575SOL    HW1 4002   6.860   2.476   9.939  1.0724 -1.0647  0.2290
33575SOL    HW2 4003   6.811   2.597  10.016 -0.3413 -2.1594  1.1007
33576SOL     OW 4004   7.044   2.199   5.459  0.3378 -0.0421 -0.5056
33576SOL    HW1 4005   7.012   2.289   5.462  0.7866  0.1013  0.1778
33576SOL    HW2 4006   7.016   2.167   5.373 -1.7233  0.0368  0.0866
33577SOL     OW 4007   4.965   6.844   8.172 -1.1934 -0.4732  0.0447
33577SOL    HW1 4008   4.986   6.887   8.089  0.8786 -1.1349  0.1535
33577SOL    HW2 4009   4.977   6.912   8.238  2.2013 -1.0654  0.2292
33578SOL     OW 4010   7.072   0.895  10.960 -0.0645  0.1395 -0.1623
33578SOL    HW1 4011   7.032   0.812  10.934 -0.1414  0.3014 -0.5556
33578SOL    HW2 4012   7.164   0.887  10.935 -0.1496  0.3152 -0.5225
33579SOL     OW 4013  10.763   6.574   6.296  0.3799 -0.1914  0.0433
33579SOL    HW1 4014  10.679   6.620   6.288  0.3569 -0.2182  0.1388
33579SOL    HW2 4015  10.777   6.565   6.391  0.4382 -0.2832  0.0264
33580SOL     OW 4016   3.341   2.397   8.562 -0.4202  0.0952  0.0952
33580SOL    HW1 4017   3.284   2.321   8.569  1.4276 -1.2355  1.9685
33580SOL    HW2 4018   3.322   2.433   8.475 -1.4985 -2.3982 -0.7948
33581SOL     OW 4019   5.879   2.151   3.146  0.2805  0.1689  0.0452
33581SOL    HW1 4020   5.845   2.087   3.209  1.3367  0.1840  0.6553
33581SOL    HW2 4021   5.809   2.159   3.080  0.3714 -2.1137 -0.4235
33582SOL     OW 4022   0.785   5.117   5.931 -0.4675 -0.9351  0.0589
33582SOL    HW1 4023   0.870   5.157   5.912  1.1066 -3.0344  2.0666
33582SOL    HW2 4024   0.729   5.145   5.859  1.6014  1.4151 -0.7906
33583SOL     OW 4025   4.123   1.454   5.381 -1.0965 -0.2243 -0.2019
33583SOL    HW1 4026   4.194   1.422   5.324 -1.7220  0.1260 -1.1989
33583SOL    HW2 4027   4.167   1.511   5.443 -0.5419  0.3389 -1.0868
33584SOL     OW 4028   4.529  10.624  10.170 -0.5349 -0.2674 -0.2698
33584SOL    HW1 4029   4.446  10.646  10.212 -0.6370 -0.3464 -0.4338
33584SOL    HW2 4030   4.579  10.706  10.173 -0.1431 -0.5246  0.9346
33585SOL     OW 4031   4.830   8.851   0.948  0.6918 -0.3109  0.0613
33585SOL    HW1 4032   4.779   8.811   1.018 -0.2864  0.4085 -0.2135
33585SOL    HW2 4033   4.764   8.881   0.885  1.5250 -0.4484 -0.8951
33586SOL     OW 4034   2.146   5.564  10.743 -0.4761 -0.0923  0.1063
33586SOL    HW1 4035   2.086   5.559  10.668 -1.9119 -1.0336  1.2731
33586SOL    HW2 4036   2.106   5.508  10.809  2.9778 -2.8324  0.1073
33587SOL     OW 4037   1.863   6.335   8.264 -0.0171  0.5286  0.0979
33587SOL    HW1 4038   1.861   6.430   8.274 -0.3211  0.5406 -0.0807
33587SOL    HW2 4039   1.856   6.320   8.170 -0.0928  0.3255  0.1342
33588SOL     OW 4040  11.314   8.785   7.174 -0.2307 -0.0266  0.2440
33588SOL    HW1 4041  11.296   8.775   7.081 -0.7685 -0.5792  0.3976
33588SOL    HW2 4042  11.233   8.757   7.217  0.7545 -2.0458  0.9388
33589SOL     OW 4043  10.776  10.066   6.200 -0.1213  0.0322  0.1232
33589SOL    HW1 4044  10.811  10.119   6.271 -1.1773  0.5462  0.2859
33589SOL    HW2 4045  10.847  10.062   6.136  0.6994 -0.1041  1.0244
33590SOL     OW 4046   7.468   4.959   6.365 -0.1652 -0.0259 -0.2187
33590SOL    HW1 4047   7.400   4.892   6.358  0.2729 -0.3475 -1.7586
33590SOL    HW2 4048   7.421   5.042   6.365 -0.6393 -0.2869  0.4152
33591SOL     OW 4049   6.952   9.985   3.063  0.0988 -0.3771 -0.5581
33591SOL    HW1 4050   6.895   9.908   3.073 -3.3681  1.9962 -0.0701
33591SOL    HW2 4051   6.971  10.013   3.152  1.0484 -0.4367 -0.7316
33592SOL     OW 4052   8.867  10.169   0.768  0.4198 -0.3360  0.0905
33592SOL    HW1 4053   8.873  10.236   0.836  0.5114 -0.4654  0.2105
33592SOL    HW2 4054   8.916  10.094   0.803  0.4163 -0.4252 -0.0911
33593SOL     OW 4055   6.899   0.687   7.633  0.1399 -0.2658 -0.7193
33593SOL    HW1 4056   6.841   0.625   7.677  0.9979  0.0731  0.9658
33593SOL    HW2 4057   6.987   0.663   7.664  0.7510  0.2328 -1.9865
33594SOL     OW 4058  10.210  11.012   5.030 -0.2567 -0.2145 -0.1643
33594SOL    HW1 4059  10.206  11.002   4.935 -0.4568 -2.3533  0.0135
33594SOL    HW2 4060  10.131  11.062   5.052 -0.3645  0.0432 -1.0936
33595SOL     OW 4061  10.737   0.893   3.513 -0.2889  0.0307  0.0117
33595SOL    HW1 4062  10.787   0.929   3.440 -0.8446  0.9965  0.0828
33595SOL    HW2 4063  10.764   0.946   3.588 -0.0791 -0.6359  0.4083
33596SOL     OW 4064   1.314   4.411   9.127 -0.0381  0.5014  0.4624
33596SOL    HW1 4065   1.248   4.459   9.177 -1.4187 -0.1750 -0.6590
33596SOL    HW2 4066   1.295   4.319   9.142  1.6501  0.2454  1.3584
33597SOL     OW 4067   3.940   0.627   5.706  0.3691 -0.5199  0.0284
33597SOL    HW1 4068   3.850   0.600   5.726  0.5362 -1.9900 -1.0610
33597SOL    HW2 4069   3.932   0.721   5.687 -0.6779 -0.3089  1.3346
33598SOL     OW 4070   3.584   8.439   9.593  0.4055 -0.3258  0.2349
33598SOL    HW1 4071   3.619   8.457   9.506  0.3213 -0.3600  0.1950
33598SOL    HW2 4072   3.652   8.472   9.652  0.7623 -0.8990  0.1567
33599SOL     OW 4073   5.609   0.219   6.611  0.2896 -0.2510  0.1389
33599SOL    HW1 4074   5.526   0.213   6.659  0.2658  0.0813  0.1438
33599SOL    HW2 4075   5.675   0.233   6.679 -0.0271  2.6964 -0.0531
33600SOL     OW 4076   2.175   4.427   0.312 -0.3910 -0.3492 -0.0982
33600SOL    HW1 4077   2.157   4.406   0.403 -1.0979  0.1889 -0.1054
33600SOL    HW2 4078   2.271   4.423   0.305 -0.4236 -2.1940  0.2040
33601SOL     OW 4079   9.178   4.264   9.177 -0.4114  0.0705  0.1266
33601SOL    HW1 4080   9.174   4.178   9.218  0.9995 -1.2939 -2.3114
33601SOL    HW2 4081   9.272   4.282   9.167 -0.6868  1.6273  0.0709
33602SOL     OW 4082   0.094   3.917   5.555  0.2274 -0.6094  0.0073
33602SOL    HW1 4083   0.155   3.864   5.504  0.7511 -1.2242  1.2302
33602SOL    HW2 4084   0.141   3.934   5.637  0.9705  3.4814 -1.0377
33603SOL     OW 4085   6.749   3.296   4.798  0.1386 -0.1539  0.3744
33603SOL    HW1 4086   6.714   3.230   4.739 -2.1021  1.6928 -0.5299
33603SOL    HW2 4087   6.788   3.362   4.739  1.2175 -0.0348  1.1808
33604SOL     OW 4088  11.141   3.084   4.359 -0.0831 -0.1560  0.2862
33604SOL    HW1 4089  11.201   3.135   4.304  1.1971 -0.1379  1.6250
33604SOL    HW2 4090  11.172   2.994   4.350 -0.2859 -0.2404  0.4452
33605SOL     OW 4091   9.814   3.008   5.811  0.0878  0.5584 -0.2613
33605SOL    HW1 4092   9.733   3.015   5.761  1.1848 -0.8640 -2.4169
33605SOL    HW2 4093   9.787   3.012   5.902 -2.0097  3.6438 -0.8652
33606SOL     OW 4094  10.653   4.535   3.284  0.1341 -0.3203  0.2424
33606SOL    HW1 4095  10.610   4.560   3.365 -1.2496 -0.6795 -0.3595
33606SOL    HW2 4096  10.725   4.479   3.311  0.8377  1.0339  1.3336
33607SOL     OW 4097   8.650   6.428   4.867  0.2280  0.4183 -0.0536
33607SOL    HW1 4098   8.693   6.456   4.786  2.3999 -0.7919  0.5965
33607SOL    HW2 4099   8.571   6.383   4.838 -0.1826  1.8961 -1.3673
33608SOL     OW 4100   9.773   1.626   6.571  0.2843  0.5183 -0.4110
33608SOL    HW1 4101   9.735   1.574   6.641  1.4006 -0.3724 -0.4321
33608SOL    HW2 4102   9.802   1.707   6.614 -0.1531  0.5062 -0.0896
33609SOL     OW 4103   0.405   4.301   4.202 -0.3868 -0.3236 -0.4687
33609SOL    HW1 4104   0.426   4.290   4.295  0.6259  0.3210 -0.5943
33609SOL    HW2 4105   0.453   4.381   4.177 -1.4933  0.1000 -1.2932
33610SOL     OW 4106   3.255   8.365   9.979  0.4874 -0.3621  0.7362
33610SOL    HW1 4107   3.160   8.369   9.969  0.5134  0.7229  0.8270
33610SOL    HW2 4108   3.288   8.358   9.890  0.3203 -0.9845  0.7174
33611SOL     OW 4109  10.783  11.059  10.201 -0.0516 -0.1197  0.3843
33611SOL    HW1 4110  10.836  11.117  10.146  1.7202 -0.0905  1.9960
33611SOL    HW2 4111  10.731  11.118  10.255 -1.3991 -0.1421 -0.8405
33612SOL     OW 4112   5.249   6.347   2.226 -0.0255 -0.1069 -0.3322
33612SOL    HW1 4113   5.157   6.320   2.229 -1.3036  3.6661  0.1900
33612SOL    HW2 4114   5.273   6.361   2.318  1.1079 -1.0329 -0.4656
33613SOL     OW 4115   6.435   4.178  10.519  0.3829  0.2907 -0.1819
33613SOL    HW1 4116   6.408   4.188  10.428  1.3585 -0.9976 -0.6547
33613SOL    HW2 4117   6.530   4.163  10.515  0.5537  0.8354  1.1009
33614SOL     OW 4118   2.364   5.946   8.920 -0.2275 -0.8302  0.1999
33614SOL    HW1 4119   2.318   6.002   8.982 -1.3903 -3.0314  1.4953
33614SOL    HW2 4120   2.382   5.866   8.970  1.1552 -1.6867 -1.5773
33615SOL     OW 4121  11.375  10.821   2.411  0.1974  0.0034  0.2539
33615SOL    HW1 4122  11.387  10.779   2.496 -1.1456  0.0271  0.4743
33615SOL    HW2 4123  11.455  10.801   2.362  0.6841 -0.5857  1.2756
33616SOL     OW 4124   1.329   0.310   5.020  0.1142  0.7307 -0.1138
33616SOL    HW1 4125   1.361   0.221   5.033 -1.2717  0.2114 -0.0366
33616SOL    HW2 4126   1.406   0.361   4.996  1.3140 -0.0248  1.9389
33617SOL     OW 4127   3.600   5.014  11.059 -0.0202  0.3257 -0.3139
33617SOL    HW1 4128   3.690   4.983  11.046 -0.0199  0.0996  0.1947
33617SOL    HW2 4129   3.587   5.010  11.153  0.6335  3.7505  0.0170
33618SOL     OW 4130   4.319   5.674   7.329  0.0747  0.0240  0.3141
33618SOL    HW1 4131   4.327   5.611   7.400 -0.7299  0.5102  0.8482
33618SOL    HW2 4132   4.409   5.693   7.303  0.3975  0.0985  1.4434
33619SOL     OW 4133   8.195   8.599   0.948 -0.1443 -0.1759 -0.2034
33619SOL    HW1 4134   8.247   8.675   0.973 -0.3582 -0.0631 -0.1001
33619SOL    HW2 4135   8.217   8.531   1.012 -0.0910 -0.1422 -0.1870
33620SOL     OW 4136   0.261   8.987  10.634 -0.0186  0.0886 -0.2423
33620SOL    HW1 4137   0.314   8.930  10.688 -0.2886  1.2686  1.3264
33620SOL    HW2 4138   0.293   8.972  10.545 -0.1521 -2.5463  0.0664
33621SOL     OW 4139   4.611   1.065   6.924 -0.3658 -0.4116  0.1137
33621SOL    HW1 4140   4.577   1.148   6.958 -0.9469 -0.4235 -0.4237
33621SOL    HW2 4141   4.693   1.051   6.973 -0.0117  0.7110 -0.1182
33622SOL     OW 4142   1.223   8.687   7.867 -0.0655 -0.1301  0.3304
33622SOL    HW1 4143   1.226   8.769   7.917  3.7018 -0.4286  0.8596
33622SOL    HW2 4144   1.311   8.650   7.876 -0.8418 -2.9304 -2.1230
33623SOL     OW 4145   6.143   2.676   4.955 -0.0355 -0.4301 -0.1101
33623SOL    HW1 4146   6.147   2.629   5.038 -1.4178 -0.4601 -0.0426
33623SOL    HW2 4147   6.094   2.756   4.975 -0.7413 -0.6334 -0.9823
33624SOL     OW 4148   5.053   6.854   9.325 -0.3435  0.3269 -0.3784
33624SOL    HW1 4149   5.132   6.800   9.317  0.2918  1.0819  0.4376
33624SOL    HW2 4150   5.008   6.844   9.242  1.2336  0.8077 -1.3341
33625SOL     OW 4151   7.462   0.583   7.801  0.5269 -0.5675 -0.4047
33625SOL    HW1 4152   7.542   0.545   7.764  0.4935 -1.4321  0.3849
33625SOL    HW2 4153   7.492   0.660   7.849  1.0977 -1.5883  0.9664
33626SOL     OW 4154   6.666   3.936   9.309  0.2281  0.0280  0.0690
33626SOL    HW1 4155   6.728   3.866   9.330  2.8160  2.2897  0.5042
33626SOL    HW2 4156   6.580   3.897   9.324  1.5925 -1.9881  4.0046
33627SOL     OW 4157   5.350  10.765   5.153 -0.1557  0.5937 -0.0539
33627SOL    HW1 4158   5.357  10.676   5.119 -0.3963 -0.0472  1.4867
33627SOL    HW2 4159   5.441  10.796   5.155  0.1233 -0.2063  0.8333
33628SOL     OW 4160   2.046   6.814   6.956 -0.1961  0.1933  0.4897
33628SOL    HW1 4161   2.075   6.736   7.004 -0.6452 -0.4066 -0.1837
33628SOL    HW2 4162   1.973   6.848   7.008 -0.6628 -0.4367  0.2641
33629SOL     OW 4163   7.372   5.722   5.705  0.6775 -0.3394 -0.2499
33629SOL    HW1 4164   7.320   5.704   5.783  1.1858  0.0759  0.1928
33629SOL    HW2 4165   7.310   5.762   5.644 -0.1142 -2.1512 -0.6944
33630SOL     OW 4166   8.807   8.079   8.327 -0.1758  0.1297 -0.4534
33630SOL    HW1 4167   8.877   8.094   8.390 -0.9600  2.5793 -0.0546
33630SOL    HW2 4168   8.844   8.018   8.263  1.5781 -0.2341  0.8386
33631SOL     OW 4169   1.858  11.273   8.513 -0.4603  0.4333  0.5089
33631SOL    HW1 4170   1.913  11.196   8.502 -0.7568  0.5180 -2.4548
33631SOL    HW2 4171   1.768  11.239   8.511 -0.5902  0.7962 -0.7015
33632SOL     OW 4172   9.003   9.194   6.827  0.5453 -0.6478 -0.3569
33632SOL    HW1 4173   9.080   9.227   6.780  0.5080 -0.2895 -0.1737
33632SOL    HW2 4174   8.943   9.166   6.758  0.6659 -0.5209 -0.5146
33633SOL     OW 4175   4.761   6.351   0.143 -0.3628 -0.2776  0.1315
33633SOL    HW1 4176   4.811   6.280   0.183 -0.4905 -0.7872 -0.5969
33633SOL    HW2 4177   4.670   6.331   0.164 -0.3642 -0.0667  0.3313
33634SOL     OW 4178   6.760   8.486   5.368  0.5795 -0.5524  0.0143
33634SOL    HW1 4179   6.790   8.541   5.440  1.1159  0.6988 -1.1072
33634SOL    HW2 4180   6.666   8.501   5.364  0.6473 -0.1083  0.0518
33635SOL     OW 4181   2.355   7.174   0.176 -0.2029 -0.3945 -0.1900
33635SOL    HW1 4182   2.433   7.227   0.196  0.1765 -1.0661  0.1503
33635SOL    HW2 4183   2.311   7.222   0.106 -0.9973  1.4784  1.4939
33636SOL     OW 4184  10.403   8.386   4.533 -0.0923  0.2418 -0.0969
33636SOL    HW1 4185  10.386   8.320   4.601 -1.1109 -0.0469 -0.6058
33636SOL    HW2 4186  10.481   8.433   4.564  0.7346 -1.2758  0.2080
33637SOL     OW 4187   3.592   5.377   4.435  0.0085  0.6282  0.2403
33637SOL    HW1 4188   3.512   5.361   4.386  0.1056 -0.3022  0.3561
33637SOL    HW2 4189   3.660   5.384   4.369  0.1580 -0.7334  0.2116
33638SOL     OW 4190   3.106   7.730   8.038  0.0883  0.7405 -0.2245
33638SOL    HW1 4191   3.118   7.806   8.095  1.5731 -0.1347  0.6763
33638SOL    HW2 4192   3.036   7.680   8.080 -0.0506  0.9933 -0.1529
33639SOL     OW 4193   8.896   1.211   6.540 -0.3155 -0.9394 -0.7469
33639SOL    HW1 4194   8.888   1.290   6.594  1.0050 -1.1605 -0.1776
33639SOL    HW2 4195   8.821   1.213   6.482 -0.4802  0.5637 -0.5065
33640SOL     OW 4196   7.847   1.115   9.548 -0.5102  0.0756 -0.4101
33640SOL    HW1 4197   7.930   1.145   9.585 -0.5111  0.4894 -0.7349
33640SOL    HW2 4198   7.857   1.126   9.454 -0.4113 -1.2179 -0.5689
33641SOL     OW 4199   3.544  10.314   8.763 -0.2424  0.5174  0.2220
33641SOL    HW1 4200   3.465  10.363   8.788 -0.3897 -0.5896  2.1246
33641SOL    HW2 4201   3.548  10.241   8.825  0.5976 -1.2597 -1.7764
33642SOL     OW 4202   2.271   6.878   5.097 -0.7401 -0.1621 -0.5805
33642SOL    HW1 4203   2.301   6.961   5.134 -2.0539  0.0378  0.0685
33642SOL    HW2 4204   2.336   6.858   5.030  0.3550  0.6943  0.1812
33643SOL     OW 4205   6.721  10.946   5.956  0.1991 -0.2666 -0.0402
33643SOL    HW1 4206   6.803  10.968   5.911 -0.0295  0.6196 -0.0461
33643SOL    HW2 4207   6.719  10.850   5.957  0.7680 -0.3026 -0.8973
33644SOL     OW 4208   8.696   2.878   7.753  0.0950 -0.4796  0.6358
33644SOL    HW1 4209   8.715   2.897   7.661 -1.7562  0.4544  0.3939
33644SOL    HW2 4210   8.667   2.787   7.753 -1.2214 -0.0930  0.0179
33645SOL     OW 4211   6.271   7.163   3.541 -0.0101  0.5845  0.6635
33645SOL    HW1 4212   6.210   7.090   3.535  0.0534  0.2883  2.8500
33645SOL    HW2 4213   6.330   7.152   3.466 -1.2060 -0.4423 -0.1557
33646SOL     OW 4214   6.756   8.509  10.619 -0.1356  0.3303  0.6813
33646SOL    HW1 4215   6.760   8.414  10.610 -1.9905  0.3627 -1.7558
33646SOL    HW2 4216   6.698   8.524  10.693 -0.9342 -0.5023  0.2460
33647SOL     OW 4217   2.175   8.248   7.619  0.1698 -0.1894 -0.5829
33647SOL    HW1 4218   2.231   8.257   7.696 -0.3525  0.3470 -0.2620
33647SOL    HW2 4219   2.220   8.182   7.565 -0.4293 -2.0431  1.0503
33648SOL     OW 4220   3.084   7.100   7.013 -0.2054 -0.3815 -0.1712
33648SOL    HW1 4221   3.161   7.099   7.070 -0.3706 -0.1232  0.0613
33648SOL    HW2 4222   3.095   7.025   6.955 -0.0660 -0.6818  0.2427
33649SOL     OW 4223   6.853   9.264   1.837 -0.5820 -0.2976 -0.2352
33649SOL    HW1 4224   6.777   9.320   1.820 -0.1220  0.1480 -0.8531
33649SOL    HW2 4225   6.822   9.175   1.817 -1.1527 -0.2132  0.2303
33650SOL     OW 4226   2.425  10.797   4.033  0.3191  0.4881 -0.2302
33650SOL    HW1 4227   2.500  10.796   4.093  1.0081  2.5658 -0.9562
33650SOL    HW2 4228   2.432  10.715   3.985  1.1527 -0.1135  0.8724
33651SOL     OW 4229   4.641   9.697   8.430  0.6142 -0.1425 -0.7791
33651SOL    HW1 4230   4.590   9.661   8.502  0.7473  0.8444 -0.1711
33651SOL    HW2 4231   4.617   9.790   8.429  2.4976  0.3778 -0.3892
33652SOL     OW 4232   0.784   4.337   6.523  0.2019 -0.2112 -0.3204
33652SOL    HW1 4233   0.742   4.422   6.519 -0.6647 -0.6198 -0.1237
33652SOL    HW2 4234   0.722   4.281   6.570  1.0465 -0.7832  0.1587
33653SOL     OW 4235   3.599   5.096   5.744 -0.3415  0.1203  0.4074
33653SOL    HW1 4236   3.543   5.163   5.784 -1.2560 -0.6730  0.4909
33653SOL    HW2 4237   3.650   5.061   5.817  1.0221  1.5273  0.1741
33654SOL     OW 4238   1.338   3.054   2.180  0.0941  0.2163  0.0083
33654SOL    HW1 4239   1.384   2.981   2.139 -0.5500  0.2728 -0.8409
33654SOL    HW2 4240   1.393   3.130   2.164 -0.5894  0.4063 -1.6115
33655SOL     OW 4241   8.514   7.797   6.283  0.0375 -0.4920  0.0518
33655SOL    HW1 4242   8.515   7.753   6.198 -1.4895  0.3402 -0.4371
33655SOL    HW2 4243   8.565   7.877   6.269  0.7279 -0.8876  0.2513
33656SOL     OW 4244   2.520   5.212   8.360  0.1388  0.0749  0.3873
33656SOL    HW1 4245   2.508   5.165   8.443  0.7390  0.1739  0.5308
33656SOL    HW2 4246   2.437   5.258   8.347 -0.4524 -1.0000  0.2528
33657SOL     OW 4247   8.468   6.928   9.050 -0.1827  0.0007 -0.4393
33657SOL    HW1 4248   8.465   6.898   8.959 -0.0209 -0.2329 -0.3706
33657SOL    HW2 4249   8.553   6.897   9.082  0.1140  0.7867 -0.4509
33658SOL     OW 4250   4.950   9.986   5.857 -0.4783  0.3588  0.1997
33658SOL    HW1 4251   4.952  10.071   5.813 -1.4767  0.0159 -0.5507
33658SOL    HW2 4252   4.923  10.005   5.946  3.9965  1.3846  1.6121
33659SOL     OW 4253   3.661   2.228   0.880 -0.5922  0.1782 -0.1219
33659SOL    HW1 4254   3.725   2.260   0.816 -0.6819 -0.0992 -0.3543
33659SOL    HW2 4255   3.576   2.244   0.839 -0.6141 -1.6965 -0.9148
33660SOL     OW 4256   8.712   0.224   4.430  0.2630  0.2130 -0.1357
33660SOL    HW1 4257   8.711   0.306   4.480  1.5780  0.6231 -0.7178
33660SOL    HW2 4258   8.719   0.155   4.496 -1.2387  0.5246  0.3842
33661SOL     OW 4259   1.638   6.418   2.735 -0.7069  0.0498  0.2389
33661SOL    HW1 4260   1.598   6.386   2.816  0.7244 -0.8973  0.6213
33661SOL    HW2 4261   1.727   6.383   2.738 -0.4521  0.4845 -1.4763
33662SOL     OW 4262   2.194   7.023   1.840 -0.4101  0.1775  0.4211
33662SOL    HW1 4263   2.190   7.112   1.875 -0.1480 -0.0506  1.0591
33662SOL    HW2 4264   2.267   6.983   1.887 -0.2805 -0.2560 -0.1455
33663SOL     OW 4265   3.499   2.057   7.729 -0.6227  0.1614  0.3242
33663SOL    HW1 4266   3.500   2.003   7.650 -1.0664 -0.6830  0.8691
33663SOL    HW2 4267   3.407   2.058   7.756 -0.2833 -0.8680  1.6577
33664SOL     OW 4268   4.606   6.419  10.617 -0.3381 -0.0561  0.3199
33664SOL    HW1 4269   4.543   6.414  10.689  1.8546  0.0365  2.3440
33664SOL    HW2 4270   4.652   6.501  10.630  2.3080 -1.5123  0.8096
33665SOL     OW 4271   3.541   7.064   7.232  0.0821 -0.2715 -0.3785
33665SOL    HW1 4272   3.600   7.139   7.233 -0.0861 -0.1469  0.4507
33665SOL    HW2 4273   3.565   7.016   7.152  0.0532  0.7619 -1.0276
33666SOL     OW 4274   3.266   6.666   9.371  0.2790  1.3703  0.7150
33666SOL    HW1 4275   3.250   6.650   9.464  0.4013 -0.3388  0.4758
33666SOL    HW2 4276   3.187   6.710   9.340 -0.3831  0.6456  1.3338
33667SOL     OW 4277   4.658   9.461   0.001 -0.4330 -0.1626  0.4258
33667SOL    HW1 4278   4.722   9.471  -0.069 -1.0017  0.3202 -0.0285
33667SOL    HW2 4279   4.580   9.424  -0.041 -0.7118 -0.0558  0.8368
33668SOL     OW 4280   0.025   3.374   3.330  0.3794  0.2941 -0.2768
33668SOL    HW1 4281   0.060   3.286   3.344  0.8851  0.4766 -0.4072
33668SOL    HW2 4282   0.084   3.431   3.378 -0.1210  0.5375  0.0563
33669SOL     OW 4283   8.283   2.549   3.088  0.1957  0.1529  0.3379
33669SOL    HW1 4284   8.348   2.479   3.096  0.3061  0.0813 -0.9522
33669SOL    HW2 4285   8.334   2.628   3.070  0.0343  0.4872  1.2590
33670SOL     OW 4286   4.389  10.745   7.799  0.7553 -0.0844  0.1528
33670SOL    HW1 4287   4.397  10.662   7.845  1.3584 -0.1504 -0.0593
33670SOL    HW2 4288   4.474  10.788   7.812 -0.1091  1.2772  1.7482
33671SOL     OW 4289   3.181   2.117   4.185 -0.2952  0.1472 -0.3453
33671SOL    HW1 4290   3.189   2.095   4.278 -2.3357 -0.4123 -0.2381
33671SOL    HW2 4291   3.268   2.146   4.159  0.4164 -0.0554  1.6427
33672SOL     OW 4292   2.091   1.281   7.682 -0.4396 -0.2586  0.0247
33672SOL    HW1 4293   2.146   1.337   7.736  0.8109  0.0562 -1.4968
33672SOL    HW2 4294   2.005   1.324   7.682 -0.4335 -0.1969  1.6016
33673SOL     OW 4295   8.668   7.784   0.694 -0.3262 -0.6728  0.2522
33673SOL    HW1 4296   8.625   7.868   0.681  0.3307 -0.6210 -2.0183
33673SOL    HW2 4297   8.649   7.734   0.614  0.5864 -2.1024  0.8800
33674SOL     OW 4298   8.006   6.111   7.712 -0.3115 -0.2231 -0.7746
33674SOL    HW1 4299   8.035   6.020   7.715  1.3735  0.2564 -1.2420
33674SOL    HW2 4300   7.970   6.128   7.799  0.5910 -0.9754 -0.2337
33675SOL     OW 4301   2.792   7.590   4.886 -0.0880 -0.5216 -0.5530
33675SOL    HW1 4302   2.878   7.548   4.895 -0.1098 -0.9534 -2.1317
33675SOL    HW2 4303   2.794   7.662   4.949  0.6461 -1.7457  0.8946
33676SOL     OW 4304   4.042   0.614   4.425 -0.3810 -0.2648 -0.3814
33676SOL    HW1 4305   3.962   0.565   4.407  0.1945 -1.8542  1.1474
33676SOL    HW2 4306   4.015   0.706   4.423 -1.7184 -0.6540 -2.2189
33677SOL     OW 4307   7.509   4.334   6.004  0.0482 -0.3459 -0.3526
33677SOL    HW1 4308   7.519   4.404   6.069 -0.8121 -2.2193  1.9800
33677SOL    HW2 4309   7.542   4.256   6.049 -1.8399 -1.9881 -1.6536
33678SOL     OW 4310   7.303   6.809   5.311 -0.0223 -0.7051  0.5204
33678SOL    HW1 4311   7.374   6.757   5.349  1.0319 -0.3400 -0.8471
33678SOL    HW2 4312   7.231   6.747   5.299  1.1052 -1.8106 -0.8284
33679SOL     OW 4313   3.973   2.484   9.120 -0.2185 -0.2307  0.3557
33679SOL    HW1 4314   3.936   2.396   9.115 -1.3356  0.1951  0.8019
33679SOL    HW2 4315   3.935   2.522   9.199 -0.9975  1.2012 -0.6617
33680SOL     OW 4316  11.134   6.175   5.014 -0.3971 -0.0973 -0.4170
33680SOL    HW1 4317  11.160   6.163   5.105 -1.7468 -1.5719 -0.1673
33680SOL    HW2 4318  11.211   6.212   4.971  0.6399 -0.4327  1.0849
33681SOL     OW 4319   4.393   4.856   8.965 -0.0306  0.2601  0.1907
33681SOL    HW1 4320   4.413   4.907   9.043  0.3803  0.0522  0.2212
33681SOL    HW2 4321   4.306   4.885   8.939 -0.2098  0.2531  0.7850
33682SOL     OW 4322   4.974   4.051   9.733 -0.5189 -0.3291  0.0923
33682SOL    HW1 4323   5.046   3.999   9.697 -1.5927 -1.1247 -0.9863
33682SOL    HW2 4324   4.945   4.002   9.810  0.6270  0.4601  1.0807
33683SOL     OW 4325   2.824   3.377   4.053  0.1473 -0.4442 -0.4493
33683SOL    HW1 4326   2.842   3.344   4.141 -0.1767  1.1488  0.2509
33683SOL    HW2 4327   2.909   3.407   4.021  0.0230  0.3216 -0.0806
33684SOL     OW 4328   2.336   8.955   1.159  0.6022 -0.2790 -0.3548
33684SOL    HW1 4329   2.321   8.871   1.201 -2.3339  0.8430  1.1508
33684SOL    HW2 4330   2.266   8.961   1.093  0.3150  1.2042  0.0388
33685SOL     OW 4331   4.854   5.519  11.036 -0.5701  0.1730  0.2379
33685SOL    HW1 4332   4.895   5.497  11.119 -1.1102  1.6559  0.9442
33685SOL    HW2 4333   4.770   5.474  11.037 -0.4334 -0.0809  0.3332
33686SOL     OW 4334   7.948  10.756   8.890  0.3708  0.1357 -0.3017
33686SOL    HW1 4335   7.885  10.821   8.922 -0.3986 -1.1180  0.7929
33686SOL    HW2 4336   8.032  10.786   8.924  0.2784  1.3508 -1.0605
33687SOL     OW 4337   7.751   1.107  10.896  0.3933  0.3599 -0.0346
33687SOL    HW1 4338   7.779   1.194  10.922  1.0276  0.5003 -1.1164
33687SOL    HW2 4339   7.824   1.050  10.920 -0.1644  0.0594  0.9905
33688SOL     OW 4340   4.806   5.385   6.357  0.0234  0.6882  0.0945
33688SOL    HW1 4341   4.742   5.322   6.390 -0.4322  0.4903 -1.1181
33688SOL    HW2 4342   4.758   5.468   6.354  0.0412  0.6894 -0.1387
33689SOL     OW 4343   1.224   9.656   8.897 -0.3737  0.0542 -0.1136
33689SOL    HW1 4344   1.209   9.665   8.803  1.8617 -0.0374 -0.5547
33689SOL    HW2 4345   1.175   9.727   8.937 -1.6388 -0.1184 -1.3101
33690SOL     OW 4346   0.853   2.959   2.844  0.0139 -0.6184 -0.2308
33690SOL    HW1 4347   0.929   2.928   2.794  0.9184 -0.1057  0.7805
33690SOL    HW2 4348   0.835   3.046   2.809  0.6209 -0.2766  0.2778
33691SOL     OW 4349   2.587   6.725   8.027 -0.0280  0.3697 -0.1830
33691SOL    HW1 4350   2.604   6.635   8.054 -2.2080 -0.1800 -0.4504
33691SOL    HW2 4351   2.666   6.752   7.981  0.1165 -1.9480 -1.4323
33692SOL     OW 4352  10.750   4.231   6.668 -0.3172  0.1892  0.0500
33692SOL    HW1 4353  10.754   4.158   6.607 -1.4796  1.1537 -1.2548
33692SOL    HW2 4354  10.832   4.226   6.717 -0.4125 -2.0150  0.0772
33693SOL     OW 4355  10.693   6.599   1.560 -0.3073 -0.3851  0.2252
33693SOL    HW1 4356  10.607   6.618   1.598 -0.4518 -0.1418 -0.2088
33693SOL    HW2 4357  10.695   6.652   1.480  0.0877 -0.6963  0.0276
33694SOL     OW 4358   4.978   0.930   4.243  0.1756 -0.9434 -0.3509
33694SOL    HW1 4359   5.046   0.904   4.306 -0.1137  0.3424  0.5549
33694SOL    HW2 4360   4.898   0.889   4.276 -0.3320  1.1012  1.2238
33695SOL     OW 4361   8.183   9.710  10.239  0.2900  0.4351  0.5133
33695SOL    HW1 4362   8.138   9.628  10.219  1.1121  0.1629 -0.3207
33695SOL    HW2 4363   8.276   9.687  10.237  0.6023  1.6739 -1.1850
33696SOL     OW 4364   1.521   9.242   8.061 -0.2286 -0.2128 -0.2450
33696SOL    HW1 4365   1.554   9.223   8.149  0.8796  0.1614 -0.5596
33696SOL    HW2 4366   1.458   9.314   8.074  1.0911  0.9253  0.0819
33697SOL     OW 4367   5.647   6.143   6.310 -0.4888  0.1526  0.0547
33697SOL    HW1 4368   5.656   6.159   6.217  1.1134  3.5893  0.6633
33697SOL    HW2 4369   5.570   6.193   6.336 -0.5294 -0.2198  0.6890
33698SOL     OW 4370  11.276   7.214   3.430  0.6318 -0.1792  0.1885
33698SOL    HW1 4371  11.280   7.299   3.386 -0.9181 -0.0277  0.2795
33698SOL    HW2 4372  11.366   7.197   3.459  2.0394 -0.7509 -3.8467
33699SOL     OW 4373   2.550   3.059   7.088  0.2060  0.2088  0.7179
33699SOL    HW1 4374   2.548   3.015   7.173  0.9349 -1.3474 -0.0134
33699SOL    HW2 4375   2.471   3.113   7.087 -0.6599 -0.9555  1.7701
33700SOL     OW 4376   3.194   8.801   0.867 -0.4537  0.6724 -0.3812
33700SOL    HW1 4377   3.115   8.747   0.871  0.6595 -1.0176 -0.4554
33700SOL    HW2 4378   3.240   8.783   0.949  1.2565 -0.6500 -1.5575
33701SOL     OW 4379   5.365  10.235   4.836 -0.6593 -0.5396 -0.6533
33701SOL    HW1 4380   5.415  10.210   4.914 -1.4336 -4.3306 -1.1729
33701SOL    HW2 4381   5.431  10.249   4.769 -0.0892  0.5708  0.1107
33702SOL     OW 4382   1.910   4.213   6.628 -0.2997  0.2573 -0.1896
33702SOL    HW1 4383   1.823   4.175   6.643 -0.0131 -0.3763 -0.1342
33702SOL    HW2 4384   1.904   4.300   6.669 -1.3268  0.7520 -1.3210
33703SOL     OW 4385   8.406   9.364   4.828 -0.0357  0.1691  0.1994
33703SOL    HW1 4386   8.417   9.446   4.874 -0.8637 -0.1059  0.9112
33703SOL    HW2 4387   8.461   9.302   4.876 -0.4952 -0.0005  0.5116
33704SOL     OW 4388  10.227   1.227   5.495 -0.4578 -0.1310 -0.0310
33704SOL    HW1 4389  10.241   1.142   5.535 -0.1551 -0.3868 -0.6524
33704SOL    HW2 4390  10.288   1.286   5.540 -1.6935  0.0971  1.4000
33705SOL     OW 4391   8.055   6.407   4.612  0.0555 -0.2166 -0.2189
33705SOL    HW1 4392   8.089   6.488   4.650  0.8938  0.5441 -2.4709
33705SOL    HW2 4393   8.129   6.368   4.567 -0.9360 -0.9638 -1.2607
33706SOL     OW 4394   6.377   5.552   9.803 -0.4561 -0.2020 -0.3555
33706SOL    HW1 4395   6.361   5.478   9.744  0.2911  1.4016 -2.6921
33706SOL    HW2 4396   6.338   5.627   9.759  1.3388  1.3140  0.5193
33707SOL     OW 4397   5.928  10.013   7.595  0.6230 -0.1402 -0.1829
33707SOL    HW1 4398   5.878  10.080   7.547  0.3700 -0.9627 -1.1048
33707SOL    HW2 4399   5.872   9.991   7.670  0.4506  0.2681 -0.1865
33708SOL     OW 4400   8.749  10.627   3.451  0.2689 -0.3373 -0.1082
33708SOL    HW1 4401   8.843  10.632   3.433  0.0177 -0.1476 -1.4773
33708SOL    HW2 4402   8.708  10.681   3.383 -0.7672  0.5956  1.1962
33709SOL     OW 4403  11.151   3.661  11.206  0.6969 -0.1407  0.2801
33709SOL    HW1 4404  11.189   3.624  11.285  0.0459 -0.1962  0.5704
33709SOL    HW2 4405  11.158   3.591  11.141  2.5705  0.3846 -0.1625
33710SOL     OW 4406   9.254   2.002   2.403  0.6087 -0.6459  0.6500
33710SOL    HW1 4407   9.276   2.037   2.489  0.7388 -2.1466  1.2474
33710SOL    HW2 4408   9.212   1.918   2.420 -0.1034 -0.6087 -0.7251
33711SOL     OW 4409   8.969   6.565   2.055 -0.1143  0.6256 -0.3242
33711SOL    HW1 4410   8.949   6.655   2.084  0.9790  0.9136 -0.4353
33711SOL    HW2 4411   9.052   6.544   2.097  0.6571  0.4130 -1.8727
33712SOL     OW 4412   8.153   6.326   8.769  0.3956 -0.1810 -0.6590
33712SOL    HW1 4413   8.151   6.418   8.796  1.2845  0.3261 -2.2183
33712SOL    HW2 4414   8.222   6.287   8.823  1.2178  0.4923 -1.1988
33713SOL     OW 4415  11.287   8.482   0.361 -0.2820 -0.1298  0.1752
33713SOL    HW1 4416  11.234   8.508   0.286 -0.8810 -1.6210  0.0591
33713SOL    HW2 4417  11.247   8.402   0.393  0.8766 -0.3498  1.1652
33714SOL     OW 4418   9.164   7.828   3.466  0.4166  0.2242  0.4182
33714SOL    HW1 4419   9.147   7.811   3.374  1.3786 -0.6511  0.3792
33714SOL    HW2 4420   9.103   7.772   3.513 -0.1635  0.7668  0.3272
33715SOL     OW 4421   4.337   1.907   1.810  0.3049  0.3912  0.3853
33715SOL    HW1 4422   4.299   1.989   1.840  1.6031  1.5059 -0.8835
33715SOL    HW2 4423   4.417   1.897   1.862  0.5574  0.3332 -0.0133
33716SOL     OW 4424   8.202   5.221   2.636 -0.0405  0.0437  0.0969
33716SOL    HW1 4425   8.186   5.132   2.668 -1.4541 -0.5134 -1.9499
33716SOL    HW2 4426   8.184   5.277   2.712 -0.6025 -1.3258  1.0121
33717SOL     OW 4427   8.592   2.944   4.560  0.0297  0.4633 -0.0744
33717SOL    HW1 4428   8.569   2.860   4.601 -0.1575 -0.0352 -1.1461
33717SOL    HW2 4429   8.569   3.010   4.625  0.1584 -0.3161  0.7853
33718SOL     OW 4430   9.405  11.188   8.897 -0.2311  0.0458 -1.0708
33718SOL    HW1 4431   9.491  11.179   8.856 -0.1017  0.3892 -0.8782
33718SOL    HW2 4432   9.364  11.102   8.884  1.0629 -0.9576  0.8905
33719SOL     OW 4433  11.265   4.651   0.329  0.3642 -0.9299 -0.0515
33719SOL    HW1 4434  11.235   4.725   0.381  0.1097 -0.2555 -1.1273
33719SOL    HW2 4435  11.186   4.599   0.313  0.7554 -2.2234  1.8565
33720SOL     OW 4436   1.201   4.148   0.323 -0.4810  0.4007  0.2555
33720SOL    HW1 4437   1.111   4.176   0.311 -1.0610 -1.4613 -0.1832
33720SOL    HW2 4438   1.210   4.135   0.418 -1.6805 -2.2561  0.0937
33721SOL     OW 4439   3.028   7.753   7.396  0.0871 -0.3904  0.1272
33721SOL    HW1 4440   2.938   7.783   7.413  0.7738  0.8729  1.7687
33721SOL    HW2 4441   3.074   7.831   7.366  0.5563 -1.1426 -1.2063
33722SOL     OW 4442   6.679   1.743   5.568 -0.6682  0.1401  0.4556
33722SOL    HW1 4443   6.587   1.767   5.582 -1.3317 -1.6818 -0.4202
33722SOL    HW2 4444   6.706   1.704   5.651 -0.5289  1.1010  0.8699
33723SOL     OW 4445   5.682   8.679   1.740  0.3138 -0.0726  0.2397
33723SOL    HW1 4446   5.771   8.712   1.748  0.2267 -0.0977  1.4460
33723SOL    HW2 4447   5.649   8.720   1.659  0.8982  1.1522  0.5963
33724SOL     OW 4448   5.139   7.443   4.775  0.1287  0.5694 -0.2491
33724SOL    HW1 4449   5.066   7.386   4.750  1.2096 -0.3651 -1.4578
33724SOL    HW2 4450   5.217   7.389   4.760  1.0491  1.0920  2.2293
33725SOL     OW 4451   3.478   3.848   0.318 -0.0059  0.2825  0.0025
33725SOL    HW1 4452   3.502   3.939   0.339 -0.3764  0.4651 -0.3365
33725SOL    HW2 4453   3.384   3.853   0.298  0.2050  0.0256 -1.0977
33726SOL     OW 4454   5.902   7.775   7.454  0.8592 -0.2416  0.0411
33726SOL    HW1 4455   5.900   7.817   7.540 -1.9205 -0.0465 -0.0377
33726SOL    HW2 4456   5.906   7.848   7.392  1.6502 -0.3517 -0.0578
33727SOL     OW 4457   0.956   1.186   8.348 -0.5383  0.3202 -0.2022
33727SOL    HW1 4458   0.863   1.172   8.366 -0.3421 -1.8838 -0.5815
33727SOL    HW2 4459   0.990   1.099   8.328  1.3357  1.2616 -1.4212
33728SOL     OW 4460  10.228   6.957   5.483  0.1921  0.7248  0.4965
33728SOL    HW1 4461  10.322   6.944   5.497  0.0978  1.3222  1.9857
33728SOL    HW2 4462  10.223   7.016   5.408  0.9668  0.1124 -0.0536
33729SOL     OW 4463   0.021   2.654   4.223  0.1607  0.4328 -0.2840
33729SOL    HW1 4464   0.080   2.636   4.297  0.8414 -1.8194 -1.3075
33729SOL    HW2 4465   0.080   2.673   4.150 -0.2478 -2.4925 -1.4884
33730SOL     OW 4466   4.866   9.091   9.479  0.1490  0.6750  0.1236
33730SOL    HW1 4467   4.840   9.107   9.570 -0.0629  0.2941  0.1350
33730SOL    HW2 4468   4.961   9.080   9.482 -0.0358 -1.0870  0.5834
33731SOL     OW 4469   8.182   0.340   8.601 -1.1643 -0.0252 -0.3603
33731SOL    HW1 4470   8.171   0.291   8.683 -1.5451  0.1215 -0.3221
33731SOL    HW2 4471   8.277   0.350   8.591 -1.1445  0.7335  0.5179
33732SOL     OW 4472   5.496   8.357   5.937 -0.0637 -0.7875 -0.4843
33732SOL    HW1 4473   5.489   8.331   6.029  0.2485  0.1489 -0.1860
33732SOL    HW2 4474   5.421   8.414   5.922  0.3039 -0.3200 -0.5889
33733SOL     OW 4475  10.390   0.682   9.452  0.1616  0.1313  0.5680
33733SOL    HW1 4476  10.370   0.643   9.367  0.9440  0.3073  0.2871
33733SOL    HW2 4477  10.441   0.615   9.498  1.8796  0.9322 -0.0850
33734SOL     OW 4478   8.877   4.982   8.974  0.3396  0.7115  0.6592
33734SOL    HW1 4479   8.784   4.964   8.958  0.2971  0.0399  1.5606
33734SOL    HW2 4480   8.880   5.012   9.065  0.9727  1.0457  0.5340
33735SOL     OW 4481   6.509  10.499   5.379 -0.2196  0.0657 -0.0983
33735SOL    HW1 4482   6.474  10.582   5.349 -1.2693 -0.3488 -0.0644
33735SOL    HW2 4483   6.433  10.441   5.383  0.6473 -1.2041 -1.1477
33736SOL     OW 4484   6.845   6.831   1.057 -0.5936  0.0650 -0.2061
33736SOL    HW1 4485   6.909   6.802   0.991 -0.9634 -0.4578 -0.3404
33736SOL    HW2 4486   6.897   6.877   1.122 -0.3198  1.3630 -1.2954
33737SOL     OW 4487   3.402   1.059   0.434  0.0164  0.0945 -0.4653
33737SOL    HW1 4488   3.396   1.106   0.517  0.4372  0.5859 -0.7033
33737SOL    HW2 4489   3.490   1.023   0.433  0.2129  0.5685 -0.9397
33738SOL     OW 4490   3.482   6.687   9.832  0.4211  0.6934 -0.5720
33738SOL    HW1 4491   3.467   6.592   9.830 -1.3980  0.9294 -2.6322
33738SOL    HW2 4492   3.542   6.703   9.759  1.2523  1.0638  0.1881
33739SOL     OW 4493   8.938  10.845   1.138 -0.1554 -0.1064 -0.1027
33739SOL    HW1 4494   8.947  10.770   1.079  0.5245  0.1660 -0.3470
33739SOL    HW2 4495   8.848  10.876   1.123  0.7256  1.4294 -2.8002
33740SOL     OW 4496   9.816   2.189   8.664  0.8849 -0.2022 -0.1378
33740SOL    HW1 4497   9.721   2.197   8.652  0.5358 -1.0735  1.6079
33740SOL    HW2 4498   9.853   2.213   8.580 -0.8874  0.2211 -0.8506
33741SOL     OW 4499   7.464   1.427  10.845  0.0308 -0.2625 -0.1979
33741SOL    HW1 4500   7.434   1.394  10.930 -0.7544 -2.3306 -1.1964
33741SOL    HW2 4501   7.520   1.501  10.867  0.7899 -1.4172  2.2147
33742SOL     OW 4502   8.524   0.766   0.724  0.1362  0.5333 -0.6012
33742SOL    HW1 4503   8.544   0.763   0.631  1.7352 -0.5055 -0.2665
33742SOL    HW2 4504   8.606   0.742   0.767 -0.8677 -0.1851  1.0283
33743SOL     OW 4505   7.373   5.901   1.877  0.1866 -0.6851 -0.4201
33743SOL    HW1 4506   7.284   5.917   1.908  0.1220 -1.5190 -0.1561
33743SOL    HW2 4507   7.368   5.913   1.782  0.6408  3.0881 -0.0998
33744SOL     OW 4508   2.151   9.760   2.551 -0.5494  1.0649 -0.1819
33744SOL    HW1 4509   2.131   9.816   2.626 -0.6703  1.5061 -0.5459
33744SOL    HW2 4510   2.068   9.751   2.504 -0.2306  1.7194 -0.8932
33745SOL     OW 4511   6.009   0.452   5.140 -0.5485  0.5243 -0.3318
33745SOL    HW1 4512   6.043   0.498   5.063  1.1156 -0.4182 -0.2089
33745SOL    HW2 4513   6.007   0.360   5.114  1.1666  0.0318  1.0731
33746SOL     OW 4514   8.745   0.195   7.400 -0.1164  0.3105  0.0509
33746SOL    HW1 4515   8.657   0.228   7.383  0.1071  0.7237 -0.3339
33746SOL    HW2 4516   8.745   0.173   7.493 -0.2979  1.3388  0.3041
33747SOL     OW 4517  10.236   9.637   9.639 -0.3396 -0.5203 -0.1382
33747SOL    HW1 4518  10.297   9.664   9.570  1.4610 -0.0270  1.5501
33747SOL    HW2 4519  10.150   9.665   9.607  0.1828 -1.5579 -2.7801
33748SOL     OW 4520   6.443   6.748   6.907  0.0553 -0.1395 -0.1418
33748SOL    HW1 4521   6.529   6.780   6.879 -0.0578  1.5442  1.2864
33748SOL    HW2 4522   6.442   6.759   7.002 -1.1576 -1.6478  0.0556
33749SOL     OW 4523   9.367   6.335   7.390  0.2716  0.0594  0.5472
33749SOL    HW1 4524   9.276   6.334   7.361  0.0541 -0.3301  1.2246
33749SOL    HW2 4525   9.389   6.243   7.403  0.7459  0.1549  0.4466
33750SOL     OW 4526   7.913   3.082   5.816  0.1937 -0.0127 -0.0751
33750SOL    HW1 4527   7.976   3.097   5.746  0.1318  0.9291  0.0599
33750SOL    HW2 4528   7.841   3.034   5.775 -0.3424  1.4689 -0.9249
33751SOL     OW 4529   6.177   3.775  10.097  0.2755  0.5802 -0.1865
33751SOL    HW1 4530   6.157   3.686  10.127  2.1303  1.3867  4.1451
33751SOL    HW2 4531   6.268   3.770  10.067  0.0390  0.8303 -0.9633
33752SOL     OW 4532   0.810   9.611   6.085 -0.1591  0.3295 -0.6354
33752SOL    HW1 4533   0.815   9.533   6.030  1.3844 -0.2742  0.2864
33752SOL    HW2 4534   0.725   9.605   6.127  0.1795 -1.2178 -0.0985
33753SOL     OW 4535   9.373   6.227   6.685 -0.3254 -0.1101  0.5000
33753SOL    HW1 4536   9.336   6.198   6.768 -0.9450 -0.1321  0.2222
33753SOL    HW2 4537   9.313   6.295   6.654  1.0652  1.4583  1.1059
33754SOL     OW 4538   9.501   0.064   8.459  0.1205 -0.1743 -0.1668
33754SOL    HW1 4539   9.458   0.025   8.536 -1.1544  1.6751  0.1130
33754SOL    HW2 4540   9.565   0.124   8.496  1.9052 -1.7335 -0.5985
33755SOL     OW 4541   3.094   4.868   5.635  0.3283  0.9664  0.3930
33755SOL    HW1 4542   3.177   4.895   5.676  1.5943 -0.9719 -0.7305
33755SOL    HW2 4543   3.121   4.822   5.555 -1.6861 -1.5863  1.0420
33756SOL     OW 4544  10.173   8.600   8.093 -0.0854  0.2996 -0.8091
33756SOL    HW1 4545  10.081   8.597   8.067  0.0265 -0.3355 -1.1746
33756SOL    HW2 4546  10.218   8.549   8.026  0.3385 -0.6367  0.1565
33757SOL     OW 4547   7.794   2.837   2.709 -0.6714  0.4507  0.0371
33757SOL    HW1 4548   7.792   2.874   2.621 -0.6136  1.3329  0.4027
33757SOL    HW2 4549   7.887   2.832   2.731 -0.7147  1.0695  0.3882
33758SOL     OW 4550   9.689   9.711   0.428 -0.5185  0.1147 -0.5176
33758SOL    HW1 4551   9.613   9.728   0.484 -0.8255  0.6341 -1.0878
33758SOL    HW2 4552   9.656   9.715   0.339 -0.2645 -1.8633 -0.7467
33759SOL     OW 4553  11.365   8.226   2.327  0.3935 -0.1978 -0.3032
33759SOL    HW1 4554  11.423   8.298   2.349 -0.5301  0.1070  1.2920
33759SOL    HW2 4555  11.398   8.192   2.244  1.6703  1.1703 -0.3783
33760SOL     OW 4556   4.092   3.722   5.561 -0.0595  0.0451 -0.1795
33760SOL    HW1 4557   4.047   3.771   5.491 -1.2524  0.7133  1.0035
33760SOL    HW2 4558   4.055   3.634   5.555 -2.4748  0.8303  1.4332
33761SOL     OW 4559   9.397   9.396   6.052  0.0986  0.4607  0.5176
33761SOL    HW1 4560   9.384   9.321   5.994 -1.4399  0.7075  0.5027
33761SOL    HW2 4561   9.377   9.472   5.997  1.3231  0.8918  0.6280
33762SOL     OW 4562   8.929   6.011   7.383 -0.6080  0.6297  0.6554
33762SOL    HW1 4563   8.949   6.057   7.465  1.0709 -1.9205  1.8226
33762SOL    HW2 4564   8.947   5.919   7.403 -1.4102 -0.2493 -2.2405
33763SOL     OW 4565   7.836   5.081   9.678  0.2956  0.2629 -0.1045
33763SOL    HW1 4566   7.877   5.156   9.722  2.4935 -0.0617 -1.4612
33763SOL    HW2 4567   7.743   5.089   9.699  0.7139  2.3529  1.2550
33764SOL     OW 4568   6.592   4.636   1.783  0.3789  0.5167 -0.2145
33764SOL    HW1 4569   6.557   4.669   1.866  2.1794  0.6076  0.5547
33764SOL    HW2 4570   6.611   4.715   1.733  0.6522  0.5042 -0.1286
33765SOL     OW 4571  10.275   6.696   9.302  0.4451  0.2176  0.0720
33765SOL    HW1 4572  10.190   6.686   9.346 -0.0545 -0.5747 -1.0215
33765SOL    HW2 4573  10.337   6.652   9.360  0.2014  1.1246  1.0706
33766SOL     OW 4574   1.664   1.478  10.071 -0.4094 -0.5828 -0.1624
33766SOL    HW1 4575   1.750   1.501  10.107 -0.8945 -0.4709  0.9733
33766SOL    HW2 4576   1.680   1.402  10.016  0.4321 -0.4858 -0.0597
33767SOL     OW 4577   0.393   7.123   8.593  0.0978 -0.1705 -0.2759
33767SOL    HW1 4578   0.379   7.096   8.684  0.5323  0.9771  0.1427
33767SOL    HW2 4579   0.476   7.082   8.568 -0.1598 -0.7149 -0.2578
33768SOL     OW 4580  10.711   7.672   5.775 -0.5805  0.5043 -0.3902
33768SOL    HW1 4581  10.652   7.734   5.732 -0.9274  1.4333  1.3285
33768SOL    HW2 4582  10.705   7.694   5.868 -0.1617 -1.6528  0.2061
33769SOL     OW 4583   2.048   7.418   9.919 -0.0399 -0.7926  0.3671
33769SOL    HW1 4584   2.102   7.485   9.877 -1.3399  0.3809  0.4991
33769SOL    HW2 4585   2.051   7.439  10.013  0.0195 -1.2817  0.4803
33770SOL     OW 4586  10.653  10.534   1.350 -0.2940 -0.5085 -0.5253
33770SOL    HW1 4587  10.598  10.579   1.414 -0.3405 -1.0244 -0.2002
33770SOL    HW2 4588  10.741  10.568   1.367 -0.1635 -1.2648  0.3843
33771SOL     OW 4589   4.925   7.291   0.329 -0.2943  0.5399  0.0843
33771SOL    HW1 4590   4.854   7.243   0.372  1.1489 -0.6944  1.1908
33771SOL    HW2 4591   4.945   7.363   0.390  0.6846 -0.2737  0.7573
33772SOL     OW 4592   4.584   7.541   9.290  0.0840  0.2290  0.3448
33772SOL    HW1 4593   4.588   7.540   9.385 -1.0062 -2.5871  0.4694
33772SOL    HW2 4594   4.633   7.619   9.264  3.5813 -0.8078  3.0720
33773SOL     OW 4595   1.607   3.382   6.645 -0.0578 -0.1308 -0.5170
33773SOL    HW1 4596   1.584   3.417   6.731 -2.0900  0.8063 -1.3621
33773SOL    HW2 4597   1.639   3.458   6.596  0.8826 -0.6127 -0.6589
33774SOL     OW 4598   5.882   7.581  10.705 -0.8562 -0.1505  0.1928
33774SOL    HW1 4599   5.924   7.554  10.786 -0.9843  1.6046  0.8922
33774SOL    HW2 4600   5.944   7.556  10.636 -0.4497 -1.0598  0.8749
33775SOL     OW 4601  10.927   6.246   3.324  0.3284 -0.1323  0.0489
33775SOL    HW1 4602  10.974   6.298   3.390  0.4432 -2.4555  1.9293
33775SOL    HW2 4603  10.909   6.163   3.368 -1.9071 -0.8479 -2.0361
33776SOL     OW 4604   7.573   0.723   7.199  0.4936  0.2705 -0.3178
33776SOL    HW1 4605   7.542   0.736   7.289 -1.0315 -0.0216 -0.7854
33776SOL    HW2 4606   7.497   0.691   7.151  1.8791 -1.9378 -1.2053
33777SOL     OW 4607   3.444   3.206   3.734  0.8453 -0.0384  0.0149
33777SOL    HW1 4608   3.426   3.286   3.784 -1.6336  0.4432 -1.4714
33777SOL    HW2 4609   3.408   3.136   3.789  0.5085  0.1898  0.0904
33778SOL     OW 4610   1.330   0.330   5.636  0.5137  0.0510  0.2975
33778SOL    HW1 4611   1.299   0.299   5.721  1.8437  0.0369  0.8027
33778SOL    HW2 4612   1.399   0.392   5.657  1.0988 -0.2046 -0.7742
33779SOL     OW 4613   7.047   3.090   8.898  0.9566  0.5707  0.3360
33779SOL    HW1 4614   7.078   3.138   8.821  0.2108  0.2032 -0.2040
33779SOL    HW2 4615   6.991   3.152   8.943 -0.8598 -0.0794 -0.9221
33780SOL     OW 4616   9.550   6.882   9.844  0.6574 -0.2197  0.0208
33780SOL    HW1 4617   9.497   6.823   9.790  2.2342  0.1171 -2.0375
33780SOL    HW2 4618   9.626   6.830   9.870  1.1965  0.3724 -0.3294
33781SOL     OW 4619   5.940   1.484   4.142  0.0790 -0.1025  0.2356
33781SOL    HW1 4620   5.990   1.406   4.115 -0.9014 -0.2529 -1.3084
33781SOL    HW2 4621   5.993   1.558   4.113 -0.3837 -0.2571 -1.0659
33782SOL     OW 4622   7.178   8.634   9.351 -0.2274 -0.4651  0.1922
33782SOL    HW1 4623   7.158   8.566   9.416 -1.0242  1.2839  1.8924
33782SOL    HW2 4624   7.092   8.659   9.316  0.2714 -2.1514 -2.4691
33783SOL     OW 4625   8.920   6.935  11.287  0.4051  0.1680  0.8595
33783SOL    HW1 4626   9.012   6.917  11.307  0.1913 -1.4980  0.4336
33783SOL    HW2 4627   8.893   6.863  11.230 -1.1635  0.6503  0.9563
33784SOL     OW 4628   0.221   4.057   4.720  0.2556  0.0729  0.4602
33784SOL    HW1 4629   0.176   4.140   4.733  1.1458  1.4020 -3.5110
33784SOL    HW2 4630   0.313   4.077   4.734  0.4818 -0.1715 -0.5854
33785SOL     OW 4631   2.818   1.220  10.571  0.3213  0.2931 -0.1992
33785SOL    HW1 4632   2.837   1.130  10.597 -0.3643  0.2085  0.0386
33785SOL    HW2 4633   2.726   1.233  10.594  0.1182  0.7130 -1.1824
33786SOL     OW 4634   7.225   5.273   1.875 -0.1692 -0.2533  0.4464
33786SOL    HW1 4635   7.298   5.335   1.879 -1.0719  0.7803  2.8241
33786SOL    HW2 4636   7.173   5.302   1.801 -0.2778  1.5642  1.1821
33787SOL     OW 4637   4.387   1.016   2.220  0.3149  0.1226  0.6638
33787SOL    HW1 4638   4.330   1.007   2.297 -0.1873  1.6776  0.5016
33787SOL    HW2 4639   4.351   1.090   2.171  1.5068  0.1000 -0.3081
33788SOL     OW 4640   2.694   1.201   8.310 -0.1261  0.0036 -0.6853
33788SOL    HW1 4641   2.714   1.282   8.357 -2.3258 -0.2806  0.8893
33788SOL    HW2 4642   2.647   1.229   8.232 -0.9072  0.2602 -0.1311
33789SOL     OW 4643   9.464   8.260   8.218  0.3990  0.1278 -0.2283
33789SOL    HW1 4644   9.496   8.279   8.306  0.0020  1.8467 -0.4239
33789SOL    HW2 4645   9.503   8.328   8.163 -1.6960  0.8588 -0.8766
33790SOL     OW 4646   5.665  10.329   0.255 -0.6061 -0.3579 -0.1253
33790SOL    HW1 4647   5.622  10.404   0.296 -0.6886  1.3209 -2.9926
33790SOL    HW2 4648   5.754  10.330   0.290 -0.7500  0.7935  0.2673
33791SOL     OW 4649   9.999   0.499   7.200 -0.0682  0.6919 -0.0243
33791SOL    HW1 4650   9.962   0.463   7.120  1.4474  0.6301 -0.7340
33791SOL    HW2 4651   9.924   0.531   7.250 -1.0374  0.6624 -1.4289
33792SOL     OW 4652   1.034   8.972  11.139  0.1962  0.3591  0.4732
33792SOL    HW1 4653   1.051   9.056  11.095  0.1507 -0.2729 -0.7867
33792SOL    HW2 4654   0.939   8.970  11.150  0.1987  0.4761  0.5217
33793SOL     OW 4655  10.045   6.873  10.396 -0.3668  0.1286  0.5999
33793SOL    HW1 4656  10.000   6.802  10.441 -0.2150 -0.1679  0.2940
33793SOL    HW2 4657   9.988   6.949  10.407 -0.0630  0.2049  1.7618
33794SOL     OW 4658   0.906   7.603   6.881  0.6263 -0.2813 -0.1235
33794SOL    HW1 4659   0.871   7.535   6.825 -0.4046  0.3976 -0.3185
33794SOL    HW2 4660   0.951   7.663   6.821 -0.0661  0.1896 -0.1840
33795SOL     OW 4661   3.678   3.293   2.579 -0.6059 -0.0946 -0.3342
33795SOL    HW1 4662   3.617   3.270   2.649  0.9831  0.7840  1.4451
33795SOL    HW2 4663   3.759   3.247   2.602  0.1293  0.6927 -1.2748
33796SOL     OW 4664   5.009   8.077   3.524 -0.0407 -0.3255 -0.4822
33796SOL    HW1 4665   4.920   8.092   3.492  0.3845  0.7140 -1.2686
33796SOL    HW2 4666   5.042   8.005   3.470 -0.3113 -0.5336 -0.3737
33797SOL     OW 4667   2.429   5.411   6.163 -0.1511 -0.0147  0.1355
33797SOL    HW1 4668   2.493   5.425   6.093 -0.0220 -0.3796  0.1831
33797SOL    HW2 4669   2.405   5.319   6.156 -1.8920  0.4624 -0.9505
33798SOL     OW 4670   3.670   1.718   9.064 -0.4803  0.8166  0.0284
33798SOL    HW1 4671   3.723   1.734   9.142  0.6834 -0.7223 -0.3981
33798SOL    HW2 4672   3.580   1.707   9.097  0.4350 -3.3821  1.7310
33799SOL     OW 4673   5.153   0.297   1.223  0.0238 -0.0216  0.1675
33799SOL    HW1 4674   5.168   0.315   1.130  0.1605 -1.9719 -0.2355
33799SOL    HW2 4675   5.227   0.242   1.249  0.4947  1.2584  1.7194
33800SOL     OW 4676   5.731   1.740   2.793 -0.1082 -0.0498  0.2724
33800SOL    HW1 4677   5.708   1.774   2.880 -0.9164 -1.1175  0.4914
33800SOL    HW2 4678   5.650   1.702   2.760  0.1593  0.4434 -1.0157
33801SOL     OW 4679   4.391   4.794   1.350  0.9842 -0.0160 -0.4325
33801SOL    HW1 4680   4.364   4.725   1.290  2.0476 -0.2612 -0.6605
33801SOL    HW2 4681   4.483   4.811   1.327  0.5998  1.8705 -0.7713
33802SOL     OW 4682   4.684   0.291   4.476  0.2793  0.1144  0.1216
33802SOL    HW1 4683   4.658   0.274   4.385  1.3420 -2.0236  0.1547
33802SOL    HW2 4684   4.642   0.222   4.526  2.3406 -0.7319  0.7760
33803SOL     OW 4685   5.074   2.368   9.118 -0.5028  0.2622 -0.9148
33803SOL    HW1 4686   5.076   2.281   9.077 -0.0547 -0.2159  0.0912
33803SOL    HW2 4687   5.086   2.351   9.211  0.6228  1.4723 -0.8036
33804SOL     OW 4688   6.013  11.378   8.405  0.9571  0.2926  0.2661
33804SOL    HW1 4689   6.031  11.284   8.400  0.6331  0.2306  0.1965
33804SOL    HW2 4690   5.981  11.401   8.317  0.9050  0.4355  0.3219
33805SOL     OW 4691   3.030   6.073   3.478  0.6813  0.6734  0.3664
33805SOL    HW1 4692   3.122   6.050   3.466  0.5197  0.2346 -0.0775
33805SOL    HW2 4693   2.984   6.020   3.413  0.0936  0.7180  0.7449
33806SOL     OW 4694   4.072   2.776  10.055 -0.1585 -0.3566 -0.1328
33806SOL    HW1 4695   4.021   2.731   9.988  0.2189 -2.1030  0.7045
33806SOL    HW2 4696   4.077   2.714  10.127 -0.7599  1.5681  1.6419
33807SOL     OW 4697   7.164   6.572   5.986  0.0158  0.5456  0.2904
33807SOL    HW1 4698   7.119   6.655   5.975 -1.6997 -0.5837 -2.3059
33807SOL    HW2 4699   7.236   6.574   5.923 -1.1535 -0.5616 -1.1556
33808SOL     OW 4700   9.824   7.264   6.980  0.3531  0.4599  0.8631
33808SOL    HW1 4701   9.791   7.330   7.041  0.4108  1.8756 -0.5394
33808SOL    HW2 4702   9.746   7.216   6.952 -0.0026  1.2757  0.4121
33809SOL     OW 4703   6.108   0.139   6.599 -0.4157 -0.1881 -0.1690
33809SOL    HW1 4704   6.127   0.061   6.546  0.3128  0.5168 -0.9663
33809SOL    HW2 4705   6.048   0.107   6.667  0.4772 -1.6059 -0.0035
33810SOL     OW 4706   7.368   4.835   0.707 -0.5792 -0.0500  0.1124
33810SOL    HW1 4707   7.404   4.755   0.669  0.3948  0.6003 -0.3930
33810SOL    HW2 4708   7.333   4.808   0.792 -0.3904 -1.0271 -0.1073
33811SOL     OW 4709  10.503   3.781   7.642 -0.0008 -0.0103 -0.6171
33811SOL    HW1 4710  10.567   3.755   7.576 -1.0771 -1.0932 -1.2735
33811SOL    HW2 4711  10.529   3.870   7.667 -0.3966  1.0568 -3.5823
33812SOL     OW 4712   6.178   1.132  11.306 -0.5054  0.4520  0.6461
33812SOL    HW1 4713   6.210   1.135  11.397  0.7337 -0.8189  0.2896
33812SOL    HW2 4714   6.228   1.201  11.261  1.2053 -0.9573  0.2834
33813SOL     OW 4715   1.692   7.217  11.108 -0.0199 -0.1198 -0.3702
33813SOL    HW1 4716   1.673   7.127  11.082 -0.9738 -0.3370  0.9787
33813SOL    HW2 4717   1.787   7.222  11.107  0.1384 -1.6923  1.1962
33814SOL     OW 4718   5.081   0.407   0.224  0.1772 -0.0628 -0.1008
33814SOL    HW1 4719   5.010   0.430   0.164  0.9296  2.8239 -0.0392
33814SOL    HW2 4720   5.037   0.365   0.298 -1.0722 -1.1913 -1.4252
33815SOL     OW 4721  10.377   7.148  10.251  0.4811  0.1146  0.0545
33815SOL    HW1 4722  10.355   7.084  10.318  2.9392 -1.1862 -0.2528
33815SOL    HW2 4723  10.354   7.106  10.168  0.2728  0.4602 -0.0690
33816SOL     OW 4724   9.374   3.588   6.659 -0.4650  0.3789  0.0120
33816SOL    HW1 4725   9.279   3.585   6.664 -0.4369  0.4757  0.6420
33816SOL    HW2 4726   9.404   3.563   6.746  0.1073 -0.5076 -0.4222
33817SOL     OW 4727  10.828  11.389   7.002  0.1233  0.2255  0.4480
33817SOL    HW1 4728  10.760  11.401   6.935 -0.3538 -0.3878  0.8125
33817SOL    HW2 4729  10.845  11.477   7.036  0.6036  0.5938 -0.6948
33818SOL     OW 4730   6.921   2.456  10.340 -0.1824  0.2128  0.2574
33818SOL    HW1 4731   6.924   2.369  10.300  0.7015  0.9860 -1.4571
33818SOL    HW2 4732   7.002   2.462  10.392 -0.1209  0.1109  0.1735
33819SOL     OW 4733   2.669   1.152   0.669 -0.5562 -0.0115 -0.1039
33819SOL    HW1 4734   2.701   1.155   0.759 -0.4445  2.0271 -0.1708
33819SOL    HW2 4735   2.743   1.181   0.616 -1.4628  1.6116 -0.5540
33820SOL     OW 4736   7.053   9.586   9.657 -0.3008 -0.3890 -0.3942
33820SOL    HW1 4737   7.094   9.672   9.667 -0.7914 -0.0411 -1.3347
33820SOL    HW2 4738   7.121   9.531   9.619 -0.7090  0.2127 -2.0496
33821SOL     OW 4739   4.658   0.246   6.843  0.2867 -0.6667  0.5027
33821SOL    HW1 4740   4.719   0.205   6.781 -0.9702 -0.9459 -0.6019
33821SOL    HW2 4741   4.714   0.288   6.908  1.6645 -0.4567 -0.7673
33822SOL     OW 4742  10.867   1.470   1.517 -0.6513 -0.4716  0.1734
33822SOL    HW1 4743  10.828   1.557   1.530 -1.4581 -0.9048  0.6976
33822SOL    HW2 4744  10.939   1.485   1.455 -0.5195  0.6377  0.5732
33823SOL     OW 4745   2.375   5.596   0.496  1.1286 -0.3852 -0.1073
33823SOL    HW1 4746   2.320   5.672   0.478  0.4583 -0.5614  1.1373
33823SOL    HW2 4747   2.465   5.630   0.492  0.9352  0.0287 -1.5443
33824SOL     OW 4748   3.441   3.367   7.375  0.1602  0.1375  0.4008
33824SOL    HW1 4749   3.501   3.293   7.369  1.4301  1.1962 -0.4283
33824SOL    HW2 4750   3.354   3.327   7.379  0.9037 -1.4621  2.4527
33825SOL     OW 4751   8.129   7.333   5.234 -0.1464 -0.3815  0.4920
33825SOL    HW1 4752   8.129   7.388   5.156  0.5455 -1.9769 -0.6890
33825SOL    HW2 4753   8.162   7.389   5.304  0.0922  0.8168 -0.5612
33826SOL     OW 4754  11.323   2.045   1.324 -0.2746 -0.5994  0.1185
33826SOL    HW1 4755  11.323   2.139   1.305 -0.5630 -0.7485 -0.6331
33826SOL    HW2 4756  11.400   2.032   1.380  0.1446 -0.0189 -0.3139
33827SOL     OW 4757   3.484   0.004   2.350 -0.5288  0.3216 -0.4233
33827SOL    HW1 4758   3.507   0.043   2.266  1.4126  1.2624  0.4934
33827SOL    HW2 4759   3.407   0.053   2.379 -1.3615 -0.1620 -1.7149
33828SOL     OW 4760   9.471   6.360   1.223  0.3605 -0.1846 -0.2675
33828SOL    HW1 4761   9.450   6.447   1.191  1.8173  0.3368  0.1065
33828SOL    HW2 4762   9.469   6.305   1.145 -2.1503 -0.1775 -0.2671
33829SOL     OW 4763   4.342   6.169   2.894 -0.7224  0.1263  0.5912
33829SOL    HW1 4764   4.296   6.088   2.917 -1.7113 -0.0556 -1.7969
33829SOL    HW2 4765   4.285   6.213   2.832  1.1557  1.1914 -0.4799
33830SOL     OW 4766   5.259   0.627   7.385 -0.1645 -0.3371 -0.3485
33830SOL    HW1 4767   5.237   0.687   7.314 -0.2991 -1.4165 -1.2415
33830SOL    HW2 4768   5.279   0.544   7.342 -0.7734 -1.1724  0.8990
33831SOL     OW 4769   1.501   3.854  11.202  0.6105  0.0777 -0.2184
33831SOL    HW1 4770   1.559   3.832  11.129  0.6215  1.6876 -0.7457
33831SOL    HW2 4771   1.413   3.846  11.165  0.6249  1.1915 -0.5198
33832SOL     OW 4772   2.849  10.380   9.846 -0.0856  0.3758 -0.1639
33832SOL    HW1 4773   2.889  10.293   9.849 -0.1833  0.3592  0.9344
33832SOL    HW2 4774   2.838  10.398   9.752  0.4208 -0.5655 -0.4142
33833SOL     OW 4775   3.921   0.079   6.002 -0.0777  0.0050 -0.3756
33833SOL    HW1 4776   4.004   0.121   5.979  0.1954  0.1469  0.8425
33833SOL    HW2 4777   3.914   0.006   5.940 -0.4812  1.6660 -2.4377
33834SOL     OW 4778   9.453   9.465   5.033 -0.1350 -0.0185  0.2779
33834SOL    HW1 4779   9.541   9.426   5.032  0.1267  0.5765 -0.7700
33834SOL    HW2 4780   9.400   9.400   5.079  0.5708 -1.0225 -0.2618
33835SOL     OW 4781   7.768  10.104   5.571  0.1300  0.0044  0.2665
33835SOL    HW1 4782   7.824  10.044   5.620  0.5360  0.9779  1.0396
33835SOL    HW2 4783   7.827  10.173   5.540 -0.3587  0.1278 -0.4131
33836SOL     OW 4784   7.309  11.037   0.992  1.0804 -0.1825 -0.2102
33836SOL    HW1 4785   7.225  11.039   0.947  1.7192  1.5414 -1.4859
33836SOL    HW2 4786   7.288  11.054   1.084  0.0752  1.2498 -0.6652
33837SOL     OW 4787   7.983   4.593   3.586  0.0846  0.0855  0.5565
33837SOL    HW1 4788   8.022   4.552   3.664  0.9522  0.7648  0.4987
33837SOL    HW2 4789   8.022   4.546   3.513 -0.9839 -0.7763  0.5104
33838SOL     OW 4790   6.789   9.616   8.871 -0.1630 -0.2581 -0.1224
33838SOL    HW1 4791   6.829   9.701   8.891  0.2276 -0.5086  0.1819
33838SOL    HW2 4792   6.858   9.552   8.891 -1.2937 -0.8476  2.1168
33839SOL     OW 4793   8.360   2.013   7.713 -0.4791 -0.4218  0.2086
33839SOL    HW1 4794   8.430   1.973   7.763 -2.0086 -2.0383  1.1898
33839SOL    HW2 4795   8.322   1.941   7.663 -0.3334  0.7517 -1.7175
33840SOL     OW 4796   5.857   6.318   1.968 -0.8203  0.0512 -0.1195
33840SOL    HW1 4797   5.837   6.349   1.880  0.5240  1.2062 -0.0633
33840SOL    HW2 4798   5.822   6.386   2.026  0.0431  0.2935  0.1287
33841SOL     OW 4799   8.658   1.128   4.997 -0.8020 -0.1093  0.0654
33841SOL    HW1 4800   8.700   1.189   5.057 -0.3706 -0.2049 -0.1398
33841SOL    HW2 4801   8.565   1.154   4.998 -0.3843  1.6389 -1.2692
33842SOL     OW 4802   9.170   5.998   5.073  0.0884  0.1025 -0.2893
33842SOL    HW1 4803   9.234   5.985   5.003 -1.6495  0.0652 -1.9613
33842SOL    HW2 4804   9.116   6.071   5.042 -1.0052 -0.2237  0.7974
33843SOL     OW 4805   5.014   8.857   9.180  0.1916  0.3697  0.5056
33843SOL    HW1 4806   5.094   8.907   9.164 -0.6469  1.5736 -0.0149
33843SOL    HW2 4807   4.988   8.825   9.093 -0.1131  0.3287  0.6103
33844SOL     OW 4808  10.119  10.501   5.311 -0.0393  0.1605  0.0985
33844SOL    HW1 4809  10.213  10.494   5.327 -0.1027 -0.7843  0.1482
33844SOL    HW2 4810  10.088  10.410   5.313 -0.9667  0.4680  0.1821
33845SOL     OW 4811  10.924   0.752   8.713  0.1982 -0.2344  0.1919
33845SOL    HW1 4812  10.987   0.695   8.669 -1.1636 -2.1569  0.6061
33845SOL    HW2 4813  10.897   0.702   8.790 -1.6047  0.6446  0.1812
33846SOL     OW 4814   4.855   6.705   2.477 -0.7095 -0.3349  0.0591
33846SOL    HW1 4815   4.809   6.766   2.535  0.0311  0.4060 -0.0966
33846SOL    HW2 4816   4.789   6.641   2.451 -1.8337  1.0596 -0.6881
33847SOL     OW 4817   8.508   8.020   1.868 -0.0159 -0.4895  0.8511
33847SOL    HW1 4818   8.438   7.960   1.840  0.2655  0.1246 -1.3186
33847SOL    HW2 4819   8.465   8.081   1.928 -1.7701  0.7128 -1.4579
33848SOL     OW 4820   7.860   4.982   2.267  0.0088  0.2304 -0.2411
33848SOL    HW1 4821   7.812   4.906   2.234 -0.2848 -0.1552  1.0231
33848SOL    HW2 4822   7.932   4.993   2.206 -1.1507  0.2562 -1.6556
33849SOL     OW 4823   7.120   8.441   7.888  0.0345 -0.3201  0.1660
33849SOL    HW1 4824   7.061   8.370   7.912  0.1492  0.5963  3.7300
33849SOL    HW2 4825   7.106   8.507   7.956  1.6634  2.0403 -1.6480
33850SOL     OW 4826   7.045   9.432   9.218 -0.2127  0.3698  0.1275
33850SOL    HW1 4827   7.003   9.495   9.277 -2.2053 -1.4839  0.8084
33850SOL    HW2 4828   7.116   9.395   9.270 -0.7363  0.1354  0.6822
33851SOL     OW 4829   6.255   9.735   8.678  0.2797 -0.4711 -0.2118
33851SOL    HW1 4830   6.292   9.647   8.683 -2.0547 -1.7611 -2.8574
33851SOL    HW2 4831   6.164   9.724   8.706  0.4121  1.5419  1.2238
33852SOL     OW 4832   1.662   7.833   3.556  0.2850 -0.2365 -0.1077
33852SOL    HW1 4833   1.738   7.776   3.552  2.2255  2.1241  0.5274
33852SOL    HW2 4834   1.641   7.840   3.649 -0.4655 -0.5386 -0.2444
33853SOL     OW 4835   1.126   5.312   1.153  0.5188 -0.3792 -0.3526
33853SOL    HW1 4836   1.197   5.288   1.093 -1.0483 -2.8602 -1.3770
33853SOL    HW2 4837   1.109   5.233   1.203 -1.1477  0.3295  0.2802
33854SOL     OW 4838   8.379   6.330   8.547  0.0591  0.3650  0.0286
33854SOL    HW1 4839   8.289   6.363   8.547 -0.2433 -0.3871  1.2501
33854SOL    HW2 4840   8.417   6.363   8.628  1.0012  0.9103 -0.6085
33855SOL     OW 4841   6.353   0.309   7.537 -0.0329  0.2231  0.4657
33855SOL    HW1 4842   6.261   0.327   7.519  0.1701  1.9176  0.9565
33855SOL    HW2 4843   6.383   0.259   7.462 -0.9173  1.1756 -0.5554
33856SOL     OW 4844   3.029   3.639   8.782 -0.2149 -0.3025 -0.2261
33856SOL    HW1 4845   2.976   3.626   8.861 -4.0320 -0.0576 -2.4630
33856SOL    HW2 4846   3.017   3.731   8.761  1.6477 -0.1102 -0.5607
33857SOL     OW 4847   9.959   2.462   1.361  0.5972 -0.1852  0.1579
33857SOL    HW1 4848   9.953   2.481   1.267  0.7544 -3.1435 -0.5217
33857SOL    HW2 4849  10.044   2.498   1.387  0.7552  0.2677 -0.9212
33858SOL     OW 4850   6.046   7.817   0.234  0.8815  0.3784  0.1607
33858SOL    HW1 4851   6.064   7.743   0.175  1.9620  0.7899 -0.0575
33858SOL    HW2 4852   6.122   7.820   0.292  0.1153  0.3723  1.1744
33859SOL     OW 4853   7.929   9.080   6.783 -0.0836  0.0343  0.5980
33859SOL    HW1 4854   7.917   9.158   6.728 -1.0549 -0.0726  0.6328
33859SOL    HW2 4855   7.877   9.098   6.861 -2.3255 -1.6138 -0.4061
33860SOL     OW 4856   4.450   2.115  10.680  0.0815 -0.2123 -0.0194
33860SOL    HW1 4857   4.420   2.049  10.742  0.4902  0.3944  0.8386
33860SOL    HW2 4858   4.543   2.128  10.700  0.0162  0.6047 -0.1826
33861SOL     OW 4859  10.898   0.166   0.542 -0.4795  0.2083  0.2636
33861SOL    HW1 4860  10.825   0.185   0.483 -0.5657 -0.0099  0.3010
33861SOL    HW2 4861  10.954   0.107   0.491 -0.4282  0.2193  0.3086
33862SOL     OW 4862   5.703   7.303   1.633  0.6320 -0.2091  0.3892
33862SOL    HW1 4863   5.680   7.290   1.541  0.3275  0.0335  0.4298
33862SOL    HW2 4864   5.794   7.275   1.639  0.9535  0.6785 -0.1818
33863SOL     OW 4865   8.037   5.257   4.357  0.0358 -0.3293 -0.0168
33863SOL    HW1 4866   7.955   5.307   4.360  1.4217  2.0887  0.4029
33863SOL    HW2 4867   8.029   5.193   4.427 -0.8524  0.9988  1.1568
33864SOL     OW 4868   7.822   3.096   4.236  0.5146  0.3222 -0.5193
33864SOL    HW1 4869   7.770   3.160   4.284  0.5827 -1.1796  1.6812
33864SOL    HW2 4870   7.757   3.037   4.196  0.4861  0.5887 -0.8701
33865SOL     OW 4871   2.587   3.956  10.222 -0.5933 -0.0413  0.0626
33865SOL    HW1 4872   2.544   3.978  10.305  0.5333  0.9308  0.4183
33865SOL    HW2 4873   2.527   3.988  10.155 -0.6188  0.9528  0.5426
33866SOL     OW 4874   6.488  10.411   0.933  0.7462 -0.0617  0.1034
33866SOL    HW1 4875   6.545  10.477   0.972  2.4162 -0.4571 -1.5197
33866SOL    HW2 4876   6.452  10.453   0.854  0.9997 -0.7194 -0.3764
33867SOL     OW 4877   5.012   0.616   7.199 -0.4159 -0.0047  0.0227
33867SOL    HW1 4878   5.085   0.593   7.142 -0.7589 -1.2617  0.0589
33867SOL    HW2 4879   4.995   0.708   7.181  1.7927  0.5957  0.7301
33868SOL     OW 4880   9.142   4.194   6.667 -0.1997  0.2133  0.5020
33868SOL    HW1 4881   9.047   4.203   6.670 -0.3426 -1.1968  1.6762
33868SOL    HW2 4882   9.171   4.213   6.756  0.7815  1.8168 -0.1165
33869SOL     OW 4883   4.935   0.862   7.101 -0.7198  0.3239 -0.2057
33869SOL    HW1 4884   4.942   0.943   7.052  0.1235 -0.3385 -1.2156
33869SOL    HW2 4885   4.973   0.882   7.187  1.9891  0.3261 -1.3007
33870SOL     OW 4886   2.519   2.874   9.812  0.7189  0.4958  0.1425
33870SOL    HW1 4887   2.548   2.786   9.785  0.2149 -0.0233  1.2226
33870SOL    HW2 4888   2.436   2.887   9.767 -0.4548 -0.6439  1.8652
33871SOL     OW 4889   2.781  10.384   6.398  0.5826 -0.4345  0.0292
33871SOL    HW1 4890   2.798  10.376   6.492 -0.0991  1.6440  0.3690
33871SOL    HW2 4891   2.813  10.472   6.376 -2.2961  0.4579 -0.9546
33872SOL     OW 4892   4.296   7.942  10.494  0.3362  0.2358  0.3051
33872SOL    HW1 4893   4.206   7.916  10.475  0.2945 -1.4939  2.4837
33872SOL    HW2 4894   4.323   7.994  10.418 -1.9035 -0.6500 -1.1903
33873SOL     OW 4895   7.198   7.305   6.400  0.0318  0.0756 -0.2274
33873SOL    HW1 4896   7.109   7.272   6.412 -1.1251  2.6918 -0.8896
33873SOL    HW2 4897   7.208   7.372   6.468  0.2935  1.9606 -2.0097
33874SOL     OW 4898  10.594   6.589  11.078 -0.3223  0.5097  0.4782
33874SOL    HW1 4899  10.566   6.498  11.087  1.0555  0.2296  2.5499
33874SOL    HW2 4900  10.603   6.602  10.983 -0.0846 -1.6459  0.1533
33875SOL     OW 4901   6.701   4.857   1.308 -0.1211  0.4731 -0.1613
33875SOL    HW1 4902   6.627   4.912   1.334  0.1879 -0.1361  2.2381
33875SOL    HW2 4903   6.660   4.778   1.271 -0.5672  1.7038 -2.4640
33876SOL     OW 4904   7.825   7.895  11.298 -0.2366  0.2307 -0.1178
33876SOL    HW1 4905   7.878   7.882  11.219  0.0997  0.2870  0.0962
33876SOL    HW2 4906   7.769   7.818  11.303 -0.5396  0.4097 -0.6278
33877SOL     OW 4907   1.654   3.936   1.348 -0.8891  0.0228 -0.2677
33877SOL    HW1 4908   1.678   3.949   1.256 -2.0928 -0.4031 -0.6642
33877SOL    HW2 4909   1.611   4.018   1.373  1.4438  1.0613  0.6484
33878SOL     OW 4910  11.021   8.346   3.728 -0.1318  0.7032 -0.6214
33878SOL    HW1 4911  10.994   8.318   3.815  1.0598  2.2196  0.2941
33878SOL    HW2 4912  10.959   8.415   3.705 -0.4860  0.2585 -1.0157
33879SOL     OW 4913   7.826   8.039   0.592  0.0993  0.2027 -0.0002
33879SOL    HW1 4914   7.756   7.975   0.608 -0.6222  1.2127  0.9968
33879SOL    HW2 4915   7.787   8.102   0.531 -0.5323  1.7840  1.9676
33880SOL     OW 4916   2.352   8.744   2.189  0.1499  0.5043 -0.5587
33880SOL    HW1 4917   2.336   8.834   2.216 -0.0916 -0.1176  1.6041
33880SOL    HW2 4918   2.356   8.695   2.271 -0.4223 -1.5689 -1.6854
33881SOL     OW 4919   1.160   4.674   4.915 -0.3540 -0.1621  0.3321
33881SOL    HW1 4920   1.092   4.630   4.966  1.1718 -3.1676 -0.0118
33881SOL    HW2 4921   1.136   4.656   4.824 -0.0015  0.1977  0.1666
33882SOL     OW 4922   9.733   5.558  10.517  0.0997 -0.0417  0.4383
33882SOL    HW1 4923   9.731   5.641  10.565 -1.8231 -0.5766  1.3853
33882SOL    HW2 4924   9.706   5.492  10.582 -0.5004 -1.0953 -0.8386
33883SOL     OW 4925   2.452   0.617   3.204 -0.1142  0.0858 -0.2682
33883SOL    HW1 4926   2.393   0.613   3.279 -0.7543 -1.8837 -0.8212
33883SOL    HW2 4927   2.525   0.560   3.228  0.9086  1.3813 -0.1723
33884SOL     OW 4928   0.142   8.430   6.082 -0.1178  0.4526 -0.0969
33884SOL    HW1 4929   0.054   8.468   6.088  0.4081  1.5227  2.0300
33884SOL    HW2 4930   0.134   8.343   6.120 -0.1847  0.6910  0.4345
33885SOL     OW 4931   9.641  11.324   7.294  0.8077  0.0885  0.0944
33885SOL    HW1 4932   9.683  11.320   7.380  0.2076 -0.0907  0.3888
33885SOL    HW2 4933   9.576  11.393   7.303  0.8138  0.1404 -0.2526
33886SOL     OW 4934   0.735   1.526   3.829 -0.7207 -1.1175 -0.3471
33886SOL    HW1 4935   0.752   1.591   3.897  0.0090  0.1896 -1.7459
33886SOL    HW2 4936   0.802   1.459   3.843  0.4738 -0.0377 -0.7872
33887SOL     OW 4937   9.819   2.107   4.574 -0.2920  0.9866 -0.0151
33887SOL    HW1 4938   9.824   2.013   4.554 -0.4521  0.6566  1.4169
33887SOL    HW2 4939   9.877   2.147   4.510 -0.0375 -0.1116 -0.5080
33888SOL     OW 4940   8.275   5.688   0.274 -0.0838  0.1808  0.0944
33888SOL    HW1 4941   8.360   5.648   0.292  0.7594  1.4800 -0.8133
33888SOL    HW2 4942   8.211   5.623   0.303  1.2150 -0.9852  0.4436
33889SOL     OW 4943  10.968   9.393   0.959 -0.3729 -0.3349  0.3072
33889SOL    HW1 4944  11.023   9.443   0.899 -1.0905  0.0519 -0.0465
33889SOL    HW2 4945  11.017   9.392   1.041 -0.9350  2.2096  0.7698
33890SOL     OW 4946   1.793  11.038   7.115  0.2695  0.0300 -0.2357
33890SOL    HW1 4947   1.831  10.963   7.069 -2.0694 -1.1012 -0.4606
33890SOL    HW2 4948   1.703  11.044   7.081 -0.1822  1.7919  1.1295
33891SOL     OW 4949  10.558   6.085   6.935  0.0991 -0.4472  0.4605
33891SOL    HW1 4950  10.465   6.081   6.955  0.2372 -1.4271  0.9575
33891SOL    HW2 4951  10.566   6.042   6.849 -0.1087  1.1278 -0.3776
33892SOL     OW 4952   2.518   9.521   5.406  0.0146 -0.4692 -0.4950
33892SOL    HW1 4953   2.457   9.595   5.407  0.4081 -0.1106  1.5083
33892SOL    HW2 4954   2.582   9.544   5.338  0.1917  1.1003  0.1597
33893SOL     OW 4955   7.680   4.725   3.776 -0.3521  0.3876  0.5990
33893SOL    HW1 4956   7.632   4.642   3.785  1.0566 -0.4395  0.7895
33893SOL    HW2 4957   7.760   4.712   3.826  0.7988  1.1610 -0.9617
33894SOL     OW 4958   8.102   0.781  10.344 -0.6419  0.0299 -0.3179
33894SOL    HW1 4959   8.013   0.757  10.369 -0.5350 -0.0413  0.0023
33894SOL    HW2 4960   8.118   0.734  10.262 -0.5262 -0.7980  0.1653
33895SOL     OW 4961   4.038   0.890   6.446 -0.5200  0.0518 -0.0539
33895SOL    HW1 4962   4.027   0.930   6.359  0.2726 -0.0126 -0.1891
33895SOL    HW2 4963   3.979   0.815   6.445 -1.6861  0.9341  0.0328
33896SOL     OW 4964  10.116   5.548   1.662 -0.0680 -0.0004 -0.1751
33896SOL    HW1 4965  10.141   5.455   1.664 -2.2153 -0.6132  1.0041
33896SOL    HW2 4966  10.158   5.585   1.740 -0.1122 -0.2369 -0.0375
33897SOL     OW 4967   4.625   8.717   9.023  0.0712  0.2729 -0.0635
33897SOL    HW1 4968   4.709   8.726   8.979  0.2962  1.1461  0.5187
33897SOL    HW2 4969   4.641   8.655   9.094  0.5015  1.2622  0.7110
33898SOL     OW 4970   2.131   1.879   2.515  0.0352  0.6190 -0.3469
33898SOL    HW1 4971   2.160   1.967   2.535  0.0593  0.6027 -0.3106
33898SOL    HW2 4972   2.195   1.822   2.557  0.5466  0.5905 -1.1568
33899SOL     OW 4973   7.889   2.624   0.951 -0.0327  0.4713  0.3573
33899SOL    HW1 4974   7.866   2.543   0.906 -1.0414  0.3409  1.0785
33899SOL    HW2 4975   7.931   2.596   1.032  0.1916  0.6812  0.3150
33900SOL     OW 4976   3.802   3.465   6.969  0.3217 -0.6521  0.2105
33900SOL    HW1 4977   3.807   3.504   6.882 -0.7368 -1.6580 -0.3277
33900SOL    HW2 4978   3.717   3.421   6.971 -0.3605  0.6517  2.3250
33901SOL     OW 4979   0.074   7.952   7.753 -0.2604  0.8098 -0.0601
33901SOL    HW1 4980   0.115   7.995   7.678  1.3796  0.4257  0.5668
33901SOL    HW2 4981   0.113   7.865   7.755  0.1337  0.9873  1.5039
33902SOL     OW 4982   9.611   2.305   4.640  0.2626  0.5071 -0.1072
33902SOL    HW1 4983   9.540   2.322   4.579 -1.0126  1.3656  1.5119
33902SOL    HW2 4984   9.664   2.237   4.598  0.1762  1.9253 -2.6696
33903SOL     OW 4985   6.290   2.945   7.894 -0.0691 -0.6559 -0.7175
33903SOL    HW1 4986   6.249   2.861   7.911  0.5502 -0.7900  0.1943
33903SOL    HW2 4987   6.222   3.010   7.915  0.0673 -0.8835  0.4897
33904SOL     OW 4988   4.163   7.657   3.043 -0.0116 -0.2064 -0.4450
33904SOL    HW1 4989   4.106   7.689   3.114 -0.8883 -1.2407 -0.6527
33904SOL    HW2 4990   4.233   7.610   3.088 -1.5173 -2.4011 -0.2433
33905SOL     OW 4991   9.963   9.680   1.667  0.0567 -0.0555 -0.3183
33905SOL    HW1 4992   9.891   9.683   1.729  0.8388 -0.5773  0.6470
33905SOL    HW2 4993   9.986   9.771   1.651 -2.0413  0.2426 -2.1584
33906SOL     OW 4994   6.822   9.672   8.176  0.1057 -0.0113 -0.2665
33906SOL    HW1 4995   6.912   9.640   8.184 -0.2019 -0.5754  1.1904
33906SOL    HW2 4996   6.830   9.756   8.131  1.3697  0.0070 -0.0300
33907SOL     OW 4997   3.456   2.165   5.944  0.1564  0.3277  0.2986
33907SOL    HW1 4998   3.461   2.094   5.880  1.4243 -0.4747  1.2292
33907SOL    HW2 4999   3.509   2.235   5.907  2.0010 -0.6227  0.9942
33908SOL     OW 5000   7.189   1.630   8.007 -0.0297  0.2652  0.3911
33908SOL    HW1 5001   7.159   1.559   8.065  0.4834 -1.1473 -1.0039
33908SOL    HW2 5002   7.206   1.703   8.067 -0.6390 -0.7497  1.8870
33909SOL     OW 5003   0.892   5.269   5.326 -0.0604 -0.3315 -0.5116
33909SOL    HW1 5004   0.923   5.283   5.237  0.2286  0.3761 -0.3097
33909SOL    HW2 5005   0.796   5.275   5.320  0.0169  2.2826 -0.4029
33910SOL     OW 5006  10.719   3.475   9.701  0.2705  0.1547 -0.3460
33910SOL    HW1 5007  10.736   3.385   9.672 -1.3155 -0.0666 -0.6919
33910SOL    HW2 5008  10.735   3.528   9.624 -0.2475 -0.0220 -0.5868
33911SOL     OW 5009   3.409   0.722   1.786 -0.5019  0.2389  0.0570
33911SOL    HW1 5010   3.328   0.771   1.798  0.3685  1.3796  1.5242
33911SOL    HW2 5011   3.432   0.690   1.873  0.6507 -0.0288 -0.3232
33912SOL     OW 5012   2.475   3.363   7.750  0.1098 -0.5922  0.0437
33912SOL    HW1 5013   2.526   3.414   7.813  0.6411  0.1971 -0.9796
33912SOL    HW2 5014   2.390   3.407   7.748  0.7432  0.6591 -1.2422
33913SOL     OW 5015   5.536   6.738   5.696  0.1430  0.5647 -0.0322
33913SOL    HW1 5016   5.454   6.689   5.681 -0.7579  1.3145  2.0346
33913SOL    HW2 5017   5.525   6.819   5.646  0.3795 -0.0548 -1.1199
33914SOL     OW 5018   6.780   1.238   0.846 -0.0033 -0.4453 -0.3288
33914SOL    HW1 5019   6.806   1.213   0.758  0.8371 -0.4085 -0.0974
33914SOL    HW2 5020   6.838   1.188   0.904 -0.6986 -0.6541  0.2157
33915SOL     OW 5021   9.441   8.627   0.061 -0.3377 -0.4620  0.6867
33915SOL    HW1 5022   9.502   8.595  -0.006 -0.3436 -0.3922  0.6470
33915SOL    HW2 5023   9.429   8.553   0.120  0.5105 -0.1918  1.2180
33916SOL     OW 5024   2.161   8.180  11.132  0.2399 -0.2274 -0.4562
33916SOL    HW1 5025   2.116   8.150  11.211  0.6875  0.6391  0.1482
33916SOL    HW2 5026   2.100   8.240  11.091 -0.5020 -1.6242 -1.4612
33917SOL     OW 5027   5.086   8.954   2.670  0.6234  0.1166 -0.5123
33917SOL    HW1 5028   5.142   8.892   2.623  0.4197 -1.0517  0.6916
33917SOL    HW2 5029   4.997   8.925   2.650  0.5282 -0.0718  0.1440
33918SOL     OW 5030   8.937   0.759   1.541 -0.7183  0.0237 -0.2960
33918SOL    HW1 5031   9.024   0.759   1.583 -1.1176 -3.2566  0.8177
33918SOL    HW2 5032   8.876   0.775   1.613 -1.1260  0.6386 -0.7754
33919SOL     OW 5033   6.656   5.567  10.438 -0.1650  0.5726 -0.3816
33919SOL    HW1 5034   6.666   5.500  10.505  1.0184  0.6555 -0.4444
33919SOL    HW2 5035   6.745   5.600  10.424 -0.8579  3.4074  0.9258
33920SOL     OW 5036   3.633   7.035  10.501 -0.4809  0.6795  0.0154
33920SOL    HW1 5037   3.644   7.020  10.407 -0.4253  0.1643  0.1045
33920SOL    HW2 5038   3.680   7.117  10.518 -1.3713  1.3415 -0.5967
33921SOL     OW 5039   0.361   2.806   2.976 -0.1235 -0.7636  0.1360
33921SOL    HW1 5040   0.289   2.862   2.946 -0.0397 -0.0015  1.2737
33921SOL    HW2 5041   0.351   2.804   3.071  1.9812  0.2600  0.4377
33922SOL     OW 5042   4.133   9.794   1.955 -0.3481 -0.1114 -0.7647
33922SOL    HW1 5043   4.091   9.880   1.965 -0.7902 -0.3815 -0.2678
33922SOL    HW2 5044   4.114   9.769   1.864 -2.6041 -0.9031 -0.1399
33923SOL     OW 5045   9.408  10.728   8.400  0.2911  0.1278 -0.6781
33923SOL    HW1 5046   9.401  10.756   8.492  0.6172 -0.3965 -0.4853
33923SOL    HW2 5047   9.495  10.757   8.373  0.9952 -1.4048 -0.2063
33924SOL     OW 5048   9.309   3.326  10.091  0.3397 -0.0011 -0.1728
33924SOL    HW1 5049   9.381   3.295  10.035  0.8585 -1.3723  1.1981
33924SOL    HW2 5050   9.234   3.330  10.033  0.7919 -1.6906 -0.9368
33925SOL     OW 5051   8.557   3.197   2.981  0.2811 -0.2308 -0.2914
33925SOL    HW1 5052   8.623   3.189   3.050  1.0011 -2.5652 -1.1429
33925SOL    HW2 5053   8.474   3.202   3.028  0.9486  1.7289  0.7763
33926SOL     OW 5054   1.697   4.541   1.997 -0.2207  0.0490  0.1962
33926SOL    HW1 5055   1.787   4.549   2.027 -0.7358  0.7402  1.6409
33926SOL    HW2 5056   1.662   4.465   2.044 -0.6381  0.2909  0.2803
33927SOL     OW 5057   7.489   6.105   3.842 -0.1419  0.0886  0.3265
33927SOL    HW1 5058   7.436   6.155   3.781  1.2163  0.6075 -0.4651
33927SOL    HW2 5059   7.483   6.015   3.811  1.3200  0.4813 -1.2053
33928SOL     OW 5060   6.005   8.251   4.391  0.0175  0.1967 -0.0335
33928SOL    HW1 5061   5.996   8.327   4.333 -2.5363 -0.1570 -0.2464
33928SOL    HW2 5062   5.996   8.175   4.332 -1.4240 -0.1774  0.6260
33929SOL     OW 5063   8.913  10.160   9.709 -0.1459 -0.4153  0.1689
33929SOL    HW1 5064   9.005  10.149   9.686  0.2208  0.6983  1.0391
33929SOL    HW2 5065   8.909  10.145   9.803 -0.8528 -0.4426  0.1432
33930SOL     OW 5066  10.658   4.616   2.268 -0.6727  0.1513 -0.0303
33930SOL    HW1 5067  10.592   4.562   2.225  0.9347 -0.1563 -2.2823
33930SOL    HW2 5068  10.679   4.684   2.204 -0.8243  2.0117  1.7645
33931SOL     OW 5069   9.191   9.556  11.357  0.3951 -0.0221 -0.4512
33931SOL    HW1 5070   9.153   9.504  11.287  0.5328 -0.5677 -0.1249
33931SOL    HW2 5071   9.250   9.496  11.403 -0.2578  0.1122  0.5949
33932SOL     OW 5072  11.097   1.958  10.310 -0.0777  0.3388  0.7132
33932SOL    HW1 5073  11.099   2.044  10.270  0.9426 -0.2016 -0.4550
33932SOL    HW2 5074  11.186   1.945  10.343 -0.4377  0.0509  1.6041
33933SOL     OW 5075   1.024   6.484   2.579 -0.8885  0.8553  0.3416
33933SOL    HW1 5076   1.120   6.491   2.573 -0.4025 -0.6715  3.6775
33933SOL    HW2 5077   1.005   6.397   2.546 -1.1409  1.1453 -0.2852
33934SOL     OW 5078  11.350  10.546   9.019  0.0606  0.0582  0.2182
33934SOL    HW1 5079  11.383  10.460   9.045  2.8422  0.7942 -0.4681
33934SOL    HW2 5080  11.428  10.603   9.022 -1.3474  2.1789 -0.9012
33935SOL     OW 5081  11.168   3.161   2.706 -0.2356  0.5084 -0.4076
33935SOL    HW1 5082  11.131   3.157   2.618  0.6551  1.4645 -0.8484
33935SOL    HW2 5083  11.195   3.072   2.726 -2.4971 -0.1767 -0.1756
33936SOL     OW 5084   5.552   5.939  10.630 -0.5489  0.2603 -0.2958
33936SOL    HW1 5085   5.514   5.880  10.695  0.6205  0.0380  0.1991
33936SOL    HW2 5086   5.506   6.022  10.644 -1.5570 -0.2686 -0.3902
33937SOL     OW 5087   9.517   2.231   3.994  0.6813 -0.5762 -0.5644
33937SOL    HW1 5088   9.605   2.195   3.981  1.5431  1.4661 -0.9239
33937SOL    HW2 5089   9.510   2.242   4.089  0.2398 -1.9768 -0.4099
33938SOL     OW 5090   2.868   0.564   0.613 -0.0701 -0.1911  0.2317
33938SOL    HW1 5091   2.802   0.498   0.630  0.0836 -0.8778 -1.6682
33938SOL    HW2 5092   2.925   0.561   0.690 -0.4350 -1.8129  0.4696
33939SOL     OW 5093   7.889   1.626   7.704  0.3025  0.4793 -0.0453
33939SOL    HW1 5094   7.942   1.679   7.645 -0.3361  0.6717 -0.4593
33939SOL    HW2 5095   7.952   1.568   7.748  0.5475 -1.5557 -2.8122
33940SOL     OW 5096  11.378   5.928   8.917  0.1607  0.1057 -0.7196
33940SOL    HW1 5097  11.310   5.991   8.945 -0.5246 -0.5090 -0.9668
33940SOL    HW2 5098  11.334   5.874   8.852  0.3298 -1.4964  0.4538
33941SOL     OW 5099   8.685  10.513   9.490  0.5203 -0.3068  0.1024
33941SOL    HW1 5100   8.693  10.425   9.526  0.8557 -0.5898 -0.6396
33941SOL    HW2 5101   8.693  10.571   9.566  2.4006 -0.8335  0.3479
33942SOL     OW 5102   2.900   8.134   6.741 -0.0098  0.5438  0.0588
33942SOL    HW1 5103   2.883   8.043   6.766 -1.4860  0.3140 -1.5961
33942SOL    HW2 5104   2.817   8.179   6.755 -0.1598  0.9513 -1.9127
33943SOL     OW 5105  10.622   3.599   2.078 -0.0456 -0.5945 -0.0042
33943SOL    HW1 5106  10.673   3.648   2.143 -0.4334 -0.6517  0.3431
33943SOL    HW2 5107  10.597   3.665   2.013 -1.1972 -0.1632  0.8406
33944SOL     OW 5108   4.682   9.278   5.043 -0.1434  0.1071 -0.2981
33944SOL    HW1 5109   4.773   9.253   5.026  0.1350  1.6944 -1.4206
33944SOL    HW2 5110   4.668   9.258   5.136  1.8982  1.3501  0.3350
33945SOL     OW 5111   3.476   6.908   7.981  0.0361  0.1572 -0.6640
33945SOL    HW1 5112   3.465   7.002   7.998  1.0558  0.1298  0.2962
33945SOL    HW2 5113   3.552   6.883   8.034 -1.0785 -1.5181  0.2414
33946SOL     OW 5114   7.856   0.625   7.159 -0.4067 -0.4195 -0.0828
33946SOL    HW1 5115   7.841   0.539   7.199 -2.7468 -0.9375 -1.8667
33946SOL    HW2 5116   7.772   0.671   7.167  0.5250  1.3776 -0.0051
33947SOL     OW 5117   8.610   4.110   3.000  0.4452  0.5560  0.5638
33947SOL    HW1 5118   8.666   4.157   3.063  1.5596 -0.4182  0.3311
33947SOL    HW2 5119   8.665   4.038   2.968 -0.9098 -0.3518  0.2110
33948SOL     OW 5120   6.738   0.182   7.491  0.3127  0.3329  0.3870
33948SOL    HW1 5121   6.701   0.270   7.496  2.5817  1.3408  1.1142
33948SOL    HW2 5122   6.826   0.191   7.528  0.3596 -2.4226  1.1816
33949SOL     OW 5123  10.118   6.397   0.723 -0.2590  0.2467 -0.2814
33949SOL    HW1 5124  10.060   6.426   0.652 -0.6693 -0.9376 -0.4542
33949SOL    HW2 5125  10.166   6.324   0.685  1.1126  0.9758 -0.0222
33950SOL     OW 5126   0.017   0.854   9.013 -0.4224  0.1405 -0.5316
33950SOL    HW1 5127   0.107   0.824   9.021 -0.0853  1.3115  0.2481
33950SOL    HW2 5128  -0.032   0.776   8.986  0.8803 -0.4050 -1.4038
33951SOL     OW 5129   8.816   0.011  11.261  0.0643  0.1730  0.5703
33951SOL    HW1 5130   8.850  -0.078  11.257 -0.7688 -0.1190 -0.6324
33951SOL    HW2 5131   8.862   0.051  11.335  0.8180 -1.0899  0.8186
33952SOL     OW 5132   6.586   8.125   5.998  0.4877 -0.0347 -0.6161
33952SOL    HW1 5133   6.656   8.161   5.944  0.0118 -1.0604 -1.9671
33952SOL    HW2 5134   6.529   8.200   6.017  1.9131  0.8052  0.4986
33953SOL     OW 5135  11.096   7.230   3.066  0.6478  0.2884  0.3076
33953SOL    HW1 5136  11.029   7.298   3.062 -1.2907 -1.3339  2.3568
33953SOL    HW2 5137  11.064   7.170   3.134  2.5774 -2.3116 -0.9379
33954SOL     OW 5138   3.341   7.361  10.931  0.5686 -0.4834  0.1795
33954SOL    HW1 5139   3.343   7.413  11.011 -1.5156 -0.8905  0.5347
33954SOL    HW2 5140   3.299   7.279  10.956 -3.2866  0.6237 -1.9212
33955SOL     OW 5141   9.313   5.210   9.267 -0.1180 -0.4963  0.7544
33955SOL    HW1 5142   9.267   5.291   9.289  1.2137  0.5745 -0.2494
33955SOL    HW2 5143   9.389   5.209   9.324  0.0451 -0.8822  0.5305
33956SOL     OW 5144   5.066   5.961   6.308  0.0249  0.2494 -0.1275
33956SOL    HW1 5145   5.136   5.916   6.354 -0.3770  0.6239  0.8626
33956SOL    HW2 5146   4.996   5.970   6.372 -1.2283 -0.7543 -1.2930
33957SOL     OW 5147   4.509   9.376  10.083 -0.4568  0.0390 -0.1324
33957SOL    HW1 5148   4.424   9.356  10.122 -0.5893  2.7856  1.2097
33957SOL    HW2 5149   4.505   9.468  10.060  1.2363 -0.4186 -2.6969
33958SOL     OW 5150   3.851   0.244   1.040 -0.1283 -0.1309  0.1272
33958SOL    HW1 5151   3.941   0.243   1.071 -0.2295  0.0782  0.4255
33958SOL    HW2 5152   3.857   0.272   0.948 -0.1004  2.3151  0.8175
33959SOL     OW 5153  10.923  10.260   5.797  0.5610 -0.1001 -0.5851
33959SOL    HW1 5154  10.982  10.334   5.787  0.7110 -0.2672 -0.9263
33959SOL    HW2 5155  10.907  10.229   5.708 -1.7589  1.2782 -0.7255
33960SOL     OW 5156   3.043   9.916   6.803  0.2475  0.1222 -0.5380
33960SOL    HW1 5157   3.028   9.981   6.734 -2.0873  2.1434  1.6414
33960SOL    HW2 5158   3.126   9.941   6.842 -0.4736  1.7078  0.0652
33961SOL     OW 5159   0.198  10.613   2.797 -0.1650 -0.4188 -0.1944
33961SOL    HW1 5160   0.255  10.540   2.821 -0.2420 -0.2237  0.6178
33961SOL    HW2 5161   0.173  10.652   2.880  1.6844  1.9239 -0.6066
33962SOL     OW 5162   3.671   8.191   8.757  0.3432 -0.1860  0.0943
33962SOL    HW1 5163   3.634   8.122   8.811 -1.7969  0.2144 -0.7852
33962SOL    HW2 5164   3.681   8.151   8.670 -0.4962  0.4614 -0.3116
33963SOL     OW 5165   5.341   2.508   9.812 -0.5066 -0.0447 -0.0556
33963SOL    HW1 5166   5.359   2.591   9.857  0.5452 -0.8414  1.0572
33963SOL    HW2 5167   5.305   2.534   9.727  0.3858  1.5709  0.0233
33964SOL     OW 5168  11.399  10.429   4.274  0.4841 -0.5599  0.3876
33964SOL    HW1 5169  11.372  10.337   4.280 -0.3503 -0.4600 -1.3655
33964SOL    HW2 5170  11.334  10.476   4.326  0.3887 -0.8673  0.5505
33965SOL     OW 5171   9.856   1.673   7.242 -0.2644 -0.0521 -0.7728
33965SOL    HW1 5172   9.760   1.682   7.240 -0.1654  0.9924 -1.7737
33965SOL    HW2 5173   9.889   1.761   7.220  0.9254 -0.3883 -0.3947
33966SOL     OW 5174   2.778  10.415   3.599  0.0557 -0.1464  0.2274
33966SOL    HW1 5175   2.811  10.335   3.639 -0.0298 -0.4502 -0.3017
33966SOL    HW2 5176   2.745  10.388   3.513  1.1220  0.6397 -0.4619
33967SOL     OW 5177   2.615   3.663   8.813 -0.4749 -0.1827 -1.1690
33967SOL    HW1 5178   2.561   3.741   8.802 -0.8249 -0.5054 -1.7999
33967SOL    HW2 5179   2.700   3.697   8.844 -1.0738  0.3087  0.0040
33968SOL     OW 5180   2.296   0.303   0.262 -0.6716 -0.1081  0.8931
33968SOL    HW1 5181   2.327   0.394   0.268  0.7063 -0.5114  0.3143
33968SOL    HW2 5182   2.316   0.277   0.172 -0.6532 -1.1241  1.1805
33969SOL     OW 5183  11.243   9.263   2.677 -0.1877 -0.1474 -0.1517
33969SOL    HW1 5184  11.338   9.277   2.678 -0.1569 -0.2858 -0.8840
33969SOL    HW2 5185  11.219   9.257   2.770  0.5504 -0.3340  0.0345
33970SOL     OW 5186   3.917  11.379   3.691 -0.0254 -0.4886  0.0826
33970SOL    HW1 5187   3.853  11.442   3.658 -0.5706 -1.5613 -1.0292
33970SOL    HW2 5188   3.947  11.415   3.774 -0.4043  1.1445 -0.4644
33971SOL     OW 5189   4.934   6.937   3.788  0.3765  0.4256 -0.0557
33971SOL    HW1 5190   5.005   6.873   3.799 -0.9081 -1.0062  0.1689
33971SOL    HW2 5191   4.935   6.987   3.870  0.9320  0.1968  0.0845
33972SOL     OW 5192   8.619   1.709   5.540 -0.2248  0.3493 -0.2105
33972SOL    HW1 5193   8.580   1.707   5.627  2.3597 -0.0670  1.0405
33972SOL    HW2 5194   8.551   1.675   5.482 -0.9958 -2.4262  2.1067
33973SOL     OW 5195   8.784   4.152   9.586  0.7213  0.1015  0.3461
33973SOL    HW1 5196   8.821   4.084   9.531  0.5835 -0.5884  1.0947
33973SOL    HW2 5197   8.689   4.145   9.573  0.6984  0.0509  0.5437
33974SOL     OW 5198  10.641   2.187   9.440 -0.0897 -0.5649 -0.6547
33974SOL    HW1 5199  10.724   2.222   9.473 -0.8993  0.6223  0.2166
33974SOL    HW2 5200  10.624   2.110   9.495  0.3716 -0.7317 -0.7445
33975SOL     OW 5201  10.972  10.805   6.960 -0.8427  0.6978  0.3518
33975SOL    HW1 5202  10.938  10.815   7.048  0.7153 -1.3938  1.2683
33975SOL    HW2 5203  11.028  10.881   6.947 -1.8626  1.5399  0.7436
33976SOL     OW 5204   8.437  10.790   6.981 -0.2516  0.0681  0.3764
33976SOL    HW1 5205   8.351  10.809   7.019 -2.0048 -3.6971 -1.1541
33976SOL    HW2 5206   8.477  10.729   7.042  0.4003  0.1263  0.0136
33977SOL     OW 5207   2.493   6.219   5.013 -0.4638 -0.0470  0.2348
33977SOL    HW1 5208   2.498   6.240   4.920 -1.8364 -1.3891 -0.1641
33977SOL    HW2 5209   2.532   6.132   5.020  0.1479  0.2711  1.0320
33978SOL     OW 5210  10.896   9.470   5.770 -0.1220 -0.0243  0.4382
33978SOL    HW1 5211  10.808   9.450   5.802 -0.2570 -0.4333 -0.1683
33978SOL    HW2 5212  10.943   9.502   5.847 -0.3572 -1.2268  1.1133
33979SOL     OW 5213   5.758   8.190   3.075 -0.2591  0.5244  0.1687
33979SOL    HW1 5214   5.759   8.104   3.115  1.3975  0.7142  0.6235
33979SOL    HW2 5215   5.815   8.182   2.998  0.7275  1.4414  0.7759
33980SOL     OW 5216   9.371   5.100   4.307  0.0978  0.0658  0.5451
33980SOL    HW1 5217   9.422   5.158   4.363  0.3256  0.5092 -0.1015
33980SOL    HW2 5218   9.436   5.055   4.253 -0.1854  0.7425 -0.3851
33981SOL     OW 5219   9.293   4.429   6.606 -0.0829  0.0427  0.5807
33981SOL    HW1 5220   9.358   4.390   6.665 -0.4119 -0.1448  0.8173
33981SOL    HW2 5221   9.234   4.357   6.584 -0.1860  0.2031  0.3263
33982SOL     OW 5222   8.444   3.281   8.831  0.3686  0.1495 -0.1983
33982SOL    HW1 5223   8.420   3.231   8.909 -1.3517  0.3442 -0.5588
33982SOL    HW2 5224   8.525   3.239   8.800  0.7249 -0.3332  1.3098
33983SOL     OW 5225   3.092   0.879   7.169 -0.1153 -0.1855  0.3358
33983SOL    HW1 5226   3.027   0.811   7.149 -1.4424  0.9267  0.7772
33983SOL    HW2 5227   3.113   0.917   7.084 -0.7150  0.0419  0.2848
33984SOL     OW 5228   5.456  10.827   3.854 -0.1002 -0.0204  0.0625
33984SOL    HW1 5229   5.535  10.780   3.882  1.6632  1.9499 -1.3262
33984SOL    HW2 5230   5.402  10.760   3.813  1.6402 -1.1542 -0.5098
33985SOL     OW 5231   1.540   9.238   3.263 -0.1651  0.1135  0.4761
33985SOL    HW1 5232   1.584   9.154   3.277 -0.4659  0.0534  1.1227
33985SOL    HW2 5233   1.556   9.287   3.343  0.0215  0.6832  0.0902
33986SOL     OW 5234  10.434   4.730  10.375 -0.3196 -0.5438 -0.4384
33986SOL    HW1 5235  10.369   4.661  10.360 -0.3625  0.0680 -3.7881
33986SOL    HW2 5236  10.394   4.809  10.337  1.4813  0.3269 -0.6244
33987SOL     OW 5237   7.981   6.604   1.652  0.3195 -0.1501 -0.2411
33987SOL    HW1 5238   8.056   6.663   1.644  0.3181  0.4850  3.2193
33987SOL    HW2 5239   7.980   6.556   1.569  1.9761  2.7273 -2.0883
33988SOL     OW 5240   6.808   0.577   7.344 -0.1264  0.0915 -0.0611
33988SOL    HW1 5241   6.746   0.547   7.411  1.3178 -0.0031  1.3184
33988SOL    HW2 5242   6.869   0.504   7.334  0.2060  0.4664 -0.8214
33989SOL     OW 5243   3.778   2.081   7.411  0.4867  0.4541  0.4005
33989SOL    HW1 5244   3.806   2.069   7.502 -0.0670 -0.7644  0.4333
33989SOL    HW2 5245   3.859   2.099   7.364  0.7975  0.9926  1.1108
33990SOL     OW 5246   4.137   7.488   0.058 -0.2959  0.0600 -0.1689
33990SOL    HW1 5247   4.061   7.435   0.033 -1.5987  1.5702  0.3954
33990SOL    HW2 5248   4.109   7.534   0.137 -0.1955  3.4411 -1.9309
33991SOL     OW 5249   0.130   5.976   5.308  0.6259  0.0548  0.1762
33991SOL    HW1 5250   0.112   5.899   5.363  1.0197  0.3459  0.7274
33991SOL    HW2 5251   0.224   5.991   5.318  0.5150  0.7362  0.2523
33992SOL     OW 5252   1.634   9.455   4.594  0.2387  0.4045  0.2380
33992SOL    HW1 5253   1.669   9.425   4.678  1.6330 -1.9572 -1.0846
33992SOL    HW2 5254   1.541   9.432   4.597  0.5008 -0.6639  0.7467
33993SOL     OW 5255   1.054   5.798   2.940  0.5147 -0.3350  0.2608
33993SOL    HW1 5256   1.042   5.704   2.931 -1.5753 -0.1267  0.3139
33993SOL    HW2 5257   1.026   5.834   2.855 -1.1318  0.3522  1.0380
33994SOL     OW 5258   0.572   5.382  10.146 -0.2144  0.0529  0.3929
33994SOL    HW1 5259   0.591   5.382  10.052  1.4190  0.1247  0.6851
33994SOL    HW2 5260   0.517   5.460  10.159  1.7974  1.6638 -0.1465
33995SOL     OW 5261   1.197   0.843   5.201 -0.2930 -0.3043  0.7832
33995SOL    HW1 5262   1.181   0.893   5.281  0.0021 -1.5599  1.6679
33995SOL    HW2 5263   1.270   0.785   5.224  1.8108  1.2877 -1.3064
33996SOL     OW 5264   8.709  10.895   0.281  0.0564  0.1993  0.0577
33996SOL    HW1 5265   8.654  10.819   0.265  1.4928 -1.1041  1.0311
33996SOL    HW2 5266   8.700  10.913   0.374  0.0842  0.9584 -0.0720
33997SOL     OW 5267   6.286   3.757   0.891  0.0877  0.0048 -0.1370
33997SOL    HW1 5268   6.365   3.809   0.878 -0.0382  0.3891  0.5545
33997SOL    HW2 5269   6.317   3.674   0.926  0.2361 -0.0876 -0.4929
33998SOL     OW 5270  10.577   1.596   7.407  0.1097  0.6919  0.2839
33998SOL    HW1 5271  10.558   1.612   7.500  0.3095 -1.4663  0.7324
33998SOL    HW2 5272  10.638   1.523   7.407 -1.1320 -0.4044 -1.6043
33999SOL     OW 5273   7.264   8.138   4.064 -0.0023 -0.5753 -0.0829
33999SOL    HW1 5274   7.344   8.138   4.010  0.0475 -1.2872 -0.0170
33999SOL    HW2 5275   7.231   8.049   4.056 -2.7058  0.4967 -2.9416
34000SOL     OW 5276   5.916   3.385   6.113 -0.4934 -0.2546  0.7308
34000SOL    HW1 5277   5.903   3.418   6.024 -1.8063  0.1233  1.0466
34000SOL    HW2 5278   5.939   3.463   6.164  0.4850 -0.5051  0.6965
34001SOL     OW 5279   2.697  10.343  10.466  0.0189 -0.4976  0.5384
34001SOL    HW1 5280   2.780  10.332  10.513  1.2153  2.2825 -0.7049
34001SOL    HW2 5281   2.720  10.331  10.373 -0.8985  0.5672  0.1520
34002SOL     OW 5282   9.812   7.670   5.799 -0.4398  0.0808  0.5649
34002SOL    HW1 5283   9.828   7.638   5.711  1.7919 -1.7631  1.5069
34002SOL    HW2 5284   9.788   7.591   5.849  0.2932  0.7164  1.9743
34003SOL     OW 5285   5.678   0.173   8.624 -0.7989  0.3388 -0.4028
34003SOL    HW1 5286   5.634   0.103   8.672 -1.3346  2.3310  2.2152
34003SOL    HW2 5287   5.769   0.169   8.653 -1.0813  1.4243  0.7146
34004SOL     OW 5288   0.181   8.597   6.452 -0.8586  0.3844  0.2773
34004SOL    HW1 5289   0.260   8.601   6.398 -2.2298  0.7377 -1.8324
34004SOL    HW2 5290   0.202   8.534   6.521  0.5045 -1.2665 -1.5325
34005SOL     OW 5291   5.060   8.494   8.570 -0.3296  0.0722  0.6555
34005SOL    HW1 5292   4.965   8.506   8.567 -0.2400  0.6757 -2.0990
34005SOL    HW2 5293   5.073   8.401   8.553 -0.3899 -0.2965  2.3523
34006SOL     OW 5294   3.351   1.125  10.090 -0.4932  0.0888 -0.1044
34006SOL    HW1 5295   3.365   1.044  10.139  0.8440 -0.0022 -0.5964
34006SOL    HW2 5296   3.383   1.194  10.149  0.4941  0.0370 -0.5544
34007SOL     OW 5297   9.051   7.479   4.321  0.0369  0.0975 -0.1468
34007SOL    HW1 5298   9.046   7.496   4.415  0.0340  1.4020 -0.3620
34007SOL    HW2 5299   8.965   7.446   4.297 -0.0403  0.0075  0.2632
34008SOL     OW 5300  10.114   4.773   9.303  0.1736 -0.6614  0.1297
34008SOL    HW1 5301  10.112   4.788   9.208 -0.2070 -1.1935  0.0463
34008SOL    HW2 5302  10.099   4.858   9.342 -1.1868 -0.6767 -0.3041
34009SOL     OW 5303   9.005   1.197   1.076  0.0798 -0.2090 -0.3271
34009SOL    HW1 5304   9.026   1.189   0.983  1.0178  2.6884 -0.4547
34009SOL    HW2 5305   8.910   1.184   1.081  0.2279 -1.9838 -1.4066
34010SOL     OW 5306  10.422   5.868   1.615 -0.3546 -0.0855 -0.2597
34010SOL    HW1 5307  10.470   5.801   1.663 -2.1206 -0.9657  0.3568
34010SOL    HW2 5308  10.386   5.925   1.682  0.7086  1.2243 -0.7617
34011SOL     OW 5309   2.532   2.897   7.322  0.2122 -0.2006 -0.2433
34011SOL    HW1 5310   2.577   2.884   7.405 -1.0581  0.8840  0.6727
34011SOL    HW2 5311   2.450   2.940   7.346 -0.6260 -0.7363 -1.9816
34012SOL     OW 5312   2.316   3.921   7.153  0.1850  0.6990  0.1172
34012SOL    HW1 5313   2.285   3.891   7.238 -2.1632  0.9610 -0.5759
34012SOL    HW2 5314   2.391   3.865   7.134  0.5065  0.3586  2.1513
34013SOL     OW 5315   1.977   8.185   5.241  0.5997  0.3146 -0.1394
34013SOL    HW1 5316   2.003   8.103   5.200 -0.4658  0.4550 -1.1582
34013SOL    HW2 5317   1.881   8.183   5.240  0.5168  2.0248 -1.1939
34014SOL     OW 5318   1.737   6.172   6.457  0.3412  0.5533  0.4654
34014SOL    HW1 5319   1.676   6.196   6.386  0.0396  1.8020  1.1296
34014SOL    HW2 5320   1.704   6.219   6.534  0.5685 -0.9127  1.4928
34015SOL     OW 5321   4.261   8.953   5.896  0.0992  0.4329  0.3528
34015SOL    HW1 5322   4.335   8.896   5.874  1.9556  2.0990  1.7707
34015SOL    HW2 5323   4.189   8.894   5.915  1.1205 -1.2899 -0.8730
34016SOL     OW 5324   2.175   9.886   7.520 -0.1697  0.6638  0.7699
34016SOL    HW1 5325   2.136   9.805   7.554 -1.2490  1.1047  0.6288
34016SOL    HW2 5326   2.214   9.860   7.437 -0.8664  0.3658  0.5262
34017SOL     OW 5327   6.256   6.110   8.336  0.1589  0.0765  0.2510
34017SOL    HW1 5328   6.278   6.051   8.264 -0.6443 -0.0677  0.1114
34017SOL    HW2 5329   6.294   6.194   8.310 -0.8085  0.2339 -0.7584
34018SOL     OW 5330   2.396   8.791   7.386 -0.0425  0.0040  0.3833
34018SOL    HW1 5331   2.371   8.852   7.455 -1.7272  0.7025 -0.7751
34018SOL    HW2 5332   2.404   8.846   7.308  2.1370 -0.7178  0.0323
34019SOL     OW 5333   0.640   2.123   1.760 -0.4161  0.1008  0.1091
34019SOL    HW1 5334   0.575   2.060   1.791 -0.4571  0.6983  1.2732
34019SOL    HW2 5335   0.588   2.193   1.720 -0.5347  0.7468  1.3485
34020SOL     OW 5336   9.376   4.099   2.411 -0.9026  0.1222 -0.0792
34020SOL    HW1 5337   9.378   4.159   2.337 -0.2897 -0.8791 -0.8937
34020SOL    HW2 5338   9.377   4.156   2.488  1.7975  1.1502 -0.7851
34021SOL     OW 5339   5.675   8.517  10.608  0.1710 -0.2247 -0.7934
34021SOL    HW1 5340   5.710   8.606  10.619  0.5131 -0.4539 -0.0465
34021SOL    HW2 5341   5.580   8.528  10.616  0.1817  0.1377 -1.1308
34022SOL     OW 5342   6.014   5.424   3.006 -0.1565 -0.1773  0.0856
34022SOL    HW1 5343   6.046   5.499   2.956 -0.1470  1.3153  2.2142
34022SOL    HW2 5344   6.016   5.352   2.943  0.3174  1.4572 -1.9111
34023SOL     OW 5345   7.365   8.910  10.285 -0.1698  0.1804  0.0131
34023SOL    HW1 5346   7.277   8.920  10.248  0.2709 -0.5547 -1.3199
34023SOL    HW2 5347   7.351   8.868  10.370 -1.0897 -0.2011 -0.3155
34024SOL     OW 5348   6.648   1.599   1.281  0.3373  0.5008 -0.6939
34024SOL    HW1 5349   6.712   1.669   1.266  0.1426  0.4202 -2.0128
34024SOL    HW2 5350   6.699   1.528   1.321  0.5042  1.4152  0.8116
34025SOL     OW 5351   3.290   5.468  10.800 -0.0559 -0.4517  0.6032
34025SOL    HW1 5352   3.252   5.414  10.869  1.6215 -1.7257  0.5901
34025SOL    HW2 5353   3.380   5.485  10.829  0.6180 -0.8348 -1.1314
34026SOL     OW 5354   5.463   8.111   6.952 -0.0532 -0.4340  0.2846
34026SOL    HW1 5355   5.521   8.074   7.018  0.4703  0.1884  0.1831
34026SOL    HW2 5356   5.386   8.054   6.953 -0.0144 -0.4874  1.3537
34027SOL     OW 5357   1.076   2.115   5.151  0.0569 -0.4856  0.3651
34027SOL    HW1 5358   1.156   2.071   5.123  0.0013  0.5350 -1.5709
34027SOL    HW2 5359   1.101   2.207   5.161 -0.4462 -0.4703  1.6692
34028SOL     OW 5360   0.835   3.540   3.947  0.3292  0.5291  0.0875
34028SOL    HW1 5361   0.889   3.571   3.875  0.9643 -0.5189  0.0887
34028SOL    HW2 5362   0.746   3.538   3.912  0.4393  1.2792 -0.2424
34029SOL     OW 5363   7.039   6.490  10.314 -0.1758  0.1000  0.4607
34029SOL    HW1 5364   7.070   6.478  10.404  2.0502  4.1896  0.5035
34029SOL    HW2 5365   7.113   6.464  10.260  0.0609  1.4749  0.0835
34030SOL     OW 5366   9.622   1.125   0.913 -0.5670 -0.3953 -0.1915
34030SOL    HW1 5367   9.606   1.219   0.918 -0.6697 -0.3710 -0.8511
34030SOL    HW2 5368   9.708   1.113   0.954  1.4796  0.5722 -3.7208
34031SOL     OW 5369   4.052   1.465   3.448  0.0799  0.4971  0.3765
34031SOL    HW1 5370   4.071   1.387   3.499  0.6130  0.6731  0.4508
34031SOL    HW2 5371   4.093   1.536   3.497  0.3134  0.7113 -0.1233
34032SOL     OW 5372   7.931   6.821   3.682  0.2116  0.8374  0.1976
34032SOL    HW1 5373   7.967   6.863   3.604 -0.5713  0.4914 -0.3606
34032SOL    HW2 5374   7.999   6.832   3.749  0.3900  2.1824 -0.1907
34033SOL     OW 5375   4.942   3.086   2.706 -0.2744  0.2006 -0.1959
34033SOL    HW1 5376   4.877   3.088   2.636  0.7603  1.1107 -1.1667
34033SOL    HW2 5377   4.990   3.005   2.691 -0.1260  0.3387 -0.4843
34034SOL     OW 5378   0.648   7.616   8.520  0.3814  0.0603 -0.1214
34034SOL    HW1 5379   0.568   7.625   8.468  0.2019  0.4475  0.2149
34034SOL    HW2 5380   0.643   7.528   8.558  0.8770 -0.5306 -1.3426
34035SOL     OW 5381   7.978   3.083   7.313  0.2697  0.5300  0.9295
34035SOL    HW1 5382   7.952   3.084   7.221 -1.3105  1.3862  1.3631
34035SOL    HW2 5383   7.914   3.027   7.356  0.1809  1.2344  1.7349
34036SOL     OW 5384  10.108   4.166   3.953 -0.3646  0.0152  0.4720
34036SOL    HW1 5385  10.037   4.218   3.915  0.6039  0.4120 -0.8576
34036SOL    HW2 5386  10.177   4.229   3.971 -0.1819 -0.4293  1.3773
34037SOL     OW 5387  10.066   5.493   6.388  0.1800  0.0276  0.1236
34037SOL    HW1 5388  10.043   5.517   6.298  1.3279  0.6796 -0.0120
34037SOL    HW2 5389  10.142   5.436   6.379  1.2836  1.3260  0.7080
34038SOL     OW 5390   3.953   0.423   5.940 -0.2269  0.4346  1.1000
34038SOL    HW1 5391   3.922   0.511   5.959  1.5961  1.0821  1.2699
34038SOL    HW2 5392   3.989   0.392   6.024  1.8775  0.7426  0.3616
34039SOL     OW 5393  10.498   6.401   1.016 -0.4024 -0.0626  0.0731
34039SOL    HW1 5394  10.454   6.329   0.970  0.3192 -1.5922  1.6286
34039SOL    HW2 5395  10.582   6.364   1.042  0.0520  1.4128  0.8104
34040SOL     OW 5396   3.433   8.379   5.512  0.0478  0.3835 -0.6424
34040SOL    HW1 5397   3.409   8.295   5.551  1.2793 -0.7638 -2.2374
34040SOL    HW2 5398   3.390   8.444   5.568 -2.3881 -1.3294 -0.3505
34041SOL     OW 5399   4.557   4.387   4.479 -0.1814 -0.2001  0.4710
34041SOL    HW1 5400   4.621   4.326   4.443  1.2717  1.8242 -0.5686
34041SOL    HW2 5401   4.472   4.348   4.459  0.6784 -1.9729  0.0973
34042SOL     OW 5402   7.452   9.475   0.004  0.1125  0.8035 -0.1219
34042SOL    HW1 5403   7.532   9.423   0.012 -0.4877 -0.2147 -0.4874
34042SOL    HW2 5404   7.393   9.438   0.070  0.0971  1.8623  0.4805
34043SOL     OW 5405   2.816   8.163   9.203 -0.1787  0.8297 -0.1678
34043SOL    HW1 5406   2.790   8.250   9.170 -0.7710  0.9412  0.5785
34043SOL    HW2 5407   2.740   8.108   9.187 -1.3154  1.3678  2.8481
34044SOL     OW 5408   6.558   8.299   7.118  0.1379  0.1085 -0.4711
34044SOL    HW1 5409   6.645   8.339   7.126 -0.1898  0.5909  1.0479
34044SOL    HW2 5410   6.572   8.206   7.135  0.0428  0.5501  2.6797
34045SOL     OW 5411   1.125   3.448   5.775  0.6436  0.1214 -0.1287
34045SOL    HW1 5412   1.209   3.419   5.738  1.0899  1.6821 -0.3775
34045SOL    HW2 5413   1.062   3.383   5.744  1.4954 -0.2006 -1.2584
34046SOL     OW 5414   9.591   2.092   9.230  0.1821  0.1122  0.4585
34046SOL    HW1 5415   9.500   2.075   9.204 -0.5562  0.9426  2.2902
34046SOL    HW2 5416   9.642   2.025   9.185 -1.1143  0.5519 -1.8324
34047SOL     OW 5417  11.077   4.251   8.356  0.4052  0.4413  0.1281
34047SOL    HW1 5418  11.119   4.179   8.402 -0.5126 -1.2238 -1.5056
34047SOL    HW2 5419  11.036   4.303   8.425  1.7183 -0.1512  1.4070
34048SOL     OW 5420   5.631   3.685  10.007 -0.4504  0.0393 -0.3685
34048SOL    HW1 5421   5.682   3.621  10.056 -1.6377 -0.5589  0.1146
34048SOL    HW2 5422   5.679   3.767  10.018 -0.4800 -0.1600  1.4926
34049SOL     OW 5423   7.613   1.681   5.439 -0.5819  0.2016 -0.4926
34049SOL    HW1 5424   7.533   1.667   5.390 -1.4163  3.7621 -0.3645
34049SOL    HW2 5425   7.584   1.710   5.525  0.8600  0.6037 -0.1160
34050SOL     OW 5426   5.484   1.004   1.682  0.8839 -0.2962  0.0145
34050SOL    HW1 5427   5.541   0.927   1.674  0.6924 -0.4449  0.0533
34050SOL    HW2 5428   5.468   1.032   1.592  1.3042 -0.0388  0.0177
34051SOL     OW 5429   3.917   2.920   5.382 -0.4144 -0.0051 -0.1666
34051SOL    HW1 5430   3.979   2.903   5.453 -0.4013 -0.5383 -0.3021
34051SOL    HW2 5431   3.968   2.911   5.302 -0.1280  1.8537 -0.2269
34052SOL     OW 5432   9.570   9.194   2.637 -0.1604 -0.0650 -0.0625
34052SOL    HW1 5433   9.478   9.174   2.619 -0.6085  2.2960 -0.7410
34052SOL    HW2 5434   9.574   9.290   2.636  2.0299 -0.0852  1.4542
34053SOL     OW 5435   0.097  10.608  10.068  0.3343  0.1281  0.3932
34053SOL    HW1 5436   0.008  10.626  10.038  0.2431  0.4120  0.8148
34053SOL    HW2 5437   0.098  10.514  10.084  0.2581  0.0435 -0.0827
34054SOL     OW 5438   8.901  11.094   7.243 -0.4744  0.2138  0.3183
34054SOL    HW1 5439   8.829  11.158   7.243  0.2985  1.1053  0.4603
34054SOL    HW2 5440   8.963  11.129   7.308  0.1890 -0.4210  0.0293
34055SOL     OW 5441   3.694   2.453   2.498  0.1753  0.0802  0.3552
34055SOL    HW1 5442   3.686   2.500   2.415 -1.2434  1.3884  1.1961
34055SOL    HW2 5443   3.621   2.391   2.498 -0.0768  0.3743  0.7979
34056SOL     OW 5444   5.071   4.094   1.527 -0.4252  0.0185  0.1736
34056SOL    HW1 5445   5.131   4.036   1.573  2.9208  2.6010 -0.5330
34056SOL    HW2 5446   5.077   4.066   1.435 -0.1782  0.3695  0.0814
34057SOL     OW 5447   0.620  10.192   2.612 -0.4146  0.2009 -0.8614
34057SOL    HW1 5448   0.630  10.132   2.538 -1.0298 -0.2856 -0.5658
34057SOL    HW2 5449   0.560  10.260   2.580  2.0746  1.9997 -1.9681
34058SOL     OW 5450   9.076  10.172   8.580 -0.2077 -0.1320 -0.2550
34058SOL    HW1 5451   9.137  10.245   8.569  0.6611 -0.5179  1.7339
34058SOL    HW2 5452   8.992  10.213   8.601 -0.0462  0.3234 -0.4985
34059SOL     OW 5453   9.793   6.348   2.750  0.1564  0.2940 -0.1635
34059SOL    HW1 5454   9.862   6.410   2.774 -0.9815  1.6901 -0.3687
34059SOL    HW2 5455   9.810   6.271   2.805  1.3982  0.9105  0.3590
34060SOL     OW 5456   3.913   7.050   6.983 -0.8292  0.2794  0.0435
34060SOL    HW1 5457   3.937   7.142   6.994 -2.7330  0.8632 -0.2686
34060SOL    HW2 5458   3.909   7.016   7.073  1.1098  0.0982  0.1170
34061SOL     OW 5459   1.117   1.906   1.568 -0.5610  0.0810 -0.2123
34061SOL    HW1 5460   1.201   1.861   1.572 -1.1443 -1.0078  1.9906
34061SOL    HW2 5461   1.083   1.887   1.481  0.6711 -0.9945 -0.4918
34062SOL     OW 5462   5.090   0.736   8.184  0.1152 -0.3349  0.0299
34062SOL    HW1 5463   5.081   0.831   8.179 -0.0744 -0.3646 -0.2166
34062SOL    HW2 5464   5.155   0.721   8.252  0.7909  0.0008 -0.5288
34063SOL     OW 5465   9.451   6.020   7.103  0.2886 -0.0577 -0.0853
34063SOL    HW1 5466   9.376   5.995   7.157 -0.5081  1.1924 -0.5605
34063SOL    HW2 5467   9.439   5.974   7.021 -0.9585  1.4794 -0.8126
34064SOL     OW 5468  10.341  10.399   4.329  0.2348 -0.2399 -0.2503
34064SOL    HW1 5469  10.372  10.358   4.410 -0.2944  2.1890  1.3025
34064SOL    HW2 5470  10.247  10.410   4.344  0.3631  1.4797 -0.5808
34065SOL     OW 5471   0.152   7.544   1.924 -0.1087 -0.1037  0.2528
34065SOL    HW1 5472   0.228   7.489   1.939  1.4089  1.7697 -0.1212
34065SOL    HW2 5473   0.149   7.556   1.829 -0.8715 -0.1550  0.2620
34066SOL     OW 5474   9.032   5.935   9.201  0.6255  0.2319  0.5070
34066SOL    HW1 5475   8.953   5.951   9.253  1.1172 -1.5209  1.9087
34066SOL    HW2 5476   9.086   6.013   9.213 -0.5478  1.1189  0.1605
34067SOL     OW 5477   7.066   3.625  10.532  0.2682 -0.8330 -0.2902
34067SOL    HW1 5478   7.104   3.545  10.569 -2.0082 -1.5913  0.5481
34067SOL    HW2 5479   7.064   3.686  10.606  1.2095 -0.2645 -0.7173
34068SOL     OW 5480   5.179   5.430   7.036 -0.2547 -0.1209  0.4680
34068SOL    HW1 5481   5.161   5.524   7.027 -0.7317 -0.2045  0.5418
34068SOL    HW2 5482   5.097   5.387   7.013 -0.0353 -0.5230  0.4259
34069SOL     OW 5483  10.195   5.582   0.631 -0.1707 -0.0617  0.2694
34069SOL    HW1 5484  10.226   5.491   0.633 -0.0645 -0.0173  1.2060
34069SOL    HW2 5485  10.151   5.594   0.715 -0.1592  0.7650  0.1672
34070SOL     OW 5486   3.088  10.045  10.691 -0.4827  0.7092 -0.3802
34070SOL    HW1 5487   3.147  10.110  10.729 -1.1931  0.2697  1.5936
34070SOL    HW2 5488   3.001  10.083  10.699 -0.6745  0.4935 -1.3728
34071SOL     OW 5489   3.939   6.618   7.957  0.1986  0.5129  0.0971
34071SOL    HW1 5490   4.005   6.601   7.889 -0.3502 -1.0766 -0.0841
34071SOL    HW2 5491   3.856   6.623   7.910 -0.1938 -0.6347  0.6269
34072SOL     OW 5492   7.923   2.925   8.335 -0.3639  0.2683  0.0482
34072SOL    HW1 5493   7.894   2.923   8.243 -1.5523 -0.2425  0.4156
34072SOL    HW2 5494   7.844   2.907   8.385  0.3790  0.0384  1.1617
34073SOL     OW 5495   8.485   6.015   5.329 -0.7617  0.4703 -0.5947
34073SOL    HW1 5496   8.403   6.040   5.287 -1.1927 -0.5527 -0.4104
34073SOL    HW2 5497   8.479   5.919   5.337  0.3066  0.4149 -0.2827
34074SOL     OW 5498  11.191   2.863   0.450 -0.1157  0.2915 -0.5921
34074SOL    HW1 5499  11.236   2.881   0.532 -0.2366 -0.1826 -0.4161
34074SOL    HW2 5500  11.109   2.822   0.477 -0.4796  0.7938 -0.9245
34075SOL     OW 5501   9.660  10.798   9.860  0.1327 -0.0093 -0.1429
34075SOL    HW1 5502   9.577  10.773   9.819  0.0948 -1.7450  0.9070
34075SOL    HW2 5503   9.661  10.752   9.943  2.2328 -0.1755 -0.2097
34076SOL     OW 5504   7.168   1.686   0.973  0.4228 -0.3877  0.0110
34076SOL    HW1 5505   7.102   1.617   0.978 -1.1966  1.0447 -0.6111
34076SOL    HW2 5506   7.184   1.711   1.064 -0.5300 -0.1976  0.1349
34077SOL     OW 5507   2.222   7.192   0.444 -0.0568 -0.0005  0.0918
34077SOL    HW1 5508   2.161   7.251   0.400  0.4369  0.1343 -0.4202
34077SOL    HW2 5509   2.277   7.158   0.374 -1.9404 -3.0837 -0.0795
34078SOL     OW 5510   6.468   6.155  11.053  0.2630  0.3290 -0.0904
34078SOL    HW1 5511   6.390   6.144  11.107  0.0049  1.2536 -0.2633
34078SOL    HW2 5512   6.466   6.081  10.993  0.2439 -0.3937  0.7738
34079SOL     OW 5513   3.062  10.159  10.181 -0.5096 -0.1554  0.3789
34079SOL    HW1 5514   3.100  10.247  10.176 -0.6892 -0.1480 -1.4683
34079SOL    HW2 5515   2.989  10.168  10.242 -1.2113  1.2646 -0.6180
34080SOL     OW 5516   4.830   9.789   6.101 -0.3632 -0.5383  0.5042
34080SOL    HW1 5517   4.822   9.885   6.100 -1.3764 -0.6026  1.1209
34080SOL    HW2 5518   4.913   9.773   6.148 -0.4932  0.0258  0.9419
34081SOL     OW 5519   1.896   9.899   5.496  0.7065  0.0468  0.1316
34081SOL    HW1 5520   1.989   9.909   5.476  0.8015 -1.6434 -0.4225
34081SOL    HW2 5521   1.855   9.879   5.412 -0.3428  1.7364  0.1939
34082SOL     OW 5522   2.943   4.570   4.083  0.1466 -0.3419 -0.1178
34082SOL    HW1 5523   3.032   4.602   4.095 -0.1067  1.0130 -1.4650
34082SOL    HW2 5524   2.899   4.589   4.167  1.1477 -1.1877  0.6137
34083SOL     OW 5525   2.948   2.498   4.844  0.3921  0.1508 -0.2595
34083SOL    HW1 5526   2.906   2.545   4.916 -1.1213 -1.2466 -0.1593
34083SOL    HW2 5527   2.903   2.528   4.765  0.1659 -0.3060 -0.3097
34084SOL     OW 5528   4.254   9.684   2.443 -0.0859 -0.0904  0.3334
34084SOL    HW1 5529   4.301   9.606   2.473  0.2074 -0.2972 -0.6466
34084SOL    HW2 5530   4.166   9.653   2.424 -0.7082  0.3174  2.2698
34085SOL     OW 5531   0.371   5.539   1.421 -0.6609 -0.2607 -0.0633
34085SOL    HW1 5532   0.423   5.561   1.498 -1.9510  3.7441 -0.1392
34085SOL    HW2 5533   0.427   5.563   1.347 -1.3367  0.8572 -0.2220
34086SOL     OW 5534   3.622   3.322   2.072 -0.2153 -0.6541 -0.0595
34086SOL    HW1 5535   3.586   3.355   2.154 -0.6888 -1.1518 -0.0606
34086SOL    HW2 5536   3.567   3.246   2.051 -0.6862  0.0033 -1.3040
34087SOL     OW 5537   8.219   5.482   4.242  0.3493  1.2729  0.3556
34087SOL    HW1 5538   8.173   5.564   4.260 -0.4968  0.7555  0.6099
34087SOL    HW2 5539   8.149   5.417   4.231  1.0189  0.4257  0.9443
34088SOL     OW 5540   0.696   1.271   3.648 -0.2689 -0.2935 -0.4354
34088SOL    HW1 5541   0.711   1.328   3.572  0.5274 -0.3374 -0.3189
34088SOL    HW2 5542   0.708   1.328   3.724  3.9307 -1.2035 -0.1680
34089SOL     OW 5543  10.396   1.098   6.450 -0.4812  0.5971 -0.1306
34089SOL    HW1 5544  10.481   1.091   6.494  0.6489  0.8104 -2.1808
34089SOL    HW2 5545  10.340   1.034   6.495  1.3163 -0.9260  0.0471
34090SOL     OW 5546   0.969   2.517   1.894 -0.0719  0.2629  0.1997
34090SOL    HW1 5547   0.924   2.481   1.817 -1.1730 -0.2289  1.0417
34090SOL    HW2 5548   0.932   2.604   1.905  0.2909  0.4430  0.0199
34091SOL     OW 5549  11.297   7.199   9.666 -0.4798 -0.0180 -0.2605
34091SOL    HW1 5550  11.261   7.242   9.589  0.4188  1.0071 -0.1351
34091SOL    HW2 5551  11.296   7.106   9.645 -1.8928  0.0875 -0.7897
34092SOL     OW 5552   1.112   8.429   9.476  0.5930  0.6301 -0.3916
34092SOL    HW1 5553   1.137   8.439   9.384  3.0112  1.8674  0.2966
34092SOL    HW2 5554   1.073   8.342   9.482  0.9018  0.3039 -2.4803
34093SOL     OW 5555   3.130   0.085   2.697 -0.1085  0.1322 -0.4789
34093SOL    HW1 5556   3.048   0.126   2.669  0.4172  1.1089 -0.6430
34093SOL    HW2 5557   3.104   0.004   2.740 -1.0217 -0.9880 -2.9538
34094SOL     OW 5558   7.322  10.456   3.425 -0.1304 -0.4231  0.4706
34094SOL    HW1 5559   7.299  10.529   3.483 -0.7061  0.2089 -0.5221
34094SOL    HW2 5560   7.295  10.485   3.338  2.0841 -0.7177 -0.3715
34095SOL     OW 5561   5.462  11.191   3.631 -0.5224 -0.9173  0.1331
34095SOL    HW1 5562   5.530  11.251   3.601 -1.5878  0.6819  0.7536
34095SOL    HW2 5563   5.509  11.116   3.666  0.8565 -0.5560 -0.8861
34096SOL     OW 5564   1.561   0.575   1.545 -0.4083 -0.2864 -0.3760
34096SOL    HW1 5565   1.485   0.632   1.561  0.5956  0.7596  0.9306
34096SOL    HW2 5566   1.627   0.633   1.508 -0.8000 -1.5800 -3.3048
34097SOL     OW 5567   5.105   8.088   6.189 -0.6367 -0.1050 -0.2129
34097SOL    HW1 5568   5.047   8.013   6.178 -1.6797  0.3934  1.4815
34097SOL    HW2 5569   5.152   8.069   6.271  0.4601  0.2342 -0.7512
34098SOL     OW 5570  11.185   5.703   5.114  0.1588  0.0639  0.5683
34098SOL    HW1 5571  11.142   5.724   5.031  1.5308  0.2325 -0.1232
34098SOL    HW2 5572  11.167   5.610   5.128 -0.6089  0.1812  0.4284
34099SOL     OW 5573   5.378   5.593  11.067 -0.2414  0.4679  0.0880
34099SOL    HW1 5574   5.370   5.534  11.142 -0.4190  0.5024  0.0956
34099SOL    HW2 5575   5.290   5.599  11.031  0.0853 -0.5772 -0.9172
34100SOL     OW 5576   8.086   5.682   3.897  0.5578  0.3741 -0.8998
34100SOL    HW1 5577   8.102   5.769   3.932 -0.3619 -0.7045  2.7107
34100SOL    HW2 5578   8.167   5.634   3.916 -0.1357 -0.3585  0.4031
34101SOL     OW 5579   3.402  10.682   0.020 -0.8379 -0.4247  0.1090
34101SOL    HW1 5580   3.471  10.656  -0.041 -0.8735  0.0589 -0.1397
34101SOL    HW2 5581   3.360  10.757  -0.021  0.0020  0.7714  1.3181
34102SOL     OW 5582   7.735   5.623   6.813 -0.2094 -0.3323 -0.2459
34102SOL    HW1 5583   7.664   5.676   6.778 -0.0050 -0.1213 -0.3383
34102SOL    HW2 5584   7.692   5.562   6.873 -0.5365 -0.5751 -0.7276
34103SOL     OW 5585   2.157   8.630   5.291  0.9164 -0.1150  0.0436
34103SOL    HW1 5586   2.208   8.702   5.254  0.0868  1.3370  1.5575
34103SOL    HW2 5587   2.221   8.561   5.310  2.1621  1.2029  0.8210
34104SOL     OW 5588  11.023   3.475   6.353 -0.0794 -0.1265  0.7463
34104SOL    HW1 5589  11.061   3.489   6.266 -0.4180 -0.4373  0.5438
34104SOL    HW2 5590  11.048   3.553   6.403 -0.5894  0.4657  0.1111
34105SOL     OW 5591  10.283   8.954   9.911 -0.3954 -0.0221 -0.2866
34105SOL    HW1 5592  10.286   8.928   9.819  1.5531 -1.0406  0.0078
34105SOL    HW2 5593  10.314   9.044   9.912 -1.3637  0.3277 -0.7065
34106SOL     OW 5594   5.389   6.636   6.401  0.5178 -0.1325 -0.4615
34106SOL    HW1 5595   5.351   6.634   6.489 -0.8656 -0.3575 -1.0349
34106SOL    HW2 5596   5.364   6.722   6.367  0.4456 -0.3140 -0.8721
34107SOL     OW 5597   4.374   8.472   6.354 -0.2535  0.2521 -0.3007
34107SOL    HW1 5598   4.306   8.435   6.410 -2.3467  3.3550 -0.5832
34107SOL    HW2 5599   4.327   8.518   6.285  2.1563  1.6074 -1.1679
34108SOL     OW 5600   4.380   9.907   0.353  0.0190 -0.3174  0.0509
34108SOL    HW1 5601   4.289   9.896   0.324 -0.2137 -1.6502  1.1898
34108SOL    HW2 5602   4.424   9.827   0.323  0.8277  0.2866 -0.4363
34109SOL     OW 5603   5.553   3.646   9.013  0.0283 -0.1542  0.4311
34109SOL    HW1 5604   5.510   3.635   9.097 -1.2362  0.5606 -0.0871
34109SOL    HW2 5605   5.482   3.668   8.952  1.2370  2.5956 -0.1735
34110SOL     OW 5606   2.048   2.145   2.367  0.1221 -0.1369 -0.3696
34110SOL    HW1 5607   2.143   2.150   2.363  0.1100 -0.3011 -1.1362
34110SOL    HW2 5608   2.018   2.234   2.347  0.1210  0.0674  0.5238
34111SOL     OW 5609   6.016   7.768   0.568 -0.8540  0.1901 -0.8206
34111SOL    HW1 5610   5.946   7.828   0.594 -0.7815  0.5865 -1.4946
34111SOL    HW2 5611   6.061   7.815   0.498 -0.0799 -0.1755 -0.5724
34112SOL     OW 5612   7.876   3.705   0.535 -0.0968 -0.0534 -0.5100
34112SOL    HW1 5613   7.845   3.681   0.447 -0.0017  0.7448 -0.7717
34112SOL    HW2 5614   7.921   3.788   0.522 -1.9480  1.1911  0.6566
34113SOL     OW 5615   5.754   1.400   5.475  0.4909 -0.7284  0.1161
34113SOL    HW1 5616   5.705   1.365   5.400  1.4451  0.9221 -1.3635
34113SOL    HW2 5617   5.710   1.483   5.496 -0.3786 -1.6368  2.0952
34114SOL     OW 5618   9.243   1.307   8.584  0.3050 -0.0034  0.1523
34114SOL    HW1 5619   9.243   1.212   8.598  0.1849 -0.1815 -0.9659
34114SOL    HW2 5620   9.261   1.317   8.490 -0.9711  1.0321  0.0030
34115SOL     OW 5621   0.347   4.991   1.081 -0.2679  0.1664 -0.4071
34115SOL    HW1 5622   0.409   4.928   1.043 -1.9451 -0.6645 -1.9101
34115SOL    HW2 5623   0.331   5.054   1.010  1.3204  2.3652  1.0278
34116SOL     OW 5624   5.735   7.959   5.254  0.0928  0.1728  0.4187
34116SOL    HW1 5625   5.673   7.905   5.302 -0.6336  1.3875  0.8935
34116SOL    HW2 5626   5.809   7.970   5.314 -0.2222  0.5657  0.7426
34117SOL     OW 5627   9.994   2.240   5.507  0.2023  0.1322 -0.4270
34117SOL    HW1 5628   9.955   2.320   5.543  0.6050  0.1804 -0.0929
34117SOL    HW2 5629  10.062   2.216   5.570  0.3197 -0.2795 -0.7060
34118SOL     OW 5630   1.543   6.197   0.429 -0.9946  0.0124  0.5866
34118SOL    HW1 5631   1.568   6.146   0.352 -1.3345  1.1579 -0.3065
34118SOL    HW2 5632   1.585   6.282   0.417 -2.2991  0.7229  0.8959
34119SOL     OW 5633   0.039   4.178   8.183  0.0923 -0.1492 -0.3772
34119SOL    HW1 5634   0.003   4.229   8.255  1.7804  0.3560  0.1739
34119SOL    HW2 5635   0.035   4.087   8.212 -2.0520 -0.2899 -0.9656
34120SOL     OW 5636   0.405   6.844   1.924  1.4632  0.1617 -0.0948
34120SOL    HW1 5637   0.356   6.800   1.994  0.0632 -2.0989 -2.3266
34120SOL    HW2 5638   0.489   6.865   1.963 -0.6372  2.9921  3.5585
34121SOL     OW 5639   0.075   4.290   1.072 -0.1820  0.2911  0.6002
34121SOL    HW1 5640   0.023   4.295   0.992  1.5641  3.0883 -0.4873
34121SOL    HW2 5641   0.010   4.282   1.142 -1.7448 -2.9012 -0.9996
34122SOL     OW 5642   0.012   7.751   8.009  0.0228 -0.6382  0.2262
34122SOL    HW1 5643  -0.032   7.823   7.964  1.4518  0.8709  1.1667
34122SOL    HW2 5644   0.061   7.792   8.079 -0.0177 -2.6629  1.5317
34123SOL     OW 5645   2.855   0.455   4.145 -0.5673 -0.7683 -0.1811
34123SOL    HW1 5646   2.774   0.426   4.104 -1.5683  0.8017  0.5976
34123SOL    HW2 5647   2.887   0.525   4.088 -1.0966  0.3040  0.8105
34124SOL     OW 5648   2.167   4.960   4.159  0.2420 -0.1563 -0.5820
34124SOL    HW1 5649   2.232   5.028   4.144 -0.6878  1.1392  0.9684
34124SOL    HW2 5650   2.120   4.953   4.076 -0.1062  1.6301 -0.5759
34125SOL     OW 5651  10.907   2.055   0.911  0.0683 -0.3112 -0.0122
34125SOL    HW1 5652  10.948   2.075   0.996 -2.5883 -1.9896  1.8148
34125SOL    HW2 5653  10.877   1.965   0.920  0.8322 -1.0086 -3.3092
34126SOL     OW 5654   5.609   9.662   3.985  0.1521  0.4586 -0.0737
34126SOL    HW1 5655   5.545   9.691   3.920 -2.1266 -3.1164  0.3076
34126SOL    HW2 5656   5.637   9.742   4.029 -2.4522  2.4179 -1.7089
34127SOL     OW 5657   3.343   9.144   2.243  0.0974 -0.1919  0.3647
34127SOL    HW1 5658   3.337   9.159   2.338 -0.9495 -3.7566  1.0032
34127SOL    HW2 5659   3.257   9.110   2.219  0.8197 -0.7246 -1.5859
34128SOL     OW 5660   8.375   3.127   9.034  0.2775  0.1725 -0.2624
34128SOL    HW1 5661   8.312   3.056   9.049 -1.4473  1.6216 -0.3339
34128SOL    HW2 5662   8.376   3.175   9.116  2.4137 -0.6005  0.2308
34129SOL     OW 5663   5.908   1.084   5.788 -0.0868 -0.2504 -0.0048
34129SOL    HW1 5664   5.905   1.160   5.845 -0.7060 -0.5033  0.3077
34129SOL    HW2 5665   5.893   1.118   5.700 -1.7016 -0.1643  0.2841
34130SOL     OW 5666   3.870  10.313   9.103 -0.2816 -0.5793 -0.3532
34130SOL    HW1 5667   3.953  10.266   9.093  0.8703  1.0866  0.8608
34130SOL    HW2 5668   3.873  10.382   9.037  0.8225  1.4546  1.6741
34131SOL     OW 5669   7.081   1.330  11.102  0.2284 -0.8471 -0.2141
34131SOL    HW1 5670   7.102   1.348  11.194 -2.1814 -1.4292  0.5173
34131SOL    HW2 5671   7.149   1.268  11.074  0.6743 -1.1159  1.3499
34132SOL     OW 5672  11.346   1.739   3.482 -0.0317 -0.0308 -0.3754
34132SOL    HW1 5673  11.331   1.832   3.468 -0.1880  0.0092  0.0548
34132SOL    HW2 5674  11.389   1.733   3.567 -0.7758 -0.4039 -0.0124
34133SOL     OW 5675   3.500   2.823   7.906  0.5421 -0.0207 -0.3838
34133SOL    HW1 5676   3.498   2.903   7.959 -0.0398  0.0797 -0.5429
34133SOL    HW2 5677   3.412   2.786   7.916  1.2262 -1.4317  0.8654
34134SOL     OW 5678   2.002   3.933   9.299 -0.1923 -0.1853 -0.2293
34134SOL    HW1 5679   1.993   3.897   9.388 -1.0601  0.4680 -0.0446
34134SOL    HW2 5680   2.091   3.908   9.272  0.4964  0.5640  1.2464
34135SOL     OW 5681   9.371   8.322   1.757  0.0281 -0.1217 -0.7499
34135SOL    HW1 5682   9.312   8.394   1.780  1.2534 -0.1636  3.2424
34135SOL    HW2 5683   9.312   8.249   1.737 -1.2608  0.8486 -0.6082
34136SOL     OW 5684  10.505  10.359   7.338 -0.0399  0.0389  0.0765
34136SOL    HW1 5685  10.556  10.367   7.257 -2.0078 -3.1632 -1.6962
34136SOL    HW2 5686  10.477  10.448   7.357 -0.6416  0.8290 -3.6400
34137SOL     OW 5687   8.710   6.690  10.121  0.6570 -0.0196  0.3364
34137SOL    HW1 5688   8.775   6.642  10.070  2.9673  2.3406  0.8419
34137SOL    HW2 5689   8.635   6.699  10.063  1.4896 -1.1991 -0.9855
34138SOL     OW 5690   9.277   3.910   7.608 -0.5180  0.1826  0.4055
34138SOL    HW1 5691   9.301   3.898   7.700 -1.4847 -0.5573  0.5750
34138SOL    HW2 5692   9.361   3.919   7.562  0.2143 -3.3639  0.8019
34139SOL     OW 5693   8.890   3.371   7.199  0.2987 -0.1588 -0.2393
34139SOL    HW1 5694   8.905   3.382   7.105  0.8455  0.8666 -0.0427
34139SOL    HW2 5695   8.810   3.420   7.216  1.9377  2.5360  0.3695
34140SOL     OW 5696   1.709   5.332   4.293  0.1489 -0.2669 -0.1612
34140SOL    HW1 5697   1.790   5.340   4.241 -0.6452  1.6297 -1.2229
34140SOL    HW2 5698   1.738   5.339   4.384  1.2197  0.1219 -0.5118
34141SOL     OW 5699   8.577  10.448   5.179 -0.8468  0.1955 -0.7285
34141SOL    HW1 5700   8.483  10.432   5.188 -0.7237 -0.1443  0.1275
34141SOL    HW2 5701   8.600  10.499   5.257 -0.2549 -0.0552 -0.7281
34142SOL     OW 5702   1.548   6.265   4.295 -0.5271  0.1032  0.3008
34142SOL    HW1 5703   1.520   6.288   4.383  0.8843  1.0520  0.5297
34142SOL    HW2 5704   1.602   6.339   4.267  0.8880 -1.1782 -0.4938
34143SOL     OW 5705   3.981  10.110   8.117  0.3687  0.3018  0.0797
34143SOL    HW1 5706   4.067  10.109   8.077 -0.3194  0.5128 -1.4635
34143SOL    HW2 5707   3.939  10.188   8.081  0.0079  0.9926  1.8928
34144SOL     OW 5708   7.124   8.685  11.311 -0.7000  0.4343  1.0826
34144SOL    HW1 5709   7.140   8.728  11.227 -1.1421  0.2935  0.9236
34144SOL    HW2 5710   7.047   8.730  11.347 -1.5744 -0.6497  0.6146
34145SOL     OW 5711   5.880   7.598   2.720  0.5173 -0.1636 -0.2692
34145SOL    HW1 5712   5.857   7.650   2.797 -0.0740 -1.3681  0.3844
34145SOL    HW2 5713   5.976   7.598   2.720  0.5821 -1.5845  1.5125
34146SOL     OW 5714  10.654   6.584   8.481  0.4065  0.0445 -0.2269
34146SOL    HW1 5715  10.574   6.532   8.486  0.3195  0.2314  0.4959
34146SOL    HW2 5716  10.631   6.659   8.426  0.0691  0.1186  0.0132
34147SOL     OW 5717   2.188   9.250   4.191  0.7455  0.0987 -0.4086
34147SOL    HW1 5718   2.123   9.248   4.260  1.5418  0.9346  0.3936
34147SOL    HW2 5719   2.163   9.326   4.137  1.4489  0.8740  0.3247
34148SOL     OW 5720   3.137   4.915   8.845 -0.0659 -0.4104 -0.0291
34148SOL    HW1 5721   3.049   4.949   8.829  0.1217  0.1712  0.1621
34148SOL    HW2 5722   3.124   4.838   8.900 -0.5998 -1.4878 -1.5787
34149SOL     OW 5723   9.503  10.961   1.353 -0.7077  0.5690  0.6333
34149SOL    HW1 5724   9.448  10.994   1.424 -0.1960  1.5754  0.5695
34149SOL    HW2 5725   9.441  10.935   1.285 -1.1050  2.6281  0.1493
34150SOL     OW 5726   3.156   9.731   1.941 -0.0931  0.4577 -0.8020
34150SOL    HW1 5727   3.191   9.642   1.945  0.0200  0.5268  0.0212
34150SOL    HW2 5728   3.061   9.720   1.944 -0.0687  0.3787  0.0145
34151SOL     OW 5729   1.712   7.563   1.208 -0.4804  0.1216  0.4605
34151SOL    HW1 5730   1.638   7.618   1.183 -0.5970 -0.4206 -0.4389
34151SOL    HW2 5731   1.723   7.578   1.302 -0.2272  2.0241  0.1697
34152SOL     OW 5732   9.564  10.397   9.551 -0.1488 -0.1005  0.5267
34152SOL    HW1 5733   9.493  10.461   9.556 -1.9565 -1.5174 -3.1812
34152SOL    HW2 5734   9.625  10.433   9.487  1.3325  0.0132  1.9409
34153SOL     OW 5735   6.495   2.117   3.249 -0.4085  0.1679 -0.1039
34153SOL    HW1 5736   6.534   2.168   3.320  0.4527 -0.3302 -0.1992
34153SOL    HW2 5737   6.459   2.040   3.292 -0.4375  0.1629 -0.1372
34154SOL     OW 5738   4.987  10.840   0.159  0.5903  0.5242  0.2530
34154SOL    HW1 5739   5.044  10.779   0.207  0.5300  2.4156  3.0016
34154SOL    HW2 5740   4.906  10.791   0.146  0.8742 -0.3454  1.5189
34155SOL     OW 5741   0.357   9.861   6.018  0.1001  0.4312 -0.3001
34155SOL    HW1 5742   0.438   9.869   6.067  0.3955  1.4071 -0.9251
34155SOL    HW2 5743   0.363   9.927   5.950 -0.9494  0.0954 -0.7454
34156SOL     OW 5744   5.295   9.270   7.335 -0.0187 -0.4740  0.3405
34156SOL    HW1 5745   5.274   9.316   7.254 -0.3264  0.7602  1.0991
34156SOL    HW2 5746   5.246   9.317   7.403 -0.3347 -1.9093  1.1607
34157SOL     OW 5747  11.187   3.707   4.107 -0.7041 -0.2879 -0.3997
34157SOL    HW1 5748  11.208   3.663   4.025 -0.5930  0.1421 -0.6049
34157SOL    HW2 5749  11.217   3.647   4.175 -0.9339 -0.7119 -0.6721
34158SOL     OW 5750  10.981   6.035   8.959 -0.2886 -0.0263  1.0614
34158SOL    HW1 5751  10.936   5.997   9.034  1.4860 -0.9946  1.7116
34158SOL    HW2 5752  11.066   6.063   8.994 -0.1016  1.0980 -0.2300
34159SOL     OW 5753   2.444   1.380   4.876  0.0083 -0.0472  0.3053
34159SOL    HW1 5754   2.445   1.417   4.964  1.4864 -0.0910  0.3356
34159SOL    HW2 5755   2.535   1.385   4.847 -0.3024 -0.8366 -0.8817
34160SOL     OW 5756   6.323   8.097   0.960 -0.2757  0.4254  0.0897
34160SOL    HW1 5757   6.279   8.165   1.010 -0.5592  0.0494  0.3527
34160SOL    HW2 5758   6.385   8.145   0.905 -1.2440  0.9974 -0.5446
34161SOL     OW 5759   0.310   7.167   5.240 -0.7529  0.6579 -0.3307
34161SOL    HW1 5760   0.350   7.094   5.194 -0.6704  0.3761  0.1786
34161SOL    HW2 5761   0.383   7.219   5.272 -0.8107  1.4432 -1.4234
34162SOL     OW 5762   6.295   9.272   2.858 -0.6120 -0.0530  0.1753
34162SOL    HW1 5763   6.312   9.245   2.767 -1.2180  1.2596 -0.3429
34162SOL    HW2 5764   6.322   9.196   2.910  1.0617 -0.3396 -0.9997
34163SOL     OW 5765   0.298   5.180   0.874 -0.2117 -0.3413 -0.1634
34163SOL    HW1 5766   0.247   5.239   0.930  0.5050 -0.0560  0.2056
34163SOL    HW2 5767   0.345   5.238   0.815 -0.2311 -0.5989 -0.4362
34164SOL     OW 5768   3.574   3.211   8.243  0.6865 -0.1709 -0.6801
34164SOL    HW1 5769   3.516   3.177   8.175  1.2951 -2.0679 -0.3098
34164SOL    HW2 5770   3.524   3.202   8.324  0.6512  0.3835 -0.6313
34165SOL     OW 5771   2.649   7.669   8.957 -0.3717  0.2013 -0.7476
34165SOL    HW1 5772   2.573   7.697   9.009 -0.1014  0.1600 -0.3260
34165SOL    HW2 5773   2.623   7.586   8.918  0.0808 -0.7107  0.8168
34166SOL     OW 5774   7.897   5.392   6.738  0.8257  0.2248 -0.3668
34166SOL    HW1 5775   7.887   5.479   6.775  0.7269 -0.1068  0.4092
34166SOL    HW2 5776   7.857   5.398   6.651  0.3906  0.8285 -0.1339
34167SOL     OW 5777  10.587   9.090   7.306 -0.2498  0.7133 -0.7178
34167SOL    HW1 5778  10.611   9.159   7.367 -1.7592  0.9292 -0.3386
34167SOL    HW2 5779  10.586   9.133   7.220  1.3760  0.5228 -0.8754
34168SOL     OW 5780   9.483   3.732   7.338  0.3620 -0.1354  0.2049
34168SOL    HW1 5781   9.414   3.786   7.298  0.8583  1.3842  1.2993
34168SOL    HW2 5782   9.435   3.666   7.388 -0.3910  1.3880  1.6076
34169SOL     OW 5783   4.042  10.909   0.962 -0.2393 -0.0604  0.0629
34169SOL    HW1 5784   4.135  10.929   0.974  0.2756 -2.8457  1.4861
34169SOL    HW2 5785   4.003  10.925   1.048 -1.4129  2.3118 -0.8376
34170SOL     OW 5786   5.058   0.730  10.598 -0.7768 -0.1121 -0.8149
34170SOL    HW1 5787   5.057   0.823  10.620  0.6681 -0.0459 -0.9497
34170SOL    HW2 5788   5.033   0.686  10.679  0.7170  0.3143 -0.0829
34171SOL     OW 5789   5.883   2.428   2.568 -0.5545 -0.1432 -0.2777
34171SOL    HW1 5790   5.886   2.373   2.647 -0.2915  0.9695  0.5108
34171SOL    HW2 5791   5.794   2.463   2.568 -0.0096  1.3420  0.6021
34172SOL     OW 5792   3.106   5.925   8.887  0.1802  0.1945  0.6834
34172SOL    HW1 5793   3.095   5.831   8.895  0.6530  0.0767  0.0096
34172SOL    HW2 5794   3.193   5.942   8.924  0.0948  0.3758  0.8087
34173SOL     OW 5795   0.869  10.080   3.245  0.4019  0.6352 -0.0012
34173SOL    HW1 5796   0.885   9.993   3.207  0.3925  1.5515 -2.2408
34173SOL    HW2 5797   0.956  10.119   3.253  0.2485  1.1883 -0.9684
34174SOL     OW 5798   9.167   9.651   4.381 -0.6633  0.3457  0.0812
34174SOL    HW1 5799   9.207   9.566   4.362  0.6874  1.0009 -0.1030
34174SOL    HW2 5800   9.181   9.702   4.301  0.7751  1.5508  1.0536
34175SOL     OW 5801   1.238   9.372   6.037  0.3608  0.7559  0.4125
34175SOL    HW1 5802   1.304   9.380   5.967  0.1916 -0.6945  0.0547
34175SOL    HW2 5803   1.220   9.278   6.042 -2.2270  1.1669 -0.0018
34176SOL     OW 5804   9.739  10.485   7.216 -0.6680  0.1922 -0.0804
34176SOL    HW1 5805   9.819  10.518   7.258 -1.1149  1.0418  0.1206
34176SOL    HW2 5806   9.766  10.466   7.126 -0.2059  0.3183  0.0268
34177SOL     OW 5807   1.463   7.043   6.179 -0.2190  0.3191 -0.4644
34177SOL    HW1 5808   1.536   7.055   6.240 -0.1369  0.7932 -0.6487
34177SOL    HW2 5809   1.504   7.011   6.099 -0.4700 -1.5607  0.1159
34178SOL     OW 5810   7.174   9.035  10.669  0.1297  0.2993 -0.0904
34178SOL    HW1 5811   7.187   9.112  10.614  0.6107  0.1804 -0.1451
34178SOL    HW2 5812   7.159   9.070  10.757  0.2414  0.4599 -0.1355
34179SOL     OW 5813   2.663   9.331   1.236 -0.2727  0.0909 -0.7443
34179SOL    HW1 5814   2.588   9.281   1.204 -0.9158  0.2552  0.4416
34179SOL    HW2 5815   2.739   9.277   1.214 -0.8391 -0.7155 -0.7866
34180SOL     OW 5816   8.788   1.974   1.215  0.1097 -0.3340 -0.4803
34180SOL    HW1 5817   8.844   1.930   1.279  0.9815  0.8179 -0.4434
34180SOL    HW2 5818   8.699   1.950   1.242  0.4373  0.3085  1.3265
34181SOL     OW 5819   1.353   2.454   4.532 -0.3974  0.1857  0.5285
34181SOL    HW1 5820   1.384   2.476   4.620  0.2641  0.5883  0.2035
34181SOL    HW2 5821   1.270   2.409   4.546 -0.0099 -0.2745  1.3898
34182SOL     OW 5822   2.824   2.239   6.022 -0.0218  0.0410  0.8258
34182SOL    HW1 5823   2.771   2.215   5.946  0.3763 -1.6856  1.0482
34182SOL    HW2 5824   2.761   2.271   6.087 -0.5569 -0.0638  0.3596
34183SOL     OW 5825   9.027   2.897   6.094 -0.0065 -0.0941 -0.6600
34183SOL    HW1 5826   8.988   2.951   6.025 -1.0297  1.9257  1.3647
34183SOL    HW2 5827   8.999   2.808   6.073 -0.8647  0.5339 -2.4362
34184SOL     OW 5828   6.741   9.987   4.814  0.4027 -0.0623  0.4810
34184SOL    HW1 5829   6.734   9.935   4.894  1.4138  1.0005  1.2872
34184SOL    HW2 5830   6.808  10.052   4.833 -1.3832  2.0775 -0.2090
34185SOL     OW 5831   5.465   7.503   9.246  0.0358  0.0642  0.4399
34185SOL    HW1 5832   5.533   7.435   9.252  0.2719  0.3766  1.4648
34185SOL    HW2 5833   5.402   7.479   9.314 -0.1731  0.5619  0.4224
34186SOL     OW 5834   4.316   9.929   6.636  0.3237  0.4997 -0.0659
34186SOL    HW1 5835   4.224   9.942   6.612  0.0704 -0.2165  0.4894
34186SOL    HW2 5836   4.319   9.840   6.670  1.4329  0.1173 -1.0800
34187SOL     OW 5837   5.546  10.299   5.985  0.4378  0.3365 -0.3523
34187SOL    HW1 5838   5.560  10.393   5.997 -0.3875  0.3248  0.9290
34187SOL    HW2 5839   5.546  10.263   6.074 -0.2119 -0.7332 -0.7642
34188SOL     OW 5840   6.924   3.638   7.210  0.1679  0.0379  0.7032
34188SOL    HW1 5841   6.986   3.693   7.163  0.4723 -0.4684  0.4993
34188SOL    HW2 5842   6.973   3.558   7.230 -0.6356 -0.6948 -0.1391
34189SOL     OW 5843   2.066   1.695   7.567  0.0509 -0.3574 -0.1788
34189SOL    HW1 5844   2.008   1.769   7.550 -0.0376 -1.0522 -3.8961
34189SOL    HW2 5845   2.147   1.735   7.600  0.1523  1.5681 -2.4297
34190SOL     OW 5846   3.186   1.754   1.443  0.5435  0.6988  0.1739
34190SOL    HW1 5847   3.259   1.765   1.383  1.8665 -0.6245  1.4658
34190SOL    HW2 5848   3.120   1.707   1.393  2.0098 -1.2736 -0.0373
34191SOL     OW 5849   9.850   3.619  11.070 -0.0206 -0.3554  0.4995
34191SOL    HW1 5850   9.813   3.593  10.985 -0.7165  1.7242  0.1146
34191SOL    HW2 5851   9.773   3.630  11.126  0.3521 -0.4709  1.0338
34192SOL     OW 5852   4.200   9.091   6.345 -0.4066 -0.7107  0.3977
34192SOL    HW1 5853   4.284   9.127   6.372  0.2432 -1.7563 -0.1578
34192SOL    HW2 5854   4.214   9.062   6.254 -1.1853 -1.4105  0.4815
34193SOL     OW 5855   2.115   1.984   8.873  0.6186 -0.0918 -0.5744
34193SOL    HW1 5856   2.151   2.072   8.873  1.4374 -0.4080 -0.9422
34193SOL    HW2 5857   2.023   1.995   8.850  0.2594  0.8120  1.1089
34194SOL     OW 5858   9.773  11.314   7.054 -0.4164 -0.0862 -0.2221
34194SOL    HW1 5859   9.707  11.320   7.123  0.0713  1.0296  0.1636
34194SOL    HW2 5860   9.837  11.382   7.075  0.8467 -1.1060 -0.6130
34195SOL     OW 5861  11.266   9.213   9.834  0.6383  0.2035  0.0663
34195SOL    HW1 5862  11.236   9.292   9.788 -0.7871 -1.5578 -2.2479
34195SOL    HW2 5863  11.301   9.246   9.917 -1.2000  3.1287 -0.1624
34196SOL     OW 5864   6.114  10.817   9.655 -0.3874  0.2744 -0.1197
34196SOL    HW1 5865   6.183  10.879   9.633 -0.6179  0.6872  0.3134
34196SOL    HW2 5866   6.120  10.806   9.750 -0.7356  0.0977 -0.1142
34197SOL     OW 5867   6.190   8.328   0.326  0.1578 -0.5565 -0.0381
34197SOL    HW1 5868   6.230   8.405   0.366 -0.1919 -0.1099 -0.5257
34197SOL    HW2 5869   6.101   8.357   0.303  0.4221 -0.7169 -1.3335
34198SOL     OW 5870  10.327   8.147  10.636  0.3795 -0.0926  0.2027
34198SOL    HW1 5871  10.249   8.131  10.690 -0.9874 -0.1714 -1.6928
34198SOL    HW2 5872  10.359   8.232  10.666 -1.1858  0.5335  0.2041
34199SOL     OW 5873   6.474   8.545   5.255  0.1755 -0.3854 -0.2623
34199SOL    HW1 5874   6.419   8.516   5.328  0.4203 -2.1419 -0.7453
34199SOL    HW2 5875   6.452   8.487   5.183  1.9084 -0.4684 -0.7783
34200SOL     OW 5876   3.988   1.014   7.420  0.0956 -0.2041 -0.4260
34200SOL    HW1 5877   3.959   0.967   7.498  1.9613  1.0748  1.1548
34200SOL    HW2 5878   4.067   0.966   7.392  0.7361  0.6475 -0.1223
34201SOL     OW 5879   5.948   0.849   8.132  0.5135  1.0714 -0.1791
34201SOL    HW1 5880   5.910   0.930   8.166  0.6024  0.8577  0.4447
34201SOL    HW2 5881   5.964   0.795   8.210 -0.3204  0.1092 -0.6555
34202SOL     OW 5882   3.369   5.490   2.593  0.2135  0.0309 -0.6459
34202SOL    HW1 5883   3.422   5.565   2.621  1.1255 -0.5171 -0.8822
34202SOL    HW2 5884   3.428   5.416   2.597 -0.6929 -0.6951 -0.3933
34203SOL     OW 5885   9.107   9.150  10.474  0.5512 -0.4739 -0.0489
34203SOL    HW1 5886   9.127   9.171  10.565 -1.2345 -0.3385  0.3418
34203SOL    HW2 5887   9.159   9.071  10.456  1.9769  0.2637  0.6244
34204SOL     OW 5888   4.290   5.290   3.210  0.4314  0.4846 -0.1633
34204SOL    HW1 5889   4.323   5.201   3.198  2.6796  1.5105 -2.7872
34204SOL    HW2 5890   4.215   5.295   3.151  0.7185  0.5048 -0.5315
34205SOL     OW 5891   6.051   6.301   3.209 -0.5420  0.3066  0.5823
34205SOL    HW1 5892   6.083   6.344   3.130 -0.2755 -2.0721 -0.7082
34205SOL    HW2 5893   6.122   6.313   3.273  0.6697 -0.3927 -0.5649
34206SOL     OW 5894   9.398   0.613   7.637  0.9377  0.2243  0.1810
34206SOL    HW1 5895   9.479   0.604   7.688  1.4556 -1.8509 -0.9135
34206SOL    HW2 5896   9.352   0.531   7.651  0.2910  0.2993 -1.3269
34207SOL     OW 5897  10.263   6.874   1.921 -0.6079  0.3645 -0.7955
34207SOL    HW1 5898  10.292   6.797   1.970 -2.7528  0.2044  0.3170
34207SOL    HW2 5899  10.180   6.848   1.882 -0.8107  1.7538 -1.3493
34208SOL     OW 5900   0.761   0.376   6.103 -0.0477  0.0642  0.1498
34208SOL    HW1 5901   0.677   0.407   6.068  0.8170 -0.1244 -2.2657
34208SOL    HW2 5902   0.755   0.281   6.099  0.0675  0.0389  0.5424
34209SOL     OW 5903   4.197   3.342   6.331 -0.7186 -0.5079 -0.1101
34209SOL    HW1 5904   4.182   3.411   6.396  1.0386  0.0591 -0.2498
34209SOL    HW2 5905   4.241   3.387   6.259 -0.1450 -1.6448 -0.4871
34210SOL     OW 5906  10.367   0.253  11.185  0.2630 -0.2296  0.2290
34210SOL    HW1 5907  10.384   0.213  11.100  3.0629  0.4594  0.3753
34210SOL    HW2 5908  10.416   0.200  11.247 -0.0237  0.5261  1.1283
34211SOL     OW 5909   0.127   5.428   6.407  0.6326 -0.0533  0.1065
34211SOL    HW1 5910   0.069   5.465   6.341 -1.1353 -0.0278  1.5858
34211SOL    HW2 5911   0.068   5.387   6.470  2.2859 -0.8013  1.2390
34212SOL     OW 5912   3.004   9.452   8.017 -0.3048  0.2656 -0.3633
34212SOL    HW1 5913   3.010   9.357   8.013 -0.0119  0.2921 -0.5968
34212SOL    HW2 5914   3.032   9.481   7.930 -1.1083  0.5330 -0.5466
34213SOL     OW 5915   5.497   9.942   4.909 -0.3948 -0.4289  0.3642
34213SOL    HW1 5916   5.484   9.861   4.959  0.0334 -1.6243 -1.3799
34213SOL    HW2 5917   5.412   9.957   4.866 -0.1470 -0.5782 -0.1851
34214SOL     OW 5918   2.386   1.284   5.998 -0.3369  0.2408 -0.6777
34214SOL    HW1 5919   2.471   1.258   5.961 -0.3809  1.0984 -1.3967
34214SOL    HW2 5920   2.380   1.378   5.981 -0.7082  0.5148  0.8358
34215SOL     OW 5921   7.367   8.886   6.102 -0.4475  0.2364  0.7547
34215SOL    HW1 5922   7.414   8.806   6.076 -1.8145 -0.2437 -0.3877
34215SOL    HW2 5923   7.435   8.944   6.135  0.5702 -1.4588  1.7979
34216SOL     OW 5924   3.193   8.649   3.701  0.5342 -0.1730  0.1482
34216SOL    HW1 5925   3.212   8.575   3.758 -0.9519  0.1580  1.1519
34216SOL    HW2 5926   3.191   8.612   3.613  1.4280 -0.9838  0.4451
34217SOL     OW 5927   2.096   8.365  10.448 -0.5671  0.3875 -0.1775
34217SOL    HW1 5928   2.036   8.290  10.444  2.0458 -2.0098  1.3797
34217SOL    HW2 5929   2.147   8.358  10.368 -0.0753  0.2358  0.1437
34218SOL     OW 5930   9.091   1.169   7.887  0.2221  0.1510 -0.0975
34218SOL    HW1 5931   9.006   1.147   7.850 -0.1624 -0.0204  0.8517
34218SOL    HW2 5932   9.123   1.086   7.923  0.6957  0.2567 -0.2686
34219SOL     OW 5933   1.423   3.134  10.673 -0.1024 -0.0817 -0.0576
34219SOL    HW1 5934   1.446   3.187  10.595 -4.5551  2.2519 -0.0929
34219SOL    HW2 5935   1.451   3.188  10.747 -2.5925  1.4896 -0.1322
34220SOL     OW 5936   3.769   8.172   0.316  0.1482 -0.0235  0.2866
34220SOL    HW1 5937   3.853   8.205   0.286 -0.0925  1.3608  1.0307
34220SOL    HW2 5938   3.710   8.185   0.242  0.0768  1.2308  0.5326
34221SOL     OW 5939   9.539   3.924   4.751  0.1284  0.3356 -0.0254
34221SOL    HW1 5940   9.606   3.961   4.808  0.5835  0.3785 -0.5763
34221SOL    HW2 5941   9.579   3.923   4.664 -0.3270 -0.2878 -0.2415
34222SOL     OW 5942   1.434   8.773   7.513  0.0610  0.1322  0.0674
34222SOL    HW1 5943   1.447   8.826   7.592  2.1646  1.2475 -0.9510
34222SOL    HW2 5944   1.377   8.826   7.458  0.8457  0.6357 -0.2780
34223SOL     OW 5945   1.765   6.132   7.533  0.2456  0.6201 -0.1866
34223SOL    HW1 5946   1.858   6.141   7.510  0.2974 -0.6915 -0.5437
34223SOL    HW2 5947   1.761   6.055   7.589 -0.5482  1.0855  0.4306
34224SOL     OW 5948   9.014  10.780   9.491 -0.4771  0.1421 -0.2520
34224SOL    HW1 5949   8.943  10.771   9.427  0.0016 -1.4025 -0.6174
34224SOL    HW2 5950   8.997  10.864   9.534 -1.4340  0.7147 -1.6457
34225SOL     OW 5951   2.618   1.169   3.433  0.1208  0.0744 -0.2210
34225SOL    HW1 5952   2.533   1.132   3.408  0.2285  0.6950 -1.6067
34225SOL    HW2 5953   2.630   1.142   3.524 -0.2061 -2.5154 -0.8698
34226SOL     OW 5954   1.401   6.877   5.789 -0.3881  1.1366 -0.5524
34226SOL    HW1 5955   1.377   6.815   5.859 -0.0813 -1.4291 -2.5721
34226SOL    HW2 5956   1.364   6.960   5.818 -1.7050 -0.1581  1.8760
34227SOL     OW 5957   2.440  11.016   8.267  0.2813  0.6047  0.4718
34227SOL    HW1 5958   2.411  10.950   8.204  0.6664  0.0449  0.8742
34227SOL    HW2 5959   2.441  11.098   8.216 -2.1833  0.7255  0.4804
34228SOL     OW 5960   5.077   7.753   6.854  0.0578 -0.0401  0.4831
34228SOL    HW1 5961   4.996   7.760   6.904  0.7343  1.3746  1.4575
34228SOL    HW2 5962   5.147   7.764   6.919  0.9697  1.2794 -0.6602
34229SOL     OW 5963   6.178   9.684   1.914  0.4340 -0.0888 -0.7372
34229SOL    HW1 5964   6.110   9.726   1.860  1.1799  1.4913 -0.5072
34229SOL    HW2 5965   6.256   9.736   1.898  1.1827 -0.8694  0.2966
34230SOL     OW 5966   1.373   4.707   4.589 -0.0901 -0.4807  0.0763
34230SOL    HW1 5967   1.454   4.657   4.602 -0.3291 -0.6111  1.1499
34230SOL    HW2 5968   1.303   4.646   4.610 -0.4529 -0.2131 -0.3424
34231SOL     OW 5969   9.378   0.005   6.131 -0.4923  0.3340  0.0188
34231SOL    HW1 5970   9.382  -0.033   6.219 -0.9643  1.9196  0.7669
34231SOL    HW2 5971   9.326   0.085   6.142  1.3491  1.7978 -1.2203
34232SOL     OW 5972   3.673   8.627   5.830 -0.0110 -0.3914  0.3409
34232SOL    HW1 5973   3.664   8.662   5.741  0.9171 -0.5170  0.1826
34232SOL    HW2 5974   3.639   8.537   5.823  1.1336 -0.8079 -0.1919
34233SOL     OW 5975   4.938   6.576  10.143  0.4254 -0.2447 -0.4315
34233SOL    HW1 5976   5.011   6.598  10.201  0.8129 -0.7159 -0.7336
34233SOL    HW2 5977   4.962   6.617  10.059 -0.7909  1.6365  0.0866
34234SOL     OW 5978   1.468   1.097  10.651  0.3615  0.3857  0.0716
34234SOL    HW1 5979   1.388   1.050  10.673  0.2353  0.6798  0.2603
34234SOL    HW2 5980   1.457   1.122  10.559 -0.3835  1.6137  0.4683
34235SOL     OW 5981   5.867   2.635   8.665  0.7182 -0.0467 -0.3884
34235SOL    HW1 5982   5.909   2.711   8.625 -0.0798  1.1477  0.9527
34235SOL    HW2 5983   5.880   2.647   8.759  0.8546 -1.7520 -0.1662
34236SOL     OW 5984  11.017   0.819   4.203 -0.0924 -0.4172  0.2348
34236SOL    HW1 5985  11.070   0.858   4.272  0.2913 -1.5221  0.5786
34236SOL    HW2 5986  11.032   0.725   4.211  0.5318 -0.5428 -1.8077
34237SOL     OW 5987  10.483   3.922   8.914  0.3268  0.2833  0.3348
34237SOL    HW1 5988  10.470   3.976   8.992  0.5485  0.1589  0.4595
34237SOL    HW2 5989  10.399   3.925   8.869  1.3872  4.0935 -1.8449
34238SOL     OW 5990  11.018  10.034   3.061  0.4060 -0.0629  0.0748
34238SOL    HW1 5991  10.934   9.994   3.081  1.5040 -1.5998  1.9388
34238SOL    HW2 5992  11.065   9.967   3.011  1.1258  0.0939  0.5242
34239SOL     OW 5993   2.531   2.678   0.365  0.3989 -0.0959 -0.1848
34239SOL    HW1 5994   2.459   2.625   0.400  1.4988 -1.5151  0.0330
34239SOL    HW2 5995   2.520   2.763   0.407 -0.2563 -0.7541  1.0737
34240SOL     OW 5996   2.550   1.464   3.071 -0.1504  0.0087  0.0511
34240SOL    HW1 5997   2.625   1.520   3.053 -0.1923  0.5445  1.4583
34240SOL    HW2 5998   2.480   1.524   3.095 -0.5400 -0.5760  0.4225
34241SOL     OW 5999  10.725   9.139   7.927  0.0745  0.2134  0.1174
34241SOL    HW1 6000  10.719   9.232   7.909 -2.5780  0.1499  0.2544
34241SOL    HW2 6001  10.726   9.132   8.022  0.3324  0.1215  0.1073
34242SOL     OW 6002   3.228   8.791   6.785  0.0275  0.3957  0.3898
34242SOL    HW1 6003   3.154   8.786   6.725 -0.4255 -1.6500  1.0315
34242SOL    HW2 6004   3.188   8.804   6.871  0.3529 -1.0748  0.7857
34243SOL     OW 6005   8.423  11.136   0.408  0.5720  0.0966 -0.1311
34243SOL    HW1 6006   8.405  11.109   0.318  0.4668 -2.2195  0.5274
34243SOL    HW2 6007   8.380  11.221   0.416  0.4941  0.3106 -2.2166
34244SOL     OW 6008   5.931   1.333   4.669 -0.2177  0.0529  0.1864
34244SOL    HW1 6009   5.970   1.246   4.662 -0.8532 -0.3421  1.2775
34244SOL    HW2 6010   5.946   1.373   4.584 -0.1148 -1.2101 -0.4122
34245SOL     OW 6011   8.219  10.195   9.196 -0.2331  0.1648  0.2541
34245SOL    HW1 6012   8.176  10.224   9.116  0.1567 -0.8058 -0.3252
34245SOL    HW2 6013   8.301  10.243   9.198  0.7297 -1.3317 -1.0646
34246SOL     OW 6014   8.157   9.504  10.885  0.6239  0.1315 -1.1240
34246SOL    HW1 6015   8.154   9.411  10.906 -0.9415  0.4810  0.4932
34246SOL    HW2 6016   8.091   9.515  10.817 -1.9507  0.5313  1.2538
34247SOL     OW 6017   2.083   3.748   3.621  0.0256 -0.0666 -0.3504
34247SOL    HW1 6018   2.118   3.688   3.686 -1.6230  0.2508  0.8970
34247SOL    HW2 6019   2.010   3.700   3.582 -0.1079  0.4180 -0.6989
34248SOL     OW 6020   9.673   6.289  10.433 -0.4543  0.0782  0.6864
34248SOL    HW1 6021   9.661   6.382  10.453  0.3562  0.5966 -1.0309
34248SOL    HW2 6022   9.763   6.271  10.460  0.2675  0.4993 -1.2626
34249SOL     OW 6023   9.544   1.279   8.443  0.2438 -0.5241 -0.5501
34249SOL    HW1 6024   9.529   1.215   8.513  2.5631 -0.0953  0.4640
34249SOL    HW2 6025   9.563   1.226   8.366 -3.6462 -1.0261 -1.3353
34250SOL     OW 6026   7.159  10.209  10.752 -0.1907  0.0760 -0.6377
34250SOL    HW1 6027   7.117  10.134  10.794  0.0310  0.4138  0.2165
34250SOL    HW2 6028   7.180  10.269  10.824  0.4157  0.5760 -1.2044
34251SOL     OW 6029   3.391   7.178   9.060  0.3915 -0.2003 -0.0003
34251SOL    HW1 6030   3.359   7.119   8.992  0.6250 -0.2919 -0.0325
34251SOL    HW2 6031   3.486   7.164   9.061  0.3393 -0.5583  0.6749
34252SOL     OW 6032   5.555   4.428   7.225  0.3049 -0.9250 -0.4644
34252SOL    HW1 6033   5.547   4.337   7.253 -0.6626 -0.7608 -0.1868
34252SOL    HW2 6034   5.645   4.452   7.246  0.1935 -1.4298  0.6180
34253SOL     OW 6035   3.531  11.294   7.380  0.3520  0.0928 -0.6627
34253SOL    HW1 6036   3.463  11.346   7.424 -0.0607 -0.8193 -0.2053
34253SOL    HW2 6037   3.529  11.209   7.423 -0.1894 -0.9101 -2.5466
34254SOL     OW 6038  10.460   6.342  11.099 -0.1038  0.1298 -0.3333
34254SOL    HW1 6039  10.436   6.357  11.191 -1.9719  0.8341 -0.8839
34254SOL    HW2 6040  10.552   6.316  11.102  0.1970  1.2211  1.6387
34255SOL     OW 6041   4.784   5.040   2.810  0.0878  0.3001 -0.3693
34255SOL    HW1 6042   4.770   4.955   2.851  0.7846 -1.3616 -3.2893
34255SOL    HW2 6043   4.820   5.095   2.880 -0.2684 -1.8165  1.5807
34256SOL     OW 6044   5.045   3.979   3.065  0.0623 -0.2593  0.0389
34256SOL    HW1 6045   5.124   3.926   3.069 -0.0208 -0.3098  1.5490
34256SOL    HW2 6046   5.076   4.067   3.046  0.5704 -0.1401  1.3277
34257SOL     OW 6047   8.059   8.455   1.342 -0.7183  0.1343 -0.1906
34257SOL    HW1 6048   7.998   8.485   1.410  1.7549  1.7355  1.5233
34257SOL    HW2 6049   8.018   8.377   1.306 -3.0808  0.3086  1.8139
34258SOL     OW 6050   8.770   0.193   1.530 -0.0011  0.2524  0.4323
34258SOL    HW1 6051   8.774   0.249   1.452  1.0063  0.3859  0.5642
34258SOL    HW2 6052   8.842   0.131   1.518 -0.6106 -0.5166  0.6750
34259SOL     OW 6053   4.654   5.012   1.467 -0.4280 -0.5572  0.4367
34259SOL    HW1 6054   4.642   4.950   1.395 -1.0533 -1.2499  1.1081
34259SOL    HW2 6055   4.743   4.994   1.499  0.0732  0.1707 -0.5347
34260SOL     OW 6056   9.950   1.009  10.157  0.4126 -0.2018 -0.0492
34260SOL    HW1 6057  10.041   1.023  10.128  0.4550 -2.0637 -0.9874
34260SOL    HW2 6058   9.936   1.076  10.224  1.9547  1.1368 -0.9649
34261SOL     OW 6059   8.995   6.539   7.100 -0.0681 -0.0824  0.4107
34261SOL    HW1 6060   8.967   6.528   7.009  0.4406  1.0786  0.0897
34261SOL    HW2 6061   8.914   6.563   7.147 -0.2797 -0.4000  0.2080
34262SOL     OW 6062  11.031   1.581   0.374 -0.4853 -0.2035  0.5317
34262SOL    HW1 6063  11.101   1.533   0.418 -0.7994 -1.6582 -0.5155
34262SOL    HW2 6064  11.053   1.673   0.389  1.5553 -0.6170  0.3682
34263SOL     OW 6065   0.821   6.850   2.558  0.1069  0.1413  0.1940
34263SOL    HW1 6066   0.851   6.873   2.646 -1.0123  0.5635  0.4790
34263SOL    HW2 6067   0.895   6.803   2.519 -0.0912 -1.9400  2.1212
34264SOL     OW 6068   3.399   1.981   8.436 -0.1557  0.1994  0.0228
34264SOL    HW1 6069   3.490   2.000   8.460 -0.8435  0.9184  2.3400
34264SOL    HW2 6070   3.391   2.011   8.345  1.9658 -0.1418 -0.3365
34265SOL     OW 6071   6.557   7.579   9.501 -0.3405 -0.3625  0.5526
34265SOL    HW1 6072   6.509   7.653   9.538 -3.0172 -0.9427 -1.4096
34265SOL    HW2 6073   6.550   7.591   9.406 -0.5343 -2.8947  0.1661
34266SOL     OW 6074   1.797   0.226   6.674 -0.4421  0.3838  0.4321
34266SOL    HW1 6075   1.811   0.251   6.766 -1.3963  1.7028  0.2481
34266SOL    HW2 6076   1.717   0.272   6.649 -0.2143  0.0013 -1.0670
34267SOL     OW 6077   6.353  10.511   2.562  0.2899  0.2138 -0.0487
34267SOL    HW1 6078   6.282  10.450   2.541  1.9144 -1.3709 -1.2278
34267SOL    HW2 6079   6.334  10.540   2.651 -1.6927 -0.3500 -0.2474
34268SOL     OW 6080   7.924   3.295   5.096  0.2938 -0.3814 -0.0024
34268SOL    HW1 6081   7.847   3.349   5.076 -1.0838 -2.0010  0.6250
34268SOL    HW2 6082   7.976   3.297   5.015 -0.6740  0.3306 -0.6345
34269SOL     OW 6083   2.302   4.593   2.561  0.5946 -0.6582 -0.3169
34269SOL    HW1 6084   2.281   4.524   2.624  2.0347 -0.5403  0.3315
34269SOL    HW2 6085   2.383   4.564   2.519 -0.8374 -1.2297 -2.9029
34270SOL     OW 6086   4.351   4.629   2.595 -0.3707 -0.5798  0.3648
34270SOL    HW1 6087   4.444   4.650   2.601 -0.4482  0.3199 -0.9878
34270SOL    HW2 6088   4.347   4.555   2.534 -0.5403 -0.6837  0.4997
34271SOL     OW 6089   9.985   7.695   6.576  0.2854 -0.3652 -0.0233
34271SOL    HW1 6090  10.028   7.766   6.625  0.5189 -0.4044 -0.1646
34271SOL    HW2 6091   9.981   7.728   6.486  1.8636 -1.1621 -0.4251
34272SOL     OW 6092   2.001   4.600   9.525 -0.0598 -0.4764  0.0029
34272SOL    HW1 6093   1.996   4.679   9.471 -1.3360 -1.3200 -1.1823
34272SOL    HW2 6094   2.095   4.584   9.534  0.2071  0.4547 -0.8346
34273SOL     OW 6095   4.481  10.439   0.842 -0.3987 -0.2084  0.2155
34273SOL    HW1 6096   4.415  10.419   0.775  0.4548  1.9837 -1.4219
34273SOL    HW2 6097   4.438  10.503   0.899 -0.2049  0.1216  0.0012
34274SOL     OW 6098  10.357   0.071   4.251 -0.6899  0.2953 -0.2508
34274SOL    HW1 6099  10.415   0.053   4.326  0.2045  4.1439  0.2132
34274SOL    HW2 6100  10.272   0.088   4.290 -1.4117 -2.1726 -0.6315
34275SOL     OW 6101   7.318   7.376   0.969  0.6516 -0.1103  0.9398
34275SOL    HW1 6102   7.305   7.344   0.880  0.9937 -0.7913  1.1315
34275SOL    HW2 6103   7.229   7.397   1.000  0.1775 -2.5369  1.4248
34276SOL     OW 6104   3.756   1.976   5.210  0.3991 -0.0292 -0.0955
34276SOL    HW1 6105   3.747   1.950   5.118 -0.6455  2.1720 -0.6796
34276SOL    HW2 6106   3.765   1.893   5.257 -3.1384 -1.5420 -1.7268
34277SOL     OW 6107   2.701   9.633   2.681 -0.3349 -0.0694 -0.1598
34277SOL    HW1 6108   2.658   9.615   2.765 -0.8691  1.7637  0.0015
34277SOL    HW2 6109   2.761   9.704   2.700  3.0426 -2.6089 -0.3430
34278SOL     OW 6110   4.393   1.880   4.251 -0.0477 -0.1395  0.7175
34278SOL    HW1 6111   4.397   1.787   4.272 -0.2313 -0.6277 -1.1731
34278SOL    HW2 6112   4.484   1.910   4.262  0.5414 -1.1424 -0.9679
34279SOL     OW 6113   1.439  10.450   1.870  0.0746  0.4619 -0.1711
34279SOL    HW1 6114   1.371  10.441   1.937  0.2014 -0.3939 -0.1429
34279SOL    HW2 6115   1.517  10.479   1.919  0.1453 -0.0792  0.0509
34280SOL     OW 6116   7.356   1.919   1.109 -0.0818  0.0760  0.7131
34280SOL    HW1 6117   7.332   1.923   1.017 -0.6193  1.7366  0.8878
34280SOL    HW2 6118   7.450   1.902   1.109 -0.1077 -0.0946 -0.1411
34281SOL     OW 6119  10.933   8.267  10.412 -0.1898  0.1011 -0.0829
34281SOL    HW1 6120  10.931   8.343  10.354 -0.0618  0.1381 -0.0385
34281SOL    HW2 6121  10.841   8.252  10.436 -0.1866  0.4043  0.1224
34282SOL     OW 6122   5.435   2.719   2.833  0.0836 -0.3121 -0.3948
34282SOL    HW1 6123   5.484   2.798   2.855 -1.2526  0.5685 -0.4725
34282SOL    HW2 6124   5.418   2.727   2.739 -1.1784 -0.0005 -0.1682
34283SOL     OW 6125   1.497   7.339   3.481 -0.8818  0.6422  0.3660
34283SOL    HW1 6126   1.570   7.287   3.516  0.3384  0.2988 -2.4383
34283SOL    HW2 6127   1.536   7.421   3.454 -1.7835  0.9496 -0.0540
34284SOL     OW 6128   9.359   8.942   6.918  0.5368  0.0230  0.6149
34284SOL    HW1 6129   9.266   8.959   6.928  0.3793  0.3803 -1.1478
34284SOL    HW2 6130   9.391   8.929   7.007 -0.8289  1.7593  1.4147
34285SOL     OW 6131  10.019   3.811   3.784  0.3157  0.5721  0.5613
34285SOL    HW1 6132   9.953   3.878   3.766  0.6398  0.6791 -0.2661
34285SOL    HW2 6133  10.056   3.790   3.698  0.2746 -0.6131  0.8204
34286SOL     OW 6134   4.421   8.119  10.902  0.0736 -0.3025 -0.1543
34286SOL    HW1 6135   4.384   8.162  10.979 -1.6420 -0.9222 -0.5992
34286SOL    HW2 6136   4.388   8.170  10.828  0.4210 -0.6533 -0.5602
34287SOL     OW 6137   2.977   2.313   8.650  0.6012 -0.2513  0.0068
34287SOL    HW1 6138   3.045   2.256   8.615 -0.3109 -1.4045  0.0444
34287SOL    HW2 6139   2.935   2.351   8.572  0.6827 -0.2653 -0.0436
34288SOL     OW 6140   5.100   8.514   5.288  0.3641  0.2311 -0.2863
34288SOL    HW1 6141   5.054   8.583   5.242  2.4174  1.6374 -0.3734
34288SOL    HW2 6142   5.084   8.530   5.381 -0.7708 -0.3962 -0.3605
34289SOL     OW 6143   2.529   8.433   8.837 -0.1452  0.6968  0.2540
34289SOL    HW1 6144   2.473   8.441   8.914  0.3424  2.3588  0.4788
34289SOL    HW2 6145   2.501   8.351   8.795 -0.3147 -0.3340  2.2596
34290SOL     OW 6146   0.755   6.951   0.188 -0.4553 -0.2368 -0.1265
34290SOL    HW1 6147   0.755   6.912   0.275 -0.1509 -1.1142 -0.4986
34290SOL    HW2 6148   0.686   7.017   0.191 -0.4032 -0.2082  0.7931
34291SOL     OW 6149   4.996  10.030   0.904 -0.1187  0.4248  0.0066
34291SOL    HW1 6150   4.977   9.982   0.823  0.2652 -1.7841  1.1623
34291SOL    HW2 6151   5.084  10.002   0.928 -0.1332  1.2385  1.0667
34292SOL     OW 6152   2.707   1.455   5.844 -0.0296  0.1023  0.4897
34292SOL    HW1 6153   2.757   1.374   5.854 -0.7111 -0.2783  0.8869
34292SOL    HW2 6154   2.731   1.508   5.919  0.7227  0.4430  0.0179
34293SOL     OW 6155   0.419  11.211  10.740 -0.1780  0.2763  0.2102
34293SOL    HW1 6156   0.405  11.243  10.651 -0.3998  1.1743  0.5503
34293SOL    HW2 6157   0.462  11.127  10.729  0.3723  0.6653 -0.7418
34294SOL     OW 6158  10.414   2.379  10.644 -0.5385 -0.1898 -0.0675
34294SOL    HW1 6159  10.505   2.352  10.632 -1.0340 -2.3711  0.5668
34294SOL    HW2 6160  10.377   2.378  10.555 -0.3559 -1.0827 -0.1501
34295SOL     OW 6161   3.264  11.393   5.726  0.0523 -0.4747  0.2190
34295SOL    HW1 6162   3.322  11.447   5.780  0.3273 -0.8747  0.3286
34295SOL    HW2 6163   3.268  11.306   5.766 -0.5963 -0.5147  0.2045
34296SOL     OW 6164   9.934   1.930   7.192 -0.2073 -0.4271  0.2075
34296SOL    HW1 6165   9.969   1.986   7.262 -0.4577  1.5199 -1.1477
34296SOL    HW2 6166  10.012   1.899   7.146 -0.1042  1.1342 -0.7307
34297SOL     OW 6167   8.478   0.755  10.416 -0.0068  0.5124 -0.2495
34297SOL    HW1 6168   8.471   0.672  10.370 -0.3537  0.6408 -0.4308
34297SOL    HW2 6169   8.511   0.732  10.503 -1.8670 -0.0439  0.3515
34298SOL     OW 6170  10.326   0.539  11.030  0.2534 -0.0597 -0.0865
34298SOL    HW1 6171  10.399   0.601  11.021 -0.7901  0.9925 -1.9270
34298SOL    HW2 6172  10.360   0.472  11.089  1.9664  1.4603  0.7973
34299SOL     OW 6173   0.182   9.035   8.833  0.3433  0.2486  0.1788
34299SOL    HW1 6174   0.274   9.034   8.805  0.2284 -0.2235 -0.1958
34299SOL    HW2 6175   0.184   8.996   8.921  0.4147 -0.4240 -0.1162
34300SOL     OW 6176   0.859   0.043   6.447  0.5253  0.2788 -0.3883
34300SOL    HW1 6177   0.938   0.040   6.501  0.4830  0.5634 -0.3112
34300SOL    HW2 6178   0.799   0.099   6.495 -0.0690 -0.6756  0.0131
34301SOL     OW 6179   2.618   4.304   6.370 -0.0087 -0.1872  0.0993
34301SOL    HW1 6180   2.567   4.381   6.346 -0.1155 -0.0816  0.6532
34301SOL    HW2 6181   2.706   4.337   6.385  1.0959 -0.8201 -4.0060
34302SOL     OW 6182   2.628   6.754   7.275  0.4942  0.1581 -0.1076
34302SOL    HW1 6183   2.683   6.824   7.311  0.4203 -0.5040  1.3583
34302SOL    HW2 6184   2.543   6.796   7.259  0.5162  0.4634  0.5537
34303SOL     OW 6185   8.268   4.365   3.149 -0.0572 -0.2942 -0.7101
34303SOL    HW1 6186   8.215   4.438   3.115  0.8862  1.1310  0.7256
34303SOL    HW2 6187   8.344   4.362   3.092  1.4429  1.9838  1.0004
34304SOL     OW 6188   7.782   1.628   9.967  0.1418  0.2836 -0.2778
34304SOL    HW1 6189   7.834   1.655   9.891  0.8915  0.3739  0.2560
34304SOL    HW2 6190   7.811   1.686  10.037  0.1274 -0.4103  0.3109
34305SOL     OW 6191   0.141   2.354   9.004 -0.0208  0.7922 -0.4400
34305SOL    HW1 6192   0.109   2.440   9.028 -2.3844  0.8216 -3.1971
34305SOL    HW2 6193   0.235   2.366   8.991 -0.0433  2.5414  0.6874
34306SOL     OW 6194   4.234   2.254   5.757  0.0752  0.5072  0.5117
34306SOL    HW1 6195   4.191   2.168   5.759  0.3951  0.3433  0.4164
34306SOL    HW2 6196   4.167   2.314   5.724 -0.5126  0.5063  1.6450
34307SOL     OW 6197   4.994   2.809   8.934 -0.6168 -0.0460  0.3639
34307SOL    HW1 6198   4.993   2.755   9.012 -1.3754  1.4117  1.4211
34307SOL    HW2 6199   5.039   2.889   8.960 -0.0108  0.0864 -0.9857
34308SOL     OW 6200   3.485   0.608   7.233 -0.0737  0.8039 -0.1288
34308SOL    HW1 6201   3.563   0.555   7.212 -0.1046  1.0671 -0.9425
34308SOL    HW2 6202   3.518   0.678   7.289 -0.2012 -0.6370  1.8962
34309SOL     OW 6203   2.082   0.134   4.448  0.2192 -0.0471  0.3196
34309SOL    HW1 6204   2.140   0.194   4.400  1.2041 -0.4621  0.9437
34309SOL    HW2 6205   2.122   0.048   4.437  0.2740 -0.2015  1.5554
34310SOL     OW 6206   5.053   3.622  10.993  0.0300 -0.3550 -0.1456
34310SOL    HW1 6207   5.033   3.714  10.973  0.5864 -0.2558 -0.2614
34310SOL    HW2 6208   5.075   3.584  10.909  0.7755 -0.3438  0.0403
34311SOL     OW 6209  10.499   1.922   1.206 -0.3076  0.3422 -0.1435
34311SOL    HW1 6210  10.552   1.993   1.171  0.0694 -0.4848 -1.3444
34311SOL    HW2 6211  10.563   1.861   1.244 -0.6637  0.8806  1.3721
34312SOL     OW 6212   7.427   4.226   3.563 -0.0385 -0.1404  0.4622
34312SOL    HW1 6213   7.398   4.241   3.653 -0.6357 -0.8254  0.3861
34312SOL    HW2 6214   7.353   4.253   3.509  0.6905  1.2688  0.1095
34313SOL     OW 6215   8.182   5.645   2.348 -0.1522  0.2509  0.0733
34313SOL    HW1 6216   8.176   5.736   2.318 -1.1535  0.5637  1.1127
34313SOL    HW2 6217   8.222   5.598   2.276  0.0331  1.4539 -0.6381
34314SOL     OW 6218   6.207   1.799   1.310  0.0780 -0.3063  0.2144
34314SOL    HW1 6219   6.166   1.764   1.390  0.3356 -1.3519 -0.0909
34314SOL    HW2 6220   6.288   1.748   1.301  0.4976  0.4253 -0.2323
34315SOL     OW 6221   4.611   0.466   2.632  0.3017 -0.2809 -0.7174
34315SOL    HW1 6222   4.574   0.509   2.710 -0.0016 -1.3642 -0.2506
34315SOL    HW2 6223   4.589   0.374   2.643  1.1120 -0.5904 -1.6123
34316SOL     OW 6224   1.297   3.880   3.223 -0.1348 -0.5807 -0.1562
34316SOL    HW1 6225   1.234   3.947   3.196 -0.4687 -1.0664 -0.5939
34316SOL    HW2 6226   1.247   3.798   3.220  0.0223 -0.7531  1.2031
34317SOL     OW 6227   3.902   9.981   6.018 -0.1996  0.7379 -0.1497
34317SOL    HW1 6228   3.966   9.971   5.947 -0.4132  1.7625 -0.5032
34317SOL    HW2 6229   3.820   9.999   5.973 -1.0092 -1.5627  0.2480
34318SOL     OW 6230   3.396   2.203   3.589 -0.3451  0.0143 -0.4914
34318SOL    HW1 6231   3.479   2.249   3.588  0.4397 -1.3281 -2.4089
34318SOL    HW2 6232   3.387   2.171   3.679  2.9496 -2.6786 -0.9335
34319SOL     OW 6233   7.342   7.297   4.785  0.2733  0.1849  0.0592
34319SOL    HW1 6234   7.397   7.251   4.721  1.2796  1.7516 -0.2716
34319SOL    HW2 6235   7.362   7.255   4.868  1.5837  0.3374 -0.1535
34320SOL     OW 6236   0.004   8.863   4.514  0.3844  0.1863  0.3898
34320SOL    HW1 6237  -0.049   8.889   4.439  1.3453  1.3578  0.0815
34320SOL    HW2 6238  -0.041   8.898   4.590  1.7834  3.2045 -0.0297
34321SOL     OW 6239   3.729   5.271   7.136 -0.1971  0.0699 -0.0075
34321SOL    HW1 6240   3.636   5.285   7.118 -0.0855  1.9080  0.6456
34321SOL    HW2 6241   3.770   5.265   7.050 -0.7237  0.7310 -0.3059
34322SOL     OW 6242   7.289   1.417   5.750 -0.0349  0.1399 -0.4284
34322SOL    HW1 6243   7.251   1.358   5.814  1.7530 -0.6058  0.0200
34322SOL    HW2 6244   7.215   1.461   5.709 -1.2675 -0.3201  1.2444
34323SOL     OW 6245   0.674   0.674   3.452 -0.3622  0.3376 -0.4730
34323SOL    HW1 6246   0.710   0.651   3.367  0.1191 -0.7369  0.0034
34323SOL    HW2 6247   0.720   0.755   3.477  1.4534 -0.7657 -0.0714
34324SOL     OW 6248   6.219   3.390   1.864 -0.2882 -0.4746 -0.3076
34324SOL    HW1 6249   6.191   3.400   1.773 -0.1505 -0.8572 -0.3924
34324SOL    HW2 6250   6.288   3.324   1.861  0.0893 -0.0997  0.0012
34325SOL     OW 6251   8.099   6.531   9.518 -0.2617 -0.3997  0.0490
34325SOL    HW1 6252   8.082   6.596   9.586 -0.7230  1.7309 -1.9714
34325SOL    HW2 6253   8.021   6.476   9.517 -0.6711  0.1533  0.5901
34326SOL     OW 6254   9.503   3.514   6.902 -0.0434 -0.0783  0.0023
34326SOL    HW1 6255   9.582   3.493   6.951  1.3137  2.4208 -0.9418
34326SOL    HW2 6256   9.431   3.485   6.958  1.4965 -1.9931  1.0964
34327SOL     OW 6257   3.799   1.296   3.681 -0.1478  0.6602 -0.2487
34327SOL    HW1 6258   3.855   1.346   3.741  0.5172  1.2827 -1.3729
34327SOL    HW2 6259   3.805   1.206   3.713 -1.1519  1.2050  1.6488
34328SOL     OW 6260   0.255   7.148   8.875  0.3151  0.0347  0.0801
34328SOL    HW1 6261   0.254   7.228   8.928 -1.0602  0.1294 -0.0647
34328SOL    HW2 6262   0.292   7.081   8.933  0.3341  0.5009  0.6119
34329SOL     OW 6263   7.363   2.883   0.565 -0.0489  0.0186  0.4951
34329SOL    HW1 6264   7.287   2.843   0.607  0.2036  1.1432  2.1027
34329SOL    HW2 6265   7.437   2.863   0.622  1.3170 -2.5257 -1.8777
34330SOL     OW 6266   7.565   2.051   0.060  0.5174 -0.6005 -0.1934
34330SOL    HW1 6267   7.621   2.013   0.128  0.6637 -0.3535 -0.1730
34330SOL    HW2 6268   7.594   2.142   0.053  0.4953 -0.6210 -0.5796
34331SOL     OW 6269   6.969   4.178   4.885 -0.0293  0.0869  0.5935
34331SOL    HW1 6270   6.988   4.116   4.815  1.5537 -0.4775  1.4722
34331SOL    HW2 6271   7.008   4.261   4.856  0.5309 -0.1199  0.7346
34332SOL     OW 6272   6.978   7.044  10.632  0.3038 -0.3871  0.1732
34332SOL    HW1 6273   6.915   6.972  10.631  0.2156 -0.3089  0.2031
34332SOL    HW2 6274   7.018   7.042  10.545 -1.7819  1.3937 -0.9130
34333SOL     OW 6275  10.549   5.923   4.782 -0.4772  0.4131 -0.5096
34333SOL    HW1 6276  10.625   5.888   4.735 -0.0117  0.9153 -0.1372
34333SOL    HW2 6277  10.526   5.854   4.845  0.0410  0.5131 -0.2101
34334SOL     OW 6278   1.520   0.109   9.494  0.6615 -0.4331 -0.1523
34334SOL    HW1 6279   1.550   0.187   9.446 -1.5672  1.6472  1.5792
34334SOL    HW2 6280   1.558   0.119   9.581 -0.3444 -0.7800  0.3430
34335SOL     OW 6281   2.926   0.287  10.583  0.3862 -0.2112  0.4062
34335SOL    HW1 6282   2.851   0.341  10.558 -0.7654 -0.7484  2.5078
34335SOL    HW2 6283   2.980   0.344  10.638 -1.3289 -1.3344  3.4536
34336SOL     OW 6284   2.654   3.064   8.435 -0.5277  0.1698  0.2728
34336SOL    HW1 6285   2.723   3.125   8.410  0.6632 -1.2328  0.0183
34336SOL    HW2 6286   2.655   2.997   8.367 -0.9449 -0.8111  1.2014
34337SOL     OW 6287   6.625   9.490   7.378  0.3519  0.7558  0.2833
34337SOL    HW1 6288   6.663   9.552   7.316  2.5929 -2.2826 -1.6918
34337SOL    HW2 6289   6.700   9.440   7.410 -1.4497 -4.0695 -2.0444
34338SOL     OW 6290   7.794   4.674  10.603  0.7429  0.1331 -0.1981
34338SOL    HW1 6291   7.878   4.720  10.616  1.0818 -0.3627 -0.5949
34338SOL    HW2 6292   7.774   4.637  10.688  0.8278  0.4253 -0.0495
34339SOL     OW 6293   8.217   7.729   4.967 -0.0747 -0.1711  0.5453
34339SOL    HW1 6294   8.312   7.735   4.981  0.3910  0.1912 -2.2116
34339SOL    HW2 6295   8.185   7.818   4.983  0.5549  0.4360 -1.3533
34340SOL     OW 6296  10.646   9.470   3.237 -0.4634 -0.9829  0.6494
34340SOL    HW1 6297  10.629   9.389   3.189  0.2528 -0.3285 -0.7345
34340SOL    HW2 6298  10.643   9.539   3.171 -2.5559  0.3536  2.0168
34341SOL     OW 6299  10.349   6.119   9.587 -0.2483  0.5150  0.0955
34341SOL    HW1 6300  10.369   6.064   9.662 -0.6993  2.4543  1.7237
34341SOL    HW2 6301  10.370   6.064   9.511  1.5761 -1.0283  1.6027
34342SOL     OW 6302   3.905   0.343   7.920  0.6457  0.6672 -0.0618
34342SOL    HW1 6303   3.925   0.294   7.840  0.5334 -0.5245  0.6156
34342SOL    HW2 6304   3.927   0.433   7.899  2.3728  0.1008 -0.8463
34343SOL     OW 6305   4.461   0.861   4.426  0.3525 -0.5544  0.1825
34343SOL    HW1 6306   4.425   0.779   4.393 -1.0565 -1.0117  2.6174
34343SOL    HW2 6307   4.386   0.908   4.461  1.3709  1.0580  0.3016
34344SOL     OW 6308  10.355   5.361   0.770 -0.5811 -0.0725  0.3431
34344SOL    HW1 6309  10.336   5.427   0.836 -1.1592  1.3554 -1.2051
34344SOL    HW2 6310  10.451   5.352   0.773 -0.6134 -0.1561  1.4724
34345SOL     OW 6311   2.911   8.931  10.198 -0.0176  0.2862  0.1495
34345SOL    HW1 6312   2.861   8.936  10.116 -1.8788  1.4013  1.2854
34345SOL    HW2 6313   2.987   8.987  10.182 -0.7528  1.1248 -0.5862
34346SOL     OW 6314  10.823   3.543   2.672  0.4571 -0.1390  0.3688
34346SOL    HW1 6315  10.779   3.596   2.605  0.9367  0.4607  0.5228
34346SOL    HW2 6316  10.774   3.561   2.752 -0.5091 -1.3338  0.0895
34347SOL     OW 6317   6.360   3.958  11.107  0.4288  0.4920 -0.3455
34347SOL    HW1 6318   6.386   3.870  11.079 -0.0800  0.0984  0.4027
34347SOL    HW2 6319   6.305   3.990  11.035  0.6743  0.2326 -0.6529
34348SOL     OW 6320   7.436   8.488   8.653 -0.0470 -0.0026  0.0121
34348SOL    HW1 6321   7.446   8.579   8.680 -0.3178  0.1401 -0.3570
34348SOL    HW2 6322   7.499   8.439   8.707  0.2719  0.4335  0.0355
34349SOL     OW 6323   4.635   1.863   3.993 -0.3829 -0.6735  0.1918
34349SOL    HW1 6324   4.639   1.806   4.070 -3.3330 -0.1656  0.8330
34349SOL    HW2 6325   4.560   1.830   3.943 -0.3224  0.8103 -0.9501
34350SOL     OW 6326   6.633   1.920   7.945  0.3974  0.0860 -0.0300
34350SOL    HW1 6327   6.704   1.872   7.986 -0.4045 -0.9071  0.2298
34350SOL    HW2 6328   6.656   1.922   7.852 -0.1600 -1.9335 -0.2489
34351SOL     OW 6329   9.790   0.921   4.031  0.0732  0.2002 -0.1967
34351SOL    HW1 6330   9.767   0.963   3.948 -0.8956 -1.7308 -0.9874
34351SOL    HW2 6331   9.864   0.865   4.009  2.0340  2.1644  1.0662
34352SOL     OW 6332   4.889   6.565   3.527  0.2302 -0.4386  0.1285
34352SOL    HW1 6333   4.851   6.481   3.501  0.6991 -0.7728  0.5017
34352SOL    HW2 6334   4.931   6.548   3.611 -0.1951  0.3211  0.5085
34353SOL     OW 6335   1.617   6.920   4.434  0.0159  0.3414 -0.1802
34353SOL    HW1 6336   1.669   6.847   4.467  1.7474  0.9764 -1.3667
34353SOL    HW2 6337   1.609   6.980   4.509 -0.4465 -0.5128  0.4732
34354SOL     OW 6338   9.923   8.837   1.838  0.6147  0.0597  0.0921
34354SOL    HW1 6339  10.015   8.838   1.810  0.6810 -0.9516  0.2354
34354SOL    HW2 6340   9.896   8.746   1.830  0.0877  0.0538  1.5416
34355SOL     OW 6341   2.119   8.722   3.560  0.5151 -0.4565 -0.7819
34355SOL    HW1 6342   2.129   8.745   3.467 -1.8038 -0.6122 -1.1210
34355SOL    HW2 6343   2.028   8.695   3.568  0.3888  0.5337  1.7823
34356SOL     OW 6344  10.463   6.230   5.166 -0.3125  0.0306 -0.1415
34356SOL    HW1 6345  10.555   6.209   5.155 -0.3208 -0.0944  0.0244
34356SOL    HW2 6346  10.460   6.326   5.165 -0.0880  0.0559  0.5540
34357SOL     OW 6347   1.180   7.631   1.407  0.3771  0.1574 -0.4298
34357SOL    HW1 6348   1.120   7.630   1.482  1.7040  0.7192  0.6870
34357SOL    HW2 6349   1.131   7.587   1.337 -1.0931  0.0508  0.6032
34358SOL     OW 6350  10.534   7.478   5.972 -0.4536 -0.4705  0.5777
34358SOL    HW1 6351  10.542   7.407   6.036  2.6013 -0.0145  0.8559
34358SOL    HW2 6352  10.463   7.450   5.914 -1.2482 -2.3630  2.3497
34359SOL     OW 6353   9.075   9.869   6.573 -0.0523  0.2202 -0.5692
34359SOL    HW1 6354   9.003   9.931   6.561 -0.7214 -0.6258 -1.1002
34359SOL    HW2 6355   9.039   9.786   6.542  1.0041 -0.3166 -0.3770
34360SOL     OW 6356   6.726   1.251   5.267 -0.6066  0.5067 -0.1996
34360SOL    HW1 6357   6.702   1.160   5.289 -0.4109 -0.0242 -1.9953
34360SOL    HW2 6358   6.654   1.281   5.212 -0.4629  1.3232  0.0459
34361SOL     OW 6359   2.024   7.271   0.263  0.0879 -0.6511 -0.2539
34361SOL    HW1 6360   2.007   7.277   0.169  0.0488 -1.5216 -0.3134
34361SOL    HW2 6361   2.023   7.361   0.293  0.2119 -0.3500 -1.1107
34362SOL     OW 6362   4.516   8.957   9.542  0.7798  0.0446  0.0220
34362SOL    HW1 6363   4.447   8.987   9.484 -0.3225  2.3039  2.3134
34362SOL    HW2 6364   4.579   9.029   9.545  2.0115 -0.9747 -0.0960
34363SOL     OW 6365   1.694   4.365   7.026 -0.2085  0.3783  0.8591
34363SOL    HW1 6366   1.753   4.294   6.999 -0.5910  0.9159 -1.5550
34363SOL    HW2 6367   1.745   4.415   7.090  1.9304  0.7027 -0.9744
34364SOL     OW 6368   6.568   6.149   4.611 -0.4573  0.6418  0.1154
34364SOL    HW1 6369   6.487   6.159   4.561  0.1071 -0.0807 -0.9750
34364SOL    HW2 6370   6.595   6.059   4.596  1.4042  1.3092 -0.8971
34365SOL     OW 6371   4.254   4.418   1.172 -0.3940  0.0601 -0.0176
34365SOL    HW1 6372   4.329   4.463   1.211 -0.2205  1.0793 -1.4415
34365SOL    HW2 6373   4.197   4.489   1.141 -0.6991 -0.6919 -1.2490
34366SOL     OW 6374   0.753   4.349   4.592 -0.2887  0.0838 -0.2166
34366SOL    HW1 6375   0.768   4.274   4.535 -2.4782  0.3676 -1.2414
34366SOL    HW2 6376   0.682   4.398   4.551  0.5570  2.3507  0.8002
34367SOL     OW 6377   0.571   3.835   5.472  0.4842  0.3877  0.1753
34367SOL    HW1 6378   0.580   3.915   5.421  0.2910 -0.3436 -1.0245
34367SOL    HW2 6379   0.658   3.794   5.467  0.2945  0.0123 -0.0920
34368SOL     OW 6380   3.784   3.759   3.413  0.2407  0.2483  0.2182
34368SOL    HW1 6381   3.811   3.841   3.373  1.5141 -0.7927 -1.1279
34368SOL    HW2 6382   3.839   3.751   3.491  0.2845  0.5529  0.2194
34369SOL     OW 6383  10.290   5.203  10.912  0.1597  0.2764  0.0774
34369SOL    HW1 6384  10.340   5.196  10.993 -0.5058 -0.9484  0.4139
34369SOL    HW2 6385  10.290   5.114  10.876 -1.4137  0.3245 -0.1187
34370SOL     OW 6386   3.390  10.954   5.497 -0.2536 -0.1816 -0.1767
34370SOL    HW1 6387   3.437  10.923   5.574 -2.0027 -0.2925  0.9089
34370SOL    HW2 6388   3.456  10.998   5.444  1.2025 -1.0491  0.8639
34371SOL     OW 6389  11.273   8.663   7.941 -0.2352  0.2881  0.1646
34371SOL    HW1 6390  11.248   8.594   7.879 -0.5287  0.6434 -0.1198
34371SOL    HW2 6391  11.351   8.703   7.901 -0.0130  0.0613  0.3737
34372SOL     OW 6392  11.054   7.655   4.488 -0.4480  0.1981 -0.0496
34372SOL    HW1 6393  11.063   7.709   4.410 -0.2280  0.9764  0.5057
34372SOL    HW2 6394  11.144   7.641   4.518 -0.5781  0.7331  0.6143
34373SOL     OW 6395  11.350  10.582   2.597  0.1148  0.3345 -0.0081
34373SOL    HW1 6396  11.270  10.619   2.633  0.1919  1.3978 -0.8777
34373SOL    HW2 6397  11.418  10.607   2.659 -0.0937  0.1693  0.2886
34374SOL     OW 6398   2.528   8.583   9.112 -0.3681 -0.3549 -0.5033
34374SOL    HW1 6399   2.574   8.666   9.096 -0.1151 -0.2888  0.4810
34374SOL    HW2 6400   2.435   8.605   9.104 -0.2864 -0.0755 -0.6903
34375SOL     OW 6401   6.533   0.647   4.347  0.1866  0.3091  0.6223
34375SOL    HW1 6402   6.489   0.614   4.425 -2.6452 -1.9839 -1.7120
34375SOL    HW2 6403   6.624   0.621   4.358 -0.7907 -3.2025  1.6627
34376SOL     OW 6404   9.052   4.400   0.096  0.0727  0.2155  0.4461
34376SOL    HW1 6405   8.995   4.474   0.075 -0.6229 -0.1049  1.1586
34376SOL    HW2 6406   9.139   4.438   0.103 -0.3985  1.1313  1.6381
34377SOL     OW 6407   5.706   4.504   2.597  0.5091 -0.4749 -0.3276
34377SOL    HW1 6408   5.757   4.456   2.662  0.9330 -1.5932 -1.4547
34377SOL    HW2 6409   5.684   4.439   2.530  0.1468  0.6539 -1.3456
34378SOL     OW 6410   7.764   5.991  10.162  0.4101 -0.7967  0.8544
34378SOL    HW1 6411   7.670   5.996  10.141  0.8259  1.0729 -0.7998
34378SOL    HW2 6412   7.772   6.042  10.243  0.0924 -0.4296  0.6594
34379SOL     OW 6413   5.180  10.371   0.801 -0.1228 -0.6010  0.6872
34379SOL    HW1 6414   5.183  10.457   0.844  0.8618 -0.2009 -0.1545
34379SOL    HW2 6415   5.223  10.312   0.863  0.6497 -0.1657  0.5814
34380SOL     OW 6416   9.676   9.786   8.483 -0.1981 -0.2253  0.3230
34380SOL    HW1 6417   9.644   9.833   8.406 -1.9367 -0.8580  0.6044
34380SOL    HW2 6418   9.604   9.727   8.507  0.5262 -0.4766  2.0795
34381SOL     OW 6419   7.752   8.798   1.510  0.5163  0.0596 -0.3982
34381SOL    HW1 6420   7.758   8.729   1.576  1.1091 -0.9984 -1.5167
34381SOL    HW2 6421   7.667   8.839   1.525  0.7585  0.0239  1.1811
34382SOL     OW 6422   2.229   5.303   2.067 -0.3198  0.3652  0.0221
34382SOL    HW1 6423   2.261   5.346   1.988 -1.1575 -0.3328 -0.7245
34382SOL    HW2 6424   2.171   5.234   2.035  1.2399 -1.5687  1.1571
34383SOL     OW 6425   9.959   9.491   2.889 -0.8862  0.8547 -0.1129
34383SOL    HW1 6426   9.912   9.506   2.807  0.4480  2.0577 -0.6821
34383SOL    HW2 6427  10.026   9.559   2.892  0.8593 -0.7901  0.6581
34384SOL     OW 6428  10.236  11.282   2.999 -0.4755  0.1626  0.6706
34384SOL    HW1 6429  10.224  11.287   2.904  0.2763 -0.3801  0.5327
34384SOL    HW2 6430  10.287  11.360   3.020  1.1119 -0.7310  0.3025
34385SOL     OW 6431   6.139   4.016   6.496 -0.0824  0.4738  0.6287
34385SOL    HW1 6432   6.120   4.080   6.565 -0.9388  1.5199 -0.5311
34385SOL    HW2 6433   6.086   3.940   6.518  0.4044  0.4182  1.6496
34386SOL     OW 6434   7.937  10.942   8.010 -0.4899  0.3950 -0.2995
34386SOL    HW1 6435   7.885  10.883   7.956  0.9673 -1.8675  0.6189
34386SOL    HW2 6436   8.024  10.939   7.973 -0.0859  0.9337  0.5633
34387SOL     OW 6437   7.965  10.051   2.821 -0.0205 -0.3978  0.6808
34387SOL    HW1 6438   8.019  10.099   2.758 -0.6306 -0.8047 -0.1728
34387SOL    HW2 6439   7.934   9.975   2.773 -0.4222 -0.7728  1.5116
34388SOL     OW 6440   9.638   7.364   3.818 -0.0387  0.1315  0.2078
34388SOL    HW1 6441   9.606   7.356   3.908  0.5028 -1.6493  0.2749
34388SOL    HW2 6442   9.568   7.328   3.765  0.1186  0.0955  0.0244
34389SOL     OW 6443   3.508   4.405   5.369 -0.1420  0.2241  1.0417
34389SOL    HW1 6444   3.445   4.437   5.434 -0.1343  0.3213  1.0018
34389SOL    HW2 6445   3.465   4.329   5.330  0.0906 -0.1659  1.5479
34390SOL     OW 6446   3.696   4.152   8.958 -0.0980  0.0412  0.2521
34390SOL    HW1 6447   3.678   4.136   8.865 -0.5990 -3.5412  0.8184
34390SOL    HW2 6448   3.644   4.230   8.979 -0.9578  0.2258 -2.1864
34391SOL     OW 6449  10.750   3.722   4.592 -0.0596 -0.1455  0.5638
34391SOL    HW1 6450  10.802   3.753   4.518  0.4827 -2.7965 -0.2654
34391SOL    HW2 6451  10.661   3.753   4.573  0.4823  1.1935  0.0578
34392SOL     OW 6452   2.119   4.897   8.242  0.3664 -0.1570 -0.2474
34392SOL    HW1 6453   2.095   4.944   8.162  1.6502 -0.8522 -1.0656
34392SOL    HW2 6454   2.214   4.891   8.239  0.2303 -4.0977 -0.9763
34393SOL     OW 6455   8.778   9.208   1.161 -0.0924  0.1969  0.5519
34393SOL    HW1 6456   8.755   9.251   1.244  0.7580  0.2905  0.7482
34393SOL    HW2 6457   8.823   9.128   1.187 -0.2482 -0.0155  0.1741
34394SOL     OW 6458   5.798   3.990   7.990 -0.3028 -0.7699  0.0968
34394SOL    HW1 6459   5.813   3.924   7.923 -1.0370 -1.7051  0.8219
34394SOL    HW2 6460   5.759   4.064   7.943 -0.2752 -1.1853 -0.5881
34395SOL     OW 6461   8.385   4.961   6.046 -0.2618 -0.4818 -0.3379
34395SOL    HW1 6462   8.385   4.898   6.119 -0.0180 -0.3133 -0.1902
34395SOL    HW2 6463   8.303   5.009   6.057 -0.7499 -1.1928 -0.8200
34396SOL     OW 6464   7.413   5.213   6.083  0.1570  0.1257 -0.2824
34396SOL    HW1 6465   7.389   5.210   6.176  0.6386 -0.1141 -0.1595
34396SOL    HW2 6466   7.494   5.162   6.078 -1.3706 -2.4237 -1.3030
34397SOL     OW 6467   4.565   9.444   5.895 -0.2427 -0.1783 -0.8418
34397SOL    HW1 6468   4.564   9.539   5.899 -0.7826 -0.2021 -0.2357
34397SOL    HW2 6469   4.556   9.416   5.986 -0.9261 -0.8093 -1.0881
34398SOL     OW 6470   6.888   1.641   3.107  0.0628  0.1069 -0.4387
34398SOL    HW1 6471   6.854   1.730   3.109 -2.5370 -0.8010  0.7866
34398SOL    HW2 6472   6.825   1.592   3.054  0.4182 -1.3407  0.4009
34399SOL     OW 6473  10.622   3.008   3.986  0.5536  0.2568  0.1602
34399SOL    HW1 6474  10.590   3.059   4.060 -2.2581 -0.2554 -0.5696
34399SOL    HW2 6475  10.688   3.063   3.944 -1.0441  2.5079  0.4543
34400SOL     OW 6476  10.801   7.879   0.551  0.1332  0.0893 -0.0702
34400SOL    HW1 6477  10.778   7.841   0.636 -0.8930 -1.6275 -1.0522
34400SOL    HW2 6478  10.719   7.917   0.520  0.1789 -0.4134 -0.8244
34401SOL     OW 6479   8.745   5.055  10.543 -0.4644  0.1380 -0.4170
34401SOL    HW1 6480   8.795   5.115  10.488 -1.6387  1.4378 -0.1170
34401SOL    HW2 6481   8.800   5.042  10.621  0.3173 -0.1233 -1.0052
34402SOL     OW 6482   8.455   7.344   4.386  0.1972  0.3593 -0.0811
34402SOL    HW1 6483   8.394   7.406   4.425  0.2490  1.1345 -1.1768
34402SOL    HW2 6484   8.411   7.313   4.307  0.2281 -0.9212  0.3763
34403SOL     OW 6485   2.456  11.023   6.341  0.0648 -0.5366  0.2626
34403SOL    HW1 6486   2.442  11.037   6.435 -1.5533 -0.1167 -0.0151
34403SOL    HW2 6487   2.375  11.052   6.300  0.2376 -1.9484 -1.1730
34404SOL     OW 6488   9.575   8.761  11.065 -0.3674 -0.0445 -0.2502
34404SOL    HW1 6489   9.664   8.725  11.060 -0.9030 -1.4905  0.3002
34404SOL    HW2 6490   9.532   8.729  10.987 -0.5033  0.4083 -0.3629
34405SOL     OW 6491   6.631   2.043   6.145 -0.1301 -0.3751  0.1514
34405SOL    HW1 6492   6.627   1.975   6.078  1.6004  0.5123 -0.9291
34405SOL    HW2 6493   6.723   2.047   6.170 -0.7264 -0.6446  2.5908
34406SOL     OW 6494   2.660   1.969   8.826 -0.3505 -0.3239  0.0673
34406SOL    HW1 6495   2.580   2.020   8.828  0.8373  1.6593 -0.3264
34406SOL    HW2 6496   2.713   2.009   8.757  0.9334 -1.6506  0.2176
34407SOL     OW 6497  10.050   9.279  10.083 -0.3915  0.6981 -0.2162
34407SOL    HW1 6498  10.045   9.372  10.106  0.0432  0.5491  0.5125
34407SOL    HW2 6499  10.087   9.278   9.995 -1.2450  1.2455 -0.6037
34408SOL     OW 6500   5.793   6.473   1.712 -0.0838  0.1289 -0.3175
34408SOL    HW1 6501   5.758   6.465   1.624 -1.8294 -2.9177  0.5008
34408SOL    HW2 6502   5.772   6.563   1.739 -3.7120 -0.2660 -1.3842
34409SOL     OW 6503   1.565   7.848   4.306 -0.0009 -0.0468 -0.0144
34409SOL    HW1 6504   1.551   7.907   4.233 -1.2146  0.8766  0.9291
34409SOL    HW2 6505   1.566   7.904   4.383 -2.7740 -1.2918  1.0961
34410SOL     OW 6506   3.568   9.443   7.439  0.2312 -0.2559  0.0947
34410SOL    HW1 6507   3.601   9.417   7.353  0.6893  1.7334 -0.3973
34410SOL    HW2 6508   3.642   9.486   7.482 -0.7990  1.5156  0.2105
34411SOL     OW 6509   1.149   9.828   2.312 -0.1108  0.2353  0.4677
34411SOL    HW1 6510   1.175   9.919   2.325  2.7006 -0.4230 -0.0170
34411SOL    HW2 6511   1.154   9.815   2.217  2.0920 -1.0716  0.7177
34412SOL     OW 6512   3.966   3.196  11.080  0.4237 -0.4119 -0.4969
34412SOL    HW1 6513   4.007   3.133  11.140 -1.0906 -0.1407  0.8641
34412SOL    HW2 6514   4.009   3.279  11.099  0.1418 -0.3838  0.0168
34413SOL     OW 6515   4.302  10.311   1.065  0.1030  0.0267  0.2284
34413SOL    HW1 6516   4.282  10.404   1.064  2.2399  0.5422 -1.6733
34413SOL    HW2 6517   4.225  10.269   1.027 -0.3647  1.1282 -0.0663
34414SOL     OW 6518   4.258   1.015  11.223  0.2226  0.0313  0.4481
34414SOL    HW1 6519   4.339   1.013  11.172  0.8678  0.7924  1.4179
34414SOL    HW2 6520   4.274   0.959  11.298 -0.5982 -0.7860  0.0433
34415SOL     OW 6521   5.209   8.677   0.960  0.2151  0.6511  0.1300
34415SOL    HW1 6522   5.119   8.645   0.956  0.4321 -0.0167  0.4527
34415SOL    HW2 6523   5.258   8.620   0.900  0.6340  0.2864  0.8088
34416SOL     OW 6524   3.537   0.997   1.577  0.2356 -0.0607  0.6305
34416SOL    HW1 6525   3.447   0.983   1.608  0.7307 -0.5996  1.9123
34416SOL    HW2 6526   3.573   0.908   1.570  0.6616  0.1531  0.0816
34417SOL     OW 6527   8.035   7.518   1.901 -0.3748  0.2289 -0.1216
34417SOL    HW1 6528   8.108   7.562   1.945  1.1207 -0.5703 -1.6815
34417SOL    HW2 6529   7.966   7.584   1.897  0.5344  1.2666  0.7112
34418SOL     OW 6530   0.591   0.246   2.765  0.1414 -0.1283 -0.7110
34418SOL    HW1 6531   0.545   0.201   2.694  2.6450 -1.1214 -1.8424
34418SOL    HW2 6532   0.626   0.175   2.819  1.8699  0.4760 -0.9680
34419SOL     OW 6533  10.955   4.430   8.020  0.3577  0.1062 -0.0094
34419SOL    HW1 6534  10.860   4.433   8.031  0.2315 -0.0637 -0.9472
34419SOL    HW2 6535  10.981   4.521   8.010  0.4917  0.2767  1.6435
34420SOL     OW 6536   0.812   1.944   2.824  0.1606  0.0743 -0.2156
34420SOL    HW1 6537   0.766   2.025   2.804  0.3567 -0.0320 -1.1163
34420SOL    HW2 6538   0.797   1.887   2.749  0.4837 -0.5289  0.1593
34421SOL     OW 6539   4.969   3.548   3.375 -0.4079  0.0356 -0.4851
34421SOL    HW1 6540   4.886   3.502   3.366  0.8967 -2.9129  0.9913
34421SOL    HW2 6541   5.018   3.524   3.296 -0.2425  0.1085 -0.4050
34422SOL     OW 6542   7.794   4.067   7.139 -0.0436 -0.4070 -0.1827
34422SOL    HW1 6543   7.761   3.991   7.187 -1.7397  0.7912  0.6726
34422SOL    HW2 6544   7.776   4.048   7.047  1.0480 -1.7130 -0.1518
34423SOL     OW 6545   4.302   5.134   0.137  0.6787  0.1946  0.6286
34423SOL    HW1 6546   4.313   5.048   0.098 -3.1414  0.4500 -1.4398
34423SOL    HW2 6547   4.249   5.183   0.074 -0.7209  2.7145  3.4815
34424SOL     OW 6548   3.942  10.630   3.375 -0.1140 -0.1106 -0.1581
34424SOL    HW1 6549   3.923  10.552   3.427 -0.8010 -0.2771 -0.6552
34424SOL    HW2 6550   3.903  10.702   3.425 -1.6266 -0.3829 -0.8900
34425SOL     OW 6551   9.268   7.235   4.439  0.5958 -0.1328 -0.1536
34425SOL    HW1 6552   9.243   7.312   4.387 -1.7363 -0.1253  0.8787
34425SOL    HW2 6553   9.278   7.268   4.528  0.1477 -0.9216  0.1983
34426SOL     OW 6554   8.738   7.062   2.166 -0.1487  0.1173  0.4806
34426SOL    HW1 6555   8.686   7.010   2.227  0.5882 -0.7033  0.4350
34426SOL    HW2 6556   8.815   7.088   2.217  1.6561 -2.5494 -0.6542
34427SOL     OW 6557   8.846   3.839   4.901 -1.2408 -0.4003 -0.3097
34427SOL    HW1 6558   8.793   3.788   4.961 -0.5965 -1.4563 -0.6200
34427SOL    HW2 6559   8.815   3.814   4.814 -1.6716  0.5700 -0.4484
34428SOL     OW 6560   8.003   6.182   3.872 -0.7824  0.3175 -0.0401
34428SOL    HW1 6561   8.036   6.121   3.937 -1.2415  1.0393  0.9038
34428SOL    HW2 6562   7.908   6.170   3.874 -0.9663  1.6435  0.8091
34429SOL     OW 6563   7.449   7.047   8.080  0.0220 -0.0701  0.2541
34429SOL    HW1 6564   7.477   7.030   7.990 -0.0613  0.1880  0.1789
34429SOL    HW2 6565   7.499   6.984   8.132  2.9050  2.1286  0.4382
34430SOL     OW 6566   1.882   4.639   6.532 -0.6813 -0.3686 -0.0292
34430SOL    HW1 6567   1.801   4.589   6.534 -0.6561 -0.4947 -1.3733
34430SOL    HW2 6568   1.950   4.576   6.555 -0.9050 -0.3433  0.7447
34431SOL     OW 6569   3.624   2.236   5.103 -0.6647 -0.0122  0.0454
34431SOL    HW1 6570   3.657   2.167   5.160  0.0005 -1.1950 -1.6882
34431SOL    HW2 6571   3.633   2.201   5.015  1.4518  3.0107 -1.0956
34432SOL     OW 6572   4.814   2.573   0.871 -0.3156 -0.5490 -0.0359
34432SOL    HW1 6573   4.740   2.548   0.926 -0.0121 -0.3501  0.4696
34432SOL    HW2 6574   4.885   2.516   0.898 -0.3149 -0.8290 -0.6121
34433SOL     OW 6575   7.445   6.298   1.992  0.0191  0.8315 -0.0791
34433SOL    HW1 6576   7.533   6.299   2.029  0.8319 -2.1080 -1.7179
34433SOL    HW2 6577   7.388   6.291   2.069  1.3599 -0.0275  0.8870
34434SOL     OW 6578   7.407   3.948   6.635  0.3623  0.1063 -0.1505
34434SOL    HW1 6579   7.403   3.938   6.730  0.6752 -0.6497 -0.2083
34434SOL    HW2 6580   7.365   3.870   6.601 -2.2511  1.6227 -0.6584
34435SOL     OW 6581   6.186   6.525   8.904  0.8608  0.2189  0.5436
34435SOL    HW1 6582   6.110   6.466   8.906  0.3594  0.7681  3.5269
34435SOL    HW2 6583   6.153   6.607   8.942  2.5589  1.0355  0.3494
34436SOL     OW 6584   0.437   6.107   4.493 -0.1038  0.1451  0.1890
34436SOL    HW1 6585   0.502   6.177   4.483 -2.3289  2.2409 -0.7140
34436SOL    HW2 6586   0.414   6.109   4.586 -0.4910  1.0151  0.0933
34437SOL     OW 6587   3.438   6.180   3.337  0.0071  0.7126  0.2487
34437SOL    HW1 6588   3.512   6.240   3.324 -1.0875  1.8574 -0.9091
34437SOL    HW2 6589   3.453   6.110   3.273  0.6507  0.3437  0.7821
34438SOL     OW 6590   9.234  11.083   8.419 -0.1326 -0.2620  0.0930
34438SOL    HW1 6591   9.211  11.031   8.342 -0.8796  1.7439 -1.1391
34438SOL    HW2 6592   9.323  11.056   8.440 -0.8054 -2.6970  0.1680
34439SOL     OW 6593   8.082   8.209  11.108  0.7211 -0.3207  0.3439
34439SOL    HW1 6594   8.011   8.209  11.044 -0.0578  4.3487  0.8560
34439SOL    HW2 6595   8.038   8.194  11.192  1.1171 -1.9059  0.3146
34440SOL     OW 6596   4.795  10.030   8.596  0.6558 -0.1221 -0.0384
34440SOL    HW1 6597   4.784   9.984   8.513  1.2667  1.6377 -1.1425
34440SOL    HW2 6598   4.705  10.050   8.624  0.4761  0.0405 -0.7190
34441SOL     OW 6599   8.574   6.865   4.683  0.5449  0.1042 -0.4416
34441SOL    HW1 6600   8.509   6.911   4.737 -0.3000 -0.6786 -0.7665
34441SOL    HW2 6601   8.653   6.863   4.738 -0.8793 -2.6192  1.8046
34442SOL     OW 6602   6.112   3.206   4.380  0.1899 -0.3443 -0.4023
34442SOL    HW1 6603   6.188   3.156   4.409 -0.3554 -0.5758  0.6685
34442SOL    HW2 6604   6.103   3.277   4.444 -1.2233 -1.0473  0.2104
34443SOL     OW 6605   6.876   0.480   7.993  0.1833 -0.2308 -0.2335
34443SOL    HW1 6606   6.953   0.534   7.974  1.1630 -1.0622  1.1668
34443SOL    HW2 6607   6.850   0.505   8.082  0.9096 -2.2620  0.6158
34444SOL     OW 6608  11.133   6.340  11.071 -0.2782  0.1825  0.0768
34444SOL    HW1 6609  11.085   6.421  11.054  0.6741  0.6083 -0.6818
34444SOL    HW2 6610  11.170   6.316  10.986  0.4408 -0.3991  0.5477
34445SOL     OW 6611   3.016   5.536  10.796 -0.5750  0.4374 -0.2623
34445SOL    HW1 6612   3.077   5.601  10.762  0.4847 -0.5569 -0.2995
34445SOL    HW2 6613   3.071   5.474  10.845 -1.7263  0.3305  0.9577
34446SOL     OW 6614   4.556   0.289  10.189  0.0229  0.3459 -0.4658
34446SOL    HW1 6615   4.614   0.339  10.131  1.4710 -2.0356 -1.2294
34446SOL    HW2 6616   4.556   0.201  10.152 -1.9527 -0.3922  1.1275
34447SOL     OW 6617   6.549   3.753   3.670 -0.3406  0.3387  0.1742
34447SOL    HW1 6618   6.587   3.808   3.738  0.7548 -0.8455  0.5668
34447SOL    HW2 6619   6.488   3.696   3.717  0.1081 -0.1981  0.1151
34448SOL     OW 6620   5.122   8.771   2.067 -0.1963 -0.7863 -0.2704
34448SOL    HW1 6621   5.044   8.739   2.112  0.2405 -1.3050  0.1310
34448SOL    HW2 6622   5.187   8.702   2.080  0.6062  0.0345  0.1645
34449SOL     OW 6623  10.840   3.969   8.251 -0.2161  0.2431  0.5446
34449SOL    HW1 6624  10.896   3.911   8.304 -0.1276 -1.0029 -0.8377
34449SOL    HW2 6625  10.901   4.031   8.212 -0.0744  0.1975  0.6915
34450SOL     OW 6626   6.683   1.522   0.503 -0.1716 -0.1182 -0.0650
34450SOL    HW1 6627   6.772   1.526   0.468  0.3518 -1.1487  1.0774
34450SOL    HW2 6628   6.649   1.611   0.492  1.3948  0.5780  0.4643
34451SOL     OW 6629   8.385  10.575   4.867  0.0761 -0.3753  0.2417
34451SOL    HW1 6630   8.328  10.584   4.790 -2.5795  0.0691  2.1309
34451SOL    HW2 6631   8.386  10.482   4.886  0.5081 -0.4517 -0.1103
34452SOL     OW 6632   6.287  11.225   1.539 -0.0811  0.1318 -0.2933
34452SOL    HW1 6633   6.357  11.268   1.490  0.1594  0.1955  0.0966
34452SOL    HW2 6634   6.261  11.151   1.484  1.0927 -0.5833  0.0692
34453SOL     OW 6635   3.465   2.035   6.612  0.0066  0.4462  0.0390
34453SOL    HW1 6636   3.546   2.050   6.661 -0.2966  0.5081  0.5223
34453SOL    HW2 6637   3.488   1.966   6.549  0.3885  0.3526  0.2785
34454SOL     OW 6638   2.245   1.026   5.859 -0.1395 -0.1820  0.0927
34454SOL    HW1 6639   2.335   1.002   5.838 -0.2843 -0.0103 -0.7387
34454SOL    HW2 6640   2.252   1.074   5.942  0.4944 -0.4159  0.1815
34455SOL     OW 6641   4.484   5.312   8.784  0.1075 -0.1508 -0.4751
34455SOL    HW1 6642   4.565   5.262   8.775 -1.7569 -3.3446 -0.9074
34455SOL    HW2 6643   4.496   5.364   8.863  2.5399 -0.5089 -0.5491
34456SOL     OW 6644   3.990   5.794   3.508  0.2266  0.0766  0.0570
34456SOL    HW1 6645   4.084   5.802   3.494  0.2124  0.6558  0.2537
34456SOL    HW2 6646   3.951   5.817   3.424  0.2712 -0.5355 -0.1324
34457SOL     OW 6647   4.103   1.165   0.825 -0.0009  0.1560 -0.1225
34457SOL    HW1 6648   4.159   1.210   0.887 -0.6659  2.7695 -1.2901
34457SOL    HW2 6649   4.027   1.138   0.877 -0.7061  2.5956  0.2170
34458SOL     OW 6650   6.529   7.980   1.613  0.2695 -0.4504  0.3176
34458SOL    HW1 6651   6.608   7.932   1.639  2.4641  1.2661 -2.5609
34458SOL    HW2 6652   6.487   8.003   1.696  2.8808 -1.2834  2.0077
34459SOL     OW 6653   1.520   7.436   9.573  0.0991 -0.0370  0.0685
34459SOL    HW1 6654   1.504   7.449   9.667 -0.1110 -2.6459  0.4682
34459SOL    HW2 6655   1.585   7.503   9.550  1.4903 -0.4412  2.4898
34460SOL     OW 6656   2.931   6.268   7.639 -0.4107 -0.2067  0.1706
34460SOL    HW1 6657   2.943   6.182   7.680 -0.6383  0.1654  1.0541
34460SOL    HW2 6658   2.922   6.329   7.713  0.9604  0.7637 -0.4121
34461SOL     OW 6659   7.704   6.678  10.432  0.0889 -0.4632  0.3780
34461SOL    HW1 6660   7.714   6.766  10.469 -1.2615 -0.1663  0.0823
34461SOL    HW2 6661   7.779   6.669  10.374  0.1849  0.5573  0.3146
34462SOL     OW 6662   4.626   6.630   1.873 -0.3515  0.0160 -0.3627
34462SOL    HW1 6663   4.531   6.638   1.879 -0.4423 -0.0679 -1.4204
34462SOL    HW2 6664   4.660   6.695   1.934 -1.0714 -1.1717  1.3733
34463SOL     OW 6665   9.681   3.184   3.194 -0.0969 -0.4006 -0.1389
34463SOL    HW1 6666   9.693   3.210   3.103  0.5781 -0.3100 -0.0306
34463SOL    HW2 6667   9.766   3.146   3.219 -0.6311 -1.4712  0.1063
34464SOL     OW 6668   1.875  10.428   9.635 -0.0929 -0.0318  0.3121
34464SOL    HW1 6669   1.962  10.430   9.674 -0.0673 -0.5401  0.2894
34464SOL    HW2 6670   1.875  10.350   9.580 -1.3656 -1.4538  2.2080
34465SOL     OW 6671   6.904   3.465   0.391  0.3218  0.1385 -0.1610
34465SOL    HW1 6672   6.884   3.502   0.305  1.4601 -1.9120 -1.3999
34465SOL    HW2 6673   6.937   3.538   0.443  0.3494  1.2738 -1.7262
34466SOL     OW 6674   4.041   0.602   2.713  0.1892 -0.6621  0.9596
34466SOL    HW1 6675   3.974   0.594   2.645  1.7602  0.0411 -0.7610
34466SOL    HW2 6676   4.053   0.512   2.745  1.6801 -1.6741 -2.0583
34467SOL     OW 6677   3.142  10.189   4.414  0.1538 -0.2560  0.0756
34467SOL    HW1 6678   3.139  10.151   4.326 -1.0580  0.5178 -0.2506
34467SOL    HW2 6679   3.057  10.168   4.453 -0.2093  1.2834  0.2105
34468SOL     OW 6680   6.426   2.684  10.391 -0.2395 -0.0787 -0.0445
34468SOL    HW1 6681   6.511   2.644  10.369  0.3814 -0.1665  2.2720
34468SOL    HW2 6682   6.370   2.609  10.414 -0.6032  0.0667 -0.4422
34469SOL     OW 6683   2.380   4.076  10.063  1.4669  0.3844  0.3610
34469SOL    HW1 6684   2.416   4.046   9.979  1.1706 -1.1306  0.7381
34469SOL    HW2 6685   2.294   4.034  10.068  0.0531  3.0307 -0.0058
34470SOL     OW 6686   7.670   5.796   9.195  0.4492  0.3682 -0.6910
34470SOL    HW1 6687   7.654   5.880   9.238 -0.8700 -0.7564  1.1724
34470SOL    HW2 6688   7.590   5.746   9.210  1.0765 -1.1170 -2.0375
34471SOL     OW 6689   3.587   9.242   4.699 -0.2589 -0.4042  0.2285
34471SOL    HW1 6690   3.507   9.259   4.651 -0.1676  2.0320  0.7735
34471SOL    HW2 6691   3.582   9.300   4.776  2.2262  0.2627 -0.0090
34472SOL     OW 6692   1.565   3.124   5.163  0.1947  0.0623 -0.8346
34472SOL    HW1 6693   1.611   3.163   5.089  0.9245 -0.6220 -0.7585
34472SOL    HW2 6694   1.480   3.097   5.128 -0.4897  2.0022 -0.8031
34473SOL     OW 6695   4.030   7.617   1.395 -0.7099 -0.0071  0.1284
34473SOL    HW1 6696   4.089   7.686   1.364 -0.2184 -0.1998  0.6253
34473SOL    HW2 6697   3.942   7.655   1.385 -0.3998  1.2509  1.7108
34474SOL     OW 6698  10.857   8.749   2.776 -0.3166  0.1625 -0.0116
34474SOL    HW1 6699  10.781   8.780   2.726 -0.3679 -0.1669 -0.1380
34474SOL    HW2 6700  10.823   8.733   2.864 -0.7489 -1.4305 -0.4343
34475SOL     OW 6701   5.562   6.436   6.123 -0.5093  0.2479  0.2499
34475SOL    HW1 6702   5.506   6.367   6.088 -2.7233  2.6349 -1.3351
34475SOL    HW2 6703   5.567   6.418   6.217  0.9156 -3.2190 -0.3369
34476SOL     OW 6704   9.034   2.080   0.099  0.4378 -0.2320 -0.4508
34476SOL    HW1 6705   8.969   2.012   0.080  1.0696 -0.6861 -1.0335
34476SOL    HW2 6706   9.015   2.150   0.037 -1.7573  1.2376  1.7102
34477SOL     OW 6707   6.536   8.241   8.975  0.1435  0.2862  0.5924
34477SOL    HW1 6708   6.472   8.261   9.043  1.2162  2.1029  1.1271
34477SOL    HW2 6709   6.620   8.238   9.021  0.6374 -0.6088 -0.3269
34478SOL     OW 6710   9.984   7.514  10.556 -0.2248  0.1586  0.0762
34478SOL    HW1 6711   9.943   7.485  10.474 -0.7852  0.2619  0.3102
34478SOL    HW2 6712  10.058   7.567  10.528 -1.0794  1.1425 -0.3917
34479SOL     OW 6713   0.345   6.289   0.730 -0.0359  0.2514  0.2219
34479SOL    HW1 6714   0.252   6.268   0.717  0.0356  0.1219 -0.0884
34479SOL    HW2 6715   0.357   6.285   0.825 -0.5458  1.1114  0.3313
34480SOL     OW 6716  11.029   3.552   7.847  0.3939  0.2335  0.0859
34480SOL    HW1 6717  11.078   3.558   7.929  1.2992 -0.3464 -0.3870
34480SOL    HW2 6718  11.065   3.475   7.803  1.3547  1.6253 -1.7365
34481SOL     OW 6719   4.729   2.894  10.607  0.2149  0.6005 -0.0557
34481SOL    HW1 6720   4.795   2.936  10.552 -0.1487 -0.0092 -0.9759
34481SOL    HW2 6721   4.781   2.852  10.677  0.8111  0.1932 -0.7234
34482SOL     OW 6722   8.865   9.616   1.071 -0.8916  0.6013 -0.0583
34482SOL    HW1 6723   8.878   9.521   1.075 -1.3489  0.5318 -0.2238
34482SOL    HW2 6724   8.821   9.631   0.987 -0.3995  1.0116 -0.2520
34483SOL     OW 6725   2.465   9.161   8.055 -0.4191 -0.1061  0.3243
34483SOL    HW1 6726   2.460   9.083   8.109 -0.4876 -2.2129 -2.4788
34483SOL    HW2 6727   2.552   9.198   8.074 -0.3044 -0.9776  1.5564
34484SOL     OW 6728   3.805   4.804   4.323  0.4636  0.4077 -0.6340
34484SOL    HW1 6729   3.726   4.791   4.374  0.8435 -0.0963 -0.1685
34484SOL    HW2 6730   3.779   4.867   4.255 -1.0612 -1.7473 -2.1665
34485SOL     OW 6731   9.965  10.664  10.073 -0.0714  0.5914 -0.4499
34485SOL    HW1 6732   9.877  10.666  10.110  0.1960  1.7433  0.1769
34485SOL    HW2 6733   9.992  10.756  10.071  0.9948  0.2821 -0.9380
34486SOL     OW 6734   2.244   5.571   1.131 -0.2706  0.0973 -0.0512
34486SOL    HW1 6735   2.179   5.592   1.198  1.4009  1.2990  1.2614
34486SOL    HW2 6736   2.285   5.490   1.161 -0.8565 -0.4537 -0.6868
34487SOL     OW 6737   6.797   6.414   7.587 -0.5805  0.1841 -0.2695
34487SOL    HW1 6738   6.838   6.451   7.508  0.6858 -2.0201 -0.7315
34487SOL    HW2 6739   6.859   6.436   7.657 -2.0609  2.7908  0.3570
34488SOL     OW 6740   4.358   8.153   9.710  0.1449  0.0982 -0.2488
34488SOL    HW1 6741   4.449   8.173   9.732 -0.2534  1.3079  0.3637
34488SOL    HW2 6742   4.359   8.060   9.688  1.6213  0.1993 -0.7536
34489SOL     OW 6743   1.139   5.045  10.509  0.2625  0.1556  0.6585
34489SOL    HW1 6744   1.104   4.999  10.585 -0.7758 -0.7965 -0.3605
34489SOL    HW2 6745   1.079   5.119  10.496 -0.2609 -0.3768  0.0468
34490SOL     OW 6746  10.957   2.689   0.517  0.3408 -0.1959 -0.3674
34490SOL    HW1 6747  10.879   2.691   0.572  0.5001  0.7887 -0.1608
34490SOL    HW2 6748  11.012   2.620   0.554  0.5700  0.6433  0.8899
34491SOL     OW 6749   2.205   2.471   5.083  0.0194  0.6532  0.0835
34491SOL    HW1 6750   2.231   2.379   5.071 -0.8785  0.5081 -0.8908
34491SOL    HW2 6751   2.178   2.500   4.996 -1.9548  1.1167  0.7821
34492SOL     OW 6752   6.007   3.765   3.625  0.0908  0.3127  0.0750
34492SOL    HW1 6753   5.920   3.807   3.626  0.8808  2.0930  1.5369
34492SOL    HW2 6754   5.997   3.688   3.681 -0.9081 -0.4024 -1.0410
34493SOL     OW 6755   9.306   6.736   8.505  0.3574 -0.6247 -0.1831
34493SOL    HW1 6756   9.398   6.721   8.528  0.7365  0.3861 -0.9715
34493SOL    HW2 6757   9.308   6.761   8.412 -0.5346  0.9698  0.1880
34494SOL     OW 6758   2.321   8.226   1.210  0.0376 -0.0307 -0.0000
34494SOL    HW1 6759   2.375   8.286   1.158  0.2319 -0.0484  0.1807
34494SOL    HW2 6760   2.360   8.140   1.194  0.4188  0.0308  0.5851
34495SOL     OW 6761   4.187   2.437  10.830  0.3748 -0.0478  0.2592
34495SOL    HW1 6762   4.182   2.369  10.763  2.0745 -0.3697  0.3969
34495SOL    HW2 6763   4.280   2.459  10.834 -0.3271  3.7955 -1.2300
34496SOL     OW 6764   4.817  10.802   8.116  0.0770 -0.5849  0.0918
34496SOL    HW1 6765   4.764  10.768   8.188  1.9213 -0.2015  1.7169
34496SOL    HW2 6766   4.789  10.752   8.040 -1.5691 -1.3842  1.1659
34497SOL     OW 6767   9.789   5.326   8.299  0.1201  0.7351 -0.0383
34497SOL    HW1 6768   9.838   5.395   8.254 -0.2360  0.3146 -1.1256
34497SOL    HW2 6769   9.701   5.362   8.310 -0.1208  0.4020 -0.7876
34498SOL     OW 6770   7.867   8.216   7.111  0.2846  0.3115  0.2987
34498SOL    HW1 6771   7.898   8.237   7.023  3.4135 -2.3022  0.5880
34498SOL    HW2 6772   7.913   8.278   7.168  0.2136  0.3745  0.2877
34499SOL     OW 6773   5.862   1.130   7.111 -0.0522 -0.3122  0.1054
34499SOL    HW1 6774   5.814   1.128   7.028 -0.5175 -0.4267  0.3732
34499SOL    HW2 6775   5.951   1.103   7.088  0.1253  0.7857 -0.5488
34500SOL     OW 6776   8.179   3.581   3.209  0.3023 -0.3713 -0.6359
34500SOL    HW1 6777   8.115   3.619   3.268  1.0099  0.9697 -0.6879
34500SOL    HW2 6778   8.134   3.507   3.169 -0.7777 -0.2206  0.2443
34501SOL     OW 6779   6.488   3.846   7.766 -0.0235  0.0265 -0.6636
34501SOL    HW1 6780   6.564   3.898   7.790 -0.8781  1.0899 -0.1456
34501SOL    HW2 6781   6.519   3.756   7.764  1.3482  0.4893 -0.9461
34502SOL     OW 6782   4.166   6.895  10.911  0.3680  0.5081  0.3128
34502SOL    HW1 6783   4.207   6.964  10.860 -0.3864  1.0174  0.3751
34502SOL    HW2 6784   4.190   6.915  11.002 -2.0790  2.3504  0.6670
34503SOL     OW 6785   2.631   6.668  10.442 -0.1062  0.1027  0.6327
34503SOL    HW1 6786   2.724   6.690  10.428  0.1744 -0.7851  1.0280
34503SOL    HW2 6787   2.604   6.725  10.514  0.4737 -0.4602  1.3124
34504SOL     OW 6788   5.514   7.883  10.750  0.3706  0.1782  0.4220
34504SOL    HW1 6789   5.593   7.832  10.764  0.4086 -0.0736 -0.6241
34504SOL    HW2 6790   5.545   7.971  10.729  0.3209  0.4911  1.6059
34505SOL     OW 6791   5.514   1.099   7.648 -0.6318 -0.2756 -0.0368
34505SOL    HW1 6792   5.421   1.111   7.629 -0.8643 -0.9476  0.6446
34505SOL    HW2 6793   5.558   1.162   7.591 -1.6697  2.3827  1.8741
34506SOL     OW 6794   2.051   0.132   4.143 -0.5387  0.0363  0.3772
34506SOL    HW1 6795   2.081   0.044   4.120  0.8654 -0.8060  4.5337
34506SOL    HW2 6796   1.968   0.118   4.190 -0.5974  0.9780  0.5880
34507SOL     OW 6797   1.707   9.722   2.988  0.5330  0.0568  0.1197
34507SOL    HW1 6798   1.706   9.810   3.025  0.3054 -0.2655  0.8930
34507SOL    HW2 6799   1.797   9.692   3.000  1.1364  0.8762 -1.8672
34508SOL     OW 6800   5.012   6.926   2.605  0.8394 -0.2691 -0.0560
34508SOL    HW1 6801   5.032   6.979   2.682  2.0263  0.4680 -0.8390
34508SOL    HW2 6802   5.002   6.990   2.534  0.4087 -0.9786 -0.6481
34509SOL     OW 6803   2.564   9.532   2.454  0.2943  0.0685  0.1425
34509SOL    HW1 6804   2.631   9.568   2.512 -1.2529  1.1823  1.3373
34509SOL    HW2 6805   2.508   9.607   2.432 -0.1069 -0.6503 -1.4972
34510SOL     OW 6806   3.978   1.303   4.569  0.0262 -0.2874 -0.3511
34510SOL    HW1 6807   4.052   1.259   4.612  2.0950  2.7800 -0.4630
34510SOL    HW2 6808   3.910   1.236   4.566  2.3552 -2.9638  0.8328
34511SOL     OW 6809   5.448   0.605   0.846  0.8939  0.2668  0.7357
34511SOL    HW1 6810   5.429   0.689   0.887 -2.7405  0.6707 -1.3454
34511SOL    HW2 6811   5.432   0.619   0.753  0.1357 -2.6730  0.2975
34512SOL     OW 6812   7.575   7.850   2.563 -0.0033 -0.1417  0.1106
34512SOL    HW1 6813   7.613   7.874   2.478  0.1815 -0.4155  0.1144
34512SOL    HW2 6814   7.609   7.916   2.624  1.8695 -1.3556  0.4541
34513SOL     OW 6815  11.161   8.633   8.457 -0.0257 -1.0038  0.0614
34513SOL    HW1 6816  11.117   8.682   8.387  0.7836 -0.1598  0.1168
34513SOL    HW2 6817  11.209   8.700   8.505  2.2946 -2.0212 -0.7218
34514SOL     OW 6818   2.384   6.943   4.152 -0.4575  0.1650 -0.1152
34514SOL    HW1 6819   2.439   6.973   4.224  1.2198  0.5510 -1.5046
34514SOL    HW2 6820   2.362   6.852   4.175  0.6870  0.0318  0.5172
34515SOL     OW 6821   5.490   0.444   7.506  0.2919 -0.1835 -0.0068
34515SOL    HW1 6822   5.475   0.478   7.418 -0.5232 -0.3197  0.0739
34515SOL    HW2 6823   5.585   0.454   7.520  0.2099  1.2670 -0.3104
34516SOL     OW 6824   0.838   8.659   3.714  0.1688 -0.0532  0.0697
34516SOL    HW1 6825   0.793   8.733   3.675  2.6118  0.9696 -1.0131
34516SOL    HW2 6826   0.769   8.595   3.732 -1.6470  1.3495 -1.5487
34517SOL     OW 6827   8.864   7.869   6.296 -0.5429  0.3048 -0.4191
34517SOL    HW1 6828   8.943   7.882   6.244 -0.6237 -1.9102 -1.2273
34517SOL    HW2 6829   8.867   7.937   6.363  0.6661  1.9228 -2.0167
34518SOL     OW 6830   8.639   7.038   0.869 -0.4161 -0.1670  0.2394
34518SOL    HW1 6831   8.634   6.982   0.792  1.1411 -1.7630  1.2278
34518SOL    HW2 6832   8.566   7.009   0.925 -0.2405 -0.4851  0.3012
34519SOL     OW 6833   8.520   0.804  10.704 -0.2088  0.1582  0.4853
34519SOL    HW1 6834   8.474   0.720  10.707  0.5449 -0.2421  2.2169
34519SOL    HW2 6835   8.490   0.851  10.781  0.7884  0.6957  0.5620
34520SOL     OW 6836   4.317   8.483   5.103 -0.0559  0.2684 -0.6008
34520SOL    HW1 6837   4.223   8.481   5.122  0.0771  0.3051  0.0717
34520SOL    HW2 6838   4.325   8.544   5.030 -0.5546  0.2577 -0.6687
34521SOL     OW 6839   6.561  11.394  11.212  0.4419  0.3216 -0.4977
34521SOL    HW1 6840   6.534  11.338  11.138  0.6750 -0.0942 -0.2715
34521SOL    HW2 6841   6.604  11.469  11.171 -0.6684  0.7835 -0.8498
34522SOL     OW 6842   2.153   0.943   2.500 -0.1384  0.0933  0.2808
34522SOL    HW1 6843   2.185   0.924   2.412  0.0637 -1.8785  0.7371
34522SOL    HW2 6844   2.060   0.920   2.498 -0.1186 -0.0272  0.5881
34523SOL     OW 6845   0.646  10.529  10.406 -0.5010 -0.2613 -0.1538
34523SOL    HW1 6846   0.605  10.444  10.416 -0.4197 -0.2037  0.7317
34523SOL    HW2 6847   0.574  10.588  10.382 -0.6325 -0.4919 -0.3267
34524SOL     OW 6848   9.130   6.275   2.506 -0.2432 -0.0879 -0.1954
34524SOL    HW1 6849   9.067   6.273   2.579 -0.3251 -0.7292 -0.2800
34524SOL    HW2 6850   9.082   6.237   2.432  0.7503 -2.1614  0.1545
34525SOL     OW 6851   5.327   4.359   8.662  0.1053  0.6180 -0.4687
34525SOL    HW1 6852   5.259   4.385   8.600 -0.4852  0.5629  0.1368
34525SOL    HW2 6853   5.392   4.429   8.657 -1.8570  2.7968  1.7616
34526SOL     OW 6854   6.914   0.420   6.151 -0.1428 -0.4868 -0.5318
34526SOL    HW1 6855   6.886   0.350   6.211  0.3436 -0.7100 -0.5581
34526SOL    HW2 6856   6.978   0.471   6.202 -1.0544  0.4004 -0.2537
34527SOL     OW 6857   7.551  10.161   1.362  0.0770  0.1880  0.0730
34527SOL    HW1 6858   7.507  10.156   1.277  1.8114  0.3327 -0.9016
34527SOL    HW2 6859   7.534  10.076   1.403 -3.6211  1.3054  1.1530
34528SOL     OW 6860   1.163   8.804   1.020 -0.8566 -0.6207 -0.3047
34528SOL    HW1 6861   1.124   8.890   1.035  1.2484  0.3302  0.0408
34528SOL    HW2 6862   1.247   8.822   0.978 -0.0349 -2.4612  0.4404
34529SOL     OW 6863  10.918   1.294   5.592  0.0657  0.9142 -0.5308
34529SOL    HW1 6864  10.952   1.220   5.643 -0.3150  0.5121 -0.8537
34529SOL    HW2 6865  10.856   1.337   5.650  0.8943  1.4846 -0.0390
34530SOL     OW 6866   9.937   1.391   9.514  0.1884  0.5050 -0.1713
34530SOL    HW1 6867   9.842   1.379   9.508  0.0659  1.6619 -0.9321
34530SOL    HW2 6868   9.952   1.480   9.480  1.6027  0.1230 -0.6265
34531SOL     OW 6869   8.434   9.492   6.070  0.1496 -0.1546 -0.4691
34531SOL    HW1 6870   8.495   9.557   6.103  1.4609 -0.0057 -2.9623
34531SOL    HW2 6871   8.349   9.536   6.070  0.5173  0.5732  0.5061
34532SOL     OW 6872   8.055   4.767   1.812 -0.0190 -0.2675 -0.3995
34532SOL    HW1 6873   8.136   4.716   1.817 -0.3341 -0.9375 -1.8005
34532SOL    HW2 6874   8.081   4.849   1.770  0.0778 -0.1545 -0.1221
34533SOL     OW 6875   9.877   9.212   7.771 -0.3142  0.0875  0.0866
34533SOL    HW1 6876   9.799   9.259   7.803 -0.2545 -0.7582  1.5719
34533SOL    HW2 6877   9.944   9.231   7.837  0.3480 -0.3286 -0.4537
34534SOL     OW 6878   4.381   3.239   0.641 -0.0898  0.1416 -0.2829
34534SOL    HW1 6879   4.417   3.170   0.585  0.5301 -0.3045  0.6378
34534SOL    HW2 6880   4.451   3.302   0.650  0.1371 -0.2275  0.6922
34535SOL     OW 6881   1.072   5.734   9.739 -0.1457 -0.2154  0.0543
34535SOL    HW1 6882   1.114   5.782   9.811 -0.1811  1.7562 -1.1779
34535SOL    HW2 6883   1.062   5.798   9.669 -2.1144 -1.5071 -0.9546
34536SOL     OW 6884  10.796   5.244   1.831 -0.2960 -0.3738  1.0490
34536SOL    HW1 6885  10.831   5.161   1.797  1.9806  1.1752 -0.7348
34536SOL    HW2 6886  10.873   5.300   1.840 -1.9841  2.2627  0.0948
34537SOL     OW 6887   3.886   2.949   4.690 -0.3851 -0.0091 -0.3900
34537SOL    HW1 6888   3.840   2.958   4.606 -0.5462 -0.3411 -0.3393
34537SOL    HW2 6889   3.816   2.933   4.754 -0.2135 -0.3758 -0.2898
34538SOL     OW 6890   9.079   3.914   2.741  0.3293 -0.3408  0.9464
34538SOL    HW1 6891   9.031   3.831   2.746 -1.4659  0.6466  0.7445
34538SOL    HW2 6892   9.099   3.936   2.832 -2.2711  0.6792  1.3569
34539SOL     OW 6893   1.141   2.541   0.792 -0.1171  0.3945  0.7516
34539SOL    HW1 6894   1.076   2.603   0.759 -0.3191 -0.2154 -0.0316
34539SOL    HW2 6895   1.092   2.482   0.849  0.0935  1.0001  1.5768
34540SOL     OW 6896   8.292   2.676   0.386  0.2876 -0.1116 -0.0940
34540SOL    HW1 6897   8.241   2.710   0.312  0.4699  1.1396  0.3249
34540SOL    HW2 6898   8.252   2.716   0.463  0.6909 -0.6592  0.4018
34541SOL     OW 6899   6.500   5.669   5.614  0.2314 -0.5229  0.2665
34541SOL    HW1 6900   6.482   5.742   5.673  0.7276 -1.4356  1.6069
34541SOL    HW2 6901   6.415   5.625   5.606  0.1622 -0.4012  0.3201
34542SOL     OW 6902  10.820   0.703   7.831  0.0922  0.3440  0.2843
34542SOL    HW1 6903  10.781   0.761   7.766 -0.7766  0.0474  0.5292
34542SOL    HW2 6904  10.832   0.620   7.786  2.6698  1.0302 -0.5124
34543SOL     OW 6905  10.195  10.466   2.950 -0.1400 -0.1249 -0.5028
34543SOL    HW1 6906  10.231  10.433   3.032 -0.4499 -0.5379 -0.5354
34543SOL    HW2 6907  10.211  10.561   2.954 -0.8899 -0.0275  0.4025
34544SOL     OW 6908   4.782   0.609   4.222 -0.2566  0.4451 -0.2970
34544SOL    HW1 6909   4.774   0.644   4.133  0.3710  0.4173 -0.3677
34544SOL    HW2 6910   4.702   0.557   4.234  0.5862 -1.2306 -1.6032
34545SOL     OW 6911   5.491   0.253   6.375  0.2661 -0.1397  0.5203
34545SOL    HW1 6912   5.396   0.251   6.386  0.0692  2.1569 -0.1280
34545SOL    HW2 6913   5.525   0.243   6.464 -0.4573 -2.5880  0.5962
34546SOL     OW 6914   7.638   9.317   9.179 -0.4719  0.3892  0.6982
34546SOL    HW1 6915   7.637   9.401   9.226  1.1883  0.1414  1.2216
34546SOL    HW2 6916   7.725   9.282   9.193 -0.3211 -0.3133 -1.5278
34547SOL     OW 6917   5.300   7.737   4.828 -0.2765  0.6891 -1.1069
34547SOL    HW1 6918   5.340   7.807   4.775  0.0805  0.5025 -1.0884
34547SOL    HW2 6919   5.277   7.669   4.765 -0.4188  0.7277 -1.0969
34548SOL     OW 6920   0.084   5.293   2.601  0.1664  0.2486 -0.6671
34548SOL    HW1 6921  -0.006   5.268   2.619  0.5937 -1.1087 -0.2965
34548SOL    HW2 6922   0.079   5.350   2.525 -1.0592  0.7643 -0.2278
34549SOL     OW 6923  11.243   7.182   7.717 -0.0544  0.2317 -0.6741
34549SOL    HW1 6924  11.198   7.235   7.651  1.4383 -0.5483 -2.3949
34549SOL    HW2 6925  11.212   7.093   7.700 -1.6147  0.3059  1.4019
34550SOL     OW 6926   6.995   1.090   4.395  0.3202  0.4409 -0.5331
34550SOL    HW1 6927   6.994   0.998   4.368 -0.0078  0.3981 -0.3867
34550SOL    HW2 6928   6.944   1.091   4.476  2.0017  0.4184  0.5683
34551SOL     OW 6929   0.200   2.327   2.682 -0.9604  0.0924  0.4510
34551SOL    HW1 6930   0.207   2.341   2.588 -0.2783  0.1757  0.5076
34551SOL    HW2 6931   0.243   2.404   2.721  0.9935 -1.1090  0.7922
34552SOL     OW 6932   4.066   5.030   4.345 -0.4585 -0.3918  0.0095
34552SOL    HW1 6933   4.139   4.979   4.310 -0.2595 -0.8029  1.0064
34552SOL    HW2 6934   4.003   4.965   4.376 -0.0460 -0.0628  1.6139
34553SOL     OW 6935   3.477   7.987  10.631 -0.1910  0.1077  0.3072
34553SOL    HW1 6936   3.461   8.046  10.558  1.0825 -0.9530 -0.8739
34553SOL    HW2 6937   3.392   7.950  10.652 -1.0283  2.2839  1.0747
34554SOL     OW 6938   9.923   2.364   1.944 -0.0590  0.2919  0.6083
34554SOL    HW1 6939   9.970   2.389   1.865 -0.6010  0.0596  0.2044
34554SOL    HW2 6940   9.861   2.296   1.915  0.4140 -0.5023  1.4075
34555SOL     OW 6941   5.192   7.545   2.346  0.3100  0.0394  0.1440
34555SOL    HW1 6942   5.268   7.581   2.392 -0.0483  1.7526 -0.5143
34555SOL    HW2 6943   5.117   7.571   2.400  0.0463  0.2226 -0.3087
34556SOL     OW 6944   0.145   7.879   0.650 -0.4515 -0.2659 -0.0195
34556SOL    HW1 6945   0.069   7.860   0.705 -0.4521  0.1640  0.1322
34556SOL    HW2 6946   0.220   7.869   0.709 -0.3843 -0.7543 -0.1851
34557SOL     OW 6947   4.575   6.927   7.129 -1.0878  0.0466  0.6921
34557SOL    HW1 6948   4.645   6.992   7.138 -1.6408  0.5682  1.2817
34557SOL    HW2 6949   4.622   6.843   7.125 -0.3680  0.4659 -0.1086
34558SOL     OW 6950   4.246   2.049   1.350  0.0529  0.0193 -0.0202
34558SOL    HW1 6951   4.231   2.075   1.440 -0.7553  0.3379 -0.2375
34558SOL    HW2 6952   4.329   2.090   1.326  0.4323 -0.3322  0.6674
34559SOL     OW 6953  10.221   7.896   5.682 -0.1626  0.5343 -0.3337
34559SOL    HW1 6954  10.221   7.992   5.677 -0.0087  0.5603  0.1662
34559SOL    HW2 6955  10.216   7.876   5.775 -2.7523  0.0356 -0.4924
34560SOL     OW 6956   5.455   6.737   3.742  0.2659  0.1284  0.2590
34560SOL    HW1 6957   5.499   6.748   3.657 -1.3815 -2.0838 -0.9910
34560SOL    HW2 6958   5.489   6.654   3.776 -0.0915  0.3344  1.1463
34561SOL     OW 6959   8.928   6.307  10.249 -0.7866  0.0293 -0.1350
34561SOL    HW1 6960   8.918   6.211  10.250 -0.2752 -0.0248  0.3017
34561SOL    HW2 6961   8.843   6.340  10.279 -1.1458 -0.2636 -0.7992
34562SOL     OW 6962   9.204   9.042   5.149 -0.2016  0.4392 -0.7740
34562SOL    HW1 6963   9.123   8.993   5.136  0.3648 -0.3212 -1.6262
34562SOL    HW2 6964   9.269   8.975   5.172 -0.1724  1.2426  1.7119
34563SOL     OW 6965   7.436   3.101   0.891  0.0534 -0.2829 -0.4512
34563SOL    HW1 6966   7.416   3.158   0.817  0.8714 -0.9681 -1.2037
34563SOL    HW2 6967   7.371   3.125   0.957 -2.2860 -1.3413 -2.2353
34564SOL     OW 6968   7.491   8.878   5.362 -0.1338 -0.1691 -0.0752
34564SOL    HW1 6969   7.447   8.793   5.356 -1.6999  0.5352  0.8346
34564SOL    HW2 6970   7.573   8.866   5.314 -1.2962 -1.5603 -1.8465
34565SOL     OW 6971   5.499   5.966  10.133 -0.0885  0.0109  0.3223
34565SOL    HW1 6972   5.503   6.039  10.195 -1.4598  1.4985 -1.2194
34565SOL    HW2 6973   5.416   5.922  10.152 -1.3190  1.4454 -1.3643
34566SOL     OW 6974   9.130   0.185  10.000 -0.5481 -0.5636 -0.2064
34566SOL    HW1 6975   9.158   0.097   9.977 -2.1573 -1.3258  0.6060
34566SOL    HW2 6976   9.056   0.172  10.060 -0.9284  1.3351 -0.2026
34567SOL     OW 6977   4.808   0.283   7.098  0.0075  0.2719 -0.1320
34567SOL    HW1 6978   4.898   0.252   7.110  1.2676  2.9068 -1.7516
34567SOL    HW2 6979   4.800   0.358   7.157 -0.7554  0.6969 -0.7533
34568SOL     OW 6980   2.646   7.120   4.459 -0.1844  0.0240  0.9703
34568SOL    HW1 6981   2.586   7.184   4.421  0.1081  0.7314  1.6704
34568SOL    HW2 6982   2.655   7.146   4.551  1.8841  0.5009  0.6901
34569SOL     OW 6983   3.452   0.526   4.740  0.0624  0.4762  0.8345
34569SOL    HW1 6984   3.398   0.604   4.750  0.0811  0.5502  0.3641
34569SOL    HW2 6985   3.462   0.493   4.829  1.0410  1.6731  1.1908
34570SOL     OW 6986   2.655   8.870   5.216  1.0961 -0.2501 -0.1927
34570SOL    HW1 6987   2.647   8.960   5.248  0.1068 -1.2353  2.5744
34570SOL    HW2 6988   2.723   8.830   5.270  0.4285 -1.5935 -0.2934
34571SOL     OW 6989   2.483   7.941   4.329 -0.5201  0.5197  0.1094
34571SOL    HW1 6990   2.397   7.971   4.302 -0.7434 -0.5278 -0.4262
34571SOL    HW2 6991   2.514   7.888   4.255  0.4990  0.7232  0.3717
34572SOL     OW 6992   8.220   1.814   0.014 -0.4840  0.5826  0.0427
34572SOL    HW1 6993   8.261   1.828   0.099  1.2558  1.3227 -0.8626
34572SOL    HW2 6994   8.164   1.891   0.002 -0.9502  0.3387  0.6317
34573SOL     OW 6995  10.108  10.840   3.255 -0.2142  0.3242  0.1895
34573SOL    HW1 6996  10.177  10.797   3.306  0.7278  0.5543 -0.8589
34573SOL    HW2 6997  10.136  10.931   3.247 -2.5617  1.4773  3.0375
34574SOL     OW 6998   1.109   1.013   1.683  0.4744  0.2148 -0.4073
34574SOL    HW1 6999   1.141   0.949   1.619 -0.8496  0.5056 -1.3918
34574SOL    HW2 7000   1.080   1.087   1.630 -1.7574 -0.0126  0.4185
34575SOL     OW 7001   5.814   5.618   3.422  0.1434  0.3837  0.6562
34575SOL    HW1 7002   5.741   5.618   3.360  1.3883  0.2775 -0.8685
34575SOL    HW2 7003   5.832   5.526   3.439 -0.0723  0.4096  1.0355
34576SOL     OW 7004   0.040   9.777   9.884 -0.5229 -0.2385  0.2810
34576SOL    HW1 7005   0.129   9.772   9.919 -0.5193  1.0450  0.4954
34576SOL    HW2 7006   0.035   9.705   9.821  0.4319 -0.7581  0.7784
34577SOL     OW 7007   2.775   9.073   9.320 -0.4548  0.4360 -0.2861
34577SOL    HW1 7008   2.794   9.029   9.238 -2.6301 -0.7632 -0.2300
34577SOL    HW2 7009   2.682   9.055   9.336  0.1393 -0.3686  3.0237
34578SOL     OW 7010   6.846   1.583   4.897  0.0451  0.2935 -0.3786
34578SOL    HW1 7011   6.863   1.531   4.975  0.8744 -0.8533 -1.2763
34578SOL    HW2 7012   6.902   1.544   4.829  1.5809  3.0258 -0.8609
34579SOL     OW 7013   4.871   3.072   8.175 -0.0296  0.5610  0.0606
34579SOL    HW1 7014   4.917   3.088   8.257  1.5741 -2.4155 -0.1310
34579SOL    HW2 7015   4.930   3.106   8.107  0.9555 -1.2633 -0.0565
34580SOL     OW 7016   0.186   6.926   9.865 -0.7333 -0.1094 -0.4217
34580SOL    HW1 7017   0.210   6.853   9.808  0.2761  0.6210 -0.9764
34580SOL    HW2 7018   0.163   6.886   9.949  3.0688 -0.9053  0.3927
34581SOL     OW 7019   7.323  10.191   6.129  0.0599 -0.1998 -0.1863
34581SOL    HW1 7020   7.273  10.159   6.205  0.1062 -1.8473 -0.8141
34581SOL    HW2 7021   7.412  10.159   6.145  0.6725  1.6632  0.3106
34582SOL     OW 7022   9.157   6.697   7.847  0.3175  0.4866  0.2568
34582SOL    HW1 7023   9.230   6.743   7.806  1.5294 -0.2316  1.5073
34582SOL    HW2 7024   9.129   6.632   7.783  0.8435  0.7040 -0.1955
34583SOL     OW 7025   5.711   3.143   3.479  0.0489 -0.3516 -0.3957
34583SOL    HW1 7026   5.726   3.060   3.524 -0.5554 -0.7048 -0.8247
34583SOL    HW2 7027   5.633   3.127   3.425  0.1675  0.3694 -0.7920
34584SOL     OW 7028   2.240   4.172   7.873  0.5221 -0.6259  0.4919
34584SOL    HW1 7029   2.231   4.112   7.947  0.1565 -0.0931  0.8936
34584SOL    HW2 7030   2.152   4.177   7.835  0.6820 -0.8031  0.0906
34585SOL     OW 7031   7.034   3.913  10.583 -0.0017  0.3028  0.3155
34585SOL    HW1 7032   6.986   3.919  10.500  2.2125  0.0174 -1.0546
34585SOL    HW2 7033   7.105   3.977  10.575  0.4734  0.0133  1.8496
34586SOL     OW 7034   6.568  10.841   9.993 -0.3200  0.6873  0.5499
34586SOL    HW1 7035   6.524  10.791   9.925 -1.6575  0.3850  1.5952
34586SOL    HW2 7036   6.660  10.841   9.967 -0.8517  1.0153 -1.4885
34587SOL     OW 7037   2.276  10.400  10.297 -0.4039 -0.1683 -0.3052
34587SOL    HW1 7038   2.238  10.424  10.382  1.1937  0.9998  0.1199
34587SOL    HW2 7039   2.292  10.306  10.304 -2.4346 -0.5493 -0.2132
34588SOL     OW 7040  11.116   5.572   5.646 -0.1565  0.2132  0.0968
34588SOL    HW1 7041  11.042   5.602   5.595  0.0957  1.8293  0.6258
34588SOL    HW2 7042  11.174   5.648   5.652  1.1772 -0.7852  0.3406
34589SOL     OW 7043   5.061   6.014  11.018  0.1551  0.3448  0.2342
34589SOL    HW1 7044   5.094   6.102  11.033 -0.5457  0.3085  2.1940
34589SOL    HW2 7045   5.099   5.962  11.089 -0.9871 -0.5108  0.2452
34590SOL     OW 7046   2.968   9.896   5.801  0.5107  0.0509 -1.0123
34590SOL    HW1 7047   2.895   9.834   5.798  0.6436 -0.2600  0.7914
34590SOL    HW2 7048   2.971   9.924   5.893  0.0541  3.2302 -1.8444
34591SOL     OW 7049   1.669   8.242   8.291 -0.5540 -0.4743  0.0120
34591SOL    HW1 7050   1.643   8.162   8.245  0.1607 -0.9987  0.4799
34591SOL    HW2 7051   1.749   8.217   8.338 -0.5605  0.3975  0.5109
34592SOL     OW 7052   0.881   7.743   9.800 -0.0421  0.3120 -0.1524
34592SOL    HW1 7053   0.814   7.724   9.735  0.9371  0.0341 -1.1098
34592SOL    HW2 7054   0.873   7.673   9.864 -1.0415  0.6090  0.0667
34593SOL     OW 7055   2.136   0.185   5.348 -0.3360  0.1525 -0.0540
34593SOL    HW1 7056   2.179   0.264   5.382 -0.0560 -0.7489  1.8252
34593SOL    HW2 7057   2.191   0.159   5.274  0.8591  0.5038  0.6647
34594SOL     OW 7058   1.872   1.951   9.674  0.6995  0.1458 -0.3960
34594SOL    HW1 7059   1.779   1.932   9.661  0.3989  1.2221  0.0635
34594SOL    HW2 7060   1.886   1.938   9.768  1.2809 -1.0938 -0.6461
34595SOL     OW 7061   9.470   2.864   2.368  0.5853  1.2294 -0.4188
34595SOL    HW1 7062   9.543   2.812   2.334  0.5392 -0.0397  1.2961
34595SOL    HW2 7063   9.392   2.812   2.348  0.2655  1.9445 -1.0680
34596SOL     OW 7064  11.024   7.915   9.002  0.6827  0.4370  0.1014
34596SOL    HW1 7065  11.063   7.828   9.011  1.0195  0.6794  1.0676
34596SOL    HW2 7066  10.937   7.906   9.042  0.7171  0.5525  0.1999
34597SOL     OW 7067   6.114   5.114  10.303  0.3476  0.5535  0.5234
34597SOL    HW1 7068   6.142   5.118  10.211  1.8859 -0.2205  0.9371
34597SOL    HW2 7069   6.040   5.053  10.303  0.6215  0.2104 -0.1423
34598SOL     OW 7070   5.554   9.957   8.147  0.0357  0.0754 -0.4561
34598SOL    HW1 7071   5.487   9.962   8.080  1.2293  0.1481 -1.6804
34598SOL    HW2 7072   5.532  10.027   8.209 -1.0042  0.0825 -0.8127
34599SOL     OW 7073   0.939  10.142   1.345 -0.1639 -0.4195  0.1192
34599SOL    HW1 7074   0.926  10.056   1.304  0.8068 -0.4629 -0.1168
34599SOL    HW2 7075   1.015  10.130   1.402  0.0436  0.3163 -0.0023
34600SOL     OW 7076   7.094   5.594   1.891  0.0290 -0.1586 -0.0644
34600SOL    HW1 7077   7.175   5.555   1.924  1.1021  1.7197 -0.2711
34600SOL    HW2 7078   7.064   5.534   1.824  2.0981 -0.2474 -1.0105
34601SOL     OW 7079   8.263   8.312   8.880  0.8037 -0.0719 -0.3153
34601SOL    HW1 7080   8.181   8.285   8.839  0.5595 -0.0353  0.1392
34601SOL    HW2 7081   8.304   8.230   8.908  0.1258 -0.0032  0.9454
34602SOL     OW 7082   1.717   8.763   5.039 -0.3969 -0.0505  0.3450
34602SOL    HW1 7083   1.703   8.707   5.115 -1.8718  0.0906  0.2137
34602SOL    HW2 7084   1.647   8.828   5.044  0.1817  0.6571 -0.5057
34603SOL     OW 7085   9.499   9.223   6.855 -0.4471 -0.3111  0.2467
34603SOL    HW1 7086   9.510   9.128   6.848  1.3386 -0.1183 -0.0441
34603SOL    HW2 7087   9.429   9.244   6.793 -1.0017 -1.4494  0.4735
34604SOL     OW 7088   8.909  10.937   8.304 -0.1930  0.1859  0.1857
34604SOL    HW1 7089   8.947  11.022   8.280 -0.8237  0.5682  0.5405
34604SOL    HW2 7090   8.942  10.877   8.237 -0.5273  0.9016 -0.6365
34605SOL     OW 7091   1.033   5.195   5.884 -0.4776  0.2938  0.2070
34605SOL    HW1 7092   1.028   5.285   5.853  0.2155  0.2460 -0.0608
34605SOL    HW2 7093   1.121   5.166   5.859 -0.7252 -0.4822  0.2049
34606SOL     OW 7094   1.822   1.738   3.696  0.1858  0.4189  0.0327
34606SOL    HW1 7095   1.787   1.656   3.732  1.5559  0.0073  0.4557
34606SOL    HW2 7096   1.752   1.802   3.712 -0.2601 -0.3079  1.1534
34607SOL     OW 7097   5.690   0.790  10.705 -0.4516 -0.1219  0.1600
34607SOL    HW1 7098   5.644   0.817  10.784 -1.9681 -2.0322  0.0155
34607SOL    HW2 7099   5.658   0.850  10.637  0.0806  0.8800  0.7854
34608SOL     OW 7100   1.925   3.157   0.754 -0.1363 -0.7071 -0.5779
34608SOL    HW1 7101   1.875   3.199   0.823  0.6879 -1.5393  0.5665
34608SOL    HW2 7102   1.902   3.064   0.760  1.0697 -1.0201 -0.3947
34609SOL     OW 7103   6.769   8.202  10.092 -0.3332 -0.2858 -0.3426
34609SOL    HW1 7104   6.753   8.156  10.174  2.5638  0.4925  0.7691
34609SOL    HW2 7105   6.745   8.293  10.110  0.6293 -0.0462 -0.1977
34610SOL     OW 7106  10.668   4.698   6.957  0.0352  0.1924  0.1308
34610SOL    HW1 7107  10.706   4.612   6.972 -0.7735 -0.0050  1.1961
34610SOL    HW2 7108  10.574   4.684   6.965 -0.0633  1.3510  1.4135
34611SOL     OW 7109   5.203   1.817   1.158  0.2439  0.4258 -0.0175
34611SOL    HW1 7110   5.278   1.778   1.202  1.2772  2.4834  0.1413
34611SOL    HW2 7111   5.128   1.793   1.212  0.9032 -0.7116  0.4311
34612SOL     OW 7112  10.116   8.180  10.900  0.0573  0.1399 -1.0019
34612SOL    HW1 7113  10.180   8.157  10.968  0.2567  2.1850 -0.4392
34612SOL    HW2 7114  10.031   8.163  10.940  0.1710  1.4621 -0.1510
34613SOL     OW 7115   9.852  11.096   4.957  0.0827  0.3666  0.0391
34613SOL    HW1 7116   9.804  11.073   5.036  0.3367  0.1164  0.1242
34613SOL    HW2 7117   9.840  11.191   4.948 -0.7835  0.2405 -0.1871
34614SOL     OW 7118   5.699   4.332   0.427 -0.5138  0.0385 -0.7419
34614SOL    HW1 7119   5.605   4.333   0.444 -0.3176  0.7586  0.3851
34614SOL    HW2 7120   5.725   4.241   0.439 -0.9818 -0.0749 -0.5654
34615SOL     OW 7121   8.589   1.908   6.049 -0.1113 -0.3193  0.1291
34615SOL    HW1 7122   8.655   1.936   6.113 -0.5337 -1.4186  1.0919
34615SOL    HW2 7123   8.530   1.983   6.041  2.3779  1.5624 -2.4376
34616SOL     OW 7124   8.371   2.142  10.914 -0.1594  0.4317 -0.0463
34616SOL    HW1 7125   8.323   2.169  10.992  0.6765  1.9080 -0.0002
34616SOL    HW2 7126   8.328   2.062  10.885 -0.8917  0.2178  1.5493
34617SOL     OW 7127   3.837   3.606   5.189  0.4045 -0.7761  0.1233
34617SOL    HW1 7128   3.787   3.527   5.209  0.1692 -1.5461 -3.0404
34617SOL    HW2 7129   3.925   3.575   5.168  0.4215 -0.1614 -0.7727
34618SOL     OW 7130   1.972   5.420   9.317 -0.0671  0.3645 -0.6218
34618SOL    HW1 7131   2.035   5.349   9.332 -0.2283  0.4370  0.4243
34618SOL    HW2 7132   1.902   5.379   9.266 -0.4891 -0.4042  0.5503
34619SOL     OW 7133   6.336   9.869   2.262  0.3317 -0.3850  0.0472
34619SOL    HW1 7134   6.351   9.962   2.278 -0.6817 -0.5595  2.3178
34619SOL    HW2 7135   6.240   9.859   2.264  0.4449 -1.7899  2.2790
34620SOL     OW 7136   7.223   9.903  10.613  0.0898  0.3156 -0.1278
34620SOL    HW1 7137   7.293   9.866  10.560 -0.7216  1.0666 -1.8244
34620SOL    HW2 7138   7.244   9.996  10.619  1.1330  0.0057  2.5158
34621SOL     OW 7139   2.734   3.790   9.842 -0.0169 -0.0628  0.0354
34621SOL    HW1 7140   2.789   3.712   9.843 -1.6209 -1.2336  1.2005
34621SOL    HW2 7141   2.787   3.856   9.797  0.7192 -2.2852 -2.5843
34622SOL     OW 7142   1.418   1.608   8.738  0.2217 -0.2133 -0.1814
34622SOL    HW1 7143   1.357   1.565   8.798  2.3415 -2.4355  0.5886
34622SOL    HW2 7144   1.400   1.567   8.653 -0.5753  0.4974 -0.3591
34623SOL     OW 7145   9.559   2.916  10.045  0.4937  0.6186 -0.1459
34623SOL    HW1 7146   9.481   2.938  10.095 -0.9956 -2.4557 -0.9052
34623SOL    HW2 7147   9.610   2.859  10.104  1.2765  1.1013 -0.3336
34624SOL     OW 7148   8.110   9.092   1.725 -0.0587  0.0796  0.2580
34624SOL    HW1 7149   8.135   9.079   1.633 -3.4528  0.5509 -0.8572
34624SOL    HW2 7150   8.109   9.004   1.762 -0.5456 -0.3451 -0.7300
34625SOL     OW 7151  11.016   8.622   7.620  0.7021 -0.1780 -0.3413
34625SOL    HW1 7152  10.923   8.610   7.640  0.7529  1.2413  0.9342
34625SOL    HW2 7153  11.061   8.560   7.678  0.6033  0.2262  0.1790
34626SOL     OW 7154   6.067   8.704   9.987 -0.7130 -0.1308  0.0479
34626SOL    HW1 7155   6.129   8.726   9.918 -0.2887 -0.8690  0.1760
34626SOL    HW2 7156   5.990   8.758   9.969 -0.1411  0.5803 -0.2810
34627SOL     OW 7157   5.516   8.005   4.923 -0.2795  0.3992 -0.1463
34627SOL    HW1 7158   5.567   8.004   4.841 -0.1028 -1.1210 -0.0569
34627SOL    HW2 7159   5.442   8.063   4.905  0.4403  1.0974 -0.9439
34628SOL     OW 7160   8.475   7.540   6.445  0.1676  0.1832 -0.9660
34628SOL    HW1 7161   8.534   7.496   6.506 -0.9469 -0.5515 -0.3719
34628SOL    HW2 7162   8.532   7.594   6.391  1.1147  1.5827  1.2967
34629SOL     OW 7163   4.834   1.938   1.952 -0.3233  0.0234  0.6860
34629SOL    HW1 7164   4.879   2.005   2.003  1.3550 -0.8253  0.3895
34629SOL    HW2 7165   4.898   1.911   1.886 -0.5385 -2.5635  1.4252
34630SOL     OW 7166   3.652   1.810  10.199 -0.1141  0.3220  0.4823
34630SOL    HW1 7167   3.662   1.905  10.209 -0.9989  0.7115 -1.6571
34630SOL    HW2 7168   3.565   1.791  10.235  0.7982 -0.0275  2.6028
34631SOL     OW 7169   7.365   8.170   7.332  0.1291  0.4256  0.3040
34631SOL    HW1 7170   7.365   8.102   7.264  1.3407 -0.9121  1.5816
34631SOL    HW2 7171   7.453   8.209   7.327  0.3725  0.0367  1.3574
34632SOL     OW 7172   9.467   7.469   7.690 -0.2739  0.0572 -0.5451
34632SOL    HW1 7173   9.382   7.466   7.736 -0.2234  1.0339 -0.3574
34632SOL    HW2 7174   9.470   7.387   7.641 -0.4909 -0.8908  0.9241
34633SOL     OW 7175   0.030  10.232   6.932 -0.7567 -0.0261 -0.1161
34633SOL    HW1 7176   0.114  10.203   6.968 -1.1569  0.4946  1.2961
34633SOL    HW2 7177  -0.032  10.220   7.004 -1.7634  0.2601 -0.9169
34634SOL     OW 7178   5.571   7.775   8.392 -0.2704 -0.1677 -0.3802
34634SOL    HW1 7179   5.657   7.791   8.352 -0.0976  0.3793  0.1880
34634SOL    HW2 7180   5.509   7.796   8.322  0.0605 -1.7551 -1.1938
34635SOL     OW 7181  11.139   9.845   6.058  0.4251 -0.0534  0.3752
34635SOL    HW1 7182  11.114   9.934   6.033  1.7102  0.1584 -0.2626
34635SOL    HW2 7183  11.133   9.844   6.154 -0.5222  0.4182  0.3284
34636SOL     OW 7184   9.633   8.848   0.655  0.0092  0.4439  0.1359
34636SOL    HW1 7185   9.718   8.806   0.640  0.5967  2.0683 -1.3708
34636SOL    HW2 7186   9.648   8.905   0.730  0.6763  1.7320 -0.9357
34637SOL     OW 7187   9.375   6.441   0.106  0.0006  0.0210 -0.0793
34637SOL    HW1 7188   9.380   6.443   0.202 -2.8290 -0.9327  0.1877
34637SOL    HW2 7189   9.361   6.348   0.085 -2.1423  0.5244 -1.1491
34638SOL     OW 7190   3.136   9.248  11.120 -0.6665  0.2595  0.2195
34638SOL    HW1 7191   3.131   9.191  11.043  0.1083 -0.0896  0.4236
34638SOL    HW2 7192   3.092   9.199  11.189  1.7608 -1.0431  0.9465
34639SOL     OW 7193   3.726   2.326   8.841 -0.2130  0.0351  0.3895
34639SOL    HW1 7194   3.686   2.313   8.755 -1.0224 -0.8386  0.8755
34639SOL    HW2 7195   3.728   2.421   8.853 -0.2380  0.1544 -0.5178
34640SOL     OW 7196   2.162   8.883   9.593 -0.0918 -0.3100 -0.2007
34640SOL    HW1 7197   2.206   8.968   9.590  1.4722 -1.0232  1.0545
34640SOL    HW2 7198   2.070   8.903   9.578 -0.2038  1.9553  2.7587
34641SOL     OW 7199   1.831   7.218   4.879 -0.3642 -0.3126  0.0699
34641SOL    HW1 7200   1.746   7.235   4.918 -1.2886 -1.3342 -1.3900
34641SOL    HW2 7201   1.866   7.144   4.929  0.4962  1.1879  1.7986
34642SOL     OW 7202   4.053   2.619   5.883 -0.6005 -0.2541 -0.6168
34642SOL    HW1 7203   3.966   2.652   5.866 -0.9687 -0.2386  1.1053
34642SOL    HW2 7204   4.100   2.629   5.800 -2.0497  0.2620 -1.3990
34643SOL     OW 7205  10.854   5.522   5.064  0.1766 -0.1656  0.2965
34643SOL    HW1 7206  10.884   5.610   5.087  0.1685 -0.2518  0.6447
34643SOL    HW2 7207  10.831   5.482   5.148  0.6368 -0.6665  0.1869
34644SOL     OW 7208   0.631   4.877   8.566 -0.0663  0.2626  0.7576
34644SOL    HW1 7209   0.548   4.900   8.608 -0.5899  1.8486 -1.0126
34644SOL    HW2 7210   0.606   4.821   8.492  0.3886  0.9769  0.0427
34645SOL     OW 7211   3.256   7.685   9.722  0.0147 -0.3987 -0.2028
34645SOL    HW1 7212   3.317   7.628   9.769  0.9330  0.6114 -0.1144
34645SOL    HW2 7213   3.277   7.671   9.629 -0.8261 -1.3395 -0.2624
34646SOL     OW 7214   9.699   7.758   2.356 -0.4644  0.3604  0.6096
34646SOL    HW1 7215   9.741   7.672   2.356  0.8741  0.9742 -0.9472
34646SOL    HW2 7216   9.607   7.740   2.336  0.0865 -0.6204 -1.2679
34647SOL     OW 7217   7.154  10.762   7.337 -0.0989  0.0901 -0.4084
34647SOL    HW1 7218   7.146  10.805   7.252 -3.9152  0.2109 -0.1679
34647SOL    HW2 7219   7.204  10.823   7.391 -0.9587  1.8561 -1.5317
34648SOL     OW 7220  10.775   1.189   9.206 -0.0778 -0.2951  0.7463
34648SOL    HW1 7221  10.725   1.222   9.280 -1.4312  0.5360 -0.4659
34648SOL    HW2 7222  10.760   1.094   9.208  0.5032 -0.3714  1.9323
34649SOL     OW 7223   6.056  11.349   5.635 -0.0122  0.5673  0.6089
34649SOL    HW1 7224   6.001  11.296   5.693  2.3130 -1.7765  0.8702
34649SOL    HW2 7225   6.112  11.399   5.694  1.4945 -0.8711  0.4716
34650SOL     OW 7226   9.566   7.368   5.236 -0.3114 -0.0859 -0.1365
34650SOL    HW1 7227   9.597   7.368   5.326  1.0066 -0.1405 -0.5670
34650SOL    HW2 7228   9.522   7.284   5.226 -2.2081  0.7134  0.9933
34651SOL     OW 7229   9.636   0.786  10.700 -0.0450  0.5092  0.0090
34651SOL    HW1 7230   9.583   0.795  10.621 -1.9054 -0.0864  1.0942
34651SOL    HW2 7231   9.682   0.869  10.708 -0.8127  1.0640 -1.0285
34652SOL     OW 7232   2.796   2.652   2.287  0.0148 -0.0681 -0.2896
34652SOL    HW1 7233   2.772   2.575   2.339 -1.9438  0.0439 -0.9304
34652SOL    HW2 7234   2.879   2.629   2.247  0.2623 -1.2094  0.7895
34653SOL     OW 7235   6.471  10.694   4.779 -0.2339  0.7671 -0.2273
34653SOL    HW1 7236   6.493  10.675   4.871 -0.4970 -0.7371 -0.4561
34653SOL    HW2 7237   6.519  10.775   4.760  1.0636  0.2732  0.7751
34654SOL     OW 7238   3.453   3.318   1.233  0.4082 -0.4988 -0.2971
34654SOL    HW1 7239   3.399   3.278   1.166  1.8874 -0.9723 -1.2542
34654SOL    HW2 7240   3.461   3.410   1.206  0.9025 -0.6613 -0.7155
34655SOL     OW 7241   7.647   0.584   8.642 -0.3903  0.1030  0.1985
34655SOL    HW1 7242   7.678   0.648   8.579  1.7308 -2.3997 -1.5317
34655SOL    HW2 7243   7.719   0.576   8.705  0.1251 -1.6752 -0.5601
34656SOL     OW 7244   6.076   8.494   2.384 -0.1551 -0.1669  0.0474
34656SOL    HW1 7245   6.062   8.588   2.396 -1.0309 -0.4839  1.7686
34656SOL    HW2 7246   6.112   8.464   2.467 -3.7900 -2.0346  1.1472
34657SOL     OW 7247  10.377   7.444  11.096  0.1863  0.8572  0.7374
34657SOL    HW1 7248  10.428   7.370  11.129  0.9799  1.2754  0.4756
34657SOL    HW2 7249  10.428   7.521  11.122  0.2799  1.2392 -0.5075
34658SOL     OW 7250  10.612   2.548   9.690  0.0867  0.1033 -0.0347
34658SOL    HW1 7251  10.675   2.580   9.754  1.1572  2.1065 -1.9399
34658SOL    HW2 7252  10.536   2.605   9.701 -0.2865 -0.4630  0.3650
34659SOL     OW 7253   7.191   3.751   9.211  0.1312 -0.1055  0.5273
34659SOL    HW1 7254   7.122   3.702   9.257 -0.1196  1.2114  1.6084
34659SOL    HW2 7255   7.144   3.803   9.146 -0.1493  1.8977  2.2146
34660SOL     OW 7256  11.378   6.598   9.013  0.1770 -0.4675 -0.2041
34660SOL    HW1 7257  11.405   6.513   9.047 -0.4155 -0.5370  0.0998
34660SOL    HW2 7258  11.397   6.660   9.083  0.5043 -0.3564 -0.3836
34661SOL     OW 7259   9.240   6.517   2.142  0.2316 -0.5324  0.9418
34661SOL    HW1 7260   9.279   6.604   2.155 -1.5250  0.3161  0.7158
34661SOL    HW2 7261   9.215   6.489   2.230  0.2071 -0.5321  0.9348
34662SOL     OW 7262   2.212   0.416  10.948  0.2857 -0.3719  0.5378
34662SOL    HW1 7263   2.263   0.439  11.025  1.0255 -1.3682  0.3657
34662SOL    HW2 7264   2.251   0.334  10.917  0.0858  0.0667 -0.9624
34663SOL     OW 7265   8.704   0.918  11.392  0.1090 -0.2545 -0.5881
34663SOL    HW1 7266   8.718   0.952  11.303 -0.5387  0.5080 -0.4117
34663SOL    HW2 7267   8.621   0.871  11.387 -0.7220  1.0966 -0.0517
34664SOL     OW 7268   7.505   4.328   2.023  0.0287 -0.5684 -0.1976
34664SOL    HW1 7269   7.484   4.325   1.930  0.1962  2.1012 -0.3912
34664SOL    HW2 7270   7.581   4.271   2.032  2.1936  1.7336 -2.4090
34665SOL     OW 7271   4.609   1.739   6.542 -0.4971 -0.2425  0.1176
34665SOL    HW1 7272   4.595   1.815   6.598  2.4611  0.0122  0.6687
34665SOL    HW2 7273   4.645   1.672   6.600  1.2388 -0.4722 -1.1433
34666SOL     OW 7274   3.288   9.739   9.223  0.0109 -0.1666  0.5853
34666SOL    HW1 7275   3.251   9.734   9.312 -1.5414  2.0020  0.1296
34666SOL    HW2 7276   3.251   9.819   9.186 -0.1408 -1.4873 -2.3816
34667SOL     OW 7277   5.683   1.504   3.085  0.1043  0.2913  0.4271
34667SOL    HW1 7278   5.694   1.429   3.142  0.6678  1.0182  1.3046
34667SOL    HW2 7279   5.636   1.470   3.009  0.8801 -1.0626  0.5240
34668SOL     OW 7280  11.170   7.320   6.249  0.0375  0.1141  0.1007
34668SOL    HW1 7281  11.258   7.302   6.282  0.8350  1.5360 -1.1120
34668SOL    HW2 7282  11.119   7.343   6.327  0.7594 -0.6397  0.8087
34669SOL     OW 7283   0.372   7.523   5.462 -0.6735 -0.0254 -0.7927
34669SOL    HW1 7284   0.283   7.510   5.429 -1.1503 -0.5991  0.6428
34669SOL    HW2 7285   0.427   7.472   5.402 -1.3757 -0.1527 -1.3434
34670SOL     OW 7286   5.542   3.521   0.261 -0.5205  0.1814 -0.0582
34670SOL    HW1 7287   5.553   3.471   0.180  1.6383 -3.1574  2.0449
34670SOL    HW2 7288   5.612   3.587   0.258 -0.7883  0.4437 -1.0819
34671SOL     OW 7289   4.213   1.285   3.886 -0.4361 -0.0419  0.2353
34671SOL    HW1 7290   4.210   1.237   3.969 -0.2218  1.0848  0.9121
34671SOL    HW2 7291   4.265   1.362   3.905 -1.0378  0.6231 -0.7476
34672SOL     OW 7292   4.227   4.521   0.626 -0.0489  0.4767 -0.1270
34672SOL    HW1 7293   4.317   4.536   0.598 -0.0346  1.4939  0.3968
34672SOL    HW2 7294   4.234   4.485   0.715 -0.1569  0.9881  0.0941
34673SOL     OW 7295   0.264   1.117   5.098 -0.6056 -0.1843  0.3481
34673SOL    HW1 7296   0.290   1.204   5.130  0.5783  0.0444 -1.1610
34673SOL    HW2 7297   0.170   1.126   5.080 -0.1901  1.2840 -1.2923
34674SOL     OW 7298   3.967   1.010   4.954 -0.1103 -0.3965  0.3441
34674SOL    HW1 7299   3.904   1.022   4.883  0.8294  0.4150 -0.3803
34674SOL    HW2 7300   3.959   0.917   4.978 -1.2001 -0.4220 -0.0849
34675SOL     OW 7301   5.635   7.286   1.360 -0.5866  0.0968  0.8947
34675SOL    HW1 7302   5.696   7.328   1.298  0.0419  1.2544  2.2406
34675SOL    HW2 7303   5.549   7.321   1.337 -0.1819  1.5268  1.4508
34676SOL     OW 7304   8.734   9.084   6.384 -0.2933  0.2463  0.2432
34676SOL    HW1 7305   8.678   9.159   6.402  0.3143  1.5770 -2.7727
34676SOL    HW2 7306   8.681   9.028   6.327 -0.3642 -1.1531  1.6168
34677SOL     OW 7307  10.975   8.561   6.451 -0.5438 -0.4241 -0.0371
34677SOL    HW1 7308  10.887   8.570   6.489 -0.1967  0.2347  0.6349
34677SOL    HW2 7309  11.034   8.590   6.520  0.1596 -0.0002 -0.8011
34678SOL     OW 7310   9.530   8.470   7.440 -0.1788  0.1529 -0.2726
34678SOL    HW1 7311   9.529   8.544   7.502  0.8482  0.7226 -0.8945
34678SOL    HW2 7312   9.451   8.482   7.387 -1.0940 -0.3672  0.9327
34679SOL     OW 7313   1.713   3.109   2.333 -0.2315 -0.2580  0.1311
34679SOL    HW1 7314   1.663   3.107   2.251  0.4225 -0.3015 -0.2746
34679SOL    HW2 7315   1.691   3.026   2.376 -0.3423 -0.3706 -0.1415
34680SOL     OW 7316   8.466   7.755   3.623  0.0166 -0.2958  0.0479
34680SOL    HW1 7317   8.444   7.743   3.716 -0.2359  1.1725  0.2076
34680SOL    HW2 7318   8.470   7.667   3.588 -0.7878 -0.8479  1.2557
34681SOL     OW 7319   2.556   6.432  11.086 -0.2352 -1.2434  0.8660
34681SOL    HW1 7320   2.518   6.379  11.016 -2.2796 -1.5343  2.1089
34681SOL    HW2 7321   2.500   6.416  11.162  0.2756  1.1268  1.8542
34682SOL     OW 7322   4.914   9.625   2.910  0.1463  0.4870  0.0286
34682SOL    HW1 7323   4.990   9.586   2.953  0.5282  0.2055 -0.8792
34682SOL    HW2 7324   4.926   9.720   2.922 -0.5213  0.3728  1.7891
34683SOL     OW 7325   7.804   4.511  10.074 -0.3294  0.2002 -0.2755
34683SOL    HW1 7326   7.759   4.516  10.159  0.8667  1.8298  0.3090
34683SOL    HW2 7327   7.790   4.421  10.045  2.1968 -1.5652  3.3286
34684SOL     OW 7328   8.499   5.758   8.634 -0.5035  0.2172 -0.1535
34684SOL    HW1 7329   8.512   5.831   8.573 -0.2902  0.0363 -0.3215
34684SOL    HW2 7330   8.428   5.789   8.692  1.0297  1.4564  1.1735
34685SOL     OW 7331   9.176   8.649   3.733 -0.4610 -0.2211  0.0575
34685SOL    HW1 7332   9.144   8.560   3.716 -2.0763  0.2700  0.3148
34685SOL    HW2 7333   9.107   8.689   3.786 -0.6505  1.7831 -1.6101
34686SOL     OW 7334   0.288   2.355  10.446 -0.0681 -0.3637 -0.0356
34686SOL    HW1 7335   0.264   2.306  10.525  0.1726  1.4313  1.2268
34686SOL    HW2 7336   0.231   2.320  10.378 -0.3853 -1.8759  0.9568
34687SOL     OW 7337   4.564   2.090   1.346 -0.1076 -0.0834  0.9287
34687SOL    HW1 7338   4.646   2.123   1.310  0.2960  0.9600  2.7169
34687SOL    HW2 7339   4.520   2.167   1.382 -2.4401 -0.4127 -0.9482
34688SOL     OW 7340   5.687   8.102   6.745  0.1342  0.3511  0.3980
34688SOL    HW1 7341   5.613   8.114   6.805 -1.0989  0.6507 -1.1202
34688SOL    HW2 7342   5.672   8.017   6.705  1.9743 -0.7244  1.8135
34689SOL     OW 7343   9.254   0.175   5.263 -1.1432  0.1359 -0.6262
34689SOL    HW1 7344   9.232   0.104   5.323 -1.4375 -0.3724 -1.3177
34689SOL    HW2 7345   9.202   0.249   5.294 -1.0078 -0.0128 -0.0342
34690SOL     OW 7346   6.588   1.584   4.553  0.1814  0.1543  0.7008
34690SOL    HW1 7347   6.613   1.652   4.616  0.6081 -1.8465  2.8519
34690SOL    HW2 7348   6.501   1.608   4.524  0.5003  1.8353  1.0455
34691SOL     OW 7349   6.564   5.132   1.784  0.3395  0.6339 -0.0918
34691SOL    HW1 7350   6.471   5.122   1.766  0.6616 -2.1993 -0.6954
34691SOL    HW2 7351   6.570   5.137   1.879 -0.3286 -2.0846  0.1731
34692SOL     OW 7352   5.393  11.071  10.438 -0.0962  0.1828 -0.2691
34692SOL    HW1 7353   5.322  11.120  10.395  0.1123  1.8971  1.2320
34692SOL    HW2 7354   5.458  11.138  10.460  1.2233 -1.1147 -0.0781
34693SOL     OW 7355   8.563   3.847   1.070 -0.0218  0.1121 -0.1271
34693SOL    HW1 7356   8.555   3.913   1.140 -0.5147  0.7857 -0.8036
34693SOL    HW2 7357   8.498   3.874   1.005  0.8817 -0.1335 -1.1445
34694SOL     OW 7358  10.567   7.924  11.015  0.5815  0.4046  0.6375
34694SOL    HW1 7359  10.612   7.969  11.086  1.9752  0.3348 -0.1688
34694SOL    HW2 7360  10.637   7.891  10.959 -0.4769  0.9747 -1.1112
34695SOL     OW 7361   8.685  10.389   1.672  0.1761 -0.2979 -0.1346
34695SOL    HW1 7362   8.763  10.335   1.684  0.6417  0.7193  1.9192
34695SOL    HW2 7363   8.626  10.361   1.742 -0.3491  0.4988 -0.2481
34696SOL     OW 7364   4.367   3.602   3.156  0.0710 -0.2939  0.1136
34696SOL    HW1 7365   4.281   3.600   3.198  0.4615 -1.1309  0.9116
34696SOL    HW2 7366   4.389   3.695   3.149 -0.5767 -0.1054  0.5684
34697SOL     OW 7367   9.912   7.687   1.045 -0.2317  0.8493 -0.5286
34697SOL    HW1 7368  10.000   7.658   1.069 -0.7246  0.2204  0.6417
34697SOL    HW2 7369   9.859   7.608   1.047 -1.3354  1.5371  1.3944
34698SOL     OW 7370   8.311   8.422   4.810  0.1462 -0.4699  0.3440
34698SOL    HW1 7371   8.389   8.410   4.756 -0.3494  1.1752 -0.8208
34698SOL    HW2 7372   8.322   8.508   4.850 -0.9088 -0.3427  0.3884
34699SOL     OW 7373  10.281  10.559   5.989 -0.2623  0.7147 -0.1029
34699SOL    HW1 7374  10.203  10.527   6.034 -0.9573  2.3882 -0.0354
34699SOL    HW2 7375  10.345  10.572   6.059  0.7149 -2.1639 -0.3223
34700SOL     OW 7376   1.169  11.371   7.679  0.6365  0.9291  0.1277
34700SOL    HW1 7377   1.112  11.409   7.746 -1.2229 -1.7368  0.1922
34700SOL    HW2 7378   1.222  11.307   7.727  0.1530 -0.1223 -0.6874
34701SOL     OW 7379   3.237   2.751   0.706 -0.3298  0.5034  0.8589
34701SOL    HW1 7380   3.167   2.751   0.641 -0.2179 -3.4054  0.4963
34701SOL    HW2 7381   3.191   2.742   0.790 -0.3353 -0.5880  0.7484
34702SOL     OW 7382   9.151   3.963   2.992 -0.1821 -0.1094 -0.0085
34702SOL    HW1 7383   9.091   4.036   3.007  0.8358  1.5476 -3.1880
34702SOL    HW2 7384   9.237   3.997   3.018  0.2484 -0.2406 -1.1887
34703SOL     OW 7385   2.067   5.951   9.552  0.4263  0.0421 -0.1825
34703SOL    HW1 7386   2.031   5.963   9.641 -0.6419  4.1463 -0.9838
34703SOL    HW2 7387   2.004   5.893   9.509 -2.2495  2.4462  0.2115
34704SOL     OW 7388   0.835   0.918   4.852  0.0349 -0.0063  0.1619
34704SOL    HW1 7389   0.784   0.881   4.924  0.8706 -2.3776 -0.3735
34704SOL    HW2 7390   0.770   0.959   4.795 -1.1724 -1.8317  0.1472
34705SOL     OW 7391   9.962   0.046   7.613 -0.4093  0.2645 -0.4452
34705SOL    HW1 7392  10.028  -0.014   7.648 -0.6094  0.8876  1.0270
34705SOL    HW2 7393  10.012   0.104   7.555  0.3985  0.8510  0.7943
34706SOL     OW 7394   4.262   2.633   4.888  0.4793  0.3295 -0.3555
34706SOL    HW1 7395   4.281   2.726   4.898  0.5775  0.0842  2.3206
34706SOL    HW2 7396   4.167   2.626   4.896  0.6996 -0.0905  3.4715
34707SOL     OW 7397   2.392  10.791   0.146 -0.0400  0.2838 -0.9142
34707SOL    HW1 7398   2.306  10.758   0.122  0.4220 -1.0719 -0.8299
34707SOL    HW2 7399   2.450  10.715   0.136  0.5236  0.0376  2.6334
34708SOL     OW 7400   2.232   7.894   9.703  0.2556  0.4329  0.2501
34708SOL    HW1 7401   2.323   7.889   9.673  1.1646  3.1367  2.2211
34708SOL    HW2 7402   2.180   7.892   9.622  1.9215 -1.9221 -0.8843
34709SOL     OW 7403   8.098   1.976  10.813  0.6600  0.0168 -0.0144
34709SOL    HW1 7404   8.179   1.950  10.768  0.1170 -0.0760 -0.9568
34709SOL    HW2 7405   8.069   1.896  10.857  0.1305 -0.4385 -1.1564
34710SOL     OW 7406  10.797   7.863   7.293 -0.5303 -0.6105  0.5285
34710SOL    HW1 7407  10.846   7.866   7.211 -1.9689 -1.3621 -0.3911
34710SOL    HW2 7408  10.826   7.782   7.336 -0.8017 -0.9507  0.0789
34711SOL     OW 7409   7.719   4.511   3.549 -0.0282 -0.8016 -0.3702
34711SOL    HW1 7410   7.695   4.468   3.631 -0.8551 -0.7450 -0.5722
34711SOL    HW2 7411   7.812   4.531   3.558 -0.5691  1.2552  1.4889
34712SOL     OW 7412   5.287   2.283   4.337 -0.5819  0.3719 -0.4236
34712SOL    HW1 7413   5.289   2.314   4.428  0.6935  0.1701 -0.3593
34712SOL    HW2 7414   5.349   2.210   4.336 -2.0582 -0.9147 -1.0192
34713SOL     OW 7415  11.312   7.533  11.337 -0.0934 -0.2189 -0.7365
34713SOL    HW1 7416  11.243   7.490  11.387 -1.9501  2.1677 -1.0460
34713SOL    HW2 7417  11.353   7.463  11.286 -1.7990 -1.8416  0.0432
34714SOL     OW 7418   6.745   9.627   0.383  0.7247 -0.2687  0.0401
34714SOL    HW1 7419   6.738   9.532   0.396  1.5036 -0.1782  1.3019
34714SOL    HW2 7420   6.782   9.637   0.295  0.9459 -1.1411  0.0251
34715SOL     OW 7421   3.940   3.571  10.254 -0.4899 -0.8436 -0.2153
34715SOL    HW1 7422   3.988   3.640  10.301 -0.3901 -1.0928  0.0489
34715SOL    HW2 7423   3.974   3.575  10.165 -3.2391  2.1301 -1.3575
34716SOL     OW 7424  10.117  11.352   5.506 -0.0701 -0.6311 -0.5979
34716SOL    HW1 7425  10.057  11.419   5.475 -0.4376 -1.5419 -1.9460
34716SOL    HW2 7426  10.111  11.357   5.602  1.2252  2.3678 -0.5716
34717SOL     OW 7427   2.965  10.136   9.903 -0.0430  0.3974 -0.1315
34717SOL    HW1 7428   3.010  10.142   9.987  0.4752 -1.1625 -0.2646
34717SOL    HW2 7429   2.891  10.079   9.919 -1.6097  2.3234 -0.1052
34718SOL     OW 7430   6.492   2.532  10.634 -0.4702  0.0516 -0.2316
34718SOL    HW1 7431   6.565   2.470  10.626  0.4222  0.7903  1.7301
34718SOL    HW2 7432   6.529   2.616  10.607 -0.9589  0.2173 -0.3976
34719SOL     OW 7433   7.929   9.865   8.205  0.0025 -0.8216  0.4074
34719SOL    HW1 7434   7.998   9.842   8.267  0.2689  0.0633  0.4534
34719SOL    HW2 7435   7.975   9.892   8.126 -0.2008  1.1428  0.8950
34720SOL     OW 7436   3.874  10.768   4.398  0.0621  0.1197  0.0454
34720SOL    HW1 7437   3.895  10.681   4.365  0.4407  0.3145 -0.2302
34720SOL    HW2 7438   3.955  10.799   4.439  1.4314  2.1539 -3.7407
34721SOL     OW 7439   7.514   2.874  10.635 -0.1557 -0.1469 -0.0887
34721SOL    HW1 7440   7.458   2.944  10.667  2.1498  1.5409  0.4846
34721SOL    HW2 7441   7.549   2.907  10.552 -0.8345 -1.6599 -1.0272
34722SOL     OW 7442   9.479   5.420  10.611  0.0498  0.0148  0.3909
34722SOL    HW1 7443   9.397   5.375  10.591  1.6873 -2.5479 -1.0950
34722SOL    HW2 7444   9.495   5.476  10.535 -0.7173  1.2569  1.1035
34723SOL     OW 7445   9.392   6.400   0.712 -0.2103  0.0863 -0.3091
34723SOL    HW1 7446   9.304   6.414   0.679 -0.5836  0.4513  0.7722
34723SOL    HW2 7447   9.410   6.308   0.696 -0.8587 -0.0324 -0.3710
34724SOL     OW 7448   8.361   8.001   3.507 -0.4074  0.1195 -0.5653
34724SOL    HW1 7449   8.335   8.013   3.415 -3.3655 -2.7338 -0.2971
34724SOL    HW2 7450   8.418   7.924   3.506 -0.8684 -0.2351  0.0344
34725SOL     OW 7451   8.523   8.739   3.512  0.3451 -0.0337  0.4649
34725SOL    HW1 7452   8.542   8.646   3.521 -0.6016 -0.3484 -0.5579
34725SOL    HW2 7453   8.563   8.764   3.429  0.1539  0.3468  0.4842
34726SOL     OW 7454   4.811   4.450   1.706  0.2098 -0.1102 -0.2357
34726SOL    HW1 7455   4.890   4.397   1.707  0.3127  0.0040 -1.0394
34726SOL    HW2 7456   4.786   4.460   1.798  1.3873  0.2389  0.0591
34727SOL     OW 7457   9.154   1.040   8.491  0.2986 -0.5521 -0.2420
34727SOL    HW1 7458   9.085   0.991   8.536  0.7295 -1.7040 -0.8089
34727SOL    HW2 7459   9.231   1.029   8.546  0.3979 -0.5024 -0.3710
34728SOL     OW 7460   5.816   4.151  10.949 -0.3196  0.0630 -0.1415
34728SOL    HW1 7461   5.751   4.215  10.922  0.1705 -0.2189 -2.1696
34728SOL    HW2 7462   5.869   4.136  10.870  0.2049 -2.0638  0.5497
34729SOL     OW 7463   8.915   8.530   7.668 -0.0072 -0.3796  0.3851
34729SOL    HW1 7464   8.946   8.620   7.679  0.0257 -0.2067 -0.9203
34729SOL    HW2 7465   8.954   8.482   7.741  0.0966  0.6316  1.0145
34730SOL     OW 7466   2.802   8.541   8.176  0.9815 -0.1036  0.1545
34730SOL    HW1 7467   2.714   8.570   8.152 -0.1817 -2.0812  1.7836
34730SOL    HW2 7468   2.811   8.565   8.268  1.2907 -1.7902  0.5905
34731SOL     OW 7469   1.859   3.369   5.815 -0.3508 -0.3776 -0.1060
34731SOL    HW1 7470   1.829   3.337   5.900 -0.4302  1.7865  0.7460
34731SOL    HW2 7471   1.872   3.290   5.762 -0.1718 -1.7746  1.9416
34732SOL     OW 7472   0.580   1.322   0.803  0.2214 -0.1865 -0.2589
34732SOL    HW1 7473   0.604   1.331   0.710 -0.2178  3.6269 -0.1711
34732SOL    HW2 7474   0.664   1.317   0.849  0.6540  2.0562 -0.6793
34733SOL     OW 7475   9.067   3.230   2.715 -0.6192 -0.2128  0.3495
34733SOL    HW1 7476   9.020   3.297   2.763  0.1623  0.7112 -0.1374
34733SOL    HW2 7477   9.145   3.213   2.769 -0.6192 -0.4484  0.2760
34734SOL     OW 7478   6.865  10.430  10.693 -0.1645 -0.4298  0.7977
34734SOL    HW1 7479   6.955  10.459  10.706 -0.0866 -0.4434  0.3275
34734SOL    HW2 7480   6.845  10.379  10.771 -0.1092  0.3990  1.3650
34735SOL     OW 7481   3.035   1.498   2.292  0.2046 -0.2341 -0.2002
34735SOL    HW1 7482   3.015   1.579   2.246  1.5758 -1.2013 -2.6926
34735SOL    HW2 7483   3.103   1.521   2.355 -0.9717  0.9340  0.6759
34736SOL     OW 7484   2.470   9.457   3.427  0.8520  0.5857 -0.1100
34736SOL    HW1 7485   2.436   9.466   3.338  1.2324 -0.0620 -0.3252
34736SOL    HW2 7486   2.409   9.399   3.472 -0.5274  2.5683  0.7068
34737SOL     OW 7487   9.131   8.818   1.425  0.4469  0.2792 -0.0872
34737SOL    HW1 7488   9.193   8.890   1.428  1.8690 -0.9218  0.5856
34737SOL    HW2 7489   9.157   8.766   1.349  0.0647 -0.0818  0.0222
34738SOL     OW 7490   2.012   7.795   6.745  0.4204  0.2347 -0.4033
34738SOL    HW1 7491   1.939   7.736   6.764 -0.0611  1.3940  1.6074
34738SOL    HW2 7492   1.983   7.881   6.775  2.0862  1.0060 -0.8655
34739SOL     OW 7493   7.348   1.923   0.240  0.4445  0.1369  0.7551
34739SOL    HW1 7494   7.427   1.883   0.204  1.0247  0.6325  1.4482
34739SOL    HW2 7495   7.322   1.866   0.312  0.8959  0.6451  1.3266
34740SOL     OW 7496   2.863   9.098   5.391  0.2812  0.0159  0.4196
34740SOL    HW1 7497   2.824   9.132   5.310  0.0417  0.0954  0.5658
34740SOL    HW2 7498   2.922   9.029   5.362 -0.1807 -0.2974  0.2109
34741SOL     OW 7499   4.627   8.158   7.728 -0.3528  0.2046  0.1355
34741SOL    HW1 7500   4.628   8.246   7.689 -1.3296  0.2068  0.1051
34741SOL    HW2 7501   4.590   8.171   7.816  0.0725 -0.0880  0.3625
34742SOL     OW 7502   1.592   4.533   9.472 -0.5639  0.0377 -0.0149
34742SOL    HW1 7503   1.646   4.602   9.433  0.1368  0.0114  0.8689
34742SOL    HW2 7504   1.656   4.469   9.504 -1.1047  0.1437  1.3108
34743SOL     OW 7505   5.383  10.472   7.938  0.1677  0.3325 -0.2816
34743SOL    HW1 7506   5.400  10.403   8.003  0.4055  0.3306 -0.3449
34743SOL    HW2 7507   5.410  10.553   7.981 -0.8796  0.4974  0.1008
34744SOL     OW 7508   5.639   6.324   2.334 -0.2718  0.1773 -0.0593
34744SOL    HW1 7509   5.590   6.259   2.285  0.4285 -0.2802 -0.1655
34744SOL    HW2 7510   5.676   6.382   2.267  1.1843 -0.7989 -0.1445
34745SOL     OW 7511   7.722   0.630   0.654 -0.5558 -0.3450  0.4165
34745SOL    HW1 7512   7.686   0.598   0.571  0.4608 -0.9269  0.1873
34745SOL    HW2 7513   7.802   0.580   0.667  0.2405  1.0003  0.8650
34746SOL     OW 7514   6.538   7.751   9.250 -0.4061  0.3673 -0.0922
34746SOL    HW1 7515   6.558   7.774   9.159 -3.0406  1.0264 -0.5886
34746SOL    HW2 7516   6.537   7.834   9.297  0.0634  0.1247  0.3604
34747SOL     OW 7517   1.521   3.373  11.223  0.3209 -0.3920  0.7388
34747SOL    HW1 7518   1.482   3.309  11.281 -0.9439  0.5254  0.9464
34747SOL    HW2 7519   1.608   3.339  11.204 -0.7191 -2.7681 -0.1246
34748SOL     OW 7520   5.402   6.738   7.648  0.0132 -0.1075 -0.3658
34748SOL    HW1 7521   5.331   6.754   7.586 -0.7818 -1.6669  0.1064
34748SOL    HW2 7522   5.391   6.647   7.675  0.5231  0.4249  1.8350
34749SOL     OW 7523   7.248   3.037   3.640  0.2163  0.2587 -0.0525
34749SOL    HW1 7524   7.229   2.944   3.650 -0.6581  0.4159 -0.1585
34749SOL    HW2 7525   7.162   3.078   3.627  0.4017  1.3007  1.6498
34750SOL     OW 7526  10.633  10.642   7.836  0.5320 -0.1858 -0.0911
34750SOL    HW1 7527  10.670  10.671   7.753  1.0313 -0.6365 -0.0345
34750SOL    HW2 7528  10.540  10.662   7.830  0.4660 -0.7234 -0.9847
34751SOL     OW 7529   4.419   8.291   2.645  0.1166 -0.0356  0.0830
34751SOL    HW1 7530   4.485   8.287   2.714 -0.0290 -0.1030  0.2184
34751SOL    HW2 7531   4.419   8.203   2.607  0.7238  0.2034 -0.4983
34752SOL     OW 7532  10.271   3.523  11.299 -0.2431 -0.1191  0.3029
34752SOL    HW1 7533  10.208   3.452  11.313 -0.4600  0.3139  1.7579
34752SOL    HW2 7534  10.243   3.565  11.218 -0.5664 -1.2186 -0.1744
34753SOL     OW 7535   4.172   1.073  10.447  0.4252 -0.4090  0.0642
34753SOL    HW1 7536   4.221   1.033  10.520 -0.9857 -1.7167  0.3331
34753SOL    HW2 7537   4.111   1.005  10.419 -1.6374  1.3259  0.1017
34754SOL     OW 7538   9.776   0.894   4.797  0.3520  0.3505  0.2066
34754SOL    HW1 7539   9.824   0.973   4.774  0.7319  0.4536  1.3290
34754SOL    HW2 7540   9.838   0.841   4.847 -0.5367  0.2821  1.2801
34755SOL     OW 7541   3.875   7.415   8.578 -0.1213 -0.2478 -0.1852
34755SOL    HW1 7542   3.889   7.332   8.532  1.1328  0.9529 -2.1166
34755SOL    HW2 7543   3.956   7.429   8.627 -0.6758 -0.5504  0.8550
34756SOL     OW 7544   5.410   1.170   6.892 -0.2682  0.2104  0.1449
34756SOL    HW1 7545   5.349   1.214   6.834  0.8254  0.5473 -0.7829
34756SOL    HW2 7546   5.409   1.079   6.863 -0.6935  0.1139  0.4565
34757SOL     OW 7547   6.171   3.873   9.133  0.5887 -0.4839  0.4329
34757SOL    HW1 7548   6.112   3.934   9.089  0.0304 -0.7259  0.8395
34757SOL    HW2 7549   6.134   3.863   9.220  1.6047 -0.1316  0.9174
34758SOL     OW 7550   4.225   1.037   4.518 -0.1620  0.0015  0.3263
34758SOL    HW1 7551   4.245   0.955   4.562  1.1455  0.4828  0.6945
34758SOL    HW2 7552   4.212   1.100   4.589 -2.2396 -0.0749  0.0780
34759SOL     OW 7553   5.468  10.060   9.557  0.0039  0.1096  0.3450
34759SOL    HW1 7554   5.385  10.099   9.530 -0.5643  0.0627  1.9493
34759SOL    HW2 7555   5.445  10.003   9.631  1.5851  0.7947  1.4199
34760SOL     OW 7556   9.351   3.698  10.247  0.6147  0.2624 -0.4242
34760SOL    HW1 7557   9.369   3.694  10.153  2.9949 -0.0478 -0.0092
34760SOL    HW2 7558   9.338   3.791  10.265  2.5211  0.6112 -0.6968
34761SOL     OW 7559   7.322   6.494   6.221  0.2204 -0.4311 -0.0937
34761SOL    HW1 7560   7.257   6.530   6.160  1.1771  0.9470 -0.3422
34761SOL    HW2 7561   7.404   6.494   6.172  0.8606  0.0123  0.9444
34762SOL     OW 7562   3.242   0.202   7.410  0.0343 -0.6431  0.5204
34762SOL    HW1 7563   3.233   0.285   7.363  0.8389 -1.3067 -0.8810
34762SOL    HW2 7564   3.163   0.153   7.385  1.3317 -1.7303 -1.8014
34763SOL     OW 7565  10.551   1.449   4.693  0.1435  0.2298 -0.0038
34763SOL    HW1 7566  10.606   1.525   4.676  1.5228 -0.6680  0.2849
34763SOL    HW2 7567  10.466   1.486   4.717  0.2241  1.6337 -1.6620
34764SOL     OW 7568   2.910   1.468   6.919  0.1068  0.0301  0.4927
34764SOL    HW1 7569   2.993   1.512   6.897  0.8746 -1.2986  0.5814
34764SOL    HW2 7570   2.922   1.439   7.009 -0.3652 -0.3603  0.4301
34765SOL     OW 7571   2.800   1.752   7.232  0.0423 -0.0797  0.3310
34765SOL    HW1 7572   2.861   1.795   7.291  0.8382 -0.2192 -0.3790
34765SOL    HW2 7573   2.740   1.704   7.290  1.4815 -1.1175  1.0102
34766SOL     OW 7574   3.229   9.529   8.378 -0.1752 -0.1715  0.4856
34766SOL    HW1 7575   3.306   9.488   8.341  0.3198  3.0649 -2.6092
34766SOL    HW2 7576   3.255   9.620   8.395 -2.5571  0.3334  2.0211
34767SOL     OW 7577   4.404   3.368   4.872  0.3759 -0.1223  0.5736
34767SOL    HW1 7578   4.347   3.374   4.948  0.7446 -0.1536  0.8526
34767SOL    HW2 7579   4.436   3.278   4.872  0.8115  0.0312  0.6970
34768SOL     OW 7580   6.504   8.571   5.952  0.6036 -0.2424 -0.3828
34768SOL    HW1 7581   6.516   8.646   6.010  0.4600 -0.9632  0.6120
34768SOL    HW2 7582   6.466   8.608   5.873 -0.4966  0.5914  0.4983
34769SOL     OW 7583   0.235   9.745   8.438  0.2083 -0.0405 -0.1781
34769SOL    HW1 7584   0.299   9.812   8.415  1.3010 -1.2695 -0.7688
34769SOL    HW2 7585   0.267   9.709   8.521  1.2290 -1.7844 -1.2856
34770SOL     OW 7586   8.228   9.572   1.615  0.6390  0.8344  0.3255
34770SOL    HW1 7587   8.223   9.479   1.639  1.3228  0.9499  0.9765
34770SOL    HW2 7588   8.318   9.597   1.638  0.1347  1.9279  1.1782
34771SOL     OW 7589   6.625   9.781   9.796 -0.7737 -0.3556 -0.3316
34771SOL    HW1 7590   6.544   9.757   9.751 -1.5757  0.8499  0.4169
34771SOL    HW2 7591   6.644   9.706   9.852 -0.0503 -1.6481 -2.2246
34772SOL     OW 7592   4.898   6.443   8.892  0.0816  0.2677 -0.1529
34772SOL    HW1 7593   4.900   6.447   8.987  0.3653 -1.0697 -0.0834
34772SOL    HW2 7594   4.984   6.408   8.868  0.1431  0.9134 -0.9289
34773SOL     OW 7595   0.703   4.107   0.166 -0.2384 -0.4233  0.2373
34773SOL    HW1 7596   0.648   4.091   0.090 -0.1906  0.4010  0.0163
34773SOL    HW2 7597   0.738   4.195   0.152 -0.5142 -0.1114  1.3754
34774SOL     OW 7598   3.502   4.002   2.721 -0.2422  0.0666  0.4289
34774SOL    HW1 7599   3.500   3.982   2.815 -0.0384 -1.8302  0.0678
34774SOL    HW2 7600   3.563   3.938   2.684 -0.2809  0.8162 -1.0033
34775SOL     OW 7601   4.113   4.487   4.175 -0.6868 -0.4784  0.9358
34775SOL    HW1 7602   4.150   4.398   4.176 -1.7518 -0.9288  1.2303
34775SOL    HW2 7603   4.122   4.518   4.265 -0.0991 -0.1821  0.7827
34776SOL     OW 7604   0.273   5.435   6.113  0.1253 -0.1013  0.6811
34776SOL    HW1 7605   0.263   5.523   6.149  0.3859 -0.0129  0.5445
34776SOL    HW2 7606   0.351   5.441   6.057 -0.0719 -0.3239  0.3814
34777SOL     OW 7607   9.992   1.672   9.851  0.4487  0.0895  0.2842
34777SOL    HW1 7608  10.013   1.662   9.944  0.1066  0.1458  0.3676
34777SOL    HW2 7609  10.055   1.737   9.819  1.5312 -0.9898  0.1389
34778SOL     OW 7610   4.260   2.236   1.852 -0.0811 -0.1244  0.5449
34778SOL    HW1 7611   4.187   2.217   1.911 -1.2095  1.3670 -0.3006
34778SOL    HW2 7612   4.234   2.197   1.768  0.9107 -1.0989  0.6782
34779SOL     OW 7613   7.261   5.346  11.327 -0.3479 -0.6241  0.1059
34779SOL    HW1 7614   7.337   5.402  11.313  0.9600 -1.9700  1.5045
34779SOL    HW2 7615   7.243   5.307  11.241  2.6178 -2.7702  0.2938
34780SOL     OW 7616   4.246   6.642   7.110 -0.1706 -0.2864  0.5021
34780SOL    HW1 7617   4.284   6.556   7.091 -1.6409 -0.6550 -1.0694
34780SOL    HW2 7618   4.236   6.643   7.205  3.9814  0.0300  1.0938
34781SOL     OW 7619   6.449   1.550   9.403 -0.0775 -0.3535  0.0217
34781SOL    HW1 7620   6.356   1.540   9.421 -0.2782 -0.0077 -0.7845
34781SOL    HW2 7621   6.481   1.460   9.393 -0.3724 -0.4640  0.0675
34782SOL     OW 7622   1.094   1.922   2.819  0.0954 -0.3725 -0.3906
34782SOL    HW1 7623   1.002   1.903   2.796 -0.1972  0.3046  0.2072
34782SOL    HW2 7624   1.119   1.993   2.760 -0.2588  0.4949  0.4735
34783SOL     OW 7625   6.516   7.026   5.279  0.0119 -0.0417 -0.4613
34783SOL    HW1 7626   6.515   6.940   5.236  0.4177  0.0688 -0.6932
34783SOL    HW2 7627   6.605   7.036   5.311  0.1874  0.6428 -1.1474
34784SOL     OW 7628   8.605   9.215   4.382  0.0538 -0.1486  0.6659
34784SOL    HW1 7629   8.569   9.285   4.436 -1.1794 -0.8021  0.7248
34784SOL    HW2 7630   8.596   9.247   4.292 -0.5423 -0.2380  0.6893
34785SOL     OW 7631   5.161   8.212   0.507 -0.1991  0.1701  0.6699
34785SOL    HW1 7632   5.094   8.226   0.439 -0.2079  0.5409  0.7550
34785SOL    HW2 7633   5.180   8.299   0.540 -1.6938 -0.1588  2.5994
34786SOL     OW 7634   1.402   9.218   7.700  0.1902  0.0799  0.3039
34786SOL    HW1 7635   1.344   9.213   7.776  0.2693 -0.2623  0.3436
34786SOL    HW2 7636   1.342   9.222   7.625  0.0962 -1.3992  0.2699
34787SOL     OW 7637   3.780   5.340   8.926 -0.3398  0.1914 -0.2628
34787SOL    HW1 7638   3.785   5.329   8.832 -2.1579 -0.9289 -0.2611
34787SOL    HW2 7639   3.783   5.435   8.939 -1.4441  0.4334 -1.5638
34788SOL     OW 7640   1.763   9.160   8.668 -0.1949 -0.6326  0.2104
34788SOL    HW1 7641   1.691   9.205   8.625 -1.5713 -2.0825  0.8923
34788SOL    HW2 7642   1.812   9.229   8.711 -0.6815  0.4758 -0.9643
34789SOL     OW 7643   8.564   5.640   6.083  0.1556  0.0055  0.1093
34789SOL    HW1 7644   8.600   5.551   6.085  0.4748 -0.0160 -2.8030
34789SOL    HW2 7645   8.469   5.627   6.082  0.2004 -0.3134 -0.3640
34790SOL     OW 7646  10.706   8.973   6.425  0.2645 -0.0613 -0.5388
34790SOL    HW1 7647  10.770   9.012   6.484 -0.0375 -1.3192  0.6792
34790SOL    HW2 7648  10.642   8.932   6.483 -0.2456 -1.0422 -1.7457
34791SOL     OW 7649   3.514   4.960  11.311  0.3494 -0.0645 -0.2263
34791SOL    HW1 7650   3.440   4.982  11.368  0.2305  0.6621 -0.6394
34791SOL    HW2 7651   3.576   4.915  11.368  0.2988  0.7707  0.5155
34792SOL     OW 7652   4.935   8.631   8.298  0.0125 -0.6700  0.7954
34792SOL    HW1 7653   4.990   8.582   8.360  2.5330 -0.2979 -1.0059
34792SOL    HW2 7654   4.939   8.581   8.217  0.1757  0.9386 -0.2360
34793SOL     OW 7655   2.650  11.139   6.160  0.0635 -0.6821 -0.1278
34793SOL    HW1 7656   2.693  11.195   6.226 -1.2473 -0.3042  0.4443
34793SOL    HW2 7657   2.594  11.082   6.212 -1.4316  0.0075 -0.9305
34794SOL     OW 7658   0.630   7.483   0.687  0.4073  0.4015 -0.6479
34794SOL    HW1 7659   0.563   7.493   0.620 -0.3245 -0.6596 -0.0863
34794SOL    HW2 7660   0.641   7.571   0.724  0.0788  0.7807 -1.4329
34795SOL     OW 7661   2.188   9.120   9.330  0.1455 -0.2109 -0.3354
34795SOL    HW1 7662   2.168   9.180   9.258  0.5218  1.4633  0.8942
34795SOL    HW2 7663   2.140   9.156   9.405  1.1261 -0.9200  0.6611
34796SOL     OW 7664   2.974   0.865  10.775  0.6321 -0.1002  1.0287
34796SOL    HW1 7665   3.063   0.887  10.802  0.1439  1.8512  1.1945
34796SOL    HW2 7666   2.981   0.849  10.681  1.2328 -0.4855  1.1310
34797SOL     OW 7667   4.373   6.290   8.689  0.0667  0.2834 -0.4082
34797SOL    HW1 7668   4.384   6.311   8.596 -1.9914 -0.6374 -0.9301
34797SOL    HW2 7669   4.282   6.261   8.696  0.1077  0.5134  1.9499
34798SOL     OW 7670   5.956   6.608  11.151 -0.8296  0.0867 -0.0653
34798SOL    HW1 7671   5.873   6.596  11.105 -0.8234 -1.1712  0.2190
34798SOL    HW2 7672   5.932   6.604  11.244 -0.4821 -0.0139  0.0203
34799SOL     OW 7673   1.178   0.964   8.495 -0.4153 -0.4417  0.0027
34799SOL    HW1 7674   1.155   1.050   8.531 -0.6941 -0.4986 -0.0360
34799SOL    HW2 7675   1.218   0.917   8.569  0.6927  0.0778 -0.2436
34800SOL     OW 7676   1.196  10.842   3.704  0.1516  0.2096  0.0809
34800SOL    HW1 7677   1.237  10.928   3.706  0.4593  0.0557  0.6566
34800SOL    HW2 7678   1.266  10.781   3.730 -0.4512 -0.0437  1.1966
34801SOL     OW 7679   7.643   9.931   2.758 -0.2358 -0.3871  0.5359
34801SOL    HW1 7680   7.647   9.835   2.755 -3.4845 -0.6287  0.1956
34801SOL    HW2 7681   7.611   9.956   2.672  1.1545  1.1155  0.4121
34802SOL     OW 7682   7.000   8.428   9.943  0.1467  0.2384  0.4532
34802SOL    HW1 7683   6.911   8.396   9.929  1.1202 -1.6200 -2.3232
34802SOL    HW2 7684   7.009   8.501   9.882  0.7958 -0.1076  0.1368
34803SOL     OW 7685   2.702  10.316   2.152 -0.0631 -0.1723  0.2846
34803SOL    HW1 7686   2.767  10.386   2.157  0.9885 -1.2029  1.8850
34803SOL    HW2 7687   2.730  10.262   2.079 -0.7262  0.8773 -0.7852
34804SOL     OW 7688  10.216   1.439   8.771  0.9422 -0.2031  0.3192
34804SOL    HW1 7689  10.226   1.499   8.697  0.6686 -0.0496  0.4062
34804SOL    HW2 7690  10.124   1.448   8.797  0.3551 -2.1130 -0.9112
34805SOL     OW 7691  10.713  10.917   9.579  0.0401  0.2425 -0.6498
34805SOL    HW1 7692  10.682  10.833   9.615 -0.1941  1.2504  1.7214
34805SOL    HW2 7693  10.784  10.893   9.520 -0.1210 -1.6509 -0.1436
34806SOL     OW 7694   6.507   8.289   4.727 -0.2331 -0.5258  0.4247
34806SOL    HW1 7695   6.558   8.218   4.765 -0.3256 -1.3046 -0.8479
34806SOL    HW2 7696   6.468   8.251   4.648 -0.1021  1.0005 -0.4107
34807SOL     OW 7697   5.343  11.110   1.031  0.3537 -0.2762  1.0069
34807SOL    HW1 7698   5.358  11.132   1.123 -1.4337 -0.0302  1.2781
34807SOL    HW2 7699   5.318  11.192   0.990 -1.5146 -0.8124  0.9455
34808SOL     OW 7700   0.660   1.545   2.898 -0.2080 -0.3233  0.2075
34808SOL    HW1 7701   0.589   1.592   2.854 -0.8836 -1.4256  0.0690
34808SOL    HW2 7702   0.733   1.550   2.837  0.8461  3.2404  1.5182
34809SOL     OW 7703   5.046   7.183   5.084  0.2635  0.0334  0.0457
34809SOL    HW1 7704   4.981   7.196   5.014 -0.3042 -1.7732  0.1929
34809SOL    HW2 7705   5.015   7.240   5.155 -0.3404  0.2886 -0.4088
34810SOL     OW 7706   2.647   3.580   9.160 -0.1332  0.5920 -0.0899
34810SOL    HW1 7707   2.593   3.504   9.182  0.6995  0.0191  0.0299
34810SOL    HW2 7708   2.635   3.591   9.066  0.5351 -0.3411 -0.3002
34811SOL     OW 7709   8.299   7.599  10.605  0.0301 -0.5495 -0.4557
34811SOL    HW1 7710   8.389   7.620  10.582  0.3045  0.6558  1.5131
34811SOL    HW2 7711   8.291   7.624  10.697 -2.0030 -1.6744 -0.2719
34812SOL     OW 7712   3.521   9.095   3.715  0.0190 -0.4307 -0.3791
34812SOL    HW1 7713   3.586   9.128   3.777  0.7885  0.9382 -1.8532
34812SOL    HW2 7714   3.474   9.027   3.764  0.3569  0.8141  1.7927
34813SOL     OW 7715  11.191   4.369   7.900  0.2928  0.6114 -0.4092
34813SOL    HW1 7716  11.147   4.348   7.818  1.3087 -1.0799 -0.5650
34813SOL    HW2 7717  11.120   4.385   7.962 -0.5033  0.5373 -1.2844
34814SOL     OW 7718   2.408   3.929  10.448 -0.1076  0.1250 -0.4963
34814SOL    HW1 7719   2.336   3.915  10.387 -0.4027  0.6947 -0.2805
34814SOL    HW2 7720   2.371   3.983  10.518  0.7679  1.2787 -0.8854
34815SOL     OW 7721  11.119   7.480   8.810 -0.1903 -0.2000  0.0914
34815SOL    HW1 7722  11.126   7.542   8.882 -1.0763 -0.0745  0.0759
34815SOL    HW2 7723  11.201   7.489   8.762 -0.9278  2.1503 -0.8623
34816SOL     OW 7724   8.052   8.526   1.737 -0.3493  0.4347  0.0845
34816SOL    HW1 7725   8.041   8.431   1.747  0.8788  0.4497  2.1008
34816SOL    HW2 7726   8.141   8.543   1.768 -0.5322  2.2501 -0.2843
34817SOL     OW 7727   5.218   9.742   7.534  0.3585 -0.6339 -0.2326
34817SOL    HW1 7728   5.182   9.830   7.541 -0.2590 -0.8471 -0.6184
34817SOL    HW2 7729   5.282   9.736   7.605  1.2858  0.5199 -0.9371
34818SOL     OW 7730   8.671   1.356   9.202  0.3453  0.0406 -0.6007
34818SOL    HW1 7731   8.666   1.293   9.131 -0.1891  1.3623 -1.7944
34818SOL    HW2 7732   8.587   1.403   9.198  0.7682  0.9037  0.1550
34819SOL     OW 7733   4.969   0.537   5.274  0.0813 -0.0317 -0.6005
34819SOL    HW1 7734   4.880   0.511   5.298  0.3915 -1.6168 -0.9989
34819SOL    HW2 7735   4.965   0.554   5.180 -0.0906  1.2905 -0.3606
34820SOL     OW 7736   5.626   1.145  11.268 -0.2208 -0.1627 -0.0488
34820SOL    HW1 7737   5.620   1.234  11.301 -1.4974 -0.1975 -0.1143
34820SOL    HW2 7738   5.538   1.126  11.235 -0.1140 -1.6010  0.4061
34821SOL     OW 7739  10.863   7.951   2.587 -0.2292 -0.3157  0.2915
34821SOL    HW1 7740  10.806   7.929   2.661  1.7986 -0.3619  1.9320
34821SOL    HW2 7741  10.919   8.021   2.621  1.0474 -0.6413 -1.0610
34822SOL     OW 7742   2.282   2.510   9.174  0.4336 -0.4346  0.0277
34822SOL    HW1 7743   2.313   2.427   9.210 -0.6409 -1.9712 -2.3432
34822SOL    HW2 7744   2.224   2.546   9.241  0.0926 -2.1124  0.6724
34823SOL     OW 7745   5.645   3.244   4.852 -0.3119 -0.0795  0.8069
34823SOL    HW1 7746   5.607   3.199   4.928  0.2709 -3.2734 -0.6206
34823SOL    HW2 7747   5.716   3.186   4.823  1.9678  2.8624 -0.0164
34824SOL     OW 7748   8.773   9.202   9.727 -0.0773  0.1557  0.4864
34824SOL    HW1 7749   8.767   9.163   9.639  1.7094 -0.2084  0.4897
34824SOL    HW2 7750   8.796   9.293   9.711  1.5733 -0.2141  0.5563
34825SOL     OW 7751   7.527   7.262   6.439 -0.4208  0.3119  0.2441
34825SOL    HW1 7752   7.445   7.214   6.432  1.1904 -2.5212 -0.7687
34825SOL    HW2 7753   7.535   7.283   6.532 -2.5089  1.1990  0.2779
34826SOL     OW 7754   6.311   4.935   6.960  0.4467  0.1029  0.0313
34826SOL    HW1 7755   6.223   4.966   6.937  0.3001 -1.7348 -2.2659
34826SOL    HW2 7756   6.314   4.942   7.056 -1.9025  0.9460  0.1203
34827SOL     OW 7757   4.246   6.280  11.082 -0.6511  0.2437  0.4108
34827SOL    HW1 7758   4.237   6.204  11.024  0.6045  0.5210 -0.1969
34827SOL    HW2 7759   4.296   6.247  11.156 -0.8261  0.2793  0.5434
34828SOL     OW 7760   0.352   0.284   3.257  0.3768 -0.2538 -0.3432
34828SOL    HW1 7761   0.406   0.212   3.223  0.3287  0.6108 -2.3828
34828SOL    HW2 7762   0.415   0.349   3.287  0.4539 -0.1576 -0.7084
34829SOL     OW 7763   3.909   1.455  11.298 -0.5546  0.1118  0.6393
34829SOL    HW1 7764   3.983   1.514  11.286 -0.6528  0.3104  0.9779
34829SOL    HW2 7765   3.835   1.513  11.319 -0.5679 -0.1461  1.3453
34830SOL     OW 7766   5.086   5.227   4.106 -0.2155 -0.4401  0.4500
34830SOL    HW1 7767   5.162   5.257   4.156 -1.2052  1.7634  0.7290
34830SOL    HW2 7768   5.042   5.165   4.164 -0.0716  0.3028  1.3668
34831SOL     OW 7769   0.673  10.665   4.152 -0.2567 -0.4521  0.0133
34831SOL    HW1 7770   0.652  10.620   4.070 -1.2979 -0.9810  0.5500
34831SOL    HW2 7771   0.619  10.745   4.150 -0.7302 -0.7572  0.4411
34832SOL     OW 7772   7.023   5.536   8.804 -0.5332 -0.2099 -0.3476
34832SOL    HW1 7773   7.019   5.555   8.898  1.3325 -0.1347 -0.2617
34832SOL    HW2 7774   6.945   5.482   8.788 -0.4386 -0.9481  1.4011
34833SOL     OW 7775   2.368   9.766   2.371 -0.6882 -0.2379 -0.2428
34833SOL    HW1 7776   2.302   9.734   2.433 -1.0961 -0.2123 -0.6549
34833SOL    HW2 7777   2.395   9.851   2.406  0.1056 -0.8410  0.6416
34834SOL     OW 7778   6.424   7.313   9.385 -0.3036 -0.2042 -0.2498
34834SOL    HW1 7779   6.399   7.402   9.410  0.9581  0.5044 -1.3728
34834SOL    HW2 7780   6.409   7.260   9.463  1.5791  1.5273  1.3652
34835SOL     OW 7781  10.475   7.512   0.152 -0.1541 -0.3553  0.9863
34835SOL    HW1 7782  10.493   7.600   0.121 -3.2077  0.1828  0.4115
34835SOL    HW2 7783  10.410   7.478   0.090  2.5010 -3.9403 -0.1809
34836SOL     OW 7784   9.628   2.629   4.616  0.6524 -0.6590  0.4715
34836SOL    HW1 7785   9.651   2.537   4.603 -1.3273 -0.9575 -1.6747
34836SOL    HW2 7786   9.684   2.677   4.555  0.3171 -0.6661  0.1552
34837SOL     OW 7787   8.551   2.779  10.001 -0.4048 -0.0011  0.2618
34837SOL    HW1 7788   8.479   2.766  10.064  0.5944 -0.3131  1.3671
34837SOL    HW2 7789   8.523   2.731   9.923 -0.7345 -1.3600  1.1957
34838SOL     OW 7790   6.717   8.807   8.459 -0.3998  0.1485  0.2283
34838SOL    HW1 7791   6.653   8.823   8.529  1.3352  1.6283  1.5950
34838SOL    HW2 7792   6.770   8.735   8.491 -1.2786 -1.0192 -0.8642
34839SOL     OW 7793   9.860   1.634   8.000  0.4888  0.1102  0.0149
34839SOL    HW1 7794   9.948   1.670   8.006  1.5986 -1.9391 -2.2949
34839SOL    HW2 7795   9.823   1.673   7.920 -0.0726 -0.2657  0.0855
34840SOL     OW 7796   4.695   7.114   8.694  0.0748  0.3750 -0.4397
34840SOL    HW1 7797   4.745   7.176   8.640 -1.5049  2.5225  0.4234
34840SOL    HW2 7798   4.665   7.166   8.768 -1.7557 -1.3218  0.0818
34841SOL     OW 7799   6.331   3.484   0.959 -0.5921 -0.0073 -0.1204
34841SOL    HW1 7800   6.387   3.485   1.037 -0.7451  0.6488 -0.0114
34841SOL    HW2 7801   6.344   3.397   0.920  0.4863  0.1270 -0.0807
34842SOL     OW 7802   0.817   7.958   9.519  0.7000  0.2707  0.7232
34842SOL    HW1 7803   0.751   7.951   9.451 -0.8376  1.6613  1.9770
34842SOL    HW2 7804   0.835   7.867   9.545 -0.0597 -0.1731 -0.2536
34843SOL     OW 7805   4.818   3.205   4.967 -0.2120  0.2861  0.1935
34843SOL    HW1 7806   4.871   3.222   5.045  0.6052  0.2767 -0.3429
34843SOL    HW2 7807   4.882   3.181   4.900 -1.0049 -1.0051 -0.1285
34844SOL     OW 7808   0.037   9.617   9.642 -0.1737 -0.2766  0.0595
34844SOL    HW1 7809  -0.057   9.609   9.656 -0.3302 -1.1134 -1.3343
34844SOL    HW2 7810   0.049   9.603   9.549  1.3035  0.2676  0.1382
34845SOL     OW 7811   8.343   7.020   3.217  0.2617 -0.1825 -0.0828
34845SOL    HW1 7812   8.429   7.058   3.196  0.8611 -1.2750  0.2887
34845SOL    HW2 7813   8.345   6.933   3.177 -0.4601 -0.4276  0.3896
34846SOL     OW 7814   5.668   6.720   7.956  0.4146 -0.0835 -0.3604
34846SOL    HW1 7815   5.659   6.662   8.032 -2.2376 -0.1409 -0.6450
34846SOL    HW2 7816   5.681   6.661   7.882  1.9052 -0.0661 -0.1571
34847SOL     OW 7817   4.721   3.562   9.877 -0.4453  0.5643  0.3710
34847SOL    HW1 7818   4.659   3.576   9.805 -1.8402  1.0298  1.6193
34847SOL    HW2 7819   4.806   3.587   9.840 -1.1358  0.9156 -1.0625
34848SOL     OW 7820   0.422   0.895   9.909  0.4445 -0.3341 -0.0230
34848SOL    HW1 7821   0.457   0.845   9.983 -1.3869 -0.8612  0.5526
34848SOL    HW2 7822   0.487   0.885   9.840  1.7465 -0.6488  1.1956
34849SOL     OW 7823   1.745   3.461   7.984 -0.6387  0.3864 -0.0748
34849SOL    HW1 7824   1.754   3.551   7.954  0.6051  0.6317  0.9320
34849SOL    HW2 7825   1.810   3.412   7.935  0.1406  0.4547  0.8515
34850SOL     OW 7826   4.900   7.994   2.312  0.0400  0.3528  0.7463
34850SOL    HW1 7827   4.849   7.985   2.231  1.6629  1.1254 -0.4122
34850SOL    HW2 7828   4.939   8.081   2.306  0.4748  0.2824  2.2151
34851SOL     OW 7829   7.617   1.728   2.467 -0.3250  0.3055  0.1684
34851SOL    HW1 7830   7.583   1.801   2.519 -1.7078 -1.7643  2.3995
34851SOL    HW2 7831   7.692   1.765   2.421 -1.9751  3.5547 -0.2484
34852SOL     OW 7832   2.146   0.992   0.381 -0.5175  0.3726 -0.2661
34852SOL    HW1 7833   2.221   1.002   0.440  0.0443  0.4133 -0.9807
34852SOL    HW2 7834   2.119   1.082   0.362 -0.5939  0.3621 -0.2081
34853SOL     OW 7835   3.157   1.272   2.674 -0.7556  0.2517 -0.1599
34853SOL    HW1 7836   3.190   1.359   2.698  1.0542 -0.4481 -0.0111
34853SOL    HW2 7837   3.123   1.236   2.756 -1.8060  0.9047 -0.2808
34854SOL     OW 7838   0.321   1.909   9.289 -0.0036  0.0093  0.2304
34854SOL    HW1 7839   0.236   1.886   9.250  0.0858  0.8408 -0.4782
34854SOL    HW2 7840   0.373   1.829   9.283 -0.6093 -0.3978  0.3221
34855SOL     OW 7841  10.339   3.168   6.501 -0.3681  0.4099  0.3736
34855SOL    HW1 7842  10.254   3.126   6.516 -0.3700  0.5251  0.7043
34855SOL    HW2 7843  10.374   3.124   6.424 -0.7927  0.4642  0.1470
34856SOL     OW 7844   0.143   7.163   2.772  0.6351 -0.7985 -0.6252
34856SOL    HW1 7845   0.050   7.143   2.784  0.2410  1.0248 -0.3355
34856SOL    HW2 7846   0.178   7.166   2.861  0.1109  2.0903 -0.4214
34857SOL     OW 7847   3.072   7.570   1.231 -0.5829 -0.3222 -0.6876
34857SOL    HW1 7848   3.009   7.638   1.209 -1.9365 -1.2091  0.2913
34857SOL    HW2 7849   3.023   7.509   1.285  0.3566 -2.4889 -2.1404
34858SOL     OW 7850   6.673   9.848   1.961  0.3201  0.0576  0.3215
34858SOL    HW1 7851   6.665   9.937   1.926  0.7155  1.0021  2.4168
34858SOL    HW2 7852   6.601   9.800   1.922  0.2430  1.2366 -1.0683
34859SOL     OW 7853   9.577   7.956   3.703 -0.2183  0.0859 -0.2091
34859SOL    HW1 7854   9.564   8.038   3.656  0.7102  0.6189  0.4405
34859SOL    HW2 7855   9.660   7.967   3.749 -0.8146 -0.6368  1.1040
34860SOL     OW 7856   2.728   1.214   9.246  0.1969 -0.6726 -0.1227
34860SOL    HW1 7857   2.795   1.172   9.300  0.5396  1.5309  1.3181
34860SOL    HW2 7858   2.658   1.236   9.307 -0.2809  0.1375 -0.9337
34861SOL     OW 7859   4.698   4.271   5.991  0.0037 -0.2114 -0.1872
34861SOL    HW1 7860   4.653   4.309   6.067 -0.3007 -0.5348 -0.2032
34861SOL    HW2 7861   4.691   4.338   5.923 -1.6983 -0.7921 -0.6398
34862SOL     OW 7862   1.978   9.246   4.364  0.2424 -0.3579 -0.1397
34862SOL    HW1 7863   1.925   9.174   4.399 -0.6114  0.5720  0.5544
34862SOL    HW2 7864   1.928   9.278   4.289  0.9176 -0.8575 -0.8157
34863SOL     OW 7865   1.312   6.552   3.556 -0.1954  0.1530 -0.3036
34863SOL    HW1 7866   1.371   6.490   3.512  0.0551 -0.9502  1.4623
34863SOL    HW2 7867   1.234   6.554   3.501 -0.6141 -2.5614  0.0463
34864SOL     OW 7868  10.564   6.822   1.377 -0.0172  0.6269  0.3673
34864SOL    HW1 7869  10.617   6.870   1.313 -0.5310  0.9980  0.2216
34864SOL    HW2 7870  10.475   6.826   1.343 -0.1216 -0.1458  0.5287
34865SOL     OW 7871   5.128   4.893   6.378 -0.0760  0.2543  0.2956
34865SOL    HW1 7872   5.110   4.923   6.289  1.7135 -0.4045 -0.3335
34865SOL    HW2 7873   5.181   4.963   6.416 -0.5537  0.3803  0.7476
34866SOL     OW 7874   8.741  10.092   4.675  0.1077 -0.0395  0.0616
34866SOL    HW1 7875   8.702  10.046   4.749 -0.7527  0.4676 -0.0638
34866SOL    HW2 7876   8.794  10.161   4.714  0.2714 -0.2515  0.2165
34867SOL     OW 7877   9.858   8.154   7.406  0.5314 -0.3522  0.0974
34867SOL    HW1 7878   9.770   8.187   7.425  1.0321  0.0848  1.8134
34867SOL    HW2 7879   9.916   8.226   7.431  1.4429 -1.0781  0.0956
34868SOL     OW 7880   5.286   5.788   6.482  0.2748 -0.5034 -0.0820
34868SOL    HW1 7881   5.286   5.716   6.420 -0.9831 -0.2943 -0.3354
34868SOL    HW2 7882   5.252   5.750   6.563 -1.8303  0.1064 -0.6220
34869SOL     OW 7883   8.855   9.054   8.054  0.0805 -0.1855  0.0048
34869SOL    HW1 7884   8.841   9.005   8.136  0.1036 -0.0667  0.0792
34869SOL    HW2 7885   8.767   9.075   8.024 -0.0219 -1.7336 -0.9128
34870SOL     OW 7886   2.440   8.233  11.081  0.2208 -0.4228 -0.2320
34870SOL    HW1 7887   2.439   8.278  10.996 -1.5287 -0.7420 -0.4124
34870SOL    HW2 7888   2.348   8.228  11.107  0.5343 -2.1375  0.7255
34871SOL     OW 7889   9.288   0.893   6.616  0.2791  0.1258 -0.2816
34871SOL    HW1 7890   9.312   0.903   6.524  0.2537  1.1013 -0.1879
34871SOL    HW2 7891   9.371   0.889   6.662  0.2891 -0.1612 -0.3225
34872SOL     OW 7892   1.421   8.640   8.278  0.0535 -0.0297  0.4204
34872SOL    HW1 7893   1.482   8.594   8.222  0.5789  1.1409 -0.0010
34872SOL    HW2 7894   1.335   8.608   8.251  0.2145  1.1009 -1.6967
34873SOL     OW 7895   0.040   8.164   7.227 -0.1704  0.5431 -0.1236
34873SOL    HW1 7896   0.077   8.175   7.314  0.9569 -0.1171 -0.5041
34873SOL    HW2 7897  -0.044   8.120   7.242 -0.8703  2.0823  0.7454
34874SOL     OW 7898   5.781   8.708  10.219  0.1702  0.2806  0.2965
34874SOL    HW1 7899   5.791   8.696  10.124  0.2978  1.6787  0.1049
34874SOL    HW2 7900   5.837   8.641  10.258 -0.5437 -0.8779 -0.5888
34875SOL     OW 7901  11.215   2.026   0.908 -0.1898  0.1249 -0.0631
34875SOL    HW1 7902  11.140   2.086   0.907  0.0567  0.4347  0.0151
34875SOL    HW2 7903  11.266   2.052   0.831  1.3656  1.8664  1.4616
34876SOL     OW 7904   4.574   7.225   0.142 -0.6518  0.4157 -0.4183
34876SOL    HW1 7905   4.600   7.316   0.126 -0.8499  0.5299 -0.1086
34876SOL    HW2 7906   4.478   7.228   0.144 -0.6379  0.6481  2.0650
34877SOL     OW 7907   1.217   4.345   5.174  0.4260 -0.1490 -0.3873
34877SOL    HW1 7908   1.258   4.431   5.166  0.7660 -0.2344  0.3647
34877SOL    HW2 7909   1.173   4.347   5.259  0.1006 -0.5765 -0.5414
34878SOL     OW 7910   5.145   4.516   1.944  0.5682 -0.0824 -0.6700
34878SOL    HW1 7911   5.101   4.597   1.920 -0.4573 -0.9867 -1.9631
34878SOL    HW2 7912   5.231   4.523   1.903  1.0705  0.9655  0.4778
34879SOL     OW 7913   2.846   7.490   0.712  0.0480  0.0711 -0.1853
34879SOL    HW1 7914   2.852   7.510   0.618  2.6846  1.4658  0.1660
34879SOL    HW2 7915   2.758   7.517   0.737  0.2993  2.6771 -1.7093
34880SOL     OW 7916   6.734   7.315   2.583 -0.1733 -0.0822  0.1162
34880SOL    HW1 7917   6.709   7.407   2.580  2.3083  0.6565  0.2451
34880SOL    HW2 7918   6.829   7.316   2.588 -0.1097 -2.6532  0.7749
34881SOL     OW 7919   5.885   3.468   0.630  0.2470 -0.2988  0.2683
34881SOL    HW1 7920   5.791   3.478   0.613  0.0807 -0.8647  0.8054
34881SOL    HW2 7921   5.927   3.494   0.548 -0.3786 -0.0590  0.0148
34882SOL     OW 7922   6.061   4.612   5.529  0.0568  0.3007  0.2608
34882SOL    HW1 7923   6.147   4.646   5.506  1.1501 -0.9194  2.3139
34882SOL    HW2 7924   6.032   4.667   5.602  0.6061 -1.3200  1.7604
34883SOL     OW 7925   6.409   9.023   1.026 -0.1553  0.5112 -0.1182
34883SOL    HW1 7926   6.395   8.963   0.953 -0.7386  0.4660  0.0233
34883SOL    HW2 7927   6.459   9.096   0.989 -0.7681  0.6649 -0.6490
34884SOL     OW 7928  11.126   0.119   8.430 -0.1991 -0.0231 -0.0094
34884SOL    HW1 7929  11.082   0.134   8.347 -1.2130  1.1450  0.7028
34884SOL    HW2 7930  11.122   0.024   8.442  0.0023 -0.2115 -1.2918
34885SOL     OW 7931   7.975   4.143   9.172 -0.2567  0.4412 -0.1401
34885SOL    HW1 7932   7.995   4.109   9.085 -0.7374 -0.6300  0.1435
34885SOL    HW2 7933   7.909   4.210   9.157  2.0379  2.7221 -0.9048
34886SOL     OW 7934   2.006   0.778   8.387 -0.2220 -0.6818  0.0818
34886SOL    HW1 7935   2.004   0.853   8.327  0.0119 -0.2270  0.6339
34886SOL    HW2 7936   1.918   0.741   8.382 -0.6307  0.2035  0.5166
34887SOL     OW 7937   8.598   3.843   9.406 -0.0862 -0.0227 -0.0625
34887SOL    HW1 7938   8.693   3.849   9.397 -0.1160  0.1269 -0.2846
34887SOL    HW2 7939   8.568   3.812   9.320 -0.2266 -0.1836  0.0432
34888SOL     OW 7940   8.423   6.954   0.629 -0.1990 -0.2924  0.0826
34888SOL    HW1 7941   8.383   6.887   0.574  0.2101 -0.5242  0.0626
34888SOL    HW2 7942   8.515   6.928   0.636  0.5271  1.4444 -1.8111
34889SOL     OW 7943   5.319   4.082   3.219 -0.2513 -0.0215 -0.3447
34889SOL    HW1 7944   5.368   4.018   3.167 -1.4879 -1.2820 -0.0258
34889SOL    HW2 7945   5.349   4.069   3.309  1.7659  2.0447 -0.6434
34890SOL     OW 7946  11.290   7.283   5.705 -0.4641  0.1235  0.4684
34890SOL    HW1 7947  11.327   7.252   5.622 -0.8953 -0.0712  0.3468
34890SOL    HW2 7948  11.276   7.377   5.691 -0.2568  0.1510  0.4301
34891SOL     OW 7949   8.571   5.358   9.874 -0.0215  0.0678 -0.2566
34891SOL    HW1 7950   8.519   5.363   9.954 -0.5016 -1.1444 -0.4788
34891SOL    HW2 7951   8.551   5.272   9.837  0.8928  0.2415 -1.2066
34892SOL     OW 7952   1.508   0.699   3.091  0.3936 -0.1391 -0.2304
34892SOL    HW1 7953   1.480   0.779   3.045 -0.8665 -0.3718  0.0967
34892SOL    HW2 7954   1.432   0.674   3.143  1.3700 -0.6000  1.0090
34893SOL     OW 7955   8.704  10.882   0.563 -0.1940 -0.2470  0.3244
34893SOL    HW1 7956   8.725  10.859   0.654  0.1772  0.2609  0.3737
34893SOL    HW2 7957   8.611  10.861   0.554  0.0394 -1.3859  0.4687
34894SOL     OW 7958   5.848  11.042   6.312  0.1112 -0.3388 -0.0880
34894SOL    HW1 7959   5.842  11.091   6.394 -1.1664  0.1269 -0.4301
34894SOL    HW2 7960   5.807  11.100   6.247 -2.1965 -2.1405 -0.3626
34895SOL     OW 7961   4.965   4.237  10.311  0.3194  0.3798 -0.4096
34895SOL    HW1 7962   4.972   4.332  10.303  1.4733  0.1714 -2.4684
34895SOL    HW2 7963   4.932   4.223  10.400 -1.5313  2.7418 -0.6235
34896SOL     OW 7964  10.873   3.761   3.000 -0.0965 -0.2820 -0.2716
34896SOL    HW1 7965  10.783   3.750   2.969 -0.4920  1.3923  0.2025
34896SOL    HW2 7966  10.864   3.808   3.083  1.2689  1.0227 -0.8142
34897SOL     OW 7967   5.663   0.412  10.022 -0.0709  0.1583 -0.2465
34897SOL    HW1 7968   5.666   0.422   9.927 -0.5544  1.1037 -0.1673
34897SOL    HW2 7969   5.664   0.501  10.056  0.7194 -0.1837  0.6633
34898SOL     OW 7970  10.991   8.882   3.894  0.2222 -0.1998  0.6099
34898SOL    HW1 7971  11.059   8.946   3.873  0.7233 -0.6229  0.9320
34898SOL    HW2 7972  10.950   8.916   3.974 -0.1379  0.1930  0.2707
34899SOL     OW 7973   1.901  10.440   6.231  0.4647 -0.7276  0.4015
34899SOL    HW1 7974   1.815  10.478   6.248  0.0839 -1.2299 -0.3561
34899SOL    HW2 7975   1.939  10.496   6.162  0.5235 -0.8265  0.3535
34900SOL     OW 7976   6.017  11.336   7.607  0.3637  0.8816 -0.0924
34900SOL    HW1 7977   6.061  11.373   7.684  0.9751  0.6340 -0.3180
34900SOL    HW2 7978   5.936  11.386   7.600  0.6887  1.4698  0.2304
34901SOL     OW 7979   2.022   9.985   5.072 -0.0181 -0.1593 -0.1795
34901SOL    HW1 7980   2.116   9.998   5.062 -0.0481  0.3854  0.1948
34901SOL    HW2 7981   1.996   9.934   4.996  0.7379 -1.1248  0.1971
34902SOL     OW 7982   7.000   4.366   8.843  0.1274 -0.3247 -0.1827
34902SOL    HW1 7983   7.003   4.419   8.923  0.5616  0.9138 -0.9751
34902SOL    HW2 7984   6.923   4.310   8.854 -1.5134  1.7990 -0.0568
34903SOL     OW 7985   7.266   7.267  10.381  0.1112 -0.7857 -0.3220
34903SOL    HW1 7986   7.187   7.315  10.406  0.5958  0.4206 -1.0062
34903SOL    HW2 7987   7.248   7.236  10.292  0.5381 -0.1655 -0.6343
34904SOL     OW 7988   9.996   0.493   6.329  0.7361  0.0163  0.0842
34904SOL    HW1 7989   9.950   0.574   6.348 -1.3501 -0.1036 -3.5020
34904SOL    HW2 7990  10.078   0.520   6.288  1.6541  0.2033  1.9207
34905SOL     OW 7991   5.242   2.015   7.708 -0.4704 -0.3835  0.2093
34905SOL    HW1 7992   5.170   1.971   7.754 -0.6141 -1.2472 -0.8022
34905SOL    HW2 7993   5.317   2.006   7.768 -0.8604 -0.7463  0.6527
34906SOL     OW 7994   3.278   1.221   3.240 -0.0404 -0.3209  0.0158
34906SOL    HW1 7995   3.353   1.177   3.280  1.0035  1.4495  0.1278
34906SOL    HW2 7996   3.202   1.177   3.277  0.8962  0.2550  2.8507
34907SOL     OW 7997   2.491  10.720   7.353  0.6052  0.2268 -0.1008
34907SOL    HW1 7998   2.580  10.698   7.382  0.0874  0.5163  1.8792
34907SOL    HW2 7999   2.486  10.816   7.362  0.7685  0.4953 -2.3617
34908SOL     OW 8000   5.838   4.013   8.410  0.3166 -0.5035 -0.0380
34908SOL    HW1 8001   5.885   3.959   8.347  1.9929 -0.6430  1.2356
34908SOL    HW2 8002   5.906   4.067   8.451 -1.0269  1.2247  0.0737
34909SOL     OW 8003   6.973   6.733   4.404  0.2081  0.0665 -0.0769
34909SOL    HW1 8004   6.984   6.796   4.475  0.2136  0.0250 -0.0404
34909SOL    HW2 8005   7.050   6.675   4.412 -0.3309 -0.5829  0.5411
34910SOL     OW 8006   7.465   7.477   5.149 -0.5085 -0.0237  0.0572
34910SOL    HW1 8007   7.509   7.440   5.073  1.6760  0.1601  1.1280
34910SOL    HW2 8008   7.495   7.423   5.222 -2.7056 -0.3280  0.7892
34911SOL     OW 8009   0.546   8.398   6.370  0.4023 -0.7182 -0.0889
34911SOL    HW1 8010   0.502   8.423   6.289  0.3275 -0.5153  0.0131
34911SOL    HW2 8011   0.631   8.364   6.342  0.6418 -0.0348 -0.2085
34912SOL     OW 8012   5.801   7.402   6.441  0.6206  0.0123 -0.5593
34912SOL    HW1 8013   5.733   7.433   6.502  2.4359  4.4847 -0.4517
34912SOL    HW2 8014   5.872   7.372   6.498  0.3059 -0.8440 -0.6081
34913SOL     OW 8015   2.634   4.019   2.393  0.1322  0.1770 -0.0436
34913SOL    HW1 8016   2.703   3.958   2.419  1.1047  1.1231 -0.3125
34913SOL    HW2 8017   2.634   4.018   2.298  0.3373  0.7752 -0.0565
34914SOL     OW 8018   9.180   6.479   4.872  0.3045  0.0864  0.0465
34914SOL    HW1 8019   9.113   6.411   4.875 -0.1156  0.5101  0.2595
34914SOL    HW2 8020   9.203   6.495   4.963  1.1812 -0.5243 -0.0514
34915SOL     OW 8021   9.669   7.320  10.557 -0.3749  0.0004 -0.0127
34915SOL    HW1 8022   9.637   7.396  10.508  0.4392 -0.3908 -1.1824
34915SOL    HW2 8023   9.703   7.260  10.491  1.0396 -0.4206  1.0341
34916SOL     OW 8024   6.242   4.966   8.771 -0.1688 -0.3912 -0.1607
34916SOL    HW1 8025   6.270   4.977   8.680  1.3571  1.2415  0.4445
34916SOL    HW2 8026   6.223   4.873   8.779  0.2964 -0.6863 -1.9678
34917SOL     OW 8027   0.907   6.400   1.468  0.4262 -0.8568  0.1704
34917SOL    HW1 8028   0.960   6.462   1.518  0.9288 -0.0186 -1.3285
34917SOL    HW2 8029   0.891   6.444   1.385 -0.8030 -1.9976 -0.2369
34918SOL     OW 8030   2.651   7.675   5.318 -0.3193 -0.6351 -0.2898
34918SOL    HW1 8031   2.632   7.652   5.227 -0.4158 -1.6466 -0.0187
34918SOL    HW2 8032   2.745   7.691   5.319 -0.5676  1.1352 -0.9263
34919SOL     OW 8033   4.843   9.799   1.593 -0.6600 -0.1337 -0.0159
34919SOL    HW1 8034   4.853   9.840   1.507 -1.0556 -3.6821 -1.9644
34919SOL    HW2 8035   4.749   9.803   1.611 -0.5723  0.6446  0.2846
34920SOL     OW 8036  10.497   6.358   9.704  0.3837  0.1624 -0.2736
34920SOL    HW1 8037  10.565   6.301   9.740  1.0798  0.8874 -0.3985
34920SOL    HW2 8038  10.423   6.300   9.688  0.1696 -0.2666  1.9466
34921SOL     OW 8039   5.521   3.422   5.196  0.0699 -0.0360 -0.2298
34921SOL    HW1 8040   5.519   3.379   5.281 -1.0689 -0.7780 -0.6140
34921SOL    HW2 8041   5.583   3.494   5.208 -1.7374  1.3163  1.9311
34922SOL     OW 8042   8.277   9.902   9.193  0.1520  0.4698 -1.1011
34922SOL    HW1 8043   8.261   9.995   9.178 -0.9839  0.2376 -1.3868
34922SOL    HW2 8044   8.337   9.900   9.268 -0.7316  1.3957 -0.3449
34923SOL     OW 8045   4.897   7.190   2.486 -0.5769 -0.5689 -0.0784
34923SOL    HW1 8046   4.929   7.233   2.565 -2.1435  0.2087  0.1650
34923SOL    HW2 8047   4.945   7.233   2.415 -1.1903  0.7084  0.2542
34924SOL     OW 8048   2.633   1.102   0.951 -0.2573  0.1956 -0.0741
34924SOL    HW1 8049   2.597   1.128   1.036  1.2754 -1.6253  1.2131
34924SOL    HW2 8050   2.721   1.139   0.950 -0.3108  0.3250 -0.9794
34925SOL     OW 8051   8.532   3.008   5.372 -0.3736  0.6405  0.1264
34925SOL    HW1 8052   8.439   2.994   5.355 -0.6322 -0.0720  1.9703
34925SOL    HW2 8053   8.549   3.096   5.337 -1.9120  1.0937  0.4384
34926SOL     OW 8054   3.324   3.548  10.910 -0.0350 -0.5179  0.0265
34926SOL    HW1 8055   3.362   3.473  10.956  0.0938 -1.2643 -1.2496
34926SOL    HW2 8056   3.356   3.624  10.959  1.6990 -1.1940  0.0196
34927SOL     OW 8057   2.999   6.509  10.964  0.1516  0.1675 -0.3610
34927SOL    HW1 8058   2.945   6.576  10.925 -0.1069 -0.4684 -1.1224
34927SOL    HW2 8059   2.947   6.429  10.959 -0.6217  0.3362  2.8582
34928SOL     OW 8060   0.754  11.043   0.811  0.4560  0.0424 -0.2418
34928SOL    HW1 8061   0.834  11.086   0.841  1.8985  0.5875 -4.2151
34928SOL    HW2 8062   0.784  10.976   0.750 -2.0730  0.1650 -1.7766
34929SOL     OW 8063   5.834   2.096   6.523 -0.2310 -0.1160 -0.0022
34929SOL    HW1 8064   5.802   2.175   6.478 -1.5838 -1.3318 -1.2817
34929SOL    HW2 8065   5.872   2.043   6.453  3.7257  0.6983  1.2679
34930SOL     OW 8066   2.959  11.309   5.776 -0.2762 -0.1263  0.1718
34930SOL    HW1 8067   3.054  11.317   5.774 -0.1736 -1.3731 -1.0489
34930SOL    HW2 8068   2.929  11.368   5.706 -0.2652 -1.0263 -0.6173
34931SOL     OW 8069   3.727  11.087   0.693  0.0658 -0.4798 -0.2025
34931SOL    HW1 8070   3.747  10.994   0.705  0.7239 -0.3426 -0.1864
34931SOL    HW2 8071   3.731  11.100   0.598  0.7954 -0.2963 -0.1512
34932SOL     OW 8072   5.528  10.348   1.102 -0.4183 -0.4568 -0.0528
34932SOL    HW1 8073   5.493  10.395   1.178 -0.7468 -1.8214  0.6620
34932SOL    HW2 8074   5.602  10.297   1.136 -0.9071 -1.5056 -0.5141
34933SOL     OW 8075  11.125   9.428   7.768 -0.4714  0.3802  0.6626
34933SOL    HW1 8076  11.141   9.368   7.841 -1.6853 -0.1430  0.5201
34933SOL    HW2 8077  11.203   9.421   7.713 -0.1853 -0.3261  1.1476
34934SOL     OW 8078   0.378   7.052  10.017  0.6321 -0.3887  0.2806
34934SOL    HW1 8079   0.426   6.969  10.021 -0.9207 -1.3592 -0.3505
34934SOL    HW2 8080   0.298   7.031   9.969  0.1279  1.4551  0.2471
34935SOL     OW 8081  11.378   9.199   2.276  0.4045 -0.4331 -0.3061
34935SOL    HW1 8082  11.324   9.154   2.211 -0.4043  0.3021 -0.1765
34935SOL    HW2 8083  11.453   9.233   2.226  0.9217 -1.7241 -0.4322
34936SOL     OW 8084   3.146   7.690   5.967 -0.7864 -0.4922  0.2097
34936SOL    HW1 8085   3.055   7.681   5.996 -0.7726 -0.4099  0.2797
34936SOL    HW2 8086   3.156   7.622   5.900 -0.2573 -1.9813  1.7280
34937SOL     OW 8087   6.231   1.039   1.497  0.0578  0.0308  0.1755
34937SOL    HW1 8088   6.202   1.128   1.516  0.4514  0.4953 -1.2419
34937SOL    HW2 8089   6.285   1.047   1.418  0.6143 -1.3809  0.3678
34938SOL     OW 8090   9.859   0.288   9.410 -0.0977 -0.2215 -0.7637
34938SOL    HW1 8091   9.847   0.336   9.492 -1.5661 -0.5563 -0.7585
34938SOL    HW2 8092   9.894   0.203   9.437 -0.9925 -0.4950 -0.4256
34939SOL     OW 8093   0.329   7.256   4.304 -1.1317  0.2400  0.6276
34939SOL    HW1 8094   0.250   7.227   4.259 -0.2731 -0.1481 -0.6889
34939SOL    HW2 8095   0.332   7.203   4.384 -1.9579 -0.0574  0.4639
34940SOL     OW 8096   2.822   2.107   3.778  0.0597  0.3910  0.0326
34940SOL    HW1 8097   2.851   2.143   3.862  0.1693 -0.3701  0.3244
34940SOL    HW2 8098   2.817   2.183   3.720  2.2023  0.6230  0.0835
34941SOL     OW 8099   6.544  10.443  10.420  0.1695  0.3602 -0.2051
34941SOL    HW1 8100   6.635  10.435  10.392 -0.2233 -1.0855 -1.1737
34941SOL    HW2 8101   6.516  10.529  10.388  0.5134 -0.1672 -2.0509
34942SOL     OW 8102   2.760   0.515   5.862  0.4102 -0.1959 -0.2615
34942SOL    HW1 8103   2.821   0.455   5.906 -0.2765 -0.8107 -0.1077
34942SOL    HW2 8104   2.814   0.565   5.801  1.3909  0.6297  1.2144
34943SOL     OW 8105   4.917   1.162   1.149  0.1913 -0.3464  0.7565
34943SOL    HW1 8106   4.970   1.115   1.085  1.0242  3.1130 -1.3723
34943SOL    HW2 8107   4.827   1.143   1.125  0.4903 -1.1899  0.2537
34944SOL     OW 8108   5.734  11.078   3.753 -0.3585  0.4832  0.2446
34944SOL    HW1 8109   5.731  11.034   3.838  0.5011  2.5476  1.4233
34944SOL    HW2 8110   5.729  11.171   3.774 -0.1312  1.0565 -1.9764
34945SOL     OW 8111   5.689   2.159   7.188  0.1549 -0.3665 -0.1208
34945SOL    HW1 8112   5.678   2.182   7.280 -0.0808  0.3264 -0.3142
34945SOL    HW2 8113   5.679   2.064   7.185  1.3618 -0.5521  0.7394
34946SOL     OW 8114   7.554   1.975   9.000 -0.3143  0.5687 -0.0382
34946SOL    HW1 8115   7.564   2.069   8.981 -1.6535  0.4413 -1.5786
34946SOL    HW2 8116   7.568   1.932   8.916  0.9909 -0.6989  0.7948
34947SOL     OW 8117   0.558  10.553   0.923  0.0665  0.8670  0.5624
34947SOL    HW1 8118   0.646  10.515   0.921 -0.1737  0.2189  1.4895
34947SOL    HW2 8119   0.500  10.480   0.901 -0.2365  1.3262 -0.1876
34948SOL     OW 8120   5.057   1.288   2.731 -0.0222 -0.0438  0.5734
34948SOL    HW1 8121   5.076   1.380   2.716  0.1449 -0.2502 -0.5118
34948SOL    HW2 8122   4.965   1.278   2.706 -0.2316 -0.0433  1.3136
34949SOL     OW 8123   2.689   5.934   3.352 -0.1255 -0.1063 -0.1392
34949SOL    HW1 8124   2.774   5.908   3.317 -0.1915  0.8874 -1.1167
34949SOL    HW2 8125   2.647   5.851   3.377  1.0450 -0.6184  0.1940
34950SOL     OW 8126   9.584   3.141   7.868  0.4108  0.0649 -0.1101
34950SOL    HW1 8127   9.508   3.136   7.926  0.2382  0.5969 -0.2789
34950SOL    HW2 8128   9.636   3.214   7.902 -0.2399  1.1003 -1.2325
34951SOL     OW 8129   5.723   3.359   2.282  0.0404 -0.1599 -0.1155
34951SOL    HW1 8130   5.723   3.309   2.363  0.1325  0.3780  0.2243
34951SOL    HW2 8131   5.715   3.294   2.213 -2.5217 -0.5107  0.3953
34952SOL     OW 8132   4.280   8.455   2.461 -0.3378  0.1877  0.0869
34952SOL    HW1 8133   4.314   8.385   2.518 -0.9754  0.3334  0.6563
34952SOL    HW2 8134   4.296   8.423   2.372 -0.1649 -0.4539  0.3387
34953SOL     OW 8135   7.592   1.023  10.518 -0.1031 -0.6397  0.5002
34953SOL    HW1 8136   7.674   1.046  10.474 -0.6958  1.7041  0.5063
34953SOL    HW2 8137   7.532   1.001  10.446  0.7649 -3.6753  0.5282
34954SOL     OW 8138   2.754   3.661   3.018 -0.1657  0.1381  0.3375
34954SOL    HW1 8139   2.836   3.692   3.057 -1.1480  1.2999  1.5738
34954SOL    HW2 8140   2.775   3.575   2.984  1.9107  0.9332 -0.5508
34955SOL     OW 8141  10.436   9.765   2.053  0.0727  0.3051 -0.0367
34955SOL    HW1 8142  10.449   9.697   1.987 -0.5172  1.4133 -1.3534
34955SOL    HW2 8143  10.439   9.719   2.136  0.0919 -1.2633 -0.8680
34956SOL     OW 8144   5.582   6.058   3.517  0.2273 -0.2054 -0.1159
34956SOL    HW1 8145   5.552   6.061   3.426 -1.2822  0.6748  0.3786
34956SOL    HW2 8146   5.677   6.050   3.510  0.0889 -0.7557 -1.7641
34957SOL     OW 8147   1.110  10.794   1.657  0.1417 -0.0767 -0.6360
34957SOL    HW1 8148   1.202  10.797   1.684  0.6524  0.8913 -2.3429
34957SOL    HW2 8149   1.062  10.778   1.739  1.8187 -0.7726  0.2692
34958SOL     OW 8150   1.523  10.035   5.600  0.0514 -0.0147 -0.0183
34958SOL    HW1 8151   1.463  10.046   5.526  2.3442 -1.3573 -2.2537
34958SOL    HW2 8152   1.573  10.117   5.603  1.6142 -0.8336 -1.6769
34959SOL     OW 8153   5.457   9.011   7.759 -0.9826 -0.1084 -0.0106
34959SOL    HW1 8154   5.498   8.979   7.678 -1.7898 -0.3244 -0.3474
34959SOL    HW2 8155   5.370   8.972   7.759 -1.5461  1.0845  0.2065
34960SOL     OW 8156   9.187   1.314   5.510  0.3013  0.4203 -0.5614
34960SOL    HW1 8157   9.190   1.386   5.574  1.3633  1.3557 -1.6105
34960SOL    HW2 8158   9.267   1.325   5.458  0.2155 -1.2226 -1.0941
34961SOL     OW 8159   3.230   4.737   3.280 -0.0707  0.2082  0.0819
34961SOL    HW1 8160   3.312   4.769   3.243 -0.2812  1.1717  0.4064
34961SOL    HW2 8161   3.178   4.710   3.204  0.8171 -1.1187 -0.0780
34962SOL     OW 8162   9.447  10.061   1.497  0.0631 -0.1890 -0.7902
34962SOL    HW1 8163   9.354  10.060   1.477  0.0677  0.6317 -0.9246
34962SOL    HW2 8164   9.472  10.153   1.486  1.1122 -0.5731 -1.7794
34963SOL     OW 8165   2.058   9.389   5.102 -0.2293 -0.3888  0.7006
34963SOL    HW1 8166   1.971   9.350   5.093 -1.5772  2.4636  0.4456
34963SOL    HW2 8167   2.100   9.375   5.017 -0.7955 -0.9689  0.5102
34964SOL     OW 8168   2.602   9.709   0.818  0.2641 -0.1655 -0.0565
34964SOL    HW1 8169   2.605   9.735   0.726  1.7086 -0.7418 -0.2095
34964SOL    HW2 8170   2.673   9.645   0.826 -1.3161 -1.8964  0.9328
34965SOL     OW 8171   7.598   6.457   9.524  0.1348  0.4054  0.4203
34965SOL    HW1 8172   7.515   6.447   9.478  0.5978 -0.5892 -0.2415
34965SOL    HW2 8173   7.589   6.538   9.574 -0.3195  1.6479 -1.5905
34966SOL     OW 8174   4.843   4.140   8.789 -0.0298 -0.1298  0.1262
34966SOL    HW1 8175   4.828   4.102   8.876 -2.1649  1.1382  0.3803
34966SOL    HW2 8176   4.759   4.134   8.745  0.3590  1.5107 -0.9304
34967SOL     OW 8177   1.307   4.147   8.557 -0.3179  0.1538 -0.3081
34967SOL    HW1 8178   1.346   4.216   8.611  0.2811 -0.3854 -0.0442
34967SOL    HW2 8179   1.381   4.102   8.517 -0.6807 -0.6625 -0.0761
34968SOL     OW 8180   9.309   4.413  10.278  0.4424  0.6239 -0.2446
34968SOL    HW1 8181   9.387   4.399  10.334 -0.5716  1.1477  1.3769
34968SOL    HW2 8182   9.238   4.370  10.326 -0.9447  3.1918  0.1519
34969SOL     OW 8183   6.872   8.042  11.358  0.0996  0.6373  0.5106
34969SOL    HW1 8184   6.815   8.079  11.291 -2.0623  0.4385  2.1337
34969SOL    HW2 8185   6.875   8.108  11.427  2.2658  0.8288  0.3086
34970SOL     OW 8186   4.438   6.354   9.682  0.4409  0.0765  0.0875
34970SOL    HW1 8187   4.361   6.300   9.667  0.9032 -0.2318 -1.2333
34970SOL    HW2 8188   4.426   6.387   9.772  1.5066 -4.4537  2.1711
34971SOL     OW 8189   4.891   4.161   0.135  0.3451 -0.0187  0.3981
34971SOL    HW1 8190   4.963   4.108   0.101  0.4294 -0.3779  1.1135
34971SOL    HW2 8191   4.911   4.250   0.105  0.8986 -0.1745  0.2841
34972SOL     OW 8192   0.893  11.207   3.075  0.0146  0.1131 -0.1077
34972SOL    HW1 8193   0.802  11.204   3.046  0.8155  0.3392 -2.9463
34972SOL    HW2 8194   0.922  11.116   3.076  0.6786  0.2355 -2.6959
34973SOL     OW 8195   7.807   1.240   5.053  0.6721  0.1763 -0.2237
34973SOL    HW1 8196   7.795   1.181   5.126 -1.0105 -2.2417 -2.2693
34973SOL    HW2 8197   7.888   1.212   5.011 -0.7282 -1.6611 -1.8901
34974SOL     OW 8198   1.008  10.300   0.970 -0.0780  0.4922 -0.1528
34974SOL    HW1 8199   1.079  10.270   1.026  0.8179  1.8979 -0.4898
34974SOL    HW2 8200   0.971  10.220   0.932  1.5843 -0.2406 -0.2918
34975SOL     OW 8201   7.346   1.119   2.866 -0.5045 -0.3414 -0.6550
34975SOL    HW1 8202   7.356   1.213   2.850 -1.0979 -0.2985 -0.7608
34975SOL    HW2 8203   7.385   1.077   2.789  1.6742 -0.2367  0.3110
34976SOL     OW 8204   1.780   2.892   0.580 -0.7960  0.6286  0.1212
34976SOL    HW1 8205   1.702   2.849   0.547 -0.7593 -1.0292  2.0167
34976SOL    HW2 8206   1.825   2.923   0.502 -2.2371 -0.3389 -1.1445
34977SOL     OW 8207   7.890   7.082   6.928 -0.4665 -0.4228 -0.5059
34977SOL    HW1 8208   7.970   7.033   6.947  1.8423  3.6591  1.8173
34977SOL    HW2 8209   7.862   7.114   7.014 -3.0404  0.5063 -1.6053
34978SOL     OW 8210   9.064   8.514   0.828 -0.0236  0.1266  0.0448
34978SOL    HW1 8211   8.970   8.515   0.849 -0.2073 -2.5530 -0.2883
34978SOL    HW2 8212   9.069   8.553   0.740 -0.4712  2.4025  0.9578
34979SOL     OW 8213   2.298   6.281   9.661 -0.8002 -0.2853  0.1964
34979SOL    HW1 8214   2.348   6.206   9.630  0.7290  0.7302  0.0704
34979SOL    HW2 8215   2.247   6.310   9.585 -0.7570 -0.6845  0.0137
34980SOL     OW 8216  10.055   8.164  10.359 -0.6701  0.3822  0.1707
34980SOL    HW1 8217  10.094   8.080  10.386 -0.0719  1.0118  1.3379
34980SOL    HW2 8218  10.126   8.228  10.370 -0.1234  0.6567 -3.6148
34981SOL     OW 8219   0.975   6.901   5.120 -0.1329 -0.6989 -0.3990
34981SOL    HW1 8220   0.997   6.907   5.027 -1.0978 -0.1613 -0.6040
34981SOL    HW2 8221   1.053   6.933   5.165 -0.5218  1.3731 -1.1106
34982SOL     OW 8222   4.325   2.548   1.460 -0.8100  0.5975 -0.0372
34982SOL    HW1 8223   4.300   2.600   1.384 -1.4893  1.2310  0.5974
34982SOL    HW2 8224   4.350   2.612   1.527 -2.3953  0.1895  1.0167
34983SOL     OW 8225   1.106   3.731   6.663  0.6748  0.0505 -0.9552
34983SOL    HW1 8226   1.143   3.642   6.660  0.6759 -0.0402  0.6634
34983SOL    HW2 8227   1.017   3.722   6.630  0.3218 -0.7731  0.1706
34984SOL     OW 8228  11.016   5.450   8.112  0.0619 -0.3557 -0.0052
34984SOL    HW1 8229  11.068   5.371   8.095 -1.9582 -1.4148 -1.8555
34984SOL    HW2 8230  10.934   5.434   8.065 -2.0424  1.1287  2.8821
34985SOL     OW 8231  10.849   8.134   0.928  0.2058  0.1136 -0.6996
34985SOL    HW1 8232  10.777   8.192   0.903  0.0690  0.4532  0.3855
34985SOL    HW2 8233  10.843   8.131   1.024  2.4932  1.3047 -0.4577
34986SOL     OW 8234   3.969  10.224   6.083  0.4633  0.6631  0.0949
34986SOL    HW1 8235   3.961  10.131   6.063 -0.8360  0.5286  1.1198
34986SOL    HW2 8236   4.027  10.258   6.015  2.8132 -1.2904  0.9901
34987SOL     OW 8237  10.128  10.045   0.070 -0.5112 -0.4910 -0.0740
34987SOL    HW1 8238  10.222  10.031   0.080 -0.2987  0.9566  0.1865
34987SOL    HW2 8239  10.097   9.966   0.025  1.4795  0.5086 -3.6157
34988SOL     OW 8240   9.351   6.274   9.073  0.3152  0.0817  0.1253
34988SOL    HW1 8241   9.271   6.223   9.060  0.4031  0.1684 -0.8190
34988SOL    HW2 8242   9.409   6.216   9.122 -0.9590  0.6591  2.4772
34989SOL     OW 8243  10.087   3.498   3.409  0.1830  0.8734  0.0458
34989SOL    HW1 8244   9.996   3.524   3.398 -1.1219 -3.2477 -0.5575
34989SOL    HW2 8245  10.113   3.535   3.493 -2.8456  0.3975  1.3155
34990SOL     OW 8246   8.408   5.281   3.728 -0.0379 -0.0798 -0.1697
34990SOL    HW1 8247   8.469   5.212   3.702 -0.5870 -1.5407  2.0927
34990SOL    HW2 8248   8.423   5.293   3.822 -1.2106  1.6280 -0.1375
34991SOL     OW 8249   7.058   9.637   6.584 -0.0984 -0.5820 -0.8146
34991SOL    HW1 8250   7.100   9.723   6.595 -1.2735 -0.0039 -0.7676
34991SOL    HW2 8251   6.976   9.644   6.633 -0.2983 -1.6656 -0.9899
34992SOL     OW 8252   7.063   4.376   6.793  0.2464 -0.1888 -0.4810
34992SOL    HW1 8253   7.088   4.429   6.717 -0.0201  0.3676 -0.1893
34992SOL    HW2 8254   7.027   4.296   6.756 -0.9251  0.5372 -0.9771
34993SOL     OW 8255   5.752   5.996   5.870  0.4667  0.2086 -0.1690
34993SOL    HW1 8256   5.709   5.912   5.852  0.6650 -0.0117  0.3691
34993SOL    HW2 8257   5.838   5.989   5.828 -0.1451  0.8104 -1.6168
34994SOL     OW 8258   1.999   1.519   3.996 -0.3933  0.1580  0.0749
34994SOL    HW1 8259   2.044   1.566   3.926 -1.7265  0.7589 -0.4147
34994SOL    HW2 8260   1.906   1.535   3.980 -0.7828 -0.7766  1.2340
34995SOL     OW 8261   1.467   1.711   2.643 -0.0878  0.4232  0.1053
34995SOL    HW1 8262   1.387   1.658   2.637 -0.2610  0.7291 -0.4191
34995SOL    HW2 8263   1.536   1.648   2.664  0.0567 -0.3815 -2.4105
34996SOL     OW 8264   9.683   7.123   6.149  0.3562 -0.0628  0.5114
34996SOL    HW1 8265   9.743   7.050   6.128  0.5736  0.0924  0.5844
34996SOL    HW2 8266   9.597   7.091   6.123  0.6093  0.1004 -0.5627
34997SOL     OW 8267   8.236   1.551   7.236  0.0819 -0.0217 -0.7500
34997SOL    HW1 8268   8.195   1.468   7.259  0.6186 -0.1372 -0.1820
34997SOL    HW2 8269   8.328   1.539   7.258 -0.0906  1.2597  0.8228
34998SOL     OW 8270   5.765   6.453   5.909  0.4781 -0.2201  0.2504
34998SOL    HW1 8271   5.684   6.438   5.958 -0.2618 -1.5549 -1.2458
34998SOL    HW2 8272   5.759   6.544   5.880 -0.4729 -0.2722  0.2329
34999SOL     OW 8273   7.936   1.312  10.511 -0.7846 -0.2079 -0.1142
34999SOL    HW1 8274   7.902   1.317  10.600  0.4195  0.3763  0.3325
34999SOL    HW2 8275   7.981   1.227  10.506 -1.1018 -0.3704 -0.2693
35000SOL     OW 8276   7.658  10.856   2.752  0.0667 -0.2127  0.3978
35000SOL    HW1 8277   7.747  10.883   2.730  0.1670  0.5293  1.6474
35000SOL    HW2 8278   7.602  10.919   2.706  0.0620 -1.7034 -1.8388
35001SOL     OW 8279   2.485   2.081  10.752 -0.3255 -0.2229 -0.1486
35001SOL    HW1 8280   2.558   2.141  10.766 -1.0382  0.7152 -0.3352
35001SOL    HW2 8281   2.526   1.998  10.727  0.6959  0.0308  0.6205
35002SOL     OW 8282   7.372   1.632   2.401 -0.8473 -0.4555 -0.6085
35002SOL    HW1 8283   7.465   1.648   2.417 -0.8218 -0.4728 -0.7391
35002SOL    HW2 8284   7.343   1.707   2.348 -0.6687 -0.9576 -1.4350
35003SOL     OW 8285   9.759   8.555   4.481 -0.3008  0.1419  0.0939
35003SOL    HW1 8286   9.736   8.642   4.513  0.2995  0.2324  0.2902
35003SOL    HW2 8287   9.677   8.506   4.485 -0.4580  0.4495  0.7995
35004SOL     OW 8288   6.973   7.112   4.044  0.6155  0.4679  0.6669
35004SOL    HW1 8289   7.015   7.028   4.025 -0.0604  0.4232 -0.7424
35004SOL    HW2 8290   6.949   7.107   4.136  0.2364 -1.0443  0.4986
35005SOL     OW 8291   1.277   4.375   7.355  0.1435 -0.1644 -0.0572
35005SOL    HW1 8292   1.266   4.464   7.321  0.0053 -0.8253 -1.8244
35005SOL    HW2 8293   1.371   4.359   7.349  0.1065 -0.3194 -0.2318
35006SOL     OW 8294   5.303   3.935   8.743  0.6361 -0.0359  0.1465
35006SOL    HW1 8295   5.381   3.930   8.689 -0.5870  0.4564 -1.7571
35006SOL    HW2 8296   5.333   3.975   8.825  2.3336  0.2771 -0.5966
35007SOL     OW 8297   9.716   1.075   1.326  0.8594  0.1703  0.2716
35007SOL    HW1 8298   9.626   1.108   1.316  0.9715  0.4642  0.2159
35007SOL    HW2 8299   9.719   1.041   1.415  0.1803 -1.4498 -0.2875
35008SOL     OW 8300   6.323   7.648   9.905  0.2763  0.3244 -0.2339
35008SOL    HW1 8301   6.373   7.629   9.985  1.6289 -1.3200 -1.4053
35008SOL    HW2 8302   6.332   7.743   9.895 -0.6027  0.7021  1.9554
35009SOL     OW 8303   9.882   5.697   0.545 -0.3215  0.3816  0.0304
35009SOL    HW1 8304   9.932   5.733   0.618 -0.8924 -0.0659  0.6610
35009SOL    HW2 8305   9.884   5.602   0.559 -1.2588  0.3455  0.0295
35010SOL     OW 8306   2.849   7.886   2.724  0.7158  0.3034  0.5789
35010SOL    HW1 8307   2.922   7.830   2.751  0.4044 -0.0972  0.6030
35010SOL    HW2 8308   2.809   7.839   2.651 -0.0498  0.0838  1.1262
35011SOL     OW 8309   4.758   1.483   0.836 -0.2123 -0.2988 -0.4298
35011SOL    HW1 8310   4.842   1.460   0.796 -0.3258  0.4108 -1.1048
35011SOL    HW2 8311   4.781   1.530   0.916  0.0174 -1.2288  0.0702
35012SOL     OW 8312   4.331   5.162   5.143  0.4801 -0.2582  0.4254
35012SOL    HW1 8313   4.342   5.229   5.210 -0.5461  0.0692  0.2943
35012SOL    HW2 8314   4.244   5.125   5.161  1.1633 -1.7917  0.7016
35013SOL     OW 8315   0.878   3.845   8.482 -0.3448 -0.0046  0.0689
35013SOL    HW1 8316   0.794   3.892   8.483 -0.4919 -0.2820  1.0890
35013SOL    HW2 8317   0.935   3.895   8.540 -0.0297 -0.2409 -0.0325
35014SOL     OW 8318   1.315   2.349   0.490 -0.1011  0.0258  0.1662
35014SOL    HW1 8319   1.387   2.306   0.444 -0.3929  1.3381 -1.6133
35014SOL    HW2 8320   1.236   2.319   0.445 -0.5302  0.1956  0.7868
35015SOL     OW 8321   7.513   9.489   2.524 -1.0682 -0.1182 -0.5847
35015SOL    HW1 8322   7.503   9.507   2.431 -1.4504 -1.5533 -0.8541
35015SOL    HW2 8323   7.584   9.424   2.528 -1.2729 -0.3079  0.0911
35016SOL     OW 8324   9.301  10.625   7.549 -0.0164 -0.5934  0.2236
35016SOL    HW1 8325   9.286  10.673   7.467  2.0461 -0.7205 -0.2837
35016SOL    HW2 8326   9.214  10.596   7.576 -1.3042  2.7907  0.1825
35017SOL     OW 8327   4.575   0.958   0.148 -0.0949 -0.0427 -0.2371
35017SOL    HW1 8328   4.518   1.020   0.101  0.4178  1.1203  0.6467
35017SOL    HW2 8329   4.514   0.902   0.196 -0.5378  0.3944 -0.2790
35018SOL     OW 8330   2.100   1.384  10.391 -0.3824  0.5231 -0.0933
35018SOL    HW1 8331   2.108   1.366  10.298  1.6634  1.3806 -0.1527
35018SOL    HW2 8332   2.145   1.468  10.403  1.6627 -0.7251  1.9752
35019SOL     OW 8333   5.718   7.787   5.010  0.1731 -0.1365  0.5281
35019SOL    HW1 8334   5.759   7.844   5.076  0.5356  1.0999 -0.7224
35019SOL    HW2 8335   5.661   7.846   4.960  1.3984 -0.6140 -1.5136
35020SOL     OW 8336  10.991  10.259   6.356  0.2163 -0.4637  0.6731
35020SOL    HW1 8337  11.070  10.266   6.302 -0.5769  0.7251 -0.3919
35020SOL    HW2 8338  10.999  10.330   6.420  0.5020 -0.9992  1.2313
35021SOL     OW 8339   2.335   5.177   5.238  0.6157  0.1143  0.1971
35021SOL    HW1 8340   2.418   5.198   5.280  0.6420  0.0997  0.1526
35021SOL    HW2 8341   2.270   5.227   5.286  0.4253 -1.1467  1.3049
35022SOL     OW 8342   2.598   6.874   5.395 -0.0931  0.6086 -0.6659
35022SOL    HW1 8343   2.656   6.886   5.319 -0.5136  1.1673 -0.9091
35022SOL    HW2 8344   2.658   6.862   5.469  0.3272  0.5461 -1.0104
35023SOL     OW 8345   9.594   9.818   1.125 -0.1742 -0.5415 -0.2376
35023SOL    HW1 8346   9.548   9.735   1.130  1.2024 -1.4051 -1.1625
35023SOL    HW2 8347   9.687   9.795   1.130  0.3706  0.6176 -2.9253
35024SOL     OW 8348   0.103   9.697   6.012  0.2137 -0.1059  0.3486
35024SOL    HW1 8349   0.177   9.757   6.012 -0.0979  0.2848  0.3837
35024SOL    HW2 8350   0.075   9.694   6.103 -0.2942  0.3548  0.2127
35025SOL     OW 8351   5.641   1.686  10.935 -0.3056  0.4602 -0.1305
35025SOL    HW1 8352   5.622   1.740  10.858  1.3273 -1.1183 -1.7448
35025SOL    HW2 8353   5.699   1.740  10.989  1.2723  0.4354 -1.6941
35026SOL     OW 8354   3.784   8.962   9.389 -0.3560  0.1913 -0.0023
35026SOL    HW1 8355   3.740   8.939   9.471 -0.2756  2.2324  0.6432
35026SOL    HW2 8356   3.728   9.029   9.350  0.3706  0.2826 -0.9137
35027SOL     OW 8357   0.054   2.566   3.681  0.4520 -0.2350 -0.1085
35027SOL    HW1 8358   0.026   2.486   3.727 -1.8918  0.5133 -0.1212
35027SOL    HW2 8359   0.041   2.636   3.745 -0.4359  0.4958 -1.0555
35028SOL     OW 8360   7.621   8.500   7.161  0.3208 -0.0054  0.1109
35028SOL    HW1 8361   7.563   8.569   7.192  0.4805 -0.1178  0.6664
35028SOL    HW2 8362   7.601   8.492   7.068  1.8651  2.3644 -0.5255
35029SOL     OW 8363   8.045   9.749   9.571  0.4521 -0.5314 -0.1455
35029SOL    HW1 8364   8.014   9.839   9.580  4.5241  1.0535 -0.3070
35029SOL    HW2 8365   8.019   9.724   9.482 -0.0982  0.7277 -0.3584
35030SOL     OW 8366   9.826   2.502   7.521  0.0566  0.2279 -0.2646
35030SOL    HW1 8367   9.893   2.568   7.536 -0.0585  0.2391  0.1963
35030SOL    HW2 8368   9.863   2.445   7.453  1.7232 -1.4391  1.9215
35031SOL     OW 8369   5.225   7.441   2.810  0.1706  0.8678 -0.3174
35031SOL    HW1 8370   5.140   7.424   2.769  0.7189  0.0185 -1.1421
35031SOL    HW2 8371   5.265   7.355   2.818  0.4025  1.0849  1.3654
35032SOL     OW 8372   6.673   3.728   5.766 -0.1130  0.1148 -0.1948
35032SOL    HW1 8373   6.656   3.639   5.736  0.1898 -0.1809  0.4975
35032SOL    HW2 8374   6.586   3.768   5.775 -0.2901 -0.3469  0.1892
35033SOL     OW 8375   8.396   5.571   5.676 -0.1979 -0.0479 -0.4553
35033SOL    HW1 8376   8.378   5.477   5.670 -0.3047 -0.0999  0.5500
35033SOL    HW2 8377   8.326   5.612   5.626 -1.3863 -0.4063  0.8663
35034SOL     OW 8378  10.702   9.772   5.153  0.0197 -0.0906  0.4450
35034SOL    HW1 8379  10.732   9.688   5.117  0.2265  0.2823 -0.2566
35034SOL    HW2 8380  10.674   9.823   5.077  2.9188  1.7207  0.4476
35035SOL     OW 8381   2.242  11.376   8.392 -0.0517  0.7568  0.1707
35035SOL    HW1 8382   2.277  11.293   8.424 -0.3612  0.0823 -1.1544
35035SOL    HW2 8383   2.317  11.435   8.393  0.3647  0.2329  0.3881
35036SOL     OW 8384  10.807   4.463   1.009  0.0971  0.1149 -0.5296
35036SOL    HW1 8385  10.723   4.500   0.981  0.3237 -0.2998 -1.8245
35036SOL    HW2 8386  10.800   4.370   0.988  1.0653  0.1671 -1.1385
35037SOL     OW 8387   4.463   4.212   4.745 -0.0585  0.3850 -0.1968
35037SOL    HW1 8388   4.543   4.262   4.760  0.4966 -0.5998  0.2342
35037SOL    HW2 8389   4.460   4.200   4.650 -1.0710  2.5861 -0.4955
35038SOL     OW 8390   1.569   1.115   1.853 -0.2816 -0.3915  0.2808
35038SOL    HW1 8391   1.615   1.047   1.903  0.3344  0.3001  0.6812
35038SOL    HW2 8392   1.542   1.071   1.772 -0.7668 -1.3680  0.9558
35039SOL     OW 8393   8.522   1.462   1.408 -0.2848  0.7377  0.0664
35039SOL    HW1 8394   8.464   1.538   1.398  0.9583  1.5864 -0.8467
35039SOL    HW2 8395   8.481   1.394   1.356 -0.3823  1.3904 -0.7301
35040SOL     OW 8396   0.631   7.161   0.796 -0.0392 -0.1718 -0.1543
35040SOL    HW1 8397   0.629   7.125   0.707  1.2259 -0.0232 -0.2728
35040SOL    HW2 8398   0.602   7.252   0.786  1.1993  0.1981 -0.6377
35041SOL     OW 8399   0.521  10.087   1.806 -0.2929  0.4451  0.9264
35041SOL    HW1 8400   0.559  10.072   1.720 -1.3699 -2.2451  0.8052
35041SOL    HW2 8401   0.498  10.179   1.807  1.6230  1.0150 -0.8401
35042SOL     OW 8402   3.917   0.133   1.680  0.3282  0.3669 -0.4524
35042SOL    HW1 8403   3.948   0.071   1.747  0.9834  2.0292  0.8741
35042SOL    HW2 8404   3.822   0.123   1.681  0.0678  1.9434  2.5103
35043SOL     OW 8405   1.144   1.340   3.746  0.6676 -0.6856  0.1162
35043SOL    HW1 8406   1.076   1.276   3.763 -2.3773  1.9843 -1.0130
35043SOL    HW2 8407   1.117   1.418   3.795  2.5691  0.6854 -0.8609
35044SOL     OW 8408   2.975  10.680   6.146 -0.0763  0.0926 -0.5844
35044SOL    HW1 8409   2.884  10.710   6.154  0.3911  2.2852 -2.4724
35044SOL    HW2 8410   2.975  10.624   6.068  0.4432  1.4461 -1.5957
35045SOL     OW 8411   0.008   1.761   7.686  0.1681  0.2509 -0.1200
35045SOL    HW1 8412   0.035   1.767   7.778  0.2451 -0.5932 -0.0854
35045SOL    HW2 8413  -0.054   1.833   7.675 -0.9435 -0.4915  0.9722
35046SOL     OW 8414   8.576   1.581   7.216 -0.4266  0.7440  0.0682
35046SOL    HW1 8415   8.567   1.557   7.124  3.4455  0.8729 -0.5116
35046SOL    HW2 8416   8.532   1.666   7.223 -2.7856 -0.2935 -1.0076
35047SOL     OW 8417   0.828   7.286   6.945  0.5711 -0.0947 -0.0445
35047SOL    HW1 8418   0.734   7.269   6.945  0.8364 -1.7068 -0.1283
35047SOL    HW2 8419   0.841   7.349   6.874 -0.4512  0.1721 -0.0058
35048SOL     OW 8420   2.061   1.558   1.072  0.0273  0.1577  0.5099
35048SOL    HW1 8421   1.996   1.570   1.003 -0.7836  0.9667  1.3790
35048SOL    HW2 8422   2.145   1.566   1.027 -0.4575 -0.7806 -0.6119
35049SOL     OW 8423   1.855   4.426   4.429  0.3218 -0.1033  0.4753
35049SOL    HW1 8424   1.824   4.407   4.517  0.4725  2.3391  1.1304
35049SOL    HW2 8425   1.795   4.378   4.371 -0.8956 -0.3183  1.8632
35050SOL     OW 8426   2.670   4.458   8.800  0.8773  0.1222  0.3151
35050SOL    HW1 8427   2.647   4.547   8.828  1.7286  0.0489  1.3262
35050SOL    HW2 8428   2.670   4.462   8.705  0.3179  1.0556  0.3437
35051SOL     OW 8429   9.628   8.086   4.907  0.4178 -0.2948  0.8102
35051SOL    HW1 8430   9.657   8.166   4.951 -0.3020 -0.1360  1.0181
35051SOL    HW2 8431   9.708   8.036   4.891  0.9625  0.8266 -0.0467
35052SOL     OW 8432   7.271   2.063  10.602  0.3191 -0.8213  0.2036
35052SOL    HW1 8433   7.309   2.145  10.633 -0.6238 -0.2129 -0.1878
35052SOL    HW2 8434   7.184   2.061  10.642  0.2097 -1.4762 -0.0561
35053SOL     OW 8435   0.530   2.114  10.110 -0.2026 -0.4387 -0.6490
35053SOL    HW1 8436   0.547   2.146  10.021  2.1994 -1.7301 -0.7423
35053SOL    HW2 8437   0.500   2.024  10.097 -1.6302 -0.0550 -0.1807
35054SOL     OW 8438   7.312   1.231  10.353  0.0084 -0.7614 -0.0844
35054SOL    HW1 8439   7.293   1.161  10.415 -1.1325  1.3350  2.0875
35054SOL    HW2 8440   7.260   1.305  10.383  1.3004  1.1184 -2.1459
35055SOL     OW 8441   3.247   6.933   2.166  0.5447  0.5904  0.2598
35055SOL    HW1 8442   3.287   6.954   2.081 -0.3411 -1.3854 -0.7280
35055SOL    HW2 8443   3.308   6.871   2.206  0.2445  0.3516  0.3567
35056SOL     OW 8444   5.589   9.676   4.995  0.0731  0.3360  0.7204
35056SOL    HW1 8445   5.665   9.626   5.025  1.4618  1.9999  0.1287
35056SOL    HW2 8446   5.522   9.660   5.062  1.6633  0.5384  2.4391
35057SOL     OW 8447   5.843   3.616   8.263 -0.4454 -0.4442  0.6168
35057SOL    HW1 8448   5.919   3.557   8.259 -1.7747 -2.2040  0.4267
35057SOL    HW2 8449   5.879   3.701   8.237  1.0632 -1.6511 -1.6009
35058SOL     OW 8450   5.766   1.294   3.506  0.3289  0.3883 -0.0529
35058SOL    HW1 8451   5.712   1.373   3.502  0.9606  0.8565  0.5600
35058SOL    HW2 8452   5.753   1.261   3.595  0.0227 -0.2405 -0.3229
35059SOL     OW 8453   9.174   4.174   6.119  0.2131  0.8502  0.4784
35059SOL    HW1 8454   9.264   4.154   6.093  0.3576 -0.0730  1.6367
35059SOL    HW2 8455   9.130   4.197   6.036  1.3877  0.8915 -0.1544
35060SOL     OW 8456   7.099   8.897  10.139 -0.1326 -0.4861 -0.1458
35060SOL    HW1 8457   7.050   8.975  10.113  0.0692 -0.0795  0.6705
35060SOL    HW2 8458   7.033   8.830  10.154 -0.2437 -0.8470 -2.0149
35061SOL     OW 8459   7.623  11.013   1.410 -0.3889  0.0103  0.6986
35061SOL    HW1 8460   7.647  10.942   1.349  0.4558  0.2262  0.7665
35061SOL    HW2 8461   7.707  11.047   1.441 -0.8039 -0.1806  2.1008
35062SOL     OW 8462   3.064   1.430   8.780  0.2872  0.2400 -0.1756
35062SOL    HW1 8463   3.009   1.497   8.820  0.2155 -0.7981  1.5325
35062SOL    HW2 8464   3.076   1.460   8.689 -1.8262  1.2527 -0.1712
35063SOL     OW 8465   1.415   3.369   6.240 -0.4741 -0.2719  0.1604
35063SOL    HW1 8466   1.495   3.408   6.207  0.2456  0.7719  2.9423
35063SOL    HW2 8467   1.444   3.304   6.304 -1.8019 -0.0107  1.0749
35064SOL     OW 8468   5.383   7.837   5.129 -0.0785 -0.0814  0.5529
35064SOL    HW1 8469   5.437   7.881   5.063  0.7811  0.8836  1.8609
35064SOL    HW2 8470   5.293   7.854   5.102  0.2370 -0.7055 -1.0051
35065SOL     OW 8471   0.479   9.761  11.131  0.3310 -0.7130  0.6751
35065SOL    HW1 8472   0.426   9.684  11.108 -0.4647 -0.0040  0.0670
35065SOL    HW2 8473   0.569   9.734  11.114  0.0006 -1.2504 -0.3392
35066SOL     OW 8474   9.379   9.242   3.576  0.2454  0.1630 -0.4078
35066SOL    HW1 8475   9.336   9.214   3.657 -1.9178  1.4087 -1.0206
35066SOL    HW2 8476   9.414   9.162   3.537  0.2508 -0.6170  1.1524
35067SOL     OW 8477   8.582  11.263   8.109 -0.0308 -0.7633  0.0591
35067SOL    HW1 8478   8.614  11.259   8.199  0.9616 -0.6410 -0.2789
35067SOL    HW2 8479   8.631  11.194   8.063  0.2237 -0.1593 -0.6071
35068SOL     OW 8480   2.345  10.299   9.782 -0.0655  0.1005 -0.3026
35068SOL    HW1 8481   2.250  10.313   9.785 -0.0942 -0.2606  1.2935
35068SOL    HW2 8482   2.382  10.384   9.807  0.0415  0.1926 -0.7597
35069SOL     OW 8483   1.865   9.910   1.435  0.3369 -0.0125 -0.6420
35069SOL    HW1 8484   1.774   9.940   1.434  0.5612  0.7096 -0.3281
35069SOL    HW2 8485   1.916   9.988   1.413  0.9020 -0.3157 -0.4294
35070SOL     OW 8486   4.740   2.713   6.965  0.1371  0.3001 -0.2295
35070SOL    HW1 8487   4.705   2.786   7.016  2.5738  2.7188 -1.7700
35070SOL    HW2 8488   4.729   2.636   7.022 -0.6968  2.1821  2.3049
35071SOL     OW 8489   2.367   1.065   0.831  0.0810 -0.1988  0.2108
35071SOL    HW1 8490   2.460   1.084   0.842 -0.0209  0.7179 -0.4906
35071SOL    HW2 8491   2.322   1.148   0.847 -0.7946 -1.0222  2.4554
35072SOL     OW 8492   5.905   9.454   9.755 -0.3016  0.5448 -0.1017
35072SOL    HW1 8493   5.965   9.381   9.766 -1.2001 -0.6716 -2.4924
35072SOL    HW2 8494   5.828   9.430   9.806 -0.2951  0.1622 -0.2664
35073SOL     OW 8495   3.078   4.390   9.492  0.0010 -0.4638  0.2581
35073SOL    HW1 8496   3.090   4.373   9.585 -0.3763 -0.1145  0.3745
35073SOL    HW2 8497   2.984   4.381   9.477  0.0175 -0.2031 -0.0231
35074SOL     OW 8498   5.956   2.984   7.667 -0.2548  0.3839  0.2625
35074SOL    HW1 8499   5.962   2.916   7.601 -1.9246  1.8276 -1.4804
35074SOL    HW2 8500   5.920   2.939   7.744 -3.1333 -0.4425 -1.4144
35075SOL     OW 8501  10.886   2.491   3.307  0.1076 -0.0398 -0.1048
35075SOL    HW1 8502  10.862   2.522   3.219  1.2156  0.1340 -0.3614
35075SOL    HW2 8503  10.865   2.398   3.306  1.8781 -0.4665 -1.2233
35076SOL     OW 8504   6.810   9.814   4.450 -0.4536  0.3556 -0.5063
35076SOL    HW1 8505   6.849   9.774   4.372 -3.0621 -0.5802 -1.4430
35076SOL    HW2 8506   6.841   9.905   4.449  0.3620  0.0923 -2.0641
35077SOL     OW 8507   2.515   0.203   3.355  0.1613  0.0843  0.5325
35077SOL    HW1 8508   2.462   0.131   3.388 -0.9200 -0.5527 -2.2428
35077SOL    HW2 8509   2.496   0.276   3.414  0.2407 -1.5032  2.6171
35078SOL     OW 8510  10.377  10.735  10.835  0.1563 -0.1456  0.0454
35078SOL    HW1 8511  10.295  10.702  10.799  0.3620 -1.3265  0.6303
35078SOL    HW2 8512  10.430  10.753  10.757  0.4931 -2.4070 -0.3303
35079SOL     OW 8513   6.826   4.411  10.374 -0.6864  0.1057 -0.0887
35079SOL    HW1 8514   6.878   4.409  10.454  0.2968 -1.3483 -0.7008
35079SOL    HW2 8515   6.751   4.466  10.394 -0.5096 -0.3133  1.8476
35080SOL     OW 8516   5.744   2.939   0.572  0.1133  0.4416  0.3829
35080SOL    HW1 8517   5.775   3.013   0.623  1.2879 -0.0112  0.3440
35080SOL    HW2 8518   5.728   2.870   0.636  0.2697  0.3101  0.2805
35081SOL     OW 8519   2.051   7.919   9.496  0.3677  0.1432  0.1143
35081SOL    HW1 8520   2.015   7.858   9.432  0.8728 -1.4028  1.2427
35081SOL    HW2 8521   1.974   7.959   9.536  0.0368  0.5009 -0.8399
35082SOL     OW 8522   7.746   3.863   8.934 -0.1883  0.2065 -0.2413
35082SOL    HW1 8523   7.664   3.825   8.965 -1.3329 -0.0064 -3.2228
35082SOL    HW2 8524   7.729   3.957   8.929 -0.5858  0.0742 -1.6678
35083SOL     OW 8525   0.285  10.849   2.078 -0.2388 -0.3695  0.0402
35083SOL    HW1 8526   0.237  10.795   2.141 -0.4966  0.0501  0.2117
35083SOL    HW2 8527   0.219  10.912   2.046  0.1592  0.1187  0.1678
35084SOL     OW 8528   5.081   0.247   1.925 -0.5554 -0.6007 -0.5006
35084SOL    HW1 8529   5.019   0.204   1.866  0.4961  0.0295 -2.1316
35084SOL    HW2 8530   5.059   0.340   1.921 -0.8114 -0.5990  0.5479
35085SOL     OW 8531   8.977   6.198   0.512 -0.1628  0.4233 -0.5878
35085SOL    HW1 8532   8.980   6.289   0.481 -0.6355  0.8450  0.5698
35085SOL    HW2 8533   9.011   6.202   0.601  2.7202 -1.0154 -1.4960
35086SOL     OW 8534   5.610   5.317   5.078 -0.0131 -0.4494 -0.5659
35086SOL    HW1 8535   5.566   5.324   5.163 -1.5163 -0.4889 -1.3167
35086SOL    HW2 8536   5.607   5.406   5.043  0.8067 -0.3866 -0.4975
35087SOL     OW 8537   2.588   7.903   6.739 -0.1527 -0.4267  0.0423
35087SOL    HW1 8538   2.658   7.894   6.673 -0.1488 -0.5287  0.0593
35087SOL    HW2 8539   2.605   7.831   6.801 -0.8509 -1.0659 -0.4864
35088SOL     OW 8540   8.598   4.933   0.903 -0.0397  0.6073 -0.7074
35088SOL    HW1 8541   8.530   4.867   0.920  1.1279 -0.6692 -0.7801
35088SOL    HW2 8542   8.582   5.001   0.968 -0.1173 -0.6842  0.6922
35089SOL     OW 8543   9.168   2.689   7.320  0.2109  0.2022  0.3885
35089SOL    HW1 8544   9.110   2.614   7.335  1.3718 -0.8966 -0.4888
35089SOL    HW2 8545   9.239   2.677   7.383 -0.0091  1.0434  0.8160
35090SOL     OW 8546   8.000   2.029   8.381 -0.2675  0.7901  0.3845
35090SOL    HW1 8547   8.093   2.016   8.361 -0.3006 -1.0962  1.2190
35090SOL    HW2 8548   7.999   2.102   8.443  0.5455  1.4659 -0.3652
35091SOL     OW 8549   9.452   3.643   3.605 -0.1903 -0.3075  0.2948
35091SOL    HW1 8550   9.497   3.561   3.628  1.5425  0.5942  0.3446
35091SOL    HW2 8551   9.359   3.621   3.607  0.2316 -2.3232  0.0740
35092SOL     OW 8552   2.320   2.442   4.476 -0.4485 -0.1440  0.3476
35092SOL    HW1 8553   2.398   2.468   4.526 -0.7709 -0.4763  1.0461
35092SOL    HW2 8554   2.287   2.524   4.438  0.8742 -0.1669 -0.9090
35093SOL     OW 8555   6.221   8.279   1.117 -0.4278  0.0691 -0.0487
35093SOL    HW1 8556   6.143   8.294   1.065 -1.4143  0.6376  1.5211
35093SOL    HW2 8557   6.189   8.238   1.198  0.9655 -0.2461  0.3768
35094SOL     OW 8558   4.447   3.200   2.487  0.7160 -0.1852 -0.0529
35094SOL    HW1 8559   4.480   3.110   2.484  0.5822 -0.3096  1.4379
35094SOL    HW2 8560   4.352   3.190   2.497  0.7149  0.1117  0.2480
35095SOL     OW 8561   4.099   7.481   2.143 -0.1226  0.0022 -0.0003
35095SOL    HW1 8562   4.072   7.396   2.109 -1.3873 -0.4702  1.9881
35095SOL    HW2 8563   4.156   7.461   2.217  0.6792  0.9249 -0.3461
35096SOL     OW 8564  10.525   6.897   7.326  0.1523 -0.6649  0.5006
35096SOL    HW1 8565  10.453   6.956   7.348 -0.2506 -1.2010  0.6363
35096SOL    HW2 8566  10.511   6.820   7.381 -0.5675 -1.8084 -1.2090
35097SOL     OW 8567   2.341   8.837   9.822 -0.6048  0.2213 -0.0954
35097SOL    HW1 8568   2.376   8.924   9.843 -1.1943  0.6422 -0.8321
35097SOL    HW2 8569   2.275   8.853   9.755 -0.8769 -0.7774 -0.0772
35098SOL     OW 8570   9.969   3.841   9.436 -0.0717 -0.3844 -0.4293
35098SOL    HW1 8571   9.968   3.875   9.526  0.6682  0.5950 -0.7677
35098SOL    HW2 8572   9.880   3.857   9.404  0.2174  1.2278 -0.5395
35099SOL     OW 8573   6.962  10.571   9.975 -0.0907  0.0053  0.0893
35099SOL    HW1 8574   6.999  10.613   9.897 -1.2031 -0.1451 -0.5330
35099SOL    HW2 8575   7.029  10.583  10.042  1.2028 -0.4446 -1.0564
35100SOL     OW 8576   3.407   0.739   6.325  0.0897  0.0789 -0.4721
35100SOL    HW1 8577   3.494   0.700   6.315 -0.7187 -2.0169 -0.0091
35100SOL    HW2 8578   3.364   0.684   6.390 -1.0620  2.0679  0.5427
35101SOL     OW 8579   2.390   5.764   7.056  0.1917  0.2895 -0.5034
35101SOL    HW1 8580   2.481   5.737   7.042  0.5709  1.3406 -0.1362
35101SOL    HW2 8581   2.338   5.696   7.012  1.1396 -0.4318 -0.5393
35102SOL     OW 8582   7.360  10.893   6.599  0.3387  0.0617 -0.2711
35102SOL    HW1 8583   7.386  10.865   6.511  1.7325  1.3596 -0.3149
35102SOL    HW2 8584   7.385  10.820   6.655 -0.9365 -0.9544 -0.9680
35103SOL     OW 8585   0.066   0.843   7.846  0.2424 -0.6486 -0.0066
35103SOL    HW1 8586  -0.021   0.834   7.806  0.3070  1.7878 -0.9022
35103SOL    HW2 8587   0.049   0.890   7.929  0.6954  0.0644 -0.3051
35104SOL     OW 8588   6.062   0.387   6.649 -0.5041 -0.1033  0.1100
35104SOL    HW1 8589   6.112   0.410   6.728 -0.7391  0.4053  0.1089
35104SOL    HW2 8590   6.071   0.292   6.643 -1.4520 -0.3166  1.4289
35105SOL     OW 8591   3.586   1.934   8.930  0.6442 -0.3944 -0.0253
35105SOL    HW1 8592   3.609   1.868   8.995 -2.1403  0.2351  1.7532
35105SOL    HW2 8593   3.520   1.892   8.875 -0.7401  0.6636  0.7696
35106SOL     OW 8594   5.080   3.781   8.378  0.1852 -0.3830 -0.1395
35106SOL    HW1 8595   5.172   3.806   8.376  0.0982 -0.0648 -0.4560
35106SOL    HW2 8596   5.047   3.816   8.461  0.8150 -2.2789  0.9741
35107SOL     OW 8597   0.282   2.751   8.188  0.1516  0.3387  0.3023
35107SOL    HW1 8598   0.337   2.809   8.240  0.6550  0.2157 -0.0833
35107SOL    HW2 8599   0.196   2.755   8.230  0.7319 -0.3559  1.6162
35108SOL     OW 8600   2.080   2.457   6.649 -0.6574 -0.1957  0.3475
35108SOL    HW1 8601   2.065   2.390   6.716 -1.5146  0.7170  1.1038
35108SOL    HW2 8602   2.035   2.534   6.682 -1.3219  0.2278 -1.4031
35109SOL     OW 8603   6.491   2.017  11.043  0.4791  0.2404  0.2931
35109SOL    HW1 8604   6.471   2.081  10.975  0.4328  1.1964  1.1720
35109SOL    HW2 8605   6.583   1.995  11.030  0.0827 -0.7749 -1.0152
35110SOL     OW 8606   1.871   2.837   1.137 -0.1991  0.0256 -0.6046
35110SOL    HW1 8607   1.787   2.845   1.092 -0.8585  1.0534  0.7462
35110SOL    HW2 8608   1.871   2.907   1.202  1.5905 -0.1372 -0.3780
35111SOL     OW 8609   1.183   6.375   5.691 -0.5190  0.6910 -0.1302
35111SOL    HW1 8610   1.108   6.315   5.695  0.1258 -0.1531 -0.4412
35111SOL    HW2 8611   1.258   6.321   5.718 -0.0649  1.6040  0.4718
35112SOL     OW 8612   0.624   2.741   8.782 -0.1328 -0.0216  0.3406
35112SOL    HW1 8613   0.676   2.736   8.702 -0.2095  0.9315  0.2165
35112SOL    HW2 8614   0.565   2.815   8.768  0.1253  0.4148  1.4279
35113SOL     OW 8615   8.406   7.103   5.326 -0.7696 -0.1527 -0.3469
35113SOL    HW1 8616   8.433   7.192   5.348 -2.8808  0.4753 -0.0565
35113SOL    HW2 8617   8.424   7.052   5.404 -0.7967  0.3108 -0.0349
35114SOL     OW 8618   3.682   1.307   3.177 -0.7489 -0.2234  0.0874
35114SOL    HW1 8619   3.633   1.285   3.097 -1.4221  0.9687  0.1405
35114SOL    HW2 8620   3.728   1.388   3.155 -1.4933  0.5022  1.1226
35115SOL     OW 8621   8.611   3.108   9.400 -0.4726 -0.1648 -0.6144
35115SOL    HW1 8622   8.636   3.185   9.349 -1.7265 -0.1224 -1.2005
35115SOL    HW2 8623   8.646   3.034   9.351  1.3367  0.0371  0.3092
35116SOL     OW 8624   3.983   7.506   7.946 -0.1941  0.2016 -0.2042
35116SOL    HW1 8625   4.035   7.426   7.947  1.5112  1.2378 -0.3484
35116SOL    HW2 8626   3.893   7.477   7.952  0.3094 -1.7676 -1.3723
35117SOL     OW 8627   4.038   9.362  10.427  0.4012  0.8173 -0.0333
35117SOL    HW1 8628   4.014   9.433  10.367 -0.2116  0.0541 -0.7101
35117SOL    HW2 8629   4.121   9.328  10.393  0.0500  0.3796 -0.4611
35118SOL     OW 8630   4.317   1.402   5.180 -0.0407  0.4421 -0.7288
35118SOL    HW1 8631   4.381   1.360   5.122 -0.4108  1.3438 -1.8270
35118SOL    HW2 8632   4.338   1.495   5.177 -0.0817  0.5182  0.6021
35119SOL     OW 8633   3.672   4.235   6.337 -0.7027 -0.1705 -0.6493
35119SOL    HW1 8634   3.710   4.249   6.423 -1.9623  0.7311 -0.2146
35119SOL    HW2 8635   3.700   4.147   6.312 -0.2827 -0.4217  0.6616
35120SOL     OW 8636   4.241   0.650   5.887 -0.5718  0.3150 -0.0033
35120SOL    HW1 8637   4.175   0.601   5.839 -0.2284  0.3893 -0.5589
35120SOL    HW2 8638   4.199   0.734   5.907 -0.6015  0.4090 -0.4652
35121SOL     OW 8639   1.360   4.919  10.661 -0.2946  0.0632  0.1102
35121SOL    HW1 8640   1.297   4.954  10.598  0.2865 -0.1993 -0.6334
35121SOL    HW2 8641   1.333   4.828  10.675 -1.2264  0.5000  1.2966
35122SOL     OW 8642   5.178  10.316   5.642  0.4819 -0.1789 -0.5764
35122SOL    HW1 8643   5.142  10.227   5.647  2.0849 -0.7909  1.5578
35122SOL    HW2 8644   5.260  10.306   5.595  0.5016  0.2227 -0.6276
35123SOL     OW 8645   1.299   3.219   4.156 -0.2732 -0.2029 -0.7326
35123SOL    HW1 8646   1.205   3.241   4.162 -0.3210 -0.5458 -0.1090
35123SOL    HW2 8647   1.341   3.279   4.218 -0.2759 -1.0976  0.1681
35124SOL     OW 8648   6.367   9.542   6.842 -0.3442  0.5421  0.1247
35124SOL    HW1 8649   6.280   9.552   6.803  0.2728 -2.1063 -2.3062
35124SOL    HW2 8650   6.356   9.474   6.909 -0.1048 -0.1606 -0.5317
35125SOL     OW 8651   8.129   3.354   1.115  0.4245 -0.2727  0.1631
35125SOL    HW1 8652   8.096   3.443   1.106  0.8754 -0.2207 -1.1182
35125SOL    HW2 8653   8.072   3.314   1.182 -1.7291  0.0633 -1.3437
35126SOL     OW 8654   7.820   5.563   0.385  0.4345  0.0027  0.2594
35126SOL    HW1 8655   7.894   5.508   0.358 -0.6397 -1.1999 -0.3515
35126SOL    HW2 8656   7.775   5.511   0.452  0.7650  1.2263  1.4874
35127SOL     OW 8657   0.904  11.267   0.972  0.5008  0.1625  0.0847
35127SOL    HW1 8658   0.898  11.192   1.031  0.4731  0.6647  0.7407
35127SOL    HW2 8659   0.995  11.267   0.942  1.4369  1.6596  2.5709
35128SOL     OW 8660   4.389   1.459   7.866  0.4290 -0.2513  0.5864
35128SOL    HW1 8661   4.480   1.487   7.878 -0.1432  2.6178 -0.6928
35128SOL    HW2 8662   4.393   1.364   7.856  3.4433 -0.0794 -0.7088
35129SOL     OW 8663   9.492  11.382   6.626 -0.8434 -0.6967 -0.5281
35129SOL    HW1 8664   9.434  11.323   6.673 -0.3214  0.4093  1.6459
35129SOL    HW2 8665   9.557  11.408   6.691  0.0184  0.8235 -1.9225
35130SOL     OW 8666  11.296   1.271   7.951 -0.3739 -0.0797 -0.2582
35130SOL    HW1 8667  11.332   1.293   8.037  1.1912  0.4835 -1.0168
35130SOL    HW2 8668  11.223   1.332   7.938 -1.1638 -0.7154  0.9803
35131SOL     OW 8669   5.609   7.895   7.546 -0.1673  0.0905  0.4704
35131SOL    HW1 8670   5.648   7.982   7.543 -0.2011  0.0703 -0.8446
35131SOL    HW2 8671   5.594   7.872   7.455 -1.3268 -0.7699  0.8558
35132SOL     OW 8672   6.347   3.451  11.043  0.6538  0.0790  0.0048
35132SOL    HW1 8673   6.269   3.430  11.094  0.1339  0.1771 -0.7347
35132SOL    HW2 8674   6.318   3.447  10.951  1.2481  1.1549 -0.2546
35133SOL     OW 8675   9.195  10.860   5.525 -0.7989  0.1359 -0.0471
35133SOL    HW1 8676   9.161  10.860   5.615 -1.2024  0.6793 -0.1964
35133SOL    HW2 8677   9.255  10.935   5.523  2.5566 -2.2364  0.9870
35134SOL     OW 8678   3.359   6.770   7.762  0.0604  0.3897 -0.6796
35134SOL    HW1 8679   3.397   6.837   7.818  0.8379 -0.2875 -0.3798
35134SOL    HW2 8680   3.332   6.700   7.822 -2.3767  1.1422 -0.7920
35135SOL     OW 8681   9.966   8.016   2.984  0.0624  0.1478  1.0401
35135SOL    HW1 8682   9.920   8.099   2.966  0.4770  0.2147  0.2413
35135SOL    HW2 8683  10.051   8.043   3.018  0.3858  0.0679  0.3153
35136SOL     OW 8684   5.412   9.391   7.914  0.0564 -0.6019 -0.2045
35136SOL    HW1 8685   5.389   9.298   7.920  0.7247 -0.7131  1.4667
35136SOL    HW2 8686   5.360   9.433   7.982  1.0040 -0.0616  0.2196
35137SOL     OW 8687   6.903  10.208   2.647  0.0657  0.3552  0.1300
35137SOL    HW1 8688   6.922  10.252   2.731 -0.1117  2.0144 -0.6624
35137SOL    HW2 8689   6.843  10.137   2.671  0.5994  0.3211  1.5088
35138SOL     OW 8690   1.610  10.573   6.905  0.2392  0.5139  0.0564
35138SOL    HW1 8691   1.572  10.505   6.961  0.1896  2.4587  2.5834
35138SOL    HW2 8692   1.694  10.537   6.877 -0.8388 -1.5124 -0.7443
35139SOL     OW 8693   0.132   1.861   8.614 -0.4325 -0.4846  0.2846
35139SOL    HW1 8694   0.209   1.908   8.582 -1.2779  0.8742  0.1798
35139SOL    HW2 8695   0.141   1.862   8.710  0.0061 -0.9373  0.2553
35140SOL     OW 8696   4.298   5.511   3.669 -0.2735  0.4737 -0.1087
35140SOL    HW1 8697   4.358   5.575   3.708 -0.9714  0.9541  0.1925
35140SOL    HW2 8698   4.345   5.479   3.592  0.7018  0.2517  0.5571
35141SOL     OW 8699   5.335   0.423   1.006 -0.2791  0.0627 -0.5252
35141SOL    HW1 8700   5.316   0.473   1.085 -0.2576 -2.4602  1.2151
35141SOL    HW2 8701   5.366   0.488   0.943  0.0004  2.1553  1.6199
35142SOL     OW 8702   4.370   9.762   3.356 -0.2631  0.1083  0.6314
35142SOL    HW1 8703   4.419   9.840   3.329  0.7492 -0.6246  0.2657
35142SOL    HW2 8704   4.329   9.731   3.276  2.9933 -2.2434 -0.3475
35143SOL     OW 8705   8.523   0.007  11.389 -0.6215 -0.0007 -0.0116
35143SOL    HW1 8706   8.599  -0.035  11.429  0.0334  1.0330 -0.1354
35143SOL    HW2 8707   8.537   0.101  11.404 -1.5337  0.2484 -0.6399
35144SOL     OW 8708   9.924   2.448   3.287 -0.0631 -0.2591  0.2556
35144SOL    HW1 8709   9.885   2.373   3.241  2.0032 -1.4592  0.3264
35144SOL    HW2 8710   9.990   2.482   3.226  0.4547  0.1912  1.0481
35145SOL     OW 8711   8.656  11.036   7.942 -0.0027 -0.3211  0.2438
35145SOL    HW1 8712   8.648  11.029   7.847 -0.7881 -0.5573  0.3196
35145SOL    HW2 8713   8.595  10.970   7.976  0.1613 -0.1374  0.9136
35146SOL     OW 8714   7.165   6.461   6.788  0.1553 -0.1762 -0.3897
35146SOL    HW1 8715   7.142   6.480   6.879 -0.2645 -1.3727 -0.2156
35146SOL    HW2 8716   7.080   6.448   6.745  0.2300  2.5909 -1.5167
35147SOL     OW 8717   5.452   5.871   6.050  0.0260  0.3422  0.8900
35147SOL    HW1 8718   5.378   5.810   6.045  1.0749 -0.8764 -0.4598
35147SOL    HW2 8719   5.519   5.832   5.995  1.8182  1.2552  2.3197
35148SOL     OW 8720   7.875   6.709   2.021 -0.0468 -0.1345  0.4639
35148SOL    HW1 8721   7.876   6.710   2.117 -1.9153  0.2273  0.5077
35148SOL    HW2 8722   7.817   6.780   1.997 -0.3306 -0.8058 -0.9276
35149SOL     OW 8723   8.654   2.994   9.049 -0.3520  0.2935  0.3376
35149SOL    HW1 8724   8.677   2.933   9.119  0.7438  0.6390  0.2956
35149SOL    HW2 8725   8.560   2.981   9.036  0.1707 -3.0375 -1.2532
35150SOL     OW 8726   5.358   2.885   5.464  0.0243  0.3432  0.4384
35150SOL    HW1 8727   5.316   2.863   5.548  0.7643 -2.1555  0.2252
35150SOL    HW2 8728   5.425   2.818   5.452  0.3922  1.0359 -1.8512
35151SOL     OW 8729   3.840   4.048   0.636 -0.7188  0.1651 -0.2348
35151SOL    HW1 8730   3.840   4.005   0.550 -2.2940  0.6481 -0.5159
35151SOL    HW2 8731   3.748   4.049   0.662 -0.7133  3.0227 -0.0631
35152SOL     OW 8732  10.702   7.937   6.490 -0.3236 -0.2216  0.1808
35152SOL    HW1 8733  10.784   7.922   6.443 -1.0982 -1.8346 -0.7018
35152SOL    HW2 8734  10.675   7.851   6.521 -1.5629  0.3163  0.6698
35153SOL     OW 8735   4.129   6.181   8.688 -0.1011 -0.2678  0.3597
35153SOL    HW1 8736   4.128   6.116   8.618 -0.2066 -1.9357  1.8107
35153SOL    HW2 8737   4.038   6.209   8.696  0.0580  0.6178 -0.7319
35154SOL     OW 8738   1.496   0.645   6.816  0.2333 -0.2552 -0.6204
35154SOL    HW1 8739   1.521   0.706   6.747 -1.3982  0.1566 -0.8821
35154SOL    HW2 8740   1.401   0.638   6.809  0.2624 -1.9307  0.1647
35155SOL     OW 8741   6.190  11.332   2.745 -0.4560  0.0370 -0.1347
35155SOL    HW1 8742   6.178  11.261   2.682 -2.4489 -0.8539  1.1403
35155SOL    HW2 8743   6.142  11.405   2.708 -2.0809 -0.6467  0.5254
35156SOL     OW 8744   2.382   9.384   4.674 -0.2681  0.0954 -0.0374
35156SOL    HW1 8745   2.370   9.436   4.595  1.0280  0.0996 -0.2629
35156SOL    HW2 8746   2.446   9.317   4.648 -1.2612 -1.0935  0.4792
35157SOL     OW 8747   9.741   5.885   5.310  0.5007 -0.3451  0.1506
35157SOL    HW1 8748   9.758   5.837   5.229  1.4815 -1.1358  0.7864
35157SOL    HW2 8749   9.647   5.878   5.324  0.4203 -0.7660 -0.5805
35158SOL     OW 8750   0.055   6.013   8.092  0.3029 -0.4058 -0.1256
35158SOL    HW1 8751  -0.026   6.057   8.119 -0.0864 -0.1518 -1.6385
35158SOL    HW2 8752   0.122   6.081   8.099  0.1308 -0.2235 -0.2122
35159SOL     OW 8753   6.032   4.342   9.351  0.1813 -0.1646 -0.0878
35159SOL    HW1 8754   6.082   4.420   9.372 -0.3295 -0.3004  1.7512
35159SOL    HW2 8755   5.940   4.368   9.361 -0.0352 -0.7001 -0.5839
35160SOL     OW 8756   8.264   4.556   6.066  0.1475 -0.4538  0.8186
35160SOL    HW1 8757   8.354   4.562   6.035 -0.4420  1.3924 -0.7217
35160SOL    HW2 8758   8.239   4.465   6.051  1.2885 -0.6353 -0.0984
35161SOL     OW 8759  10.845   9.761   0.630 -0.2018 -0.1488  0.4746
35161SOL    HW1 8760  10.812   9.734   0.715 -0.1918 -1.7193  0.0162
35161SOL    HW2 8761  10.896   9.840   0.647 -2.1001  0.8897  1.5672
35162SOL     OW 8762   2.478   7.822   9.526  0.0905  0.5409 -0.5217
35162SOL    HW1 8763   2.479   7.759   9.455  1.5882 -1.5957  1.2386
35162SOL    HW2 8764   2.538   7.786   9.591 -2.0613  1.6976  2.3681
35163SOL     OW 8765   7.459   1.539  10.024  0.0942 -0.2616 -0.1540
35163SOL    HW1 8766   7.528   1.604  10.034 -0.5475  0.3553  0.3589
35163SOL    HW2 8767   7.494   1.460  10.066 -0.5012  0.7973  2.5501
35164SOL     OW 8768   4.779  10.740   4.945 -0.0586  0.0590  0.1522
35164SOL    HW1 8769   4.828  10.703   4.872  0.3009  0.1254  0.3579
35164SOL    HW2 8770   4.708  10.677   4.961 -0.7756  0.5640 -0.9363
35165SOL     OW 8771   2.620  10.593   4.033  0.4957  0.2608 -0.1276
35165SOL    HW1 8772   2.667  10.515   4.062 -1.6627 -0.6838  1.0638
35165SOL    HW2 8773   2.631  10.657   4.104 -0.8629 -0.3730  0.7069
35166SOL     OW 8774   5.378   4.294   5.117 -0.4449  0.4568 -0.0718
35166SOL    HW1 8775   5.408   4.204   5.130  0.2332  0.8517  1.1933
35166SOL    HW2 8776   5.282   4.288   5.123 -0.4147 -0.1898 -0.1592
35167SOL     OW 8777   9.886   2.726   3.359 -0.3084  0.0036  0.1922
35167SOL    HW1 8778   9.906   2.633   3.351 -1.7012 -0.4512  1.5697
35167SOL    HW2 8779   9.972   2.769   3.361  0.3488 -1.1905 -0.8213
35168SOL     OW 8780  11.251   7.483   7.446  0.2913 -0.0222  0.4414
35168SOL    HW1 8781  11.216   7.554   7.499 -0.9451 -0.0454 -0.3232
35168SOL    HW2 8782  11.326   7.522   7.400 -0.5143  0.8495 -0.1485
35169SOL     OW 8783   0.370   1.358   5.175  0.5198 -0.0172  0.7587
35169SOL    HW1 8784   0.456   1.327   5.148  0.2999  0.4061 -0.5111
35169SOL    HW2 8785   0.377   1.454   5.171 -0.4072  0.0320 -0.8551
35170SOL     OW 8786   4.077   4.949   2.230 -0.6696 -0.2930 -0.4031
35170SOL    HW1 8787   4.170   4.954   2.208 -0.0627 -0.0299  1.9277
35170SOL    HW2 8788   4.041   5.033   2.200 -0.5185 -0.9734 -2.6244
35171SOL     OW 8789   9.458   0.108   9.544 -0.0349  0.3120 -0.2183
35171SOL    HW1 8790   9.385   0.103   9.606  0.0542 -1.4854 -0.1995
35171SOL    HW2 8791   9.421   0.080   9.461  0.7233 -1.3035 -0.0651
35172SOL     OW 8792   1.608   2.976  10.114 -0.0298  0.2758 -0.3357
35172SOL    HW1 8793   1.637   2.890  10.083 -0.7839 -0.2517  0.4078
35172SOL    HW2 8794   1.624   2.975  10.208 -1.3094  0.4292 -0.0985
35173SOL     OW 8795   4.944   6.758   3.105 -0.2302  0.8607  0.5227
35173SOL    HW1 8796   5.019   6.816   3.116  0.9023 -0.7706  2.1536
35173SOL    HW2 8797   4.869   6.809   3.134  0.6472  1.7153  1.3555
35174SOL     OW 8798   6.571   6.167   4.259  0.8757 -0.0574  0.2744
35174SOL    HW1 8799   6.590   6.245   4.310  1.2661  1.3240 -1.8580
35174SOL    HW2 8800   6.482   6.141   4.286  0.3669  1.6825  0.3460
35175SOL     OW 8801   3.247   9.953   1.292 -0.2536  0.0705 -0.6152
35175SOL    HW1 8802   3.291   9.896   1.356  0.8265  1.0581 -0.4424
35175SOL    HW2 8803   3.319   9.986   1.237 -0.8209  1.5268 -0.5005
35176SOL     OW 8804   9.363   6.938   3.425 -0.0836  0.2067  0.3483
35176SOL    HW1 8805   9.282   6.985   3.444 -0.4464  0.1479 -0.9232
35176SOL    HW2 8806   9.400   6.917   3.510 -2.2158 -1.1729  1.0019
35177SOL     OW 8807   8.770   6.485   6.214  0.3763 -0.3234  0.2064
35177SOL    HW1 8808   8.743   6.416   6.154 -0.5859  1.0257 -0.9740
35177SOL    HW2 8809   8.862   6.501   6.192  0.3418 -0.6069 -0.1484
35178SOL     OW 8810   5.494   0.266   9.095  0.4193  0.2048 -0.2405
35178SOL    HW1 8811   5.515   0.178   9.064 -1.1845 -1.0822  2.0952
35178SOL    HW2 8812   5.562   0.286   9.160  2.1917  1.8085 -2.3693
35179SOL     OW 8813   2.953   2.143  10.291  0.3465  0.1649  0.1883
35179SOL    HW1 8814   3.020   2.118  10.354  0.9077  0.5540 -0.2453
35179SOL    HW2 8815   2.871   2.118  10.333  0.6995  0.5147  1.1168
35180SOL     OW 8816   8.858   5.795   4.095 -0.0633  0.1798  0.1915
35180SOL    HW1 8817   8.822   5.711   4.067  0.6573 -0.3119  0.6947
35180SOL    HW2 8818   8.782   5.852   4.103 -0.5771 -0.4596 -0.0354
35181SOL     OW 8819   2.222   8.753   1.389  0.1099  0.5223  0.3118
35181SOL    HW1 8820   2.240   8.742   1.482  0.6220  2.3911  0.4781
35181SOL    HW2 8821   2.173   8.675   1.365  2.5905 -1.5325  1.4115
35182SOL     OW 8822   8.152   5.144   0.426 -0.0370 -0.5726 -0.0811
35182SOL    HW1 8823   8.182   5.058   0.453 -1.2125 -1.0089 -0.0985
35182SOL    HW2 8824   8.061   5.131   0.398 -0.1604  0.6197 -0.3255
35183SOL     OW 8825   3.012   9.698   2.216 -0.0005  0.3079 -0.1650
35183SOL    HW1 8826   3.061   9.616   2.215  0.5027  0.6026 -0.0647
35183SOL    HW2 8827   2.925   9.675   2.183 -0.1219 -0.4205  0.6486
35184SOL     OW 8828   6.939   7.963   6.232  0.0972  0.7912  0.0927
35184SOL    HW1 8829   6.923   8.053   6.262 -0.7903  0.3180  1.1476
35184SOL    HW2 8830   6.930   7.910   6.312  0.0849 -0.2798 -0.6043
35185SOL     OW 8831   8.117  11.319   8.693 -0.0604  0.5459 -0.1948
35185SOL    HW1 8832   8.147  11.268   8.768  0.0158  0.4531 -0.2867
35185SOL    HW2 8833   8.037  11.274   8.664 -0.4741  0.9768  0.2457
35186SOL     OW 8834   3.474   9.461   1.191 -0.1393  0.3455  0.1313
35186SOL    HW1 8835   3.398   9.513   1.164  0.2255  0.7711 -0.0828
35186SOL    HW2 8836   3.494   9.407   1.114  0.8640  1.5165 -0.4605
35187SOL     OW 8837   8.749   6.984  10.810  0.2984  0.0974  0.0522
35187SOL    HW1 8838   8.793   6.899  10.798  1.3292  0.5305  0.6473
35187SOL    HW2 8839   8.765   7.006  10.902 -0.8595  0.4563  0.1805
35188SOL     OW 8840   2.449   2.798   1.159  0.3855 -0.1359 -0.5057
35188SOL    HW1 8841   2.533   2.755   1.142 -0.2381 -0.9914 -1.6269
35188SOL    HW2 8842   2.384   2.737   1.123 -0.6117  1.2287 -1.0869
35189SOL     OW 8843   4.620   8.285   0.623  0.4006 -0.3685  0.4412
35189SOL    HW1 8844   4.526   8.294   0.611  0.6685  2.3191 -0.2393
35189SOL    HW2 8845   4.655   8.272   0.535  0.7818 -0.0064  0.5378
35190SOL     OW 8846   4.310   0.884   7.568  0.0974  0.4452 -0.0744
35190SOL    HW1 8847   4.363   0.835   7.631  2.5270  0.0063 -2.2557
35190SOL    HW2 8848   4.291   0.967   7.611  2.6495  0.6383  0.8446
35191SOL     OW 8849   1.039   0.613   7.377 -0.1512  0.2697 -0.3872
35191SOL    HW1 8850   1.063   0.687   7.432 -1.4099 -0.7314  1.6211
35191SOL    HW2 8851   1.037   0.649   7.288 -0.8015  2.6727  0.5155
35192SOL     OW 8852   4.894   5.630   7.581  0.5386  0.2224 -0.4743
35192SOL    HW1 8853   4.902   5.553   7.638 -1.7547  0.5348  0.3425
35192SOL    HW2 8854   4.903   5.594   7.492  3.0699 -0.4184 -0.0321
35193SOL     OW 8855   5.570   0.467   0.253 -0.3112  0.2705 -0.2842
35193SOL    HW1 8856   5.565   0.431   0.165 -1.2183  4.6284 -2.2847
35193SOL    HW2 8857   5.663   0.464   0.275 -0.1670 -1.5980 -0.9586
35194SOL     OW 8858  11.257   0.330   4.048  0.3981 -0.1070 -0.4713
35194SOL    HW1 8859  11.192   0.262   4.065 -1.8877  1.6605 -1.7071
35194SOL    HW2 8860  11.269   0.373   4.133 -0.1285 -0.3611 -0.2604
35195SOL     OW 8861  10.253  10.663  10.416  0.0696  0.1640  0.1349
35195SOL    HW1 8862  10.344  10.687  10.396  0.0457  0.9435  0.8818
35195SOL    HW2 8863  10.204  10.744  10.401 -0.8766 -0.7853 -2.3763
35196SOL     OW 8864   8.908   6.864   3.690  0.3563  0.0909  0.4343
35196SOL    HW1 8865   8.842   6.920   3.650  0.1648  0.4477  1.2309
35196SOL    HW2 8866   8.866   6.829   3.769  0.1272 -1.9562 -0.5187
35197SOL     OW 8867   0.185   3.839  10.687  0.3113  0.3166 -0.7879
35197SOL    HW1 8868   0.272   3.800  10.695  0.4336  0.8780  1.0640
35197SOL    HW2 8869   0.200   3.933  10.693 -0.2680  0.5240 -2.3090
35198SOL     OW 8870   2.666   0.413   0.659  0.0464  0.2129 -0.5491
35198SOL    HW1 8871   2.685   0.319   0.658 -0.5976  0.0606  0.0788
35198SOL    HW2 8872   2.570   0.417   0.665  0.0954  0.9065 -0.1538
35199SOL     OW 8873   5.083   8.926   3.859  0.0572 -0.2449  0.3919
35199SOL    HW1 8874   5.167   8.957   3.892 -0.3508  0.4532  0.8067
35199SOL    HW2 8875   5.027   8.922   3.937  0.1895 -2.4321  0.4438
35200SOL     OW 8876   2.274  10.668   8.796 -0.3132 -0.0851 -0.5641
35200SOL    HW1 8877   2.315  10.585   8.820 -0.5456 -0.2853 -0.8444
35200SOL    HW2 8878   2.209  10.644   8.730 -0.0895  0.3786 -0.9532
35201SOL     OW 8879   6.270   8.417   8.925  0.1360  0.5294 -0.1427
35201SOL    HW1 8880   6.306   8.506   8.926  1.7413 -0.0350 -1.7833
35201SOL    HW2 8881   6.274   8.391   8.833 -1.9462 -0.6330  0.0442
35202SOL     OW 8882   1.840   6.333   6.219 -0.4397 -0.2984  0.6749
35202SOL    HW1 8883   1.782   6.379   6.158  0.3629  1.0590  0.8784
35202SOL    HW2 8884   1.786   6.319   6.297 -1.0859 -0.8886  0.1354
35203SOL     OW 8885   6.462   1.526   6.776 -0.5430  0.3208 -0.2744
35203SOL    HW1 8886   6.433   1.512   6.866 -2.2914  1.2662 -0.6515
35203SOL    HW2 8887   6.483   1.620   6.771 -0.4192  0.2691 -0.8515
35204SOL     OW 8888   3.035   1.397   4.821 -0.1752 -0.0908  0.4655
35204SOL    HW1 8889   3.091   1.355   4.755 -0.6906  0.4365 -0.3296
35204SOL    HW2 8890   3.027   1.487   4.791  0.7864  0.5741  2.0644
35205SOL     OW 8891   4.718   3.189   0.662  0.2579 -0.0964 -0.5018
35205SOL    HW1 8892   4.716   3.182   0.566 -1.4650 -0.6476 -0.4462
35205SOL    HW2 8893   4.671   3.270   0.681  0.3351 -0.1432 -0.1051
35206SOL     OW 8894  10.474  10.351   3.819 -0.0779  0.1403 -0.2314
35206SOL    HW1 8895  10.529  10.425   3.795 -0.1850  0.1152 -0.5668
35206SOL    HW2 8896  10.434  10.376   3.902  0.6689  0.0320  0.1631
35207SOL     OW 8897   6.534   0.836   7.924  0.1468 -0.3588 -0.0823
35207SOL    HW1 8898   6.486   0.914   7.952  0.1282 -0.5040  0.2950
35207SOL    HW2 8899   6.619   0.842   7.968  0.0117 -0.7341  0.2306
35208SOL     OW 8900   7.539   5.725   9.887  0.2378 -0.3327  0.3279
35208SOL    HW1 8901   7.564   5.641   9.925  0.7798 -0.9048 -1.2301
35208SOL    HW2 8902   7.623   5.769   9.869 -0.0363  0.4905  0.9975
35209SOL     OW 8903   4.555   8.250   3.529 -0.1323 -0.0346 -0.2311
35209SOL    HW1 8904   4.596   8.193   3.464 -0.0831  0.2798 -0.4789
35209SOL    HW2 8905   4.461   8.242   3.511 -0.0573  1.4861 -1.5919
35210SOL     OW 8906  10.357   9.336  10.401  0.8645 -0.2347  0.4455
35210SOL    HW1 8907  10.361   9.400  10.329  0.9873 -1.3952 -0.6023
35210SOL    HW2 8908  10.446   9.304  10.410  0.6980 -0.6552  0.6177
35211SOL     OW 8909   7.334   2.161   4.439  0.1862  0.1901  0.5332
35211SOL    HW1 8910   7.417   2.210   4.445 -0.7209  1.7173  1.0826
35211SOL    HW2 8911   7.277   2.203   4.503 -1.3005 -0.2903 -0.4445
35212SOL     OW 8912   1.422  11.317   8.819  0.5576 -0.8065 -0.3084
35212SOL    HW1 8913   1.473  11.341   8.742  0.6373  1.7996  0.4559
35212SOL    HW2 8914   1.447  11.226   8.837  2.9894 -0.4372 -1.4405
35213SOL     OW 8915   3.719   3.231   3.712 -0.4091 -0.1975  0.0125
35213SOL    HW1 8916   3.625   3.243   3.725 -0.2627  0.2172  0.8085
35213SOL    HW2 8917   3.728   3.142   3.678 -1.0982 -0.1824 -0.2280
35214SOL     OW 8918   2.929   4.709   0.525  0.0082 -0.2725  0.7823
35214SOL    HW1 8919   2.902   4.787   0.477  2.2228  0.1540  0.0955
35214SOL    HW2 8920   2.975   4.655   0.460 -0.4194 -1.5862  1.5297
35215SOL     OW 8921  10.047  11.191  10.121 -0.2417  0.2675 -0.3767
35215SOL    HW1 8922  10.125  11.225  10.165 -0.3199  0.7330 -0.5963
35215SOL    HW2 8923  10.072  11.102  10.095 -0.1879 -0.0183  0.5910
35216SOL     OW 8924   8.706   0.163   9.890 -0.1027  0.5359  0.5079
35216SOL    HW1 8925   8.717   0.241   9.945 -0.9249  2.1565 -1.5220
35216SOL    HW2 8926   8.616   0.135   9.905  0.1379  0.0373  1.0975
35217SOL     OW 8927   1.414   6.857   3.261  0.2235 -0.5150  0.1032
35217SOL    HW1 8928   1.453   6.924   3.206  0.3335  0.3599  1.1962
35217SOL    HW2 8929   1.448   6.876   3.349 -0.6308 -1.3227  0.6251
35218SOL     OW 8930  10.371   5.257   4.180 -0.3497  0.7562  0.5237
35218SOL    HW1 8931  10.349   5.210   4.100  0.7845  0.2667  0.4850
35218SOL    HW2 8932  10.393   5.346   4.150  0.4070  0.4801  0.2446
35219SOL     OW 8933   6.973   0.654   0.351  0.3226  0.2845  0.3035
35219SOL    HW1 8934   7.055   0.702   0.362 -0.6426  1.7488  1.6149
35219SOL    HW2 8935   6.991   0.567   0.385  2.0149 -0.2446 -1.7472
35220SOL     OW 8936   8.180  11.219   8.360 -0.4218 -0.1209 -0.0838
35220SOL    HW1 8937   8.092  11.253   8.377  0.8840  2.3307  2.7819
35220SOL    HW2 8938   8.189  11.145   8.420 -0.8255 -1.0874 -1.1716
35221SOL     OW 8939  10.892  11.305   9.445  0.0275  0.1570 -0.2282
35221SOL    HW1 8940  10.928  11.388   9.415  0.9573 -0.9228 -2.2992
35221SOL    HW2 8941  10.936  11.288   9.528  2.9796 -0.1814 -1.7491
35222SOL     OW 8942   6.843   8.562   8.568  0.0138  0.7907  0.4416
35222SOL    HW1 8943   6.814   8.506   8.640 -1.4188  0.4976 -0.3139
35222SOL    HW2 8944   6.924   8.522   8.537 -0.2928 -0.1024  0.7692
35223SOL     OW 8945  10.634   5.184   8.041  0.0100 -0.5225  0.3019
35223SOL    HW1 8946  10.710   5.243   8.037 -0.7555  0.6679  2.1390
35223SOL    HW2 8947  10.643   5.128   7.963  0.2779  2.6165 -2.1376
35224SOL     OW 8948   2.026   2.781   1.529 -0.0489  0.5255 -0.9865
35224SOL    HW1 8949   1.951   2.795   1.587  0.2583 -2.5382  0.3520
35224SOL    HW2 8950   2.080   2.859   1.540 -2.4032  2.3066 -1.1192
35225SOL     OW 8951   0.832   8.303   6.585  0.3046 -0.0309  0.2126
35225SOL    HW1 8952   0.835   8.357   6.664 -2.3798 -0.0660  0.4374
35225SOL    HW2 8953   0.817   8.214   6.617  2.0709 -0.5440 -0.2675
35226SOL     OW 8954   0.015   6.621   6.730 -0.0802 -0.5952  0.3178
35226SOL    HW1 8955  -0.046   6.678   6.777 -0.5254 -1.2531  0.5467
35226SOL    HW2 8956  -0.041   6.559   6.683  0.3789 -0.4417 -0.4657
35227SOL     OW 8957   9.927   2.878   5.608  0.4559 -0.5921  0.3031
35227SOL    HW1 8958   9.870   2.917   5.674  0.5516  1.1086 -0.5487
35227SOL    HW2 8959  10.015   2.909   5.631  0.5023 -0.0706 -0.5253
35228SOL     OW 8960  11.299   2.416   4.186 -0.7407  0.8492  0.3747
35228SOL    HW1 8961  11.339   2.502   4.195 -0.6000  0.7879  0.3458
35228SOL    HW2 8962  11.256   2.400   4.271 -0.3695  0.7490  0.5449
35229SOL     OW 8963   0.676   1.359   8.303 -0.1492 -0.4923  0.2719
35229SOL    HW1 8964   0.587   1.344   8.269 -0.2791 -0.6778  0.6797
35229SOL    HW2 8965   0.697   1.277   8.350  0.8247 -1.0471 -1.0756
35230SOL     OW 8966   9.163   3.072   3.968  0.0482 -0.0147 -0.0722
35230SOL    HW1 8967   9.159   2.981   3.941  0.8467  0.1519 -0.7819
35230SOL    HW2 8968   9.072   3.102   3.968 -0.0358 -0.1921 -1.9835
35231SOL     OW 8969  10.912   8.628   9.651 -0.3961 -0.2043  0.0624
35231SOL    HW1 8970  10.824   8.622   9.689 -0.0311  0.6832  1.1218
35231SOL    HW2 8971  10.911   8.567   9.577 -1.3791 -1.4735  1.0662
35232SOL     OW 8972   5.378  10.248   6.621  0.3723  0.7395 -0.3311
35232SOL    HW1 8973   5.292  10.277   6.653 -0.0900  1.7120 -2.3113
35232SOL    HW2 8974   5.361  10.216   6.532  1.4706 -2.5487  0.4930
35233SOL     OW 8975   7.911   5.299   3.698 -0.0447  0.3661  0.2511
35233SOL    HW1 8976   7.819   5.276   3.688 -0.1033  0.4878  0.5285
35233SOL    HW2 8977   7.958   5.230   3.650 -0.2690  0.2059  0.2623
35234SOL     OW 8978   8.762   1.975   6.996  0.1546  0.4053 -0.2724
35234SOL    HW1 8979   8.709   1.950   6.920 -1.2603 -1.4082  1.1942
35234SOL    HW2 8980   8.704   2.030   7.048 -0.2875 -1.3682  1.2169
35235SOL     OW 8981   8.329   5.712  11.287 -0.3663 -0.6663 -0.1892
35235SOL    HW1 8982   8.283   5.652  11.228 -1.4026 -0.0793  0.0117
35235SOL    HW2 8983   8.391   5.656  11.333 -0.5339 -1.3858 -0.8091
35236SOL     OW 8984   6.269   1.898   4.954 -0.4353 -0.8199  0.1856
35236SOL    HW1 8985   6.183   1.857   4.942 -0.1787 -1.6911  1.1687
35236SOL    HW2 8986   6.264   1.940   5.040 -0.7682  1.4801 -0.8892
35237SOL     OW 8987   6.432   0.086   1.508  0.1309  0.7106  0.2439
35237SOL    HW1 8988   6.374   0.071   1.582  1.1110  0.6528  1.0291
35237SOL    HW2 8989   6.495   0.151   1.539  0.7882  0.4075 -0.3982
35238SOL     OW 8990   1.406   1.825   1.459  1.0311  0.1135  0.3421
35238SOL    HW1 8991   1.419   1.773   1.537 -1.8570  2.1656  2.4381
35238SOL    HW2 8992   1.419   1.916   1.488 -0.2423  0.9523 -1.4886
35239SOL     OW 8993  10.996   6.195  10.582  0.4420  0.6828 -0.2987
35239SOL    HW1 8994  10.943   6.131  10.536  0.7560  0.7439 -0.7562
35239SOL    HW2 8995  11.079   6.196  10.535  0.0923  2.1719 -0.9509
35240SOL     OW 8996  11.003  11.075   6.506 -0.1802 -0.2670  0.3415
35240SOL    HW1 8997  11.016  11.157   6.554  1.0836 -0.1724 -0.1104
35240SOL    HW2 8998  10.949  11.021   6.564 -1.9544  1.2544  0.1917
35241SOL     OW 8999   9.248   8.930   0.821  0.6369 -0.4107 -0.3291
35241SOL    HW1 9000   9.308   9.004   0.813 -0.2855  0.2814 -1.1658
35241SOL    HW2 9001   9.190   8.938   0.745 -0.0858 -1.4463  0.0833
35242SOL     OW 9002  10.491  10.923   5.129  0.7443  0.6113 -0.1025
35242SOL    HW1 9003  10.494  10.868   5.208 -1.3519  0.5581 -0.0233
35242SOL    HW2 9004  10.435  10.997   5.153 -1.2607 -0.2037 -1.9651
35243SOL     OW 9005   5.963  10.045   3.466  0.3738  0.3713  0.0825
35243SOL    HW1 9006   5.872  10.022   3.444 -0.1025  0.5832  1.7071
35243SOL    HW2 9007   5.995   9.970   3.516  0.4021  1.1699  1.2849
35244SOL     OW 9008   5.039   2.606   9.445 -0.0003 -0.4647  0.4728
35244SOL    HW1 9009   4.992   2.651   9.515  0.1379 -0.6146  0.6637
35244SOL    HW2 9010   5.083   2.676   9.397 -0.5158 -0.3108  0.2161
35245SOL     OW 9011   4.593   2.377   4.808 -0.4182 -0.8558 -0.4512
35245SOL    HW1 9012   4.556   2.348   4.892 -1.9880 -1.8371 -1.4430
35245SOL    HW2 9013   4.552   2.462   4.792  1.1018  0.1262  0.4806
35246SOL     OW 9014   1.541  10.861   8.269 -0.2167 -0.4855  0.2279
35246SOL    HW1 9015   1.498  10.876   8.184 -0.0107  1.0458  0.3671
35246SOL    HW2 9016   1.488  10.793   8.311 -1.7271  0.4052 -0.1609
35247SOL     OW 9017   1.738   7.424   0.897 -0.4802 -0.3478  0.0506
35247SOL    HW1 9018   1.808   7.438   0.961  0.8078  0.8666 -1.5221
35247SOL    HW2 9019   1.670   7.377   0.945  0.9325 -0.5584  1.9535
35248SOL     OW 9020   8.253   9.219   3.583  0.1287 -0.0530  0.0235
35248SOL    HW1 9021   8.239   9.289   3.646  1.5697 -0.2793  0.6128
35248SOL    HW2 9022   8.199   9.147   3.615 -1.2268  0.6716 -0.4941
35249SOL     OW 9023  10.643   5.217   5.047  0.5910 -0.1470  0.1328
35249SOL    HW1 9024  10.564   5.184   5.091  1.1935 -0.4429  1.0194
35249SOL    HW2 9025  10.618   5.223   4.955 -1.4958  2.7176  0.7291
35250SOL     OW 9026  11.067   4.687   8.113  0.0627 -0.3354  0.3699
35250SOL    HW1 9027  11.147   4.724   8.149  0.3772 -1.4448  0.8699
35250SOL    HW2 9028  11.011   4.672   8.190  0.8616 -3.0204  0.5402
35251SOL     OW 9029   6.958   5.180  11.319 -0.1331  0.4190 -0.0432
35251SOL    HW1 9030   6.972   5.168  11.225  1.6052  0.9288  0.1028
35251SOL    HW2 9031   6.865   5.164  11.333 -0.5413  0.9313 -1.9561
35252SOL     OW 9032   7.555   7.858   0.628 -0.2108 -0.0480  0.3249
35252SOL    HW1 9033   7.486   7.921   0.652 -1.6790 -1.2330 -0.6237
35252SOL    HW2 9034   7.524   7.818   0.547  2.2190  0.2420 -0.8432
35253SOL     OW 9035   8.983   3.861   1.235  0.1032  0.0376  0.0073
35253SOL    HW1 9036   8.942   3.914   1.166 -1.3878 -2.0786 -0.8052
35253SOL    HW2 9037   8.933   3.882   1.314 -0.7896 -0.4684 -0.4086
35254SOL     OW 9038   5.882   5.205  10.996 -0.0217  0.1061  0.5374
35254SOL    HW1 9039   5.892   5.162  11.081 -1.1079 -0.3389  0.4543
35254SOL    HW2 9040   5.834   5.285  11.016  1.1684  0.8348  0.5574
35255SOL     OW 9041   4.423   3.413   2.309  0.0475  0.1700 -0.6897
35255SOL    HW1 9042   4.438   3.352   2.382 -1.3199 -1.0137 -1.3606
35255SOL    HW2 9043   4.504   3.409   2.258  0.2695 -0.4699 -0.3005
35256SOL     OW 9044   0.636  11.128   6.354  0.5967 -0.0419 -0.0476
35256SOL    HW1 9045   0.707  11.172   6.306 -0.1411 -0.6485 -1.7921
35256SOL    HW2 9046   0.669  11.040   6.369  0.0363 -0.5032 -1.3744
35257SOL     OW 9047   2.907   3.857   2.110  0.0148 -0.7307 -0.0316
35257SOL    HW1 9048   2.886   3.777   2.063 -1.3544 -1.7551  2.1755
35257SOL    HW2 9049   2.825   3.907   2.110  0.0786 -0.6131  0.9527
35258SOL     OW 9050   1.582   0.742   7.076  0.2362  0.2367  0.3876
35258SOL    HW1 9051   1.612   0.655   7.102 -0.5906  0.6165  2.8585
35258SOL    HW2 9052   1.563   0.733   6.982 -0.6049 -2.4777  0.7110
35259SOL     OW 9053   6.481   3.488  11.296  0.6424  0.3234 -0.3570
35259SOL    HW1 9054   6.437   3.462  11.215  0.5839 -2.0775  0.3845
35259SOL    HW2 9055   6.425   3.453  11.365  1.8042  0.4796  0.6834
35260SOL     OW 9056   2.618   6.581   7.065  0.1920  0.2366 -0.2589
35260SOL    HW1 9057   2.609   6.636   7.143  0.0698  0.6034 -0.5345
35260SOL    HW2 9058   2.629   6.492   7.101 -0.5087  0.3111  0.1616
35261SOL     OW 9059   9.694   4.616   7.225 -0.1996 -0.5240  0.1626
35261SOL    HW1 9060   9.666   4.601   7.316 -2.0320  1.1392 -0.0615
35261SOL    HW2 9061   9.757   4.687   7.230 -0.1276 -0.5870  0.1548
35262SOL     OW 9062   0.924   2.526   9.650  0.1363  0.6227  0.7658
35262SOL    HW1 9063   0.902   2.503   9.559  1.5207  0.8626  0.3364
35262SOL    HW2 9064   0.993   2.592   9.641  0.8149  0.1150  2.0002
35263SOL     OW 9065   9.603  11.226   7.755 -0.1006 -0.0409 -0.1891
35263SOL    HW1 9066   9.521  11.178   7.765 -0.0072 -0.3291 -0.7308
35263SOL    HW2 9067   9.622  11.262   7.841 -0.0367 -1.2064  0.2957
35264SOL     OW 9068  10.298   4.054   3.658 -0.1582 -0.5816  0.4156
35264SOL    HW1 9069  10.297   3.974   3.606  0.6031  0.3803 -1.1908
35264SOL    HW2 9070  10.309   4.025   3.748  1.2702 -2.2376 -0.2380
35265SOL     OW 9071   2.565   3.177   5.560 -0.3083  0.1024 -0.3588
35265SOL    HW1 9072   2.636   3.230   5.524  0.2221 -0.0880  0.3831
35265SOL    HW2 9073   2.568   3.193   5.655  0.1553 -1.5736 -0.0607
35266SOL     OW 9074   2.070   8.382   6.061 -0.4587 -0.0596 -0.4488
35266SOL    HW1 9075   2.107   8.467   6.084 -1.6617  0.9519 -2.0132
35266SOL    HW2 9076   2.052   8.339   6.145  0.5740  1.0285  0.3547
35267SOL     OW 9077   3.577   6.183   6.624 -0.3278 -0.4912 -0.0902
35267SOL    HW1 9078   3.570   6.170   6.529 -1.3947 -1.0946  0.0603
35267SOL    HW2 9079   3.664   6.222   6.636 -0.4537  0.2637 -1.3831
35268SOL     OW 9080   7.248  11.289   7.649  0.0537 -0.2799  0.3775
35268SOL    HW1 9081   7.196  11.230   7.703  0.2441 -0.1065  0.7572
35268SOL    HW2 9082   7.313  11.325   7.709 -0.6347  1.0245  0.3926
35269SOL     OW 9083   6.816  10.295  10.455 -0.1335 -0.3799  0.2432
35269SOL    HW1 9084   6.841  10.347  10.531 -1.4096  2.1241 -0.9562
35269SOL    HW2 9085   6.740  10.244  10.485 -1.0951  1.1377  0.4998
35270SOL     OW 9086  11.030   1.067   0.902 -0.1813  0.2619  0.2907
35270SOL    HW1 9087  11.081   1.079   0.983  1.2295 -2.2919 -0.0930
35270SOL    HW2 9088  11.000   0.976   0.907  0.6992 -0.2677 -2.4189
35271SOL     OW 9089   6.361   0.632   5.000  0.2992 -0.5051 -0.0203
35271SOL    HW1 9090   6.293   0.700   4.998  1.4629  0.6656 -1.6038
35271SOL    HW2 9091   6.321   0.557   4.956  0.3539  0.5442 -1.9437
35272SOL     OW 9092   3.482  10.960   6.206 -0.5173 -0.1919  0.2592
35272SOL    HW1 9093   3.566  10.917   6.191 -0.3592  0.1173  0.2542
35272SOL    HW2 9094   3.419  10.907   6.158 -0.2366 -0.0734 -0.2450
35273SOL     OW 9095   4.048   7.772   0.490 -0.2898  0.3534 -0.0001
35273SOL    HW1 9096   4.020   7.819   0.569  1.5694  2.1397 -0.3199
35273SOL    HW2 9097   4.010   7.821   0.418  1.6802  1.4971 -0.3388
35274SOL     OW 9098   2.687   3.445  10.765 -0.5313 -0.4451  0.4449
35274SOL    HW1 9099   2.600   3.412  10.788 -0.7233  0.8699  1.8226
35274SOL    HW2 9100   2.708   3.403  10.682 -2.1242 -1.4345  0.5028
35275SOL     OW 9101   2.120   7.541  10.913  0.2072  0.0382 -0.0698
35275SOL    HW1 9102   2.097   7.460  10.959 -1.2584  0.0606 -0.7148
35275SOL    HW2 9103   2.216   7.538  10.905  0.2119 -1.4056  0.3223
35276SOL     OW 9104   1.374   7.086   1.407  0.6169  0.1557  0.5038
35276SOL    HW1 9105   1.323   7.163   1.382  0.2318 -0.2606 -0.0129
35276SOL    HW2 9106   1.328   7.012   1.368  0.3093 -0.4806  1.9920
35277SOL     OW 9107   2.016   8.371   3.037  0.3246  0.0390 -0.0980
35277SOL    HW1 9108   2.069   8.451   3.034  0.7074 -0.2175 -1.9670
35277SOL    HW2 9109   1.989   8.357   2.946 -3.6802  0.5698  0.8302
35278SOL     OW 9110   7.054  10.143   8.206 -0.5942 -0.9623 -0.1025
35278SOL    HW1 9111   6.990  10.122   8.274 -0.1082 -1.3004  0.2621
35278SOL    HW2 9112   7.018  10.219   8.161  0.3236  1.0733  2.3139
35279SOL     OW 9113  10.686   0.759   4.043  0.3970 -0.0532 -0.0856
35279SOL    HW1 9114  10.665   0.736   3.952 -1.6115 -0.2861  0.3980
35279SOL    HW2 9115  10.740   0.838   4.036  0.8126 -0.4349 -1.4904
35280SOL     OW 9116   7.101   8.508   5.018 -0.1017  0.3366 -0.3377
35280SOL    HW1 9117   7.060   8.441   4.964  1.0227 -0.8677  0.2645
35280SOL    HW2 9118   7.164   8.461   5.072  1.2495  1.9754 -0.3994
35281SOL     OW 9119   9.007  11.201   3.575  0.0418  0.3751  0.2305
35281SOL    HW1 9120   9.078  11.150   3.536  0.7454  1.3536  0.1922
35281SOL    HW2 9121   8.937  11.138   3.588  1.2674 -0.8360  1.2321
35282SOL     OW 9122   4.703   2.449   7.442 -0.2715  0.4571  0.4830
35282SOL    HW1 9123   4.665   2.528   7.402 -0.3665  0.5841  0.8234
35282SOL    HW2 9124   4.693   2.462   7.536  0.9328  0.6524  0.6005
35283SOL     OW 9125   9.324   9.639   0.763  0.2060  0.3477 -0.4106
35283SOL    HW1 9126   9.401   9.656   0.709  2.2137 -0.6142  1.9478
35283SOL    HW2 9127   9.309   9.545   0.755 -1.6260  0.6951 -1.8519
35284SOL     OW 9128   0.282   3.046   9.287  0.4384 -0.0493 -0.0457
35284SOL    HW1 9129   0.263   3.131   9.328  0.5551 -0.6829  1.4001
35284SOL    HW2 9130   0.227   2.984   9.335  0.8432 -0.8850 -0.6458
35285SOL     OW 9131   1.832   0.847   4.803 -0.4569 -0.1323  0.4889
35285SOL    HW1 9132   1.794   0.827   4.888  0.9640  0.7963  1.3929
35285SOL    HW2 9133   1.907   0.788   4.795  2.4820  2.9581  2.2443
35286SOL     OW 9134   5.214  11.239   6.916 -0.2226 -0.3740 -0.3862
35286SOL    HW1 9135   5.264  11.165   6.950 -0.6915 -1.6223 -2.2245
35286SOL    HW2 9136   5.133  11.240   6.966  1.2341  1.2768  2.1926
35287SOL     OW 9137   3.566   9.905   7.057  0.0634  0.2344  0.2262
35287SOL    HW1 9138   3.582   9.841   6.987 -0.6290  0.0972  0.1849
35287SOL    HW2 9139   3.614   9.983   7.030  0.8867 -0.2549  0.2571
35288SOL     OW 9140   7.456   5.174   4.041 -0.2039  0.0999  0.4503
35288SOL    HW1 9141   7.490   5.124   3.966 -0.7806 -0.9279  0.8514
35288SOL    HW2 9142   7.428   5.107   4.103 -1.4712  0.9289  0.7985
35289SOL     OW 9143   1.888   2.301  11.175 -0.0923  0.2138  0.0723
35289SOL    HW1 9144   1.936   2.274  11.253  1.1224 -0.8717 -1.0138
35289SOL    HW2 9145   1.860   2.220  11.134 -0.8127  0.7733 -0.5718
35290SOL     OW 9146   3.648   9.539  11.232 -0.1535 -0.0676 -0.6668
35290SOL    HW1 9147   3.705   9.468  11.261 -0.8071  0.0065  0.9278
35290SOL    HW2 9148   3.584   9.497  11.175 -0.6769 -0.8344  0.4508
35291SOL     OW 9149   1.559   1.597  10.339 -0.2675 -0.3957  0.3675
35291SOL    HW1 9150   1.518   1.669  10.291  0.4610 -0.9622 -1.1860
35291SOL    HW2 9151   1.566   1.628  10.429 -2.2945  0.4539  0.2700
35292SOL     OW 9152   9.005   5.267   2.323  0.1657  0.0537 -0.3087
35292SOL    HW1 9153   9.059   5.199   2.362  0.4507  0.7793  0.6199
35292SOL    HW2 9154   8.998   5.334   2.391 -0.6682  0.6490 -0.9476
35293SOL     OW 9155   7.133   8.071   0.135 -0.3651 -0.1440 -0.5478
35293SOL    HW1 9156   7.062   8.055   0.073  0.2824 -0.2607 -1.2704
35293SOL    HW2 9157   7.095   8.130   0.200 -1.6708 -1.6218  0.0942
35294SOL     OW 9158   8.174   6.240   9.658 -0.5757  0.4007 -0.0624
35294SOL    HW1 9159   8.177   6.267   9.750  0.5367  1.1752 -0.2935
35294SOL    HW2 9160   8.230   6.304   9.613 -1.3018  0.1872 -1.3207
35295SOL     OW 9161   2.335   5.779  11.135 -0.8388  0.5221  0.0105
35295SOL    HW1 9162   2.373   5.726  11.064 -0.7918  0.8051 -0.1798
35295SOL    HW2 9163   2.352   5.869  11.108 -0.2170  0.6272  0.7173
35296SOL     OW 9164   1.321   1.180   1.416  0.5211  0.0870 -0.3027
35296SOL    HW1 9165   1.265   1.132   1.355  2.0929 -0.3999 -1.4026
35296SOL    HW2 9166   1.328   1.268   1.379  0.3921  0.1928 -0.0837
35297SOL     OW 9167   7.218   9.294   4.432 -0.4521  0.4271  1.3574
35297SOL    HW1 9168   7.133   9.262   4.403 -0.4672  0.4979  1.3246
35297SOL    HW2 9169   7.202   9.329   4.520 -1.1300  3.2823  0.2003
35298SOL     OW 9170   6.107  11.364   7.105  0.0023  0.3933 -0.0807
35298SOL    HW1 9171   6.071  11.419   7.175 -0.1127  0.1104  0.0868
35298SOL    HW2 9172   6.140  11.286   7.151 -0.2957  0.0950 -0.3660
35299SOL     OW 9173   0.232   4.494   1.160  0.2582  0.5897 -0.2630
35299SOL    HW1 9174   0.215   4.553   1.086  0.3026 -0.5600 -1.2198
35299SOL    HW2 9175   0.171   4.421   1.146 -0.5136  0.8524  1.4561
35300SOL     OW 9176   9.843   2.208   0.763 -0.2876 -0.7005 -0.4755
35300SOL    HW1 9177   9.758   2.234   0.727  0.4937 -1.4691 -3.1425
35300SOL    HW2 9178   9.906   2.238   0.697  1.7413  1.1730  2.0822
35301SOL     OW 9179   5.928   3.475   4.222  0.3256 -0.7584  0.3811
35301SOL    HW1 9180   5.889   3.405   4.274  2.0719 -0.0728  2.7515
35301SOL    HW2 9181   5.875   3.552   4.242  0.4111 -0.6908  0.3475
35302SOL     OW 9182   9.589   4.616   3.154  0.3349  0.3628  0.3438
35302SOL    HW1 9183   9.638   4.573   3.083  0.2347 -0.2056  0.6142
35302SOL    HW2 9184   9.653   4.624   3.225 -0.0432 -0.7181  0.8325
35303SOL     OW 9185   1.387   9.332   7.318 -0.0896  0.4131 -0.2892
35303SOL    HW1 9186   1.421   9.325   7.229 -0.7284  2.0528 -0.6998
35303SOL    HW2 9187   1.391   9.425   7.338 -0.8633  0.1841  1.0408
35304SOL     OW 9188   9.248   9.058   2.235 -0.2929  0.1244  0.2988
35304SOL    HW1 9189   9.298   8.989   2.280 -0.9178 -0.3110  0.3289
35304SOL    HW2 9190   9.201   9.102   2.305 -0.7968 -0.1665  0.1452
35305SOL     OW 9191   5.562   0.088   6.953 -0.0911  0.0876  0.0116
35305SOL    HW1 9192   5.645   0.120   6.988  0.7450 -0.0103 -1.7399
35305SOL    HW2 9193   5.560  -0.005   6.975  1.6084 -0.5563 -2.1721
35306SOL     OW 9194   1.127   5.929   2.691 -0.5649  0.1913  0.2891
35306SOL    HW1 9195   1.097   5.910   2.602 -0.6506 -0.2540  0.4099
35306SOL    HW2 9196   1.222   5.920   2.686 -0.1709  3.5495 -0.5722
35307SOL     OW 9197   0.012   9.137   5.749  0.0887  0.4657 -0.2206
35307SOL    HW1 9198   0.004   9.189   5.828 -1.7796 -1.6225  1.0743
35307SOL    HW2 9199  -0.043   9.182   5.685 -0.2702  0.9071  0.3900
35308SOL     OW 9200   5.789   1.927  11.184 -0.0736  0.2050  0.1292
35308SOL    HW1 9201   5.858   1.956  11.243  0.9744  0.6002 -1.2356
35308SOL    HW2 9202   5.729   1.878  11.239  0.0639  1.8242  1.8157
35309SOL     OW 9203   9.411   4.873   3.585 -0.0958 -0.0485 -0.3514
35309SOL    HW1 9204   9.441   4.956   3.622 -0.3242 -0.3454  0.5269
35309SOL    HW2 9205   9.385   4.895   3.495 -0.2343  0.8500 -0.1034
35310SOL     OW 9206   4.379   9.149   0.931  0.8308 -0.7465  0.7001
35310SOL    HW1 9207   4.327   9.217   0.973 -1.7185 -2.3301  0.3454
35310SOL    HW2 9208   4.437   9.117   1.000 -0.1074 -0.2649  1.7402
35311SOL     OW 9209   2.257   8.150   0.805  0.1731  0.0767  0.9791
35311SOL    HW1 9210   2.163   8.167   0.798 -0.1892 -1.3089  2.0070
35311SOL    HW2 9211   2.298   8.232   0.776 -1.2451 -0.2204 -2.3718
35312SOL     OW 9212   5.887   4.646   5.277  0.1279 -0.1804 -0.0415
35312SOL    HW1 9213   5.926   4.711   5.334 -0.7946 -0.6167  1.1287
35312SOL    HW2 9214   5.961   4.609   5.228  0.5274  2.6964 -1.8131
35313SOL     OW 9215   8.778   0.658  10.105 -0.4012  0.0191 -0.0074
35313SOL    HW1 9216   8.841   0.726  10.128 -0.1768 -0.5699  1.2096
35313SOL    HW2 9217   8.808   0.626  10.020  0.6873  0.0681  0.3368
35314SOL     OW 9218   9.548   9.486   2.949  0.6090  0.1030 -0.1373
35314SOL    HW1 9219   9.492   9.471   3.025 -0.7758 -0.9116 -1.2929
35314SOL    HW2 9220   9.632   9.513   2.985  0.4889 -1.9105  1.8139
35315SOL     OW 9221   1.568   3.668  11.379  0.1003  0.0865  0.1974
35315SOL    HW1 9222   1.528   3.595  11.331  0.3391  1.0766 -1.5706
35315SOL    HW2 9223   1.527   3.746  11.342  2.5234  1.0569 -0.6199
35316SOL     OW 9224  11.064   4.779   4.402  0.1290  0.5876  0.2312
35316SOL    HW1 9225  11.083   4.780   4.496  2.1443  0.6951 -0.1395
35316SOL    HW2 9226  11.052   4.687   4.380  1.8987  0.3294  0.2172
35317SOL     OW 9227   6.000   1.643   2.697 -0.3182  0.5669 -0.1137
35317SOL    HW1 9228   5.924   1.700   2.712  1.2716  2.7577  0.0930
35317SOL    HW2 9229   5.983   1.567   2.752 -1.2646  2.0704  1.8291
35318SOL     OW 9230   2.300   2.634   3.755  0.2105  0.0712  0.0032
35318SOL    HW1 9231   2.315   2.656   3.664 -0.2357  0.5039  0.0327
35318SOL    HW2 9232   2.373   2.575   3.778 -0.7139 -1.5933 -1.1602
35319SOL     OW 9233   0.697   1.797   8.171  0.0364  0.1106  1.1923
35319SOL    HW1 9234   0.666   1.887   8.156  0.4314  0.1409  0.4891
35319SOL    HW2 9235   0.629   1.742   8.133  0.0192  0.1280  1.1979
35320SOL     OW 9236   1.837   7.460   7.200 -0.1770 -0.6132 -0.5001
35320SOL    HW1 9237   1.900   7.396   7.234  0.0683  0.1717  0.5812
35320SOL    HW2 9238   1.889   7.537   7.181 -0.7942  0.0439  0.3979
35321SOL     OW 9239   2.432   7.018   9.809  0.6513 -1.0074 -0.8812
35321SOL    HW1 9240   2.420   6.991   9.900 -0.4728 -0.2762 -0.7830
35321SOL    HW2 9241   2.525   7.038   9.802  0.6577 -0.5521  0.2654
35322SOL     OW 9242   7.879   7.111   1.114 -0.0474  0.3397 -0.1717
35322SOL    HW1 9243   7.894   7.066   1.197 -2.8975 -2.2614 -0.8951
35322SOL    HW2 9244   7.916   7.053   1.048  2.3502  2.4656 -0.8382
35323SOL     OW 9245   1.915  10.577   8.183 -0.4296 -0.3303 -0.4018
35323SOL    HW1 9246   1.991  10.606   8.132 -0.9652  0.6104 -0.6839
35323SOL    HW2 9247   1.948  10.507   8.238  0.5446 -0.2311 -0.8488
35324SOL     OW 9248   7.401   4.430   5.388 -0.1327  0.6585 -0.1661
35324SOL    HW1 9249   7.343   4.467   5.321  1.4700  2.4806 -0.6295
35324SOL    HW2 9250   7.349   4.434   5.469 -1.1525  0.8665 -0.8083
35325SOL     OW 9251   1.978   7.364   9.350  0.3984  0.2442 -0.4936
35325SOL    HW1 9252   1.892   7.401   9.369 -0.3762 -0.6270 -2.1022
35325SOL    HW2 9253   2.008   7.328   9.434 -0.6320  0.8723  0.1611
35326SOL     OW 9254  11.137   7.818   9.305  0.3079  0.6793  0.0699
35326SOL    HW1 9255  11.218   7.825   9.355  0.7918 -2.4847 -0.1073
35326SOL    HW2 9256  11.071   7.861   9.359  1.7330  1.6567  1.0796
35327SOL     OW 9257   8.972   8.583   0.047 -0.0096 -0.5830  0.1548
35327SOL    HW1 9258   8.992   8.496   0.081 -0.7932  0.1223  2.6506
35327SOL    HW2 9259   9.057   8.622   0.029  0.4608 -1.0431  1.2925
35328SOL     OW 9260   3.373  10.165   7.665 -0.1707  0.6215  0.0637
35328SOL    HW1 9261   3.317  10.222   7.612 -1.2534 -1.4286 -1.1020
35328SOL    HW2 9262   3.331  10.079   7.660  2.1870 -0.6300  0.5357
35329SOL     OW 9263   7.281   1.640   7.429  0.7261 -0.0800 -0.0646
35329SOL    HW1 9264   7.369   1.671   7.407  0.5492  1.0982  0.8305
35329SOL    HW2 9265   7.295   1.550   7.461  1.3126 -0.7457 -2.0680
35330SOL     OW 9266   2.742   0.641   8.265 -0.2708 -0.6937  0.3171
35330SOL    HW1 9267   2.833   0.644   8.295 -0.5378 -0.0714  1.0833
35330SOL    HW2 9268   2.691   0.667   8.341 -1.0095  0.3251 -0.4995
35331SOL     OW 9269   1.316   3.437   4.346  0.2750  0.0158  0.2917
35331SOL    HW1 9270   1.367   3.515   4.366  0.4216 -0.1001  0.3747
35331SOL    HW2 9271   1.258   3.425   4.421  0.5721 -0.2141  0.4846
35332SOL     OW 9272   3.855   0.318   0.775 -0.6745 -0.0203  0.3184
35332SOL    HW1 9273   3.859   0.369   0.694 -0.1083  0.0389  0.3796
35332SOL    HW2 9274   3.918   0.247   0.762  0.5109  0.8187  1.2660
35333SOL     OW 9275   0.994   4.639   2.968  0.4503  0.4427 -0.4264
35333SOL    HW1 9276   1.027   4.688   2.893 -0.4108  2.3992  0.4013
35333SOL    HW2 9277   1.052   4.664   3.040  0.4316 -0.3372 -0.1304
35334SOL     OW 9278   9.601   4.720   4.938 -0.0712 -0.1525  1.0060
35334SOL    HW1 9279   9.588   4.815   4.942  0.4825 -0.0267  0.0687
35334SOL    HW2 9280   9.573   4.689   5.024 -1.3308  0.7229  0.9439
35335SOL     OW 9281   6.161   6.587   5.236 -0.6473  0.1622  0.5350
35335SOL    HW1 9282   6.088   6.525   5.242 -1.4393  0.9764 -0.2822
35335SOL    HW2 9283   6.238   6.531   5.223 -1.4450 -0.6638 -1.0537
35336SOL     OW 9284   4.272   4.316   4.542  0.4169  0.3347 -0.4573
35336SOL    HW1 9285   4.285   4.224   4.520  0.0800 -0.2661  1.6332
35336SOL    HW2 9286   4.177   4.326   4.549  0.4700  0.7306 -0.2595
35337SOL     OW 9287  10.554   5.052   4.168  0.0606 -0.0163  0.4413
35337SOL    HW1 9288  10.501   5.086   4.240 -0.9081  0.2989 -0.4039
35337SOL    HW2 9289  10.491   5.008   4.110  1.0890 -2.2619  0.8940
35338SOL     OW 9290   5.230  10.878   3.304 -0.7313  0.2227  0.2233
35338SOL    HW1 9291   5.276  10.959   3.329  0.6860  0.0961 -1.7295
35338SOL    HW2 9292   5.238  10.875   3.209 -0.4730 -2.3649  0.2624
35339SOL     OW 9293   7.954   4.059   5.230 -0.1440 -0.4500  0.4679
35339SOL    HW1 9294   8.043   4.023   5.237  0.7191  1.5312  0.1950
35339SOL    HW2 9295   7.966   4.149   5.199 -2.2512 -0.0898  0.5335
35340SOL     OW 9296   0.937   2.044   3.639 -0.3269  0.3909  0.0431
35340SOL    HW1 9297   0.901   2.066   3.554  0.4149 -0.1323 -0.4164
35340SOL    HW2 9298   0.934   2.126   3.688 -2.3866  0.2934  0.1384
35341SOL     OW 9299   2.055  11.079   2.629 -0.6813  0.4701  0.0230
35341SOL    HW1 9300   2.109  11.033   2.564  2.1736 -0.6657  2.8963
35341SOL    HW2 9301   2.071  11.171   2.612 -0.1841  0.2124 -1.0125
35342SOL     OW 9302   7.578   4.771   5.787 -0.4170 -0.3806  0.2786
35342SOL    HW1 9303   7.484   4.781   5.772 -0.1311 -0.0298 -1.3993
35342SOL    HW2 9304   7.609   4.859   5.808 -0.1718 -0.1536 -0.9861
35343SOL     OW 9305   7.747   4.916   7.233 -0.0624  0.2082  0.4524
35343SOL    HW1 9306   7.825   4.860   7.236  0.1226  0.4373 -0.0096
35343SOL    HW2 9307   7.685   4.867   7.179 -0.3597 -0.1159  1.0709
35344SOL     OW 9308   0.965   7.956   0.557  0.0695 -0.3681 -0.1069
35344SOL    HW1 9309   1.007   8.041   0.545  3.0411 -1.6307  0.6049
35344SOL    HW2 9310   0.954   7.923   0.468  0.5895 -0.0079 -0.3141
35345SOL     OW 9311   2.222   1.787  11.353 -0.4023  0.1676 -0.1915
35345SOL    HW1 9312   2.170   1.754  11.426 -0.5409  0.3496 -0.2078
35345SOL    HW2 9313   2.244   1.708  11.303 -1.4893  0.1747 -0.7235
35346SOL     OW 9314   4.474   8.080  10.257 -0.3967 -0.4394  0.3433
35346SOL    HW1 9315   4.494   8.146  10.190  1.2736 -1.3431 -0.1166
35346SOL    HW2 9316   4.526   8.108  10.333  2.4052 -2.4615 -0.6485
35347SOL     OW 9317   4.950   0.720  11.184 -0.1516  0.3644 -0.2968
35347SOL    HW1 9318   5.046   0.722  11.192 -0.3044  1.9017  2.4246
35347SOL    HW2 9319   4.934   0.725  11.090  2.4311  0.2732 -0.8200
35348SOL     OW 9320  10.946   5.184   9.356 -0.4325 -0.1023 -0.1178
35348SOL    HW1 9321  10.959   5.161   9.264 -1.3515  1.1410 -0.5899
35348SOL    HW2 9322  11.028   5.224   9.383  0.2041 -1.3639 -0.0706
35349SOL     OW 9323   4.721   1.007   5.136  0.2437  0.1827 -0.1170
35349SOL    HW1 9324   4.745   1.064   5.063 -0.1365 -1.2137 -1.3597
35349SOL    HW2 9325   4.626   0.998   5.129  0.0697  0.8190  1.1568
35350SOL     OW 9326   9.059   4.647   9.586  0.1858  0.4057 -0.0641
35350SOL    HW1 9327   8.996   4.719   9.594  0.6067  0.6357  1.5674
35350SOL    HW2 9328   9.008   4.575   9.549 -1.1667  0.4825  1.5163
35351SOL     OW 9329  10.268   6.436   7.316 -0.1685 -0.1170 -0.1465
35351SOL    HW1 9330  10.283   6.523   7.279 -1.4229  0.4834  0.7036
35351SOL    HW2 9331  10.347   6.419   7.367  0.2451  0.3531 -0.6040
35352SOL     OW 9332   7.585   5.085   3.821  0.0126  0.2688 -0.1041
35352SOL    HW1 9333   7.671   5.057   3.852  0.0613  0.3778 -0.1414
35352SOL    HW2 9334   7.604   5.154   3.757 -0.0029 -0.9864 -1.5215
35353SOL     OW 9335  11.089   9.117  10.334  0.3869 -0.5961 -0.2889
35353SOL    HW1 9336  11.089   9.034  10.382 -0.2262 -0.3300  0.1877
35353SOL    HW2 9337  11.156   9.170  10.376  2.3780 -1.6102 -1.9970
35354SOL     OW 9338  10.441   5.502   7.645  0.3893  0.0606  0.5325
35354SOL    HW1 9339  10.450   5.521   7.552  1.0291 -0.0968  0.5523
35354SOL    HW2 9340  10.437   5.588   7.687  2.2319  0.1963  0.5326
35355SOL     OW 9341  10.350   7.978   4.655 -0.6360  0.2248 -0.2736
35355SOL    HW1 9342  10.339   7.927   4.735 -1.0984 -0.3726 -0.7043
35355SOL    HW2 9343  10.419   7.933   4.607 -0.7568  0.2411 -0.4646
35356SOL     OW 9344   3.371   8.263   6.334 -0.5095  0.2981  0.1387
35356SOL    HW1 9345   3.448   8.246   6.279 -0.9589 -1.0841 -0.0928
35356SOL    HW2 9346   3.336   8.176   6.354 -2.1888  0.9121 -0.0095
35357SOL     OW 9347   5.917   9.687   1.640 -0.1998 -0.1850 -0.1235
35357SOL    HW1 9348   6.006   9.664   1.614 -0.0116  0.1932  0.1854
35357SOL    HW2 9349   5.876   9.603   1.661  0.4094 -0.2759  0.7580
35358SOL     OW 9350   6.908  11.352  11.112  0.4495 -0.5344 -0.6071
35358SOL    HW1 9351   6.987  11.373  11.162 -0.7276  1.8494  0.4019
35358SOL    HW2 9352   6.932  11.366  11.021  1.0354  0.8392 -0.2640
35359SOL     OW 9353   9.170   5.183   7.215 -0.3830 -0.1179 -0.5377
35359SOL    HW1 9354   9.114   5.220   7.147 -0.9317 -0.6386 -0.3823
35359SOL    HW2 9355   9.129   5.100   7.238  0.7187 -0.7516 -0.7581
35360SOL     OW 9356   9.199   3.484   7.357 -0.4393  0.2434 -0.1705
35360SOL    HW1 9357   9.255   3.522   7.424 -0.7296 -1.7050  1.2722
35360SOL    HW2 9358   9.215   3.390   7.363 -1.3141 -0.0829 -2.0907
35361SOL     OW 9359   6.241   2.255   7.277 -0.0421  0.5218  0.2336
35361SOL    HW1 9360   6.176   2.303   7.329  0.3622 -0.4989  1.7480
35361SOL    HW2 9361   6.192   2.223   7.201 -1.0852  0.5666  0.8648
35362SOL     OW 9362   1.749   0.701   0.316  0.2924  0.0676  0.0830
35362SOL    HW1 9363   1.763   0.607   0.330 -2.9248 -0.1769  3.3487
35362SOL    HW2 9364   1.714   0.732   0.400 -0.3840  3.8624 -1.4069
35363SOL     OW 9365   6.479   8.799   6.100 -0.0289  1.1255  0.5822
35363SOL    HW1 9366   6.471   8.853   6.022  1.4140  0.1984 -0.2634
35363SOL    HW2 9367   6.412   8.832   6.160  1.0833  4.1566  0.3144
35364SOL     OW 9368   2.532   1.687   3.365 -0.3147 -0.1990 -0.0925
35364SOL    HW1 9369   2.588   1.615   3.394 -1.5471 -0.8628  0.7045
35364SOL    HW2 9370   2.462   1.645   3.316  0.1992  0.6885 -1.6734
35365SOL     OW 9371   2.787  10.706   2.332 -0.4389  0.0612  0.4036
35365SOL    HW1 9372   2.816  10.638   2.271 -1.6866 -0.1103 -0.0342
35365SOL    HW2 9373   2.805  10.670   2.419 -0.3744 -0.4931  0.1660
35366SOL     OW 9374   1.313   2.010   1.201 -0.2430 -0.5439  0.1814
35366SOL    HW1 9375   1.400   2.051   1.198 -0.2720 -0.5159 -1.9833
35366SOL    HW2 9376   1.329   1.925   1.242  0.9393 -0.7249 -0.5643
35367SOL     OW 9377   1.299   5.377   3.490 -0.3912  0.7919  0.3249
35367SOL    HW1 9378   1.320   5.430   3.567  1.1183  0.0175  0.4679
35367SOL    HW2 9379   1.368   5.398   3.427 -0.5096 -0.0486 -0.0910
35368SOL     OW 9380   4.928   4.003   1.909 -0.6279  0.4728  0.2128
35368SOL    HW1 9381   4.883   3.972   1.831 -0.0481 -0.2972  0.1709
35368SOL    HW2 9382   4.928   4.098   1.901  2.0425  0.4161 -2.2864
35369SOL     OW 9383   9.626   6.338   6.766  0.3917  0.2074  0.4143
35369SOL    HW1 9384   9.543   6.305   6.734  0.1207  0.9860  0.2944
35369SOL    HW2 9385   9.634   6.304   6.855 -0.5232  0.9420  0.7841
35370SOL     OW 9386   8.079   3.724   4.032  0.0433 -0.3526 -0.4202
35370SOL    HW1 9387   8.008   3.662   4.014  0.9917 -1.7309  0.4591
35370SOL    HW2 9388   8.156   3.670   4.044  0.3763  0.6816  3.3225
35371SOL     OW 9389   0.742   8.699  10.872 -0.4228  0.4120 -0.3068
35371SOL    HW1 9390   0.694   8.771  10.833  0.2841  1.6968  1.0822
35371SOL    HW2 9391   0.675   8.635  10.896 -1.0670  0.6222 -1.4814
35372SOL     OW 9392   5.881   9.395   3.763 -0.3276 -0.0810 -0.1237
35372SOL    HW1 9393   5.802   9.449   3.759 -0.0677  0.2485 -1.4783
35372SOL    HW2 9394   5.875   9.338   3.686  0.2844 -0.7255  0.2945
35373SOL     OW 9395   6.501  10.295   2.425  0.3469  0.3749  0.6601
35373SOL    HW1 9396   6.591  10.264   2.434  0.4886  0.1282 -1.1469
35373SOL    HW2 9397   6.483  10.343   2.506  2.8646  2.3301  0.1620
35374SOL     OW 9398   6.196   5.329   9.378 -0.0101  0.4519  0.4557
35374SOL    HW1 9399   6.136   5.312   9.305  2.0265 -0.6410 -1.0640
35374SOL    HW2 9400   6.237   5.413   9.356  0.7509  0.0251  0.2167
35375SOL     OW 9401   7.107   5.112   7.263  0.2251  0.2792 -0.1697
35375SOL    HW1 9402   7.203   5.118   7.261  0.2003  1.2535  0.5836
35375SOL    HW2 9403   7.084   5.064   7.184  1.3327  0.1496 -0.4288
35376SOL     OW 9404   2.555   8.062   5.437 -0.5037 -0.4793  0.0948
35376SOL    HW1 9405   2.494   8.119   5.390 -1.8146 -0.4908  1.6760
35376SOL    HW2 9406   2.625   8.120   5.467 -1.9245  0.4392  1.8637
35377SOL     OW 9407   8.148   1.393   4.207  0.1607  0.5211  0.2763
35377SOL    HW1 9408   8.088   1.342   4.153 -0.6778 -0.1904  1.8169
35377SOL    HW2 9409   8.222   1.335   4.223 -0.5550 -0.0832  1.5928
35378SOL     OW 9410   5.451   1.612   0.836  0.6361  0.2437 -0.2381
35378SOL    HW1 9411   5.518   1.640   0.774 -0.5011  0.1891 -1.5207
35378SOL    HW2 9412   5.369   1.648   0.802 -0.1396 -0.4929  0.7808
35379SOL     OW 9413   4.987   2.770   2.238 -0.6036 -0.2332  0.2449
35379SOL    HW1 9414   5.034   2.710   2.296  0.4660 -0.6664 -1.0413
35379SOL    HW2 9415   4.978   2.851   2.289 -0.1834 -0.7833  1.2089
35380SOL     OW 9416   0.961   6.354   2.283  0.3334  0.2647  0.5042
35380SOL    HW1 9417   1.052   6.382   2.279 -0.3762  2.8273  0.3782
35380SOL    HW2 9418   0.928   6.368   2.195 -0.8911  2.2438  1.2167
35381SOL     OW 9419   1.281   2.599   9.131  0.2553  0.4900 -0.0218
35381SOL    HW1 9420   1.315   2.577   9.217 -2.4254 -1.7761  0.6260
35381SOL    HW2 9421   1.235   2.683   9.144  0.7448  0.6870  0.4799
35382SOL     OW 9422   8.270   3.100   3.688 -0.1123  0.4348  0.1793
35382SOL    HW1 9423   8.217   3.137   3.618 -1.1779  1.3256  1.3960
35382SOL    HW2 9424   8.206   3.066   3.751  0.5913  2.7019  2.3299
35383SOL     OW 9425   1.618   8.392   0.511  0.0631  0.2579 -0.4579
35383SOL    HW1 9426   1.610   8.364   0.602  0.2331  2.7381  0.3941
35383SOL    HW2 9427   1.535   8.438   0.494  0.3259  0.4203 -1.3100
35384SOL     OW 9428   0.077   5.741   5.940  0.3339  0.5520 -0.5147
35384SOL    HW1 9429   0.021   5.664   5.937 -0.7826  1.2445  1.0906
35384SOL    HW2 9430   0.117   5.745   5.853 -0.0337 -1.4717 -0.8269
35385SOL     OW 9431   8.385  10.904   8.808  0.0898  0.0909 -0.2907
35385SOL    HW1 9432   8.374  10.867   8.720 -2.2562 -0.3802  0.1397
35385SOL    HW2 9433   8.333  10.847   8.865  0.7945  0.9362  1.2641
35386SOL     OW 9434   9.495   0.075   0.597 -0.0777  0.4240  0.1119
35386SOL    HW1 9435   9.537   0.113   0.674 -1.7364 -0.6122  1.6075
35386SOL    HW2 9436   9.528  -0.015   0.593 -0.0948  0.4340 -0.2929
35387SOL     OW 9437   9.000   7.973   4.693  0.1283 -0.1601 -0.2944
35387SOL    HW1 9438   8.980   7.953   4.602  0.7559  2.2690 -1.0593
35387SOL    HW2 9439   9.096   7.982   4.696  0.0063  1.3614  0.1822
35388SOL     OW 9440   9.010   3.571   0.205 -0.2264 -0.0402  0.0256
35388SOL    HW1 9441   9.000   3.497   0.144  1.3641 -0.1988 -0.0764
35388SOL    HW2 9442   9.026   3.647   0.149  2.4389 -0.3809  0.1794
35389SOL     OW 9443   1.801   7.761   1.929  0.1268 -0.4782  0.2227
35389SOL    HW1 9444   1.826   7.708   1.853  1.6367  4.1450 -2.9730
35389SOL    HW2 9445   1.707   7.774   1.919  0.4014  0.5589 -1.3360
35390SOL     OW 9446   2.574   7.039   3.971 -0.1046  0.2381 -0.2045
35390SOL    HW1 9447   2.523   7.004   4.043  1.9833 -0.6259  0.9617
35390SOL    HW2 9448   2.583   7.132   3.991 -2.1351  0.6628 -1.0652
35391SOL     OW 9449  11.224   2.288   1.561 -0.2241 -0.2707  0.0881
35391SOL    HW1 9450  11.148   2.270   1.506  0.1188  0.7769 -0.7812
35391SOL    HW2 9451  11.264   2.366   1.521  0.4140  0.1298  1.4467
35392SOL     OW 9452   3.064   4.229   2.997 -0.1140 -0.3468 -0.8926
35392SOL    HW1 9453   3.134   4.189   2.946 -0.2922 -1.9338  0.0518
35392SOL    HW2 9454   3.029   4.158   3.050 -0.2980  1.0944  1.0444
35393SOL     OW 9455   8.038   8.855   4.454  0.4600  0.1577  0.0881
35393SOL    HW1 9456   8.041   8.783   4.517  2.7427  0.2557  0.1867
35393SOL    HW2 9457   8.054   8.933   4.507 -2.7731  0.9298  0.1064
35394SOL     OW 9458   0.318   4.742   5.353  0.2352  0.2467  0.3897
35394SOL    HW1 9459   0.282   4.730   5.441  1.3510 -1.7632  0.6197
35394SOL    HW2 9460   0.241   4.748   5.296 -0.6098 -3.6099  0.8923
35395SOL     OW 9461  11.301   6.362   5.133  0.4007  0.1932 -0.1710
35395SOL    HW1 9462  11.388   6.326   5.148 -0.1432 -1.4718 -0.7598
35395SOL    HW2 9463  11.316   6.452   5.103  2.2427 -1.4272 -5.0060
35396SOL     OW 9464   6.824   7.254   8.304  0.1272 -0.4225 -0.0474
35396SOL    HW1 9465   6.865   7.275   8.220  1.1149  0.9792  0.7354
35396SOL    HW2 9466   6.730   7.251   8.284  0.1715  1.6586 -0.9106
35397SOL     OW 9467   1.461   6.170   6.933 -0.4918 -0.1800 -0.2787
35397SOL    HW1 9468   1.477   6.212   6.848 -1.4359 -0.5658 -0.6673
35397SOL    HW2 9469   1.397   6.227   6.976 -1.6239 -1.0587 -0.7245
35398SOL     OW 9470  10.027   4.414   5.964 -0.3561  0.4760  0.4438
35398SOL    HW1 9471  10.071   4.381   5.885 -0.7268 -0.7996  0.7492
35398SOL    HW2 9472   9.963   4.346   5.986 -3.2610  2.6873 -0.5609
35399SOL     OW 9473   8.243   3.583   4.208  0.5149  0.1345 -0.0426
35399SOL    HW1 9474   8.327   3.582   4.162 -0.6357 -0.8599 -2.2979
35399SOL    HW2 9475   8.255   3.525   4.283  2.2232  1.1412  0.5092
35400SOL     OW 9476   1.272  11.113   1.023  0.0947  0.4057 -0.5440
35400SOL    HW1 9477   1.241  11.123   1.112 -1.9446 -0.7268 -1.0706
35400SOL    HW2 9478   1.243  11.192   0.978 -1.5617 -0.3567 -0.8779
35401SOL     OW 9479   9.254  10.087   3.100  0.4054 -0.7197  0.3454
35401SOL    HW1 9480   9.177  10.137   3.072  2.0877  0.9435 -1.5996
35401SOL    HW2 9481   9.248  10.005   3.051 -1.0823 -1.4653  1.6843
35402SOL     OW 9482   7.878   9.196   9.271  0.7099  0.2360 -0.1629
35402SOL    HW1 9483   7.840   9.156   9.350 -0.7400 -0.3414 -1.1150
35402SOL    HW2 9484   7.958   9.238   9.302  0.2150 -0.0386  1.6051
35403SOL     OW 9485   9.489  11.350   5.762 -0.2521 -0.2340  0.0084
35403SOL    HW1 9486   9.398  11.361   5.736  0.7331  0.6323 -3.5101
35403SOL    HW2 9487   9.488  11.270   5.816 -3.1285  0.1774  0.7533
35404SOL     OW 9488   0.048   3.548   8.884  0.2407  0.3108 -0.0868
35404SOL    HW1 9489   0.140   3.575   8.885  0.7046 -1.1791  0.2330
35404SOL    HW2 9490   0.027   3.531   8.976 -0.3003  0.4938 -0.1786
35405SOL     OW 9491   2.256   5.753   9.956 -0.4173 -0.2466 -0.1580
35405SOL    HW1 9492   2.174   5.775  10.000 -0.4281 -0.7352  0.0660
35405SOL    HW2 9493   2.315   5.728  10.026  0.9398  3.0338  0.0619
35406SOL     OW 9494  10.464   0.540  10.213 -0.3029  0.2653 -0.3288
35406SOL    HW1 9495  10.398   0.474  10.234 -0.9910  0.6755 -1.0986
35406SOL    HW2 9496  10.415   0.623  10.209  0.4247  0.7227 -0.0204
35407SOL     OW 9497   2.465   4.145   3.613  0.3975  0.5494 -0.0311
35407SOL    HW1 9498   2.386   4.152   3.560 -1.0063  1.8057  2.1043
35407SOL    HW2 9499   2.456   4.061   3.659 -0.1270  1.0669  0.8301
35408SOL     OW 9500   4.576   5.231   0.223 -0.1143 -0.0017 -0.2147
35408SOL    HW1 9501   4.602   5.256   0.312 -3.1272  0.9522  0.4984
35408SOL    HW2 9502   4.486   5.199   0.232 -0.7586  0.7683 -3.0279
35409SOL     OW 9503   8.607   7.936   7.579 -0.1376 -0.1639 -0.2225
35409SOL    HW1 9504   8.538   8.001   7.582 -1.1526 -1.2229  1.4370
35409SOL    HW2 9505   8.561   7.852   7.573  0.9237 -0.9229  1.3199
35410SOL     OW 9506   0.994   9.838   1.411 -0.3732  0.0790 -0.0618
35410SOL    HW1 9507   1.067   9.777   1.418 -0.4065 -0.1351 -1.3223
35410SOL    HW2 9508   0.921   9.793   1.452 -0.8361 -1.5250 -2.4245
35411SOL     OW 9509  11.032   3.822   0.338 -0.3129 -0.3095  0.2666
35411SOL    HW1 9510  11.036   3.752   0.273  0.0113  1.1196 -1.3424
35411SOL    HW2 9511  10.962   3.880   0.307  0.1740  0.6537  0.9010
35412SOL     OW 9512   5.394  10.907  10.049 -0.7833  0.1053 -0.6608
35412SOL    HW1 9513   5.364  10.846  10.117  1.8160 -1.0673 -0.4502
35412SOL    HW2 9514   5.375  10.994  10.085  0.8729 -0.4459  1.8185
35413SOL     OW 9515   0.984   5.689   1.492  0.3581  0.4868 -0.4115
35413SOL    HW1 9516   0.909   5.738   1.459  0.8442  1.9689  0.5693
35413SOL    HW2 9517   0.981   5.606   1.446 -0.9866  1.1208 -1.5276
35414SOL     OW 9518   1.940   5.859   6.084 -0.0374 -0.1829  0.0854
35414SOL    HW1 9519   2.008   5.903   6.033 -0.2361 -1.4172 -1.3185
35414SOL    HW2 9520   1.967   5.871   6.175  1.7829 -0.1791 -0.4121
35415SOL     OW 9521   3.128   1.251   5.573 -0.6541  0.2590 -0.0606
35415SOL    HW1 9522   3.058   1.216   5.629 -0.2037 -1.2570 -0.4035
35415SOL    HW2 9523   3.183   1.175   5.553  0.3727  1.1838 -0.8481
35416SOL     OW 9524   5.096   1.447   7.745  0.0520 -0.7422  0.2135
35416SOL    HW1 9525   5.047   1.420   7.823 -1.6398 -2.1420 -1.2323
35416SOL    HW2 9526   5.169   1.384   7.740 -0.5612 -1.4550  0.0083
35417SOL     OW 9527   1.184   6.800   7.341  0.2986 -0.2258 -0.6243
35417SOL    HW1 9528   1.177   6.831   7.431 -0.4172  0.3526 -0.8642
35417SOL    HW2 9529   1.179   6.880   7.288  0.0788 -0.6070 -1.1903
35418SOL     OW 9530   3.169   7.292   3.579 -0.2667 -0.0891  0.2960
35418SOL    HW1 9531   3.215   7.247   3.650 -2.1099 -0.4003  1.3457
35418SOL    HW2 9532   3.176   7.232   3.504  1.3645  0.0712  0.2752
35419SOL     OW 9533   5.608   5.992   1.094 -0.1311  0.3549  0.1027
35419SOL    HW1 9534   5.666   6.060   1.060 -0.8684  0.5134 -0.8976
35419SOL    HW2 9535   5.520   6.023   1.071 -0.5303 -0.5004  0.4410
35420SOL     OW 9536   9.073   0.703   9.675 -0.2911 -0.1111 -0.5831
35420SOL    HW1 9537   9.167   0.682   9.679 -0.2354  0.2761  2.4815
35420SOL    HW2 9538   9.038   0.642   9.610  1.3547 -3.6815  1.5269
35421SOL     OW 9539   0.411  10.648  10.333  0.0714  0.6876  0.3758
35421SOL    HW1 9540   0.375  10.674  10.248  0.0657  1.0400  0.4851
35421SOL    HW2 9541   0.392  10.722  10.391 -0.1387  0.3450  0.7460
35422SOL     OW 9542   4.234   0.100   7.749  0.6300 -0.0170  0.4316
35422SOL    HW1 9543   4.251   0.080   7.841  0.5651 -0.2787  0.3877
35422SOL    HW2 9544   4.320   0.120   7.712  0.4758  1.6999  0.9229
35423SOL     OW 9545   9.658   5.075  10.572  0.1561  0.1872 -0.4723
35423SOL    HW1 9546   9.718   5.002  10.553  0.9105  0.7016 -0.1284
35423SOL    HW2 9547   9.640   5.067  10.666  0.1716  0.3918 -0.4508
35424SOL     OW 9548   7.229   9.669   5.297  0.0292 -0.1485  0.4823
35424SOL    HW1 9549   7.291   9.723   5.248 -0.7525  1.2223  0.9340
35424SOL    HW2 9550   7.261   9.671   5.387  0.4435 -1.1392  0.3697
35425SOL     OW 9551   6.260   1.241   0.301 -0.4090  0.0322 -0.2168
35425SOL    HW1 9552   6.352   1.250   0.326 -0.1338 -0.6152 -0.9353
35425SOL    HW2 9553   6.256   1.273   0.211 -0.7697 -0.4661 -0.3880
35426SOL     OW 9554   5.393   7.375   7.613 -0.0115  0.7091 -0.1818
35426SOL    HW1 9555   5.446   7.359   7.535 -0.3983  0.6389 -0.4330
35426SOL    HW2 9556   5.432   7.319   7.681 -0.0521  0.3092 -0.4884
35427SOL     OW 9557   9.921   2.357   5.872  0.5012  0.0264  0.3533
35427SOL    HW1 9558   9.936   2.361   5.777 -1.7540  0.3396 -0.0478
35427SOL    HW2 9559   9.936   2.447   5.902  0.9101 -0.0054  0.2584
35428SOL     OW 9560   3.722   5.446   2.338 -0.3151  0.0987  0.4669
35428SOL    HW1 9561   3.796   5.398   2.376 -0.0697 -0.1184 -0.2648
35428SOL    HW2 9562   3.683   5.384   2.276 -0.3233  0.6592 -0.0950
35429SOL     OW 9563   9.909   7.041   5.426 -0.2688  0.1687  0.3852
35429SOL    HW1 9564   9.964   6.968   5.395 -1.4935  0.3159 -2.4929
35429SOL    HW2 9565   9.960   7.119   5.406 -0.9033  0.2470 -1.0458
35430SOL     OW 9566   5.704   0.788  10.325 -0.2381 -0.6091 -0.3106
35430SOL    HW1 9567   5.643   0.853  10.359  0.6362  1.3463 -2.2561
35430SOL    HW2 9568   5.740   0.746  10.404 -2.9315 -0.8224  0.9087
35431SOL     OW 9569   1.043   0.395  11.215  0.3526 -0.0046 -0.0006
35431SOL    HW1 9570   1.021   0.407  11.307 -2.5608  0.5677 -0.6729
35431SOL    HW2 9571   0.989   0.320  11.187 -0.5607  1.2102 -1.7074
35432SOL     OW 9572   7.634   3.895   4.635 -0.0815 -0.6680  0.4698
35432SOL    HW1 9573   7.539   3.911   4.629  0.0828  0.4978  0.8747
35432SOL    HW2 9574   7.668   3.967   4.687  1.2301 -0.3341 -0.7888
35433SOL     OW 9575   2.650   8.291   6.229  0.4035  0.3639 -0.0991
35433SOL    HW1 9576   2.573   8.317   6.280  0.3076 -1.6386  0.8969
35433SOL    HW2 9577   2.628   8.313   6.139 -2.1399 -1.6624 -0.0939
35434SOL     OW 9578  10.632   6.657  10.262  0.2544  0.3142  0.1526
35434SOL    HW1 9579  10.586   6.727  10.307  0.9767  0.3413  0.8818
35434SOL    HW2 9580  10.563   6.599  10.230 -0.2855  0.3905  1.1569
35435SOL     OW 9581   7.378   6.287   2.579  0.2954 -0.6175  0.2771
35435SOL    HW1 9582   7.286   6.311   2.568  0.4145  0.2767  1.0550
35435SOL    HW2 9583   7.379   6.191   2.580 -0.5231 -0.6419 -0.5081
35436SOL     OW 9584  11.140   7.823   3.113  0.3974  0.0206 -0.2185
35436SOL    HW1 9585  11.066   7.799   3.169  1.5198  1.5912  2.0691
35436SOL    HW2 9586  11.101   7.878   3.045 -0.4520  2.1223  1.8175
35437SOL     OW 9587   3.446   8.752   0.441  0.5374 -0.1474 -0.2829
35437SOL    HW1 9588   3.378   8.797   0.490 -0.1811  0.1052 -1.4673
35437SOL    HW2 9589   3.509   8.821   0.419 -0.6259  0.4001 -2.2067
35438SOL     OW 9590   4.857   4.160  10.072  0.3440  0.4055 -0.1162
35438SOL    HW1 9591   4.772   4.127  10.101  0.9896 -0.0509  1.3909
35438SOL    HW2 9592   4.900   4.189  10.153  2.3714 -1.1495 -0.5470
35439SOL     OW 9593  10.889   8.360   8.361 -0.2490 -0.3935 -0.1227
35439SOL    HW1 9594  10.816   8.382   8.418  0.9827  0.3841  1.1953
35439SOL    HW2 9595  10.947   8.308   8.416  0.3876 -0.6643 -1.0361
35440SOL     OW 9596   6.790   7.997   3.844 -0.2719  0.1449  0.1349
35440SOL    HW1 9597   6.701   7.968   3.824 -0.2623 -0.3212  0.7415
35440SOL    HW2 9598   6.781   8.050   3.923 -0.2989  1.8970 -1.0035
35441SOL     OW 9599   4.270   6.953   0.806 -0.2726  0.3524 -0.0368
35441SOL    HW1 9600   4.350   6.901   0.809 -0.5384 -0.0296  1.3171
35441SOL    HW2 9601   4.212   6.912   0.870 -1.4479  0.8068 -0.7669
35442SOL     OW 9602   1.385   7.422  10.681  0.3892  0.1563  0.6305
35442SOL    HW1 9603   1.473   7.461  10.681  1.2947 -1.8069  0.7560
35442SOL    HW2 9604   1.377   7.380  10.767  0.7960 -2.7637 -0.6703
35443SOL     OW 9605  11.233  11.201   2.599 -0.0847 -0.3499  0.1423
35443SOL    HW1 9606  11.160  11.178   2.657 -0.9924  1.2985 -0.2778
35443SOL    HW2 9607  11.203  11.177   2.511  0.0113  0.0366  0.0029
35444SOL     OW 9608   4.794  11.248   0.023 -0.1066 -0.0204 -0.3366
35444SOL    HW1 9609   4.762  11.184  -0.039  1.6480  0.3833 -1.7449
35444SOL    HW2 9610   4.870  11.206   0.064  0.3141  0.6878 -0.3710
35445SOL     OW 9611   6.777   1.566   4.361 -0.2157  0.4170 -0.1370
35445SOL    HW1 9612   6.786   1.656   4.328 -0.5560  0.6781  0.4810
35445SOL    HW2 9613   6.714   1.572   4.432 -1.0441 -0.4931 -0.7746
35446SOL     OW 9614  11.041   7.496   7.168 -0.1685 -0.3606  0.2575
35446SOL    HW1 9615  11.090   7.415   7.162 -1.0712 -0.9918  1.1102
35446SOL    HW2 9616  11.104   7.561   7.200  0.1584 -1.1121  1.1565
35447SOL     OW 9617   1.114   9.366   9.735  0.0477  0.1682 -0.1835
35447SOL    HW1 9618   1.130   9.333   9.646 -2.1231  0.2939 -0.6852
35447SOL    HW2 9619   1.182   9.432   9.748  1.1397 -0.6862 -1.2713
35448SOL     OW 9620   7.130   1.714   5.041  0.4393 -0.1484 -0.1902
35448SOL    HW1 9621   7.206   1.685   4.990 -0.3026 -1.0323 -0.8488
35448SOL    HW2 9622   7.056   1.705   4.981 -0.3996 -0.7370  0.8836
35449SOL     OW 9623   5.449   1.252  10.335  0.4104  0.0009 -0.1661
35449SOL    HW1 9624   5.386   1.249  10.263 -0.6923 -2.5117  0.7802
35449SOL    HW2 9625   5.519   1.193  10.308  0.7384  0.2353  0.1732
35450SOL     OW 9626   4.493   2.927  10.420  0.8471 -0.1832 -0.1766
35450SOL    HW1 9627   4.428   2.972  10.475  1.3546  0.6250 -0.2183
35450SOL    HW2 9628   4.575   2.936  10.469  0.8545 -1.6621  0.1371
35451SOL     OW 9629   0.734   9.232   8.217  0.1573 -0.2176 -0.0542
35451SOL    HW1 9630   0.755   9.218   8.124 -1.8379  0.5312 -0.6623
35451SOL    HW2 9631   0.693   9.150   8.244 -1.7206  0.4886 -0.6261
35452SOL     OW 9632   1.246   9.172   8.147 -0.3622  0.3840 -0.3714
35452SOL    HW1 9633   1.331   9.139   8.175  0.3286  1.9196 -0.5643
35452SOL    HW2 9634   1.230   9.248   8.203 -1.6557  0.0829 -0.2953
35453SOL     OW 9635   5.215   5.958   5.293 -0.6259  0.0984  0.0510
35453SOL    HW1 9636   5.229   5.941   5.386 -0.2370  0.1927  0.0120
35453SOL    HW2 9637   5.145   5.898   5.268  0.6323 -1.3870 -0.0567
35454SOL     OW 9638   8.857   8.219   7.046 -0.4826 -0.6921  0.1322
35454SOL    HW1 9639   8.800   8.296   7.047  1.5661  0.8900 -0.1574
35454SOL    HW2 9640   8.930   8.243   6.988  1.3871 -1.9568  1.8435
35455SOL     OW 9641   8.441  11.369   7.157  0.9457  0.3984  0.2030
35455SOL    HW1 9642   8.442  11.348   7.064 -0.4485  0.5295  0.1340
35455SOL    HW2 9643   8.486  11.453   7.163  1.4512  0.1679 -0.2857
35456SOL     OW 9644   9.434   2.244   2.323 -0.5307 -0.5781  0.3032
35456SOL    HW1 9645   9.446   2.153   2.296 -1.1237 -0.6027  0.1029
35456SOL    HW2 9646   9.508   2.290   2.285  0.1632 -1.0916  0.9955
35457SOL     OW 9647   0.854   4.685   7.519  0.2313  0.1417  0.9577
35457SOL    HW1 9648   0.839   4.705   7.612  1.7260 -0.7127  1.4062
35457SOL    HW2 9649   0.942   4.716   7.502  0.4887 -0.9548  0.1940
35458SOL     OW 9650   2.307   8.912   0.123 -0.2572  0.1438  0.5995
35458SOL    HW1 9651   2.278   8.997   0.155 -1.0070 -0.4305  1.5154
35458SOL    HW2 9652   2.393   8.899   0.163 -0.1571  0.4546  0.4873
35459SOL     OW 9653   9.714  10.040   4.563 -0.1780  0.4379 -0.0000
35459SOL    HW1 9654   9.740  10.036   4.655  1.1484 -1.8898 -0.4085
35459SOL    HW2 9655   9.625  10.004   4.561  0.6437 -1.7484  0.1562
35460SOL     OW 9656   8.732   9.119   8.812 -0.1037 -0.0086 -0.3832
35460SOL    HW1 9657   8.716   9.207   8.777 -2.0073 -0.0541  0.2616
35460SOL    HW2 9658   8.825   9.120   8.837  0.9723  0.5341 -3.8463
35461SOL     OW 9659   2.182   3.021   7.772  0.3940 -0.2572  0.4322
35461SOL    HW1 9660   2.262   3.058   7.736  0.1911 -0.3496 -0.1332
35461SOL    HW2 9661   2.119   3.093   7.771  0.1493 -0.4727 -0.1814
35462SOL     OW 9662   3.528   5.915   2.366  0.1802 -0.1563 -0.0615
35462SOL    HW1 9663   3.582   5.837   2.379 -0.4453 -0.6607 -0.3852
35462SOL    HW2 9664   3.480   5.898   2.285  0.3058  0.7355 -0.3325
35463SOL     OW 9665   5.683  10.399   3.346 -0.2240  0.1296  0.1966
35463SOL    HW1 9666   5.737  10.458   3.293 -0.4590  1.2915  1.2231
35463SOL    HW2 9667   5.693  10.431   3.436  1.3323 -2.6620  1.1334
35464SOL     OW 9668   9.475   4.372   9.159  0.1839  0.3068  0.4108
35464SOL    HW1 9669   9.508   4.294   9.115 -0.2183 -0.9466  2.2147
35464SOL    HW2 9670   9.429   4.421   9.091  0.8655 -0.7743 -0.8683
35465SOL     OW 9671   1.657   8.735   0.389  0.5966 -0.2886 -0.3355
35465SOL    HW1 9672   1.723   8.803   0.405  0.9485 -0.8836  0.9182
35465SOL    HW2 9673   1.640   8.739   0.295  2.2802  0.0155 -0.6656
35466SOL     OW 9674   7.222   9.656   0.195 -0.3035  0.7713 -0.4231
35466SOL    HW1 9675   7.234   9.607   0.277  2.0596  1.7162 -0.1182
35466SOL    HW2 9676   7.171   9.733   0.220 -0.6205  0.4646 -0.1080
35467SOL     OW 9677   2.458   4.197   5.593  0.3085  0.0555  0.2125
35467SOL    HW1 9678   2.429   4.281   5.556 -1.2511 -1.2954 -1.9210
35467SOL    HW2 9679   2.396   4.179   5.664 -0.4456 -0.0531 -0.4554
35468SOL     OW 9680   4.810  10.972   7.260  0.3602  0.5659  0.4056
35468SOL    HW1 9681   4.883  10.936   7.311 -1.0367 -0.8885  1.4877
35468SOL    HW2 9682   4.778  10.898   7.209 -0.8007  0.9763  0.5025
35469SOL     OW 9683   4.453  10.953   6.755 -0.2570  0.0004 -0.2454
35469SOL    HW1 9684   4.397  10.877   6.743  2.4041 -2.1485 -0.1289
35469SOL    HW2 9685   4.437  10.981   6.845 -0.5854 -1.0545  0.0353
35470SOL     OW 9686   8.053   9.926   1.701  0.0253 -0.1439 -0.4495
35470SOL    HW1 9687   8.005   9.881   1.631 -0.0434  0.0410 -0.5211
35470SOL    HW2 9688   8.143   9.897   1.690 -0.0030 -0.1932 -0.5536
35471SOL     OW 9689  11.356   4.987   9.886  0.1607  0.2607  0.6927
35471SOL    HW1 9690  11.416   5.047   9.930 -0.7963  0.6332  1.5220
35471SOL    HW2 9691  11.272   5.000   9.929 -0.9250  0.8997 -1.4524
35472SOL     OW 9692   7.337   3.637   2.533 -0.7302  0.1878 -0.4741
35472SOL    HW1 9693   7.406   3.576   2.559 -0.9320  0.0791 -0.1805
35472SOL    HW2 9694   7.263   3.615   2.590 -1.9026 -1.4234 -2.4661
35473SOL     OW 9695   8.530   3.052  10.071  0.1288  0.2545 -0.2769
35473SOL    HW1 9696   8.486   3.044  10.156  0.3618  2.6199  0.1305
35473SOL    HW2 9697   8.569   2.966  10.055  1.4248  0.1772  2.7738
35474SOL     OW 9698   6.948   1.411   6.181  0.3541 -0.2942 -0.4298
35474SOL    HW1 9699   7.026   1.459   6.210  0.9478 -2.9149  3.1051
35474SOL    HW2 9700   6.874   1.459   6.218  0.6428 -0.0797 -0.1326
35475SOL     OW 9701   8.775   7.265   8.943  0.6113 -0.6799  0.1552
35475SOL    HW1 9702   8.840   7.325   8.980  1.5528 -0.3443 -1.9257
35475SOL    HW2 9703   8.825   7.186   8.921 -0.2203 -1.4432  0.9057
35476SOL     OW 9704   2.755   4.849   7.060  0.3065  0.1639 -0.4250
35476SOL    HW1 9705   2.846   4.859   7.033  0.4535  2.4190  0.6224
35476SOL    HW2 9706   2.759   4.840   7.156 -0.4840 -2.2420 -0.5501
35477SOL     OW 9707   2.455   4.998   1.964 -0.2866  0.1826 -0.0816
35477SOL    HW1 9708   2.375   4.978   1.915  0.1500  0.5326 -0.9603
35477SOL    HW2 9709   2.493   4.912   1.982 -0.8691  0.0148  0.3558
35478SOL     OW 9710   8.402   6.497   5.203 -0.3159  0.1669 -0.2799
35478SOL    HW1 9711   8.447   6.573   5.167  0.3928  0.0685  0.3657
35478SOL    HW2 9712   8.315   6.499   5.163  0.5625 -0.1981 -2.3458
35479SOL     OW 9713   2.153   8.966   6.143  0.6801  0.0852  0.0057
35479SOL    HW1 9714   2.156   8.991   6.051  2.1252 -0.4094 -0.0938
35479SOL    HW2 9715   2.238   8.927   6.161 -0.4925 -2.2813  0.8674
35480SOL     OW 9716   7.988   7.605   7.561  0.5995 -0.4342  0.0385
35480SOL    HW1 9717   8.044   7.535   7.528  0.0658 -0.1605 -1.5723
35480SOL    HW2 9718   7.919   7.613   7.495 -1.6418 -1.0958  2.1463
35481SOL     OW 9719   5.946   4.633   1.912  0.8715 -0.4874  0.3762
35481SOL    HW1 9720   5.893   4.560   1.943 -0.6609  0.5277  0.2614
35481SOL    HW2 9721   5.896   4.711   1.935  1.6474  0.4716 -0.9818
35482SOL     OW 9722   1.990   1.397   1.492 -0.4908  0.0456 -0.3606
35482SOL    HW1 9723   2.057   1.336   1.463  0.1862 -0.9051  2.7978
35482SOL    HW2 9724   1.910   1.367   1.449  0.1192 -2.1670 -0.0607
35483SOL     OW 9725   1.602   0.975   3.287  0.3372  0.0332 -0.1703
35483SOL    HW1 9726   1.616   1.049   3.228 -1.9353  0.5463 -0.1354
35483SOL    HW2 9727   1.614   1.012   3.375  3.1778 -0.6127 -0.1694
35484SOL     OW 9728   2.664   3.885   0.304  0.4419  0.4226  0.1287
35484SOL    HW1 9729   2.623   3.912   0.222  0.0700  0.7189  0.4122
35484SOL    HW2 9730   2.687   3.793   0.290  0.8685  0.6173 -0.4973
35485SOL     OW 9731   2.971  10.227  11.284  0.4255  0.2817 -0.2341
35485SOL    HW1 9732   2.916  10.151  11.270  1.5170 -0.1147 -2.9112
35485SOL    HW2 9733   2.922  10.281  11.347 -1.5546 -1.4006 -0.2270
35486SOL     OW 9734   8.434   4.288   0.273 -0.0427 -0.0716 -0.1998
35486SOL    HW1 9735   8.362   4.350   0.284  0.0982  0.0270  0.1827
35486SOL    HW2 9736   8.390   4.205   0.251 -0.2839 -0.0366  0.1263
35487SOL     OW 9737   4.363   5.301   8.158 -0.4607  0.0571  0.3240
35487SOL    HW1 9738   4.428   5.317   8.090 -1.1650  0.9211 -0.1732
35487SOL    HW2 9739   4.404   5.331   8.239  0.7517 -1.8472  0.4774
35488SOL     OW 9740   8.371   2.282   5.413 -0.0050  0.0322  0.1453
35488SOL    HW1 9741   8.294   2.298   5.467 -0.0459  0.9294 -0.1675
35488SOL    HW2 9742   8.336   2.259   5.327  0.0723 -0.5595  0.2646
35489SOL     OW 9743   5.660   1.854   8.369 -0.5726  0.7664 -0.4115
35489SOL    HW1 9744   5.703   1.769   8.359  0.5555  1.3648 -0.8020
35489SOL    HW2 9745   5.610   1.847   8.450  2.6137  0.9980  1.7165
35490SOL     OW 9746   7.417   7.600   7.463  0.5237  0.1984 -0.3311
35490SOL    HW1 9747   7.356   7.528   7.449  0.5237  0.4418 -1.7367
35490SOL    HW2 9748   7.362   7.678   7.468  0.6312  0.2955 -0.5949
35491SOL     OW 9749   7.345   5.743   1.150 -0.3187  0.3632  0.0315
35491SOL    HW1 9750   7.361   5.834   1.173  0.1772  0.4627 -0.6808
35491SOL    HW2 9751   7.398   5.728   1.072  0.4428 -0.8467  0.7563
35492SOL     OW 9752   5.860   8.013   2.448  0.4032  0.8353  0.6373
35492SOL    HW1 9753   5.927   8.078   2.467  1.4908  0.3036 -1.1186
35492SOL    HW2 9754   5.823   8.040   2.364 -0.2992  0.0891  0.6893
35493SOL     OW 9755   0.097   1.053   1.169  0.0287  0.3429 -0.1967
35493SOL    HW1 9756   0.153   1.099   1.107  0.9376  0.8550  0.9520
35493SOL    HW2 9757   0.083   0.967   1.129  1.8870  0.0856 -0.4165
35494SOL     OW 9758   6.598   9.145   4.238  0.3615  0.6048 -0.3070
35494SOL    HW1 9759   6.518   9.198   4.239  0.1747  0.3804 -1.5113
35494SOL    HW2 9760   6.605   9.116   4.147 -1.2699 -4.0739  0.8023
35495SOL     OW 9761   8.417   3.167  10.489 -0.0880  0.1189  0.5186
35495SOL    HW1 9762   8.425   3.073  10.471  0.0196  0.2834 -0.3205
35495SOL    HW2 9763   8.341   3.173  10.548  0.0679 -0.5171  0.7940
35496SOL     OW 9764   4.476   6.222   4.694  0.2771 -0.3853 -0.6548
35496SOL    HW1 9765   4.414   6.159   4.658  0.8999 -1.0219 -0.6298
35496SOL    HW2 9766   4.440   6.308   4.670 -0.1129 -0.7643 -1.4564
35497SOL     OW 9767   0.171   9.246  11.041  0.3485  0.1586 -0.2260
35497SOL    HW1 9768   0.189   9.159  11.078  0.6445  0.3239  0.0343
35497SOL    HW2 9769   0.207   9.243  10.953  0.0379 -0.0991 -0.3442
35498SOL     OW 9770   5.127  10.275   3.655 -0.1541  0.1128  0.6624
35498SOL    HW1 9771   5.153  10.306   3.742  1.5971  2.2863 -0.5506
35498SOL    HW2 9772   5.077  10.347   3.617 -0.6451 -0.6896 -0.2527
35499SOL     OW 9773   4.562   7.048   5.411  0.1841 -0.0742 -0.7273
35499SOL    HW1 9774   4.569   6.982   5.342  1.1482  0.9227 -1.6162
35499SOL    HW2 9775   4.479   7.027   5.455  0.7374 -2.1931 -0.6085
35500SOL     OW 9776   7.851   4.271   0.470 -0.1903  0.2336  0.2420
35500SOL    HW1 9777   7.770   4.238   0.432 -1.1972  0.0461  2.4324
35500SOL    HW2 9778   7.844   4.366   0.464 -0.5447  0.2152  0.3322
35501SOL     OW 9779   0.505   8.847   7.453 -0.2282  0.0147  0.7311
35501SOL    HW1 9780   0.507   8.942   7.443 -2.0327  0.0865  0.8119
35501SOL    HW2 9781   0.581   8.816   7.402  0.6404  1.4991  1.0591
35502SOL     OW 9782   0.200   2.191  11.198 -0.5201  0.2097 -0.1668
35502SOL    HW1 9783   0.135   2.233  11.141 -0.0474  0.7262 -0.3397
35502SOL    HW2 9784   0.276   2.250  11.194 -0.8425  0.8222  1.8454
35503SOL     OW 9785   3.825   2.313   0.435 -0.0784 -0.1075  0.3351
35503SOL    HW1 9786   3.786   2.398   0.459  1.1066  0.4293  0.4500
35503SOL    HW2 9787   3.854   2.276   0.518  0.2179 -0.2095  0.1879
35504SOL     OW 9788   0.594   9.882  10.292 -0.7501  0.4799  0.8109
35504SOL    HW1 9789   0.685   9.878  10.264 -1.0906 -0.5578 -0.2407
35504SOL    HW2 9790   0.550   9.934  10.225 -1.2964 -0.7663  0.1671
35505SOL     OW 9791   2.686   4.903   1.050  0.2714 -0.9645  0.3833
35505SOL    HW1 9792   2.612   4.927   1.107  2.0085  1.6851  1.7641
35505SOL    HW2 9793   2.673   4.955   0.971 -0.0145 -1.5161  0.0632
35506SOL     OW 9794   0.554   3.684   7.845  0.1774  0.1207 -0.3420
35506SOL    HW1 9795   0.566   3.639   7.928  1.0550  1.5067  0.3290
35506SOL    HW2 9796   0.460   3.686   7.832 -0.0090  0.3429  0.9048
35507SOL     OW 9797   2.649   8.714  10.167 -0.4845 -0.1963 -0.1750
35507SOL    HW1 9798   2.654   8.781  10.098  0.4691 -0.0696  0.0062
35507SOL    HW2 9799   2.676   8.633  10.124 -1.9353 -0.5489 -0.4722
35508SOL     OW 9800   0.906   8.062   2.518 -0.1894 -0.2257  0.0944
35508SOL    HW1 9801   0.981   8.118   2.499  0.9320 -1.2084  1.4351
35508SOL    HW2 9802   0.903   8.001   2.445  0.4393 -0.2850  0.1114
35509SOL     OW 9803   3.570   8.975   5.438  0.0926  0.5985  0.1031
35509SOL    HW1 9804   3.559   8.907   5.505 -0.7681  0.4783 -0.1494
35509SOL    HW2 9805   3.658   8.961   5.403 -0.4503 -1.0497 -0.6797
35510SOL     OW 9806   2.523   3.618   1.886  0.0687  0.0736 -0.1445
35510SOL    HW1 9807   2.443   3.572   1.914  0.8359 -2.5150 -1.8263
35510SOL    HW2 9808   2.545   3.578   1.802  2.4700  1.5763 -0.3177
35511SOL     OW 9809   5.954   5.703   8.939 -0.1082 -0.0518  0.3685
35511SOL    HW1 9810   5.863   5.678   8.954 -0.7711  1.8070 -0.2744
35511SOL    HW2 9811   5.950   5.764   8.865  1.8355 -1.0637 -0.6575
35512SOL     OW 9812  11.344  10.174   7.204 -0.3305  0.4977  0.1390
35512SOL    HW1 9813  11.406  10.229   7.251  0.1079  0.8479 -0.8321
35512SOL    HW2 9814  11.333  10.097   7.261 -0.8271  1.4875  1.4269
35513SOL     OW 9815   2.660   1.600   9.049 -0.0773  0.0336  0.1830
35513SOL    HW1 9816   2.573   1.567   9.072 -0.1866  0.5908  0.6000
35513SOL    HW2 9817   2.659   1.605   8.954 -0.0698 -1.1102  0.1097
35514SOL     OW 9818   4.291   1.462   0.477 -0.4249 -0.0682  0.3000
35514SOL    HW1 9819   4.202   1.480   0.445  0.4429  0.1983 -2.1476
35514SOL    HW2 9820   4.319   1.385   0.427  0.5794 -0.4399  1.3848
35515SOL     OW 9821   8.558   1.982   5.452  0.4004 -0.1993  0.2336
35515SOL    HW1 9822   8.622   2.002   5.384 -0.4895 -1.2717 -0.9826
35515SOL    HW2 9823   8.600   1.915   5.507  1.6063  1.5696  1.5524
35516SOL     OW 9824   3.241   2.417  10.098 -0.2588 -0.4864 -0.2725
35516SOL    HW1 9825   3.146   2.422  10.100 -0.4707 -1.0055 -3.8343
35516SOL    HW2 9826   3.270   2.504  10.072  0.2673 -0.4014  0.5433
35517SOL     OW 9827   1.628   2.973   0.045 -0.0623  0.1658  0.2117
35517SOL    HW1 9828   1.643   2.908  -0.023  2.1010 -0.4713  1.1796
35517SOL    HW2 9829   1.534   2.990   0.043 -0.1673 -0.3860 -2.3734
35518SOL     OW 9830   6.425   9.397   9.424 -0.0491 -0.2905  0.0292
35518SOL    HW1 9831   6.398   9.346   9.500 -0.2616 -0.1713  0.0343
35518SOL    HW2 9832   6.476   9.469   9.460  1.3108 -1.1799 -0.0624
35519SOL     OW 9833   1.044  10.937   5.107  0.3205  0.1514  0.2631
35519SOL    HW1 9834   1.015  10.961   5.195  1.0089  2.6881 -0.1419
35519SOL    HW2 9835   1.138  10.923   5.116  0.6898  1.9960 -0.3102
35520SOL     OW 9836   6.251   6.937   7.363  0.3375 -0.0955 -0.4618
35520SOL    HW1 9837   6.233   6.848   7.333  0.0519  0.4540 -1.9884
35520SOL    HW2 9838   6.174   6.988   7.337 -0.0391  0.4005  1.4270
35521SOL     OW 9839   8.382   8.582   4.526 -0.1347  0.2067  0.1025
35521SOL    HW1 9840   8.329   8.525   4.470 -2.0535  2.6433 -0.7757
35521SOL    HW2 9841   8.381   8.666   4.480  1.2514  1.3641  2.0824
35522SOL     OW 9842  10.975   5.437   6.707 -0.4048  0.6498  0.4294
35522SOL    HW1 9843  10.908   5.496   6.741 -1.1486 -0.3467  0.7346
35522SOL    HW2 9844  10.946   5.417   6.618 -0.7364 -0.0894  0.6949
35523SOL     OW 9845   1.801   7.811   2.455 -0.4484  0.2219  0.3444
35523SOL    HW1 9846   1.738   7.739   2.451 -1.5229  1.0329  1.8627
35523SOL    HW2 9847   1.852   7.802   2.375  0.0480 -2.7548  0.8714
35524SOL     OW 9848  10.625   0.746   9.763 -0.0187  0.0702  0.8553
35524SOL    HW1 9849  10.573   0.768   9.841  0.7351 -1.7573  1.9317
35524SOL    HW2 9850  10.580   0.671   9.725  1.8905 -1.7315  1.9751
35525SOL     OW 9851   2.910   2.047   2.175 -0.7698 -0.5179  0.2947
35525SOL    HW1 9852   2.931   2.121   2.117 -0.8398 -0.5632  0.2116
35525SOL    HW2 9853   2.994   2.006   2.193 -0.6767 -0.1751  0.6684
35526SOL     OW 9854   1.754   7.897   2.974  0.5720  0.8324 -0.4136
35526SOL    HW1 9855   1.796   7.890   2.888 -2.5542 -0.8872 -1.9772
35526SOL    HW2 9856   1.674   7.946   2.958  0.2747  1.1535  1.7227
35527SOL     OW 9857   8.422   5.043   5.776  0.2679 -0.3702 -0.2467
35527SOL    HW1 9858   8.446   5.003   5.859 -1.6230  1.2367  1.1660
35527SOL    HW2 9859   8.328   5.024   5.766 -0.0776  1.4319 -0.8059
35528SOL     OW 9860   3.113   4.888   0.124 -0.0315  0.1187 -0.4192
35528SOL    HW1 9861   3.113   4.904   0.029  1.7080 -0.9847 -0.6629
35528SOL    HW2 9862   3.201   4.913   0.152 -0.7080  1.0159  1.0631
35529SOL     OW 9863   4.490   9.826   1.201  0.1180  0.1011  0.4515
35529SOL    HW1 9864   4.490   9.788   1.113  1.2324  5.3220 -2.1749
35529SOL    HW2 9865   4.414   9.884   1.203 -0.6431 -0.7776  3.5933
35530SOL     OW 9866   6.539   8.993   3.284  0.3810  0.4706 -0.7765
35530SOL    HW1 9867   6.628   8.990   3.318  0.0221 -2.6475  0.2229
35530SOL    HW2 9868   6.487   9.024   3.359  0.0890 -2.6724  0.4797
35531SOL     OW 9869   3.396  10.033   7.914 -0.1176  0.4566 -0.0273
35531SOL    HW1 9870   3.390  10.097   7.843 -0.1591 -1.4430 -1.8463
35531SOL    HW2 9871   3.330  10.061   7.978 -0.2369  2.1108 -0.8374
35532SOL     OW 9872   0.237   9.710   9.159 -0.2929  0.5206 -0.1605
35532SOL    HW1 9873   0.213   9.619   9.144  0.5219  0.1826  0.5097
35532SOL    HW2 9874   0.299   9.707   9.232 -1.6203  1.7769  1.0680
35533SOL     OW 9875   9.885   9.178   1.298  0.7178 -0.3939 -0.0860
35533SOL    HW1 9876   9.813   9.119   1.276  0.4485  0.0109 -0.3041
35533SOL    HW2 9877   9.842   9.254   1.337  0.9481  0.2431 -1.0362
35534SOL     OW 9878   4.384   7.524   0.723  0.1226 -0.0837 -0.1609
35534SOL    HW1 9879   4.448   7.470   0.677 -0.0020 -2.3138  2.0780
35534SOL    HW2 9880   4.303   7.473   0.723  0.3886 -0.7854  3.3042
35535SOL     OW 9881  11.057  10.778   4.218 -0.8127 -0.3855  0.6435
35535SOL    HW1 9882  11.006  10.821   4.287 -0.1236 -0.9497  1.5301
35535SOL    HW2 9883  10.998  10.710   4.184 -0.8469 -0.7040  1.3183
35536SOL     OW 9884  10.225   6.899   6.010  0.2883  0.0973 -0.0075
35536SOL    HW1 9885  10.222   6.881   5.916 -0.7067  2.5024 -0.4938
35536SOL    HW2 9886  10.255   6.989   6.016  1.4354 -0.3603  2.0760
35537SOL     OW 9887   9.841   1.219   3.447  0.3686  0.3333  0.2037
35537SOL    HW1 9888   9.865   1.166   3.372 -0.0778  1.1394 -0.5329
35537SOL    HW2 9889   9.924   1.247   3.486  0.6001  0.1532 -0.1638
35538SOL     OW 9890   6.952   6.530   0.285 -0.2483 -0.3769 -0.6612
35538SOL    HW1 9891   7.035   6.497   0.250  1.2662 -0.2238  2.4149
35538SOL    HW2 9892   6.971   6.622   0.305 -0.7290 -0.6255  1.1031
35539SOL     OW 9893  10.018   7.026   8.419 -0.2961 -0.7328  0.9315
35539SOL    HW1 9894   9.933   6.982   8.415 -0.4684 -0.4642  1.5026
35539SOL    HW2 9895  10.024   7.076   8.338 -0.3283 -1.3886  0.5209
35540SOL     OW 9896  10.328   1.294   0.964  0.3469  0.0948  0.0763
35540SOL    HW1 9897  10.310   1.219   1.020 -1.7169 -0.2440 -0.9381
35540SOL    HW2 9898  10.416   1.323   0.989  0.8801 -2.1592  1.0361
35541SOL     OW 9899   5.944  10.510  10.407  0.1723  0.0837  0.3605
35541SOL    HW1 9900   5.862  10.555  10.385  0.9492 -0.1096 -3.7323
35541SOL    HW2 9901   5.999  10.577  10.445 -1.2999  0.6087  1.6703
35542SOL     OW 9902   1.528   3.477   8.738  0.2772 -0.2519 -0.6357
35542SOL    HW1 9903   1.514   3.384   8.757 -0.3991  0.1104  0.7344
35542SOL    HW2 9904   1.459   3.522   8.787  1.3924  1.0657 -0.2175
35543SOL     OW 9905  10.243   0.226   3.103  0.4762  0.4925  0.8708
35543SOL    HW1 9906  10.277   0.309   3.069 -1.1522  1.3389  1.2122
35543SOL    HW2 9907  10.304   0.201   3.172  0.8888  1.4962  0.8778
35544SOL     OW 9908   7.673   2.112   5.114  0.0194 -0.4511 -0.0748
35544SOL    HW1 9909   7.764   2.136   5.103  0.1685 -1.1628 -0.4892
35544SOL    HW2 9910   7.671   2.061   5.195 -0.0662 -0.1981  0.0861
35545SOL     OW 9911   0.608   2.041   5.508 -0.3568 -0.1533  0.1644
35545SOL    HW1 9912   0.605   2.135   5.491 -0.8954 -0.4240 -1.3253
35545SOL    HW2 9913   0.680   2.030   5.570  0.0893  1.1724 -0.0975
35546SOL     OW 9914   3.935  10.798   9.901  0.0580  0.2521 -0.5944
35546SOL    HW1 9915   3.861  10.738   9.907 -0.5807  1.1594  1.9832
35546SOL    HW2 9916   4.011  10.741   9.895 -0.6932 -0.7546 -0.8618
35547SOL     OW 9917   4.657   1.968  10.130  0.0118 -0.6892 -0.2156
35547SOL    HW1 9918   4.717   1.896  10.109 -1.5651 -2.4033  0.7567
35547SOL    HW2 9919   4.671   1.983  10.224  1.4114  1.4168 -0.6946
35548SOL     OW 9920  10.800   5.031   1.284 -0.2492  0.4594 -0.1030
35548SOL    HW1 9921  10.751   4.967   1.233  2.1521 -1.0377 -0.7317
35548SOL    HW2 9922  10.834   4.980   1.358 -1.3453  1.9448  1.5033
35549SOL     OW 9923   6.757   8.969   7.727  0.0901  0.3787 -0.2466
35549SOL    HW1 9924   6.687   8.968   7.792  0.2075 -1.8375 -0.1004
35549SOL    HW2 9925   6.838   8.975   7.779  0.1347 -0.2202 -0.2447
35550SOL     OW 9926   2.279   5.034  10.488 -0.0934 -0.0811 -0.4693
35550SOL    HW1 9927   2.278   4.960  10.549  0.0726 -0.3242 -0.7554
35550SOL    HW2 9928   2.233   5.104  10.534 -0.7083 -0.5242 -0.3944
35551SOL     OW 9929  10.140  10.907  10.411  0.5398 -0.7915  0.2521
35551SOL    HW1 9930  10.215  10.966  10.426 -0.3867  0.8184 -1.0636
35551SOL    HW2 9931  10.064  10.956  10.443 -0.2047 -1.4828 -0.3999
35552SOL     OW 9932   4.912   9.275   1.476 -0.5018  0.0118 -0.2761
35552SOL    HW1 9933   4.929   9.351   1.421 -0.6440 -0.0744 -0.4399
35552SOL    HW2 9934   4.822   9.250   1.456 -0.5750  0.0166  0.0427
35553SOL     OW 9935  10.036   6.513   8.707 -0.0872  0.2196 -1.2516
35553SOL    HW1 9936  10.048   6.422   8.678  0.0742  0.3920 -1.7353
35553SOL    HW2 9937  10.062   6.512   8.799 -1.7723 -0.6034 -0.7422
35554SOL     OW 9938   5.553   8.460   0.157 -0.0101  0.1943  0.0823
35554SOL    HW1 9939   5.459   8.470   0.146  0.0401  1.7616  0.7588
35554SOL    HW2 9940   5.590   8.474   0.070 -0.4140 -0.7245 -0.2400
35555SOL     OW 9941   3.944   6.138   1.834 -0.3608 -0.2882 -0.5431
35555SOL    HW1 9942   3.930   6.196   1.759  1.3117 -1.2584 -1.6985
35555SOL    HW2 9943   3.939   6.050   1.796 -0.6191 -0.8456  0.7307
35556SOL     OW 9944   2.004   4.056   3.185 -0.3771 -0.0633 -0.4935
35556SOL    HW1 9945   1.931   4.008   3.145 -0.5388 -0.7731  0.5886
35556SOL    HW2 9946   1.966   4.094   3.264  0.0772  0.7859 -0.6803
35557SOL     OW 9947   3.600   6.056   5.635 -0.2130 -0.0731  0.2453
35557SOL    HW1 9948   3.525   6.090   5.684 -0.4522 -1.3136  0.7986
35557SOL    HW2 9949   3.665   6.037   5.703 -0.7069 -2.2246  0.2142
35558SOL     OW 9950   8.295   2.424   8.678 -0.0844  0.2163 -0.1295
35558SOL    HW1 9951   8.259   2.473   8.605  1.9923  1.1236 -0.6105
35558SOL    HW2 9952   8.385   2.406   8.653 -0.2676 -2.4067  0.7780
35559SOL     OW 9953   6.945   4.020   7.093 -0.2821  0.3476  0.7409
35559SOL    HW1 9954   6.855   4.013   7.061 -0.0510  0.8592 -0.0609
35559SOL    HW2 9955   6.970   3.931   7.116 -0.2702 -0.1606 -1.0783
35560SOL     OW 9956   7.266   5.707   2.559 -0.1267  0.4212 -0.0195
35560SOL    HW1 9957   7.223   5.789   2.586 -0.5872  0.0101  0.5340
35560SOL    HW2 9958   7.323   5.685   2.633  0.5032  0.5827 -0.4488
35561SOL     OW 9959   6.756   6.052   0.406  0.4039  0.3914 -0.3508
35561SOL    HW1 9960   6.805   6.044   0.488  0.2261  3.0483  0.1068
35561SOL    HW2 9961   6.815   6.100   0.347 -0.9253  2.0873 -0.3743
35562SOL     OW 9962   7.356   0.638   6.777  0.4039 -1.1169 -0.1233
35562SOL    HW1 9963   7.414   0.708   6.807 -0.2811 -0.0103 -1.2865
35562SOL    HW2 9964   7.405   0.594   6.708  0.5397 -1.2892  0.0845
35563SOL     OW 9965   8.145   2.721   1.258  0.0460  0.7463 -0.2457
35563SOL    HW1 9966   8.233   2.738   1.293  0.1604  0.3371 -0.3237
35563SOL    HW2 9967   8.102   2.806   1.258  0.0417  0.7599  0.8951
35564SOL     OW 9968   8.214   6.686   4.640  0.5062  0.2783  0.3096
35564SOL    HW1 9969   8.177   6.774   4.641 -1.7871 -0.6160  0.9667
35564SOL    HW2 9970   8.257   6.677   4.725 -1.1949  0.0642  1.1991
35565SOL     OW 9971   0.561  10.851   9.365 -0.8973 -0.4356 -0.1388
35565SOL    HW1 9972   0.507  10.879   9.439 -1.6539 -2.7486  0.2666
35565SOL    HW2 9973   0.501  10.801   9.309 -0.1038  0.4375 -1.8328
35566SOL     OW 9974   4.186   2.703   2.476  0.6672 -0.5513  0.0188
35566SOL    HW1 9975   4.251   2.634   2.467  3.1044  1.5800 -0.0360
35566SOL    HW2 9976   4.171   2.733   2.386  0.7359 -0.0904  0.1575
35567SOL     OW 9977  10.674   6.141  10.351 -0.5143  0.1660 -0.0274
35567SOL    HW1 9978  10.622   6.155  10.430 -2.0224  0.4719 -1.0369
35567SOL    HW2 9979  10.660   6.049  10.330 -0.2330  0.1237 -0.0356
35568SOL     OW 9980   3.034   4.581   1.702  0.5954 -0.0472  0.3118
35568SOL    HW1 9981   3.097   4.652   1.710 -0.2400  0.7277  0.1605
35568SOL    HW2 9982   3.032   4.539   1.788  2.6847 -1.3014 -0.1643
35569SOL     OW 9983   0.480   0.594   1.608 -0.1109  0.6798 -0.0438
35569SOL    HW1 9984   0.547   0.650   1.648 -0.7170  1.1855  0.2837
35569SOL    HW2 9985   0.411   0.588   1.674 -0.6271  0.6082 -0.5840
35570SOL     OW 9986  10.334   2.789   1.485  0.2645 -0.0855 -0.1501
35570SOL    HW1 9987  10.306   2.800   1.394 -0.6618  1.7523  0.3101
35570SOL    HW2 9988  10.426   2.816   1.485  0.2037  0.1290 -0.4930
35571SOL     OW 9989  11.212   4.854   2.785 -0.5275  0.0322 -0.0974
35571SOL    HW1 9990  11.192   4.896   2.702  0.2448  0.2757 -0.1711
35571SOL    HW2 9991  11.175   4.766   2.778 -1.2966  0.3719 -0.3230
35572SOL     OW 9992   1.890   3.187   1.869  0.2157 -0.0817 -0.2667
35572SOL    HW1 9993   1.945   3.265   1.856 -0.9470  1.0366  1.2418
35572SOL    HW2 9994   1.928   3.122   1.809  1.9630  1.2417 -0.7072
35573SOL     OW 9995   7.268   3.684   6.600 -0.2822  0.3578  0.7210
35573SOL    HW1 9996   7.318   3.618   6.552  0.1855  1.3796 -0.2604
35573SOL    HW2 9997   7.177   3.666   6.577 -0.2205 -0.3441  0.9930
35574SOL     OW 9998   0.924  10.456   6.713  0.0448  0.3956 -0.8539
35574SOL    HW1 9999   0.889  10.368   6.720 -1.0424  0.8305 -0.4816
35574SOL    HW210000   1.001  10.448   6.656  0.9890 -1.0583  0.5481
35575SOL     OW10001   0.970   2.695   3.526  0.4567  0.4471 -0.4763
35575SOL    HW110002   0.933   2.727   3.444 -1.1968 -0.2190 -0.0322
35575SOL    HW210003   1.023   2.620   3.501 -1.3957 -0.8117 -0.8066
35576SOL     OW10004   7.924  10.017   8.468 -0.0412  0.0623 -0.4699
35576SOL    HW110005   7.866  10.018   8.544  1.4320  0.6678  0.6895
35576SOL    HW210006   7.871   9.979   8.398 -1.5629 -0.1446  0.7457
35577SOL     OW10007   4.840   9.093   5.960 -0.1700  0.0199 -0.1953
35577SOL    HW110008   4.844   9.012   6.011  0.5121 -0.8271 -1.5136
35577SOL    HW210009   4.747   9.107   5.946 -0.2824 -1.0311 -0.6487
35578SOL     OW10010   8.137   5.324   5.987  0.3965 -0.2946  0.1359
35578SOL    HW110011   8.170   5.244   6.028  2.9265  0.4438 -0.2657
35578SOL    HW210012   8.137   5.305   5.894 -1.7731 -0.7223  0.1708
35579SOL     OW10013  10.646   5.638   3.671 -0.1596 -0.6007 -0.1130
35579SOL    HW110014  10.721   5.624   3.729  0.1445  0.0346 -0.3448
35579SOL    HW210015  10.680   5.693   3.600 -1.1222  0.6982  0.3816
35580SOL     OW10016   9.232   1.454   0.878 -0.6731  0.2487  0.3915
35580SOL    HW110017   9.205   1.440   0.787 -0.8895 -1.0041  0.6258
35580SOL    HW210018   9.273   1.371   0.903  0.4088  0.9660  1.0890
35581SOL     OW10019   5.925   9.599   2.783  0.2408  0.2982 -0.6112
35581SOL    HW110020   6.001   9.574   2.730 -0.9628 -0.9874 -1.8177
35581SOL    HW210021   5.909   9.524   2.840 -0.7958  0.0431 -1.2030
35582SOL     OW10022   7.024   0.508   4.595 -0.5048  0.1829  0.0888
35582SOL    HW110023   6.984   0.582   4.642  2.4038  2.0343 -0.0878
35582SOL    HW210024   7.055   0.546   4.513  0.0404 -1.5475 -0.5544
35583SOL     OW10025   2.198   1.683   7.238 -0.0653  0.3021  0.2433
35583SOL    HW110026   2.158   1.622   7.176  0.1503 -0.0723  0.4750
35583SOL    HW210027   2.250   1.628   7.296  1.5776  0.8630 -0.6358
35584SOL     OW10028  10.590   4.675   8.202  0.1871  0.3179 -0.0873
35584SOL    HW110029  10.520   4.633   8.251  0.0641  0.0656 -0.4720
35584SOL    HW210030  10.557   4.763   8.184  1.0064  1.0974  1.9155
35585SOL     OW10031  10.103   2.710  10.531  0.2697  0.1477  0.4463
35585SOL    HW110032  10.068   2.784  10.580  0.3257  0.2723  0.2983
35585SOL    HW210033  10.032   2.646  10.531  0.2760  0.1393  0.7037
35586SOL     OW10034   3.603   3.089   4.634 -0.1722 -0.3024  0.2204
35586SOL    HW110035   3.530   3.036   4.666 -1.0529  0.5506 -0.2921
35586SOL    HW210036   3.578   3.112   4.544 -0.5183  2.1055  0.8501
35587SOL     OW10037   9.607   0.047   4.153  0.5873  0.1573  0.0039
35587SOL    HW110038   9.515   0.074   4.145 -0.1042 -2.0309 -0.1334
35587SOL    HW210039   9.653   0.097   4.085 -0.6581  0.6349 -0.5186
35588SOL     OW10040   3.692   9.470   3.560 -0.1005 -0.2386 -0.0821
35588SOL    HW110041   3.765   9.411   3.581 -0.5525 -0.4348  0.9668
35588SOL    HW210042   3.669   9.448   3.469  0.1022 -1.2890  0.1085
35589SOL     OW10043   8.034   4.109   8.085  0.6693 -0.3814  0.1919
35589SOL    HW110044   7.946   4.071   8.088 -0.0721  1.2623  0.4335
35589SOL    HW210045   8.019   4.202   8.068  2.2239  0.3776  2.5425
35590SOL     OW10046   3.569   8.463   0.320 -0.2550  0.4068 -0.1821
35590SOL    HW110047   3.517   8.541   0.301  1.8089  2.1444  0.7970
35590SOL    HW210048   3.537   8.397   0.259 -2.4816  1.8273 -0.6643
35591SOL     OW10049   6.111   2.515   8.255  0.1460  0.7960  0.6157
35591SOL    HW110050   6.140   2.529   8.165  0.1298 -1.4529  0.1930
35591SOL    HW210051   6.160   2.578   8.307  0.4867  1.8380 -0.9120
35592SOL     OW10052   2.671   0.881   5.507 -0.5180 -0.0422 -0.6455
35592SOL    HW110053   2.577   0.895   5.493 -0.4643  0.0980 -0.8651
35592SOL    HW210054   2.714   0.938   5.443 -0.2818 -1.3465 -1.6901
35593SOL     OW10055   8.230   8.445   7.466 -0.0014 -0.1239  0.5463
35593SOL    HW110056   8.246   8.408   7.553  1.1610  1.4314  1.0396
35593SOL    HW210057   8.312   8.432   7.418  0.4399  1.7038  0.7296
35594SOL     OW10058   9.154   3.029   7.173 -0.1549 -0.1365 -0.4577
35594SOL    HW110059   9.161   2.942   7.134 -3.5393 -1.5190  1.5767
35594SOL    HW210060   9.156   3.088   7.098 -1.1899 -2.2467 -2.2802
35595SOL     OW10061   6.539   9.191   0.023 -0.2220 -0.3720  0.6612
35595SOL    HW110062   6.465   9.251   0.018 -0.4044 -0.6335  0.1486
35595SOL    HW210063   6.613   9.246   0.050 -0.2105  0.2471 -0.5735
35596SOL     OW10064   7.257   7.938   2.292  0.3761  0.1708 -0.0923
35596SOL    HW110065   7.286   7.956   2.382 -0.8252  0.2108  0.3077
35596SOL    HW210066   7.257   7.842   2.286  2.3267  0.1698 -0.7111
35597SOL     OW10067   1.017   5.720   9.341 -0.0224  0.4593  0.6198
35597SOL    HW110068   1.103   5.747   9.308 -0.5279  0.9048 -0.3568
35597SOL    HW210069   0.981   5.666   9.272 -1.3120  1.8234  0.1692
35598SOL     OW10070   9.749   2.190   6.618  0.2510 -0.1243  0.1942
35598SOL    HW110071   9.726   2.116   6.674 -1.9272 -0.6173 -1.2357
35598SOL    HW210072   9.835   2.168   6.582 -0.4401 -2.1050 -0.3783
35599SOL     OW10073   6.581   6.349  10.890 -0.1959 -0.1498 -0.5937
35599SOL    HW110074   6.528   6.428  10.883  0.3270  0.3549  0.6869
35599SOL    HW210075   6.529   6.290  10.944  0.3441  0.2040  0.3490
35600SOL     OW10076   8.521   2.907   6.345 -0.3500  0.3853  0.3288
35600SOL    HW110077   8.604   2.885   6.388 -0.4909 -0.2139  0.3115
35600SOL    HW210078   8.502   2.830   6.291  0.7244  1.8000 -2.2267
35601SOL     OW10079   5.761   0.660   8.391 -0.3661 -0.1124  0.1454
35601SOL    HW110080   5.825   0.648   8.460  1.9969 -0.3864 -1.9424
35601SOL    HW210081   5.737   0.753   8.396  0.0258 -0.0547  1.0914
35602SOL     OW10082   1.302   3.843   5.320 -0.0474 -0.2343  0.2896
35602SOL    HW110083   1.255   3.767   5.286  2.0638 -1.1171 -0.9191
35602SOL    HW210084   1.383   3.845   5.269  0.9009  1.6154  1.7336
35603SOL     OW10085   6.415   8.718   5.752 -0.5750 -0.4913  0.1322
35603SOL    HW110086   6.323   8.744   5.750 -0.8697 -1.4373  0.6675
35603SOL    HW210087   6.461   8.795   5.787 -1.0379  0.2777 -0.9088
35604SOL     OW10088   9.860   2.353   0.374 -0.3735 -0.2668 -0.3517
35604SOL    HW110089   9.953   2.375   0.376 -0.5096  0.8343  3.8014
35604SOL    HW210090   9.817   2.430   0.337  0.1196  1.9011  3.0708
35605SOL     OW10091   9.596   1.895   6.330 -0.4557  0.7397  0.1938
35605SOL    HW110092   9.583   1.800   6.340  1.5671  0.6126  2.6540
35605SOL    HW210093   9.597   1.928   6.420 -0.5669  3.0409 -0.5954
35606SOL     OW10094   0.917  10.305   9.327 -0.2533 -0.0866  0.2392
35606SOL    HW110095   0.878  10.224   9.293  0.3936 -0.5302  0.5449
35606SOL    HW210096   1.006  10.305   9.292 -0.1582  0.3504  0.4795
35607SOL     OW10097   7.776   4.078   2.308 -0.2009 -0.3186 -0.0957
35607SOL    HW110098   7.854   4.022   2.308  0.5958  0.7411 -1.1248
35607SOL    HW210099   7.722   4.045   2.237 -0.3132 -0.5459  0.0942
35608SOL     OW10100   7.415   2.662   9.565  0.6107 -0.2910  0.0046
35608SOL    HW110101   7.396   2.578   9.606  0.3537 -0.4583 -0.4460
35608SOL    HW210102   7.497   2.647   9.517  2.2151  0.5583  2.3200
35609SOL     OW10103   6.315   8.200   6.962  0.5054  0.2025 -0.4801
35609SOL    HW110104   6.326   8.236   6.874  1.0078  0.1429 -0.4409
35609SOL    HW210105   6.375   8.251   7.017 -1.8602  2.2672  0.3964
35610SOL     OW10106   1.781   3.810   4.195  0.6093 -0.6374  0.5243
35610SOL    HW110107   1.876   3.807   4.203  0.7961 -1.1113 -1.4107
35610SOL    HW210108   1.761   3.901   4.172  0.4036 -0.1398  2.5017
35611SOL     OW10109   3.255   5.249   3.999  1.0497  1.0484 -0.1123
35611SOL    HW110110   3.171   5.277   3.962  1.2568  0.6772 -0.8635
35611SOL    HW210111   3.235   5.167   4.044  1.4322 -0.2125 -2.1680
35612SOL     OW10112   7.077   1.044   7.493 -0.2939 -0.2971 -0.0776
35612SOL    HW110113   7.070   0.998   7.576  2.0817  0.2441  0.5075
35612SOL    HW210114   7.065   0.977   7.427 -0.6587 -1.0323  0.7155
35613SOL     OW10115   5.058   5.702   7.812  0.1443  0.7129  0.0246
35613SOL    HW110116   5.003   5.671   7.740  0.2135  1.3988 -0.3244
35613SOL    HW210117   5.129   5.750   7.770  1.3020 -0.5628  0.4378
35614SOL     OW10118   7.904   9.746  10.866 -0.4666  0.1351 -0.0150
35614SOL    HW110119   7.982   9.693  10.880  0.6139  2.1543  2.4173
35614SOL    HW210120   7.834   9.682  10.852  1.3490 -1.7665 -1.0806
35615SOL     OW10121   4.937   5.479   0.963 -0.2704 -0.1427 -0.7070
35615SOL    HW110122   4.970   5.501   0.875  1.5654 -0.4451 -0.1327
35615SOL    HW210123   4.954   5.386   0.972 -0.1830 -0.0550  0.0749
35616SOL     OW10124   7.971   8.721   6.961 -0.1027  0.1740 -0.1046
35616SOL    HW110125   7.934   8.647   7.010  0.8543  0.3580  0.9158
35616SOL    HW210126   7.909   8.792   6.975  0.7160  0.5733  1.8636
35617SOL     OW10127   0.268   9.368   3.684 -0.0875  0.0608 -0.2413
35617SOL    HW110128   0.251   9.274   3.687  0.0560  0.0426  0.0422
35617SOL    HW210129   0.363   9.375   3.682 -0.0327  0.2246  1.3413
35618SOL     OW10130   9.875  10.183   9.899 -0.3432  0.0283 -0.3668
35618SOL    HW110131   9.835  10.198   9.984  0.3251  2.3468 -0.3927
35618SOL    HW210132   9.815  10.223   9.836 -0.4449 -0.9739 -0.9447
35619SOL     OW10133   8.249   9.547   2.258  0.9309  0.7540  0.3784
35619SOL    HW110134   8.172   9.600   2.241  1.2306  2.0160  2.5916
35619SOL    HW210135   8.315   9.609   2.288  2.2177 -0.5286  0.3201
35620SOL     OW10136   9.295   5.479   6.507  0.2289  0.7521  0.3202
35620SOL    HW110137   9.217   5.532   6.526 -1.0274 -0.5832 -0.8853
35620SOL    HW210138   9.352   5.492   6.583 -1.7692  0.6739  1.9047
35621SOL     OW10139   0.101   1.846   1.431  0.2081 -0.0870 -0.0941
35621SOL    HW110140   0.086   1.812   1.343 -1.3614  1.2358 -0.3810
35621SOL    HW210141   0.060   1.782   1.489 -0.8649  0.2298 -0.4912
35622SOL     OW10142   7.105   0.526   7.700 -0.1812 -0.0319 -0.2287
35622SOL    HW110143   7.135   0.435   7.696 -0.5469 -0.1595 -0.0929
35622SOL    HW210144   7.129   0.556   7.788  0.8688  0.3332 -0.6227
35623SOL     OW10145   5.539   5.052   6.003  0.1604 -0.1719  0.0356
35623SOL    HW110146   5.535   5.120   6.069 -0.7602  0.1938 -0.3724
35623SOL    HW210147   5.554   5.099   5.921  0.5898 -0.5581 -0.1120
35624SOL     OW10148   6.113   8.863   5.452 -0.0249 -0.0802  0.6110
35624SOL    HW110149   6.039   8.887   5.507  0.2169  1.2571  0.3852
35624SOL    HW210150   6.081   8.790   5.399 -1.2618  0.6243  0.3462
35625SOL     OW10151   9.171   3.621   9.822 -0.1437  0.5429 -0.7930
35625SOL    HW110152   9.174   3.703   9.773 -1.8328  1.7863  1.0225
35625SOL    HW210153   9.107   3.568   9.775 -0.1442  0.8449 -1.1419
35626SOL     OW10154   0.780  10.114   0.437  0.0461  0.1687  0.0939
35626SOL    HW110155   0.869  10.079   0.439  0.5735  1.4640  0.1331
35626SOL    HW210156   0.725  10.041   0.465  0.9380 -1.0892 -1.3006
35627SOL     OW10157   1.475   0.730   4.928 -0.6626  0.2815  0.2077
35627SOL    HW110158   1.432   0.800   4.879 -1.7831 -0.6463 -0.1854
35627SOL    HW210159   1.422   0.720   5.007 -0.8338 -0.4479  0.0154
35628SOL     OW10160   6.883   9.333   9.454 -0.0350 -0.2512  0.0509
35628SOL    HW110161   6.801   9.289   9.428  0.1301  0.4818 -1.9089
35628SOL    HW210162   6.918   9.278   9.524 -1.7887 -1.0309  0.3830
35629SOL     OW10163   4.662   4.054  11.343 -0.5474 -0.3338 -0.0303
35629SOL    HW110164   4.683   4.032  11.434 -1.6396  0.7709  0.5158
35629SOL    HW210165   4.691   4.144  11.333 -0.5283 -0.4196 -0.7546
35630SOL     OW10166   0.521   5.105   3.773  0.0584 -0.1022 -0.0602
35630SOL    HW110167   0.611   5.137   3.778  0.4063 -0.8220 -1.1954
35630SOL    HW210168   0.492   5.130   3.685 -0.6773 -0.3354  0.1078
35631SOL     OW10169  10.783   4.898   5.971  0.5533 -0.1249 -0.0151
35631SOL    HW110170  10.808   4.991   5.969 -1.5719  0.5782  1.8229
35631SOL    HW210171  10.688   4.899   5.976  0.4459 -2.4648 -0.7686
35632SOL     OW10172   3.886   9.319   7.703 -0.1468  0.2924  0.3191
35632SOL    HW110173   3.864   9.274   7.785 -0.4765  1.2353  0.7546
35632SOL    HW210174   3.981   9.323   7.703 -0.1754  1.4479  1.3088
35633SOL     OW10175   2.859   7.350   7.053 -0.0161 -0.1796 -0.3283
35633SOL    HW110176   2.874   7.265   7.094 -0.6357 -1.1363 -2.0047
35633SOL    HW210177   2.883   7.414   7.121  2.4910 -1.6263  0.2633
35634SOL     OW10178   5.533   6.112   1.330 -0.3668  0.1264 -0.4170
35634SOL    HW110179   5.585   6.036   1.305 -0.2031 -0.1279  0.6602
35634SOL    HW210180   5.442   6.087   1.311 -0.2409 -0.0091 -0.8511
35635SOL     OW10181   9.508   4.541   7.531 -0.3862  0.1451  0.2484
35635SOL    HW110182   9.416   4.516   7.542 -0.9670  1.6389 -0.8700
35635SOL    HW210183   9.514   4.628   7.569  0.5395  0.1239  0.1747
35636SOL     OW10184   2.697   3.253   1.344  0.0254  0.0551 -0.0331
35636SOL    HW110185   2.613   3.263   1.390  0.7236  0.7736  1.1159
35636SOL    HW210186   2.697   3.162   1.314 -1.0859 -0.0054  0.0878
35637SOL     OW10187   6.067   9.082   1.018  0.1798 -0.6773  0.2439
35637SOL    HW110188   6.141   9.025   1.040  0.1002 -0.3895  1.3124
35637SOL    HW210189   6.094   9.168   1.048 -1.3697 -0.9098  2.5619
35638SOL     OW10190   7.205   8.147   8.040 -0.0978  0.0266 -0.2768
35638SOL    HW110191   7.247   8.081   7.985 -2.4776 -0.2388 -1.9113
35638SOL    HW210192   7.117   8.156   8.004 -1.1015  1.3580  2.2649
35639SOL     OW10193   1.291   0.981   8.260 -0.3712  0.3234 -0.3977
35639SOL    HW110194   1.253   0.941   8.338 -2.1173  1.8578 -0.4030
35639SOL    HW210195   1.242   0.943   8.187 -0.3969  0.6758 -0.5665
35640SOL     OW10196   0.172  10.774  10.450  0.4159 -0.4973  0.2790
35640SOL    HW110197   0.126  10.734  10.523 -1.1343  1.5817  0.5418
35640SOL    HW210198   0.124  10.745  10.372 -0.4427  0.4129  0.4386
35641SOL     OW10199   3.623   7.969   2.893 -0.0186 -0.2078 -0.3347
35641SOL    HW110200   3.664   7.903   2.837 -1.2134 -0.9345 -0.3864
35641SOL    HW210201   3.626   7.932   2.981  1.0730  0.5527 -0.0280
35642SOL     OW10202  11.031   3.937   6.604 -0.8992  0.1477  0.1942
35642SOL    HW110203  11.013   3.979   6.520 -1.5369 -0.4355  0.0354
35642SOL    HW210204  11.009   4.004   6.669 -0.3120  0.6366 -0.0923
35643SOL     OW10205   2.421   9.876   5.301  0.3221 -0.2712 -0.4711
35643SOL    HW110206   2.488   9.844   5.240  3.0494  1.8248  1.1728
35643SOL    HW210207   2.435   9.970   5.304 -2.0005  0.0983  0.8324
35644SOL     OW10208   7.341   2.769   3.672 -0.1852 -0.1353 -0.6494
35644SOL    HW110209   7.336   2.737   3.762  1.6244 -0.3986 -0.6099
35644SOL    HW210210   7.396   2.848   3.677 -2.0260  1.2545 -1.2017
35645SOL     OW10211   4.686   6.603   8.846  0.0503  0.3633 -0.0784
35645SOL    HW110212   4.773   6.565   8.858  0.6064  1.6592  0.1466
35645SOL    HW210213   4.627   6.548   8.898  0.8014 -0.2328  0.1507
35646SOL     OW10214  10.588   0.011   6.830  0.0187 -0.2925 -0.5584
35646SOL    HW110215  10.639  -0.021   6.756  0.4772 -0.6264 -0.1134
35646SOL    HW210216  10.527  -0.061   6.849  0.6173 -0.6582  0.0416
35647SOL     OW10217   5.766   0.502   7.143  0.7621  0.1667 -1.0965
35647SOL    HW110218   5.804   0.429   7.095 -1.2069 -0.4203 -1.8327
35647SOL    HW210219   5.824   0.576   7.123  0.4776 -0.2404 -3.7513
35648SOL     OW10220  10.764   2.278   8.614  0.0992 -0.5153  0.4786
35648SOL    HW110221  10.731   2.200   8.570  0.0414 -0.9751  1.3163
35648SOL    HW210222  10.781   2.249   8.704  1.3558  0.0933  0.4559
35649SOL     OW10223   2.307   2.934   9.679  0.1331 -0.2408  0.0512
35649SOL    HW110224   2.279   2.956   9.590 -0.3892 -2.1959 -0.3041
35649SOL    HW210225   2.261   2.998   9.734 -1.1287 -0.2589 -0.9208
35650SOL     OW10226   8.939   8.403   4.009  0.4006  0.2759 -0.1565
35650SOL    HW110227   8.914   8.317   3.975  0.9610 -0.3042  0.8401
35650SOL    HW210228   9.028   8.416   3.976  0.7076 -0.0038  0.5579
35651SOL     OW10229   5.356   5.154   5.527 -0.2403 -0.3308 -0.0189
35651SOL    HW110230   5.328   5.196   5.608 -1.6232 -1.0872 -0.0811
35651SOL    HW210231   5.296   5.186   5.461  1.2130  0.7061 -0.9074
35652SOL     OW10232   9.401   9.985   2.624 -0.0716  0.0576 -0.0000
35652SOL    HW110233   9.333   9.921   2.601  0.2782 -1.2261  2.1968
35652SOL    HW210234   9.368  10.029   2.702  1.7276 -0.9206  1.4090
35653SOL     OW10235   1.389   2.767   6.655  0.5127 -0.1887 -0.5033
35653SOL    HW110236   1.414   2.820   6.579  0.0236  0.6157 -0.1245
35653SOL    HW210237   1.295   2.781   6.664  1.0736  3.1399  2.6707
35654SOL     OW10238  11.133   2.154   8.405 -0.2184 -0.0140 -0.2725
35654SOL    HW110239  11.181   2.076   8.432  0.0689  0.3951  0.4529
35654SOL    HW210240  11.101   2.192   8.487 -2.6700 -0.8005 -0.7963
35655SOL     OW10241   6.011   5.590   2.135  0.2187 -0.5662 -0.0727
35655SOL    HW110242   6.039   5.660   2.193  1.4386 -1.2151  0.1490
35655SOL    HW210243   5.927   5.561   2.172  0.3105 -0.0492  0.5593
35656SOL     OW10244   9.241   5.658   1.792  0.4062  0.1091  0.0430
35656SOL    HW110245   9.331   5.647   1.822  0.6007 -1.4561 -0.9848
35656SOL    HW210246   9.238   5.747   1.757  1.8103 -0.0823 -0.6387
35657SOL     OW10247   1.625   8.660   8.877  0.0353 -0.0063  0.4809
35657SOL    HW110248   1.540   8.704   8.867  0.0625  0.5273  2.2386
35657SOL    HW210249   1.603   8.567   8.881 -0.5879  0.1630  1.6423
35658SOL     OW10250   4.260   4.366   3.786  0.1428 -0.0380 -0.5069
35658SOL    HW110251   4.171   4.375   3.821 -0.1119 -0.2784 -1.0738
35658SOL    HW210252   4.250   4.378   3.692  0.9904  1.7847 -0.4096
35659SOL     OW10253   9.734   3.609   8.826  0.9895  0.0709  0.2163
35659SOL    HW110254   9.805   3.579   8.771  1.8474  0.9210  0.8256
35659SOL    HW210255   9.671   3.649   8.766  1.4056  0.0330 -0.2448
35660SOL     OW10256   7.342   6.091   7.780  0.7579  0.0476  0.1671
35660SOL    HW110257   7.298   6.089   7.866 -2.0988  0.4477 -1.1584
35660SOL    HW210258   7.316   6.009   7.738  0.0502  0.9397 -1.2021
35661SOL     OW10259   0.444   0.067   0.835  0.1762  0.6765  0.4025
35661SOL    HW110260   0.437   0.136   0.902 -0.4356  1.1236 -0.1044
35661SOL    HW210261   0.504   0.003   0.873  0.8169  1.5210  0.8617
35662SOL     OW10262  10.357   7.320   3.632  0.1349  0.4873 -0.2489
35662SOL    HW110263  10.336   7.229   3.653  2.0413  0.0572 -0.0747
35662SOL    HW210264  10.434   7.315   3.576 -1.3360  1.9023 -2.5624
35663SOL     OW10265   5.759   3.453   3.318 -0.1299  0.0407 -0.5151
35663SOL    HW110266   5.852   3.452   3.297 -0.4264 -0.4231 -1.9654
35663SOL    HW210267   5.753   3.418   3.406  1.0754  0.2304 -0.3405
35664SOL     OW10268   4.826   9.370  10.807  0.1697 -0.8552 -0.3380
35664SOL    HW110269   4.870   9.425  10.742 -1.6734  0.6661 -0.4105
35664SOL    HW210270   4.896   9.320  10.848  1.7476  0.3458 -1.4328
35665SOL     OW10271   8.757   7.748   3.677 -0.1955  0.2869  0.4311
35665SOL    HW110272   8.684   7.802   3.646  0.3014 -0.1685 -1.6632
35665SOL    HW210273   8.752   7.668   3.625 -0.3860 -1.3815  2.8476
35666SOL     OW10274   0.594   4.715   7.954  0.3946  0.0345 -0.6462
35666SOL    HW110275   0.527   4.652   7.926 -3.3151  3.8565 -1.3160
35666SOL    HW210276   0.614   4.690   8.044 -2.0986 -1.2032 -0.3597
35667SOL     OW10277   9.782   9.604   5.485 -0.1407  0.1019  0.3529
35667SOL    HW110278   9.844   9.599   5.558 -0.8126 -1.6425  0.8661
35667SOL    HW210279   9.786   9.695   5.456  1.7700  0.3120  1.1222
35668SOL     OW10280   3.140   6.050   5.864  0.6904  0.4906 -1.4296
35668SOL    HW110281   3.160   5.992   5.790  0.4877 -2.3617  0.5715
35668SOL    HW210282   3.217   6.046   5.920  0.0248  0.8007 -0.4584
35669SOL     OW10283   4.421   5.695   4.266  0.2933  0.6498 -0.1015
35669SOL    HW110284   4.391   5.741   4.344  0.2566  1.5298 -0.6211
35669SOL    HW210285   4.347   5.640   4.240 -1.0166  2.9481 -1.4913
35670SOL     OW10286   0.136   2.468   7.602  0.0910 -0.4031  0.4400
35670SOL    HW110287   0.181   2.544   7.566 -1.2062  0.1022 -0.1835
35670SOL    HW210288   0.161   2.466   7.694  2.3269 -0.8722 -0.1180
35671SOL     OW10289  11.297   9.100   0.095  0.0553  0.7559 -0.4384
35671SOL    HW110290  11.307   9.164   0.025  0.8389  0.6865 -0.4065
35671SOL    HW210291  11.221   9.129   0.145 -2.3645 -0.7616 -2.9699
35672SOL     OW10292   1.755   2.846   7.548 -0.4267 -0.0266 -1.0624
35672SOL    HW110293   1.676   2.803   7.583  0.5811 -0.3978  0.8942
35672SOL    HW210294   1.754   2.933   7.587  1.6885 -1.0624  1.6603
35673SOL     OW10295  10.453   6.047   0.607 -0.0516 -0.3443  0.3464
35673SOL    HW110296  10.494   6.047   0.693  0.4692  2.0083  0.1497
35673SOL    HW210297  10.498   5.978   0.558  2.1496  0.6611  0.8617
35674SOL     OW10298  10.046   2.790   7.798  0.2011  0.3931 -0.5497
35674SOL    HW110299  10.132   2.796   7.840  0.4531 -0.3632 -0.9476
35674SOL    HW210300   9.993   2.856   7.843  0.4931 -0.3116  0.8732
35675SOL     OW10301   7.708   8.149   6.491  0.3048 -0.4995 -0.0310
35675SOL    HW110302   7.753   8.228   6.520  1.5624 -0.9107 -0.8327
35675SOL    HW210303   7.653   8.177   6.418 -0.6022 -0.0494  0.7924
35676SOL     OW10304   0.427   0.088   4.762 -0.2273 -0.6060 -0.6166
35676SOL    HW110305   0.349   0.034   4.777 -0.5770  0.2776  0.9544
35676SOL    HW210306   0.467   0.096   4.849  0.6338  0.4370 -1.0893
35677SOL     OW10307   5.260   7.601  11.330  0.4947  0.6300  0.1908
35677SOL    HW110308   5.351   7.601  11.300  0.6585  0.3039  0.6822
35677SOL    HW210309   5.250   7.519  11.378 -0.0829  0.6296  0.0782
35678SOL     OW10310   0.821   9.511   1.722  0.1300 -0.5899 -0.2689
35678SOL    HW110311   0.895   9.540   1.776 -0.1512  0.3563 -0.3877
35678SOL    HW210312   0.823   9.569   1.646  1.2492 -2.6337 -1.8997
35679SOL     OW10313   0.884   0.041   5.923 -0.0857  0.4795  0.1018
35679SOL    HW110314   0.800   0.061   5.964 -0.4655 -0.7579 -0.0258
35679SOL    HW210315   0.950   0.081   5.980 -0.7389  1.0890  0.4328
35680SOL     OW10316   5.171   6.581   8.783 -0.2028 -0.1688  0.1945
35680SOL    HW110317   5.148   6.617   8.697  0.0917 -1.6303 -0.5182
35680SOL    HW210318   5.144   6.649   8.845  0.1824  1.2200 -1.0793
35681SOL     OW10319   2.813   5.341  10.626 -0.3569 -0.1985 -0.0376
35681SOL    HW110320   2.883   5.306  10.680  0.8373  0.3879 -1.1626
35681SOL    HW210321   2.819   5.436  10.637 -0.8362 -0.1289 -0.3178
35682SOL     OW10322   3.752   6.837   8.057 -0.2373  0.2516 -0.2370
35682SOL    HW110323   3.765   6.776   7.984 -1.2984  1.4218 -1.4439
35682SOL    HW210324   3.778   6.922   8.022  0.0672  0.7116  1.0469
35683SOL     OW10325   0.753   5.493   6.454 -0.4692 -0.2430  0.7949
35683SOL    HW110326   0.704   5.462   6.378 -0.7410  0.6190  0.6113
35683SOL    HW210327   0.774   5.584   6.435  1.5753 -0.6771  0.6999
35684SOL     OW10328   1.989   8.422   7.022 -0.8247 -0.5062 -0.0240
35684SOL    HW110329   2.065   8.463   6.979 -0.8925  0.8468  1.0695
35684SOL    HW210330   2.027   8.351   7.073 -0.4070 -0.4079 -0.1873
35685SOL     OW10331   4.732   0.815   7.712 -0.9242  0.0384 -0.7182
35685SOL    HW110332   4.690   0.738   7.673 -0.6543 -1.3692  1.5843
35685SOL    HW210333   4.771   0.783   7.793  0.5609  2.3043 -0.4329
35686SOL     OW10334   8.860   9.416   6.988 -0.4332 -0.4301  0.6962
35686SOL    HW110335   8.940   9.371   6.959  0.8489  1.7207  0.6459
35686SOL    HW210336   8.865   9.415   7.083 -1.5746 -2.2780  0.7803
35687SOL     OW10337   4.244   3.966  11.055 -0.8860  0.3317  0.1424
35687SOL    HW110338   4.337   3.982  11.040 -0.7171  0.2195  1.0270
35687SOL    HW210339   4.223   4.017  11.133 -1.8688  1.3501 -0.7337
35688SOL     OW10340   2.025  10.445  11.244 -1.0010 -0.6420 -0.1424
35688SOL    HW110341   2.054  10.360  11.278 -1.7033 -1.1570 -0.7844
35688SOL    HW210342   2.064  10.451  11.157  0.5200  0.5211  0.5778
35689SOL     OW10343   4.590   0.955   1.691  0.5809  0.2041 -0.4976
35689SOL    HW110344   4.600   1.022   1.624  0.1785 -0.0824 -0.8460
35689SOL    HW210345   4.556   1.002   1.767 -0.5306  0.2612 -1.0107
35690SOL     OW10346   7.224   4.769   6.414 -0.1397 -0.8192  0.3807
35690SOL    HW110347   7.255   4.678   6.415  1.0088 -0.4655 -0.4684
35690SOL    HW210348   7.169   4.774   6.336 -1.7254 -1.2265  1.4265
35691SOL     OW10349   0.658   1.429   5.099  0.3682  0.2420  0.0771
35691SOL    HW110350   0.666   1.333   5.100  1.0270  0.2403 -1.7086
35691SOL    HW210351   0.704   1.456   5.019 -0.2356  2.0149  0.2870
35692SOL     OW10352   2.948   8.851   8.408 -0.0561 -0.6518  0.0228
35692SOL    HW110353   2.998   8.875   8.330  0.3245 -1.5759 -0.0242
35692SOL    HW210354   3.015   8.836   8.476 -0.3695 -0.1030  0.4596
35693SOL     OW10355   7.766   3.574   8.384  0.3856 -0.0174 -0.5323
35693SOL    HW110356   7.811   3.490   8.373  0.0518 -0.0704 -1.6444
35693SOL    HW210357   7.674   3.549   8.398  0.2709  0.1665 -0.9648
35694SOL     OW10358   7.902   5.007   4.114  0.7473 -0.6989 -0.3954
35694SOL    HW110359   7.994   4.996   4.137  0.9784  0.4598 -0.7266
35694SOL    HW210360   7.872   5.081   4.168 -0.2568 -1.6489  0.4194
35695SOL     OW10361   4.807   9.846   5.652  0.0552 -0.1063  0.4984
35695SOL    HW110362   4.755   9.781   5.700  0.3367 -0.8834 -0.2353
35695SOL    HW210363   4.829   9.912   5.718 -0.5166 -0.5779  1.1788
35696SOL     OW10364   9.531   8.093   3.996  0.5080  0.4206  0.6201
35696SOL    HW110365   9.616   8.088   3.953  0.0217 -0.7711 -0.2550
35696SOL    HW210366   9.513   8.004   4.026  0.0931  0.9004  1.8759
35697SOL     OW10367   1.507   7.617   7.033  0.1175 -0.0687  0.5311
35697SOL    HW110368   1.551   7.645   7.114  0.6758 -1.1591  0.6209
35697SOL    HW210369   1.529   7.525   7.024 -0.5592 -0.1523 -0.4823
35698SOL     OW10370   2.937  11.101   1.506 -0.3833 -0.4064 -0.1133
35698SOL    HW110371   2.921  11.161   1.578 -0.5975 -0.2509 -0.2942
35698SOL    HW210372   2.901  11.017   1.536 -0.3264 -0.3813  0.0263
35699SOL     OW10373   1.897  10.531   0.071 -0.0841 -0.1464 -0.2931
35699SOL    HW110374   1.953  10.526  -0.006  0.3110  1.5941 -0.1420
35699SOL    HW210375   1.949  10.493   0.141  0.3103  0.0868 -0.4616
35700SOL     OW10376   4.227   1.127   4.096 -0.3299 -0.0426 -0.1343
35700SOL    HW110377   4.164   1.068   4.136  1.5704 -1.8992  0.3139
35700SOL    HW210378   4.311   1.102   4.134  0.8385  1.6578 -1.4272
35701SOL     OW10379   0.045   6.516   7.287  0.1688 -1.3517  0.3476
35701SOL    HW110380   0.111   6.474   7.231 -0.7597 -1.0774 -0.9979
35701SOL    HW210381   0.095   6.549   7.362  1.9050  0.4882 -1.4971
35702SOL     OW10382   9.180   0.496   0.542  0.3517  0.7044 -0.1906
35702SOL    HW110383   9.264   0.458   0.568 -0.4367 -0.6835  0.4675
35702SOL    HW210384   9.131   0.423   0.504 -0.3069  1.6491 -1.2141
35703SOL     OW10385   3.187   6.770   7.272 -0.1836  0.2526 -0.4404
35703SOL    HW110386   3.195   6.693   7.216  2.0300  0.0399  0.0441
35703SOL    HW210387   3.245   6.751   7.346 -0.4713  1.9015  0.2478
35704SOL     OW10388   1.017   5.798   7.614 -0.0849 -0.1422 -0.1320
35704SOL    HW110389   0.923   5.784   7.604 -0.2067  1.0586 -0.8645
35704SOL    HW210390   1.044   5.839   7.531  1.3663 -1.8138 -0.5435
35705SOL     OW10391   1.673   8.336   5.270  0.2053 -0.7026 -0.2571
35705SOL    HW110392   1.712   8.346   5.184  0.8473  3.5465  0.3083
35705SOL    HW210393   1.748   8.329   5.330 -0.1509 -0.7779  0.1872
35706SOL     OW10394   2.724   4.636   7.864 -0.3023  0.3222 -0.0571
35706SOL    HW110395   2.817   4.651   7.851 -0.2847 -0.1912 -0.6107
35706SOL    HW210396   2.714   4.620   7.958  0.6587 -2.6360 -0.3472
35707SOL     OW10397   9.747   6.656  10.947  0.1855  0.0110 -0.5663
35707SOL    HW110398   9.653   6.672  10.953  0.1065 -0.0876 -1.3293
35707SOL    HW210399   9.776   6.709  10.872  0.4648 -1.0196 -1.2182
35708SOL     OW10400   7.510   6.379   5.445 -0.2907  0.0776 -0.1231
35708SOL    HW110401   7.416   6.385   5.424  0.1592 -0.4865 -2.5508
35708SOL    HW210402   7.519   6.292   5.484 -0.5903 -0.4272 -1.1371
35709SOL     OW10403   3.612   0.704   6.958 -0.5810 -0.3123  0.5784
35709SOL    HW110404   3.707   0.710   6.968 -0.5983  3.8263  0.0424
35709SOL    HW210405   3.600   0.668   6.870  0.5160 -0.1736  0.3535
35710SOL     OW10406   6.945   8.810   8.819  0.0220  0.1256 -0.6461
35710SOL    HW110407   6.898   8.853   8.891 -2.2219 -1.3882 -1.0974
35710SOL    HW210408   6.912   8.720   8.819  2.0537 -0.6938 -1.8474
35711SOL     OW10409   7.116   8.143   1.730  0.0048 -0.6036 -0.2413
35711SOL    HW110410   7.133   8.214   1.792 -1.2918  0.9378 -1.5609
35711SOL    HW210411   7.196   8.090   1.732  1.0095  0.8516  0.8209
35712SOL     OW10412   3.185   0.199   3.498 -0.2559 -0.1836  0.1731
35712SOL    HW110413   3.125   0.241   3.559 -1.9402 -0.7613 -1.0111
35712SOL    HW210414   3.163   0.106   3.502  1.6271 -0.6435  0.8165
35713SOL     OW10415   4.191   5.123  10.116 -0.1071  0.1635  0.0054
35713SOL    HW110416   4.233   5.178  10.050 -1.9603  0.7324 -0.7634
35713SOL    HW210417   4.192   5.035  10.079 -3.2447  0.8213 -2.0301
35714SOL     OW10418   8.633   8.903   1.199 -0.4443 -0.1312  0.3246
35714SOL    HW110419   8.599   8.822   1.236  0.2353 -0.7580 -0.3726
35714SOL    HW210420   8.625   8.891   1.104  0.1002  0.4245  0.2020
35715SOL     OW10421   1.139  11.023   6.515  0.0382  0.0108  0.0797
35715SOL    HW110422   1.044  11.015   6.519  0.0726 -1.2613 -0.8393
35715SOL    HW210423   1.170  10.961   6.581  0.2455  1.1274  1.0674
35716SOL     OW10424   7.033  11.248   7.038  0.3645  0.2029  0.0080
35716SOL    HW110425   6.955  11.262   7.092  1.1599  1.1454  0.9629
35716SOL    HW210426   7.009  11.284   6.952 -0.5154 -0.2423  0.0561
35717SOL     OW10427   3.412   9.026   4.438 -0.5106 -0.1096  0.6345
35717SOL    HW110428   3.422   9.049   4.530  1.1072 -0.4072  0.5537
35717SOL    HW210429   3.318   9.038   4.420 -0.3210  3.4215  1.3754
35718SOL     OW10430   3.628  10.294   2.763  0.1061  0.7265  0.3313
35718SOL    HW110431   3.537  10.269   2.783 -0.1259  0.6498 -0.7691
35718SOL    HW210432   3.680  10.222   2.799 -0.5285 -1.1881 -2.2921
35719SOL     OW10433   6.885   0.610   3.357 -0.5859  0.1031 -0.1588
35719SOL    HW110434   6.930   0.535   3.395  0.0049  0.5348  0.0123
35719SOL    HW210435   6.951   0.652   3.301 -0.7897  0.7057  0.0477
35720SOL     OW10436   7.607   0.437   7.113 -0.0453  0.8260 -0.0741
35720SOL    HW110437   7.648   0.458   7.029  0.0434  0.0259 -0.2397
35720SOL    HW210438   7.519   0.474   7.106 -1.2246 -1.9777 -1.8525
35721SOL     OW10439   7.675   3.080   6.963 -0.3998  0.0887 -0.0294
35721SOL    HW110440   7.764   3.113   6.979 -0.8076  0.7814  0.8675
35721SOL    HW210441   7.630   3.090   7.047 -1.2869 -0.4121 -0.4340
35722SOL     OW10442   6.327  10.224   3.159 -1.1618 -0.2631  0.3855
35722SOL    HW110443   6.319  10.129   3.165 -0.1848 -0.3715  0.1137
35722SOL    HW210444   6.263  10.250   3.092 -1.8352 -0.6606  0.8744
35723SOL     OW10445  10.752   1.574   8.900 -0.2738 -0.0743 -0.2788
35723SOL    HW110446  10.837   1.555   8.940 -0.3047 -3.0160 -1.3203
35723SOL    HW210447  10.773   1.623   8.821  0.1765  1.6368  0.8594
35724SOL     OW10448  10.308   0.230   9.167  0.2011  0.4200 -0.3278
35724SOL    HW110449  10.368   0.227   9.242 -0.4579 -1.6900  0.1882
35724SOL    HW210450  10.290   0.323   9.155  1.8520  0.9526  0.8831
35725SOL     OW10451   9.851  10.386   8.022  0.2293 -0.4131 -0.2743
35725SOL    HW110452   9.813  10.414   8.105 -0.7923  0.3455 -0.9800
35725SOL    HW210453   9.807  10.439   7.956 -0.5926 -2.5204 -1.5306
35726SOL     OW10454   7.097  10.974   9.655  0.2373 -0.0365 -0.0681
35726SOL    HW110455   7.172  10.945   9.604 -0.0262  0.7512 -0.9274
35726SOL    HW210456   7.127  11.053   9.700  0.3781 -0.5633  0.7887
35727SOL     OW10457   6.028   4.149   7.139 -0.0054  0.1757 -0.2941
35727SOL    HW110458   6.061   4.182   7.056 -1.4378  0.1339 -0.9135
35727SOL    HW210459   5.966   4.080   7.115 -1.0293  0.6982  0.7523
35728SOL     OW10460   1.266   7.084   5.950 -0.0674  0.1798 -0.3946
35728SOL    HW110461   1.307   7.067   6.035  0.3025  0.2944 -0.5483
35728SOL    HW210462   1.173   7.067   5.965  0.1291 -0.8312 -0.2374
35729SOL     OW10463   1.841   8.309   5.478 -0.0741  0.1714  0.3837
35729SOL    HW110464   1.843   8.288   5.572  0.3289 -0.3935  0.2509
35729SOL    HW210465   1.927   8.282   5.446 -1.2141 -2.3850 -0.7491
35730SOL     OW10466   0.921   7.629   1.981  0.3571  0.5017  0.0366
35730SOL    HW110467   1.003   7.612   1.935  0.2999  0.3353 -0.0076
35730SOL    HW210468   0.885   7.542   1.998  0.9795  0.5082  1.5106
35731SOL     OW10469   0.903   0.323   7.242  0.3410  0.1144 -0.4195
35731SOL    HW110470   0.850   0.399   7.263 -0.0169 -0.1819 -0.2436
35731SOL    HW210471   0.869   0.253   7.298  0.7576 -0.1396 -0.4764
35732SOL     OW10472   2.603   7.321   9.693 -0.1623  0.2171  0.4798
35732SOL    HW110473   2.687   7.285   9.667  1.1690  1.2710  2.9981
35732SOL    HW210474   2.614   7.416   9.688 -1.6545  0.3786 -0.4107
35733SOL     OW10475   0.987   6.148   5.727 -0.1257  0.4248 -0.3201
35733SOL    HW110476   0.899   6.137   5.693 -0.7464 -1.6705  1.7324
35733SOL    HW210477   1.034   6.069   5.700  0.8873  1.0948 -0.6127
35734SOL     OW10478   5.258  10.377   5.263 -0.2987 -0.8359  0.1351
35734SOL    HW110479   5.217  10.315   5.202 -1.0272 -0.0457 -0.2047
35734SOL    HW210480   5.275  10.326   5.342 -3.4110 -0.8739  0.8965
35735SOL     OW10481   3.971   2.638   3.616 -0.3041  0.2025 -0.1621
35735SOL    HW110482   3.949   2.547   3.637 -1.5969  0.5189 -0.0327
35735SOL    HW210483   4.039   2.632   3.550 -0.8652 -0.8732 -0.6684
35736SOL     OW10484  10.773   3.369  11.320 -0.5473 -0.1756  0.0015
35736SOL    HW110485  10.821   3.375  11.403  1.8706 -1.9859 -1.1361
35736SOL    HW210486  10.684   3.394  11.342  0.4515  1.4324  2.6966
35737SOL     OW10487   5.987   9.382  11.066 -0.4169  0.1151 -1.0707
35737SOL    HW110488   5.892   9.370  11.069 -0.2901 -0.8729  0.6148
35737SOL    HW210489   6.019   9.312  11.009 -0.6918  0.4838 -1.6858
35738SOL     OW10490   6.274   6.133   9.566 -0.1457 -0.2002 -0.4543
35738SOL    HW110491   6.196   6.122   9.511  0.0559  0.1236 -0.8042
35738SOL    HW210492   6.348   6.122   9.506  0.0816 -0.3954 -0.1432
35739SOL     OW10493  10.109   9.921   2.436 -0.1058  0.4999 -0.3094
35739SOL    HW110494  10.164   9.990   2.399  0.5115 -0.4820 -1.2859
35739SOL    HW210495  10.128   9.922   2.529  0.1144  1.4443 -0.3598
35740SOL     OW10496   5.692   6.921   9.074  0.1605 -0.2833 -0.6338
35740SOL    HW110497   5.644   6.995   9.111  0.4972  0.2284 -1.1849
35740SOL    HW210498   5.722   6.871   9.150  1.2411  0.9935 -0.1689
35741SOL     OW10499   4.946   3.801   2.136  0.1520 -0.2441  0.6297
35741SOL    HW110500   4.857   3.768   2.147 -0.6422  1.8562  0.7842
35741SOL    HW210501   4.952   3.824   2.044  1.6300 -3.2119 -0.1466
35742SOL     OW10502   0.814   7.441   0.484 -0.8331  0.2830 -0.2857
35742SOL    HW110503   0.860   7.357   0.488 -1.1384  0.0716 -0.9565
35742SOL    HW210504   0.756   7.442   0.560  0.6306  0.7731  0.8589
35743SOL     OW10505  10.888   7.378   1.144  0.3853 -0.5890  0.1402
35743SOL    HW110506  10.871   7.342   1.057  0.0432  2.0166 -0.9613
35743SOL    HW210507  10.982   7.372   1.155  0.6291  0.4335 -1.1290
35744SOL     OW10508   9.670   8.046   9.989 -0.0877 -0.4136 -0.0572
35744SOL    HW110509   9.716   8.067   9.908  0.9246 -2.8854 -0.1990
35744SOL    HW210510   9.737   8.053  10.057 -0.7147  0.7373  0.4725
35745SOL     OW10511   5.213   6.979  10.047 -0.1360 -0.2379  0.1294
35745SOL    HW110512   5.306   6.987  10.068 -0.0566  2.7024 -0.7846
35745SOL    HW210513   5.172   6.945  10.127  1.6301 -1.1373  0.6951
35746SOL     OW10514   3.547  10.824   2.941 -0.0880  0.9690 -0.3150
35746SOL    HW110515   3.545  10.907   2.895  3.0246  1.4649  0.2857
35746SOL    HW210516   3.598  10.840   3.020 -0.5398 -1.2058  0.5084
35747SOL     OW10517   0.617  10.015   2.372 -0.0185 -0.4134 -0.3105
35747SOL    HW110518   0.673  10.048   2.302  0.5212 -2.0099 -0.6578
35747SOL    HW210519   0.665   9.941   2.409 -0.2354  0.4169  1.8259
35748SOL     OW10520   2.889   5.260   6.757  0.3479  0.8715 -0.2618
35748SOL    HW110521   2.805   5.249   6.803  0.9717  0.3891  0.7902
35748SOL    HW210522   2.934   5.176   6.768  0.8046  0.9886 -1.1767
35749SOL     OW10523   4.891   5.566   3.304 -0.0472  0.4912  0.0267
35749SOL    HW110524   4.796   5.568   3.305 -0.3173 -1.9774 -3.2744
35749SOL    HW210525   4.917   5.613   3.383 -3.9494  1.3955  0.9758
35750SOL     OW10526   9.443   6.171   4.239 -0.4489 -0.2026 -0.3041
35750SOL    HW110527   9.383   6.110   4.281  0.2044 -1.5859 -1.2905
35750SOL    HW210528   9.416   6.172   4.147 -0.9669  1.6701 -0.1751
35751SOL     OW10529   2.585   4.162   3.120 -0.3624  0.2623  0.5680
35751SOL    HW110530   2.619   4.095   3.179  0.6512 -0.0129 -0.2839
35751SOL    HW210531   2.547   4.229   3.177  1.0885  0.2776  1.5607
35752SOL     OW10532   4.932   0.143   6.685  0.2900  0.4554 -0.3547
35752SOL    HW110533   5.008   0.132   6.741  0.3323 -0.5380 -0.5777
35752SOL    HW210534   4.920   0.057   6.644 -3.0408 -0.6613  2.3487
35753SOL     OW10535  10.205  10.213   8.203 -0.4278  0.0056 -0.0074
35753SOL    HW110536  10.157  10.134   8.176  2.3582 -1.0332 -2.5333
35753SOL    HW210537  10.171  10.282   8.145  0.9877 -0.7352 -1.8244
35754SOL     OW10538   1.584   5.189   9.273  0.0460  0.0825 -0.1484
35754SOL    HW110539   1.516   5.123   9.281 -1.7653  1.4362 -2.8584
35754SOL    HW210540   1.548   5.267   9.316  0.3673  0.4615 -0.5520
35755SOL     OW10541   4.147   2.614   4.517  0.4536 -0.1389  0.0071
35755SOL    HW110542   4.129   2.683   4.580  1.1805 -0.7519  0.9175
35755SOL    HW210543   4.145   2.533   4.569  1.7382 -0.5941 -0.6070
35756SOL     OW10544   7.404   2.201   9.052 -0.4993 -0.2914  0.5210
35756SOL    HW110545   7.355   2.283   9.049 -0.4222 -0.2714 -0.6083
35756SOL    HW210546   7.416   2.183   9.145 -0.9217  0.7383  0.7818
35757SOL     OW10547   1.865   0.441   5.437  0.1597  0.3429  0.0956
35757SOL    HW110548   1.904   0.464   5.522  0.5232  0.0318  0.0181
35757SOL    HW210549   1.849   0.347   5.443  0.0050  0.3555 -0.1100
35758SOL     OW10550   0.348   3.779   2.550 -0.1044 -0.1592  0.2137
35758SOL    HW110551   0.300   3.808   2.628  1.3060 -0.3645  1.2004
35758SOL    HW210552   0.431   3.747   2.584  0.4832 -0.4108 -1.3833
35759SOL     OW10553   0.519   2.163   5.831  0.3976  0.3771  0.1948
35759SOL    HW110554   0.586   2.095   5.826  0.7491  0.7251  0.1544
35759SOL    HW210555   0.568   2.244   5.844 -0.0925  0.2396  4.2184
35760SOL     OW10556  11.296   0.534   9.292 -0.1628  0.0517 -0.4257
35760SOL    HW110557  11.336   0.481   9.224  0.1297  0.0379 -0.2428
35760SOL    HW210558  11.339   0.619   9.285 -1.7987  0.8491 -1.8466
35761SOL     OW10559   7.478   8.999   2.583 -0.3620 -0.3089  0.7194
35761SOL    HW110560   7.573   8.986   2.579 -0.2718 -0.2781  2.0581
35761SOL    HW210561   7.442   8.938   2.519  0.5572 -0.4718  0.3457
35762SOL     OW10562  10.065  10.204  11.167 -0.1106 -0.1860 -0.3024
35762SOL    HW110563   9.990  10.235  11.218  0.9904 -1.4135  2.1873
35762SOL    HW210564  10.091  10.281  11.115 -2.0290  0.7407 -0.0062
35763SOL     OW10565   0.944   6.630   9.411 -0.1708  0.3663  0.7707
35763SOL    HW110566   0.954   6.629   9.506  3.2093  0.5799  0.5206
35763SOL    HW210567   0.942   6.723   9.388  2.3240  0.4090  0.4696
35764SOL     OW10568   3.614   8.915   3.027 -0.1114 -0.0395  0.2869
35764SOL    HW110569   3.525   8.945   3.046 -0.1812 -0.2509  0.3027
35764SOL    HW210570   3.653   8.902   3.113  0.2995  1.0985  0.2844
35765SOL     OW10571   6.046   3.982  10.017  0.5667  0.1344  0.2418
35765SOL    HW110572   6.037   4.039  10.093  0.3705  0.1453  0.2108
35765SOL    HW210573   6.118   3.923  10.040 -0.3710 -0.7565  1.0191
35766SOL     OW10574   1.363   0.335   3.341  0.2279  0.2873 -0.2737
35766SOL    HW110575   1.425   0.264   3.358  0.2417  0.3162 -0.2034
35766SOL    HW210576   1.351   0.334   3.246 -2.0918 -1.7693 -0.0255
35767SOL     OW10577   8.277   5.274  11.117 -0.0674  0.1436  0.3078
35767SOL    HW110578   8.309   5.184  11.105  0.1520  0.2270  0.2487
35767SOL    HW210579   8.245   5.277  11.207 -0.6829 -0.1779  0.1061
35768SOL     OW10580   0.183   5.214   2.190  0.0635  0.6889  0.0803
35768SOL    HW110581   0.241   5.206   2.266 -0.7774 -1.9004  0.5473
35768SOL    HW210582   0.110   5.268   2.221 -0.6052 -0.8873  1.4090
35769SOL     OW10583   8.089   3.414   0.033 -0.3391  1.0218  0.0766
35769SOL    HW110584   8.184   3.423   0.018  0.4215 -3.3976  0.6959
35769SOL    HW210585   8.076   3.442   0.123  0.1642  2.5335 -0.2978
35770SOL     OW10586   6.503   5.346   5.048 -0.5826  0.2579 -0.0657
35770SOL    HW110587   6.450   5.270   5.070  1.8477 -1.3507  0.6096
35770SOL    HW210588   6.502   5.399   5.128  1.6426 -1.5598  1.2668
35771SOL     OW10589   0.977   9.262   4.349  0.1555  0.0920  0.0942
35771SOL    HW110590   0.993   9.352   4.376  3.1196 -0.9453  2.3289
35771SOL    HW210591   0.891   9.241   4.385 -0.1468  1.6940  0.3766
35772SOL     OW10592   5.690   0.200   2.501  0.4129 -0.6274 -0.5653
35772SOL    HW110593   5.602   0.161   2.502 -0.2461  0.8230 -0.1050
35772SOL    HW210594   5.702   0.236   2.589  1.0601  0.0813 -0.9333
35773SOL     OW10595   0.724   5.911   2.825  0.0411  0.5826 -0.4631
35773SOL    HW110596   0.741   5.931   2.917  3.5490  1.9860 -1.2595
35773SOL    HW210597   0.756   5.822   2.813 -0.2715  0.4571 -0.3773
35774SOL     OW10598  10.443   6.000  10.091 -0.1273 -0.3275  0.5166
35774SOL    HW110599  10.400   5.961  10.167  1.9963 -0.3938  1.7877
35774SOL    HW210600  10.468   6.088  10.120 -3.7893  1.7624 -1.9113
35775SOL     OW10601   8.954   5.359   2.808 -0.3079 -0.4420  0.3782
35775SOL    HW110602   8.920   5.318   2.729 -3.5391 -1.9498  2.3533
35775SOL    HW210603   8.980   5.447   2.781 -0.9613 -1.0051 -2.3663
35776SOL     OW10604   2.399   0.829   5.404 -0.1341 -0.1164  0.1552
35776SOL    HW110605   2.376   0.817   5.312 -0.6532 -1.1895  0.4111
35776SOL    HW210606   2.382   0.744   5.444 -1.4167  0.7734  1.5739
35777SOL     OW10607   5.544  10.067   2.934  0.5978 -0.5806  0.5294
35777SOL    HW110608   5.614  10.026   2.986  2.2506  2.6199  1.0746
35777SOL    HW210609   5.585  10.088   2.850  0.3561  1.2496  0.8216
35778SOL     OW10610   3.709   2.429   1.650  0.1072 -0.5355  0.8180
35778SOL    HW110611   3.641   2.371   1.683  0.3839 -1.5048 -0.2428
35778SOL    HW210612   3.663   2.510   1.628 -0.4249 -0.6364  1.5341
35779SOL     OW10613   6.338   3.275   5.121  0.7394 -0.0664  0.3118
35779SOL    HW110614   6.349   3.369   5.130  0.1235  0.0703 -0.2462
35779SOL    HW210615   6.370   3.255   5.033  0.5967 -0.3251  0.3162
35780SOL     OW10616   9.198   6.072   2.124  0.8756 -0.2977  0.1924
35780SOL    HW110617   9.122   6.118   2.162  1.1446  0.8945 -0.6663
35780SOL    HW210618   9.191   5.983   2.159 -2.2174 -0.9167 -1.5943
35781SOL     OW10619   1.289   8.833   9.370  0.1981 -0.2935 -0.1569
35781SOL    HW110620   1.350   8.833   9.444 -0.6842  0.1277  0.5882
35781SOL    HW210621   1.202   8.829   9.410 -0.3236  0.5958 -1.1472
35782SOL     OW10622   6.046   8.969   7.902 -0.2462  0.5727 -0.2733
35782SOL    HW110623   6.086   8.945   7.818  0.2824 -1.6858  0.5746
35782SOL    HW210624   6.026   8.886   7.944  3.2488  1.4030  3.6403
35783SOL     OW10625   6.151   7.283   5.098  0.5440  0.1687  0.4812
35783SOL    HW110626   6.132   7.300   5.006  0.9409  2.0388  0.6990
35783SOL    HW210627   6.129   7.190   5.111  1.2945 -0.3624 -1.6790
35784SOL     OW10628   5.217   5.009   7.343 -1.1573 -0.0110 -0.6148
35784SOL    HW110629   5.242   5.083   7.398 -1.7426 -0.0798 -0.2389
35784SOL    HW210630   5.297   4.958   7.332 -0.7321  0.7095 -0.9357
35785SOL     OW10631   4.182   8.344   7.891 -0.3468 -0.3603 -0.6748
35785SOL    HW110632   4.163   8.418   7.949 -1.8537 -0.1355 -1.4138
35785SOL    HW210633   4.109   8.285   7.904  0.0239 -0.9649 -1.3179
35786SOL     OW10634   5.507   5.375   0.523 -0.5917 -0.0512 -0.3671
35786SOL    HW110635   5.550   5.452   0.560  0.2617 -0.7061  0.0479
35786SOL    HW210636   5.481   5.323   0.599 -1.0445 -0.2424 -0.6450
35787SOL     OW10637   4.830   8.485   1.144  0.5439  0.2758  0.2272
35787SOL    HW110638   4.901   8.502   1.082  0.5624 -0.0054  0.1687
35787SOL    HW210639   4.851   8.539   1.220  0.4708  0.6954 -0.0486
35788SOL     OW10640   9.886   8.480  10.355  0.3376 -0.0960  0.2894
35788SOL    HW110641   9.906   8.423  10.430 -0.3345  0.7120  1.1136
35788SOL    HW210642   9.819   8.540  10.389 -1.3062 -0.8347 -1.4666
35789SOL     OW10643  10.056   8.629   5.294 -0.6289 -0.2730  0.8717
35789SOL    HW110644  10.099   8.573   5.230 -1.2476  0.5627 -0.2994
35789SOL    HW210645   9.964   8.629   5.268 -0.8923  0.0864  1.7559
35790SOL     OW10646  11.148   7.809   5.980 -0.5355  0.2226 -0.1684
35790SOL    HW110647  11.086   7.792   5.910 -0.1866  3.6770 -1.4860
35790SOL    HW210648  11.110   7.881   6.030  0.4519 -0.4345  1.6367
35791SOL     OW10649   7.486   1.912   2.627 -0.1750  0.1676  0.0933
35791SOL    HW110650   7.425   1.941   2.696  1.0618 -0.3765  1.4849
35791SOL    HW210651   7.562   1.969   2.637 -0.3960  0.8028 -1.5852
35792SOL     OW10652   7.948   1.977   0.739  0.2005  0.4450  0.2229
35792SOL    HW110653   7.922   2.019   0.657  0.1907  1.1574  0.5858
35792SOL    HW210654   7.999   2.043   0.785 -1.7429  0.9331  1.8368
35793SOL     OW10655   4.524   7.987   2.163 -0.1502  0.0469 -0.5815
35793SOL    HW110656   4.432   7.979   2.139  0.7095  0.6085 -4.7668
35793SOL    HW210657   4.555   7.897   2.168 -0.4212 -0.1189 -1.6529
35794SOL     OW10658   2.879   3.492  10.954  0.1354 -0.1765 -0.6725
35794SOL    HW110659   2.891   3.585  10.935  1.4827 -0.3907 -1.0082
35794SOL    HW210660   2.825   3.460  10.882 -0.9425  0.4749 -0.1707
35795SOL     OW10661   0.445   4.580   7.465  0.1909  0.7439  0.2269
35795SOL    HW110662   0.352   4.562   7.476  0.2121  0.0249 -0.6656
35795SOL    HW210663   0.449   4.671   7.436 -0.1806  0.9639  0.8413
35796SOL     OW10664   0.183   4.487   0.680 -0.2145  1.5077 -0.8750
35796SOL    HW110665   0.162   4.509   0.590  0.9591  1.0882 -1.2765
35796SOL    HW210666   0.172   4.392   0.685 -0.3809  1.5427 -0.5439
35797SOL     OW10667   1.211   6.310   9.044 -0.2676  0.3024 -0.1758
35797SOL    HW110668   1.207   6.240   8.979  0.2639 -0.0153  0.1182
35797SOL    HW210669   1.120   6.337   9.057 -0.5034 -0.5073 -0.1132
35798SOL     OW10670   2.153  11.049   8.107  0.1052 -0.2282  0.5473
35798SOL    HW110671   2.076  11.067   8.052  0.3956  1.5109  0.6535
35798SOL    HW210672   2.224  11.035   8.044  0.3887  1.5380  0.4099
35799SOL     OW10673   0.614   3.279   7.133 -0.2587  0.1160  0.0520
35799SOL    HW110674   0.530   3.325   7.134 -0.3117  0.0535 -0.7683
35799SOL    HW210675   0.599   3.202   7.078  0.1098 -0.3440  0.5815
35800SOL     OW10676   4.555   5.592   1.454 -0.2180  0.3529 -0.2244
35800SOL    HW110677   4.542   5.505   1.416  2.2662  0.0903 -0.6476
35800SOL    HW210678   4.626   5.630   1.402  1.0406  1.2905  2.0350
35801SOL     OW10679   7.025   9.793  11.137 -0.1288 -0.6369  0.2341
35801SOL    HW110680   6.974   9.841  11.202  1.0681  0.9796  0.0492
35801SOL    HW210681   7.005   9.701  11.154 -1.4320 -0.1601  1.5192
35802SOL     OW10682  11.264   4.939   4.288  0.1801  0.4777 -0.3947
35802SOL    HW110683  11.190   4.886   4.319  0.4967 -0.1547 -0.7123
35802SOL    HW210684  11.227   5.027   4.280  0.0934  0.6985  1.8166
35803SOL     OW10685   9.060   8.626   0.566  0.0130 -0.3402  0.3503
35803SOL    HW110686   9.060   8.584   0.480 -1.1389 -0.6046  0.4690
35803SOL    HW210687   9.088   8.716   0.549 -0.8233 -0.2100 -0.3971
35804SOL     OW10688   0.408  10.593   7.999 -0.2228  0.1071 -0.0110
35804SOL    HW110689   0.314  10.592   8.016 -0.2890 -0.7758 -0.3852
35804SOL    HW210690   0.416  10.570   7.907  0.4270 -1.7158  0.4617
35805SOL     OW10691  11.269   2.955   4.910  0.0877 -0.1990 -0.0234
35805SOL    HW110692  11.334   2.961   4.840  1.0337 -0.0405  0.8583
35805SOL    HW210693  11.243   3.045   4.927  0.1408 -0.2062  0.0940
35806SOL     OW10694   5.811   9.873   9.462  0.4150  0.0507 -0.0468
35806SOL    HW110695   5.771   9.957   9.442  1.7412  0.9860  1.0140
35806SOL    HW210696   5.749   9.830   9.521 -1.0045 -0.4328 -1.8317
35807SOL     OW10697   2.238   0.591   8.460 -0.2132  0.0071  0.7030
35807SOL    HW110698   2.240   0.550   8.373  1.1506  0.3312  0.5619
35807SOL    HW210699   2.161   0.648   8.457 -2.5262 -2.8950  1.1133
35808SOL     OW10700  11.326   4.705  11.251  0.4066 -0.2749 -0.1795
35808SOL    HW110701  11.314   4.615  11.283 -1.9001  0.7164  2.0599
35808SOL    HW210702  11.361   4.752  11.327  1.0691  0.8572 -1.1670
35809SOL     OW10703   1.464   2.928   6.913 -0.2212  0.4818  0.7433
35809SOL    HW110704   1.438   2.836   6.919  1.4506 -0.0597  0.0985
35809SOL    HW210705   1.559   2.926   6.915 -0.1583  2.3834  2.7778
35810SOL     OW10706   4.691   5.024   6.779  0.0223 -0.1568 -0.2660
35810SOL    HW110707   4.670   5.093   6.842  1.2552  0.4990 -0.5310
35810SOL    HW210708   4.769   4.982   6.815  0.9933  0.4977 -1.5253
35811SOL     OW10709   7.486   3.410  10.488  0.3569 -0.0437 -0.3951
35811SOL    HW110710   7.453   3.476  10.549  2.3975  0.3351  0.3973
35811SOL    HW210711   7.570   3.444  10.459 -0.3028 -0.4681 -3.0960
35812SOL     OW10712   1.380   6.581   4.426  0.0964 -0.0782  0.2161
35812SOL    HW110713   1.374   6.636   4.504 -1.6488  0.6989 -0.4049
35812SOL    HW210714   1.388   6.643   4.354 -0.7740 -0.6507 -0.4006
35813SOL     OW10715   2.870   0.430   2.545 -0.5283  0.1204  0.2634
35813SOL    HW110716   2.927   0.506   2.539 -2.2379  1.6059  1.7820
35813SOL    HW210717   2.905   0.368   2.480  1.6911  1.6413 -0.0792
35814SOL     OW10718   5.009   7.958   1.160 -0.1376 -0.3327  0.6008
35814SOL    HW110719   5.005   8.049   1.189 -0.3363 -0.1499  0.0186
35814SOL    HW210720   4.926   7.945   1.113  0.3734 -0.4791 -0.2729
35815SOL     OW10721   2.548   8.144   0.902  0.3547  0.0847  0.1765
35815SOL    HW110722   2.541   8.198   0.823 -0.2014 -2.1857 -1.4098
35815SOL    HW210723   2.459   8.138   0.935  0.4235  0.1709  0.3809
35816SOL     OW10724   2.509   0.225   1.647  0.2154 -0.3435  0.0639
35816SOL    HW110725   2.565   0.207   1.572 -2.3620 -0.3930 -1.9558
35816SOL    HW210726   2.442   0.157   1.645 -0.8567  0.6058  1.4582
35817SOL     OW10727   4.477   4.390   7.020 -0.6597  0.1220  0.2822
35817SOL    HW110728   4.413   4.320   7.030 -1.1012  0.7666  2.3636
35817SOL    HW210729   4.552   4.348   6.978 -1.1141 -1.4784  0.9911
35818SOL     OW10730   5.142   7.758  10.789  0.4224 -0.1541 -0.2679
35818SOL    HW110731   5.069   7.818  10.804  2.0941  1.7810  0.5925
35818SOL    HW210732   5.110   7.673  10.819 -1.2457  0.7700  0.6942
35819SOL     OW10733   0.247   5.653   0.839 -0.8618  0.6782 -0.6946
35819SOL    HW110734   0.326   5.681   0.793 -0.4842  0.0882 -0.4173
35819SOL    HW210735   0.209   5.734   0.873  0.9249  0.7889  1.2483
35820SOL     OW10736  11.355   6.265  10.147  0.0613  0.1224 -0.0542
35820SOL    HW110737  11.345   6.225  10.233 -1.8984  0.7450  0.0660
35820SOL    HW210738  11.423   6.332  10.159 -0.8167  0.8291  1.2884
35821SOL     OW10739   9.504   1.395   3.804  0.5749  0.2508 -0.4557
35821SOL    HW110740   9.584   1.361   3.842  1.9166  1.6514 -1.8660
35821SOL    HW210741   9.507   1.368   3.713 -0.9811 -0.3530 -0.3561
35822SOL     OW10742   0.453   3.044   4.760  0.4709  0.6222 -0.4760
35822SOL    HW110743   0.396   3.118   4.784  0.3236  0.6439 -0.8813
35822SOL    HW210744   0.426   2.973   4.818  0.0757  0.6556 -0.6118
35823SOL     OW10745   3.142   2.425   5.128  0.2725 -0.1577 -0.2741
35823SOL    HW110746   3.149   2.383   5.042 -1.6937  0.7762 -0.9372
35823SOL    HW210747   3.123   2.517   5.108  1.2666  0.3929  1.1794
35824SOL     OW10748  11.134  10.796   5.916  0.2716  0.1848  0.2787
35824SOL    HW110749  11.107  10.870   5.861  0.9911  1.5256  1.6279
35824SOL    HW210750  11.074  10.799   5.991 -0.5433 -1.4594 -0.2677
35825SOL     OW10751   5.971   8.856  10.356  0.3825 -0.3510  0.2405
35825SOL    HW110752   5.900   8.826  10.300  0.2988 -0.3946  0.3666
35825SOL    HW210753   6.050   8.817  10.319  0.5235  0.7836 -0.6902
35826SOL     OW10754  11.195   2.248   2.673  0.1991  0.4681  0.6102
35826SOL    HW110755  11.261   2.235   2.742  0.3290 -0.4047  0.3282
35826SOL    HW210756  11.149   2.165   2.668  0.4022  0.4114 -0.5748
35827SOL     OW10757   1.291   5.307   7.754 -0.0307 -0.1863  0.8375
35827SOL    HW110758   1.376   5.320   7.795  1.9309 -1.6580 -2.3611
35827SOL    HW210759   1.261   5.395   7.731  0.6676  0.3327  1.8387
35828SOL     OW10760  10.909   7.198   6.764  0.0603 -0.6093 -0.0526
35828SOL    HW110761  10.957   7.277   6.737  1.1354 -1.2329 -0.0366
35828SOL    HW210762  10.962   7.126   6.729  0.2210 -1.3747  1.6884
35829SOL     OW10763  11.391   4.678  10.455 -0.2677  0.9404 -0.4532
35829SOL    HW110764  11.475   4.640  10.480 -1.0672 -1.0974 -0.7155
35829SOL    HW210765  11.354   4.710  10.537  0.5779  1.5630 -0.2874
35830SOL     OW10766   2.996   7.601   9.784  0.0337 -0.2296 -0.1176
35830SOL    HW110767   2.979   7.563   9.698  1.4730  1.7625 -1.3649
35830SOL    HW210768   3.091   7.598   9.794  0.0276  1.1281  0.6269
35831SOL     OW10769   4.451  10.173   8.386  0.4680  0.2652  0.7659
35831SOL    HW110770   4.502  10.254   8.384  0.2358  0.4099 -1.1716
35831SOL    HW210771   4.388  10.186   8.457  1.1362  1.3352  1.1814
35832SOL     OW10772  10.111   9.649   8.156  0.1117 -0.2655 -0.7005
35832SOL    HW110773  10.182   9.586   8.167 -0.9386 -1.4005 -0.2310
35832SOL    HW210774  10.145   9.730   8.193  1.1686 -0.7720 -0.5222
35833SOL     OW10775   4.171  10.168  11.034  0.2200 -0.2714  0.6132
35833SOL    HW110776   4.121  10.091  11.060 -0.3069  0.3200  1.4130
35833SOL    HW210777   4.105  10.231  11.007  0.6758 -0.2665 -0.5325
35834SOL     OW10778  10.935  10.292   5.125 -0.2269 -0.0531  0.7113
35834SOL    HW110779  11.001  10.243   5.174 -1.7690 -0.5803  2.3791
35834SOL    HW210780  10.954  10.384   5.144  1.2615 -0.0615 -0.5452
35835SOL     OW10781   9.478   8.068   9.111 -0.4356 -0.4092 -0.0339
35835SOL    HW110782   9.409   8.082   9.047 -0.7249 -0.4117  0.2768
35835SOL    HW210783   9.538   8.141   9.098  0.2829 -1.1811 -1.3090
35836SOL     OW10784   8.572   7.367   7.663  0.3277 -0.6989  0.5003
35836SOL    HW110785   8.572   7.286   7.613 -1.6007 -0.5318  0.1607
35836SOL    HW210786   8.624   7.428   7.609 -1.6811 -0.5291 -1.3934
35837SOL     OW10787   1.888   5.038   2.962  1.1024 -0.0118  0.1838
35837SOL    HW110788   1.794   5.057   2.958  1.2626  0.7217 -0.3302
35837SOL    HW210789   1.893   4.943   2.971  0.2795  0.1001  2.2188
35838SOL     OW10790   8.223   0.976   5.945  0.3132 -0.2476 -0.0581
35838SOL    HW110791   8.169   0.952   6.021  1.9854 -0.1754  1.2268
35838SOL    HW210792   8.178   1.050   5.906 -1.0686 -0.8498  0.3099
35839SOL     OW10793  10.192   8.171   9.378 -0.1264  0.2981  0.5371
35839SOL    HW110794  10.178   8.232   9.306 -1.6679 -0.7862 -0.1314
35839SOL    HW210795  10.285   8.150   9.374  0.1474  1.5336 -0.0644
35840SOL     OW10796   3.207   3.552   4.557 -0.2009 -0.1932 -0.3038
35840SOL    HW110797   3.188   3.637   4.517 -0.4843  0.5209  1.2805
35840SOL    HW210798   3.251   3.574   4.639 -0.9363 -1.5576  0.4819
35841SOL     OW10799   0.704   6.520   4.723 -0.4481  0.3364 -0.0270
35841SOL    HW110800   0.686   6.446   4.665 -2.4977 -1.5990  2.7946
35841SOL    HW210801   0.797   6.538   4.711  0.0956 -2.5895 -0.9469
35842SOL     OW10802  10.066   7.238   5.631  0.0710 -0.3423  0.5873
35842SOL    HW110803   9.984   7.189   5.640 -0.2422  0.3238  1.5368
35842SOL    HW210804  10.090   7.261   5.720  1.2087 -0.3709  0.2997
35843SOL     OW10805   3.090   0.423   5.676  0.5968 -0.1779 -0.4512
35843SOL    HW110806   3.122   0.512   5.694  0.1385 -0.2270  0.7254
35843SOL    HW210807   3.060   0.391   5.761 -1.7935 -0.4301 -1.3085
35844SOL     OW10808   4.928   0.301   0.416  0.3683 -0.4901 -0.3774
35844SOL    HW110809   4.964   0.279   0.502 -2.1880  1.1174  1.2429
35844SOL    HW210810   4.834   0.285   0.425 -0.2227  1.4738 -2.2443
35845SOL     OW10811   3.517   0.901  10.281 -0.8397 -0.2312  0.9385
35845SOL    HW110812   3.507   0.821  10.333 -0.2703 -0.1816  1.1258
35845SOL    HW210813   3.611   0.911  10.269 -0.9864 -0.7044 -0.8498
35846SOL     OW10814   8.709   8.778   1.981  0.3014 -0.0404  0.5932
35846SOL    HW110815   8.758   8.749   2.058  2.7860 -1.9540 -1.5192
35846SOL    HW210816   8.749   8.862   1.958  0.6427 -0.2269  0.4996
35847SOL     OW10817  10.219   4.860  10.228  0.2987 -0.0485  0.1013
35847SOL    HW110818  10.152   4.927  10.216 -0.4276 -0.9710 -1.2517
35847SOL    HW210819  10.200   4.821  10.314  0.5523  1.2410  0.7654
35848SOL     OW10820   1.960   9.185   2.930 -0.3141 -0.3406 -0.3679
35848SOL    HW110821   2.044   9.139   2.927 -0.9480 -1.5621  0.1619
35848SOL    HW210822   1.941   9.194   3.024 -0.8366 -0.1817 -0.4878
35849SOL     OW10823   1.559  10.332   9.220 -0.4906  0.3378  0.0877
35849SOL    HW110824   1.467  10.317   9.200 -0.1156 -1.9988 -0.1328
35849SOL    HW210825   1.594  10.375   9.142 -0.6990 -1.8738 -1.3208
35850SOL     OW10826   0.993   9.504  11.091 -1.0988 -0.2244  0.3471
35850SOL    HW110827   1.032   9.451  11.022  0.0019 -0.3684  1.0585
35850SOL    HW210828   1.059   9.570  11.111 -2.3706  1.3609 -0.4079
35851SOL     OW10829   9.770   7.502   2.340  0.2001 -0.3671  0.0139
35851SOL    HW110830   9.850   7.483   2.388 -0.4199 -1.1762  0.7689
35851SOL    HW210831   9.700   7.479   2.401 -0.6041 -0.7062 -1.0140
35852SOL     OW10832   0.722  11.387   9.347  0.5179 -0.2985  0.0856
35852SOL    HW110833   0.757  11.365   9.261 -0.7071  1.9038 -1.0699
35852SOL    HW210834   0.628  11.396   9.333  0.4006  0.9463  1.4290
35853SOL     OW10835   7.466   9.719   9.555  0.4528 -0.4686  0.3193
35853SOL    HW110836   7.417   9.641   9.580  0.4228 -0.2166  1.0608
35853SOL    HW210837   7.418   9.754   9.480 -1.4023  0.5990  1.9048
35854SOL     OW10838   3.824   6.708   9.834 -0.1174 -0.4541 -0.0778
35854SOL    HW110839   3.862   6.621   9.840 -1.1693 -0.8774  0.7737
35854SOL    HW210840   3.783   6.711   9.748  3.1642  0.6249 -1.7818
35855SOL     OW10841   0.966   8.999   7.506 -0.2916  0.5401 -0.4031
35855SOL    HW110842   1.005   9.073   7.458  0.6150  1.2515  1.3276
35855SOL    HW210843   1.041   8.953   7.545 -0.9862  0.1150  0.4832
35856SOL     OW10844   8.045  10.571   7.257  0.0391  0.3763 -0.4833
35856SOL    HW110845   7.958  10.532   7.265  0.0224  0.5928  0.6097
35856SOL    HW210846   8.105  10.498   7.271  0.0282  0.2516 -1.0982
35857SOL     OW10847   3.674   2.573   1.363  0.1660 -0.0002  0.1748
35857SOL    HW110848   3.751   2.523   1.335 -0.9873 -1.6071 -0.2496
35857SOL    HW210849   3.601   2.536   1.313 -1.1756  0.2991  1.8089
35858SOL     OW10850  10.585   7.502   9.539  0.5746 -0.5126  0.0148
35858SOL    HW110851  10.498   7.534   9.563  0.5081  1.0157 -2.0462
35858SOL    HW210852  10.643   7.541   9.604 -0.1058 -0.4039  0.5752
35859SOL     OW10853  10.099   4.824   4.451  0.3792 -0.7708 -0.1814
35859SOL    HW110854  10.118   4.915   4.473 -0.1083 -0.4356 -1.1204
35859SOL    HW210855  10.069   4.785   4.534  3.1698 -0.8186  0.8968
35860SOL     OW10856  10.351   7.666   9.027 -0.0910 -0.6624 -0.1657
35860SOL    HW110857  10.387   7.749   8.996 -1.4581 -0.7547 -2.1439
35860SOL    HW210858  10.256   7.674   9.015 -0.4812 -1.6987  1.7111
35861SOL     OW10859   9.433   5.010   6.933 -0.2417  0.1110 -0.3350
35861SOL    HW110860   9.382   4.959   6.870 -2.1223  0.7033  0.6278
35861SOL    HW210861   9.433   4.956   7.012 -1.8426  1.3264  0.5407
35862SOL     OW10862   6.714  10.102   9.095  0.1622  0.2204 -0.1782
35862SOL    HW110863   6.656  10.047   9.043  1.5912 -1.9075  0.3757
35862SOL    HW210864   6.712  10.187   9.051 -1.0857 -0.6222 -1.8459
35863SOL     OW10865   4.553   3.444  11.356 -0.1780  0.2485  0.0542
35863SOL    HW110866   4.500   3.426  11.278  0.9497  0.0648 -0.7062
35863SOL    HW210867   4.563   3.539  11.357  0.8753  0.1725 -0.8003
35864SOL     OW10868  10.610   8.885   0.481  0.0783  1.0920  0.2990
35864SOL    HW110869  10.681   8.823   0.465 -0.2702  1.1039 -1.4879
35864SOL    HW210870  10.625   8.955   0.418 -1.9931  0.6539 -0.7857
35865SOL     OW10871   9.547   3.160  10.306  0.0178  0.0400 -0.5249
35865SOL    HW110872   9.484   3.229  10.326 -0.1256 -0.2216 -0.0635
35865SOL    HW210873   9.601   3.196  10.235 -0.6869  0.2388 -0.9711
35866SOL     OW10874   0.527   4.172  10.865 -0.1697 -0.2313 -0.1279
35866SOL    HW110875   0.591   4.181  10.794  0.6777  3.4537  0.9014
35866SOL    HW210876   0.566   4.108  10.924  1.3167  0.0473 -0.7621
35867SOL     OW10877   1.372  10.105   0.190 -0.9397  0.1654  0.2243
35867SOL    HW110878   1.462  10.074   0.203 -0.8996  0.8431  1.8761
35867SOL    HW210879   1.317  10.032   0.218 -0.8629  0.4483  1.1658
35868SOL     OW10880   9.900   5.560   5.772  0.0090  0.1024  0.4260
35868SOL    HW110881   9.926   5.505   5.845  1.7901  0.0281 -0.2020
35868SOL    HW210882   9.953   5.640   5.782  0.5549 -0.0505 -0.9244
35869SOL     OW10883   2.596   6.631   3.631 -0.0529  0.3302  0.0267
35869SOL    HW110884   2.515   6.682   3.622  0.9110  1.7260 -1.0431
35869SOL    HW210885   2.664   6.687   3.595  1.5616 -0.4775  1.6794
35870SOL     OW10886   2.351   9.515   2.711  0.1439 -0.3670 -0.0237
35870SOL    HW110887   2.346   9.610   2.702 -0.2381  0.0588  3.4906
35870SOL    HW210888   2.261   9.488   2.730  0.7137 -0.9413  2.1294
35871SOL     OW10889   5.019   0.650  10.215 -0.2770 -0.4627  0.1604
35871SOL    HW110890   5.034   0.720  10.152  0.3539  1.1414  2.0041
35871SOL    HW210891   5.028   0.569  10.164  2.1604  0.6912 -1.4137
35872SOL     OW10892   6.990   1.556   9.529 -0.3542  0.5784  0.0681
35872SOL    HW110893   6.907   1.603   9.529 -0.4734  0.4178 -1.6399
35872SOL    HW210894   6.966   1.463   9.536 -0.2041  0.6191  1.4614
35873SOL     OW10895  11.117   2.495  10.328 -0.1111 -0.0666  0.0664
35873SOL    HW110896  11.045   2.434  10.343 -0.1945  0.2381  1.0164
35873SOL    HW210897  11.079   2.564  10.274 -0.7170  0.3872  1.0372
35874SOL     OW10898   9.208   1.656   3.841 -0.8691 -0.3524  0.5372
35874SOL    HW110899   9.271   1.724   3.817  0.3631 -1.2366  1.1187
35874SOL    HW210900   9.149   1.650   3.766 -0.8707  1.1949  0.3966
35875SOL     OW10901   3.368   1.115   6.179  1.2734 -0.6713  0.6033
35875SOL    HW110902   3.354   1.114   6.274 -0.0405  0.7182  0.4657
35875SOL    HW210903   3.454   1.155   6.168  0.5805  1.0300  1.1632
35876SOL     OW10904   9.643   8.566  11.271 -0.0800  0.7232  0.1405
35876SOL    HW110905   9.605   8.630  11.212  0.8743 -0.7731 -2.2354
35876SOL    HW210906   9.736   8.588  11.274  0.3021 -0.6281 -0.8879
35877SOL     OW10907   9.531   8.695   1.843  0.8784  0.1563 -0.2867
35877SOL    HW110908   9.532   8.750   1.764 -0.2082 -1.1878 -1.2812
35877SOL    HW210909   9.531   8.758   1.915  0.3611  1.4532 -1.3640
35878SOL     OW10910  10.200   8.393   4.353  0.2493 -0.1747  0.4071
35878SOL    HW110911  10.163   8.481   4.364 -0.3294 -0.4364  0.5736
35878SOL    HW210912  10.278   8.393   4.409  1.1356  0.7309 -0.7677
35879SOL     OW10913   1.678   3.882   5.589  0.3178  0.0056  0.2472
35879SOL    HW110914   1.650   3.937   5.516 -0.3301  0.6169  0.9406
35879SOL    HW210915   1.646   3.795   5.567  0.5860  0.0800 -0.4445
35880SOL     OW10916   9.940   1.976   0.023 -0.3173  0.4252  0.0036
35880SOL    HW110917   9.929   2.011  -0.066  1.3222 -0.3257 -0.5363
35880SOL    HW210918   9.914   2.048   0.080 -0.7477  1.1654 -1.0848
35881SOL     OW10919   6.382   8.240   8.370 -0.2225  0.5094  0.5941
35881SOL    HW110920   6.336   8.318   8.338  1.4739  1.7275  0.9583
35881SOL    HW210921   6.437   8.273   8.441  2.2326 -0.5545 -0.6975
35882SOL     OW10922  10.225   9.873   4.079 -0.1750 -0.1057 -0.6788
35882SOL    HW110923  10.284   9.825   4.021 -0.3802 -0.7190 -0.3914
35882SOL    HW210924  10.280   9.941   4.119  0.3328 -0.6464 -0.4436
35883SOL     OW10925  10.941   0.244   3.478  0.4578 -0.2990 -0.2013
35883SOL    HW110926  11.032   0.237   3.505  0.2226 -1.3504  0.3611
35883SOL    HW210927  10.900   0.164   3.509 -0.7696  0.3623 -0.0239
35884SOL     OW10928   5.654   5.551   6.159  0.4322 -0.9625 -0.8954
35884SOL    HW110929   5.673   5.602   6.081 -0.2282  1.0154  0.1806
35884SOL    HW210930   5.721   5.577   6.222 -2.2909  2.0087  1.1020
35885SOL     OW10931  10.534  10.259   0.545  0.0783  0.4500 -0.1894
35885SOL    HW110932  10.605  10.237   0.606 -1.6707  0.5809  2.0357
35885SOL    HW210933  10.549  10.351   0.523  0.1332  0.7321  0.9785
35886SOL     OW10934   4.339   8.623   5.343 -0.4454  0.4529 -0.0472
35886SOL    HW110935   4.371   8.713   5.339  3.8577 -0.8023  0.4437
35886SOL    HW210936   4.360   8.586   5.257 -2.3157 -0.0760 -0.3111
35887SOL     OW10937   7.549  11.170   0.896  0.1759 -0.2572  0.0505
35887SOL    HW110938   7.504  11.240   0.943 -1.2974 -2.0646  1.5038
35887SOL    HW210939   7.494  11.092   0.910  0.6591 -1.3247 -3.1433
35888SOL     OW10940   0.605   3.863   1.707  0.0898 -0.4628 -0.5984
35888SOL    HW110941   0.590   3.951   1.740  0.0273 -1.0132  0.8945
35888SOL    HW210942   0.517   3.828   1.692  0.1150 -0.2683 -1.2224
35889SOL     OW10943   5.216   9.794   4.409 -0.6268  0.5819  0.0859
35889SOL    HW110944   5.183   9.871   4.362  0.1916  0.9373  0.0810
35889SOL    HW210945   5.142   9.766   4.464 -1.3910  0.5335 -0.9360
35890SOL     OW10946   7.967   7.252   1.953 -0.1896  0.3572 -0.8337
35890SOL    HW110947   7.984   7.341   1.924 -0.8910  1.2681  1.3256
35890SOL    HW210948   8.052   7.219   1.982  0.1674  0.0926 -2.0998
35891SOL     OW10949   2.178   6.172   0.475 -0.0273  0.2003  0.2840
35891SOL    HW110950   2.248   6.223   0.515 -0.1172  0.4621  0.1070
35891SOL    HW210951   2.186   6.085   0.514  1.0328 -0.0628 -0.4987
35892SOL     OW10952   9.157   2.910   4.835  0.0497  0.0516 -0.2929
35892SOL    HW110953   9.250   2.886   4.832 -0.2970 -1.3664 -0.2847
35892SOL    HW210954   9.143   2.935   4.926  0.2526 -0.4928 -0.1053
35893SOL     OW10955   5.313   2.882   5.216  0.4798  0.3589  0.2122
35893SOL    HW110956   5.393   2.910   5.171  0.7146 -0.8064 -0.1303
35893SOL    HW210957   5.334   2.885   5.309  0.5389  1.1635  0.1782
35894SOL     OW10958   3.943  11.391   9.692  0.1382 -0.2688 -0.0768
35894SOL    HW110959   3.974  11.439   9.769  1.3849  0.3440 -0.9396
35894SOL    HW210960   3.891  11.455   9.644 -0.0422 -0.4408 -0.1127
35895SOL     OW10961   9.136  10.698   4.316  0.9883 -0.4271 -0.1811
35895SOL    HW110962   9.168  10.788   4.309 -2.1604  0.7215 -1.9534
35895SOL    HW210963   9.057  10.705   4.369 -0.7560 -1.5946 -2.4278
35896SOL     OW10964   9.285   3.841   6.285 -0.4835 -0.0445  0.0464
35896SOL    HW110965   9.380   3.832   6.271 -0.6164 -0.6742 -0.4936
35896SOL    HW210966   9.270   3.936   6.284  0.1936  0.0734  0.5086
35897SOL     OW10967  11.384   6.285   6.395  0.1577  0.0350 -0.3448
35897SOL    HW110968  11.473   6.284   6.430 -0.1124 -1.1305  0.3948
35897SOL    HW210969  11.357   6.193   6.397 -1.7602  0.5639  1.2986
35898SOL     OW10970   2.467   1.644  10.898 -0.3219 -0.3039  0.3027
35898SOL    HW110971   2.533   1.576  10.887 -0.7458 -0.6952  0.1188
35898SOL    HW210972   2.428   1.626  10.984 -2.1569 -1.8586 -0.7776
35899SOL     OW10973   4.765   7.514   4.691 -0.5506  0.4940  0.3600
35899SOL    HW110974   4.859   7.519   4.673 -0.1696 -0.2432  2.0050
35899SOL    HW210975   4.724   7.526   4.605  1.1055 -1.7226 -0.8279
35900SOL     OW10976   3.707   8.765   9.593 -0.4141 -0.1327  0.4578
35900SOL    HW110977   3.754   8.704   9.649 -0.7548 -1.0109 -0.1988
35900SOL    HW210978   3.617   8.762   9.623 -0.8163 -1.4054 -0.7809
35901SOL     OW10979   1.570   4.338   2.880  0.3371  0.3755 -0.3806
35901SOL    HW110980   1.587   4.392   2.803  0.2538  0.5006 -0.3133
35901SOL    HW210981   1.609   4.387   2.953  0.9455 -0.0357 -0.4265
35902SOL     OW10982   0.322   6.885   0.313 -0.3331  0.0446 -0.3057
35902SOL    HW110983   0.371   6.883   0.231  0.2035  0.9779 -0.0213
35902SOL    HW210984   0.334   6.974   0.347 -0.6234 -0.2928  0.7395
35903SOL     OW10985   5.223   2.007   4.806  0.2558 -0.3461 -0.4686
35903SOL    HW110986   5.302   1.975   4.762  2.1877  0.7822  1.9118
35903SOL    HW210987   5.193   2.079   4.751  1.2172 -0.4382 -1.1433
35904SOL     OW10988   8.705   9.642  10.966 -0.4060  0.2547 -0.5136
35904SOL    HW110989   8.613   9.665  10.973  0.1058  2.8442 -1.3434
35904SOL    HW210990   8.737   9.640  11.056 -0.9471  0.8528 -0.3057
35905SOL     OW10991   0.131   4.605   3.963  0.1493 -0.3357 -0.1367
35905SOL    HW110992   0.119   4.696   3.939  1.5964 -0.5621 -1.9424
35905SOL    HW210993   0.190   4.607   4.038  1.4713  0.2149 -1.1416
35906SOL     OW10994   3.102  11.336   4.030  0.6084 -0.5092  0.1609
35906SOL    HW110995   3.185  11.350   4.076  0.0740  0.2824  0.9117
35906SOL    HW210996   3.048  11.288   4.093 -0.0656  0.4287  0.3318
35907SOL     OW10997   6.000   0.034   2.960  0.2608  0.2467 -0.1037
35907SOL    HW110998   5.927  -0.005   2.913  0.2646 -2.6025  1.9457
35907SOL    HW210999   6.076   0.017   2.905 -0.1947  0.2398 -0.7307
35908SOL     OW11000   4.226   0.514   9.004  0.4660 -0.0866 -0.0113
35908SOL    HW111001   4.258   0.522   9.094  0.9174 -3.5900  0.2969
35908SOL    HW211002   4.305   0.518   8.950  0.2584  1.3616 -0.2577
35909SOL     OW11003   9.730  11.001   0.090  0.1119  0.1999  0.6905
35909SOL    HW111004   9.733  10.916   0.046 -0.6110  0.0249  0.9786
35909SOL    HW211005   9.665  11.051   0.041 -0.9033 -0.0872  1.7088
35910SOL     OW11006   4.138   6.582   0.105  0.2921 -0.3706 -0.4526
35910SOL    HW111007   4.223   6.570   0.147 -0.7344 -1.6305  1.4553
35910SOL    HW211008   4.089   6.636   0.167 -0.4774 -0.1628 -1.2349
35911SOL     OW11009   6.068   8.657   4.500 -0.2646  0.1040  0.0803
35911SOL    HW111010   6.128   8.609   4.443 -1.5153  0.1600 -1.3581
35911SOL    HW211011   6.122   8.722   4.544  0.7060  0.2508 -1.2868
35912SOL     OW11012   2.196   6.361   6.516  0.0563  0.0588  0.0090
35912SOL    HW111013   2.135   6.287   6.515  1.2198 -0.9666 -2.0107
35912SOL    HW211014   2.169   6.416   6.442  0.4086  0.5993  0.2762
35913SOL     OW11015   6.055   2.550   4.503  0.4358 -0.6185  0.2497
35913SOL    HW111016   6.138   2.598   4.506  0.1769  0.2705 -3.2049
35913SOL    HW211017   6.078   2.463   4.469  0.0605 -0.6700  0.1185
35914SOL     OW11018   3.620  10.500   3.336 -0.4434  0.1978  0.2159
35914SOL    HW111019   3.657  10.462   3.416 -0.0074 -0.7020 -0.3960
35914SOL    HW211020   3.687  10.485   3.269 -1.3594 -0.2861 -0.6243
35915SOL     OW11021   8.241   7.017   4.163 -0.5291 -0.3008  0.3631
35915SOL    HW111022   8.253   6.962   4.240 -1.1175 -2.4495 -0.9864
35915SOL    HW211023   8.247   6.957   4.089 -0.8193  1.5348 -1.2510
35916SOL     OW11024   6.845   1.666   7.387  0.3751  0.0859 -0.0680
35916SOL    HW111025   6.918   1.629   7.436  2.5596  3.9807  0.0697
35916SOL    HW211026   6.784   1.695   7.455  0.6038  0.2540  0.0718
35917SOL     OW11027   4.214   6.782  10.550  0.1360 -0.1256  0.1430
35917SOL    HW111028   4.169   6.754  10.630  1.8589  0.0777  1.2304
35917SOL    HW211029   4.175   6.867  10.530 -2.3138 -1.3812 -0.9291
35918SOL     OW11030   1.366   3.338   7.071 -0.2004 -0.0105  0.2373
35918SOL    HW111031   1.328   3.367   6.988 -1.8607  1.6438  1.4810
35918SOL    HW211032   1.296   3.288   7.113  1.0886 -2.0137  0.1113
35919SOL     OW11033  10.470   9.584   6.901 -0.7451 -0.1053 -0.1521
35919SOL    HW111034  10.412   9.523   6.948 -1.3708 -0.0626 -0.8362
35919SOL    HW211035  10.415   9.661   6.886 -0.0290  0.5393  0.4964
35920SOL     OW11036   6.377   9.081   3.022  0.7778  0.2496  0.4291
35920SOL    HW111037   6.364   8.989   2.999 -1.6484  0.5746  0.2567
35920SOL    HW211038   6.430   9.078   3.102 -0.2317 -1.3512  1.0852
35921SOL     OW11039   9.903  11.018  10.818  0.0091  0.1049  0.0530
35921SOL    HW111040   9.816  11.059  10.816  0.3940  0.9482  0.3160
35921SOL    HW211041   9.948  11.061  10.890  0.3440 -0.9855  0.5110
35922SOL     OW11042   9.996   1.627   9.393  0.0759 -0.2280 -0.1329
35922SOL    HW111043  10.004   1.650   9.301  0.0139 -0.2246 -0.1378
35922SOL    HW211044   9.963   1.706   9.435  2.3670  0.5792  0.3032
35923SOL     OW11045   4.657   5.603   6.432  0.0126 -0.1235  0.2877
35923SOL    HW111046   4.682   5.691   6.405 -0.7880  1.1288  3.2983
35923SOL    HW211047   4.566   5.595   6.405  0.1285 -0.1294 -0.1211
35924SOL     OW11048  10.530   2.981   1.166 -0.1521 -0.4247  0.4315
35924SOL    HW111049  10.533   3.076   1.157 -0.3521 -0.5580 -1.5607
35924SOL    HW211050  10.613   2.958   1.209  0.6995  0.5335 -0.6280
35925SOL     OW11051   1.167   1.303   5.544 -0.3862 -0.0092 -0.1924
35925SOL    HW111052   1.130   1.336   5.626  1.9274  1.8643  0.1848
35925SOL    HW211053   1.138   1.365   5.478 -0.7354 -0.5008 -0.5136
35926SOL     OW11054   7.224   4.954  10.127  0.1590  0.0309  0.1952
35926SOL    HW111055   7.309   4.964  10.169 -0.2200 -0.3087  1.0560
35926SOL    HW211056   7.187   5.043  10.126  0.9818  0.4006 -1.2313
35927SOL     OW11057   1.409  10.852   8.027  0.2264 -0.2389  0.5862
35927SOL    HW111058   1.331  10.896   7.994  0.4200  0.0243  0.4721
35927SOL    HW211059   1.398  10.760   8.004  0.9557  0.1229 -1.3844
35928SOL     OW11060   1.335   3.486   7.798  0.2803  0.3141 -0.1822
35928SOL    HW111061   1.281   3.546   7.747 -0.5321 -0.2256  0.0214
35928SOL    HW211062   1.287   3.475   7.880  0.7541 -0.1004  0.0442
35929SOL     OW11063   6.310   8.241  10.014 -0.1336 -0.0882  0.1706
35929SOL    HW111064   6.364   8.241   9.935  0.1477  1.1453  0.3320
35929SOL    HW211065   6.243   8.307   9.996 -1.9775 -1.9865 -0.2627
35930SOL     OW11066   2.086  11.035   1.394  0.1115 -0.5834  0.1157
35930SOL    HW111067   2.114  10.945   1.413 -0.8265 -0.9328 -0.1281
35930SOL    HW211068   2.045  11.029   1.308  0.5927  0.2055 -0.1811
35931SOL     OW11069   9.306   9.061  11.384 -0.5901  0.3645 -0.7606
35931SOL    HW111070   9.397   9.030  11.377 -0.1921  1.4071 -0.4572
35931SOL    HW211071   9.270   9.048  11.296 -0.9441 -2.3253 -0.3110
35932SOL     OW11072   5.277  10.222   9.982 -0.1822 -0.4912 -0.0667
35932SOL    HW111073   5.371  10.210   9.973  0.0138  1.0656 -0.3253
35932SOL    HW211074   5.267  10.312  10.011 -1.6631 -0.1011 -1.6241
35933SOL     OW11075  10.224   8.753   7.167  0.4740 -0.6497  0.0211
35933SOL    HW111076  10.306   8.786   7.204  0.3849 -0.8815  0.4381
35933SOL    HW211077  10.177   8.832   7.139  0.4107 -0.4387  0.6939
35934SOL     OW11078   3.663   8.467   1.214  0.1076  0.2408  0.5423
35934SOL    HW111079   3.743   8.513   1.239  0.3230 -0.5428  1.3549
35934SOL    HW211080   3.678   8.438   1.124 -0.4067  2.5212 -0.3357
35935SOL     OW11081   1.828  11.232  10.747 -0.4891 -0.3275 -0.2343
35935SOL    HW111082   1.818  11.257  10.839 -0.7321 -1.0966 -0.0465
35935SOL    HW211083   1.920  11.253  10.727 -0.2931 -0.6184  0.3302
35936SOL     OW11084   4.952   1.321   1.503 -0.2702 -0.7867  0.2083
35936SOL    HW111085   5.025   1.260   1.514  0.8816  0.7195  1.5740
35936SOL    HW211086   4.967   1.361   1.417  0.0489 -1.0604  0.1357
35937SOL     OW11087   3.960   8.635   6.201 -0.8027 -0.2854  0.0130
35937SOL    HW111088   3.931   8.725   6.210 -0.4562 -0.2636  1.0297
35937SOL    HW211089   3.887   8.590   6.159 -1.6261  0.1343  0.9636
35938SOL     OW11090   8.440   0.268   7.298 -0.1475 -0.7824 -0.1246
35938SOL    HW111091   8.454   0.363   7.306 -0.5786 -0.7462  0.2262
35938SOL    HW211092   8.412   0.256   7.208  2.2244 -0.8724 -0.9206
35939SOL     OW11093   2.732   8.994   3.794  0.6683 -0.0225 -0.2661
35939SOL    HW111094   2.752   8.901   3.797 -0.3617 -0.2471  0.4383
35939SOL    HW211095   2.686   9.006   3.710 -0.6888 -0.4965  0.3859
35940SOL     OW11096   7.999   7.815   1.631 -0.0686  0.0882  0.5319
35940SOL    HW111097   7.953   7.775   1.557  1.2226 -1.3203  0.4279
35940SOL    HW211098   8.078   7.853   1.593 -0.2030  0.8057  0.9582
35941SOL     OW11099   7.670   6.855   3.659  0.1749  0.0667  0.3128
35941SOL    HW111100   7.673   6.937   3.609  2.0533  1.8727  3.1090
35941SOL    HW211101   7.762   6.831   3.672 -0.3203 -1.7822  0.6991
35942SOL     OW11102   0.417   1.400   7.864  0.1544 -0.3420  0.0576
35942SOL    HW111103   0.487   1.437   7.811 -1.2189  1.8241 -0.3891
35942SOL    HW211104   0.411   1.309   7.836  1.3065  0.0245 -1.5006
35943SOL     OW11105   4.865   0.081   9.668  0.5995 -0.4819  0.3126
35943SOL    HW111106   4.819   0.128   9.599 -1.0970 -2.1700  0.2098
35943SOL    HW211107   4.878  -0.007   9.633  1.8828 -0.6940  1.2385
35944SOL     OW11108   2.845   9.158   7.508  0.1061  0.6358 -0.4647
35944SOL    HW111109   2.777   9.204   7.557 -0.0445 -0.5279  0.4756
35944SOL    HW211110   2.797   9.106   7.443 -0.3353 -2.7185  2.2399
35945SOL     OW11111  10.300   5.167   9.898  0.3435  0.7344  0.3084
35945SOL    HW111112  10.345   5.101   9.845 -0.7014  0.7214 -0.5959
35945SOL    HW211113  10.371   5.219   9.937  1.1616 -0.3367  0.2977
35946SOL     OW11114   8.234  11.148  10.673 -0.1274 -0.2020 -0.2502
35946SOL    HW111115   8.190  11.065  10.657 -3.1431  0.9404  1.2461
35946SOL    HW211116   8.290  11.132  10.749 -0.7719 -0.8544  0.0925
35947SOL     OW11117   2.644  11.250   4.724  0.1877 -0.1202 -0.3194
35947SOL    HW111118   2.709  11.310   4.761  0.8714  0.0930 -1.7978
35947SOL    HW211119   2.693  11.169   4.708 -0.6842 -1.0395  1.4828
35948SOL     OW11120   9.300   8.505   5.271 -0.1916  0.0940 -0.0301
35948SOL    HW111121   9.390   8.500   5.239  0.0963 -2.1562  0.9658
35948SOL    HW211122   9.299   8.454   5.352 -1.5182  3.2993  2.2012
35949SOL     OW11123   0.763  10.160   8.447 -0.0603 -0.0732  0.4464
35949SOL    HW111124   0.697  10.153   8.378 -0.1200  0.2980  0.4655
35949SOL    HW211125   0.757  10.250   8.478  1.6913  0.5162 -0.7761
35950SOL     OW11126   7.188   0.238   9.647  1.1390  0.5552 -0.0083
35950SOL    HW111127   7.266   0.290   9.627 -0.5048  3.5850  0.8388
35950SOL    HW211128   7.133   0.245   9.568  0.3964  1.1079  0.5507
35951SOL     OW11129   2.758  10.353   7.152 -0.0690 -0.0386 -0.1300
35951SOL    HW111130   2.736  10.260   7.148  1.2266 -0.3366 -0.9724
35951SOL    HW211131   2.853  10.355   7.163 -0.0568  1.1905 -0.2920
35952SOL     OW11132   5.708  11.242   4.697  0.2440  0.4383 -0.0130
35952SOL    HW111133   5.656  11.240   4.777  1.1830  1.1680  0.6296
35952SOL    HW211134   5.771  11.170   4.707  0.1760  0.3456 -0.2321
35953SOL     OW11135   5.788   0.232   0.560  0.0352  0.0131  0.4396
35953SOL    HW111136   5.811   0.272   0.476  0.8929  0.5944  0.9364
35953SOL    HW211137   5.751   0.147   0.537  0.1246  0.2256 -0.5297
35954SOL     OW11138   0.786   0.213   0.085 -0.9404  0.0365  0.2435
35954SOL    HW111139   0.774   0.298   0.043  0.8091  0.6212  0.8343
35954SOL    HW211140   0.796   0.152   0.012  1.2120  0.9093 -0.2660
35955SOL     OW11141  10.442   2.232   5.569  0.4883  0.0335  0.1124
35955SOL    HW111142  10.464   2.152   5.522 -1.3896  0.6439 -2.0183
35955SOL    HW211143  10.371   2.271   5.517  1.8173  3.4771  0.6119
35956SOL     OW11144   0.541   5.827   6.928  0.4167 -0.3263 -0.1062
35956SOL    HW111145   0.457   5.831   6.972 -0.3952  0.8868 -1.6530
35956SOL    HW211146   0.553   5.735   6.904 -1.0362 -0.3398 -0.8736
35957SOL     OW11147   0.246   8.940   9.408  0.3357 -0.5568 -0.1448
35957SOL    HW111148   0.293   8.866   9.370 -0.7318 -0.4073 -1.8516
35957SOL    HW211149   0.174   8.900   9.457  0.9163 -0.6911  0.6315
35958SOL     OW11150   1.445   9.105   0.953 -0.3618 -0.0522 -0.4485
35958SOL    HW111151   1.510   9.073   0.890 -0.0308 -0.9689  0.3349
35958SOL    HW211152   1.362   9.103   0.906 -0.0211 -0.0965 -1.0567
35959SOL     OW11153   5.941   4.022  10.519 -0.1592  0.1365  0.4299
35959SOL    HW111154   6.009   4.011  10.586  0.1035  0.5631  0.2378
35959SOL    HW211155   5.988   4.056  10.443 -0.4617 -0.3004  0.0396
35960SOL     OW11156   1.437   3.019   7.546 -0.0467  0.3843  0.4547
35960SOL    HW111157   1.422   3.113   7.551 -0.1556  0.4351 -0.5758
35960SOL    HW211158   1.491   3.007   7.468 -0.6485 -0.4666  0.1472
35961SOL     OW11159   3.297   7.521   6.730 -0.2300  0.1956  0.2553
35961SOL    HW111160   3.287   7.481   6.816 -0.7629 -1.5626 -0.5887
35961SOL    HW211161   3.239   7.471   6.673 -1.1441  2.3465 -0.8434
35962SOL     OW11162   6.927   2.333   7.366  0.1371  0.1852 -0.2044
35962SOL    HW111163   7.016   2.354   7.392 -0.3147  1.1830  0.5813
35962SOL    HW211164   6.877   2.413   7.382 -1.1637 -0.7425  0.6377
35963SOL     OW11165   7.985  10.758  11.279 -0.2183 -0.0614 -0.3654
35963SOL    HW111166   7.926  10.739  11.207 -0.9387 -0.4984  0.3298
35963SOL    HW211167   7.980  10.853  11.290 -1.1297 -0.1438 -0.0335
35964SOL     OW11168   5.678  10.640   0.111 -0.1415 -0.1898 -0.3231
35964SOL    HW111169   5.591  10.679   0.115 -0.1272 -0.2490  1.9686
35964SOL    HW211170   5.711  10.647   0.201  0.8305 -3.2316 -0.3319
35965SOL     OW11171   0.637   1.809   6.799 -0.4575  0.4396  0.5550
35965SOL    HW111172   0.710   1.843   6.849  0.2329  1.2884 -0.9577
35965SOL    HW211173   0.562   1.813   6.859  0.2300  1.8819  1.3602
35966SOL     OW11174   6.099   7.366   0.454 -0.4617  0.3621  0.3411
35966SOL    HW111175   6.049   7.422   0.395 -0.0885  0.2028 -0.1271
35966SOL    HW211176   6.190   7.389   0.439 -0.4169  1.2025  1.7595
35967SOL     OW11177   2.913   1.439   7.194 -0.5322  0.4974  0.2445
35967SOL    HW111178   2.839   1.381   7.211  0.7264 -0.5734  2.6454
35967SOL    HW211179   2.885   1.524   7.228 -0.7719  0.1670  0.8837
35968SOL     OW11180   7.329   1.457   7.161 -0.2924  0.2363  0.7345
35968SOL    HW111181   7.385   1.390   7.201 -0.1197 -0.2340 -0.2693
35968SOL    HW211182   7.361   1.540   7.198 -0.5638 -0.2193  2.0607
35969SOL     OW11183   7.173  10.483   1.962  0.2340  0.1445 -0.2982
35969SOL    HW111184   7.186  10.577   1.953  1.4845  0.0183 -0.0857
35969SOL    HW211185   7.103  10.474   2.026 -0.4312  0.9260 -0.8950
35970SOL     OW11186  10.541   1.057   0.422  0.1060 -0.1830  0.1243
35970SOL    HW111187  10.621   1.108   0.420  0.7012 -1.0880 -0.0023
35970SOL    HW211188  10.543   1.005   0.341 -0.5167 -0.3495  0.2052
35971SOL     OW11189   4.207   8.335   3.103 -0.4868 -0.4098 -0.0608
35971SOL    HW111190   4.291   8.363   3.139 -0.7423  1.0065 -0.5097
35971SOL    HW211191   4.190   8.251   3.145  0.5954 -0.1692  0.9151
35972SOL     OW11192   4.522  11.160  10.277  0.4098  0.2957 -0.2902
35972SOL    HW111193   4.437  11.197  10.253  1.4517  2.9532 -0.2341
35972SOL    HW211194   4.500  11.086  10.334 -1.8738  1.5035  0.5559
35973SOL     OW11195   7.900   1.925   6.568 -0.1077 -0.5270  0.1628
35973SOL    HW111196   7.853   1.843   6.554  0.8854 -0.9130 -1.0355
35973SOL    HW211197   7.881   1.977   6.491  0.3526 -0.1583  0.2939
35974SOL     OW11198  11.325   8.156   7.937 -0.1142 -0.6886 -0.8776
35974SOL    HW111199  11.362   8.090   7.878  1.0963 -1.7609  0.9773
35974SOL    HW211200  11.400   8.212   7.960 -0.9644  0.9132 -1.8073
35975SOL     OW11201   7.967   3.738  10.494 -0.0129 -0.3734 -0.1787
35975SOL    HW111202   8.060   3.740  10.518  0.1666  1.5536 -0.9155
35975SOL    HW211203   7.922   3.775  10.570  0.0675  0.9005 -0.7344
35976SOL     OW11204  10.044  10.684  11.003 -0.2683  0.3570 -0.3714
35976SOL    HW111205   9.980  10.726  11.061  1.8064  2.3311  0.6488
35976SOL    HW211206  10.034  10.731  10.919 -0.0527  0.7915 -0.1591
35977SOL     OW11207   5.270  10.772  11.148  0.0332 -0.2408  0.4761
35977SOL    HW111208   5.334  10.783  11.077 -0.1091 -0.2510  0.3451
35977SOL    HW211209   5.262  10.678  11.159 -0.0624 -0.2417  0.3988
35978SOL     OW11210  10.824  10.729   9.043  0.9514  0.0444  0.0352
35978SOL    HW111211  10.740  10.706   9.003 -0.9657  1.1684  3.0535
35978SOL    HW211212  10.866  10.787   8.979 -0.8410 -0.0293 -1.2899
35979SOL     OW11213   5.722   7.514   8.171  0.0468 -0.1094  0.3822
35979SOL    HW111214   5.784   7.489   8.103 -0.9421 -1.0292 -0.2081
35979SOL    HW211215   5.716   7.610   8.165 -1.2527 -0.2523 -1.9813
35980SOL     OW11216   2.431   6.068   9.562 -0.4515  1.0142 -0.4637
35980SOL    HW111217   2.524   6.071   9.583  0.2765  2.7514 -3.3165
35980SOL    HW211218   2.401   5.984   9.596  2.3012  0.1203 -0.0003
35981SOL     OW11219   4.429   9.963   4.963 -0.4793 -0.1007  0.3346
35981SOL    HW111220   4.502   9.982   4.904  0.1677 -2.5541  0.2216
35981SOL    HW211221   4.351   9.979   4.910  0.0872 -2.9164 -1.6005
35982SOL     OW11222   7.921  10.945   2.742  0.5418  0.4103 -0.1244
35982SOL    HW111223   7.898  10.990   2.824  0.1514  1.3916 -0.7442
35982SOL    HW211224   8.008  10.910   2.757 -0.1712 -0.8690  1.2860
35983SOL     OW11225   4.404   0.410   7.096  0.3101 -0.6468  0.0678
35983SOL    HW111226   4.362   0.325   7.092  1.9797 -1.5207  0.1765
35983SOL    HW211227   4.405   0.441   7.006 -1.5638 -0.0675  0.2203
35984SOL     OW11228   5.741   4.836   7.749 -0.2515  0.1568 -0.2027
35984SOL    HW111229   5.654   4.837   7.790  0.1852  0.6495  0.7306
35984SOL    HW211230   5.724   4.810   7.658 -1.3918  0.3723 -0.0663
35985SOL     OW11231   1.281   1.055   9.214 -0.7673  0.1417  0.4958
35985SOL    HW111232   1.208   1.109   9.244 -1.7200 -1.4837  1.2767
35985SOL    HW211233   1.304   1.001   9.290 -0.3567 -1.0521 -0.4414
35986SOL     OW11234   8.814   0.021   8.781 -1.0876  0.0385  0.1362
35986SOL    HW111235   8.876  -0.044   8.748 -0.8434 -0.2150  1.0848
35986SOL    HW211236   8.869   0.092   8.815 -1.2168 -0.9458  2.5844
35987SOL     OW11237  11.223  10.888   1.187 -0.3202  0.0039  0.4540
35987SOL    HW111238  11.218  10.850   1.099 -3.0337 -1.2163  1.0364
35987SOL    HW211239  11.315  10.878   1.212  0.4236 -0.0639 -2.0194
35988SOL     OW11240   5.862   7.687   8.990  0.3858  0.2853  0.3827
35988SOL    HW111241   5.773   7.699   8.954  0.6167  0.2152 -0.2281
35988SOL    HW211242   5.878   7.593   8.984  0.8688  0.4109 -0.4157
35989SOL     OW11243   0.064   8.973   7.320 -0.1218 -0.0634 -0.1338
35989SOL    HW111244   0.136   8.915   7.343  0.5041  0.6322 -0.3013
35989SOL    HW211245   0.019   8.929   7.248 -0.1664 -0.7342  0.2992
35990SOL     OW11246  10.584   1.203   7.235 -0.5586  0.6543  0.3654
35990SOL    HW111247  10.498   1.169   7.257 -0.5196 -0.8572 -1.5330
35990SOL    HW211248  10.583   1.212   7.139  1.5309  0.0916  0.2273
35991SOL     OW11249  10.987   4.118   1.938  0.3026  0.3107 -0.6320
35991SOL    HW111250  10.899   4.154   1.948 -0.2427 -0.8296 -1.2313
35991SOL    HW211251  10.998   4.106   1.844  0.7297 -0.4641 -0.4887
35992SOL     OW11252   6.309   7.317  10.392  0.1855  0.2250 -0.3001
35992SOL    HW111253   6.363   7.263  10.449  0.7085  0.4170 -0.6097
35992SOL    HW211254   6.273   7.256  10.328  0.7258  0.2381 -0.6120
35993SOL     OW11255   8.776   2.809   9.535 -0.0239  0.0622 -0.5501
35993SOL    HW111256   8.748   2.888   9.582 -0.8580  0.1320 -1.1551
35993SOL    HW211257   8.799   2.747   9.604  1.0114  0.9622 -0.0714
35994SOL     OW11258   1.698   6.019   4.182 -0.2221 -0.1972 -0.6803
35994SOL    HW111259   1.772   5.993   4.237 -1.9192 -1.2624  1.2624
35994SOL    HW211260   1.653   6.086   4.233 -0.2058  1.0157 -2.1875
35995SOL     OW11261   7.676   3.700   5.521 -0.5757 -0.7592  0.3623
35995SOL    HW111262   7.683   3.741   5.607 -0.9575  1.4179 -0.5712
35995SOL    HW211263   7.672   3.606   5.539  1.9390 -0.5601  2.5468
35996SOL     OW11264   4.086   8.080   3.460  0.4287 -0.6282  0.0981
35996SOL    HW111265   4.106   8.026   3.537  2.6060  0.1820  0.1590
35996SOL    HW211266   3.999   8.117   3.479  0.0010 -2.0800  1.1801
35997SOL     OW11267   4.045   7.947  10.391  0.0128  0.0339  0.1679
35997SOL    HW111268   4.057   7.993  10.308  2.4754  2.2190  1.6007
35997SOL    HW211269   4.016   8.015  10.452  1.8800 -0.6512  1.9304
35998SOL     OW11270  11.275   7.427   1.045 -0.2350 -0.2675 -0.2329
35998SOL    HW111271  11.239   7.372   1.114 -0.7334  0.2259 -0.0944
35998SOL    HW211272  11.317   7.499   1.091 -1.1573  0.4259 -0.4431
35999SOL     OW11273   3.758   3.594   1.086 -0.2591 -0.2005 -0.5205
35999SOL    HW111274   3.758   3.689   1.096 -0.6720 -0.3482  1.1750
35999SOL    HW211275   3.665   3.571   1.080 -0.1279 -0.4143 -2.1245
36000SOL     OW11276  10.953   2.590   2.575  0.5264 -0.3776  0.2178
36000SOL    HW111277  11.028   2.539   2.544 -0.7781 -2.4631  0.3305
36000SOL    HW211278  10.918   2.539   2.648 -0.3297  1.1648  0.9406
36001SOL     OW11279   8.413   4.935   8.704  0.3737  0.2854  0.1042
36001SOL    HW111280   8.344   4.981   8.752  0.1051  0.4456 -0.4182
36001SOL    HW211281   8.411   4.975   8.617 -0.9332 -1.7565 -0.8891
36002SOL     OW11282   6.620   4.440   2.644  0.0857  0.0163 -0.4262
36002SOL    HW111283   6.680   4.455   2.718 -1.1045  2.2666  0.1913
36002SOL    HW211284   6.555   4.378   2.678 -0.6391  1.2744  0.6290
36003SOL     OW11285   3.341   2.376  10.674  0.1544 -0.1196  0.0351
36003SOL    HW111286   3.423   2.340  10.641  0.3848  0.0373  0.4292
36003SOL    HW211287   3.357   2.389  10.767 -0.5613 -0.7779  0.2597
36004SOL     OW11288  10.807   9.502   2.338 -0.0021 -0.1610 -0.0319
36004SOL    HW111289  10.854   9.550   2.407 -0.2687 -2.9794  2.2867
36004SOL    HW211290  10.876   9.465   2.283  0.3389 -0.4856  0.6060
36005SOL     OW11291   4.939   5.699  10.690 -0.3413  0.0708  0.1601
36005SOL    HW111292   4.879   5.650  10.634  1.4854 -0.7352 -1.1774
36005SOL    HW211293   4.903   5.787  10.692  0.1117  0.4534 -3.2993
36006SOL     OW11294  10.530   5.102   9.157  0.4411 -0.3508 -0.7949
36006SOL    HW111295  10.551   5.190   9.188 -1.5653  0.3081 -1.1197
36006SOL    HW211296  10.435   5.103   9.145  0.2626 -2.8142 -0.0993
36007SOL     OW11297   2.542   2.878   8.957  0.3290 -0.2595 -0.2410
36007SOL    HW111298   2.572   2.800   9.004  0.7258  0.1790  0.2456
36007SOL    HW211299   2.564   2.862   8.865  0.7109 -0.5812 -0.0942
36008SOL     OW11300   7.937  11.100   6.467 -0.2943 -0.0736 -0.1277
36008SOL    HW111301   7.971  11.118   6.555 -0.1999  1.8339 -0.5139
36008SOL    HW211302   7.850  11.065   6.482  0.2472 -1.1027  0.7555
36009SOL     OW11303   8.775  11.327   5.685  0.0920 -0.0441 -0.6040
36009SOL    HW111304   8.778  11.289   5.597 -2.1031 -0.2626 -0.6193
36009SOL    HW211305   8.830  11.268   5.738  0.8492 -0.3163 -1.6663
36010SOL     OW11306  10.695   9.504   7.460  0.3335  1.0337 -0.4712
36010SOL    HW111307  10.610   9.535   7.430  0.5752  0.4443 -1.8058
36010SOL    HW211308  10.681   9.483   7.553 -1.5480 -1.0183 -1.1329
36011SOL     OW11309   8.099   7.869   3.526 -0.3075  0.4824 -0.1800
36011SOL    HW111310   8.029   7.926   3.494  0.7854  0.8373 -2.1124
36011SOL    HW211311   8.165   7.930   3.559  0.0170  0.2547 -0.4047
36012SOL     OW11312   4.548   4.447   0.142  0.1903 -0.4355 -0.3324
36012SOL    HW111313   4.511   4.377   0.196 -0.0281  1.1263  1.6689
36012SOL    HW211314   4.640   4.450   0.167 -0.0009  0.5648  0.2743
36013SOL     OW11315   1.339   9.832   5.774  0.0260 -0.5353  0.0258
36013SOL    HW111316   1.308   9.923   5.779 -0.8159 -0.7255 -1.2981
36013SOL    HW211317   1.324   9.807   5.683  1.4405 -1.6002  0.0656
36014SOL     OW11318  11.155   7.583   6.917 -0.8914  0.5352  0.0679
36014SOL    HW111319  11.079   7.529   6.941 -1.4334  0.1495 -2.2204
36014SOL    HW211320  11.190   7.613   7.000 -2.0244 -1.3754  1.3317
36015SOL     OW11321   7.669   6.859   1.130  0.8358 -0.2260 -0.3279
36015SOL    HW111322   7.762   6.871   1.111  0.9709 -2.0040 -0.9773
36015SOL    HW211323   7.666   6.827   1.220  0.6228  2.1500  0.5998
36016SOL     OW11324   5.876   3.574   9.670  0.0505  0.3075  0.5968
36016SOL    HW111325   5.793   3.622   9.676 -0.3193 -0.3393  0.7377
36016SOL    HW211326   5.934   3.618   9.733 -0.3879  0.3675  0.9585
36017SOL     OW11327   3.064   6.119  10.897 -0.1394 -0.3322  0.0078
36017SOL    HW111328   3.102   6.165  10.823  0.9513  3.3914  2.5892
36017SOL    HW211329   3.012   6.049  10.858 -1.1833  2.5092 -4.3457
36018SOL     OW11330   5.596   5.121  11.242  0.3738 -0.5382  0.1030
36018SOL    HW111331   5.539   5.173  11.298  2.6358 -0.7161  2.8394
36018SOL    HW211332   5.610   5.040  11.291  0.9577 -1.5537 -1.6686
36019SOL     OW11333   7.498   0.534  11.174 -0.0040 -0.0911  0.2967
36019SOL    HW111334   7.532   0.512  11.087  0.8076 -1.3290  0.8867
36019SOL    HW211335   7.570   0.579  11.217 -0.1871 -0.0141  0.5230
36020SOL     OW11336   2.125  11.207   3.844  0.1759  0.4217 -0.2524
36020SOL    HW111337   2.085  11.153   3.776  0.5590  1.4545 -1.3393
36020SOL    HW211338   2.214  11.173   3.852  0.0904  0.2151 -0.1712
36021SOL     OW11339   2.638   0.011   2.600 -0.2209 -0.0590  0.6782
36021SOL    HW111340   2.663  -0.029   2.516  0.4701  0.8015  0.4579
36021SOL    HW211341   2.576  -0.051   2.638  0.3167 -1.0146  0.0466
36022SOL     OW11342   9.501   7.066   0.484  0.2853 -0.8643 -0.2073
36022SOL    HW111343   9.434   7.077   0.552  1.2436 -1.4208  0.8538
36022SOL    HW211344   9.477   7.129   0.417 -0.7291 -0.3420  0.6112
36023SOL     OW11345  10.776   5.926   5.789 -0.0094  0.4241 -0.0411
36023SOL    HW111346  10.729   5.887   5.862 -0.9629  1.2095 -0.2122
36023SOL    HW211347  10.767   6.021   5.802  0.2456  0.5766 -0.8818
36024SOL     OW11348   7.446   8.992   3.469 -0.7850 -0.9555 -0.5218
36024SOL    HW111349   7.365   8.952   3.500 -0.6830 -1.0544 -0.3808
36024SOL    HW211350   7.490   8.923   3.420  0.1957 -1.5513  1.1555
36025SOL     OW11351   5.900   1.398   2.119  0.0978  0.2380  0.0725
36025SOL    HW111352   5.846   1.475   2.136  0.2362  0.2458  0.5024
36025SOL    HW211353   5.928   1.408   2.028  0.5641  0.9812  0.2831
36026SOL     OW11354   8.536   1.123   1.453 -0.2952  0.5023 -0.6750
36026SOL    HW111355   8.506   1.074   1.529 -1.2685  0.8895 -0.7991
36026SOL    HW211356   8.600   1.185   1.488 -0.1457  0.1353 -0.2987
36027SOL     OW11357   5.646  10.806   6.244  0.2183 -0.7439 -0.2913
36027SOL    HW111358   5.718  10.868   6.232  2.0295 -2.5160  0.9149
36027SOL    HW211359   5.574  10.843   6.192  1.3078  2.1568  0.0802
36028SOL     OW11360   5.503   9.111   7.397  0.0064  0.4158  0.6859
36028SOL    HW111361   5.576   9.142   7.344 -1.8336  0.8697 -1.8249
36028SOL    HW211362   5.429   9.166   7.370 -1.9120 -1.8632  0.8708
36029SOL     OW11363  10.915   3.720   6.018 -0.0525  0.0187  0.4487
36029SOL    HW111364  10.845   3.662   6.047  0.2714 -0.7314 -0.2423
36029SOL    HW211365  10.884   3.808   6.043 -0.3122 -0.4684  1.9583
36030SOL     OW11366   5.066   2.230   4.702 -0.0505 -0.3522 -0.0584
36030SOL    HW111367   4.984   2.275   4.686  0.7680  0.8138 -1.0841
36030SOL    HW211368   5.112   2.285   4.766  0.5841 -0.1550 -0.6674
36031SOL     OW11369   4.934  11.082   7.725 -0.4964  0.1589 -0.0959
36031SOL    HW111370   5.013  11.039   7.759 -1.0657 -0.7034  0.1701
36031SOL    HW211371   4.958  11.109   7.636 -0.3802 -1.4857 -0.5953
36032SOL     OW11372   7.955   8.694   0.389 -0.7348 -0.3784  0.1917
36032SOL    HW111373   7.909   8.775   0.366  1.0206  0.8726  0.8340
36032SOL    HW211374   8.036   8.698   0.338 -0.3472 -1.4397  0.7044
36033SOL     OW11375   7.452   5.270   7.375 -0.3057  0.4134 -0.1505
36033SOL    HW111376   7.377   5.243   7.429 -0.2895  2.1189  0.7939
36033SOL    HW211377   7.525   5.216   7.406 -0.2052  1.6022  1.8605
36034SOL     OW11378  10.089   3.780   3.515 -0.2467  0.3382  0.1240
36034SOL    HW111379  10.116   3.847   3.453  0.5755 -0.9070 -0.9247
36034SOL    HW211380  10.004   3.751   3.484 -0.3708  0.5327  0.2789
36035SOL     OW11381  10.209  10.745   2.967  0.3743 -0.2130  0.7398
36035SOL    HW111382  10.218  10.793   3.049 -0.6412 -0.1737  0.8371
36035SOL    HW211383  10.126  10.775   2.931  0.5163 -0.6912 -0.0044
36036SOL     OW11384   5.529   2.470   0.547 -0.0303 -0.0753 -0.2448
36036SOL    HW111385   5.595   2.538   0.533 -1.1110  1.2196  0.6629
36036SOL    HW211386   5.550   2.435   0.634  0.2121 -0.5735 -0.4963
36037SOL     OW11387   6.071   0.464   7.291 -0.4698 -0.1764  0.1018
36037SOL    HW111388   6.065   0.558   7.280  3.0102  0.1970  0.2517
36037SOL    HW211389   6.077   0.429   7.201  0.0522 -0.0279  0.0727
36038SOL     OW11390   5.908   1.181   1.634 -0.5642  0.2332  0.1957
36038SOL    HW111391   5.892   1.169   1.540  0.0095 -0.4799  0.1687
36038SOL    HW211392   5.942   1.096   1.663  0.8590  0.9290  0.6961
36039SOL     OW11393   4.725   0.036   7.594 -0.4450  0.2689 -0.2439
36039SOL    HW111394   4.742  -0.042   7.542 -0.7729 -1.9192  2.6465
36039SOL    HW211395   4.812   0.071   7.614 -0.2654  0.2763 -1.0169
36040SOL     OW11396   2.226   4.547   4.945 -0.4094 -0.6219  0.3134
36040SOL    HW111397   2.153   4.533   5.005 -0.4470 -1.2737  0.1230
36040SOL    HW211398   2.300   4.501   4.986  0.1857  0.9509  1.0555
36041SOL     OW11399   6.341   1.101   0.998  0.0334 -1.1465  0.1602
36041SOL    HW111400   6.254   1.063   1.003  0.3954 -1.8941  0.9810
36041SOL    HW211401   6.372   1.079   0.910  0.5611 -3.5509  0.8637
36042SOL     OW11402   1.035   7.829   8.164 -0.6605  0.1379  0.1529
36042SOL    HW111403   0.975   7.780   8.219 -1.9375 -0.4980 -1.6862
36042SOL    HW211404   1.077   7.763   8.109 -0.2520  0.8135 -0.3702
36043SOL     OW11405   5.285   6.917  10.543 -0.1955  0.0302  0.3505
36043SOL    HW111406   5.234   6.923  10.462 -0.2804 -1.2907  0.2833
36043SOL    HW211407   5.366   6.873  10.518 -0.3900 -0.7506  1.0445
36044SOL     OW11408   6.687   3.826   6.141 -0.3383 -0.1296  0.1875
36044SOL    HW111409   6.707   3.834   6.234 -1.5041 -1.4775  0.5847
36044SOL    HW211410   6.597   3.792   6.138 -1.0700  1.7497 -1.4576
36045SOL     OW11411  10.528   8.134   4.933 -0.2590 -0.4862 -0.0584
36045SOL    HW111412  10.600   8.077   4.903 -0.9022 -1.6425  0.5018
36045SOL    HW211413  10.561   8.223   4.922  0.4022 -0.9205 -1.9617
36046SOL     OW11414   6.136  10.224  10.748 -0.4475 -0.2056  0.0474
36046SOL    HW111415   6.215  10.247  10.699 -0.3270  1.5594  0.9859
36046SOL    HW211416   6.064  10.244  10.688 -0.2396 -0.0781 -0.1614
36047SOL     OW11417   3.756   0.437   4.012  0.3424 -0.0846 -0.6341
36047SOL    HW111418   3.812   0.361   4.000 -1.4326 -1.5661  0.0155
36047SOL    HW211419   3.809   0.499   4.062  0.9821 -1.9465  1.1033
36048SOL     OW11420   3.783   3.376   0.049 -0.4939 -0.3511 -0.4256
36048SOL    HW111421   3.759   3.367  -0.043 -2.7453  0.3527  0.0212
36048SOL    HW211422   3.718   3.324   0.096  1.5735 -2.0308  0.7361
36049SOL     OW11423   2.746   7.209   0.592  0.0857 -0.0517  0.4363
36049SOL    HW111424   2.771   7.250   0.675 -0.3073  0.5718  0.2499
36049SOL    HW211425   2.716   7.281   0.537 -0.0515 -0.5139 -0.1054
36050SOL     OW11426   8.789   3.389   9.639  0.4219 -0.0374 -0.0826
36050SOL    HW111427   8.830   3.399   9.725  0.9948  0.0674 -0.3630
36050SOL    HW211428   8.696   3.398   9.656  0.4892 -0.6349  0.6194
36051SOL     OW11429   8.887   6.764  10.796 -0.5270 -0.4563  0.3324
36051SOL    HW111430   8.920   6.676  10.778  1.2762 -0.0948  1.5379
36051SOL    HW211431   8.841   6.755  10.880 -0.4377 -0.2767  0.4002
36052SOL     OW11432   3.751   0.303   8.774 -0.1746 -0.3785  0.2403
36052SOL    HW111433   3.720   0.216   8.799  0.8324 -0.5684  0.9045
36052SOL    HW211434   3.788   0.339   8.855  0.7785  0.0601 -0.3746
36053SOL     OW11435   3.074   8.078   2.858 -0.1626  0.1384 -0.5621
36053SOL    HW111436   3.039   7.997   2.822 -0.1588 -0.3116  0.4339
36053SOL    HW211437   2.998   8.134   2.871 -0.4012 -0.4500  0.6174
36054SOL     OW11438   5.333  10.148   7.435  0.2103  0.0188 -0.2292
36054SOL    HW111439   5.295  10.125   7.350  1.6104  1.7032 -1.3767
36054SOL    HW211440   5.261  10.189   7.483  0.4821  3.5634 -2.5232
36055SOL     OW11441   2.017  10.200   9.484  0.1775  0.1756 -0.4065
36055SOL    HW111442   2.100  10.191   9.438  0.6203  1.1433  0.1615
36055SOL    HW211443   1.969  10.266   9.434 -0.7578 -1.2012 -1.4007
36056SOL     OW11444   0.286   1.446   1.623  0.5007  0.0579  0.4183
36056SOL    HW111445   0.317   1.527   1.663 -0.7835  0.4594  0.6524
36056SOL    HW211446   0.358   1.384   1.635  0.7094  0.5679  2.0990
36057SOL     OW11447   1.522   2.556   3.763  0.1911 -0.3981 -0.2199
36057SOL    HW111448   1.473   2.597   3.692  0.0588  1.1825  0.7351
36057SOL    HW211449   1.454   2.516   3.818  0.2887 -1.5644 -0.9216
36058SOL     OW11450   5.543   9.815   6.955 -0.5224  0.4257  0.2960
36058SOL    HW111451   5.495   9.825   6.873 -0.0767 -2.5306 -0.4512
36058SOL    HW211452   5.625   9.861   6.941 -1.3816  1.9568  0.0289
36059SOL     OW11453   2.272   5.847   2.849  0.1885 -0.1343  0.1355
36059SOL    HW111454   2.230   5.766   2.877  0.2290 -1.5710 -3.4446
36059SOL    HW211455   2.355   5.849   2.895 -0.2719 -1.5589  1.0759
36060SOL     OW11456   4.340   3.258   9.665 -0.1322 -0.5438  0.0308
36060SOL    HW111457   4.274   3.296   9.722 -0.5198 -0.0900 -0.7002
36060SOL    HW211458   4.370   3.332   9.611  2.0269 -0.4001  1.3202
36061SOL     OW11459   6.478   5.603   6.679  0.0738 -0.3358 -0.5413
36061SOL    HW111460   6.386   5.591   6.703 -0.0663  2.2413  0.4830
36061SOL    HW211461   6.523   5.616   6.763  1.1638 -0.3286 -1.1148
36062SOL     OW11462   6.233   0.561   6.859  0.5198 -0.1842 -0.3221
36062SOL    HW111463   6.242   0.649   6.821  1.1711 -0.3342 -0.5313
36062SOL    HW211464   6.315   0.517   6.835  0.7755 -0.4173  0.9310
36063SOL     OW11465   2.471  11.046   9.354  0.2508  0.4377  0.2762
36063SOL    HW111466   2.481  11.138   9.380  0.2081  0.5393 -0.0600
36063SOL    HW211467   2.419  11.006   9.424 -0.9308  0.9928 -0.2642
36064SOL     OW11468  10.626   2.894   0.416 -0.2291  0.0886  0.1828
36064SOL    HW111469  10.565   2.820   0.410 -0.7609  0.4562  0.9117
36064SOL    HW211470  10.573   2.966   0.450  0.0472  1.0967 -1.4160
36065SOL     OW11471   1.255   6.623  10.790 -0.5329 -0.0163 -0.5060
36065SOL    HW111472   1.287   6.534  10.782  1.0284  0.4264  0.3634
36065SOL    HW211473   1.282   6.666  10.709  0.4202  0.1339 -0.1279
36066SOL     OW11474   3.776   8.490   3.643  0.2272 -0.0983  0.1531
36066SOL    HW111475   3.852   8.494   3.700 -0.7096  0.2002  1.4335
36066SOL    HW211476   3.798   8.423   3.578  1.7021  0.2415  0.2671
36067SOL     OW11477  11.323   2.192   4.405  0.1121 -0.4494 -0.3642
36067SOL    HW111478  11.405   2.178   4.357  0.0088 -0.6599 -0.4825
36067SOL    HW211479  11.254   2.165   4.344 -0.0880  0.4028 -0.5246
36068SOL     OW11480   1.757  10.847  11.255 -0.3120 -0.4500 -0.1847
36068SOL    HW111481   1.804  10.898  11.321 -1.7658  0.9648 -0.1739
36068SOL    HW211482   1.699  10.791  11.306  1.9279 -2.9113 -0.1601
36069SOL     OW11483   1.987  10.508   2.627 -0.5625  0.4680  0.9001
36069SOL    HW111484   1.930  10.470   2.560 -0.0112  0.9036  0.1710
36069SOL    HW211485   1.970  10.602   2.621  1.2452  0.7656 -0.3199
36070SOL     OW11486  10.241   3.935   3.912  0.4963 -0.0030 -0.8095
36070SOL    HW111487  10.195   4.009   3.951 -0.4599 -1.0383  0.1114
36070SOL    HW211488  10.172   3.874   3.886  1.2764 -0.9428 -0.7750
36071SOL     OW11489   7.974   7.416   4.377 -0.0844  0.0375  0.0345
36071SOL    HW111490   7.926   7.497   4.397 -0.0893 -0.1701  0.8909
36071SOL    HW211491   7.949   7.396   4.287 -0.2058  0.9053 -0.1395
36072SOL     OW11492   8.234   1.804   8.512  0.5713  0.0728  0.4252
36072SOL    HW111493   8.260   1.803   8.604  1.0515  1.6993  0.3373
36072SOL    HW211494   8.216   1.712   8.491  0.9253 -0.3851  1.9948
36073SOL     OW11495   4.762   0.114  10.355 -0.3664 -0.3332 -0.2535
36073SOL    HW111496   4.797   0.184  10.409  2.2892 -1.3568 -0.4798
36073SOL    HW211497   4.750   0.153  10.269  0.7804 -0.0383 -0.2926
36074SOL     OW11498   7.761   0.659  11.190 -0.3556 -0.0134  0.0482
36074SOL    HW111499   7.746   0.658  11.284  0.5472  0.8550  0.2219
36074SOL    HW211500   7.790   0.749  11.171  0.4854 -0.4628 -0.8834
36075SOL     OW11501   6.675   6.097   9.885  0.0321  0.2257 -0.0492
36075SOL    HW111502   6.750   6.146   9.920 -0.0218 -0.9518  1.8598
36075SOL    HW211503   6.661   6.027   9.949 -1.7191 -0.5170 -1.1962
36076SOL     OW11504   1.175   1.906   3.202 -0.6921 -0.0745 -0.2907
36076SOL    HW111505   1.177   1.998   3.178 -0.8290 -0.0143 -0.0773
36076SOL    HW211506   1.266   1.883   3.221 -0.1815 -0.7132 -3.0354
36077SOL     OW11507   7.600   5.243   1.642  0.6510 -0.0372  0.0538
36077SOL    HW111508   7.629   5.279   1.558  0.9823  0.6114  0.4392
36077SOL    HW211509   7.504   5.244   1.636  0.5207  3.2362  0.9600
36078SOL     OW11510   1.794   5.708   6.815 -0.2723 -0.2670  0.1847
36078SOL    HW111511   1.821   5.670   6.731  0.0014  0.6103 -0.1333
36078SOL    HW211512   1.876   5.740   6.854 -0.4678 -0.2134  0.5531
36079SOL     OW11513   4.510   1.404   9.768  0.4221 -0.2543  0.4272
36079SOL    HW111514   4.521   1.309   9.775  0.4956 -0.2878 -0.0633
36079SOL    HW211515   4.463   1.429   9.847  1.8807 -0.4683  1.4027
36080SOL     OW11516   1.697   0.988   4.591 -0.2223  0.2248 -0.7351
36080SOL    HW111517   1.743   0.960   4.670  2.1183  0.2678 -1.9858
36080SOL    HW211518   1.635   0.918   4.572  0.3599 -0.5604  0.2064
36081SOL     OW11519   6.634   3.778   0.425 -0.2164  0.5214  0.1338
36081SOL    HW111520   6.684   3.860   0.435 -0.3079  0.3704  2.3310
36081SOL    HW211521   6.551   3.806   0.385  0.1113  1.3610  0.0049
36082SOL     OW11522  10.880   5.947   6.052  0.0147 -0.0851  0.0808
36082SOL    HW111523  10.962   5.978   6.013 -0.1348  1.1818  0.7473
36082SOL    HW211524  10.846   6.022   6.100 -1.1078 -0.8590  0.5289
36083SOL     OW11525  10.976   8.842   1.236 -0.1269 -0.1306 -1.1255
36083SOL    HW111526  11.062   8.825   1.275 -0.1917  0.6393 -0.6121
36083SOL    HW211527  10.984   8.812   1.146  1.3294  1.7122 -1.6861
36084SOL     OW11528   1.736   5.375   0.126  0.2097  0.4930 -0.2307
36084SOL    HW111529   1.700   5.346   0.210  2.5206 -0.1771  0.5882
36084SOL    HW211530   1.696   5.316   0.062 -0.2989 -0.0949  0.5994
36085SOL     OW11531   6.904   4.425   1.921  0.3839  0.3368 -0.8138
36085SOL    HW111532   6.942   4.347   1.961 -0.1652  0.3025 -0.3590
36085SOL    HW211533   6.847   4.391   1.851  0.0751  0.3246 -0.5571
36086SOL     OW11534   1.686   1.093   2.335 -0.1894  0.0139 -0.8457
36086SOL    HW111535   1.698   0.999   2.335 -1.9666 -0.2427 -0.8617
36086SOL    HW211536   1.638   1.112   2.254  1.6279  1.1802 -1.7352
36087SOL     OW11537   9.868   3.249   6.496 -0.4259  0.3007 -0.3988
36087SOL    HW111538   9.940   3.226   6.554 -0.7995  0.4780  0.1440
36087SOL    HW211539   9.856   3.343   6.508 -0.4726  0.3467 -0.8026
36088SOL     OW11540   5.211   7.562   5.279  0.3340  0.2548 -0.4891
36088SOL    HW111541   5.257   7.478   5.274  0.9594  0.5680 -0.0197
36088SOL    HW211542   5.202   7.590   5.188  0.5977 -0.0622 -0.6121
36089SOL     OW11543   3.811   4.356   8.088  0.2648  0.0017  0.3571
36089SOL    HW111544   3.815   4.389   8.178 -0.6838 -0.6629  0.6581
36089SOL    HW211545   3.725   4.315   8.081  0.5554 -0.4718 -0.6774
36090SOL     OW11546   1.033   2.301   2.459  0.1818 -0.3361 -0.7076
36090SOL    HW111547   1.051   2.377   2.403 -1.5518 -0.0888 -0.9626
36090SOL    HW211548   1.019   2.339   2.546 -0.3585 -0.3955 -0.7687
36091SOL     OW11549   1.274   4.599   7.211 -0.4389 -0.2723  0.1889
36091SOL    HW111550   1.196   4.581   7.159 -0.2139  1.1211 -0.6746
36091SOL    HW211551   1.319   4.669   7.164  0.1374  0.5618  1.8849
36092SOL     OW11552  10.275  10.648   5.582  0.2002 -0.3923  0.8859
36092SOL    HW111553  10.190  10.606   5.587  0.3980 -0.9474 -0.0707
36092SOL    HW211554  10.260  10.728   5.532  0.4065 -1.0100 -0.1978
36093SOL     OW11555   3.394   1.395   4.966 -0.1550 -0.1322  0.6551
36093SOL    HW111556   3.379   1.351   4.882  1.3422 -0.8728  0.7470
36093SOL    HW211557   3.330   1.355   5.025 -0.4260 -0.4540  0.1498
36094SOL     OW11558   0.821   3.378   1.119 -0.1922  0.3287  0.0232
36094SOL    HW111559   0.896   3.422   1.160 -1.8479  2.2959  1.1841
36094SOL    HW211560   0.778   3.332   1.191 -1.8472  1.9026  0.1077
36095SOL     OW11561   2.379   7.933  10.678 -0.0086 -0.3968  0.4071
36095SOL    HW111562   2.369   7.851  10.727  0.8774 -0.1260  1.0708
36095SOL    HW211563   2.293   7.974  10.682  0.0095 -0.4546  1.6188
36096SOL     OW11564   7.504   4.811   4.522  0.4901 -0.2958 -0.1101
36096SOL    HW111565   7.413   4.826   4.550 -0.0941 -2.3321 -0.7158
36096SOL    HW211566   7.519   4.876   4.454 -0.9326 -0.6078 -0.7767
36097SOL     OW11567  10.469  10.022   2.545 -0.2265  0.0980  0.0635
36097SOL    HW111568  10.494   9.929   2.540  2.1335  0.7042 -1.0789
36097SOL    HW211569  10.550  10.067   2.568 -1.4170  1.8810  0.9790
36098SOL     OW11570   9.925   1.260   1.399 -0.1142  0.0066 -0.8756
36098SOL    HW111571   9.921   1.164   1.406 -0.4958 -0.0205 -1.3788
36098SOL    HW211572   9.853   1.291   1.453 -0.3887 -0.0171 -1.2292
36099SOL     OW11573   2.936   7.222   8.369 -0.6375  0.3438 -0.2615
36099SOL    HW111574   2.969   7.132   8.373 -0.7025  0.3446  0.5683
36099SOL    HW211575   2.929   7.241   8.276  1.5793  0.3100 -0.4914
36100SOL     OW11576   3.200   2.474   8.333  0.1061  0.0788 -0.0560
36100SOL    HW111577   3.222   2.523   8.254 -0.3901 -1.7181 -1.3881
36100SOL    HW211578   3.130   2.414   8.306 -0.3487 -0.3366  1.8486
36101SOL     OW11579   5.905  10.016   0.160 -0.1353 -0.5016  0.3374
36101SOL    HW111580   5.952   9.936   0.184 -0.4339 -1.3293 -1.6471
36101SOL    HW211581   5.963  10.060   0.098 -0.9431 -0.3360 -0.3098
36102SOL     OW11582  10.010   9.409  10.730  0.4116  0.8631  0.0284
36102SOL    HW111583  10.061   9.402  10.649  1.3875  0.3317  0.6683
36102SOL    HW211584  10.075   9.422  10.799 -0.2436 -0.4969  0.9535
36103SOL     OW11585   0.628   3.640   0.164  0.2715 -0.1550 -0.5342
36103SOL    HW111586   0.595   3.563   0.211 -4.9641  2.3315  0.7093
36103SOL    HW211587   0.655   3.700   0.233  1.9477  0.0832 -1.3596
36104SOL     OW11588   1.957   6.963   5.884 -0.7158 -0.8066 -0.9724
36104SOL    HW111589   1.990   6.952   5.795  2.6762 -1.6886  0.2563
36104SOL    HW211590   1.952   6.874   5.919 -2.6313 -0.5268 -0.4196
36105SOL     OW11591   8.504   0.153   8.177 -0.5696 -0.1656  0.6446
36105SOL    HW111592   8.411   0.138   8.192 -0.7386  0.0826 -0.0816
36105SOL    HW211593   8.535   0.073   8.135 -1.0863  0.7568 -1.6416
36106SOL     OW11594   0.955   4.797   2.380  0.0854  0.0293 -0.2524
36106SOL    HW111595   0.958   4.706   2.408  0.0674 -0.2038 -0.9932
36106SOL    HW211596   0.892   4.798   2.308 -0.8488  0.8530  0.5351
36107SOL     OW11597   5.885   5.122   8.104  0.2530 -0.4231  0.0772
36107SOL    HW111598   5.924   5.038   8.128 -0.6554 -0.4356  1.6489
36107SOL    HW211599   5.904   5.179   8.179 -0.9920  0.1345 -0.0137
36108SOL     OW11600   8.635   1.756   9.968 -0.0129 -0.0354 -0.6545
36108SOL    HW111601   8.585   1.716   9.897 -1.6947 -0.4290  0.6877
36108SOL    HW211602   8.609   1.848   9.967 -0.9300 -0.2749  0.1523
36109SOL     OW11603   6.124   9.870   4.288 -0.2305 -0.2988 -0.1755
36109SOL    HW111604   6.121   9.842   4.379  1.5679 -0.0619  0.0074
36109SOL    HW211605   6.215   9.896   4.274 -0.2439 -1.1048 -2.2691
36110SOL     OW11606   6.184   8.515   7.344  0.0622 -0.3366 -0.8111
36110SOL    HW111607   6.107   8.543   7.294 -1.2813 -3.7046 -0.9302
36110SOL    HW211608   6.250   8.493   7.278  0.6724  1.2512 -0.7624
36111SOL     OW11609   2.445   1.998   7.197 -0.0779  0.0144 -0.4266
36111SOL    HW111610   2.446   1.941   7.273 -0.6549  0.0663 -0.3797
36111SOL    HW211611   2.538   2.013   7.177  0.1099 -1.6665 -0.9837
36112SOL     OW11612   6.993   2.864   5.610  0.1113 -0.0042  0.4873
36112SOL    HW111613   6.947   2.943   5.635 -0.3795 -0.6786  1.7965
36112SOL    HW211614   6.970   2.851   5.518 -1.1701  0.4387  0.7302
36113SOL     OW11615   4.530   7.493   5.117 -0.7446 -0.3031 -0.1483
36113SOL    HW111616   4.510   7.416   5.171  1.0611 -0.0723  0.9357
36113SOL    HW211617   4.591   7.461   5.051  0.0891  0.1935  0.3650
36114SOL     OW11618   2.188   6.961   1.550  0.2876 -0.1399  0.3042
36114SOL    HW111619   2.106   7.003   1.523 -0.0618  0.0101  1.5218
36114SOL    HW211620   2.193   6.978   1.644  2.6513  1.4610 -0.0412
36115SOL     OW11621   4.664   2.609   6.686 -0.0546  0.7411 -0.0284
36115SOL    HW111622   4.708   2.552   6.623  1.2046  1.1258  0.4724
36115SOL    HW211623   4.730   2.626   6.753 -0.8106  1.7647  0.4807
36116SOL     OW11624   3.352  10.594   3.227 -0.2946 -0.2499  0.9476
36116SOL    HW111625   3.439  10.585   3.264  0.2166  0.0869 -0.1334
36116SOL    HW211626   3.309  10.511   3.247  0.0865 -0.2247  1.9309
36117SOL     OW11627   2.922   5.370   9.748 -0.0515  0.1875 -0.5781
36117SOL    HW111628   2.895   5.444   9.802  1.5511  1.9020 -1.9379
36117SOL    HW211629   2.947   5.302   9.810 -1.9103  0.6389  0.7192
36118SOL     OW11630   0.045   6.661   0.857 -0.7439  0.0951  0.0109
36118SOL    HW111631   0.113   6.647   0.792 -1.2751  0.0347 -0.5436
36118SOL    HW211632  -0.018   6.591   0.841  0.9653 -2.4451  3.1469
36119SOL     OW11633  11.351   3.934   2.688  0.0145 -0.1746  0.1134
36119SOL    HW111634  11.324   3.992   2.617 -0.4842 -0.0236  0.4278
36119SOL    HW211635  11.360   3.990   2.764 -0.3883 -0.4878  0.3999
36120SOL     OW11636   6.968  10.757   7.082 -0.5053  0.7257 -0.5152
36120SOL    HW111637   6.890  10.775   7.135 -0.7437 -1.7731  0.1113
36120SOL    HW211638   6.995  10.669   7.108  0.5548  0.1770 -3.1627
36121SOL     OW11639   9.034   1.902   1.357 -0.1656 -0.2420 -0.0712
36121SOL    HW111640   9.028   1.808   1.373 -0.7583 -0.0731  0.7751
36121SOL    HW211641   9.045   1.910   1.262  0.0289 -1.1648 -0.1311
36122SOL     OW11642   6.848   7.283   6.262 -0.5544 -0.1178  0.4656
36122SOL    HW111643   6.906   7.359   6.253  0.4042 -1.0532 -2.3099
36122SOL    HW211644   6.883   7.235   6.337  1.3090  0.1763 -0.1677
36123SOL     OW11645  10.045   3.072   4.157  0.7713  0.7162 -0.4750
36123SOL    HW111646  10.135   3.040   4.148  1.3602  2.3507 -0.7530
36123SOL    HW211647  10.054   3.156   4.202 -0.6376  0.8321 -0.3726
36124SOL     OW11648   3.296  10.009   7.350  0.4945  0.4107  0.4647
36124SOL    HW111649   3.358  10.077   7.326  0.8666  0.0869  0.5047
36124SOL    HW211650   3.347   9.928   7.348  0.4723  0.3237  2.0087
36125SOL     OW11651   6.923   6.155   1.650  0.1694  0.3575  0.6646
36125SOL    HW111652   6.959   6.069   1.627 -0.5797 -0.3296  1.9576
36125SOL    HW211653   6.828   6.144   1.642  0.0744  2.1036 -2.5493
36126SOL     OW11654   2.368   0.689   5.700 -0.1042 -0.4025 -0.5043
36126SOL    HW111655   2.318   0.634   5.759 -0.6587 -1.3121 -1.7690
36126SOL    HW211656   2.428   0.738   5.756 -0.9805 -0.8288  0.8302
36127SOL     OW11657   6.174   4.997   4.502  0.1715  0.2109  0.2562
36127SOL    HW111658   6.141   4.909   4.485  1.8623 -0.3866 -0.1059
36127SOL    HW211659   6.200   5.030   4.416 -0.8854  1.2903  0.3145
36128SOL     OW11660   5.062   8.242   7.139  0.2947 -0.3196  0.8929
36128SOL    HW111661   5.140   8.220   7.189 -0.1037  1.4323  2.3746
36128SOL    HW211662   5.016   8.306   7.192 -2.1314 -1.2066  0.0190
36129SOL     OW11663   4.572  10.852   4.369 -0.4445  0.5248  0.2744
36129SOL    HW111664   4.547  10.814   4.285 -1.5851 -1.3620  1.3855
36129SOL    HW211665   4.581  10.946   4.351  1.9983 -0.0915 -2.5162
36130SOL     OW11666   2.976   6.524   8.841  0.1624 -0.8925  0.4178
36130SOL    HW111667   3.044   6.578   8.880 -0.0362 -1.1854  1.1748
36130SOL    HW211668   2.947   6.573   8.764  0.4700 -0.2551  0.7071
36131SOL     OW11669   3.395  10.267  11.351 -0.2058  0.1353 -0.2772
36131SOL    HW111670   3.462  10.335  11.343  1.8378 -1.7557 -0.4401
36131SOL    HW211671   3.330  10.288  11.285  0.1048  2.1856  0.0248
36132SOL     OW11672  10.270   0.558   7.196 -0.4024  0.2387  0.0237
36132SOL    HW111673  10.305   0.590   7.113  1.7899  0.1920  0.8622
36132SOL    HW211674  10.180   0.533   7.176 -0.5031  1.8643 -1.9128
36133SOL     OW11675   6.896   5.515   4.360  0.7057  0.1195  0.8847
36133SOL    HW111676   6.989   5.519   4.339  1.1430 -3.4908  1.4306
36133SOL    HW211677   6.891   5.534   4.453  1.0136 -0.3334  0.9975
36134SOL     OW11678   2.323   8.031   3.990 -0.2622 -0.0724  0.4649
36134SOL    HW111679   2.312   8.117   3.950 -1.6598  0.0779  1.1261
36134SOL    HW211680   2.292   8.042   4.080  0.0077 -1.1475  0.7048
36135SOL     OW11681  10.983  10.133   1.528 -0.1849  0.2505 -0.6760
36135SOL    HW111682  10.946  10.048   1.504  1.2394  0.1202 -2.6339
36135SOL    HW211683  10.907  10.190   1.537 -1.0963 -0.9467 -0.4462
36136SOL     OW11684  10.124   4.550   2.535  0.0924  0.1692 -0.4657
36136SOL    HW111685  10.029   4.565   2.535 -0.5400 -2.6454  2.1578
36136SOL    HW211686  10.137   4.480   2.471  0.0719 -0.6886  0.4468
36137SOL     OW11687   7.508   3.164   9.867  0.0824 -0.0438  0.1826
36137SOL    HW111688   7.522   3.168   9.962 -1.3715 -1.3038  0.4780
36137SOL    HW211689   7.582   3.113   9.834 -0.3620 -1.1824  0.8905
36138SOL     OW11690   6.312   9.403   7.521  0.1504 -0.0199 -0.1369
36138SOL    HW111691   6.305   9.483   7.470  0.8670 -0.9674 -1.8389
36138SOL    HW211692   6.334   9.431   7.609  1.5872  1.6082 -0.9728
36139SOL     OW11693   0.912   5.511   7.683 -0.3578  0.8080 -0.2267
36139SOL    HW111694   0.844   5.515   7.616  0.6492 -0.2356 -1.3478
36139SOL    HW211695   0.887   5.579   7.746 -2.2897  0.6202 -0.7229
36140SOL     OW11696   7.687   4.157   4.740 -0.3291 -0.1888  0.2726
36140SOL    HW111697   7.690   4.162   4.835  0.6539  0.0089  0.2433
36140SOL    HW211698   7.774   4.186   4.711  0.2478 -2.5003 -0.5733
36141SOL     OW11699   5.558   5.736   6.935 -0.5746  0.0970  0.5905
36141SOL    HW111700   5.506   5.656   6.947  3.0052 -2.3229  1.5051
36141SOL    HW211701   5.547   5.758   6.843 -2.3557 -0.8408  0.5214
36142SOL     OW11702   6.767   9.939   7.416 -0.1445 -0.0093 -0.1841
36142SOL    HW111703   6.807  10.012   7.367  0.6439 -1.0514 -1.1625
36142SOL    HW211704   6.815   9.936   7.498  1.6843 -1.0650 -1.2301
36143SOL     OW11705   7.679   9.958   6.600 -0.3396  0.3743  0.5883
36143SOL    HW111706   7.770   9.987   6.606 -0.2212  0.1345 -0.0547
36143SOL    HW211707   7.684   9.866   6.573 -0.7779  0.4605  0.1989
36144SOL     OW11708  11.242   7.872   4.241 -0.2187 -0.1513  0.0676
36144SOL    HW111709  11.290   7.949   4.271 -0.3145 -0.1806  0.3023
36144SOL    HW211710  11.301   7.798   4.257 -0.8977 -0.3864  1.8203
36145SOL     OW11711   3.256   8.534   8.926  0.2241 -0.4543  0.2269
36145SOL    HW111712   3.275   8.584   8.847 -0.5068 -1.4738 -0.6329
36145SOL    HW211713   3.320   8.564   8.990  1.4000 -0.2151 -1.0125
36146SOL     OW11714   4.301   9.353   6.153 -0.6713 -0.4184 -0.3229
36146SOL    HW111715   4.317   9.419   6.221  0.3215 -1.4273  0.4804
36146SOL    HW211716   4.221   9.382   6.110 -0.5686  1.0018  0.3681
36147SOL     OW11717   3.101  11.220   9.011  0.2938 -0.2162  0.0293
36147SOL    HW111718   3.103  11.225   9.107  1.4307 -0.0502  0.0052
36147SOL    HW211719   3.191  11.202   8.986  0.1141  0.3000 -1.0445
36148SOL     OW11720   6.551   9.780   2.608 -0.0888  0.4096 -0.1921
36148SOL    HW111721   6.475   9.726   2.630  0.4592 -0.3897 -0.2102
36148SOL    HW211722   6.585   9.743   2.526  1.5646 -0.6266  0.8982
36149SOL     OW11723   6.734   8.391   5.075  0.1159 -0.1074 -0.4608
36149SOL    HW111724   6.773   8.318   5.027 -1.3192 -1.2727  0.0827
36149SOL    HW211725   6.763   8.380   5.165 -1.8900 -1.3892  0.0989
36150SOL     OW11726   7.454   6.009   6.613 -0.2820  0.6515 -0.7492
36150SOL    HW111727   7.364   5.987   6.636 -0.6638 -0.2099 -2.9075
36150SOL    HW211728   7.507   5.961   6.678 -1.3270  0.4611 -0.0041
36151SOL     OW11729   9.239   1.605   5.539 -0.1435  0.3955  0.6674
36151SOL    HW111730   9.288   1.535   5.497 -1.6582 -0.2023 -0.1938
36151SOL    HW211731   9.305   1.670   5.562  1.2529 -1.1035  1.1042
36152SOL     OW11732   4.825   6.648   0.468 -0.0821 -0.2385  0.2233
36152SOL    HW111733   4.834   6.664   0.374 -0.4309  0.2577  0.2705
36152SOL    HW211734   4.785   6.562   0.474  0.6170 -0.5944 -0.0663
36153SOL     OW11735   2.270   9.499   0.690  0.4821  0.6366 -0.1845
36153SOL    HW111736   2.241   9.549   0.767 -0.7492 -1.5489  0.8701
36153SOL    HW211737   2.213   9.422   0.689  1.3100 -0.0283 -2.5912
36154SOL     OW11738   9.016   3.282   4.706  0.2323  0.2633 -0.1426
36154SOL    HW111739   8.978   3.296   4.793  0.0653 -0.3469 -0.1156
36154SOL    HW211740   8.943   3.295   4.645  0.3366  0.6362 -0.1896
36155SOL     OW11741   3.626   5.916   0.860  0.0897 -0.2343  0.0074
36155SOL    HW111742   3.555   5.879   0.806 -0.3320  1.7340 -0.8569
36155SOL    HW211743   3.662   5.987   0.807  0.5396  0.9206  1.7921
36156SOL     OW11744   8.115   2.256   1.201 -0.6698 -0.7940  0.6641
36156SOL    HW111745   8.090   2.188   1.264 -1.3097 -0.1100  1.1569
36156SOL    HW211746   8.169   2.210   1.137 -0.7614 -1.6874  1.2127
36157SOL     OW11747   4.738   8.774   3.906  0.9572 -0.2379 -0.1235
36157SOL    HW111748   4.824   8.743   3.932  0.7764 -1.9171 -1.4262
36157SOL    HW211749   4.722   8.734   3.821 -1.3653 -0.4787  0.3654
36158SOL     OW11750  10.878   7.653   0.801  0.1456 -0.3888  0.3029
36158SOL    HW111751  10.853   7.587   0.737 -0.1453 -0.7305  0.7584
36158SOL    HW211752  10.958   7.618   0.842  0.4774 -0.0514 -0.0467
36159SOL     OW11753   5.145   2.285   6.289 -0.3328  0.0286  0.4735
36159SOL    HW111754   5.099   2.345   6.348 -1.9143 -0.0224 -0.6483
36159SOL    HW211755   5.202   2.342   6.237 -1.5050  0.5545 -0.2890
36160SOL     OW11756   0.958   1.443   1.194  0.0850  0.8116  0.0993
36160SOL    HW111757   1.023   1.453   1.263 -1.2027 -0.3417  1.5527
36160SOL    HW211758   0.931   1.533   1.174  1.3258  1.2303  0.2277
36161SOL     OW11759   6.995   8.647   5.283 -0.0158 -0.5274  0.4625
36161SOL    HW111760   7.000   8.669   5.190 -0.5097 -1.4033  0.2233
36161SOL    HW211761   6.917   8.592   5.291  0.4438 -1.0832  1.2739
36162SOL     OW11762   4.849   0.400  10.423 -0.2642  0.1203  0.6633
36162SOL    HW111763   4.862   0.494  10.433  1.0517 -0.0565  0.8093
36162SOL    HW211764   4.881   0.380  10.335 -1.6674 -0.0168  0.1682
36163SOL     OW11765   4.554   6.442   5.954 -0.4473 -0.0975  0.1772
36163SOL    HW111766   4.468   6.429   5.993  0.4636  0.8346  2.7431
36163SOL    HW211767   4.589   6.519   5.999  1.6337 -0.2949 -0.9569
36164SOL     OW11768   0.584   3.781   0.999  0.4616 -0.5547  0.0256
36164SOL    HW111769   0.550   3.801   1.086 -0.8310 -0.6988 -0.4262
36164SOL    HW211770   0.528   3.832   0.940  0.5972 -1.3369 -0.7841
36165SOL     OW11771   2.587   3.126   1.895  0.2320  0.0100  0.7631
36165SOL    HW111772   2.587   3.031   1.900 -0.7769 -0.0915 -0.5798
36165SOL    HW211773   2.611   3.146   1.805 -0.5951  0.9886  0.7330
36166SOL     OW11774   5.410   8.102   0.457  0.6352 -0.1595 -0.5233
36166SOL    HW111775   5.454   8.133   0.378 -0.0608 -0.5088 -1.0621
36166SOL    HW211776   5.318   8.125   0.444  0.5426 -0.0395  0.2785
36167SOL     OW11777   8.836   5.750   6.101 -0.3489  0.3032 -0.1685
36167SOL    HW111778   8.744   5.726   6.105 -0.4604  0.4422 -1.5451
36167SOL    HW211779   8.848   5.787   6.013  1.6934 -2.6169 -1.2614
36168SOL     OW11780   0.195   8.733   3.484 -0.1643 -0.1675  1.0154
36168SOL    HW111781   0.229   8.662   3.431 -0.8319 -0.5743  1.1170
36168SOL    HW211782   0.206   8.704   3.574  0.7798  0.4349  1.1068
36169SOL     OW11783   7.552   9.933   0.127 -0.4174  0.4600 -0.7248
36169SOL    HW111784   7.523   9.964   0.213 -0.5540 -1.4729 -0.0398
36169SOL    HW211785   7.472   9.900   0.085 -0.4238  1.7224 -1.7942
36170SOL     OW11786   4.409   9.744   4.366  0.3088  0.1302 -0.5291
36170SOL    HW111787   4.359   9.683   4.312  1.3812 -0.5934 -0.7337
36170SOL    HW211788   4.374   9.830   4.344 -1.1435 -0.3795 -0.3348
36171SOL     OW11789   1.542   7.487   9.845  0.1177  0.2485 -0.2283
36171SOL    HW111790   1.507   7.570   9.878  1.1115  0.3877  0.4907
36171SOL    HW211791   1.637   7.498   9.847  0.3560 -1.5197  1.5506
36172SOL     OW11792   9.258   4.325   8.180  0.4719 -0.6000  0.0372
36172SOL    HW111793   9.200   4.288   8.247  1.9868 -2.8604  0.2272
36172SOL    HW211794   9.336   4.352   8.229 -0.0888  1.8329 -0.2980
36173SOL     OW11795   6.863   7.862  10.178  0.0728  0.3835  0.4485
36173SOL    HW111796   6.877   7.874  10.084 -0.0499 -0.4706  0.3172
36173SOL    HW211797   6.904   7.778  10.198 -0.6421  0.1607  0.9996
36174SOL     OW11798   0.256  10.902   9.843 -0.0899  0.1012  0.1730
36174SOL    HW111799   0.332  10.940   9.798  0.0924 -0.5815 -0.1034
36174SOL    HW211800   0.294  10.849   9.913 -0.2256 -1.3870 -0.8281
36175SOL     OW11801   7.907   9.795   1.485  0.0379  0.2268  0.0625
36175SOL    HW111802   7.855   9.715   1.492 -0.7964  0.7892  0.5175
36175SOL    HW211803   7.844   9.862   1.460  0.5381  0.9410  0.6932
36176SOL     OW11804   3.162   2.642   9.120  0.3395  0.2000  0.3507
36176SOL    HW111805   3.205   2.706   9.176  1.0051 -1.3133  1.6424
36176SOL    HW211806   3.075   2.630   9.158 -0.5846  1.7769 -1.0942
36177SOL     OW11807   7.789  10.049   1.101 -0.5941 -0.0338 -0.6123
36177SOL    HW111808   7.783   9.964   1.059  1.1483 -1.5886  1.9930
36177SOL    HW211809   7.855  10.097   1.050 -1.4377 -0.2711 -1.9674
36178SOL     OW11810   4.442   7.019   1.303 -0.1928 -0.1382  0.4065
36178SOL    HW111811   4.450   7.107   1.267  0.2596  0.0767  1.0221
36178SOL    HW211812   4.492   7.021   1.385 -0.1914 -0.9574  0.4400
36179SOL     OW11813   0.740   3.211   5.169  0.4647 -0.2769  0.0298
36179SOL    HW111814   0.775   3.205   5.080 -0.5396 -1.2702 -0.3178
36179SOL    HW211815   0.659   3.262   5.159 -0.3110 -1.4413  0.1447
36180SOL     OW11816   3.844   4.214   7.211  0.2165 -0.1941  1.0462
36180SOL    HW111817   3.864   4.285   7.151  0.5463 -1.0089  0.1666
36180SOL    HW211818   3.748   4.206   7.208  0.2331 -0.2524  0.5912
36181SOL     OW11819   3.544   6.557   1.211  0.3214  0.0061 -0.4628
36181SOL    HW111820   3.622   6.610   1.228  0.5271 -0.2095 -0.7203
36181SOL    HW211821   3.559   6.476   1.259  0.5784 -0.3178 -1.0768
36182SOL     OW11822   6.567   0.923   9.775 -0.4430  0.2778 -0.3761
36182SOL    HW111823   6.606   0.989   9.833  0.2538 -0.2252 -0.2599
36182SOL    HW211824   6.473   0.940   9.780 -0.3162  0.9030  0.0919
36183SOL     OW11825   8.328   6.821   5.196  0.1742  0.3681  0.3843
36183SOL    HW111826   8.271   6.893   5.223  0.9508  1.3685 -0.5687
36183SOL    HW211827   8.413   6.840   5.237  0.4280  0.0745  0.0098
36184SOL     OW11828   3.191   0.609  11.337  0.8525  0.0479  0.7836
36184SOL    HW111829   3.162   0.517  11.337 -0.9417  0.5631  0.3119
36184SOL    HW211830   3.138   0.650  11.268  1.1218  1.5818  1.4590
36185SOL     OW11831   5.512   6.951   6.581  0.0183  0.4648  0.6205
36185SOL    HW111832   5.595   6.907   6.560  0.1048  1.3685 -1.1220
36185SOL    HW211833   5.519   6.974   6.673  2.0974  1.3101  0.2946
36186SOL     OW11834  10.066   4.506  10.039 -0.2168 -0.4567 -0.1948
36186SOL    HW111835  10.007   4.564   9.992  0.2325  0.7748  0.6996
36186SOL    HW211836  10.094   4.442   9.974  0.0004  0.8770 -1.4635
36187SOL     OW11837   9.776   5.596   4.064  0.1880 -0.1937 -0.3045
36187SOL    HW111838   9.730   5.595   3.979 -1.9353  0.2381  0.7793
36187SOL    HW211839   9.758   5.683   4.100  2.2244  0.1386  0.0571
36188SOL     OW11840   9.056   0.805   1.124 -0.1655  0.1519  0.5125
36188SOL    HW111841   9.124   0.785   1.060  0.4143 -0.6639  1.3438
36188SOL    HW211842   9.077   0.893   1.155 -0.2670  0.4237 -0.1867
36189SOL     OW11843   7.926   9.294   6.622  0.3972 -0.1190 -0.2015
36189SOL    HW111844   7.923   9.269   6.529  0.0180  1.1241 -0.5460
36189SOL    HW211845   7.985   9.369   6.625 -0.4458  0.5468  0.3754
36190SOL     OW11846   9.816   0.909   7.851 -0.0142 -0.5117 -0.6040
36190SOL    HW111847   9.726   0.922   7.881 -0.0599 -0.9906 -0.5280
36190SOL    HW211848   9.837   0.989   7.803 -1.4764 -1.5172 -3.1205
36191SOL     OW11849   9.136   5.364   2.119  0.1271 -0.2158 -0.4023
36191SOL    HW111850   9.204   5.314   2.073 -0.3126 -1.7363  0.5348
36191SOL    HW211851   9.100   5.303   2.184 -0.3352  1.3678  0.9212
36192SOL     OW11852   5.127  10.552   2.029 -0.7347  0.5268  0.5870
36192SOL    HW111853   5.050  10.598   1.996  0.3699  1.5452 -0.6879
36192SOL    HW211854   5.162  10.506   1.953  1.2805  2.0766  0.4916
36193SOL     OW11855   9.277   7.074  11.141 -0.3055 -0.2280 -0.0399
36193SOL    HW111856   9.360   7.099  11.101  1.1137 -3.1545  0.7441
36193SOL    HW211857   9.256   6.989  11.100 -2.2817 -0.1289  0.6688
36194SOL     OW11858   6.079   9.511   2.588 -0.6323  0.1088 -0.4053
36194SOL    HW111859   6.154   9.480   2.537 -0.2694  0.3420 -0.0257
36194SOL    HW211860   6.008   9.518   2.525  0.0355  1.2389 -1.0754
36195SOL     OW11861   0.037   9.022  10.441  0.2858 -0.3674  0.4247
36195SOL    HW111862   0.006   9.113  10.446  0.1666 -0.4334  0.9556
36195SOL    HW211863   0.115   9.020  10.497  0.6125 -0.4683 -0.0207
36196SOL     OW11864   0.048   0.174   0.166 -0.2895 -0.1877 -0.5480
36196SOL    HW111865   0.035   0.212   0.079 -0.3931 -1.2077 -0.9892
36196SOL    HW211866   0.080   0.086   0.149 -1.6077 -0.8895  0.4182
36197SOL     OW11867   1.535  10.271   6.983 -0.5386  0.2319 -0.0965
36197SOL    HW111868   1.516  10.217   6.906  0.9472 -1.0844  0.4088
36197SOL    HW211869   1.472  10.242   7.048 -0.2876 -0.3219 -0.0929
36198SOL     OW11870   4.648   6.378   2.185 -0.0973 -0.4170 -0.2677
36198SOL    HW111871   4.685   6.290   2.193  0.7349 -0.2785 -2.0979
36198SOL    HW211872   4.724   6.436   2.186 -0.5152  0.1432 -0.7179
36199SOL     OW11873  10.488   7.295   6.215  0.4734  0.0136 -0.2347
36199SOL    HW111874  10.419   7.311   6.280  0.0230 -1.3698 -0.3356
36199SOL    HW211875  10.472   7.206   6.185  1.1003  0.3810 -1.7463
36200SOL     OW11876   4.948   0.505   1.881  0.0181 -0.0579 -0.2043
36200SOL    HW111877   4.864   0.478   1.918  0.1122 -1.4557 -0.9520
36200SOL    HW211878   4.933   0.595   1.851 -0.8158  0.1639  0.8348
36201SOL     OW11879   2.350  10.150   4.700  0.1203  0.6457  0.1493
36201SOL    HW111880   2.273  10.119   4.653 -0.2048  0.5199  0.7544
36201SOL    HW211881   2.358  10.242   4.677  0.7425  0.2833 -1.1974
36202SOL     OW11882   7.869   9.483   3.700  0.0442  0.0436 -0.0449
36202SOL    HW111883   7.804   9.554   3.695  0.0970  0.1157  0.2685
36202SOL    HW211884   7.873   9.461   3.793  0.4466  0.0162 -0.0691
36203SOL     OW11885   4.555  10.288  10.128 -0.3500  0.3011  0.4118
36203SOL    HW111886   4.493  10.276  10.056 -0.7170  0.8305  0.6290
36203SOL    HW211887   4.501  10.313  10.203  0.0843  0.3712  0.7101
36204SOL     OW11888  10.911   3.370   2.143 -0.4603 -0.3351 -0.2116
36204SOL    HW111889  10.902   3.438   2.210 -0.1150 -0.2619 -0.2369
36204SOL    HW211890  10.890   3.414   2.061  0.8753  0.0502 -0.3748
36205SOL     OW11891   0.741   8.969  11.121  0.4635  0.3763 -0.0970
36205SOL    HW111892   0.735   8.965  11.217  0.6047  0.1940 -0.0962
36205SOL    HW211893   0.676   8.906  11.090 -0.1899  1.0440 -0.1351
36206SOL     OW11894   5.043  10.398   2.975  0.4262  0.2257 -0.0561
36206SOL    HW111895   4.977  10.338   3.009 -0.0238  1.1463  0.7390
36206SOL    HW211896   5.053  10.464   3.043  2.8915 -0.3973  0.2904
36207SOL     OW11897   5.399   5.962   8.365 -0.4083 -0.3421  0.8082
36207SOL    HW111898   5.430   6.046   8.398 -0.0693 -0.8335  1.7845
36207SOL    HW211899   5.451   5.897   8.412 -0.4027 -1.0993 -0.2062
36208SOL     OW11900   6.460   6.195   3.125 -0.4296  0.6698 -0.0024
36208SOL    HW111901   6.389   6.143   3.088 -0.2867  0.5613 -0.1208
36208SOL    HW211902   6.420   6.239   3.201 -0.7178  0.8855 -0.2761
36209SOL     OW11903   2.851   0.457  10.350 -0.4966 -0.2743 -0.1995
36209SOL    HW111904   2.911   0.392  10.314 -0.2058  0.1732 -0.5287
36209SOL    HW211905   2.897   0.541  10.340  0.1794 -0.2279  2.3821
36210SOL     OW11906   7.705   5.827  10.677 -0.1320  0.0830 -0.2151
36210SOL    HW111907   7.662   5.759  10.625 -1.2906  0.8960 -0.3544
36210SOL    HW211908   7.786   5.846  10.629 -1.0343  0.6045 -1.5907
36211SOL     OW11909  11.085   4.375   2.644  0.3772 -0.2044 -0.1784
36211SOL    HW111910  11.087   4.336   2.732 -1.6311 -0.5495 -0.2273
36211SOL    HW211911  11.176   4.374   2.615  0.9636 -0.9102  1.5443
36212SOL     OW11912   2.813   4.971   0.476  0.1732  0.5594  0.0056
36212SOL    HW111913   2.902   4.974   0.440  0.1846  1.1784  0.0781
36212SOL    HW211914   2.765   5.036   0.425 -1.2275 -2.2675 -2.6147
36213SOL     OW11915   8.412   1.529   0.566 -0.3181 -0.3339 -0.0464
36213SOL    HW111916   8.430   1.435   0.571 -2.6112 -0.9829 -2.1466
36213SOL    HW211917   8.325   1.539   0.603 -0.2129  0.9364 -0.0990
36214SOL     OW11918  10.213   0.013   6.588 -0.5153 -0.4518  0.2508
36214SOL    HW111919  10.139  -0.013   6.534 -1.0144  0.6231  0.3860
36214SOL    HW211920  10.265   0.070   6.532  0.0710 -0.9768  0.2504
36215SOL     OW11921   3.886   6.202   6.357 -0.8170  0.5600  0.4904
36215SOL    HW111922   3.798   6.193   6.320  0.2070 -0.7217 -1.8722
36215SOL    HW211923   3.873   6.248   6.440 -3.9217 -1.2817  1.1948
36216SOL     OW11924   1.363  11.068   7.599  0.3002  0.5335  0.3472
36216SOL    HW111925   1.371  10.997   7.535 -0.0042  1.8409 -1.2247
36216SOL    HW211926   1.431  11.131   7.573  0.6564  0.7678  1.7798
36217SOL     OW11927   6.891  10.439   3.433  0.3215 -0.5320 -0.2571
36217SOL    HW111928   6.894  10.520   3.484 -0.3920 -1.4578  1.3455
36217SOL    HW211929   6.801  10.435   3.400  0.5458 -0.3467 -0.8930
36218SOL     OW11930   8.244   6.776  11.147 -0.5820  0.3137  0.5106
36218SOL    HW111931   8.317   6.727  11.183 -0.0371 -0.5727 -1.6505
36218SOL    HW211932   8.171   6.758  11.206  0.3046 -0.8670  1.2788
36219SOL     OW11933   5.811  10.278   9.875 -0.2135 -0.5380  0.1453
36219SOL    HW111934   5.798  10.237   9.789 -1.9964 -1.8311  0.9764
36219SOL    HW211935   5.800  10.206   9.937 -0.5514  0.6814  1.5390
36220SOL     OW11936   7.114   6.463   4.407 -0.1503  0.1615 -0.5190
36220SOL    HW111937   7.129   6.451   4.313 -1.6434  1.0756 -0.9089
36220SOL    HW211938   7.044   6.401   4.428  0.6734 -0.5636  0.1804
36221SOL     OW11939   9.825   6.415   6.473  0.2192 -0.2279  0.3315
36221SOL    HW111940   9.809   6.494   6.420 -0.2475 -1.4399 -1.4094
36221SOL    HW211941   9.744   6.404   6.523 -0.8628 -1.1223 -1.5179
36222SOL     OW11942   4.504  11.113   4.294  0.5389  0.1043 -0.4320
36222SOL    HW111943   4.435  11.071   4.244  0.9715  0.0252 -0.9748
36222SOL    HW211944   4.474  11.203   4.306 -0.6927 -0.4821  1.3027
36223SOL     OW11945   3.842   1.665  10.318 -0.6782  0.2541  0.3774
36223SOL    HW111946   3.886   1.614  10.249  0.3524  0.2769  0.9849
36223SOL    HW211947   3.779   1.720  10.272  3.8213  4.6595 -1.4590
36224SOL     OW11948   7.315   5.577   8.867  0.3238 -0.0162  0.7568
36224SOL    HW111949   7.226   5.599   8.891  0.3206  0.1007  0.6392
36224SOL    HW211950   7.365   5.585   8.949  0.2679  0.1378  0.7754
36225SOL     OW11951   6.402   0.338   6.873  0.2510 -0.3346 -0.1330
36225SOL    HW111952   6.453   0.333   6.955 -0.1874  0.9549  0.2462
36225SOL    HW211953   6.330   0.276   6.886 -1.2478  1.6247  1.5441
36226SOL     OW11954  10.483   4.280  10.449  0.1197 -0.7091 -0.3899
36226SOL    HW111955  10.435   4.234  10.518  0.3038  0.6248  0.6744
36226SOL    HW211956  10.478   4.222  10.373 -0.1694 -2.1713  0.7120
36227SOL     OW11957   4.643  10.419   3.943 -0.3686 -0.2292 -0.2382
36227SOL    HW111958   4.582  10.440   3.872 -0.6015 -1.1812 -0.3370
36227SOL    HW211959   4.707  10.490   3.942 -0.9550  0.3032 -0.7313
36228SOL     OW11960   2.062   1.741   9.306 -0.1985  0.0341 -0.1673
36228SOL    HW111961   2.068   1.649   9.281 -0.4959 -0.4179  1.3630
36228SOL    HW211962   2.100   1.788   9.232  0.3822 -1.3364 -0.7678
36229SOL     OW11963   0.636   8.893   5.904 -0.6093 -0.1248 -0.5189
36229SOL    HW111964   0.621   8.942   5.824 -0.2831  0.4766 -0.2157
36229SOL    HW211965   0.723   8.856   5.894 -0.3037  0.4912 -0.1679
36230SOL     OW11966   1.044   6.631   6.146 -0.0195 -0.0162  0.2274
36230SOL    HW111967   1.103   6.556   6.151 -0.9656 -0.8172  5.3210
36230SOL    HW211968   1.098   6.707   6.169  0.0257  0.0852 -0.2150
36231SOL     OW11969  10.388   7.907   9.781  0.0368  0.3973  0.2381
36231SOL    HW111970  10.382   7.947   9.695  0.9242 -1.2847 -0.6458
36231SOL    HW211971  10.424   7.976   9.837  1.4044  0.9046 -1.1973
36232SOL     OW11972   2.097   4.388   6.862  0.4091 -0.1921  0.1732
36232SOL    HW111973   2.079   4.458   6.925 -2.9909  0.2198 -1.0461
36232SOL    HW211974   2.036   4.318   6.886 -1.7108  0.3519 -3.0407
36233SOL     OW11975   1.105   6.606  11.265 -0.1898 -0.6146  0.1911
36233SOL    HW111976   1.138   6.696  11.269  1.0036 -1.0133 -0.3804
36233SOL    HW211977   1.182   6.551  11.277 -0.4957 -1.5831 -1.8527
36234SOL     OW11978   1.567   8.511   3.931  0.1044 -0.0860  0.0363
36234SOL    HW111979   1.599   8.435   3.883  0.3060 -0.6548  1.0352
36234SOL    HW211980   1.632   8.579   3.914 -0.2698 -0.0084 -1.1630
36235SOL     OW11981   8.524   1.334   0.853 -0.1801 -0.6726  0.1547
36235SOL    HW111982   8.539   1.240   0.841 -0.1637 -0.4956 -1.5779
36235SOL    HW211983   8.611   1.370   0.869  0.5416 -0.5080 -3.2266
36236SOL     OW11984   2.846  10.099   4.297 -0.0818  0.2618 -0.4154
36236SOL    HW111985   2.865  10.191   4.317  0.1690  0.3208 -0.8963
36236SOL    HW211986   2.894  10.082   4.216  1.4399 -0.8515  0.6730
36237SOL     OW11987   2.776   2.288   5.290 -0.9486  0.3691  1.1637
36237SOL    HW111988   2.754   2.292   5.384  0.0505  1.5371  1.3702
36237SOL    HW211989   2.752   2.374   5.256  2.2063  1.3917  1.1975
36238SOL     OW11990   3.967   9.786   4.104 -0.6559 -0.1742 -0.0987
36238SOL    HW111991   3.903   9.841   4.149  0.0740 -1.6531  2.9950
36238SOL    HW211992   3.946   9.796   4.011 -0.4829  5.3610  0.1237
36239SOL     OW11993   3.493   4.704   2.287  0.4447 -0.0219  0.1710
36239SOL    HW111994   3.402   4.674   2.286  0.1936  0.6959  0.3005
36239SOL    HW211995   3.498   4.764   2.212  1.4207 -1.7301 -1.1920
36240SOL     OW11996   5.777   9.500   9.189  0.1501  0.3498 -0.2161
36240SOL    HW111997   5.773   9.596   9.194  0.0163  0.3193  0.4523
36240SOL    HW211998   5.688   9.472   9.212  0.3776  0.0449  0.2947
36241SOL     OW11999   2.816   8.720   5.482 -0.2034 -0.5156  0.2923
36241SOL    HW112000   2.774   8.634   5.486 -1.7376  0.2589  2.3637
36241SOL    HW212001   2.910   8.701   5.492 -0.6119 -1.8892  2.2039
36242SOL     OW12002   1.982   7.795   3.242  0.2813 -0.0404  0.5779
36242SOL    HW112003   1.932   7.876   3.236  0.0311 -0.1988  0.5162
36242SOL    HW212004   1.925   7.728   3.205  0.4546 -0.2603  0.7010
36243SOL     OW12005  10.437  11.293   9.881  0.0395 -0.3908 -0.5530
36243SOL    HW112006  10.494  11.231   9.836  0.6090 -0.3269  0.0711
36243SOL    HW212007  10.385  11.333   9.810  1.3944  0.2003 -1.2496
36244SOL     OW12008   9.963   7.809   6.330  0.1196  0.0540 -0.3888
36244SOL    HW112009   9.883   7.791   6.279  0.0846 -0.1069 -0.2797
36244SOL    HW212010  10.012   7.871   6.277 -1.0647  1.8454  0.5302
36245SOL     OW12011   0.225   5.027   2.590 -0.4388  0.0716 -0.4850
36245SOL    HW112012   0.139   5.067   2.576 -0.1037  0.6721 -0.8954
36245SOL    HW212013   0.286   5.101   2.590  0.0530 -0.3257  0.0428
36246SOL     OW12014   5.153   2.803   1.034 -0.1930 -0.1029 -0.1413
36246SOL    HW112015   5.239   2.832   1.064 -0.8538  0.5432  1.2011
36246SOL    HW212016   5.172   2.747   0.959  1.4359 -0.3608  0.4138
36247SOL     OW12017   7.423   8.229   2.486 -0.5645 -0.6354 -0.1989
36247SOL    HW112018   7.515   8.224   2.461 -0.6878  1.0690 -1.1608
36247SOL    HW212019   7.407   8.149   2.536  1.5151 -0.8085  0.2745
36248SOL     OW12020  11.285   6.252   8.514 -0.8211  0.6710  0.0166
36248SOL    HW112021  11.305   6.337   8.553  0.1251 -0.2522  1.6574
36248SOL    HW212022  11.233   6.207   8.581 -0.6746 -0.3151 -0.5140
36249SOL     OW12023   2.310   9.473   1.345  0.3061  0.3916  0.3722
36249SOL    HW112024   2.338   9.385   1.369  0.3622  0.4801  0.6346
36249SOL    HW212025   2.366   9.497   1.272  0.3763  0.2604  0.3830
36250SOL     OW12026   7.358   2.273   7.684  0.1416 -0.2536  0.0088
36250SOL    HW112027   7.299   2.225   7.742 -1.0634  1.1658  0.0407
36250SOL    HW212028   7.422   2.208   7.655 -0.6805 -1.5575  0.9923
36251SOL     OW12029   3.218   0.387   5.340  0.5561  0.7445  0.2775
36251SOL    HW112030   3.232   0.337   5.421 -0.0966  0.0976  0.0017
36251SOL    HW212031   3.162   0.331   5.287  1.8404  0.6767 -1.0760
36252SOL     OW12032   9.771   8.031   3.889 -0.0226 -0.5022 -0.3612
36252SOL    HW112033   9.845   7.997   3.938  1.2063 -1.7484 -2.8649
36252SOL    HW212034   9.808   8.098   3.831 -1.1548  0.0166 -0.5229
36253SOL     OW12035   1.231   0.082  11.071  0.1132 -0.4345 -0.5074
36253SOL    HW112036   1.309   0.068  11.017  0.1433 -3.7498  0.1982
36253SOL    HW212037   1.265   0.125  11.150  1.0977 -1.1032 -0.5477
36254SOL     OW12038  10.813   6.194   5.457  0.1719 -0.1911  0.1021
36254SOL    HW112039  10.865   6.211   5.536 -2.7249  1.2628  1.8950
36254SOL    HW212040  10.740   6.255   5.463 -2.0215 -2.3630 -1.9602
36255SOL     OW12041   8.540  10.163   5.033  0.4447 -0.0780  0.4364
36255SOL    HW112042   8.515  10.082   5.076 -0.4471 -0.8167 -1.3729
36255SOL    HW212043   8.605  10.202   5.091  0.5772 -1.8575  1.5569
36256SOL     OW12044   5.237   9.835   0.614  0.1768  0.0945 -0.0707
36256SOL    HW112045   5.237   9.812   0.707  2.2306  1.4137  0.3320
36256SOL    HW212046   5.167   9.899   0.606 -0.8465 -0.9534  0.2825
36257SOL     OW12047   8.400   7.062   1.109 -0.7266  0.1314 -0.0003
36257SOL    HW112048   8.314   7.102   1.127 -1.0092 -0.2488 -0.4718
36257SOL    HW212049   8.378   6.973   1.080 -0.1700  0.0518 -0.1707
36258SOL     OW12050   0.250   2.699   7.467  0.1165  0.0912  0.3519
36258SOL    HW112051   0.334   2.659   7.489 -0.6685 -1.1422  1.2179
36258SOL    HW212052   0.260   2.791   7.492  0.5329 -0.4713  2.4101
36259SOL     OW12053  11.065   3.051   3.542 -0.0089 -0.3274  0.3477
36259SOL    HW112054  11.078   3.119   3.608  0.2595 -0.7346  0.7107
36259SOL    HW212055  11.070   2.969   3.590  0.0881 -0.6238 -0.1636
36260SOL     OW12056   8.667   0.645   5.272  0.5817  0.0184 -0.7217
36260SOL    HW112057   8.700   0.720   5.222  0.5006  0.7580  0.3148
36260SOL    HW212058   8.624   0.683   5.348 -0.1158 -1.0604 -0.5580
36261SOL     OW12059  10.088   9.252   9.125  0.8324 -0.3639 -0.7644
36261SOL    HW112060  10.139   9.312   9.181 -0.2491  0.2261 -0.3905
36261SOL    HW212061  10.151   9.224   9.058  1.5215  0.7558 -0.6236
36262SOL     OW12062  11.093   0.105   9.485  0.7748  0.6973 -0.3594
36262SOL    HW112063  11.025   0.172   9.496  1.3755  1.2924 -0.1590
36262SOL    HW212064  11.174   0.155   9.475  1.4690 -0.0079  1.3565
36263SOL     OW12065   3.415   5.369   5.176  0.1527  0.7832 -0.4818
36263SOL    HW112066   3.362   5.439   5.216  2.1214  2.2007 -0.2027
36263SOL    HW212067   3.505   5.389   5.204  1.0191 -0.7558 -2.0311
36264SOL     OW12068   1.160   0.044   2.444  0.3456  0.3528 -0.1336
36264SOL    HW112069   1.255   0.029   2.444  0.2064 -0.6333  0.5325
36264SOL    HW212070   1.150   0.138   2.427  1.5000  0.7473  1.1449
36265SOL     OW12071  10.074   3.967   0.153  0.0110  0.1414 -0.3824
36265SOL    HW112072   9.994   3.916   0.169 -0.1510  0.6117  0.3116
36265SOL    HW212073  10.139   3.901   0.127 -0.1114 -0.4739  0.7926
36266SOL     OW12074   8.202  11.156   0.615  0.3826  0.1088 -0.5569
36266SOL    HW112075   8.261  11.116   0.552  1.0939  0.9338 -0.4263
36266SOL    HW212076   8.259  11.185   0.687 -0.2926  0.0707  0.0070
36267SOL     OW12077   8.305  10.346   8.182 -0.1132  0.4577 -0.8109
36267SOL    HW112078   8.237  10.284   8.211 -1.4100  2.0925 -0.1847
36267SOL    HW212079   8.374  10.339   8.248 -0.4327 -0.0154 -0.5200
36268SOL     OW12080   9.672   9.414   7.972 -0.1205 -0.0004  0.3257
36268SOL    HW112081   9.660   9.509   7.981  1.8505  0.4062 -0.7815
36268SOL    HW212082   9.703   9.386   8.058 -1.1835  0.2508  0.8079
36269SOL     OW12083   5.816   3.927   5.466 -0.0953  0.0059  0.1392
36269SOL    HW112084   5.764   3.971   5.398  0.9333  0.5989 -0.2983
36269SOL    HW212085   5.849   3.848   5.423  3.5553  2.0938 -1.4335
36270SOL     OW12086   5.012   6.884   4.889  0.2532  0.2051 -0.4022
36270SOL    HW112087   4.965   6.933   4.956 -0.1142 -0.8301  0.1132
36270SOL    HW212088   5.010   6.793   4.919  1.6717 -0.0165 -0.8974
36271SOL     OW12089   2.489   8.213   5.697  0.2275 -0.3806  0.3558
36271SOL    HW112090   2.579   8.207   5.729  0.3318  0.3839  0.2359
36271SOL    HW212091   2.452   8.126   5.712  0.1783 -0.0083  2.8075
36272SOL     OW12092   9.694   9.507   6.221  0.1299 -0.5155 -0.1037
36272SOL    HW112093   9.663   9.460   6.299 -0.9741 -0.4933 -0.5121
36272SOL    HW212094   9.626   9.571   6.203  0.4433 -0.4242 -1.0163
36273SOL     OW12095   4.302   2.802   4.072 -0.0886 -0.6170 -0.5368
36273SOL    HW112096   4.376   2.807   4.132 -0.9621 -1.4564  0.6331
36273SOL    HW212097   4.336   2.751   3.997  0.9566  0.3159 -0.7343
36274SOL     OW12098  11.264  10.166   7.875  0.2861  0.3030  0.2718
36274SOL    HW112099  11.200  10.237   7.876 -1.7572 -1.4635  0.4539
36274SOL    HW212100  11.213  10.087   7.865  2.6037 -1.0961 -1.8107
36275SOL     OW12101   8.231   5.773   6.439 -0.2607  0.2911  0.2570
36275SOL    HW112102   8.326   5.767   6.443 -0.1841  0.2650 -1.1146
36275SOL    HW212103   8.213   5.855   6.393 -0.7515 -1.4455 -2.9403
36276SOL     OW12104   5.174   1.398   1.928  0.3906  0.3938 -0.5613
36276SOL    HW112105   5.170   1.478   1.875  0.1520  0.4403 -0.4694
36276SOL    HW212106   5.267   1.373   1.925  0.8463  1.7416  0.9967
36277SOL     OW12107   5.500   2.544   2.447  0.1448  0.2174  0.2888
36277SOL    HW112108   5.539   2.469   2.403  1.2344  1.2132 -0.5223
36277SOL    HW212109   5.537   2.542   2.536  2.7054  1.5198 -0.6547
36278SOL     OW12110   0.147   7.135   6.912 -0.3507 -0.0376 -0.0454
36278SOL    HW112111   0.224   7.117   6.858  1.0378 -0.5059  1.9838
36278SOL    HW212112   0.129   7.053   6.957 -1.0454  0.5128  0.7176
36279SOL     OW12113   3.180   2.204   2.516 -0.0771  0.1492 -0.2425
36279SOL    HW112114   3.256   2.261   2.522 -0.2554  0.2776  0.9219
36279SOL    HW212115   3.162   2.199   2.422  0.4086  1.3804 -0.4223
36280SOL     OW12116   4.043   0.095  10.654  0.7739 -0.4509 -0.4059
36280SOL    HW112117   3.963   0.129  10.615  3.3404  2.4710 -3.7313
36280SOL    HW212118   4.046   0.135  10.741 -0.9564  0.0578 -0.5473
36281SOL     OW12119  10.079   2.099   6.903 -0.3075 -0.9096  0.0336
36281SOL    HW112120  10.098   2.114   6.996  0.0133  1.9975 -0.4216
36281SOL    HW212121   9.995   2.142   6.889 -0.8658 -2.2276 -0.8426
36282SOL     OW12122   2.026   8.900   8.431 -0.3290  0.0636 -0.1989
36282SOL    HW112123   1.996   8.964   8.366 -1.4248  0.1013  0.3153
36282SOL    HW212124   2.101   8.858   8.391  1.2507  2.5400 -0.0777
36283SOL     OW12125  10.350   9.910   9.158  0.0534  0.6730  0.0614
36283SOL    HW112126  10.285   9.901   9.088  0.2841 -1.5439  0.0680
36283SOL    HW212127  10.317   9.983   9.211 -1.9360  0.2327 -0.4720
36284SOL     OW12128   1.513  10.251   0.409 -0.1101  0.1977  0.3057
36284SOL    HW112129   1.449  10.208   0.465 -0.3126  0.7598  0.5179
36284SOL    HW212130   1.462  10.287   0.336  0.1508 -0.5153 -0.2382
36285SOL     OW12131   4.496  10.436   7.309  0.1926 -0.0292  0.3718
36285SOL    HW112132   4.527  10.436   7.218  1.0030  1.1470  0.6217
36285SOL    HW212133   4.562  10.488   7.356 -0.1705 -0.7047  1.6497
36286SOL     OW12134   6.806  10.974  11.393 -0.3841  0.3267  0.1390
36286SOL    HW112135   6.785  10.930  11.311 -0.4268 -0.9096  0.7901
36286SOL    HW212136   6.872  10.918  11.434  1.5108  2.2132 -0.1641
36287SOL     OW12137   0.322   8.502   3.256  0.6159 -0.3354  0.3041
36287SOL    HW112138   0.335   8.440   3.327  1.0107 -0.9917 -0.3222
36287SOL    HW212139   0.232   8.489   3.229  0.8182 -0.9430 -0.0979
36288SOL     OW12140   6.514  10.391   9.806 -0.9065 -0.1966 -0.4074
36288SOL    HW112141   6.482  10.311   9.848  0.4535 -1.4924 -1.6996
36288SOL    HW212142   6.567  10.434   9.874  0.2204 -1.5964 -0.3397
36289SOL     OW12143   3.016   3.069   0.347  0.1971  0.2054 -0.4790
36289SOL    HW112144   2.971   3.088   0.265 -0.4645  1.1819  0.0892
36289SOL    HW212145   2.947   3.038   0.405  0.6754 -0.5590 -0.3108
36290SOL     OW12146   9.009   3.639   6.925 -0.3656  0.3828  0.0249
36290SOL    HW112147   9.049   3.719   6.890  0.7797  0.2102  0.8796
36290SOL    HW212148   9.018   3.647   7.020 -0.3009 -0.7344  0.1209
36291SOL     OW12149   7.754   2.167   4.235  0.1656  0.1482 -0.3147
36291SOL    HW112150   7.696   2.236   4.205  0.2799 -0.6750 -2.6681
36291SOL    HW212151   7.837   2.185   4.191  0.7525 -0.4589  0.5093
36292SOL     OW12152   9.439   3.868   0.944  0.6708  0.3054 -0.5165
36292SOL    HW112153   9.502   3.829   1.004 -0.8721 -1.5055 -0.0210
36292SOL    HW212154   9.399   3.939   0.994  0.2525 -0.4193  0.1960
36293SOL     OW12155   8.061   9.760   2.229  0.4718  0.2092 -0.0837
36293SOL    HW112156   8.025   9.802   2.308 -1.9714  0.7209 -1.3882
36293SOL    HW212157   8.060   9.828   2.163 -0.4449 -1.0014 -1.3750
36294SOL     OW12158   2.881   0.360   7.280 -0.2063  0.2553 -0.5092
36294SOL    HW112159   2.837   0.288   7.326  0.6489  0.2445  0.3387
36294SOL    HW212160   2.829   0.437   7.299  0.1935  0.2706  0.6113
36295SOL     OW12161   2.422   6.078   3.319 -0.0383  0.3399 -0.2812
36295SOL    HW112162   2.427   6.047   3.409 -0.7583  0.1694 -0.2978
36295SOL    HW212163   2.509   6.059   3.283  1.0242  2.4523  1.0123
36296SOL     OW12164   9.100   1.133  11.335  0.0688  0.5854 -0.2657
36296SOL    HW112165   9.036   1.087  11.280 -0.0662 -1.3563  1.4258
36296SOL    HW212166   9.181   1.084  11.323 -0.1253 -0.3039  1.7298
36297SOL     OW12167  10.261   2.735   1.776 -0.2507 -0.2407 -0.6606
36297SOL    HW112168  10.328   2.671   1.751 -0.6904 -1.1646  0.4631
36297SOL    HW212169  10.296   2.819   1.745  3.3842  0.0233  3.2249
36298SOL     OW12170   5.792   2.988   9.020 -0.1981 -0.0617 -0.0806
36298SOL    HW112171   5.721   2.932   8.987 -0.3457  0.5953 -0.9062
36298SOL    HW212172   5.785   3.068   8.969  0.4897  0.4230  0.5694
36299SOL     OW12173   9.110   2.162   6.490  0.0920 -0.3615 -0.0760
36299SOL    HW112174   9.147   2.160   6.579  0.2301 -0.3095 -0.1313
36299SOL    HW212175   9.059   2.081   6.484  1.4537 -1.2296 -0.5276
36300SOL     OW12176   7.397   2.211   8.774 -0.0956  0.6839  0.4282
36300SOL    HW112177   7.409   2.234   8.866  0.2967 -1.3911  0.9458
36300SOL    HW212178   7.304   2.190   8.766  0.2265 -1.0384  0.8616
36301SOL     OW12179   2.959   1.123   6.564 -0.2983 -0.8273  0.2390
36301SOL    HW112180   2.985   1.213   6.581 -0.0827 -1.0625  1.2122
36301SOL    HW212181   2.907   1.098   6.641 -0.7170 -1.3956 -0.2210
36302SOL     OW12182   5.032   5.664   8.957 -0.7528  0.2328 -0.1233
36302SOL    HW112183   5.115   5.619   8.940  0.0399  2.1829 -1.7746
36302SOL    HW212184   4.965   5.599   8.937  0.3343 -1.0980  0.3898
36303SOL     OW12185   2.387   8.902   3.478  0.1513 -0.1063 -0.0879
36303SOL    HW112186   2.342   8.849   3.543 -0.0817  0.1401 -0.0459
36303SOL    HW212187   2.364   8.862   3.394  2.4860 -2.0140  0.0601
36304SOL     OW12188   3.000  10.244   6.678  0.3341 -0.6386  0.2703
36304SOL    HW112189   3.007  10.272   6.769 -0.5705 -0.4666  0.2981
36304SOL    HW212190   3.074  10.285   6.634  0.3261 -0.0704  0.7783
36305SOL     OW12191   0.392  10.339   2.134 -0.3647 -0.5191  0.2424
36305SOL    HW112192   0.467  10.294   2.172 -0.3800 -0.8375 -0.0967
36305SOL    HW212193   0.405  10.331   2.039 -0.9216 -0.7397  0.1794
36306SOL     OW12194   2.632   0.467   8.843  0.0895  0.2505 -0.5369
36306SOL    HW112195   2.652   0.424   8.926  0.8744 -1.1166 -1.4005
36306SOL    HW212196   2.649   0.560   8.860  2.1857 -0.2130  0.3089
36307SOL     OW12197  10.985   9.755   3.340 -0.2123  0.5233  0.3276
36307SOL    HW112198  10.908   9.801   3.306 -2.0575 -1.2809  1.7752
36307SOL    HW212199  10.950   9.671   3.372  2.2066  0.0108  1.8919
36308SOL     OW12200   3.913   9.695   2.538  0.4863 -0.1622 -0.0687
36308SOL    HW112201   3.894   9.779   2.580 -1.9014  0.4125 -2.0642
36308SOL    HW212202   3.827   9.657   2.522  1.4999 -2.6067 -0.0406
36309SOL     OW12203   3.126   4.901   0.878 -0.4294 -0.6176 -0.3240
36309SOL    HW112204   3.102   4.971   0.818 -0.1543 -1.0841 -0.9983
36309SOL    HW212205   3.097   4.821   0.833 -0.4809 -0.9549  0.3007
36310SOL     OW12206   8.514   6.564  10.904 -0.0748  0.6560  0.1478
36310SOL    HW112207   8.552   6.603  10.982  0.2682  2.7692 -0.9953
36310SOL    HW212208   8.562   6.604  10.831 -0.1603 -1.4753 -1.1676
36311SOL     OW12209   8.114   5.281   3.929  0.5901  0.2457 -0.1029
36311SOL    HW112210   8.079   5.305   3.843 -0.6142 -0.3831  0.1934
36311SOL    HW212211   8.184   5.344   3.945 -0.8795  2.0250 -0.3938
36312SOL     OW12212   0.470   5.851   4.625 -0.2192  0.0819  0.2091
36312SOL    HW112213   0.563   5.837   4.642 -0.3888  0.1006  1.2518
36312SOL    HW212214   0.468   5.911   4.551  0.6031  0.3027  0.3494
36313SOL     OW12215  11.079   4.322   9.611 -0.4584  0.1063  0.7939
36313SOL    HW112216  11.070   4.278   9.526 -0.7763  0.6652  0.5307
36313SOL    HW212217  11.145   4.270   9.658 -1.1323 -0.9058  0.6655
36314SOL     OW12218   0.989   2.382   0.952 -0.4493  0.4842 -0.0807
36314SOL    HW112219   1.057   2.383   1.020 -0.1208 -0.1557 -0.3807
36314SOL    HW212220   0.908   2.403   0.998 -0.2349  0.0284  0.5224
36315SOL     OW12221  11.347   0.652   8.095  0.0469  0.1139  0.3201
36315SOL    HW112222  11.316   0.739   8.120  0.6781  0.8404 -1.2655
36315SOL    HW212223  11.278   0.618   8.037  0.8106  0.5327 -0.8817
36316SOL     OW12224   0.788   2.613   3.729 -0.0839 -0.3429 -0.0635
36316SOL    HW112225   0.852   2.628   3.660 -0.3710 -1.7714 -0.6754
36316SOL    HW212226   0.836   2.567   3.797  0.1031  0.7216  0.5539
36317SOL     OW12227   8.837   2.520   3.170 -0.3630  0.6007 -0.2051
36317SOL    HW112228   8.894   2.554   3.101  0.9841  0.3647  0.7434
36317SOL    HW212229   8.830   2.591   3.234  0.3406  0.0340  0.5325
36318SOL     OW12230  10.571   0.480  10.741 -0.8090  0.2783 -0.8357
36318SOL    HW112231  10.559   0.533  10.819  2.5984  0.1762 -0.1011
36318SOL    HW212232  10.542   0.536  10.669  0.1566  2.1332  0.1574
36319SOL     OW12233   2.286   5.497   3.334  0.5007 -0.5727  0.2905
36319SOL    HW112234   2.365   5.450   3.307  0.0081 -1.7734  0.8699
36319SOL    HW212235   2.302   5.519   3.426 -0.0159 -1.2073  0.5336
36320SOL     OW12236   0.915   9.894   0.152  0.2626  0.1492 -0.6113
36320SOL    HW112237   0.899   9.805   0.183 -0.8382  0.2831 -0.7562
36320SOL    HW212238   0.831   9.922   0.116  0.6921  1.1243 -0.8758
36321SOL     OW12239   2.505   1.854   9.428  0.1302 -0.1885  0.1554
36321SOL    HW112240   2.452   1.887   9.355  1.8947  1.1564 -0.5786
36321SOL    HW212241   2.586   1.824   9.388  0.1938 -1.7227  1.3284
36322SOL     OW12242   5.057   9.979   3.744 -0.4888 -0.3228 -0.0238
36322SOL    HW112243   5.055  10.065   3.702  0.2746 -0.2778  0.0195
36322SOL    HW212244   5.042   9.917   3.672  0.9516 -0.2520 -0.4068
36323SOL     OW12245   2.634   8.016  11.108 -0.0556 -0.7357  0.1006
36323SOL    HW112246   2.640   7.972  11.023  3.0734 -1.1271  0.4040
36323SOL    HW212247   2.573   8.089  11.094 -0.7258 -1.6563 -2.0501
36324SOL     OW12248   7.559   7.130   1.072 -0.6724  0.2946 -0.6241
36324SOL    HW112249   7.554   7.153   0.979  1.4147 -1.6289 -1.3029
36324SOL    HW212250   7.602   7.045   1.074  2.3766  1.6255  2.1987
36325SOL     OW12251   7.757  10.541   7.299 -0.0328  0.5316 -0.2977
36325SOL    HW112252   7.753  10.465   7.241  0.0243  1.1911 -1.1923
36325SOL    HW212253   7.731  10.508   7.384  0.6373 -0.6365 -0.5246
36326SOL     OW12254   8.985   6.210   9.119 -0.2685 -0.1470 -0.2911
36326SOL    HW112255   8.902   6.170   9.095  0.2277 -1.8644  0.7018
36326SOL    HW212256   8.999   6.279   9.054 -2.2401 -0.1143 -0.7200
36327SOL     OW12257   2.421   0.021   4.853  0.6574  0.6656 -0.2315
36327SOL    HW112258   2.456   0.100   4.893 -0.6944  1.7529 -1.1025
36327SOL    HW212259   2.349   0.052   4.798  0.5444 -1.0953 -1.1429
36328SOL     OW12260   6.885   4.280   2.789 -0.8684 -0.2933  0.6589
36328SOL    HW112261   6.846   4.272   2.875  1.7062  0.4523  1.9915
36328SOL    HW212262   6.964   4.332   2.803 -0.0990 -0.5754 -2.0636
36329SOL     OW12263   7.969   0.742   9.449 -0.5014  0.1156 -0.0448
36329SOL    HW112264   7.956   0.655   9.412 -2.0272  0.3761 -0.2046
36329SOL    HW212265   8.010   0.727   9.534 -0.1137 -0.7020 -0.3712
36330SOL     OW12266   6.295   2.109   8.895  0.0273 -0.2967 -0.6374
36330SOL    HW112267   6.305   2.105   8.990 -0.3539 -0.1995 -0.5904
36330SOL    HW212268   6.237   2.184   8.880  0.6756  0.1403 -0.9935
36331SOL     OW12269   5.535   8.904   9.645 -0.2211 -0.8827 -0.0559
36331SOL    HW112270   5.450   8.891   9.687 -0.7717  0.8315 -0.5625
36331SOL    HW212271   5.515   8.948   9.563  1.2411  0.7806  0.4110
36332SOL     OW12272   4.944   0.939   1.358  0.4578  0.5550 -0.0058
36332SOL    HW112273   4.895   1.014   1.323 -0.0714  0.7469  1.0850
36332SOL    HW212274   4.992   0.975   1.433  0.3428 -0.1513  0.4197
36333SOL     OW12275   5.454   3.609   6.076  0.0186  0.4308  0.3874
36333SOL    HW112276   5.415   3.671   6.014  0.3371  0.9575  0.7034
36333SOL    HW212277   5.490   3.539   6.021  1.3514  1.4710 -0.1245
36334SOL     OW12278   4.413   2.048   0.252  0.0385  0.7706 -0.1031
36334SOL    HW112279   4.455   2.099   0.183  1.2841  0.8115  0.6521
36334SOL    HW212280   4.407   2.108   0.326  2.5219 -0.4099  1.1562
36335SOL     OW12281   9.506   4.263  10.023 -0.2116  0.3207  0.2179
36335SOL    HW112282   9.488   4.266  10.117  0.8860  0.2358  0.4453
36335SOL    HW212283   9.519   4.354   9.998 -0.5177  0.3445  0.1386
36336SOL     OW12284   1.605   0.945  10.894  0.0437 -0.2110  0.8147
36336SOL    HW112285   1.555   0.980  10.820  2.1221  1.7801  0.2311
36336SOL    HW212286   1.664   0.880  10.855  0.2261 -0.1145  0.9266
36337SOL     OW12287   9.986   5.828   7.669 -0.5057 -0.1714 -0.2677
36337SOL    HW112288   9.948   5.905   7.711  0.7293  1.0924 -1.3338
36337SOL    HW212289   9.982   5.848   7.575  1.6611 -0.4501 -0.4874
36338SOL     OW12290   0.298   2.097   7.803 -0.5444  0.1021  0.3875
36338SOL    HW112291   0.320   2.106   7.711 -1.8283  1.0123  0.1346
36338SOL    HW212292   0.354   2.160   7.848 -0.9559  0.7312  0.0348
36339SOL     OW12293   8.194   9.224   4.741 -0.2929 -0.5567 -0.4046
36339SOL    HW112294   8.268   9.284   4.754 -0.7235 -0.2736  0.8404
36339SOL    HW212295   8.174   9.231   4.648  2.8879 -2.5817 -1.4075
36340SOL     OW12296   7.466   9.556   5.725 -0.1104 -0.4544  0.4701
36340SOL    HW112297   7.372   9.568   5.713  0.2670  0.6454 -1.9059
36340SOL    HW212298   7.473   9.475   5.776 -2.3151 -1.1805 -0.2529
36341SOL     OW12299   7.835   2.843   9.964  0.0245 -0.0794 -0.2958
36341SOL    HW112300   7.914   2.888   9.992  0.0541  1.2895 -2.4125
36341SOL    HW212301   7.839   2.758  10.009  1.9212  0.5200  0.7813
36342SOL     OW12302   9.792   3.436   6.060 -0.1963  0.2592 -0.7473
36342SOL    HW112303   9.848   3.406   6.131 -0.8881 -0.6815 -0.5929
36342SOL    HW212304   9.850   3.438   5.983  0.0207 -0.8145 -0.6190
36343SOL     OW12305   0.408  10.133   4.511 -0.2695  0.3957  0.3192
36343SOL    HW112306   0.321  10.108   4.541  0.0560 -1.4199 -0.1337
36343SOL    HW212307   0.467  10.068   4.548  0.3721 -0.8416 -2.5668
36344SOL     OW12308   3.836  10.630   2.573  0.2555 -0.3196 -0.1312
36344SOL    HW112309   3.923  10.619   2.611 -0.4890  0.1029  1.8192
36344SOL    HW212310   3.781  10.656   2.647 -0.7182  3.5317 -1.9473
36345SOL     OW12311   9.993   4.663   4.644 -0.3822  0.1710 -0.0288
36345SOL    HW112312   9.957   4.671   4.732 -1.8251 -0.3107 -0.5608
36345SOL    HW212313  10.014   4.570   4.635  2.3188  0.5933  0.7287
36346SOL     OW12314   2.258   3.497   5.684  0.0391  0.0797  0.0404
36346SOL    HW112315   2.248   3.444   5.763  0.6006 -1.6922 -1.0234
36346SOL    HW212316   2.173   3.540   5.673  0.7956  2.8608  3.2256
36347SOL     OW12317   5.789   1.512   9.582 -0.2260  0.1636  0.1196
36347SOL    HW112318   5.700   1.496   9.611 -1.8139  1.2610 -3.5390
36347SOL    HW212319   5.812   1.435   9.530  0.2417  0.6016 -0.3485
36348SOL     OW12320   0.140   2.679   6.266 -0.2531  0.1159 -0.0646
36348SOL    HW112321   0.235   2.671   6.263 -0.3385 -0.8502 -0.2872
36348SOL    HW212322   0.117   2.659   6.356 -0.4504 -2.2541 -0.5788
36349SOL     OW12323   6.275   8.108   6.445  0.2233  0.1114 -0.0750
36349SOL    HW112324   6.300   8.046   6.376 -0.7115  0.5158 -0.8073
36349SOL    HW212325   6.358   8.143   6.478  0.6900 -0.1804 -0.9114
36350SOL     OW12326   1.380   6.323  10.358  0.4105 -0.1036  0.3408
36350SOL    HW112327   1.457   6.299  10.409 -0.1288 -1.4760  0.5574
36350SOL    HW212328   1.312   6.263  10.389 -0.3082  0.0086 -0.9806
36351SOL     OW12329   1.301  10.487   8.702 -0.4593  0.1878  0.0476
36351SOL    HW112330   1.380  10.536   8.725  0.9525 -1.6433 -0.6286
36351SOL    HW212331   1.240  10.504   8.774  1.0643  0.5353  1.3089
36352SOL     OW12332   2.347   8.081   9.420 -0.0512  0.2288  0.1626
36352SOL    HW112333   2.314   8.092   9.331  0.5955  1.0609  0.0185
36352SOL    HW212334   2.349   7.986   9.433  0.9785  0.0448 -1.1496
36353SOL     OW12335   6.530   7.431   1.711 -0.0125  0.2709 -0.1196
36353SOL    HW112336   6.537   7.368   1.639 -1.1986 -0.1608  0.1187
36353SOL    HW212337   6.455   7.400   1.762 -0.6238  1.8881  0.0090
36354SOL     OW12338   3.378   5.872   2.130 -0.8043 -0.4837  0.1723
36354SOL    HW112339   3.364   5.808   2.060 -2.1350 -1.2598  1.1047
36354SOL    HW212340   3.294   5.877   2.174 -0.1677  0.4918  1.3074
36355SOL     OW12341   0.040   7.613   7.744  0.2521  0.3430  0.1373
36355SOL    HW112342   0.035   7.616   7.840  0.3103  3.8311  0.1540
36355SOL    HW212343  -0.052   7.603   7.717  0.2058 -0.3968  0.5347
36356SOL     OW12344   8.104  10.431   4.734  0.3215  0.3832  0.1151
36356SOL    HW112345   8.153  10.430   4.652  0.2350 -1.3908  0.0622
36356SOL    HW212346   8.132  10.353   4.781 -1.2979  0.1531  0.7791
36357SOL     OW12347   9.428   5.078  11.064 -0.0950 -0.4583  0.4399
36357SOL    HW112348   9.342   5.069  11.106  0.1740  0.1185  1.1376
36357SOL    HW212349   9.421   5.028  10.983 -0.9474 -0.7854  0.7086
36358SOL     OW12350  10.807   5.417   7.942 -0.4566 -0.5716 -0.0974
36358SOL    HW112351  10.744   5.483   7.912  2.1974  1.5704 -1.4003
36358SOL    HW212352  10.829   5.367   7.863 -0.2494 -1.0686  0.2659
36359SOL     OW12353  10.146   8.573   4.091  0.2115 -0.5282  0.0108
36359SOL    HW112354  10.089   8.611   4.159  1.4279  1.1153  0.1719
36359SOL    HW212355  10.118   8.482   4.085  0.1891 -0.8043  2.8839
36360SOL     OW12356   0.255   1.944   3.598 -0.4132 -0.2695 -0.4520
36360SOL    HW112357   0.251   2.006   3.525  0.2662  0.2808 -0.0317
36360SOL    HW212358   0.244   1.998   3.676  1.2498 -0.5084 -0.0182
36361SOL     OW12359   6.456  10.593   5.958  0.1122 -0.3816 -0.6978
36361SOL    HW112360   6.369  10.569   5.992  0.6207 -0.8976  0.2811
36361SOL    HW212361   6.450  10.577   5.864 -0.7912 -0.5985 -0.6148
36362SOL     OW12362   0.166   1.964   5.477  0.1342 -0.0327 -0.2573
36362SOL    HW112363   0.204   1.987   5.392 -1.5377 -0.8184 -1.2725
36362SOL    HW212364   0.237   1.976   5.539  1.2368  1.1811 -1.6749
36363SOL     OW12365  11.108   5.430   4.582 -0.1424 -0.0225 -0.3865
36363SOL    HW112366  11.103   5.385   4.498 -0.0084 -0.3072 -0.2426
36363SOL    HW212367  11.201   5.435   4.601 -0.1803 -0.0875 -0.1848
36364SOL     OW12368  10.099   6.116   5.221  0.1545  0.0702  0.0498
36364SOL    HW112369  10.176   6.065   5.197  0.9935  0.9153  0.8514
36364SOL    HW212370  10.126   6.207   5.205 -0.7501  0.3594  0.1454
36365SOL     OW12371   0.430   1.380  10.929  0.2867 -0.1600  0.1994
36365SOL    HW112372   0.358   1.440  10.953 -1.1139 -1.4841 -0.4959
36365SOL    HW212373   0.504   1.438  10.913 -1.0633  1.4532 -0.6678
36366SOL     OW12374   4.671   1.289   7.990  0.1227  0.1889 -0.2888
36366SOL    HW112375   4.692   1.370   7.943 -1.0471 -0.0678 -1.3078
36366SOL    HW212376   4.613   1.317   8.061  1.4884  0.5092  0.7466
36367SOL     OW12377   5.844   2.281   3.913 -0.8523 -0.0017  0.2530
36367SOL    HW112378   5.755   2.256   3.890 -0.3780  0.1845 -2.0738
36367SOL    HW212379   5.849   2.374   3.895 -0.7261  0.4475  2.3853
36368SOL     OW12380   3.832   0.330   5.401 -0.1879  0.0991 -0.1223
36368SOL    HW112381   3.783   0.389   5.343  0.3767  0.3249 -0.3732
36368SOL    HW212382   3.766   0.270   5.435 -0.8209  1.0606  0.3749
36369SOL     OW12383   0.970  10.853   0.697  0.0689  0.0698 -0.0325
36369SOL    HW112384   0.986  10.846   0.791  1.3885 -1.3532 -0.3376
36369SOL    HW212385   0.977  10.763   0.664  2.2155  0.8268 -1.8779
36370SOL     OW12386   5.758   2.598   1.838  0.0116 -0.1587 -0.3307
36370SOL    HW112387   5.709   2.674   1.806  0.1099  0.4725  0.9853
36370SOL    HW212388   5.760   2.538   1.763 -2.5626 -0.1070 -0.5310
36371SOL     OW12389   1.523   5.793   8.886  0.6582  0.3612 -0.5306
36371SOL    HW112390   1.548   5.885   8.893 -1.3985  0.8873  1.3076
36371SOL    HW212391   1.445   5.794   8.830  2.0005 -0.6406 -2.5180
36372SOL     OW12392   9.623   2.763   3.760 -0.4488  0.2873  0.1622
36372SOL    HW112393   9.644   2.856   3.761 -0.4161  0.2918 -0.4998
36372SOL    HW212394   9.645   2.732   3.848  2.0718  0.3298 -0.3893
36373SOL     OW12395   4.852   6.479   6.583  0.0246 -0.1361 -0.5451
36373SOL    HW112396   4.932   6.532   6.587  1.2320 -1.7216 -1.8782
36373SOL    HW212397   4.884   6.389   6.576 -1.9431 -1.1015  1.7023
36374SOL     OW12398   2.529  10.883   9.125 -0.6778 -0.0830 -0.0635
36374SOL    HW112399   2.596  10.827   9.166 -4.3945 -4.1147  1.3087
36374SOL    HW212400   2.504  10.944   9.194 -1.4541 -1.6157  1.0770
36375SOL     OW12401   5.963  10.172   2.368  0.0963  0.6880 -0.1691
36375SOL    HW112402   6.025  10.206   2.304  1.2003 -1.3166 -0.2857
36375SOL    HW212403   6.019  10.145   2.442 -0.4381 -1.9912 -0.6369
36376SOL     OW12404   3.579   5.709   2.996 -0.2440  0.1022 -0.3800
36376SOL    HW112405   3.653   5.708   3.056 -0.8068 -1.3168  0.3478
36376SOL    HW212406   3.589   5.790   2.946  0.9369  0.6928  0.7594
36377SOL     OW12407   3.933   2.473   5.365 -1.0515  0.0789 -0.2142
36377SOL    HW112408   3.918   2.388   5.323 -1.5673 -0.5626  1.1802
36377SOL    HW212409   4.012   2.507   5.324  0.4387 -2.0873  0.6412
36378SOL     OW12410   0.980  10.715   6.902 -0.0323 -0.0215 -0.1512
36378SOL    HW112411   0.949  10.684   6.987  0.2122  1.4500  0.5088
36378SOL    HW212412   1.042  10.649   6.873 -2.0991 -1.9443 -0.4925
36379SOL     OW12413   9.011   6.538   1.795 -0.4989  0.3543 -0.0756
36379SOL    HW112414   8.972   6.600   1.733 -1.0241  0.2805  0.1727
36379SOL    HW212415   8.980   6.568   1.881  3.4586  2.9502  0.6819
36380SOL     OW12416   5.826   6.975   1.001 -0.1920 -0.7752 -0.6216
36380SOL    HW112417   5.769   6.911   0.957 -1.6657 -1.4919  2.0734
36380SOL    HW212418   5.883   6.921   1.056 -0.1581  0.1417  0.2674
36381SOL     OW12419   9.763  10.082   6.622  0.2880  0.3635 -0.4079
36381SOL    HW112420   9.747  10.172   6.650 -2.5073 -1.1809  4.1008
36381SOL    HW212421   9.676  10.049   6.597  1.0343 -1.3697 -0.8452
36382SOL     OW12422   2.792   8.682   4.184  0.3313 -0.2574 -0.5381
36382SOL    HW112423   2.844   8.619   4.134  0.8536 -0.5793  0.3814
36382SOL    HW212424   2.747   8.735   4.118 -0.5332 -1.9227 -1.3530
36383SOL     OW12425   2.311  10.014   8.377 -0.1962  0.0988 -0.5267
36383SOL    HW112426   2.400  10.041   8.402 -1.2331  1.2807  2.2715
36383SOL    HW212427   2.324   9.939   8.319  2.6298 -1.7783  2.2189
36384SOL     OW12428   2.593   6.428   8.059  0.0634  0.8424  0.5584
36384SOL    HW112429   2.546   6.416   7.976 -0.2277 -0.4629  0.8856
36384SOL    HW212430   2.672   6.374   8.049 -1.0020 -1.0759  1.9033
36385SOL     OW12431   3.213   2.179   7.716 -0.2606 -0.4096  0.2834
36385SOL    HW112432   3.179   2.262   7.750 -1.0002 -0.8606  0.6629
36385SOL    HW212433   3.155   2.157   7.643 -0.0146 -0.5561  0.1307
36386SOL     OW12434  10.742   6.101   7.615 -0.1374 -0.9466  0.6250
36386SOL    HW112435  10.807   6.141   7.673 -0.2674 -1.3231  1.0340
36386SOL    HW212436  10.698   6.036   7.669 -0.4071 -1.1559  0.1619
36387SOL     OW12437   7.342   5.541   8.586 -0.3659  0.0840 -0.2740
36387SOL    HW112438   7.316   5.572   8.673 -2.2116  1.0942 -1.1390
36387SOL    HW212439   7.318   5.613   8.527  2.0074 -0.0404 -1.5083
36388SOL     OW12440   9.778   2.580   0.242 -0.4116 -0.2057  0.0225
36388SOL    HW112441   9.809   2.553   0.155 -0.3332 -0.2210  0.0553
36388SOL    HW212442   9.695   2.625   0.225 -0.0110  0.4942 -0.1453
36389SOL     OW12443   8.811   0.319   6.921 -0.6645 -0.2754  0.2063
36389SOL    HW112444   8.777   0.374   6.851 -0.3397  1.7841  1.5790
36389SOL    HW212445   8.822   0.379   6.995 -0.3628 -2.2266  1.8164
36390SOL     OW12446   3.924   9.870   8.723  0.0655  0.0309  0.5439
36390SOL    HW112447   3.847   9.861   8.780 -1.3580  1.3866 -1.0668
36390SOL    HW212448   3.896   9.836   8.638  0.8718  1.5019 -0.3514
36391SOL     OW12449   7.484   7.217   1.689 -0.4372 -0.8125  0.2765
36391SOL    HW112450   7.479   7.122   1.673  2.3331 -1.1228  0.7900
36391SOL    HW212451   7.570   7.230   1.728 -0.7652  1.9560  0.2438
36392SOL     OW12452  10.220   2.851   3.225 -0.2693  0.0235  0.4543
36392SOL    HW112453  10.276   2.804   3.286  1.6148  0.3010 -0.9715
36392SOL    HW212454  10.239   2.944   3.240 -0.9373  0.1690  0.4635
36393SOL     OW12455   7.213   7.608   1.580 -0.3545  0.1343 -0.0073
36393SOL    HW112456   7.265   7.534   1.547 -0.7023 -0.6623  1.1779
36393SOL    HW212457   7.206   7.667   1.505  0.0999 -0.9348 -0.9256
36394SOL     OW12458   5.734   2.875   9.913  0.1076  0.1096  0.6316
36394SOL    HW112459   5.705   2.863   9.823 -1.0562 -0.6080  1.0857
36394SOL    HW212460   5.697   2.959   9.939  1.5449  0.9601  0.0412
36395SOL     OW12461   8.731   6.764   3.921 -0.4592  0.2060  0.3514
36395SOL    HW112462   8.736   6.833   3.987 -1.3753 -1.5972  2.4175
36395SOL    HW212463   8.645   6.725   3.933 -0.1881 -0.9739 -1.1436
36396SOL     OW12464   1.434   0.052   5.113 -0.2173  0.0165  0.4069
36396SOL    HW112465   1.438   0.098   5.197 -0.2215  0.1759  0.3184
36396SOL    HW212466   1.400  -0.035   5.136  0.6473 -0.2533  0.7016
36397SOL     OW12467   9.588   4.525   5.233 -0.0777 -0.0378 -0.0838
36397SOL    HW112468   9.674   4.517   5.273  0.4733 -0.8920 -1.3538
36397SOL    HW212469   9.590   4.463   5.160 -2.1383 -0.8608  0.4749
36398SOL     OW12470   8.740   4.459   1.895 -0.2572  0.0809 -0.0892
36398SOL    HW112471   8.752   4.400   1.821 -0.8343  0.5214 -0.5423
36398SOL    HW212472   8.814   4.519   1.891 -0.3256  0.1476 -0.3533
36399SOL     OW12473   0.340   2.734   2.062 -0.1228  0.3183  0.2682
36399SOL    HW112474   0.289   2.669   2.109  1.2534 -0.4612  0.7294
36399SOL    HW212475   0.282   2.809   2.054 -0.5195  0.3884  2.9615
36400SOL     OW12476   6.392   1.561   1.236  0.1456  0.3338  0.4522
36400SOL    HW112477   6.482   1.588   1.255  0.2383  0.2007  0.2147
36400SOL    HW212478   6.381   1.478   1.282  0.8376 -0.7119 -1.1723
36401SOL     OW12479   6.432   5.392   3.770 -0.3707  0.5665 -0.1201
36401SOL    HW112480   6.435   5.395   3.865  2.1031 -0.3612 -0.1000
36401SOL    HW212481   6.394   5.306   3.750 -1.2518  0.9210  0.0139
36402SOL     OW12482   5.440   1.247   3.506 -0.0472  0.0260 -0.0434
36402SOL    HW112483   5.456   1.228   3.599  2.0660  1.9508  0.0664
36402SOL    HW212484   5.497   1.186   3.459 -0.7693 -0.6315 -0.0813
36403SOL     OW12485   4.248   7.174   1.529  0.6128  0.1184 -0.1467
36403SOL    HW112486   4.245   7.187   1.434 -0.3038  0.2148 -0.1192
36403SOL    HW212487   4.301   7.246   1.562 -0.0577  0.7879 -0.4873
36404SOL     OW12488  10.511   0.856   9.189  0.3987 -0.2366 -0.4016
36404SOL    HW112489  10.605   0.840   9.194  0.2657 -1.0934 -0.4623
36404SOL    HW212490  10.474   0.773   9.159 -0.3287  0.2447 -0.8627
36405SOL     OW12491   0.050   4.666   5.225  0.2408  0.6266  0.6648
36405SOL    HW112492   0.056   4.716   5.306  0.0669 -0.0249  1.0943
36405SOL    HW212493  -0.005   4.591   5.248 -0.4218  0.8113 -0.2535
36406SOL     OW12494   0.251   8.613   3.941 -0.1036 -0.8135  0.0301
36406SOL    HW112495   0.162   8.594   3.970 -0.6248 -1.2646 -1.7152
36406SOL    HW212496   0.307   8.575   4.008 -1.2108 -0.0111  1.4529
36407SOL     OW12497   9.350   1.110   6.101 -0.3993  0.6771  0.1865
36407SOL    HW112498   9.398   1.182   6.142 -0.9307  0.7807  0.6440
36407SOL    HW212499   9.353   1.129   6.007  0.2548  0.8002  0.2273
36408SOL     OW12500   2.804   4.379   0.130  0.0487  0.4541 -0.2018
36408SOL    HW112501   2.770   4.319   0.063 -2.3821  0.0596  1.2735
36408SOL    HW212502   2.872   4.429   0.085  1.5951 -2.7492 -1.7614
36409SOL     OW12503   6.362   1.669   0.085 -0.1480  0.1222  0.0888
36409SOL    HW112504   6.398   1.641   0.001 -0.0831  1.1634 -0.2376
36409SOL    HW212505   6.276   1.626   0.090 -0.5037  0.6952 -0.8841
36410SOL     OW12506   1.950   2.869   9.219  1.0002 -0.1453 -0.1525
36410SOL    HW112507   2.004   2.927   9.166  0.7340  0.1374 -0.1151
36410SOL    HW212508   1.951   2.786   9.172  1.0949 -0.0111 -0.3908
36411SOL     OW12509   4.556   7.502   4.491  0.0952  0.3520 -0.8177
36411SOL    HW112510   4.565   7.566   4.421 -1.3076  0.5916 -0.8068
36411SOL    HW212511   4.541   7.419   4.446 -1.1154  0.5566 -0.8271
36412SOL     OW12512   3.518   2.662   5.926  0.5558  0.0452 -0.3035
36412SOL    HW112513   3.593   2.674   5.868  0.5165  0.4614 -0.2765
36412SOL    HW212514   3.511   2.568   5.939  1.6813  0.0552  0.4904
36413SOL     OW12515  10.410   3.483   7.635  0.0262 -0.0043 -0.4592
36413SOL    HW112516  10.483   3.433   7.597  0.4556 -0.6794  1.1920
36413SOL    HW212517  10.449   3.568   7.657  0.3058 -0.3237  0.3142
36414SOL     OW12518   8.000  10.193  10.749  0.1542  0.2909  0.3630
36414SOL    HW112519   7.906  10.193  10.768 -0.0610 -1.6910 -0.4416
36414SOL    HW212520   8.038  10.142  10.819  0.6865  1.2594  0.7956
36415SOL     OW12521   8.693   0.432   5.580 -0.2626  0.0639  0.2926
36415SOL    HW112522   8.745   0.370   5.631 -0.7691  0.1546  0.9243
36415SOL    HW212523   8.634   0.377   5.529  0.9094 -0.0772 -0.9685
36416SOL     OW12524   3.327   4.492   1.460 -0.2588  0.5597  0.1011
36416SOL    HW112525   3.399   4.486   1.397 -2.7473 -0.5978 -2.8860
36416SOL    HW212526   3.286   4.577   1.441 -0.5584  0.5729  0.7731
36417SOL     OW12527   3.589   4.890   3.194 -0.1189  0.3329  0.5669
36417SOL    HW112528   3.538   4.969   3.173 -0.2046 -0.0295 -0.6917
36417SOL    HW212529   3.604   4.849   3.109 -1.3313 -1.7957  1.3069
36418SOL     OW12530   1.355   9.135   4.717  0.2323 -0.2609  0.5815
36418SOL    HW112531   1.370   9.045   4.691  0.0074 -0.3560  0.7803
36418SOL    HW212532   1.266   9.136   4.753 -0.6079  0.4560 -1.3658
36419SOL     OW12533   7.354   7.483   5.653 -0.4888  0.3352 -0.4543
36419SOL    HW112534   7.325   7.397   5.621  1.1656 -0.5915  0.3575
36419SOL    HW212535   7.448   7.484   5.635 -0.3328  1.6287  0.3150
36420SOL     OW12536   0.431   4.994   5.016  0.1787 -0.0590 -0.1984
36420SOL    HW112537   0.400   5.077   4.981  0.5938  0.1161 -0.1498
36420SOL    HW212538   0.431   5.005   5.111 -1.2864 -0.6530 -0.0875
36421SOL     OW12539   3.072  10.171   1.203  0.2487 -0.1994  0.4882
36421SOL    HW112540   3.127  10.116   1.258  0.9009  0.1557  0.1985
36421SOL    HW212541   3.125  10.189   1.126 -0.4240 -0.1770  0.0235
36422SOL     OW12542  10.293   2.620   0.788  0.1227  0.0398 -0.0410
36422SOL    HW112543  10.211   2.604   0.741 -0.0046  1.6613 -0.4141
36422SOL    HW212544  10.277   2.585   0.876 -1.2031  0.8492  0.0695
36423SOL     OW12545   2.318   1.479   0.351 -0.0722  0.4699  0.9947
36423SOL    HW112546   2.327   1.567   0.315  0.6470  0.4143  1.0146
36423SOL    HW212547   2.225   1.461   0.347 -0.2674  1.3561  1.2787
36424SOL     OW12548   6.234   3.626   4.896  0.1846 -0.5535 -0.5060
36424SOL    HW112549   6.219   3.602   4.805 -1.6413  0.9703 -0.6769
36424SOL    HW212550   6.157   3.592   4.943 -0.0384  0.6534  0.0392
36425SOL     OW12551   2.010   6.661   1.775  0.4525  0.4055  0.5113
36425SOL    HW112552   1.927   6.618   1.797 -0.5252  1.2980 -1.1748
36425SOL    HW212553   1.988   6.754   1.769  1.1213  0.4759 -1.7474
36426SOL     OW12554   5.454   3.076   7.618 -0.7196  0.1236 -0.1080
36426SOL    HW112555   5.406   3.153   7.648  0.5233  0.1096  2.1246
36426SOL    HW212556   5.442   3.076   7.523 -2.4436  1.8889  0.0438
36427SOL     OW12557   8.922  10.173   2.318  0.1332  0.0586  0.0292
36427SOL    HW112558   8.891  10.233   2.387  0.9109 -1.9902  2.2923
36427SOL    HW212559   8.856  10.104   2.315  0.2214  0.0070 -1.1786
36428SOL     OW12560   2.563   4.905   8.676 -0.1669  0.1956  0.0313
36428SOL    HW112561   2.474   4.882   8.703 -0.5745 -0.5443 -1.7965
36428SOL    HW212562   2.551   4.971   8.607  0.6143 -0.7334 -1.0383
36429SOL     OW12563   3.427   7.089   3.482 -0.2273 -0.0066 -0.5762
36429SOL    HW112564   3.333   7.080   3.466 -0.1418  1.3225 -2.0698
36429SOL    HW212565   3.461   7.001   3.469 -1.1983 -0.4248 -0.4354
36430SOL     OW12566   5.762   6.941  10.856 -0.4144  0.0641 -0.3625
36430SOL    HW112567   5.773   7.025  10.811  1.2311  1.2832  2.0615
36430SOL    HW212568   5.805   6.954  10.940 -2.5652 -2.3346  1.2455
36431SOL     OW12569   1.638   7.722   7.602  0.0141  0.2389  0.2838
36431SOL    HW112570   1.653   7.816   7.616 -1.1139  0.5730 -0.5771
36431SOL    HW212571   1.564   7.701   7.658  0.0601 -0.0732  0.2299
36432SOL     OW12572   4.150   7.955   3.693  0.0270  0.6648  0.0339
36432SOL    HW112573   4.191   8.024   3.744 -0.8727 -0.8102  2.9903
36432SOL    HW212574   4.097   7.906   3.756 -0.6963 -1.7302 -2.2158
36433SOL     OW12575   4.601   4.542   8.396 -0.3145  0.0284 -0.7098
36433SOL    HW112576   4.544   4.564   8.470  0.1312  0.9253 -0.6232
36433SOL    HW212577   4.648   4.463   8.426 -1.6618 -0.8775 -0.8852
36434SOL     OW12578   8.967   7.244   6.788 -0.0290  0.0240  0.1132
36434SOL    HW112579   8.932   7.172   6.841  0.5865 -1.4578 -1.4077
36434SOL    HW212580   9.060   7.249   6.813  0.1290 -0.2909 -0.4112
36435SOL     OW12581   0.649   1.142   9.875 -0.1129  0.2205  0.0248
36435SOL    HW112582   0.655   1.124   9.781  1.4762  0.2808  0.0979
36435SOL    HW212583   0.679   1.061   9.917  0.5677  0.6923  0.4564
36436SOL     OW12584   4.738   3.529   4.437  0.1305  0.0276 -0.5796
36436SOL    HW112585   4.788   3.487   4.367  0.3300  0.0666 -0.4624
36436SOL    HW212586   4.766   3.621   4.434  2.2238 -0.4463  1.2884
36437SOL     OW12587   5.506   5.557   9.628 -0.1685 -0.2329 -0.0950
36437SOL    HW112588   5.419   5.563   9.666 -0.3410 -0.8600 -0.3762
36437SOL    HW212589   5.491   5.544   9.534  0.2097 -0.8368 -0.0768
36438SOL     OW12590   6.228  10.063   0.867 -0.3043  0.1836 -0.3718
36438SOL    HW112591   6.250  10.127   0.935  0.2353  1.1071 -1.3884
36438SOL    HW212592   6.278  10.092   0.790 -1.8445 -0.1262 -1.5224
36439SOL     OW12593   5.218   8.086   5.938 -0.0479  0.2388  0.2124
36439SOL    HW112594   5.188   8.072   6.027 -0.3807  1.4288  0.3064
36439SOL    HW212595   5.239   7.998   5.905  1.8109 -0.0563  2.0347
36440SOL     OW12596   2.454  10.663   0.447  0.0737 -0.3434 -0.1207
36440SOL    HW112597   2.371  10.666   0.494 -0.7645  1.1608 -1.6096
36440SOL    HW212598   2.437  10.608   0.371 -0.1875  1.5901 -1.5063
36441SOL     OW12599  11.061   7.977   5.572  0.0279 -0.0109  0.1046
36441SOL    HW112600  11.026   7.930   5.496  1.9325 -1.3732 -0.0276
36441SOL    HW212601  11.062   8.069   5.545  0.6374 -0.4573 -1.5535
36442SOL     OW12602   4.006  11.049   9.896  0.0338 -0.2527  0.2665
36442SOL    HW112603   3.957  10.969   9.916  0.6276 -0.9435 -0.9085
36442SOL    HW212604   3.974  11.076   9.810  0.4740  0.2799  0.2644
36443SOL     OW12605   2.666   6.643   4.025 -0.1991  0.3852 -0.0381
36443SOL    HW112606   2.621   6.582   3.967  1.7307 -1.3008  0.0955
36443SOL    HW212607   2.652   6.608   4.113  2.2824 -0.9898 -0.0731
36444SOL     OW12608   8.859   5.075   5.484 -0.4997  0.0122 -0.3926
36444SOL    HW112609   8.788   5.039   5.538 -0.4521 -0.1371 -0.4300
36444SOL    HW212610   8.884   5.003   5.426 -1.3306  0.5297 -1.4101
36445SOL     OW12611   4.361   7.598   1.910 -0.2487 -0.2827 -0.0109
36445SOL    HW112612   4.281   7.611   1.859  0.1467  0.2550 -0.5098
36445SOL    HW212613   4.431   7.634   1.855  0.3936 -1.1121  0.2453
36446SOL     OW12614   2.423   8.960   1.486  0.2553  0.7633  0.8659
36446SOL    HW112615   2.347   8.962   1.543  1.2084  0.3476  2.1914
36446SOL    HW212616   2.415   8.877   1.439 -0.8325  1.3684 -0.0706
36447SOL     OW12617   4.252   9.759   1.573  0.1635 -0.5995  0.0673
36447SOL    HW112618   4.296   9.684   1.613  1.8159 -0.1778 -0.8807
36447SOL    HW212619   4.219   9.726   1.490  1.0626 -0.2545 -0.4409
36448SOL     OW12620   4.237   6.533   3.185  0.0448  0.0694 -0.2110
36448SOL    HW112621   4.324   6.530   3.147 -0.0557 -1.3216 -0.3808
36448SOL    HW212622   4.197   6.612   3.149  0.9515  0.2873 -0.7438
36449SOL     OW12623   2.393   2.876   0.168 -0.0015  0.1529 -0.6019
36449SOL    HW112624   2.378   2.782   0.170 -0.1787  0.0607 -3.0494
36449SOL    HW212625   2.351   2.909   0.247 -0.1971 -1.7741  0.1495
36450SOL     OW12626   3.964   0.522   8.999 -0.0328  0.3166  0.1890
36450SOL    HW112627   4.059   0.519   9.012  0.2811 -0.8197 -1.9687
36450SOL    HW212628   3.952   0.558   8.912 -1.5525 -0.2535  0.1214
36451SOL     OW12629   2.170   7.357   8.222 -0.1835 -0.2333 -0.1771
36451SOL    HW112630   2.201   7.271   8.252 -1.6060  0.4678  3.9704
36451SOL    HW212631   2.076   7.356   8.242 -0.5243  1.7844 -1.4622
36452SOL     OW12632   9.048   8.401   7.477 -0.0696 -0.3918 -0.3405
36452SOL    HW112633   9.017   8.456   7.549  1.1958 -1.3287  0.9769
36452SOL    HW212634   8.976   8.402   7.414 -1.1819  0.5521  0.8763
36453SOL     OW12635   6.488   2.369   8.502 -0.2578 -0.1838 -0.8506
36453SOL    HW112636   6.395   2.349   8.494 -0.0065 -1.1242 -1.6035
36453SOL    HW212637   6.518   2.380   8.411  0.0105  1.9023 -0.5640
36454SOL     OW12638   9.809   5.074   6.650  0.6047  0.0382  0.1783
36454SOL    HW112639   9.734   5.088   6.591  1.1800 -3.9199 -1.8720
36454SOL    HW212640   9.869   5.145   6.630 -1.2588  1.5418 -0.4003
36455SOL     OW12641   8.472   0.093   1.576 -0.3265 -0.0087 -0.4759
36455SOL    HW112642   8.558   0.136   1.571  0.9381 -2.0243  1.7595
36455SOL    HW212643   8.460   0.055   1.489  0.1031  1.9050 -1.4180
36456SOL     OW12644   4.872   1.193   3.730  0.9847 -0.5597 -0.0704
36456SOL    HW112645   4.864   1.222   3.820  0.6805 -0.6117 -0.0786
36456SOL    HW212646   4.963   1.212   3.706  0.9518 -0.1638  0.1126
36457SOL     OW12647  10.184   3.991   5.749  0.5085  0.2334  0.4018
36457SOL    HW112648  10.237   4.071   5.743  1.3244 -0.3280 -0.1630
36457SOL    HW212649  10.249   3.921   5.761 -0.0976 -0.4909 -0.4574
36458SOL     OW12650   1.900   4.178   6.982 -0.0058  0.2851 -0.2079
36458SOL    HW112651   1.835   4.109   6.993 -0.8745  0.4121 -3.5818
36458SOL    HW212652   1.983   4.135   7.001 -0.6940 -1.1562 -0.2933
36459SOL     OW12653   4.609   4.241   3.813  0.0042  0.2243 -0.1343
36459SOL    HW112654   4.563   4.172   3.861 -0.3153  0.7269  0.2988
36459SOL    HW212655   4.578   4.323   3.853  1.0184  0.5875 -0.0514
36460SOL     OW12656   2.984  10.384   0.351 -0.3515 -0.2657 -0.1744
36460SOL    HW112657   2.990  10.383   0.255 -0.0987 -0.7759 -0.1588
36460SOL    HW212658   2.963  10.293   0.374  1.4216 -0.5653  0.3602
36461SOL     OW12659   8.076   6.331  11.322 -0.3891  0.0744 -0.2016
36461SOL    HW112660   8.116   6.382  11.251  0.2561  0.0340  0.1289
36461SOL    HW212661   8.027   6.262  11.276 -2.0662  1.5090 -0.6925
36462SOL     OW12662   6.156  10.861   5.816  0.2475  0.4797  0.4546
36462SOL    HW112663   6.144  10.956   5.824  0.6885  0.5107  0.8370
36462SOL    HW212664   6.090  10.823   5.872  2.5668  0.6678  3.5724
36463SOL     OW12665   0.669  10.881   5.955  0.1081  0.4793 -0.3568
36463SOL    HW112666   0.629  10.799   5.984  0.3596  0.5108  0.0873
36463SOL    HW212667   0.605  10.948   5.980 -0.4202  0.3564 -1.3607
36464SOL     OW12668   0.086   0.544  10.485 -0.3733  0.0504  0.4122
36464SOL    HW112669   0.005   0.510  10.523 -0.9442  0.9425  0.0457
36464SOL    HW212670   0.064   0.633  10.459  0.0368 -0.4613 -1.8548
36465SOL     OW12671   7.507   7.536   3.345  0.1148 -0.1938  0.6580
36465SOL    HW112672   7.518   7.617   3.395  0.7568 -0.0744  0.3313
36465SOL    HW212673   7.415   7.514   3.356  0.0020  0.4172  1.0034
36466SOL     OW12674   1.885  11.152   9.879  0.2411 -0.0349 -0.2896
36466SOL    HW112675   1.891  11.094   9.956  0.5743 -0.6302 -0.7527
36466SOL    HW212676   1.976  11.178   9.863  0.6615 -2.3133 -2.2541
36467SOL     OW12677  10.402   2.018   3.120  0.1835  0.4725  0.0757
36467SOL    HW112678  10.333   2.022   3.053  0.0020 -0.7466  0.1734
36467SOL    HW212679  10.484   2.018   3.070  0.0520 -0.2515 -0.1484
36468SOL     OW12680   1.390   8.722   2.513 -0.1902  0.5066  0.1879
36468SOL    HW112681   1.468   8.743   2.462  0.1901  1.0449  0.9592
36468SOL    HW212682   1.319   8.719   2.449  0.4082  0.3233 -0.4800
36469SOL     OW12683   1.592   9.958   0.805  0.0378  0.0654 -0.6700
36469SOL    HW112684   1.533   9.884   0.789 -1.3054  0.2952  2.4308
36469SOL    HW212685   1.623   9.944   0.895  1.9954  1.8049 -1.0224
36470SOL     OW12686   6.553   7.527   6.552 -0.6105 -0.0899 -0.3775
36470SOL    HW112687   6.574   7.437   6.577 -1.1244 -0.5532 -1.5153
36470SOL    HW212688   6.541   7.574   6.635 -0.6874 -1.1541  0.2268
36471SOL     OW12689   5.097   4.564  10.492 -0.2103  0.1539  0.4964
36471SOL    HW112690   5.010   4.525  10.481  0.9795 -2.2661 -1.1267
36471SOL    HW212691   5.133   4.521  10.569  0.6369 -1.1987 -0.5934
36472SOL     OW12692   1.136   7.406   0.468 -0.3285 -0.0980 -0.4256
36472SOL    HW112693   1.220   7.385   0.426  1.1100  1.0354  1.6992
36472SOL    HW212694   1.119   7.497   0.443  0.1955  0.3622  0.8082
36473SOL     OW12695   4.604   1.093   0.932 -0.2911  0.2394  0.1970
36473SOL    HW112696   4.549   1.022   0.967 -0.6237  1.1028  1.4936
36473SOL    HW212697   4.679   1.048   0.893 -0.7816 -0.8510  0.4665
36474SOL     OW12698   9.901   9.530   9.771  0.1874  0.5894  0.9315
36474SOL    HW112699   9.975   9.472   9.787 -1.0998 -1.4496 -0.1097
36474SOL    HW212700   9.843   9.517   9.846 -0.7765 -0.6295  0.0063
36475SOL     OW12701  11.217   8.604  10.554 -0.2831 -0.2922 -0.1794
36475SOL    HW112702  11.235   8.697  10.560 -1.3980 -0.1484  1.8555
36475SOL    HW212703  11.123   8.596  10.573  0.0172 -1.8884  0.8459
36476SOL     OW12704   9.848   0.185   9.939  0.2497  0.2047 -0.0084
36476SOL    HW112705   9.774   0.232   9.976  0.3000 -0.8441  1.5058
36476SOL    HW212706   9.849   0.101   9.985  1.7497 -0.2219 -0.7484
36477SOL     OW12707   0.211  10.388   1.190  0.2266 -0.0530 -0.0463
36477SOL    HW112708   0.271  10.458   1.164  0.8665 -0.6700 -0.2674
36477SOL    HW212709   0.146  10.431   1.246  0.4654  0.7591 -0.3759
36478SOL     OW12710   3.705  10.302   5.942  0.5451  0.5389  0.7955
36478SOL    HW112711   3.683  10.248   5.866 -1.6326  1.5130  0.6402
36478SOL    HW212712   3.759  10.245   5.997  0.5201 -0.8722 -0.5540
36479SOL     OW12713   6.495   1.423   8.294 -0.2616  0.3824 -0.3604
36479SOL    HW112714   6.537   1.469   8.221 -2.5006  0.8014 -1.4953
36479SOL    HW212715   6.504   1.331   8.272 -0.0210  0.4676 -0.6352
36480SOL     OW12716   5.468   1.685   6.802  0.6472  0.1738  0.0277
36480SOL    HW112717   5.386   1.705   6.846 -0.0724  0.1891 -1.2589
36480SOL    HW212718   5.446   1.615   6.740  2.3044 -2.0976  1.8372
36481SOL     OW12719   9.607  10.090   0.512 -0.0911  0.6746 -0.3170
36481SOL    HW112720   9.552  10.096   0.434 -1.3338  0.7799  0.5283
36481SOL    HW212721   9.622   9.996   0.523 -2.0590  0.4173  0.6967
36482SOL     OW12722   3.001   7.524   7.243 -0.4151 -0.0431  0.6720
36482SOL    HW112723   2.992   7.596   7.306 -0.1419 -0.0157  0.6848
36482SOL    HW212724   3.069   7.554   7.183 -0.6312 -0.0965  0.4000
36483SOL     OW12725   6.198   7.924   5.840 -0.6954 -0.7893 -0.4814
36483SOL    HW112726   6.163   7.984   5.906  0.7868  0.5894 -0.9040
36483SOL    HW212727   6.144   7.939   5.763  1.3714  2.1959 -1.5115
36484SOL     OW12728   0.847   0.733   6.989  0.1185  0.0787 -0.4624
36484SOL    HW112729   0.830   0.699   6.901  0.5103 -1.8951  0.1667
36484SOL    HW212730   0.937   0.706   7.008 -0.3402 -0.5393  0.9565
36485SOL     OW12731   2.159   4.904   5.689 -0.6374  0.5951 -0.1390
36485SOL    HW112732   2.069   4.928   5.712  0.0199  2.4481  0.6630
36485SOL    HW212733   2.179   4.957   5.612  0.6397  2.3818  1.3097
36486SOL     OW12734   1.209   4.836  10.916  0.0076 -0.6034  0.0810
36486SOL    HW112735   1.251   4.763  10.871  0.0268 -1.4184  1.3857
36486SOL    HW212736   1.209   4.811  11.008 -0.4717  0.8086  0.4879
36487SOL     OW12737   3.239   3.788   2.679 -0.3995 -0.4801 -0.6347
36487SOL    HW112738   3.200   3.722   2.736  1.4927 -0.6103  0.6108
36487SOL    HW212739   3.326   3.754   2.658  0.8211  1.7084  0.3968
36488SOL     OW12740   4.274   9.957   4.293 -0.4098  0.1293  0.4736
36488SOL    HW112741   4.185   9.934   4.319 -0.2926  0.7203  1.4429
36488SOL    HW212742   4.263  10.032   4.234 -0.4862  1.6817  2.3477
36489SOL     OW12743   6.932   7.142   5.063 -0.2761 -0.2012  0.2677
36489SOL    HW112744   6.945   7.055   5.025 -0.9358 -1.0989  1.9598
36489SOL    HW212745   7.012   7.159   5.112  0.2635  0.6159 -0.8551
36490SOL     OW12746   8.024   8.070   9.472 -0.8669  0.2382 -0.0210
36490SOL    HW112747   7.940   8.070   9.428 -1.0285  0.4244  0.2831
36490SOL    HW212748   8.070   8.147   9.437 -1.2264  0.7324  0.5571
36491SOL     OW12749   6.630   0.648   7.070 -0.0437 -0.2732 -0.3950
36491SOL    HW112750   6.563   0.593   7.111 -0.8875 -0.4397 -1.9239
36491SOL    HW212751   6.634   0.726   7.125 -2.5306  0.3689 -1.0025
36492SOL     OW12752   4.346   0.066   2.624  0.0796  0.1170 -0.2493
36492SOL    HW112753   4.438   0.086   2.643 -0.0199  0.4970 -0.1676
36492SOL    HW212754   4.298   0.143   2.653 -0.2679 -0.0847 -0.2878
36493SOL     OW12755  10.804   9.391   0.281  0.5458  0.2487 -0.4989
36493SOL    HW112756  10.709   9.391   0.284  0.4828 -1.4781 -1.2243
36493SOL    HW212757  10.829   9.478   0.313 -1.1023 -0.5284  3.5271
36494SOL     OW12758   2.888   0.570   2.921 -0.5440 -0.2277 -0.2367
36494SOL    HW112759   2.977   0.547   2.894 -0.5066 -0.2034 -0.1339
36494SOL    HW212760   2.868   0.649   2.872 -0.7042 -0.5245 -0.6541
36495SOL     OW12761   0.393   3.965   6.621 -0.2766  0.3149  0.1192
36495SOL    HW112762   0.375   3.905   6.694 -0.8779 -0.4687 -0.6527
36495SOL    HW212763   0.341   4.042   6.641 -0.7653 -0.0597  0.3226
36496SOL     OW12764   5.218   2.094   1.061 -0.4021  0.3332  0.0874
36496SOL    HW112765   5.266   2.027   1.109 -1.7686 -0.3622  0.5479
36496SOL    HW212766   5.284   2.139   1.009  1.0142  0.6434  2.0679
36497SOL     OW12767   5.984   0.837  10.733 -0.2864  0.1300 -0.1715
36497SOL    HW112768   6.056   0.832  10.671  0.2941  2.8427  0.1686
36497SOL    HW212769   5.905   0.836  10.679  0.0145 -1.5005 -0.6298
36498SOL     OW12770   1.156   1.988   8.280  0.1099  0.1171 -0.0990
36498SOL    HW112771   1.138   2.080   8.298  0.7403 -0.1139  2.0297
36498SOL    HW212772   1.083   1.959   8.225  0.2299  2.0050 -1.3571
36499SOL     OW12773   5.158   1.050   6.624  0.2833 -0.3846 -0.1986
36499SOL    HW112774   5.180   0.961   6.595  0.8147 -0.0980 -0.6884
36499SOL    HW212775   5.147   1.100   6.544 -0.9697 -0.2123  0.0531
36500SOL     OW12776   0.610   7.958   5.755 -0.5158  0.1130  0.2843
36500SOL    HW112777   0.675   7.964   5.686 -0.2295  0.9455  0.6139
36500SOL    HW212778   0.526   7.967   5.710 -0.3961 -0.6470 -0.1026
36501SOL     OW12779   2.644   6.575   9.720  0.2143  0.2811  0.2787
36501SOL    HW112780   2.711   6.640   9.739  1.3961  0.2885 -3.0850
36501SOL    HW212781   2.572   6.624   9.682 -0.2939 -0.0682  0.7712
36502SOL     OW12782   2.833   0.462   0.909  0.0784 -0.1925 -0.2003
36502SOL    HW112783   2.799   0.552   0.915 -0.0823 -0.2663  0.0288
36502SOL    HW212784   2.909   0.463   0.967  1.4635  0.4138 -1.9497
36503SOL     OW12785   9.843   9.872   4.281  0.4020 -0.3748 -0.4221
36503SOL    HW112786   9.849   9.959   4.318 -2.3833 -0.6743  1.0206
36503SOL    HW212787   9.798   9.884   4.197  1.4347 -0.2903 -0.9740
36504SOL     OW12788   4.503   4.660   1.550  0.3970 -0.2961  0.1502
36504SOL    HW112789   4.438   4.698   1.491 -1.3538  0.4235  2.4124
36504SOL    HW212790   4.473   4.570   1.563 -0.2329  0.0630  1.2661
36505SOL     OW12791  11.103   9.324   8.815 -0.2713  0.9695  0.1314
36505SOL    HW112792  11.117   9.415   8.788 -1.3963  0.9834 -0.4944
36505SOL    HW212793  11.191   9.289   8.830  0.1570  2.2629  0.7552
36506SOL     OW12794   5.956   9.398   8.555  0.0632 -0.1218 -0.0505
36506SOL    HW112795   6.041   9.384   8.513 -0.5035  0.2569 -1.3746
36506SOL    HW212796   5.939   9.492   8.545 -0.3171 -0.1123  0.6053
36507SOL     OW12797   0.548  10.610   6.015 -0.0450 -0.2190 -0.0582
36507SOL    HW112798   0.582  10.558   6.088 -0.0344 -0.4456 -0.2237
36507SOL    HW212799   0.453  10.610   6.028 -0.1474 -1.2447 -0.6909
36508SOL     OW12800   8.455   9.664   6.683 -0.3884  0.6800  0.3034
36508SOL    HW112801   8.431   9.665   6.776 -1.1888  1.8246  0.1050
36508SOL    HW212802   8.473   9.572   6.664  0.4872  0.5145  1.7548
36509SOL     OW12803   9.176   3.486   2.952 -0.6085 -0.2763 -0.2860
36509SOL    HW112804   9.126   3.404   2.950 -1.3844  0.1554  0.6762
36509SOL    HW212805   9.207   3.492   3.042  0.3396 -0.0205 -0.6156
36510SOL     OW12806   5.456   8.864  10.576  0.1835  0.8288  0.3167
36510SOL    HW112807   5.546   8.841  10.597 -0.2052  1.6277  3.3718
36510SOL    HW212808   5.433   8.931  10.641 -1.9643  2.2040 -1.7008
36511SOL     OW12809   7.981   7.127   8.043  0.8758  0.4782  0.0421
36511SOL    HW112810   7.951   7.163   8.126 -2.1745 -0.5587 -0.4752
36511SOL    HW212811   8.066   7.089   8.062 -0.1877 -0.6786  3.0202
36512SOL     OW12812   1.935   0.518   1.836 -0.0889  0.1504 -0.1023
36512SOL    HW112813   1.889   0.517   1.752 -0.4015  0.5644  0.0622
36512SOL    HW212814   2.001   0.588   1.827  1.5311 -1.3901 -0.8664
36513SOL     OW12815   1.315   5.162   8.146 -0.3609 -0.5930  0.1189
36513SOL    HW112816   1.379   5.152   8.076 -0.1389 -0.2860  0.2744
36513SOL    HW212817   1.233   5.131   8.109 -0.2890 -0.2318 -0.3518
36514SOL     OW12818   5.482   9.473  10.759  0.4119  0.0872 -0.0582
36514SOL    HW112819   5.468   9.433  10.673 -0.5725 -0.6293  0.4210
36514SOL    HW212820   5.470   9.402  10.822 -0.1075  0.8481  0.7374
36515SOL     OW12821   8.550   1.557   9.797 -0.1802 -0.1329  0.6694
36515SOL    HW112822   8.588   1.470   9.786 -0.3354 -0.1830  0.5156
36515SOL    HW212823   8.470   1.555   9.744  1.4016  1.1222 -2.0019
36516SOL     OW12824   3.534   4.376   1.036 -0.4013  0.2236  0.2091
36516SOL    HW112825   3.467   4.438   1.006  1.3282  2.2391  0.2992
36516SOL    HW212826   3.487   4.293   1.044 -3.0148  1.6479  0.8352
36517SOL     OW12827  10.537   6.381   5.456  0.4237 -0.6605  0.3066
36517SOL    HW112828  10.497   6.447   5.513  1.4197 -0.2974  0.5976
36517SOL    HW212829  10.520   6.413   5.367  0.6558 -0.1527  0.4405
36518SOL     OW12830   8.032   3.009   4.089  0.0726 -0.5389 -0.4567
36518SOL    HW112831   7.970   3.048   4.151  0.3630 -0.7849 -0.0113
36518SOL    HW212832   8.101   3.075   4.081  1.5679 -1.7065  1.7962
36519SOL     OW12833   0.182   9.052   7.793 -0.3813  0.2494  0.3479
36519SOL    HW112834   0.268   9.049   7.835  0.0775 -0.6064 -0.6167
36519SOL    HW212835   0.162   9.146   7.786  1.4911  0.5831 -1.4066
36520SOL     OW12836   5.966   9.110   0.287  0.3165  0.1818 -0.4977
36520SOL    HW112837   5.980   9.043   0.220 -0.1819  0.9816 -1.4195
36520SOL    HW212838   6.003   9.190   0.250 -0.3779  0.7355 -0.0226
36521SOL     OW12839   3.812   4.442   8.357  0.4195  0.1092  0.3105
36521SOL    HW112840   3.899   4.403   8.361  0.5648  0.5328  1.9002
36521SOL    HW212841   3.770   4.415   8.438  0.1861  2.3854  1.0150
36522SOL     OW12842   9.823   5.123  11.396  0.2481  0.0202  0.2899
36522SOL    HW112843   9.733   5.119  11.362  0.7067  0.6776 -1.0705
36522SOL    HW212844   9.824   5.203  11.449  0.0727  0.0877  0.1931
36523SOL     OW12845   4.314   3.504   7.957 -0.3179  0.0169  0.1207
36523SOL    HW112846   4.325   3.452   8.036 -0.0573 -1.0602 -0.6126
36523SOL    HW212847   4.220   3.509   7.944 -0.3373 -0.5042  0.0477
36524SOL     OW12848   5.692   1.299   1.063 -0.4277  0.2420  0.0271
36524SOL    HW112849   5.716   1.256   0.982  0.9026  1.4850 -0.2734
36524SOL    HW212850   5.625   1.363   1.038 -0.1790  0.4707 -0.0557
36525SOL     OW12851   3.246   9.116   9.592 -0.3415 -0.1249 -0.4114
36525SOL    HW112852   3.226   9.162   9.674  1.0085 -0.7676  0.3111
36525SOL    HW212853   3.178   9.145   9.531 -1.2620  0.5146  0.8755
36526SOL     OW12854   9.073   4.477   0.430  0.0284  0.6504 -0.0476
36526SOL    HW112855   9.009   4.407   0.429 -1.9246  2.2627  2.1225
36526SOL    HW212856   9.056   4.527   0.350  0.5140 -0.4879 -0.8916
36527SOL     OW12857   1.868   1.098   9.557  0.7204  0.5253 -0.9217
36527SOL    HW112858   1.778   1.093   9.525  1.0354 -0.7849 -1.6498
36527SOL    HW212859   1.864   1.160   9.630 -0.7337  0.5918 -1.0352
36528SOL     OW12860   1.348   6.378  10.689  0.1573  0.5448  0.1338
36528SOL    HW112861   1.425   6.321  10.695 -0.3508 -0.3462 -1.5082
36528SOL    HW212862   1.280   6.324  10.651 -0.4769  2.1007 -1.0825
36529SOL     OW12863   9.063   5.736   5.089 -0.4913  0.3207  0.1771
36529SOL    HW112864   9.061   5.831   5.087 -0.8326  0.3089 -1.4364
36529SOL    HW212865   9.134   5.712   5.028 -0.1218 -0.4588  0.8878
36530SOL     OW12866   4.719  10.785   3.560  0.2585 -0.1919 -0.0010
36530SOL    HW112867   4.755  10.865   3.599  1.3996 -1.8242  2.5280
36530SOL    HW212868   4.635  10.773   3.604  1.2072 -1.6449  1.4886
36531SOL     OW12869   7.582   9.354   7.581 -0.0202 -0.6086 -0.4656
36531SOL    HW112870   7.582   9.295   7.505  1.1422 -1.0228 -0.1744
36531SOL    HW212871   7.495   9.393   7.582 -0.9537 -2.5774 -0.4753
36532SOL     OW12872   5.588   3.949   8.565  0.5919 -0.5344 -0.4137
36532SOL    HW112873   5.565   3.857   8.555 -0.9215 -0.1909 -0.3760
36532SOL    HW212874   5.671   3.959   8.519 -0.7079 -1.3010 -3.1143
36533SOL     OW12875   2.229   3.331   2.654  0.8114 -0.1565 -0.1965
36533SOL    HW112876   2.183   3.363   2.731 -0.8952  1.1415 -1.6711
36533SOL    HW212877   2.208   3.237   2.650  0.2567 -0.0597  0.4524
36534SOL     OW12878   2.637  10.778   8.862  0.3500 -0.1649  0.2827
36534SOL    HW112879   2.631  10.687   8.835 -1.8361  0.1842 -0.6295
36534SOL    HW212880   2.579  10.784   8.938  2.2049  0.0387  1.7535
36535SOL     OW12881   6.674   6.978   1.609 -0.0794  0.0244  0.4494
36535SOL    HW112882   6.729   6.961   1.685  1.4683 -0.8559 -0.7988
36535SOL    HW212883   6.627   6.896   1.596 -1.0947  0.4981  1.0067
36536SOL     OW12884   7.594  11.001   6.388  0.1315 -0.1602 -0.2838
36536SOL    HW112885   7.603  10.936   6.318  0.8194  0.2835 -0.6181
36536SOL    HW212886   7.616  11.084   6.346  0.0674  0.1811  0.3486
36537SOL     OW12887  11.119   0.654   1.425  0.1053 -0.2622  0.0844
36537SOL    HW112888  11.044   0.663   1.367  0.2330 -0.0865 -0.0584
36537SOL    HW212889  11.106   0.721   1.492  0.4991  0.2674 -0.3541
36538SOL     OW12890   0.568   1.414   3.221  0.4129 -0.0449 -0.2593
36538SOL    HW112891   0.617   1.358   3.160 -0.5615  0.1655 -1.2803
36538SOL    HW212892   0.519   1.353   3.276  0.9817 -0.2276  0.0523
36539SOL     OW12893   3.334   0.372  10.815 -0.5215  0.0314 -0.1295
36539SOL    HW112894   3.352   0.415  10.898 -2.2078  0.1262  0.2258
36539SOL    HW212895   3.398   0.301  10.809 -0.1556  0.2476  1.0523
36540SOL     OW12896   4.614   5.164   8.437  0.2081  0.3700 -0.1416
36540SOL    HW112897   4.625   5.160   8.532  0.4853  0.1872 -0.1819
36540SOL    HW212898   4.690   5.118   8.402 -0.0475  0.1812 -0.4478
36541SOL     OW12899   6.139   9.309   1.194  0.2809  0.0457 -0.4886
36541SOL    HW112900   6.094   9.322   1.277  1.5581  2.5799 -0.0873
36541SOL    HW212901   6.114   9.385   1.141  2.9715  0.9046 -0.6780
36542SOL     OW12902  10.012   6.462   8.973 -0.2976  0.0888 -0.0243
36542SOL    HW112903   9.979   6.487   9.060  0.5260  0.6445  0.1402
36542SOL    HW212904  10.104   6.490   8.974  0.3541 -1.8833 -0.2745
36543SOL     OW12905  10.413   4.778  10.662  0.3008 -0.1986  0.2355
36543SOL    HW112906  10.484   4.723  10.694 -0.1781 -1.0504 -0.1488
36543SOL    HW212907  10.415   4.768  10.567 -1.7000 -2.0159  0.3020
36544SOL     OW12908   8.229   8.741   5.620 -0.1493  0.0815 -0.3307
36544SOL    HW112909   8.307   8.685   5.618  0.5819  1.0085  0.8735
36544SOL    HW212910   8.257   8.821   5.577  0.0806  1.0019  1.4439
36545SOL     OW12911  10.070   9.658   2.353  0.2334  0.6444  0.1229
36545SOL    HW112912  10.157   9.633   2.324  0.0919  1.1614 -0.7810
36545SOL    HW212913  10.078   9.751   2.377  0.0347  0.5750  0.4696
36546SOL     OW12914  10.563   4.492   3.562  0.1232 -0.3572 -0.0720
36546SOL    HW112915  10.652   4.481   3.596 -1.0955 -1.4234  3.2083
36546SOL    HW212916  10.517   4.413   3.588 -2.6700  1.6592  1.8288
36547SOL     OW12917   4.563   9.390   4.786 -0.3314 -0.0923 -0.4190
36547SOL    HW112918   4.626   9.429   4.726 -0.0863  0.9351  0.4781
36547SOL    HW212919   4.608   9.386   4.870 -0.8610 -0.9906 -0.1606
36548SOL     OW12920  10.474   0.646   5.484  0.0515  0.3928  0.3081
36548SOL    HW112921  10.533   0.719   5.470  0.5474  0.4731  2.5359
36548SOL    HW212922  10.510   0.576   5.429 -0.0114  1.5376 -1.2780
36549SOL     OW12923   0.198   2.273  10.191 -0.3574  0.3038 -0.0140
36549SOL    HW112924   0.111   2.311  10.188 -0.3917  0.1778 -0.6122
36549SOL    HW212925   0.188   2.196  10.246 -0.5874  0.3791  0.0527
36550SOL     OW12926   0.292   7.794  10.841 -0.1175  0.1613  0.1384
36550SOL    HW112927   0.231   7.864  10.823  0.0628  0.4098  0.4926
36550SOL    HW212928   0.279   7.732  10.769 -0.9750  0.0764  0.3568
36551SOL     OW12929   0.365   8.710   9.341  0.0591 -0.9989  0.1496
36551SOL    HW112930   0.446   8.759   9.350  0.2618 -0.8795 -1.9268
36551SOL    HW212931   0.388   8.620   9.363  0.6878 -0.9234 -0.2025
36552SOL     OW12932   8.956   3.327   2.968  0.6848  0.6262 -0.4558
36552SOL    HW112933   8.899   3.404   2.957  2.4046  2.1393  0.6738
36552SOL    HW212934   8.991   3.336   3.056  1.4987 -1.0879 -0.5821
36553SOL     OW12935   7.348   9.011   7.311 -0.8848 -0.1031  0.0215
36553SOL    HW112936   7.352   9.030   7.404  1.7550  0.6451 -0.1785
36553SOL    HW212937   7.384   8.923   7.302 -1.0970 -0.1605 -0.3194
36554SOL     OW12938   6.127   8.265   8.090 -0.0941  0.2597 -0.2386
36554SOL    HW112939   6.222   8.273   8.080  0.0443 -1.3780 -0.5597
36554SOL    HW212940   6.115   8.245   8.183  0.0046 -0.7644 -0.4302
36555SOL     OW12941   0.218   8.381   6.621 -0.3670 -0.0844 -0.1094
36555SOL    HW112942   0.297   8.333   6.598  0.8240  2.2499 -1.1877
36555SOL    HW212943   0.247   8.448   6.681 -1.4903  0.8898 -0.6160
36556SOL     OW12944   8.421   1.375   2.029  0.1116  0.5352 -0.0128
36556SOL    HW112945   8.472   1.419   1.960 -0.7207 -0.2727 -1.1899
36556SOL    HW212946   8.429   1.432   2.105 -1.0496  2.8516 -1.5168
36557SOL     OW12947   4.201  10.161   9.344  0.4165 -1.3093 -0.1831
36557SOL    HW112948   4.268  10.094   9.351  0.6642 -1.3235 -2.1717
36557SOL    HW212949   4.201  10.186   9.251 -1.2263 -0.1811  0.0733
36558SOL     OW12950   7.556  11.163   7.112 -0.2062  0.3688 -0.0472
36558SOL    HW112951   7.600  11.130   7.034 -2.7560 -0.3251 -1.3022
36558SOL    HW212952   7.468  11.187   7.082 -1.3797 -0.2025  2.6432
36559SOL     OW12953   0.360   8.582  11.211  0.6859  0.5539  0.1000
36559SOL    HW112954   0.274   8.569  11.170  1.1725  0.9078 -1.0847
36559SOL    HW212955   0.342   8.633  11.289 -0.2255  0.2977  0.0698
36560SOL     OW12956   4.101   1.636   3.897 -0.2607 -0.0918  0.7726
36560SOL    HW112957   4.187   1.594   3.898 -0.6704 -1.0295 -0.6221
36560SOL    HW212958   4.089   1.668   3.986  1.4559 -0.0884  1.0325
36561SOL     OW12959   4.110   3.570   3.509  0.5643  0.3131 -0.3675
36561SOL    HW112960   4.076   3.655   3.538  0.6229 -0.3889  1.9517
36561SOL    HW212961   4.205   3.578   3.518  0.5335 -0.1967  0.5574
36562SOL     OW12962   7.864   0.565  10.722  0.2120  0.1917  0.4743
36562SOL    HW112963   7.950   0.544  10.685  0.4146  0.2678  0.8972
36562SOL    HW212964   7.865   0.526  10.809 -0.1148  0.3532  0.5519
36563SOL     OW12965   0.699   4.563   7.348  0.1106 -0.1487 -0.0796
36563SOL    HW112966   0.746   4.614   7.414 -0.1517 -0.3803  0.2910
36563SOL    HW212967   0.610   4.556   7.381 -0.1633  0.1908 -0.7258
36564SOL     OW12968  10.122   3.564  11.058  0.8365  0.2802 -0.0418
36564SOL    HW112969  10.134   3.525  10.971  0.6157  0.1784 -0.0260
36564SOL    HW212970  10.027   3.571  11.069  0.8783  1.1402 -0.1863
36565SOL     OW12971   2.591   6.952   3.684  0.3486  0.0688 -0.1196
36565SOL    HW112972   2.496   6.944   3.693  0.2837 -0.6413 -1.2521
36565SOL    HW212973   2.620   6.989   3.768 -0.8684 -0.1269  0.4100
36566SOL     OW12974   9.102   9.343   8.352 -0.1366  0.2394  0.0794
36566SOL    HW112975   9.019   9.302   8.377  0.3399 -0.1403  1.0804
36566SOL    HW212976   9.112   9.322   8.259 -0.4422 -0.9867  0.3054
36567SOL     OW12977   6.008   9.072   9.678  0.0071  0.4380  0.2832
36567SOL    HW112978   6.059   9.041   9.753 -0.2837 -1.6860 -0.3304
36567SOL    HW212979   6.049   9.032   9.602 -0.1528  1.9687 -0.6381
36568SOL     OW12980  10.168   2.252   7.770 -0.2918  0.1033 -0.3598
36568SOL    HW112981  10.257   2.225   7.745  0.2453 -0.3283  1.8094
36568SOL    HW212982  10.113   2.176   7.748 -0.2182  0.4998 -2.0259
36569SOL     OW12983   6.292  11.216  10.302  0.0135  0.2058 -0.2070
36569SOL    HW112984   6.337  11.298  10.325 -0.1753  0.3341 -0.2907
36569SOL    HW212985   6.346  11.179  10.232  0.3309  0.0477  0.1217
36570SOL     OW12986   6.657   5.389  10.644  0.0136  0.3570  0.3505
36570SOL    HW112987   6.735   5.354  10.686  0.7585 -1.4519 -2.2785
36570SOL    HW212988   6.588   5.382  10.710  1.8620  1.4550  2.5358
36571SOL     OW12989  10.663   2.591   0.066  0.0172 -0.0763 -0.6034
36571SOL    HW112990  10.644   2.558  -0.022 -0.4656  0.0711 -0.5542
36571SOL    HW212991  10.734   2.535   0.097 -0.6373 -0.9395 -0.6047
36572SOL     OW12992   6.060   1.550   5.896 -0.5613 -0.6465 -0.1575
36572SOL    HW112993   6.065   1.491   5.972 -0.1895  0.2645  0.5492
36572SOL    HW212994   6.035   1.634   5.934  0.4508  0.0269 -0.9450
36573SOL     OW12995   5.618   3.800   0.442 -0.4685  0.4340  0.3387
36573SOL    HW112996   5.691   3.743   0.418 -1.0299  0.2884 -1.0994
36573SOL    HW212997   5.567   3.809   0.362 -1.6610  1.0916  1.1430
36574SOL     OW12998   5.093   8.386   4.414  0.1843 -0.2319 -0.2179
36574SOL    HW112999   5.039   8.441   4.472  1.6323  0.2211  0.7474
36574SOL    HW213000   5.031   8.354   4.348 -0.9755  1.5207 -0.0711
36575SOL     OW13001   5.648   5.596   1.097  0.5995  0.3244  0.3886
36575SOL    HW113002   5.681   5.550   1.174  0.8617  0.6331  0.4661
36575SOL    HW213003   5.716   5.661   1.078  0.9317 -0.2783 -0.5887
36576SOL     OW13004   5.548   7.771   0.336 -0.0578  0.7766  0.2006
36576SOL    HW113005   5.590   7.776   0.422  0.3749  1.4427 -0.0337
36576SOL    HW213006   5.458   7.746   0.354 -0.0633  1.2513  0.8792
36577SOL     OW13007   5.008   9.965   0.620 -0.7019 -0.5352 -0.0177
36577SOL    HW113008   4.962   9.937   0.541 -0.4401  1.8722 -1.1201
36577SOL    HW213009   4.993  10.059   0.624 -0.9006 -0.5866  2.9838
36578SOL     OW13010   2.754   7.977   9.452  0.5198 -0.0079 -0.2081
36578SOL    HW113011   2.832   7.927   9.429  0.4006  0.1135 -0.8981
36578SOL    HW213012   2.722   7.937   9.533  0.8344 -0.5762 -0.3629
36579SOL     OW13013   1.956   6.814   4.630  0.0458  0.0160  0.7265
36579SOL    HW113014   1.935   6.889   4.574  0.6785 -0.4913 -0.2209
36579SOL    HW213015   2.052   6.816   4.637 -0.0163 -0.0254  1.6662
36580SOL     OW13016  10.069   4.133   6.469  0.1282  0.1197 -0.2065
36580SOL    HW113017  10.142   4.071   6.469  0.5512  0.5716  1.1905
36580SOL    HW213018  10.030   4.123   6.556 -0.0163  1.5363 -0.0822
36581SOL     OW13019   0.797   5.653   2.845  0.0861 -0.1269  0.4208
36581SOL    HW113020   0.739   5.594   2.893  0.6101 -0.6577  0.4181
36581SOL    HW213021   0.789   5.627   2.754 -0.1155  0.1867  0.3492
36582SOL     OW13022   0.230   6.232   8.079  0.1956 -0.1549  0.3401
36582SOL    HW113023   0.269   6.253   8.164 -2.5248  3.1818  0.9371
36582SOL    HW213024   0.263   6.299   8.020 -2.8083  1.5592  0.4150
36583SOL     OW13025   6.778   9.652   2.767  0.4528 -0.1940  0.1656
36583SOL    HW113026   6.699   9.610   2.733  1.5051 -2.3710  0.2399
36583SOL    HW213027   6.835   9.659   2.691  0.2688  1.2496  0.1421
36584SOL     OW13028   2.081   7.574   0.199  0.2455 -0.0446  0.3014
36584SOL    HW113029   2.147   7.533   0.143 -0.0381 -1.7658  1.1530
36584SOL    HW213030   2.021   7.617   0.139  1.2020  0.0980 -0.5739
36585SOL     OW13031   4.084   4.639   4.701  0.1564 -0.1894 -0.3779
36585SOL    HW113032   4.084   4.734   4.707  0.1213 -0.2488  0.8493
36585SOL    HW213033   4.008   4.611   4.752  0.6579 -0.9081 -0.0024
36586SOL     OW13034   4.264  11.344   0.347  0.4883  0.2844 -0.0240
36586SOL    HW113035   4.340  11.295   0.314  0.9178  0.7073  0.3178
36586SOL    HW213036   4.301  11.402   0.414 -0.0055  1.1372 -0.4832
36587SOL     OW13037   5.298   4.346   8.931  0.5358  0.7265  0.1481
36587SOL    HW113038   5.209   4.377   8.947 -1.1799 -3.2699 -0.3063
36587SOL    HW213039   5.302   4.332   8.836  1.9182  1.4806  0.0719
36588SOL     OW13040   7.148   4.348   2.341  0.1563 -0.1016 -0.1512
36588SOL    HW113041   7.136   4.268   2.392 -1.1600 -0.5469 -1.1067
36588SOL    HW213042   7.200   4.321   2.265 -2.0162 -0.5752 -1.5574
36589SOL     OW13043   8.592   2.747   5.020 -0.0800  0.5701 -0.4373
36589SOL    HW113044   8.667   2.702   4.979 -0.8426 -1.4023  0.2178
36589SOL    HW213045   8.627   2.782   5.101  0.5132  1.0872 -0.9057
36590SOL     OW13046   1.871  10.548  10.890  0.2135  0.8197 -0.2194
36590SOL    HW113047   1.858  10.620  10.952  1.6109 -0.3151  1.5032
36590SOL    HW213048   1.794  10.493  10.900 -0.8919  2.0400 -1.5909
36591SOL     OW13049  10.444   8.378   3.486 -0.1276  0.3956  0.3254
36591SOL    HW113050  10.398   8.295   3.484 -1.2071  0.9792 -1.5053
36591SOL    HW213051  10.537   8.354   3.487 -0.4052 -0.8527 -0.9219
36592SOL     OW13052   0.108   8.714   2.087 -0.3085  0.4143 -0.0484
36592SOL    HW113053   0.072   8.693   2.001 -1.4462  0.0777  0.4939
36592SOL    HW213054   0.142   8.630   2.120 -1.0022  0.2861  0.3462
36593SOL     OW13055   1.801   0.568   8.971 -0.4308  0.6237  0.4232
36593SOL    HW113056   1.887   0.607   8.953  1.7854 -3.3002  1.3183
36593SOL    HW213057   1.777   0.526   8.889  0.0727 -0.8683  1.0148
36594SOL     OW13058   0.685   9.316   7.164 -0.1858 -0.1423  0.0909
36594SOL    HW113059   0.695   9.407   7.191 -2.0010 -0.3252  1.5544
36594SOL    HW213060   0.662   9.322   7.071  1.3193  0.7703 -0.2528
36595SOL     OW13061   7.728   7.604   2.117 -0.1769 -0.0196  0.2328
36595SOL    HW113062   7.805   7.644   2.159 -0.8385 -0.0826  1.5398
36595SOL    HW213063   7.742   7.620   2.024 -0.4311  3.3992  0.6394
36596SOL     OW13064  10.238   9.586   6.574  0.8187  0.3731  0.2836
36596SOL    HW113065  10.239   9.590   6.478 -0.7570  0.1278  0.2393
36596SOL    HW213066  10.295   9.658   6.601 -0.1191  1.5915 -0.8452
36597SOL     OW13067   5.386   4.180   9.134 -0.1529  0.4983 -0.4644
36597SOL    HW113068   5.317   4.121   9.163 -0.3011 -0.0443 -1.8666
36597SOL    HW213069   5.355   4.216   9.051  1.5418 -0.3494 -1.5324
36598SOL     OW13070   0.329   6.459   4.127 -0.4667  0.0274  0.4615
36598SOL    HW113071   0.283   6.426   4.204 -0.6543 -0.9593 -0.0620
36598SOL    HW213072   0.422   6.448   4.147 -0.4693  1.0027  1.0730
36599SOL     OW13073   1.837   8.253   5.758 -0.0837 -0.1961 -0.3186
36599SOL    HW113074   1.864   8.300   5.836 -0.8849 -0.2309 -0.0119
36599SOL    HW213075   1.907   8.189   5.743 -0.2271 -0.6217  0.7392
36600SOL     OW13076   8.031   9.639   9.816 -0.2495 -0.0064 -0.7423
36600SOL    HW113077   8.118   9.608   9.840  0.0435  2.2513  1.6088
36600SOL    HW213078   8.043   9.683   9.731  1.2823  1.5069  0.2060
36601SOL     OW13079   5.638   3.087  10.064  0.1482  0.2990 -0.6760
36601SOL    HW113080   5.620   3.005  10.109  0.3993  0.6936  0.1677
36601SOL    HW213081   5.619   3.155  10.129  0.2325  0.8975 -1.2636
36602SOL     OW13082   3.140   0.407   4.070 -0.2027 -0.5497 -0.2033
36602SOL    HW113083   3.157   0.463   4.146  0.5209 -1.2125  0.1400
36602SOL    HW213084   3.130   0.467   3.997 -2.2998  0.2038  0.6279
36603SOL     OW13085   1.046   2.932   5.700  0.3004 -0.1120  0.4739
36603SOL    HW113086   1.103   2.864   5.737 -1.1620 -1.1770  0.8630
36603SOL    HW213087   0.987   2.885   5.641 -1.5266  0.6070  1.6514
36604SOL     OW13088   0.171  10.051   3.513 -0.0700 -0.3674 -0.0470
36604SOL    HW113089   0.113   9.975   3.510 -0.1671 -0.3127  0.4060
36604SOL    HW213090   0.255  10.018   3.482  0.2499 -0.9955  1.4477
36605SOL     OW13091   4.852   6.626   5.085  0.2275 -0.4028 -0.1370
36605SOL    HW113092   4.865   6.663   5.173 -1.8326 -0.1382  0.0916
36605SOL    HW213093   4.782   6.562   5.096  1.1806 -1.6841 -1.2725
36606SOL     OW13094   2.506   2.210   3.505  0.0469  0.0750 -0.3687
36606SOL    HW113095   2.557   2.277   3.551  0.9566  0.5896 -2.0256
36606SOL    HW213096   2.421   2.250   3.491 -0.2348 -0.0785  0.7902
36607SOL     OW13097   6.622   5.148   4.740  0.5842 -0.4000 -0.1881
36607SOL    HW113098   6.577   5.180   4.662  0.3075 -1.3676 -0.4394
36607SOL    HW213099   6.555   5.100   4.788  0.9027 -0.3173  0.3461
36608SOL     OW13100   5.636   0.042  10.303 -0.0412  0.4482 -0.4894
36608SOL    HW113101   5.637  -0.048  10.271  1.1726  0.1492  0.3129
36608SOL    HW213102   5.721   0.077  10.276 -0.7852  1.6115 -1.4396
36609SOL     OW13103   9.500   4.692   9.134  0.1445  0.4269 -0.1956
36609SOL    HW113104   9.520   4.638   9.210  0.7188  0.5211 -0.2700
36609SOL    HW213105   9.489   4.780   9.169  1.2858  0.6361 -0.3067
36610SOL     OW13106   1.282   3.017   0.863 -0.2354 -0.1903 -0.4476
36610SOL    HW113107   1.213   3.010   0.929  1.0382  0.2165  0.9946
36610SOL    HW213108   1.256   3.092   0.809 -1.4350 -0.6938 -0.5888
36611SOL     OW13109  10.831   6.387  10.741 -0.2891  0.0017  0.2535
36611SOL    HW113110  10.859   6.323  10.676  1.9702  0.6693  0.4859
36611SOL    HW213111  10.739   6.403  10.721 -0.0592 -0.9361 -1.7863
36612SOL     OW13112   9.532   7.193   3.533 -0.5447  0.4683 -0.0845
36612SOL    HW113113   9.448   7.149   3.516 -0.7031  0.3533  0.9392
36612SOL    HW213114   9.581   7.130   3.585 -0.0830  0.8108 -0.1046
36613SOL     OW13115   8.743   6.017   9.692 -0.1325  0.0451 -0.1695
36613SOL    HW113116   8.654   6.042   9.666  0.2541 -0.6802 -2.3577
36613SOL    HW213117   8.794   6.097   9.680 -0.2653  0.1590  0.0066
36614SOL     OW13118   7.315   6.762   9.028 -0.2751  0.5315  0.2905
36614SOL    HW113119   7.285   6.704   8.958  0.6052 -1.4741  1.4799
36614SOL    HW213120   7.403   6.789   9.001  0.5688 -1.2183  1.0780
36615SOL     OW13121  10.807   1.227   8.634 -0.3343  0.0248  0.3128
36615SOL    HW113122  10.812   1.131   8.642 -1.8045 -0.0370  0.6290
36615SOL    HW213123  10.836   1.260   8.719  1.7423 -0.0434 -0.2959
36616SOL     OW13124   1.206   4.812   2.206 -0.2366 -0.1538  0.5847
36616SOL    HW113125   1.274   4.746   2.224  0.0396  0.2778  1.1473
36616SOL    HW213126   1.150   4.811   2.284 -0.3880  0.0900  0.4809
36617SOL     OW13127   9.656   9.855   2.975  0.0751  0.0449 -0.0355
36617SOL    HW113128   9.654   9.875   2.881  0.1967  0.2951  0.0129
36617SOL    HW213129   9.688   9.936   3.015  1.6571 -0.5970  0.0658
36618SOL     OW13130  10.407   2.883   0.748 -0.1554 -0.3149 -0.1292
36618SOL    HW113131  10.495   2.889   0.786 -0.1525 -0.2220 -0.1504
36618SOL    HW213132  10.386   2.790   0.751 -0.5451 -0.1965  0.9962
36619SOL     OW13133   7.448   0.997  10.062  0.3391  0.3228  0.3540
36619SOL    HW113134   7.527   1.032  10.020  1.9568  1.5341  3.9616
36619SOL    HW213135   7.400   1.075  10.091 -1.1607 -0.4469  0.0619
36620SOL     OW13136   2.671   5.649   5.137  0.0982 -0.4445 -0.0671
36620SOL    HW113137   2.608   5.621   5.071  0.4185 -1.8584  0.1932
36620SOL    HW213138   2.749   5.597   5.120  0.4900 -0.1913  0.8763
36621SOL     OW13139   5.332   5.984   9.876 -0.6375  0.2831  0.3517
36621SOL    HW113140   5.302   5.897   9.848  1.8325  0.3458 -3.1779
36621SOL    HW213141   5.408   5.967   9.931 -0.1422  0.1638 -0.3560
36622SOL     OW13142   2.740   8.364   4.207  0.0101  0.0589  0.1044
36622SOL    HW113143   2.833   8.369   4.230  0.2664  2.1967 -1.1868
36622SOL    HW213144   2.707   8.291   4.260  1.7191  1.1640  2.9582
36623SOL     OW13145   4.275   8.178   8.340  0.1925  0.2400  0.3258
36623SOL    HW113146   4.299   8.093   8.304  1.6714  0.4718  0.6947
36623SOL    HW213147   4.324   8.184   8.422  0.2269  1.5092  0.2314
36624SOL     OW13148   5.511   8.052   5.852  0.3952  0.1057 -0.5236
36624SOL    HW113149   5.447   8.110   5.893  1.1359  0.0192  0.8083
36624SOL    HW213150   5.462   8.007   5.783 -0.5547  1.2227 -0.6057
36625SOL     OW13151   2.749   0.069   8.595  0.1641  0.1563 -0.0560
36625SOL    HW113152   2.657   0.072   8.569 -0.0012  0.6257  0.5646
36625SOL    HW213153   2.748   0.094   8.687  0.9717  0.6888 -0.1866
36626SOL     OW13154   6.872   6.926  10.116 -0.3303 -0.4897  0.2505
36626SOL    HW113155   6.808   6.976  10.167 -0.2207  0.3695 -0.4199
36626SOL    HW213156   6.885   6.845  10.165 -1.7148 -0.5487  0.5544
36627SOL     OW13157   2.063   5.607   5.636 -0.0507  0.2452 -1.0574
36627SOL    HW113158   2.088   5.520   5.603  1.0472  0.6041 -1.2126
36627SOL    HW213159   2.060   5.596   5.731 -1.5075 -0.3537 -1.1516
36628SOL     OW13160  10.520   2.204   9.208  0.2804  0.1356 -0.3282
36628SOL    HW113161  10.562   2.212   9.294  0.0553  0.7408 -0.2661
36628SOL    HW213162  10.550   2.281   9.160 -0.0282  0.0876 -0.6008
36629SOL     OW13163   5.816   4.832  11.185  1.0196  0.5123  0.0980
36629SOL    HW113164   5.791   4.771  11.255  0.0176 -0.0979 -0.7593
36629SOL    HW213165   5.787   4.918  11.216  0.0747  0.1688  0.2081
36630SOL     OW13166   0.764   0.891   5.817 -0.3760  0.1161  0.0389
36630SOL    HW113167   0.709   0.966   5.838  0.0401  0.4093  0.1025
36630SOL    HW213168   0.719   0.847   5.745 -0.5446  0.5156 -0.1006
36631SOL     OW13169   3.932  10.024   0.947  0.2559  0.9719 -0.6476
36631SOL    HW113170   3.967   9.935   0.947  2.0780  1.6153  0.6976
36631SOL    HW213171   3.837  10.013   0.945  0.3939 -1.0485  0.6704
36632SOL     OW13172   2.753   4.201   6.080  0.2398 -0.5052  0.3058
36632SOL    HW113173   2.739   4.151   6.161 -0.2994 -0.0036  0.5288
36632SOL    HW213174   2.846   4.224   6.083 -0.4340  2.5198  2.5843
36633SOL     OW13175   8.849   2.460   0.335 -0.0504 -0.1537 -0.4257
36633SOL    HW113176   8.841   2.448   0.429  2.8934 -1.8168 -0.2728
36633SOL    HW213177   8.833   2.374   0.298 -0.1412  0.2430 -1.3469
36634SOL     OW13178   2.324   1.929   1.794  0.3690 -0.2898 -0.1061
36634SOL    HW113179   2.388   1.869   1.833  0.5147 -0.3411 -0.4269
36634SOL    HW213180   2.249   1.924   1.853 -0.7768 -3.0142 -1.6468
36635SOL     OW13181   5.496  10.271   5.703 -0.2969 -0.1034 -0.4449
36635SOL    HW113182   5.521  10.281   5.795 -0.8729  1.4240 -0.4156
36635SOL    HW213183   5.551  10.334   5.656 -0.4507 -0.4188 -1.0631
36636SOL     OW13184   0.251  10.692   3.332 -0.1371 -0.1216  0.7465
36636SOL    HW113185   0.293  10.610   3.303 -0.1647 -0.0223  0.4166
36636SOL    HW213186   0.317  10.759   3.317 -0.9422  0.2961 -1.3610
36637SOL     OW13187   1.626   9.790   0.332 -0.4561  0.1035  0.2627
36637SOL    HW113188   1.604   9.862   0.273  0.7506 -0.6350 -1.1325
36637SOL    HW213189   1.668   9.833   0.407 -0.5624  0.9236 -0.1304
36638SOL     OW13190   8.982  11.219   0.091 -0.1850  0.6552  0.0258
36638SOL    HW113191   8.982  11.133   0.134  1.5050  0.2350 -0.7258
36638SOL    HW213192   8.982  11.198  -0.003  1.4740  1.4149 -0.1798
36639SOL     OW13193   2.130   7.706   7.947  0.2571  0.7019  0.0644
36639SOL    HW113194   2.116   7.726   8.040  0.0410  0.9207 -0.0139
36639SOL    HW213195   2.145   7.612   7.945  0.2029  0.6870  0.3162
36640SOL     OW13196   4.897   7.063   4.550  0.7006 -0.1812  0.5955
36640SOL    HW113197   4.989   7.064   4.525  0.7199  0.2632  0.6809
36640SOL    HW213198   4.861   6.987   4.504  0.8506  0.3243 -0.3785
36641SOL     OW13199   0.621   2.520   2.821  0.2982  0.0512  0.0792
36641SOL    HW113200   0.546   2.462   2.837  1.4859 -1.0892  2.0570
36641SOL    HW213201   0.599   2.567   2.741 -1.5529 -1.8144 -0.6101
36642SOL     OW13202   2.506   5.507   2.212 -0.0970  0.1654  0.1750
36642SOL    HW113203   2.519   5.453   2.134 -0.4894  0.3180 -0.0024
36642SOL    HW213204   2.589   5.502   2.260  0.4479  0.7383 -0.6773
36643SOL     OW13205   9.914   8.668   6.600 -0.2039  0.6648  0.0503
36643SOL    HW113206   9.984   8.604   6.587 -1.2302 -0.7855  1.2413
36643SOL    HW213207   9.836   8.627   6.564 -0.6174  1.9414 -0.5827
36644SOL     OW13208   0.745   1.652   2.422 -0.4357  0.5812 -0.0254
36644SOL    HW113209   0.680   1.713   2.388 -0.1870  0.4540 -0.7432
36644SOL    HW213210   0.811   1.708   2.463 -0.4717  0.7695 -0.2200
36645SOL     OW13211  10.189   6.133   0.222 -0.1892  0.4124 -0.3051
36645SOL    HW113212  10.136   6.184   0.283 -1.0626 -0.6652 -0.1234
36645SOL    HW213213  10.279   6.161   0.238 -0.6605  2.3469 -0.6607
36646SOL     OW13214   1.966   6.045   0.689 -0.2068  0.2809  0.6999
36646SOL    HW113215   2.055   6.017   0.667 -0.4251 -0.3472  0.6138
36646SOL    HW213216   1.979   6.114   0.755  0.3026 -0.5057  1.4398
36647SOL     OW13217   7.089   0.939  10.225  0.1605 -0.0633 -0.0046
36647SOL    HW113218   7.001   0.963  10.252  0.4560  1.4295 -0.2676
36647SOL    HW213219   7.116   1.009  10.166  1.1829 -0.9738 -0.6646
36648SOL     OW13220  10.161   4.893   5.134  0.4625 -0.0671  0.2579
36648SOL    HW113221  10.157   4.957   5.205  1.7127  0.9264 -0.5181
36648SOL    HW213222  10.222   4.826   5.165 -1.3175 -1.2541  1.3224
36649SOL     OW13223   7.991   8.894   9.412 -0.1256  0.6078  0.0321
36649SOL    HW113224   8.017   8.875   9.322  2.1833 -0.0272  0.7678
36649SOL    HW213225   7.911   8.843   9.424  0.1974 -0.2854 -1.2937
36650SOL     OW13226   1.954   2.333   9.025  0.4482 -0.3626 -0.2972
36650SOL    HW113227   2.033   2.329   8.971 -0.1143 -1.0474 -1.0989
36650SOL    HW213228   1.972   2.274   9.098  0.8248 -0.2105 -0.2623
36651SOL     OW13229   1.924   5.551  10.518  0.1327  0.7495  0.1758
36651SOL    HW113230   1.859   5.563  10.449 -0.2979  0.8781  0.6004
36651SOL    HW213231   1.877   5.505  10.588  1.3967 -2.5930 -0.9290
36652SOL     OW13232   6.948   5.654   2.213 -0.3439  0.2099  0.0041
36652SOL    HW113233   6.995   5.572   2.201  0.9441  1.0773 -1.2465
36652SOL    HW213234   6.880   5.653   2.146  0.7948  0.8800 -1.2233
36653SOL     OW13235  10.783   1.042   4.180 -0.2002 -0.1183  0.3628
36653SOL    HW113236  10.875   1.025   4.201 -0.4399 -1.4751  0.3756
36653SOL    HW213237  10.786   1.118   4.122  1.0185 -0.7212 -0.4187
36654SOL     OW13238  10.465   2.638   1.980 -0.4805  0.2268 -0.3766
36654SOL    HW113239  10.414   2.564   2.012  1.5317 -1.2340 -0.3544
36654SOL    HW213240  10.478   2.620   1.887 -1.4150  1.4839 -0.7866
36655SOL     OW13241   3.644   9.040   6.928  0.0945 -0.6853  0.2904
36655SOL    HW113242   3.605   9.009   7.010 -0.2806  0.0624  0.4045
36655SOL    HW213243   3.604   8.986   6.860 -0.6547 -0.3821  0.4730
36656SOL     OW13244   6.549  10.107   6.848 -0.2460 -0.0398  0.4301
36656SOL    HW113245   6.515  10.186   6.806 -0.7514  0.0450  0.9907
36656SOL    HW213246   6.644  10.118   6.844 -0.3095  0.6882  0.6601
36657SOL     OW13247  10.948   8.547   2.415  0.1810  0.4568  0.1505
36657SOL    HW113248  10.865   8.499   2.415 -0.7734  1.9898 -0.6502
36657SOL    HW213249  10.985   8.532   2.328 -0.2646  1.3378 -0.2099
36658SOL     OW13250   0.452   8.026   9.771 -0.0031 -0.4035  0.3677
36658SOL    HW113251   0.532   8.077   9.757 -0.8723  0.8081 -0.3973
36658SOL    HW213252   0.403   8.077   9.836 -1.0178 -0.0805 -0.6177
36659SOL     OW13253   5.941   6.501   6.938 -0.1757 -0.2003 -0.4997
36659SOL    HW113254   5.901   6.586   6.959 -1.7110 -1.0977  0.4561
36659SOL    HW213255   5.883   6.464   6.871 -0.1000 -0.8995 -0.1834
36660SOL     OW13256   2.702   5.449   0.766  0.0606 -0.1469  0.1192
36660SOL    HW113257   2.741   5.449   0.854  0.8339 -0.4474 -0.2096
36660SOL    HW213258   2.714   5.538   0.734  0.6561 -0.2816 -0.0470
36661SOL     OW13259   3.375   0.137   0.364  0.0395 -0.1515  0.1861
36661SOL    HW113260   3.449   0.099   0.412  1.1031  2.7782  1.0476
36661SOL    HW213261   3.354   0.217   0.411 -1.8309  0.5707 -1.7148
36662SOL     OW13262   4.527   9.699   1.437 -0.3241  0.5725  0.1612
36662SOL    HW113263   4.534   9.765   1.505 -1.4536  0.6081  0.2655
36662SOL    HW213264   4.509   9.749   1.357 -0.9652  0.4111  0.2006
36663SOL     OW13265   2.739   1.446   8.436  0.0946  0.0917 -0.7206
36663SOL    HW113266   2.685   1.501   8.380  1.0448  0.7102 -1.0514
36663SOL    HW213267   2.679   1.414   8.504 -1.0068 -0.4344 -1.8948
36664SOL     OW13268   1.548   4.646  11.094  0.2030 -0.3275  0.5190
36664SOL    HW113269   1.534   4.735  11.126 -0.9507  0.7074 -2.4975
36664SOL    HW213270   1.459   4.612  11.081  0.4418  0.1953 -3.4690
36665SOL     OW13271   7.733   1.475   3.595 -0.2923 -0.4971  0.2791
36665SOL    HW113272   7.752   1.553   3.646  0.0134  1.2893 -2.3423
36665SOL    HW213273   7.672   1.425   3.648 -1.1870  1.9579  1.7033
36666SOL     OW13274   6.048   5.037   1.458 -0.1453  0.1324  0.1304
36666SOL    HW113275   5.993   5.105   1.497 -3.9855 -2.1783 -0.7348
36666SOL    HW213276   5.992   4.960   1.453  2.6874 -2.0326 -2.5326
36667SOL     OW13277   7.016   7.064   9.865 -0.2019  0.0885  0.3559
36667SOL    HW113278   7.011   7.048   9.771 -1.1789  1.2101  0.1919
36667SOL    HW213279   6.936   7.026   9.900 -0.1971  0.3169  0.6197
36668SOL     OW13280   2.486   8.260   9.572  0.4877  0.0872 -0.8610
36668SOL    HW113281   2.435   8.220   9.502  1.1349 -0.4069 -1.0608
36668SOL    HW213282   2.523   8.186   9.620  0.9304  0.4346 -0.6537
36669SOL     OW13283   3.982   7.792   0.764 -0.5656 -0.0323  0.4300
36669SOL    HW113284   3.924   7.774   0.838 -1.4997  0.8255 -0.0599
36669SOL    HW213285   4.070   7.797   0.802 -0.9385 -0.3034  1.3533
36670SOL     OW13286   8.690   6.331   5.540 -0.2429  0.3386  0.3253
36670SOL    HW113287   8.662   6.254   5.590 -2.2118  0.4897 -0.4702
36670SOL    HW213288   8.617   6.391   5.547  0.8831  1.7899  0.1320
36671SOL     OW13289   2.236   3.229   5.821  0.0521  0.2917 -0.4639
36671SOL    HW113290   2.317   3.199   5.861  0.0134  1.1343  0.2866
36671SOL    HW213291   2.200   3.293   5.883 -0.9196  0.3186 -1.0229
36672SOL     OW13292   3.565   2.191   7.282  0.8136 -0.2196 -0.0206
36672SOL    HW113293   3.602   2.230   7.202 -0.2149 -0.8829 -0.8446
36672SOL    HW213294   3.641   2.167   7.334  1.5366  3.2071  0.7423
36673SOL     OW13295   9.977   8.308   4.185  0.0103  0.0598 -0.2989
36673SOL    HW113296   9.952   8.219   4.210 -1.5070  0.5164 -0.0697
36673SOL    HW213297  10.059   8.324   4.231  0.0499 -1.0385  0.0441
36674SOL     OW13298   0.041   6.897   5.095 -0.2476 -0.0480 -0.2034
36674SOL    HW113299  -0.054   6.886   5.092 -0.5434  1.5474  1.4136
36674SOL    HW213300   0.055   6.972   5.153  2.0013 -0.1034 -0.5672
36675SOL     OW13301   5.815   5.679   0.589  0.2653  0.1249 -0.3949
36675SOL    HW113302   5.869   5.747   0.549  0.8296 -0.0715  0.0092
36675SOL    HW213303   5.876   5.606   0.603 -0.1257 -0.1335 -0.0089
36676SOL     OW13304   8.958  10.557   5.072  0.5193 -0.0490  0.2436
36676SOL    HW113305   9.048  10.528   5.084  0.3236 -0.3676  1.0130
36676SOL    HW213306   8.934  10.596   5.156 -0.6443 -1.6213  0.6835
36677SOL     OW13307   2.772   9.487  10.496  0.0420  0.4337 -0.0429
36677SOL    HW113308   2.825   9.416  10.532 -0.7177  0.1828  0.6175
36677SOL    HW213309   2.760   9.548  10.569 -0.6076  0.4606 -0.1622
36678SOL     OW13310   3.394  10.568   6.572 -0.1476  0.1505 -0.5231
36678SOL    HW113311   3.378  10.654   6.534  0.4672 -0.5628 -2.5706
36678SOL    HW213312   3.485  10.549   6.550  0.0002 -0.6645  0.6891
36679SOL     OW13313   7.246   7.497   4.472 -0.0427 -0.2637  0.5720
36679SOL    HW113314   7.301   7.419   4.478 -1.6575 -1.4634  0.1522
36679SOL    HW213315   7.216   7.512   4.561 -0.3667 -0.5877  0.5167
36680SOL     OW13316   8.176   8.285   4.578  0.3332  0.0695  0.2305
36680SOL    HW113317   8.191   8.334   4.497  1.4812 -0.4670  0.1039
36680SOL    HW213318   8.222   8.336   4.645 -1.3701  1.0185  0.7629
36681SOL     OW13319   8.525   8.020   0.637 -0.5678 -0.1480 -0.2989
36681SOL    HW113320   8.520   8.104   0.682  0.1213 -1.2863  2.0517
36681SOL    HW213321   8.457   8.025   0.569 -0.2694  2.4146 -0.5106
36682SOL     OW13322   3.840   5.372   1.061  0.0157 -0.3335 -0.8521
36682SOL    HW113323   3.868   5.356   0.970  1.6052 -3.0146 -0.0122
36682SOL    HW213324   3.920   5.389   1.109 -0.4004 -2.0059  0.5479
36683SOL     OW13325   5.843   5.345   0.404 -0.1646  0.1245 -0.3152
36683SOL    HW113326   5.841   5.382   0.492 -0.6023 -1.7273  0.5036
36683SOL    HW213327   5.930   5.367   0.371  1.1192 -1.5560  1.7088
36684SOL     OW13328  10.655   8.959   0.193 -0.0684  0.6980  0.0030
36684SOL    HW113329  10.601   8.880   0.181 -0.4794  1.1778 -1.5133
36684SOL    HW213330  10.739   8.935   0.155 -0.0973  0.8872 -0.1789
36685SOL     OW13331   5.827  10.821  10.644 -0.3390 -0.2691  0.5600
36685SOL    HW113332   5.858  10.863  10.724  0.3717 -2.5603  1.5916
36685SOL    HW213333   5.864  10.733  10.648 -1.3111 -0.8581 -1.7064
36686SOL     OW13334   4.366   7.927   5.426  0.0110  0.2684 -0.6248
36686SOL    HW113335   4.283   7.974   5.430  0.7785  1.5852  0.8024
36686SOL    HW213336   4.342   7.836   5.408 -1.7702  0.5165  0.3061
36687SOL     OW13337   0.633   9.936   5.052  0.1484  0.3769 -0.0469
36687SOL    HW113338   0.556   9.993   5.053  0.5197  0.8886 -0.2758
36687SOL    HW213339   0.669   9.944   5.141 -0.7891 -0.8951  0.4958
36688SOL     OW13340  11.263   5.644   8.343 -0.1789 -0.3880  0.3757
36688SOL    HW113341  11.280   5.668   8.253  0.7394  0.7573  0.8309
36688SOL    HW213342  11.169   5.625   8.347 -0.5147  0.9910 -0.4947
36689SOL     OW13343   2.637   4.990   4.996 -0.1272 -0.8203 -0.0916
36689SOL    HW113344   2.647   4.907   4.950  1.6077 -1.2179  0.8937
36689SOL    HW213345   2.724   5.007   5.033 -1.0445  0.2548  1.6913
36690SOL     OW13346   5.440   5.098   9.980 -0.0930  0.2599  0.0814
36690SOL    HW113347   5.490   5.171   9.944 -0.2520 -0.1449 -0.9798
36690SOL    HW213348   5.475   5.087  10.069  0.5712  1.0189 -0.0754
36691SOL     OW13349   4.547   9.546   9.692  0.0268 -0.0012 -0.2294
36691SOL    HW113350   4.453   9.545   9.674 -0.3797 -1.4491  1.7258
36691SOL    HW213351   4.564   9.465   9.739  1.9214  1.0499  1.0537
36692SOL     OW13352  11.389  11.150   8.428 -0.0929 -0.3360  0.0403
36692SOL    HW113353  11.456  11.214   8.451  0.2293 -0.7928  0.3971
36692SOL    HW213354  11.436  11.082   8.379 -0.2965 -0.6428  0.2664
36693SOL     OW13355   4.354   1.266   1.386  0.0239 -1.0339 -0.5501
36693SOL    HW113356   4.366   1.279   1.480 -1.6613  1.8125 -0.6219
36693SOL    HW213357   4.441   1.278   1.348  0.7689 -2.4256  0.5792
36694SOL     OW13358   7.380   4.987  11.036 -0.3518  0.1110 -0.0045
36694SOL    HW113359   7.321   4.924  11.077  0.5612 -1.7591 -1.4008
36694SOL    HW213360   7.399   4.949  10.950  0.0548  2.4469 -1.0231
36695SOL     OW13361   6.684   4.853   4.886 -0.1047 -0.1627  0.2353
36695SOL    HW113362   6.602   4.891   4.918  0.0624 -0.7436  1.4259
36695SOL    HW213363   6.751   4.891   4.942  0.2863 -0.7130  0.1455
36696SOL     OW13364   7.235   9.532  10.519  0.2085  0.1610 -0.1112
36696SOL    HW113365   7.303   9.589  10.483  0.7368  0.3037  1.0644
36696SOL    HW213366   7.155   9.559  10.474  0.9924 -0.4056 -1.9704
36697SOL     OW13367   6.929   2.469   3.612 -0.0577 -0.6179 -0.3966
36697SOL    HW113368   6.892   2.458   3.525  1.3692 -0.6188 -1.0406
36697SOL    HW213369   7.005   2.411   3.614  0.5739  0.1978  0.4482
36698SOL     OW13370   7.651   3.610  10.831  0.4514  0.9299  0.0683
36698SOL    HW113371   7.569   3.573  10.799  0.2428  0.9807  0.5442
36698SOL    HW213372   7.719   3.560  10.785  0.2567 -1.6409  2.2717
36699SOL     OW13373   5.768   0.676  11.198  0.6557  0.1480 -0.4694
36699SOL    HW113374   5.824   0.730  11.141  3.0413 -0.4306  1.1757
36699SOL    HW213375   5.746   0.733  11.271 -0.6802  0.2471 -0.9201
36700SOL     OW13376   4.458  10.208   5.768 -0.6542 -0.2383 -0.0798
36700SOL    HW113377   4.505  10.166   5.695 -1.5599 -1.5712  0.0680
36700SOL    HW213378   4.370  10.222   5.735 -0.5695  0.8981  0.1465
36701SOL     OW13379   3.990   1.554   4.669 -0.2052 -0.1556  0.4002
36701SOL    HW113380   3.997   1.467   4.629  0.4359  0.2836 -0.4708
36701SOL    HW213381   4.008   1.539   4.762 -0.6298 -1.0269  0.3526
36702SOL     OW13382   6.283   6.933   4.672  0.1028  0.1032 -0.0394
36702SOL    HW113383   6.359   6.878   4.651  2.2326  2.6106  0.5780
36702SOL    HW213384   6.277   6.929   4.768 -0.7354 -0.2454 -0.0926
36703SOL     OW13385  11.318   2.752   4.545  0.0039 -0.1904 -0.3539
36703SOL    HW113386  11.309   2.782   4.454 -1.1545  0.6010  0.0019
36703SOL    HW213387  11.278   2.821   4.597  0.7473 -0.5901  0.7805
36704SOL     OW13388   3.318   4.333   3.113 -0.2423  0.0986  0.4351
36704SOL    HW113389   3.327   4.289   3.028 -0.5286  1.0441 -0.1010
36704SOL    HW213390   3.405   4.330   3.151  1.0768  3.4516 -1.8241
36705SOL     OW13391   3.494   5.620  11.176 -0.0314  0.1180  0.0592
36705SOL    HW113392   3.426   5.675  11.215 -0.7529 -1.0359  0.4508
36705SOL    HW213393   3.472   5.531  11.202  1.9487 -0.2464  0.7012
36706SOL     OW13394  10.643   6.729   2.452 -0.1949 -0.4259 -0.1834
36706SOL    HW113395  10.568   6.758   2.505 -0.0752  1.0067 -0.7476
36706SOL    HW213396  10.672   6.808   2.406 -0.5094 -1.6624 -2.6789
36707SOL     OW13397   5.683   8.912   0.018 -0.6126 -0.1239  0.0574
36707SOL    HW113398   5.631   8.833   0.036 -0.8460  0.2155  0.8887
36707SOL    HW213399   5.633   8.983   0.056 -1.7021  0.8350 -2.8783
36708SOL     OW13400   3.560   7.527   8.205 -0.2506  0.1983  0.4744
36708SOL    HW113401   3.591   7.568   8.285 -1.2059  0.2673  0.8186
36708SOL    HW213402   3.470   7.559   8.195  0.1160  0.8294 -1.0574
36709SOL     OW13403   6.537   1.126   8.248 -0.3787  0.0744  0.6943
36709SOL    HW113404   6.488   1.092   8.173 -0.1057  0.5941  0.2811
36709SOL    HW213405   6.568   1.047   8.293  2.1128 -0.3242 -1.4541
36710SOL     OW13406   0.991   0.062   5.532  0.1636 -0.1484 -0.1392
36710SOL    HW113407   0.967   0.006   5.458 -1.1478  1.4314 -0.9565
36710SOL    HW213408   0.921   0.049   5.596  0.2816 -0.0374  0.0157
36711SOL     OW13409   7.432   8.110   3.150  0.3824 -0.3967 -0.3890
36711SOL    HW113410   7.359   8.049   3.137  0.6448 -0.7591 -0.1811
36711SOL    HW213411   7.390   8.192   3.177  0.0710 -0.6904  0.0271
36712SOL     OW13412   1.206   0.313   6.261  0.3013  0.2009  0.3308
36712SOL    HW113413   1.234   0.405   6.258  2.5495 -0.4311  0.2819
36712SOL    HW213414   1.273   0.270   6.315 -0.9329 -1.3550  0.6813
36713SOL     OW13415   3.168   9.022   7.326 -0.4474  0.2995 -0.7634
36713SOL    HW113416   3.171   9.093   7.390  0.3841  0.1991 -0.6860
36713SOL    HW213417   3.196   9.063   7.244 -0.7348  0.2405 -0.8929
36714SOL     OW13418   3.693   9.835   8.865 -0.4680  0.1797 -0.6837
36714SOL    HW113419   3.639   9.860   8.940  0.3767  1.6985 -0.5462
36714SOL    HW213420   3.637   9.850   8.789 -0.0265  2.6550 -0.6187
36715SOL     OW13421   4.164   2.796   2.206  0.0564 -0.0012 -0.0614
36715SOL    HW113422   4.252   2.800   2.169  0.7523 -0.8076  1.3868
36715SOL    HW213423   4.107   2.831   2.138  1.2686 -1.2121 -1.7739
36716SOL     OW13424   7.956   4.668   9.209 -0.1592  0.6479 -0.4529
36716SOL    HW113425   7.956   4.743   9.149 -1.5412  0.3527 -0.8599
36716SOL    HW213426   7.914   4.598   9.159 -1.4135  0.4129  0.8669
36717SOL     OW13427   2.459  11.232   8.828  0.3066  0.3479  0.3370
36717SOL    HW113428   2.454  11.169   8.899  1.1602  0.1309  0.2064
36717SOL    HW213429   2.392  11.297   8.849 -0.4725 -0.5075  0.5571
36718SOL     OW13430   8.748   1.965   3.257 -0.7510  0.6477 -0.3793
36718SOL    HW113431   8.694   2.004   3.326  0.5912 -0.6536  1.4859
36718SOL    HW213432   8.715   1.876   3.248 -0.0970  0.4197 -0.5346
36719SOL     OW13433   7.182   3.410  10.613 -0.0949 -0.6584  0.1029
36719SOL    HW113434   7.181   3.338  10.551 -0.2317 -0.6013  0.0398
36719SOL    HW213435   7.183   3.368  10.699 -1.2488 -0.7381  0.0940
36720SOL     OW13436   7.437   8.635   6.057 -0.1142 -0.4411 -0.5080
36720SOL    HW113437   7.374   8.580   6.011  1.9115 -1.6137 -2.0326
36720SOL    HW213438   7.438   8.600   6.146 -0.3190 -1.5803 -0.9387
36721SOL     OW13439   1.016   6.844   4.834 -0.0296  0.2502 -0.0983
36721SOL    HW113440   0.986   6.913   4.775  0.7461  0.2587 -0.4855
36721SOL    HW213441   0.995   6.762   4.789 -0.4670  0.2348  0.1256
36722SOL     OW13442   1.261   4.872   7.634 -0.1452 -0.1433 -0.4332
36722SOL    HW113443   1.334   4.876   7.572  0.8066 -1.6009  0.5239
36722SOL    HW213444   1.188   4.838   7.583 -0.2021  1.4287 -1.4322
36723SOL     OW13445   8.060   6.060   0.929  0.3082 -0.2392 -0.1120
36723SOL    HW113446   7.998   6.113   0.979  1.2297 -0.7034  1.6042
36723SOL    HW213447   8.081   6.113   0.852 -0.9866  0.6056  0.0925
36724SOL     OW13448   7.201   8.063  11.020  0.5737  0.6247  0.3778
36724SOL    HW113449   7.241   8.017  11.094 -0.4250 -0.2864  0.3765
36724SOL    HW213450   7.269   8.123  10.990  2.2333 -1.3547 -0.0930
36725SOL     OW13451   2.371   2.702  11.252  0.3706 -0.0819  0.3072
36725SOL    HW113452   2.431   2.747  11.312 -0.0507 -0.2684  0.8667
36725SOL    HW213453   2.296   2.761  11.244 -0.8085 -1.2612  2.1187
36726SOL     OW13454   5.598   3.024   3.880  0.4806 -0.0970 -0.1117
36726SOL    HW113455   5.674   3.080   3.863 -1.2703  2.4140 -0.2054
36726SOL    HW213456   5.541   3.038   3.804  0.1717 -2.4637 -0.3768
36727SOL     OW13457   8.918   3.970   8.318 -0.2872 -0.3447 -0.2703
36727SOL    HW113458   8.877   3.886   8.294  0.3650  0.0308 -3.0191
36727SOL    HW213459   9.011   3.949   8.326 -0.2396 -0.0470 -0.0512
36728SOL     OW13460   4.030   6.057   5.667  0.1415 -0.1710  0.5091
36728SOL    HW113461   4.042   6.083   5.576  0.3540 -0.0427  0.5723
36728SOL    HW213462   4.074   5.973   5.675 -0.0335 -0.2693  0.4506
36729SOL     OW13463   1.306   8.892   3.722 -0.2010 -0.0541  0.3721
36729SOL    HW113464   1.345   8.977   3.702  2.5969 -1.5255 -0.8332
36729SOL    HW213465   1.221   8.894   3.677  0.1349  1.7714 -0.2741
36730SOL     OW13466   2.620   6.187   7.721  0.3835 -0.0133  0.8963
36730SOL    HW113467   2.645   6.222   7.636 -0.2754  0.5909  0.9503
36730SOL    HW213468   2.655   6.097   7.721 -2.2133 -1.1649 -1.2449
36731SOL     OW13469   7.945   7.048   2.180 -0.5752 -0.2883 -0.2506
36731SOL    HW113470   8.021   7.003   2.143 -1.6997 -1.5795 -1.0790
36731SOL    HW213471   7.903   7.090   2.105 -1.1925 -0.3516  0.0562
36732SOL     OW13472  11.126   8.988   2.108 -0.0407  0.3230  0.1074
36732SOL    HW113473  11.111   8.904   2.065  0.7115 -0.2883  1.0177
36732SOL    HW213474  11.166   8.966   2.192  0.0824  1.5845  0.4028
36733SOL     OW13475   1.034   3.985   8.880  0.1068  0.1932  0.1354
36733SOL    HW113476   1.117   3.937   8.867 -1.0130 -1.8359  0.0958
36733SOL    HW213477   1.011   3.968   8.971  0.2174  1.6204  0.4498
36734SOL     OW13478   6.785   4.929   2.842  0.0666  0.3668  0.8011
36734SOL    HW113479   6.703   4.947   2.890  0.1251 -0.9940  1.4826
36734SOL    HW213480   6.759   4.928   2.750 -0.9334 -1.0589  1.0611
36735SOL     OW13481  10.048   3.340   2.618  0.0321 -0.6173 -0.4139
36735SOL    HW113482  10.048   3.250   2.585 -1.2665 -0.1310 -1.8638
36735SOL    HW213483  10.089   3.391   2.547  0.9155 -0.0626  0.4626
36736SOL     OW13484   5.919   0.271   9.726  0.5116 -0.3185  0.0808
36736SOL    HW113485   5.948   0.226   9.647  0.8970  1.7002 -0.9795
36736SOL    HW213486   5.987   0.336   9.743 -1.1495  1.4541  0.1974
36737SOL     OW13487   4.118   1.754   0.159  0.5504  0.0314  0.1984
36737SOL    HW113488   4.196   1.766   0.104 -1.0099  1.9421 -1.7674
36737SOL    HW213489   4.123   1.825   0.223  1.0573 -0.6507  0.9371
36738SOL     OW13490  10.629   2.542   8.609  0.5100 -0.1006  0.2323
36738SOL    HW113491  10.577   2.480   8.558 -2.0925  0.3091  2.1507
36738SOL    HW213492  10.693   2.488   8.655 -0.7396 -1.2076  0.7376
36739SOL     OW13493   3.050   9.679   5.274 -0.0647  0.4126  0.5688
36739SOL    HW113494   3.015   9.709   5.358 -0.3570  0.7203  0.3392
36739SOL    HW213495   2.993   9.719   5.208 -0.2819 -0.3977  0.2432
36740SOL     OW13496   1.325   7.021   7.958  0.1933 -0.3861  0.2473
36740SOL    HW113497   1.287   6.940   7.925  2.1514 -1.3747  0.2916
36740SOL    HW213498   1.319   7.082   7.884  1.0745 -1.4018 -0.6987
36741SOL     OW13499   8.948   4.802   7.800  0.7847 -0.3685  0.2176
36741SOL    HW113500   8.959   4.782   7.707 -1.1693 -2.6430  0.3889
36741SOL    HW213501   8.853   4.804   7.813  0.9691  1.8519  1.8517
36742SOL     OW13502   0.284   8.852   4.741 -0.4336 -0.0900  0.2786
36742SOL    HW113503   0.239   8.933   4.717  1.0867  0.2019 -1.8205
36742SOL    HW213504   0.262   8.790   4.671  2.1502  0.0047 -0.7191
36743SOL     OW13505   1.583   1.894   3.628 -0.4140  0.2760  0.1981
36743SOL    HW113506   1.531   1.967   3.661  0.0767  0.1178  1.3817
36743SOL    HW213507   1.518   1.828   3.602 -0.9195 -0.7825  3.6156
36744SOL     OW13508   9.628   5.029   5.307  0.3466 -0.1492 -1.4819
36744SOL    HW113509   9.676   5.104   5.340 -1.2891  1.6248 -2.8936
36744SOL    HW213510   9.549   5.024   5.362  1.0780 -1.7359 -0.5109
36745SOL     OW13511   0.877   1.875   0.438  0.1655 -0.0246  0.0290
36745SOL    HW113512   0.853   1.881   0.346  0.8060 -0.9640 -0.2096
36745SOL    HW213513   0.916   1.960   0.458  0.2642  0.0896 -0.6402
36746SOL     OW13514   2.452   1.063   6.165  0.2173  0.0087 -0.4066
36746SOL    HW113515   2.420   1.147   6.132 -1.5530 -0.0169  1.0991
36746SOL    HW213516   2.539   1.053   6.125 -0.1032  1.8784 -1.7030
36747SOL     OW13517  10.102   6.588   4.474 -0.1350 -0.3714 -0.0108
36747SOL    HW113518  10.064   6.513   4.428 -0.2088 -1.0921  1.1995
36747SOL    HW213519  10.029   6.649   4.483  0.1307  0.2685 -1.7843
36748SOL     OW13520   8.039   4.741   6.314 -0.2748  0.1450  0.0340
36748SOL    HW113521   8.035   4.647   6.335  0.2931  0.2866  0.8027
36748SOL    HW213522   8.020   4.744   6.220 -0.4824 -0.7255  0.0317
36749SOL     OW13523   5.639   5.474   2.739 -0.0499  0.1412 -0.1448
36749SOL    HW113524   5.575   5.533   2.778  0.2427  0.8439 -0.7235
36749SOL    HW213525   5.586   5.400   2.706 -0.2226 -0.9532  2.3751
36750SOL     OW13526  10.122   9.425  10.481 -0.2169  0.4536 -0.5534
36750SOL    HW113527  10.114   9.509  10.436  2.5440  0.9518 -0.2919
36750SOL    HW213528  10.215   9.402  10.473 -0.3203 -1.1939  1.8053
36751SOL     OW13529   5.601   5.387   4.170  0.0816  0.8469 -0.0040
36751SOL    HW113530   5.590   5.404   4.076  0.8963 -0.0034 -0.2725
36751SOL    HW213531   5.680   5.435   4.194  0.0305  0.8387  0.1821
36752SOL     OW13532   9.601  10.173   2.393  0.0256 -0.1165  0.3896
36752SOL    HW113533   9.518  10.206   2.360 -0.3577 -0.1056  1.3507
36752SOL    HW213534   9.615  10.219   2.476  0.6147 -0.6768  0.6149
36753SOL     OW13535   1.036   6.604   0.574  0.1791  0.7326 -0.1812
36753SOL    HW113536   1.102   6.562   0.519 -1.3825 -1.6870 -0.3462
36753SOL    HW213537   1.077   6.611   0.660  0.0867 -2.5622  0.2346
36754SOL     OW13538   6.080   6.151   3.619  0.3973 -0.2286 -0.3122
36754SOL    HW113539   6.028   6.070   3.622 -2.0275  1.2296  0.0895
36754SOL    HW213540   6.072   6.188   3.707 -1.0103  1.8312 -1.2391
36755SOL     OW13541   5.250   1.474   0.526 -0.0637 -0.1502  0.2791
36755SOL    HW113542   5.301   1.531   0.470  0.6829 -0.7614  0.3205
36755SOL    HW213543   5.315   1.421   0.573 -0.7359 -1.7437 -0.5015
36756SOL     OW13544   4.966   3.270   6.996  0.1819  0.0132  0.4305
36756SOL    HW113545   5.052   3.281   7.036  0.5473 -1.2913  0.0762
36756SOL    HW213546   4.986   3.242   6.906 -0.6175  0.5067  0.0929
36757SOL     OW13547   9.449   5.572   5.965 -0.4041 -0.2204 -0.1590
36757SOL    HW113548   9.500   5.495   5.993 -1.3623 -1.3608 -1.4202
36757SOL    HW213549   9.365   5.536   5.937 -0.8937  1.3187 -0.7435
36758SOL     OW13550   1.038   9.767   6.175 -0.6343  0.1259 -0.8414
36758SOL    HW113551   1.129   9.751   6.151 -0.2725  0.9596 -0.0744
36758SOL    HW213552   0.987   9.731   6.102  0.3236  0.1746 -1.5501
36759SOL     OW13553   6.629  10.697  10.838  0.2479  0.0648  0.0033
36759SOL    HW113554   6.721  10.683  10.864  0.6017 -0.1743 -1.2945
36759SOL    HW213555   6.579  10.678  10.917  1.3132  0.1202  0.7187
36760SOL     OW13556   2.174   1.167   1.432 -0.1878  0.1619  0.0324
36760SOL    HW113557   2.103   1.106   1.455  0.9640 -0.4639  2.2167
36760SOL    HW213558   2.243   1.111   1.397  0.0928  0.4887  0.0635
36761SOL     OW13559   3.829   8.120   9.792  0.2709 -0.3095 -0.0753
36761SOL    HW113560   3.778   8.039   9.795  1.2088 -0.8782  1.0038
36761SOL    HW213561   3.917   8.092   9.766  1.1415  0.0235  2.2590
36762SOL     OW13562   1.163   5.591   2.631 -0.2979 -0.1219 -0.4205
36762SOL    HW113563   1.111   5.588   2.711 -1.2258 -0.2098 -1.0134
36762SOL    HW213564   1.227   5.521   2.641 -1.2625 -1.0030 -0.3257
36763SOL     OW13565   0.319   7.216   8.107 -0.4120  0.2499  0.1125
36763SOL    HW113566   0.332   7.163   8.186 -0.5107  1.0429  0.6723
36763SOL    HW213567   0.224   7.217   8.093 -0.3038 -1.2040 -0.9534
36764SOL     OW13568   5.312  10.905   9.684 -0.1600 -0.1951 -0.2131
36764SOL    HW113569   5.236  10.906   9.625 -1.1734  1.1203  1.0362
36764SOL    HW213570   5.273  10.908   9.772  1.3393 -0.7139  0.4946
36765SOL     OW13571   8.732   1.240   4.723  0.2824 -0.1511 -0.3733
36765SOL    HW113572   8.669   1.312   4.719  1.2678  0.7432 -0.2849
36765SOL    HW213573   8.717   1.200   4.809  0.8158  1.0050  0.2806
36766SOL     OW13574   4.862   7.762   8.025 -0.1618 -0.0433 -0.2552
36766SOL    HW113575   4.773   7.799   8.027 -0.1036  0.0737  1.1248
36766SOL    HW213576   4.902   7.801   7.947 -1.3093 -0.0982 -0.8985
36767SOL     OW13577   5.445   7.536   1.539  0.2419 -0.5695  0.4413
36767SOL    HW113578   5.540   7.543   1.535  0.3628 -1.2118  1.7238
36767SOL    HW213579   5.421   7.485   1.461  0.8542  0.2285 -0.2864
36768SOL     OW13580   4.126  10.269   3.968 -0.2771 -0.1918 -0.3486
36768SOL    HW113581   4.040  10.250   3.931 -0.7432  0.4515  0.3862
36768SOL    HW213582   4.114  10.266   4.063  0.8442 -1.5488 -0.2068
36769SOL     OW13583   3.434   8.233   3.407  0.5578 -0.0850 -0.1912
36769SOL    HW113584   3.422   8.220   3.313 -0.2312 -1.9173  0.1161
36769SOL    HW213585   3.483   8.155   3.436 -1.6211 -0.9921  1.3095
36770SOL     OW13586   6.946   6.817   9.192  0.1040 -0.0808  0.4566
36770SOL    HW113587   7.012   6.853   9.133 -0.5401 -1.5164 -1.2115
36770SOL    HW213588   6.892   6.893   9.215  0.5239  0.5687 -0.6099
36771SOL     OW13589   0.509   7.789   4.295 -0.3041 -0.0404 -0.6334
36771SOL    HW113590   0.563   7.868   4.290 -0.9079  0.3806 -0.6642
36771SOL    HW213591   0.518   7.759   4.385  0.3487 -0.2383 -0.7635
36772SOL     OW13592   8.094   2.393  10.698 -0.5641 -0.2574 -0.2400
36772SOL    HW113593   8.068   2.389  10.606  0.0337  2.0883 -0.5680
36772SOL    HW213594   8.185   2.366  10.698 -0.6172 -0.4392 -0.3035
36773SOL     OW13595   2.819   6.268   0.710  0.4702  0.3052  0.1852
36773SOL    HW113596   2.851   6.218   0.786 -0.3848  0.2883  0.5458
36773SOL    HW213597   2.786   6.350   0.748 -0.9375 -0.1329 -0.0180
36774SOL     OW13598   2.404  11.115   4.324 -0.0288 -0.0574  0.1836
36774SOL    HW113599   2.390  11.128   4.230 -1.0960 -1.2555  0.1535
36774SOL    HW213600   2.498  11.105   4.332  0.2591  1.6351 -0.5299
36775SOL     OW13601   9.632   3.915   4.476  0.6697 -0.3872  0.0372
36775SOL    HW113602   9.557   3.857   4.480  0.4909 -0.1700 -0.1628
36775SOL    HW213603   9.645   3.931   4.382  0.6252  0.0133  0.0974
36776SOL     OW13604   0.983   9.896   1.142  0.7440 -0.5788 -0.0904
36776SOL    HW113605   0.979   9.851   1.226 -1.3538 -1.6554 -0.6860
36776SOL    HW213606   0.999   9.826   1.078 -0.4201 -0.2040 -0.8248
36777SOL     OW13607   3.640   2.358   4.250 -0.5632  0.1386  0.3479
36777SOL    HW113608   3.692   2.419   4.198  2.5639 -1.5029  1.3609
36777SOL    HW213609   3.672   2.368   4.339 -2.0738 -0.9095  1.0556
36778SOL     OW13610   5.220  11.371   6.327 -0.2461  0.3301  0.0322
36778SOL    HW113611   5.188  11.324   6.404  1.4281  3.2170  2.6860
36778SOL    HW213612   5.260  11.303   6.273 -4.0372 -2.2657  0.0462
36779SOL     OW13613   6.738   9.379   7.652 -1.0006  0.2603 -0.0898
36779SOL    HW113614   6.809   9.323   7.620 -0.2364  0.5390  1.0565
36779SOL    HW213615   6.659   9.326   7.641 -0.7153  0.1570 -1.9145
36780SOL     OW13616   6.812   3.564   2.211 -0.0559  0.7161 -0.4127
36780SOL    HW113617   6.893   3.516   2.232 -2.2385 -2.9347  0.5484
36780SOL    HW213618   6.805   3.631   2.278  0.9096 -0.6026  1.0693
36781SOL     OW13619   0.543   4.196   6.316  0.4345 -0.1137  0.2208
36781SOL    HW113620   0.634   4.165   6.310  0.0686 -1.3510  0.6418
36781SOL    HW213621   0.504   4.171   6.232  1.0119  2.3743 -0.8632
36782SOL     OW13622   1.638   8.726   2.027 -0.3796  0.2592  0.1672
36782SOL    HW113623   1.677   8.669   1.961  1.7290  0.3948  1.2212
36782SOL    HW213624   1.705   8.793   2.044 -1.0048  0.4349  2.1706
36783SOL     OW13625   0.171   0.426   1.903  0.0231  0.0995  0.6807
36783SOL    HW113626   0.254   0.379   1.905 -0.5098 -1.1606 -2.1976
36783SOL    HW213627   0.138   0.422   1.993  2.2271 -0.8857  1.4895
36784SOL     OW13628   4.968   4.945   7.405  0.2204 -0.5948  0.4466
36784SOL    HW113629   4.996   4.868   7.454  0.1023 -0.3405  0.9146
36784SOL    HW213630   5.049   4.985   7.374  0.3649 -0.0931  1.4397
36785SOL     OW13631   3.101   3.350  11.348  0.7205 -0.2064  0.3070
36785SOL    HW113632   3.029   3.405  11.316  1.9584  1.8891  0.8982
36785SOL    HW213633   3.154   3.332  11.270  0.3254 -0.5385  0.1139
36786SOL     OW13634   0.971   1.463   1.762 -0.0757 -0.0228 -0.2205
36786SOL    HW113635   1.016   1.392   1.806  2.7931  1.2264 -0.8544
36786SOL    HW213636   0.987   1.540   1.817  0.4175  0.8548 -1.5333
36787SOL     OW13637   7.283   9.314   6.952 -0.6455 -0.5016 -0.0557
36787SOL    HW113638   7.257   9.389   7.005 -1.5136 -2.7307  2.9275
36787SOL    HW213639   7.201   9.280   6.916 -0.4295 -0.8299 -0.2417
36788SOL     OW13640   0.705   1.203  10.255 -0.4297  0.0447 -0.7057
36788SOL    HW113641   0.642   1.180  10.323 -0.6465  0.7305 -0.6683
36788SOL    HW213642   0.688   1.141  10.184  1.4656 -2.3757  0.7789
36789SOL     OW13643   6.394   6.497   2.672 -0.1122 -0.3997 -0.6448
36789SOL    HW113644   6.308   6.460   2.650 -1.0479  1.3170 -0.1180
36789SOL    HW213645   6.414   6.460   2.758 -0.8994  0.0447 -0.2527
36790SOL     OW13646   2.298   1.957  10.548 -0.1372 -0.2052  0.2732
36790SOL    HW113647   2.263   1.921  10.629 -0.0224 -0.1061  0.3681
36790SOL    HW213648   2.317   2.049  10.569 -1.3208  0.1804 -0.2347
36791SOL     OW13649  10.836   0.565  11.041 -0.3834  0.2310 -0.0889
36791SOL    HW113650  10.816   0.572  11.134  1.0419  0.4227  0.2303
36791SOL    HW213651  10.806   0.478  11.016 -0.4715  0.0510  0.6275
36792SOL     OW13652   9.438   3.369   1.879  0.0240  0.2695  0.3685
36792SOL    HW113653   9.475   3.420   1.951 -1.6307  1.3039  0.5487
36792SOL    HW213654   9.383   3.303   1.921 -2.2392  1.8775  0.1484
36793SOL     OW13655   2.357   3.393   6.611  0.1879 -0.3554  0.0874
36793SOL    HW113656   2.272   3.418   6.648  0.0853 -0.2806 -0.1922
36793SOL    HW213657   2.389   3.323   6.667  0.0569 -0.2092  0.3450
36794SOL     OW13658   6.055   1.854  10.943 -0.6486 -0.4175 -0.3767
36794SOL    HW113659   6.039   1.935  10.991 -3.1739  0.0598 -1.7977
36794SOL    HW213660   6.041   1.784  11.006  2.7322  0.1377  1.1843
36795SOL     OW13661   2.981   3.427   7.298 -0.3139  0.1588  0.0353
36795SOL    HW113662   2.896   3.421   7.342  0.0370 -0.5826  0.6338
36795SOL    HW213663   3.036   3.476   7.358  0.1519 -0.8061  0.4096
36796SOL     OW13664   4.276  11.179   9.065  0.2174 -0.2862 -0.1993
36796SOL    HW113665   4.355  11.129   9.087  1.1906  2.4028  3.4625
36796SOL    HW213666   4.206  11.134   9.111  0.6964  0.3779  1.2405
36797SOL     OW13667   1.938   0.970   2.134  0.0749  0.3797  0.1187
36797SOL    HW113668   1.867   0.959   2.070  0.9117  0.5323 -0.8589
36797SOL    HW213669   1.896   0.954   2.218 -0.7739 -1.2112 -0.5569
36798SOL     OW13670   1.120   7.589   3.339 -0.2528 -0.5979  0.0594
36798SOL    HW113671   1.208   7.552   3.345  1.0429  2.2618  0.3507
36798SOL    HW213672   1.084   7.553   3.258  1.8326 -0.5994 -0.9145
36799SOL     OW13673  10.170   8.339   3.727 -0.0387  0.3572 -0.3777
36799SOL    HW113674  10.219   8.297   3.797 -0.1011  0.0933 -0.4882
36799SOL    HW213675  10.195   8.431   3.731 -1.5071  0.7289  1.2425
36800SOL     OW13676   1.089  11.017   0.526  0.2467 -0.7526 -0.1682
36800SOL    HW113677   1.010  11.063   0.498 -0.5033 -0.8832  1.6354
36800SOL    HW213678   1.059  10.954   0.591  1.7265 -1.4097 -0.0867
36801SOL     OW13679   8.002   8.172   7.687  0.0728  0.0923 -0.5843
36801SOL    HW113680   7.952   8.111   7.633  0.1274 -0.4492 -0.0315
36801SOL    HW213681   7.936   8.230   7.725 -0.5054 -2.1089  2.0997
36802SOL     OW13682   1.228   1.282  10.553  0.7412 -0.1081  0.5014
36802SOL    HW113683   1.296   1.314  10.494 -0.2019  1.2890  0.1221
36802SOL    HW213684   1.146   1.302  10.508  0.0535 -1.3845  1.1315
36803SOL     OW13685   7.080   1.977   9.557 -0.2816  0.2062 -0.4392
36803SOL    HW113686   7.081   1.930   9.641 -0.2356  0.4059 -0.3268
36803SOL    HW213687   7.100   2.067   9.581 -0.8473  0.3709 -0.5991
36804SOL     OW13688   0.182  11.270   3.537  0.9772  0.2364  0.0728
36804SOL    HW113689   0.242  11.308   3.602  0.8208 -0.9082  0.9277
36804SOL    HW213690   0.134  11.203   3.586 -0.1718  0.3327 -0.8936
36805SOL     OW13691   8.906  10.916   4.209 -0.5579 -0.2606  0.1254
36805SOL    HW113692   8.876  10.922   4.119  1.0508 -3.0418 -0.7047
36805SOL    HW213693   8.996  10.949   4.207 -0.9473  0.9770  1.0706
36806SOL     OW13694   0.028  10.731   5.219  0.5391 -0.0872  0.3685
36806SOL    HW113695   0.109  10.772   5.250 -0.4691  0.3956  2.6051
36806SOL    HW213696   0.047  10.637   5.222  0.6840 -0.0449  2.1094
36807SOL     OW13697   0.614   9.508  10.145  0.2879  0.4003 -0.2051
36807SOL    HW113698   0.586   9.566  10.216  0.6698  0.2908  0.0395
36807SOL    HW213699   0.552   9.436  10.146 -0.1686  0.7839 -0.4851
36808SOL     OW13700   6.343   4.525  11.195 -0.3901 -0.3122  0.3721
36808SOL    HW113701   6.329   4.477  11.113  0.3018  2.2843 -1.4089
36808SOL    HW213702   6.434   4.506  11.218 -0.8710 -1.8412  1.1737
36809SOL     OW13703   3.345   6.049   8.136  0.2617  0.0650  0.2691
36809SOL    HW113704   3.382   5.964   8.156 -0.7788 -0.1133  1.6148
36809SOL    HW213705   3.250   6.037   8.146 -0.2806  0.4596 -3.1049
36810SOL     OW13706   3.209  10.982   0.979  0.1504  0.5053 -0.1788
36810SOL    HW113707   3.158  10.918   0.929  0.2626  1.2896 -1.3371
36810SOL    HW213708   3.147  11.019   1.042 -0.6591  1.2288 -1.3623
36811SOL     OW13709   5.807   3.611   2.396 -0.4493 -0.0906 -0.2333
36811SOL    HW113710   5.743   3.570   2.338 -0.6445  0.8309 -0.6939
36811SOL    HW213711   5.864   3.539   2.423 -0.8528 -0.6858 -0.9160
36812SOL     OW13712   2.575   9.812   6.309  0.2385  1.1090  0.0277
36812SOL    HW113713   2.496   9.831   6.360  0.8397 -0.4901  1.6842
36812SOL    HW213714   2.626   9.755   6.366 -0.4940 -3.7231 -3.5130
36813SOL     OW13715   8.297  11.342   7.693 -0.3390 -0.1827  0.2388
36813SOL    HW113716   8.216  11.332   7.643  0.0539 -0.0505 -0.4462
36813SOL    HW213717   8.359  11.380   7.630  0.0547  0.3745  0.9491
36814SOL     OW13718   5.948   6.163   1.606 -0.5247 -0.1807  0.1124
36814SOL    HW113719   5.886   6.098   1.572  1.5981 -2.4038  0.1903
36814SOL    HW213720   5.948   6.233   1.540 -1.5049 -1.1668 -0.9837
36815SOL     OW13721  11.093   8.682   7.339  0.1471 -0.7469  0.1156
36815SOL    HW113722  11.063   8.644   7.422  1.3279 -0.6453  0.6026
36815SOL    HW213723  11.085   8.611   7.276 -0.6135 -0.8717  0.3340
36816SOL     OW13724   5.175   0.606   2.154 -0.6661 -0.0445  0.1494
36816SOL    HW113725   5.103   0.599   2.090 -0.3646 -1.5155 -0.0672
36816SOL    HW213726   5.150   0.545   2.224 -0.2639  0.4336  0.7100
36817SOL     OW13727   8.038   2.670   3.996  0.0225  0.3257  0.1947
36817SOL    HW113728   7.973   2.602   3.981  0.1094  0.1905  0.4323
36817SOL    HW213729   8.019   2.736   3.929 -0.1974  0.1701  0.1023
36818SOL     OW13730   9.410  10.035   7.438 -0.1620 -0.2375  0.5248
36818SOL    HW113731   9.369  10.071   7.516  3.0877  3.8631  0.6550
36818SOL    HW213732   9.367  10.080   7.365  0.2002 -0.2691  0.2870
36819SOL     OW13733   5.217  10.073  11.177 -0.6945  0.8835  0.1785
36819SOL    HW113734   5.270  10.088  11.098  0.0381 -0.7926  0.3070
36819SOL    HW213735   5.127  10.080  11.147 -0.4156  0.9501 -0.6762
36820SOL     OW13736  10.215   5.895  11.273 -0.0464  0.4118  0.0250
36820SOL    HW113737  10.147   5.833  11.302  0.3840 -1.2822 -2.3223
36820SOL    HW213738  10.274   5.903  11.348 -0.1001 -2.1149  0.4175
36821SOL     OW13739   8.139   4.490  10.762  0.2874  0.3162  0.2615
36821SOL    HW113740   8.110   4.448  10.843  2.5497  0.8633  1.4355
36821SOL    HW213741   8.112   4.582  10.771 -0.7398  0.0817 -0.2941
36822SOL     OW13742   4.461  11.048   7.013  0.2543 -0.0417  0.7377
36822SOL    HW113743   4.381  11.100   7.021  0.4066  0.4374 -0.6420
36822SOL    HW213744   4.523  11.089   7.074 -0.6477 -0.6745  2.1323
36823SOL     OW13745   4.638   9.117   1.039  0.0026  0.5039  0.1155
36823SOL    HW113746   4.664   9.054   1.106 -0.6719 -0.1888 -0.2557
36823SOL    HW213747   4.610   9.062   0.965 -2.1827  1.2121  0.3702
36824SOL     OW13748   3.686   9.355   9.000  0.3561  0.3138  0.4072
36824SOL    HW113749   3.693   9.374   9.094  0.2561  1.7631  0.1458
36824SOL    HW213750   3.652   9.436   8.962  0.5947 -0.1864 -0.9115
36825SOL     OW13751   3.065   8.872   3.791 -0.0055 -0.1616  0.4332
36825SOL    HW113752   2.979   8.830   3.800  1.0021 -2.1184  1.4672
36825SOL    HW213753   3.122   8.803   3.758  1.1430  1.1680 -0.4305
36826SOL     OW13754   5.283   3.033   1.690 -0.1713  0.0614  0.7331
36826SOL    HW113755   5.328   2.960   1.732 -1.4400 -1.1535  0.0603
36826SOL    HW213756   5.351   3.101   1.682  1.4823 -1.5763  0.0071
36827SOL     OW13757   0.787   9.207   7.924  0.3229 -0.3477 -0.3816
36827SOL    HW113758   0.848   9.136   7.944  1.1908 -0.1027 -2.0329
36827SOL    HW213759   0.719   9.166   7.872 -0.9210 -0.5905  1.3446
36828SOL     OW13760   2.471   9.792   7.686 -0.8269  0.8737 -0.3089
36828SOL    HW113761   2.405   9.825   7.746 -0.3759  1.5729 -0.1929
36828SOL    HW213762   2.447   9.829   7.601  0.1386  2.2011 -0.0341
36829SOL     OW13763   9.599   2.910   4.208 -0.1285  0.0297 -0.6200
36829SOL    HW113764   9.638   2.987   4.250 -1.5110 -0.6888  2.2445
36829SOL    HW213765   9.517   2.942   4.170 -0.9790 -0.0334  1.0511
36830SOL     OW13766   8.888   7.796   9.264  0.1396  0.1468 -0.0946
36830SOL    HW113767   8.808   7.822   9.310  0.5017 -0.0647  0.6589
36830SOL    HW213768   8.861   7.788   9.172 -1.0827 -1.3992  0.3566
36831SOL     OW13769   9.764   9.012   9.676  0.0707 -0.0216  0.0382
36831SOL    HW113770   9.799   9.035   9.762 -0.6412 -1.0524  0.6166
36831SOL    HW213771   9.674   8.984   9.693 -0.2708  0.3080 -1.1218
36832SOL     OW13772   1.616   5.217   2.257 -0.6031 -0.1969 -0.6473
36832SOL    HW113773   1.589   5.127   2.238 -0.3378 -0.5155  0.4272
36832SOL    HW213774   1.711   5.216   2.249 -0.6560  0.2156 -1.4956
36833SOL     OW13775  10.701   4.630   6.295 -0.5489  0.1689  0.0454
36833SOL    HW113776  10.720   4.724   6.300  0.1336  0.0263  0.2076
36833SOL    HW213777  10.711   4.598   6.384  1.6536 -0.4991 -0.3763
36834SOL     OW13778  10.738  10.513   1.764  0.0148 -0.0597 -0.6394
36834SOL    HW113779  10.773  10.598   1.736  0.3118 -0.1082 -0.4167
36834SOL    HW213780  10.643  10.527   1.767  0.0554  0.2408 -0.6803
36835SOL     OW13781   7.671   7.355   5.323  0.1406 -0.0355 -0.0106
36835SOL    HW113782   7.741   7.415   5.298  0.6409 -0.0884  1.1663
36835SOL    HW213783   7.692   7.331   5.414 -1.5812  0.2034  0.4825
36836SOL     OW13784   9.250   2.282   5.044  0.4096 -0.0886  0.0827
36836SOL    HW113785   9.312   2.250   4.978 -0.3500 -0.4970 -0.4373
36836SOL    HW213786   9.235   2.374   5.020 -1.5764 -0.8132 -1.6828
36837SOL     OW13787   0.657   8.359   2.845 -0.2781  0.8132  0.4903
36837SOL    HW113788   0.578   8.369   2.898  0.2653 -0.5349  1.6109
36837SOL    HW213789   0.628   8.378   2.756 -1.4886  1.8997  1.0830
36838SOL     OW13790   5.248   1.892   1.870  0.0143  0.1377 -0.2347
36838SOL    HW113791   5.256   1.950   1.946 -0.8483  0.2818 -0.2461
36838SOL    HW213792   5.282   1.808   1.901  1.4415  0.6710 -0.2713
36839SOL     OW13793   0.887   7.393   4.352  0.6504  0.0576  0.4572
36839SOL    HW113794   0.809   7.440   4.324  1.0490  0.8626  0.6494
36839SOL    HW213795   0.898   7.416   4.444  1.4186  0.4055  0.2880
36840SOL     OW13796  11.130   3.818   7.718 -0.2914 -0.4388 -0.4746
36840SOL    HW113797  11.092   3.746   7.767  0.9772 -0.3375  0.7526
36840SOL    HW213798  11.079   3.823   7.637 -0.8306 -2.2585 -0.2872
36841SOL     OW13799   3.504   3.023   6.119  0.0024 -0.2654  0.2551
36841SOL    HW113800   3.504   3.022   6.023  0.4662 -0.2579  0.2513
36841SOL    HW213801   3.593   3.050   6.143 -0.1998  0.0477  0.6869
36842SOL     OW13802   9.382   1.011   5.843 -0.1805  0.0347 -0.4742
36842SOL    HW113803   9.324   0.943   5.878 -2.2945  2.0518  0.2080
36842SOL    HW213804   9.347   1.031   5.757  0.0612  0.6435 -0.4358
36843SOL     OW13805   5.757   6.680   9.191 -0.6012  0.0073  0.8026
36843SOL    HW113806   5.766   6.635   9.275 -0.1337 -1.8280 -0.1733
36843SOL    HW213807   5.847   6.691   9.160 -0.8105 -1.3580 -0.4296
36844SOL     OW13808   6.614   3.584   1.452 -0.0534  0.4615 -0.1330
36844SOL    HW113809   6.641   3.559   1.540 -0.0626 -0.0390 -0.2690
36844SOL    HW213810   6.667   3.662   1.432 -0.3514  0.8248  0.4690
36845SOL     OW13811   2.600   3.951   0.054  0.1229  0.1639  0.5526
36845SOL    HW113812   2.620   3.894  -0.020  0.7248  0.6330  0.3455
36845SOL    HW213813   2.591   4.039   0.016  0.1517  0.3629  0.9947
36846SOL     OW13814   5.984   9.395   0.211  0.7366 -0.4675  0.2613
36846SOL    HW113815   5.981   9.420   0.119 -0.3248 -1.3162  0.0381
36846SOL    HW213816   5.916   9.447   0.252  0.8490 -0.4781  0.4605
36847SOL     OW13817   4.119   3.444   2.623  0.0362  0.4239  0.4816
36847SOL    HW113818   4.097   3.474   2.711  0.1697  0.9958  0.3259
36847SOL    HW213819   4.203   3.485   2.604  0.3492 -0.2542  0.3527
36848SOL     OW13820   3.890   5.795  11.124 -0.1451 -0.1255  0.5117
36848SOL    HW113821   3.845   5.766  11.044 -0.7985  0.4460  0.6562
36848SOL    HW213822   3.981   5.809  11.096  0.3754 -2.8274  0.5800
36849SOL     OW13823   4.710   9.268   2.316 -0.0712  0.0705  0.4387
36849SOL    HW113824   4.621   9.240   2.296 -0.1656  2.2620 -3.2430
36849SOL    HW213825   4.759   9.187   2.329 -2.1786 -1.2603  0.4265
36850SOL     OW13826   9.797   4.512   9.320  0.1196  0.3400 -0.2677
36850SOL    HW113827   9.784   4.602   9.350 -2.2368  0.1500 -0.5135
36850SOL    HW213828   9.733   4.461   9.370 -0.4944 -0.7472 -2.0809
36851SOL     OW13829   1.569   9.656   5.237  0.0461 -0.4238 -0.7887
36851SOL    HW113830   1.505   9.681   5.303  0.6922 -0.6355 -0.0699
36851SOL    HW213831   1.631   9.730   5.234 -1.3808  0.8041 -3.0467
36852SOL     OW13832   6.997   8.432  11.063  0.3510 -0.4470  0.7001
36852SOL    HW113833   7.022   8.489  10.990  0.5436 -1.2462  0.1269
36852SOL    HW213834   7.078   8.385  11.084 -0.3084 -2.1394 -0.3311
36853SOL     OW13835   8.643   6.495   2.804  0.1404 -0.3778  0.3234
36853SOL    HW113836   8.635   6.424   2.741 -0.1346 -0.9028  0.9365
36853SOL    HW213837   8.657   6.574   2.750 -1.1551 -0.6455 -0.4356
36854SOL     OW13838  10.925  11.205   5.534 -0.6018 -0.3273 -0.2459
36854SOL    HW113839  11.001  11.244   5.490 -1.3843  0.6380 -0.7722
36854SOL    HW213840  10.878  11.158   5.466 -0.8349 -0.3683 -0.0599
36855SOL     OW13841   9.446   4.116   5.468 -0.4467  0.2114 -0.1676
36855SOL    HW113842   9.454   4.186   5.533  1.5344 -0.6339  0.5717
36855SOL    HW213843   9.393   4.154   5.398 -2.1327  1.3784  1.6091
36856SOL     OW13844   7.020   5.318   3.717  0.5524 -0.5073  0.2122
36856SOL    HW113845   7.064   5.288   3.637  4.0398  0.5600  1.5744
36856SOL    HW213846   6.931   5.338   3.688  0.3187 -4.2091 -2.4519
36857SOL     OW13847   4.142   2.397  10.033  0.4470 -0.4627  0.5010
36857SOL    HW113848   4.186   2.329   9.982  0.7308 -0.4086  0.6740
36857SOL    HW213849   4.205   2.420  10.101 -0.0551 -0.7610  1.0709
36858SOL     OW13850   5.188   1.808   3.446  0.4246  0.0111 -0.4185
36858SOL    HW113851   5.172   1.807   3.352  1.0041  2.6915 -0.6459
36858SOL    HW213852   5.121   1.868   3.481  0.6799 -0.3639  0.7688
36859SOL     OW13853   5.677   8.180  10.846 -0.1118 -0.3868  0.3521
36859SOL    HW113854   5.716   8.263  10.875  0.3792 -0.9126  1.2546
36859SOL    HW213855   5.675   8.186  10.751 -0.5467  0.8695  0.4255
36860SOL     OW13856  11.221   9.853   9.331 -0.2136 -0.0036  0.0622
36860SOL    HW113857  11.236   9.895   9.415 -0.8324 -0.0222  0.1921
36860SOL    HW213858  11.292   9.789   9.321 -0.3408 -0.2533  0.7330
36861SOL     OW13859   1.512   8.959   1.958 -0.0871 -0.4229  0.0326
36861SOL    HW113860   1.546   8.875   1.990  1.8865  0.4906  0.4766
36861SOL    HW213861   1.495   9.010   2.037 -0.3026 -0.0482 -0.2512
36862SOL     OW13862   4.726   0.731   3.947 -0.2420 -0.2700 -0.3319
36862SOL    HW113863   4.717   0.694   3.859 -0.1374  0.9033 -0.8543
36862SOL    HW213864   4.820   0.745   3.958 -0.2761 -0.1895 -0.1336
36863SOL     OW13865   1.379   4.061   5.489  0.4890  0.5235 -0.2032
36863SOL    HW113866   1.318   4.001   5.447  0.5739  0.4095 -0.1639
36863SOL    HW213867   1.332   4.144   5.493  1.2110  1.1048 -2.3808
36864SOL     OW13868   3.766   2.870   3.068  0.3538  0.2499  0.2956
36864SOL    HW113869   3.704   2.817   3.119  0.5508 -0.7534 -0.4704
36864SOL    HW213870   3.851   2.828   3.082  0.5547  0.5070 -0.1330
36865SOL     OW13871   2.528   1.026   6.479 -0.6530 -0.1235  0.7674
36865SOL    HW113872   2.566   0.973   6.409 -1.4715  0.4794 -0.1528
36865SOL    HW213873   2.522   1.114   6.442 -1.0206  0.2186  1.6246
36866SOL     OW13874   5.907   3.180   8.532  0.2060 -0.1243  0.0983
36866SOL    HW113875   5.870   3.267   8.520  1.4692  0.6181  1.4251
36866SOL    HW213876   5.965   3.168   8.457  1.5700  1.0314  0.9249
36867SOL     OW13877   8.345   2.311  10.700  0.1012 -0.3231  0.5002
36867SOL    HW113878   8.380   2.277  10.618  0.1226  0.8226  0.0204
36867SOL    HW213879   8.356   2.239  10.762  0.0481 -1.2170 -0.5051
36868SOL     OW13880   5.792   0.457   7.424 -0.0814  0.4518 -0.0312
36868SOL    HW113881   5.732   0.458   7.349  0.9781  0.1430 -0.9087
36868SOL    HW213882   5.879   0.462   7.385  0.4872  0.5583  1.2052
36869SOL     OW13883   0.156   5.358   8.611 -0.2511  0.0095 -0.3897
36869SOL    HW113884   0.194   5.409   8.682 -0.7299 -2.0566  1.4503
36869SOL    HW213885   0.069   5.397   8.598 -0.0855  0.5208 -0.0073
36870SOL     OW13886   8.685  11.203  10.654 -0.1920 -0.1545  0.0242
36870SOL    HW113887   8.647  11.120  10.625 -1.5269  0.2783  0.4579
36870SOL    HW213888   8.613  11.248  10.698  0.3977  1.4048 -0.5405
36871SOL     OW13889   2.284   2.813   9.196  0.5917 -0.7300 -0.6294
36871SOL    HW113890   2.242   2.730   9.175  1.1227 -1.0063 -0.6194
36871SOL    HW213891   2.287   2.860   9.112  1.3157 -1.1956 -0.8701
36872SOL     OW13892   5.770   4.369   9.305 -0.0709  0.0696  0.4746
36872SOL    HW113893   5.687   4.400   9.341 -0.5634 -0.8067  0.1217
36872SOL    HW213894   5.745   4.321   9.226  0.9603  1.8323 -0.9950
36873SOL     OW13895   8.847   6.553   2.472  0.6008  0.3771 -1.1252
36873SOL    HW113896   8.762   6.580   2.507  0.7905  0.5250 -0.7615
36873SOL    HW213897   8.828   6.479   2.415  0.5262 -1.5075  1.2042
36874SOL     OW13898   5.998   7.097   2.703 -0.6592  1.2277 -0.2090
36874SOL    HW113899   5.994   7.188   2.674 -2.1187  0.6501 -2.0400
36874SOL    HW213900   5.975   7.099   2.795 -1.5705  2.6340 -0.4480
36875SOL     OW13901   3.256  10.691  10.006 -0.1856 -0.3857 -0.0319
36875SOL    HW113902   3.345  10.659  10.020 -0.3119 -1.1681 -0.8657
36875SOL    HW213903   3.203  10.611   9.999 -0.4190 -0.0894 -2.7843
36876SOL     OW13904   1.659   6.341   2.277  0.2084  0.0755  0.0176
36876SOL    HW113905   1.741   6.312   2.237  0.2370 -0.9935  0.7950
36876SOL    HW213906   1.664   6.309   2.367 -1.0009  0.0931  0.1072
36877SOL     OW13907   9.492   9.827   0.591 -0.1612  0.4973  0.2029
36877SOL    HW113908   9.531   9.872   0.667 -0.8442  0.2171  0.7355
36877SOL    HW213909   9.413   9.877   0.572  1.1460  1.9584 -1.8079
36878SOL     OW13910   7.737   8.774   5.379 -0.3390  0.1554 -0.9699
36878SOL    HW113911   7.777   8.687   5.382 -0.2378  0.1949 -1.1897
36878SOL    HW213912   7.806   8.833   5.409  0.3794  0.4447 -3.0846
36879SOL     OW13913   7.282  10.790   4.461 -0.4296 -0.4450  0.1195
36879SOL    HW113914   7.247  10.764   4.376 -0.1419  0.7728 -0.3987
36879SOL    HW213915   7.217  10.760   4.524 -0.5904 -1.4675 -0.5187
36880SOL     OW13916   5.715   2.905   8.283  0.2514 -0.0185 -0.2339
36880SOL    HW113917   5.703   2.918   8.189  0.5754 -0.0518 -0.2823
36880SOL    HW213918   5.810   2.893   8.293  0.2266  0.0657  0.1047
36881SOL     OW13919   3.314  10.336   5.359 -0.0955  0.0045  0.4836
36881SOL    HW113920   3.396  10.374   5.391  0.0846  0.6528 -0.6848
36881SOL    HW213921   3.318  10.244   5.383  1.3628 -0.1561 -0.2714
36882SOL     OW13922   2.172   0.449   6.800  0.0306 -0.0835  0.4157
36882SOL    HW113923   2.088   0.493   6.811  0.2216  1.2660 -2.7289
36882SOL    HW213924   2.237   0.513   6.829  0.1020 -0.3393  0.8401
36883SOL     OW13925   0.193   5.882   2.871 -0.3193 -0.0375 -0.0527
36883SOL    HW113926   0.140   5.942   2.924  2.1149  1.5664  0.7343
36883SOL    HW213927   0.238   5.940   2.808  1.8948 -1.0043  0.5383
36884SOL     OW13928  11.197  10.812   0.331 -0.2838  0.1246  0.9377
36884SOL    HW113929  11.178  10.812   0.237  0.4725  1.8462  0.7482
36884SOL    HW213930  11.112  10.798   0.373 -0.4185 -2.3455  0.0239
36885SOL     OW13931   3.877   7.504   9.971  0.3675  0.1848 -0.1255
36885SOL    HW113932   3.968   7.484   9.990  0.4933 -1.4661 -2.0463
36885SOL    HW213933   3.852   7.439   9.905 -2.4501  0.0513  0.9454
36886SOL     OW13934   6.365   7.232   5.469 -0.5506  0.3155  0.2400
36886SOL    HW113935   6.408   7.217   5.385 -2.3225  1.2098 -0.8993
36886SOL    HW213936   6.404   7.168   5.529  2.3211  1.0770 -0.6550
36887SOL     OW13937   6.498   5.593   6.959  0.1574  0.1294 -0.3121
36887SOL    HW113938   6.469   5.640   7.038  0.4603 -2.4281  1.4574
36887SOL    HW213939   6.592   5.581   6.971 -0.0284 -1.4992 -0.3504
36888SOL     OW13940   5.633   8.238   3.484 -0.0481  0.2171 -0.1111
36888SOL    HW113941   5.693   8.190   3.540  1.4812 -1.4928 -2.9504
36888SOL    HW213942   5.677   8.322   3.467 -0.2360  0.4879  0.6922
36889SOL     OW13943   5.909   8.856   5.972  0.4120  0.3346  0.4450
36889SOL    HW113944   5.827   8.871   5.924  0.4544  0.1380  0.3070
36889SOL    HW213945   5.888   8.874   6.063  0.1704  0.1225  0.4321
36890SOL     OW13946  10.472   2.274   2.110 -0.0178 -0.8093 -0.2057
36890SOL    HW113947  10.482   2.198   2.052 -0.2095  0.2537 -1.7199
36890SOL    HW213948  10.386   2.309   2.088 -0.0242 -0.2912  0.6393
36891SOL     OW13949   6.107   5.488   6.407 -0.1132 -0.2528  0.0873
36891SOL    HW113950   6.161   5.563   6.383  0.0922  0.2109  1.8720
36891SOL    HW213951   6.169   5.415   6.413  0.2313  0.1120  1.3540
36892SOL     OW13952   8.186   8.655   5.873  0.2559 -0.1342 -0.3655
36892SOL    HW113953   8.123   8.584   5.877 -1.9436  1.7461  1.1024
36892SOL    HW213954   8.169   8.697   5.789  0.3184 -0.3056 -0.4630
36893SOL     OW13955  11.152   6.644  11.008  0.1101 -0.4032  0.2906
36893SOL    HW113956  11.245   6.632  11.027  0.0928  0.9263  1.3833
36893SOL    HW213957  11.130   6.728  11.048 -1.4378 -0.4235 -0.4389
36894SOL     OW13958   1.005   0.104   7.462  0.4524  0.1240 -0.5138
36894SOL    HW113959   1.066   0.172   7.433  0.6574  0.4031  0.5262
36894SOL    HW213960   1.033   0.083   7.551 -1.1751  0.5297  0.1453
36895SOL     OW13961   0.198   1.311   2.871 -0.3243 -0.3988 -0.4888
36895SOL    HW113962   0.231   1.400   2.879 -1.9001  0.0803  2.2618
36895SOL    HW213963   0.266   1.257   2.912 -0.7527  0.0076  0.8341
36896SOL     OW13964   0.130   0.527   2.420 -0.3765  0.4089 -0.8192
36896SOL    HW113965   0.100   0.579   2.346 -0.7498  0.9770 -0.2744
36896SOL    HW213966   0.209   0.571   2.450 -0.4379  0.3953 -0.6392
36897SOL     OW13967   9.546   9.796   8.855 -0.7257  0.6239  0.5066
36897SOL    HW113968   9.553   9.705   8.827 -2.1210  0.9785 -1.1535
36897SOL    HW213969   9.633   9.818   8.889 -0.9048 -1.8896  2.8859
36898SOL     OW13970   5.337   8.504   7.831 -0.4270  0.3101  0.0749
36898SOL    HW113971   5.368   8.430   7.778 -0.6027 -0.2088  0.6936
36898SOL    HW213972   5.244   8.486   7.844 -0.4790  0.6673  0.1976
36899SOL     OW13973   8.763   9.120   9.484 -0.0320 -0.2724  0.1681
36899SOL    HW113974   8.818   9.043   9.465  1.7516  1.1282 -0.6326
36899SOL    HW213975   8.714   9.135   9.403 -0.2901 -0.4767  0.2839
36900SOL     OW13976  10.485   2.601   1.677 -0.5327  0.2585 -0.2634
36900SOL    HW113977  10.452   2.535   1.616  1.1207  0.9796 -2.0503
36900SOL    HW213978  10.524   2.668   1.621  1.3598  0.8168  1.5735
36901SOL     OW13979   5.334   4.711   3.150 -0.4012  0.2440 -0.3432
36901SOL    HW113980   5.244   4.681   3.161  0.3787 -2.9249 -1.4296
36901SOL    HW213981   5.352   4.698   3.056  1.3195  0.2792 -0.0526
36902SOL     OW13982   3.437   5.072   5.178  0.2026  0.5923 -0.4772
36902SOL    HW113983   3.444   5.155   5.225  0.7432 -0.2589  0.9962
36902SOL    HW213984   3.496   5.083   5.103  0.5561  1.3984 -0.0999
36903SOL     OW13985   6.915   5.385   4.119  0.0580 -0.2211  0.1132
36903SOL    HW113986   6.856   5.395   4.194 -0.1927 -0.2464 -0.0787
36903SOL    HW213987   6.935   5.475   4.093  0.8624 -0.2066  0.7654
36904SOL     OW13988   6.597   4.869   1.654 -0.0414  0.6274 -0.0668
36904SOL    HW113989   6.503   4.858   1.635 -0.3826 -1.1621  2.1941
36904SOL    HW213990   6.600   4.945   1.713 -0.1942  0.1544  0.5587
36905SOL     OW13991   1.044   5.601   8.582 -0.2301 -0.2269 -0.1855
36905SOL    HW113992   0.964   5.563   8.546  0.2190 -1.6411  0.2058
36905SOL    HW213993   1.114   5.554   8.537  0.3493 -0.6574  1.1179
36906SOL     OW13994   1.359   3.013  10.350  0.1805  0.1333 -0.0247
36906SOL    HW113995   1.346   3.085  10.289 -2.0120 -1.6000 -1.7715
36906SOL    HW213996   1.333   3.050  10.435  0.8355  1.8721 -0.5363
36907SOL     OW13997   2.886   2.177   4.696  0.1616  0.2151  0.3808
36907SOL    HW113998   2.909   2.227   4.618  2.6572  0.1447  0.9916
36907SOL    HW213999   2.791   2.190   4.706 -0.3679 -0.3052 -2.9692
36908SOL     OW14000   2.842   5.238   7.939 -0.4278  0.3763  0.1362
36908SOL    HW114001   2.787   5.201   8.008  0.2489  0.9757  1.0161
36908SOL    HW214002   2.873   5.322   7.975 -3.3988  2.8416 -2.4485
36909SOL     OW14003   8.724  10.101   8.429  0.2040  0.3697  0.1709
36909SOL    HW114004   8.720  10.174   8.490 -0.2434  0.6131 -0.1434
36909SOL    HW214005   8.795  10.124   8.369  0.2185  0.4344  0.2130
36910SOL     OW14006  10.946   2.018   7.897  0.5406 -0.1473 -0.3825
36910SOL    HW114007  11.015   1.968   7.854  0.3976  0.1493 -0.9634
36910SOL    HW214008  10.981   2.106   7.904  0.5330 -0.1776  0.0413
36911SOL     OW14009   3.461   2.005   5.744  0.0876  0.2884 -0.9502
36911SOL    HW114010   3.416   1.921   5.730  0.7201 -0.2507  0.1135
36911SOL    HW214011   3.426   2.062   5.675 -1.1106 -0.5401 -1.0723
36912SOL     OW14012   0.177   5.719   3.872 -0.2515  0.1194 -0.1063
36912SOL    HW114013   0.150   5.686   3.958  0.7186 -1.1819 -0.2540
36912SOL    HW214014   0.267   5.748   3.886  0.2140 -0.8994 -0.8409
36913SOL     OW14015   1.438   5.978   9.121  0.5361 -0.4044  0.2197
36913SOL    HW114016   1.439   6.011   9.031 -0.7825 -1.7400 -0.3125
36913SOL    HW214017   1.531   5.973   9.145  0.8652  2.1406 -0.1880
36914SOL     OW14018  10.029   2.518   8.946  0.0327  0.1452 -0.4178
36914SOL    HW114019   9.975   2.558   8.877 -0.7090 -1.9349 -1.1297
36914SOL    HW214020  10.059   2.435   8.908  1.7135  0.0994  0.8836
36915SOL     OW14021   6.253   2.909   7.521  0.0002 -0.2291  0.3506
36915SOL    HW114022   6.220   2.937   7.606 -0.5452  0.5551 -0.1035
36915SOL    HW214023   6.233   2.982   7.463  2.0764  0.0621 -0.0722
36916SOL     OW14024   9.749   3.674   9.573  0.3740 -0.3403 -0.2861
36916SOL    HW114025   9.804   3.746   9.539 -0.1313  1.1524  1.8647
36916SOL    HW214026   9.659   3.704   9.557  0.1621 -0.5423  0.5165
36917SOL     OW14027   2.345   4.074   2.975 -0.6954  0.3305 -0.2958
36917SOL    HW114028   2.434   4.091   3.006 -1.0527  1.1338  0.3256
36917SOL    HW214029   2.350   3.989   2.932  0.2166  0.0327  0.3795
36918SOL     OW14030   6.353   8.984  11.028  0.5115  0.0756  0.1784
36918SOL    HW114031   6.373   8.995  10.935  2.0165 -2.6862  0.0579
36918SOL    HW214032   6.418   8.921  11.059 -2.2742 -2.0908  2.1719
36919SOL     OW14033   3.341   0.192   0.067  0.0734 -0.0739  0.4635
36919SOL    HW114034   3.279   0.124   0.042  3.0924 -3.6027  1.6793
36919SOL    HW214035   3.351   0.182   0.162  1.2948  1.4698  0.5382
36920SOL     OW14036   2.915   1.126   6.297  0.3184  0.5741 -0.4422
36920SOL    HW114037   2.950   1.123   6.387  1.0917  0.5818 -0.7342
36920SOL    HW214038   2.990   1.153   6.244  0.1969 -0.6221 -1.2577
36921SOL     OW14039   0.424   3.037   0.388 -0.4103  0.3396 -0.0042
36921SOL    HW114040   0.395   2.947   0.372 -2.0334  0.7027  0.7059
36921SOL    HW214041   0.388   3.059   0.475 -0.2769  1.7489 -0.2817
36922SOL     OW14042   5.974   1.502   3.086 -0.1207  0.4737 -0.1513
36922SOL    HW114043   6.016   1.418   3.065 -0.9846 -0.3978  1.4201
36922SOL    HW214044   5.881   1.487   3.070 -0.3900  0.8394  0.9986
36923SOL     OW14045   6.174   9.691   7.023  0.0178  0.0641 -0.6465
36923SOL    HW114046   6.182   9.617   7.083  0.1826 -0.6118 -1.4842
36923SOL    HW214047   6.079   9.704   7.014 -0.0081  0.1472 -0.2777
36924SOL     OW14048   0.186  10.566   8.784  0.7596  0.5109  0.0124
36924SOL    HW114049   0.098  10.591   8.756  1.0720 -0.4652 -2.0979
36924SOL    HW214050   0.176  10.478   8.820  0.5564  1.2847  1.9283
36925SOL     OW14051  10.037   9.953   0.428 -0.6199  0.2742 -0.4614
36925SOL    HW114052  10.125   9.991   0.422 -1.2727  1.9454  0.0945
36925SOL    HW214053  10.052   9.859   0.438  1.0880  0.4848 -0.8039
36926SOL     OW14054   3.434   0.203  10.135 -0.0747 -0.6875  0.1168
36926SOL    HW114055   3.451   0.290  10.170 -0.6503 -0.1101 -0.9666
36926SOL    HW214056   3.340   0.189  10.148 -0.0503 -1.0016 -0.0132
36927SOL     OW14057   7.386   6.316  11.244 -0.0618  0.2435 -0.1066
36927SOL    HW114058   7.472   6.285  11.273 -0.0317  1.2673  0.9317
36927SOL    HW214059   7.359   6.251  11.178  1.8419  0.3248 -1.0480
36928SOL     OW14060   8.114   0.067  11.390 -0.3175  0.6296 -0.1148
36928SOL    HW114061   8.125   0.070  11.485 -1.7910 -0.1910  0.0987
36928SOL    HW214062   8.048   0.134  11.371 -0.9154 -0.0454 -0.4218
36929SOL     OW14063   6.654   3.217   6.124  0.2848  0.3931 -0.2096
36929SOL    HW114064   6.656   3.145   6.187 -0.1977  0.4929 -0.0775
36929SOL    HW214065   6.710   3.284   6.163 -0.6751  0.7947  0.5408
36930SOL     OW14066   0.230   4.686   2.965  0.1619 -0.9095  0.1128
36930SOL    HW114067   0.302   4.690   2.902 -1.3468 -1.9633 -1.8171
36930SOL    HW214068   0.239   4.765   3.018  2.1072 -0.5074 -0.7386
36931SOL     OW14069   2.868   9.146   1.172  0.4133  0.2037  0.1975
36931SOL    HW114070   2.803   9.081   1.199  0.3836  0.2306  0.1908
36931SOL    HW214071   2.945   9.126   1.225  1.7224 -2.2162 -2.3559
36932SOL     OW14072   7.804   8.722   8.940  0.0977  0.6350  0.0018
36932SOL    HW114073   7.872   8.671   8.984 -0.5520  0.0553  0.3642
36932SOL    HW214074   7.807   8.808   8.982 -0.3037  0.1874  0.9950
36933SOL     OW14075   1.592   9.825   1.725 -0.1680 -0.0945  0.3951
36933SOL    HW114076   1.610   9.815   1.632 -0.4346 -1.0806  0.4365
36933SOL    HW214077   1.660   9.773   1.768 -0.8935 -0.8312  0.6836
36934SOL     OW14078   2.988   4.614   8.722  0.2023  0.5198  0.1565
36934SOL    HW114079   2.893   4.611   8.725  0.1750  1.5060  2.0498
36934SOL    HW214080   3.008   4.692   8.671  0.1016 -1.0034 -2.3842
36935SOL     OW14081  10.974   0.212  10.050  0.7305 -0.6726  0.0574
36935SOL    HW114082  10.919   0.219  10.129  1.7697  2.1825  0.6401
36935SOL    HW214083  11.062   0.232  10.080  1.2806 -0.2860 -1.7017
36936SOL     OW14084   8.945   7.563   0.168  0.2297  0.4886 -0.4948
36936SOL    HW114085   8.878   7.575   0.235  0.5552  2.4105 -0.4704
36936SOL    HW214086   8.962   7.651   0.134  3.2937  0.2110  0.0357
36937SOL     OW14087   1.084  11.039   7.484 -0.0256  0.2490 -0.3939
36937SOL    HW114088   1.094  11.022   7.390  2.1016  2.9066 -0.7682
36937SOL    HW214089   1.174  11.044   7.517 -0.6457  1.9445  1.2186
36938SOL     OW14090   0.528   2.862   8.277 -0.3105 -0.0238  0.0050
36938SOL    HW114091   0.573   2.925   8.333 -0.3258  0.8656 -0.9597
36938SOL    HW214092   0.530   2.780   8.327  1.1272  0.3395  0.5928
36939SOL     OW14093   5.147   2.850   9.313 -0.7093 -0.1939 -0.3167
36939SOL    HW114094   5.225   2.906   9.317 -1.3102  0.6732 -0.3672
36939SOL    HW214095   5.073   2.911   9.322 -1.4211 -0.8530 -1.4938
36940SOL     OW14096   8.761   9.090   5.542  0.1923 -0.3412  0.1862
36940SOL    HW114097   8.818   9.155   5.582 -0.8963  0.4830  0.4666
36940SOL    HW214098   8.703   9.141   5.485 -1.0713 -0.9627  0.8591
36941SOL     OW14099   5.479   9.838   3.815 -0.0333  0.3831  0.1213
36941SOL    HW114100   5.542   9.870   3.751 -1.9688 -0.7932 -2.5365
36941SOL    HW214101   5.463   9.913   3.872  0.7216  1.9615 -1.6337
36942SOL     OW14102  10.478   7.189   1.590 -0.1431  0.1517 -0.4503
36942SOL    HW114103  10.428   7.152   1.662 -0.4935  2.1256  0.3988
36942SOL    HW214104  10.415   7.197   1.518  0.0529 -1.2480 -0.8045
36943SOL     OW14105   6.238   9.504   2.115 -0.0078 -0.4399 -0.7885
36943SOL    HW114106   6.215   9.412   2.107  1.0729 -0.6510 -1.5858
36943SOL    HW214107   6.211   9.543   2.032 -1.3289  0.1825 -0.1061
36944SOL     OW14108  10.124  10.417   7.159 -0.3642 -0.3842  0.1067
36944SOL    HW114109  10.162  10.331   7.147  2.6204  0.6879  1.0543
36944SOL    HW214110  10.117  10.453   7.071 -1.4234 -1.4525 -0.2723
36945SOL     OW14111   5.806   3.829   1.255 -0.4459  0.1570  0.5183
36945SOL    HW114112   5.744   3.839   1.183  1.3196  0.7523 -0.9858
36945SOL    HW214113   5.813   3.734   1.267 -0.4860  0.0347 -0.3520
36946SOL     OW14114  11.126   3.489   0.403  1.0547 -0.1997 -0.0173
36946SOL    HW114115  11.081   3.490   0.487  0.0170  0.5226 -0.5566
36946SOL    HW214116  11.069   3.437   0.346  1.1869  0.2396 -0.5636
36947SOL     OW14117   3.468  10.184   1.435 -0.2013  0.3814  0.0665
36947SOL    HW114118   3.560  10.204   1.453 -0.0086 -0.9831  0.7314
36947SOL    HW214119   3.470  10.132   1.355 -0.4197  0.5450 -0.0451
36948SOL     OW14120   8.697   2.848  10.296 -0.0019  0.3354 -0.0906
36948SOL    HW114121   8.793   2.849  10.306  0.0280  0.0334 -0.3319
36948SOL    HW214122   8.682   2.793  10.219 -0.4019 -0.0878  0.2887
36949SOL     OW14123   2.360  10.904   2.971 -0.4261  0.1532  0.3441
36949SOL    HW114124   2.441  10.955   2.973 -0.0755 -0.4167  0.8354
36949SOL    HW214125   2.303  10.953   2.911  0.0912  0.8310  0.3889
36950SOL     OW14126   6.680   2.354   4.810  0.0248  0.4060 -0.3248
36950SOL    HW114127   6.757   2.374   4.863 -0.9451  0.7988  0.9888
36950SOL    HW214128   6.667   2.432   4.757  1.7879 -0.4878 -2.2320
36951SOL     OW14129   3.618   2.004   4.181 -0.1397 -0.4434 -0.0293
36951SOL    HW114130   3.586   1.915   4.171 -0.1910 -0.5955  1.2878
36951SOL    HW214131   3.542   2.059   4.159  0.0806 -0.6928 -1.4685
36952SOL     OW14132   8.407   5.976   6.725 -0.0164  0.2101 -0.0779
36952SOL    HW114133   8.391   6.025   6.806  1.5598 -0.4043  0.6551
36952SOL    HW214134   8.367   5.891   6.740  2.3385 -0.7799  1.1252
36953SOL     OW14135   5.859   4.281   9.673 -0.1884 -0.6648 -0.2788
36953SOL    HW114136   5.840   4.373   9.655  0.3922 -0.0220  1.9526
36953SOL    HW214137   5.945   4.266   9.633 -0.1236 -0.1307 -0.3432
36954SOL     OW14138   6.942   7.589   1.804  0.2525  0.3644 -0.7560
36954SOL    HW114139   6.988   7.515   1.842 -0.7378  0.4255  0.6147
36954SOL    HW214140   6.904   7.555   1.723  0.9718 -0.2314 -0.8463
36955SOL     OW14141   7.166   9.168   3.575 -0.3732  0.3043 -0.1847
36955SOL    HW114142   7.192   9.077   3.561 -1.6052  0.0457 -0.9646
36955SOL    HW214143   7.103   9.186   3.505 -1.7476  1.0839  1.1773
36956SOL     OW14144  10.744   6.660   7.352 -0.2777  0.4110  0.4425
36956SOL    HW114145  10.757   6.708   7.270  2.1141 -0.0144  0.4851
36956SOL    HW214146  10.756   6.568   7.328  1.4251  0.3411  1.3531
36957SOL     OW14147   1.218   0.119   5.398 -0.7997 -0.2061 -0.5511
36957SOL    HW114148   1.155   0.149   5.463  0.1319 -1.1398  0.8437
36957SOL    HW214149   1.193   0.029   5.379  0.5369 -0.8723  0.6440
36958SOL     OW14150   6.555   9.906   3.956  0.1506  0.4634 -0.3018
36958SOL    HW114151   6.587   9.845   3.890 -0.1440  0.3107 -0.3032
36958SOL    HW214152   6.626   9.970   3.965  1.2588 -0.8717  1.0169
36959SOL     OW14153   1.337   1.033   0.703 -0.2794 -0.4454  0.7323
36959SOL    HW114154   1.253   1.017   0.660  0.1753  1.5848 -1.0905
36959SOL    HW214155   1.402   0.994   0.644  0.1748 -0.1908  1.0550
36960SOL     OW14156   5.430  10.751  10.940  0.2098  0.1945 -0.2893
36960SOL    HW114157   5.372  10.692  10.892  0.5109  0.1747 -0.6270
36960SOL    HW214158   5.443  10.826  10.882  0.6884  0.1044 -0.3071
36961SOL     OW14159   0.420   5.063   8.448  0.4260  0.1847  0.3623
36961SOL    HW114160   0.333   5.027   8.435 -0.4256  2.5488 -0.9438
36961SOL    HW214161   0.476   5.012   8.389 -0.2940 -0.4772  0.2369
36962SOL     OW14162   4.486   6.822   0.796  0.0864 -0.2486  0.1637
36962SOL    HW114163   4.485   6.729   0.821  1.6333 -0.6834 -1.2186
36962SOL    HW214164   4.578   6.840   0.774 -0.3250  1.4108 -0.3215
36963SOL     OW14165  11.069   0.461   0.342  0.0090 -0.6181 -0.2114
36963SOL    HW114166  11.153   0.470   0.388  0.4495  0.6436 -1.2000
36963SOL    HW214167  11.080   0.384   0.286  0.5404 -0.4058 -0.4004
36964SOL     OW14168   2.810   8.748   3.784 -0.4010 -0.5430  0.5188
36964SOL    HW114169   2.778   8.710   3.702  2.0768 -0.4926 -0.5616
36964SOL    HW214170   2.816   8.674   3.844  1.4157 -1.3797 -0.5999
36965SOL     OW14171   0.630   1.410   8.683  0.3926 -0.2105  0.2591
36965SOL    HW114172   0.618   1.318   8.661 -2.1095 -0.2725  1.4874
36965SOL    HW214173   0.722   1.428   8.662  0.2575 -2.2169 -2.5674
36966SOL     OW14174   8.750   5.762   5.361 -0.0996  0.2384 -0.1779
36966SOL    HW114175   8.666   5.789   5.323 -0.4284 -0.5842 -0.0602
36966SOL    HW214176   8.737   5.670   5.385  0.0741  0.7147  1.9576
36967SOL     OW14177   9.887   3.392   5.282 -0.0818 -0.2444  0.4895
36967SOL    HW114178   9.833   3.443   5.343  0.6593 -0.2356  1.1567
36967SOL    HW214179   9.954   3.353   5.337  2.0343  1.6347 -0.6092
36968SOL     OW14180   0.567   6.042   0.254 -0.1035 -0.5300  0.1697
36968SOL    HW114181   0.647   6.049   0.307  0.5731  0.7804 -0.9816
36968SOL    HW214182   0.497   6.064   0.315  0.5416 -0.2827  0.8430
36969SOL     OW14183  10.638   5.873  10.305  0.3328  0.4225  0.4436
36969SOL    HW114184  10.667   5.793  10.348 -0.2212  0.9612  1.8567
36969SOL    HW214185  10.545   5.880  10.326  0.4638  1.6335  0.6821
36970SOL     OW14186  11.187   2.305   8.179  0.5132 -0.1154  0.4178
36970SOL    HW114187  11.159   2.258   8.258  0.9948 -0.0175  0.6490
36970SOL    HW214188  11.282   2.303   8.182  0.5535 -0.8946 -0.6200
36971SOL     OW14189   9.474   5.782   2.249  0.0033  0.7774 -0.8341
36971SOL    HW114190   9.503   5.754   2.335 -1.7723 -0.0008 -0.4290
36971SOL    HW214191   9.549   5.827   2.211  1.2851 -0.1145  0.5450
36972SOL     OW14192   6.679   1.126   9.896 -0.0422 -0.4976 -0.4386
36972SOL    HW114193   6.618   1.196   9.921 -0.4236 -1.3393  1.1429
36972SOL    HW214194   6.765   1.166   9.905 -0.2186 -0.4257  1.2900
36973SOL     OW14195   2.306   8.509   0.366  0.2757 -0.4471  0.2803
36973SOL    HW114196   2.280   8.478   0.279  1.1026  0.1813 -0.2122
36973SOL    HW214197   2.367   8.442   0.397 -0.7638 -1.1697  0.8084
36974SOL     OW14198   7.724   8.093   1.497  0.5065  0.0992  0.0921
36974SOL    HW114199   7.729   8.002   1.470 -1.5207 -0.1162  0.2471
36974SOL    HW214200   7.765   8.096   1.583  2.0992 -0.3047 -0.6335
36975SOL     OW14201  11.163   4.043   7.450  0.1520  0.0322  0.0931
36975SOL    HW114202  11.170   4.026   7.355  0.3129 -0.8727  0.2517
36975SOL    HW214203  11.110   3.970   7.482  2.0441 -0.9867  1.0493
36976SOL     OW14204   2.189   0.307   4.947  0.0733 -0.3674 -0.0157
36976SOL    HW114205   2.113   0.253   4.970 -0.3059  0.1876  0.0492
36976SOL    HW214206   2.199   0.295   4.852 -0.2468 -0.2469 -0.0647
36977SOL     OW14207   5.236   5.514   7.349 -0.2327  0.2806  0.1050
36977SOL    HW114208   5.204   5.482   7.265 -1.5038  2.2920 -0.2570
36977SOL    HW214209   5.332   5.516   7.340 -0.3375  0.0768 -1.1350
36978SOL     OW14210   1.136   5.477   1.838 -0.2744  0.0224  0.3200
36978SOL    HW114211   1.060   5.464   1.894  1.3840  1.6465  3.1759
36978SOL    HW214212   1.125   5.565   1.801  0.4371  0.5049  1.2145
36979SOL     OW14213   5.818   1.337   1.309 -0.0466  0.2977 -0.5118
36979SOL    HW114214   5.777   1.321   1.224 -0.0929 -0.4217 -0.3630
36979SOL    HW214215   5.748   1.323   1.373  0.3795 -0.8630 -0.2619
36980SOL     OW14216  10.985   8.512   6.858 -0.0298 -0.4330  0.2513
36980SOL    HW114217  10.945   8.589   6.900 -1.5879 -1.0634 -0.0184
36980SOL    HW214218  11.019   8.545   6.775 -0.9081 -0.0753  0.0237
36981SOL     OW14219   6.594   1.104   5.646  0.2530 -0.1695  0.2856
36981SOL    HW114220   6.591   1.055   5.729 -0.7549 -0.0521  0.3288
36981SOL    HW214221   6.575   1.194   5.671 -1.5515 -0.3617 -0.2212
36982SOL     OW14222   5.889   9.973  10.976  0.0546 -0.6909 -0.2430
36982SOL    HW114223   5.834  10.041  10.937  0.6634  0.4906  0.8837
36982SOL    HW214224   5.850   9.958  11.062 -0.4019 -2.1969 -0.6889
36983SOL     OW14225   9.762   2.061   2.184 -0.0542 -0.1597 -0.6533
36983SOL    HW114226   9.702   2.074   2.257  0.6181 -0.2806 -0.0612
36983SOL    HW214227   9.723   2.109   2.111 -0.2150  0.8582  0.0769
36984SOL     OW14228   3.538  10.109   1.918  0.0298 -0.2109 -0.4282
36984SOL    HW114229   3.590  10.170   1.972  1.1146 -0.8563 -0.7070
36984SOL    HW214230   3.448  10.122   1.948  0.2865  1.1850 -0.1493
36985SOL     OW14231   3.734   3.768   2.626  0.1269  0.6722 -0.3413
36985SOL    HW114232   3.769   3.753   2.714 -0.1392  1.7771 -0.0191
36985SOL    HW214233   3.766   3.855   2.603  0.6597  0.1599 -1.5898
36986SOL     OW14234  10.412   9.866   5.010  0.3447 -0.3929  0.0091
36986SOL    HW114235  10.346   9.812   4.967 -0.5123  0.4554  0.2238
36986SOL    HW214236  10.413   9.947   4.959  1.0235 -0.2917  0.1793
36987SOL     OW14237  10.861   2.489   3.005 -0.5834  0.1392  0.2117
36987SOL    HW114238  10.946   2.532   3.015 -0.3274 -0.2237 -0.3738
36987SOL    HW214239  10.858   2.460   2.914 -0.1212 -2.3423  0.8923
36988SOL     OW14240   6.096   6.637   5.725 -0.4512  0.1872 -0.0005
36988SOL    HW114241   6.084   6.719   5.772 -0.8592  0.5991 -0.8095
36988SOL    HW214242   6.097   6.661   5.633  0.6373 -0.5747 -0.2103
36989SOL     OW14243   1.076   5.677   7.359  0.1318  0.4351 -0.4379
36989SOL    HW114244   1.021   5.605   7.388  0.3337  1.2208  2.1453
36989SOL    HW214245   1.157   5.635   7.330 -0.0366 -0.4310  0.3001
36990SOL     OW14246   8.804   8.305   2.040  0.4343 -0.3064  0.4926
36990SOL    HW114247   8.779   8.288   1.949 -0.0919  1.6402  0.2286
36990SOL    HW214248   8.886   8.355   2.034 -0.0775  0.6350  1.0193
36991SOL     OW14249  11.163   7.104   1.448  0.1633 -0.2930  0.2189
36991SOL    HW114250  11.173   7.026   1.392 -0.0121  0.7468 -1.3336
36991SOL    HW214251  11.090   7.083   1.506 -0.1772 -1.1205 -0.4837
36992SOL     OW14252   0.431   3.683   4.687 -0.4206  0.8754  0.5577
36992SOL    HW114253   0.514   3.702   4.731  0.2336  0.4813 -0.4828
36992SOL    HW214254   0.404   3.598   4.720  2.8794 -2.2132 -3.6616
36993SOL     OW14255   5.160   4.602   4.486  0.0474 -0.4490 -0.1179
36993SOL    HW114256   5.233   4.661   4.469 -0.6093  0.5982  0.6138
36993SOL    HW214257   5.157   4.545   4.409 -1.6209  2.8373 -2.7836
36994SOL     OW14258  10.271   3.447   6.578 -0.3748  0.3413 -0.3660
36994SOL    HW114259  10.310   3.513   6.522  0.4299 -0.7229 -1.1163
36994SOL    HW214260  10.288   3.364   6.532 -1.7274 -0.3491  0.3156
36995SOL     OW14261   3.241   1.234   0.310 -0.0594 -0.2442 -0.2362
36995SOL    HW114262   3.271   1.253   0.221  1.9383 -0.1508  0.4050
36995SOL    HW214263   3.298   1.164   0.340 -0.2369  0.1883  1.2089
36996SOL     OW14264   2.687   5.401  10.299 -0.7001  0.3846 -0.2632
36996SOL    HW114265   2.656   5.471  10.356 -1.6718  0.5095 -0.9224
36996SOL    HW214266   2.775   5.429  10.271 -0.4134  0.5429  0.7746
36997SOL     OW14267   5.256   0.118   9.194 -0.4562 -0.0579 -0.2050
36997SOL    HW114268   5.314   0.184   9.156  0.8397 -2.6134 -3.0077
36997SOL    HW214269   5.209   0.081   9.120 -0.9882 -2.4186  1.2118
36998SOL     OW14270   4.003   2.194   7.303  0.2434  0.1612  1.0408
36998SOL    HW114271   4.031   2.260   7.367 -0.3584 -0.1438  1.6346
36998SOL    HW214272   3.976   2.245   7.226  3.1701  0.4360  0.0808
36999SOL     OW14273  10.486   9.625   8.430 -0.0539  0.7568 -0.1888
36999SOL    HW114274  10.525   9.688   8.490 -1.3955 -0.4006  2.0334
36999SOL    HW214275  10.561   9.587   8.384  1.2422  0.5021  1.9876
37000SOL     OW14276   4.690   9.718   9.865  0.4090  0.6343 -0.4172
37000SOL    HW114277   4.649   9.659   9.801 -0.0746  1.8301 -1.2430
37000SOL    HW214278   4.700   9.800   9.818  1.5192  1.0795  0.5665
37001SOL     OW14279   3.455  10.147  10.463 -0.1204 -0.1052  0.4412
37001SOL    HW114280   3.401  10.086  10.513 -0.9947  0.3547  0.0841
37001SOL    HW214281   3.537  10.152  10.511 -0.1938 -1.2275  0.7133
37002SOL     OW14282   3.121   4.411   9.980  0.1566 -0.4720  0.1669
37002SOL    HW114283   3.202   4.361   9.977  1.5036  1.6416 -0.7154
37002SOL    HW214284   3.103   4.422  10.073 -0.2914 -2.6607  0.3945
37003SOL     OW14285   1.189   4.297   2.359  0.0736 -0.6468 -0.1697
37003SOL    HW114286   1.118   4.342   2.314 -0.4744 -1.1674  0.1579
37003SOL    HW214287   1.269   4.336   2.323 -0.2209 -2.6818 -3.4051
37004SOL     OW14288   1.514   6.969   1.182 -0.0027  0.2880  0.7377
37004SOL    HW114289   1.473   7.053   1.202  0.9025  0.8806  0.1368
37004SOL    HW214290   1.605   6.990   1.160 -0.6151 -0.3677 -3.1508
37005SOL     OW14291   5.891   5.834   8.613  0.7098 -0.0580  0.0961
37005SOL    HW114292   5.932   5.878   8.539  1.2706 -0.5650  0.0906
37005SOL    HW214293   5.913   5.889   8.689 -0.4424  0.8271 -0.1884
37006SOL     OW14294   3.693   8.348   0.971 -0.4494  0.5519  0.3178
37006SOL    HW114295   3.758   8.369   0.903 -1.0957  1.4017 -0.0513
37006SOL    HW214296   3.687   8.252   0.969  0.1152  0.5190 -0.2835
37007SOL     OW14297   5.952   0.922   8.935  0.2621 -0.0707  0.9482
37007SOL    HW114298   5.989   1.010   8.922  0.7161 -0.5355 -1.3007
37007SOL    HW214299   5.857   0.936   8.940  0.3563  0.5724  1.0399
37008SOL     OW14300   1.900   2.497   2.031  0.7376  0.4094 -0.2720
37008SOL    HW114301   1.826   2.440   2.010  0.6409  0.8269 -1.0924
37008SOL    HW214302   1.976   2.450   1.996  0.5112  1.3871 -2.1942
37009SOL     OW14303   7.939   1.880   4.029 -0.2552 -0.5940  0.2125
37009SOL    HW114304   7.883   1.935   4.084  0.4795 -0.7900  1.1740
37009SOL    HW214305   7.895   1.795   4.026 -1.2335 -0.0815 -1.0234
37010SOL     OW14306   0.898   0.588   6.723  0.0086 -0.5724  0.2166
37010SOL    HW114307   0.950   0.660   6.688 -2.5111  0.9970 -0.5556
37010SOL    HW214308   0.942   0.509   6.692  1.7283  0.6456 -0.6022
37011SOL     OW14309   7.681  10.568  10.570 -0.5317  0.1444 -0.2138
37011SOL    HW114310   7.588  10.571  10.591 -0.5983 -0.0295 -0.4786
37011SOL    HW214311   7.685  10.529  10.483 -0.1683 -0.5902  0.1203
37012SOL     OW14312  11.367   1.660   9.742  0.0969  0.2433 -0.2709
37012SOL    HW114313  11.351   1.598   9.671 -0.6297  1.0317 -0.8074
37012SOL    HW214314  11.291   1.717   9.743  0.8567  1.2895  0.0499
37013SOL     OW14315   3.971  11.326   1.494  0.2541 -0.1689 -0.3151
37013SOL    HW114316   3.922  11.351   1.416  1.7881 -0.0185 -1.2728
37013SOL    HW214317   3.983  11.408   1.542 -1.0912 -0.3344  0.3488
37014SOL     OW14318  10.429   7.522  10.380 -0.0813  0.6261  0.0873
37014SOL    HW114319  10.411   7.436  10.343 -0.4737 -0.0640  1.7942
37014SOL    HW214320  10.359   7.536  10.443 -0.4329  2.5315 -0.6668
37015SOL     OW14321   4.193  10.496  10.175 -0.6941 -0.1752 -0.0121
37015SOL    HW114322   4.223  10.574  10.222 -0.5268  0.0305 -0.4581
37015SOL    HW214323   4.167  10.529  10.089  2.1952 -1.0417 -1.3074
37016SOL     OW14324   7.045   5.491  10.939  0.0816  0.2279 -0.2977
37016SOL    HW114325   7.041   5.576  10.896  0.0469  0.8411  0.8785
37016SOL    HW214326   7.032   5.511  11.032  2.3884 -0.7999  0.3077
37017SOL     OW14327  10.631   7.270   8.895 -0.9999  0.2699  0.1999
37017SOL    HW114328  10.714   7.248   8.936 -0.2721  2.3806 -0.0446
37017SOL    HW214329  10.566   7.259   8.964 -0.2249  0.6689  1.0085
37018SOL     OW14330   2.036   6.235   0.869  0.4965  0.1230 -0.3143
37018SOL    HW114331   2.113   6.194   0.908 -0.6558 -0.5219  1.3866
37018SOL    HW214332   2.051   6.329   0.880  1.1836  0.0171 -0.2950
37019SOL     OW14333   0.496  11.187   8.586 -0.5148  0.1088 -0.3426
37019SOL    HW114334   0.586  11.160   8.605  0.1151  3.0366  1.6056
37019SOL    HW214335   0.443  11.141   8.651  0.1438  1.2648  1.0692
37020SOL     OW14336   8.451   8.748   7.362  0.2332  0.0283  0.2844
37020SOL    HW114337   8.414   8.670   7.322 -0.6181 -0.2039  1.4636
37020SOL    HW214338   8.393   8.819   7.335  0.4997  0.1144 -0.0712
37021SOL     OW14339   6.414   5.060   8.019 -0.6396  0.4697 -0.3712
37021SOL    HW114340   6.418   5.151   8.048 -2.0212 -0.1224  2.0105
37021SOL    HW214341   6.330   5.053   7.974 -1.0422  0.1778  0.3967
37022SOL     OW14342   0.604   9.418   8.375  0.3997  0.1357  0.2391
37022SOL    HW114343   0.512   9.419   8.349  0.2894  0.7674  0.6462
37022SOL    HW214344   0.638   9.335   8.341  0.1654  0.7419 -1.5587
37023SOL     OW14345   9.125  10.654   9.297 -0.1257 -0.2835  0.6984
37023SOL    HW114346   9.185  10.710   9.249 -1.7547 -0.4608 -1.7038
37023SOL    HW214347   9.101  10.704   9.375  2.2717  0.1876  1.2105
37024SOL     OW14348  11.397   9.804   0.112  0.1270  0.0795  0.0560
37024SOL    HW114349  11.319   9.853   0.085 -0.2149 -0.7286 -0.4416
37024SOL    HW214350  11.422   9.754   0.035  1.6070  0.9041 -0.0386
37025SOL     OW14351   3.581   8.146   4.288 -0.2981 -0.4960 -0.2354
37025SOL    HW114352   3.520   8.110   4.353 -0.8581  0.6942 -0.0873
37025SOL    HW214353   3.656   8.176   4.339 -0.9254  0.8348 -0.0794
37026SOL     OW14354   1.224  11.329   5.664 -0.0526 -0.5615  0.0825
37026SOL    HW114355   1.171  11.381   5.603 -0.3017  0.2571  0.9742
37026SOL    HW214356   1.257  11.393   5.727  0.3399 -1.3671  0.7040
37027SOL     OW14357   6.115   2.020   0.315 -0.1692  0.0994  0.0574
37027SOL    HW114358   6.186   1.958   0.298 -0.1193 -0.1653  1.1234
37027SOL    HW214359   6.159   2.105   0.325  0.0637 -0.1283  1.1110
37028SOL     OW14360   9.872  11.017   7.940  0.4633 -0.8103  0.0286
37028SOL    HW114361   9.806  11.018   8.010  0.7381  2.0846  0.3316
37028SOL    HW214362   9.823  10.994   7.861 -1.3471  2.5648 -0.0103
37029SOL     OW14363   8.389   4.699   7.515  0.3482 -0.0923  0.3130
37029SOL    HW114364   8.324   4.639   7.553  0.4128 -1.4377 -1.5890
37029SOL    HW214365   8.464   4.694   7.575 -0.2298 -0.7363  0.9923
37030SOL     OW14366   7.385   3.529   4.887 -0.0900 -0.5959 -0.1642
37030SOL    HW114367   7.313   3.492   4.837 -0.5885 -1.1812  0.9491
37030SOL    HW214368   7.371   3.624   4.883 -0.3077 -0.6542 -0.8313
37031SOL     OW14369   8.067   1.257   1.054 -0.5953  0.2495  0.5044
37031SOL    HW114370   7.990   1.310   1.069 -0.2084  0.1175  3.7482
37031SOL    HW214371   8.134   1.294   1.112  1.1207 -0.9710 -0.5705
37032SOL     OW14372   8.578   8.032   1.277 -0.0415 -0.1449  0.2227
37032SOL    HW114373   8.636   7.965   1.243  0.3069 -0.4413  1.3747
37032SOL    HW214374   8.555   8.002   1.365  1.4474  2.0028  1.4366
37033SOL     OW14375   5.246   2.465   0.509  0.9762 -0.2951 -0.4288
37033SOL    HW114376   5.285   2.378   0.498  2.1144  0.0147  0.8238
37033SOL    HW214377   5.314   2.526   0.479  0.3940  0.1702 -0.8050
37034SOL     OW14378   5.322   4.789   1.595  0.1159 -0.1407  0.2447
37034SOL    HW114379   5.277   4.873   1.607  0.1247  0.0428 -0.8420
37034SOL    HW214380   5.324   4.778   1.500  1.1871 -0.7955  0.3383
37035SOL     OW14381   2.097   5.811  10.874 -0.6058 -0.4862 -0.2376
37035SOL    HW114382   2.053   5.816  10.789  0.7830  1.3290 -0.9136
37035SOL    HW214383   2.163   5.743  10.862 -0.5751 -0.4066 -0.5206
37036SOL     OW14384   7.093   9.618   8.249 -0.0472 -0.2186 -0.1906
37036SOL    HW114385   7.106   9.578   8.335 -1.3218 -1.1622 -0.4082
37036SOL    HW214386   7.137   9.558   8.189 -1.5257 -1.0842 -0.4637
37037SOL     OW14387   6.220   3.821   8.429 -0.1604  0.2118 -0.4846
37037SOL    HW114388   6.160   3.823   8.504  0.2356  0.6038 -0.1697
37037SOL    HW214389   6.219   3.911   8.395  0.5104  0.3076 -0.2621
37038SOL     OW14390   6.492   7.816   4.980 -0.1817 -0.3076 -0.2009
37038SOL    HW114391   6.547   7.747   4.943 -0.4196 -1.0118  0.7259
37038SOL    HW214392   6.408   7.806   4.935 -0.7503 -1.7275  1.0850
37039SOL     OW14393   4.420   4.340   6.416 -0.3673  0.2618  0.3077
37039SOL    HW114394   4.479   4.409   6.389  0.6150 -0.7364 -0.1770
37039SOL    HW214395   4.477   4.266   6.438 -1.3388 -0.1769  1.5023
37040SOL     OW14396  10.111   6.763   7.089  0.0601  0.5550  0.2096
37040SOL    HW114397  10.139   6.852   7.064 -0.2395  0.2482 -1.3368
37040SOL    HW214398  10.016   6.763   7.075  0.2339 -0.3966 -1.1930
37041SOL     OW14399   8.274   4.118   0.579 -0.5408  0.0314  0.1940
37041SOL    HW114400   8.241   4.097   0.666 -0.9763  0.2127  0.0808
37041SOL    HW214401   8.353   4.170   0.594  0.2753 -1.2580  0.4704
37042SOL     OW14402   2.289   3.890   7.416 -0.5405  0.1160 -0.6615
37042SOL    HW114403   2.216   3.845   7.459  0.0825 -0.1726  0.1119
37042SOL    HW214404   2.272   3.983   7.433 -1.3057  0.1322 -1.4272
37043SOL     OW14405   9.114   4.734   8.774 -0.0611 -0.0406  0.3565
37043SOL    HW114406   9.118   4.782   8.857 -2.9472  0.0442  0.5362
37043SOL    HW214407   9.098   4.802   8.708  2.9909 -0.0006 -0.5009
37044SOL     OW14408   1.408   8.154   3.486  0.4827 -0.4431  0.0610
37044SOL    HW114409   1.346   8.098   3.534  0.3214  0.7875  1.3796
37044SOL    HW214410   1.372   8.242   3.496  0.2903 -0.1262 -2.6459
37045SOL     OW14411   4.510   1.313   5.004 -0.6305  0.4790 -0.1567
37045SOL    HW114412   4.471   1.333   4.919 -1.2315  0.1986  0.0475
37045SOL    HW214413   4.584   1.256   4.984 -0.6226  0.6110 -0.5095
37046SOL     OW14414   5.706   2.518   1.265  0.0597  0.1220 -0.0994
37046SOL    HW114415   5.646   2.589   1.243 -0.6680 -0.4304  0.0503
37046SOL    HW214416   5.680   2.446   1.207  0.5411 -0.1466  0.0099
37047SOL     OW14417  10.865   4.066   4.821 -0.1170  0.0617  0.9987
37047SOL    HW114418  10.902   4.072   4.733 -1.0405  1.1655  0.6628
37047SOL    HW214419  10.930   4.108   4.877 -0.0145  0.3497  0.6741
37048SOL     OW14420   2.054   7.097   4.323 -0.2251 -0.1741  0.9013
37048SOL    HW114421   2.078   7.005   4.334  1.8341  0.0940 -0.8486
37048SOL    HW214422   2.115   7.145   4.379 -1.3214  0.1974  1.8481
37049SOL     OW14423   2.912   5.504   0.008  0.6520 -0.2234  0.8424
37049SOL    HW114424   2.994   5.550   0.027  0.4317 -0.1720  1.6892
37049SOL    HW214425   2.844   5.564   0.037  0.2775  0.0251 -0.4921
37050SOL     OW14426   7.868   6.069   5.057 -0.1133 -0.5998  0.1442
37050SOL    HW114427   7.911   6.064   5.142 -2.2739  0.4437  1.3726
37050SOL    HW214428   7.940   6.087   4.995  1.1112  2.8304  2.2869
37051SOL     OW14429   1.031   7.517   9.878  0.5809 -0.8083  0.0510
37051SOL    HW114430   1.032   7.428   9.844 -1.3667 -0.7556 -0.2693
37051SOL    HW214431   0.987   7.510   9.963  1.8828 -0.3656  0.7848
37052SOL     OW14432   6.831   8.243   1.305  0.2298  0.2440 -0.5918
37052SOL    HW114433   6.845   8.280   1.392  1.8437 -0.2274 -0.6280
37052SOL    HW214434   6.742   8.207   1.309  0.2337  0.3364  0.8106
37053SOL     OW14435  11.111   2.604   8.272 -0.8001  0.4015  0.2514
37053SOL    HW114436  11.056   2.552   8.330 -1.0337 -1.1059 -1.2662
37053SOL    HW214437  11.102   2.563   8.186  1.5093  1.0134 -0.3580
37054SOL     OW14438   2.448   5.989   9.892  0.7273 -0.3025 -0.3726
37054SOL    HW114439   2.518   5.939   9.850 -0.1026 -0.4944 -1.5728
37054SOL    HW214440   2.374   5.928   9.896 -0.5575  0.9551 -2.5661
37055SOL     OW14441   9.122   1.006   8.176 -0.1926  0.0591  0.1164
37055SOL    HW114442   9.046   1.064   8.167  0.2079  0.5557 -0.1056
37055SOL    HW214443   9.178   1.051   8.239 -0.3295 -0.5726  0.6996
37056SOL     OW14444   7.592   4.720   7.882 -0.0751 -0.0823 -0.0802
37056SOL    HW114445   7.501   4.741   7.904  0.3554  0.1260  1.6262
37056SOL    HW214446   7.610   4.772   7.803 -1.3236  0.1113 -0.2651
37057SOL     OW14447   0.287   4.105  10.691 -0.3612  0.0656  0.4323
37057SOL    HW114448   0.340   4.155  10.754 -0.4466  2.3894 -1.1895
37057SOL    HW214449   0.278   4.164  10.617 -1.2141 -2.1377 -1.3132
37058SOL     OW14450  10.662   2.352   2.280  0.3791 -0.0320  0.2855
37058SOL    HW114451  10.705   2.266   2.289 -2.8532 -1.9533 -0.9029
37058SOL    HW214452  10.602   2.341   2.206  0.9612  3.8539 -0.9648
37059SOL     OW14453   2.857   4.358   3.325  0.1089  0.1119  0.1699
37059SOL    HW114454   2.903   4.279   3.352  0.3816  0.0595 -0.4479
37059SOL    HW214455   2.862   4.416   3.402 -0.1745 -0.4959  0.6530
37060SOL     OW14456   5.345  10.945   6.563 -0.3433 -0.0013  0.4558
37060SOL    HW114457   5.366  10.852   6.572 -2.0066 -0.4856 -0.3180
37060SOL    HW214458   5.430  10.989   6.557  0.4607 -1.4514  0.9601
37061SOL     OW14459  11.195   5.300   8.748 -0.6017  0.1382 -0.3791
37061SOL    HW114460  11.220   5.384   8.786 -2.4420  0.4683  0.1791
37061SOL    HW214461  11.277   5.250   8.746  0.0044  0.9105  1.9649
37062SOL     OW14462   0.946   4.360   6.039 -0.2345  0.1989 -0.4374
37062SOL    HW114463   0.856   4.326   6.039 -0.0046 -0.5407  1.3910
37062SOL    HW214464   0.983   4.331   5.955 -1.5840  0.2376 -1.0698
37063SOL     OW14465   1.575   8.876   8.354 -0.4857 -0.2630 -0.3236
37063SOL    HW114466   1.523   8.798   8.333 -1.4627  0.4406 -0.5626
37063SOL    HW214467   1.631   8.848   8.427 -0.7609 -1.2080 -0.4608
37064SOL     OW14468   4.868   2.241   0.259 -0.2488  0.1523 -0.3669
37064SOL    HW114469   4.869   2.232   0.164  0.0192 -0.8771 -0.2727
37064SOL    HW214470   4.846   2.154   0.292  2.9247 -0.4278  0.5993
37065SOL     OW14471   1.991  10.659   9.469  0.4400  0.4424  0.0048
37065SOL    HW114472   1.934  10.733   9.448 -0.3426 -0.2223 -0.2539
37065SOL    HW214473   1.938  10.581   9.452  0.9336 -0.1759  1.1570
37066SOL     OW14474   3.137   7.606   2.578 -0.3656  0.0187  0.0465
37066SOL    HW114475   3.221   7.652   2.573 -0.0083 -0.5557  0.5808
37066SOL    HW214476   3.105   7.605   2.488  1.7598 -2.5840 -0.8271
37067SOL     OW14477   2.187  10.984   7.195 -0.8171 -0.0128 -0.0059
37067SOL    HW114478   2.136  10.953   7.120  0.7391  2.2012 -2.0991
37067SOL    HW214479   2.122  11.022   7.254 -1.8279  0.7978 -1.5835
37068SOL     OW14480   5.221   3.872   4.544 -0.1263 -0.3406 -0.3549
37068SOL    HW114481   5.182   3.821   4.615 -2.7663 -1.0999 -2.2093
37068SOL    HW214482   5.252   3.952   4.587  0.5732 -1.7573  1.9856
37069SOL     OW14483   0.534  11.184   4.629  0.0139 -0.0140  0.1421
37069SOL    HW114484   0.604  11.231   4.675 -0.0518  0.5222 -0.3045
37069SOL    HW214485   0.484  11.252   4.585 -0.6510 -0.4169  0.2568
37070SOL     OW14486   0.148   5.827  10.072  0.5108 -0.3362  0.2412
37070SOL    HW114487   0.191   5.907  10.042 -1.3269  0.0526 -1.6429
37070SOL    HW214488   0.079   5.857  10.132 -1.0785 -0.2618 -1.5082
37071SOL     OW14489   1.263   1.390   4.983 -0.3120 -0.1511 -0.1469
37071SOL    HW114490   1.343   1.427   5.021  0.2925 -0.4765 -1.0617
37071SOL    HW214491   1.267   1.297   5.005  0.5903 -0.5597 -1.8489
37072SOL     OW14492   0.106   0.902   4.490  0.4490 -0.6099 -0.0506
37072SOL    HW114493   0.054   0.975   4.455  1.7942  0.4596  0.0920
37072SOL    HW214494   0.128   0.850   4.412 -0.3636 -0.7735 -0.1800
37073SOL     OW14495   7.318  10.733   7.760  0.5353  0.2050  0.4261
37073SOL    HW114496   7.362  10.656   7.796 -0.2757 -0.9328 -0.9021
37073SOL    HW214497   7.238  10.741   7.812  1.0991  0.7661  1.2169
37074SOL     OW14498   4.148   3.161  10.063  0.0114 -0.1278 -0.1804
37074SOL    HW114499   4.155   3.237  10.005 -1.9602 -0.1390 -0.5086
37074SOL    HW214500   4.212   3.098  10.029  0.8568  0.9388 -0.6017
37075SOL     OW14501   9.159   2.034   1.776 -0.1059  0.2903 -0.6845
37075SOL    HW114502   9.089   2.057   1.838 -0.1949 -0.4329 -0.5099
37075SOL    HW214503   9.239   2.067   1.818 -0.2844  0.7306 -0.6779
37076SOL     OW14504   3.230   0.763   7.423  0.3721 -0.4682  0.2735
37076SOL    HW114505   3.314   0.746   7.467  0.2384 -1.3661  0.2000
37076SOL    HW214506   3.253   0.814   7.346  0.9177 -1.1496 -0.0233
37077SOL     OW14507   4.666   8.541   3.280 -0.2545  0.2326 -0.2288
37077SOL    HW114508   4.755   8.517   3.304 -0.8354  0.7607  2.8786
37077SOL    HW214509   4.676   8.595   3.202  2.1366  0.1428 -0.0540
37078SOL     OW14510   9.820  10.527   4.115 -0.3265  0.0471  0.4646
37078SOL    HW114511   9.790  10.537   4.205 -1.6116 -0.0101  0.0597
37078SOL    HW214512   9.772  10.593   4.065 -0.1605 -0.3808 -0.2909
37079SOL     OW14513   2.495  10.244   0.298 -0.3072 -0.1647 -0.1568
37079SOL    HW114514   2.476  10.181   0.229 -0.3828 -0.9174  0.5315
37079SOL    HW214515   2.413  10.291   0.312 -0.1764  0.2850 -0.8610
37080SOL     OW14516   9.104   9.474   9.247 -0.0881  1.2825 -0.2048
37080SOL    HW114517   9.188   9.489   9.203  0.7323  1.0286  1.2030
37080SOL    HW214518   9.107   9.530   9.325 -0.1703 -0.4661  1.1384
37081SOL     OW14519   1.664   9.743   6.239 -0.1301  0.1591  0.3279
37081SOL    HW114520   1.669   9.719   6.147  1.0956 -1.8779  0.8646
37081SOL    HW214521   1.711   9.826   6.244 -0.2896  0.3409 -0.8788
37082SOL     OW14522   8.205   2.290   5.161  0.0425  0.2822  0.5373
37082SOL    HW114523   8.248   2.353   5.219 -0.9320  1.6062 -0.1447
37082SOL    HW214524   8.122   2.331   5.137  0.1939 -0.4301 -1.4113
37083SOL     OW14525  10.880   1.289  10.230  0.3083  0.2023  0.2944
37083SOL    HW114526  10.906   1.230  10.160 -0.7314  0.2851 -0.1816
37083SOL    HW214527  10.792   1.261  10.254 -0.5789  2.0459 -0.5335
37084SOL     OW14528   4.639   9.167  10.838 -0.3209 -0.2148  0.1090
37084SOL    HW114529   4.704   9.237  10.831  0.2204 -0.3818  2.5050
37084SOL    HW214530   4.671   9.098  10.780 -1.4828  1.8307 -3.2470
37085SOL     OW14531   7.559   1.698  10.876  0.0952  0.3934 -0.7116
37085SOL    HW114532   7.510   1.779  10.865  0.3186  0.5611 -0.4801
37085SOL    HW214533   7.579   1.694  10.969  1.2651  0.7653 -0.9327
37086SOL     OW14534   4.522   6.196   6.317  0.2969  0.2837  0.0915
37086SOL    HW114535   4.482   6.172   6.234 -2.1941 -1.7751  1.7458
37086SOL    HW214536   4.461   6.259   6.356  0.8143  0.3101  0.8936
37087SOL     OW14537   8.132   4.503  10.499 -0.1904 -0.5568 -0.4420
37087SOL    HW114538   8.062   4.438  10.489  0.3576 -1.5767  1.6963
37087SOL    HW214539   8.128   4.528  10.592  0.9020  0.9954 -0.7739
37088SOL     OW14540   6.815   8.442   4.459  0.1796 -0.3977  0.4025
37088SOL    HW114541   6.824   8.514   4.397  1.6610 -0.6081  0.3322
37088SOL    HW214542   6.722   8.440   4.480  0.0281  1.2176  0.0355
37089SOL     OW14543   3.061   3.890   6.359  0.1043 -0.3991 -0.4678
37089SOL    HW114544   3.051   3.939   6.441 -3.6884 -0.4402 -0.7275
37089SOL    HW214545   3.094   3.804   6.387  1.5466  0.4476  0.6172
37090SOL     OW14546   0.968   7.505   3.933 -0.3955  0.3559  0.5680
37090SOL    HW114547   0.986   7.576   3.995 -0.1834  1.9624 -1.2481
37090SOL    HW214548   0.965   7.426   3.988  1.7335  1.4098  2.3704
37091SOL     OW14549   8.067   0.149  10.881  0.2400 -0.1784  0.5439
37091SOL    HW114550   8.152   0.105  10.886  0.8382  0.9430  0.5725
37091SOL    HW214551   8.082   0.235  10.918 -0.5637  0.5622 -0.7694
37092SOL     OW14552   4.675   2.889   3.903  0.9221  0.1967 -0.2064
37092SOL    HW114553   4.671   2.807   3.952  0.2393  0.4700  0.2078
37092SOL    HW214554   4.765   2.892   3.870  1.4809  0.1068  1.2185
37093SOL     OW14555   3.897   4.294   2.729 -0.4074 -0.2031 -0.6046
37093SOL    HW114556   3.864   4.331   2.647 -0.4593 -0.0742 -0.5273
37093SOL    HW214557   3.981   4.254   2.706  0.2069  0.9492 -0.4820
37094SOL     OW14558   4.500   9.276   5.420  0.6494 -0.3511  0.3369
37094SOL    HW114559   4.502   9.333   5.343 -1.2471 -0.3706  0.2343
37094SOL    HW214560   4.507   9.337   5.494  0.3932 -0.1401  0.1902
37095SOL     OW14561   2.112  10.094   7.666  0.0326  0.0562  0.4541
37095SOL    HW114562   2.155  10.027   7.612  1.2382  0.3677  1.0147
37095SOL    HW214563   2.063  10.044   7.731 -0.6480 -0.3007 -0.3002
37096SOL     OW14564   8.323  10.648   5.155  0.2476 -0.1857 -0.0919
37096SOL    HW114565   8.369  10.711   5.101 -1.1317  0.2437 -0.8107
37096SOL    HW214566   8.304  10.575   5.097 -0.8072  0.0595 -0.0739
37097SOL     OW14567   3.145   9.124   0.030  0.1405  0.2735 -0.4868
37097SOL    HW114568   3.115   9.036   0.011  0.9436 -0.8409  2.7076
37097SOL    HW214569   3.068   9.169   0.065  0.0072  0.4887 -1.0441
37098SOL     OW14570   2.440  10.632   2.835  0.1373 -0.5251 -0.3240
37098SOL    HW114571   2.383  10.684   2.890 -0.2401 -2.5233  1.3072
37098SOL    HW214572   2.509  10.692   2.807 -0.2721  0.8155  1.4249
37099SOL     OW14573  11.367   6.610   2.809 -0.0051  0.1943 -0.3065
37099SOL    HW114574  11.357   6.630   2.902 -1.6994  0.2101 -0.4557
37099SOL    HW214575  11.384   6.516   2.805  3.0223  0.6134  0.1248
37100SOL     OW14576   3.661   0.020   5.024  0.0218  0.5655 -0.1299
37100SOL    HW114577   3.629  -0.015   4.941 -0.2130  1.2714 -0.3450
37100SOL    HW214578   3.718  -0.049   5.059 -0.6707 -0.1584 -0.3861
37101SOL     OW14579   7.798   5.284   8.885  0.4217 -0.3544 -0.2255
37101SOL    HW114580   7.758   5.237   8.813  1.2305 -0.0466 -0.8938
37101SOL    HW214581   7.724   5.318   8.936 -0.2008  1.0513 -1.9820
37102SOL     OW14582   2.235   8.575   7.943  0.2934  0.0370 -0.0318
37102SOL    HW114583   2.174   8.525   7.998  0.5742 -0.7057 -0.3928
37102SOL    HW214584   2.207   8.666   7.954 -1.9445 -0.3835 -1.4256
37103SOL     OW14585   0.220  10.260   6.302  0.3504  0.1888 -0.6763
37103SOL    HW114586   0.221  10.164   6.298 -0.0653  0.1902 -0.9028
37103SOL    HW214587   0.162  10.286   6.231  0.9350  0.6413 -0.9945
37104SOL     OW14588   4.101   5.007   3.936  0.3782 -0.2005  0.3059
37104SOL    HW114589   4.038   4.944   3.900  1.1563 -0.1692 -1.1900
37104SOL    HW214590   4.178   4.955   3.957  0.6867  0.1019 -0.0627
37105SOL     OW14591   3.345   4.650   3.506  0.1316  0.2278  0.7163
37105SOL    HW114592   3.298   4.674   3.426  0.6115  0.5543  0.5285
37105SOL    HW214593   3.330   4.556   3.516 -1.7452  0.5660  1.4317
37106SOL     OW14594   6.440   4.244   7.586 -0.0776  1.0410 -0.1335
37106SOL    HW114595   6.378   4.172   7.599 -0.1708  0.8555 -1.4810
37106SOL    HW214596   6.525   4.201   7.580  0.1158  1.2355  1.0334
37107SOL     OW14597   1.634   1.184   3.113  0.2217 -0.5165 -0.2821
37107SOL    HW114598   1.664   1.234   3.038 -2.6454 -0.6487 -1.6478
37107SOL    HW214599   1.591   1.249   3.169  0.4087 -0.7731  0.1631
37108SOL     OW14600   9.868   3.541   8.010 -0.4308 -0.1815 -0.1684
37108SOL    HW114601   9.961   3.558   7.996 -0.5284 -0.4351 -1.2150
37108SOL    HW214602   9.855   3.555   8.104  0.6088  0.0898 -0.0501
37109SOL     OW14603   6.480   2.219   0.080 -0.2836  0.0184  0.1568
37109SOL    HW114604   6.467   2.313   0.069 -0.5163 -0.0213  0.0879
37109SOL    HW214605   6.427   2.179   0.011  1.1511 -0.1129 -0.9087
37110SOL     OW14606   9.655   7.620   3.083 -0.4241  0.1617 -0.0294
37110SOL    HW114607   9.736   7.598   3.130  0.3167  1.5093 -0.6260
37110SOL    HW214608   9.661   7.714   3.069 -2.2793  0.3351  0.2075
37111SOL     OW14609  10.266   5.059   9.112  0.4302  0.0419  0.2986
37111SOL    HW114610  10.255   5.111   9.033  3.3116 -0.9532 -0.9306
37111SOL    HW214611  10.220   4.977   9.093  0.2213  0.2046  0.0941
37112SOL     OW14612  10.933   1.350  11.280  0.4704 -0.3219 -0.5617
37112SOL    HW114613  11.007   1.306  11.323  1.5533  0.6048 -1.3959
37112SOL    HW214614  10.941   1.442  11.308  1.0296  0.2443 -2.4554
37113SOL     OW14615   0.250   3.647   5.895  0.4359  0.2231  0.9778
37113SOL    HW114616   0.252   3.555   5.921 -1.1188  0.0956  0.7463
37113SOL    HW214617   0.214   3.646   5.806  2.2410  0.9351  0.1683
37114SOL     OW14618   3.091   9.854   6.146  0.0289 -0.6418 -0.2157
37114SOL    HW114619   3.114   9.783   6.085  0.1650 -1.7908  1.1096
37114SOL    HW214620   3.030   9.813   6.207  1.0305  0.0469  1.2928
37115SOL     OW14621   7.412   4.211   4.147 -0.2664 -0.1386 -0.2439
37115SOL    HW114622   7.474   4.274   4.184  1.3414 -1.9842  0.3614
37115SOL    HW214623   7.326   4.253   4.156  0.1774  0.2462  4.0986
37116SOL     OW14624   1.404   8.346  11.004 -0.5576 -0.2818  0.1957
37116SOL    HW114625   1.353   8.385  10.934  0.7155  1.7393  0.3339
37116SOL    HW214626   1.389   8.251  10.995 -1.8429  0.0532 -1.6309
37117SOL     OW14627   9.680   6.392   3.258  0.1650 -0.4513  0.3814
37117SOL    HW114628   9.768   6.411   3.289 -0.0898  0.0068  0.8466
37117SOL    HW214629   9.625   6.456   3.303 -0.5793 -1.5763  1.1350
37118SOL     OW14630  10.288   7.685  10.204 -0.2834 -0.0704  0.6436
37118SOL    HW114631  10.350   7.676  10.277 -1.4140 -1.6686  1.4585
37118SOL    HW214632  10.202   7.684  10.246 -0.9431 -0.6917 -0.6799
37119SOL     OW14633   6.077  10.296   0.764 -0.3229  0.5755 -0.1289
37119SOL    HW114634   6.094  10.247   0.844 -0.4110 -0.8483 -0.9453
37119SOL    HW214635   5.983  10.309   0.763 -0.5229 -0.7650 -0.7289
37120SOL     OW14636   0.604   8.724  10.522  0.1542 -0.2160  0.0983
37120SOL    HW114637   0.635   8.798  10.575 -3.2426 -0.4063  2.6776
37120SOL    HW214638   0.611   8.756  10.432 -2.1533  3.8630  1.0904
37121SOL     OW14639   2.084   7.323   5.639 -0.1656 -0.1148 -0.2170
37121SOL    HW114640   2.123   7.332   5.552  0.5668 -1.2830 -0.0388
37121SOL    HW214641   2.154   7.287   5.692 -0.3294  1.3976  1.1008
37122SOL     OW14642   7.148   8.971   6.214 -0.1592  0.4942  0.4976
37122SOL    HW114643   7.231   8.951   6.170  0.6233  0.8054  1.7725
37122SOL    HW214644   7.123   8.889   6.256  0.1174  0.7052  1.0796
37123SOL     OW14645   4.456   2.795   8.943 -0.6452 -0.4276 -0.0469
37123SOL    HW114646   4.538   2.820   8.900 -0.2638 -0.8432  0.4223
37123SOL    HW214647   4.445   2.859   9.013 -1.1610  0.1280 -0.6301
37124SOL     OW14648   2.849  10.361   9.038  0.4283  0.0854 -0.3036
37124SOL    HW114649   2.856  10.399   8.950  2.0644 -0.9379 -0.6538
37124SOL    HW214650   2.938  10.361   9.071  0.3413 -2.3277  0.1356
37125SOL     OW14651   5.671   4.744  10.264  0.0977 -0.2314 -0.8185
37125SOL    HW114652   5.581   4.769  10.282  0.8467  1.0360  1.6489
37125SOL    HW214653   5.691   4.675  10.327  0.8827 -0.4922 -1.3239
37126SOL     OW14654   3.572  11.373   8.155 -0.1448  0.2371 -0.1928
37126SOL    HW114655   3.635  11.444   8.142 -0.0884  0.2156 -0.0366
37126SOL    HW214656   3.582  11.316   8.079 -0.5196  0.6460 -0.5514
37127SOL     OW14657   8.266   5.926   7.770 -0.0451  0.2354 -0.7273
37127SOL    HW114658   8.284   5.945   7.678 -1.0505 -1.4044 -1.3225
37127SOL    HW214659   8.297   5.836   7.781  0.5724  0.6107  0.7037
37128SOL     OW14660   2.830  10.407   4.911 -0.0075  0.3806  0.3647
37128SOL    HW114661   2.799  10.491   4.944 -0.2027  0.3178  0.3404
37128SOL    HW214662   2.751  10.362   4.882  0.3911  1.6000 -3.0387
37129SOL     OW14663  10.662   1.156   4.960 -0.4450 -0.0418  0.1343
37129SOL    HW114664  10.694   1.225   4.903 -3.0213 -0.4289 -1.9840
37129SOL    HW214665  10.610   1.202   5.027 -1.6621  0.1805 -0.9230
37130SOL     OW14666   1.304   2.052   7.531 -0.4997 -0.2884 -0.3988
37130SOL    HW114667   1.355   2.051   7.450  1.3891 -1.1177  0.7535
37130SOL    HW214668   1.239   1.982   7.519  0.7025 -1.3953 -0.6602
37131SOL     OW14669   3.902   6.104   0.027 -0.0652  0.4122 -0.1672
37131SOL    HW114670   3.845   6.088  -0.047  0.1926 -1.0783 -0.0674
37131SOL    HW214671   3.929   6.195   0.017 -1.7230  0.8845 -0.7060
37132SOL     OW14672   8.865   4.288  11.326  0.3663 -0.1375 -0.2928
37132SOL    HW114673   8.943   4.308  11.376 -1.0274  1.3177  1.4318
37132SOL    HW214674   8.870   4.346  11.250  0.3023  0.9615  0.5275
37133SOL     OW14675   0.743   8.798   2.250 -0.1116 -0.0032  0.5308
37133SOL    HW114676   0.676   8.740   2.215 -0.3713  0.4940  0.1791
37133SOL    HW214677   0.824   8.748   2.246 -0.4578 -0.6031  0.9440
37134SOL     OW14678   3.882   8.068   4.573 -0.1977  0.0301 -0.0513
37134SOL    HW114679   3.951   8.004   4.555 -0.2579 -0.3558  1.0186
37134SOL    HW214680   3.912   8.114   4.651 -1.4971 -0.6592  0.8816
37135SOL     OW14681   2.835   9.254   2.877  0.3971 -0.2616 -0.0462
37135SOL    HW114682   2.763   9.200   2.910  1.2593 -1.0163  0.6665
37135SOL    HW214683   2.878   9.287   2.956  0.4247  0.7540 -0.4716
37136SOL     OW14684   6.414   5.342   1.542 -0.2922 -0.0255  0.0978
37136SOL    HW114685   6.504   5.355   1.514 -0.4504 -0.5561 -0.6670
37136SOL    HW214686   6.417   5.354   1.637  0.9104 -1.7532  0.3182
37137SOL     OW14687   6.755   6.322   9.488  0.3488 -0.2921 -0.3027
37137SOL    HW114688   6.707   6.377   9.427 -0.3500 -0.2800  0.2416
37137SOL    HW214689   6.689   6.263   9.524  1.1518 -1.7966 -1.1961
37138SOL     OW14690   9.456  11.305   4.498 -0.2515 -0.3671  0.5340
37138SOL    HW114691   9.451  11.358   4.578 -2.1661 -0.3665  0.4454
37138SOL    HW214692   9.536  11.335   4.455 -0.9059  2.0038  0.8229
37139SOL     OW14693   5.443  10.698   8.075 -0.1552 -1.0045  0.9678
37139SOL    HW114694   5.490  10.701   8.158  0.6953 -1.1783  0.4953
37139SOL    HW214695   5.352  10.716   8.099  0.3740  1.0206  1.6893
37140SOL     OW14696   0.800   6.498   8.029  0.0635 -0.4042  1.1888
37140SOL    HW114697   0.737   6.548   8.080 -1.6978 -0.4976 -0.7817
37140SOL    HW214698   0.803   6.413   8.073  0.4750  0.2769  2.5437
37141SOL     OW14699   0.437   5.415   2.062 -0.0830 -0.2924  0.0885
37141SOL    HW114700   0.366   5.355   2.038 -0.9708  0.6842  0.1933
37141SOL    HW214701   0.464   5.386   2.149 -2.0660  0.8169  1.1419
37142SOL     OW14702   7.762   3.642   0.301 -0.3630 -0.0438  0.5790
37142SOL    HW114703   7.742   3.616   0.211 -1.8202  1.4813  0.4106
37142SOL    HW214704   7.676   3.654   0.341  0.2433 -1.5507  2.4698
37143SOL     OW14705  11.032   8.153  10.103 -0.0890 -0.3080 -0.5769
37143SOL    HW114706  11.066   8.224  10.050 -1.2745 -0.3117 -1.3827
37143SOL    HW214707  10.937   8.158  10.093 -0.2935 -0.9316  0.7517
37144SOL     OW14708   4.912   9.367   3.461  0.5898  0.1066  0.0015
37144SOL    HW114709   4.854   9.439   3.486 -1.2989 -0.4734 -2.3405
37144SOL    HW214710   5.000   9.398   3.485 -0.1616  3.1123 -0.6647
37145SOL     OW14711   3.985   3.142   4.082  0.2751 -0.2105  0.0303
37145SOL    HW114712   4.015   3.152   4.172 -0.8652 -2.1951  0.6824
37145SOL    HW214713   3.974   3.048   4.070  1.0583 -0.0755 -2.4363
37146SOL     OW14714   9.102   3.138   2.446  0.4411  0.0729 -0.0172
37146SOL    HW114715   9.150   3.210   2.487 -1.4413  0.7100  1.2487
37146SOL    HW214716   9.026   3.181   2.407 -0.2103 -1.1174 -0.0926
37147SOL     OW14717   6.815   5.143   6.641 -0.3694 -0.3122 -0.6879
37147SOL    HW114718   6.747   5.210   6.651  0.5687  0.7811 -1.2643
37147SOL    HW214719   6.769   5.060   6.648 -1.7677  0.3907 -1.1617
37148SOL     OW14720   8.408   8.080   4.183  0.3853  0.0332  0.5062
37148SOL    HW114721   8.492   8.057   4.222  0.8174 -1.1870 -1.0100
37148SOL    HW214722   8.342   8.053   4.247  1.0337 -2.4558  0.2335
37149SOL     OW14723  10.471   9.052   8.412  0.2364  0.2176  0.3791
37149SOL    HW114724  10.379   9.069   8.393  0.5816  0.1107 -1.5578
37149SOL    HW214725  10.476   8.957   8.422  0.5415 -0.0850 -2.1784
37150SOL     OW14726   9.354   9.802  10.429  0.4855  0.7401 -0.3488
37150SOL    HW114727   9.386   9.723  10.386 -0.0446  0.5764 -0.4449
37150SOL    HW214728   9.334   9.775  10.519  0.7010  0.8634 -0.2634
37151SOL     OW14729   0.491   5.700   7.264  0.7392  0.0339 -0.0064
37151SOL    HW114730   0.444   5.664   7.339  0.3422  0.2262 -0.1582
37151SOL    HW214731   0.552   5.631   7.238  0.2483 -0.3827 -0.0660
37152SOL     OW14732   9.864   7.065  10.488  0.0646 -0.1112 -0.5568
37152SOL    HW114733   9.928   7.094  10.552  0.0679 -1.4736  0.1101
37152SOL    HW214734   9.803   7.011  10.538  0.0085 -1.1365 -1.6700
37153SOL     OW14735   9.941   7.768   2.645  1.2491 -0.8748 -0.0030
37153SOL    HW114736   9.858   7.732   2.676  1.5368 -1.7289 -0.1944
37153SOL    HW214737   9.989   7.790   2.726  0.8315 -0.3460  0.1060
37154SOL     OW14738  10.663  10.778   4.234  0.4073 -0.1839 -0.7384
37154SOL    HW114739  10.671  10.715   4.162  3.2473 -1.2589  0.3785
37154SOL    HW214740  10.668  10.725   4.313 -1.2898  1.1056  0.3059
37155SOL     OW14741  10.412   6.568   2.296 -0.1510 -0.0811  0.1222
37155SOL    HW114742  10.391   6.645   2.348  0.6176  0.1946  0.0339
37155SOL    HW214743  10.506   6.555   2.308 -0.5187 -2.0280  1.5355
37156SOL     OW14744   1.855   5.942   1.578 -0.1719 -0.1251  0.2952
37156SOL    HW114745   1.915   5.874   1.608 -0.1720 -0.6545 -0.8679
37156SOL    HW214746   1.768   5.908   1.600 -0.1141  0.1122  0.9155
37157SOL     OW14747   3.655   6.878   0.696 -0.0689 -0.0889 -0.3484
37157SOL    HW114748   3.644   6.894   0.602  0.7093  0.1460 -0.4088
37157SOL    HW214749   3.617   6.955   0.738  1.6365  0.9238 -0.5642
37158SOL     OW14750   0.596   3.738   6.540  0.5217  0.2310 -0.5293
37158SOL    HW114751   0.553   3.821   6.517 -0.6286 -0.0108  0.6181
37158SOL    HW214752   0.534   3.671   6.513  0.3206 -0.1412  0.7773
37159SOL     OW14753   6.337   8.631   9.086  0.3632 -0.4333  0.2731
37159SOL    HW114754   6.294   8.682   9.017 -0.0323 -1.5425 -0.3162
37159SOL    HW214755   6.414   8.683   9.108 -1.3220  1.7328  1.5059
37160SOL     OW14756  10.853   6.507   8.935  0.1999 -0.1246 -0.3029
37160SOL    HW114757  10.870   6.600   8.948  0.4375 -0.1666 -0.3114
37160SOL    HW214758  10.780   6.488   8.993  0.0233  0.1101 -0.4457
37161SOL     OW14759   6.188   3.587   8.988  0.6068 -0.4975  0.3466
37161SOL    HW114760   6.148   3.572   9.074  1.5849  1.4996  1.1940
37161SOL    HW214761   6.130   3.650   8.945  0.9965 -0.2643  0.1665
37162SOL     OW14762   7.070   1.326  10.821 -0.3394 -0.1104 -0.2504
37162SOL    HW114763   7.065   1.289  10.909  3.3713 -1.1541 -0.2922
37162SOL    HW214764   6.993   1.292  10.776 -1.3855 -1.0181  2.0637
37163SOL     OW14765   7.830  10.690   4.570 -0.0431 -0.3584  0.3234
37163SOL    HW114766   7.757  10.629   4.556  0.0372 -0.1196 -1.3469
37163SOL    HW214767   7.790  10.777   4.561  0.1693 -0.1986  0.9063
37164SOL     OW14768   3.725   9.997   5.089 -0.4866 -0.3699  1.1078
37164SOL    HW114769   3.632   9.979   5.099 -0.9575  0.6635 -0.8290
37164SOL    HW214770   3.757   9.926   5.032 -0.3288 -0.1730  0.9446
37165SOL     OW14771   6.804   4.452   7.562 -0.1807 -0.3866 -0.1515
37165SOL    HW114772   6.884   4.503   7.576 -1.0512  0.6004  1.6948
37165SOL    HW214773   6.774   4.477   7.475  0.0461  1.3968  0.2527
37166SOL     OW14774   6.462   7.158   9.711  0.2238  0.0103  0.1320
37166SOL    HW114775   6.537   7.192   9.662  1.0851 -1.1973  0.5450
37166SOL    HW214776   6.481   7.065   9.722 -0.3449  0.0660  1.9955
37167SOL     OW14777  10.921   3.712   5.300  0.4454 -0.2808  0.6529
37167SOL    HW114778  10.978   3.677   5.232  0.9630  1.2724  0.2445
37167SOL    HW214779  10.900   3.800   5.271 -1.4618 -0.4967  1.2458
37168SOL     OW14780   6.993  10.418   6.771  0.3012  0.5241  0.2243
37168SOL    HW114781   7.013  10.415   6.678 -0.8600  0.6495 -0.0402
37168SOL    HW214782   6.956  10.505   6.785 -0.7715  0.0317  0.5314
37169SOL     OW14783   0.075   5.316   5.908 -0.0352 -0.4088 -0.1407
37169SOL    HW114784   0.110   5.342   5.994  1.1952  2.9497 -1.4995
37169SOL    HW214785   0.106   5.226   5.897 -0.3091 -1.0143  2.9228
37170SOL     OW14786   2.938   9.865   4.065  0.1704  0.4056  0.0998
37170SOL    HW114787   2.886   9.792   4.033 -0.0290  1.1215 -1.2773
37170SOL    HW214788   2.946   9.849   4.159  0.9106 -1.8640 -0.2814
37171SOL     OW14789  10.077   6.627   6.463  0.1652 -0.1060 -0.0948
37171SOL    HW114790   9.993   6.647   6.505 -0.8549 -1.7557 -1.2423
37171SOL    HW214791  10.075   6.675   6.380  1.2767  1.4699  0.7378
37172SOL     OW14792   1.735   6.124   5.974  0.4521  0.5714 -0.4842
37172SOL    HW114793   1.720   6.032   5.952  3.3404 -0.1206 -0.0135
37172SOL    HW214794   1.737   6.126   6.069  3.3204  0.4343 -0.4500
37173SOL     OW14795   3.729   3.629   5.792  0.1061  0.0475  0.2765
37173SOL    HW114796   3.751   3.536   5.785 -0.7825 -0.1831  0.4802
37173SOL    HW214797   3.806   3.674   5.756  1.0803 -0.7108  1.3360
37174SOL     OW14798   0.315   6.376   8.586 -0.2516 -0.4963 -0.1753
37174SOL    HW114799   0.338   6.284   8.600  0.3519 -0.3867 -0.3969
37174SOL    HW214800   0.342   6.420   8.667 -1.5328 -0.6776  0.3635
37175SOL     OW14801   2.056   5.485   1.842  0.6930 -0.6528  0.4917
37175SOL    HW114802   2.087   5.523   1.924  0.9830 -4.0546  2.1237
37175SOL    HW214803   1.964   5.464   1.859  0.3083  0.0356 -0.6594
37176SOL     OW14804   6.010   5.993   8.807 -0.4117  0.3849  0.2395
37176SOL    HW114805   6.016   6.088   8.813  1.0548  0.6428 -2.9318
37176SOL    HW214806   6.101   5.963   8.804 -0.8403 -0.9619 -0.0459
37177SOL     OW14807   2.471   2.528   5.824 -0.1022 -0.3749 -0.0482
37177SOL    HW114808   2.558   2.566   5.809  0.1294 -1.0820 -0.5773
37177SOL    HW214809   2.421   2.598   5.865  0.4740  0.3164 -0.4918
37178SOL     OW14810   7.806   7.648   5.675  0.1576  0.8079 -0.2522
37178SOL    HW114811   7.868   7.614   5.740 -0.9282 -2.5140 -0.7660
37178SOL    HW214812   7.836   7.611   5.592 -2.2659 -0.7345 -0.5516
37179SOL     OW14813   3.587   1.369   6.732 -0.0654 -0.7147  0.2449
37179SOL    HW114814   3.612   1.453   6.770  2.2748  0.3488 -3.1216
37179SOL    HW214815   3.568   1.313   6.807 -2.0197  2.7977  2.6506
37180SOL     OW14816   4.738   4.010   7.611  0.3362 -0.9042 -0.4600
37180SOL    HW114817   4.749   4.098   7.575 -1.6372 -0.0115  0.9093
37180SOL    HW214818   4.813   3.998   7.669  0.2229  0.2091 -0.0596
37181SOL     OW14819   5.388  10.501   5.057  0.0191  0.3663  0.0434
37181SOL    HW114820   5.354  10.458   5.135 -0.6962  0.7302 -0.0629
37181SOL    HW214821   5.473  10.460   5.042 -0.7333 -1.1627 -0.1960
37182SOL     OW14822   0.420   4.983  10.054  0.2191  0.0205  0.4942
37182SOL    HW114823   0.384   5.035  10.126 -1.2697  0.3820 -0.4793
37182SOL    HW214824   0.451   5.048   9.991 -4.0236  0.0037 -1.9578
37183SOL     OW14825   4.140   7.275   5.376 -0.4713  0.0877  0.1582
37183SOL    HW114826   4.095   7.350   5.338 -1.3838 -0.6571 -0.2702
37183SOL    HW214827   4.226   7.275   5.333 -0.6752  0.5443 -0.2693
37184SOL     OW14828   2.719   7.182   8.141 -0.1996 -0.0807  0.0504
37184SOL    HW114829   2.644   7.228   8.102  1.3354  3.3568  0.8238
37184SOL    HW214830   2.691   7.164   8.231 -0.0680  1.4203  0.4160
37185SOL     OW14831   6.743   1.825   4.243 -0.0591  0.7670 -0.1938
37185SOL    HW114832   6.705   1.871   4.168 -0.6532 -0.5714 -0.7248
37185SOL    HW214833   6.689   1.852   4.318  0.1162  1.5716 -0.3433
37186SOL     OW14834   0.491   3.437   3.338 -0.0734  0.3728 -0.2436
37186SOL    HW114835   0.458   3.422   3.249  0.9383  2.8754 -1.1408
37186SOL    HW214836   0.412   3.444   3.391 -0.6824 -1.8228 -0.7725
37187SOL     OW14837   5.096   5.799   9.387  0.0897  0.1435 -0.0823
37187SOL    HW114838   5.024   5.775   9.328  0.2489  0.2981 -0.3380
37187SOL    HW214839   5.094   5.732   9.455 -1.1979  0.9244  0.6869
37188SOL     OW14840   5.888   9.170   7.921  0.1258 -0.4329  0.9604
37188SOL    HW114841   5.830   9.154   7.847  0.5486  1.3463  0.2012
37188SOL    HW214842   5.958   9.105   7.912  1.3872  1.1480 -1.5441
37189SOL     OW14843   8.277   6.000   4.539  0.2001 -0.3851 -0.2329
37189SOL    HW114844   8.327   6.010   4.458 -0.2076  1.0856 -0.3295
37189SOL    HW214845   8.342   5.972   4.604  0.8759  0.1499 -0.6689
37190SOL     OW14846   1.926   3.744   1.745 -0.3566 -0.2848 -0.6220
37190SOL    HW114847   1.970   3.663   1.719 -0.0358  0.4661 -2.5557
37190SOL    HW214848   1.875   3.770   1.669 -1.6146  0.5875  0.4725
37191SOL     OW14849   7.204   2.898   4.066  0.1850 -0.7248  0.5941
37191SOL    HW114850   7.278   2.847   4.033 -1.3047 -2.9136  0.4417
37191SOL    HW214851   7.127   2.862   4.022 -0.9056  2.5111 -0.4535
37192SOL     OW14852   3.839   6.020   4.767 -0.5278 -0.3780 -0.0931
37192SOL    HW114853   3.910   6.047   4.824  0.5806  0.2677 -1.7129
37192SOL    HW214854   3.775   6.091   4.772 -0.4336 -0.3220  0.3283
37193SOL     OW14855  11.336   5.622   1.173  0.2446 -0.2200 -0.2075
37193SOL    HW114856  11.342   5.679   1.250  1.4329 -3.1362  2.0950
37193SOL    HW214857  11.427   5.603   1.150 -0.0921 -1.6550 -0.4557
37194SOL     OW14858   6.338   7.705   3.945 -0.1599  0.6056 -0.7150
37194SOL    HW114859   6.386   7.755   4.012  1.5704 -0.0535 -1.4067
37194SOL    HW214860   6.264   7.666   3.993  0.4022  1.0529  0.5726
37195SOL     OW14861   5.418   4.686   0.267 -0.3982 -0.7482 -0.4781
37195SOL    HW114862   5.358   4.756   0.241 -0.2376 -0.3074  0.2784
37195SOL    HW214863   5.440   4.641   0.186  0.2688  0.6961 -1.1361
37196SOL     OW14864   0.341   9.869   2.839  0.2212 -0.0492  0.3617
37196SOL    HW114865   0.364   9.817   2.762 -2.4213  0.5729 -0.9651
37196SOL    HW214866   0.382   9.824   2.912  0.6380 -2.1867 -1.1099
37197SOL     OW14867   4.618   4.465   6.257 -0.0544 -0.1750  0.4063
37197SOL    HW114868   4.677   4.535   6.286 -0.5063  0.5780 -0.4174
37197SOL    HW214869   4.670   4.385   6.265  1.9318  0.6546 -2.3239
37198SOL     OW14870   1.824   7.814   8.449  0.1088 -0.0443 -0.0379
37198SOL    HW114871   1.791   7.838   8.536  0.7887  2.5569 -0.4213
37198SOL    HW214872   1.918   7.802   8.462  0.1230 -0.2008 -0.2944
37199SOL     OW14873   9.364   3.156  10.550  0.3096  0.1400 -0.1000
37199SOL    HW114874   9.408   3.128  10.629  0.2911  0.9282  0.2028
37199SOL    HW214875   9.343   3.249  10.566 -0.7857 -0.0185 -0.5232
37200SOL     OW14876  10.338   4.451   0.880 -0.1904 -0.2095  0.0367
37200SOL    HW114877  10.371   4.505   0.951 -0.8771  0.4598 -0.1318
37200SOL    HW214878  10.242   4.455   0.890 -0.4328  1.7569 -2.2074
37201SOL     OW14879   6.368   9.943   9.946  0.1111  0.0024 -0.0818
37201SOL    HW114880   6.287   9.957   9.996  1.3769  2.2423  1.5222
37201SOL    HW214881   6.422   9.888  10.003  0.4509  0.1615 -0.2454
37202SOL     OW14882   9.941  11.100   6.665 -0.1211 -0.0427  0.0283
37202SOL    HW114883   9.942  11.155   6.743 -0.5950 -0.1969  0.1511
37202SOL    HW214884  10.020  11.046   6.672  1.0713  1.5180 -0.7683
37203SOL     OW14885   1.532   3.852   9.396  0.5474 -0.0965  0.6626
37203SOL    HW114886   1.601   3.895   9.346 -0.6220  1.4034  0.2341
37203SOL    HW214887   1.460   3.841   9.333  0.4248 -1.7759  1.0459
37204SOL     OW14888   4.075  10.420   2.136  0.3976 -0.2021 -0.0061
37204SOL    HW114889   4.078  10.357   2.207 -0.1158 -0.3538 -0.1156
37204SOL    HW214890   3.984  10.452   2.136  0.6436  0.5252  0.0433
37205SOL     OW14891   8.065   6.609   3.893 -1.0317  0.2585  0.0944
37205SOL    HW114892   8.160   6.596   3.901 -1.1949 -1.1585 -0.0542
37205SOL    HW214893   8.044   6.578   3.805 -1.6742  0.3945  0.1944
37206SOL     OW14894   0.195   3.190   4.015 -0.0584 -0.0432  0.0342
37206SOL    HW114895   0.235   3.192   4.102 -0.7407 -1.5401  0.4050
37206SOL    HW214896   0.268   3.167   3.957  0.0217 -0.8880  0.4583
37207SOL     OW14897   0.116  10.303   8.898 -0.3022  0.8711 -0.3795
37207SOL    HW114898   0.069  10.225   8.868 -1.4242  1.5444 -0.4634
37207SOL    HW214899   0.124  10.292   8.992 -0.0671  0.4497 -0.4482
37208SOL     OW14900  11.317   9.890   7.118  0.5216 -0.0347  0.1301
37208SOL    HW114901  11.398   9.884   7.169  1.3333 -0.5346 -1.1499
37208SOL    HW214902  11.320   9.976   7.077  2.1888 -1.2842 -2.6477
37209SOL     OW14903   6.907   1.024   0.276  0.2664 -0.0150  0.5092
37209SOL    HW114904   6.924   1.107   0.320 -2.1258  0.8156 -0.0129
37209SOL    HW214905   6.865   1.048   0.193  0.8368 -1.7047 -0.3283
37210SOL     OW14906   0.719   2.610  10.683 -0.0734 -0.0673  0.0908
37210SOL    HW114907   0.692   2.699  10.706 -0.5411 -0.6909  2.1591
37210SOL    HW214908   0.685   2.596  10.595 -0.7259  1.5071  0.0759
37211SOL     OW14909   3.832   4.255   6.560  0.4315  0.1999  0.3167
37211SOL    HW114910   3.901   4.221   6.502  1.4152  1.5794  0.6116
37211SOL    HW214911   3.855   4.348   6.572 -2.0774  0.9873 -0.4124
37212SOL     OW14912   0.281   7.640  10.612  0.0810  0.3362 -0.8847
37212SOL    HW114913   0.356   7.611  10.561  0.1557 -0.5883 -0.2665
37212SOL    HW214914   0.212   7.577  10.590  0.2064 -0.2544  0.3763
37213SOL     OW14915   0.790   2.729   7.993  1.2691  0.4766  0.0874
37213SOL    HW114916   0.775   2.697   8.082 -2.1906 -1.3677 -0.9987
37213SOL    HW214917   0.864   2.677   7.961  0.6779 -0.9151  0.9321
37214SOL     OW14918   7.316   0.446   8.000 -0.8487 -0.2548 -0.3041
37214SOL    HW114919   7.365   0.492   7.932 -1.2349  0.7707  0.0907
37214SOL    HW214920   7.382   0.426   8.067 -1.2023  2.9346  1.1894
37215SOL     OW14921   6.023   6.402   7.164  0.8855  0.1853  0.2404
37215SOL    HW114922   6.094   6.460   7.194  2.0239 -1.4233  0.7985
37215SOL    HW214923   5.991   6.444   7.084  2.2324  1.1632  0.1621
37216SOL     OW14924  11.367   7.109  10.099  0.7596 -0.2781  0.7413
37216SOL    HW114925  11.340   7.170  10.030  0.8097 -0.2549  0.7417
37216SOL    HW214926  11.427   7.160  10.153  3.5068 -1.2250 -1.1371
37217SOL     OW14927   6.298   0.930   9.802  0.3949 -0.0744 -0.0010
37217SOL    HW114928   6.281   0.882   9.721  0.6740  0.3613 -0.3189
37217SOL    HW214929   6.223   0.910   9.858  1.3346 -2.3701  0.5836
37218SOL     OW14930  11.023   5.157   2.124  0.2696  0.2694 -0.0094
37218SOL    HW114931  10.975   5.143   2.042  0.9811 -2.6229 -0.0224
37218SOL    HW214932  11.115   5.146   2.100  0.6383  1.3726  0.8348
37219SOL     OW14933  10.481   1.941   3.550  0.0043 -0.2373  0.0843
37219SOL    HW114934  10.482   1.989   3.633 -0.7671 -0.2570  0.1095
37219SOL    HW214935  10.570   1.906   3.542 -0.0400 -0.6418  1.1502
37220SOL     OW14936   4.076   0.159   9.902 -0.0389 -0.2521  0.0238
37220SOL    HW114937   4.087   0.103   9.979  0.2814 -0.5492 -0.2351
37220SOL    HW214938   4.046   0.243   9.938  0.8185 -0.1553  0.5566
37221SOL     OW14939   7.463   1.629   6.774 -0.1073 -0.5934 -0.0739
37221SOL    HW114940   7.512   1.643   6.855  0.7160 -2.3919 -0.2120
37221SOL    HW214941   7.424   1.714   6.755  0.6350  0.1696  1.5769
37222SOL     OW14942   1.478   1.592   7.854 -0.3938  0.2342  0.2783
37222SOL    HW114943   1.479   1.603   7.949 -1.0786 -1.9889  0.5891
37222SOL    HW214944   1.568   1.610   7.827 -0.0760  0.4232  1.4151
37223SOL     OW14945   7.440   5.272   6.832 -0.0950  0.1761 -0.2693
37223SOL    HW114946   7.423   5.326   6.754 -0.5966  1.6270  0.8092
37223SOL    HW214947   7.503   5.323   6.883 -0.8225 -0.1131  0.9322
37224SOL     OW14948   7.595   5.925   8.240 -0.4115  0.0995  0.2786
37224SOL    HW114949   7.509   5.944   8.279 -0.5592 -1.0632  0.5509
37224SOL    HW214950   7.658   5.966   8.300 -0.7402  0.1847  0.5654
37225SOL     OW14951   9.288   3.741   3.245 -0.1168  0.3784 -0.6262
37225SOL    HW114952   9.310   3.831   3.220 -1.1876  0.6787 -0.5153
37225SOL    HW214953   9.251   3.748   3.333  1.8628 -0.4597  0.3522
37226SOL     OW14954   3.527   1.197   3.941 -0.1915  0.0326  0.5971
37226SOL    HW114955   3.454   1.245   3.903  0.1461  0.6699  0.7183
37226SOL    HW214956   3.585   1.266   3.975  1.2755 -0.3665 -0.9587
37227SOL     OW14957   2.130   8.504   1.289 -0.3546  0.4979 -0.0315
37227SOL    HW114958   2.037   8.485   1.280 -0.6433  1.0117  1.4856
37227SOL    HW214959   2.161   8.437   1.351  0.4520 -0.0975 -1.0487
37228SOL     OW14960  10.259   6.004   8.160 -0.0724 -0.1363  0.0285
37228SOL    HW114961  10.291   5.926   8.206 -0.2502 -0.3622 -0.2264
37228SOL    HW214962  10.338   6.044   8.123  0.0795  0.0833  0.5842
37229SOL     OW14963  10.835   5.244   0.169 -0.0657  0.8703  0.4852
37229SOL    HW114964  10.864   5.260   0.079  0.1200  1.5872  0.6657
37229SOL    HW214965  10.763   5.306   0.183 -0.8448 -0.0033  0.4735
37230SOL     OW14966   3.101   8.905   2.645  0.0906  0.1606 -0.1758
37230SOL    HW114967   3.166   8.905   2.575  0.1391 -0.3777 -0.1348
37230SOL    HW214968   3.023   8.944   2.606 -0.3004 -1.2908 -0.9439
37231SOL     OW14969   7.833   8.310   6.848 -0.3235 -0.2503 -0.7277
37231SOL    HW114970   7.786   8.386   6.884 -0.3589 -0.3550 -0.5552
37231SOL    HW214971   7.808   8.308   6.756 -1.7476 -1.1232 -0.3466
37232SOL     OW14972   8.076   8.646   9.088 -0.1508 -0.3633 -0.0028
37232SOL    HW114973   8.130   8.632   9.010  1.9090  0.4184  1.2172
37232SOL    HW214974   8.091   8.738   9.110 -2.0410 -0.1119  0.3801
37233SOL     OW14975  10.493   6.804   0.370  0.8154 -0.1974 -0.5983
37233SOL    HW114976  10.404   6.785   0.340 -0.1137  1.5821  0.8375
37233SOL    HW214977  10.532   6.855   0.298 -0.1606  0.9779 -0.3421
37234SOL     OW14978   2.738   8.571   5.115  0.7552 -0.1467 -0.1052
37234SOL    HW114979   2.810   8.516   5.147  1.6061  1.1764  0.3606
37234SOL    HW214980   2.777   8.622   5.044  0.3242  0.6716  0.2307
37235SOL     OW14981   4.868   3.397  10.285  0.0165 -0.2322 -0.1672
37235SOL    HW114982   4.871   3.419  10.192 -0.4274  1.8332  0.2587
37235SOL    HW214983   4.901   3.475  10.330 -0.7609 -0.7760  1.4528
37236SOL     OW14984   6.659   3.642   7.632  0.2292 -0.0682  0.5793
37236SOL    HW114985   6.601   3.623   7.706  0.7596  1.4691  1.4222
37236SOL    HW214986   6.731   3.693   7.669  0.2442  1.2088 -1.0687
37237SOL     OW14987   7.144   3.735   9.963 -0.1199  0.2353  0.9768
37237SOL    HW114988   7.221   3.701  10.011  0.2892 -0.3220 -0.0435
37237SOL    HW214989   7.080   3.754  10.032  0.1866 -1.2250  1.7148
37238SOL     OW14990   9.907   7.471   4.695  0.0292 -0.0323  0.1971
37238SOL    HW114991   9.890   7.379   4.678  1.4370 -0.1304 -0.8689
37238SOL    HW214992   9.864   7.517   4.623  1.8555 -0.1060 -1.0090
37239SOL     OW14993  11.036   4.162   8.119  0.4391  0.5143  0.3462
37239SOL    HW114994  11.069   4.176   8.207 -0.3911 -0.4648  0.8282
37239SOL    HW214995  10.998   4.246   8.093 -1.7653  0.1067  2.0004
37240SOL     OW14996   1.632   9.081   5.135  0.1699  0.1826 -0.6184
37240SOL    HW114997   1.564   9.086   5.202  0.9888 -0.2128  0.2787
37240SOL    HW214998   1.593   9.121   5.057 -1.5410 -1.2414 -0.5373
37241SOL     OW14999   4.315   4.829   4.272  0.3443  0.1624  0.1120
37241SOL    HW115000   4.289   4.740   4.297 -0.3078  0.0862 -0.8213
37241SOL    HW215001   4.287   4.838   4.181  1.7317  0.8076 -0.2824
37242SOL     OW15002   8.623   4.910   8.903 -0.2119 -0.1908 -0.4058
37242SOL    HW115003   8.601   4.841   8.966  0.9667  1.3075  1.7945
37242SOL    HW215004   8.546   4.916   8.847 -1.8501 -0.8701  1.6140
37243SOL     OW15005   7.565   0.938  10.781  0.1924 -0.1870  0.1145
37243SOL    HW115006   7.609   1.005  10.834 -0.6462  0.7799 -0.3946
37243SOL    HW215007   7.572   0.970  10.691  0.9073 -1.4325 -0.2980
37244SOL     OW15008   7.010  11.346   9.945  0.3390  0.1465  0.2158
37244SOL    HW115009   7.072  11.370  10.015 -0.4444 -0.0891  1.0113
37244SOL    HW215010   6.986  11.429   9.905  1.0790  0.2521 -0.0319
37245SOL     OW15011   0.425  10.050   6.352  0.5438 -0.3361  0.3567
37245SOL    HW115012   0.403   9.994   6.278 -0.6980 -0.4910  0.8216
37245SOL    HW215013   0.440   9.989   6.425  1.3699 -0.1652  0.3400
37246SOL     OW15014   1.477   4.110   7.597 -0.4608 -0.1084  0.4099
37246SOL    HW115015   1.475   4.061   7.515 -0.9389  0.2089  0.2218
37246SOL    HW215016   1.401   4.078   7.645  0.3376 -0.9582  1.1350
37247SOL     OW15017   7.209   4.736  10.793 -0.0864  0.3823 -0.2887
37247SOL    HW115018   7.130   4.687  10.771  0.0926  0.4981 -1.2659
37247SOL    HW215019   7.179   4.826  10.804 -0.2362  0.2606  0.3531
37248SOL     OW15020   5.254   5.879  10.184 -0.0123  0.0538  0.3327
37248SOL    HW115021   5.219   5.878  10.273 -0.3196 -1.4549  0.2103
37248SOL    HW215022   5.184   5.841  10.130  0.8259 -0.6388 -0.2918
37249SOL     OW15023   8.811   1.695   7.433  0.8232  0.0659  0.1926
37249SOL    HW115024   8.734   1.720   7.383  0.5941 -0.1330  0.4382
37249SOL    HW215025   8.808   1.750   7.511  0.5809 -0.3783  0.5048
37250SOL     OW15026   3.482   1.034   4.820  1.2973  0.5467  0.6284
37250SOL    HW115027   3.390   1.060   4.812  0.6772 -1.9645 -1.3236
37250SOL    HW215028   3.521   1.104   4.873 -1.1331  3.0628 -0.6144
37251SOL     OW15029   0.646   2.008   9.358  0.2998 -0.2042 -0.0290
37251SOL    HW115030   0.683   2.048   9.280  0.9261 -1.1769 -0.2441
37251SOL    HW215031   0.556   1.986   9.333  0.4093 -0.2558 -0.3787
37252SOL     OW15032   9.503  11.366   4.787  0.4132  0.0404  0.3141
37252SOL    HW115033   9.529  11.335   4.874 -2.3363 -0.6814  0.9958
37252SOL    HW215034   9.411  11.392   4.798  0.7390  2.4365 -1.7999
37253SOL     OW15035   2.955   1.763   7.011 -0.6493  0.2713  0.2675
37253SOL    HW115036   2.882   1.749   7.071 -0.4998  0.4684  0.4955
37253SOL    HW215037   3.021   1.808   7.064 -0.3795  0.1280  0.0510
37254SOL     OW15038   3.797   4.029   2.590  0.0247 -0.2501 -0.5066
37254SOL    HW115039   3.826   4.090   2.658 -0.0739 -1.3559  0.5687
37254SOL    HW215040   3.741   4.081   2.533 -0.6728  0.5042  0.8167
37255SOL     OW15041   6.088   8.167   6.731 -0.2486  0.3536 -0.0757
37255SOL    HW115042   6.180   8.185   6.716 -0.3200  0.0619 -0.8959
37255SOL    HW215043   6.083   8.071   6.737 -0.3251  0.4228  1.1643
37256SOL     OW15044   1.506   2.136   7.758 -0.6241  0.1288  0.8157
37256SOL    HW115045   1.439   2.134   7.690  1.8406 -1.0022 -1.7789
37256SOL    HW215046   1.485   2.062   7.815 -1.2702 -0.5775 -0.3063
37257SOL     OW15047   1.235   5.638  11.205 -0.0689 -0.0783  0.2215
37257SOL    HW115048   1.314   5.641  11.260 -1.2326 -1.6681  2.1094
37257SOL    HW215049   1.269   5.635  11.115  1.9798  0.2711  0.9260
37258SOL     OW15050   2.099  11.138   9.601 -0.0526 -0.4819 -0.4174
37258SOL    HW115051   2.186  11.100   9.609 -0.5929 -1.7599 -0.2308
37258SOL    HW215052   2.113  11.224   9.563  1.3354 -0.4167  0.1898
37259SOL     OW15053   0.555   9.569   6.231  0.0219 -0.6700 -0.0504
37259SOL    HW115054   0.460   9.570   6.221 -0.0004  0.5900  0.0953
37259SOL    HW215055   0.581   9.479   6.213 -1.4716 -1.7426  2.5329
37260SOL     OW15056   3.609  11.322   6.296  0.2654  0.1427 -0.6643
37260SOL    HW115057   3.670  11.248   6.288 -0.7745 -0.6548 -1.4585
37260SOL    HW215058   3.622  11.354   6.385  1.9864  0.1233 -0.8744
37261SOL     OW15059   7.899   2.050   3.798 -0.0271 -0.3615  0.7394
37261SOL    HW115060   7.959   2.022   3.729 -1.7647  0.3833 -1.2029
37261SOL    HW215061   7.915   1.990   3.870  2.6511 -0.4869  0.1595
37262SOL     OW15062   0.610   5.695   0.520 -0.5185  0.3939  0.1260
37262SOL    HW115063   0.671   5.764   0.493 -0.6555  0.9747  1.2421
37262SOL    HW215064   0.526   5.723   0.483 -0.5326  0.7356  0.4040
37263SOL     OW15065   4.543   7.000   3.307  0.2233 -0.4255  0.1479
37263SOL    HW115066   4.475   7.015   3.241  0.2498 -0.9919 -0.0131
37263SOL    HW215067   4.498   6.951   3.376 -0.1753  1.3855  1.2310
37264SOL     OW15068   4.277   5.057  10.899 -0.5270  0.3417  0.1876
37264SOL    HW115069   4.243   5.035  10.985 -0.6644  0.3516  0.1364
37264SOL    HW215070   4.332   4.983  10.875 -0.6130  0.2685  0.2172
37265SOL     OW15071   8.779   9.977   1.516 -0.0598  0.1628  0.7516
37265SOL    HW115072   8.725  10.011   1.587 -0.1569  0.6649  0.4423
37265SOL    HW215073   8.868  10.007   1.537 -0.3555  1.8837 -0.2617
37266SOL     OW15074   4.537   8.495   6.680 -0.2363 -0.1687  0.1877
37266SOL    HW115075   4.545   8.505   6.585 -1.4541 -0.9935 -0.0102
37266SOL    HW215076   4.569   8.407   6.698  0.8629  0.2994  0.6902
37267SOL     OW15077   0.021   5.308   4.510 -0.4065 -0.4328 -0.3256
37267SOL    HW115078   0.008   5.263   4.594 -1.5640 -2.8427 -1.6672
37267SOL    HW215079   0.098   5.363   4.524  1.2547 -2.9764  1.5044
37268SOL     OW15080   3.092   8.216   2.474 -0.1517  0.4036  0.0788
37268SOL    HW115081   3.150   8.144   2.499 -0.8857 -1.4899 -3.1016
37268SOL    HW215082   3.004   8.178   2.475 -0.9602  2.1854  1.2547
37269SOL     OW15083   3.752   1.066   6.017  0.0998  0.3820  0.8604
37269SOL    HW115084   3.701   0.986   6.029  0.0714  0.2304 -0.1460
37269SOL    HW215085   3.698   1.136   6.053 -1.1503  0.3226 -0.7512
37270SOL     OW15086   8.716   5.165  10.962 -0.1672  0.3940 -0.1943
37270SOL    HW115087   8.796   5.130  11.001 -0.7347 -0.5763  0.1371
37270SOL    HW215088   8.659   5.089  10.951 -1.3893  1.1864  0.4123
37271SOL     OW15089   5.073   3.437   8.131 -0.1369  0.0411  0.2869
37271SOL    HW115090   5.054   3.531   8.136  0.1639  0.1535 -0.5291
37271SOL    HW215091   5.054   3.414   8.040  1.6984 -0.2498 -0.0540
37272SOL     OW15092   9.383   9.462   6.616  0.0749 -0.3876 -0.0351
37272SOL    HW115093   9.360   9.544   6.660 -1.5239  0.1936 -1.8349
37272SOL    HW215094   9.389   9.486   6.524 -0.4027 -2.2985 -0.5935
37273SOL     OW15095   9.618   1.478   1.815 -0.3219  0.0689  0.1554
37273SOL    HW115096   9.606   1.395   1.862  0.8084 -0.4742 -0.4611
37273SOL    HW215097   9.638   1.542   1.883 -0.5190 -0.3127  0.5756
37274SOL     OW15098   3.365   7.764   6.849  0.0859 -0.0464 -0.4793
37274SOL    HW115099   3.460   7.771   6.856  0.1371 -0.7489 -0.3715
37274SOL    HW215100   3.350   7.679   6.807 -0.5116 -0.6263  0.8159
37275SOL     OW15101   6.372  10.696   4.169 -0.4665 -0.1588 -0.0032
37275SOL    HW115102   6.436  10.730   4.105 -2.3192  1.2423 -1.2127
37275SOL    HW215103   6.420  10.697   4.252  0.8912  1.5533 -0.7183
37276SOL     OW15104   0.007   0.414  11.383  0.1710  0.3198 -0.7030
37276SOL    HW115105  -0.077   0.456  11.404 -0.8417 -1.6208 -0.6506
37276SOL    HW215106   0.065   0.439  11.455 -0.0891  2.2909 -1.1120
37277SOL     OW15107  10.210   6.558   3.224  0.2189 -0.3755  0.2247
37277SOL    HW115108  10.289   6.604   3.252 -0.3243  0.1580  0.9374
37277SOL    HW215109  10.226   6.536   3.133  1.2627 -0.4386  0.4139
37278SOL     OW15110  10.182   5.725   1.872  0.0467 -0.7077  0.0752
37278SOL    HW115111  10.165   5.720   1.966 -0.1165  0.1220  0.1059
37278SOL    HW215112  10.145   5.810   1.846  0.1778 -0.8828 -0.7184
37279SOL     OW15113  10.925   3.942   9.348 -0.2694  0.0661  0.4613
37279SOL    HW115114  10.990   3.917   9.283 -1.5452 -0.2221 -0.7668
37279SOL    HW215115  10.961   3.912   9.432  0.5096 -1.4043 -0.3574
37280SOL     OW15116   6.782   3.591   6.719 -1.1320  0.0312  0.2910
37280SOL    HW115117   6.764   3.614   6.811  0.2070  1.2174  0.2758
37280SOL    HW215118   6.719   3.642   6.669 -0.8268  0.6050  0.4803
37281SOL     OW15119   2.314   0.452   5.174  0.4561 -0.1156 -0.3557
37281SOL    HW115120   2.409   0.446   5.186  0.7498  2.1487 -1.0184
37281SOL    HW215121   2.292   0.377   5.119  1.4912 -1.8346  1.4409
37282SOL     OW15122   9.518   8.179   5.438  0.6303 -0.1548  0.2396
37282SOL    HW115123   9.515   8.084   5.447 -0.8498 -0.3383 -1.5169
37282SOL    HW215124   9.524   8.212   5.528 -1.1234 -1.8647  1.0578
37283SOL     OW15125   5.702   7.894   5.625 -0.3232 -0.4977  0.3652
37283SOL    HW115126   5.678   7.880   5.533  1.2120  0.1423 -0.1708
37283SOL    HW215127   5.622   7.875   5.674 -1.1417 -0.9697 -1.0913
37284SOL     OW15128   3.392   3.582   9.231  0.0712  0.2974 -0.1081
37284SOL    HW115129   3.380   3.549   9.143  0.6524 -2.1119  0.6514
37284SOL    HW215130   3.305   3.577   9.271 -0.1102  1.0121 -0.3935
37285SOL     OW15131  10.422   0.128   3.675  0.5765  0.0469 -0.0395
37285SOL    HW115132  10.458   0.169   3.596 -0.7279  0.6157 -0.3613
37285SOL    HW215133  10.498   0.086   3.716  1.1803 -0.7994 -1.9035
37286SOL     OW15134   7.072   8.106   2.191  0.0377  0.0439 -0.4647
37286SOL    HW115135   6.987   8.065   2.174 -0.0440  0.9951 -2.5891
37286SOL    HW215136   7.132   8.032   2.202 -0.6644 -0.6548 -1.1733
37287SOL     OW15137   6.240   2.018   3.955 -0.2384 -0.2840  0.0052
37287SOL    HW115138   6.150   2.028   3.987 -1.7767  0.2426 -3.9287
37287SOL    HW215139   6.276   2.106   3.957 -0.5610 -0.1418 -0.3530
37288SOL     OW15140   5.759   6.643   5.526 -1.1541  0.5292  0.0522
37288SOL    HW115141   5.839   6.681   5.490  1.8850 -2.6633  2.6707
37288SOL    HW215142   5.717   6.716   5.573  1.0537  2.0316 -0.1348
37289SOL     OW15143   9.637   2.227   4.262 -0.1168  0.5227  0.4260
37289SOL    HW115144   9.724   2.251   4.295  0.2710  0.2948 -0.3924
37289SOL    HW215145   9.644   2.135   4.239 -0.4704  0.5882  0.0350
37290SOL     OW15146   4.144   9.478   0.925  0.3871  0.2630 -0.0767
37290SOL    HW115147   4.216   9.420   0.899 -0.9757 -1.7411  0.4607
37290SOL    HW215148   4.096   9.495   0.844 -0.6147 -1.3904  0.1438
37291SOL     OW15149   0.627   8.094   6.901  0.3131  0.0594  0.6534
37291SOL    HW115150   0.680   8.080   6.980  0.2787 -2.8441  0.2800
37291SOL    HW215151   0.606   8.187   6.902  3.2786  0.8222  2.1612
37292SOL     OW15152   3.553   4.364  10.944 -0.5024 -0.0392  0.1673
37292SOL    HW115153   3.503   4.322  11.015 -2.3242 -0.5002 -1.2979
37292SOL    HW215154   3.584   4.290  10.891  0.7306  0.3074  0.3888
37293SOL     OW15155   1.197   4.859   5.225  0.2985 -0.1102  0.0586
37293SOL    HW115156   1.162   4.874   5.137 -0.4673  1.8612  0.6523
37293SOL    HW215157   1.291   4.846   5.212  0.2026  0.1958 -1.0369
37294SOL     OW15158   1.353   9.808   9.426  0.2676 -0.0078 -0.6103
37294SOL    HW115159   1.352   9.713   9.436  1.3990 -0.0090 -0.4032
37294SOL    HW215160   1.377   9.842   9.512  1.7473  0.3624 -1.1343
37295SOL     OW15161   0.440   0.523   1.055 -0.1566  0.3791 -0.5838
37295SOL    HW115162   0.532   0.499   1.065 -0.5786 -1.4964 -0.7737
37295SOL    HW215163   0.430   0.603   1.107  0.7778 -1.4103  2.6659
37296SOL     OW15164   6.660   3.150   9.411 -0.3229  0.6420  0.6416
37296SOL    HW115165   6.751   3.131   9.391  0.1316  2.8834  0.3370
37296SOL    HW215166   6.622   3.064   9.432  0.5996 -1.1367 -3.8147
37297SOL     OW15167   3.997  10.400   8.646  0.5443 -0.4780  0.1761
37297SOL    HW115168   4.060  10.473   8.645  1.0760 -0.9314 -0.3502
37297SOL    HW215169   3.912  10.441   8.630  0.7780  0.0803  0.3558
37298SOL     OW15170   2.137   8.965   2.581  0.5122  0.4183  0.3034
37298SOL    HW115171   2.148   8.988   2.673 -3.0298 -1.0945  1.2764
37298SOL    HW215172   2.100   9.044   2.541 -0.4562  0.2737  0.8636
37299SOL     OW15173   4.292   3.281   3.184 -0.4728 -0.5373  0.1070
37299SOL    HW115174   4.368   3.311   3.134 -0.3848  0.2413  0.7007
37299SOL    HW215175   4.330   3.232   3.257 -0.4828  0.8004  1.0325
37300SOL     OW15176   4.410   7.882   8.663 -0.4244 -0.1168 -0.6398
37300SOL    HW115177   4.415   7.898   8.757  0.2756  0.9194 -0.8480
37300SOL    HW215178   4.488   7.831   8.643 -0.0235  0.5567 -0.8255
37301SOL     OW15179  11.089   6.376   0.337  0.6733  0.2726  0.4403
37301SOL    HW115180  11.037   6.452   0.316  2.0684  1.0979 -0.1772
37301SOL    HW215181  11.154   6.371   0.267  1.9522 -0.1860  1.6148
37302SOL     OW15182   0.214  11.062   2.437  0.1999 -0.0580  0.2073
37302SOL    HW115183   0.196  10.969   2.426 -0.4087  0.1005 -0.2229
37302SOL    HW215184   0.177  11.084   2.522  0.0794 -0.1522  0.1798
37303SOL     OW15185  10.937   7.719   3.252  0.0635  0.5332 -0.5387
37303SOL    HW115186  10.900   7.663   3.183  0.3752  0.4520 -0.6411
37303SOL    HW215187  10.943   7.662   3.328  1.1082  0.2064 -0.8584
37304SOL     OW15188   0.547   7.998   0.195  0.1244 -0.2455 -0.2511
37304SOL    HW115189   0.635   7.960   0.190  0.8812  1.3177  0.5673
37304SOL    HW215190   0.517   8.001   0.104  1.2069 -0.1559 -0.6147
37305SOL     OW15191   2.783   7.469   2.478  0.1424 -0.1253 -0.2343
37305SOL    HW115192   2.810   7.453   2.387  1.2336  0.9809 -0.1415
37305SOL    HW215193   2.793   7.385   2.522  0.2232 -0.5225 -0.9985
37306SOL     OW15194  10.552   7.966   5.954 -0.0837 -0.3788  0.0264
37306SOL    HW115195  10.488   8.003   6.014 -0.1732 -0.1638 -0.2006
37306SOL    HW215196  10.530   8.004   5.868  0.2774 -0.3834 -0.0709
37307SOL     OW15197   3.482   0.478  10.181  0.1444  0.5376 -0.0250
37307SOL    HW115198   3.402   0.532  10.186 -0.6916 -0.6619  0.0104
37307SOL    HW215199   3.553   0.542  10.178 -0.8569  1.6854 -1.0887
37308SOL     OW15200   9.657   4.896   6.241 -0.4051 -0.0759 -0.3520
37308SOL    HW115201   9.745   4.912   6.209 -0.6302 -0.1018 -1.0023
37308SOL    HW215202   9.632   4.811   6.203 -0.8257  0.0800 -0.4360
37309SOL     OW15203   0.002  10.071   1.385 -0.4990  0.0917 -0.0857
37309SOL    HW115204  -0.041  10.052   1.469  0.9246  2.6788  1.3511
37309SOL    HW215205  -0.058  10.130   1.340  0.3763  1.7863  0.8740
37310SOL     OW15206   1.203   8.685   0.474  0.2878  0.7112  0.5240
37310SOL    HW115207   1.144   8.686   0.399  0.2610 -0.8338  0.5048
37310SOL    HW215208   1.146   8.702   0.550  0.1653  1.2950  0.3078
37311SOL     OW15209  10.018   1.905   8.468 -0.0633  0.2954 -0.2653
37311SOL    HW115210   9.939   1.877   8.423  1.8159 -2.4211 -2.1225
37311SOL    HW215211  10.008   1.870   8.557 -0.9128 -0.0348 -0.4754
37312SOL     OW15212   8.569   6.196   7.617  0.0430 -0.4677  0.2309
37312SOL    HW115213   8.520   6.249   7.553 -0.2454 -0.9872  0.0110
37312SOL    HW215214   8.661   6.210   7.594 -0.0186  0.1092  0.3165
37313SOL     OW15215   6.254   6.044   4.996  0.2972 -0.1257  0.2232
37313SOL    HW115216   6.318   6.112   4.974 -1.7114  1.3856 -1.2581
37313SOL    HW215217   6.183   6.091   5.040 -0.5365 -1.5035  0.3999
37314SOL     OW15218  10.855   5.595   3.832  0.2247 -0.1639  0.2778
37314SOL    HW115219  10.882   5.512   3.872 -0.6537 -1.2710 -1.2768
37314SOL    HW215220  10.904   5.598   3.749 -1.1881 -0.1412 -0.5967
37315SOL     OW15221   9.613   4.134   1.638  0.0558 -0.5856 -0.0673
37315SOL    HW115222   9.617   4.146   1.543  1.5015 -0.0901  0.0308
37315SOL    HW215223   9.524   4.102   1.654 -0.5056  0.1469 -1.4859
37316SOL     OW15224   5.515   5.864   4.971  0.4208  0.0491 -0.0673
37316SOL    HW115225   5.478   5.951   4.957 -0.2113  0.0813  1.6239
37316SOL    HW215226   5.525   5.828   4.883 -4.1432 -0.1860 -0.7226
37317SOL     OW15227   1.603   6.628   0.598 -0.4336 -0.0068 -0.0583
37317SOL    HW115228   1.545   6.701   0.575  0.3267  0.5543 -0.2281
37317SOL    HW215229   1.597   6.623   0.693 -0.8234 -0.0036 -0.0806
37318SOL     OW15230   3.443   5.291   9.316 -0.1827 -0.1337  0.5456
37318SOL    HW115231   3.352   5.287   9.345 -0.4306  0.7737 -0.0633
37318SOL    HW215232   3.441   5.265   9.225 -0.2168  2.0991 -0.1650
37319SOL     OW15233   3.900   3.314   1.455 -0.5836 -0.0578  0.0434
37319SOL    HW115234   3.900   3.303   1.550  0.7210 -1.6309 -0.0851
37319SOL    HW215235   3.876   3.406   1.441  1.2884  0.8209  2.0066
37320SOL     OW15236   4.099   9.152   7.198 -0.0810  0.6229  0.1934
37320SOL    HW115237   4.127   9.085   7.260  1.5709  2.1526  1.2074
37320SOL    HW215238   4.084   9.105   7.117  0.9478 -0.9878  0.8901
37321SOL     OW15239   1.623   5.895   1.370 -0.0168  0.6592 -0.3068
37321SOL    HW115240   1.581   5.882   1.455 -0.9620 -1.1032 -0.9928
37321SOL    HW215241   1.713   5.865   1.383  0.1475  1.3861  0.3216
37322SOL     OW15242   7.111   1.670   7.143  0.2442 -0.6862  0.3966
37322SOL    HW115243   7.102   1.595   7.084 -2.1634 -1.1814  1.2888
37322SOL    HW215244   7.125   1.631   7.229  0.3780 -0.0619  0.6635
37323SOL     OW15245   5.996   8.708   6.412 -0.3654  0.6259  0.1365
37323SOL    HW115246   6.080   8.706   6.366  0.7238  0.1868  2.0569
37323SOL    HW215247   5.963   8.619   6.407  0.9351 -0.0191  2.2235
37324SOL     OW15248   0.239  10.538  10.760  0.1787  0.0521  0.0423
37324SOL    HW115249   0.264  10.494  10.678 -0.7149 -1.5303  0.5792
37324SOL    HW215250   0.145  10.550  10.752 -0.0279 -0.7731  1.1372
37325SOL     OW15251   7.319   6.584  11.364  0.0549  0.1698 -0.1769
37325SOL    HW115252   7.316   6.491  11.341 -1.6767 -0.1747  1.2400
37325SOL    HW215253   7.308   6.630  11.281 -0.4182 -0.9220 -0.7308
37326SOL     OW15254   2.295   3.514   2.461 -0.5167  1.1309  0.3452
37326SOL    HW115255   2.372   3.554   2.500  0.3567 -0.0051 -0.1219
37326SOL    HW215256   2.257   3.461   2.531  0.1755  0.2909  0.1073
37327SOL     OW15257   1.464   4.668   1.977 -0.2257  0.9564  0.7444
37327SOL    HW115258   1.456   4.736   1.910 -0.1963  0.7915  0.5730
37327SOL    HW215259   1.558   4.648   1.980 -0.1610  1.2827  1.1567
37328SOL     OW15260   2.740  10.758   2.972 -0.3743 -0.0196 -0.0015
37328SOL    HW115261   2.731  10.767   2.878  0.2480  1.2689  0.0330
37328SOL    HW215262   2.678  10.821   3.009 -0.2225 -0.1175  0.4349
37329SOL     OW15263   2.898   6.237   3.121  0.3137  0.1677 -0.0264
37329SOL    HW115264   2.911   6.312   3.064  0.2293 -0.7639 -1.2988
37329SOL    HW215265   2.981   6.189   3.117  0.1297 -0.1781  0.2394
37330SOL     OW15266   9.278   2.099   8.169  0.1955  0.3388 -0.2475
37330SOL    HW115267   9.271   2.157   8.244 -0.4045  2.4525 -1.8437
37330SOL    HW215268   9.269   2.011   8.206  0.6992  1.2327  2.2110
37331SOL     OW15269   8.327   3.786   0.832 -0.0000 -0.6672  0.7402
37331SOL    HW115270   8.270   3.756   0.761  0.6043 -0.0671 -0.0158
37331SOL    HW215271   8.415   3.785   0.794  0.1439  1.2893  0.9071
37332SOL     OW15272  11.275   7.105   2.886 -0.1036 -0.2985  0.3842
37332SOL    HW115273  11.270   7.020   2.929 -1.3504 -0.3096  0.2776
37332SOL    HW215274  11.228   7.164   2.946 -0.0804  0.1100  0.0046
37333SOL     OW15275  11.084  11.071   6.937 -0.2953  0.0568  0.3491
37333SOL    HW115276  11.027  11.143   6.964  0.0450 -0.2264  1.9033
37333SOL    HW215277  11.152  11.114   6.885 -0.8634  0.6565  0.0760
37334SOL     OW15278   2.089   0.645   3.307 -0.4207  0.3636  0.1872
37334SOL    HW115279   2.075   0.738   3.293 -1.6607  0.3423  1.1091
37334SOL    HW215280   2.052   0.603   3.229 -1.0388  0.5951  0.3452
37335SOL     OW15281   8.282   7.249   3.010 -0.2760 -0.0948  0.1812
37335SOL    HW115282   8.234   7.207   3.081 -0.2548 -0.6665 -0.1343
37335SOL    HW215283   8.265   7.193   2.933 -2.2408  1.7753 -0.8467
37336SOL     OW15284   9.105   2.003  10.051 -0.7555  0.3657 -0.0076
37336SOL    HW115285   9.162   1.939  10.095 -1.5872  0.5676  1.4339
37336SOL    HW215286   9.038   1.950  10.008  0.5130  0.1206 -1.7894
37337SOL     OW15287   1.645   2.263   8.990 -0.4278 -0.3075 -0.2691
37337SOL    HW115288   1.727   2.277   9.037 -0.5771 -0.6879  0.1064
37337SOL    HW215289   1.640   2.336   8.928  0.0231 -0.0949 -0.0570
37338SOL     OW15290   6.242   2.042   7.818 -0.2593  0.0710  0.0128
37338SOL    HW115291   6.196   2.116   7.858  0.1234  0.3338 -0.0271
37338SOL    HW215292   6.290   2.081   7.745  1.4660  0.1185  1.1286
37339SOL     OW15293   4.731  10.492   7.700 -0.3638  0.5694  0.3216
37339SOL    HW115294   4.735  10.518   7.792  0.3155  0.3271  0.3653
37339SOL    HW215295   4.683  10.409   7.701  1.1373 -0.3469  0.6799
37340SOL     OW15296  10.488   5.673   2.736  0.5547  0.2958  0.0522
37340SOL    HW115297  10.516   5.609   2.802  0.1309  0.6178  0.5483
37340SOL    HW215298  10.566   5.688   2.683  0.4962 -1.1401 -0.5011
37341SOL     OW15299  10.850   5.497   0.773 -0.3361  0.3195 -0.2141
37341SOL    HW115300  10.881   5.449   0.697 -0.9658 -1.2311  0.4486
37341SOL    HW215301  10.894   5.456   0.848  0.5281  2.0249  0.2635
37342SOL     OW15302   7.614   5.720   0.552 -0.0425  0.2948 -0.3016
37342SOL    HW115303   7.563   5.640   0.540  1.2905 -0.3894 -1.7994
37342SOL    HW215304   7.621   5.758   0.465  0.5755  1.2761  0.1504
37343SOL     OW15305   4.610  10.919   2.834 -0.1801  0.0913  0.0993
37343SOL    HW115306   4.538  10.916   2.770  0.7365  0.8560 -0.9952
37343SOL    HW215307   4.660  10.839   2.817  0.8639  0.9748 -1.1305
37344SOL     OW15308   6.502   5.340   8.077  0.3231 -0.2027 -0.3001
37344SOL    HW115309   6.516   5.293   8.159 -0.8115 -0.2673 -0.1287
37344SOL    HW215310   6.474   5.427   8.104 -2.2732 -0.8882 -0.5647
37345SOL     OW15311   9.501  11.031   0.972 -0.0841 -0.0334 -0.6235
37345SOL    HW115312   9.520  10.946   1.010 -1.3585 -0.3627 -0.6955
37345SOL    HW215313   9.515  11.093   1.044  1.5258 -0.2020 -0.7549
37346SOL     OW15314   2.658   0.503   0.121 -0.0100  0.1128  0.6038
37346SOL    HW115315   2.723   0.515   0.052 -0.6543 -0.8531 -0.1992
37346SOL    HW215316   2.707   0.466   0.194  0.4426 -0.1325  0.1816
37347SOL     OW15317   9.266   6.879   6.500 -0.2505 -0.1923 -0.5813
37347SOL    HW115318   9.214   6.959   6.499 -0.0982 -0.0581  0.4384
37347SOL    HW215319   9.343   6.902   6.553  1.1753 -0.2023 -2.5423
37348SOL     OW15320   0.818  11.067   7.070 -0.3557 -0.3510  0.2450
37348SOL    HW115321   0.746  11.030   7.019 -0.9826  2.5488 -1.1760
37348SOL    HW215322   0.775  11.103   7.148 -0.2288  0.1453  0.0853
37349SOL     OW15323   5.638   8.496   0.505 -0.1623 -0.3323  0.8157
37349SOL    HW115324   5.586   8.422   0.536  0.5388  0.1538  3.3797
37349SOL    HW215325   5.592   8.574   0.538  0.3015  0.2816  0.0545
37350SOL     OW15326   3.586   6.087   9.925  0.5157 -0.3017  0.8305
37350SOL    HW115327   3.611   6.172   9.888 -0.3892 -0.4791 -0.2652
37350SOL    HW215328   3.528   6.108   9.998  0.0056  0.0277  0.3378
37351SOL     OW15329  10.807   0.030   3.575 -0.4201  0.1149  0.5611
37351SOL    HW115330  10.740   0.057   3.637 -2.5337  0.6792 -1.8264
37351SOL    HW215331  10.776  -0.054   3.540  0.8195 -0.2923  0.3776
37352SOL     OW15332   3.250   4.170   7.686 -0.0580 -0.0592 -0.2007
37352SOL    HW115333   3.264   4.077   7.669 -1.7151 -0.1739 -1.0625
37352SOL    HW215334   3.212   4.174   7.773  0.2676 -0.1644 -0.0538
37353SOL     OW15335   2.208   3.362   1.326  0.3008 -0.1384 -0.2385
37353SOL    HW115336   2.257   3.429   1.278 -2.1627  3.2421  1.5010
37353SOL    HW215337   2.138   3.337   1.266 -0.3095  0.8986  0.0164
37354SOL     OW15338   6.941   9.849  10.582 -0.2998 -0.3107 -0.6203
37354SOL    HW115339   6.911   9.888  10.664 -0.9957 -1.2466 -0.4059
37354SOL    HW215340   7.033   9.874  10.575 -0.2277 -0.2305  0.4587
37355SOL     OW15341   8.265   7.738   3.342 -0.0934  0.0805 -0.2263
37355SOL    HW115342   8.242   7.725   3.250 -0.2494 -0.3167 -0.1354
37355SOL    HW215343   8.192   7.788   3.378  0.5212  1.2863 -0.5851
37356SOL     OW15344   3.608   9.232   8.521 -0.3915  0.1429  0.1808
37356SOL    HW115345   3.638   9.142   8.513  0.5490  0.5542 -1.1288
37356SOL    HW215346   3.515   9.228   8.499 -0.4221 -0.5366  0.3962
37357SOL     OW15347   9.330   8.598  10.112  0.3912 -0.2786 -0.1978
37357SOL    HW115348   9.257   8.637  10.065 -0.6375 -0.5312  1.1318
37357SOL    HW215349   9.318   8.625  10.203  1.6653 -0.7577  0.1409
37358SOL     OW15350   0.379   0.017   2.941 -0.5291  0.3001  0.4624
37358SOL    HW115351   0.325  -0.035   2.881 -0.7026 -1.8127  2.3176
37358SOL    HW215352   0.468   0.009   2.907 -0.4007 -2.0672  1.1480
37359SOL     OW15353   5.206   0.246   6.417  0.3732  0.4316 -0.1591
37359SOL    HW115354   5.202   0.150   6.419 -1.6636  0.4832  0.1017
37359SOL    HW215355   5.124   0.273   6.377  0.9791  2.0870 -0.3652
37360SOL     OW15356   4.515   0.928   4.960  0.1729 -0.3596 -0.3069
37360SOL    HW115357   4.495   0.881   5.041 -0.6370 -0.9973 -0.8546
37360SOL    HW215358   4.437   0.981   4.943  0.6892  0.4467 -0.2195
37361SOL     OW15359   4.465   0.040   6.936  0.0031 -0.1268 -0.0789
37361SOL    HW115360   4.516   0.053   7.016  0.6392 -1.8672 -0.1583
37361SOL    HW215361   4.530   0.039   6.866 -0.4989  0.9047 -0.5807
37362SOL     OW15362   1.185   5.138  10.210 -0.2951  0.3692  0.0140
37362SOL    HW115363   1.158   5.070  10.272  0.8083 -1.9506 -1.8750
37362SOL    HW215364   1.268   5.106  10.174 -0.0445  2.4477 -1.4155
37363SOL     OW15365   9.853   6.875   4.972 -0.1229  0.4914 -0.7409
37363SOL    HW115366   9.816   6.847   5.056 -0.0427 -0.3434 -0.9714
37363SOL    HW215367   9.818   6.812   4.908  0.7849  0.3691 -1.1351
37364SOL     OW15368   7.998   1.490   6.941  0.4196  0.3351  0.3581
37364SOL    HW115369   7.918   1.521   6.984  1.1755  2.1087  0.6013
37364SOL    HW215370   8.047   1.445   7.009 -1.2283 -2.6273 -0.2773
37365SOL     OW15371   2.039   2.818   5.890 -0.5146 -0.7649 -0.0901
37365SOL    HW115372   2.112   2.776   5.937  0.7576  1.7957  0.4230
37365SOL    HW215373   2.047   2.787   5.800  0.3917 -1.5835  0.2594
37366SOL     OW15374   5.833   5.175   1.114 -0.1447 -0.4691  0.0274
37366SOL    HW115375   5.758   5.115   1.108  0.5434 -1.2046 -1.7997
37366SOL    HW215376   5.856   5.194   1.023  0.4251  1.6470  0.5605
37367SOL     OW15377   1.225  10.841   4.781  0.2161 -0.0294 -0.5818
37367SOL    HW115378   1.162  10.768   4.787  0.2905 -0.1696 -1.3889
37367SOL    HW215379   1.198  10.901   4.850  0.6393 -1.1902  0.6399
37368SOL     OW15380   8.535   3.432   2.009  0.1079 -0.7196 -0.0400
37368SOL    HW115381   8.547   3.410   1.917 -2.8273  1.0700 -1.0078
37368SOL    HW215382   8.580   3.515   2.021 -0.3673 -0.4447 -0.1465
37369SOL     OW15383   7.770   8.446   9.544  0.2342  0.0257 -0.0820
37369SOL    HW115384   7.830   8.373   9.557 -1.3493 -1.4554 -0.6144
37369SOL    HW215385   7.742   8.470   9.632 -1.6266 -2.1930  0.0174
37370SOL     OW15386   7.447   9.530   2.263 -0.1694 -0.0205  0.5667
37370SOL    HW115387   7.410   9.442   2.265 -0.0638 -0.0876  3.3793
37370SOL    HW215388   7.486   9.538   2.175 -3.0879 -1.4757 -0.9898
37371SOL     OW15389   3.858   4.715   5.423 -0.3408  0.3663 -0.2324
37371SOL    HW115390   3.805   4.767   5.362  1.3520  2.4103 -0.1174
37371SOL    HW215391   3.942   4.703   5.378  0.0325 -0.4305  0.6276
37372SOL     OW15392  11.234   5.656   0.494  0.6684  0.6702  0.5008
37372SOL    HW115393  11.204   5.712   0.565  2.3918 -0.3028  2.1097
37372SOL    HW215394  11.213   5.567   0.522 -0.5067  0.3481 -1.2242
37373SOL     OW15395   1.900  10.490   0.374  0.2815 -0.2318  0.5423
37373SOL    HW115396   1.826  10.515   0.429  1.5315  1.5222  1.5127
37373SOL    HW215397   1.937  10.413   0.418 -0.9613 -1.1910 -0.0083
37374SOL     OW15398   7.715   3.328   3.899  0.0738  0.7098  0.4056
37374SOL    HW115399   7.666   3.361   3.824  0.6076  0.7412  0.0715
37374SOL    HW215400   7.649   3.282   3.952 -0.4040  1.1364  0.1882
37375SOL     OW15401   4.463  10.527   3.766 -0.7030 -0.2691 -0.3896
37375SOL    HW115402   4.395  10.549   3.831 -0.8949  0.4078 -0.8025
37375SOL    HW215403   4.468  10.605   3.710  0.1625 -0.4571 -0.5882
37376SOL     OW15404  10.079   4.529   9.362 -0.1421  0.0840  0.9233
37376SOL    HW115405   9.993   4.497   9.334  0.1878 -1.2825  1.4055
37376SOL    HW215406  10.077   4.623   9.342 -1.9030  0.1690  1.3405
37377SOL     OW15407   1.007   6.567   1.761 -0.0762  0.5386 -1.2420
37377SOL    HW115408   0.916   6.596   1.772  0.0820  1.0706 -1.2991
37377SOL    HW215409   1.012   6.485   1.809 -0.4167  0.8521 -0.6592
37378SOL     OW15410   1.393   2.456  10.688  0.0819  0.3102  0.2033
37378SOL    HW115411   1.350   2.529  10.642  0.9484  1.5523  1.2944
37378SOL    HW215412   1.423   2.398  10.618  0.7924  1.8226 -0.8050
37379SOL     OW15413   1.731   1.512   4.480 -0.2942 -0.1074  0.0249
37379SOL    HW115414   1.747   1.569   4.405 -2.3065  1.1202  0.4545
37379SOL    HW215415   1.714   1.426   4.441 -0.4732  0.3194 -0.8720
37380SOL     OW15416   4.351   3.348   8.165 -1.0025 -0.0671 -0.2415
37380SOL    HW115417   4.283   3.297   8.207  0.1319 -1.2947  0.1701
37380SOL    HW215418   4.433   3.316   8.203  0.0313 -0.6654 -2.7439
37381SOL     OW15419   1.411   4.973   8.354 -0.0484 -0.2072 -0.3345
37381SOL    HW115420   1.365   5.032   8.293 -0.0733  1.3883  1.1506
37381SOL    HW215421   1.484   5.025   8.387 -0.5625 -0.6986  1.6715
37382SOL     OW15422   5.967   9.775   6.297 -0.5544 -0.3650 -0.6780
37382SOL    HW115423   6.008   9.715   6.359 -0.7569 -0.2788 -0.4600
37382SOL    HW215424   6.009   9.755   6.213  2.5448  2.0249  0.0694
37383SOL     OW15425   1.154   9.785   5.576 -0.1357 -0.4321  0.2428
37383SOL    HW115426   1.083   9.722   5.560 -0.8580 -0.4893  3.1184
37383SOL    HW215427   1.121   9.840   5.647  1.1267  2.2471 -1.1181
37384SOL     OW15428   7.229   0.058   7.425  0.6131 -0.2833 -0.2424
37384SOL    HW115429   7.221  -0.009   7.493 -0.4405  0.9821  0.9243
37384SOL    HW215430   7.280   0.128   7.465  1.2121 -0.1038 -1.2598
37385SOL     OW15431   8.119  11.111   9.606  0.1864 -0.0293 -0.6147
37385SOL    HW115432   8.046  11.063   9.566 -0.4820 -0.7676  1.3766
37385SOL    HW215433   8.183  11.043   9.629  0.8629  0.4544 -1.0246
37386SOL     OW15434   6.383   8.068   2.735 -0.5872  0.0509  0.0926
37386SOL    HW115435   6.454   8.112   2.688  0.4719  2.1457  3.3082
37386SOL    HW215436   6.356   8.132   2.801 -4.9164 -1.0311 -0.3528
37387SOL     OW15437   8.108   9.091   8.585 -0.5946 -0.4186 -0.5503
37387SOL    HW115438   8.152   9.174   8.599 -0.1415 -0.8161  0.5146
37387SOL    HW215439   8.102   9.052   8.673 -0.1317 -1.8329 -1.1178
37388SOL     OW15440  10.240   0.425   4.452  0.1636  0.3188 -0.0172
37388SOL    HW115441  10.190   0.502   4.423 -0.1912  0.0887 -0.0171
37388SOL    HW215442  10.331   0.448   4.433  0.0233  0.5712 -0.4051
37389SOL     OW15443   2.126   9.081   1.024 -0.0452 -0.7902  0.3581
37389SOL    HW115444   2.103   9.100   1.115  0.1683 -2.3612  0.7775
37389SOL    HW215445   2.047   9.044   0.986 -0.3509  0.5151 -0.3284
37390SOL     OW15446   5.276   2.697  10.750  0.1677  0.1771  0.4853
37390SOL    HW115447   5.252   2.629  10.813  2.0771  1.7896  3.1507
37390SOL    HW215448   5.332   2.653  10.687 -0.5683 -1.1740  0.7319
37391SOL     OW15449   5.754   5.104   5.645 -0.1467 -0.1063  0.7067
37391SOL    HW115450   5.668   5.136   5.673  0.1089  1.9099 -0.5280
37391SOL    HW215451   5.757   5.124   5.551  2.8131  2.9704  1.2302
37392SOL     OW15452   4.327   7.636   0.310 -0.4437 -0.1398  0.2826
37392SOL    HW115453   4.239   7.605   0.290 -0.9478  1.3184  0.1310
37392SOL    HW215454   4.323   7.662   0.402 -0.1768 -0.0795  0.2779
37393SOL     OW15455  10.939   9.859  10.801 -0.5021  0.5165  0.5342
37393SOL    HW115456  10.894   9.789  10.849  2.2116 -0.5658  1.6910
37393SOL    HW215457  10.995   9.901  10.866 -0.3716  2.3134 -0.6643
37394SOL     OW15458   2.549   1.444  10.145 -0.5251 -0.4579 -0.0721
37394SOL    HW115459   2.540   1.372  10.208  2.8852 -0.1460  0.9768
37394SOL    HW215460   2.600   1.407  10.073  0.7918  0.6992  0.2176
37395SOL     OW15461   6.460   3.852   9.773 -0.5166  0.0182 -0.0231
37395SOL    HW115462   6.510   3.895   9.703 -1.1320 -0.5937 -0.8578
37395SOL    HW215463   6.413   3.782   9.729  0.9719 -1.9930  1.3736
37396SOL     OW15464  11.048   6.911   9.444 -0.0114 -0.1107  0.7619
37396SOL    HW115465  11.107   6.841   9.419  0.5190  0.2271  1.0536
37396SOL    HW215466  11.071   6.932   9.534  0.6355  1.2204  0.3079
37397SOL     OW15467   1.590   0.126   4.907  0.4232  0.6948  0.5225
37397SOL    HW115468   1.528   0.110   4.978  0.5300  1.7337  0.8748
37397SOL    HW215469   1.675   0.138   4.951  0.7342  0.0483  0.1101
37398SOL     OW15470   4.075   4.655   7.613 -0.1700 -0.1913  0.6967
37398SOL    HW115471   4.065   4.738   7.660 -2.6213 -0.4287  0.7153
37398SOL    HW215472   4.028   4.591   7.668  0.7662 -1.3891  0.1465
37399SOL     OW15473   6.727   6.558   1.445 -0.5542  0.3123 -0.6795
37399SOL    HW115474   6.655   6.500   1.420  1.0421 -1.6121 -1.1589
37399SOL    HW215475   6.794   6.499   1.479 -0.0726  2.2489  2.0672
37400SOL     OW15476   8.645  11.201   1.311  0.1505 -0.2009  0.0376
37400SOL    HW115477   8.575  11.261   1.285  0.6956  0.0719 -0.8323
37400SOL    HW215478   8.600  11.119   1.330 -0.3832 -0.1175 -0.8102
37401SOL     OW15479   1.451   6.825   5.522 -0.4272  0.1418 -0.4570
37401SOL    HW115480   1.543   6.853   5.520 -0.3510  0.1005  1.2181
37401SOL    HW215481   1.420   6.849   5.609 -2.2758  0.9256 -1.2600
37402SOL     OW15482   1.950   2.228   9.473 -0.4534  0.2618 -0.2258
37402SOL    HW115483   2.000   2.210   9.394 -0.9943 -0.3292 -0.4421
37402SOL    HW215484   1.937   2.142   9.513 -0.0772  0.5694  0.5726
37403SOL     OW15485   7.786   8.711   9.437 -0.5838  0.2733 -0.2982
37403SOL    HW115486   7.748   8.628   9.464  0.0339 -0.1397 -0.6757
37403SOL    HW215487   7.711   8.769   9.425 -1.1485 -0.6369 -1.3930
37404SOL     OW15488   5.276   8.200   2.011  0.0972 -0.4973 -0.0754
37404SOL    HW115489   5.303   8.158   1.930 -1.4595 -0.5243 -0.6107
37404SOL    HW215490   5.201   8.148   2.041 -1.4405  1.4622 -0.3772
37405SOL     OW15491   3.356   6.135  10.705 -0.1554  0.4178  0.6354
37405SOL    HW115492   3.278   6.178  10.670 -0.4556  0.2203  1.0515
37405SOL    HW215493   3.426   6.197  10.690 -0.4268  0.6761  0.4209
37406SOL     OW15494   2.425  11.149   7.222 -0.6953 -0.1297  0.2864
37406SOL    HW115495   2.512  11.112   7.211 -0.9200 -0.3443 -0.8634
37406SOL    HW215496   2.367  11.089   7.176 -1.2557  0.7924 -0.2435
37407SOL     OW15497   6.445   5.468   4.829  0.1047 -0.2110  0.1462
37407SOL    HW115498   6.376   5.528   4.855 -0.1431 -0.3665 -0.1485
37407SOL    HW215499   6.480   5.434   4.912  0.8612  1.0119  0.3522
37408SOL     OW15500   0.405   5.175  11.371  0.0429  0.3315 -0.1623
37408SOL    HW115501   0.375   5.246  11.315  0.7771  0.4209 -0.4516
37408SOL    HW215502   0.327   5.122  11.386 -0.0933  0.0882 -1.5837
37409SOL     OW15503   1.093   2.780   2.154 -0.1060 -0.1249  0.0166
37409SOL    HW115504   1.109   2.789   2.060  0.8443  0.5337  0.2225
37409SOL    HW215505   0.998   2.790   2.163  0.0102  2.4218 -0.6356
37410SOL     OW15506   2.579   8.997   6.325  0.2236 -0.0279 -0.2575
37410SOL    HW115507   2.597   9.075   6.379  0.3911 -0.2701  0.0406
37410SOL    HW215508   2.567   8.927   6.389  1.9806 -0.6454 -0.5646
37411SOL     OW15509   6.016   7.783   9.574  0.0506  0.0693 -0.0216
37411SOL    HW115510   5.923   7.760   9.577 -0.1733  0.9371 -0.1202
37411SOL    HW215511   6.037   7.808   9.664  0.5325 -1.3657  0.3006
37412SOL     OW15512   4.973   3.709   9.433 -0.1591 -0.3323 -0.3241
37412SOL    HW115513   4.922   3.771   9.485  0.3453  0.6206 -0.9266
37412SOL    HW215514   5.015   3.652   9.497 -1.6466 -0.8855  0.1947
37413SOL     OW15515   0.033   6.506   0.504  0.2257  0.3292 -0.2573
37413SOL    HW115516   0.104   6.524   0.565  0.3618  0.4730 -0.4573
37413SOL    HW215517   0.054   6.559   0.427  0.6528 -0.7004 -0.8685
37414SOL     OW15518   1.801   5.603   2.119 -0.6873  0.7005  0.1513
37414SOL    HW115519   1.861   5.673   2.093  2.7000 -1.4913  1.3887
37414SOL    HW215520   1.798   5.545   2.043 -0.1914  0.1560  0.5443
37415SOL     OW15521  11.193  10.937  10.827  0.1902 -0.1961  0.2946
37415SOL    HW115522  11.156  11.026  10.830  0.3972 -0.0507 -1.0600
37415SOL    HW215523  11.241  10.934  10.745  0.3800 -1.4985  0.4403
37416SOL     OW15524   1.611   2.608   7.601 -0.8774  0.3077  0.2860
37416SOL    HW115525   1.540   2.549   7.626 -1.8103 -0.1739 -3.0197
37416SOL    HW215526   1.686   2.551   7.585 -0.8701  0.3774  0.0688
37417SOL     OW15527   9.665   4.649   3.972  0.6567  0.2687  0.4824
37417SOL    HW115528   9.589   4.641   4.030  2.7924 -0.8155  3.3600
37417SOL    HW215529   9.711   4.566   3.981  2.5968  1.1707 -0.5287
37418SOL     OW15530   4.076  10.260   5.353 -0.0340 -0.0186 -0.5864
37418SOL    HW115531   3.983  10.256   5.332 -0.3263  0.1543  0.6030
37418SOL    HW215532   4.103  10.349   5.331  0.1346 -0.3917 -1.9829
37419SOL     OW15533   3.371   2.489   9.081 -0.6991 -0.5355  0.3551
37419SOL    HW115534   3.409   2.513   9.165  1.4834 -0.2692 -0.6480
37419SOL    HW215535   3.295   2.547   9.072 -1.3813 -1.0071  2.3675
37420SOL     OW15536   9.367   2.926   7.496 -0.3916 -0.2735  0.1350
37420SOL    HW115537   9.282   2.884   7.504 -1.3591  1.7736  1.4035
37420SOL    HW215538   9.377   2.977   7.576  1.5586  0.3697 -0.4538
37421SOL     OW15539  10.010   1.481  10.301  0.4425  0.0143 -0.2294
37421SOL    HW115540   9.972   1.568  10.288 -1.1484 -0.4837  0.7430
37421SOL    HW215541  10.084   1.477  10.239  0.0904  1.7563 -0.8210
37422SOL     OW15542   5.263   2.958   3.454 -0.2098  0.1690 -0.7656
37422SOL    HW115543   5.222   2.998   3.377  0.1860  2.1646  0.0019
37422SOL    HW215544   5.197   2.965   3.523  0.4389  1.0369 -0.2053
37423SOL     OW15545  10.439   1.652   9.944 -0.1659 -0.1022 -0.4852
37423SOL    HW115546  10.491   1.575   9.964  1.8844  1.1507 -0.6412
37423SOL    HW215547  10.391   1.671  10.024  2.1744  0.5445  0.8534
37424SOL     OW15548  11.061   5.945   2.360 -0.2715  0.2838  0.3911
37424SOL    HW115549  11.030   5.963   2.449 -0.6046  2.3660 -0.0955
37424SOL    HW215550  11.156   5.943   2.367 -0.3035  0.2701  0.8201
37425SOL     OW15551   2.275   6.434  10.437 -0.0383  0.2270  0.1026
37425SOL    HW115552   2.263   6.526  10.460  0.6336  0.2597  0.3493
37425SOL    HW215553   2.242   6.427  10.347  1.5301  1.1229 -0.5991
37426SOL     OW15554   9.579   7.071   2.133  0.3316  0.2186 -0.1281
37426SOL    HW115555   9.624   7.154   2.119 -0.3628  0.6116 -0.0809
37426SOL    HW215556   9.492   7.084   2.095  0.5759 -0.8553 -1.0919
37427SOL     OW15557   2.468  10.080   1.452 -0.6289 -0.2468 -0.0017
37427SOL    HW115558   2.487   9.987   1.441  0.2261 -0.2526  1.3100
37427SOL    HW215559   2.409  10.101   1.380 -3.5974 -2.5595  1.5362
37428SOL     OW15560   1.613   2.321   3.320 -0.1340 -0.0279 -0.1848
37428SOL    HW115561   1.662   2.403   3.319 -1.3437  0.7120 -0.5971
37428SOL    HW215562   1.637   2.277   3.238  0.3631 -0.0085 -0.0539
37429SOL     OW15563  10.846   4.105   2.429 -0.6316 -0.3473  0.0617
37429SOL    HW115564  10.784   4.177   2.416  0.1668  0.3151 -0.1602
37429SOL    HW215565  10.845   4.089   2.523  0.7654  1.4361  0.4383
37430SOL     OW15566   3.477   0.878   5.539  0.6328 -0.0506  0.7210
37430SOL    HW115567   3.454   0.841   5.624 -0.7102 -2.5594 -0.6294
37430SOL    HW215568   3.414   0.840   5.478  2.0039  1.0765 -1.5434
37431SOL     OW15569  10.759   6.553   2.634  0.2454  0.1815 -0.1143
37431SOL    HW115570  10.848   6.520   2.617 -0.0022  0.0230 -1.1491
37431SOL    HW215571  10.753   6.633   2.582  0.2540  0.9703  1.0649
37432SOL     OW15572   4.570   5.802  11.242 -0.2295  0.3907 -0.2187
37432SOL    HW115573   4.516   5.743  11.294 -1.5217  0.4829 -1.3735
37432SOL    HW215574   4.599   5.870  11.303  1.0483 -1.2261  1.0753
37433SOL     OW15575  11.178  10.308   8.808  0.7130 -0.4438  0.0511
37433SOL    HW115576  11.104  10.367   8.821  0.4276 -0.8352  0.2326
37433SOL    HW215577  11.210  10.288   8.896  0.2743 -1.2208  0.0424
37434SOL     OW15578   9.971   1.397   9.052 -0.5921  0.0236 -0.0780
37434SOL    HW115579  10.040   1.455   9.020  0.2734 -0.8087  0.2354
37434SOL    HW215580   9.997   1.375   9.142 -1.4026 -0.0923  0.1412
37435SOL     OW15581   8.737   5.557   6.395  0.1388 -0.1039  0.2796
37435SOL    HW115582   8.668   5.618   6.418 -1.9068 -2.3732  0.5738
37435SOL    HW215583   8.772   5.527   6.480  1.2292  0.7225  0.1384
37436SOL     OW15584   3.592   5.901   9.089  0.0942 -0.2552  0.3875
37436SOL    HW115585   3.591   5.872   9.180  0.3977  0.5767  0.6639
37436SOL    HW215586   3.554   5.828   9.040  0.6295 -1.0161  1.0851
37437SOL     OW15587  11.296   3.284   8.285 -0.1426 -0.9183 -0.0775
37437SOL    HW115588  11.351   3.361   8.302 -0.7914 -0.5356  0.3344
37437SOL    HW215589  11.345   3.234   8.220  0.9469 -0.8712  0.6925
37438SOL     OW15590   9.271   7.495   1.221 -0.4566 -0.4561  0.0240
37438SOL    HW115591   9.274   7.405   1.253 -2.4698 -1.1940 -1.6476
37438SOL    HW215592   9.344   7.501   1.159 -1.1020 -1.4180 -0.8726
37439SOL     OW15593  10.709   8.379  11.246  0.6014 -0.3808 -0.0697
37439SOL    HW115594  10.660   8.320  11.189  2.4914 -0.4953 -1.6997
37439SOL    HW215595  10.714   8.461  11.198  1.8071 -0.3161  0.1390
37440SOL     OW15596   4.675   9.035   3.968 -0.8093 -0.3291 -0.1163
37440SOL    HW115597   4.603   9.019   4.029 -0.6149  0.5679  0.3686
37440SOL    HW215598   4.695   8.949   3.932 -2.5318 -0.5122 -0.7425
37441SOL     OW15599  10.650   2.077   7.876 -0.0597 -0.0365 -0.4664
37441SOL    HW115600  10.659   2.068   7.781  3.2701 -1.7469 -0.1596
37441SOL    HW215601  10.739   2.098   7.906 -0.8005 -0.5775  2.3519
37442SOL     OW15602   1.576   8.962   6.174  0.3878  0.2757 -0.2927
37442SOL    HW115603   1.534   9.000   6.097 -0.6294 -0.3486 -0.0644
37442SOL    HW215604   1.592   8.870   6.150 -2.4023 -0.6817  1.1303
37443SOL     OW15605   6.988   1.481  10.385 -0.1948 -0.4780 -0.2280
37443SOL    HW115606   7.067   1.525  10.416 -0.1843  0.1218 -1.0724
37443SOL    HW215607   6.917   1.527  10.430 -0.0524 -1.7696  1.4417
37444SOL     OW15608   6.302   0.425   0.834  0.5053  0.1281 -0.2058
37444SOL    HW115609   6.387   0.457   0.803  1.2550 -2.2461 -0.8079
37444SOL    HW215610   6.257   0.503   0.866  2.9167  1.4569  0.1735
37445SOL     OW15611   1.993  10.269   0.521 -0.1545  0.3230  0.6466
37445SOL    HW115612   1.964  10.188   0.479 -2.7465  0.5555  1.8291
37445SOL    HW215613   2.010  10.244   0.612  0.9576  0.7341  0.5647
37446SOL     OW15614   5.425   8.224  10.919 -0.9809 -0.0485 -0.1274
37446SOL    HW115615   5.388   8.139  10.943 -0.7414 -0.3290 -0.7288
37446SOL    HW215616   5.520   8.210  10.921 -0.9302  0.3181  0.1649
37447SOL     OW15617   7.368  10.943   4.124  0.0754  0.7150 -0.3096
37447SOL    HW115618   7.275  10.941   4.150  0.2774 -0.1571  0.4053
37447SOL    HW215619   7.405  10.865   4.164  1.2876  1.4358  0.0129
37448SOL     OW15620   3.629   4.579   4.124  0.3192  0.3903  0.5316
37448SOL    HW115621   3.684   4.646   4.084 -1.0126  1.5146  0.5252
37448SOL    HW215622   3.668   4.496   4.096  0.8200  1.1472 -1.1264
37449SOL     OW15623   1.089   5.622   0.499 -0.7313  0.1978  0.7004
37449SOL    HW115624   1.173   5.654   0.466 -0.0292 -1.7944  0.3793
37449SOL    HW215625   1.034   5.700   0.504  0.1609  1.1532 -2.0690
37450SOL     OW15626   3.890   3.581   1.667  0.3886 -0.0289 -0.5122
37450SOL    HW115627   3.857   3.640   1.735  0.1573 -0.3176 -0.3730
37450SOL    HW215628   3.867   3.625   1.584 -0.3413 -0.2205 -0.4185
37451SOL     OW15629   2.201   0.920   7.490  0.9889  0.2953  0.0376
37451SOL    HW115630   2.174   0.831   7.470 -0.3925  0.4022  1.2288
37451SOL    HW215631   2.184   0.969   7.409 -0.1992 -0.1350  0.0071
37452SOL     OW15632   0.982   7.744   7.410 -0.0957 -0.6795 -0.0695
37452SOL    HW115633   1.072   7.724   7.434 -0.0645 -0.7038 -0.2058
37452SOL    HW215634   0.979   7.733   7.315 -0.3514 -1.0972 -0.0136
37453SOL     OW15635   4.544  11.366  10.063  0.1980 -0.4448  0.7410
37453SOL    HW115636   4.509  11.413   9.988 -0.1543  1.7018  2.1536
37453SOL    HW215637   4.467  11.347  10.118  0.5814 -0.8758  1.1399
37454SOL     OW15638   7.545   1.698   0.709  0.1944 -0.1053 -0.3899
37454SOL    HW115639   7.556   1.759   0.781  2.0975  0.1201 -0.8156
37454SOL    HW215640   7.613   1.722   0.646 -0.5746 -1.1270 -1.6689
37455SOL     OW15641   7.519   7.803   9.068  0.3858  0.0771  0.0887
37455SOL    HW115642   7.439   7.834   9.024  0.0357 -0.9495 -0.0311
37455SOL    HW215643   7.544   7.725   9.019  1.0695 -0.0033  0.5622
37456SOL     OW15644  11.171   7.937   5.285 -0.2869  0.5863 -0.5505
37456SOL    HW115645  11.195   7.845   5.297  0.9500  0.8455 -0.8149
37456SOL    HW215646  11.099   7.935   5.222 -0.7204 -0.2342 -0.0414
37457SOL     OW15647  10.052   7.068  10.083 -0.4419 -0.0573 -0.6563
37457SOL    HW115648  10.100   7.134  10.034 -1.8526  0.4620 -1.4186
37457SOL    HW215649  10.005   7.018  10.016  0.6537 -1.9082 -0.1036
37458SOL     OW15650  10.145   8.333   9.158  0.4044 -0.0417 -0.7942
37458SOL    HW115651  10.223   8.344   9.105  0.0430 -0.8973 -1.5334
37458SOL    HW215652  10.115   8.422   9.176  0.7919  0.2700 -1.6347
37459SOL     OW15653  10.560   3.942   1.555  0.3096  0.0089 -0.1269
37459SOL    HW115654  10.574   3.928   1.462  0.1919 -0.3829 -0.0891
37459SOL    HW215655  10.564   3.854   1.593  1.4125  0.2579  0.3861
37460SOL     OW15656   5.476   5.552   3.602 -0.0087  0.2992 -0.1607
37460SOL    HW115657   5.552   5.607   3.618  1.2511 -1.0754 -1.1866
37460SOL    HW215658   5.433   5.546   3.687  0.7684  1.4510  0.3400
37461SOL     OW15659   2.917   2.463   5.670 -0.2074  0.1940 -0.2983
37461SOL    HW115660   2.845   2.430   5.617  0.9859 -3.6877  0.1618
37461SOL    HW215661   2.976   2.504   5.607 -1.2101  0.3516 -1.1609
37462SOL     OW15662   8.509   2.295   3.505 -0.6755  0.0847 -0.5314
37462SOL    HW115663   8.590   2.261   3.543 -0.7048  0.6866  0.0786
37462SOL    HW215664   8.477   2.359   3.568 -1.3605  0.2311 -1.0105
37463SOL     OW15665   2.100   3.207  10.368 -0.0155  0.4167  0.1948
37463SOL    HW115666   2.171   3.261  10.403 -1.1970  0.4335  2.8584
37463SOL    HW215667   2.143   3.128  10.335  1.3310  0.8613  0.8166
37464SOL     OW15668   2.070   9.775   6.425 -0.0131 -0.5647  0.0278
37464SOL    HW115669   2.079   9.813   6.512 -1.8635  1.6937 -0.6705
37464SOL    HW215670   2.005   9.706   6.436 -1.3077  0.6407  0.2424
37465SOL     OW15671   3.148   8.693   8.565  0.2229 -0.1155 -0.2325
37465SOL    HW115672   3.183   8.606   8.546  1.0565 -0.2099  1.5311
37465SOL    HW215673   3.218   8.753   8.541 -0.5438  0.1462 -1.9390
37466SOL     OW15674   2.813  10.341   0.104  0.0696 -0.0626  0.7203
37466SOL    HW115675   2.781  10.379   0.187  0.3077 -1.0320  1.2702
37466SOL    HW215676   2.756  10.379   0.037 -2.9618 -2.4499  1.7330
37467SOL     OW15677   2.016  10.266  10.713  0.1620 -0.0212  0.0615
37467SOL    HW115678   2.097  10.317  10.716 -0.3130  1.3326 -3.9351
37467SOL    HW215679   1.947  10.330  10.729 -0.2654 -0.8528  1.7919
37468SOL     OW15680   2.527   2.848   6.217  0.1053 -0.0997 -0.3019
37468SOL    HW115681   2.480   2.929   6.235 -0.6871 -0.8837  1.4242
37468SOL    HW215682   2.552   2.853   6.125  1.5562  2.8504  0.1512
37469SOL     OW15683   3.961   1.991   4.874 -0.3937 -0.3872 -0.3745
37469SOL    HW115684   4.002   1.906   4.894 -0.0757  0.0002  0.6409
37469SOL    HW215685   3.938   1.984   4.781  0.1129 -1.3886 -0.4424
37470SOL     OW15686   6.203   9.014   9.505 -1.2665 -0.0397  0.1586
37470SOL    HW115687   6.168   8.964   9.432  0.1556 -3.3072  1.5064
37470SOL    HW215688   6.291   9.039   9.478 -1.4379  0.4534  0.0475
37471SOL     OW15689  10.674   7.578   8.594 -0.0234 -0.0424  0.2664
37471SOL    HW115690  10.607   7.512   8.575 -1.2164  1.7534 -2.3130
37471SOL    HW215691  10.687   7.623   8.511  2.2805  1.6074  1.4354
37472SOL     OW15692   3.605   8.722   9.906  0.9916  0.1913 -0.5916
37472SOL    HW115693   3.563   8.651   9.954  1.7607  0.1290  0.0070
37472SOL    HW215694   3.558   8.726   9.823 -0.1111  0.0518  0.0019
37473SOL     OW15695   0.488   1.214   4.818 -0.2543  0.4318  0.3111
37473SOL    HW115696   0.464   1.125   4.793  1.6351 -0.6449  1.9815
37473SOL    HW215697   0.510   1.257   4.735 -2.3017 -0.2286 -0.6485
37474SOL     OW15698   5.547   4.337   2.243 -0.4532  0.0239  0.0620
37474SOL    HW115699   5.601   4.319   2.320  2.1313  3.1680 -0.8045
37474SOL    HW215700   5.475   4.389   2.276  0.1049  0.5228  0.5171
37475SOL     OW15701   3.942   7.986   3.076 -0.2497 -0.1381 -0.1045
37475SOL    HW115702   3.996   7.925   3.026  0.1715 -0.7993  1.1230
37475SOL    HW215703   3.897   7.931   3.139 -0.9851  0.6518  0.0689
37476SOL     OW15704   2.888  10.271  10.865 -0.5961  0.5859  0.0192
37476SOL    HW115705   2.967  10.296  10.914  0.0356 -0.3071 -0.5010
37476SOL    HW215706   2.885  10.332  10.791 -0.2105  0.4291 -0.1294
37477SOL     OW15707  10.339   9.529   9.853 -0.7579 -0.4156  0.2077
37477SOL    HW115708  10.354   9.614   9.895 -0.0491 -0.8171  0.7703
37477SOL    HW215709  10.306   9.552   9.766  3.7341  0.5978 -1.4939
37478SOL     OW15710   1.203  11.150   1.283  0.2224  0.0181 -0.1386
37478SOL    HW115711   1.132  11.123   1.341 -0.5706 -0.2293 -1.1908
37478SOL    HW215712   1.278  11.098   1.312  0.1207  0.6291  1.2912
37479SOL     OW15713   2.271   9.232   0.442  0.1505  0.2829 -0.2753
37479SOL    HW115714   2.238   9.307   0.492 -0.4935  1.0566 -1.8076
37479SOL    HW215715   2.281   9.163   0.507  1.0961  1.7799  1.2632
37480SOL     OW15716   7.066   9.177  11.294  0.1945  0.1526 -0.5366
37480SOL    HW115717   7.146   9.129  11.270 -0.3368 -0.7113 -0.6410
37480SOL    HW215718   7.050   9.151  11.384 -0.4722 -0.4089 -0.8102
37481SOL     OW15719   8.453   0.615   5.603  0.2764 -0.1392  0.0397
37481SOL    HW115720   8.420   0.590   5.517  0.5241 -0.4942  0.0430
37481SOL    HW215721   8.541   0.576   5.607  1.3147  1.9990 -0.5472
37482SOL     OW15722   0.607   1.798   9.007 -0.1997  0.1671  0.1379
37482SOL    HW115723   0.571   1.741   8.938  0.2995 -0.7613  0.6208
37482SOL    HW215724   0.693   1.760   9.027 -0.9000 -0.4375  2.2470
37483SOL     OW15725   5.971   2.735  11.146  0.1145 -0.0672 -0.4707
37483SOL    HW115726   5.999   2.784  11.224  0.6952  0.6371 -1.1101
37483SOL    HW215727   6.036   2.665  11.138  0.1071 -0.0852 -0.3814
37484SOL     OW15728   1.393   4.091   6.808  0.5068  0.0275  0.3408
37484SOL    HW115729   1.401   4.140   6.889  1.0004  0.5746 -0.0272
37484SOL    HW215730   1.463   4.125   6.752 -0.0317 -0.0992 -0.4331
37485SOL     OW15731   3.198   8.977  10.487  0.4652 -0.2514 -0.0245
37485SOL    HW115732   3.213   9.058  10.536  2.9158 -0.6579  0.0570
37485SOL    HW215733   3.126   8.934  10.532  1.2323  0.4093  1.9204
37486SOL     OW15734   7.990   4.584   7.662 -0.2624 -0.0322 -0.0017
37486SOL    HW115735   7.956   4.624   7.742  0.2424  0.6894 -0.1412
37486SOL    HW215736   7.913   4.574   7.605 -0.3864  0.8022  0.0096
37487SOL     OW15737  10.566   1.440   1.871 -0.0178  0.5711  0.0120
37487SOL    HW115738  10.560   1.530   1.904 -0.4231  1.1406 -1.5267
37487SOL    HW215739  10.481   1.424   1.831  0.7094  0.2273 -1.4530
37488SOL     OW15740   6.267   3.767   5.872 -0.1365 -0.5535 -0.3279
37488SOL    HW115741   6.307   3.695   5.921 -0.6845 -1.5977 -1.3577
37488SOL    HW215742   6.251   3.731   5.785 -2.4405  0.0880 -0.2557
37489SOL     OW15743   2.885  11.153   1.776  0.2315  0.0745  0.1852
37489SOL    HW115744   2.794  11.134   1.756  0.4687 -1.0590  0.1498
37489SOL    HW215745   2.882  11.199   1.860 -0.5102  1.8850 -0.7603
37490SOL     OW15746  10.408   1.394   3.789 -0.4269  0.1649  0.1459
37490SOL    HW115747  10.328   1.392   3.736  0.1098  0.7575 -0.7047
37490SOL    HW215748  10.476   1.359   3.731 -0.0550 -0.3498  0.8695
37491SOL     OW15749   6.944  10.165   4.925 -0.1885  0.4982 -0.0814
37491SOL    HW115750   7.032  10.180   4.960  1.1622 -1.1524 -2.5210
37491SOL    HW215751   6.953  10.178   4.831 -1.2348 -4.4794 -1.1436
37492SOL     OW15752  10.860   7.720   6.208  0.5966 -0.1848 -0.2398
37492SOL    HW115753  10.786   7.726   6.148 -0.5928 -0.1439  1.1758
37492SOL    HW215754  10.858   7.802   6.257  0.5548 -0.8528  0.9243
37493SOL     OW15755   3.202   8.809   2.044 -0.1223  0.4807 -0.2043
37493SOL    HW115756   3.150   8.804   2.124 -0.1832 -1.7273 -0.3248
37493SOL    HW215757   3.284   8.852   2.071 -1.0856  1.9607  0.4703
37494SOL     OW15758   5.032   5.622   2.531  0.3822  0.6246 -0.1579
37494SOL    HW115759   4.961   5.590   2.475 -0.8403  0.6147  1.3415
37494SOL    HW215760   5.046   5.552   2.596  0.7250  1.2698  0.4804
37495SOL     OW15761   6.203   2.270   5.168  0.4650 -0.0746 -0.5516
37495SOL    HW115762   6.166   2.244   5.252 -0.7777 -1.1359 -1.3717
37495SOL    HW215763   6.140   2.333   5.132  0.6327 -0.1363 -0.9653
37496SOL     OW15764   3.409   8.821   1.583  0.2660  0.0402 -0.4011
37496SOL    HW115765   3.409   8.826   1.679  0.5362 -0.1249 -0.3935
37496SOL    HW215766   3.367   8.903   1.555  0.1556  0.0734 -0.1427
37497SOL     OW15767   1.967   6.582   7.361 -0.3081  0.2028  0.6529
37497SOL    HW115768   2.017   6.523   7.417 -0.1653 -0.2357  0.0680
37497SOL    HW215769   2.032   6.617   7.300 -0.8333 -0.9900 -0.6403
37498SOL     OW15770  11.217   3.541   3.871  0.3301  0.0492  0.0530
37498SOL    HW115771  11.248   3.472   3.930 -0.0003  0.6441  0.9461
37498SOL    HW215772  11.297   3.582   3.838  0.5379 -0.9514 -0.7385
37499SOL     OW15773   7.515   2.302   3.269 -0.1065  0.0639 -0.2670
37499SOL    HW115774   7.587   2.269   3.215  0.4578  1.2269 -0.2598
37499SOL    HW215775   7.453   2.229   3.273  0.7428 -0.7184 -0.8567
37500SOL     OW15776   2.107   4.040   5.237  0.0656 -0.4924  0.2933
37500SOL    HW115777   2.113   4.115   5.296  0.5792  0.2315 -0.6509
37500SOL    HW215778   2.194   4.000   5.240  0.6464  0.5754 -1.2640
37501SOL     OW15779   7.883  11.103   0.961  0.1759  0.3415  0.0170
37501SOL    HW115780   7.881  11.014   0.925  1.7462  0.5744 -0.7330
37501SOL    HW215781   7.922  11.093   1.047 -0.5039  0.1960  0.3115
37502SOL     OW15782   5.948  10.648   3.711  0.0379  0.5483  0.4495
37502SOL    HW115783   6.002  10.726   3.725 -0.5079  0.9072  0.5716
37502SOL    HW215784   5.933  10.613   3.799  0.9478 -0.1581  0.3375
37503SOL     OW15785   2.102   3.320   7.013 -0.6062 -0.0267 -0.3239
37503SOL    HW115786   2.067   3.252   6.954 -0.5670 -0.3695  0.0468
37503SOL    HW215787   2.024   3.364   7.046 -0.6849 -0.5693  0.2376
37504SOL     OW15788   2.496  11.263   8.146 -0.0257 -0.2363  0.0072
37504SOL    HW115789   2.536  11.327   8.205  0.6744 -1.7866  1.3023
37504SOL    HW215790   2.570  11.228   8.096 -0.2332 -0.7901  0.0830
37505SOL     OW15791   1.679   9.654   6.882 -0.8569 -0.7336 -0.1450
37505SOL    HW115792   1.621   9.721   6.919  1.7617 -0.0477  3.1625
37505SOL    HW215793   1.685   9.676   6.789 -4.0225  0.4661 -0.1921
37506SOL     OW15794   8.326  11.285   6.606  0.0321  0.1027  0.1652
37506SOL    HW115795   8.353  11.271   6.515  0.1694  1.6017 -0.0521
37506SOL    HW215796   8.233  11.306   6.601  0.4411  2.1785  0.1017
37507SOL     OW15797   3.354   6.689   7.508  0.0397  0.5393  0.2554
37507SOL    HW115798   3.376   6.726   7.593 -0.0317 -0.0765  0.5471
37507SOL    HW215799   3.273   6.641   7.523  0.3083 -0.0161 -0.0293
37508SOL     OW15800   4.886   6.740   9.106  0.4713 -0.0592  0.3418
37508SOL    HW115801   4.944   6.665   9.115  0.4671 -0.2830 -1.1849
37508SOL    HW215802   4.799   6.706   9.130  0.3615 -0.7372 -0.9093
37509SOL     OW15803   8.300   3.167   3.050 -0.2529  0.6750  0.1713
37509SOL    HW115804   8.255   3.092   3.011 -1.5735  0.7777  1.3917
37509SOL    HW215805   8.229   3.221   3.085  0.7024  2.2745 -0.2758
37510SOL     OW15806   4.589   9.822   9.569 -0.3748 -0.4251 -0.1113
37510SOL    HW115807   4.591   9.901   9.515  0.5865  0.7778  1.5852
37510SOL    HW215808   4.565   9.853   9.656  1.5230 -1.7340  0.9595
37511SOL     OW15809   8.144   6.634   6.064  0.0154 -0.0662  0.4710
37511SOL    HW115810   8.156   6.583   5.984  0.3626 -1.2198  1.2371
37511SOL    HW215811   8.232   6.667   6.084 -0.0393  0.0720  0.4855
37512SOL     OW15812   3.825   5.638   1.839  0.4154  0.0136 -0.0310
37512SOL    HW115813   3.816   5.724   1.880 -0.0726 -0.8945  1.9023
37512SOL    HW215814   3.920   5.622   1.835  0.5177  0.7103 -0.6284
37513SOL     OW15815   6.079   0.493   1.990 -0.6848  0.0156  0.3944
37513SOL    HW115816   6.071   0.403   2.022  0.1300 -0.2946 -0.2444
37513SOL    HW215817   6.173   0.507   1.983 -0.8239  0.7094 -0.1065
37514SOL     OW15818   2.202   5.817   0.524 -0.6087  0.5506  0.0691
37514SOL    HW115819   2.262   5.836   0.597 -0.2898 -1.3842  0.3702
37514SOL    HW215820   2.121   5.787   0.566 -0.6884  0.1575 -0.3504
37515SOL     OW15821  10.790   2.291   8.052  0.0312 -0.3709 -0.0807
37515SOL    HW115822  10.883   2.297   8.031  0.3804  0.4317  1.5475
37515SOL    HW215823  10.746   2.337   7.980  0.6415 -2.7625 -2.1385
37516SOL     OW15824   2.449   9.715   2.121  0.0356 -0.3983 -0.1362
37516SOL    HW115825   2.428   9.736   2.212  0.2532 -0.4504 -0.0722
37516SOL    HW215826   2.427   9.623   2.111  1.4659 -0.8161  0.3127
37517SOL     OW15827   3.388   9.562   8.986  0.5517  0.1138 -0.5872
37517SOL    HW115828   3.478   9.586   8.963  0.8089  0.0097  0.3062
37517SOL    HW215829   3.386   9.563   9.081 -0.2414 -0.4585 -0.5907
37518SOL     OW15830   5.655   0.613   9.366  0.0095  0.0672 -0.4029
37518SOL    HW115831   5.655   0.692   9.311 -0.4997  0.2039 -0.2166
37518SOL    HW215832   5.565   0.581   9.361 -0.2222  0.4524  0.8635
37519SOL     OW15833   4.091   6.324  10.041  0.2134 -0.4243  0.1026
37519SOL    HW115834   4.030   6.392  10.068 -0.1213  0.4776 -2.5697
37519SOL    HW215835   4.176   6.368  10.039  0.4732 -0.8576  0.9140
37520SOL     OW15836   0.718   4.493  10.448  0.1515 -0.1325 -0.1803
37520SOL    HW115837   0.763   4.488  10.533  1.3322 -1.9126 -0.8416
37520SOL    HW215838   0.789   4.497  10.384 -0.6906 -0.7181 -1.1770
37521SOL     OW15839   1.028   3.559   1.580 -0.4364  0.0085 -0.4441
37521SOL    HW115840   1.104   3.585   1.527  0.4270  1.4349  1.4035
37521SOL    HW215841   1.031   3.463   1.579 -0.2454 -0.0093 -2.6204
37522SOL     OW15842   3.774  11.378   0.103  0.1175 -0.4755 -0.3987
37522SOL    HW115843   3.862  11.355   0.133  0.7569  1.0439 -1.0147
37522SOL    HW215844   3.788  11.441   0.033 -1.4774  0.0971 -0.2423
37523SOL     OW15845   1.547   0.000   8.591  0.6777 -0.1569  0.4060
37523SOL    HW115846   1.511   0.083   8.623 -0.5346 -0.0825 -1.0351
37523SOL    HW215847   1.608   0.026   8.522  0.9576 -0.4199  0.5574
37524SOL     OW15848   9.947   9.216   7.369 -0.8029  0.2531 -0.2133
37524SOL    HW115849   9.901   9.298   7.389  0.3253  0.8980 -0.1739
37524SOL    HW215850   9.953   9.171   7.453 -2.9419 -0.7036 -0.5273
37525SOL     OW15851   9.892   0.630   0.113 -0.2963 -0.4422 -0.5963
37525SOL    HW115852   9.930   0.714   0.138 -1.7686  0.3485 -0.9118
37525SOL    HW215853   9.935   0.608   0.031  1.0250 -0.6522  0.1289
37526SOL     OW15854   2.030  10.978   3.092  0.1287  1.0251 -0.2532
37526SOL    HW115855   2.101  10.972   3.029 -1.4205 -1.5567 -1.9490
37526SOL    HW215856   1.952  10.996   3.040 -0.7999  1.8336  1.3210
37527SOL     OW15857  10.342   1.015   5.636  0.3012  0.1675 -0.2984
37527SOL    HW115858  10.389   1.002   5.718  0.1934  0.2847 -0.2179
37527SOL    HW215859  10.403   0.983   5.569 -0.9241 -3.2524  0.0297
37528SOL     OW15860   0.936   6.400   8.999 -0.6532  0.4732 -0.0333
37528SOL    HW115861   0.939   6.407   9.095 -0.7668 -0.4647  0.0453
37528SOL    HW215862   0.844   6.408   8.977 -0.6196  0.7622 -0.0763
37529SOL     OW15863  11.127   9.304   6.309 -0.3353 -0.0113  0.5602
37529SOL    HW115864  11.173   9.372   6.260  1.2483  0.7448  2.9434
37529SOL    HW215865  11.045   9.345   6.337  0.0375  0.5120  0.9065
37530SOL     OW15866  10.712   1.622   4.981  0.4601  0.1432 -0.3792
37530SOL    HW115867  10.728   1.683   4.909 -0.2322  1.2953  0.4141
37530SOL    HW215868  10.781   1.643   5.045  1.0555 -0.8547 -0.6668
37531SOL     OW15869  11.095   9.966   2.724 -0.5782  0.2340  0.0976
37531SOL    HW115870  11.055  10.050   2.747 -0.2882  0.5962 -0.6942
37531SOL    HW215871  11.189   9.979   2.739 -0.6255 -0.2758  0.9263
37532SOL     OW15872   2.497  10.312  10.673  0.8001  0.6695  0.6860
37532SOL    HW115873   2.503  10.216  10.668 -0.6401  0.5382  0.9757
37532SOL    HW215874   2.529  10.343  10.589  0.4955 -0.1259  0.2670
37533SOL     OW15875   6.747   3.385   5.268  0.0768  0.1796 -0.2587
37533SOL    HW115876   6.775   3.460   5.215 -2.4019  0.3507 -1.4542
37533SOL    HW215877   6.713   3.322   5.204  2.5206 -2.2801  0.6584
37534SOL     OW15878   2.993   2.759   0.295  0.1550  0.2200  0.5917
37534SOL    HW115879   2.930   2.818   0.254  0.0363  0.2471  0.8121
37534SOL    HW215880   3.063   2.749   0.230 -0.8961 -1.1885 -0.3658
37535SOL     OW15881   1.476   9.489   2.690  0.0801  0.1510  0.2741
37535SOL    HW115882   1.448   9.552   2.756 -1.1245  0.6597 -0.6797
37535SOL    HW215883   1.412   9.418   2.696 -1.4620  1.2578 -1.8379
37536SOL     OW15884   8.384   0.896   5.281  0.3261 -0.4056  0.3244
37536SOL    HW115885   8.415   0.968   5.335  0.7683  0.1396 -0.6460
37536SOL    HW215886   8.295   0.922   5.255  0.7029  0.0654 -0.5056
37537SOL     OW15887  10.545   4.351   8.786 -0.7198 -0.4567  0.7321
37537SOL    HW115888  10.486   4.397   8.846 -0.9841  2.1785 -1.3761
37537SOL    HW215889  10.626   4.402   8.788 -0.5751 -0.5956 -0.7524
37538SOL     OW15890   1.029   9.784   4.122 -0.2301  0.1632 -0.1449
37538SOL    HW115891   1.101   9.840   4.093 -0.0235 -0.7304 -1.4744
37538SOL    HW215892   1.071   9.700   4.141 -0.7331  0.0489  0.4831
37539SOL     OW15893   8.350   1.630   1.122 -0.1275 -0.3328  0.0058
37539SOL    HW115894   8.327   1.678   1.042  0.7380 -1.4774 -0.9697
37539SOL    HW215895   8.445   1.622   1.119 -0.0370  0.0176  1.4129
37540SOL     OW15896   8.891  10.814   2.478 -0.5313 -0.3658 -0.2459
37540SOL    HW115897   8.868  10.721   2.477 -1.2439 -0.2078 -1.8714
37540SOL    HW215898   8.941  10.827   2.397 -0.3988  0.6650 -0.0173
37541SOL     OW15899   4.218   7.715   8.947 -0.0893 -0.3054 -0.6808
37541SOL    HW115900   4.287   7.651   8.932  1.2395  0.5961  1.2538
37541SOL    HW215901   4.260   7.800   8.936 -1.2704  0.2741 -0.9344
37542SOL     OW15902   8.869   4.760   2.806  0.3676  0.5275 -0.9433
37542SOL    HW115903   8.871   4.664   2.800  1.4599  0.4887 -0.2320
37542SOL    HW215904   8.776   4.781   2.815  0.2036 -0.5915  0.5023
37543SOL     OW15905   5.364   5.174   2.363  0.3525  0.1592  0.3243
37543SOL    HW115906   5.272   5.194   2.347  0.4481  0.0834 -0.3505
37543SOL    HW215907   5.368   5.150   2.456 -0.7865 -2.4525 -0.2074
37544SOL     OW15908   2.919   8.134   0.002 -0.1575 -0.5300 -0.3006
37544SOL    HW115909   2.912   8.048  -0.038  1.1501 -0.7503 -0.1082
37544SOL    HW215910   2.912   8.196  -0.071 -0.3750 -0.8264 -0.5306
37545SOL     OW15911   9.712   1.430  10.872  0.7913 -0.0252  0.1940
37545SOL    HW115912   9.675   1.465  10.792 -0.9599  0.4769  1.1685
37545SOL    HW215913   9.723   1.336  10.854 -2.0449 -0.4398  0.1619
37546SOL     OW15914   6.083   5.842   9.778 -0.4849  0.4373  0.4939
37546SOL    HW115915   6.133   5.921   9.800 -0.5989  0.4377  0.7616
37546SOL    HW215916   6.141   5.792   9.720 -1.2177  1.6803 -1.3906
37547SOL     OW15917   7.729   6.753   7.236  0.0250 -0.2313 -0.3488
37547SOL    HW115918   7.641   6.740   7.201  0.1766 -0.7673 -0.5299
37547SOL    HW215919   7.781   6.782   7.161  0.6159 -2.4612 -0.8678
37548SOL     OW15920   6.552   4.676  10.821 -0.4128 -0.3574  0.3470
37548SOL    HW115921   6.493   4.716  10.756 -0.2725 -0.9517 -0.1550
37548SOL    HW215922   6.531   4.583  10.818 -0.3494 -0.3999  1.1100
37549SOL     OW15923   6.860   9.313  10.637 -0.3774  0.1697  0.3370
37549SOL    HW115924   6.864   9.219  10.658  1.2804 -0.0021 -0.5988
37549SOL    HW215925   6.937   9.350  10.680 -0.6314  0.9861  0.0921
37550SOL     OW15926   2.650   8.139   4.339 -0.8052 -0.6464 -0.4449
37550SOL    HW115927   2.722   8.076   4.329 -1.2893 -0.9978 -1.9547
37550SOL    HW215928   2.571   8.086   4.334 -1.2007 -0.0551 -0.4770
37551SOL     OW15929   4.181   5.059   2.663  0.5269  0.0530 -0.2155
37551SOL    HW115930   4.183   4.964   2.675 -0.2377 -0.3555 -2.7068
37551SOL    HW215931   4.140   5.092   2.743  1.9994 -1.5540  1.2935
37552SOL     OW15932   4.621   7.250   9.986 -0.0147 -0.7248 -0.2635
37552SOL    HW115933   4.618   7.157  10.008 -3.2898 -0.3745  1.3897
37552SOL    HW215934   4.571   7.257   9.904  1.6942 -0.5554 -1.3412
37553SOL     OW15935   4.194   6.264  10.792  0.4856 -0.2642 -0.3664
37553SOL    HW115936   4.269   6.206  10.806 -0.3531 -1.3469 -0.2517
37553SOL    HW215937   4.199   6.288  10.700  0.0238 -1.7216 -0.7987
37554SOL     OW15938  10.733   4.665  10.739  0.0236  0.2151  0.8561
37554SOL    HW115939  10.766   4.708  10.817  2.0731 -1.2163  0.8837
37554SOL    HW215940  10.732   4.733  10.672 -0.2421  1.0935  1.7368
37555SOL     OW15941   4.843   3.778   4.474  0.5612  0.2514  0.3929
37555SOL    HW115942   4.903   3.810   4.408 -0.0740  1.3096  0.3065
37555SOL    HW215943   4.899   3.755   4.548  1.4721 -2.6220 -1.0652
37556SOL     OW15944   3.041   9.346   7.479  0.2601  0.1421  0.4883
37556SOL    HW115945   3.028   9.416   7.415 -2.0831 -0.0684  0.6444
37556SOL    HW215946   2.991   9.272   7.444  1.9835 -1.2147  0.7586
37557SOL     OW15947  11.299   0.013  10.163  0.4246 -0.1686  0.6827
37557SOL    HW115948  11.328  -0.003  10.253 -3.3456 -1.2153  1.8605
37557SOL    HW215949  11.273   0.105  10.162  0.5424 -0.1358  0.6335
37558SOL     OW15950   2.195   7.304   1.547  0.0137  0.0306  0.1622
37558SOL    HW115951   2.127   7.239   1.562  0.3768 -0.2674  0.5460
37558SOL    HW215952   2.243   7.273   1.471 -0.7845  0.6700 -0.6185
37559SOL     OW15953   1.543   3.180   5.873 -0.2930  0.2408  0.3376
37559SOL    HW115954   1.580   3.198   5.959  0.1402 -1.0139  0.4350
37559SOL    HW215955   1.465   3.128   5.891 -1.2419  1.5136  0.0458
37560SOL     OW15956  10.794  11.153   0.897 -0.0762  0.0330  0.0494
37560SOL    HW115957  10.706  11.187   0.912  0.4730  1.8543 -0.6120
37560SOL    HW215958  10.842  11.174   0.977 -0.4182 -1.7771  0.7913
37561SOL     OW15959   1.553   4.105   3.059  0.2974  0.5158  0.0568
37561SOL    HW115960   1.470   4.057   3.061 -0.1505  1.2864  0.4000
37561SOL    HW215961   1.554   4.147   2.973 -1.1506  2.9916  1.1335
37562SOL     OW15962   0.762   0.883   9.989  0.5343 -0.4686  0.0696
37562SOL    HW115963   0.840   0.881  10.044 -0.7267  0.9361  2.0265
37562SOL    HW215964   0.710   0.808  10.018  0.3797 -0.3811  0.0252
37563SOL     OW15965   4.350   4.890  10.315 -0.1906 -0.3698  0.3650
37563SOL    HW115966   4.331   4.860  10.226 -0.5177  0.2676  0.2079
37563SOL    HW215967   4.442   4.915  10.313 -0.4076  0.4505 -0.0505
37564SOL     OW15968   3.277  11.014   8.322  0.1083 -0.0952  0.7236
37564SOL    HW115969   3.359  11.024   8.371  0.8484  2.0318 -0.7704
37564SOL    HW215970   3.226  11.091   8.346 -0.1690  0.1623 -0.5820
37565SOL     OW15971   9.771   0.787   1.441  0.1579 -0.6539  0.3943
37565SOL    HW115972   9.791   0.867   1.489  0.9731 -0.0553 -0.8863
37565SOL    HW215973   9.681   0.799   1.411 -0.2417 -0.8926  1.4675
37566SOL     OW15974   8.086   9.791   8.879  0.5836  0.1929  0.1752
37566SOL    HW115975   8.063   9.850   8.952 -0.4633 -0.5585  0.4907
37566SOL    HW215976   8.087   9.704   8.919  1.2843 -0.0929 -0.4542
37567SOL     OW15977   2.315   6.687   2.495  0.2444 -0.3803  0.4433
37567SOL    HW115978   2.351   6.645   2.416 -1.3202 -1.3584  0.2042
37567SOL    HW215979   2.391   6.701   2.551  1.0958 -1.8882 -0.2583
37568SOL     OW15980   0.397   4.535  10.856  0.2769 -0.2190  0.1873
37568SOL    HW115981   0.305   4.526  10.828 -0.0403  1.2509  0.6641
37568SOL    HW215982   0.413   4.457  10.910 -0.1719 -1.3191 -1.2181
37569SOL     OW15983   7.543   2.115   5.855  0.1702 -0.3273  0.0129
37569SOL    HW115984   7.620   2.151   5.813 -0.1876 -0.8794 -1.1439
37569SOL    HW215985   7.473   2.176   5.833  0.3475  0.4417  1.4725
37570SOL     OW15986   5.444   9.230   3.259  0.1562  0.1620  0.2226
37570SOL    HW115987   5.413   9.230   3.349 -0.1003  3.9268  0.2873
37570SOL    HW215988   5.382   9.285   3.212  2.0363  0.9069 -1.5266
37571SOL     OW15989   7.079   5.176  11.074 -0.4863  0.1736  0.0909
37571SOL    HW115990   7.064   5.264  11.039  1.7771  0.9388  0.8786
37571SOL    HW215991   7.130   5.132  11.006 -1.7903 -0.6572 -0.3928
37572SOL     OW15992   3.657   2.777   6.195  0.1474 -0.2981 -0.1778
37572SOL    HW115993   3.611   2.693   6.196 -1.1061  0.3656  0.0220
37572SOL    HW215994   3.625   2.820   6.116 -0.4504  0.6417  0.5602
37573SOL     OW15995   0.619  11.184   3.245  0.1072  0.4326  0.0355
37573SOL    HW115996   0.556  11.256   3.234 -0.9820 -0.5288 -0.2989
37573SOL    HW215997   0.654  11.197   3.333 -1.1338  0.5904  0.5376
37574SOL     OW15998   4.010   1.499   8.838 -0.5391 -0.1515  0.0554
37574SOL    HW115999   3.953   1.560   8.792 -0.5268  0.9654  1.4332
37574SOL    HW216000   3.951   1.438   8.882 -0.5813 -0.6164 -0.6458
37575SOL     OW16001   1.980   9.510   0.502  0.5401  0.2599 -0.7698
37575SOL    HW116002   1.996   9.444   0.569  1.4713  0.6083 -0.6378
37575SOL    HW216003   2.011   9.471   0.420  0.3337  0.2229 -0.8320
37576SOL     OW16004   6.150   5.795   0.620 -0.0260  0.7201 -0.2129
37576SOL    HW116005   6.215   5.725   0.616  0.4502  1.1393  0.0533
37576SOL    HW216006   6.078   5.757   0.671  0.9155  0.9413  1.3631
37577SOL     OW16007   0.132  10.555   7.284 -0.3764 -0.0720 -0.7226
37577SOL    HW116008   0.136  10.465   7.317  2.5054 -0.6679 -2.4074
37577SOL    HW216009   0.087  10.547   7.200  1.6397 -0.3326 -1.8210
37578SOL     OW16010   9.868   5.426   0.562  0.2289 -0.2079 -0.1810
37578SOL    HW116011   9.787   5.400   0.607  1.2343 -0.5848  1.4870
37578SOL    HW216012   9.935   5.423   0.629  1.2401  2.4734 -0.9476
37579SOL     OW16013   4.471   2.456  10.804  0.4342  0.1625  0.2122
37579SOL    HW116014   4.554   2.430  10.764  0.5802 -0.5756  0.9672
37579SOL    HW216015   4.492   2.469  10.897  0.1089  1.8683  0.0691
37580SOL     OW16016   1.874   1.815   9.029  0.3189 -0.7379 -0.9283
37580SOL    HW116017   1.878   1.887   9.091  0.8159 -0.6055 -1.1124
37580SOL    HW216018   1.798   1.763   9.057 -0.3084  0.0894 -1.0566
37581SOL     OW16019   3.845   0.233   0.341 -0.2113 -0.1925 -0.2666
37581SOL    HW116020   3.756   0.230   0.307  0.3786 -2.0497 -1.8321
37581SOL    HW216021   3.857   0.148   0.384  0.2890  0.6932  1.4449
37582SOL     OW16022   1.239   1.216   3.508 -0.0319  0.9243  0.4257
37582SOL    HW116023   1.214   1.277   3.577  0.2976 -0.6314  1.9987
37582SOL    HW216024   1.159   1.167   3.490  0.4660 -0.4272  1.6338
37583SOL     OW16025   0.436   5.211   2.662  0.1548  0.5375 -0.7360
37583SOL    HW116026   0.525   5.204   2.627  0.2360 -0.0465 -0.4232
37583SOL    HW216027   0.443   5.272   2.735  0.3277  0.3984 -0.6349
37584SOL     OW16028   3.531   9.540   5.940 -0.5645 -0.4627  0.8597
37584SOL    HW116029   3.441   9.508   5.928 -1.1832  0.1168  3.4020
37584SOL    HW216030   3.565   9.490   6.014  0.2141  1.1918  1.6810
37585SOL     OW16031   2.919   6.652   1.835  0.3503  0.1911  0.4609
37585SOL    HW116032   2.889   6.561   1.837  0.5354  0.1062 -0.3246
37585SOL    HW216033   2.900   6.681   1.746  2.4184  0.1930 -0.0238
37586SOL     OW16034   4.036   1.723  11.293  0.1237 -0.0301 -0.0726
37586SOL    HW116035   4.076   1.728  11.379  0.3954 -2.3520 -0.0165
37586SOL    HW216036   3.988   1.806  11.284  3.2300  2.0126  0.6480
37587SOL     OW16037   9.556   9.749   6.949  0.0927  0.2308 -0.2278
37587SOL    HW116038   9.505   9.712   6.877  1.7345  0.1320 -1.4117
37587SOL    HW216039   9.620   9.681   6.971 -1.1044 -0.1924  2.1599
37588SOL     OW16040  10.353   2.222   6.196  0.1535 -0.1869  0.6230
37588SOL    HW116041  10.447   2.208   6.184  0.3636  1.4672  0.0284
37588SOL    HW216042  10.344   2.241   6.289  0.1319 -2.0397  1.0337
37589SOL     OW16043   0.801   9.559  10.541  0.0325 -0.0579  0.5233
37589SOL    HW116044   0.881   9.508  10.538 -0.1342 -0.3073  0.2553
37589SOL    HW216045   0.831   9.650  10.547  0.3761 -0.0189 -1.1656
37590SOL     OW16046   3.234   4.937   2.488 -0.2860 -0.4920 -0.5821
37590SOL    HW116047   3.313   4.914   2.537 -1.0493 -0.8045  0.5168
37590SOL    HW216048   3.205   5.019   2.527 -2.2898 -1.9656  1.2564
37591SOL     OW16049   2.461   8.277   5.254 -0.5525  0.1181  0.8260
37591SOL    HW116050   2.512   8.358   5.259  2.2305 -1.4933  0.7298
37591SOL    HW216051   2.381   8.302   5.207  1.1567  2.3931 -1.1501
37592SOL     OW16052   6.435  10.556   8.629 -0.0784 -0.3713  0.7818
37592SOL    HW116053   6.497  10.574   8.700  1.1214  1.1774 -0.6030
37592SOL    HW216054   6.375  10.631   8.630 -0.5558 -0.7446  0.6523
37593SOL     OW16055   3.365   5.694   0.229 -0.1173  0.2819  0.0113
37593SOL    HW116056   3.455   5.668   0.249 -0.5420 -1.7622 -0.5200
37593SOL    HW216057   3.372   5.737   0.143  0.1774 -1.2472 -0.7583
37594SOL     OW16058   1.600   5.092   3.031 -0.1259 -0.2008  0.0399
37594SOL    HW116059   1.584   5.013   2.980  1.0084 -0.6716  0.3757
37594SOL    HW216060   1.515   5.114   3.068 -0.3125 -1.7575  0.6205
37595SOL     OW16061   4.361   1.740  10.741  0.0172  0.1141 -0.5641
37595SOL    HW116062   4.272   1.743  10.778  0.2346 -0.9488  0.0819
37595SOL    HW216063   4.362   1.662  10.687  1.3290 -1.4934  1.5970
37596SOL     OW16064   0.076   2.703  10.344  0.3237 -0.0837 -0.0216
37596SOL    HW116065   0.116   2.690  10.258  1.2845 -0.4780  0.4617
37596SOL    HW216066   0.040   2.618  10.367 -0.3394  0.1386 -0.2268
37597SOL     OW16067  11.207   4.878   1.989  0.5413  0.2207  0.0633
37597SOL    HW116068  11.237   4.952   2.041  1.3586  1.5469 -2.1570
37597SOL    HW216069  11.205   4.911   1.899 -1.8843 -1.6207 -0.6492
37598SOL     OW16070   3.237   3.007   2.965  0.1089 -0.0507 -1.0465
37598SOL    HW116071   3.331   3.018   2.981  0.4750 -1.1856 -2.2589
37598SOL    HW216072   3.197   3.012   3.052  1.2972  0.2847 -0.4943
37599SOL     OW16073   5.272  11.314   8.006  0.3143 -0.1708 -0.1194
37599SOL    HW116074   5.240  11.359   8.084 -1.5018 -0.2805 -0.7453
37599SOL    HW216075   5.317  11.237   8.039  0.4177  0.2978  0.8455
37600SOL     OW16076   6.815  10.266   5.538 -0.2737  0.5647 -0.0611
37600SOL    HW116077   6.752  10.233   5.474  1.4429 -0.4948 -1.2903
37600SOL    HW216078   6.893  10.212   5.524  0.8330  1.6777  1.5542
37601SOL     OW16079  10.028   3.325   4.274 -0.6454  0.2396  0.1823
37601SOL    HW116080  10.082   3.403   4.264 -0.0218 -0.4362 -2.4711
37601SOL    HW216081  10.043   3.297   4.364  2.7146  0.6266 -0.1364
37602SOL     OW16082   9.942   2.364   7.055 -0.8653  0.3066 -0.1182
37602SOL    HW116083  10.004   2.436   7.066 -0.6245  0.0211  0.4159
37602SOL    HW216084   9.923   2.363   6.961  3.2632 -2.2963 -1.1578
37603SOL     OW16085   3.583   3.717   4.499  0.3272 -0.7263  0.1996
37603SOL    HW116086   3.602   3.711   4.593 -0.2861 -0.2867  0.3602
37603SOL    HW216087   3.575   3.626   4.471 -0.5714 -0.8561  0.8183
37604SOL     OW16088   6.329   5.595   0.478 -0.0185  0.2493  0.0086
37604SOL    HW116089   6.370   5.591   0.565 -0.5034  0.9884  0.2860
37604SOL    HW216090   6.294   5.507   0.464  0.3012  0.0493  0.4472
37605SOL     OW16091   3.293  10.343   4.903 -0.1488 -0.4651 -0.0935
37605SOL    HW116092   3.292  10.256   4.942  1.3509 -0.9688 -1.0992
37605SOL    HW216093   3.315  10.402   4.976  0.8495 -1.1807  0.2068
37606SOL     OW16094   3.818  10.087   6.641  0.4539 -0.0357 -0.1739
37606SOL    HW116095   3.759  10.080   6.566  0.0258  0.3441  0.1227
37606SOL    HW216096   3.760  10.088   6.718  0.9107 -1.0434  0.2076
37607SOL     OW16097   8.461   4.332  10.207 -0.1567  0.1700  0.4189
37607SOL    HW116098   8.388   4.380  10.168  0.9997  1.3930 -0.3571
37607SOL    HW216099   8.465   4.251  10.157 -1.1498 -0.0486  0.6691
37608SOL     OW16100   9.801   8.292   5.397 -0.6258  0.1471 -0.7476
37608SOL    HW116101   9.718   8.253   5.423 -1.9790  2.8528 -0.6595
37608SOL    HW216102   9.817   8.361   5.461  1.7745 -0.3562 -0.7184
37609SOL     OW16103   1.316   9.136   5.691  0.1419 -0.1562 -0.2275
37609SOL    HW116104   1.354   9.059   5.733 -1.5655 -0.5030  0.7903
37609SOL    HW216105   1.222   9.118   5.690 -0.2179  1.6014 -0.6218
37610SOL     OW16106   2.790   6.010   6.894 -0.2301 -0.6682 -0.2746
37610SOL    HW116107   2.736   5.968   6.827 -0.8417 -0.1192 -0.1356
37610SOL    HW216108   2.738   6.084   6.924 -0.0166 -0.9719  0.9041
37611SOL     OW16109   1.366   2.817   4.458 -0.3161  0.3925  0.2485
37611SOL    HW116110   1.389   2.749   4.394 -0.0555  0.1747  0.5737
37611SOL    HW216111   1.416   2.795   4.536 -1.0821  0.3167  0.7329
37612SOL     OW16112   6.059   8.395   6.952  0.2233 -0.0259  0.2479
37612SOL    HW116113   5.991   8.434   6.898  1.2620  1.5656  0.0011
37612SOL    HW216114   6.112   8.343   6.891  0.5938  0.6613 -0.0287
37613SOL     OW16115   4.660   9.003   7.217 -0.2741 -0.3168  0.3644
37613SOL    HW116116   4.659   8.914   7.251 -0.5991 -0.5727 -0.2827
37613SOL    HW216117   4.713   9.053   7.279 -0.6971 -0.7999  1.1199
37614SOL     OW16118   3.637   6.925   2.180 -1.0443  0.7725  0.2986
37614SOL    HW116119   3.662   6.865   2.110 -1.7289 -0.0466  0.7398
37614SOL    HW216120   3.565   6.881   2.225  0.0368  0.7982  2.1481
37615SOL     OW16121   6.102   3.539   9.474 -0.5786 -0.2148 -0.1757
37615SOL    HW116122   6.071   3.504   9.558  0.9464  0.9443  0.9252
37615SOL    HW216123   6.139   3.624   9.496 -1.2283  0.6651 -2.2568
37616SOL     OW16124   2.010   1.425   3.418  0.1703 -0.2961  0.4189
37616SOL    HW116125   2.064   1.492   3.461  1.7119 -1.1275 -0.1451
37616SOL    HW216126   1.949   1.475   3.364  1.6417  0.6817 -0.4047
37617SOL     OW16127  10.640   4.148   4.908 -0.0242 -0.4724 -0.1306
37617SOL    HW116128  10.722   4.107   4.881  0.2582  0.5097 -0.8071
37617SOL    HW216129  10.596   4.172   4.826 -0.2397  0.4460  0.2330
37618SOL     OW16130   5.224   5.777   7.016 -0.0481 -0.1181 -0.0549
37618SOL    HW116131   5.139   5.804   7.052  0.0415 -0.7593  0.6760
37618SOL    HW216132   5.285   5.844   7.046 -0.4333  0.8420 -1.3442
37619SOL     OW16133   9.026   3.156   8.474 -0.0290 -0.0609 -0.5266
37619SOL    HW116134   8.974   3.119   8.402  0.3974 -0.5898 -0.5695
37619SOL    HW216135   9.117   3.137   8.450  0.0655 -1.3229  0.7406
37620SOL     OW16136   1.403   9.847   9.093  0.5135 -0.2395 -0.1312
37620SOL    HW116137   1.427   9.889   9.175  0.0736 -0.6450  0.2113
37620SOL    HW216138   1.484   9.847   9.041  0.4796  1.1950 -0.2340
37621SOL     OW16139   6.766  10.515   2.557 -0.3856  0.1528 -0.3017
37621SOL    HW116140   6.740  10.587   2.499 -0.3495  0.8917  0.5595
37621SOL    HW216141   6.768  10.438   2.501 -1.9430  0.5338 -0.9382
37622SOL     OW16142   5.802   6.492   4.924 -0.0496  0.3711 -0.2421
37622SOL    HW116143   5.731   6.489   4.989  1.1591  0.2744  1.1264
37622SOL    HW216144   5.834   6.402   4.918 -1.3682 -0.0344 -2.4641
37623SOL     OW16145   1.038   8.667   1.684 -0.5130 -0.1345 -0.1994
37623SOL    HW116146   1.117   8.719   1.698  0.2181 -1.2213 -0.1314
37623SOL    HW216147   1.004   8.697   1.600  0.2220  0.0392 -0.4393
37624SOL     OW16148   4.716   2.448   3.453  0.1654 -0.0081 -0.3231
37624SOL    HW116149   4.710   2.372   3.512 -0.7882  0.9786  0.9038
37624SOL    HW216150   4.699   2.411   3.366 -0.1720 -1.2352  0.2317
37625SOL     OW16151   2.361   7.524   5.742  0.0771  0.2367  0.3924
37625SOL    HW116152   2.349   7.524   5.837 -1.0378  1.5566  0.2939
37625SOL    HW216153   2.365   7.432   5.718 -2.3174 -0.2192  1.4533
37626SOL     OW16154   4.278   0.666   6.907 -0.0202  0.4366  0.2141
37626SOL    HW116155   4.292   0.581   6.864  0.4598  0.4321  0.3692
37626SOL    HW216156   4.345   0.723   6.869 -0.7676  0.9434 -0.3875
37627SOL     OW16157   9.921   1.765  10.320 -0.0934  0.3353  0.1858
37627SOL    HW116158   9.888   1.853  10.299  0.0368  0.3107 -0.1319
37627SOL    HW216159   9.959   1.774  10.408 -0.4073  0.5069  0.3061
37628SOL     OW16160   1.287   1.911  10.668  0.2551 -0.2386  0.4980
37628SOL    HW116161   1.225   1.853  10.713 -1.8255  1.4973  0.0038
37628SOL    HW216162   1.264   1.999  10.698  1.5748  0.5911 -0.7846
37629SOL     OW16163   5.491   6.473   8.242  0.1140 -0.6946  0.4658
37629SOL    HW116164   5.558   6.533   8.273  0.1498  0.0028 -0.8695
37629SOL    HW216165   5.414   6.493   8.295  0.7995 -1.1641  1.6691
37630SOL     OW16166   8.668   0.316  10.902 -0.1988 -0.1195 -0.0907
37630SOL    HW116167   8.704   0.272  10.824 -2.4629  0.3506 -1.5094
37630SOL    HW216168   8.646   0.245  10.961  1.0231 -0.5286 -0.0964
37631SOL     OW16169   7.276   8.375   1.763 -0.0866 -0.2417 -0.5558
37631SOL    HW116170   7.207   8.360   1.698 -0.8174  0.0947  0.1178
37631SOL    HW216171   7.269   8.468   1.784 -0.5587 -0.5465  0.7462
37632SOL     OW16172   0.106   8.780   5.664  0.3651  0.0604  0.1149
37632SOL    HW116173   0.077   8.833   5.737  1.7435 -0.4244  1.0647
37632SOL    HW216174   0.044   8.707   5.661  0.3739  0.0148  0.8910
37633SOL     OW16175  11.369  11.010   8.720  0.2864  0.3208  0.4789
37633SOL    HW116176  11.307  10.986   8.789 -0.1449  0.8960  0.2925
37633SOL    HW216177  11.374  11.105   8.723  1.5952  0.2640  0.8607
37634SOL     OW16178   7.635   1.780   8.347  0.1102 -0.3445 -0.3183
37634SOL    HW116179   7.656   1.774   8.254 -0.5185  0.3929 -0.5219
37634SOL    HW216180   7.714   1.814   8.388  1.3981 -3.3344 -0.1242
37635SOL     OW16181   8.997  10.811   7.598 -0.0927  0.0221  0.3399
37635SOL    HW116182   9.091  10.824   7.608 -0.4206  1.7989  1.6574
37635SOL    HW216183   8.968  10.774   7.682 -0.5659 -0.6610 -0.1077
37636SOL     OW16184   1.359   5.578  10.231 -0.2340 -0.0885  0.3875
37636SOL    HW116185   1.308   5.599  10.309 -0.9913 -0.8903  0.1219
37636SOL    HW216186   1.294   5.566  10.162  0.1142 -2.8343  0.4089
37637SOL     OW16187   2.290   6.673   0.356 -0.2433 -0.1488  0.6285
37637SOL    HW116188   2.268   6.718   0.275 -1.8517 -0.9516  0.5908
37637SOL    HW216189   2.386   6.669   0.355 -0.2004  0.3924 -0.9137
37638SOL     OW16190   5.280   9.476   8.137 -0.0380  0.6095 -0.0728
37638SOL    HW116191   5.316   9.451   8.222 -0.8402  1.8481  0.6546
37638SOL    HW216192   5.300   9.569   8.129 -0.5161  0.6447 -0.9626
37639SOL     OW16193   8.419   6.070   3.856  0.2794  0.2685 -0.0902
37639SOL    HW116194   8.333   6.030   3.843  0.2785 -0.2248  1.3037
37639SOL    HW216195   8.424   6.085   3.950  1.7154  0.3286 -0.1638
37640SOL     OW16196   0.867   1.605   0.546  0.5436  0.6753  0.1358
37640SOL    HW116197   0.880   1.612   0.452 -1.7299  1.4824 -0.1763
37640SOL    HW216198   0.851   1.695   0.575 -2.8995  0.0770  0.5247
37641SOL     OW16199   1.840   5.557   4.492  0.0209 -0.2236 -0.2556
37641SOL    HW116200   1.816   5.639   4.535  1.4317 -0.1255  0.3711
37641SOL    HW216201   1.864   5.582   4.403  0.2427  0.0042 -0.1294
37642SOL     OW16202  10.248   7.775   0.393  0.6585 -0.1500  0.2884
37642SOL    HW116203  10.213   7.802   0.308 -0.1197  0.0380  0.6608
37642SOL    HW216204  10.338   7.806   0.392  0.6895 -0.2386 -0.5080
37643SOL     OW16205  11.148   1.322   5.985 -0.7694  0.4968  0.3869
37643SOL    HW116206  11.173   1.287   5.899 -1.2670 -0.2270  0.5193
37643SOL    HW216207  11.055   1.299   5.993 -0.4788 -0.3679  1.5496
37644SOL     OW16208   6.375   4.883  10.255  0.1828  0.3778  0.3705
37644SOL    HW116209   6.447   4.938  10.222  0.1989  0.1743  0.0679
37644SOL    HW216210   6.330   4.852  10.177  0.8532 -0.9568  0.4752
37645SOL     OW16211   6.839   3.708  10.098 -0.4344 -0.0639 -0.3414
37645SOL    HW116212   6.856   3.624  10.140  1.7234  0.3776 -0.2076
37645SOL    HW216213   6.771   3.690  10.034 -0.1173 -1.8852 -0.2117
37646SOL     OW16214   3.546   0.832   3.751 -0.1202 -0.3458  0.0860
37646SOL    HW116215   3.589   0.751   3.777 -1.1650 -0.1844  2.5809
37646SOL    HW216216   3.577   0.897   3.814  1.3316  1.4888 -2.3283
37647SOL     OW16217   2.651   4.553  10.380 -0.7975  0.5428  0.3867
37647SOL    HW116218   2.585   4.602  10.331 -2.2088 -2.1683 -0.5933
37647SOL    HW216219   2.715   4.526  10.314  0.2856  1.4690  1.0131
37648SOL     OW16220   2.874   8.037   1.218 -0.0689 -0.0789 -0.5945
37648SOL    HW116221   2.834   7.990   1.291  0.3264  0.0351 -0.3019
37648SOL    HW216222   2.868   7.976   1.145  1.0471 -0.8637 -0.0557
37649SOL     OW16223   8.044   6.817   4.985 -0.2712  0.3777  0.1753
37649SOL    HW116224   7.951   6.798   4.973 -0.0495 -1.0347  0.5733
37649SOL    HW216225   8.074   6.844   4.898 -0.8941  0.1386 -0.1215
37650SOL     OW16226   3.096   6.584   1.200  0.2779 -0.1804 -0.3474
37650SOL    HW116227   3.034   6.639   1.246 -0.6820  0.4565 -2.2843
37650SOL    HW216228   3.169   6.643   1.178  0.4928 -0.3518 -0.1011
37651SOL     OW16229  10.067   9.390  11.369 -0.6092 -0.0410  0.3423
37651SOL    HW116230  10.033   9.386  11.280 -1.2131  0.0501  0.5628
37651SOL    HW216231  10.000   9.439  11.418  0.2242  0.8649  0.6033
37652SOL     OW16232   9.878   8.701   4.108 -0.4817  0.0275  0.2927
37652SOL    HW116233   9.886   8.748   4.191 -2.2832  0.2790  0.3567
37652SOL    HW216234   9.837   8.764   4.049 -3.5993 -1.5934  0.5659
37653SOL     OW16235   7.754   5.924  10.920 -0.5140  0.0621 -0.7524
37653SOL    HW116236   7.814   5.870  10.972 -0.9468  0.3676  0.0927
37653SOL    HW216237   7.761   5.889  10.831 -1.3901 -1.9292 -0.0958
37654SOL     OW16238   9.762   1.581   5.057 -0.3636  0.3344 -0.2383
37654SOL    HW116239   9.698   1.650   5.038  0.2555  1.4202  1.4694
37654SOL    HW216240   9.832   1.626   5.104  0.1606 -1.4301  0.7187
37655SOL     OW16241   1.306   9.690  10.981 -1.0666  0.2851  0.1043
37655SOL    HW116242   1.292   9.689  11.075  0.5516 -0.2760  0.3679
37655SOL    HW216243   1.312   9.598  10.956  0.0880  0.4483 -0.2747
37656SOL     OW16244   4.893   8.133   9.871  0.2885  0.1100 -0.3736
37656SOL    HW116245   4.894   8.041   9.900  0.5820  0.2586  0.1104
37656SOL    HW216246   4.852   8.131   9.785 -1.0307 -0.2892  0.2464
37657SOL     OW16247   4.050   0.428  10.429 -0.7933  0.2768 -0.0402
37657SOL    HW116248   4.060   0.510  10.477  1.4682 -0.4512  0.9128
37657SOL    HW216249   3.993   0.375  10.485 -1.5069  0.8594 -0.2040
37658SOL     OW16250   2.015   3.210   5.684 -0.6412  0.8111 -0.5348
37658SOL    HW116251   2.049   3.206   5.594 -0.9968 -1.1721 -0.6117
37658SOL    HW216252   2.093   3.208   5.739 -0.4791 -1.1545 -0.7697
37659SOL     OW16253   6.420   4.610  10.294 -0.6577  0.2145  0.2831
37659SOL    HW116254   6.454   4.584  10.209 -3.8177 -1.2777 -0.7071
37659SOL    HW216255   6.393   4.701  10.283 -1.6686 -0.1751 -0.5727
37660SOL     OW16256   7.322   0.421   5.864  0.5237 -0.0629  0.0799
37660SOL    HW116257   7.329   0.326   5.856 -0.0542  0.0702 -2.8118
37660SOL    HW216258   7.373   0.442   5.943  0.4466 -2.7631  0.9223
37661SOL     OW16259   1.369   1.500   4.127  0.0802 -0.3255 -0.1153
37661SOL    HW116260   1.305   1.571   4.127  1.5486  1.0788  0.9126
37661SOL    HW216261   1.390   1.486   4.035 -1.2265 -0.3669 -0.4141
37662SOL     OW16262   2.912   4.299   4.785 -0.2165  0.2153  0.1766
37662SOL    HW116263   2.907   4.262   4.697  0.3199  1.0256 -0.2064
37662SOL    HW216264   2.827   4.339   4.799 -1.7082 -3.0360  1.5066
37663SOL     OW16265   2.990   4.723   6.628  0.3719 -0.4157  0.5241
37663SOL    HW116266   2.924   4.744   6.694  1.6167 -1.5546  2.2131
37663SOL    HW216267   3.019   4.634   6.650  1.2790 -0.5824 -1.1801
37664SOL     OW16268   7.028   0.409   3.461 -0.5785  0.0789  0.0708
37664SOL    HW116269   7.095   0.340   3.455 -1.5998 -0.9586  0.1850
37664SOL    HW216270   7.047   0.454   3.543  0.2071  0.0471 -0.0847
37665SOL     OW16271   9.338   7.648   7.473  0.2382 -0.1956 -0.2922
37665SOL    HW116272   9.349   7.649   7.568 -0.1968 -0.6137 -0.2329
37665SOL    HW216273   9.427   7.652   7.439  0.4632 -1.1494  0.1430
37666SOL     OW16274   1.671   1.555   8.249  0.1085 -0.4239  0.0370
37666SOL    HW116275   1.657   1.460   8.246 -0.7712 -0.3225  0.5712
37666SOL    HW216276   1.635   1.582   8.333 -0.2005  0.4666 -0.3659
37667SOL     OW16277   7.124   7.918  10.702 -0.3369 -0.2487  0.6404
37667SOL    HW116278   7.085   8.001  10.728  1.1447  0.7312 -0.1260
37667SOL    HW216279   7.146   7.875  10.784 -1.3109  0.0145  1.0490
37668SOL     OW16280   7.711   1.105   6.007  0.1977  0.0259  0.0318
37668SOL    HW116281   7.657   1.175   5.973 -0.1097  0.0019  0.4575
37668SOL    HW216282   7.763   1.075   5.933  0.7111  1.0554 -0.0329
37669SOL     OW16283   8.011   0.905   6.085 -0.5970  0.0402 -0.0963
37669SOL    HW116284   7.993   0.900   6.179 -0.0928  0.5984  0.0312
37669SOL    HW216285   7.930   0.874   6.044 -0.2285 -1.8637  0.5330
37670SOL     OW16286   7.981   9.758  10.556 -0.5214 -0.1841 -0.4227
37670SOL    HW116287   7.908   9.812  10.526 -0.5988 -0.5757 -0.9457
37670SOL    HW216288   8.057   9.794  10.512 -0.3102  0.5278  0.4905
37671SOL     OW16289   7.018   6.604   8.314  0.5490  0.1926  0.0868
37671SOL    HW116290   7.027   6.550   8.392 -1.9145  0.9928  1.0210
37671SOL    HW216291   7.002   6.693   8.347 -1.5988  0.3800 -1.2277
37672SOL     OW16292   4.889   7.548   5.949 -0.7364  0.0220  0.5838
37672SOL    HW116293   4.801   7.582   5.967 -0.8117 -0.2798  0.8045
37672SOL    HW216294   4.881   7.453   5.961 -0.1457  0.0848  1.6424
37673SOL     OW16295   8.714   7.994   6.571 -0.5543 -0.1628 -0.5069
37673SOL    HW116296   8.794   8.045   6.558 -1.0557  0.8630  0.2640
37673SOL    HW216297   8.654   8.028   6.504 -0.3200 -1.0180 -1.1651
37674SOL     OW16298   1.149   4.357  10.933  0.0333 -0.3586  0.6728
37674SOL    HW116299   1.056   4.383  10.929 -0.3264 -1.7065 -2.9337
37674SOL    HW216300   1.148   4.262  10.924  1.7776 -0.5468  2.0054
37675SOL     OW16301   7.721   8.825   6.721  0.1294  0.7362 -0.1458
37675SOL    HW116302   7.683   8.902   6.679 -1.6045 -0.3199 -0.6592
37675SOL    HW216303   7.734   8.851   6.812  0.0165  1.7840 -0.4194
37676SOL     OW16304   2.049   1.819   1.842 -0.2344 -0.4622 -0.1543
37676SOL    HW116305   2.094   1.791   1.922  1.9822 -0.2842 -1.2651
37676SOL    HW216306   2.102   1.782   1.771 -1.1515  0.8427 -1.5653
37677SOL     OW16307   8.481   4.102   8.437 -0.2353  0.2169  0.3244
37677SOL    HW116308   8.483   4.107   8.341  0.1259  0.0089  0.3226
37677SOL    HW216309   8.509   4.189   8.466 -1.1404  0.5505  0.2417
37678SOL     OW16310   1.467   1.383   2.938  0.1829  0.0464  0.5049
37678SOL    HW116311   1.467   1.477   2.954  1.0367  0.2193 -0.4321
37678SOL    HW216312   1.549   1.365   2.893 -0.3332 -1.0137 -0.0778
37679SOL     OW16313  10.728  10.160   5.254  0.5602  0.3429 -0.6022
37679SOL    HW116314  10.785  10.216   5.202 -0.5887  1.1538 -1.0380
37679SOL    HW216315  10.655  10.139   5.196  1.9152 -3.4675 -1.2471
37680SOL     OW16316   8.318   1.124   8.996  0.6339 -0.2588 -0.4300
37680SOL    HW116317   8.293   1.033   9.012  1.2576 -0.6082 -1.3522
37680SOL    HW216318   8.375   1.147   9.070 -1.0125  0.0276  0.8287
37681SOL     OW16319   4.148   1.547   3.017  0.3351 -0.1848  0.0256
37681SOL    HW116320   4.184   1.612   2.957  0.1731 -1.7434 -1.8584
37681SOL    HW216321   4.223   1.519   3.070  0.4144  1.4488  0.8389
37682SOL     OW16322   1.448   8.268   5.398  0.7121  0.2137  0.0603
37682SOL    HW116323   1.533   8.277   5.354  0.1986 -0.6811 -1.1882
37682SOL    HW216324   1.461   8.200   5.463  0.6982 -0.7401 -0.8989
37683SOL     OW16325   3.201   3.857   0.282  0.2338 -0.0448 -0.9051
37683SOL    HW116326   3.184   3.791   0.214 -0.5548 -0.3697 -0.4075
37683SOL    HW216327   3.141   3.929   0.261 -0.9401 -0.6831  0.1643
37684SOL     OW16328   5.196   1.945   8.842 -0.0575  0.3654 -0.1240
37684SOL    HW116329   5.201   1.950   8.747  0.4516  0.9424 -0.0760
37684SOL    HW216330   5.217   2.034   8.872 -0.8142  0.3469  0.5034
37685SOL     OW16331   5.388  10.957  11.338 -0.3177  0.0472 -0.5127
37685SOL    HW116332   5.346  11.035  11.301  0.2279  0.6815  0.1818
37685SOL    HW216333   5.349  10.884  11.289  0.5928  0.8467 -2.5617
37686SOL     OW16334   7.592   2.618   8.526  0.2548  0.7483  0.3167
37686SOL    HW116335   7.527   2.663   8.579 -1.4908  0.9872 -1.8970
37686SOL    HW216336   7.600   2.531   8.565 -2.7221  0.0922 -0.2722
37687SOL     OW16337   0.450   8.408   3.717 -0.2605 -0.3223  0.1603
37687SOL    HW116338   0.419   8.413   3.626  1.2777 -1.4415 -0.4643
37687SOL    HW216339   0.371   8.419   3.770 -1.0355  1.6207 -1.2601
37688SOL     OW16340  10.672   3.855   0.282 -0.4329  0.2998 -0.0833
37688SOL    HW116341  10.725   3.926   0.320  1.1876 -1.2535  0.7275
37688SOL    HW216342  10.703   3.849   0.192  0.2367 -0.0791  0.1632
37689SOL     OW16343   1.017   5.868   3.818  0.1185 -0.6629  0.1668
37689SOL    HW116344   1.059   5.801   3.872 -2.0800 -0.9591  1.6333
37689SOL    HW216345   1.078   5.943   3.823  0.4902 -1.0246  2.2994
37690SOL     OW16346   0.326  11.121  10.454  0.3601 -0.4455  0.2221
37690SOL    HW116347   0.349  11.202  10.409 -1.3357  1.0244  1.8102
37690SOL    HW216348   0.247  11.090  10.410 -0.8635  0.5889  1.5641
37691SOL     OW16349   2.612   0.550   1.541  0.1608 -0.3307 -0.3724
37691SOL    HW116350   2.540   0.499   1.504  0.6623 -0.9770 -0.4728
37691SOL    HW216351   2.646   0.600   1.466 -0.0869 -0.1411 -0.3581
37692SOL     OW16352   1.894   6.276   2.161  0.1324 -0.2342  0.2665
37692SOL    HW116353   1.910   6.352   2.105 -0.7661 -0.8361 -0.8381
37692SOL    HW216354   1.978   6.232   2.166  0.4432  0.3380  0.1690
37693SOL     OW16355   4.875  10.258   5.765 -0.1610 -0.0545 -0.2759
37693SOL    HW116356   4.847  10.349   5.754  1.4215  0.4425 -0.3401
37693SOL    HW216357   4.859  10.218   5.679 -1.4334 -0.0197 -0.0740
37694SOL     OW16358   8.973   4.990   2.683 -0.8430 -0.3884  0.3097
37694SOL    HW116359   8.961   4.901   2.717 -0.8563 -1.3883 -2.1117
37694SOL    HW216360   8.885   5.020   2.662 -0.7171 -0.4332 -0.3062
37695SOL     OW16361   5.134   0.782   1.667  0.2312  0.6385 -0.5051
37695SOL    HW116362   5.178   0.739   1.741 -1.6748 -0.0583  0.2973
37695SOL    HW216363   5.198   0.781   1.596  1.6926  0.2462  0.7839
37696SOL     OW16364   1.639   5.233   1.804 -0.4043  0.1232  0.2140
37696SOL    HW116365   1.551   5.263   1.823 -0.5520 -0.7238  0.9674
37696SOL    HW216366   1.651   5.249   1.711 -0.8612  1.4510  0.3620
37697SOL     OW16367   7.573   0.935   0.207  0.7417  0.5424  0.1707
37697SOL    HW116368   7.588   0.931   0.301  0.4053  2.0320  0.3005
37697SOL    HW216369   7.531   1.019   0.192  2.6411  1.2752 -1.5563
37698SOL     OW16370   3.074  10.815   7.723  0.2750 -0.5383  0.1694
37698SOL    HW116371   3.113  10.897   7.753  0.1361  0.1807 -1.5322
37698SOL    HW216372   3.144  10.750   7.733  0.5228 -0.1500  1.0971
37699SOL     OW16373   0.364   7.126   6.722  0.3585 -0.4342 -0.3437
37699SOL    HW116374   0.382   7.212   6.685  1.2864 -0.6305 -0.3555
37699SOL    HW216375   0.300   7.087   6.662  1.3145 -0.4766 -1.3706
37700SOL     OW16376   3.571   7.738   9.951 -0.0754 -0.2122 -0.2036
37700SOL    HW116377   3.592   7.761  10.042 -1.5880  1.3182 -0.1956
37700SOL    HW216378   3.515   7.661   9.959 -0.3375  0.0134  0.1778
37701SOL     OW16379   9.500   6.867  10.353 -0.2341  0.6067  0.3211
37701SOL    HW116380   9.438   6.795  10.367  0.8954 -0.5606 -0.4285
37701SOL    HW216381   9.448   6.936  10.312 -0.8582 -0.7337 -1.2494
37702SOL     OW16382   1.712   2.314   0.380 -0.0474  0.6614 -0.2162
37702SOL    HW116383   1.762   2.364   0.317  1.4891 -1.5428 -0.8665
37702SOL    HW216384   1.712   2.368   0.459  3.8744  0.6053 -0.0046
37703SOL     OW16385   0.657   5.080   9.235 -0.3945 -0.1279 -0.3830
37703SOL    HW116386   0.707   5.116   9.308 -2.5450  0.2400  1.0120
37703SOL    HW216387   0.660   5.147   9.167 -1.4300  1.2158  0.8406
37704SOL     OW16388   0.676   5.506   7.503 -0.3052  0.3898 -0.1096
37704SOL    HW116389   0.621   5.428   7.502  0.4736 -0.2928  2.4946
37704SOL    HW216390   0.625   5.571   7.551  0.7080  0.0419  1.5195
37705SOL     OW16391   8.193   5.116   0.989  0.8603  0.2389  0.4177
37705SOL    HW116392   8.130   5.048   0.965  0.6803  0.2124  0.9483
37705SOL    HW216393   8.245   5.129   0.910 -1.0778  1.6796 -0.7023
37706SOL     OW16394  10.633   3.420   9.087  0.1195 -0.5370 -0.0469
37706SOL    HW116395  10.542   3.395   9.096 -0.3678  0.4820 -1.6631
37706SOL    HW216396  10.631   3.502   9.036  1.9803 -1.2265 -1.3629
37707SOL     OW16397   4.158   4.882   0.728 -0.5501 -0.0662  0.2144
37707SOL    HW116398   4.093   4.952   0.728  1.8101  2.2749 -0.9048
37707SOL    HW216399   4.207   4.895   0.647  1.7605 -1.2652  1.3334
37708SOL     OW16400   4.080   0.968   1.744  0.2891  0.0669  0.4677
37708SOL    HW116401   3.996   0.938   1.777 -0.8569  1.4921 -1.0328
37708SOL    HW216402   4.143   0.942   1.812 -1.1187 -2.2404  1.0012
37709SOL     OW16403   2.495   3.636   1.344 -0.0330  0.2799  0.2297
37709SOL    HW116404   2.482   3.595   1.258  0.0184 -0.2271  0.4637
37709SOL    HW216405   2.584   3.613   1.368 -0.5329 -0.8210  1.0855
37710SOL     OW16406   4.936   3.764   5.153 -0.0145  0.1660 -0.1033
37710SOL    HW116407   4.852   3.788   5.113 -0.5579 -0.5241  0.5999
37710SOL    HW216408   4.958   3.839   5.208  0.2846  0.7282 -0.9620
37711SOL     OW16409  10.121   5.349   0.111  0.4676 -0.5278  0.6141
37711SOL    HW116410  10.184   5.300   0.165  1.3907 -1.2701 -1.0663
37711SOL    HW216411  10.171   5.377   0.035 -0.4842  1.6314  0.7146
37712SOL     OW16412   2.136   4.539   4.421 -0.0100 -0.6982  0.9532
37712SOL    HW116413   2.204   4.475   4.439  0.2471 -0.3221  1.3308
37712SOL    HW216414   2.061   4.509   4.472  0.4604 -0.0928  2.0471
37713SOL     OW16415   9.388   9.335   7.369 -0.5887  0.5377  0.3708
37713SOL    HW116416   9.398   9.293   7.454 -1.8100  0.7981  0.6583
37713SOL    HW216417   9.314   9.394   7.379  0.2957  1.8412 -0.3995
37714SOL     OW16418   2.618   2.596   9.018 -0.1691 -0.0732 -0.0675
37714SOL    HW116419   2.663   2.514   9.043  1.8909  0.1702 -2.5334
37714SOL    HW216420   2.550   2.568   8.958  0.9918 -0.0074 -1.4742
37715SOL     OW16421  10.052  10.213   0.804  0.2746  0.2463  0.1043
37715SOL    HW116422  10.110  10.228   0.730  0.0119 -0.1479 -0.1891
37715SOL    HW216423   9.978  10.164   0.767 -0.7807  1.6829  0.2520
37716SOL     OW16424   5.646  10.117   8.496  0.0754  0.1143  0.0647
37716SOL    HW116425   5.664  10.138   8.404 -0.3950  0.6251  0.0856
37716SOL    HW216426   5.733  10.115   8.537  0.2014  1.3224 -0.0946
37717SOL     OW16427   4.704   6.956   1.133 -0.0144 -0.0337  0.1152
37717SOL    HW116428   4.649   7.017   1.183 -0.3795  0.5331 -0.9557
37717SOL    HW216429   4.646   6.921   1.065  0.2912 -1.3219  0.4967
37718SOL     OW16430   3.481   0.815   9.334 -0.4401 -0.2607 -0.3556
37718SOL    HW116431   3.554   0.858   9.378 -0.9572 -0.6135  0.8856
37718SOL    HW216432   3.416   0.884   9.322 -0.7819 -0.4150  0.5422
37719SOL     OW16433   2.961   9.139   8.946  0.1467 -0.3733  0.1016
37719SOL    HW116434   2.931   9.055   8.980  2.6302 -1.8973 -1.1199
37719SOL    HW216435   2.940   9.137   8.853  2.8869 -1.1102 -0.6015
37720SOL     OW16436   3.237   0.896   3.231 -0.1196  0.2251  0.7072
37720SOL    HW116437   3.156   0.947   3.243 -0.1749  0.3641 -0.2174
37720SOL    HW216438   3.275   0.892   3.319 -0.1044  1.8939  0.8149
37721SOL     OW16439   4.076   0.312  10.190  0.0556  0.4173 -0.1756
37721SOL    HW116440   4.151   0.353  10.148 -1.1674  1.3807 -1.5566
37721SOL    HW216441   4.065   0.359  10.272  0.7599  0.4884 -0.1210
37722SOL     OW16442  11.141   5.647   9.128 -0.1738  0.5824  0.4184
37722SOL    HW116443  11.087   5.676   9.054 -1.6424  0.6668  1.4849
37722SOL    HW216444  11.090   5.579   9.170  1.1999 -0.3385  0.6669
37723SOL     OW16445   6.982   4.427   5.124 -0.4829 -0.6487  0.4443
37723SOL    HW116446   7.056   4.394   5.073  0.6931  1.4269  0.6664
37723SOL    HW216447   7.009   4.416   5.215 -1.3752 -1.7847  0.5892
37724SOL     OW16448   2.188   6.399  10.182 -0.4833 -0.1340 -0.6834
37724SOL    HW116449   2.215   6.442  10.100 -0.0641 -0.7076 -0.8547
37724SOL    HW216450   2.222   6.310  10.174 -1.4180 -0.5263 -0.3713
37725SOL     OW16451   9.667   7.780   6.455 -0.0224 -0.3001  0.1367
37725SOL    HW116452   9.674   7.744   6.367 -0.7844  1.7423 -0.8340
37725SOL    HW216453   9.755   7.812   6.476 -0.4071  1.7405 -1.1092
37726SOL     OW16454  11.203   7.698   4.759  0.5369  0.1738 -0.1875
37726SOL    HW116455  11.259   7.705   4.836  0.1517  0.5733  0.0639
37726SOL    HW216456  11.119   7.736   4.787  0.3867  0.3000 -0.7964
37727SOL     OW16457   0.087   6.055   2.120 -0.5177 -0.3175 -0.1897
37727SOL    HW116458   0.100   6.123   2.054 -0.4093  0.5496  0.6969
37727SOL    HW216459   0.170   6.053   2.169 -0.8458 -0.4602  0.3683
37728SOL     OW16460   3.817   6.625   5.176  0.0176 -0.5557  0.0735
37728SOL    HW116461   3.857   6.712   5.188  1.2518 -0.6533 -2.6178
37728SOL    HW216462   3.823   6.585   5.263  2.4462  0.8500  0.6710
37729SOL     OW16463  10.262   0.620   3.138  0.4083  0.0747 -0.0252
37729SOL    HW116464  10.183   0.626   3.085 -1.6683 -0.3256  2.7962
37729SOL    HW216465  10.302   0.707   3.131 -0.2487  0.3029 -1.4588
37730SOL     OW16466   6.118  10.781   1.896 -0.2982 -0.6279  0.5469
37730SOL    HW116467   6.041  10.747   1.941  0.3332 -2.7662  0.1063
37730SOL    HW216468   6.094  10.779   1.804 -0.7589  1.5851  0.5676
37731SOL     OW16469   1.640   4.935   7.272 -0.3289  0.2757 -0.0316
37731SOL    HW116470   1.724   4.975   7.293 -0.2648  0.2977 -0.3239
37731SOL    HW216471   1.644   4.918   7.178 -0.8478  0.7433 -0.1455
37732SOL     OW16472   7.041   9.414   9.895  0.0067 -0.6029  0.1262
37732SOL    HW116473   6.975   9.345   9.882 -1.7590  1.3876 -2.5473
37732SOL    HW216474   7.025   9.476   9.824  0.4028  3.4425  3.2278
37733SOL     OW16475   2.089   9.617   9.912  0.2996 -0.1791 -0.1663
37733SOL    HW116476   2.120   9.627   9.821 -1.2099  0.5331 -0.6260
37733SOL    HW216477   2.011   9.671   9.917 -1.6856 -2.8959  0.5509
37734SOL     OW16478  10.702   4.568   9.479  0.0322  0.2976  0.7262
37734SOL    HW116479  10.609   4.590   9.485  0.4745  2.9667 -0.7907
37734SOL    HW216480  10.739   4.602   9.561 -0.1361  0.3352  0.7884
37735SOL     OW16481   7.144   1.572   9.283 -0.0827  0.0533 -0.5959
37735SOL    HW116482   7.152   1.666   9.271  1.2576  0.1627  0.7605
37735SOL    HW216483   7.157   1.559   9.377 -0.5464 -1.4626 -0.7119
37736SOL     OW16484   6.128   2.826   4.703  0.5853 -0.3475  0.1042
37736SOL    HW116485   6.107   2.739   4.738 -0.9896 -0.2304 -0.4926
37736SOL    HW216486   6.181   2.867   4.772  1.1804 -1.6902  0.4842
37737SOL     OW16487   4.628   5.349   8.011  1.2933  0.4339  0.3154
37737SOL    HW116488   4.657   5.260   8.030  0.9704  0.0296 -1.0060
37737SOL    HW216489   4.615   5.351   7.916 -0.5626  1.3119  0.5413
37738SOL     OW16490   3.290  11.140   9.744  0.3169 -0.2801 -0.0605
37738SOL    HW116491   3.254  11.051   9.741  1.9791 -1.0812  1.9070
37738SOL    HW216492   3.244  11.182   9.817  2.7790 -1.1295  2.1105
37739SOL     OW16493   2.945  10.165   3.733  0.7692 -0.3336  0.5609
37739SOL    HW116494   2.927  10.082   3.690  0.4600 -0.9458  1.8256
37739SOL    HW216495   3.040  10.172   3.733  0.7746 -0.2914 -0.2550
37740SOL     OW16496   9.014   0.709   6.427  0.1666 -0.3887  0.2164
37740SOL    HW116497   9.032   0.801   6.444 -1.6401 -0.0368  0.4755
37740SOL    HW216498   9.052   0.662   6.502 -0.1201  0.3064  0.8111
37741SOL     OW16499   0.178   8.443   1.112  0.1316 -0.4472 -0.3179
37741SOL    HW116500   0.205   8.495   1.036  2.7178 -1.4908 -0.2231
37741SOL    HW216501   0.138   8.364   1.075  1.2705 -0.8964 -0.6200
37742SOL     OW16502   2.379   4.360   2.664 -0.3072 -0.2013  0.3433
37742SOL    HW116503   2.430   4.393   2.738 -0.6471  0.1653  0.4175
37742SOL    HW216504   2.433   4.289   2.628  0.6017  0.6616 -0.0402
37743SOL     OW16505   5.915   7.630   4.901 -0.2456 -0.0037 -0.4647
37743SOL    HW116506   5.847   7.681   4.944 -0.1231 -0.0492 -0.2142
37743SOL    HW216507   5.987   7.626   4.965  0.1777  0.4430 -0.9089
37744SOL     OW16508   7.503   1.520   9.282 -0.0203  0.4717  0.0688
37744SOL    HW116509   7.414   1.506   9.249  0.0981  1.2160 -0.5947
37744SOL    HW216510   7.509   1.463   9.359 -0.6484 -0.5295 -0.5979
37745SOL     OW16511  10.359   9.091   6.831 -0.1615  0.2845  0.2225
37745SOL    HW116512  10.288   9.029   6.847 -1.7886  1.9676 -0.0749
37745SOL    HW216513  10.423   9.042   6.779 -0.2038 -1.8273  2.0010
37746SOL     OW16514   5.607   9.808   5.754  0.7008  0.8689 -0.4980
37746SOL    HW116515   5.669   9.736   5.764  2.0955  2.1321  0.1809
37746SOL    HW216516   5.532   9.782   5.807  0.4175 -0.8546 -1.6310
37747SOL     OW16517   5.788   0.519   6.127  0.2172  0.0238  0.1528
37747SOL    HW116518   5.731   0.496   6.053  0.1542 -0.5010  0.3560
37747SOL    HW216519   5.794   0.438   6.178  1.4639 -0.0300 -0.0668
37748SOL     OW16520   1.556   5.408  10.256 -0.2545 -0.4776 -0.0102
37748SOL    HW116521   1.501   5.485  10.240  0.4991  0.2829  0.9769
37748SOL    HW216522   1.500   5.351  10.309 -0.7488 -0.5536 -0.5901
37749SOL     OW16523   7.986   3.058   4.465 -0.2371 -0.2501 -0.2747
37749SOL    HW116524   7.924   3.065   4.392  1.2983 -0.7826 -1.6720
37749SOL    HW216525   7.963   2.976   4.508 -0.4799 -0.4727 -0.8146
37750SOL     OW16526   6.238   0.139   1.001 -0.2634 -0.9798  0.7660
37750SOL    HW116527   6.176   0.197   1.045 -0.1874 -1.0104  0.9160
37750SOL    HW216528   6.302   0.199   0.960 -0.9493 -0.9132 -0.2428
37751SOL     OW16529   9.579   9.157   1.599  0.2589  0.3590 -0.3629
37751SOL    HW116530   9.535   9.075   1.620 -2.8545  2.0772  0.4868
37751SOL    HW216531   9.636   9.173   1.675  0.9684 -0.9901 -0.5771
37752SOL     OW16532   2.894   0.844   7.548  0.0815 -0.1516  0.0674
37752SOL    HW116533   2.941   0.769   7.510 -1.9563 -1.4023 -0.1175
37752SOL    HW216534   2.928   0.850   7.637  0.6714 -0.9493 -0.0878
37753SOL     OW16535  10.673   5.253  10.894  0.3624  0.2270 -0.2096
37753SOL    HW116536  10.674   5.343  10.926 -0.8598 -0.3535  1.6140
37753SOL    HW216537  10.722   5.204  10.959  0.2803 -0.5625 -0.7311
37754SOL     OW16538   5.014   4.614   8.437 -0.5448 -0.2767 -0.0320
37754SOL    HW116539   5.004   4.535   8.489 -0.6853 -0.3470 -0.1644
37754SOL    HW216540   5.062   4.586   8.359  0.2921 -0.0331  0.3849
37755SOL     OW16541   7.040   6.881   5.723  0.1566  0.1972  0.1813
37755SOL    HW116542   6.960   6.873   5.775  0.0624  1.0974  0.2063
37755SOL    HW216543   7.026   6.960   5.670  1.0923  0.4641  0.3089
37756SOL     OW16544   8.779  11.165  10.177 -0.2541  0.2839  0.2998
37756SOL    HW116545   8.757  11.105  10.249 -0.9095 -0.0544 -0.1698
37756SOL    HW216546   8.731  11.245  10.198 -0.5167  0.1548  0.1947
37757SOL     OW16547   4.506   0.402  10.425 -0.3661 -0.1920 -0.0981
37757SOL    HW116548   4.415   0.372  10.432 -0.7725  1.1290  0.7192
37757SOL    HW216549   4.544   0.348  10.355 -2.2649  0.3784 -1.6612
37758SOL     OW16550  10.604   0.753   6.563 -0.3019  0.3707 -0.4936
37758SOL    HW116551  10.653   0.672   6.578  1.5508  1.6220  0.5464
37758SOL    HW216552  10.548   0.733   6.487 -0.9637 -2.2929  0.5881
37759SOL     OW16553   5.324   3.430  11.268  0.1978 -0.5020 -0.3607
37759SOL    HW116554   5.341   3.456  11.177  0.4746 -0.3578 -0.2688
37759SOL    HW216555   5.253   3.487  11.297  0.6038 -0.0494 -0.2519
37760SOL     OW16556   0.594  11.036   7.612  0.0525 -0.2347  0.1738
37760SOL    HW116557   0.589  11.115   7.666 -0.9505  0.6492 -1.1477
37760SOL    HW216558   0.667  11.051   7.553  1.1718 -1.2185  1.2620
37761SOL     OW16559   3.214   7.483   2.861  0.9669  0.8994  0.9142
37761SOL    HW116560   3.223   7.507   2.953  2.1349 -1.6299  1.5484
37761SOL    HW216561   3.303   7.488   2.826  0.6390  1.1858  0.1030
37762SOL     OW16562   7.229   1.469   2.569 -0.5471 -0.3695  0.5310
37762SOL    HW116563   7.265   1.530   2.505 -1.1263 -0.9969 -0.4274
37762SOL    HW216564   7.140   1.452   2.538 -0.7504 -0.8951  1.3644
37763SOL     OW16565   5.551   7.108  11.213 -0.1512  0.1512 -0.0557
37763SOL    HW116566   5.585   7.022  11.185 -2.2977 -1.1652  1.1192
37763SOL    HW216567   5.507   7.091  11.296 -2.3359  1.9728 -0.7218
37764SOL     OW16568   9.155   5.945   5.360  0.1503  0.2468 -0.8041
37764SOL    HW116569   9.119   5.965   5.274 -0.2645  0.8477 -0.4987
37764SOL    HW216570   9.089   5.977   5.422  1.1879  1.3780 -0.2331
37765SOL     OW16571   5.202   8.410  10.510 -0.1800  0.1570  0.2258
37765SOL    HW116572   5.207   8.317  10.533  1.6829  0.4348  1.0835
37765SOL    HW216573   5.280   8.449  10.549 -1.2511  2.2209  0.4321
37766SOL     OW16574   5.084   4.038   0.597 -0.0392 -0.3421  0.1976
37766SOL    HW116575   5.085   4.072   0.686  2.2467 -0.3473  0.2255
37766SOL    HW216576   5.047   4.109   0.544  1.6172  0.9576  0.7222
37767SOL     OW16577   3.649   9.422   3.084  0.4663  0.6612 -0.7935
37767SOL    HW116578   3.559   9.408   3.053 -0.4454 -1.5397  2.4111
37767SOL    HW216579   3.703   9.371   3.024 -0.6691  0.1983 -1.4560
37768SOL     OW16580   9.484   4.802   4.452 -0.1430  0.8086  0.0741
37768SOL    HW116581   9.570   4.767   4.473 -0.9780  0.0774  2.7532
37768SOL    HW216582   9.475   4.879   4.507 -1.8572 -0.2026  1.3243
37769SOL     OW16583  10.420   9.652  10.618 -0.0263  0.0803  0.1632
37769SOL    HW116584  10.433   9.654  10.713 -0.5215 -1.2257  0.2709
37769SOL    HW216585  10.444   9.563  10.592 -0.8059  0.1363 -0.8016
37770SOL     OW16586   3.697   1.846   9.893 -0.6075 -0.3863  0.0062
37770SOL    HW116587   3.664   1.931   9.924  2.0689  0.9557 -0.5510
37770SOL    HW216588   3.708   1.794   9.972  2.4405  1.6185  1.0642
37771SOL     OW16589   5.610   5.354   4.464 -0.2015 -0.5456  0.1242
37771SOL    HW116590   5.622   5.357   4.369  1.1975  2.4242  0.2830
37771SOL    HW216591   5.697   5.369   4.500 -0.8014 -1.0312  1.9021
37772SOL     OW16592   4.918   7.257   1.228  0.8143 -0.3217  0.0108
37772SOL    HW116593   4.919   7.353   1.235  2.6767 -0.3041 -0.0157
37772SOL    HW216594   4.877   7.228   1.310 -0.4713  0.4944 -0.3193
37773SOL     OW16595   5.631   9.739  11.295 -0.0646  0.2541 -0.0054
37773SOL    HW116596   5.618   9.669  11.230  0.4605  0.9015 -0.8370
37773SOL    HW216597   5.561   9.725  11.359 -0.5532 -0.4605 -0.6667
37774SOL     OW16598   1.693   7.481   0.258  0.1281  0.2449  0.1066
37774SOL    HW116599   1.740   7.455   0.179  0.2885  1.4792 -0.2230
37774SOL    HW216600   1.630   7.546   0.228 -1.6991 -1.2406  0.5761
37775SOL     OW16601   2.654   9.618   3.200  0.2670  0.0245  0.0230
37775SOL    HW116602   2.606   9.621   3.282 -1.2769  0.6158 -0.8559
37775SOL    HW216603   2.746   9.619   3.225 -0.1500  2.2836  1.6903
37776SOL     OW16604   7.682   8.769   0.542  0.2867  0.4824 -0.4956
37776SOL    HW116605   7.627   8.707   0.589 -0.4528  1.1723 -0.4191
37776SOL    HW216606   7.642   8.776   0.456 -0.2766  1.6315 -0.1619
37777SOL     OW16607   1.311   7.395   5.481 -0.8517  0.0907 -0.0889
37777SOL    HW116608   1.256   7.463   5.520 -1.1030 -0.0848 -0.1301
37777SOL    HW216609   1.370   7.369   5.552 -0.4411  0.6751 -0.2118
37778SOL     OW16610   0.772   8.438  11.335  0.1284 -0.5484 -0.5574
37778SOL    HW116611   0.681   8.452  11.361  0.2478  0.1479 -0.4874
37778SOL    HW216612   0.769   8.360  11.279 -0.3343 -1.2031  0.3655
37779SOL     OW16613   4.030   6.954   1.052 -0.3577  0.1255  0.0672
37779SOL    HW116614   4.074   6.876   1.019 -0.5364  0.4272 -0.9133
37779SOL    HW216615   3.940   6.945   1.024 -0.8359 -0.2291  1.6140
37780SOL     OW16616   3.617   6.743   5.039 -0.3220  0.4933 -0.1872
37780SOL    HW116617   3.619   6.822   5.094  1.1656  1.5583 -1.6643
37780SOL    HW216618   3.677   6.683   5.082 -0.2333  0.7837  0.1038
37781SOL     OW16619   2.136   3.560   8.642  0.2263  0.0249  0.2973
37781SOL    HW116620   2.135   3.652   8.615  1.3408  0.0378  0.2578
37781SOL    HW216621   2.194   3.517   8.579 -1.2455 -0.9632 -0.4427
37782SOL     OW16622  11.342   0.982   5.322 -0.2899  0.3068  0.9628
37782SOL    HW116623  11.433   0.972   5.350 -0.5303  1.3944  2.2743
37782SOL    HW216624  11.301   1.030   5.394 -1.2396  2.2740 -0.7833
37783SOL     OW16625   6.326   3.636   7.114  0.2811 -0.2829  0.0859
37783SOL    HW116626   6.260   3.661   7.179  1.9634  1.2432  1.3149
37783SOL    HW216627   6.359   3.552   7.145  1.6082  0.7866  1.7222
37784SOL     OW16628   1.555   6.244   2.966 -0.7486  0.4954  0.1115
37784SOL    HW116629   1.606   6.217   3.042  0.9883  3.3868  0.1295
37784SOL    HW216630   1.565   6.173   2.903  1.3666 -0.1052  1.0378
37785SOL     OW16631   3.406   2.590   1.698 -0.0209 -0.2342 -0.1155
37785SOL    HW116632   3.451   2.523   1.750  0.3215 -0.9624 -1.3036
37785SOL    HW216633   3.475   2.650   1.671 -0.2266  0.2437  0.4189
37786SOL     OW16634   2.480   1.921  10.328 -0.6021 -0.6891 -0.0737
37786SOL    HW116635   2.505   1.829  10.320 -1.8258 -0.9631 -1.1813
37786SOL    HW216636   2.404   1.919  10.387  1.5653  0.0808  2.9799
37787SOL     OW16637   4.959   9.220   6.367 -0.1273  0.1804 -0.5297
37787SOL    HW116638   4.890   9.183   6.311  0.1843  0.3555 -1.0383
37787SOL    HW216639   5.005   9.144   6.402 -1.0802  0.0381  0.4742
37788SOL     OW16640   5.708   6.886   8.214  0.1047  0.2615  0.2944
37788SOL    HW116641   5.747   6.811   8.169  1.1538  1.2118 -0.4468
37788SOL    HW216642   5.710   6.862   8.306 -1.1480 -1.3082 -0.0443
37789SOL     OW16643   2.492   5.716   6.585  0.1369  1.0223  0.2369
37789SOL    HW116644   2.463   5.627   6.604  1.4482  0.5318  0.0490
37789SOL    HW216645   2.445   5.771   6.647 -2.5849  0.5261 -1.2397
37790SOL     OW16646   1.863   8.395   8.652 -0.1775  0.3126 -0.3387
37790SOL    HW116647   1.947   8.412   8.608 -0.1571  1.9874  0.2904
37790SOL    HW216648   1.797   8.421   8.588 -0.2864 -1.6354 -1.0940
37791SOL     OW16649   1.542   3.312  10.889  0.1042 -0.0797  0.4462
37791SOL    HW116650   1.491   3.389  10.912  0.6729  0.6626 -0.6783
37791SOL    HW216651   1.619   3.346  10.845 -0.3512 -1.3141 -1.4603
37792SOL     OW16652   8.835   1.329   9.426  0.1496 -0.0474 -0.9668
37792SOL    HW116653   8.796   1.327   9.338  0.4690  0.7971 -1.1381
37792SOL    HW216654   8.920   1.286   9.415 -1.4367 -3.7714 -0.1746
37793SOL     OW16655   0.208   1.025   5.393 -0.3575  0.3387 -0.2380
37793SOL    HW116656   0.251   1.009   5.309  0.3221  1.0826 -0.0370
37793SOL    HW216657   0.235   1.113   5.418 -0.7564  0.2204  0.6458
37794SOL     OW16658   6.016   0.532   1.491  0.1039  0.5506  0.3245
37794SOL    HW116659   6.011   0.591   1.416  0.3453  0.2585  0.0748
37794SOL    HW216660   5.954   0.462   1.470 -0.4798  0.9103  0.8014
37795SOL     OW16661  10.907   3.645   7.288 -0.3348 -0.2252 -0.2121
37795SOL    HW116662  10.986   3.590   7.286 -0.2318 -0.0703 -0.4544
37795SOL    HW216663  10.869   3.637   7.201  1.8993  3.2476 -1.7385
37796SOL     OW16664   6.296   5.680   7.928  0.3603  0.7521  0.6355
37796SOL    HW116665   6.222   5.722   7.885 -0.2387  0.3875  1.2906
37796SOL    HW216666   6.279   5.586   7.918  1.9265  0.5922 -1.2560
37797SOL     OW16667   5.906   3.596  11.351  0.5340 -0.2777  0.0158
37797SOL    HW116668   5.917   3.680  11.394 -0.0760 -0.4209  0.4739
37797SOL    HW216669   5.827   3.607  11.297  0.1385 -0.7091  0.4919
37798SOL     OW16670   9.383   4.096   3.057  0.1926  0.1320 -0.1714
37798SOL    HW116671   9.463   4.092   3.004  0.6210  1.7285  0.2954
37798SOL    HW216672   9.414   4.100   3.147 -0.4865 -0.9065  0.1200
37799SOL     OW16673  10.706   8.031  11.269  0.4173  0.3592 -0.4003
37799SOL    HW116674  10.776   7.970  11.245  0.8316  0.8861 -0.5374
37799SOL    HW216675  10.748   8.092  11.330 -0.2602 -0.1186  0.5788
37800SOL     OW16676   2.073   8.224   9.076 -0.1637  0.2914  0.5896
37800SOL    HW116677   2.016   8.269   9.014 -0.7798 -0.4691  0.5977
37800SOL    HW216678   2.155   8.273   9.073 -0.5282  0.8671 -0.0723
37801SOL     OW16679   0.054   7.745   1.365  0.1317 -0.2439  0.1476
37801SOL    HW116680   0.078   7.808   1.434 -0.2543 -0.0774  0.1360
37801SOL    HW216681   0.084   7.661   1.398 -0.0282 -0.1615  0.5155
37802SOL     OW16682   9.706   9.474  10.431 -0.0024  0.4438  0.2420
37802SOL    HW116683   9.764   9.460  10.357  0.3041 -0.0128  0.5647
37802SOL    HW216684   9.763   9.511  10.499 -0.6365  2.6838 -0.3450
37803SOL     OW16685   3.401   4.964  10.234  0.5621  0.0433 -0.1711
37803SOL    HW116686   3.490   4.968  10.268 -0.0781  0.2003  1.6065
37803SOL    HW216687   3.380   5.055  10.212  0.4942  0.1668  0.3888
37804SOL     OW16688   7.858   5.858   5.570 -0.9713  0.0515  0.5259
37804SOL    HW116689   7.917   5.904   5.511 -0.3060 -2.0171 -0.5408
37804SOL    HW216690   7.910   5.842   5.649  0.0060 -1.7282 -0.3929
37805SOL     OW16691   8.547   0.922   9.373  0.6293  0.3072 -0.2679
37805SOL    HW116692   8.591   0.899   9.291  0.3844 -0.1276 -0.2811
37805SOL    HW216693   8.454   0.909   9.355  0.5310  0.7558 -0.0911
37806SOL     OW16694  11.066  10.095   8.156  0.0155 -0.1902  0.1182
37806SOL    HW116695  11.137  10.035   8.135  1.8177  2.4259 -1.9020
37806SOL    HW216696  10.992  10.062   8.105  0.9737 -0.6697 -1.0115
37807SOL     OW16697   9.355   0.943   0.310 -0.1612 -0.3209 -0.1348
37807SOL    HW116698   9.312   1.026   0.330  0.5261 -0.0062  0.0785
37807SOL    HW216699   9.396   0.917   0.392  2.1746  0.6716 -0.8957
37808SOL     OW16700   9.311   3.233   1.450 -0.2231 -0.7244  0.0823
37808SOL    HW116701   9.249   3.244   1.521  0.4248  1.2135  0.3978
37808SOL    HW216702   9.285   3.151   1.408 -4.3857  0.9797 -1.1578
37809SOL     OW16703   8.683  11.218   9.534  0.1150 -0.2047  0.2234
37809SOL    HW116704   8.763  11.201   9.484 -0.8636  1.5821 -2.0828
37809SOL    HW216705   8.613  11.182   9.480 -0.7965 -0.6255  1.6267
37810SOL     OW16706   2.052   6.964   1.045 -0.9383  0.1038  0.0013
37810SOL    HW116707   2.135   6.997   1.012 -0.2183 -1.5042  0.1247
37810SOL    HW216708   2.075   6.887   1.096 -2.6769 -1.9118 -2.0147
37811SOL     OW16709   9.034   1.984   3.994  0.7125  0.2584 -0.0646
37811SOL    HW116710   9.008   1.954   4.081  0.1175 -2.7367 -1.1460
37811SOL    HW216711   9.129   1.992   3.998  0.6700  0.4031  0.9040
37812SOL     OW16712   7.170   5.341   6.643 -0.0779 -0.0249 -0.4628
37812SOL    HW116713   7.156   5.346   6.549 -0.0152 -1.8501 -0.6077
37812SOL    HW216714   7.246   5.396   6.659 -0.5565  0.9333 -1.3394
37813SOL     OW16715   3.458   7.470  11.340 -0.0618 -0.4571 -0.0547
37813SOL    HW116716   3.459   7.378  11.315  1.0155 -0.3055 -0.6414
37813SOL    HW216717   3.376   7.481  11.388 -0.7975 -1.4433 -1.0274
37814SOL     OW16718   6.152  11.133   4.820  0.1092  0.2122  0.6754
37814SOL    HW116719   6.169  11.216   4.776  0.3570 -0.5200 -0.6984
37814SOL    HW216720   6.235  11.109   4.861  0.6064 -0.2338 -0.5307
37815SOL     OW16721   1.546   5.930   1.644  0.1550  0.2508 -0.7707
37815SOL    HW116722   1.508   6.017   1.629  2.5641  1.4644 -0.2771
37815SOL    HW216723   1.602   5.941   1.721  0.7038 -1.6848 -0.8417
37816SOL     OW16724   5.025   5.266   9.169  0.2780  0.0637  0.0528
37816SOL    HW116725   5.081   5.343   9.169  1.6965 -0.9157 -0.7042
37816SOL    HW216726   5.030   5.233   9.258  1.7887 -0.5773 -0.2301
37817SOL     OW16727   3.154   5.103  10.926  0.4482 -0.3371  0.2530
37817SOL    HW116728   3.176   5.183  10.973  0.8025 -0.8937  1.0540
37817SOL    HW216729   3.205   5.035  10.969 -0.5764 -1.1569  0.2243
37818SOL     OW16730   4.831   8.737  10.133  0.6914  0.6656  0.1425
37818SOL    HW116731   4.915   8.707  10.167  0.0389  1.2850  2.4344
37818SOL    HW216732   4.840   8.832  10.129  0.2014  0.7112  0.1048
37819SOL     OW16733   9.685   3.525   4.890  0.0544  0.8026  0.0237
37819SOL    HW116734   9.718   3.516   4.801 -1.5754  2.0668 -0.7868
37819SOL    HW216735   9.698   3.440   4.930 -0.3749 -0.2123 -1.8852
37820SOL     OW16736   2.016   3.970   2.574  0.0100  0.0766 -0.2413
37820SOL    HW116737   1.966   3.934   2.647 -1.0266 -0.7244 -1.3020
37820SOL    HW216738   1.993   4.063   2.572 -1.3471 -0.2425 -0.6009
37821SOL     OW16739   9.194   5.985   6.370  0.3678  0.0804 -0.2994
37821SOL    HW116740   9.118   6.011   6.317 -0.1539 -2.2946 -0.8397
37821SOL    HW216741   9.260   5.959   6.306  1.3998  1.4202  0.1895
37822SOL     OW16742   2.861   5.784   7.984  0.2512  0.1098  0.2363
37822SOL    HW116743   2.829   5.872   7.964  1.0394  0.1654 -0.9171
37822SOL    HW216744   2.867   5.781   8.079  1.0218  1.6095  0.2735
37823SOL     OW16745   6.296   7.172   7.036  0.6802 -0.6081  0.1908
37823SOL    HW116746   6.271   7.259   7.068  1.0465 -0.6119  0.5035
37823SOL    HW216747   6.373   7.149   7.090  0.4790 -1.1944  0.2272
37824SOL     OW16748   1.528   4.850   1.515 -0.2208  0.1937  0.4710
37824SOL    HW116749   1.578   4.920   1.473  2.2640  0.0411  2.8559
37824SOL    HW216750   1.576   4.770   1.492 -0.1853 -0.1322  1.5998
37825SOL     OW16751   6.521   7.719  10.177  0.2869  0.3368  0.3130
37825SOL    HW116752   6.611   7.716  10.145  0.8424 -0.5352  1.8800
37825SOL    HW216753   6.499   7.628  10.195 -1.5894  0.2948 -1.7476
37826SOL     OW16754   5.410   6.139   7.456  0.3059  0.5442 -0.0482
37826SOL    HW116755   5.319   6.120   7.480  0.5413  0.2030  0.5768
37826SOL    HW216756   5.462   6.099   7.525  0.9318  0.8419 -0.3434
37827SOL     OW16757   4.612   2.124   5.347 -0.2088  0.3553  0.3472
37827SOL    HW116758   4.605   2.214   5.379 -0.2790  0.3581  0.3227
37827SOL    HW216759   4.668   2.130   5.270  0.0875  0.3266  0.5599
37828SOL     OW16760   5.407   6.356   2.003 -0.7171  0.0253 -0.5456
37828SOL    HW116761   5.484   6.302   2.023  0.3851  2.2274  1.9280
37828SOL    HW216762   5.352   6.349   2.081 -0.2858  2.6753  0.1236
37829SOL     OW16763   9.505   1.257  11.296  0.0641  0.0111  0.0978
37829SOL    HW116764   9.431   1.293  11.247  0.8263  1.3669 -0.0963
37829SOL    HW216765   9.526   1.324  11.361 -0.1101 -1.2040  1.4672
37830SOL     OW16766  10.977   3.819  11.095  0.1766  0.2258  0.1239
37830SOL    HW116767  11.056   3.787  11.137  0.3181  1.1528  0.5929
37830SOL    HW216768  10.907   3.765  11.133  0.2808  1.1306  1.6963
37831SOL     OW16769   3.530   7.473   7.731 -0.5098 -0.0138 -0.4222
37831SOL    HW116770   3.441   7.489   7.764 -0.9255  1.0080 -1.9204
37831SOL    HW216771   3.527   7.504   7.640  1.4536  0.2903 -0.4111
37832SOL     OW16772   7.737   6.560   5.498 -0.2827 -0.2745  0.0845
37832SOL    HW116773   7.670   6.497   5.473 -1.0381  0.5928 -0.1163
37832SOL    HW216774   7.695   6.646   5.488  0.3256  0.2259  1.4780
37833SOL     OW16775   4.181   0.326   3.343  0.8975 -0.2534 -0.4275
37833SOL    HW116776   4.092   0.361   3.339  0.4924 -1.3303 -1.4135
37833SOL    HW216777   4.236   0.396   3.306  0.5724  0.6891  0.8185
37834SOL     OW16778   8.758   6.379   8.938 -0.6744 -1.0915 -0.4580
37834SOL    HW116779   8.756   6.358   9.031  0.8251  0.1516 -0.1074
37834SOL    HW216780   8.784   6.297   8.895  0.3378 -1.2242  0.3830
37835SOL     OW16781   3.474   1.826   6.401  0.4739 -0.4595  0.5368
37835SOL    HW116782   3.484   1.854   6.310  0.5764 -0.3510  0.5806
37835SOL    HW216783   3.432   1.740   6.396 -0.8949  0.1877  0.4301
37836SOL     OW16784   9.123   6.858   4.688 -0.1547  0.3691 -0.2546
37836SOL    HW116785   9.090   6.862   4.598 -0.6627  1.6316 -0.0347
37836SOL    HW216786   9.212   6.894   4.682 -0.0732  0.1638 -0.2946
37837SOL     OW16787   5.607   0.586   6.356  0.3911 -0.6601 -0.3803
37837SOL    HW116788   5.512   0.593   6.351  0.2329  0.2180  2.2074
37837SOL    HW216789   5.632   0.538   6.277 -2.3978 -2.7587 -0.1499
37838SOL     OW16790   1.215   0.693   5.930  0.1580  0.4863 -0.4922
37838SOL    HW116791   1.140   0.720   5.983 -0.1632 -0.5121 -0.4035
37838SOL    HW216792   1.234   0.603   5.960  0.7036  0.3333 -1.2647
37839SOL     OW16793   5.367   8.393   8.153  0.8079 -0.1881 -0.1661
37839SOL    HW116794   5.362   8.361   8.243  1.6915 -0.6581 -0.2776
37839SOL    HW216795   5.329   8.322   8.100  1.1852 -0.3237 -0.2552
37840SOL     OW16796   1.612   8.437   3.152  0.3068 -0.6543  0.1268
37840SOL    HW116797   1.526   8.473   3.130  0.6244  1.2554  1.7531
37840SOL    HW216798   1.674   8.491   3.103  0.6685 -0.9418  0.2659
37841SOL     OW16799   8.128   8.021   5.539  0.3106  0.5309 -0.6633
37841SOL    HW116800   8.118   7.971   5.620 -1.5858 -0.1415 -1.2586
37841SOL    HW216801   8.186   8.094   5.563  0.6676 -0.2413  0.9981
37842SOL     OW16802  10.678   6.918   1.795  0.8056  0.0360  0.0684
37842SOL    HW116803  10.672   6.925   1.700  2.2418 -0.3752 -0.0725
37842SOL    HW216804  10.629   6.994   1.828 -1.9015 -1.1694 -0.8840
37843SOL     OW16805  10.086   4.542   1.107  0.2484  0.0068  0.1540
37843SOL    HW116806  10.167   4.589   1.125 -0.5186  1.7618 -0.7422
37843SOL    HW216807  10.070   4.556   1.013 -1.9419  1.1904  0.6199
37844SOL     OW16808   1.854   0.349   8.428 -0.1358  0.6075 -0.0815
37844SOL    HW116809   1.765   0.313   8.417  0.0384 -0.1368  0.7595
37844SOL    HW216810   1.911   0.273   8.421  0.3257  0.8657  0.7387
37845SOL     OW16811   3.954   6.392   4.346  0.0157  0.1331  0.0707
37845SOL    HW116812   3.920   6.424   4.429  0.0476 -0.5272  0.3425
37845SOL    HW216813   4.049   6.397   4.355  0.0251 -0.3161  0.2252
37846SOL     OW16814   7.014   7.507   5.147  0.3851 -0.6043  0.4951
37846SOL    HW116815   7.086   7.477   5.202 -0.2826 -1.8015  0.7419
37846SOL    HW216816   7.006   7.601   5.166  3.2407  0.0938 -1.0967
37847SOL     OW16817   3.471   8.496   0.914  0.1760  0.1020 -0.4279
37847SOL    HW116818   3.557   8.461   0.939  0.2895 -0.4956 -1.5941
37847SOL    HW216819   3.486   8.540   0.831 -0.3118  1.5384  0.2185
37848SOL     OW16820  10.906   6.030   3.707  0.0433  0.2848  0.0952
37848SOL    HW116821  10.997   6.000   3.700  0.2682  0.8384  0.5620
37848SOL    HW216822  10.871   6.021   3.618  0.4349 -0.2904 -0.0093
37849SOL     OW16823   8.854   6.153   6.996  0.1015  0.0286  0.5811
37849SOL    HW116824   8.931   6.123   6.948 -1.0368 -2.4270  0.1095
37849SOL    HW216825   8.797   6.191   6.929  0.0731  0.0387  0.6112
37850SOL     OW16826   5.621  10.480  11.307  0.1295  0.0992 -0.3788
37850SOL    HW116827   5.634  10.389  11.332  0.6930  0.1836 -0.3636
37850SOL    HW216828   5.648  10.530  11.384 -2.6046  0.2310  0.6352
37851SOL     OW16829   1.729   6.938  11.102  0.4075  0.0980  0.2526
37851SOL    HW116830   1.784   6.906  11.174 -1.5714 -1.7535  1.0247
37851SOL    HW216831   1.777   6.913  11.023  1.5447  0.1656  0.8989
37852SOL     OW16832   8.638   7.802   4.103  0.2545 -0.1257  0.6964
37852SOL    HW116833   8.611   7.855   4.028  0.2091  0.2361  0.9632
37852SOL    HW216834   8.636   7.712   4.071 -1.2232 -0.1187  0.6830
37853SOL     OW16835   8.142   4.788   5.123  0.3564  0.0443  0.3218
37853SOL    HW116836   8.049   4.798   5.146  0.8974  1.4057  2.2142
37853SOL    HW216837   8.145   4.710   5.068 -1.9184  0.0175  0.1430
37854SOL     OW16838  10.894   8.274   3.977  0.2671  0.1797  0.2366
37854SOL    HW116839  10.805   8.242   3.990  0.1486 -1.1075 -3.0193
37854SOL    HW216840  10.950   8.214   4.027 -0.5661  0.3656  1.4273
37855SOL     OW16841   5.975   5.229   9.587 -0.5536 -0.3093  0.1261
37855SOL    HW116842   5.938   5.253   9.671  0.6746  1.8130  0.1218
37855SOL    HW216843   6.062   5.194   9.608 -0.2989  0.0942 -0.2425
37856SOL     OW16844   3.860   0.191  11.328  0.1835  0.3766  0.5650
37856SOL    HW116845   3.815   0.272  11.303  0.2468 -0.1799 -1.5405
37856SOL    HW216846   3.943   0.221  11.365 -0.1571  1.3011  0.6157
37857SOL     OW16847   2.842   2.015   0.911  0.3450 -0.1161  0.2201
37857SOL    HW116848   2.854   1.926   0.876  1.1094 -0.4238  1.2010
37857SOL    HW216849   2.857   2.005   1.005  0.6350  1.0938  0.3177
37858SOL     OW16850   1.328   6.600   2.055  0.0643 -0.2470 -0.4681
37858SOL    HW116851   1.356   6.511   2.076  0.6992 -0.0859 -0.6036
37858SOL    HW216852   1.373   6.620   1.973  0.9135  0.6416  0.1939
37859SOL     OW16853  11.317   0.502   0.457  0.3760 -0.1532  0.4246
37859SOL    HW116854  11.331   0.576   0.398 -0.1567  0.3708  0.9352
37859SOL    HW216855  11.405   0.478   0.486  0.6170 -0.2170 -0.3312
37860SOL     OW16856  11.091  11.053   7.798 -0.1715 -0.1524  0.2488
37860SOL    HW116857  11.097  10.958   7.805  1.3588 -0.0772  0.2908
37860SOL    HW216858  11.060  11.082   7.884 -2.9039 -0.7183 -0.4460
37861SOL     OW16859   1.328   1.092   3.860  0.2317  0.1656  0.1382
37861SOL    HW116860   1.251   1.119   3.811  0.7909 -0.2065 -0.9818
37861SOL    HW216861   1.339   0.999   3.838  0.1774 -0.1591  1.4086
37862SOL     OW16862   1.358   2.048   1.598  0.1836  0.0135 -0.5001
37862SOL    HW116863   1.312   2.131   1.588 -0.1123 -0.1517 -0.5271
37862SOL    HW216864   1.320   2.008   1.676  0.8818  0.2573 -0.0280
37863SOL     OW16865   6.130   4.067   4.653 -0.0058 -0.3518  0.3313
37863SOL    HW116866   6.213   4.084   4.698  0.8042 -2.8293 -0.1040
37863SOL    HW216867   6.123   4.138   4.589  2.6681 -0.9995 -0.8023
37864SOL     OW16868   4.819  10.904   5.310 -0.2138 -0.3788 -0.0470
37864SOL    HW116869   4.808  10.835   5.375  0.6639  1.9517  2.8007
37864SOL    HW216870   4.892  10.875   5.255  0.0980 -1.7147  1.0249
37865SOL     OW16871   8.745   2.595   3.693 -0.3684  0.4139 -0.2297
37865SOL    HW116872   8.701   2.622   3.613  0.9355  1.0568 -0.7637
37865SOL    HW216873   8.686   2.621   3.763 -2.1589 -1.3835 -0.9945
37866SOL     OW16874   2.947   3.228   3.783  0.9699  0.0561  0.1709
37866SOL    HW116875   2.968   3.314   3.819  0.6190  0.0396  0.4134
37866SOL    HW216876   2.853   3.217   3.798  0.7177  0.2606 -1.2115
37867SOL     OW16877   2.576   0.247  10.525  0.0874 -0.4762 -0.0920
37867SOL    HW116878   2.504   0.199  10.565 -0.3897  1.6324  1.7863
37867SOL    HW216879   2.608   0.190  10.455 -0.2960 -3.5407  2.0816
37868SOL     OW16880   2.770  10.543   8.165  0.1067  0.0927 -0.0194
37868SOL    HW116881   2.678  10.565   8.149  0.0843 -0.4075 -0.6106
37868SOL    HW216882   2.811  10.549   8.079  0.1652 -1.8229 -0.1665
37869SOL     OW16883   5.281   3.077   6.374 -0.6650  0.1377  0.0229
37869SOL    HW116884   5.321   3.152   6.331 -0.3520  0.1678  0.3495
37869SOL    HW216885   5.356   3.020   6.395 -0.8173  0.0886  0.4422
37870SOL     OW16886  10.789   3.202   9.616 -0.0016 -0.4917  0.6774
37870SOL    HW116887  10.877   3.174   9.592 -0.0225  0.0454 -0.0524
37870SOL    HW216888  10.745   3.122   9.642  0.6625 -0.7855  0.9286
37871SOL     OW16889  11.121   4.682   5.393 -0.0119  0.0292 -0.1454
37871SOL    HW116890  11.089   4.632   5.468  0.9947  0.3353  0.5206
37871SOL    HW216891  11.092   4.633   5.317 -1.0760 -0.2791  0.4425
37872SOL     OW16892   6.530   8.205   3.098  0.4357 -0.5544 -0.6932
37872SOL    HW116893   6.483   8.155   3.165  1.7690  1.4495  1.9683
37872SOL    HW216894   6.463   8.232   3.036 -1.6779  0.4920  1.8402
37873SOL     OW16895  10.772   9.137   8.193 -0.0594 -0.6028  0.1072
37873SOL    HW116896  10.847   9.158   8.247  0.2099  0.5287 -0.6743
37873SOL    HW216897  10.741   9.053   8.227  2.2651 -1.7160 -0.2974
37874SOL     OW16898   1.431   0.234   2.629  0.6166 -0.5490 -0.2482
37874SOL    HW116899   1.459   0.251   2.539 -0.7873  2.8837 -0.1984
37874SOL    HW216900   1.475   0.301   2.681 -2.0493  0.4943  0.8497
37875SOL     OW16901   6.157   0.963  11.073 -0.3168 -0.2093 -0.0498
37875SOL    HW116902   6.239   0.991  11.031 -0.3148 -0.1710 -0.0213
37875SOL    HW216903   6.169   0.988  11.165 -0.2338 -0.4887  0.0148
37876SOL     OW16904   1.998   7.167   7.210  0.0924  0.0379  0.3533
37876SOL    HW116905   1.904   7.154   7.200 -0.1694  1.8079  0.2018
37876SOL    HW216906   2.036   7.134   7.129 -0.3547 -0.9196  0.5208
37877SOL     OW16907   6.167   5.051  10.562 -0.4302 -0.9347  0.1347
37877SOL    HW116908   6.078   5.040  10.598 -0.7317 -0.3910 -0.4295
37877SOL    HW216909   6.153   5.074  10.470  0.1607  2.0053  0.6629
37878SOL     OW16910   1.949  10.573   1.110  0.0048 -0.0614 -0.4610
37878SOL    HW116911   2.018  10.591   1.174  0.2863 -0.4381 -0.6526
37878SOL    HW216912   1.987  10.508   1.051 -0.8452 -0.9960 -0.0154
37879SOL     OW16913   3.467   9.991   0.809  0.3734 -0.5349  0.4402
37879SOL    HW116914   3.387   9.982   0.860  1.4675 -1.8570  2.0692
37879SOL    HW216915   3.460   9.926   0.740 -1.1303  1.2793 -1.2286
37880SOL     OW16916  10.752   5.379   8.700 -0.0245  0.5251 -0.0710
37880SOL    HW116917  10.723   5.315   8.636 -0.9883 -0.4590  1.2945
37880SOL    HW216918  10.793   5.327   8.769 -0.9447  1.3445  1.1314
37881SOL     OW16919   3.189   1.722   0.904  0.0108 -0.3954  0.4508
37881SOL    HW116920   3.108   1.737   0.855 -0.4471  1.4240  1.6473
37881SOL    HW216921   3.259   1.729   0.839 -0.6623  0.3916 -0.2129
37882SOL     OW16922   8.299   5.167   3.413  0.3001 -0.3446 -0.4575
37882SOL    HW116923   8.385   5.130   3.392  1.3955  0.4574  2.1398
37882SOL    HW216924   8.310   5.261   3.400 -0.3571 -0.2942 -0.6495
37883SOL     OW16925  10.422   6.279   3.891  0.2958 -0.0779  0.0529
37883SOL    HW116926  10.472   6.318   3.963  0.1264 -3.1398  2.0250
37883SOL    HW216927  10.367   6.214   3.934 -1.0164 -0.9203 -2.7339
37884SOL     OW16928   7.567   7.287  10.439  0.3411  0.2291 -0.2576
37884SOL    HW116929   7.507   7.257  10.370 -0.1458  1.6555 -0.4932
37884SOL    HW216930   7.549   7.229  10.513 -0.6508  0.0134 -0.6421
37885SOL     OW16931   2.364   3.794   0.558 -0.3107 -0.1240 -0.0057
37885SOL    HW116932   2.398   3.879   0.585  1.2151 -1.0872  1.2788
37885SOL    HW216933   2.272   3.795   0.583 -0.0264  0.7159  1.0504
37886SOL     OW16934   6.280  10.201   4.327  0.4473  0.2944  0.1066
37886SOL    HW116935   6.310  10.210   4.237  0.2097  0.1485  0.0144
37886SOL    HW216936   6.340  10.137   4.366 -0.0995 -0.4333 -0.2379
37887SOL     OW16937   8.599   8.010   4.895  0.3435  0.0124  0.3642
37887SOL    HW116938   8.592   8.004   4.799  1.2074 -1.2061  0.3499
37887SOL    HW216939   8.693   8.019   4.911  0.5170 -2.6050  1.1828
37888SOL     OW16940  10.726   5.846   7.792  0.2434  0.3149 -0.1071
37888SOL    HW116941  10.814   5.847   7.830 -0.0078  1.0384  0.4918
37888SOL    HW216942  10.726   5.772   7.731  0.2658 -1.8094  2.2850
37889SOL     OW16943  10.057   0.969   4.156 -0.3594  0.3550  0.4806
37889SOL    HW116944  10.083   1.040   4.096  1.7027  1.3837  2.4670
37889SOL    HW216945  10.067   0.889   4.104  2.8001  1.0827 -0.1994
37890SOL     OW16946   1.711   2.680   0.107 -0.0898 -0.4284 -0.3167
37890SOL    HW116947   1.708   2.707   0.015 -2.2460  1.1371  0.1434
37890SOL    HW216948   1.620   2.676   0.134  0.4940 -0.9855  1.7435
37891SOL     OW16949   8.663   4.868   2.405 -0.1177  0.1397  0.3442
37891SOL    HW116950   8.717   4.942   2.433 -0.9788  1.5995 -1.6925
37891SOL    HW216951   8.689   4.852   2.314 -1.5826 -0.5306  0.0160
37892SOL     OW16952   9.065   7.515   8.193 -0.1236  0.1741 -0.3700
37892SOL    HW116953   9.122   7.482   8.123 -0.3261 -0.8627 -0.0682
37892SOL    HW216954   9.045   7.437   8.245 -0.5498  0.8154  0.4304
37893SOL     OW16955   8.134  10.681   7.623  0.2491  0.7140  0.4469
37893SOL    HW116956   8.074  10.682   7.548  0.0099 -2.4624  0.4306
37893SOL    HW216957   8.196  10.751   7.606 -0.1254  0.4490 -2.4811
37894SOL     OW16958   2.751   8.883   3.207  0.5269 -0.2829 -0.1113
37894SOL    HW116959   2.686   8.815   3.190  0.4721 -0.2447 -0.0540
37894SOL    HW216960   2.829   8.854   3.160 -0.4316  1.1643 -2.7954
37895SOL     OW16961  10.347  11.306   5.890  0.5028  0.0087  0.0559
37895SOL    HW116962  10.261  11.301   5.933 -0.3864  0.9342 -1.5220
37895SOL    HW216963  10.355  11.224   5.843  0.4515 -0.0587  0.1640
37896SOL     OW16964   4.484  10.016   7.613 -0.1569  0.2754  0.0884
37896SOL    HW116965   4.558   9.989   7.558 -0.4372 -0.2196 -0.0511
37896SOL    HW216966   4.453  10.097   7.574  1.6882  1.7227  1.4184
37897SOL     OW16967   6.231   5.362   7.590  0.4095  0.5629 -0.2200
37897SOL    HW116968   6.144   5.323   7.576  0.3066  0.6335  0.2159
37897SOL    HW216969   6.233   5.383   7.683  1.4450 -0.7644  0.0886
37898SOL     OW16970   8.870   0.989   0.181  0.5867 -0.9153 -0.3202
37898SOL    HW116971   8.815   0.973   0.105 -0.9871 -0.0915  0.6078
37898SOL    HW216972   8.949   1.030   0.145  0.3570 -1.5584 -1.6019
37899SOL     OW16973   8.322   3.688   7.547 -0.3596 -0.1780  0.3481
37899SOL    HW116974   8.363   3.604   7.564  0.3186  0.3192  1.2938
37899SOL    HW216975   8.233   3.679   7.582 -0.1230 -0.3475  0.9287
37900SOL     OW16976   2.120   9.064  10.059  0.5181  0.4579  0.3447
37900SOL    HW116977   2.061   8.997  10.024  0.1514  0.5536  0.7787
37900SOL    HW216978   2.185   9.014  10.109 -0.8144  0.5092  2.2440
37901SOL     OW16979  10.542   7.274  10.519  0.2755  0.1519 -0.1272
37901SOL    HW116980  10.518   7.268  10.427 -1.2263  0.3309  0.2258
37901SOL    HW216981  10.622   7.327  10.520 -1.1227  2.4174 -1.1356
37902SOL     OW16982   5.898   3.727   0.797  0.4326  0.0029  0.3358
37902SOL    HW116983   5.956   3.768   0.861  2.1333  0.4120 -1.3633
37902SOL    HW216984   5.955   3.670   0.745 -0.9688 -0.6963 -0.5129
37903SOL     OW16985   4.394   4.891   3.880  1.1255  0.5104 -0.4417
37903SOL    HW116986   4.481   4.869   3.845  0.8544 -2.2153  0.3278
37903SOL    HW216987   4.408   4.903   3.974  0.6154 -0.8075 -0.1643
37904SOL     OW16988   6.741  11.396   8.556 -0.5130  0.2078 -0.0070
37904SOL    HW116989   6.834  11.411   8.568 -0.4495  0.6838 -1.0025
37904SOL    HW216990   6.708  11.380   8.644  0.2200  1.7509  0.5881
37905SOL     OW16991   8.403   0.569   6.011 -0.2571 -0.0151  0.2573
37905SOL    HW116992   8.391   0.481   5.973 -1.1289  0.3625 -0.3946
37905SOL    HW216993   8.324   0.583   6.063 -0.5105  0.6823 -0.2896
37906SOL     OW16994  10.209   3.860   2.124  0.0162  0.1574 -0.2887
37906SOL    HW116995  10.281   3.922   2.114  0.7658 -0.9174 -2.0893
37906SOL    HW216996  10.138   3.897   2.072  0.6298 -0.6807 -1.7759
37907SOL     OW16997   7.948   5.516  10.342  0.2263  0.0693  0.2422
37907SOL    HW116998   7.963   5.510  10.248  0.0903  1.0422  0.1487
37907SOL    HW216999   7.936   5.610  10.359  0.3266 -0.0810  1.2384
37908SOL     OW17000   1.785   2.940   3.255  0.4718  0.2053 -0.4220
37908SOL    HW117001   1.876   2.947   3.284 -0.1360  0.7415  1.4723
37908SOL    HW217002   1.737   2.913   3.333 -1.1419  0.8830 -1.1409
37909SOL     OW17003   7.118   3.481  11.185 -0.3854  0.2734  0.6957
37909SOL    HW117004   7.162   3.441  11.109 -2.0234 -0.5675  0.1241
37909SOL    HW217005   7.103   3.408  11.245  0.0222  0.7565  1.3912
37910SOL     OW17006   4.685   9.098   0.478  0.2861  0.0470  0.2147
37910SOL    HW117007   4.739   9.158   0.427 -1.2258 -0.5954 -2.2837
37910SOL    HW217008   4.666   9.146   0.559 -2.4577  3.9517 -2.3775
37911SOL     OW17009   4.965   9.571   1.494  0.4769  0.0906 -0.0016
37911SOL    HW117010   4.994   9.525   1.572 -1.2789 -0.1272  0.5667
37911SOL    HW217011   4.904   9.637   1.526  0.6648  0.8210 -1.0891
37912SOL     OW17012   1.131   1.794   1.073  0.1490 -0.0795 -0.0593
37912SOL    HW117013   1.134   1.718   1.015  2.6868 -0.5780  0.5971
37912SOL    HW217014   1.177   1.863   1.025  1.4370 -0.2157  0.9273
37913SOL     OW17015   8.863   8.439   0.385 -0.1210  0.0663  0.3352
37913SOL    HW117016   8.841   8.364   0.331 -1.8022 -0.0515  1.1172
37913SOL    HW217017   8.956   8.455   0.368  0.0993 -1.7515 -0.3551
37914SOL     OW17018   1.806   0.852   5.080  0.1481  0.1063  0.2213
37914SOL    HW117019   1.715   0.855   5.110  0.3149 -1.3927  0.9773
37914SOL    HW217020   1.847   0.785   5.135  2.0636  1.6869  0.8259
37915SOL     OW17021   1.319   5.792   1.707 -0.0704  0.2873  0.2275
37915SOL    HW117022   1.405   5.831   1.723  0.2177 -0.3923  0.3460
37915SOL    HW217023   1.315   5.781   1.612  0.2673 -0.3549  0.2893
37916SOL     OW17024   5.238   7.957   8.999  0.0677  0.7503  0.3210
37916SOL    HW117025   5.317   7.903   9.004  0.1061  0.6048 -1.1659
37916SOL    HW217026   5.238   8.007   9.080  1.0129 -0.1606  0.9101
37917SOL     OW17027   0.913   8.547   6.506 -0.0021 -0.0958  0.0204
37917SOL    HW117028   0.920   8.453   6.520 -1.4280 -0.3036 -0.5082
37917SOL    HW217029   0.880   8.556   6.417 -0.1147  0.8941  0.1467
37918SOL     OW17030   6.614   0.435   7.557 -0.4038  0.2742 -0.4590
37918SOL    HW117031   6.621   0.508   7.620  0.6201 -0.8104  0.7401
37918SOL    HW217032   6.540   0.384   7.588  1.3720 -1.4359  1.2272
37919SOL     OW17033   9.770   6.122   8.449  0.0514 -0.2423 -0.0065
37919SOL    HW117034   9.837   6.171   8.400 -0.2390  0.9007  0.6886
37919SOL    HW217035   9.748   6.180   8.522 -2.6956  0.0340 -0.9495
37920SOL     OW17036   3.241   9.908  11.317  0.0292 -0.1298 -0.0894
37920SOL    HW117037   3.321   9.946  11.353 -0.0401 -0.2513  0.1930
37920SOL    HW217038   3.172   9.934  11.377 -0.0175 -0.7098  0.1182
37921SOL     OW17039   6.430   6.843   9.260 -0.1706 -0.3601  0.1758
37921SOL    HW117040   6.347   6.889   9.275 -0.2959 -0.7977  0.9078
37921SOL    HW217041   6.436   6.781   9.334  0.7405 -0.4300  0.0497
37922SOL     OW17042   3.775   6.873   0.958  0.5842 -0.1384 -0.0933
37922SOL    HW117043   3.720   6.878   0.880 -1.1000  0.3409  1.0599
37922SOL    HW217044   3.815   6.786   0.954 -0.9809 -0.8818 -0.5565
37923SOL     OW17045   1.579   7.614   2.453  0.1472  0.3491  0.3367
37923SOL    HW117046   1.488   7.625   2.481 -0.0474 -1.1518  0.3782
37923SOL    HW217047   1.576   7.541   2.392  1.1744  1.0156 -0.5363
37924SOL     OW17048  10.290   5.802   3.874  0.1124  0.3121 -0.3110
37924SOL    HW117049  10.347   5.733   3.907  0.3193  0.4670 -0.3368
37924SOL    HW217050  10.205   5.760   3.860  0.2056  0.0936 -0.2151
37925SOL     OW17051   3.055   8.229   1.297  0.1588 -0.4668  0.5009
37925SOL    HW117052   2.992   8.162   1.270  1.2097 -1.1569 -0.3374
37925SOL    HW217053   3.047   8.298   1.231 -0.8220  0.2008  1.2849
37926SOL     OW17054   4.991   7.942   3.163  0.5416 -0.3858  0.2354
37926SOL    HW117055   5.080   7.905   3.162  0.4567 -0.5966 -0.2551
37926SOL    HW217056   4.949   7.901   3.239  1.1583  0.4513  1.0451
37927SOL     OW17057  10.815   0.495   3.507  0.0513  0.1117 -0.2397
37927SOL    HW117058  10.846   0.405   3.506  2.5675  0.8887  0.0150
37927SOL    HW217059  10.761   0.501   3.586 -1.6620 -1.5517 -1.2052
37928SOL     OW17060   0.232   2.874   1.631  0.2912  0.0308  0.1944
37928SOL    HW117061   0.141   2.848   1.617  0.6550 -0.1610 -2.2514
37928SOL    HW217062   0.253   2.928   1.555  1.5023  2.2208  1.9530
37929SOL     OW17063   3.631   7.397   6.803  0.3252  0.2843 -0.4571
37929SOL    HW117064   3.622   7.306   6.776 -0.7637  0.7455 -1.7808
37929SOL    HW217065   3.585   7.447   6.735  0.6494  1.7980  0.3837
37930SOL     OW17066   6.096   1.345  10.727 -0.2672 -0.0889 -0.4753
37930SOL    HW117067   6.045   1.280  10.776  1.0456 -1.3032 -0.6382
37930SOL    HW217068   6.032   1.387  10.670 -0.9410 -2.3982 -1.5506
37931SOL     OW17069   4.244   8.948   3.961  0.3715  0.2308  0.7383
37931SOL    HW117070   4.305   9.014   3.994 -0.3596  0.9942  0.5810
37931SOL    HW217071   4.280   8.865   3.992  1.9067  0.5857  0.0314
37932SOL     OW17072   4.631   2.176   3.530  0.5685 -0.0905  0.1517
37932SOL    HW117073   4.625   2.104   3.593  0.8461  0.0353  0.3227
37932SOL    HW217074   4.565   2.155   3.464  0.0301 -0.0403  0.6641
37933SOL     OW17075   1.523  10.192  10.087  0.4286 -0.3107  0.1806
37933SOL    HW117076   1.484  10.226  10.006  1.9830 -1.5197 -1.1283
37933SOL    HW217077   1.477  10.240  10.157  0.7915  2.7002 -1.4474
37934SOL     OW17078   3.229   4.388   4.483  0.1153  0.2211  0.6187
37934SOL    HW117079   3.264   4.340   4.408  0.7714  1.6689 -0.0403
37934SOL    HW217080   3.148   4.341   4.506 -0.7704  0.4591 -1.7686
37935SOL     OW17081  11.364   6.043   4.412 -0.4468  0.1651 -0.3698
37935SOL    HW117082  11.339   6.085   4.494 -0.3111  1.0934 -0.7891
37935SOL    HW217083  11.339   6.106   4.344  2.3369  0.8859 -0.8669
37936SOL     OW17084   5.208   9.083   9.785 -0.4265 -0.8794  0.0822
37936SOL    HW117085   5.255   9.138   9.723  1.6889 -0.5469  1.8458
37936SOL    HW217086   5.227   8.993   9.756 -0.7816 -0.7329 -0.6328
37937SOL     OW17087   0.943   5.987   3.533 -0.1065  0.1341 -0.0121
37937SOL    HW117088   0.864   6.036   3.557 -0.1229 -0.4174  1.1241
37937SOL    HW217089   1.015   6.038   3.567 -0.0502 -0.0095  0.0845
37938SOL     OW17090  10.207   1.939   9.863 -0.3138 -0.1170  0.2994
37938SOL    HW117091  10.194   2.026   9.900 -0.3864  0.0203 -0.0428
37938SOL    HW217092  10.187   1.878   9.934 -1.1005  0.1284  0.2880
37939SOL     OW17093   4.192   7.248   5.997  0.8029  0.1810  0.5749
37939SOL    HW117094   4.258   7.293   5.944  0.3958 -0.9039 -0.9299
37939SOL    HW217095   4.242   7.184   6.048  0.9515 -0.6110 -0.5304
37940SOL     OW17096   6.154   3.005  10.905  0.2301 -0.1728  0.0043
37940SOL    HW117097   6.095   2.931  10.918 -0.4563  0.1910 -0.9903
37940SOL    HW217098   6.150   3.024  10.811  0.9440  0.6750  0.1258
37941SOL     OW17099   0.158   8.695   5.982 -0.6918 -0.3032 -0.4753
37941SOL    HW117100   0.067   8.710   5.958 -0.4575  1.7730 -0.2421
37941SOL    HW217101   0.157   8.612   6.029 -2.4063 -0.4572 -0.7113
37942SOL     OW17102   7.178   2.109  10.940 -0.1252  0.2903  0.4365
37942SOL    HW117103   7.178   2.024  10.985  0.5130 -0.3965 -0.7951
37942SOL    HW217104   7.137   2.091  10.855  1.6528  0.7668 -0.5752
37943SOL     OW17105   5.576   5.100  10.950 -0.0041 -0.3738 -0.2097
37943SOL    HW117106   5.498   5.045  10.936 -2.1615  2.1927  0.9384
37943SOL    HW217107   5.577   5.117  11.044  0.7811  1.2558 -0.4848
37944SOL     OW17108   1.814   7.523   9.792 -0.6894  0.5519 -0.8904
37944SOL    HW117109   1.855   7.477   9.865 -0.4213  1.6732 -0.3152
37944SOL    HW217110   1.884   7.530   9.727 -0.6670  0.3554 -0.8896
37945SOL     OW17111   0.719   2.667   7.251  0.3320  0.5099 -0.3716
37945SOL    HW117112   0.780   2.616   7.197  1.5044 -0.1034  1.4213
37945SOL    HW217113   0.646   2.607   7.267 -0.0323  0.7025 -1.2650
37946SOL     OW17114   5.856  10.366   1.371  0.0197 -0.3268  0.6001
37946SOL    HW117115   5.946  10.335   1.364  0.7575  1.6100  0.8566
37946SOL    HW217116   5.848  10.396   1.462 -0.3353  1.0067  0.1625
37947SOL     OW17117   1.844   3.661   9.431 -0.0341  0.0691  0.1122
37947SOL    HW117118   1.815   3.740   9.386  0.0710  0.4100  0.6317
37947SOL    HW217119   1.763   3.620   9.462 -0.0647  0.1604  0.1514
37948SOL     OW17120   5.528   5.759   0.922  0.5493  0.0538 -0.2165
37948SOL    HW117121   5.579   5.715   0.989 -0.7254  0.0903  0.7976
37948SOL    HW217122   5.576   5.840   0.905 -0.3009  1.2080  2.4015
37949SOL     OW17123   8.312   2.026   5.279  0.5818  0.1246 -0.4009
37949SOL    HW117124   8.255   2.009   5.354 -0.0147 -1.0181 -1.0863
37949SOL    HW217125   8.390   1.973   5.296  0.3636 -0.2887 -0.6696
37950SOL     OW17126   3.317   7.533   3.119  0.0298  0.2067  0.6116
37950SOL    HW117127   3.378   7.464   3.091  0.3241  0.5448  0.4189
37950SOL    HW217128   3.372   7.608   3.139 -0.2634  0.2678  1.1958
37951SOL     OW17129   2.410   0.604   1.346  0.4096  0.1104 -0.6622
37951SOL    HW117130   2.385   0.518   1.312  1.9516 -0.8223  0.4563
37951SOL    HW217131   2.423   0.658   1.267 -0.7011 -0.6241 -1.3654
37952SOL     OW17132   8.071   9.124   0.158 -0.2863 -0.9947 -0.2141
37952SOL    HW117133   8.127   9.118   0.236  0.1168  2.4824 -0.1067
37952SOL    HW217134   8.098   9.205   0.115 -2.4293 -1.3695 -2.4947
37953SOL     OW17135   3.686   6.318   8.831 -0.9248 -0.1861 -0.2295
37953SOL    HW117136   3.594   6.294   8.820 -0.7526 -0.0534 -2.1378
37953SOL    HW217137   3.684   6.412   8.848 -1.1594 -0.2972  0.4114
37954SOL     OW17138   7.528   9.505   4.368 -0.2756  0.4270 -0.2404
37954SOL    HW117139   7.495   9.529   4.454 -1.8222 -0.6804 -0.4898
37954SOL    HW217140   7.516   9.410   4.363  0.2733  0.3962 -1.4755
37955SOL     OW17141   9.500   2.729  10.781  0.0182  0.3616  0.3981
37955SOL    HW117142   9.499   2.639  10.815  0.8147 -0.3596 -1.3239
37955SOL    HW217143   9.589   2.759  10.798 -0.1768  0.7311  0.7566
37956SOL     OW17144   4.621   7.093   5.702 -0.2443 -0.5131  0.0075
37956SOL    HW117145   4.696   7.043   5.735 -0.4903 -0.0826  1.2850
37956SOL    HW217146   4.637   7.100   5.608  0.6374 -1.5612  0.0513
37957SOL     OW17147  10.804   7.667   1.961 -0.0913 -0.4183  0.8354
37957SOL    HW117148  10.832   7.683   2.052 -0.9008 -0.1167  1.0406
37957SOL    HW217149  10.709   7.657   1.967 -0.3311  1.0177 -0.1575
37958SOL     OW17150   3.293   4.262   4.246 -0.4240  0.4967 -0.6285
37958SOL    HW117151   3.352   4.284   4.174  1.3399 -0.7742  0.3642
37958SOL    HW217152   3.206   4.257   4.205  0.4960 -0.0029 -2.6282
37959SOL     OW17153   7.121   9.015   4.115  0.6295  0.1167  0.1776
37959SOL    HW117154   7.129   8.965   4.196  0.9032 -0.5771 -0.2699
37959SOL    HW217155   7.050   8.971   4.067 -0.2058  1.1218  0.4640
37960SOL     OW17156   8.072   9.823   4.253  0.2722  0.2235 -0.0384
37960SOL    HW117157   8.154   9.869   4.271  0.2463  0.2414  0.0355
37960SOL    HW217158   8.067   9.756   4.322  0.2969  0.1275 -0.1300
37961SOL     OW17159   4.400   9.773   5.620 -0.2123  0.1465 -0.5372
37961SOL    HW117160   4.380   9.865   5.600  0.6666  0.2237 -1.1303
37961SOL    HW217161   4.340   9.723   5.564  0.1867  0.3697 -1.1849
37962SOL     OW17162   4.823   2.193   9.482 -0.1280  0.1576  0.0928
37962SOL    HW117163   4.786   2.234   9.404  0.4247  1.1280  0.3182
37962SOL    HW217164   4.907   2.157   9.453 -0.8821 -1.4214 -0.2522
37963SOL     OW17165   3.436   2.266  10.184  0.0867  0.1616  0.1938
37963SOL    HW117166   3.429   2.197  10.118  1.9901  1.2688 -1.2816
37963SOL    HW217167   3.373   2.333  10.156  2.0666  1.4091 -1.6610
37964SOL     OW17168   9.070   5.609   2.029  0.1392  0.1034  0.4506
37964SOL    HW117169   9.136   5.631   1.964  0.2111 -0.9916  0.1289
37964SOL    HW217170   9.089   5.518   2.053 -2.2075 -0.8401 -0.8819
37965SOL     OW17171   5.469   9.498   7.424  0.2465  0.0401 -0.6098
37965SOL    HW117172   5.496   9.492   7.515  1.0668  0.7769 -0.7913
37965SOL    HW217173   5.374   9.502   7.427  0.2673  0.0221  0.2024
37966SOL     OW17174   6.820   4.275   5.457  0.4694 -0.3195  0.6003
37966SOL    HW117175   6.895   4.334   5.458 -0.1977  0.6223  3.0584
37966SOL    HW217176   6.756   4.318   5.399  1.3903 -0.6127 -0.6762
37967SOL     OW17177   9.581   4.217   0.913 -0.1238  0.1416 -0.1631
37967SOL    HW117178   9.569   4.232   0.819 -0.7288  0.3267 -0.0562
37967SOL    HW217179   9.600   4.303   0.949  0.7112 -0.0201 -0.2020
37968SOL     OW17180   4.743   7.670   9.692 -0.1709 -0.5932 -0.0745
37968SOL    HW117181   4.826   7.656   9.646 -0.0793  1.2306 -0.5507
37968SOL    HW217182   4.687   7.598   9.664  0.5894 -0.7080 -1.3787
37969SOL     OW17183   0.017   2.117   7.749  0.1144  0.2232  0.0639
37969SOL    HW117184   0.108   2.110   7.777 -0.1127  0.2034  0.7983
37969SOL    HW217185   0.019   2.178   7.675  0.7212  0.2068  0.0661
37970SOL     OW17186   0.062  10.802   1.313 -1.0603 -0.0617 -0.1185
37970SOL    HW117187   0.127  10.797   1.383 -1.0314 -0.6841 -0.1805
37970SOL    HW217188   0.101  10.861   1.248 -0.1131 -1.1756 -0.5937
37971SOL     OW17189   2.830   1.528   2.552  0.2349  0.0876  0.2900
37971SOL    HW117190   2.736   1.538   2.540  0.3732 -0.0863 -1.0659
37971SOL    HW217191   2.856   1.462   2.488  1.8493  2.8450 -2.1383
37972SOL     OW17192   0.845   4.474  10.667  0.3023 -0.3068  0.5171
37972SOL    HW117193   0.939   4.473  10.682  0.3324 -0.7381  0.3091
37972SOL    HW217194   0.807   4.441  10.748  0.3651 -0.8010  0.3438
37973SOL     OW17195   3.234  10.234   2.805  0.4443 -0.0113  0.0964
37973SOL    HW117196   3.231  10.270   2.894 -1.4615  1.5131 -0.5112
37973SOL    HW217197   3.216  10.309   2.748 -1.0844 -1.4125 -1.3910
37974SOL     OW17198   8.766   3.549   8.713  0.4790 -0.3739 -0.2757
37974SOL    HW117199   8.760   3.567   8.807  0.7298 -1.4579 -0.0438
37974SOL    HW217200   8.859   3.541   8.695  0.3791 -2.0888 -0.2158
37975SOL     OW17201  10.763   9.476   5.329 -0.2520  0.1617 -0.0072
37975SOL    HW117202  10.775   9.390   5.371  1.0973  0.2028 -0.2519
37975SOL    HW217203  10.808   9.537   5.387  0.7173  0.3649 -0.9242
37976SOL     OW17204   3.701   7.436  10.542  0.1616 -0.1691  0.3495
37976SOL    HW117205   3.749   7.474  10.468 -1.2922  0.4605 -0.3019
37976SOL    HW217206   3.770   7.402  10.600  1.4534  1.4743 -0.1175
37977SOL     OW17207   5.317   8.847   7.156  0.3976  0.2138 -0.3687
37977SOL    HW117208   5.256   8.880   7.091  1.6903 -1.3557 -2.5134
37977SOL    HW217209   5.296   8.895   7.236 -2.5836  0.7914 -1.3923
37978SOL     OW17210  10.190   1.056  10.451  0.4563 -0.0442 -0.2401
37978SOL    HW117211  10.159   1.101  10.529  0.9840  0.8175 -0.5037
37978SOL    HW217212  10.220   0.971  10.482 -2.2915 -1.0206 -0.0032
37979SOL     OW17213   4.812   7.040   6.848  0.3343 -0.0763  0.2132
37979SOL    HW117214   4.735   7.095   6.838 -0.8580 -1.7460 -0.3066
37979SOL    HW217215   4.880   7.082   6.794 -0.2117  1.3805  0.6296
37980SOL     OW17216   0.713   8.157  10.096  0.5540  0.0894  0.5917
37980SOL    HW117217   0.760   8.169  10.014  0.5521  2.0098  0.8334
37980SOL    HW217218   0.754   8.080  10.136 -0.1846 -1.5846 -1.6571
37981SOL     OW17219   2.565   4.739   1.640  0.0694  0.2164  0.0801
37981SOL    HW117220   2.642   4.703   1.596  1.0825  0.2842  1.7266
37981SOL    HW217221   2.574   4.834   1.628  0.1324  0.2137  0.1015
37982SOL     OW17222   3.340  10.802   8.074  0.7200 -0.1925  0.4056
37982SOL    HW117223   3.393  10.842   8.005 -0.3770  2.4745  0.9967
37982SOL    HW217224   3.266  10.764   8.027 -0.0036  1.5681  0.0448
37983SOL     OW17225   2.006   5.802   1.068 -0.1680  0.1116  0.8181
37983SOL    HW117226   2.001   5.897   1.081  1.4556  0.2306  0.7629
37983SOL    HW217227   1.996   5.790   0.974 -1.2041  0.1489  0.9168
37984SOL     OW17228  10.336   9.360   2.740  0.0219  0.0530  0.1713
37984SOL    HW117229  10.417   9.387   2.783  0.9315 -1.6976 -0.3222
37984SOL    HW217230  10.348   9.383   2.648 -0.4574  0.6581  0.2563
37985SOL     OW17231   4.742   9.543   5.635  0.1994  0.0003  0.0330
37985SOL    HW117232   4.828   9.512   5.606 -0.8328 -2.1775 -0.8809
37985SOL    HW217233   4.751   9.551   5.730  0.7754 -2.5285  0.2475
37986SOL     OW17234  10.437   9.835   5.554 -0.1030  0.1604  0.0290
37986SOL    HW117235  10.518   9.786   5.548 -0.3609 -0.5263  1.5931
37986SOL    HW217236  10.369   9.774   5.527 -0.3897 -0.2912  1.6650
37987SOL     OW17237   7.407  10.152   3.041 -0.0333 -0.4806 -0.0921
37987SOL    HW117238   7.350  10.224   3.068  0.0142  0.0961 -1.4597
37987SOL    HW217239   7.484  10.196   3.005  0.5083 -1.2366  0.1365
37988SOL     OW17240   3.770   5.005   3.596 -0.4243  0.0937  0.0095
37988SOL    HW117241   3.754   5.050   3.513 -0.5736 -0.9600 -0.5629
37988SOL    HW217242   3.737   4.916   3.581  0.3035 -0.3468  0.9189
37989SOL     OW17243  10.192   4.110   2.767  0.0569  0.2005 -0.3303
37989SOL    HW117244  10.266   4.121   2.826 -0.7391 -0.6721  0.8749
37989SOL    HW217245  10.225   4.056   2.696  0.9460  1.0097 -0.5553
37990SOL     OW17246   8.241   9.102   2.068 -0.1276  0.1710  0.2355
37990SOL    HW117247   8.282   9.144   2.143  1.8039 -0.3770 -0.4661
37990SOL    HW217248   8.281   9.143   1.992 -1.7830  0.4501 -0.5297
37991SOL     OW17249   1.792   7.022   1.076 -0.2353  0.8312  0.0383
37991SOL    HW117250   1.883   6.999   1.056 -0.9486 -1.2541 -1.0724
37991SOL    HW217251   1.797   7.111   1.111  2.1516  1.0252 -0.6339
37992SOL     OW17252   0.871   2.893   6.911 -0.1629 -0.2834 -0.0419
37992SOL    HW117253   0.785   2.852   6.923 -0.0136 -0.3139  0.9981
37992SOL    HW217254   0.879   2.955   6.984 -0.1591  1.2368 -1.2998
37993SOL     OW17255   6.900   1.991   0.159 -0.2278 -0.7129  0.4031
37993SOL    HW117256   6.806   2.010   0.156 -0.3548 -1.1941  1.0340
37993SOL    HW217257   6.914   1.931   0.086 -0.2591 -0.0360 -0.1687
37994SOL     OW17258   8.085   8.267   5.082  0.2701  0.0166  0.2035
37994SOL    HW117259   8.169   8.252   5.126 -0.4389 -2.4087  0.9010
37994SOL    HW217260   8.094   8.353   5.041  3.0988 -0.1906  0.2035
37995SOL     OW17261   5.591   7.705   9.785 -0.5166 -0.1574 -0.0223
37995SOL    HW117262   5.507   7.670   9.754 -0.1805 -1.1117  0.1162
37995SOL    HW217263   5.568   7.759   9.860 -0.9427 -0.9771  0.4482
37996SOL     OW17264   2.660  11.199   9.844 -0.5860 -0.1012  0.1389
37996SOL    HW117265   2.664  11.105   9.828  0.5309 -0.2394  1.1284
37996SOL    HW217266   2.750  11.230   9.832 -1.3460  1.3469 -2.8400
37997SOL     OW17267   9.080   3.942   4.572 -0.2529  0.4307 -0.0423
37997SOL    HW117268   9.056   4.005   4.504 -0.5883  0.4247  0.0689
37997SOL    HW217269   9.000   3.930   4.623 -0.3261 -0.4529 -0.3506
37998SOL     OW17270   1.643   8.970   3.882  0.3882 -0.4318 -0.3501
37998SOL    HW117271   1.682   9.013   3.957 -0.5182 -1.3829  0.7080
37998SOL    HW217272   1.600   9.040   3.834 -1.8734 -0.1718  1.8396
37999SOL     OW17273   3.103   7.227   0.460  0.0402  0.0593  0.4300
37999SOL    HW117274   3.112   7.316   0.424 -0.1388 -0.1139 -0.0519
37999SOL    HW217275   3.096   7.171   0.383  1.5114 -0.5284  0.6920
38000SOL     OW17276   3.155   9.831   4.801  0.1472  0.4631 -0.0853
38000SOL    HW117277   3.174   9.764   4.735  2.7143 -0.2977  1.3178
38000SOL    HW217278   3.079   9.877   4.766  0.9063 -0.4133 -3.1739
38001SOL     OW17279   9.349   3.116   8.707  0.3224  0.4710 -0.2349
38001SOL    HW117280   9.282   3.058   8.742 -0.1710  0.6111 -0.9185
38001SOL    HW217281   9.331   3.119   8.613  0.6424  1.3440 -0.2771
38002SOL     OW17282   0.342  10.727   3.604 -0.0455  0.1775 -0.4058
38002SOL    HW117283   0.277  10.658   3.597  2.5780 -2.4980 -0.1137
38002SOL    HW217284   0.358  10.755   3.514 -1.6973  1.1168 -0.4636
38003SOL     OW17285   7.178  10.601   3.253  0.1162  0.0106  0.2391
38003SOL    HW117286   7.164  10.666   3.321  1.2092 -0.1864  0.6842
38003SOL    HW217287   7.199  10.652   3.175 -1.8388  0.2633 -0.1720
38004SOL     OW17288  11.247   1.439   2.516  0.2519  0.0344  0.0084
38004SOL    HW117289  11.280   1.466   2.602  0.9897  1.0545 -0.5754
38004SOL    HW217290  11.153   1.426   2.529  0.4328 -0.2767  1.0746
38005SOL     OW17291   6.142   5.653   7.089  0.3748 -0.0238  0.2609
38005SOL    HW117292   6.146   5.564   7.124 -0.5841 -0.3953 -0.5512
38005SOL    HW217293   6.076   5.650   7.020 -0.1242  1.4578  0.6207
38006SOL     OW17294   6.929   7.594   5.631  0.0463  0.2244  0.4602
38006SOL    HW117295   6.888   7.624   5.550  0.7619  1.2029  0.4421
38006SOL    HW217296   7.023   7.610   5.618  0.1741  0.3584  1.4634
38007SOL     OW17297   8.652   7.697   2.521 -0.1271  0.5412 -0.5540
38007SOL    HW117298   8.583   7.757   2.549  1.2787  1.4258  1.2068
38007SOL    HW217299   8.707   7.749   2.462  0.6477  0.7947  0.3578
38008SOL     OW17300   8.707   4.354   2.441  0.4536 -0.2511  0.2055
38008SOL    HW117301   8.780   4.327   2.385 -0.7243  0.4344 -1.7639
38008SOL    HW217302   8.685   4.442   2.410 -1.5521 -0.6542  0.3504
38009SOL     OW17303   0.089  11.223   5.192 -0.2721  0.2588  0.1017
38009SOL    HW117304   0.090  11.177   5.276 -0.3927 -2.7146 -1.3732
38009SOL    HW217305  -0.001  11.218   5.162 -0.3495  1.7956  0.0043
38010SOL     OW17306   7.854   8.350   1.969 -0.0500 -0.0270 -0.1681
38010SOL    HW117307   7.900   8.341   1.886 -2.1459 -0.4942 -1.3737
38010SOL    HW217308   7.765   8.320   1.949 -0.6939  0.1743  2.1779
38011SOL     OW17309  10.401  10.106   7.300 -0.1675 -0.5719 -0.3178
38011SOL    HW117310  10.446  10.190   7.310 -1.8979  0.3319  0.2875
38011SOL    HW217311  10.374  10.104   7.209  0.5767 -0.8631 -0.5401
38012SOL     OW17312   4.831   0.824   8.362  0.3544 -0.7636 -0.2523
38012SOL    HW117313   4.836   0.745   8.307 -0.8401 -0.3991 -0.9293
38012SOL    HW217314   4.738   0.846   8.362  0.5845  0.2303  0.5369
38013SOL     OW17315   7.212   4.073   9.631 -0.7273 -0.4261 -0.5458
38013SOL    HW117316   7.132   4.124   9.619  0.2879  1.3174 -0.4173
38013SOL    HW217317   7.243   4.057   9.542 -2.3802 -3.2199 -0.7284
38014SOL     OW17318   8.131   6.760   7.418  0.1849 -0.5465 -0.1262
38014SOL    HW117319   8.045   6.739   7.454  1.1829 -1.3415  1.9805
38014SOL    HW217320   8.145   6.852   7.442  0.4621 -0.8154  0.8172
38015SOL     OW17321   2.039   3.373   3.662  0.0801  0.4229 -0.4175
38015SOL    HW117322   2.125   3.386   3.623  0.2898  1.0161  0.2329
38015SOL    HW217323   2.033   3.438   3.732 -0.6404 -0.0326 -0.0329
38016SOL     OW17324   9.166   1.439   0.609 -0.0346  0.6605 -0.3196
38016SOL    HW117325   9.221   1.516   0.599 -0.3468  0.8294 -0.7474
38016SOL    HW217326   9.186   1.385   0.532 -1.1271  1.1390 -0.9553
38017SOL     OW17327   2.669   8.838   7.770  0.6124  0.3384 -1.1002
38017SOL    HW117328   2.753   8.805   7.803  0.0600  0.2143  0.2643
38017SOL    HW217329   2.642   8.903   7.836 -1.1477 -0.8214 -0.6156
38018SOL     OW17330   9.078   2.299   7.191  0.1173 -0.4637 -0.5523
38018SOL    HW117331   8.998   2.348   7.207 -0.2869 -0.5765 -2.0350
38018SOL    HW217332   9.048   2.208   7.179  0.6959 -0.8461  0.7608
38019SOL     OW17333   9.804   8.223   0.993  0.4838  0.2868 -0.1245
38019SOL    HW117334   9.850   8.266   1.065 -0.1531 -0.2878  0.6423
38019SOL    HW217335   9.713   8.217   1.022  0.4524 -1.0589 -0.4435
38020SOL     OW17336   6.060  10.920  10.828 -0.0556  0.3133 -0.4078
38020SOL    HW117337   6.037  10.978  10.755 -1.4195  0.2388 -0.0719
38020SOL    HW217338   6.055  10.976  10.906  0.7344  0.2320 -0.2863
38021SOL     OW17339   6.944   4.179   5.816  0.3675  0.2453 -0.0560
38021SOL    HW117340   6.943   4.119   5.890  1.6713 -0.9576 -0.9402
38021SOL    HW217341   6.862   4.161   5.769 -1.0947  1.9237  1.7021
38022SOL     OW17342   9.213   3.953   8.621 -0.0032  0.7083  0.0458
38022SOL    HW117343   9.172   3.867   8.623 -0.0557  0.7125 -0.5149
38022SOL    HW217344   9.178   3.994   8.542  1.0877  0.6999 -0.4692
38023SOL     OW17345   2.451   0.827   6.826  0.2073  0.0722 -0.9389
38023SOL    HW117346   2.487   0.911   6.857 -1.8356  0.9625 -0.8534
38023SOL    HW217347   2.363   0.824   6.863 -0.0986 -1.6949 -1.7383
38024SOL     OW17348   3.777   8.751   3.846  0.0942  0.2872 -0.4631
38024SOL    HW117349   3.822   8.683   3.795 -0.7593  0.8453 -2.0175
38024SOL    HW217350   3.795   8.728   3.937  0.3398 -1.6693 -0.9537
38025SOL     OW17351   9.667   9.831   6.271  0.0683  0.2591 -0.3020
38025SOL    HW117352   9.751   9.788   6.285 -0.8452 -1.0077  1.7389
38025SOL    HW217353   9.655   9.887   6.348 -1.2781 -0.1645 -0.1750
38026SOL     OW17354   1.858   9.765   1.838 -0.6931  0.1612 -0.3782
38026SOL    HW117355   1.899   9.700   1.782 -0.1507  0.5021 -0.3899
38026SOL    HW217356   1.906   9.846   1.820 -0.9373  0.4214  0.1041
38027SOL     OW17357   7.748   8.225   0.431 -0.6690 -0.2446  0.5143
38027SOL    HW117358   7.812   8.202   0.363  0.4091 -0.7704  1.6681
38027SOL    HW217359   7.712   8.309   0.402  0.5090  0.0471 -0.1952
38028SOL     OW17360   1.243   6.360   1.633  0.1814  0.1756 -0.2408
38028SOL    HW117361   1.198   6.355   1.718  0.3878 -0.4730 -0.1628
38028SOL    HW217362   1.187   6.311   1.573  0.6707 -0.4528 -0.1915
38029SOL     OW17363   3.752   1.174   6.383 -0.4434  0.0477  0.4613
38029SOL    HW117364   3.725   1.101   6.437  1.2417  0.5814  2.1401
38029SOL    HW217365   3.848   1.176   6.391 -0.2411  0.9632 -1.4893
38030SOL     OW17366   2.444  10.462   4.571 -0.0246  0.2403 -0.0677
38030SOL    HW117367   2.447  10.405   4.494 -0.6725  1.5864 -1.1414
38030SOL    HW217368   2.529  10.505   4.573  0.2048 -0.2233  0.3239
38031SOL     OW17369   5.582   4.168   6.889 -0.4104  0.2116 -0.0628
38031SOL    HW117370   5.623   4.115   6.821  0.3248 -0.1634  0.6512
38031SOL    HW217371   5.610   4.127   6.971 -0.1463  1.4634  0.4965
38032SOL     OW17372  11.042  11.072   1.120 -0.7929 -0.4287  0.5203
38032SOL    HW117373  11.014  11.109   1.204  0.2858 -1.3655  1.3150
38032SOL    HW217374  11.104  11.003   1.143  1.0512  0.5833 -1.0979
38033SOL     OW17375   1.982   7.398  10.696  0.2563  0.0643 -0.2377
38033SOL    HW117376   1.906   7.362  10.743  1.5062 -0.2420  1.6864
38033SOL    HW217377   2.002   7.480  10.742  0.7207  0.4445 -1.1062
38034SOL     OW17378   4.135   4.831   7.883 -0.0456 -0.6586 -0.0570
38034SOL    HW117379   4.126   4.924   7.903  1.1059 -0.5373 -0.0396
38034SOL    HW217380   4.103   4.786   7.961 -0.4670 -0.2762 -0.0083
38035SOL     OW17381   3.420   8.195   8.075 -0.4423  0.5131  0.4885
38035SOL    HW117382   3.472   8.201   7.995 -0.9189 -1.0153  0.0297
38035SOL    HW217383   3.329   8.204   8.045 -0.5675  1.3606  1.0607
38036SOL     OW17384   2.956  10.949   0.346 -0.6315  0.2514  0.0727
38036SOL    HW117385   2.995  10.861   0.351  0.9587  0.9908  2.8168
38036SOL    HW217386   2.871  10.940   0.388 -1.0593 -0.1937 -0.8439
38037SOL     OW17387   9.189   7.836   1.706  0.2288 -0.4407  0.6123
38037SOL    HW117388   9.194   7.794   1.620  2.4860 -0.0528  0.4871
38037SOL    HW217389   9.242   7.780   1.763  0.7439  0.5717  1.1610
38038SOL     OW17390   8.409   2.123   6.117  0.4397  0.2112  0.1667
38038SOL    HW117391   8.332   2.155   6.165 -0.7799  0.9515 -2.1479
38038SOL    HW217392   8.481   2.178   6.147 -0.4086  1.0644  0.6772
38039SOL     OW17393   3.900   3.954   2.056 -0.1837 -0.2106  0.3359
38039SOL    HW117394   3.903   4.040   2.014 -0.3881 -0.7365 -0.8149
38039SOL    HW217395   3.844   3.966   2.132 -0.0375  0.7186  0.3124
38040SOL     OW17396   1.349  10.990   1.505  0.1822  0.2152  0.5321
38040SOL    HW117397   1.362  11.053   1.576 -0.6171  0.8535  0.1250
38040SOL    HW217398   1.263  10.953   1.520 -0.5878  1.3337 -0.8154
38041SOL     OW17399   3.979   6.688   2.062  0.5032 -0.2823 -0.3630
38041SOL    HW117400   3.965   6.686   2.157 -0.9950 -2.1623 -0.5668
38041SOL    HW217401   4.067   6.652   2.050  0.2415 -1.1359  0.2430
38042SOL     OW17402   8.553   3.511   8.906  0.0225  0.3189 -0.0510
38042SOL    HW117403   8.513   3.427   8.881 -1.5666  1.0769 -0.1458
38042SOL    HW217404   8.636   3.486   8.947 -0.0869 -1.2590 -0.7239
38043SOL     OW17405   5.134   7.612   8.883  0.2204  0.4712 -0.1526
38043SOL    HW117406   5.185   7.565   8.949 -0.6647 -1.5994 -0.8657
38043SOL    HW217407   5.062   7.653   8.932  1.8254  2.4628  0.6914
38044SOL     OW17408   7.712   6.352   0.436  0.6200 -0.8164 -0.0253
38044SOL    HW117409   7.622   6.383   0.448  1.1294  1.4224 -1.3951
38044SOL    HW217410   7.707   6.290   0.364  0.1332 -1.0166  0.1774
38045SOL     OW17411   0.310   2.827   4.908  0.1829  0.7152 -0.3200
38045SOL    HW117412   0.279   2.736   4.909  1.2537  0.3184  1.0039
38045SOL    HW217413   0.351   2.839   4.994 -0.3914  2.6347 -0.2666
38046SOL     OW17414   4.253   1.238  11.048  0.2369  0.1495 -0.0482
38046SOL    HW117415   4.336   1.192  11.040  0.5594  0.2064  2.2130
38046SOL    HW217416   4.217   1.207  11.131 -0.2302  2.8358  0.8423
38047SOL     OW17417   2.689  11.074   2.669 -0.4208 -0.0057 -0.2001
38047SOL    HW117418   2.774  11.078   2.625 -0.6192  0.3401 -0.5617
38047SOL    HW217419   2.665  10.982   2.669  0.4363 -0.2469  0.8366
38048SOL     OW17420   1.700  10.673   6.183  0.3499 -0.5467  1.0028
38048SOL    HW117421   1.787  10.712   6.181  0.2502 -0.2040  2.4855
38048SOL    HW217422   1.641  10.747   6.197 -0.4819 -0.4052 -2.3030
38049SOL     OW17423   5.273  11.061   2.067 -0.0578 -0.2408  0.5180
38049SOL    HW117424   5.231  10.996   2.011  1.2046 -1.2197  0.6823
38049SOL    HW217425   5.221  11.141   2.053 -0.1777 -0.6191 -1.5376
38050SOL     OW17426   0.101   6.266   1.928 -0.3750 -0.0867 -0.3115
38050SOL    HW117427   0.171   6.236   1.870 -0.6988 -0.7921 -0.3389
38050SOL    HW217428   0.093   6.360   1.909 -0.8062 -0.3914 -1.7574
38051SOL     OW17429  10.907   3.273   7.231 -0.3796 -0.4512  0.5093
38051SOL    HW117430  10.979   3.327   7.266 -1.3445  0.7908  0.6435
38051SOL    HW217431  10.906   3.293   7.137 -0.3776 -0.6725  0.4627
38052SOL     OW17432   8.635   2.365   5.422 -0.5333  0.5838 -0.5425
38052SOL    HW117433   8.548   2.327   5.406 -0.2941  0.3962 -1.4528
38052SOL    HW217434   8.666   2.322   5.502 -1.1972  0.5143 -0.3159
38053SOL     OW17435   0.362  10.678   8.613 -0.1587 -0.1680  0.2588
38053SOL    HW117436   0.293  10.651   8.673 -0.9995  1.3637  0.0575
38053SOL    HW217437   0.325  10.753   8.566  0.6851 -0.9102 -1.7469
38054SOL     OW17438   2.518   2.806   6.958  0.4598 -0.0196  0.9090
38054SOL    HW117439   2.579   2.873   6.986 -0.4489  1.1305  0.2318
38054SOL    HW217440   2.432   2.845   6.971 -0.0515 -0.5643 -0.6433
38055SOL     OW17441   0.995   5.756   7.039  0.3148 -0.3097 -0.4828
38055SOL    HW117442   0.928   5.751   7.108  0.5371  1.3139 -0.1093
38055SOL    HW217443   1.047   5.833   7.062 -0.6651  1.3658 -3.3812
38056SOL     OW17444   6.696   6.726   9.783  0.1819  0.1880  0.2415
38056SOL    HW117445   6.756   6.773   9.726 -0.1466  0.9559  0.5230
38056SOL    HW217446   6.744   6.646   9.808  0.9255  0.5970  0.1459
38057SOL     OW17447   5.930   8.415   6.722 -0.4889  0.0679 -0.2649
38057SOL    HW117448   5.865   8.414   6.652 -1.3266 -0.2858  0.5124
38057SOL    HW217449   5.958   8.324   6.730 -0.2897  0.1317 -0.2235
38058SOL     OW17450  10.273  10.477   1.542  0.0266 -0.1819  0.1444
38058SOL    HW117451  10.179  10.487   1.556 -0.0823  0.8809 -1.0827
38058SOL    HW217452  10.281  10.400   1.485 -0.4284  1.4577 -2.3087
38059SOL     OW17453   3.715   0.510   9.825 -0.4038 -0.3277  0.4928
38059SOL    HW117454   3.695   0.592   9.871 -3.1433 -0.8878  0.4539
38059SOL    HW217455   3.711   0.443   9.893  0.8189 -0.5980  0.3301
38060SOL     OW17456   3.346   9.140   1.548  0.5873  0.1047  0.0109
38060SOL    HW117457   3.340   9.205   1.478 -1.0158  0.8030  0.7459
38060SOL    HW217458   3.341   9.191   1.629  0.8779 -0.8096  0.6227
38061SOL     OW17459   0.648   9.962   5.328  0.0449 -0.4895 -0.2787
38061SOL    HW117460   0.655   9.879   5.374 -2.0469 -0.3368  0.4156
38061SOL    HW217461   0.583  10.012   5.379 -0.7099  0.5290 -2.1530
38062SOL     OW17462   9.591   7.886   5.426 -0.3174 -0.7376  0.6328
38062SOL    HW117463   9.583   7.902   5.520  1.9135  3.5137  0.3314
38062SOL    HW217464   9.663   7.823   5.419  1.4618  1.0558  1.7998
38063SOL     OW17465   2.798  10.911   3.653  0.1585  0.1804  0.4192
38063SOL    HW117466   2.742  10.833   3.654 -0.7448  0.8076  0.4593
38063SOL    HW217467   2.803  10.935   3.560 -0.2131  0.5226  0.4870
38064SOL     OW17468   0.598  10.036   7.014 -0.5513 -0.1915  0.0651
38064SOL    HW117469   0.659  10.084   7.069  0.1385  0.2943 -1.0799
38064SOL    HW217470   0.615   9.944   7.033  0.8278 -0.0741 -0.5098
38065SOL     OW17471   9.223   2.184   4.613  0.2779 -0.1461 -0.8753
38065SOL    HW117472   9.208   2.265   4.661 -2.9428 -1.2115  0.2155
38065SOL    HW217473   9.304   2.198   4.565  1.2833  2.6670  1.3906
38066SOL     OW17474   2.423   3.114   7.715 -0.9197 -0.5727 -0.0933
38066SOL    HW117475   2.441   3.207   7.729 -1.8618 -0.5635  1.2586
38066SOL    HW217476   2.504   3.079   7.678 -0.2760  0.6181  0.1425
38067SOL     OW17477   8.660   6.211   8.394  0.4583 -0.2558 -0.1708
38067SOL    HW117478   8.693   6.299   8.413 -0.2539  0.0289 -0.2180
38067SOL    HW217479   8.569   6.225   8.369 -0.8724 -1.3300  3.3937
38068SOL     OW17480   5.618   1.880   5.603 -0.1673 -0.8702 -0.0584
38068SOL    HW117481   5.693   1.931   5.572 -0.2116 -2.2661 -2.6974
38068SOL    HW217482   5.553   1.946   5.628  1.4713  0.3548  1.2699
38069SOL     OW17483   8.135   9.868   9.994 -1.1448  0.2414  0.1792
38069SOL    HW117484   8.128   9.826  10.079  0.2302  1.1659  0.7802
38069SOL    HW217485   8.085   9.812   9.935  0.4918 -2.1603  0.9549
38070SOL     OW17486  10.309   6.688   8.337 -0.2369  0.0197 -0.1168
38070SOL    HW117487  10.287   6.643   8.418  0.1246 -0.9231 -0.5315
38070SOL    HW217488  10.381   6.746   8.360 -0.4996  0.1664  0.3519
38071SOL     OW17489   5.303   4.127   2.422 -0.2099  0.5584  0.4188
38071SOL    HW117490   5.319   4.215   2.458  1.5135  0.3619  0.2224
38071SOL    HW217491   5.371   4.073   2.463 -1.3684 -0.7367  0.6735
38072SOL     OW17492   8.908   8.772   2.971 -0.0875  0.2918 -0.4263
38072SOL    HW117493   8.860   8.851   2.994  0.8790  0.1824  2.3567
38072SOL    HW217494   8.871   8.704   3.027  1.7256 -0.2827  0.1706
38073SOL     OW17495  10.221   8.353   3.205 -0.1763  0.2382 -0.4645
38073SOL    HW117496  10.131   8.379   3.185  0.5300  1.7445 -1.9095
38073SOL    HW217497  10.239   8.391   3.291 -0.2463  1.7933 -1.1170
38074SOL     OW17498   1.539   4.055   2.701 -0.3598  0.4649 -0.0100
38074SOL    HW117499   1.633   4.073   2.692 -0.3920  2.3521  2.3014
38074SOL    HW217500   1.534   3.979   2.758 -0.3023 -1.4156 -2.3602
38075SOL     OW17501   5.000   9.008   5.425 -0.0473  0.3617 -0.1262
38075SOL    HW117502   4.975   8.922   5.458 -2.6746  1.1021  0.0553
38075SOL    HW217503   4.950   9.070   5.478  0.7805  1.9314 -1.0860
38076SOL     OW17504   6.931   3.756   0.471 -0.6154 -0.3258  0.4787
38076SOL    HW117505   6.945   3.764   0.377  0.6573 -0.5760  0.6258
38076SOL    HW217506   6.897   3.842   0.497 -0.9184 -0.2357 -0.1908
38077SOL     OW17507   0.796   1.870   3.865  0.3757  0.0723 -0.5168
38077SOL    HW117508   0.718   1.837   3.820 -0.2851 -2.2226  2.0356
38077SOL    HW217509   0.850   1.907   3.795 -0.9842 -2.3216 -3.0260
38078SOL     OW17510   3.487   0.042   7.789 -0.3121  0.1392 -0.2227
38078SOL    HW117511   3.527   0.104   7.728  0.8415 -0.3187  0.0395
38078SOL    HW217512   3.424   0.094   7.838 -0.5750  0.7227 -1.1454
38079SOL     OW17513   8.506   4.500   3.935  0.6191 -0.0825  0.3153
38079SOL    HW117514   8.456   4.462   3.863 -1.0027 -0.6757  1.7031
38079SOL    HW217515   8.577   4.548   3.891 -0.4084 -0.2585 -1.6729
38080SOL     OW17516   3.018   4.290   9.729  0.2360 -0.2850  0.0318
38080SOL    HW117517   2.966   4.218   9.766  0.3332 -1.2997 -1.6735
38080SOL    HW217518   3.051   4.338   9.804  0.3710 -2.1850  1.2374
38081SOL     OW17519   8.681   8.273   5.761  0.0983  0.2186 -0.2798
38081SOL    HW117520   8.684   8.178   5.749 -0.2636  0.0595  0.8020
38081SOL    HW217521   8.678   8.308   5.672  0.6833 -0.7599 -0.7016
38082SOL     OW17522   2.146  10.147   3.616 -0.1566  0.0884  0.5683
38082SOL    HW117523   2.101  10.217   3.663 -2.1348 -0.5429 -0.3195
38082SOL    HW217524   2.238  10.175   3.614 -0.1845  0.7513  3.6544
38083SOL     OW17525   0.229   0.740   8.569  0.1703  0.0114  0.2317
38083SOL    HW117526   0.238   0.835   8.575 -0.2725  0.0937 -0.3217
38083SOL    HW217527   0.251   0.719   8.479 -0.1516 -0.3598  0.2353
38084SOL     OW17528   8.286   2.180   7.254 -0.1101  0.6733 -0.4059
38084SOL    HW117529   8.219   2.123   7.215 -1.1198  0.5291  1.4146
38084SOL    HW217530   8.236   2.249   7.298  1.0163  1.4252 -0.2589
38085SOL     OW17531   1.459   0.213   6.969 -0.1710  0.8148 -0.2918
38085SOL    HW117532   1.375   0.233   7.010 -0.2516 -0.0751 -0.0042
38085SOL    HW217533   1.439   0.203   6.876 -0.3474  0.8178 -0.2537
38086SOL     OW17534  10.465   6.172   0.281 -0.1012 -0.1005 -1.0276
38086SOL    HW117535  10.510   6.238   0.333 -0.0862 -1.3255  0.6162
38086SOL    HW217536  10.525   6.150   0.211  1.5673 -1.0404  0.5952
38087SOL     OW17537   8.601  10.272   7.629  0.1301  0.2995 -0.3075
38087SOL    HW117538   8.606  10.368   7.622  0.6531  0.3288  0.3521
38087SOL    HW217539   8.687  10.246   7.663  0.0880 -0.4322 -0.7318
38088SOL     OW17540  10.923  11.324   0.735  0.4193 -0.0402 -0.3051
38088SOL    HW117541  10.869  11.394   0.698  0.7400  1.6122  2.1272
38088SOL    HW217542  10.860  11.264   0.775  0.2459  0.3811  0.0675
38089SOL     OW17543   5.623   7.112   4.963  0.6415  0.0089  0.6387
38089SOL    HW117544   5.631   7.064   4.881  0.3887 -0.2728  0.7767
38089SOL    HW217545   5.528   7.124   4.974  0.6669 -0.0998  0.9743
38090SOL     OW17546   9.789   3.427  10.172 -0.3741 -0.1862 -0.0738
38090SOL    HW117547   9.760   3.508  10.130 -0.4566 -0.4098 -0.4566
38090SOL    HW217548   9.803   3.366  10.100  1.9942  0.1805 -0.0037
38091SOL     OW17549   3.617   6.351   9.861 -0.1295 -0.1099 -0.0931
38091SOL    HW117550   3.547   6.368   9.798 -1.1314  0.8295  1.2160
38091SOL    HW217551   3.695   6.391   9.823 -0.5734 -0.1031 -1.0047
38092SOL     OW17552   2.973   7.460   4.164  0.4769  0.3583  0.0757
38092SOL    HW117553   3.037   7.411   4.215  1.0206  0.8377 -0.1350
38092SOL    HW217554   2.965   7.412   4.082 -1.8773 -1.5555  1.2969
38093SOL     OW17555   0.598   9.096  10.574  0.3934 -0.3045  0.2078
38093SOL    HW117556   0.619   9.158  10.643 -1.0050  1.5045 -0.9007
38093SOL    HW217557   0.523   9.135  10.528  1.2964 -1.3745 -2.3656
38094SOL     OW17558   4.191   5.152   5.452  0.1868 -0.2871 -0.1677
38094SOL    HW117559   4.160   5.097   5.524 -0.5284 -0.8928 -0.9134
38094SOL    HW217560   4.287   5.146   5.456  0.1500 -2.4599 -0.8363
38095SOL     OW17561   2.072   4.856   4.879  0.0156 -0.2564  0.6823
38095SOL    HW117562   1.995   4.798   4.882  1.8431 -3.0875 -1.6743
38095SOL    HW217563   2.060   4.907   4.800  0.7353 -1.0535  0.0437
38096SOL     OW17564   3.680   6.769   5.532 -0.7128 -0.8694 -0.3563
38096SOL    HW117565   3.642   6.751   5.619  0.6691  0.9114  0.6849
38096SOL    HW217566   3.718   6.686   5.506 -1.9766 -1.6925  0.2809
38097SOL     OW17567   3.033   1.102   9.657  0.2572 -0.1960  0.2362
38097SOL    HW117568   3.088   1.134   9.728  1.1291  0.5385 -0.7514
38097SOL    HW217569   3.013   1.011   9.681 -0.2080  0.3003  1.8397
38098SOL     OW17570   7.040   2.097   3.692 -0.8428  0.1867 -0.2121
38098SOL    HW117571   7.065   2.182   3.657  2.5669 -1.4551 -2.2255
38098SOL    HW217572   7.092   2.033   3.643 -2.9191 -3.1039  1.4431
38099SOL     OW17573  10.843   8.213   0.008 -0.2586  0.2923  0.1880
38099SOL    HW117574  10.819   8.271  -0.065 -0.9409 -0.7013 -0.4114
38099SOL    HW217575  10.924   8.170  -0.021 -0.4924 -0.0512  0.0278
38100SOL     OW17576   6.738  10.715   2.133  0.6549  0.1957 -0.9011
38100SOL    HW117577   6.794  10.745   2.061  0.8555  1.3938 -0.2689
38100SOL    HW217578   6.653  10.757   2.116  0.3886 -0.3559 -0.9858
38101SOL     OW17579   5.432   2.759   6.929 -0.1367 -0.8518 -0.6268
38101SOL    HW117580   5.356   2.729   6.879 -0.0219  0.6002 -1.7537
38101SOL    HW217581   5.501   2.770   6.863  1.2992 -2.7723  0.4648
38102SOL     OW17582   9.147   5.407   1.682 -0.0935  0.7574  0.4628
38102SOL    HW117583   9.186   5.390   1.596  0.9138 -1.2070  1.2578
38102SOL    HW217584   9.200   5.478   1.718  0.1281  0.9028 -0.1312
38103SOL     OW17585   8.012   5.248  10.490  0.2675  0.4805 -0.1435
38103SOL    HW117586   7.982   5.334  10.460 -0.1605  0.1204 -0.7903
38103SOL    HW217587   7.995   5.248  10.584  1.7051  1.6780  0.1669
38104SOL     OW17588   7.031   6.689   6.380  0.3677 -0.0490 -0.1472
38104SOL    HW117589   7.010   6.639   6.301  0.6352 -0.6804  0.1714
38104SOL    HW217590   7.002   6.633   6.452  1.2355 -0.0333  0.2350
38105SOL     OW17591   4.087   8.740   2.173  0.2085 -0.7260 -0.2949
38105SOL    HW117592   4.165   8.795   2.183  0.2717 -0.4308 -2.0563
38105SOL    HW217593   4.112   8.676   2.106 -0.6915 -1.3519 -0.0457
38106SOL     OW17594  10.021  10.020   5.436 -0.8129  0.0506 -0.3624
38106SOL    HW117595  10.025  10.096   5.378  1.4892  0.9889  0.8986
38106SOL    HW217596   9.929   9.993   5.434 -1.3471  1.7847 -2.1946
38107SOL     OW17597   2.965   8.380   8.582 -0.4425 -0.3114  0.2863
38107SOL    HW117598   2.925   8.457   8.542  1.7967  0.2533 -1.0322
38107SOL    HW217599   3.058   8.400   8.585  0.1991 -2.9037  0.0454
38108SOL     OW17600   9.129   7.514   2.390 -0.0998 -0.1414  0.0270
38108SOL    HW117601   9.035   7.530   2.396 -0.1029 -0.4637  0.9789
38108SOL    HW217602   9.137   7.445   2.325 -0.6273 -0.9443  0.7915
38109SOL     OW17603   9.350   4.491   0.372  0.4791 -0.0732 -0.2887
38109SOL    HW117604   9.260   4.486   0.404 -0.1135 -0.3133 -1.8822
38109SOL    HW217605   9.370   4.584   0.372  0.8977 -0.1164  1.7208
38110SOL     OW17606  10.171   4.201   0.239 -0.6348  0.0382 -0.9010
38110SOL    HW117607  10.134   4.125   0.194 -3.8184  1.9252 -1.7585
38110SOL    HW217608  10.118   4.210   0.318  0.9562  0.3408  0.1798
38111SOL     OW17609   7.025   5.784   5.965 -0.0807 -0.6796  0.0611
38111SOL    HW117610   6.991   5.873   5.955 -0.7325 -0.8219  0.8305
38111SOL    HW217611   6.953   5.728   5.937 -0.9155 -1.0133  2.5706
38112SOL     OW17612   0.178  10.162  10.834  0.2015 -0.1552 -0.4663
38112SOL    HW117613   0.220  10.146  10.749  0.3685  0.5859 -0.5302
38112SOL    HW217614   0.176  10.258  10.842  3.4749 -0.1371  1.9648
38113SOL     OW17615   7.468   9.229  10.529  0.0254  0.3874  0.2138
38113SOL    HW117616   7.411   9.279  10.587  0.4593  1.5113 -0.2981
38113SOL    HW217617   7.527   9.294  10.491  2.7624 -0.9007  1.9389
38114SOL     OW17618   6.554   3.675   2.145  0.3194 -0.6081  0.2678
38114SOL    HW117619   6.621   3.607   2.150 -0.5012 -1.3600  1.4930
38114SOL    HW217620   6.582   3.742   2.207  1.6472  0.7312 -1.6401
38115SOL     OW17621   6.386   0.257   8.942 -0.3459 -0.0227 -0.2139
38115SOL    HW117622   6.448   0.203   8.991 -0.6730 -0.5939 -0.4176
38115SOL    HW217623   6.373   0.334   8.998  0.1453 -0.1352  0.0708
38116SOL     OW17624   8.304   8.347   5.333 -0.1952  0.2371  0.3281
38116SOL    HW117625   8.390   8.354   5.292 -0.8268  1.5343 -0.8415
38116SOL    HW217626   8.273   8.437   5.339 -2.5719 -0.3424 -1.7027
38117SOL     OW17627   3.699   0.998   5.213 -0.5909  0.5082 -0.3511
38117SOL    HW117628   3.638   1.041   5.153 -0.6690  1.0687  0.1252
38117SOL    HW217629   3.736   1.069   5.265 -2.1490 -0.1339  1.7801
38118SOL     OW17630   4.159   3.304   5.352 -0.3261  0.1776 -0.7035
38118SOL    HW117631   4.166   3.373   5.418  0.2986  0.0490 -0.6313
38118SOL    HW217632   4.080   3.256   5.375  0.7086 -0.8451  0.9079
38119SOL     OW17633   6.352   9.028   9.173  0.1837  0.4834 -0.3241
38119SOL    HW117634   6.337   9.014   9.080 -1.1709 -1.0348  0.0830
38119SOL    HW217635   6.291   9.098   9.197 -0.0880  0.2792 -0.4122
38120SOL     OW17636   0.470   2.248   8.030 -0.0787  0.2300 -0.5226
38120SOL    HW117637   0.388   2.262   8.078 -0.5377 -0.6003 -1.0419
38120SOL    HW217638   0.532   2.309   8.071 -0.6806  0.1492  0.5657
38121SOL     OW17639   0.043   7.620   0.163  0.1995  0.3555 -0.3064
38121SOL    HW117640   0.002   7.627   0.077  1.5061 -0.9871 -1.0930
38121SOL    HW217641   0.105   7.693   0.167  1.5695 -0.6717 -1.3926
38122SOL     OW17642   8.740   5.416   1.097 -0.3072 -0.4525 -0.2370
38122SOL    HW117643   8.696   5.385   1.018  0.3332 -0.4265 -0.6106
38122SOL    HW217644   8.796   5.343   1.123  0.1492 -0.1319 -0.3140
38123SOL     OW17645   3.990   0.544   7.616 -0.5395  0.1000 -0.7076
38123SOL    HW117646   4.049   0.562   7.689  0.1622 -1.5588 -0.8251
38123SOL    HW217647   4.025   0.595   7.544 -0.2331  0.4304 -0.3293
38124SOL     OW17648   8.127   3.186   8.794  0.2642 -0.1766 -0.3919
38124SOL    HW117649   8.212   3.190   8.837 -0.2372 -1.2838  0.7796
38124SOL    HW217650   8.104   3.277   8.776  1.0420  0.2300  0.5953
38125SOL     OW17651   7.398   6.237   0.951 -0.3187  0.1071 -0.1097
38125SOL    HW117652   7.418   6.320   0.908  0.5727  0.1192  0.3169
38125SOL    HW217653   7.439   6.171   0.896 -2.3379 -0.2290 -1.3240
38126SOL     OW17654   9.620   3.404   8.133 -0.4619  0.4378 -0.9089
38126SOL    HW117655   9.677   3.327   8.135 -1.5647 -0.4023 -0.5751
38126SOL    HW217656   9.608   3.422   8.040  0.3673  0.6474 -0.9822
38127SOL     OW17657   0.914   9.727   6.442 -0.3684 -0.3587  0.1892
38127SOL    HW117658   0.947   9.709   6.353  1.1159  1.8654  0.2133
38127SOL    HW217659   0.899   9.821   6.443 -2.3268 -0.6283  1.7279
38128SOL     OW17660   3.666   4.501   3.449  0.0841  0.3614 -0.2392
38128SOL    HW117661   3.629   4.483   3.536  0.3739  0.4600 -0.0952
38128SOL    HW217662   3.648   4.594   3.435 -1.9422 -0.1299 -1.2357
38129SOL     OW17663  11.272   2.790   6.470 -0.0548  0.3563  0.4385
38129SOL    HW117664  11.271   2.808   6.565 -0.4841  1.0469  0.3134
38129SOL    HW217665  11.192   2.832   6.438 -0.2995 -0.5206 -0.1201
38130SOL     OW17666  10.678  10.904   0.467  0.3551 -0.1896 -0.5975
38130SOL    HW117667  10.595  10.944   0.444 -0.0228 -1.7040 -2.1491
38130SOL    HW217668  10.725  10.971   0.517 -1.1933  1.2151 -0.9429
38131SOL     OW17669   4.741   5.098   8.050  0.3169 -0.0880  0.2702
38131SOL    HW117670   4.773   5.061   8.132  3.2329  1.8667  0.1475
38131SOL    HW217671   4.775   5.039   7.982  0.0340 -0.3131  0.3188
38132SOL     OW17672   7.076   8.676   2.411 -0.3342  0.1927 -0.0158
38132SOL    HW117673   7.109   8.591   2.439 -1.5739 -0.3202 -0.0344
38132SOL    HW217674   7.154   8.725   2.386  0.5314 -0.4351  1.3344
38133SOL     OW17675   3.061  10.751   1.904 -0.2062  0.3571 -0.4485
38133SOL    HW117676   3.064  10.658   1.880  0.7341 -0.0680  1.1409
38133SOL    HW217677   3.150  10.783   1.887 -1.0003  1.5292 -2.8465
38134SOL     OW17678   0.731   8.526   7.901 -0.0022 -0.0238 -0.2704
38134SOL    HW117679   0.694   8.614   7.891 -0.9752 -0.5905 -2.2996
38134SOL    HW217680   0.824   8.540   7.915 -0.2384  1.3424  0.0777
38135SOL     OW17681   3.628   6.350   1.371  0.2671  0.6861 -0.3626
38135SOL    HW117682   3.573   6.284   1.413  1.0618 -0.1622 -0.6259
38135SOL    HW217683   3.708   6.350   1.423  0.0881  1.8353 -0.0518
38136SOL     OW17684   9.780   7.933   1.147 -0.0356 -0.8825 -0.1077
38136SOL    HW117685   9.803   7.849   1.107  1.9697 -0.2936 -0.3431
38136SOL    HW217686   9.771   7.993   1.073  2.2075 -0.1238  0.1529
38137SOL     OW17687   2.513   7.790   6.382 -0.2146  0.1573 -0.5743
38137SOL    HW117688   2.580   7.859   6.390  0.3048 -0.3351 -0.6355
38137SOL    HW217689   2.560   7.709   6.401 -0.5730 -0.2940 -1.5636
38138SOL     OW17690   5.885   7.891   1.298 -0.2176  0.7418  0.1669
38138SOL    HW117691   5.873   7.900   1.204  0.3477 -0.7978 -0.0880
38138SOL    HW217692   5.797   7.900   1.335 -0.3132  2.3725 -0.3848
38139SOL     OW17693   1.743  11.190   1.156  0.1076 -0.5019 -0.1733
38139SOL    HW117694   1.720  11.262   1.097 -1.1668 -0.9557 -0.2502
38139SOL    HW217695   1.660  11.161   1.192  0.5670 -2.1431 -0.3750
38140SOL     OW17696   0.078   8.586   4.572  0.8018  0.4740  0.2103
38140SOL    HW117697  -0.004   8.536   4.571  0.8761  0.2499 -2.3102
38140SOL    HW217698   0.052   8.676   4.556  0.9866  0.5188  0.1529
38141SOL     OW17699   9.515   6.220   2.681  0.4408 -0.8234 -0.7346
38141SOL    HW117700   9.472   6.254   2.603  0.1279  2.4468  0.7136
38141SOL    HW217701   9.602   6.260   2.680  0.4091 -0.6582  0.5712
38142SOL     OW17702  10.806   8.024   6.127 -0.1561 -0.1046  0.4908
38142SOL    HW117703  10.760   8.016   6.043  1.1467  0.4944 -0.3279
38142SOL    HW217704  10.769   8.102   6.168 -0.1754  0.1240  0.0456
38143SOL     OW17705   4.416   7.227   2.231 -0.1164 -0.7040  0.3968
38143SOL    HW117706   4.323   7.225   2.257 -0.0901  0.0447  0.5563
38143SOL    HW217707   4.463   7.250   2.311  0.2834 -1.7944  0.4898
38144SOL     OW17708   9.863  10.181   0.588  0.0569 -0.2137  0.1553
38144SOL    HW117709   9.902  10.207   0.504  0.0684  3.1429  1.0597
38144SOL    HW217710   9.772  10.158   0.566 -0.2875  1.7731 -0.6872
38145SOL     OW17711   1.288   6.480   9.651  0.8207  0.2739 -0.1973
38145SOL    HW117712   1.246   6.430   9.580  0.9773  0.1311 -0.1910
38145SOL    HW217713   1.255   6.440   9.731 -2.3876  2.8310 -0.0509
38146SOL     OW17714   2.072   4.707   1.754  0.3939 -0.3989  0.4211
38146SOL    HW117715   2.125   4.633   1.785  1.3223  0.3495  0.6625
38146SOL    HW217716   2.124   4.747   1.685 -0.6691 -0.7015 -0.6008
38147SOL     OW17717   8.942  11.245   8.158  0.3570  0.2669  0.4686
38147SOL    HW117718   8.936  11.170   8.098 -0.9694  0.7135  0.0154
38147SOL    HW217719   8.933  11.321   8.101 -0.1954  0.7190  1.1547
38148SOL     OW17720   0.199   5.025   5.473  0.1738 -0.1427 -0.5610
38148SOL    HW117721   0.254   4.975   5.533  0.2749  0.7767  0.1214
38148SOL    HW217722   0.126   5.056   5.526  0.3027  0.7448 -0.8821
38149SOL     OW17723   1.274  10.562   4.170 -0.5269 -0.4162 -0.0247
38149SOL    HW117724   1.298  10.504   4.242  1.7863  1.0588  0.5072
38149SOL    HW217725   1.233  10.638   4.212  2.2077  1.1685  0.0639
38150SOL     OW17726   7.396   2.365   0.158  0.3724 -0.1286  0.0536
38150SOL    HW117727   7.463   2.414   0.109  1.3080 -0.8728  0.5717
38150SOL    HW217728   7.352   2.432   0.210 -0.3616  0.6205 -1.4489
38151SOL     OW17729   1.421   2.143   3.331  0.4429  0.2422  0.3939
38151SOL    HW117730   1.341   2.190   3.308  1.0826  0.8748 -0.5955
38151SOL    HW217731   1.486   2.211   3.346  1.0330 -0.2873  0.2951
38152SOL     OW17732   3.281   4.489   2.524  0.1935  0.0330  0.5236
38152SOL    HW117733   3.194   4.453   2.543  0.7863 -0.7708  1.9517
38152SOL    HW217734   3.271   4.533   2.440 -1.3693 -0.8125  0.2156
38153SOL     OW17735   7.593   5.122   8.742  0.5537  0.3610  0.2836
38153SOL    HW117736   7.578   5.123   8.647 -0.4326 -0.9268  0.3963
38153SOL    HW217737   7.527   5.182   8.777 -0.0409 -0.2778  0.2644
38154SOL     OW17738   5.887   6.387   3.575 -0.0425  0.3484  0.4690
38154SOL    HW117739   5.911   6.472   3.612  0.4313 -0.2366  1.5360
38154SOL    HW217740   5.964   6.333   3.587  2.1157  1.3348 -5.7060
38155SOL     OW17741   4.627   9.728  11.056  0.2883  0.5633  0.2102
38155SOL    HW117742   4.533   9.749  11.051  0.7096  2.3252 -1.2996
38155SOL    HW217743   4.633   9.637  11.026 -0.7313  1.1892 -2.1128
38156SOL     OW17744  10.734  10.485   3.505  0.1964  0.1550 -0.3608
38156SOL    HW117745  10.782  10.472   3.587  0.5377 -3.4951 -0.9632
38156SOL    HW217746  10.802  10.510   3.442  0.5465 -0.4580 -0.2361
38157SOL     OW17747   0.748   0.519   9.513 -0.0825 -0.6420 -0.1239
38157SOL    HW117748   0.754   0.432   9.472 -1.3862 -0.4524 -0.8017
38157SOL    HW217749   0.654   0.530   9.529  0.2091  0.1231  1.1478
38158SOL     OW17750   1.347  10.170   4.145 -0.5370 -0.1557 -0.2323
38158SOL    HW117751   1.352  10.083   4.106  0.0891 -0.0112 -0.4868
38158SOL    HW217752   1.299  10.157   4.227  0.4497 -0.9399  0.2446
38159SOL     OW17753   1.810   0.612   2.102  0.1734  0.3098 -0.1277
38159SOL    HW117754   1.832   0.678   2.167  2.0452 -0.1138 -0.2850
38159SOL    HW217755   1.718   0.629   2.081  0.2044  1.9282  0.8812
38160SOL     OW17756   4.458  11.109  11.395  0.5279  0.6040 -0.0892
38160SOL    HW117757   4.508  11.028  11.385 -0.3471  0.2239 -1.6816
38160SOL    HW217758   4.370  11.088  11.365 -0.9731  0.9893  3.5587
38161SOL     OW17759   7.942   5.051   8.782  0.2705 -0.2145 -0.1761
38161SOL    HW117760   7.977   5.121   8.728 -0.6756 -0.4434 -1.1363
38161SOL    HW217761   7.904   4.989   8.719 -0.8544 -0.5021  0.7399
38162SOL     OW17762  10.064   2.852   2.840 -0.5878  0.1419 -0.2822
38162SOL    HW117763  10.032   2.794   2.772  0.5015 -0.2421 -0.4863
38162SOL    HW217764  10.130   2.801   2.887 -1.5285  0.2778  1.2862
38163SOL     OW17765  11.098   4.539   3.117 -0.4373  0.0238  0.6185
38163SOL    HW117766  11.108   4.551   3.211  0.7632 -0.5070  0.5780
38163SOL    HW217767  11.184   4.511   3.087 -1.0630 -0.8017 -0.4905
38164SOL     OW17768  11.396   5.481   8.005  0.1589  0.5871  0.1340
38164SOL    HW117769  11.401   5.434   8.088  0.2950 -0.8653 -0.6522
38164SOL    HW217770  11.360   5.566   8.028 -0.4535 -0.0235  1.5890
38165SOL     OW17771   2.408  10.444   1.243 -0.9337 -0.4521  0.6766
38165SOL    HW117772   2.437  10.522   1.290 -1.3275 -0.1339  0.4094
38165SOL    HW217773   2.488  10.398   1.220 -0.3117  1.9723 -2.7678
38166SOL     OW17774   0.602  10.478   0.592 -0.5728  0.3055 -0.3053
38166SOL    HW117775   0.642  10.538   0.655  0.0496 -0.9243  0.4899
38166SOL    HW217776   0.671  10.415   0.571 -1.2857 -0.2818 -0.9476
38167SOL     OW17777   4.579   9.758   2.811 -0.6802 -0.0224  0.6295
38167SOL    HW117778   4.488   9.745   2.836 -0.8943  0.2653  0.0092
38167SOL    HW217779   4.628   9.696   2.865 -1.1223  0.6152  1.7757
38168SOL     OW17780   5.173   4.405   4.262 -0.1385  0.0873  0.0445
38168SOL    HW117781   5.150   4.482   4.211 -1.8470  0.2544  0.9884
38168SOL    HW217782   5.115   4.336   4.228  0.5077 -0.4731  0.0496
38169SOL     OW17783   2.236  10.518   2.264  0.4088 -0.9094  0.1653
38169SOL    HW117784   2.266  10.536   2.353  0.7584 -0.9070  0.0486
38169SOL    HW217785   2.300  10.456   2.229  2.1311  1.5062 -1.1977
38170SOL     OW17786   4.165   2.586   3.416  0.4748 -0.4172  0.3739
38170SOL    HW117787   4.256   2.612   3.400  0.5841 -0.4186  0.9884
38170SOL    HW217788   4.160   2.497   3.383  1.2326 -1.1487  2.0968
38171SOL     OW17789   2.540   4.977   7.422  0.3391  0.0234 -0.0345
38171SOL    HW117790   2.615   4.946   7.371  1.6982 -0.5431  2.1777
38171SOL    HW217791   2.560   4.951   7.512 -2.1770  0.5445  0.7480
38172SOL     OW17792   2.607   1.619   0.922 -0.5660  0.3070 -0.6951
38172SOL    HW117793   2.659   1.587   0.996 -0.7045  0.6536 -0.4430
38172SOL    HW217794   2.615   1.551   0.856 -0.1769  0.1382 -0.4813
38173SOL     OW17795   1.025   7.744  10.203 -0.3574 -0.0152 -0.0089
38173SOL    HW117796   0.990   7.655  10.204 -0.6598  0.1003 -0.0919
38173SOL    HW217797   1.117   7.734  10.181  0.3814 -0.5826  2.8450
38174SOL     OW17798   2.825   9.833  10.850 -0.4449  0.5985 -0.1189
38174SOL    HW117799   2.806   9.839  10.756  0.3317  0.5518 -0.2946
38174SOL    HW217800   2.780   9.753  10.878  2.3730 -1.6059 -1.3134
38175SOL     OW17801   6.661   6.742   6.459 -0.1353  0.2106 -0.3173
38175SOL    HW117802   6.601   6.675   6.427  1.1534 -1.4871  0.6198
38175SOL    HW217803   6.643   6.819   6.406 -1.2929 -1.0577 -1.8309
38176SOL     OW17804   8.973   1.338   8.935  0.0592 -0.0799  0.2545
38176SOL    HW117805   9.049   1.280   8.942  1.1645  1.1882 -0.7965
38176SOL    HW217806   8.965   1.356   8.842 -0.4607  1.1632  0.5230
38177SOL     OW17807   3.768   7.237   0.731 -0.6526 -0.1786 -0.3412
38177SOL    HW117808   3.679   7.204   0.747 -0.4592 -0.3872  0.3680
38177SOL    HW217809   3.812   7.227   0.816 -0.3747  1.2550 -0.2984
38178SOL     OW17810   2.041   8.094   2.807 -0.1260  0.0476 -0.1734
38178SOL    HW117811   1.997   8.019   2.768  0.8160  0.3235 -1.8776
38178SOL    HW217812   1.970   8.151   2.838 -0.9704  0.0524 -2.0081
38179SOL     OW17813   4.404   2.796   2.089 -0.4455  0.8320  0.2079
38179SOL    HW117814   4.411   2.891   2.078 -1.5191  0.9390  0.4380
38179SOL    HW217815   4.370   2.765   2.005 -1.9343  0.8720  0.7819
38180SOL     OW17816   8.882   9.684  10.153  0.2028  0.0833  0.6020
38180SOL    HW117817   8.974   9.674  10.130  0.3344  0.9524  0.7383
38180SOL    HW217818   8.857   9.770  10.121 -0.6336 -0.2327  0.3619
38181SOL     OW17819   1.157   6.759   3.323 -0.1826  0.6356 -0.3151
38181SOL    HW117820   1.246   6.776   3.294 -0.0064  1.2271  0.5134
38181SOL    HW217821   1.143   6.821   3.395 -1.2895  0.6095 -0.4857
38182SOL     OW17822   5.277   1.072   9.775 -0.5072  0.0021  0.4594
38182SOL    HW117823   5.284   1.167   9.763  2.3140 -0.2259 -0.3901
38182SOL    HW217824   5.247   1.039   9.690  1.1625 -0.0519 -0.1367
38183SOL     OW17825  10.126  10.637  10.660  0.3745 -0.4934 -0.1905
38183SOL    HW117826  10.086  10.555  10.631  0.5464 -0.4933 -0.4406
38183SOL    HW217827  10.176  10.666  10.583  0.0728 -0.0048 -0.1989
38184SOL     OW17828   0.295   0.722   2.585 -0.0827 -0.1427 -0.2636
38184SOL    HW117829   0.336   0.723   2.672 -0.8588 -1.0483  0.1387
38184SOL    HW217830   0.261   0.810   2.574 -0.5728 -0.1932  0.6687
38185SOL     OW17831   7.008  11.007   7.569  0.4980  0.0522 -0.4647
38185SOL    HW117832   7.031  11.065   7.642 -0.3356 -0.6337  0.3652
38185SOL    HW217833   7.090  10.994   7.522  1.0793  0.4086  0.4292
38186SOL     OW17834   0.162   3.443   6.791 -0.0569  0.7280 -0.2087
38186SOL    HW117835   0.171   3.448   6.696  1.4003  2.7289 -0.0255
38186SOL    HW217836   0.216   3.368   6.816  0.6037  0.9873 -0.8441
38187SOL     OW17837   9.517   7.675   9.865 -0.4978  0.1011 -0.2731
38187SOL    HW117838   9.512   7.619   9.787 -1.0979  0.5220 -0.5407
38187SOL    HW217839   9.493   7.762   9.834  0.3505  0.4997  0.1634
38188SOL     OW17840   2.524   3.600   8.528  0.0597 -0.3526 -1.3130
38188SOL    HW117841   2.539   3.601   8.623  0.6392  1.1399 -1.3951
38188SOL    HW217842   2.437   3.560   8.518  0.8858 -2.5897 -0.3390
38189SOL     OW17843   0.464   9.657  10.356  0.3454  0.1021 -0.2502
38189SOL    HW117844   0.520   9.732  10.338  0.8219 -0.1558  0.1623
38189SOL    HW217845   0.381   9.679  10.313  0.2447  1.1704  0.4521
38190SOL     OW17846   9.142   8.448   0.358  0.0720 -0.2350 -0.5653
38190SOL    HW117847   9.124   8.389   0.284 -0.2350 -1.1104  0.1846
38190SOL    HW217848   9.180   8.391   0.425 -0.0988  0.4524  0.1238
38191SOL     OW17849   3.492   5.608   8.939  0.3123 -0.3267 -0.0482
38191SOL    HW117850   3.464   5.608   9.030  1.8629 -0.1868  0.4694
38191SOL    HW217851   3.436   5.543   8.896 -0.6710 -0.1353  0.9152
38192SOL     OW17852   8.229  10.397  11.362 -0.3027  0.3167 -0.2863
38192SOL    HW117853   8.171  10.340  11.311  0.2892  0.9774 -1.7733
38192SOL    HW217854   8.298  10.422  11.300  0.5202  1.0789  0.8947
38193SOL     OW17855   2.223  10.367   1.864 -0.2207  0.3764 -0.2426
38193SOL    HW117856   2.270  10.287   1.887  0.1668  0.9826  1.2015
38193SOL    HW217857   2.214  10.364   1.769 -1.5543 -2.1316 -0.1330
38194SOL     OW17858   5.758   4.346   0.172 -0.7510  0.6829  0.1426
38194SOL    HW117859   5.705   4.425   0.163  0.8679  1.8602  0.5539
38194SOL    HW217860   5.757   4.327   0.266 -1.1045  0.2042  0.0504
38195SOL     OW17861   0.905   9.714   4.501  0.4320  0.0493  0.1933
38195SOL    HW117862   0.928   9.804   4.477  1.9022  0.2239  2.0021
38195SOL    HW217863   0.975   9.687   4.561 -0.6715 -1.8490  0.7098
38196SOL     OW17864   6.129  10.248   2.151  0.3667 -0.3019  0.0089
38196SOL    HW117865   6.173  10.324   2.113 -0.5883  0.3825  0.2485
38196SOL    HW217866   6.201  10.192   2.182  1.0883  1.4443  1.6943
38197SOL     OW17867   9.293  10.565  10.168 -0.9183  1.3525  0.6907
38197SOL    HW117868   9.323  10.655  10.181 -0.4817  1.1513  1.0985
38197SOL    HW217869   9.291  10.527  10.256 -1.9498  1.2233  0.6268
38198SOL     OW17870   2.726   4.212  11.313 -0.2754 -0.0860 -0.3242
38198SOL    HW117871   2.755   4.149  11.246  1.5528 -2.0316  2.0925
38198SOL    HW217872   2.635   4.229  11.292  0.1621 -0.6923 -3.1856
38199SOL     OW17873   7.072   9.149  10.908 -0.2963  1.0610  0.0211
38199SOL    HW117874   7.012   9.152  10.982 -0.8116  2.0926 -0.4203
38199SOL    HW217875   7.139   9.085  10.934 -1.4484  0.0590  0.6143
38200SOL     OW17876   9.821   7.790   9.696  0.3486  0.7640 -0.1218
38200SOL    HW117877   9.805   7.715   9.638  1.8668  1.1947 -1.1668
38200SOL    HW217878   9.758   7.856   9.667 -1.1298 -0.1236  0.9320
38201SOL     OW17879   0.374   3.297   7.753  0.3731 -0.4201 -0.1890
38201SOL    HW117880   0.464   3.327   7.766  0.1333  0.0530  0.4644
38201SOL    HW217881   0.379   3.202   7.764  0.4857 -0.2195  1.8945
38202SOL     OW17882   4.005   6.370   2.204 -0.0270  0.2782  0.4271
38202SOL    HW117883   4.060   6.320   2.144 -1.6656 -0.1121 -0.8007
38202SOL    HW217884   3.918   6.366   2.166 -0.4882  2.9447  1.0110
38203SOL     OW17885   6.169   1.971   6.547  0.0853 -0.3878 -0.1070
38203SOL    HW117886   6.196   2.059   6.575  0.1980 -0.2577 -0.6169
38203SOL    HW217887   6.110   1.941   6.616 -0.1722  0.1996 -0.0671
38204SOL     OW17888  11.296  10.269   4.521 -0.2460 -0.2741 -0.3192
38204SOL    HW117889  11.212  10.230   4.498 -0.1924 -0.6873  0.1711
38204SOL    HW217890  11.279  10.319   4.600  0.2580 -1.4994  0.5953
38205SOL     OW17891   9.113   9.250   8.927 -0.0263  0.7309  0.5808
38205SOL    HW117892   9.072   9.324   8.972  0.2278  0.3714  1.4214
38205SOL    HW217893   9.157   9.200   8.997  0.8119  0.4394 -0.1329
38206SOL     OW17894  11.214   0.467   7.397  0.0525 -0.7177  0.4421
38206SOL    HW117895  11.310   0.458   7.395  0.0481 -0.8794  0.8840
38206SOL    HW217896  11.190   0.449   7.488 -0.1878  1.2970  0.8462
38207SOL     OW17897   9.688  10.036   3.489 -0.9216 -0.1395 -0.1852
38207SOL    HW117898   9.667   9.969   3.424 -0.2800 -1.1235  0.5876
38207SOL    HW217899   9.608  10.045   3.541 -1.6173  1.0356 -1.4011
38208SOL     OW17900   9.061   4.018   0.328  0.2663  0.1622 -0.3261
38208SOL    HW117901   8.990   4.068   0.288 -0.8334  0.2362  1.6021
38208SOL    HW217902   9.088   3.956   0.261 -1.3603  0.3859 -1.2317
38209SOL     OW17903   2.838   8.422   0.217 -0.1990  0.0375 -0.7217
38209SOL    HW117904   2.781   8.469   0.278  0.7764  1.5438 -0.9137
38209SOL    HW217905   2.783   8.408   0.140 -0.6737  0.4047 -0.4610
38210SOL     OW17906   8.133   9.408   3.418  0.2344 -0.0807  0.5236
38210SOL    HW117907   8.173   9.334   3.462  1.2370  0.0607 -0.1277
38210SOL    HW217908   8.106   9.374   3.332  1.8200  0.5806 -0.2726
38211SOL     OW17909   5.411   5.562   5.139 -0.6487  0.4756 -0.6459
38211SOL    HW117910   5.482   5.563   5.075 -1.8975  0.0906 -2.1025
38211SOL    HW217911   5.428   5.638   5.194  1.1244  0.1442 -0.6670
38212SOL     OW17912   9.490   5.521   3.216  0.6821  0.1286 -0.4539
38212SOL    HW117913   9.398   5.544   3.206  0.4687 -0.2939  0.4514
38212SOL    HW217914   9.490   5.426   3.232  1.0272  0.4954  2.2063
38213SOL     OW17915   4.561   3.641   7.098 -0.1999  0.6501 -0.0008
38213SOL    HW117916   4.559   3.737   7.097 -2.0717  0.6429 -0.8461
38213SOL    HW217917   4.469   3.615   7.096  0.2149 -1.1880  1.6186
38214SOL     OW17918   2.041  10.023   6.227 -0.1535 -0.5821 -0.0612
38214SOL    HW117919   2.044  10.096   6.288  0.7964 -1.4448  0.9613
38214SOL    HW217920   2.127  10.023   6.185 -1.2434  0.8931 -2.5584
38215SOL     OW17921   3.692   8.123   6.793 -0.0896  0.1306 -0.5890
38215SOL    HW117922   3.646   8.084   6.867  0.3179  0.8780  0.0671
38215SOL    HW217923   3.722   8.208   6.824  0.0640  0.4769 -1.6224
38216SOL     OW17924   1.061   3.052   7.848  0.2187 -0.2916 -0.1850
38216SOL    HW117925   1.110   2.972   7.828 -0.0466 -1.1134  2.1895
38216SOL    HW217926   1.116   3.100   7.909 -0.3162  0.5877 -0.3712
38217SOL     OW17927   4.809   4.516  10.403  0.0567 -0.4157 -0.1528
38217SOL    HW117928   4.831   4.518  10.310 -0.3971 -0.2431 -0.2612
38217SOL    HW217929   4.752   4.591  10.415 -0.8264 -1.0948  0.0186
38218SOL     OW17930   7.776   9.317   8.069 -0.5156  0.2679 -0.3425
38218SOL    HW117931   7.824   9.250   8.117 -1.6680 -0.6908 -0.4829
38218SOL    HW217932   7.826   9.397   8.084  1.7271 -0.8273 -1.3535
38219SOL     OW17933   9.542   7.868   4.512  0.7085 -0.8233  0.1571
38219SOL    HW117934   9.595   7.865   4.591  1.6668  1.3672 -0.3358
38219SOL    HW217935   9.597   7.912   4.448 -0.0106 -2.5939 -1.7961
38220SOL     OW17936   5.385  10.439   2.226  0.9479 -0.0957  0.5284
38220SOL    HW117937   5.312  10.493   2.259  0.8328  0.6080 -0.8158
38220SOL    HW217938   5.380  10.447   2.131  1.4353 -1.8650  0.3177
38221SOL     OW17939   0.131  10.978   1.125  0.7737  0.1164  0.2782
38221SOL    HW117940   0.149  10.968   1.031  3.0709 -0.2767  0.7026
38221SOL    HW217941   0.076  11.056   1.130  1.8809  1.0614 -1.2862
38222SOL     OW17942  10.969   3.495   4.909  0.6246 -0.0356 -0.0174
38222SOL    HW117943  11.002   3.550   4.980 -1.6213  0.3670  0.7944
38222SOL    HW217944  10.991   3.542   4.829  0.3563  1.1348  0.5884
38223SOL     OW17945   7.938   1.289   3.504 -0.6048  0.1677 -0.1423
38223SOL    HW117946   7.862   1.248   3.463 -0.6998 -0.2884  0.4770
38223SOL    HW217947   7.901   1.338   3.578 -0.2882 -0.1158  0.2045
38224SOL     OW17948  10.406   1.129   1.204 -0.8985 -0.0399 -0.1619
38224SOL    HW117949  10.490   1.172   1.219 -1.0744  0.0843  0.5405
38224SOL    HW217950  10.426   1.035   1.206 -0.2820 -0.0519 -3.0741
38225SOL     OW17951   3.456   1.067   4.474 -0.4431 -0.4401 -0.4673
38225SOL    HW117952   3.498   1.128   4.413 -1.8312  1.4252  0.3470
38225SOL    HW217953   3.498   1.084   4.558  0.7685 -2.3059 -0.6328
38226SOL     OW17954   6.427   4.728   8.246 -0.4438 -0.1970 -0.1486
38226SOL    HW117955   6.337   4.756   8.260 -0.6394 -1.2198  0.7618
38226SOL    HW217956   6.432   4.641   8.287  0.7198 -0.5304 -0.9395
38227SOL     OW17957  11.086   2.098   1.739  0.4189 -0.3986  0.1211
38227SOL    HW117958  11.166   2.131   1.698  0.7660 -0.5683  0.6445
38227SOL    HW217959  11.115   2.026   1.795 -0.0280 -0.1455  0.6996
38228SOL     OW17960   5.938   1.168   4.962 -0.1026 -0.0291  0.1232
38228SOL    HW117961   5.953   1.141   5.053 -1.1107 -0.6821  0.1088
38228SOL    HW217962   5.847   1.145   4.945 -0.2404  1.0552 -0.7251
38229SOL     OW17963   7.757  11.339   5.118  0.4376  0.3005 -0.0615
38229SOL    HW117964   7.697  11.333   5.044  1.7044  2.1387 -1.3166
38229SOL    HW217965   7.786  11.249   5.133 -1.3060 -0.3742 -0.5020
38230SOL     OW17966   5.979  11.215   7.345  0.0601  0.1385  0.3060
38230SOL    HW117967   5.983  11.257   7.430  0.4195 -0.6825  0.7095
38230SOL    HW217968   6.070  11.204   7.318  0.0570 -1.5944  0.8518
38231SOL     OW17969   7.928   2.954   7.638  0.6084  0.2165  0.3296
38231SOL    HW117970   7.946   2.863   7.664  0.2474 -0.9538 -3.0143
38231SOL    HW217971   8.014   2.996   7.636  0.9469 -0.4448  0.6551
38232SOL     OW17972   6.016  11.010   9.395  0.1420 -0.0984 -0.5067
38232SOL    HW117973   5.998  10.956   9.472  0.2017  1.3370  0.5382
38232SOL    HW217974   6.111  11.008   9.385  0.1653  0.0521 -0.3026
38233SOL     OW17975   7.264   7.032   6.050 -0.1801  0.1183 -0.2101
38233SOL    HW117976   7.188   7.076   6.012  1.1065  1.0188 -1.8592
38233SOL    HW217977   7.278   6.956   5.994 -0.2932 -0.4783  0.5511
38234SOL     OW17978   4.365   0.333   1.164 -0.4708  0.4151 -0.3752
38234SOL    HW117979   4.366   0.382   1.247  0.5831  0.8645 -0.6400
38234SOL    HW217980   4.416   0.387   1.104 -1.0123 -0.0352 -1.2565
38235SOL     OW17981   8.261   8.490   2.428 -0.1372  0.1667  0.7185
38235SOL    HW117982   8.301   8.516   2.345 -0.4526 -0.7526  0.2716
38235SOL    HW217983   8.294   8.554   2.491  0.6111  0.4914  0.0149
38236SOL     OW17984   0.259  10.779   2.415 -0.2015  0.1356  0.6086
38236SOL    HW117985   0.318  10.798   2.488  1.6335  1.1005 -1.0352
38236SOL    HW217986   0.307  10.717   2.360 -1.2248  0.0180 -0.1896
38237SOL     OW17987   4.818  10.129   6.790 -0.1140 -0.2317 -0.3505
38237SOL    HW117988   4.876  10.165   6.723  0.1346  0.2875  0.1272
38237SOL    HW217989   4.868  10.138   6.872 -0.4795 -0.6857 -0.0678
38238SOL     OW17990   0.395   5.970   5.402 -0.3243  0.4645 -0.0066
38238SOL    HW117991   0.359   5.959   5.490  0.0310 -0.4567  0.0314
38238SOL    HW217992   0.487   5.993   5.415  0.4757 -2.3676 -0.1178
38239SOL     OW17993   9.444   9.290   8.721  0.1170  0.0361 -0.0017
38239SOL    HW117994   9.349   9.288   8.728  0.0638  1.8911  0.3204
38239SOL    HW217995   9.463   9.247   8.638 -1.0285  0.0284 -0.2792
38240SOL     OW17996   1.010  11.276  10.515  0.5317 -0.0404  0.1976
38240SOL    HW117997   1.105  11.290  10.520  0.6607  0.7320 -2.5548
38240SOL    HW217998   0.996  11.237  10.429 -1.6080 -0.9480  0.8847
38241SOL     OW17999   7.515   4.251   3.880 -0.3154  0.3906  0.0223
38241SOL    HW118000   7.519   4.346   3.868 -1.4464  0.5281  0.6262
38241SOL    HW218001   7.462   4.239   3.958 -1.0989 -0.7775 -0.6667
38242SOL     OW18002   1.302   3.732   0.956 -0.0634  0.2282  0.1825
38242SOL    HW118003   1.258   3.704   1.036 -2.2337 -0.4157 -1.1592
38242SOL    HW218004   1.235   3.727   0.888  1.9295 -0.2185 -1.9036
38243SOL     OW18005   2.968   2.285   4.454  0.3420  0.3820  0.1686
38243SOL    HW118006   2.885   2.289   4.406  0.3284 -0.5336  0.0925
38243SOL    HW218007   3.031   2.327   4.396 -0.0311  0.9632  0.1691
38244SOL     OW18008   5.122   1.668   2.181  0.9391 -0.3737  0.1044
38244SOL    HW118009   5.042   1.629   2.146  1.3465 -1.4643  0.3563
38244SOL    HW218010   5.191   1.639   2.123  1.0591  1.3762 -0.6983
38245SOL     OW18011   6.060   9.700   8.335 -0.2119  0.6311 -0.4623
38245SOL    HW118012   5.967   9.676   8.341  0.2057 -0.8529  0.3961
38245SOL    HW218013   6.106   9.632   8.384  1.2393  2.0072  0.1761
38246SOL     OW18014   7.259   9.673   4.850 -0.9307 -0.5874 -0.1159
38246SOL    HW118015   7.166   9.655   4.863 -1.1915  0.7925  0.0280
38246SOL    HW218016   7.296   9.676   4.939 -0.9724 -0.0366 -0.1138
38247SOL     OW18017   6.666   9.535   3.204  0.3175  0.2394  0.6523
38247SOL    HW118018   6.597   9.488   3.156 -0.0741 -0.4235  1.8380
38247SOL    HW218019   6.746   9.516   3.155  0.0875 -1.2720  0.8251
38248SOL     OW18020   3.894   6.500   6.854 -0.0757  0.2598  0.1762
38248SOL    HW118021   3.964   6.454   6.808 -0.8631 -0.3037 -0.4946
38248SOL    HW218022   3.939   6.567   6.904  0.9234  0.0999 -0.4653
38249SOL     OW18023   4.855   9.730   0.786  0.0237  0.2998  0.1919
38249SOL    HW118024   4.782   9.700   0.839  0.3752 -1.1915 -0.1185
38249SOL    HW218025   4.843   9.686   0.701  0.0586  1.7845 -0.6133
38250SOL     OW18026   2.894   8.526   1.494  0.2376  0.3479  0.4381
38250SOL    HW118027   2.898   8.621   1.501  1.7925  0.2990  0.7517
38250SOL    HW218028   2.939   8.495   1.573 -0.0486 -0.6350  0.2221
38251SOL     OW18029   7.238   5.739   2.299 -0.4011  0.1644  0.1963
38251SOL    HW118030   7.181   5.816   2.300 -1.0237 -0.2922  0.9351
38251SOL    HW218031   7.238   5.707   2.389 -0.1287 -0.6758 -0.0884
38252SOL     OW18032   9.595   3.452   2.507 -0.4082  0.1446  0.4020
38252SOL    HW118033   9.669   3.410   2.463 -1.6412 -3.1393  1.1180
38252SOL    HW218034   9.523   3.446   2.445 -1.1272 -0.8147  1.2778
38253SOL     OW18035   8.626   3.383   8.476 -0.3341  0.0926  0.3809
38253SOL    HW118036   8.716   3.400   8.504  0.4814 -0.5866 -1.6337
38253SOL    HW218037   8.576   3.456   8.513  1.1483  0.8090  1.0784
38254SOL     OW18038   6.894   7.791   3.037  0.2631 -0.2100  0.0824
38254SOL    HW118039   6.860   7.877   3.015 -0.4467 -0.5965 -0.3778
38254SOL    HW218040   6.856   7.771   3.122  0.6600  0.0531  0.3215
38255SOL     OW18041  10.475   0.129   6.004  0.4823 -0.0243  0.4601
38255SOL    HW118042  10.445   0.058   5.948  0.4886 -0.4007  0.9268
38255SOL    HW218043  10.409   0.134   6.074  0.3939  0.5370  0.3398
38256SOL     OW18044   8.327   8.903   6.360 -0.2004  0.4405  0.3854
38256SOL    HW118045   8.282   8.974   6.406  0.7106  1.4587 -0.2343
38256SOL    HW218046   8.411   8.941   6.334  0.5457 -1.0361  0.4958
38257SOL     OW18047   9.567   4.431   1.794 -0.0170  0.4517  0.4645
38257SOL    HW118048   9.508   4.373   1.843 -0.3999 -2.2717 -2.8299
38257SOL    HW218049   9.637   4.373   1.764  0.9105  2.2376 -1.0121
38258SOL     OW18050  10.143  10.390   1.912  0.2379  0.3641  0.4348
38258SOL    HW118051  10.084  10.386   1.837  0.8464 -1.6581 -0.0191
38258SOL    HW218052  10.118  10.469   1.959 -2.6883 -0.3116  0.1800
38259SOL     OW18053   0.130   5.769   2.173  0.2177  0.1039 -0.3183
38259SOL    HW118054   0.058   5.830   2.159  0.4066  0.4971  0.3718
38259SOL    HW218055   0.202   5.824   2.203  0.8650 -0.2647 -1.1678
38260SOL     OW18056   0.930   1.042  11.010  0.0286 -0.8416  0.3874
38260SOL    HW118057   0.965   1.034  11.098 -0.1185 -1.0386  0.4285
38260SOL    HW218058   0.838   1.067  11.022  0.3275  0.3756  0.2708
38261SOL     OW18059   6.255   2.234   6.634  0.0584  0.3317  0.1482
38261SOL    HW118060   6.205   2.267   6.559  0.5671  1.0019  0.1023
38261SOL    HW218061   6.336   2.285   6.634  0.3643 -0.1402  0.7479
38262SOL     OW18062   6.612   1.826  10.196  0.4975 -0.4107 -0.3696
38262SOL    HW118063   6.691   1.828  10.249  0.3138  0.2284 -0.1183
38262SOL    HW218064   6.542   1.854  10.255  0.3249  0.5026 -0.9949
38263SOL     OW18065   6.424   5.876   9.209 -0.5107  0.0309 -0.5952
38263SOL    HW118066   6.450   5.876   9.116 -0.0951  0.7145 -0.4805
38263SOL    HW218067   6.426   5.968   9.234 -0.3495 -0.1811  0.1733
38264SOL     OW18068  10.504   8.967   8.048  0.6675 -0.6911 -0.3298
38264SOL    HW118069  10.574   8.925   8.098  0.6106  0.8589  1.1188
38264SOL    HW218070  10.530   8.956   7.957  1.8736 -1.7156  0.1077
38265SOL     OW18071   2.034   3.701   3.194  0.3159  0.6786  0.3753
38265SOL    HW118072   1.949   3.719   3.153 -0.0421  0.6395  1.0795
38265SOL    HW218073   2.099   3.730   3.130 -0.2182 -0.0572 -0.5205
38266SOL     OW18074   4.186   8.368   2.812 -0.1926 -0.3819 -0.1577
38266SOL    HW118075   4.259   8.326   2.767  0.9196  0.7164  0.5480
38266SOL    HW218076   4.190   8.334   2.901  0.2724  0.6063  0.2234
38267SOL     OW18077   4.810   5.987   3.120  0.8214  0.2945 -0.1806
38267SOL    HW118078   4.720   5.953   3.120  0.8459  0.2281 -0.8541
38267SOL    HW218079   4.864   5.913   3.093  1.2427 -0.0610  1.5253
38268SOL     OW18080  10.291   3.895   2.595  0.1683  0.2131 -0.2305
38268SOL    HW118081  10.367   3.936   2.553  1.0353 -0.6366  0.4679
38268SOL    HW218082  10.253   3.839   2.527 -0.0594  0.9090 -0.6882
38269SOL     OW18083   8.767  10.015   3.042 -0.0549 -0.6352 -0.4371
38269SOL    HW118084   8.678  10.044   3.062  0.5378  0.8440  0.1917
38269SOL    HW218085   8.796   9.971   3.122 -0.1517 -0.9764 -0.5865
38270SOL     OW18086   5.809  11.082   1.881  0.0605 -0.1043  0.0004
38270SOL    HW118087   5.719  11.050   1.879 -0.3255  0.9736 -0.4460
38270SOL    HW218088   5.846  11.054   1.797 -0.5702  1.3822 -0.8108
38271SOL     OW18089  10.697   9.888   3.687  0.0199  0.0954  0.2492
38271SOL    HW118090  10.784   9.860   3.717 -0.8049 -1.2623  1.4941
38271SOL    HW218091  10.695   9.982   3.706  1.1004  0.0828  0.5162
38272SOL     OW18092   6.033   2.102  11.075  0.1603 -0.4175 -0.2132
38272SOL    HW118093   6.067   2.093  11.164  0.7514  0.7290 -0.3136
38272SOL    HW218094   5.957   2.159  11.085  1.5189  1.5673 -0.7043
38273SOL     OW18095   2.963   9.968   8.821 -0.1238 -0.0665 -0.0656
38273SOL    HW118096   2.969   9.945   8.914  0.2353  2.5267  0.6448
38273SOL    HW218097   2.913   9.897   8.781  0.2632 -1.5678  1.9740
38274SOL     OW18098   5.016   4.605   6.211  0.0225  0.1032  0.4856
38274SOL    HW118099   5.094   4.629   6.162  0.7361 -1.5411  0.7589
38274SOL    HW218100   5.022   4.657   6.292  1.0548 -0.2891  0.6781
38275SOL     OW18101   6.617   0.556   5.024  0.0711  0.1802  0.0262
38275SOL    HW118102   6.531   0.595   5.035 -0.9413 -2.1918  1.1766
38275SOL    HW218103   6.662   0.573   5.107  1.6516  3.2647 -1.2852
38276SOL     OW18104   0.242   0.757   6.540  0.0343 -0.3620 -0.1406
38276SOL    HW118105   0.148   0.770   6.529  0.3646  0.0488 -3.4263
38276SOL    HW218106   0.259   0.670   6.503  1.0487 -0.1674 -0.1701
38277SOL     OW18107  10.947   0.951   4.967  0.4462  0.4782  0.2780
38277SOL    HW118108  10.930   1.043   4.946 -1.5170 -0.2485 -1.8127
38277SOL    HW218109  10.987   0.915   4.888  1.7163 -0.3816  1.2677
38278SOL     OW18110   8.737   7.327   6.092 -0.1961  0.8515  0.5404
38278SOL    HW118111   8.829   7.345   6.110  0.1194 -2.0019  2.5230
38278SOL    HW218112   8.734   7.304   5.999  0.8053  2.1854  0.1516
38279SOL     OW18113   9.341   6.647   9.424 -0.0864 -0.5397  0.2545
38279SOL    HW118114   9.384   6.568   9.390  0.3484 -0.1860 -0.0347
38279SOL    HW218115   9.332   6.703   9.347 -0.4264 -0.3215  0.4551
38280SOL     OW18116   8.959   2.466  11.146 -0.1743 -0.4670 -0.3355
38280SOL    HW118117   9.028   2.432  11.089 -1.3253 -1.3266 -1.2602
38280SOL    HW218118   8.878   2.443  11.101 -1.0563  1.2911  0.2913
38281SOL     OW18119   5.811   4.990   3.898 -0.0848  0.1483 -0.0850
38281SOL    HW118120   5.754   4.963   3.969 -0.2721  0.2612 -0.1920
38281SOL    HW218121   5.766   5.065   3.858  0.0584  0.1357 -0.2708
38282SOL     OW18122   2.753   9.037   6.589 -0.2765 -0.0739  0.4463
38282SOL    HW118123   2.675   8.989   6.559 -0.6146  0.5150  0.3770
38282SOL    HW218124   2.815   8.968   6.612 -0.7846 -0.5526  0.4169
38283SOL     OW18125   3.159   1.402   7.285  0.0593  0.0320  0.0232
38283SOL    HW118126   3.230   1.339   7.269  1.7160  1.7156  0.3184
38283SOL    HW218127   3.083   1.363   7.242  1.2980 -1.5799 -0.8608
38284SOL     OW18128   0.249   1.997   3.923 -0.2037 -0.4012 -0.2401
38284SOL    HW118129   0.339   2.026   3.935 -0.4331  0.1177  0.3464
38284SOL    HW218130   0.253   1.902   3.927  0.4097 -0.4126 -0.9528
38285SOL     OW18131  10.176   3.766   2.384  0.5919  0.6623  0.3445
38285SOL    HW118132  10.174   3.672   2.400  1.2992  0.6901  0.6382
38285SOL    HW218133  10.195   3.774   2.290 -1.4539  0.5129 -0.1137
38286SOL     OW18134   0.451   7.145   0.986 -0.2291  0.3961  0.3173
38286SOL    HW118135   0.513   7.153   0.913  0.0303 -0.9154  0.3820
38286SOL    HW218136   0.499   7.100   1.054 -1.5610 -1.6944 -0.0367
38287SOL     OW18137   6.129   7.522   9.800  0.3208 -0.1061 -0.3026
38287SOL    HW118138   6.193   7.577   9.845 -0.7825  2.6189 -1.8357
38287SOL    HW218139   6.176   7.490   9.723  0.5470 -0.1149 -0.1619
38288SOL     OW18140   6.488   2.869  10.099 -0.5897  0.0078 -0.1193
38288SOL    HW118141   6.501   2.914  10.016 -0.7405  0.3091  0.0184
38288SOL    HW218142   6.479   2.939  10.163 -0.2144 -0.2232  0.1926
38289SOL     OW18143   7.621   4.132   6.145 -0.4410  0.0849  1.1298
38289SOL    HW118144   7.589   4.046   6.119  1.3615 -0.1309 -0.6301
38289SOL    HW218145   7.708   4.116   6.181  1.5155  1.3170 -2.4615
38290SOL     OW18146   5.663   0.684  10.091 -0.3625  0.1984  0.1597
38290SOL    HW118147   5.680   0.719  10.179 -2.5458  0.5077  0.5278
38290SOL    HW218148   5.622   0.756  10.044 -0.5085 -0.3948 -0.6502
38291SOL     OW18149  10.412   6.157   4.753 -0.2517 -0.0702 -0.2572
38291SOL    HW118150  10.471   6.201   4.692 -0.4068  0.9478  0.3004
38291SOL    HW218151  10.455   6.074   4.774  0.6563  0.3690 -0.3693
38292SOL     OW18152   4.091   3.755   8.617 -0.2984 -0.1475  0.4204
38292SOL    HW118153   4.131   3.801   8.691  1.0033  0.9469 -0.9226
38292SOL    HW218154   4.024   3.815   8.585 -0.5141 -0.4102  0.3709
38293SOL     OW18155   9.909   4.459   7.512 -0.2398  0.8838  0.1863
38293SOL    HW118156   9.955   4.402   7.574 -0.6066  0.0063 -0.3303
38293SOL    HW218157   9.942   4.546   7.532  0.7560  0.4321  0.6325
38294SOL     OW18158   3.429  10.643  10.808 -0.0380 -0.2332  0.2733
38294SOL    HW118159   3.448  10.587  10.883  0.8393 -0.0558  0.1914
38294SOL    HW218160   3.341  10.676  10.825  0.1165 -0.2642  1.1823
38295SOL     OW18161   6.216   8.219   7.570  0.0717  0.5783 -0.0472
38295SOL    HW118162   6.194   8.248   7.659 -0.3506 -0.3539  0.1746
38295SOL    HW218163   6.311   8.229   7.564  0.2322 -0.1623  0.8430
38296SOL     OW18164   1.602   0.426   6.395  0.5229  0.0877  0.4592
38296SOL    HW118165   1.630   0.516   6.409 -0.3609  0.5959 -0.8060
38296SOL    HW218166   1.615   0.411   6.301  1.3920 -1.3845  0.7812
38297SOL     OW18167   1.842   8.909   0.377  0.3976  0.1264 -0.4637
38297SOL    HW118168   1.817   9.001   0.370 -0.1746 -0.0543 -0.8564
38297SOL    HW218169   1.936   8.908   0.361  1.1750  1.0972  3.0366
38298SOL     OW18170  11.226  10.021  11.353  0.1294  0.3686 -0.1402
38298SOL    HW118171  11.170  10.098  11.342  0.5925  0.6182 -0.8480
38298SOL    HW218172  11.208   9.968  11.275 -0.3343 -0.3400  0.4412
38299SOL     OW18173   4.261   7.530  10.255 -0.4707  0.1625  0.3518
38299SOL    HW118174   4.216   7.540  10.340  0.0192  2.8001  0.3678
38299SOL    HW218175   4.350   7.503  10.278 -0.8136 -0.8365  0.5536
38300SOL     OW18176   1.642   8.526   8.145  0.4139 -0.0535  0.0728
38300SOL    HW118177   1.716   8.580   8.172  0.5123  0.8345 -1.7948
38300SOL    HW218178   1.659   8.440   8.182  3.4830 -0.4631 -1.9771
38301SOL     OW18179   7.269   5.779  10.450 -0.1532  0.4744  0.2662
38301SOL    HW118180   7.226   5.778  10.364 -0.8232  1.0792  0.5836
38301SOL    HW218181   7.268   5.688  10.478 -0.0322  0.2872 -0.3134
38302SOL     OW18182  10.134   9.876   6.469 -0.8924 -0.5440  0.6115
38302SOL    HW118183  10.061   9.824   6.437  0.6322 -1.1450 -2.1662
38302SOL    HW218184  10.097   9.963   6.485 -2.3339 -1.0173 -0.0535
38303SOL     OW18185   9.562   3.854   6.227 -0.0791  0.5335 -0.4854
38303SOL    HW118186   9.578   3.761   6.215 -1.3825  0.1956  0.2783
38303SOL    HW218187   9.650   3.892   6.236  0.4399 -0.9975  1.7905
38304SOL     OW18188   2.573   0.716   1.748 -0.1827 -0.4925  0.2817
38304SOL    HW118189   2.661   0.751   1.763  0.0112  0.7078 -2.8656
38304SOL    HW218190   2.586   0.650   1.679 -1.6828 -0.6205  0.0971
38305SOL     OW18191   0.242   2.721   5.423 -0.1480  0.1540 -0.1083
38305SOL    HW118192   0.164   2.774   5.443  0.3162  0.6252  0.4913
38305SOL    HW218193   0.221   2.635   5.459 -0.8190 -0.0178 -0.8943
38306SOL     OW18194   0.997  11.346  10.786  0.0212 -0.1208  0.1027
38306SOL    HW118195   0.985  11.341  10.692  1.0237 -0.4513 -0.0179
38306SOL    HW218196   1.082  11.306  10.802  0.4281  1.0415  1.0037
38307SOL     OW18197   5.057   1.386   5.278 -0.4463 -0.0656  0.2226
38307SOL    HW118198   5.025   1.300   5.304 -0.5335  0.3347  1.5062
38307SOL    HW218199   5.014   1.404   5.195  0.0606 -1.5167 -0.3845
38308SOL     OW18200   7.560   0.927   0.508 -0.2372 -0.5907  0.6438
38308SOL    HW118201   7.500   0.967   0.570 -0.2531 -0.7365  0.7224
38308SOL    HW218202   7.627   0.885   0.563  0.4373  0.3228  0.5578
38309SOL     OW18203   6.928   8.019   9.241 -0.1926 -0.2235  0.7292
38309SOL    HW118204   6.833   8.024   9.252 -0.2761 -0.6556  0.2712
38309SOL    HW218205   6.948   7.926   9.251  0.1389 -0.1770  0.5058
38310SOL     OW18206  10.416   6.317   1.282  0.1050 -0.0358 -0.4317
38310SOL    HW118207  10.331   6.313   1.238 -0.4533  1.0072  0.4739
38310SOL    HW218208  10.464   6.385   1.235 -0.4287  0.9597  0.4091
38311SOL     OW18209   0.641   1.859   6.489 -0.1876  0.2675 -0.0384
38311SOL    HW118210   0.652   1.878   6.583 -0.9386 -1.3004  0.3973
38311SOL    HW218211   0.559   1.902   6.466 -0.1313  0.4449  0.0884
38312SOL     OW18212   9.895   3.691   6.317 -0.5845  1.1099  0.0871
38312SOL    HW118213   9.824   3.636   6.282  0.6202 -0.2669 -0.3201
38312SOL    HW218214   9.884   3.775   6.274 -0.2974  0.0523 -2.2278
38313SOL     OW18215  10.393   2.801   3.601 -0.1915  0.3803  0.2413
38313SOL    HW118216  10.443   2.809   3.682 -1.4326  1.4698  0.9344
38313SOL    HW218217  10.313   2.755   3.627  0.2092 -0.9784 -0.7707
38314SOL     OW18218   5.050   9.089   2.259  0.3788  0.0043 -0.2004
38314SOL    HW118219   5.096   9.124   2.335  1.6374 -2.4453  0.2410
38314SOL    HW218220   4.966   9.059   2.294  0.8795 -0.9460  0.2185
38315SOL     OW18221   9.202  10.637   9.941  0.0637  0.3479  0.0002
38315SOL    HW118222   9.253  10.617  10.020  0.1789  1.0339  0.1033
38315SOL    HW218223   9.116  10.661   9.975  0.5114  2.0431  0.0358
38316SOL     OW18224   3.140   7.585   8.620 -0.1482 -0.1468  0.7656
38316SOL    HW118225   3.131   7.548   8.533  1.9949 -0.0976  0.4829
38316SOL    HW218226   3.107   7.517   8.679 -1.6570 -0.1604 -0.0305
38317SOL     OW18227   7.408   2.557   5.780  0.0659  0.1869 -0.1009
38317SOL    HW118228   7.349   2.626   5.748  0.7781  0.0401 -1.8328
38317SOL    HW218229   7.481   2.605   5.819 -0.3119  0.3879  0.3644
38318SOL     OW18230   8.399   8.907   2.177 -0.8200 -0.5229  0.2296
38318SOL    HW118231   8.352   8.979   2.134 -1.5616 -0.8789  0.4216
38318SOL    HW218232   8.437   8.947   2.256 -2.4702 -0.6217  1.1368
38319SOL     OW18233   9.713   4.585   5.564  0.3470  0.3819 -0.4143
38319SOL    HW118234   9.639   4.637   5.533 -3.1304 -3.2558  1.0413
38319SOL    HW218235   9.760   4.561   5.483 -1.4046  0.8841 -1.6376
38320SOL     OW18236   5.369   0.451   6.591  0.3547  0.2294 -0.7035
38320SOL    HW118237   5.352   0.374   6.644 -0.3014  0.4586 -0.5719
38320SOL    HW218238   5.321   0.435   6.509 -0.7850  1.0121 -0.2156
38321SOL     OW18239   1.661  10.625  11.396 -0.0069  0.0850  0.7660
38321SOL    HW118240   1.737  10.595  11.446 -0.6773 -0.2458  1.6121
38321SOL    HW218241   1.590  10.632  11.460 -0.9699 -0.6362 -0.1677
38322SOL     OW18242   0.723  11.290   2.387  0.2255 -0.7634  0.3708
38322SOL    HW118243   0.691  11.247   2.467 -1.1217 -2.3096 -0.9275
38322SOL    HW218244   0.661  11.362   2.373 -0.5015 -1.4702 -0.1199
38323SOL     OW18245   6.811   5.289   6.008 -0.1186 -0.6199  0.5103
38323SOL    HW118246   6.906   5.293   6.020 -0.1370 -0.1327  0.5347
38323SOL    HW218247   6.784   5.211   6.056  0.1746 -0.3042  1.2135
38324SOL     OW18248   3.617   4.374   7.793 -0.4313 -0.0073 -0.2085
38324SOL    HW118249   3.679   4.303   7.782  0.5182  0.5019  1.4950
38324SOL    HW218250   3.537   4.332   7.826 -0.6289 -0.5087 -1.2720
38325SOL     OW18251   0.209   8.973   9.105  1.0529  0.8886  0.2473
38325SOL    HW118252   0.151   8.899   9.124  0.0944  1.5079 -0.2129
38325SOL    HW218253   0.185   9.039   9.169  0.3650  1.6119 -0.7294
38326SOL     OW18254   4.116   6.777   3.144 -0.4155 -0.3540  0.3112
38326SOL    HW118255   4.028   6.749   3.169 -0.0327 -0.2556  1.8681
38326SOL    HW218256   4.144   6.836   3.214 -0.1203  1.7991 -1.4819
38327SOL     OW18257   6.406  10.321   9.558 -0.2395 -0.2713 -0.3071
38327SOL    HW118258   6.327  10.374   9.548 -0.1131 -0.2319 -1.2375
38327SOL    HW218259   6.440  10.343   9.645 -1.8688 -1.1496  0.6056
38328SOL     OW18260   2.313   8.307   0.155 -0.0149  0.7477  0.2785
38328SOL    HW118261   2.246   8.243   0.179 -1.1349  0.9708 -2.0107
38328SOL    HW218262   2.394   8.255   0.149 -0.6935 -0.2654 -0.4710
38329SOL     OW18263   2.908   1.208   5.896 -0.3870  0.2975 -0.4586
38329SOL    HW118264   2.922   1.213   5.802  1.1491 -0.8580 -0.3385
38329SOL    HW218265   2.982   1.256   5.934  0.1072 -0.9030  0.1580
38330SOL     OW18266   9.877  10.241   9.058 -0.2417  0.2568 -0.6628
38330SOL    HW118267   9.822  10.173   9.097  1.8409 -1.4524 -0.5035
38330SOL    HW218268   9.841  10.254   8.971 -2.2441  0.8831  0.1908
38331SOL     OW18269   7.831   2.099   2.845 -0.0683 -0.6721  0.4453
38331SOL    HW118270   7.922   2.070   2.845 -0.6476 -2.6808  1.0746
38331SOL    HW218271   7.810   2.109   2.938 -0.7881 -1.2490  0.3460
38332SOL     OW18272   4.060   1.328   9.593 -0.2309  0.0004  0.4315
38332SOL    HW118273   4.092   1.365   9.675  0.3891 -1.0738  0.6869
38332SOL    HW218274   4.114   1.251   9.578  1.8221  1.8036 -2.6120
38333SOL     OW18275  10.680   0.079   0.710 -0.4410 -0.5834 -0.2504
38333SOL    HW118276  10.672   0.138   0.785  2.0644  0.1903 -0.5089
38333SOL    HW218277  10.719   0.132   0.641  0.7654 -2.2062 -0.8914
38334SOL     OW18278   6.175   1.295   7.792  0.1484  0.1717  0.0366
38334SOL    HW118279   6.208   1.361   7.732  1.4458 -1.2928 -0.9509
38334SOL    HW218280   6.087   1.274   7.759  1.0858 -1.0912 -1.8507
38335SOL     OW18281   6.941   5.165   9.788 -0.4932  0.6227  0.2651
38335SOL    HW118282   6.887   5.134   9.860 -1.5388  0.3948 -0.6057
38335SOL    HW218283   6.913   5.255   9.774 -1.0267  0.3429 -0.5231
38336SOL     OW18284   1.138   6.739   6.605  0.6565  0.1579 -0.2870
38336SOL    HW118285   1.116   6.664   6.550 -0.0264  0.6136 -0.6511
38336SOL    HW218286   1.153   6.701   6.692  0.7497 -0.4454 -0.5579
38337SOL     OW18287   5.009   5.025   4.258 -0.0299  0.0301  0.3677
38337SOL    HW118288   5.056   4.952   4.298  0.3363 -0.4220 -0.8361
38337SOL    HW218289   5.000   5.000   4.166  1.7682  2.2868 -0.5245
38338SOL     OW18290  10.039   4.333   8.901 -0.3585 -0.1788  0.2205
38338SOL    HW118291  10.092   4.406   8.868 -0.8267  0.3771  0.6863
38338SOL    HW218292  10.103   4.273   8.940 -0.0873  0.7446  1.2723
38339SOL     OW18293   0.499   3.988   1.346 -0.1126  0.2073  0.1375
38339SOL    HW118294   0.501   3.978   1.251  0.5072  0.5799  0.1000
38339SOL    HW218295   0.409   3.969   1.371 -0.0457 -0.8970 -0.4064
38340SOL     OW18296   7.194   7.672   9.782 -0.7295 -0.2232 -0.5962
38340SOL    HW118297   7.249   7.601   9.815 -1.5771 -0.7675 -0.3045
38340SOL    HW218298   7.244   7.710   9.710 -0.5505 -1.5661 -1.2114
38341SOL     OW18299  10.818   4.232   5.125 -0.1557  0.3982 -0.9206
38341SOL    HW118300  10.779   4.299   5.069 -1.6269 -0.0146 -0.4431
38341SOL    HW218301  10.791   4.149   5.086  0.7684  0.0856 -0.9109
38342SOL     OW18302   5.802   9.506   5.140  0.0927  0.4700  0.2893
38342SOL    HW118303   5.855   9.478   5.066 -0.1227  0.5175  0.1146
38342SOL    HW218304   5.851   9.478   5.217 -0.1000 -0.3494  0.1235
38343SOL     OW18305   9.823   4.745   0.726 -0.1054 -0.1531  0.1170
38343SOL    HW118306   9.730   4.752   0.706  0.2194  1.3438 -1.0593
38343SOL    HW218307   9.857   4.686   0.658 -0.3871 -1.7917  1.3478
38344SOL     OW18308   7.417  10.597   8.592  0.1200  0.5473 -0.3025
38344SOL    HW118309   7.404  10.512   8.635  0.9800  0.8627  0.6180
38344SOL    HW218310   7.391  10.582   8.501  2.5257 -1.3735 -0.7785
38345SOL     OW18311   6.209   7.091   2.956  0.2626 -0.5342  0.0728
38345SOL    HW118312   6.116   7.105   2.973  0.8008  0.5384  2.5164
38345SOL    HW218313   6.243   7.178   2.934  0.8400 -0.7576  0.0565
38346SOL     OW18314   0.030  10.395   4.906 -0.2945 -0.3089 -0.1512
38346SOL    HW118315   0.056  10.305   4.884 -1.2086 -0.6217 -0.0386
38346SOL    HW218316  -0.026  10.422   4.833  1.2384  0.7862 -0.9780
38347SOL     OW18317   1.860   1.909  11.386 -0.3248  0.1039 -0.3119
38347SOL    HW118318   1.824   1.974  11.447  1.6948  1.1065 -0.1115
38347SOL    HW218319   1.951   1.936  11.373 -0.0382 -1.4693 -1.9342
38348SOL     OW18320   3.451   5.110   3.087 -0.0727 -1.0222  0.4851
38348SOL    HW118321   3.401   5.056   3.026  0.0833  0.9676 -1.5386
38348SOL    HW218322   3.384   5.159   3.135 -0.1635 -1.7424  1.1075
38349SOL     OW18323   4.304   9.345   9.192  0.1438 -0.0665  0.0166
38349SOL    HW118324   4.289   9.436   9.214 -0.0823 -0.2209  0.5156
38349SOL    HW218325   4.220   9.314   9.157 -0.0853 -0.3516  0.7980
38350SOL     OW18326   2.768   9.581   7.099 -0.7381 -0.0773  0.0884
38350SOL    HW118327   2.736   9.646   7.037 -0.4263 -0.4206 -0.4327
38350SOL    HW218328   2.694   9.522   7.112 -0.4456 -0.6700 -0.8498
38351SOL     OW18329   2.661  10.318   7.675 -0.8491  0.3566 -0.0280
38351SOL    HW118330   2.647  10.248   7.739  0.7390  1.1085  1.1993
38351SOL    HW218331   2.685  10.272   7.594 -2.1447 -0.5792  0.0779
38352SOL     OW18332  11.235   6.498   6.520  0.1476  0.5626 -0.4113
38352SOL    HW118333  11.284   6.436   6.466 -1.3639  0.0393 -1.2592
38352SOL    HW218334  11.174   6.444   6.570 -0.2324  1.2502 -0.1049
38353SOL     OW18335   5.084   8.144   6.868  0.2652 -0.3988 -0.4622
38353SOL    HW118336   5.082   8.163   6.962  0.7003  0.5151 -0.6331
38353SOL    HW218337   5.060   8.226   6.826 -1.4003 -1.1899 -1.1267
38354SOL     OW18338   0.967   9.262  11.306  0.1824  0.3479  0.2212
38354SOL    HW118339   1.013   9.311  11.238  1.7403  0.0153  0.9709
38354SOL    HW218340   1.037   9.228  11.362 -0.8808 -1.8208  0.3420
38355SOL     OW18341   1.339   9.419   8.276 -0.1499  0.4550  0.7349
38355SOL    HW118342   1.268   9.481   8.296 -1.3179 -1.2137  1.9567
38355SOL    HW218343   1.391   9.415   8.356 -0.1171 -0.1892  0.6797
38356SOL     OW18344   4.083   6.123   9.331  0.4300 -0.4690  0.0715
38356SOL    HW118345   4.150   6.122   9.399  0.4799 -1.7179  0.0135
38356SOL    HW218346   4.034   6.043   9.344 -0.7686  0.2021 -0.1871
38357SOL     OW18347   5.510   4.821   2.945  0.0506 -0.0242 -0.8439
38357SOL    HW118348   5.554   4.881   3.005 -1.1693  1.9901 -1.8277
38357SOL    HW218349   5.573   4.750   2.930  2.4679  2.0572 -1.2354
38358SOL     OW18350   6.788   5.969  10.111  0.3789  0.1452 -0.3723
38358SOL    HW118351   6.865   5.914  10.124  1.5611  1.7593 -0.1830
38358SOL    HW218352   6.794   6.035  10.179  0.8336  2.4193 -2.4789
38359SOL     OW18353   3.929   2.562   0.007 -0.1340 -0.6537  0.8008
38359SOL    HW118354   3.886   2.603   0.082  0.6564  1.4070  0.1842
38359SOL    HW218355   4.017   2.598   0.006  0.4729 -2.0777 -0.0496
38360SOL     OW18356   9.766   1.256   6.428 -0.0546 -0.1389  0.6413
38360SOL    HW118357   9.851   1.280   6.391  0.1532 -0.8098  0.6859
38360SOL    HW218358   9.715   1.337   6.424  0.8130  0.4619  1.2548
38361SOL     OW18359   8.994   5.162   0.505 -0.1995 -0.1769 -0.3334
38361SOL    HW118360   8.907   5.200   0.499 -0.0988  0.2194  0.5500
38361SOL    HW218361   9.019   5.172   0.597  0.8746 -0.0595 -0.6166
38362SOL     OW18362   5.667   1.518  10.006 -0.6192 -0.0372 -0.4330
38362SOL    HW118363   5.746   1.491   9.959 -0.1145 -0.9232  0.8688
38362SOL    HW218364   5.670   1.614  10.004 -0.5908 -0.0470 -2.1142
38363SOL     OW18365  11.200   1.107   8.427  0.1218  0.0988 -0.0534
38363SOL    HW118366  11.219   1.016   8.450 -0.9146 -0.3616 -0.9196
38363SOL    HW218367  11.198   1.153   8.510  0.3467 -0.7405  0.4260
38364SOL     OW18368  10.645   4.841   2.895 -0.4522  0.3727  0.0938
38364SOL    HW118369  10.663   4.830   2.989  0.8247 -2.3313 -0.3454
38364SOL    HW218370  10.629   4.752   2.864  0.3122  1.0493 -2.4713
38365SOL     OW18371   5.462   4.957   7.126  0.0413 -1.0692  0.2149
38365SOL    HW118372   5.485   4.991   7.039 -1.5451 -1.7188 -0.4925
38365SOL    HW218373   5.520   4.882   7.139 -1.5777 -2.7229 -1.5597
38366SOL     OW18374   5.602  10.554   2.347 -0.1072 -0.9083  0.4085
38366SOL    HW118375   5.539  10.591   2.409 -0.7185  0.0291 -0.7449
38366SOL    HW218376   5.550  10.499   2.290  0.5620 -2.3298  1.1138
38367SOL     OW18377   7.250  10.346   9.794 -0.2600  0.1516  0.2332
38367SOL    HW118378   7.156  10.327   9.796 -0.4882  1.2142  0.0626
38367SOL    HW218379   7.271  10.352   9.701 -0.0543  0.0587  0.2734
38368SOL     OW18380   4.705   0.990   3.022 -0.4081  0.6780  0.2619
38368SOL    HW118381   4.788   1.037   3.014 -0.9720  1.7439  0.4476
38368SOL    HW218382   4.697   0.940   2.941  0.6456  0.1603  0.4607
38369SOL     OW18383   4.946   6.147   5.347  0.1938 -0.0904 -0.0728
38369SOL    HW118384   4.936   6.241   5.338  0.7677 -0.0810 -0.6856
38369SOL    HW218385   5.030   6.127   5.305 -0.7251 -1.1134 -1.5190
38370SOL     OW18386   5.445   5.596   9.353  0.7455 -0.5530 -0.3553
38370SOL    HW118387   5.401   5.675   9.323 -2.3638 -2.1646 -0.4378
38370SOL    HW218388   5.450   5.540   9.276  0.1436 -1.5646  0.3143
38371SOL     OW18389  10.064   7.109  10.699 -0.1713 -0.3349 -0.3462
38371SOL    HW118390  10.147   7.085  10.739 -0.1750 -0.2530 -0.2867
38371SOL    HW218391  10.022   7.166  10.764  0.7710  1.6093 -1.3318
38372SOL     OW18392   4.688   3.078   4.334  0.0525 -0.6003 -0.0035
38372SOL    HW118393   4.675   3.155   4.278 -1.4352  1.5740  3.0184
38372SOL    HW218394   4.772   3.042   4.306  1.6764  3.1060 -0.5928
38373SOL     OW18395   3.555   4.872   2.062 -0.8215 -0.4041  0.1511
38373SOL    HW118396   3.631   4.870   2.005 -0.2328 -3.0250  0.8904
38373SOL    HW218397   3.486   4.911   2.009  0.7635  1.2109 -0.8307
38374SOL     OW18398   2.659   8.891   2.130  0.0421  0.7348  0.3403
38374SOL    HW118399   2.622   8.903   2.217 -0.9886  1.4940 -0.1846
38374SOL    HW218400   2.694   8.802   2.130  1.0111  1.0844  1.8601
38375SOL     OW18401   3.536   5.516   7.332  0.4656 -0.0840 -0.1907
38375SOL    HW118402   3.462   5.498   7.390  0.4460  1.2417  0.2114
38375SOL    HW218403   3.579   5.431   7.322 -0.9968 -0.8618 -0.3040
38376SOL     OW18404   3.408   9.711   2.559 -0.5521 -0.3620 -0.2490
38376SOL    HW118405   3.317   9.717   2.531 -0.1755  1.4684 -1.2273
38376SOL    HW218406   3.446   9.795   2.536  0.9641 -0.4182  1.7266
38377SOL     OW18407   1.257   8.102   1.866  0.0847  0.2090  0.4046
38377SOL    HW118408   1.239   8.156   1.943  0.3427  0.6638  0.1545
38377SOL    HW218409   1.330   8.046   1.892  1.5300  1.7440 -0.1130
38378SOL     OW18410   5.953   1.816   5.996 -0.6628 -0.4301 -0.0927
38378SOL    HW118411   5.939   1.874   5.921 -0.9412  1.3137  1.2304
38378SOL    HW218412   6.028   1.853   6.042 -2.0552  0.1565  1.8812
38379SOL     OW18413   8.384   1.524   9.577 -0.6131 -0.2441  0.4601
38379SOL    HW118414   8.377   1.585   9.504 -1.6426 -1.2973 -0.3654
38379SOL    HW218415   8.300   1.530   9.621 -0.6033 -0.8087  0.5628
38380SOL     OW18416   0.568   3.691   4.929  0.3844  0.5659  0.3675
38380SOL    HW118417   0.626   3.678   5.004  1.9071  0.1480 -0.8279
38380SOL    HW218418   0.482   3.659   4.959  0.8437  0.7931  2.0405
38381SOL     OW18419   7.249   7.514   2.763 -0.1042 -0.2965  0.3145
38381SOL    HW118420   7.288   7.428   2.777 -0.1174 -0.0634  2.1329
38381SOL    HW218421   7.254   7.557   2.849  1.8700  2.3656 -0.9585
38382SOL     OW18422   7.739   1.527   3.312 -0.1203 -0.2222 -0.7100
38382SOL    HW118423   7.817   1.490   3.272  0.9203 -0.2240  1.2375
38382SOL    HW218424   7.746   1.506   3.405 -2.5004 -0.3145 -0.4701
38383SOL     OW18425   8.078   8.473   8.029  0.9228  0.0290  0.6751
38383SOL    HW118426   8.129   8.526   8.089  0.8055  1.9569 -0.8226
38383SOL    HW218427   7.998   8.523   8.014  0.7683 -0.5667 -0.7511
38384SOL     OW18428   4.059   3.862  10.866 -0.3483 -0.0486 -0.4131
38384SOL    HW118429   4.025   3.787  10.915 -2.5214  0.3562 -1.1737
38384SOL    HW218430   4.121   3.904  10.927 -2.0737 -0.2237  1.6090
38385SOL     OW18431  11.038   9.898   9.115  0.0174 -0.0754  0.0740
38385SOL    HW118432  11.083   9.859   9.190  0.4653 -1.3424 -0.8306
38385SOL    HW218433  11.012   9.824   9.061 -1.2813  0.7647 -0.5003
38386SOL     OW18434  10.249  10.133   3.686 -0.3291  0.5302 -0.1897
38386SOL    HW118435  10.249  10.094   3.773 -1.2028 -1.3251 -0.9785
38386SOL    HW218436  10.330  10.184   3.682  0.6367 -0.8507  1.0648
38387SOL     OW18437   1.471   0.960  10.151 -0.4197 -0.4892  0.0441
38387SOL    HW118438   1.381   0.972  10.181  0.2420  0.4252  1.8461
38387SOL    HW218439   1.497   0.876  10.186 -0.6535 -0.8993 -0.7457
38388SOL     OW18440   8.981   5.730   8.306  0.0755  0.3386  1.0763
38388SOL    HW118441   9.066   5.750   8.267 -0.2484  0.1143  0.2474
38388SOL    HW218442   8.919   5.735   8.234 -0.6483  0.6474  1.7009
38389SOL     OW18443   4.734  11.000   0.594 -0.7835  0.2519  0.0740
38389SOL    HW118444   4.739  10.964   0.683 -1.4673  1.6477  0.6980
38389SOL    HW218445   4.756  11.092   0.604 -1.2225  0.5021 -1.1622
38390SOL     OW18446   1.258   6.643   0.949 -0.1767 -0.2322 -0.5205
38390SOL    HW118447   1.278   6.614   1.038  1.0660 -2.1887 -1.3836
38390SOL    HW218448   1.183   6.590   0.923 -0.3011  0.0658 -0.7705
38391SOL     OW18449   1.836   8.096   6.439  0.3441  0.0824  0.2705
38391SOL    HW118450   1.763   8.034   6.442  0.5289 -0.1413  0.1474
38391SOL    HW218451   1.819   8.157   6.511  0.8639 -0.8795  1.2240
38392SOL     OW18452   2.654   0.828   6.647 -0.1306 -0.5395 -0.0079
38392SOL    HW118453   2.584   0.814   6.712  0.8752 -0.9773  1.0191
38392SOL    HW218454   2.624   0.904   6.597  0.0796  1.3703  2.5030
38393SOL     OW18455   9.697   7.683   8.383  0.2984  0.5150 -0.6327
38393SOL    HW118456   9.755   7.609   8.400  0.4931  0.6901 -0.5167
38393SOL    HW218457   9.609   7.646   8.379  0.0637  0.5947  2.0157
38394SOL     OW18458   1.634   8.378   2.026  0.2260  0.6999 -0.0754
38394SOL    HW118459   1.669   8.442   2.088 -0.3854  0.3934  0.6141
38394SOL    HW218460   1.549   8.412   2.001 -0.3321 -0.0568  0.6943
38395SOL     OW18461   7.204   6.120  10.134  0.4261  0.4221  0.6867
38395SOL    HW118462   7.166   6.035  10.152 -0.0239  0.7649  1.3682
38395SOL    HW218463   7.186   6.135  10.041  0.3253 -0.1263  0.6174
38396SOL     OW18464   6.526  10.438   0.007  0.0790 -0.3505 -0.0939
38396SOL    HW118465   6.479  10.476   0.081  2.4704  1.2027  0.7183
38396SOL    HW218466   6.538  10.511  -0.054  1.2592 -0.7534 -0.3594
38397SOL     OW18467  10.403   8.443   9.042 -0.9766  0.2000  0.2629
38397SOL    HW118468  10.461   8.376   9.078 -2.8020 -2.1792 -0.9307
38397SOL    HW218469  10.461   8.516   9.020  1.3954 -1.6032  0.1450
38398SOL     OW18470   0.676   2.568   4.819 -0.1840  0.3651 -0.1277
38398SOL    HW118471   0.737   2.499   4.844 -1.6687 -1.1838 -0.5824
38398SOL    HW218472   0.678   2.629   4.893 -0.0593 -1.0399  1.0740
38399SOL     OW18473  10.432   7.008   2.985  0.5210  0.2621  0.2816
38399SOL    HW118474  10.498   6.989   2.918 -0.2965 -0.7670 -0.2605
38399SOL    HW218475  10.478   7.061   3.050  1.2176  1.7384 -1.3165
38400SOL     OW18476   4.188  11.073   2.984 -0.2366 -0.0313  0.0122
38400SOL    HW118477   4.236  11.137   2.931  0.1065 -1.4572 -1.4843
38400SOL    HW218478   4.252  11.005   3.003 -1.0203 -0.7368  0.1732
38401SOL     OW18479   9.901   2.463   4.964  0.0988 -0.5004 -0.2565
38401SOL    HW118480   9.919   2.487   4.873  0.3977 -0.5176 -0.2047
38401SOL    HW218481   9.949   2.381   4.977 -0.9309 -1.1408 -0.4355
38402SOL     OW18482   5.516   0.024   8.987  0.6235 -0.0158 -0.1075
38402SOL    HW118483   5.478  -0.034   9.054  1.6105  0.4486  0.8846
38402SOL    HW218484   5.542  -0.035   8.916 -1.8230 -0.3655 -0.8118
38403SOL     OW18485   5.790   1.744   8.024  0.4640 -0.1913 -0.5273
38403SOL    HW118486   5.826   1.829   8.050  1.9793 -1.2178  0.9129
38403SOL    HW218487   5.759   1.758   7.934  0.5293  1.9058 -0.2766
38404SOL     OW18488   1.394   1.961   8.144 -0.3128 -0.1559 -0.2212
38404SOL    HW118489   1.408   1.870   8.118 -0.0372  0.2167 -1.4470
38404SOL    HW218490   1.300   1.966   8.163 -0.4641 -0.5261 -0.8505
38405SOL     OW18491   7.650  11.010   4.198  0.1643  0.2934 -0.1778
38405SOL    HW118492   7.729  10.957   4.193 -0.4755 -0.5650 -2.5189
38405SOL    HW218493   7.627  11.010   4.291  0.5752 -3.0099  0.0487
38406SOL     OW18494   7.479   7.912   4.810  0.0356  0.4893 -0.3764
38406SOL    HW118495   7.431   7.865   4.741  1.3983 -0.5454 -0.6565
38406SOL    HW218496   7.462   7.861   4.889  0.7842  0.0139 -0.5104
38407SOL     OW18497   2.681   7.807   1.176 -0.0263 -0.0099 -0.4485
38407SOL    HW118498   2.755   7.810   1.114  0.0733 -1.4848 -0.4464
38407SOL    HW218499   2.692   7.723   1.221 -1.0950  0.2611  0.3351
38408SOL     OW18500   4.876   6.852   6.103 -0.0360  0.1970  0.1721
38408SOL    HW118501   4.919   6.894   6.178  1.1547 -3.0804  1.5104
38408SOL    HW218502   4.808   6.914   6.077 -0.9970  1.2604  4.4229
38409SOL     OW18503   2.662   3.316   2.238 -0.1678 -0.8097 -0.2901
38409SOL    HW118504   2.637   3.396   2.285 -0.7630 -1.1233 -0.0599
38409SOL    HW218505   2.738   3.342   2.186  0.3844 -0.3956  0.6889
38410SOL     OW18506   4.046   8.277   6.952  0.1168  0.2931  0.1705
38410SOL    HW118507   4.103   8.339   6.997 -1.0308  1.2763  0.2959
38410SOL    HW218508   3.977   8.256   7.016 -0.6760  0.5247 -0.5989
38411SOL     OW18509   3.488   9.850   8.337 -0.1585 -0.2205  0.9646
38411SOL    HW118510   3.508   9.878   8.426  0.9124 -0.9490  0.9756
38411SOL    HW218511   3.573   9.826   8.300 -0.5568  0.3010 -0.3378
38412SOL     OW18512   7.746   4.472   6.610 -0.0084  0.7130 -0.1611
38412SOL    HW118513   7.720   4.480   6.519 -2.2833  1.4294  0.4919
38412SOL    HW218514   7.760   4.563   6.639 -0.0690  0.5453  0.4020
38413SOL     OW18515   7.346   0.892  10.959 -0.6004 -0.1739 -0.5062
38413SOL    HW118516   7.403   0.884  10.883 -1.3508 -1.8889 -0.9266
38413SOL    HW218517   7.405   0.899  11.034  0.1362  0.1840 -1.1131
38414SOL     OW18518   5.262   3.069   6.934  0.3965 -0.4414 -0.4529
38414SOL    HW118519   5.275   3.063   6.839 -0.7321 -0.6555 -0.6182
38414SOL    HW218520   5.180   3.021   6.949  0.9392 -1.0414  0.7285
38415SOL     OW18521   1.787   2.998   1.346  0.3110 -0.4257  0.2448
38415SOL    HW118522   1.735   2.919   1.361 -2.5599  1.3319  0.3320
38415SOL    HW218523   1.794   3.039   1.433  0.4314  0.1710 -0.0387
38416SOL     OW18524   2.728   4.291   2.494 -0.1782 -0.5136 -0.2323
38416SOL    HW118525   2.662   4.227   2.520  0.2580 -1.1676 -0.7075
38416SOL    HW218526   2.810   4.242   2.492  0.1039 -0.0338 -0.9766
38417SOL     OW18527   1.562   3.966   8.669  0.3340  0.2995  0.0866
38417SOL    HW118528   1.555   4.002   8.581  1.4011 -3.5937 -1.8179
38417SOL    HW218529   1.600   4.036   8.721  1.8005  2.0524 -3.0762
38418SOL     OW18530   0.946   6.647   7.597  0.3480 -0.2080 -0.0099
38418SOL    HW118531   0.886   6.614   7.664 -0.6005 -1.9537 -1.6293
38418SOL    HW218532   0.893   6.707   7.545  0.9925  0.8959  0.5723
38419SOL     OW18533   5.458   4.566   9.600  0.1686 -0.1205 -0.0329
38419SOL    HW118534   5.552   4.551   9.595  0.2753  0.7397 -0.8431
38419SOL    HW218535   5.419   4.492   9.554  0.4382 -0.5622  0.4484
38420SOL     OW18536   9.953  10.763   5.007  0.3018  0.2890 -0.2556
38420SOL    HW118537   9.990  10.850   4.990  1.2023 -0.1279 -0.4948
38420SOL    HW218538   9.867  10.765   4.963  0.3048  1.0604 -0.2392
38421SOL     OW18539   0.004   1.312  10.381 -0.0251 -0.1712 -0.0498
38421SOL    HW118540   0.061   1.269  10.445 -0.9927 -1.9178 -0.2797
38421SOL    HW218541  -0.059   1.360  10.434 -1.5924 -2.6070  0.4722
38422SOL     OW18542   6.117   3.736   2.949  0.0099  0.2790  0.1505
38422SOL    HW118543   6.141   3.645   2.969 -0.0344  0.2812  0.2141
38422SOL    HW218544   6.024   3.742   2.971 -0.2773  0.0279 -0.9573
38423SOL     OW18545   7.344   8.851   6.997 -0.7354  0.2351  0.0174
38423SOL    HW118546   7.250   8.840   7.011 -0.4396  0.3089  2.3217
38423SOL    HW218547   7.383   8.770   7.031  0.1744  1.0297  0.8879
38424SOL     OW18548   8.094   0.259   8.197  0.2169  0.5160  0.1217
38424SOL    HW118549   8.041   0.194   8.152 -0.2423  2.4749 -2.3316
38424SOL    HW218550   8.183   0.224   8.192 -0.1978 -0.6242  0.2715
38425SOL     OW18551   6.618   7.531   6.120 -0.5687 -0.5000  0.5210
38425SOL    HW118552   6.687   7.466   6.110 -0.0136  0.1988 -0.4140
38425SOL    HW218553   6.637   7.574   6.204  1.0339  0.6653 -0.3852
38426SOL     OW18554   8.475   1.536   8.980  0.1022  0.8258  0.2310
38426SOL    HW118555   8.499   1.525   8.888  0.2744 -0.9410  0.4548
38426SOL    HW218556   8.527   1.611   9.010 -0.0101  1.4635 -1.1065
38427SOL     OW18557   0.736   9.397   2.151 -0.1931  0.3849 -0.3344
38427SOL    HW118558   0.671   9.419   2.084  0.0548  0.5571 -0.5224
38427SOL    HW218559   0.748   9.302   2.142 -0.5226  0.3319 -0.2041
38428SOL     OW18560   2.637   0.876   3.576 -0.0000  0.0072  0.0638
38428SOL    HW118561   2.636   0.932   3.653  1.9949  1.1981 -0.7136
38428SOL    HW218562   2.727   0.879   3.544 -0.7580 -0.3323 -2.3652
38429SOL     OW18563   0.508   1.330   1.846 -0.1113 -0.0686 -0.5310
38429SOL    HW118564   0.421   1.291   1.842 -0.8540  1.4153  0.3093
38429SOL    HW218565   0.526   1.339   1.940  0.3670  0.8439 -0.6955
38430SOL     OW18566   9.532   7.533   8.164  0.1016  0.1152  0.1899
38430SOL    HW118567   9.621   7.498   8.153  0.3873  0.3055  1.6708
38430SOL    HW218568   9.520   7.538   8.259  0.1343  4.1597  0.1480
38431SOL     OW18569   9.974   0.950   5.148  0.2383 -0.0010  0.5127
38431SOL    HW118570  10.067   0.960   5.170  0.5908 -2.2860  0.3088
38431SOL    HW218571   9.973   0.888   5.075 -1.4213  0.5586  0.0167
38432SOL     OW18572   3.875   2.496   1.855 -0.3312 -0.6962 -0.1960
38432SOL    HW118573   3.813   2.460   1.792 -0.9953 -1.2786  0.7577
38432SOL    HW218574   3.819   2.538   1.921  0.2634 -1.4543  0.8122
38433SOL     OW18575   0.651   2.399   6.429 -0.4708 -0.6377 -0.4847
38433SOL    HW118576   0.683   2.482   6.395 -2.0179 -0.4442 -1.5683
38433SOL    HW218577   0.697   2.389   6.513  0.6840  0.6731 -0.9144
38434SOL     OW18578   3.851  11.144   4.748  0.0066 -0.1094 -0.0406
38434SOL    HW118579   3.840  11.110   4.660  1.3675  3.1763 -1.6525
38434SOL    HW218580   3.946  11.153   4.758 -0.2183  2.2350  0.5574
38435SOL     OW18581   8.188   6.971  10.260 -0.2704 -0.3116  0.0894
38435SOL    HW118582   8.191   6.991  10.353 -1.6167 -0.9126  0.2870
38435SOL    HW218583   8.265   6.915  10.245 -0.0891 -0.2776  0.8508
38436SOL     OW18584   7.397   4.072   2.493  0.1336 -0.6243 -0.6094
38436SOL    HW118585   7.393   4.095   2.400 -1.6446 -2.3000 -0.9919
38436SOL    HW218586   7.451   4.141   2.532  1.4354 -0.2108 -2.9611
38437SOL     OW18587   5.270   3.606   6.679  0.1909  0.2325  0.0765
38437SOL    HW118588   5.220   3.676   6.637 -0.1823  0.1317  0.3493
38437SOL    HW218589   5.225   3.589   6.761  1.2941  0.8851  0.8448
38438SOL     OW18590   9.858   1.442   7.004 -0.1718  0.2398 -0.2324
38438SOL    HW118591   9.848   1.536   7.017 -1.1119  0.3304 -1.4810
38438SOL    HW218592   9.784   1.403   7.052 -0.3965  0.2042 -0.6087
38439SOL     OW18593   7.474  11.394   6.263  0.1025 -0.0118  0.3927
38439SOL    HW118594   7.404  11.460   6.266 -0.3868 -0.4952 -0.0438
38439SOL    HW218595   7.497  11.380   6.355 -0.8351 -0.3071  0.6017
38440SOL     OW18596   1.368  11.370   4.285 -0.1371 -0.0889  0.5284
38440SOL    HW118597   1.460  11.398   4.289  0.0645 -0.8819  3.4906
38440SOL    HW218598   1.369  11.280   4.315 -1.7203 -0.8315 -1.3893
38441SOL     OW18599   6.811   4.136   0.242 -0.2937 -0.0330 -0.1269
38441SOL    HW118600   6.741   4.117   0.304  0.2833  1.3668  1.0042
38441SOL    HW218601   6.785   4.219   0.201 -0.4112 -0.6768 -1.3966
38442SOL     OW18602   1.283  11.186  10.396  0.8130  0.0630  0.2146
38442SOL    HW118603   1.339  11.111  10.417  0.0214 -0.4540  0.4945
38442SOL    HW218604   1.211  11.150  10.346 -0.3346  0.3797  1.5581
38443SOL     OW18605   9.906   6.387   7.680 -0.1285 -0.7074 -0.1567
38443SOL    HW118606   9.838   6.322   7.699 -0.4906 -0.1850  0.3651
38443SOL    HW218607   9.876   6.466   7.725 -0.0906  0.0530 -1.4363
38444SOL     OW18608   7.747   8.982   5.009  0.5308  0.2003  0.0607
38444SOL    HW118609   7.729   9.058   5.064 -2.5268  0.8974 -1.6339
38444SOL    HW218610   7.703   8.909   5.053  0.4757  0.1740 -0.0357
38445SOL     OW18611   0.383  10.602   6.492  0.3450 -0.0237 -0.2871
38445SOL    HW118612   0.406  10.629   6.581  3.9444 -0.7645 -0.8527
38445SOL    HW218613   0.377  10.507   6.497  0.3895 -0.0541 -0.8064
38446SOL     OW18614   6.930   0.308   6.751  0.1584  0.0663 -0.1656
38446SOL    HW118615   6.854   0.314   6.693 -1.0583 -0.0014  1.3304
38446SOL    HW218616   6.954   0.216   6.751 -2.0134 -0.6148  1.9597
38447SOL     OW18617   8.954   4.413  11.103 -0.2346 -0.3393  0.3469
38447SOL    HW118618   8.936   4.469  11.027  0.9953 -0.4137 -0.0149
38447SOL    HW218619   9.048   4.397  11.100 -0.3704 -1.4118  1.1609
38448SOL     OW18620   3.407   4.960   1.667 -0.3399  0.3098  0.1472
38448SOL    HW118621   3.369   5.034   1.714  1.0532 -0.0336  1.9075
38448SOL    HW218622   3.501   4.977   1.665  0.2785 -2.2101  2.2521
38449SOL     OW18623  10.982   5.040   0.984  0.6126  0.2153 -0.1058
38449SOL    HW118624  10.899   5.074   0.950  0.2264 -0.5975  0.0029
38449SOL    HW218625  11.014   4.983   0.915  0.4382 -0.4752  0.3756
38450SOL     OW18626   9.222   7.754   8.990 -0.0883 -0.5396  0.1073
38450SOL    HW118627   9.155   7.736   8.924 -0.0679  1.0051 -0.3487
38450SOL    HW218628   9.283   7.681   8.982 -0.1288 -0.4188 -1.5296
38451SOL     OW18629   5.038   2.578   9.864 -0.2290 -0.1069 -0.0522
38451SOL    HW118630   4.948   2.588   9.897  0.1735  0.3988  0.9260
38451SOL    HW218631   5.036   2.618   9.777 -1.5527 -2.2940 -1.1203
38452SOL     OW18632   4.463   1.723   3.807 -0.2037 -0.4912  0.0246
38452SOL    HW118633   4.399   1.666   3.848 -0.7637 -0.3193 -0.5942
38452SOL    HW218634   4.489   1.677   3.727  1.2917 -1.0885  0.8120
38453SOL     OW18635   6.912   2.212  10.187  0.0079  0.3607 -0.1026
38453SOL    HW118636   7.001   2.238  10.164 -0.0639  0.3999 -0.3326
38453SOL    HW218637   6.923   2.139  10.248  0.2128  0.9717  0.6063
38454SOL     OW18638   3.101   0.559   5.017 -0.2116  0.1141 -0.3941
38454SOL    HW118639   3.105   0.473   4.975  3.2747  1.1784 -2.5862
38454SOL    HW218640   3.119   0.622   4.947 -1.1979  2.5812  1.4132
38455SOL     OW18641   1.197   8.876   6.944  0.1389 -0.5635 -0.3106
38455SOL    HW118642   1.188   8.918   6.859 -1.3226 -0.2549 -0.0255
38455SOL    HW218643   1.185   8.946   7.008  0.9922 -0.8319  0.1714
38456SOL     OW18644   4.327   2.945   6.148 -0.6597 -0.0177  0.3934
38456SOL    HW118645   4.365   3.003   6.214 -0.6602 -0.9255  1.2182
38456SOL    HW218646   4.236   2.936   6.174 -0.6582 -0.3875  0.2737
38457SOL     OW18647   3.257   8.150  11.005  0.5464  0.4151  0.0213
38457SOL    HW118648   3.223   8.210  10.938 -1.4261 -0.1169  0.4846
38457SOL    HW218649   3.347   8.132  10.977  0.2069  1.2236 -1.7683
38458SOL     OW18650   4.740   3.781  11.189  0.2111  0.7925 -0.0258
38458SOL    HW118651   4.709   3.870  11.174  1.6936  1.3641  0.1136
38458SOL    HW218652   4.785   3.785  11.274 -0.6115 -0.3425  0.4922
38459SOL     OW18653   4.450  10.577   2.093  0.7722 -0.3920  0.2402
38459SOL    HW118654   4.401  10.498   2.076 -1.1908  0.4265  1.6866
38459SOL    HW218655   4.429  10.636   2.020  0.4668 -0.4331  0.2949
38460SOL     OW18656   4.558  10.062   6.417  0.0624 -0.2038  0.0287
38460SOL    HW118657   4.645  10.101   6.416 -0.5318  1.2269  0.9209
38460SOL    HW218658   4.504  10.124   6.466 -1.9080 -0.0717 -2.0939
38461SOL     OW18659   5.459   1.933   7.884 -0.0714 -0.0180 -0.5477
38461SOL    HW118660   5.536   1.903   7.836 -1.0006 -0.8485 -1.5892
38461SOL    HW218661   5.421   1.854   7.922  0.6632  0.6209  1.6921
38462SOL     OW18662   6.106  10.072   3.202  0.6162 -0.6731 -0.0735
38462SOL    HW118663   6.016  10.070   3.169  0.3850 -1.6233  0.5565
38462SOL    HW218664   6.106  10.143   3.266  0.0699 -1.2033  0.5370
38463SOL     OW18665   6.715   4.012   6.936  0.4993 -0.1578  0.6895
38463SOL    HW118666   6.629   3.999   6.976  0.5441 -1.7949  0.3076
38463SOL    HW218667   6.696   4.035   6.845  0.4485 -1.0677  0.4581
38464SOL     OW18668   4.622   4.739   8.855 -0.6903  0.5037 -0.5924
38464SOL    HW118669   4.540   4.783   8.880 -0.1225  2.2603 -1.6303
38464SOL    HW218670   4.630   4.666   8.916 -2.2299  1.2334  0.5424
38465SOL     OW18671  10.656   3.524   5.598 -0.2974  0.4052  0.6649
38465SOL    HW118672  10.643   3.516   5.693  1.0226 -3.9453  0.7100
38465SOL    HW218673  10.619   3.443   5.562  1.0573  0.9669 -2.3205
38466SOL     OW18674  11.355   4.592   6.981  0.5017 -0.2236 -0.5933
38466SOL    HW118675  11.286   4.624   7.039  0.8791  0.1745 -0.3596
38466SOL    HW218676  11.415   4.667   6.972  1.0830 -0.6767 -0.5199
38467SOL     OW18677   3.420   4.173   8.484 -0.1659  0.1835  0.5192
38467SOL    HW118678   3.369   4.094   8.468 -1.6002  1.0506  0.6066
38467SOL    HW218679   3.356   4.245   8.475  1.3018  1.4245 -0.7065
38468SOL     OW18680   3.799   9.578   1.561  0.2527  0.3093 -0.2428
38468SOL    HW118681   3.782   9.650   1.500 -1.6344  1.0457  1.0662
38468SOL    HW218682   3.752   9.504   1.523 -0.5089  0.6394  0.0226
38469SOL     OW18683   0.184   0.098   4.595  0.2833  0.1928  0.6311
38469SOL    HW118684   0.159   0.190   4.590 -2.5068 -0.3007  3.1505
38469SOL    HW218685   0.279   0.100   4.601  0.5712  2.6731 -2.2440
38470SOL     OW18686   7.422   5.216   5.696 -0.6937 -0.5849 -0.7613
38470SOL    HW118687   7.336   5.188   5.726 -1.0615 -1.2442 -2.2892
38470SOL    HW218688   7.422   5.311   5.708 -0.3825 -0.8765  2.1810
38471SOL     OW18689   0.189   1.407   9.945  0.3354  0.3766 -0.0240
38471SOL    HW118690   0.224   1.485   9.901 -2.1446  1.3444 -0.4074
38471SOL    HW218691   0.143   1.359   9.876  0.3149 -0.5144  0.5888
38472SOL     OW18692   4.283   9.520   8.440 -0.3762 -0.1281 -0.4500
38472SOL    HW118693   4.349   9.483   8.382 -0.5875 -1.7032  0.2808
38472SOL    HW218694   4.269   9.608   8.406 -0.6963 -1.0782 -3.0044
38473SOL     OW18695  10.180   2.610   6.148  0.6076 -0.4813  0.1483
38473SOL    HW118696  10.156   2.690   6.102  2.0390 -0.1944 -0.1249
38473SOL    HW218697  10.101   2.586   6.198 -1.1197 -0.9412 -2.6000
38474SOL     OW18698   7.567   2.457  10.643  0.4771  0.0112  0.6782
38474SOL    HW118699   7.560   2.467  10.548 -0.6288  0.4524  0.7937
38474SOL    HW218700   7.591   2.544  10.675 -2.1211  0.6729  1.0448
38475SOL     OW18701   7.436   3.446   1.371 -0.6348  0.4603 -0.8933
38475SOL    HW118702   7.357   3.476   1.326 -0.9943 -0.7388 -1.0860
38475SOL    HW218703   7.479   3.388   1.308 -1.8135 -2.3097  0.7220
38476SOL     OW18704   1.024   2.593   6.365 -0.2293 -0.1377  0.4466
38476SOL    HW118705   0.928   2.587   6.356 -0.1710 -0.6578  0.1312
38476SOL    HW218706   1.038   2.601   6.459 -0.4770 -2.5805  0.7472
38477SOL     OW18707   7.626  10.128   5.335 -0.2600  0.5928 -0.1018
38477SOL    HW118708   7.672  10.126   5.419 -0.2001  1.6280 -0.0966
38477SOL    HW218709   7.583  10.214   5.333 -2.4391 -0.4335  0.0238
38478SOL     OW18710  11.027   3.372   2.543 -0.0704 -0.0790  0.3018
38478SOL    HW118711  10.953   3.325   2.582 -0.5340  0.9278  0.6600
38478SOL    HW218712  10.995   3.461   2.530  1.2621  0.5426  1.0468
38479SOL     OW18713   3.259   4.573   9.412  0.0265  0.1505  0.0010
38479SOL    HW118714   3.253   4.630   9.489 -1.2768 -0.1185  0.1177
38479SOL    HW218715   3.195   4.504   9.429  1.4314 -1.2572 -0.2271
38480SOL     OW18716   0.914   7.498   1.460  0.1184 -0.1774  0.5888
38480SOL    HW118717   0.900   7.421   1.404 -0.0380  0.8298 -0.8309
38480SOL    HW218718   0.861   7.567   1.419  1.4782  1.0962  0.8992
38481SOL     OW18719   1.744   6.673   4.516 -0.0666 -0.2677  0.3418
38481SOL    HW118720   1.820   6.701   4.566  0.2568 -1.1088  0.3266
38481SOL    HW218721   1.696   6.615   4.575 -0.7090  0.2649  0.3563
38482SOL     OW18722   8.360   1.412  10.194 -0.8079  0.0606  0.4972
38482SOL    HW118723   8.323   1.368  10.118  0.2688 -1.8352  0.9993
38482SOL    HW218724   8.352   1.348  10.265  1.3772  0.3884  1.1083
38483SOL     OW18725   6.063   4.959   5.349  0.1732 -0.5768 -0.1237
38483SOL    HW118726   5.987   4.990   5.399  0.3301 -0.4830  0.0577
38483SOL    HW218727   6.066   5.016   5.272  1.1326  0.6267  0.7671
38484SOL     OW18728   9.087  10.059   4.125 -0.8805  0.5727 -0.6707
38484SOL    HW118729   9.100  10.072   4.219 -0.4020 -2.8425 -0.1304
38484SOL    HW218730   9.011  10.113   4.104 -1.9906  0.2297  2.0488
38485SOL     OW18731   1.024  10.028   2.871  0.7832  0.1836  0.3755
38485SOL    HW118732   0.976  10.105   2.899 -0.9804 -0.4181 -0.7695
38485SOL    HW218733   1.076  10.058   2.796  2.1012  0.7994  1.5054
38486SOL     OW18734   6.403   7.643   2.215  0.1985  0.0672 -0.0438
38486SOL    HW118735   6.337   7.579   2.189  0.4343  0.3572 -1.4657
38486SOL    HW218736   6.389   7.717   2.156  0.1504  1.2086  1.3345
38487SOL     OW18737  10.326   6.407  10.037 -0.5135 -0.2846  0.0620
38487SOL    HW118738  10.264   6.352   9.990 -0.6292 -0.3450  0.2843
38487SOL    HW218739  10.393   6.346  10.068  1.4587  0.1517 -2.9675
38488SOL     OW18740   7.398   7.756   0.417  0.8117  0.7642 -0.7566
38488SOL    HW118741   7.429   7.737   0.328 -0.8464  1.3248 -1.4831
38488SOL    HW218742   7.356   7.842   0.411 -1.1775 -0.0790  0.0481
38489SOL     OW18743   1.919   0.884   6.225  0.1900 -0.2435 -0.0834
38489SOL    HW118744   1.922   0.831   6.145 -1.6655 -0.3480 -0.1112
38489SOL    HW218745   1.931   0.821   6.296  2.5147 -0.0718 -0.2313
38490SOL     OW18746  10.848   2.332  10.302  0.2085  0.6311 -0.0769
38490SOL    HW118747  10.766   2.299  10.340 -0.0291 -1.9791 -2.5517
38490SOL    HW218748  10.821   2.407  10.249 -0.7015 -0.3776 -1.0983
38491SOL     OW18749   3.003   3.198   6.545 -0.6366 -0.0379  0.1911
38491SOL    HW118750   3.065   3.271   6.539 -0.7416  0.0508  0.1744
38491SOL    HW218751   2.991   3.186   6.639 -0.1307 -0.4537  0.2056
38492SOL     OW18752   4.900   5.770   2.219  0.5713  0.9185  0.2879
38492SOL    HW118753   4.867   5.791   2.132 -1.0830  1.9381  1.0945
38492SOL    HW218754   4.948   5.688   2.208  1.2445  1.5317 -1.7326
38493SOL     OW18755   5.791   6.783   6.190  0.6229  0.6709 -0.2523
38493SOL    HW118756   5.713   6.728   6.178  0.1859  1.2195  0.0294
38493SOL    HW218757   5.792   6.804   6.283  0.0444  2.1942 -0.5583
38494SOL     OW18758   7.953  10.599   3.604 -0.2683  0.3949 -0.7736
38494SOL    HW118759   7.956  10.607   3.508 -0.6306 -0.5682 -0.8803
38494SOL    HW218760   8.041  10.623   3.632 -0.5876  2.1949 -1.2052
38495SOL     OW18761   3.279   1.655   4.816  0.5557  0.0311  0.1943
38495SOL    HW118762   3.307   1.564   4.805  0.5313  0.0472  0.0017
38495SOL    HW218763   3.188   1.655   4.787  0.8979  0.3598 -0.9102
38496SOL     OW18764   4.957   2.301  10.719 -0.4992  0.1841 -0.6710
38496SOL    HW118765   4.867   2.330  10.704 -0.6014 -0.5261 -1.4721
38496SOL    HW218766   4.993   2.288  10.631  1.0681  2.4788 -0.4551
38497SOL     OW18767   0.005   1.336   7.087  0.1976 -0.3917 -0.0065
38497SOL    HW118768  -0.022   1.419   7.126  0.5483  0.2008 -0.9924
38497SOL    HW218769   0.065   1.298   7.151  1.7685  1.1599 -0.4699
38498SOL     OW18770   1.003   5.011   9.661  0.1817  0.9377 -0.8371
38498SOL    HW118771   1.047   5.066   9.596  2.5220  0.0454 -0.1211
38498SOL    HW218772   1.031   5.047   9.745  1.7034 -1.1587 -0.3512
38499SOL     OW18773   9.842  10.850   0.927 -0.0710  0.2414  0.3789
38499SOL    HW118774   9.808  10.838   0.839  0.6200 -3.0181  0.4589
38499SOL    HW218775   9.928  10.807   0.927 -0.3730 -0.5542  2.7974
38500SOL     OW18776   7.960   2.095   5.131 -0.4296  0.0578 -0.0542
38500SOL    HW118777   8.037   2.120   5.181  1.4457  2.8045 -3.7814
38500SOL    HW218778   7.974   2.002   5.109  1.8948  0.4626 -0.5787
38501SOL     OW18779   2.637   6.744   1.023  0.6669  0.3861 -0.0824
38501SOL    HW118780   2.566   6.791   1.066  1.1810 -0.0228  1.2880
38501SOL    HW218781   2.710   6.806   1.024  0.5670  0.5168 -0.7484
38502SOL     OW18782   5.668   4.506   7.817  0.1099  0.0763 -0.2953
38502SOL    HW118783   5.731   4.475   7.882 -0.1469 -1.2648 -0.6625
38502SOL    HW218784   5.609   4.564   7.867  0.8793  0.3671  0.3038
38503SOL     OW18785  10.423   8.849   7.356  0.3464 -0.5441  0.7674
38503SOL    HW118786  10.481   8.923   7.339  0.3921 -1.0098 -1.3109
38503SOL    HW218787  10.393   8.863   7.446  1.5811  1.1300  0.9724
38504SOL     OW18788   1.925   1.156   1.832 -0.0420 -0.1974  0.2136
38504SOL    HW118789   1.986   1.216   1.788  2.2613 -1.1281  1.9177
38504SOL    HW218790   1.974   1.075   1.842 -2.3911 -1.7717 -0.2421
38505SOL     OW18791   7.123  10.814   8.976 -0.1541 -0.0696  0.7405
38505SOL    HW118792   7.206  10.787   9.014 -0.5294  0.1709  1.7800
38505SOL    HW218793   7.074  10.851   9.050 -0.8589  0.5576 -0.0164
38506SOL     OW18794   1.378  10.698   8.405  0.2614 -0.6711  0.0603
38506SOL    HW118795   1.317  10.625   8.397 -1.0399  0.4174 -0.4654
38506SOL    HW218796   1.322  10.773   8.429  0.9308  0.9164 -2.8073
38507SOL     OW18797   9.720   7.312   2.093 -0.3869  0.0489  0.0043
38507SOL    HW118798   9.630   7.345   2.093 -0.4661 -0.1065  1.2013
38507SOL    HW218799   9.760   7.349   2.014 -1.4724  0.1862 -0.4953
38508SOL     OW18800   0.683   5.813   0.131 -0.1771 -0.0396  0.0397
38508SOL    HW118801   0.767   5.838   0.092 -0.2718 -0.7360 -0.6554
38508SOL    HW218802   0.646   5.894   0.165  0.5056  0.3724 -0.1840
38509SOL     OW18803   7.139   4.421   4.839  0.5412  0.5187  0.7903
38509SOL    HW118804   7.177   4.424   4.751  0.1773  1.7849  0.6480
38509SOL    HW218805   7.213   4.404   4.897  1.0023  0.9398  0.3328
38510SOL     OW18806   0.490   6.959   5.013 -0.1881  0.2189 -0.3982
38510SOL    HW118807   0.448   6.923   5.091 -1.1138 -0.6498 -1.2675
38510SOL    HW218808   0.580   6.976   5.040 -0.3001 -0.7260  0.6511
38511SOL     OW18809   4.500   7.848   9.675 -0.5483 -0.0278 -0.1927
38511SOL    HW118810   4.531   7.911   9.611 -0.1791 -0.2438 -0.2313
38511SOL    HW218811   4.575   7.790   9.690 -0.8133 -0.3266  0.0012
38512SOL     OW18812  10.188   2.641   3.681  0.0764  0.5866 -0.6410
38512SOL    HW118813  10.135   2.632   3.761  0.0942 -0.1123 -0.7002
38512SOL    HW218814  10.135   2.597   3.613 -0.4353  2.0905 -1.2526
38513SOL     OW18815   9.895  10.321   2.555 -0.4684  0.1852 -0.4414
38513SOL    HW118816   9.973  10.294   2.602 -1.6741  0.1153  1.6513
38513SOL    HW218817   9.877  10.250   2.494 -0.6197 -1.3171  1.2709
38514SOL     OW18818   4.541   7.744   2.732 -0.0511 -0.3154  0.1983
38514SOL    HW118819   4.504   7.812   2.788  0.1084 -0.2486  0.2232
38514SOL    HW218820   4.609   7.702   2.787 -0.2691 -0.6111  0.2456
38515SOL     OW18821   5.623  10.520   6.876  0.1905  0.1260  0.7625
38515SOL    HW118822   5.694  10.518   6.812  0.5466  0.2733  1.1546
38515SOL    HW218823   5.666  10.514   6.961 -0.2587  0.3230  1.0082
38516SOL     OW18824   2.566   1.082   1.726  0.0169  0.1795  0.0484
38516SOL    HW118825   2.580   1.177   1.728  0.6215  0.1077 -0.4227
38516SOL    HW218826   2.640   1.047   1.776  0.1026 -0.0781 -0.2637
38517SOL     OW18827  11.270   0.321   9.493  0.4596 -0.0756 -0.0331
38517SOL    HW118828  11.215   0.384   9.540 -1.1822 -1.8023  0.4634
38517SOL    HW218829  11.291   0.365   9.411 -1.1815  0.8916  0.0127
38518SOL     OW18830  10.184   7.116   0.460 -0.4894  0.1479  0.1035
38518SOL    HW118831  10.220   7.036   0.423 -1.1586  0.0170 -0.2980
38518SOL    HW218832  10.230   7.128   0.543  1.2378  0.5782 -0.8646
38519SOL     OW18833   0.255  11.272   9.047  0.3325 -0.4296 -0.0250
38519SOL    HW118834   0.309  11.306   9.117  0.1236 -0.9289  0.3866
38519SOL    HW218835   0.206  11.348   9.015 -2.7428 -0.7586  3.1712
38520SOL     OW18836   1.238   8.869   9.948  0.2138  0.1295 -0.0449
38520SOL    HW118837   1.214   8.961   9.935  0.6132 -0.1163 -3.4016
38520SOL    HW218838   1.333   8.870   9.957  0.1366  0.0784  0.9249
38521SOL     OW18839   7.949   9.185   2.633 -0.4412  0.1856  0.6301
38521SOL    HW118840   8.037   9.222   2.640  0.3468 -1.4423 -0.3075
38521SOL    HW218841   7.950   9.108   2.690 -0.0040 -2.0027 -2.1290
38522SOL     OW18842   0.871   7.761   7.663  0.1364 -0.1577 -0.0782
38522SOL    HW118843   0.957   7.742   7.699  0.3326  0.9686  0.0796
38522SOL    HW218844   0.884   7.757   7.568  0.1947 -0.6798 -0.0503
38523SOL     OW18845   9.060   6.873   9.212  0.6314  0.0097  0.4123
38523SOL    HW118846   9.146   6.893   9.177  0.4664  3.3453  1.5769
38523SOL    HW218847   9.009   6.842   9.137  1.9458  1.0893 -0.9581
38524SOL     OW18848  10.068   8.187   5.791  0.3133  0.2670  0.1470
38524SOL    HW118849  10.050   8.186   5.885  0.3378 -0.8675  0.1565
38524SOL    HW218850  10.085   8.095   5.769  2.0495  0.7347 -0.6389
38525SOL     OW18851   3.969   2.932   8.700 -0.1437  0.1142 -0.1444
38525SOL    HW118852   3.970   3.000   8.633 -1.3812  0.9298  0.6129
38525SOL    HW218853   3.876   2.911   8.712 -0.1497  1.1486  2.3799
38526SOL     OW18854   0.151   7.973  11.329  0.5066  0.1382  0.3447
38526SOL    HW118855   0.159   8.043  11.265  1.2167  1.0142  1.3480
38526SOL    HW218856   0.102   7.904  11.284  1.3773  0.5314 -1.2698
38527SOL     OW18857   7.219   7.207   2.825 -0.3139  0.3876 -0.4923
38527SOL    HW118858   7.300   7.172   2.862 -0.3754 -0.5512 -1.2165
38527SOL    HW218859   7.159   7.211   2.900  0.0815  0.1183 -0.1567
38528SOL     OW18860   0.029   9.829   8.589  0.3450  0.0413 -0.3352
38528SOL    HW118861   0.105   9.820   8.532  1.6321 -0.5296  1.4046
38528SOL    HW218862   0.053   9.783   8.669 -1.4775  0.6452  0.6133
38529SOL     OW18863   2.970   1.047   4.352  0.5480  0.0874  0.1631
38529SOL    HW118864   2.908   1.034   4.280  0.4078  2.7246 -0.2835
38529SOL    HW218865   3.014   1.129   4.331  1.8639 -0.0486  2.1576
38530SOL     OW18866   6.803   7.279   9.799 -0.4419 -0.2631  0.0598
38530SOL    HW118867   6.762   7.193   9.805  1.0373 -1.3638 -3.2568
38530SOL    HW218868   6.897   7.260   9.789 -0.1260  1.6718 -1.1965
38531SOL     OW18869   5.034   7.733   8.256 -0.1962  0.3961 -0.4309
38531SOL    HW118870   5.049   7.641   8.276 -3.4866 -0.5258 -1.5421
38531SOL    HW218871   4.997   7.733   8.168  2.3371  3.1426 -1.6657
38532SOL     OW18872   4.318   5.871   0.540 -0.0937 -0.0411  0.3553
38532SOL    HW118873   4.315   5.854   0.446 -3.4779 -0.9086  0.4747
38532SOL    HW218874   4.243   5.928   0.557  1.2654  1.2998  2.3815
38533SOL     OW18875   1.829   2.653   2.651  0.0507  0.2201  0.2824
38533SOL    HW118876   1.740   2.690   2.656 -0.4094 -0.6350 -1.2592
38533SOL    HW218877   1.881   2.722   2.609 -0.4233 -0.1653 -0.9815
38534SOL     OW18878   6.540   5.586  11.146  0.1257 -0.7935  0.3809
38534SOL    HW118879   6.608   5.609  11.210  0.0279  0.5634  0.0344
38534SOL    HW218880   6.458   5.589  11.196 -0.1904  2.2108 -0.1326
38535SOL     OW18881   0.133  10.080   7.759  0.0733 -0.2713  0.1189
38535SOL    HW118882   0.042  10.112   7.767 -0.4087 -1.8315  1.3476
38535SOL    HW218883   0.180  10.154   7.721 -1.6547  0.6864 -0.3034
38536SOL     OW18884  10.709   1.541   9.380  0.9539  0.3261 -0.5528
38536SOL    HW118885  10.724   1.459   9.426 -1.4049 -1.3591 -2.5300
38536SOL    HW218886  10.646   1.588   9.435 -1.1850 -1.2854 -1.4973
38537SOL     OW18887  10.645   0.479   6.558 -0.7799  0.7910  0.2643
38537SOL    HW118888  10.715   0.420   6.583 -1.2039  0.6977  1.3139
38537SOL    HW218889  10.582   0.473   6.630 -2.7277 -0.4799 -1.4249
38538SOL     OW18890   4.885   5.207   5.500  0.2027  0.5938 -0.6092
38538SOL    HW118891   4.932   5.141   5.449 -0.3896 -1.0875  0.9026
38538SOL    HW218892   4.820   5.243   5.440  1.1488  0.4789 -1.7261
38539SOL     OW18893   1.980   0.514   3.107  0.4516 -0.0819 -0.1024
38539SOL    HW118894   1.983   0.419   3.093 -0.1568 -0.0291 -0.6570
38539SOL    HW218895   1.901   0.542   3.060  1.1552  0.8390 -0.7649
38540SOL     OW18896   7.823   3.722   5.217  0.4268 -0.2148 -0.0849
38540SOL    HW118897   7.857   3.808   5.240 -0.4661  0.6503 -1.8417
38540SOL    HW218898   7.745   3.711   5.272  0.4872  0.1308  0.0708
38541SOL     OW18899   5.150   7.759   2.959 -0.2163  0.1557 -0.2486
38541SOL    HW118900   5.203   7.679   2.957 -1.4231 -0.6722 -0.9260
38541SOL    HW218901   5.194   7.816   3.022  0.3272 -1.3090  0.7510
38542SOL     OW18902   1.669   9.854   8.285  0.1054 -0.2152  0.6761
38542SOL    HW118903   1.722   9.923   8.324 -0.3051  0.4189  0.1231
38542SOL    HW218904   1.579   9.877   8.307 -0.2675  0.8903 -1.6927
38543SOL     OW18905   1.203  10.783   1.212 -0.0026  0.4788 -0.4180
38543SOL    HW118906   1.156  10.837   1.148 -1.2314 -1.0688 -0.8791
38543SOL    HW218907   1.164  10.696   1.203  2.1241 -0.5789  0.0841
38544SOL     OW18908   6.095   3.700   3.379 -0.1219 -0.3772  0.0126
38544SOL    HW118909   6.079   3.693   3.473 -0.0987 -0.3410  0.0191
38544SOL    HW218910   6.187   3.675   3.368  0.0760  0.3053  0.0844
38545SOL     OW18911   4.466   9.867   7.944 -0.1993 -0.4410 -0.1288
38545SOL    HW118912   4.528   9.804   7.908  0.7821 -0.6413  1.7643
38545SOL    HW218913   4.521   9.936   7.983 -1.1735 -0.0858  0.6728
38546SOL     OW18914  10.390   2.666   5.536  0.1044  0.3254  0.3056
38546SOL    HW118915  10.419   2.643   5.625  1.5285 -1.0123 -0.4426
38546SOL    HW218916  10.352   2.585   5.502  0.9623  0.3559 -0.8034
38547SOL     OW18917   0.819   9.594   8.540  0.3478  0.3816  0.5840
38547SOL    HW118918   0.777   9.609   8.456 -0.0565  1.1377  0.9049
38547SOL    HW218919   0.817   9.499   8.552 -0.9796  0.3688  0.4320
38548SOL     OW18920   6.135   9.296   1.744  0.1359  0.0386 -0.3207
38548SOL    HW118921   6.155   9.384   1.711  2.0959 -0.2468 -0.0365
38548SOL    HW218922   6.122   9.243   1.666  0.5319  0.2552 -0.5363
38549SOL     OW18923   7.715  10.267   8.394 -0.2278 -0.2996 -0.1492
38549SOL    HW118924   7.793  10.217   8.418 -0.5389 -0.8729 -0.2986
38549SOL    HW218925   7.708  10.335   8.460 -0.2562 -0.9657  0.5462
38550SOL     OW18926   0.069   4.226   1.973 -0.1895 -0.3245 -0.3604
38550SOL    HW118927  -0.007   4.171   1.955  0.3423 -1.3388  0.4655
38550SOL    HW218928   0.139   4.189   1.919 -0.0908  0.1805 -0.5856
38551SOL     OW18929   6.898   2.384   4.970 -0.4783 -0.5835 -0.0010
38551SOL    HW118930   6.931   2.301   5.003 -0.0551 -0.2872  0.3287
38551SOL    HW218931   6.976   2.437   4.954 -0.7590 -0.0548  0.3230
38552SOL     OW18932   4.868  11.046  10.899 -0.1321 -0.7508 -0.1825
38552SOL    HW118933   4.898  11.107  10.831  1.5939  0.9140  1.9249
38552SOL    HW218934   4.791  11.088  10.937 -0.6207 -1.2976 -0.5433
38553SOL     OW18935   3.058   1.390   5.083 -0.1645  0.3769 -0.5907
38553SOL    HW118936   3.130   1.327   5.094  0.4827  1.0978 -0.5951
38553SOL    HW218937   3.052   1.402   4.989  0.3645  1.0361 -0.5516
38554SOL     OW18938   2.292   9.677   9.120  0.8652  0.1159  0.0665
38554SOL    HW118939   2.313   9.609   9.057  2.7558  1.8160 -1.2261
38554SOL    HW218940   2.224   9.729   9.077 -1.3632 -1.4288  1.4795
38555SOL     OW18941   7.372   0.559   0.054 -0.3722 -0.1960  0.4014
38555SOL    HW118942   7.331   0.499  -0.009 -0.8574 -0.0787  0.5977
38555SOL    HW218943   7.318   0.638   0.049 -0.7893 -0.4029  1.4031
38556SOL     OW18944   7.543   5.849   6.023 -0.3659  0.5355  0.5489
38556SOL    HW118945   7.469   5.801   5.986  0.8912 -1.1877  0.0661
38556SOL    HW218946   7.555   5.811   6.110  0.7415 -0.2352  0.1006
38557SOL     OW18947   0.933   0.332  10.018  0.4608  0.5166 -0.0523
38557SOL    HW118948   0.931   0.254   9.962  0.8166  0.0687  0.5599
38557SOL    HW218949   0.922   0.299  10.107 -1.6975  1.3547  0.0608
38558SOL     OW18950   4.920  10.954   1.232 -0.0969 -0.2938  0.2060
38558SOL    HW118951   4.996  10.942   1.175  0.6909  1.6023  0.7879
38558SOL    HW218952   4.873  11.028   1.194  0.9906  1.6998  2.4600
38559SOL     OW18953   3.837   3.931   9.030 -0.2261 -0.3196  0.2255
38559SOL    HW118954   3.807   4.018   9.003 -1.2118 -1.0830 -1.2009
38559SOL    HW218955   3.758   3.878   9.033  0.1465 -0.8608  2.5196
38560SOL     OW18956   8.705   7.263   5.824  0.1557  0.3096  0.4430
38560SOL    HW118957   8.751   7.311   5.755  0.9268 -2.9332 -1.5259
38560SOL    HW218958   8.616   7.251   5.789 -0.7227  2.1122  1.9227
38561SOL     OW18959   6.751   5.706   8.499 -0.0239  0.0473  0.3049
38561SOL    HW118960   6.732   5.624   8.454  2.5966  1.4377 -3.8692
38561SOL    HW218961   6.838   5.693   8.537  0.7881  1.0384 -1.1160
38562SOL     OW18962   7.576  11.082   2.578 -0.0526 -0.4284  0.5673
38562SOL    HW118963   7.657  11.035   2.555  1.2449  1.4899  0.9465
38562SOL    HW218964   7.525  11.082   2.497  1.3987  0.3189 -0.4000
38563SOL     OW18965   7.292   8.370   0.939  0.1198  0.4083 -0.1783
38563SOL    HW118966   7.199   8.354   0.955 -0.3252  0.8523 -2.0806
38563SOL    HW218967   7.296   8.403   0.849  2.2594 -0.9885 -0.6790
38564SOL     OW18968  10.557  10.686   8.653  0.3030  0.1552 -0.3887
38564SOL    HW118969  10.507  10.610   8.622  2.1165 -0.1583 -2.9081
38564SOL    HW218970  10.503  10.761   8.629 -0.0937 -0.2561 -0.8078
38565SOL     OW18971   7.939   2.582  11.201 -0.4025 -0.5044 -0.5298
38565SOL    HW118972   7.993   2.599  11.124 -0.4688 -0.3312 -0.5381
38565SOL    HW218973   7.931   2.486  11.203  2.5356 -0.8346  1.2958
38566SOL     OW18974   8.910   1.892   5.945 -0.1298 -0.8319  0.2605
38566SOL    HW118975   8.996   1.885   5.903 -0.1103 -0.1701  0.1768
38566SOL    HW218976   8.865   1.810   5.923 -0.5643 -0.0542 -2.0441
38567SOL     OW18977   0.699   1.091   7.307  0.0697  0.0383 -0.2544
38567SOL    HW118978   0.690   1.024   7.239 -0.1691 -0.1384 -0.0506
38567SOL    HW218979   0.706   1.041   7.389 -1.1158  0.2863  0.0061
38568SOL     OW18980   1.789   5.357   9.116  0.1425  0.3420  0.6455
38568SOL    HW118981   1.750   5.439   9.084 -1.8504 -0.3401  1.1608
38568SOL    HW218982   1.716   5.311   9.158  1.1783 -1.7760  0.2365
38569SOL     OW18983   6.105   4.569   7.360  0.1763 -0.1239 -0.0231
38569SOL    HW118984   6.020   4.524   7.365 -0.1033  0.4822  1.0035
38569SOL    HW218985   6.097   4.642   7.421  2.5389 -1.8905  2.6845
38570SOL     OW18986   4.763   7.946   6.661 -0.2003  0.0035 -0.2485
38570SOL    HW118987   4.764   7.856   6.691 -2.2610  0.7565  2.5307
38570SOL    HW218988   4.811   7.995   6.729 -2.0566  1.3659  0.1760
38571SOL     OW18989   6.028   5.228   7.334 -0.0868  0.3533 -0.0675
38571SOL    HW118990   6.020   5.277   7.416  1.6208 -1.2362  1.1335
38571SOL    HW218991   5.950   5.172   7.332 -0.5371  0.9745  0.0613
38572SOL     OW18992   4.898   6.480   8.505 -0.0690  0.5050 -0.0074
38572SOL    HW118993   4.979   6.430   8.498 -1.0796 -1.6742  2.1798
38572SOL    HW218994   4.917   6.547   8.571  0.1506  0.4363  0.0004
38573SOL     OW18995   9.266   3.074   5.536 -0.0786 -0.3177  0.0100
38573SOL    HW118996   9.311   3.121   5.465  0.4354 -0.6053  0.1405
38573SOL    HW218997   9.272   3.133   5.611 -0.5057 -0.0700 -0.1481
38574SOL     OW18998   9.673   4.571   1.596  0.4045 -0.1326  0.0517
38574SOL    HW118999   9.620   4.520   1.657 -0.4733 -0.0266 -0.5939
38574SOL    HW219000   9.749   4.599   1.646 -0.6753  0.6209  1.3414
38575SOL     OW19001   0.234   8.787   0.358 -0.8848  0.4899  0.4023
38575SOL    HW119002   0.153   8.757   0.316  0.0101 -0.0110 -1.0897
38575SOL    HW219003   0.278   8.706   0.384  0.4112  0.5562 -1.3984
38576SOL     OW19004   3.717   4.144  10.930 -0.5392  0.1208  0.0603
38576SOL    HW119005   3.766   4.100  10.999 -0.7288 -0.0220  0.1015
38576SOL    HW219006   3.728   4.088  10.853 -0.4025  0.2346 -0.0050
38577SOL     OW19007   2.916   4.930  10.827 -0.1096 -0.3585 -0.2530
38577SOL    HW119008   2.909   4.912  10.733  0.6646 -0.1727 -0.3525
38577SOL    HW219009   3.008   4.917  10.847  0.1665  1.7342  0.0240
38578SOL     OW19010   8.828   1.280   5.971  0.1560  0.0929  0.1382
38578SOL    HW119011   8.831   1.203   5.914  0.2198 -0.0521  0.3379
38578SOL    HW219012   8.859   1.352   5.915  2.0325 -0.3711  0.4932
38579SOL     OW19013   2.370   6.593   9.368  0.2161  0.4899 -0.1192
38579SOL    HW119014   2.444   6.638   9.329 -0.2655 -0.9901 -3.1018
38579SOL    HW219015   2.293   6.630   9.324 -0.2744 -2.1062 -1.7422
38580SOL     OW19016   6.992   2.737   0.330  0.5088 -0.0651 -0.6473
38580SOL    HW119017   6.957   2.767   0.247 -0.3197  0.6452 -0.0596
38580SOL    HW219018   6.949   2.791   0.396 -2.4521 -3.6311  0.6833
38581SOL     OW19019   1.756   4.953   0.264 -0.1570  0.2184 -0.0312
38581SOL    HW119020   1.832   4.913   0.222  0.4788  1.1937  0.1570
38581SOL    HW219021   1.706   4.990   0.192 -1.2567 -1.6923 -0.3067
38582SOL     OW19022   8.574   1.347   1.657 -0.6396  0.4838 -0.0977
38582SOL    HW119023   8.538   1.425   1.699 -1.4195  1.3484 -2.2045
38582SOL    HW219024   8.580   1.371   1.564  0.4265 -1.4958 -0.5900
38583SOL     OW19025   9.017   4.371  10.404 -0.0887 -0.8841 -0.0646
38583SOL    HW119026   8.970   4.293  10.433  0.6169 -1.8648 -1.4158
38583SOL    HW219027   8.972   4.398  10.324 -1.1195  0.9038  1.0439
38584SOL     OW19028   2.195   9.615   7.522 -0.0278 -0.2843  0.2455
38584SOL    HW119029   2.238   9.583   7.443  2.0099 -0.1059  1.2152
38584SOL    HW219030   2.196   9.540   7.581 -0.9411 -0.2253  0.3489
38585SOL     OW19031   5.390   3.243   2.352  0.4725  0.6213 -0.0881
38585SOL    HW119032   5.332   3.301   2.302 -0.4174  0.4845  0.7586
38585SOL    HW219033   5.330   3.182   2.396  1.3295 -0.2371 -0.0826
38586SOL     OW19034   7.777   3.465   9.858  0.6142  0.0509  0.3343
38586SOL    HW119035   7.709   3.477   9.924 -1.2386 -0.0292 -1.4653
38586SOL    HW219036   7.819   3.382   9.880 -1.6522 -1.2487  0.0444
38587SOL     OW19037   2.741   7.197   2.013  0.4572 -0.1480 -0.2441
38587SOL    HW119038   2.703   7.141   2.080 -3.3156  0.2371 -1.8204
38587SOL    HW219039   2.769   7.136   1.944 -0.9536 -0.3304 -0.6959
38588SOL     OW19040  10.814   7.332   6.457 -0.1911 -0.6430 -0.8890
38588SOL    HW119041  10.800   7.241   6.483 -0.8797  0.3284  2.6246
38588SOL    HW219042  10.894   7.358   6.502 -1.6369  1.2921  0.7077
38589SOL     OW19043   3.076   9.432   2.172 -0.1071  0.1031 -0.0842
38589SOL    HW119044   3.035   9.415   2.256  1.1839  0.1586  0.5891
38589SOL    HW219045   3.034   9.372   2.111 -1.6264  0.6272  0.4161
38590SOL     OW19046   3.281   9.869   0.305  0.2833 -0.5130  0.1281
38590SOL    HW119047   3.255   9.929   0.235  0.2905 -0.1678  0.4135
38590SOL    HW219048   3.330   9.800   0.262  0.6171 -0.1016 -0.1597
38591SOL     OW19049  10.129   4.549   9.620  0.4122  0.2431  0.1703
38591SOL    HW119050  10.129   4.644   9.623 -0.5951  0.2839 -0.6312
38591SOL    HW219051  10.104   4.528   9.531  1.3513 -0.7886  0.1225
38592SOL     OW19052   0.913   6.228   3.878 -0.0240  0.1706  0.4155
38592SOL    HW119053   0.926   6.310   3.829  2.0954  0.1839  0.9184
38592SOL    HW219054   0.999   6.206   3.912 -0.9004 -1.3418  1.8169
38593SOL     OW19055   9.712  10.795  10.434  0.6286 -0.5490 -0.4597
38593SOL    HW119056   9.674  10.882  10.425  0.1622 -0.8616 -1.8090
38593SOL    HW219057   9.790  10.808  10.488 -0.9162  0.2236  1.6918
38594SOL     OW19058   6.620  11.123   6.827 -0.5053 -0.4311 -0.3992
38594SOL    HW119059   6.662  11.039   6.846 -1.4166 -0.7796  0.1312
38594SOL    HW219060   6.693  11.185   6.821  0.1241 -1.1073  0.0292
38595SOL     OW19061  10.484   0.858   9.989  0.4179  0.1414 -0.4373
38595SOL    HW119062  10.535   0.898  10.059 -1.1298  0.2605  0.6773
38595SOL    HW219063  10.447   0.932   9.941 -1.5795  0.1431  0.9774
38596SOL     OW19064   8.754   2.862   6.478  0.4483  0.0090 -0.4662
38596SOL    HW119065   8.824   2.815   6.524  0.9025  1.7284  0.7025
38596SOL    HW219066   8.800   2.923   6.421 -0.0848  1.0046  0.1526
38597SOL     OW19067   4.992   2.979   7.096 -0.1398  0.5242 -0.3312
38597SOL    HW119068   4.984   3.067   7.132 -1.0465  0.8133 -1.1837
38597SOL    HW219069   4.905   2.941   7.108 -0.1506  0.2470 -1.2271
38598SOL     OW19070   9.608   6.284   9.616  0.2607  0.1210 -0.2557
38598SOL    HW119071   9.569   6.289   9.704  0.7002 -0.4732 -0.0195
38598SOL    HW219072   9.617   6.191   9.599 -0.5659  0.2185 -1.2805
38599SOL     OW19073   3.198   6.502  11.114 -0.2039 -0.1753 -0.2370
38599SOL    HW119074   3.228   6.412  11.125  1.3403  0.1950 -1.1510
38599SOL    HW219075   3.123   6.495  11.055  0.6739 -0.7729 -1.3227
38600SOL     OW19076   5.737   3.843   6.794 -0.1434 -0.1773  0.1922
38600SOL    HW119077   5.791   3.768   6.769  0.1746 -0.1070  0.6527
38600SOL    HW219078   5.652   3.805   6.817  0.0875 -0.4328  0.6543
38601SOL     OW19079   0.265   1.757   0.773  0.2582 -0.0069 -0.0252
38601SOL    HW119080   0.217   1.817   0.831 -1.2346 -1.1737  0.0284
38601SOL    HW219081   0.315   1.702   0.833  0.4952  0.2550  0.0177
38602SOL     OW19082   7.152   9.410   5.342  0.2781  0.2121 -0.4139
38602SOL    HW119083   7.215   9.349   5.304  0.2623 -0.4202  0.5489
38602SOL    HW219084   7.174   9.494   5.303  2.2470  0.1788  0.5040
38603SOL     OW19085   4.369   6.716   9.104  0.0678  0.1115  0.8777
38603SOL    HW119086   4.374   6.631   9.147 -1.3487 -0.4231  0.0624
38603SOL    HW219087   4.358   6.696   9.011 -0.2990  1.1755  0.6790
38604SOL     OW19088   4.122   5.986  10.965 -0.2466  0.5494 -0.0791
38604SOL    HW119089   4.175   6.029  10.898 -0.4328  0.0414 -0.5660
38604SOL    HW219090   4.184   5.938  11.019 -0.0931  0.9735  0.1196
38605SOL     OW19091   8.240   6.496   5.816  0.2921 -0.3207 -0.8179
38605SOL    HW119092   8.237   6.409   5.857  1.0813 -0.6064 -1.3364
38605SOL    HW219093   8.243   6.478   5.722  4.4047  0.0509 -0.9339
38606SOL     OW19094   0.503  11.197   1.675 -0.2167 -0.1693  0.3246
38606SOL    HW119095   0.539  11.196   1.764 -1.4426 -2.0161  0.8602
38606SOL    HW219096   0.580  11.193   1.618  0.5474 -1.2818  1.3669
38607SOL     OW19097   3.007   3.509   1.804  0.1371  0.2273 -0.4395
38607SOL    HW119098   2.937   3.448   1.826 -0.1233  0.2547 -1.1590
38607SOL    HW219099   3.040   3.539   1.888 -1.2762  0.8491 -0.0818
38608SOL     OW19100   7.259   0.184   5.294  0.3924 -0.3912  0.2820
38608SOL    HW119101   7.350   0.197   5.268  0.2261  1.2937  0.4128
38608SOL    HW219102   7.263   0.161   5.387  0.6840  0.0096  0.3734
38609SOL     OW19103   3.153  11.018   7.899  0.3704  0.3994 -0.4112
38609SOL    HW119104   3.146  11.019   7.994 -0.0951  0.5887 -0.4454
38609SOL    HW219105   3.213  11.089   7.878 -1.0255  1.6352 -0.3679
38610SOL     OW19106   4.087   1.509   2.334 -0.2205  0.5660 -0.5140
38610SOL    HW119107   4.148   1.491   2.405 -0.2266 -0.9755 -0.8563
38610SOL    HW219108   4.032   1.580   2.366 -0.5493 -0.4297  1.2323
38611SOL     OW19109   8.552  10.084   9.753  0.2729 -0.0481 -0.0462
38611SOL    HW119110   8.578  10.004   9.707  1.0487 -0.2222  0.6729
38611SOL    HW219111   8.601  10.153   9.708  1.3448 -0.2668  0.7345
38612SOL     OW19112   7.278   5.999   0.833 -0.4761 -0.2748  0.1849
38612SOL    HW119113   7.348   6.009   0.769 -0.2579 -0.3426  0.4120
38612SOL    HW219114   7.215   6.067   0.810  0.1260  0.4253  0.5779
38613SOL     OW19115   4.779   9.199   5.519 -0.0859  0.6269 -0.3089
38613SOL    HW119116   4.690   9.198   5.554 -0.0707  1.0207 -0.2615
38613SOL    HW219117   4.835   9.181   5.594 -0.1151  0.5165 -0.3130
38614SOL     OW19118   3.800   8.937  10.971 -0.2501 -0.0800  0.8299
38614SOL    HW119119   3.762   9.001  10.911  0.3080  0.8137  1.4135
38614SOL    HW219120   3.770   8.853  10.937 -2.2461  0.5386  0.8912
38615SOL     OW19121   7.264   2.720   7.309 -0.1475  0.4059 -0.1801
38615SOL    HW119122   7.170   2.723   7.323  0.1468  1.4829  2.0342
38615SOL    HW219123   7.277   2.764   7.224 -1.7210 -1.5606 -1.5314
38616SOL     OW19124   7.403   5.520  10.320  0.2960 -0.3038  0.4078
38616SOL    HW119125   7.346   5.444  10.309  1.1354 -0.7301 -1.3819
38616SOL    HW219126   7.487   5.493  10.283  0.9022  1.1688  0.6396
38617SOL     OW19127   6.444   0.979   0.392 -0.2369 -0.5797  0.1561
38617SOL    HW119128   6.474   1.064   0.424 -1.7897  0.4409 -0.9602
38617SOL    HW219129   6.505   0.916   0.430  1.4907  1.1042  0.3150
38618SOL     OW19130   9.095   1.596   0.233  0.0631 -0.4459 -0.2405
38618SOL    HW119131   9.114   1.619   0.142 -0.8947  1.0544 -0.0806
38618SOL    HW219132   9.093   1.679   0.279 -0.5389 -1.1017  0.9565
38619SOL     OW19133   5.640   4.434  11.176 -0.0507 -0.3596 -0.2696
38619SOL    HW119134   5.645   4.426  11.080  0.6068 -0.5353 -0.2259
38619SOL    HW219135   5.721   4.393  11.207  0.6325  1.3232  0.2736
38620SOL     OW19136   1.528   3.249   8.477  0.2000 -0.2351 -0.0753
38620SOL    HW119137   1.615   3.226   8.445  0.4371  0.6310 -0.0778
38620SOL    HW219138   1.545   3.312   8.548 -0.4584  0.9974 -0.9790
38621SOL     OW19139   6.163   9.189   9.261 -0.7479 -0.4210  0.4236
38621SOL    HW119140   6.209   9.270   9.240  0.0177 -1.2422 -1.2349
38621SOL    HW219141   6.092   9.216   9.320  1.4988  0.9683  2.7102
38622SOL     OW19142   3.915   9.140   6.344  0.2762  0.2656  0.2014
38622SOL    HW119143   3.908   9.181   6.258 -0.2941 -0.7361 -0.2449
38622SOL    HW219144   4.008   9.146   6.366 -0.1008  4.2609  1.4249
38623SOL     OW19145   2.230   2.274  11.244  0.1622 -0.0502  0.1356
38623SOL    HW119146   2.181   2.355  11.238 -0.2461 -0.3443 -0.7248
38623SOL    HW219147   2.297   2.282  11.175  0.4197 -0.2435  0.3620
38624SOL     OW19148   3.007   0.781   8.833 -0.4375  0.1136 -0.0794
38624SOL    HW119149   3.077   0.837   8.800  0.6004  0.0195  1.8264
38624SOL    HW219150   2.987   0.723   8.759  0.1108  1.4100 -1.3057
38625SOL     OW19151  10.974   6.029  10.198  0.1593 -0.3348  0.1086
38625SOL    HW119152  10.923   5.952  10.172 -0.9235 -0.1578  1.5357
38625SOL    HW219153  10.960   6.035  10.293 -0.3691  2.0126 -0.0718
38626SOL     OW19154   0.341   1.212   3.118 -0.1112 -0.1344 -0.1517
38626SOL    HW119155   0.325   1.124   3.083  0.0664 -0.3520  0.2953
38626SOL    HW219156   0.386   1.196   3.201  0.0789  0.3866 -0.1515
38627SOL     OW19157   5.894   0.891   1.183  0.3092 -0.2465  0.0611
38627SOL    HW119158   5.944   0.809   1.184  0.5578 -0.0949  0.1020
38627SOL    HW219159   5.805   0.863   1.165  0.1287 -0.6666  1.4426
38628SOL     OW19160   6.577   7.839   3.029 -0.1479 -0.0979  0.0050
38628SOL    HW119161   6.629   7.919   3.020 -0.5457  0.0433 -1.3527
38628SOL    HW219162   6.641   7.768   3.034  0.2004  0.1070 -1.2718
38629SOL     OW19163   5.034   7.491  10.843  0.0363 -0.7715 -1.1477
38629SOL    HW119164   5.125   7.465  10.829  0.3218  0.5559 -1.9282
38629SOL    HW219165   5.004   7.436  10.915  2.0311  0.0130  0.3664
38630SOL     OW19166   2.763   4.410  10.849  0.9471  0.4832  0.2223
38630SOL    HW119167   2.786   4.498  10.880  0.4350  0.1793  1.5584
38630SOL    HW219168   2.704   4.426  10.775  1.3475  1.2644  0.0603
38631SOL     OW19169   9.532   2.682   0.524  0.8176  0.1472 -0.3568
38631SOL    HW119170   9.464   2.713   0.584  0.3687 -2.1672  0.4317
38631SOL    HW219171   9.490   2.611   0.475  2.5069 -1.0219 -0.1819
38632SOL     OW19172  10.612  11.214   2.644  0.2533  0.1633 -0.0354
38632SOL    HW119173  10.599  11.294   2.695 -2.4684 -0.5379  0.5487
38632SOL    HW219174  10.607  11.143   2.708 -0.9643 -0.6243 -0.9501
38633SOL     OW19175   9.521   4.345   6.111 -0.0864  0.2995 -0.1854
38633SOL    HW119176   9.465   4.403   6.162  1.1247 -0.4506  2.1090
38633SOL    HW219177   9.478   4.260   6.113 -0.0591  0.2746 -0.4799
38634SOL     OW19178   5.398   7.266  10.011 -0.1218 -0.2437 -0.7084
38634SOL    HW119179   5.345   7.223   9.943 -0.2677 -0.7890 -0.2587
38634SOL    HW219180   5.385   7.212  10.089  0.0088  0.3995 -0.2326
38635SOL     OW19181   3.506   9.811   6.284 -0.0938 -0.1139 -0.1995
38635SOL    HW119182   3.469   9.725   6.265  2.3724 -1.4177  0.4706
38635SOL    HW219183   3.521   9.850   6.198  0.3321 -1.0827 -0.5806
38636SOL     OW19184   1.279   8.084   8.506 -0.2652 -0.6253 -0.5649
38636SOL    HW119185   1.363   8.119   8.476 -0.8229 -0.4157 -1.9587
38636SOL    HW219186   1.283   8.089   8.601  0.4428  1.4509 -0.6594
38637SOL     OW19187   4.666   5.836   9.295  0.3845  0.1130 -0.2360
38637SOL    HW119188   4.756   5.828   9.266 -0.0467  0.3186 -1.7323
38637SOL    HW219189   4.640   5.925   9.268  0.3834  0.9065  2.1511
38638SOL     OW19190   3.522   7.772   4.925  0.3721 -0.5485 -0.2529
38638SOL    HW119191   3.495   7.838   4.989  1.3882  0.8908 -1.2431
38638SOL    HW219192   3.589   7.721   4.970 -0.1215 -0.6404  0.3891
38639SOL     OW19193   6.638  10.843   6.542  0.0937  0.0446 -0.4000
38639SOL    HW119194   6.655  10.780   6.472 -0.1010 -1.2974  0.7174
38639SOL    HW219195   6.615  10.924   6.496 -1.1296 -1.0807 -1.9041
38640SOL     OW19196   3.264   2.629  10.555 -0.2577 -0.0631 -0.4903
38640SOL    HW119197   3.293   2.706  10.605 -0.8372  0.1749 -0.5123
38640SOL    HW219198   3.286   2.555  10.611  1.0506  0.0488 -0.8180
38641SOL     OW19199   2.016   2.642  10.340 -0.4191 -0.4401 -0.1561
38641SOL    HW119200   1.990   2.634  10.432 -0.4047  0.0987 -0.1040
38641SOL    HW219201   2.006   2.735  10.320  0.9227 -0.3147 -0.2996
38642SOL     OW19202   1.951   2.584   1.335  0.3961  0.1584  0.0034
38642SOL    HW119203   1.965   2.517   1.402 -0.2260 -0.9950 -0.9806
38642SOL    HW219204   1.965   2.667   1.381  1.0966 -0.6285  1.2749
38643SOL     OW19205   1.165   4.787   9.560 -0.4003 -0.0971  0.0276
38643SOL    HW119206   1.102   4.859   9.560 -0.7383 -0.3928 -0.0037
38643SOL    HW219207   1.115   4.710   9.587 -0.3987 -0.6270 -1.3823
38644SOL     OW19208   0.809   6.407   0.737 -0.8353 -0.0272  0.0969
38644SOL    HW119209   0.821   6.333   0.678 -2.0326  0.4751 -0.8223
38644SOL    HW219210   0.765   6.473   0.684 -0.6573  0.9849  1.1674
38645SOL     OW19211  11.074   0.544   6.147  0.2206  0.2759 -0.1542
38645SOL    HW119212  11.021   0.479   6.194  1.8128 -0.9440  0.0493
38645SOL    HW219213  11.154   0.497   6.124  0.8778  1.8218 -1.1653
38646SOL     OW19214   5.137   9.052   3.243 -0.2762  0.1492  0.3769
38646SOL    HW119215   5.130   8.960   3.216  0.6106 -0.2149  1.3558
38646SOL    HW219216   5.218   9.057   3.293  0.1603  1.6731 -0.4338
38647SOL     OW19217   4.051   2.251  10.336  0.1056 -0.2966 -0.3191
38647SOL    HW119218   4.122   2.218  10.281 -0.4713  0.2660 -1.4389
38647SOL    HW219219   4.033   2.339  10.302 -0.6335 -0.1556  0.4149
38648SOL     OW19220   0.005   2.552   5.397  0.1548 -0.3897 -0.3925
38648SOL    HW119221   0.025   2.461   5.419 -1.1727 -0.3646  1.0444
38648SOL    HW219222   0.004   2.554   5.301  1.5802 -1.5482 -0.4660
38649SOL     OW19223   8.992   0.770   0.658  0.3952 -0.1177  0.2308
38649SOL    HW119224   8.977   0.686   0.701  1.3597 -0.7098 -0.5318
38649SOL    HW219225   9.043   0.748   0.580 -1.0750  0.9504 -1.0990
38650SOL     OW19226   7.570   5.813   3.957 -0.5772 -0.4263  0.3727
38650SOL    HW119227   7.521   5.770   3.887 -0.0365 -1.1428  0.4194
38650SOL    HW219228   7.661   5.812   3.927 -0.2198 -1.4268  1.4066
38651SOL     OW19229   4.792   4.636   1.504  0.2385  0.3093 -0.6187
38651SOL    HW119230   4.801   4.568   1.571  0.4679  0.7667 -0.1787
38651SOL    HW219231   4.712   4.683   1.529  0.3110  0.4655 -0.6799
38652SOL     OW19232   5.776  10.398   8.657 -0.0381  0.0899  0.2860
38652SOL    HW119233   5.682  10.395   8.670 -0.1242 -0.1404 -0.3918
38652SOL    HW219234   5.789  10.387   8.563  0.6553  0.2922  0.3451
38653SOL     OW19235   1.560   1.955   8.371 -0.6413  0.3318 -0.1794
38653SOL    HW119236   1.501   1.944   8.446 -2.2962  3.0501 -0.9468
38653SOL    HW219237   1.502   1.976   8.298  1.0286 -0.9751 -1.9941
38654SOL     OW19238  11.151   5.769   1.009  0.6375 -0.1666 -0.4398
38654SOL    HW119239  11.213   5.733   1.072  0.3689  0.3508  0.1313
38654SOL    HW219240  11.067   5.730   1.033  0.3608  0.7423  0.1283
38655SOL     OW19241   7.234   9.305   9.391 -0.4727 -0.3954  0.0600
38655SOL    HW119242   7.229   9.239   9.460  2.4225  0.4102  1.2056
38655SOL    HW219243   7.272   9.258   9.316 -1.9358 -0.8457 -0.4341
38656SOL     OW19244   0.859   6.949   7.705 -0.4446  0.0752 -0.6985
38656SOL    HW119245   0.826   7.002   7.632 -1.5564  1.3538  0.6807
38656SOL    HW219246   0.781   6.906   7.740 -0.1216  0.4332  0.4873
38657SOL     OW19247   0.965   1.014   6.791 -0.0771  0.0286 -0.3283
38657SOL    HW119248   0.981   0.954   6.718  0.3709 -0.4860  0.1773
38657SOL    HW219249   0.948   1.098   6.749  1.3341  0.0132 -1.0232
38658SOL     OW19250   9.613   5.639   2.960  0.0272  0.2908 -0.0407
38658SOL    HW119251   9.582   5.572   2.899  0.6150  1.5828 -1.8533
38658SOL    HW219252   9.552   5.635   3.034 -1.9144 -0.0518 -1.5857
38659SOL     OW19253   8.668   1.856   9.407  0.2691 -0.0594 -0.0011
38659SOL    HW119254   8.662   1.779   9.464 -0.3941 -0.6306 -0.8181
38659SOL    HW219255   8.608   1.919   9.446 -0.6808 -0.6886 -0.4114
38660SOL     OW19256   9.086   4.990   5.674 -0.0161  0.3975  0.3141
38660SOL    HW119257   8.997   5.006   5.706 -0.3668 -0.2205 -0.3011
38660SOL    HW219258   9.127   4.936   5.742 -0.9359 -1.3817 -0.4553
38661SOL     OW19259  11.089   2.360   9.060 -0.1204 -0.7456 -0.1764
38661SOL    HW119260  11.035   2.299   9.109  0.3358 -0.9244  0.1108
38661SOL    HW219261  11.179   2.338   9.085  0.2366 -1.7892 -2.1707
38662SOL     OW19262   4.417   5.389   4.451  0.2070 -0.1683 -0.2344
38662SOL    HW119263   4.359   5.322   4.486  1.8436 -2.0672 -0.9392
38662SOL    HW219264   4.365   5.435   4.385 -0.6075 -1.6156 -0.6406
38663SOL     OW19265  11.259   8.365   2.750 -0.3450  0.0984 -0.1709
38663SOL    HW119266  11.228   8.408   2.670 -1.8266  0.0702  0.3590
38663SOL    HW219267  11.302   8.286   2.719  0.6216  0.9297 -1.0318
38664SOL     OW19268   1.366   5.986   8.520 -0.7708 -0.5166  0.0417
38664SOL    HW119269   1.434   6.046   8.551 -1.3729  0.8296 -1.1279
38664SOL    HW219270   1.415   5.910   8.488  0.2250  0.4369 -0.8114
38665SOL     OW19271   3.179   2.211   2.234 -0.3906 -0.1428 -0.3388
38665SOL    HW119272   3.258   2.256   2.204 -0.0390 -0.7218 -0.2953
38665SOL    HW219273   3.107   2.259   2.194  0.0174 -0.0779 -1.0015
38666SOL     OW19274   0.576  10.849   3.752 -0.0579  0.8732  0.2644
38666SOL    HW119275   0.578  10.893   3.837  0.4643  0.9445  0.2155
38666SOL    HW219276   0.492  10.804   3.751  0.4946 -0.2303  1.3735
38667SOL     OW19277   8.704   0.256   1.104 -0.2606  0.2858 -0.0674
38667SOL    HW119278   8.741   0.303   1.179 -1.2993 -1.2485  1.4688
38667SOL    HW219279   8.654   0.323   1.057 -0.5352  1.0600  1.2569
38668SOL     OW19280   2.452   4.391   4.650 -0.1854 -0.2872  0.7689
38668SOL    HW119281   2.422   4.350   4.569 -0.6142  2.1776 -0.4312
38668SOL    HW219282   2.376   4.386   4.709 -0.0763 -1.5591  0.8161
38669SOL     OW19283   3.110   3.056   0.656  0.1201  0.0635 -0.0850
38669SOL    HW119284   3.153   2.994   0.715  0.4781  0.6836  0.3199
38669SOL    HW219285   3.048   3.003   0.606  2.1990 -1.0824 -1.5553
38670SOL     OW19286   2.489   1.502   1.818 -0.0301  0.8447  0.3011
38670SOL    HW119287   2.453   1.502   1.729  0.1250 -0.8900  0.1895
38670SOL    HW219288   2.476   1.591   1.849 -3.2329  0.6976 -0.2192
38671SOL     OW19289   4.702   3.953   3.899 -0.3758  0.7966  0.1574
38671SOL    HW119290   4.689   3.863   3.928 -0.9300  0.4837 -0.9992
38671SOL    HW219291   4.615   3.991   3.898 -0.3442  0.8663 -0.8262
38672SOL     OW19292  11.389   8.704   9.970  0.3125  0.3390 -0.3372
38672SOL    HW119293  11.306   8.683   9.926  1.1910  0.5418 -2.1722
38672SOL    HW219294  11.454   8.648   9.927  0.8715 -1.3370  2.4630
38673SOL     OW19295   4.486   9.502   5.579 -0.4390 -0.3402  0.0624
38673SOL    HW119296   4.565   9.519   5.630 -0.6010  0.0739  0.1808
38673SOL    HW219297   4.466   9.587   5.539 -0.0978 -0.7401 -0.9946
38674SOL     OW19298   0.373   0.948   0.177  0.3947 -0.0505  0.0616
38674SOL    HW119299   0.417   0.982   0.255 -1.5183  0.8760  0.7871
38674SOL    HW219300   0.405   0.858   0.170  1.7678  0.3254  1.0091
38675SOL     OW19301   2.175   3.784   2.689 -0.1108  0.1973  0.5488
38675SOL    HW119302   2.150   3.856   2.631 -0.2327  0.2933  0.7152
38675SOL    HW219303   2.128   3.708   2.655 -1.2204  0.5252  1.2721
38676SOL     OW19304   6.894   1.132   0.631 -0.2272 -0.1451 -0.4960
38676SOL    HW119305   6.946   1.051   0.635 -0.6019 -0.3549  2.0587
38676SOL    HW219306   6.887   1.152   0.538  1.6548 -1.9023 -1.0867
38677SOL     OW19307   3.421   7.524   9.927  0.1377  0.8999 -0.1008
38677SOL    HW119308   3.390   7.448   9.878 -0.4010  0.9606  0.1410
38677SOL    HW219309   3.397   7.506  10.018 -0.6284  1.6677 -0.1403
38678SOL     OW19310  10.310   7.090   7.323  0.1050 -0.3493 -0.0959
38678SOL    HW119311  10.373   7.128   7.262 -1.1295  0.7851 -0.7170
38678SOL    HW219312  10.227   7.129   7.299 -0.9069 -1.9949  0.5420
38679SOL     OW19313   5.244   6.109   5.063  0.3403 -0.1409 -0.0517
38679SOL    HW119314   5.246   6.053   5.141  2.3695 -1.3422 -0.9028
38679SOL    HW219315   5.211   6.052   4.994  0.6628  0.2609 -0.5390
38680SOL     OW19316   6.214  10.651   4.751 -0.0802 -0.7520  0.2563
38680SOL    HW119317   6.200  10.582   4.816  0.5510 -0.5509  0.6120
38680SOL    HW219318   6.308  10.667   4.752  0.1114 -1.5638 -1.5539
38681SOL     OW19319   3.310   3.061   8.462 -0.2738 -0.2457  0.0913
38681SOL    HW119320   3.290   3.024   8.548  0.2333  0.1278  0.3682
38681SOL    HW219321   3.405   3.060   8.457 -0.2647  0.7386 -0.0245
38682SOL     OW19322   0.887   3.610  10.347  0.2927  0.1337  0.4325
38682SOL    HW119323   0.893   3.606  10.252  0.6429 -2.4544  0.4855
38682SOL    HW219324   0.978   3.606  10.377  0.1515 -3.2789  0.8260
38683SOL     OW19325   7.560   6.989   9.297 -0.3823 -0.6707  0.9306
38683SOL    HW119326   7.520   7.074   9.316  0.7926  0.0850  0.0947
38683SOL    HW219327   7.635   7.008   9.242  0.0167 -2.2464  0.8588
38684SOL     OW19328   7.010   3.416   9.068 -0.0474 -0.1627 -0.5376
38684SOL    HW119329   6.959   3.476   9.122  0.1217 -0.2186 -0.3081
38684SOL    HW219330   6.958   3.335   9.066 -0.0414 -0.1697 -0.4320
38685SOL     OW19331   6.071  10.685   1.183  0.1481  0.3902 -0.2699
38685SOL    HW119332   6.157  10.658   1.149  0.0255 -1.0139  0.4816
38685SOL    HW219333   6.078  10.670   1.278 -1.2522 -0.6970 -0.3156
38686SOL     OW19334   9.634   3.355  10.910  0.9483 -0.0342  0.6959
38686SOL    HW119335   9.545   3.381  10.887  0.7672  0.3859  1.7761
38686SOL    HW219336   9.689   3.396  10.844  0.4497  1.0086  0.9013
38687SOL     OW19337   9.954   1.568   5.357  1.0302 -0.8230 -0.7044
38687SOL    HW119338  10.000   1.582   5.440  0.3665 -1.8335 -0.1474
38687SOL    HW219339   9.955   1.653   5.314  2.3473 -0.5383 -0.1627
38688SOL     OW19340   5.256  10.738   4.051  0.3968 -0.0508 -0.5918
38688SOL    HW119341   5.275  10.762   4.142 -0.1508 -0.2654 -0.4186
38688SOL    HW219342   5.334  10.764   4.003  1.7070 -2.0466  0.2965
38689SOL     OW19343   4.923   7.568   3.955  0.1574  0.0780 -0.8408
38689SOL    HW119344   4.918   7.663   3.949 -1.1093 -0.0570 -2.5788
38689SOL    HW219345   4.877   7.536   3.877 -0.8791 -1.9654  0.4969
38690SOL     OW19346   1.739   4.399   9.912  0.4886  0.3688 -0.0854
38690SOL    HW119347   1.788   4.353   9.981 -0.8685 -0.6352  0.2457
38690SOL    HW219348   1.777   4.367   9.830  0.1228 -0.7124  0.1591
38691SOL     OW19349   5.667   7.524  10.259  0.3175  0.0608  0.1550
38691SOL    HW119350   5.593   7.563  10.213 -0.4456  0.0132  1.2970
38691SOL    HW219351   5.708   7.466  10.195 -0.8812 -0.2342 -0.3732
38692SOL     OW19352   2.778   1.780   0.405  0.2837  0.5720  0.3908
38692SOL    HW119353   2.717   1.853   0.389  0.9619  1.0688  0.0348
38692SOL    HW219354   2.816   1.799   0.490 -0.9678 -0.4050  1.2142
38693SOL     OW19355  10.308   0.229  10.532 -0.2988  0.7683  0.5035
38693SOL    HW119356  10.232   0.176  10.554  0.3332 -0.8211 -0.9424
38693SOL    HW219357  10.377   0.198  10.591  0.1448 -0.2558 -0.5248
38694SOL     OW19358   3.324   5.516   1.087 -0.1248 -0.8191 -0.7085
38694SOL    HW119359   3.264   5.528   1.160  1.3383  1.5523  0.2328
38694SOL    HW219360   3.394   5.461   1.122  0.3513 -0.0529 -0.4334
38695SOL     OW19361   4.190   5.634   1.119  0.1084  0.2004 -0.0430
38695SOL    HW119362   4.261   5.577   1.091 -0.6482  0.2254 -2.2483
38695SOL    HW219363   4.116   5.575   1.132 -0.1911  0.4607 -0.5278
38696SOL     OW19364   1.363   8.022  10.998  0.7314 -0.3776  0.0666
38696SOL    HW119365   1.451   8.012  11.034  0.6919 -0.3495  0.1685
38696SOL    HW219366   1.366   7.971  10.917  1.3861  1.0831 -0.8736
38697SOL     OW19367   6.169   5.095   4.219 -0.1512  0.4069  0.6446
38697SOL    HW119368   6.212   5.043   4.150  0.9034  2.3318 -0.2306
38697SOL    HW219369   6.076   5.076   4.208  0.0993 -0.2868 -0.4835
38698SOL     OW19370   4.000   3.861   0.151  1.0488 -0.0658 -0.0184
38698SOL    HW119371   3.968   3.772   0.137 -1.1234  0.5165  0.8446
38698SOL    HW219372   4.082   3.864   0.102  0.1324 -1.9002 -1.8704
38699SOL     OW19373   0.377   4.251  10.347 -0.1628 -0.1017 -0.2282
38699SOL    HW119374   0.337   4.168  10.322 -0.9129 -0.0622  0.8151
38699SOL    HW219375   0.312   4.295  10.401 -0.2161  1.6601 -1.6144
38700SOL     OW19376   1.154   8.376   7.660 -0.0530 -0.3912  0.2882
38700SOL    HW119377   1.150   8.313   7.589 -0.6849  0.8337 -0.8104
38700SOL    HW219378   1.233   8.427   7.644 -0.7711  0.6134 -0.2211
38701SOL     OW19379   5.232   1.013   3.470  0.0711  0.3673 -0.4900
38701SOL    HW119380   5.229   0.920   3.492  0.5425 -0.6055 -3.8624
38701SOL    HW219381   5.324   1.037   3.479 -0.0241  0.4779  0.2218
38702SOL     OW19382   6.013   4.902   4.931 -0.1615 -0.0597  0.1315
38702SOL    HW119383   5.950   4.953   4.982 -0.1823 -0.0815  0.1281
38702SOL    HW219384   5.984   4.811   4.942  0.8062 -0.2333  1.4203
38703SOL     OW19385   4.695   3.669   3.283  0.0008  0.1303 -0.1078
38703SOL    HW119386   4.682   3.763   3.298  2.3766  0.2958  1.5063
38703SOL    HW219387   4.630   3.627   3.339 -1.7238  0.7466 -1.5627
38704SOL     OW19388   4.984   8.476   2.914  0.1117 -0.5242 -0.0741
38704SOL    HW119389   4.982   8.458   2.820  1.9371 -1.7093  0.0542
38704SOL    HW219390   5.004   8.391   2.954  4.7031  0.7841  0.9550
38705SOL     OW19391   3.109  10.447   5.993 -0.3329  0.0488  0.2408
38705SOL    HW119392   3.112  10.386   5.919 -2.1964  0.4059 -0.1740
38705SOL    HW219393   3.101  10.391   6.070  0.3674 -0.2919  0.0678
38706SOL     OW19394  10.279   5.867   0.138  0.0371 -0.1635 -0.5361
38706SOL    HW119395  10.269   5.830   0.225  2.1596 -0.5805 -0.4080
38706SOL    HW219396  10.227   5.947   0.139  1.4054  0.7803  1.7301
38707SOL     OW19397   5.755   1.737   3.199  0.0363 -0.2814  0.1693
38707SOL    HW119398   5.752   1.649   3.161 -1.4275 -0.3563  0.4093
38707SOL    HW219399   5.714   1.793   3.133 -1.2217 -0.1849  0.9855
38708SOL     OW19400   0.552   1.923   4.545  0.2305 -0.4770  0.3834
38708SOL    HW119401   0.497   1.844   4.545 -0.4600 -0.0175  1.2356
38708SOL    HW219402   0.626   1.900   4.601  1.2147 -1.2752 -1.1747
38709SOL     OW19403   0.998   6.630   0.141 -0.1495  0.5161 -0.5628
38709SOL    HW119404   0.933   6.592   0.200 -0.9440  0.2904 -1.5487
38709SOL    HW219405   1.028   6.556   0.088  0.4977  0.7280 -0.4973
38710SOL     OW19406   8.227   0.029   7.936 -0.3642  0.7008  1.1438
38710SOL    HW119407   8.170  -0.045   7.956  0.4931 -0.2261  0.2991
38710SOL    HW219408   8.263   0.009   7.849  0.9826  1.4027  1.5074
38711SOL     OW19409   1.098   3.679   0.756 -0.1004 -0.3702 -0.0384
38711SOL    HW119410   1.020   3.707   0.805 -0.2093  1.6782 -1.2874
38711SOL    HW219411   1.073   3.595   0.717 -0.9988 -0.6505  1.0668
38712SOL     OW19412   0.526   4.483   3.996  0.4215  0.2197 -0.2386
38712SOL    HW119413   0.506   4.573   3.970  0.0502 -0.1763 -1.3735
38712SOL    HW219414   0.485   4.429   3.929  0.3086 -0.8218  0.6390
38713SOL     OW19415   3.284   9.280   7.307  0.2062 -0.4728  0.2796
38713SOL    HW119416   3.350   9.312   7.368 -0.7788  0.6105  0.8243
38713SOL    HW219417   3.209   9.339   7.320 -1.8265 -3.1051  1.5244
38714SOL     OW19418   8.782   1.173   6.807 -0.3578  0.0012  0.3610
38714SOL    HW119419   8.836   1.136   6.737  1.0324 -2.4918  2.5408
38714SOL    HW219420   8.700   1.196   6.764 -0.0903 -2.6583 -1.8998
38715SOL     OW19421  10.928  10.039   7.682  0.1895  0.0578  0.4066
38715SOL    HW119422  10.996  10.006   7.740 -0.5642 -1.1875  0.6003
38715SOL    HW219423  10.898   9.963   7.633 -0.6290  0.7031 -0.1341
38716SOL     OW19424   4.741   8.031   2.869  0.3262  0.1697 -0.5745
38716SOL    HW119425   4.646   8.027   2.873  0.2977 -0.1212 -1.3028
38716SOL    HW219426   4.770   7.948   2.907  0.2730  0.1298 -0.6202
38717SOL     OW19427   0.517  10.463   9.106  0.1417  0.0003 -0.4772
38717SOL    HW119428   0.535  10.372   9.085 -1.9363 -0.3662 -0.9759
38717SOL    HW219429   0.567  10.513   9.041  2.5067 -0.6573  0.7413
38718SOL     OW19430   3.066   9.314  10.191  0.2105  0.4132 -0.4874
38718SOL    HW119431   3.097   9.360  10.269 -0.0134 -2.0744  1.1649
38718SOL    HW219432   3.105   9.227  10.197 -0.2768 -0.0476 -2.8964
38719SOL     OW19433   6.806   7.280   3.384 -0.0137  0.3742 -0.1176
38719SOL    HW119434   6.797   7.259   3.291 -0.2033  0.6015 -0.1516
38719SOL    HW219435   6.827   7.373   3.386  4.1204 -0.3401 -0.1550
38720SOL     OW19436   4.242   9.913   3.539  0.2096  0.5974 -0.4395
38720SOL    HW119437   4.191   9.860   3.478  1.4072 -1.8353  0.5681
38720SOL    HW219438   4.316   9.946   3.487  1.3602 -1.6674 -0.3463
38721SOL     OW19439   8.766   3.728   3.568  0.4397  0.1854  0.5359
38721SOL    HW119440   8.803   3.731   3.479  1.9071  1.5125  1.1487
38721SOL    HW219441   8.819   3.663   3.614 -0.0398 -0.1787  0.5915
38722SOL     OW19442  11.399   7.361   7.888 -0.0933  0.2741  0.2941
38722SOL    HW119443  11.343   7.302   7.838 -0.3593 -0.8082  1.7991
38722SOL    HW219444  11.486   7.351   7.849 -0.4863  0.2449 -0.5901
38723SOL     OW19445   1.272   0.882   2.638 -0.3394  0.4095 -0.0668
38723SOL    HW119446   1.306   0.940   2.571  0.8767 -0.2867 -0.0807
38723SOL    HW219447   1.301   0.921   2.721  0.8226 -0.3543 -0.0914
38724SOL     OW19448   1.836   7.161   4.179  0.2660  0.4656 -0.1833
38724SOL    HW119449   1.784   7.215   4.239 -0.7809 -0.4025 -0.2788
38724SOL    HW219450   1.917   7.144   4.227  0.3329  1.5588  0.1153
38725SOL     OW19451   7.033   7.044   7.560  0.1270 -0.2734 -0.0056
38725SOL    HW119452   6.938   7.035   7.573  0.2147 -0.5729  0.4612
38725SOL    HW219453   7.071   7.016   7.643  0.6277 -0.1373 -0.1848
38726SOL     OW19454   8.899   3.280   3.484  0.3803  0.6747  0.2904
38726SOL    HW119455   8.806   3.286   3.462  0.2513  1.7160  1.0431
38726SOL    HW219456   8.903   3.217   3.555  0.2080  0.8407  0.4491
38727SOL     OW19457   7.755   3.767   6.362  0.1079  0.1132  0.9102
38727SOL    HW119458   7.712   3.817   6.431 -0.2630  0.7062  0.2684
38727SOL    HW219459   7.791   3.690   6.406 -1.4447 -0.2983  1.5171
38728SOL     OW19460   6.124  10.290   9.931 -0.1007  0.2382  0.9363
38728SOL    HW119461   6.061  10.356   9.901  0.2181  1.0118  1.9182
38728SOL    HW219462   6.171  10.264   9.852  0.3758  1.8596  0.6574
38729SOL     OW19463  11.232   6.953   2.021 -0.5102  0.1700  0.4735
38729SOL    HW119464  11.292   7.025   2.040 -0.2205  0.0680 -0.0334
38729SOL    HW219465  11.163   6.961   2.087 -0.3618  0.7719  0.5614
38730SOL     OW19466   8.775   6.288  10.729 -0.3523  0.0040 -0.6662
38730SOL    HW119467   8.723   6.288  10.810  0.4961  3.7539  0.0929
38730SOL    HW219468   8.813   6.200  10.725 -1.6291 -0.8097  2.1849
38731SOL     OW19469   7.647   4.078   9.723 -0.5216 -0.8242 -0.4578
38731SOL    HW119470   7.608   4.147   9.668  0.7664  0.2947 -0.0261
38731SOL    HW219471   7.600   3.998   9.698 -0.3483 -0.2731 -2.8093
38732SOL     OW19472   8.933  10.975   1.690  0.1209 -0.3890  0.3434
38732SOL    HW119473   8.889  10.990   1.607  0.6545 -1.2505 -0.0990
38732SOL    HW219474   9.024  11.000   1.675  0.1095 -0.0062  0.8406
38733SOL     OW19475   7.172   4.694   1.161  0.0031 -0.5324 -0.3437
38733SOL    HW119476   7.254   4.718   1.206 -0.7755 -1.2791  1.6186
38733SOL    HW219477   7.103   4.728   1.218 -1.0623 -0.3494 -1.7102
38734SOL     OW19478   1.547  11.084   6.518  0.3758  0.2284  0.5998
38734SOL    HW119479   1.513  10.997   6.498 -1.2033  0.7362  0.8833
38734SOL    HW219480   1.543  11.090   6.614 -0.2465  0.8529  0.5484
38735SOL     OW19481   4.866   5.815   5.841 -0.1053 -0.0926  0.1228
38735SOL    HW119482   4.829   5.790   5.926 -1.7157  0.4522 -0.3639
38735SOL    HW219483   4.915   5.895   5.859  1.2596 -1.0549  0.8693
38736SOL     OW19484  10.652   4.495   1.284  0.0056  0.4521 -0.2576
38736SOL    HW119485  10.692   4.425   1.233 -0.6368  0.8767 -1.3817
38736SOL    HW219486  10.564   4.506   1.246  0.2977  2.2476 -0.5258
38737SOL     OW19487  10.085  11.277   6.016  0.1534  0.3255  0.0764
38737SOL    HW119488  10.045  11.320   5.941  1.0695 -0.6380 -0.9861
38737SOL    HW219489  10.012  11.262   6.077 -0.7708  0.2886 -1.0157
38738SOL     OW19490   8.526   6.665   0.053  0.6850  0.0933  0.1594
38738SOL    HW119491   8.455   6.608   0.082 -0.9747  1.2319 -1.4522
38738SOL    HW219492   8.512   6.747   0.100 -0.2206  0.9307 -1.4904
38739SOL     OW19493   4.613   2.034   9.588 -0.2145 -0.4749 -0.0086
38739SOL    HW119494   4.525   2.056   9.557 -0.7549 -0.5395  1.3808
38739SOL    HW219495   4.671   2.094   9.541 -1.0692  0.0030 -0.4865
38740SOL     OW19496   3.877   7.583   2.035 -0.2018  0.0434  0.1316
38740SOL    HW119497   3.900   7.664   1.990 -0.5594 -0.7287 -1.5412
38740SOL    HW219498   3.959   7.553   2.074  0.6659 -0.3424 -1.8689
38741SOL     OW19499   1.743   0.858  10.458 -0.0751  0.0841 -0.2660
38741SOL    HW119500   1.810   0.790  10.449  0.6380  0.8342 -0.8498
38741SOL    HW219501   1.690   0.830  10.533 -1.1224 -2.1955 -1.7335
38742SOL     OW19502   3.293   2.396   4.024  0.5764  0.2430  0.5620
38742SOL    HW119503   3.215   2.437   4.063  0.0005  1.4465 -1.6938
38742SOL    HW219504   3.346   2.470   3.993  0.7575 -0.6215 -1.3214
38743SOL     OW19505   0.802  11.001   1.781  0.3104  0.0567  0.3326
38743SOL    HW119506   0.780  10.960   1.865 -0.2516  1.4323  0.8875
38743SOL    HW219507   0.761  10.945   1.715  0.0658 -0.5878  1.0236
38744SOL     OW19508   3.326   3.074   9.183  0.3069  0.2207  0.6764
38744SOL    HW119509   3.295   3.037   9.265 -0.4511 -0.9894 -0.1178
38744SOL    HW219510   3.342   2.998   9.127 -0.5303  1.0401 -0.7566
38745SOL     OW19511   3.787  10.521   2.221 -0.1457 -0.1792  0.5023
38745SOL    HW119512   3.820  10.513   2.310  0.7020  1.2301  0.3457
38745SOL    HW219513   3.737  10.602   2.221 -1.7353 -1.1158  0.1443
38746SOL     OW19514   6.011   1.574   6.391 -0.1378 -0.3498  0.1483
38746SOL    HW119515   6.079   1.547   6.453  1.1573  1.3059 -0.4808
38746SOL    HW219516   5.979   1.657   6.426 -1.2037 -0.6520 -0.0680
38747SOL     OW19517   8.526   2.637   3.893 -0.5393 -0.3737  0.4132
38747SOL    HW119518   8.460   2.699   3.861 -0.6135 -1.4344 -1.6295
38747SOL    HW219519   8.482   2.589   3.963 -0.9296  0.9140  1.0805
38748SOL     OW19520   7.388   0.663   2.860  0.6269 -0.1894 -0.1169
38748SOL    HW119521   7.319   0.615   2.908  1.7713 -2.8668 -0.9637
38748SOL    HW219522   7.359   0.661   2.769  0.5326  1.1428 -0.1365
38749SOL     OW19523   5.185   6.929   8.397 -0.0195 -0.3099 -0.0372
38749SOL    HW119524   5.175   7.009   8.448 -1.3231 -0.7907  0.4995
38749SOL    HW219525   5.256   6.948   8.335 -0.3812  1.2800  0.0096
38750SOL     OW19526   5.888   7.355   1.216  0.6837 -0.3051  0.2138
38750SOL    HW119527   5.874   7.435   1.268  0.8014 -0.7080  0.8759
38750SOL    HW219528   5.928   7.386   1.135  2.6887  0.1256  1.2953
38751SOL     OW19529   2.879   0.677   5.671  0.0448  0.6250 -0.0375
38751SOL    HW119530   2.956   0.691   5.727  0.0590  0.9552 -0.1356
38751SOL    HW219531   2.910   0.696   5.583 -0.1451  0.7386 -0.0802
38752SOL     OW19532   2.711   1.984  10.055 -0.1915 -0.1806 -0.0260
38752SOL    HW119533   2.681   2.074  10.067 -1.0880 -0.3749 -0.6677
38752SOL    HW219534   2.653   1.949   9.986  0.3408 -1.1472  0.0050
38753SOL     OW19535   2.761   6.577   5.774 -0.0004 -0.6423  0.0190
38753SOL    HW119536   2.684   6.534   5.811 -1.9326  0.7810 -2.0311
38753SOL    HW219537   2.786   6.520   5.700 -0.1266 -0.2831 -0.3046
38754SOL     OW19538   0.413   3.230  10.104  0.1577 -0.2357 -0.0456
38754SOL    HW119539   0.471   3.163  10.142  0.6518  0.9100  1.2720
38754SOL    HW219540   0.341   3.238  10.166 -0.0158  0.3024 -0.3101
38755SOL     OW19541   5.796   3.566   7.034  0.1216  0.1397  0.3174
38755SOL    HW119542   5.702   3.580   7.037  0.1697  0.3326  1.2164
38755SOL    HW219543   5.806   3.473   7.011 -0.2514  0.4592 -1.2621
38756SOL     OW19544   7.882   0.126   6.866 -0.2320 -0.0304  0.1655
38756SOL    HW119545   7.972   0.093   6.876  0.0735  0.6624 -0.1919
38756SOL    HW219546   7.883   0.211   6.911 -0.7198 -0.0282  0.1780
38757SOL     OW19547  10.052   8.349   2.055 -0.1510 -0.0123  0.2835
38757SOL    HW119548  10.113   8.393   2.114 -0.0753  3.0563 -1.8385
38757SOL    HW219549  10.106   8.328   1.978 -1.2033  0.5673 -0.6406
38758SOL     OW19550   1.147   9.877   9.022  0.9697  0.2609  0.5324
38758SOL    HW119551   1.130   9.881   9.117  0.0475  0.0753  0.3840
38758SOL    HW219552   1.242   9.875   9.015  1.0670 -2.0234  1.5618
38759SOL     OW19553   3.636   6.508   0.944 -0.0861 -0.3628  0.0046
38759SOL    HW119554   3.616   6.547   1.029  0.9797  0.9123 -0.2931
38759SOL    HW219555   3.600   6.419   0.949 -2.6001  0.6019  0.7292
38760SOL     OW19556   5.145   1.488   8.959  0.0618 -0.2299  0.2240
38760SOL    HW119557   5.172   1.521   8.874 -3.4203 -1.7588 -1.7089
38760SOL    HW219558   5.205   1.416   8.977 -0.1202 -0.9510 -1.8116
38761SOL     OW19559   0.420   6.519   9.164  0.2697  0.4928  0.8612
38761SOL    HW119560   0.381   6.541   9.249 -1.7112  0.4296  0.0317
38761SOL    HW219561   0.345   6.494   9.109  1.4870  0.5566 -0.9200
38762SOL     OW19562   1.756   3.003   7.190 -1.0035  0.5371 -0.0575
38762SOL    HW119563   1.672   2.997   7.235 -0.4736 -1.5245  0.7646
38762SOL    HW219564   1.734   2.989   7.098 -1.8803  3.0832 -0.3204
38763SOL     OW19565   7.483   9.634   1.629 -0.1447 -0.1811  0.2179
38763SOL    HW119566   7.426   9.564   1.658 -0.8882  0.9048  1.4913
38763SOL    HW219567   7.480   9.630   1.533 -0.9271 -1.2592  0.2725
38764SOL     OW19568   7.953   9.149  10.654  0.0442  0.9025  0.2366
38764SOL    HW119569   8.003   9.221  10.693  1.1929  0.4140 -0.2909
38764SOL    HW219570   7.991   9.070  10.692 -1.0373  0.5586  0.6168
38765SOL     OW19571   2.863   2.186   1.877 -0.4341  0.0006  0.1757
38765SOL    HW119572   2.856   2.242   1.954  1.5716 -1.3495  1.4529
38765SOL    HW219573   2.861   2.246   1.803  1.2412  1.7844  1.4628
38766SOL     OW19574   5.804   7.106   4.207  0.3721 -0.2642 -0.6160
38766SOL    HW119575   5.880   7.121   4.263  1.6552 -0.2132 -2.2862
38766SOL    HW219576   5.836   7.123   4.118 -1.6977  0.1095 -1.3442
38767SOL     OW19577   0.800  10.636  11.087 -0.2068 -0.1095  0.1969
38767SOL    HW119578   0.874  10.624  11.146  0.0854 -2.5509 -0.5498
38767SOL    HW219579   0.723  10.642  11.144  0.2285 -0.9827  0.9010
38768SOL     OW19580   1.664   2.970   9.810  0.1385  0.1235 -0.2573
38768SOL    HW119581   1.712   3.053   9.820  2.0820 -0.9882  0.0420
38768SOL    HW219582   1.655   2.937   9.899 -0.3557 -0.1475 -0.4079
38769SOL     OW19583   6.169   2.040   6.260 -0.2896 -0.7426  0.0452
38769SOL    HW119584   6.200   1.957   6.227 -1.7362 -1.5942  0.7121
38769SOL    HW219585   6.163   2.027   6.355 -1.1016 -0.0940  0.0951
38770SOL     OW19586  10.796   6.485   4.907 -0.3290 -0.2894 -0.0569
38770SOL    HW119587  10.704   6.466   4.926 -0.2994 -2.0824 -1.4542
38770SOL    HW219588  10.819   6.425   4.836  1.5781  0.9966 -0.6135
38771SOL     OW19589   9.053   6.660   3.581 -0.1773  0.1466 -0.5352
38771SOL    HW119590   9.062   6.611   3.662 -2.3513 -1.3262 -1.1165
38771SOL    HW219591   9.007   6.740   3.606 -0.4991 -0.1222 -0.2678
38772SOL     OW19592   4.264   2.533   0.935  0.5139  1.1739  0.4178
38772SOL    HW119593   4.320   2.564   0.864 -2.1246  1.4901 -1.6733
38772SOL    HW219594   4.277   2.438   0.936 -0.6216  0.9465 -1.6866
38773SOL     OW19595   6.756   2.573   0.794  0.7063 -1.2309 -0.0431
38773SOL    HW119596   6.705   2.543   0.718  1.2052 -0.6029 -0.6398
38773SOL    HW219597   6.822   2.506   0.806 -0.4416 -2.2349  0.9546
38774SOL     OW19598   2.393   4.230   0.841 -0.0027 -0.5427  0.1767
38774SOL    HW119599   2.472   4.251   0.791  0.4853 -1.0497  0.7174
38774SOL    HW219600   2.365   4.315   0.878 -0.4928 -0.1292 -1.1034
38775SOL     OW19601   0.465   9.352   0.698 -0.1497 -0.1083 -0.3378
38775SOL    HW119602   0.392   9.327   0.641  1.3263 -1.1245 -1.9112
38775SOL    HW219603   0.472   9.280   0.761 -1.7478  0.9878  1.1674
38776SOL     OW19604   1.762   3.362   8.262  0.0953 -0.0679 -0.0338
38776SOL    HW119605   1.752   3.368   8.167  1.1137  0.2607 -0.1301
38776SOL    HW219606   1.740   3.450   8.294 -0.6558 -0.2902  0.0850
38777SOL     OW19607   0.309   1.630   2.494  0.1271  0.2647 -0.5346
38777SOL    HW119608   0.289   1.569   2.423 -0.1005 -0.9290  0.5143
38777SOL    HW219609   0.224   1.662   2.522  0.2238  0.8124 -0.8473
38778SOL     OW19610   8.508   4.064   1.565  0.7749 -0.4092  0.0736
38778SOL    HW119611   8.442   4.048   1.632  1.4544  1.5335  1.2818
38778SOL    HW219612   8.538   4.154   1.581  1.2162  0.0101 -2.6337
38779SOL     OW19613   0.437   3.338   0.668  0.0466  0.1861 -0.1379
38779SOL    HW119614   0.442   3.373   0.579  1.5103 -0.8059 -0.4872
38779SOL    HW219615   0.411   3.246   0.656  2.6903 -0.6766  0.2154
38780SOL     OW19616   5.906   5.715   3.134 -0.2089 -0.4815  0.1063
38780SOL    HW119617   5.818   5.694   3.103 -0.0068 -1.2305  0.0198
38780SOL    HW219618   5.926   5.647   3.199 -0.5827  0.9795  1.8387
38781SOL     OW19619   3.381   2.108   8.193 -0.4253  0.0474 -0.2456
38781SOL    HW119620   3.331   2.085   8.115  0.5519 -0.3480 -0.7640
38781SOL    HW219621   3.419   2.193   8.174 -1.4293  0.6666  0.4201
38782SOL     OW19622   6.427   5.277  10.169 -0.7362 -0.1122 -0.5205
38782SOL    HW119623   6.465   5.364  10.182  0.1275 -0.7317  1.4734
38782SOL    HW219624   6.411   5.244  10.258  0.0498 -2.4344 -1.1632
38783SOL     OW19625   2.817   5.379   2.913  0.3999 -0.1044 -0.4468
38783SOL    HW119626   2.806   5.308   2.976  0.4225 -1.4679 -1.9307
38783SOL    HW219627   2.802   5.339   2.828 -1.2173  2.0360 -1.2592
38784SOL     OW19628   6.326   5.775   9.649  0.3720 -0.1230 -0.0943
38784SOL    HW119629   6.299   5.867   9.649 -0.6697 -0.3836  1.5199
38784SOL    HW219630   6.331   5.752   9.556  1.6776  1.8241 -0.5709
38785SOL     OW19631   6.507   7.302   0.718 -0.6426 -0.0125  0.1701
38785SOL    HW119632   6.530   7.261   0.801 -1.7795  1.0058  1.0166
38785SOL    HW219633   6.425   7.260   0.692  0.8587 -2.0606 -1.7324
38786SOL     OW19634   5.571   8.171   5.148  0.6810 -0.3302  0.0211
38786SOL    HW119635   5.540   8.132   5.067 -1.8361  0.4901  0.4898
38786SOL    HW219636   5.621   8.102   5.191  0.6995 -1.2888 -1.4926
38787SOL     OW19637   6.081  10.266  10.278 -0.3535 -0.2267  0.2343
38787SOL    HW119638   6.103  10.351  10.315 -0.3008 -1.1154  2.4089
38787SOL    HW219639   6.154  10.245  10.219 -0.6580  1.4434 -0.7906
38788SOL     OW19640   4.502   7.473   5.537 -0.5792 -0.1541  0.3573
38788SOL    HW119641   4.512   7.528   5.615 -0.4015 -0.5832  0.6396
38788SOL    HW219642   4.415   7.433   5.547 -0.7861  0.2107  0.0603
38789SOL     OW19643   6.589   9.738   1.439  0.0987 -0.4369  0.1746
38789SOL    HW119644   6.524   9.785   1.387  1.4110  0.2577 -0.8960
38789SOL    HW219645   6.657   9.803   1.456  0.9258 -1.3787  0.5574
38790SOL     OW19646  11.249   6.554   7.072 -0.3194  0.7703 -0.3100
38790SOL    HW119647  11.301   6.537   7.151 -0.9522  1.9583  0.4083
38790SOL    HW219648  11.223   6.468   7.041 -0.4225  0.2791  1.0602
38791SOL     OW19649   7.611   6.181   9.893 -0.0313 -0.2766 -0.0796
38791SOL    HW119650   7.545   6.134   9.945 -0.7129  1.1542  0.4157
38791SOL    HW219651   7.645   6.248   9.952 -1.4828  2.0134 -1.6243
38792SOL     OW19652   7.362   6.364   4.417  0.4186 -0.1102 -0.5090
38792SOL    HW119653   7.270   6.377   4.394 -0.4873  0.6869  2.9880
38792SOL    HW219654   7.401   6.325   4.339 -3.3112 -2.3494 -1.4824
38793SOL     OW19655  10.017  10.329   8.441  0.0675 -0.6029 -0.3897
38793SOL    HW119656  10.095  10.284   8.408 -0.8396 -1.7181 -1.1002
38793SOL    HW219657   9.972  10.264   8.493  0.0143  0.2938  0.7260
38794SOL     OW19658   5.426   9.481   0.828 -0.0414  0.2653 -0.3486
38794SOL    HW119659   5.477   9.416   0.876  0.4583  0.1840 -0.9708
38794SOL    HW219660   5.336   9.449   0.830 -0.1300  0.5537  1.0165
38795SOL     OW19661   3.364   8.109   9.601 -0.1276  0.1736  0.4264
38795SOL    HW119662   3.336   8.046   9.668  1.7596 -0.5866  0.5766
38795SOL    HW219663   3.451   8.078   9.575  0.8124  2.6600  0.3964
38796SOL     OW19664   7.861   1.104   0.469 -0.4769 -0.2394 -0.8217
38796SOL    HW119665   7.823   1.178   0.517  1.8156  0.1079  0.6001
38796SOL    HW219666   7.826   1.027   0.512  1.1792  0.0732  1.2477
38797SOL     OW19667   5.300   2.455  10.892 -0.0360  0.7368  0.0601
38797SOL    HW119668   5.325   2.373  10.850  0.2080  0.7485  0.1832
38797SOL    HW219669   5.381   2.506  10.896 -0.3979  1.4415 -1.0258
38798SOL     OW19670   3.511   3.081   1.742  0.3745  0.8733 -0.0126
38798SOL    HW119671   3.538   3.150   1.682  0.4792  1.1164  0.3095
38798SOL    HW219672   3.464   3.019   1.687 -0.1668  1.4537 -0.2246
38799SOL     OW19673   0.494   5.806   4.207  0.0893 -0.5589  0.5224
38799SOL    HW119674   0.433   5.745   4.249 -0.9564  0.7420  0.9818
38799SOL    HW219675   0.580   5.767   4.220 -0.5864 -2.2380  0.2434
38800SOL     OW19676   6.311   7.595   9.280 -0.0199  0.3390  0.0146
38800SOL    HW119677   6.251   7.626   9.213  0.6547  1.8665  0.0568
38800SOL    HW219678   6.385   7.656   9.275  0.8799 -0.6419  0.8992
38801SOL     OW19679   3.701  11.021   6.492  0.1279  0.3897  0.3248
38801SOL    HW119680   3.665  11.106   6.517 -2.2701  0.4492 -2.7704
38801SOL    HW219681   3.760  11.040   6.419  0.4348 -0.4933  0.3322
38802SOL     OW19682  10.504   3.408  11.249 -0.3550 -0.0428  0.0086
38802SOL    HW119683  10.491   3.331  11.193 -0.4511 -0.1762  0.2120
38802SOL    HW219684  10.416   3.444  11.260  0.0299  1.9498 -2.6791
38803SOL     OW19685   0.176   6.026   3.987 -0.6921  0.2803 -0.0151
38803SOL    HW119686   0.094   5.985   4.015  0.3116 -0.1735  2.6016
38803SOL    HW219687   0.203   6.078   4.063  1.3575  0.5278 -0.8596
38804SOL     OW19688  11.072   4.137   2.220 -0.5018  0.4694  0.2966
38804SOL    HW119689  11.056   4.093   2.136  0.6908  0.5987 -0.0295
38804SOL    HW219690  11.007   4.101   2.280 -0.6416 -0.4662 -0.4010
38805SOL     OW19691   0.218   4.825   6.744 -0.4423 -0.2280  0.3470
38805SOL    HW119692   0.256   4.814   6.831 -1.9185  0.2634  1.0836
38805SOL    HW219693   0.202   4.735   6.714 -0.7141 -0.3836  0.9453
38806SOL     OW19694   1.722   3.648   8.335  0.1992  0.1278 -0.1698
38806SOL    HW119695   1.695   3.672   8.424 -1.4380  0.9036 -0.8442
38806SOL    HW219696   1.810   3.685   8.327 -0.2802  1.5462  0.5886
38807SOL     OW19697   5.745   0.764   0.842  0.6733  0.4931  0.0487
38807SOL    HW119698   5.718   0.722   0.760  0.7404  1.3278 -0.4124
38807SOL    HW219699   5.665   0.768   0.894  0.3043  1.2380 -0.5528
38808SOL     OW19700   8.518   6.299   2.617  0.3829  0.0062 -0.1272
38808SOL    HW119701   8.477   6.382   2.644 -1.3184  0.0231 -2.4038
38808SOL    HW219702   8.501   6.294   2.522  1.9866 -2.1218 -0.3772
38809SOL     OW19703   1.833   8.050   3.233  0.7431  0.3271  0.1547
38809SOL    HW119704   1.758   7.994   3.256 -0.1264  1.1690 -0.5583
38809SOL    HW219705   1.803   8.099   3.157  2.1265  0.4989 -0.2938
38810SOL     OW19706   1.123  10.025  10.566 -0.3699  0.4384  0.4776
38810SOL    HW119707   1.100   9.934  10.582 -0.2918  0.3543  0.1294
38810SOL    HW219708   1.082  10.074  10.638  0.1555  0.0579  1.0418
38811SOL     OW19709   1.547   4.971   2.235 -0.3509 -1.0147 -0.0924
38811SOL    HW119710   1.594   4.888   2.223  0.9970 -0.3856  0.5894
38811SOL    HW219711   1.505   4.962   2.321 -1.3845 -1.5214 -0.6380
38812SOL     OW19712   6.665  11.199   9.036 -0.3046  0.3600  0.0130
38812SOL    HW119713   6.725  11.269   9.063  0.1435 -0.0789  0.1752
38812SOL    HW219714   6.705  11.119   9.070 -0.7875  0.0186 -0.2133
38813SOL     OW19715   4.504   6.766   8.721  0.3532 -0.0119 -0.1967
38813SOL    HW119716   4.468   6.725   8.642 -0.0088  0.7592 -0.4393
38813SOL    HW219717   4.579   6.710   8.745  1.3069  0.4893 -1.8486
38814SOL     OW19718   9.533   5.548   6.664  0.1246 -0.3844  0.8194
38814SOL    HW119719   9.616   5.596   6.659 -0.0086 -0.0719  1.4804
38814SOL    HW219720   9.517   5.537   6.758 -0.7665 -0.1167  0.7137
38815SOL     OW19721   1.153   2.167   7.971 -0.3128  0.1404  0.1083
38815SOL    HW119722   1.097   2.172   7.894  0.9579  1.5139 -0.7774
38815SOL    HW219723   1.217   2.100   7.950  0.3387  0.8647 -0.2677
38816SOL     OW19724   8.803   9.317   7.463 -0.0280 -0.2751 -0.0864
38816SOL    HW119725   8.892   9.344   7.487  0.6176 -1.7407 -0.7274
38816SOL    HW219726   8.768   9.277   7.542  0.7335 -1.7287 -0.4516
38817SOL     OW19727   1.686  10.893   5.646  0.1316  0.1472 -0.0316
38817SOL    HW119728   1.652  10.803   5.649 -1.2733  0.6686  0.8937
38817SOL    HW219729   1.746  10.898   5.720  0.4699 -0.1137 -0.2846
38818SOL     OW19730   9.725   6.523   0.931 -0.6547  0.0201  0.3230
38818SOL    HW119731   9.723   6.588   1.002  2.0496  2.9988 -2.0334
38818SOL    HW219732   9.660   6.554   0.868 -0.0805 -0.1301 -0.3607
38819SOL     OW19733   8.338  10.295   6.429 -0.6934  0.4094 -0.1014
38819SOL    HW119734   8.346  10.200   6.431  0.5839  0.5050 -0.1943
38819SOL    HW219735   8.407  10.324   6.370 -0.2451  1.4729  0.9007
38820SOL     OW19736   2.963   7.094   9.833  0.1165 -0.1711  0.4808
38820SOL    HW119737   3.054   7.109   9.810 -0.1220  2.3185  0.8299
38820SOL    HW219738   2.966   7.052   9.919  0.9034 -2.0350 -0.4103
38821SOL     OW19739   4.243   2.991   9.800 -0.4015  0.5092 -0.3162
38821SOL    HW119740   4.269   3.061   9.739 -0.3032  1.2764  0.5726
38821SOL    HW219741   4.308   2.997   9.870 -0.0370 -0.8942 -0.5163
38822SOL     OW19742   1.158   4.989   7.247 -0.0355  0.5719 -0.1275
38822SOL    HW119743   1.157   4.944   7.162  0.6905  1.3771 -0.5772
38822SOL    HW219744   1.249   5.018   7.257 -0.1390  0.5657  0.8861
38823SOL     OW19745   9.194   2.270   8.367  0.2103  0.2719 -0.6183
38823SOL    HW119746   9.163   2.305   8.451  0.4601 -0.3191 -0.2784
38823SOL    HW219747   9.131   2.202   8.345 -2.2002  2.9333 -2.8604
38824SOL     OW19748   1.044  10.649   9.329 -0.3766  0.0331 -0.8074
38824SOL    HW119749   0.953  10.673   9.309 -0.4440  0.3528 -0.1388
38824SOL    HW219750   1.062  10.574   9.271 -1.4182 -0.7171 -0.1968
38825SOL     OW19751   9.786   7.167   0.983  0.8306 -0.3282 -0.2162
38825SOL    HW119752   9.819   7.091   1.030  0.6093  0.5946  1.5077
38825SOL    HW219753   9.760   7.133   0.898  1.8007 -1.9519  0.0975
38826SOL     OW19754   7.303   5.708   8.110 -0.0056 -0.0857 -0.3448
38826SOL    HW119755   7.330   5.706   8.202  1.5642  0.0336 -0.7706
38826SOL    HW219756   7.334   5.625   8.074 -0.2481  0.0444 -0.8594
38827SOL     OW19757   3.254   0.166   1.662  0.5736  0.0872  0.1125
38827SOL    HW119758   3.223   0.146   1.750 -1.1907  1.2325 -0.1896
38827SOL    HW219759   3.266   0.081   1.620  1.5139 -0.4669  1.4587
38828SOL     OW19760   0.721   0.970   7.560 -0.2064  0.7824  0.1090
38828SOL    HW119761   0.812   0.983   7.589  0.0833 -1.8502  0.6903
38828SOL    HW219762   0.693   0.891   7.606 -3.4241  2.4361  1.2503
38829SOL     OW19763   2.489   5.967  10.249  0.0855  0.1101  0.1587
38829SOL    HW119764   2.566   5.992  10.300 -0.4395 -1.8537  2.0882
38829SOL    HW219765   2.522   5.909  10.181  0.6244  1.5926 -0.8757
38830SOL     OW19766   7.449   6.779   1.373  0.0170  0.1602  0.5804
38830SOL    HW119767   7.389   6.840   1.331  0.7287  1.3150  1.1667
38830SOL    HW219768   7.395   6.704   1.398 -1.2746  1.3299  1.4396
38831SOL     OW19769   7.372   2.623   8.745 -0.2470  0.2223 -0.4327
38831SOL    HW119770   7.351   2.704   8.699  0.1531  1.0052  0.7389
38831SOL    HW219771   7.455   2.640   8.788 -0.9748 -0.2027  1.2131
38832SOL     OW19772   5.127  11.237   0.324  0.3618 -0.3816 -0.1438
38832SOL    HW119773   5.171  11.318   0.350  1.0697 -1.5227  2.5252
38832SOL    HW219774   5.089  11.203   0.405 -3.7243 -0.5907 -1.9125
38833SOL     OW19775   9.899  10.635   8.179  0.0633  0.6567 -0.0350
38833SOL    HW119776   9.864  10.639   8.268 -0.5601  0.4085 -0.2668
38833SOL    HW219777   9.984  10.591   8.189 -0.5374 -0.4615  0.2876
38834SOL     OW19778   7.550   3.898   8.128 -0.1778 -0.5781 -0.1590
38834SOL    HW119779   7.474   3.952   8.151  0.9507  0.2203  2.0022
38834SOL    HW219780   7.527   3.810   8.157 -0.6714 -0.5481 -0.4569
38835SOL     OW19781   7.261   1.656   0.677  0.8366  0.2090 -0.0040
38835SOL    HW119782   7.277   1.641   0.770 -0.6735 -0.2605  0.2113
38835SOL    HW219783   7.341   1.626   0.633  0.2852 -2.9968  0.8773
38836SOL     OW19784   4.454   0.711   0.772 -0.7493 -0.0181 -0.0586
38836SOL    HW119785   4.499   0.707   0.688 -0.3426  2.4274 -0.0220
38836SOL    HW219786   4.361   0.713   0.750 -0.7039 -0.9221 -0.3542
38837SOL     OW19787   1.515   0.590   5.757 -0.1021  0.1410  0.1877
38837SOL    HW119788   1.551   0.678   5.759  0.1440  0.0442  0.1720
38837SOL    HW219789   1.575   0.538   5.811  0.3710 -0.2330 -0.6719
38838SOL     OW19790  10.306   7.131   8.756  0.6800 -0.3663  0.4191
38838SOL    HW119791  10.319   7.222   8.783 -1.2311 -0.3810  1.5654
38838SOL    HW219792  10.316   7.081   8.837 -0.8952 -0.8712  0.3313
38839SOL     OW19793   7.961   3.721   5.973  0.5075  0.4726 -0.1242
38839SOL    HW119794   7.881   3.714   6.025 -0.0566 -0.1198 -1.0626
38839SOL    HW219795   7.974   3.815   5.962  0.4020  0.5970  0.7068
38840SOL     OW19796   6.503   7.133   4.629  0.1404  0.3026  0.1678
38840SOL    HW119797   6.426   7.085   4.659 -0.1609  2.0884  2.5302
38840SOL    HW219798   6.576   7.090   4.673  0.0569  0.9072  0.9139
38841SOL     OW19799   1.514  11.101   8.957  0.7629 -0.0393  0.5124
38841SOL    HW119800   1.492  11.054   9.037  1.5577 -0.7357  0.3261
38841SOL    HW219801   1.594  11.061   8.926 -0.6083 -1.2343 -1.7652
38842SOL     OW19802   1.515   0.750   6.294 -0.2328  0.6507 -0.1560
38842SOL    HW119803   1.538   0.820   6.233  1.5193 -0.6060 -1.0428
38842SOL    HW219804   1.579   0.759   6.365  1.6348 -1.3727 -1.4245
38843SOL     OW19805   9.662   3.132   5.599  0.4413 -0.0671  0.0280
38843SOL    HW119806   9.607   3.055   5.583 -1.6322  0.9901  1.6317
38843SOL    HW219807   9.614   3.205   5.561  0.9244  0.8428  1.0893
38844SOL     OW19808   4.645   4.741   3.202  0.0056  0.1106 -0.8491
38844SOL    HW119809   4.608   4.675   3.143  1.4431 -1.4079 -0.1200
38844SOL    HW219810   4.587   4.741   3.278 -0.0445 -0.2598 -0.8867
38845SOL     OW19811   7.153   8.586   6.987  0.2461 -0.1958 -0.3431
38845SOL    HW119812   7.145   8.648   7.060  1.1280 -1.0736  0.5321
38845SOL    HW219813   7.199   8.511   7.025 -0.5128 -1.2507 -1.4648
38846SOL     OW19814   4.919   6.135   6.860 -0.3995 -0.6989  0.0230
38846SOL    HW119815   4.970   6.067   6.816 -1.2777 -1.5532  0.2693
38846SOL    HW219816   4.968   6.153   6.940 -0.6022 -1.7130  0.3960
38847SOL     OW19817   1.311   7.799   7.208  0.2272  0.6247 -0.3124
38847SOL    HW119818   1.232   7.815   7.157  0.4017 -0.5708 -0.9999
38847SOL    HW219819   1.381   7.797   7.143  0.7097  0.8090  0.1887
38848SOL     OW19820   0.705   5.799   2.248  0.3498 -0.0912 -0.1664
38848SOL    HW119821   0.780   5.856   2.264 -0.8887  1.7216 -0.5267
38848SOL    HW219822   0.718   5.768   2.158  2.1605 -2.2362  0.7577
38849SOL     OW19823   6.790   6.983   0.127  0.4811  1.4468  0.4579
38849SOL    HW119824   6.782   7.042   0.203  1.5777  1.7584  0.3454
38849SOL    HW219825   6.844   6.911   0.159 -0.8501  0.4696  0.5925
38850SOL     OW19826   9.256   1.581  10.591  0.4564 -0.6851 -0.0323
38850SOL    HW119827   9.167   1.549  10.608  0.2176  0.0346  0.0956
38850SOL    HW219828   9.274   1.641  10.664  0.9258 -0.5770 -0.2349
38851SOL     OW19829   6.827   1.759   0.489  0.0890 -0.4322  0.0706
38851SOL    HW119830   6.873   1.712   0.559 -1.6044 -2.0930  0.1726
38851SOL    HW219831   6.880   1.743   0.411  0.8130 -0.4883  0.5675
38852SOL     OW19832   2.004   6.033   2.989  0.5288 -0.1446 -0.1949
38852SOL    HW119833   2.018   6.015   3.082  0.4495  0.8934  0.0260
38852SOL    HW219834   2.093   6.044   2.953  0.6549 -2.0435 -0.5834
38853SOL     OW19835   1.321   9.202   9.163 -0.7513  0.3849  0.2304
38853SOL    HW119836   1.411   9.194   9.194 -0.5015 -0.5803 -0.6905
38853SOL    HW219837   1.325   9.266   9.093 -0.6584 -0.1231 -0.2347
38854SOL     OW19838   5.492  10.504   1.335 -0.3276  0.5224  0.1849
38854SOL    HW119839   5.499  10.515   1.430  4.3428  0.1142  0.0966
38854SOL    HW219840   5.529  10.585   1.299 -0.7485  0.0911 -1.2832
38855SOL     OW19841   7.764   2.597   4.407  0.2680 -0.3409 -0.3395
38855SOL    HW119842   7.747   2.528   4.343  0.8610  0.1467 -1.0296
38855SOL    HW219843   7.807   2.666   4.357  0.3481  0.2258  0.5005
38856SOL     OW19844  11.085   3.179   2.158  0.4787 -0.0407 -0.0912
38856SOL    HW119845  11.028   3.113   2.117  0.9299 -0.5694  0.1127
38856SOL    HW219846  11.040   3.262   2.143  0.3335 -0.2912 -1.1193
38857SOL     OW19847   1.997   7.435  10.419 -0.2765  0.2946 -0.1515
38857SOL    HW119848   2.036   7.348  10.424 -0.8756 -0.0608 -1.3834
38857SOL    HW219849   1.976   7.457  10.510  1.5983 -0.0338  0.4081
38858SOL     OW19850   3.448   4.543  10.682  0.1183 -0.3821 -0.4905
38858SOL    HW119851   3.477   4.635  10.676  0.7525 -0.5850 -0.5950
38858SOL    HW219852   3.529   4.492  10.677 -0.3039 -0.9886 -1.4209
38859SOL     OW19853   2.996   7.699   3.535  0.0122 -0.0015 -0.7313
38859SOL    HW119854   3.042   7.759   3.594  0.1716  0.2842 -1.1401
38859SOL    HW219855   3.066   7.660   3.482  0.0565 -1.5178  0.3852
38860SOL     OW19856  10.180  10.591   7.395  0.4977 -0.1768  0.3153
38860SOL    HW119857  10.275  10.592   7.406  0.5881 -1.2833 -0.2172
38860SOL    HW219858  10.167  10.563   7.305 -0.3369  0.6443  0.1653
38861SOL     OW19859   0.389   7.987   2.623 -0.2709 -0.4179 -0.3440
38861SOL    HW119860   0.333   8.010   2.549  0.4016  1.2382 -0.3861
38861SOL    HW219861   0.472   8.030   2.604  0.3698 -1.1512  0.6922
38862SOL     OW19862   0.700   3.626   5.164  0.1223 -0.4036 -0.6241
38862SOL    HW119863   0.777   3.570   5.163  1.8629  1.7789  0.6129
38862SOL    HW219864   0.735   3.715   5.157 -2.3119  0.6583 -0.3512
38863SOL     OW19865  11.064   3.250   8.517 -0.5161 -0.9908  0.3386
38863SOL    HW119866  11.057   3.162   8.480 -1.6040 -0.5399 -0.5563
38863SOL    HW219867  11.058   3.309   8.442 -1.1534 -0.1057  1.0579
38864SOL     OW19868   3.606   9.740   1.095 -0.3835 -0.1879  0.2369
38864SOL    HW119869   3.519   9.702   1.084 -0.1584 -0.6512  0.0478
38864SOL    HW219870   3.654   9.677   1.149  0.8412 -1.5292 -2.2531
38865SOL     OW19871  10.031   9.060   7.611 -0.1382 -0.2538  0.2880
38865SOL    HW119872  10.115   9.105   7.613  0.2845 -1.0285  0.1065
38865SOL    HW219873   9.972   9.119   7.657  0.2089  0.8688 -0.6630
38866SOL     OW19874   2.719   4.490   8.370  0.0413  0.1274  0.1811
38866SOL    HW119875   2.673   4.469   8.289  0.4611  0.9302 -0.2857
38866SOL    HW219876   2.651   4.492   8.437 -0.0139 -2.8582  0.3359
38867SOL     OW19877   6.118   7.761   3.304  0.7023 -0.1856  0.1278
38867SOL    HW119878   6.203   7.799   3.280  0.5345 -0.0015 -0.1870
38867SOL    HW219879   6.076   7.743   3.220  0.2199  0.1909  0.2899
38868SOL     OW19880   2.873   4.538   3.607 -0.0782  0.4109 -0.0898
38868SOL    HW119881   2.889   4.530   3.701 -0.7159  0.7483  0.0594
38868SOL    HW219882   2.779   4.557   3.601 -0.5574 -1.9812 -0.9299
38869SOL     OW19883  10.911   0.796   0.371  0.0947  0.5979 -0.1258
38869SOL    HW119884  11.002   0.824   0.375 -0.1392  1.4650 -0.7245
38869SOL    HW219885  10.915   0.701   0.359  0.9151  0.6405 -0.2077
38870SOL     OW19886   8.664   4.984   4.680 -0.8052 -0.3540  0.1928
38870SOL    HW119887   8.747   5.023   4.709 -0.9571  1.0499 -1.1221
38870SOL    HW219888   8.605   4.996   4.754 -0.8752  2.1220 -0.1737
38871SOL     OW19889  11.041   8.734   2.033  0.6736 -0.1435 -0.3802
38871SOL    HW119890  11.104   8.689   1.977  1.0667  0.1907 -0.2090
38871SOL    HW219891  11.046   8.687   2.117  0.5368 -0.2508 -0.4307
38872SOL     OW19892   0.929  11.056  11.337 -0.4176  0.2199  0.1816
38872SOL    HW119893   0.836  11.071  11.325 -0.3417 -0.0578 -0.8558
38872SOL    HW219894   0.967  11.143  11.350 -0.8096  0.3313  0.6093
38873SOL     OW19895   8.168   1.021   5.200 -1.4561  0.0420  0.0578
38873SOL    HW119896   8.194   1.111   5.216 -0.5401 -0.4852  1.8414
38873SOL    HW219897   8.142   1.019   5.108  0.0499  1.7479 -0.4642
38874SOL     OW19898   3.023   3.805   3.075 -0.5257  0.3296  0.2311
38874SOL    HW119899   3.011   3.776   2.985 -2.2873 -0.0292  0.5475
38874SOL    HW219900   3.090   3.747   3.111  1.9701  1.9653 -1.4663
38875SOL     OW19901   2.300   7.631   7.273 -0.1841  0.1190  0.4635
38875SOL    HW119902   2.209   7.608   7.292 -0.4969  0.2690 -0.7708
38875SOL    HW219903   2.348   7.549   7.282 -0.5658 -0.1138  0.4031
38876SOL     OW19904   2.794   4.660   4.305 -0.0211  0.0004 -0.4623
38876SOL    HW119905   2.774   4.607   4.382 -0.4545  1.2823  0.3379
38876SOL    HW219906   2.852   4.729   4.337  2.3475 -1.1925 -1.9132
38877SOL     OW19907   7.105   3.785  11.126 -0.9576 -0.3758 -0.5722
38877SOL    HW119908   7.110   3.695  11.096 -1.6559 -0.8225  0.5955
38877SOL    HW219909   7.016   3.813  11.105 -1.2505 -0.4888  0.4763
38878SOL     OW19910   1.374   1.998   4.767  0.0161 -0.4410 -0.7337
38878SOL    HW119911   1.368   2.093   4.771 -1.1697 -0.4342 -1.8579
38878SOL    HW219912   1.376   1.970   4.859 -1.8354  0.5861 -0.3208
38879SOL     OW19913   9.502  10.331   8.696  0.0113  0.1453 -0.0762
38879SOL    HW119914   9.469  10.351   8.608  0.2013 -0.1086 -0.2080
38879SOL    HW219915   9.501  10.414   8.742  0.2769  0.3563 -0.4441
38880SOL     OW19916   2.888   7.190   7.596  0.3417 -0.6416  0.2672
38880SOL    HW119917   2.960   7.208   7.535  0.6775 -2.1498  0.1660
38880SOL    HW219918   2.927   7.197   7.683  0.7477 -1.8512  0.2046
38881SOL     OW19919   6.140   6.833   7.043 -0.5754 -0.4728  0.8007
38881SOL    HW119920   6.130   6.901   7.109  1.0260 -0.0820  0.6664
38881SOL    HW219921   6.168   6.755   7.092  0.7917 -0.1336  0.5828
38882SOL     OW19922  10.458  10.658   2.846 -0.6264 -1.1572  1.0015
38882SOL    HW119923  10.422  10.692   2.764  1.7190 -1.2233 -0.1620
38882SOL    HW219924  10.383  10.653   2.905 -1.9031  1.6772 -0.1826
38883SOL     OW19925   3.866   6.147   6.860 -0.3181 -0.1689  0.2679
38883SOL    HW119926   3.818   6.186   6.933  2.0446 -1.7374  2.8234
38883SOL    HW219927   3.804   6.087   6.819 -1.3130 -0.2506  1.8308
38884SOL     OW19928   3.030   8.511   1.246 -0.5713  0.0700 -0.2057
38884SOL    HW119929   2.987   8.508   1.332  1.3958  0.8955  0.8682
38884SOL    HW219930   3.123   8.500   1.265 -0.1105 -0.0059 -2.2819
38885SOL     OW19931   3.955   3.800   9.800 -0.7098  0.1825 -0.3114
38885SOL    HW119932   4.013   3.876   9.800  0.6418 -0.7463  1.6633
38885SOL    HW219933   3.870   3.835   9.773  0.3597  1.9117 -1.6964
38886SOL     OW19934   7.584   4.137   2.717  0.3403 -0.0159 -0.3653
38886SOL    HW119935   7.614   4.223   2.689 -0.3172  0.6835  1.0308
38886SOL    HW219936   7.665   4.085   2.724  0.9808  1.0690  0.7086
38887SOL     OW19937   6.825   9.727   0.127  0.1013  0.1004 -0.2486
38887SOL    HW119938   6.919   9.745   0.130  0.2433 -0.5428 -0.6296
38887SOL    HW219939   6.787   9.804   0.085  0.5061  0.1797 -0.4726
38888SOL     OW19940   2.400   6.249   6.332 -0.1443  0.6504 -0.4149
38888SOL    HW119941   2.322   6.269   6.384 -0.4750  0.8417 -0.9660
38888SOL    HW219942   2.473   6.281   6.384 -0.2515 -1.2820  1.0183
38889SOL     OW19943   4.060   0.880   5.895 -0.3057  0.0740  0.0969
38889SOL    HW119944   4.039   0.973   5.900  0.8665  0.3494  0.1118
38889SOL    HW219945   4.097   0.868   5.807  0.2965 -0.2157  0.3874
38890SOL     OW19946   4.443   9.649   7.410  0.3654 -0.2862 -0.6692
38890SOL    HW119947   4.428   9.740   7.386  0.9813  0.2047  0.6827
38890SOL    HW219948   4.359   9.619   7.444  0.5695  0.3276  0.4539
38891SOL     OW19949   8.819  10.149   5.188  0.1359 -0.4845 -0.0728
38891SOL    HW119950   8.898  10.190   5.152 -0.1660 -0.1451 -0.3460
38891SOL    HW219951   8.815  10.064   5.145  1.1098 -1.0843  0.9533
38892SOL     OW19952   3.382   0.571   0.491  0.3611  0.1207 -0.0808
38892SOL    HW119953   3.327   0.642   0.523 -0.0461 -0.2486  0.0451
38892SOL    HW219954   3.458   0.615   0.453 -1.0624  0.7734 -2.3408
38893SOL     OW19955   2.679   1.092   2.166  0.5547  0.3122 -0.2703
38893SOL    HW119956   2.751   1.104   2.104  1.8790  0.7873  1.3059
38893SOL    HW219957   2.616   1.161   2.142  1.3562  0.9354 -0.6486
38894SOL     OW19958   4.533   6.188   1.059  0.2400 -0.2052 -0.3343
38894SOL    HW119959   4.624   6.202   1.086 -0.0806 -0.1742  0.8053
38894SOL    HW219960   4.496   6.277   1.051 -0.6349 -0.1563  2.7532
38895SOL     OW19961   5.076  10.530   6.976  0.4242  0.1082 -0.2578
38895SOL    HW119962   5.017  10.542   6.902  0.5702 -2.6430 -0.9435
38895SOL    HW219963   5.162  10.555   6.943  0.5146 -1.2544 -1.1326
38896SOL     OW19964   4.979  10.259   0.653 -0.5084 -0.2761  0.3125
38896SOL    HW119965   4.890  10.270   0.686 -0.4234  0.8529  0.2178
38896SOL    HW219966   5.030  10.326   0.700  0.7214 -2.1870  1.8605
38897SOL     OW19967   4.936   2.123   4.019 -0.1454 -0.3086  0.3205
38897SOL    HW119968   4.914   2.057   4.084  1.1778 -0.9968  0.0903
38897SOL    HW219969   4.857   2.177   4.012 -1.6979 -2.5156 -0.2876
38898SOL     OW19970  10.518   6.179   5.973  0.3878  0.1381 -0.2462
38898SOL    HW119971  10.424   6.184   5.992 -0.0418  1.4543 -2.4127
38898SOL    HW219972  10.552   6.117   6.037 -2.0093 -0.5571  0.4455
38899SOL     OW19973   7.144   1.632   8.990  0.2866 -0.1560 -0.6949
38899SOL    HW119974   7.151   1.566   9.059  0.8573  0.0235 -0.5752
38899SOL    HW219975   7.070   1.687   9.017  0.0235 -0.5459 -0.6235
38900SOL     OW19976   2.671   1.445   5.386 -0.4706 -0.3850 -0.1803
38900SOL    HW119977   2.693   1.428   5.295  0.0875 -3.3752  0.4083
38900SOL    HW219978   2.756   1.450   5.431 -0.7501 -1.1878  0.4740
38901SOL     OW19979   3.832   5.269  11.336 -0.6249  0.2403  0.1389
38901SOL    HW119980   3.769   5.267  11.407  0.8613  0.7544  1.5417
38901SOL    HW219981   3.863   5.179  11.329  0.0325  0.3941  0.9305
38902SOL     OW19982   0.754   4.638  11.345  0.0614 -0.2691 -0.6722
38902SOL    HW119983   0.704   4.668  11.269 -0.6753 -2.1161 -0.9722
38902SOL    HW219984   0.695   4.654  11.419  0.9108  1.8422 -0.3920
38903SOL     OW19985   9.417   8.333   0.803  0.3572  0.5245  0.3571
38903SOL    HW119986   9.371   8.290   0.730  0.7680  0.2510  0.2511
38903SOL    HW219987   9.508   8.334   0.775  0.5411  0.2714  0.9397
38904SOL     OW19988   1.384   5.659   4.414  0.1585 -0.3723 -0.2183
38904SOL    HW119989   1.340   5.735   4.454  0.6424  0.5364 -1.3539
38904SOL    HW219990   1.357   5.661   4.323  2.0511 -0.1352 -0.8065
38905SOL     OW19991   3.070   4.549   6.827 -0.4774 -0.0483 -0.0017
38905SOL    HW119992   3.070   4.454   6.833  1.0815 -0.1516 -1.0462
38905SOL    HW219993   2.980   4.574   6.846 -0.4865 -1.5517  2.3237
38906SOL     OW19994   4.866   2.121   7.021  0.1791 -0.2950  0.7953
38906SOL    HW119995   4.874   2.058   6.948 -0.5073 -1.3578  1.6127
38906SOL    HW219996   4.779   2.160   7.009  0.1978 -0.2363  0.8550
38907SOL     OW19997   6.269  10.114   2.797 -0.1103 -0.3770 -0.3889
38907SOL    HW119998   6.364  10.127   2.807 -0.0234  0.0586 -1.6751
38907SOL    HW219999   6.254  10.026   2.832  0.9570 -0.9040 -1.1877
38908SOL     OW20000  10.234   4.188  11.379  0.2571 -0.2274  0.0151
38908SOL    HW120001  10.287   4.109  11.390  0.3815 -0.2570 -0.8047
38908SOL    HW220002  10.225   4.223  11.468  0.1903 -1.1692  0.3918
38909SOL     OW20003   4.499   0.773   1.336  0.7653 -0.2670  0.5270
38909SOL    HW120004   4.450   0.791   1.416 -0.6944 -0.4705 -0.2833
38909SOL    HW220005   4.584   0.741   1.366 -0.3785 -2.1057  2.0260
38910SOL     OW20006  11.042   6.665   9.919 -0.0508 -0.4880 -0.9201
38910SOL    HW120007  10.972   6.709   9.968 -0.5756  0.2256 -2.2502
38910SOL    HW220008  11.088   6.612   9.984 -0.1434  1.1213  0.5144
38911SOL     OW20009  11.308   1.043   9.153  0.0071 -0.0848  0.9471
38911SOL    HW120010  11.350   0.992   9.084 -0.1455 -1.4173  1.8005
38911SOL    HW220011  11.277   0.977   9.216  0.6347  1.0988  2.5674
38912SOL     OW20012   2.790   4.663   2.542 -0.1700  0.2336 -0.2914
38912SOL    HW120013   2.735   4.666   2.621  0.3155 -1.2769  0.1476
38912SOL    HW220014   2.818   4.754   2.529  0.6957  0.3730  1.9893
38913SOL     OW20015   9.296   3.149   1.992 -0.2585 -0.3623 -0.4696
38913SOL    HW120016   9.201   3.163   2.000 -0.0373  2.3090 -1.4112
38913SOL    HW220017   9.327   3.143   2.082 -0.8804  3.0732  0.1158
38914SOL     OW20018   7.869   2.320  11.165  0.4357 -0.3675  0.0562
38914SOL    HW120019   7.884   2.289  11.076 -2.0340  0.8512 -0.8798
38914SOL    HW220020   7.847   2.242  11.215 -0.8754 -0.7705 -1.0918
38915SOL     OW20021   2.284   6.990   2.994  0.0660 -0.4895  0.1463
38915SOL    HW120022   2.379   6.988   2.983  0.1308  0.2655  0.4946
38915SOL    HW220023   2.254   6.903   2.966  0.4541  0.3838 -3.6192
38916SOL     OW20024   0.798   9.650   1.158 -0.2419  0.5622 -0.1957
38916SOL    HW120025   0.783   9.736   1.119  1.1937  1.7823  1.7963
38916SOL    HW220026   0.865   9.611   1.103 -0.5178  0.9152 -0.7980
38917SOL     OW20027   1.523   8.906   9.979 -0.0961 -0.4530  0.1110
38917SOL    HW120028   1.576   8.833   9.945 -1.1220 -1.5867  0.8370
38917SOL    HW220029   1.578   8.946  10.046  1.0851  0.4354 -1.3535
38918SOL     OW20030   7.937   8.941   7.871  0.4846  0.5495 -0.2288
38918SOL    HW120031   7.924   9.029   7.836 -2.9015  0.1151 -0.3997
38918SOL    HW220032   7.930   8.952   7.966  0.3791  0.5067 -0.2316
38919SOL     OW20033  10.123   1.144  10.706  0.0666 -0.1256 -0.4805
38919SOL    HW120034  10.089   1.212  10.764  1.5715 -0.6762  1.1297
38919SOL    HW220035  10.092   1.062  10.745  2.8473 -0.6353  0.9240
38920SOL     OW20036   8.804   8.385  10.035 -0.0179 -0.3915  0.3153
38920SOL    HW120037   8.732   8.447  10.037  0.8935  0.6739  2.0079
38920SOL    HW220038   8.817   8.366   9.942 -2.9785 -1.2916 -0.0216
38921SOL     OW20039   5.186   7.201  10.204  0.2859  0.5485  0.4140
38921SOL    HW120040   5.167   7.127  10.146  0.5189  0.0018  1.0220
38921SOL    HW220041   5.203   7.161  10.289 -0.3492  1.3633  0.9346
38922SOL     OW20042   8.753  10.264  10.597 -0.0061  0.7646 -0.2380
38922SOL    HW120043   8.782  10.173  10.600  2.3813  1.4568 -0.5066
38922SOL    HW220044   8.687  10.270  10.666 -0.6600 -1.2928 -0.6279
38923SOL     OW20045   3.181   9.937   9.086 -0.3893  0.0665 -0.1782
38923SOL    HW120046   3.203  10.028   9.105 -1.9062  0.3783  0.2636
38923SOL    HW220047   3.086   9.932   9.102 -0.1451 -1.8684  0.8832
38924SOL     OW20048   5.830   9.714   6.655 -0.3507 -0.3876  0.3869
38924SOL    HW120049   5.770   9.789   6.650  0.1194 -0.0662 -0.9293
38924SOL    HW220050   5.851   9.695   6.564  2.3526  0.1885  0.8066
38925SOL     OW20051   2.140  10.964   6.889 -0.0865 -0.4065 -0.1222
38925SOL    HW120052   2.182  10.938   6.807  0.3012 -2.1623  0.5805
38925SOL    HW220053   2.146  10.886   6.944 -1.4121  0.3496  1.1521
38926SOL     OW20054   5.126   9.945   9.206 -0.1334  0.4340  0.0182
38926SOL    HW120055   5.194   9.892   9.248  0.6690 -0.3062 -2.0778
38926SOL    HW220056   5.121   9.911   9.117 -1.3740  2.2740 -0.6676
38927SOL     OW20057  10.539   0.065   4.485 -0.1684  0.6220 -1.0384
38927SOL    HW120058  10.625   0.097   4.455 -0.2055  1.1614 -0.5821
38927SOL    HW220059  10.520   0.117   4.563 -1.5524  1.4891 -1.9198
38928SOL     OW20060   0.117   9.508   5.562  0.5747  0.5837  0.7586
38928SOL    HW120061   0.169   9.473   5.489 -0.8189 -1.3906  0.6501
38928SOL    HW220062   0.052   9.564   5.520  0.3653  0.1876  0.5429
38929SOL     OW20063   9.922   6.881   2.327  0.0597  0.1553 -0.2360
38929SOL    HW120064   9.870   6.805   2.299 -1.6127 -0.0017  2.8419
38929SOL    HW220065  10.011   6.848   2.334 -0.4097 -1.1814 -0.2767
38930SOL     OW20066  10.761   3.547   0.961 -0.2471  0.2597 -0.0178
38930SOL    HW120067  10.684   3.574   0.912 -1.5728  0.1434  1.8992
38930SOL    HW220068  10.729   3.533   1.050  2.0290  0.3472  0.8700
38931SOL     OW20069   3.873   0.831   1.122  0.1860 -0.2161 -0.3146
38931SOL    HW120070   3.779   0.820   1.134  0.4460 -2.2859  0.2472
38931SOL    HW220071   3.907   0.742   1.120  2.0903  0.4830 -0.9661
38932SOL     OW20072   0.273  10.891   3.835 -0.7018 -0.0470  0.5815
38932SOL    HW120073   0.298  10.846   3.754 -1.0003  0.9990 -0.1172
38932SOL    HW220074   0.178  10.891   3.835 -0.7452  1.7023 -0.1221
38933SOL     OW20075   7.962   8.647  10.484 -0.4538 -0.1065 -0.0448
38933SOL    HW120076   7.989   8.613  10.569  0.1225 -1.1241 -0.6263
38933SOL    HW220077   7.916   8.575  10.442 -0.9999  0.4823 -0.4858
38934SOL     OW20078   5.704  10.850   8.458  0.2209  0.2043  0.1661
38934SOL    HW120079   5.777  10.863   8.519  1.1131 -4.6905  0.5430
38934SOL    HW220080   5.732  10.896   8.378  1.8473  1.6613  1.4813
38935SOL     OW20081   0.104  10.957   8.268  0.1791 -0.2775 -0.1046
38935SOL    HW120082   0.175  11.011   8.234 -0.6385  0.7937 -0.1464
38935SOL    HW220083   0.072  10.908   8.192  0.2249 -0.0220 -0.2889
38936SOL     OW20084   3.637   2.122   2.452 -0.4000 -0.3471  0.3254
38936SOL    HW120085   3.647   2.031   2.425 -0.5955 -0.8366  1.7696
38936SOL    HW220086   3.725   2.149   2.479 -0.3487 -0.1229 -0.0670
38937SOL     OW20087   8.573  10.519   8.923  0.2324 -0.2200  0.1042
38937SOL    HW120088   8.566  10.556   8.835  0.4514 -0.1507  0.1138
38937SOL    HW220089   8.664  10.491   8.930  0.4368  0.4977  0.5888
38938SOL     OW20090   4.084   8.475   4.718 -0.4127  0.3472 -0.1984
38938SOL    HW120091   4.107   8.387   4.747  0.9337  0.6863 -0.1706
38938SOL    HW220092   4.108   8.532   4.791 -0.6701  0.8064 -0.4641
38939SOL     OW20093   6.627   6.390   5.595  0.1590 -0.7508 -0.1869
38939SOL    HW120094   6.552   6.408   5.539  0.4199  2.4330  0.2890
38939SOL    HW220095   6.620   6.454   5.665  2.9037 -0.8614  0.2878
38940SOL     OW20096   8.899  10.112   0.494 -0.9223 -0.0071 -0.2086
38940SOL    HW120097   8.932  10.028   0.463 -0.0156  0.1376  0.3248
38940SOL    HW220098   8.921  10.114   0.587 -1.7650  0.4335 -0.0023
38941SOL     OW20099   3.921   5.362   8.070  0.0097  0.1111 -0.4180
38941SOL    HW120100   3.987   5.309   8.115 -1.3132 -0.6599  0.7183
38941SOL    HW220101   3.923   5.332   7.979  1.8672  0.7936 -0.6431
38942SOL     OW20102   1.485   2.965   7.257 -0.4552 -0.4379 -0.3949
38942SOL    HW120103   1.468   2.884   7.305 -2.8615  0.1885 -0.0576
38942SOL    HW220104   1.408   2.976   7.201  0.6189  0.7564 -1.7091
38943SOL     OW20105   8.390   6.136   9.419  0.3388 -0.0962 -0.7334
38943SOL    HW120106   8.443   6.100   9.348 -0.6067  1.6283 -2.4057
38943SOL    HW220107   8.299   6.126   9.390 -0.0751  0.6606  0.2200
38944SOL     OW20108  11.243   6.968   3.885 -0.6234 -0.3389  0.3868
38944SOL    HW120109  11.264   6.918   3.806 -1.7874 -0.1066 -0.0939
38944SOL    HW220110  11.244   7.059   3.856 -1.6191 -0.2867  0.4815
38945SOL     OW20111   5.977   3.820   0.133 -0.1769  0.2614 -0.3453
38945SOL    HW120112   6.032   3.863   0.067  1.7015 -1.4075  0.0475
38945SOL    HW220113   6.012   3.851   0.216  1.0787 -1.7727 -0.0627
38946SOL     OW20114   7.080   1.093   9.131 -0.6630  0.1261  0.1087
38946SOL    HW120115   7.157   1.044   9.159 -0.9784 -0.0486  0.6677
38946SOL    HW220116   7.032   1.033   9.074 -1.0309 -0.2159  0.7661
38947SOL     OW20117   8.168   4.920   0.605 -0.2198 -0.1222 -0.2772
38947SOL    HW120118   8.172   4.837   0.558 -2.1752  0.6158 -1.8321
38947SOL    HW220119   8.119   4.900   0.685 -1.3084 -0.3309 -0.9855
38948SOL     OW20120   0.119  10.462   4.567  0.4333 -0.0382  0.0096
38948SOL    HW120121   0.058  10.400   4.527  2.1485 -1.2228 -0.8960
38948SOL    HW220122   0.063  10.524   4.614 -1.4316 -1.2154 -0.5548
38949SOL     OW20123   0.507   0.134   3.455 -0.0528 -0.3802 -0.3934
38949SOL    HW120124   0.437   0.198   3.447  0.0853 -0.3661 -1.6063
38949SOL    HW220125   0.485   0.066   3.392  1.4580  0.0311 -1.4113
38950SOL     OW20126  11.132   3.462  11.029  0.1111 -0.6090  0.3387
38950SOL    HW120127  11.174   3.385  11.067 -0.8986 -0.5926  1.5551
38950SOL    HW220128  11.044   3.434  11.006  1.3403 -1.3603 -4.5910
38951SOL     OW20129   0.023   0.605   4.133 -0.4690 -0.0023 -0.0453
38951SOL    HW120130   0.077   0.526   4.144  0.4330  0.8272  1.8457
38951SOL    HW220131  -0.064   0.579   4.164 -0.0142 -0.0931  1.1930
38952SOL     OW20132   3.872   4.461   3.663 -0.4092 -0.4532 -0.4593
38952SOL    HW120133   3.796   4.494   3.711  1.2261 -0.9589  2.7334
38952SOL    HW220134   3.906   4.537   3.616 -0.5100  0.8449  1.4802
38953SOL     OW20135  10.132   4.533  10.950  0.4468 -0.5748 -0.6334
38953SOL    HW120136  10.073   4.524  11.025 -0.7091  1.2556 -1.2540
38953SOL    HW220137  10.119   4.453  10.900 -1.3242 -0.3650 -0.5830
38954SOL     OW20138   5.478   2.120   2.574 -0.2763 -0.0503  0.1657
38954SOL    HW120139   5.531   2.046   2.547  1.8765  1.9982 -1.6686
38954SOL    HW220140   5.391   2.101   2.538  0.2876 -1.5499 -0.4998
38955SOL     OW20141   9.766   0.550  10.095 -0.8027 -0.1525  0.6936
38955SOL    HW120142   9.748   0.485  10.028  1.6345 -1.7281  1.4441
38955SOL    HW220143   9.797   0.627  10.047 -1.3383 -0.4147 -0.0786
38956SOL     OW20144   1.835   2.258   4.263 -0.4798 -0.0615 -0.0387
38956SOL    HW120145   1.813   2.220   4.348 -0.3278 -0.6219 -0.2417
38956SOL    HW220146   1.858   2.348   4.282  2.3517 -0.8877  0.9418
38957SOL     OW20147   5.454   2.069  11.286  0.1509  0.3410  0.2100
38957SOL    HW120148   5.375   2.019  11.307 -0.7748  1.6913  0.0289
38957SOL    HW220149   5.526   2.007  11.302 -0.8787 -0.6594  1.1547
38958SOL     OW20150   8.712   2.325   8.301 -0.0850  0.1934  0.2488
38958SOL    HW120151   8.698   2.378   8.222  0.4789  0.7241  0.4952
38958SOL    HW220152   8.680   2.380   8.372  2.1201  0.9675  0.7015
38959SOL     OW20153  10.638  10.942   6.561 -0.4832  0.1546 -0.3529
38959SOL    HW120154  10.656  10.992   6.481 -0.2671  0.6850  0.0190
38959SOL    HW220155  10.549  10.970   6.586 -1.0291 -0.9123 -1.0596
38960SOL     OW20156   7.038   6.101   8.454  0.2487 -0.0684  0.1502
38960SOL    HW120157   7.116   6.157   8.444  1.4860 -1.5211  1.1674
38960SOL    HW220158   7.066   6.015   8.421 -0.5456 -0.9155  1.5914
38961SOL     OW20159   3.016   5.737   4.848 -0.4057  0.4899 -0.1143
38961SOL    HW120160   3.045   5.744   4.939 -0.1010 -2.0677  0.0669
38961SOL    HW220161   3.096   5.726   4.797 -0.4871  2.9049 -0.9146
38962SOL     OW20162  10.638  10.871  10.873  0.5792 -0.2789  0.0024
38962SOL    HW120163  10.623  10.780  10.900  0.0388 -0.5545 -1.1881
38962SOL    HW220164  10.733  10.878  10.867  0.6229 -0.8045  0.0066
38963SOL     OW20165   1.986   2.838   8.318 -0.2163  0.1805  0.2009
38963SOL    HW120166   1.927   2.837   8.393 -1.3034 -0.2816 -0.6211
38963SOL    HW220167   2.051   2.770   8.336 -1.4294 -1.0669  0.0149
38964SOL     OW20168   4.937   1.393   7.451  0.0416  0.0693 -0.0197
38964SOL    HW120169   4.999   1.442   7.397  1.8110 -1.1802  0.7782
38964SOL    HW220170   4.984   1.376   7.532 -1.9146  0.3353  1.2453
38965SOL     OW20171   3.913   1.720   5.115 -0.4173 -0.0572  0.1710
38965SOL    HW120172   3.828   1.752   5.084 -1.7135 -2.1169  1.3235
38965SOL    HW220173   3.926   1.638   5.067  1.5070  0.7450 -0.7908
38966SOL     OW20174   0.002   1.836   2.654  0.3661 -0.1852  0.3973
38966SOL    HW120175   0.033   1.874   2.736 -0.4268  1.6777 -0.0971
38966SOL    HW220176   0.022   1.743   2.661  0.6265 -0.0191  2.5519
38967SOL     OW20177   5.881   6.412   2.863  0.0215 -0.3163 -0.3880
38967SOL    HW120178   5.961   6.453   2.897  0.5600  0.2109 -2.1646
38967SOL    HW220179   5.885   6.428   2.768 -0.6291 -2.9712 -0.9345
38968SOL     OW20180   4.972   5.844   1.912  0.0866  0.1619 -0.2596
38968SOL    HW120181   5.064   5.832   1.935 -0.3816 -0.9358  1.2007
38968SOL    HW220182   4.947   5.762   1.868 -0.6133 -0.2462  0.8681
38969SOL     OW20183  10.166   7.391   4.625  0.7079 -0.1991  0.7788
38969SOL    HW120184  10.155   7.311   4.573 -1.0511 -0.2792  1.2042
38969SOL    HW220185  10.077   7.412   4.654  1.1054  2.0145  0.5357
38970SOL     OW20186   7.761   5.127   9.326 -0.2741  0.6256  0.3861
38970SOL    HW120187   7.802   5.097   9.245  1.3709  0.0450  1.3695
38970SOL    HW220188   7.808   5.208   9.348 -1.4185  1.3457  0.2293
38971SOL     OW20189   9.894   5.188  10.454  0.7284 -0.7067 -0.1694
38971SOL    HW120190   9.882   5.283  10.447  1.8305 -0.6098 -1.0512
38971SOL    HW220191   9.813   5.156  10.493  1.0342  0.7966  1.8287
38972SOL     OW20192   0.925   1.474  10.565 -0.1735  0.3592  0.9704
38972SOL    HW120193   0.951   1.409  10.630 -2.1371 -3.2188 -1.4823
38972SOL    HW220194   0.997   1.475  10.502 -1.4449 -2.1262 -0.6875
38973SOL     OW20195   4.315   3.447   6.104  0.5748  0.7193  0.2850
38973SOL    HW120196   4.359   3.520   6.149  0.6178  1.2504 -0.5897
38973SOL    HW220197   4.381   3.415   6.042  0.1490  0.7147 -0.1667
38974SOL     OW20198  11.227   3.129   5.953  0.6873  0.1381 -0.2502
38974SOL    HW120199  11.133   3.112   5.943  0.3843  1.5778 -0.0987
38974SOL    HW220200  11.269   3.058   5.904 -0.4047 -1.6606  1.2813
38975SOL     OW20201   4.737  11.317   6.042  0.2701  0.4659  0.3890
38975SOL    HW120202   4.690  11.392   6.006 -0.3384  0.4752  1.1779
38975SOL    HW220203   4.765  11.267   5.965 -1.8063 -0.0119 -0.1238
38976SOL     OW20204   5.843   2.463   7.742  0.0730  0.4917  0.0380
38976SOL    HW120205   5.887   2.432   7.663 -0.1364 -1.4828  0.6400
38976SOL    HW220206   5.869   2.555   7.750  0.6472  0.5414 -1.9290
38977SOL     OW20207   1.434   2.913   2.845  0.3274 -0.5475  0.4980
38977SOL    HW120208   1.343   2.896   2.819  0.8699 -1.4305 -1.0070
38977SOL    HW220209   1.448   2.859   2.923  0.0508 -1.8415 -0.3158
38978SOL     OW20210   4.117   4.167   3.336 -0.4440 -0.5013 -0.0331
38978SOL    HW120211   4.190   4.216   3.298 -0.5225  0.5691  1.1151
38978SOL    HW220212   4.055   4.234   3.363 -0.5760 -1.2217  1.5513
38979SOL     OW20213   8.697   6.878   0.640  0.3539  0.1971 -0.0843
38979SOL    HW120214   8.710   6.885   0.546  0.4232 -0.6653 -0.1524
38979SOL    HW220215   8.785   6.859   0.675  0.5070  1.4483  0.2724
38980SOL     OW20216   2.560   6.864  10.620  0.3764 -0.3042  0.0323
38980SOL    HW120217   2.498   6.873  10.548  0.8042  0.4531 -0.2534
38980SOL    HW220218   2.598   6.951  10.631  1.0681 -0.6466  0.4861
38981SOL     OW20219   4.781   9.006   1.237  0.0540  0.7003 -0.2504
38981SOL    HW120220   4.821   9.086   1.203  0.0147  1.2390  0.9251
38981SOL    HW220221   4.854   8.958   1.276  0.4619 -0.8554 -2.7174
38982SOL     OW20222   6.818   4.296   4.029  0.0205 -0.2373  0.4033
38982SOL    HW120223   6.802   4.209   3.993 -0.1737 -0.4138  0.9114
38982SOL    HW220224   6.865   4.342   3.959  0.6815 -0.9525  0.3632
38983SOL     OW20225   2.737   3.619   0.314 -0.3857  0.1333  0.4937
38983SOL    HW120226   2.702   3.569   0.240 -0.9341 -0.8853  1.4165
38983SOL    HW220227   2.789   3.557   0.363  0.0333  0.8218  0.9428
38984SOL     OW20228   7.572   5.658   8.247 -0.2744 -0.1808 -0.2190
38984SOL    HW120229   7.573   5.754   8.248  0.3249 -0.1791  0.8682
38984SOL    HW220230   7.604   5.633   8.334  0.3019 -1.3687 -0.7491
38985SOL     OW20231   2.754   0.132   7.398 -0.0782 -0.5609 -0.2047
38985SOL    HW120232   2.665   0.118   7.366 -0.1263  1.1606 -0.9492
38985SOL    HW220233   2.743   0.168   7.485 -0.1117 -0.3358 -0.3020
38986SOL     OW20234   7.999   1.215   6.152  0.1662 -0.0582  0.0152
38986SOL    HW120235   7.906   1.200   6.131 -0.0511  2.4278 -1.2402
38986SOL    HW220236   8.041   1.224   6.067  1.3981 -0.2834  0.5918
38987SOL     OW20237   7.009   0.520  11.065  0.0953  0.2377  0.7033
38987SOL    HW120238   7.005   0.579  10.989  2.0181 -2.0146 -1.3156
38987SOL    HW220239   7.078   0.557  11.120  3.1958 -1.2826 -1.8354
38988SOL     OW20240   7.829   0.936  11.180  0.0962  0.1852  0.4423
38988SOL    HW120241   7.889   0.967  11.248  1.0905 -1.0072  0.1627
38988SOL    HW220242   7.884   0.929  11.102 -0.7414  0.3574 -0.1691
38989SOL     OW20243   6.538   0.587   9.732  0.4249  0.2357 -0.0392
38989SOL    HW120244   6.550   0.558   9.822 -0.9196 -1.8158 -0.4635
38989SOL    HW220245   6.503   0.511   9.686 -0.7372  1.7766 -1.8778
38990SOL     OW20246   0.748  11.252   1.548  0.0511  0.1245  0.0360
38990SOL    HW120247   0.840  11.264   1.525 -0.1763  0.5128 -0.7339
38990SOL    HW220248   0.714  11.341   1.561 -0.0940 -0.0421  0.8406
38991SOL     OW20249   0.626   3.937   3.982  0.1843 -0.6734 -0.0225
38991SOL    HW120250   0.585   4.023   3.974  1.0817 -0.1185  1.0582
38991SOL    HW220251   0.648   3.929   4.075 -0.0076 -2.1335 -0.0840
38992SOL     OW20252   4.857   0.781   8.654  0.4888 -0.2610  0.1278
38992SOL    HW120253   4.870   0.798   8.560  1.6531  0.9549  0.4856
38992SOL    HW220254   4.763   0.766   8.662 -0.1796  2.6765 -0.8386
38993SOL     OW20255   6.602   9.014   4.483  0.4754  0.4639  0.9504
38993SOL    HW120256   6.610   9.064   4.402 -1.1281  1.5040  1.3806
38993SOL    HW220257   6.541   9.065   4.536 -1.9978 -2.3983  1.0671
38994SOL     OW20258   6.191   2.980   9.606  0.1966 -0.2374  0.6040
38994SOL    HW120259   6.154   3.008   9.689 -0.1639 -0.1250  0.4040
38994SOL    HW220260   6.167   3.048   9.543  0.7246 -0.1681  0.4658
38995SOL     OW20261   7.438   6.568  11.049  0.7157  0.1266 -0.3374
38995SOL    HW120262   7.473   6.481  11.033 -0.6602 -0.2558 -1.4461
38995SOL    HW220263   7.515   6.621  11.073  1.6703 -1.1930 -0.3762
38996SOL     OW20264   8.804  10.523   1.470 -0.0809  0.1607 -0.5526
38996SOL    HW120265   8.746  10.474   1.528  0.0666  1.7459  0.9937
38996SOL    HW220266   8.793  10.480   1.384 -2.4466 -0.4720 -0.0081
38997SOL     OW20267   3.303   2.475   7.370  0.0992  0.5441  0.1813
38997SOL    HW120268   3.331   2.469   7.278  0.9505 -0.0186  0.4743
38997SOL    HW220269   3.378   2.445   7.421 -1.3147 -2.0813  0.9502
38998SOL     OW20270   2.886   6.494  10.025 -0.2040 -0.1966 -0.4869
38998SOL    HW120271   2.898   6.443   9.945 -0.2035 -0.6688 -0.1899
38998SOL    HW220272   2.955   6.464  10.083  0.3699  0.8113 -0.6365
38999SOL     OW20273   8.457   0.451   6.668 -0.5213 -0.3059  0.3717
38999SOL    HW120274   8.493   0.365   6.689 -1.6454 -0.7461  0.5644
38999SOL    HW220275   8.500   0.475   6.586  1.6845  0.0967  1.5757
39000SOL     OW20276   5.829  11.120   2.656  0.1602 -0.0930 -0.6410
39000SOL    HW120277   5.810  11.045   2.598  1.4799 -1.3771  0.5019
39000SOL    HW220278   5.924  11.132   2.648  0.3659 -0.2845  1.1897
39001SOL     OW20279   6.184   7.612   4.454 -0.4308 -0.2606 -0.2602
39001SOL    HW120280   6.199   7.545   4.388  1.8238 -1.1123  1.0070
39001SOL    HW220281   6.156   7.563   4.532 -0.5047  0.4616  0.1779
39002SOL     OW20282   3.305   0.666   3.067 -0.4533 -0.0017  0.0344
39002SOL    HW120283   3.392   0.691   3.096 -0.5956  2.2570 -1.2738
39002SOL    HW220284   3.253   0.660   3.148  0.1480  1.9410  0.6076
39003SOL     OW20285   1.726   6.528   6.753 -0.1155 -0.5873  0.1408
39003SOL    HW120286   1.810   6.495   6.785 -0.0022 -0.4880 -0.0523
39003SOL    HW220287   1.685   6.452   6.713  0.3711 -0.3798 -0.7698
39004SOL     OW20288   9.150   7.301   1.408  0.2468 -0.1211 -0.1321
39004SOL    HW120289   9.116   7.217   1.437  1.5355  0.1466  2.4344
39004SOL    HW220290   9.073   7.358   1.403 -0.4100 -1.0074 -0.3016
39005SOL     OW20291   2.807   0.489   8.636 -0.1429 -0.1977 -0.3556
39005SOL    HW120292   2.747   0.470   8.709  0.4863  0.0764  0.2455
39005SOL    HW220293   2.890   0.449   8.663 -0.1125 -0.8117 -1.3044
39006SOL     OW20294   3.963   8.225   9.041 -0.4045  0.7840 -0.2881
39006SOL    HW120295   3.949   8.152   8.981 -0.0397  0.2987  0.2090
39006SOL    HW220296   3.907   8.295   9.007  0.7168  0.9419 -1.9352
39007SOL     OW20297   9.907   1.887   6.193 -0.5366  0.2647 -0.7014
39007SOL    HW120298   9.823   1.897   6.239 -1.0031  1.0207 -1.6826
39007SOL    HW220299   9.893   1.811   6.136 -0.2982 -0.0545 -0.3405
39008SOL     OW20300   0.256   2.895   4.429 -0.3258 -0.5862 -0.5400
39008SOL    HW120301   0.262   2.811   4.474  0.3038 -0.7711 -0.9626
39008SOL    HW220302   0.266   2.873   4.336 -1.5336 -0.2072 -0.7877
39009SOL     OW20303   5.135   3.445   6.091  0.2099 -0.5893 -0.7141
39009SOL    HW120304   5.177   3.531   6.098 -0.6931 -0.1145 -0.9560
39009SOL    HW220305   5.177   3.404   6.016 -1.7843  1.0794 -2.8887
39010SOL     OW20306   0.608   6.640   9.543  0.0218 -0.5626 -0.0816
39010SOL    HW120307   0.540   6.679   9.487  0.4612 -1.1012 -1.0143
39010SOL    HW220308   0.612   6.549   9.515  3.5707  0.1695 -2.6245
39011SOL     OW20309   7.187   9.367  11.066  0.6675  0.1325 -0.7329
39011SOL    HW120310   7.119   9.421  11.106  0.8387  0.1734 -0.5011
39011SOL    HW220311   7.232   9.326  11.139  0.4051 -0.4908 -0.9150
39012SOL     OW20312   9.069   9.685   2.023  0.3711  0.5230 -0.9027
39012SOL    HW120313   9.153   9.640   2.034 -0.7793 -1.6466 -0.4416
39012SOL    HW220314   9.052   9.726   2.108 -0.1351 -1.0694 -0.2140
39013SOL     OW20315   7.129   2.617   0.809 -0.3304  0.1137  0.1401
39013SOL    HW120316   7.095   2.529   0.794  1.8428 -0.6690 -0.5992
39013SOL    HW220317   7.147   2.651   0.722  0.3059  0.6549  0.4754
39014SOL     OW20318   0.158   2.976   6.233  0.2843 -0.4296 -0.3973
39014SOL    HW120319   0.168   2.890   6.193 -1.6592 -0.4200 -0.9974
39014SOL    HW220320   0.115   2.960   6.317 -0.4562 -0.0398 -0.6876
39015SOL     OW20321   2.933   9.463   3.068 -0.1488 -0.2120  0.2298
39015SOL    HW120322   2.923   9.522   3.142  0.4070 -1.5548  1.4189
39015SOL    HW220323   3.027   9.446   3.063 -0.3477 -1.4903  0.3472
39016SOL     OW20324   8.034   5.906   4.743 -0.0230 -0.3072 -0.2838
39016SOL    HW120325   7.967   5.967   4.775  2.0018  1.3321  1.0484
39016SOL    HW220326   8.114   5.931   4.789  1.5422 -2.2130 -1.7836
39017SOL     OW20327  10.279   9.193   0.434  0.1556  0.6298  0.5611
39017SOL    HW120328  10.260   9.271   0.382 -1.9851  0.6085  1.2073
39017SOL    HW220329  10.282   9.224   0.524  2.0430  0.3768  0.6170
39018SOL     OW20330   9.218   8.218  10.711 -0.0608  0.3357 -0.0339
39018SOL    HW120331   9.148   8.154  10.698  1.0379 -0.9616  0.2126
39018SOL    HW220332   9.184   8.276  10.779 -0.6448 -0.6667  0.5616
39019SOL     OW20333   7.325   2.944  10.000 -0.1678 -0.8043 -0.2984
39019SOL    HW120334   7.315   3.033   9.965  0.5093 -0.3842  0.5381
39019SOL    HW220335   7.349   2.891   9.924  1.3840  0.1081 -0.4867
39020SOL     OW20336   0.626   4.030  10.071  0.1167  0.4679  0.7255
39020SOL    HW120337   0.573   4.039   9.992  1.9374  2.2337 -0.3863
39020SOL    HW220338   0.587   3.955  10.118 -0.6289 -1.0696 -2.1216
39021SOL     OW20339   8.804   4.742   9.304 -0.2042 -0.0061  0.3828
39021SOL    HW120340   8.809   4.711   9.214 -1.7043  0.2789  0.1717
39021SOL    HW220341   8.878   4.801   9.313 -0.8429  1.1122 -1.1494
39022SOL     OW20342   6.209   5.867   6.934  0.2484 -0.0595 -0.0852
39022SOL    HW120343   6.117   5.878   6.960  0.3147 -1.1942  0.7098
39022SOL    HW220344   6.230   5.777   6.959  1.5334  0.1324 -0.4209
39023SOL     OW20345   8.795   3.225   2.368 -0.3742 -0.2647 -0.3743
39023SOL    HW120346   8.725   3.185   2.316 -0.5769  1.0839 -1.2032
39023SOL    HW220347   8.834   3.289   2.309  1.2637 -0.6612  0.2449
39024SOL     OW20348  10.390   8.099   6.135 -0.1878 -0.9480  0.1099
39024SOL    HW120349  10.302   8.129   6.156 -0.1455 -0.7062 -0.0508
39024SOL    HW220350  10.447   8.149   6.194 -0.1671 -1.2028  0.3079
39025SOL     OW20351   2.933   9.848  10.544 -0.5533 -0.3838 -0.2981
39025SOL    HW120352   2.864   9.912  10.528  0.1654  0.1878 -1.2725
39025SOL    HW220353   3.006   9.900  10.578 -0.1844 -0.7768 -0.4802
39026SOL     OW20354   9.691   9.991   0.165 -0.0066 -0.7402 -0.0784
39026SOL    HW120355   9.619  10.032   0.213 -0.6154  0.6997 -2.0679
39026SOL    HW220356   9.766  10.049   0.181 -0.5346  0.5125 -1.8034
39027SOL     OW20357   8.314   8.081   2.939  0.5171 -0.0832 -0.5022
39027SOL    HW120358   8.326   7.987   2.926  1.6962 -0.2875  1.6475
39027SOL    HW220359   8.221   8.096   2.918  0.5247 -1.5242 -1.7413
39028SOL     OW20360   8.110   0.314   3.332  0.3093  0.3033 -0.1625
39028SOL    HW120361   8.055   0.316   3.410  0.6979  0.2006  0.1130
39028SOL    HW220362   8.048   0.302   3.260  0.1184 -2.0878  0.3207
39029SOL     OW20363   5.611   3.009   4.976  0.2576  0.4870  0.0045
39029SOL    HW120364   5.550   2.969   4.915 -0.8697  0.6274  1.0009
39029SOL    HW220365   5.627   2.942   5.043 -0.1195  1.0024  0.6316
39030SOL     OW20366   0.336   6.506   7.935 -0.3032 -0.2039 -0.0435
39030SOL    HW120367   0.364   6.444   7.867 -0.2794 -0.0740 -0.1540
39030SOL    HW220368   0.240   6.507   7.928 -0.3389 -0.6366  0.3254
39031SOL     OW20369  10.961   6.960   7.049 -0.1060  0.3278 -0.3484
39031SOL    HW120370  10.997   6.978   6.963  0.1398  0.5831 -0.1954
39031SOL    HW220371  10.921   7.043   7.076  0.6458  0.5316  0.1758
39032SOL     OW20372   3.969   6.675  10.666  0.6129  0.1885  0.4713
39032SOL    HW120373   3.883   6.687  10.625  0.9754  1.4823  0.0332
39032SOL    HW220374   3.954   6.609  10.734 -0.7404  0.4139  0.4271
39033SOL     OW20375   3.303   8.527   9.552 -0.3160 -0.4437  0.7570
39033SOL    HW120376   3.338   8.606   9.594  0.3436  0.1264 -0.7617
39033SOL    HW220377   3.379   8.469   9.544 -0.2963 -0.3256 -0.0656
39034SOL     OW20378  10.912   8.376   5.485  0.6741 -0.3526 -0.5153
39034SOL    HW120379  10.930   8.470   5.493  0.0284 -0.1879 -0.9249
39034SOL    HW220380  10.988   8.334   5.524  0.7306  0.3475  0.1723
39035SOL     OW20381  11.164  10.367   7.161  0.1383 -0.6709 -0.7612
39035SOL    HW120382  11.088  10.324   7.200  1.1099 -0.1831  1.9077
39035SOL    HW220383  11.234  10.303   7.170  0.7051 -0.0097 -0.3423
39036SOL     OW20384   6.943   5.816   3.261 -0.0432  0.3551  0.5838
39036SOL    HW120385   6.885   5.837   3.333 -0.6937  0.5791  0.0021
39036SOL    HW220386   6.892   5.757   3.205  1.2850 -1.8012  1.5243
39037SOL     OW20387   6.204   6.828  11.084  0.3075 -0.1043 -0.0710
39037SOL    HW120388   6.167   6.773  11.016  0.5713 -2.1789  1.3642
39037SOL    HW220389   6.128   6.857  11.136  0.2207  0.4558 -0.4993
39038SOL     OW20390   4.076   0.182   0.199  0.3351 -0.1795  0.0178
39038SOL    HW120391   4.003   0.192   0.259  0.3564  1.0974 -0.1407
39038SOL    HW220392   4.101   0.090   0.206 -1.2348 -0.6153  0.1133
39039SOL     OW20393  10.048   2.374  10.756 -0.5260  0.5854  0.4782
39039SOL    HW120394  10.116   2.380  10.823  0.2386 -0.2118 -0.2123
39039SOL    HW220395  10.083   2.314  10.691 -1.6725  0.5808 -0.1620
39040SOL     OW20396   1.724  10.534   5.326  1.1491  0.1671 -0.2461
39040SOL    HW120397   1.794  10.488   5.371 -0.3871 -1.5285  0.5613
39040SOL    HW220398   1.723  10.496   5.238 -0.1464 -1.5104  0.4318
39041SOL     OW20399   0.182   3.696   2.049  0.2907 -0.3020 -0.0670
39041SOL    HW120400   0.218   3.639   1.981 -0.3985 -0.6037 -0.1899
39041SOL    HW220401   0.222   3.666   2.130  1.0724  0.0175 -0.3260
39042SOL     OW20402   9.439   2.348   9.057  0.3789  0.3211 -0.7378
39042SOL    HW120403   9.505   2.327   8.991  1.2389  1.2103 -0.2019
39042SOL    HW220404   9.449   2.442   9.071  1.5532 -0.1017  2.0059
39043SOL     OW20405   7.396   5.502   1.272 -0.0344  0.0648  1.1894
39043SOL    HW120406   7.373   5.585   1.231  0.1202 -0.9196 -1.0338
39043SOL    HW220407   7.484   5.483   1.241  0.5262 -0.2644  2.8648
39044SOL     OW20408   3.253   0.460   7.300 -0.4450 -0.2723  0.4075
39044SOL    HW120409   3.334   0.506   7.323  0.1757 -1.8192  1.4914
39044SOL    HW220410   3.224   0.502   7.220  0.4593  1.5269  0.9659
39045SOL     OW20411   1.995   3.077   3.646  0.6712  0.1607  0.1178
39045SOL    HW120412   1.915   3.065   3.697 -0.2514 -0.5730 -1.4263
39045SOL    HW220413   2.022   3.167   3.664 -2.1867  1.4901 -1.5148
39046SOL     OW20414   5.295   3.415   4.809 -0.5887  0.3533  0.0481
39046SOL    HW120415   5.271   3.495   4.762  1.4779  1.6734  1.0805
39046SOL    HW220416   5.318   3.444   4.897  2.8337 -0.8890 -0.2740
39047SOL     OW20417   8.793  10.690   3.855  0.3024 -0.1360  0.4536
39047SOL    HW120418   8.763  10.599   3.856 -0.4540  0.0944  0.0370
39047SOL    HW220419   8.874  10.690   3.905  0.3312 -1.0482  0.4144
39048SOL     OW20420   5.405   4.143   8.160  0.4203  0.3977 -0.4094
39048SOL    HW120421   5.427   4.225   8.204  0.0662 -0.7043  1.9657
39048SOL    HW220422   5.466   4.079   8.196  0.0605 -0.5961 -1.5117
39049SOL     OW20423   4.407   0.663  11.354  0.4713 -0.0628 -0.4125
39049SOL    HW120424   4.469   0.607  11.400 -0.4226 -0.7181  0.0231
39049SOL    HW220425   4.374   0.609  11.282  1.8013  0.9275 -1.8386
39050SOL     OW20426   0.090   6.688   0.284 -0.6990  0.2730 -0.2800
39050SOL    HW120427   0.122   6.631   0.214  0.7454 -0.0178  0.5934
39050SOL    HW220428   0.153   6.759   0.289 -2.5105  2.0927 -1.3997
39051SOL     OW20429   6.452   7.366   9.095  0.2114  0.2854 -0.0372
39051SOL    HW120430   6.372   7.391   9.049 -0.3909 -0.8591  0.3418
39051SOL    HW220431   6.423   7.346   9.184  0.4215 -2.5526 -0.4994
39052SOL     OW20432   9.360   3.812   8.043 -0.4670 -0.4160 -0.3666
39052SOL    HW120433   9.354   3.729   8.090  1.5228 -0.2772  0.2122
39052SOL    HW220434   9.348   3.879   8.110 -0.2432 -0.2301 -0.5104
39053SOL     OW20435   9.430   7.830   6.115  0.4387  0.1009 -0.1082
39053SOL    HW120436   9.439   7.864   6.204 -0.2092 -0.4444  0.1762
39053SOL    HW220437   9.339   7.802   6.110  0.2550  0.8567 -1.2091
39054SOL     OW20438   8.394  11.112  11.293 -0.1218 -0.1491  0.0583
39054SOL    HW120439   8.392  11.038  11.234 -0.5510  1.0081 -1.4335
39054SOL    HW220440   8.456  11.173  11.253  1.2822 -0.2271  1.9600
39055SOL     OW20441   2.741   5.079   9.806  0.1753  0.3183  0.1480
39055SOL    HW120442   2.730   5.089   9.900 -2.0452 -1.3864  0.1774
39055SOL    HW220443   2.816   5.021   9.796 -0.4577 -0.6931  0.9994
39056SOL     OW20444   8.736   6.652   8.939 -0.2840 -0.0070 -0.5359
39056SOL    HW120445   8.751   6.666   8.846 -0.2982 -1.2974 -0.7480
39056SOL    HW220446   8.732   6.557   8.949 -1.0128  0.1288  0.6674
39057SOL     OW20447   1.572   2.613   5.720  0.1225 -0.5196  0.1837
39057SOL    HW120448   1.554   2.699   5.757  1.4259  0.6383 -1.6343
39057SOL    HW220449   1.666   2.615   5.701 -0.0550 -1.8548 -1.0177
39058SOL     OW20450   8.444  10.730   1.887 -0.0922 -0.6798 -0.1517
39058SOL    HW120451   8.398  10.669   1.829 -0.5739  1.0496 -1.6537
39058SOL    HW220452   8.405  10.716   1.973 -1.9768 -0.7317 -0.9708
39059SOL     OW20453   3.638   9.415   1.940 -0.3780  0.2562  0.1560
39059SOL    HW120454   3.619   9.323   1.921  0.9136  0.0520 -0.2302
39059SOL    HW220455   3.562   9.463   1.908  0.0306 -0.4556 -1.9951
39060SOL     OW20456   9.630   8.372   9.131  0.1988 -0.2473  0.0238
39060SOL    HW120457   9.716   8.331   9.122  0.2036 -0.5978  1.4281
39060SOL    HW220458   9.624   8.432   9.057  1.9395  0.2928  0.2733
39061SOL     OW20459  11.208   2.291   5.643  0.0954 -0.3940 -0.1682
39061SOL    HW120460  11.296   2.290   5.680  1.0220 -0.3813 -2.2116
39061SOL    HW220461  11.222   2.287   5.548 -2.0604  1.3452 -0.6425
39062SOL     OW20462   2.300   0.577   4.880  0.0895 -0.2337 -0.1533
39062SOL    HW120463   2.214   0.618   4.887 -0.4554 -1.3106 -0.2819
39062SOL    HW220464   2.292   0.517   4.806  0.6174 -1.1031  0.4685
39063SOL     OW20465  10.646   8.766   1.119 -0.0355  0.0541 -0.6673
39063SOL    HW120466  10.639   8.848   1.070  0.2594  0.6657  0.2942
39063SOL    HW220467  10.665   8.700   1.052 -0.4655  0.7328 -1.4754
39064SOL     OW20468   2.559   7.540   5.068  0.3532  0.7712  0.3360
39064SOL    HW120469   2.617   7.538   4.991  0.4066  0.6763  0.3789
39064SOL    HW220470   2.509   7.621   5.058 -0.0930  0.4411 -0.1325
39065SOL     OW20471   7.804   8.190   5.567 -0.3834 -1.0339  0.5886
39065SOL    HW120472   7.864   8.206   5.494 -1.5392 -1.0407 -0.4002
39065SOL    HW220473   7.758   8.109   5.542 -1.0426 -0.8369  1.1504
39066SOL     OW20474   8.604   3.245   2.184  0.0695 -0.0467  0.4691
39066SOL    HW120475   8.533   3.195   2.224 -0.3160 -0.3823 -0.6140
39066SOL    HW220476   8.561   3.302   2.120  0.7576 -0.1337 -0.0817
39067SOL     OW20477  11.236   2.356   0.903 -0.6402  0.3122  0.2620
39067SOL    HW120478  11.269   2.405   0.827  1.0103 -1.0416  0.0512
39067SOL    HW220479  11.304   2.292   0.921 -1.2609  0.2214  2.5564
39068SOL     OW20480   6.211   1.727   6.920 -0.0413 -0.0500 -0.2656
39068SOL    HW120481   6.277   1.769   6.865 -0.5493  0.1386 -0.7484
39068SOL    HW220482   6.237   1.748   7.010  1.8090 -1.8223 -0.3029
39069SOL     OW20483   0.844   0.489   9.226  0.2122 -0.2846 -0.2159
39069SOL    HW120484   0.933   0.522   9.216  0.4549 -0.2868  1.5810
39069SOL    HW220485   0.809   0.536   9.302 -1.0763 -0.7835 -0.4755
39070SOL     OW20486  10.124   6.998   4.719  0.0355  0.0828 -0.0528
39070SOL    HW120487  10.196   7.040   4.672  0.1913  1.4652  1.3177
39070SOL    HW220488  10.065   7.070   4.741  0.3235 -0.3631  2.4382
39071SOL     OW20489   6.479  10.524   5.645  0.5938 -0.4918 -0.2617
39071SOL    HW120490   6.504  10.513   5.553  2.2376  1.0478 -0.0438
39071SOL    HW220491   6.431  10.607   5.647 -0.1774 -0.9333  0.1650
39072SOL     OW20492   1.215   2.296   4.176  0.2073 -0.1367  0.0388
39072SOL    HW120493   1.134   2.256   4.145 -0.9596  2.0542  0.0896
39072SOL    HW220494   1.255   2.229   4.231 -3.2959 -0.2038  2.8539
39073SOL     OW20495   1.971  10.180   1.353  0.4288 -0.3225 -0.0027
39073SOL    HW120496   1.957  10.219   1.440  0.5378  0.1357 -0.1887
39073SOL    HW220497   1.886  10.188   1.310  0.9813  1.7435 -0.8449
39074SOL     OW20498   5.533   1.988   4.092 -0.2819  0.1200 -1.0694
39074SOL    HW120499   5.465   1.921   4.095 -0.4219  0.2627 -1.0402
39074SOL    HW220500   5.614   1.939   4.081 -0.2259 -0.1400  0.3316
39075SOL     OW20501   0.844  10.994   2.800 -0.8851  0.8320  0.2931
39075SOL    HW120502   0.822  11.057   2.869 -1.9241 -1.5230  2.2889
39075SOL    HW220503   0.886  10.922   2.847 -2.3674 -1.2387 -1.4022
39076SOL     OW20504   4.407   1.979   6.187 -0.3165 -0.5118  0.0492
39076SOL    HW120505   4.392   1.903   6.243 -0.2198  1.2790  2.6917
39076SOL    HW220506   4.440   2.046   6.247  1.3173  1.0852 -2.4839
39077SOL     OW20507   0.968   4.907   3.286 -0.1325  0.2766 -0.0902
39077SOL    HW120508   0.941   4.963   3.213  0.5959  0.5847 -0.1256
39077SOL    HW220509   0.924   4.945   3.362  0.2491  0.8195 -0.1373
39078SOL     OW20510  10.738   2.729   0.703  0.2800 -0.2873 -0.4383
39078SOL    HW120511  10.663   2.676   0.678  1.0287 -0.0077 -3.7958
39078SOL    HW220512  10.701   2.804   0.750 -1.2686 -1.3403  0.0729
39079SOL     OW20513   5.995   9.654   8.772  0.3494 -0.1867  0.7618
39079SOL    HW120514   6.009   9.591   8.843 -0.0049 -1.2108 -0.0595
39079SOL    HW220515   5.905   9.640   8.744  0.5614  0.0347 -0.0611
39080SOL     OW20516   8.363   9.317  10.358 -0.4829 -0.5043 -0.0719
39080SOL    HW120517   8.307   9.340  10.432 -0.4371 -1.7260  0.3557
39080SOL    HW220518   8.372   9.399  10.309  1.6519  1.0749  2.6486
39081SOL     OW20519   5.326   6.606   6.126  0.0997 -0.4223 -0.0860
39081SOL    HW120520   5.371   6.619   6.209 -1.5509 -1.1914  0.9807
39081SOL    HW220521   5.396   6.592   6.062  1.3923  0.1011  1.1815
39082SOL     OW20522   0.610   5.715  10.016  0.0125  0.2282  0.2502
39082SOL    HW120523   0.653   5.759   9.943 -1.2417 -1.0809 -1.3263
39082SOL    HW220524   0.579   5.632   9.980 -1.7212  0.0705  1.9611
39083SOL     OW20525   1.339  10.286  10.627  0.6248 -0.4119  0.9383
39083SOL    HW120526   1.353  10.247  10.713 -2.3531 -0.9286  1.2784
39083SOL    HW220527   1.292  10.220  10.577 -0.0766  0.8696 -0.1911
39084SOL     OW20528   4.965   2.789   2.862 -0.2424  0.2256  0.1195
39084SOL    HW120529   5.043   2.741   2.890 -1.0176 -1.2570 -0.1578
39084SOL    HW220530   4.965   2.782   2.767 -2.1416 -2.3187  0.1755
39085SOL     OW20531  10.953   3.227   5.509 -0.4540 -0.0033  0.6662
39085SOL    HW120532  10.909   3.166   5.451  1.1042 -2.1408  1.5944
39085SOL    HW220533  11.027   3.178   5.545  0.3351  2.1322  2.2310
39086SOL     OW20534   1.983   1.067   8.336  0.5465 -0.1499  0.5529
39086SOL    HW120535   2.013   1.109   8.417  0.8537  0.8399 -0.0554
39086SOL    HW220536   1.908   1.119   8.309  1.2620  0.3621 -0.5039
39087SOL     OW20537   8.471   2.606   4.429  0.4028  0.2345 -0.6483
39087SOL    HW120538   8.554   2.653   4.419 -0.3833  1.9825  0.6521
39087SOL    HW220539   8.486   2.546   4.502  1.0685 -0.8037 -1.6087
39088SOL     OW20540   4.169   7.757   4.901  0.1884 -0.3972  0.0124
39088SOL    HW120541   4.135   7.835   4.945 -1.2472 -1.1934  0.3807
39088SOL    HW220542   4.256   7.745   4.938 -0.6131 -0.4863  1.9940
39089SOL     OW20543   2.292   5.855   9.697 -0.6337 -0.0434 -0.1655
39089SOL    HW120544   2.209   5.891   9.666  0.0020  0.4317 -1.3867
39089SOL    HW220545   2.273   5.823   9.785 -2.2209 -0.3652 -0.5891
39090SOL     OW20546   4.904   1.951   9.295 -0.1070  0.0824  0.2780
39090SOL    HW120547   4.929   1.918   9.208  0.6601 -0.7018  0.7831
39090SOL    HW220548   4.941   2.039   9.299  0.4045 -0.1226  0.0646
39091SOL     OW20549   0.826   2.353   9.949 -0.0881 -0.1825  0.0174
39091SOL    HW120550   0.837   2.412   9.874  0.6133  0.4621  0.6204
39091SOL    HW220551   0.849   2.267   9.915 -0.8616 -0.0799 -0.8020
39092SOL     OW20552   9.991   3.750   2.599 -0.4732  0.0425 -0.1576
39092SOL    HW120553   9.936   3.696   2.542 -0.1887 -1.7150  1.1153
39092SOL    HW220554  10.058   3.787   2.541  0.4974 -2.5930 -0.8684
39093SOL     OW20555   1.360   7.170   2.686 -0.2235 -0.1382  0.0247
39093SOL    HW120556   1.333   7.178   2.777  0.6072 -2.1461  0.4832
39093SOL    HW220557   1.288   7.209   2.636 -0.7815  0.8031  1.5036
39094SOL     OW20558   0.526   5.606   5.160 -0.1269 -0.0609 -0.4831
39094SOL    HW120559   0.492   5.643   5.079 -3.6484  0.5009  1.0582
39094SOL    HW220560   0.477   5.524   5.172  0.6786 -0.3921  0.8344
39095SOL     OW20561   4.729  11.201   9.955 -0.0123  0.2952 -0.1279
39095SOL    HW120562   4.804  11.229  10.008 -0.3910  1.8137 -0.3412
39095SOL    HW220563   4.653  11.239   9.999 -0.9261 -2.7222  1.1196
39096SOL     OW20564   1.178   9.654  11.227  0.3126  0.0217  0.5684
39096SOL    HW120565   1.128   9.725  11.265 -1.5442 -0.5983 -0.5916
39096SOL    HW220566   1.198   9.596  11.300  0.8139  1.1171  1.3184
39097SOL     OW20567   9.734  10.527   2.668 -0.2837 -0.0494 -0.6192
39097SOL    HW120568   9.765  10.603   2.619 -0.1124 -0.2135 -0.7672
39097SOL    HW220569   9.804  10.462   2.657  0.9621  0.7269  1.8228
39098SOL     OW20570   4.180   5.909   8.799  0.6900 -0.5349  0.1959
39098SOL    HW120571   4.202   5.839   8.861  0.5788 -0.4917  0.2842
39098SOL    HW220572   4.120   5.966   8.848 -0.9630 -1.5539 -0.5773
39099SOL     OW20573   9.521   6.878   4.727  0.3030  0.2141 -0.6074
39099SOL    HW120574   9.508   6.933   4.804  0.9992 -0.5858  0.1055
39099SOL    HW220575   9.530   6.789   4.763  1.5033 -0.0618 -1.5344
39100SOL     OW20576  10.673   8.258   5.548  0.0385  0.4171 -0.0229
39100SOL    HW120577  10.759   8.290   5.520 -0.4192  1.5040 -0.2274
39100SOL    HW220578  10.615   8.277   5.474 -0.4511 -0.0182  0.2389
39101SOL     OW20579   8.843   0.021   3.138 -0.0700 -0.0129 -0.1147
39101SOL    HW120580   8.810  -0.040   3.204  1.7169  0.4211  1.2712
39101SOL    HW220581   8.929   0.048   3.171  0.1826  1.4988 -1.8244
39102SOL     OW20582   0.899   7.401  11.111  0.2282 -0.2490  0.4447
39102SOL    HW120583   0.966   7.344  11.073  1.0736  0.4994  0.7730
39102SOL    HW220584   0.911   7.484  11.066 -0.4971 -0.1081  0.5042
39103SOL     OW20585  11.156   9.356   5.030  0.4057  0.2372 -0.0246
39103SOL    HW120586  11.155   9.295   5.104  0.5708 -1.0661 -1.0528
39103SOL    HW220587  11.158   9.443   5.071  0.7136 -0.4395  1.4912
39104SOL     OW20588   2.037   5.188   1.640  0.1584 -0.6096 -0.2476
39104SOL    HW120589   2.033   5.277   1.675 -2.5930 -1.0261  0.7123
39104SOL    HW220590   1.954   5.176   1.593  0.5226 -2.6256 -0.4857
39105SOL     OW20591   8.146   1.641   5.344 -0.0964  0.0247 -0.0446
39105SOL    HW120592   8.131   1.644   5.249 -1.9273 -3.5383 -0.0319
39105SOL    HW220593   8.063   1.671   5.381  0.8267  2.0112  0.5220
39106SOL     OW20594   0.963   7.781   1.232  0.0240  0.0007  0.0879
39106SOL    HW120595   1.032   7.721   1.204  1.4532  0.4674  2.3336
39106SOL    HW220596   0.916   7.803   1.152  2.6076 -0.1590 -1.5871
39107SOL     OW20597   8.646   8.271   6.050  0.0458  0.2118 -0.5433
39107SOL    HW120598   8.654   8.224   5.966  1.2161  1.4333 -1.1372
39107SOL    HW220599   8.673   8.360   6.030 -2.1102  1.1818  0.5730
39108SOL     OW20600   7.735  10.136   7.287  0.1732 -0.2651 -0.1405
39108SOL    HW120601   7.673  10.129   7.214 -0.3278  2.2777 -0.0678
39108SOL    HW220602   7.680  10.153   7.363  0.8284 -0.3602  0.3592
39109SOL     OW20603   5.902   2.228   0.657  0.7947 -0.0857  0.0292
39109SOL    HW120604   5.841   2.264   0.592  0.5264 -0.6115 -0.0143
39109SOL    HW220605   5.986   2.271   0.637  0.4995  0.4461 -0.0729
39110SOL     OW20606  11.322   4.035   8.423 -0.2065  0.2727 -0.2188
39110SOL    HW120607  11.251   4.030   8.487  0.2444 -0.6786  0.2193
39110SOL    HW220608  11.396   4.070   8.472  0.9872 -3.0628  0.6017
39111SOL     OW20609   6.104   5.987   5.427  0.3471 -0.1842 -0.1378
39111SOL    HW120610   6.047   5.975   5.503 -1.7722 -1.2780 -1.7765
39111SOL    HW220611   6.147   6.071   5.442 -2.1782  1.0190  0.9484
39112SOL     OW20612   8.250   7.315   2.082 -0.0339  0.3445 -0.4546
39112SOL    HW120613   8.241   7.220   2.081  0.6101  0.2751  0.0619
39112SOL    HW220614   8.328   7.332   2.135  0.1159  1.1430 -0.9132
39113SOL     OW20615   5.656   6.650   6.405  0.3329  0.1240 -0.2111
39113SOL    HW120616   5.563   6.636   6.392 -0.2056  2.1875  0.9273
39113SOL    HW220617   5.669   6.642   6.500  1.4750 -0.8815 -0.4254
39114SOL     OW20618   3.448   5.893  10.586 -0.1092  0.2399 -0.1248
39114SOL    HW120619   3.540   5.890  10.611 -0.2567  0.2458  0.4411
39114SOL    HW220620   3.414   5.972  10.629  0.1067  1.4893 -2.0923
39115SOL     OW20621   9.266   5.863  10.306 -0.2150  0.2940 -0.0453
39115SOL    HW120622   9.353   5.827  10.291 -0.3443  0.5117 -1.4760
39115SOL    HW220623   9.271   5.904  10.392  1.4530  1.3001 -0.5760
39116SOL     OW20624   7.125   6.283   2.464 -0.4794 -0.2774  0.1479
39116SOL    HW120625   7.117   6.360   2.407 -0.9486 -0.3514  0.1127
39116SOL    HW220626   7.035   6.255   2.479 -0.2736 -2.1305 -1.6294
39117SOL     OW20627  11.174   5.538   7.529  0.5275 -0.5673 -0.5175
39117SOL    HW120628  11.147   5.630   7.523  0.2517 -0.5736  0.4475
39117SOL    HW220629  11.233   5.536   7.605 -0.9476 -1.5113  0.6613
39118SOL     OW20630   9.144  10.872  11.320  0.1818 -0.3518 -0.9780
39118SOL    HW120631   9.140  10.926  11.241  0.5838 -1.6554 -1.9132
39118SOL    HW220632   9.233  10.838  11.322  0.6952  0.9343  0.9394
39119SOL     OW20633   9.663   6.206   7.701  0.3229  0.3532 -0.0369
39119SOL    HW120634   9.659   6.215   7.606 -1.5585 -1.3103 -0.1682
39119SOL    HW220635   9.703   6.120   7.716  0.1305  0.3740  0.6490
39120SOL     OW20636   1.566   0.455   0.346  0.1019  0.3306  0.0463
39120SOL    HW120637   1.509   0.382   0.369 -0.0825 -0.0745 -1.6381
39120SOL    HW220638   1.633   0.455   0.415  0.5442 -1.8933 -0.3236
39121SOL     OW20639   8.161   2.532   8.425 -0.3541  0.1945 -0.4030
39121SOL    HW120640   8.076   2.576   8.432  0.5418  1.8858  0.6703
39121SOL    HW220641   8.143   2.454   8.374 -2.1582  1.5629 -2.0439
39122SOL     OW20642  10.316   1.764   6.324  0.4057  0.8111 -0.0769
39122SOL    HW120643  10.362   1.793   6.245  1.1248  0.1643  0.1003
39122SOL    HW220644  10.368   1.798   6.397  1.0507 -0.5711  0.1311
39123SOL     OW20645  10.027   1.766   5.875  0.3808  0.1588 -0.1351
39123SOL    HW120646  10.043   1.846   5.926  0.2110 -2.3808  4.4606
39123SOL    HW220647  10.110   1.751   5.829  1.5059  1.4263  1.3390
39124SOL     OW20648   6.451   7.459  10.208 -0.3707 -0.0297  0.2650
39124SOL    HW120649   6.406   7.444  10.292  0.2065  0.8661  0.7540
39124SOL    HW220650   6.402   7.406  10.145  0.1973 -2.0964  1.4579
39125SOL     OW20651   3.303   8.026   0.067 -0.7131  0.5095  0.2685
39125SOL    HW120652   3.293   7.935   0.039 -0.2239  0.3071  0.7383
39125SOL    HW220653   3.349   8.069  -0.006 -0.5226  0.2723  0.2493
39126SOL     OW20654   9.881   1.487   2.278 -0.3709 -0.1454  0.1488
39126SOL    HW120655   9.812   1.527   2.224  0.5293 -0.3921 -1.2400
39126SOL    HW220656   9.839   1.411   2.317 -0.8499 -0.4253 -0.8615
39127SOL     OW20657   4.975   8.662   1.320 -0.8299 -0.0891 -0.1580
39127SOL    HW120658   5.051   8.604   1.313 -1.0164 -0.3808  0.2161
39127SOL    HW220659   5.001   8.727   1.385 -0.9643 -0.2947  0.1043
39128SOL     OW20660  10.063   4.117   1.753  0.4392 -0.0984 -0.2425
39128SOL    HW120661  10.059   4.114   1.658  1.4740  1.6433 -0.3821
39128SOL    HW220662  10.149   4.081   1.774  0.3829 -0.0845  0.0160
39129SOL     OW20663   8.501   1.002   6.904 -0.1803  0.5738 -0.3129
39129SOL    HW120664   8.481   1.084   6.859  0.7356 -0.0633 -2.0176
39129SOL    HW220665   8.562   0.957   6.844 -0.6596 -1.3412  0.5538
39130SOL     OW20666   3.374   7.897   3.055 -0.3271  0.2564 -0.0892
39130SOL    HW120667   3.317   7.934   3.122  0.3765  0.6168  0.3172
39130SOL    HW220668   3.430   7.835   3.102  0.6242  1.0012 -0.2106
39131SOL     OW20669  10.586  10.580   4.425 -0.1233  0.2384 -0.4764
39131SOL    HW120670  10.505  10.588   4.374 -0.8335 -3.3025 -0.1624
39131SOL    HW220671  10.557  10.577   4.516  0.5118  0.1405 -0.2721
39132SOL     OW20672   5.143  10.349   3.927  0.2832  0.3265 -0.0673
39132SOL    HW120673   5.093  10.275   3.961 -0.7394  0.9617 -0.1341
39132SOL    HW220674   5.221  10.353   3.982 -0.0786 -0.2502  0.5062
39133SOL     OW20675   5.002   9.428   5.517 -0.8956  0.1660  0.5818
39133SOL    HW120676   4.983   9.338   5.544  0.7971 -0.5987 -0.6049
39133SOL    HW220677   5.096   9.430   5.502 -1.1269  1.6453 -1.1056
39134SOL     OW20678   6.384   5.348   6.920 -0.6249 -0.1586  0.4984
39134SOL    HW120679   6.411   5.440   6.921  0.8031 -0.5446  0.6320
39134SOL    HW220680   6.404   5.317   7.009 -0.5516 -0.7365  0.2839
39135SOL     OW20681   5.790   7.750   2.945 -0.0889 -0.2452 -0.2632
39135SOL    HW120682   5.714   7.766   2.891  0.0172  0.1768 -0.2897
39135SOL    HW220683   5.778   7.661   2.978 -0.3145 -0.3793 -0.7117
39136SOL     OW20684   7.767   2.236   6.689 -0.0624 -0.0552  0.0358
39136SOL    HW120685   7.793   2.210   6.600  1.4863 -0.0030  0.4469
39136SOL    HW220686   7.671   2.235   6.687 -0.0561 -1.1907 -1.3013
39137SOL     OW20687   3.247   7.133   2.367 -0.2855 -0.3323  0.7449
39137SOL    HW120688   3.246   7.057   2.310  0.7406 -0.9459  1.5126
39137SOL    HW220689   3.158   7.137   2.403  0.0035 -2.0162  1.7654
39138SOL     OW20690   2.488   3.038   2.684  0.1028  0.3146  0.0894
39138SOL    HW120691   2.397   3.048   2.654 -0.3559 -0.2956  1.2122
39138SOL    HW220692   2.541   3.066   2.610 -0.9516 -1.8006 -1.5722
39139SOL     OW20693   1.741   2.938   4.485 -0.1614 -0.1988 -0.3618
39139SOL    HW120694   1.735   2.860   4.540  2.1062 -1.6592 -2.0102
39139SOL    HW220695   1.709   2.909   4.400 -1.0452  1.2406 -0.5438
39140SOL     OW20696   1.157   5.139   6.124 -0.2212 -0.1909 -0.7330
39140SOL    HW120697   1.174   5.054   6.085  0.4974  0.2578 -1.4250
39140SOL    HW220698   1.110   5.188   6.056  1.0972  0.6200 -1.1073
39141SOL     OW20699   0.057   4.203  11.399  0.3358  0.3725 -0.5089
39141SOL    HW120700   0.131   4.263  11.401 -0.2713  1.1305  0.3113
39141SOL    HW220701   0.083   4.131  11.456  1.5603 -0.7978 -2.4488
39142SOL     OW20702   4.198   4.438  10.202  0.0927  0.0287 -0.1870
39142SOL    HW120703   4.106   4.418  10.221  0.6296 -0.9309  1.6035
39142SOL    HW220704   4.220   4.380  10.129 -0.7632  0.4533 -0.8082
39143SOL     OW20705  11.395   2.745   3.868  0.3304  0.5919 -0.0316
39143SOL    HW120706  11.393   2.826   3.919  0.3655  0.4323  0.2247
39143SOL    HW220707  11.304   2.715   3.866  0.4129  0.3004  0.4200
39144SOL     OW20708   5.267   9.805   4.755  0.5108  0.3269 -0.7527
39144SOL    HW120709   5.341   9.745   4.753  0.0861 -0.3281  1.1172
39144SOL    HW220710   5.234   9.806   4.665  1.0726 -1.5367 -1.0235
39145SOL     OW20711   8.862   5.297   7.803  0.0585 -0.0780  0.1411
39145SOL    HW120712   8.921   5.227   7.834  0.3156  0.3736  0.6888
39145SOL    HW220713   8.786   5.250   7.769 -0.3818 -0.6019  1.7657
39146SOL     OW20714  11.366   9.216   1.683 -0.4742 -0.3329  0.5016
39146SOL    HW120715  11.294   9.226   1.745 -0.5227 -1.3109  0.6265
39146SOL    HW220716  11.414   9.299   1.687  0.0332 -0.6728  2.5191
39147SOL     OW20717   4.933   1.468   9.939  0.2888  0.6106 -0.6923
39147SOL    HW120718   4.843   1.454   9.910  0.1133 -0.9451  0.4780
39147SOL    HW220719   4.980   1.492   9.859 -1.2579  2.0999 -1.2156
39148SOL     OW20720   5.052   8.569   6.502 -0.2191  0.1039 -0.0875
39148SOL    HW120721   5.055   8.588   6.596 -1.1209 -0.6159  0.1068
39148SOL    HW220722   5.002   8.641   6.465 -0.7762 -0.1540  0.1506
39149SOL     OW20723   8.190   0.549   9.585  0.1953  0.7254  0.4197
39149SOL    HW120724   8.229   0.486   9.524  0.2423  0.1484  1.0303
39149SOL    HW220725   8.264   0.595   9.623  0.2860 -0.0989  1.2881
39150SOL     OW20726   9.475   4.769   5.273 -0.5909 -0.1164  0.8327
39150SOL    HW120727   9.508   4.679   5.271  0.0721  0.1281  0.5154
39150SOL    HW220728   9.553   4.823   5.259 -1.0811  0.4817  0.3869
39151SOL     OW20729  10.050   5.531   3.435  0.3484 -0.3884 -0.3669
39151SOL    HW120730  10.056   5.548   3.341 -0.3098 -0.2283 -0.3806
39151SOL    HW220731  10.134   5.560   3.470  0.0785  0.8668 -0.7061
39152SOL     OW20732  10.449   5.492   4.550  0.4037  0.1579 -0.0451
39152SOL    HW120733  10.361   5.465   4.577  0.8417 -1.4880 -0.1394
39152SOL    HW220734  10.481   5.546   4.622 -1.4315  2.5686 -0.9298
39153SOL     OW20735  10.505   3.467   2.322 -0.6275 -0.1144  0.6122
39153SOL    HW120736  10.488   3.504   2.235  0.8967 -1.4837 -0.3174
39153SOL    HW220737  10.466   3.380   2.318 -2.4347  0.5481  2.1020
39154SOL     OW20738   4.426   8.756  10.152  0.8915  0.5206  0.5148
39154SOL    HW120739   4.406   8.836  10.200  0.8487 -0.8252  2.8896
39154SOL    HW220740   4.380   8.765  10.069 -0.6274  2.1350  1.4786
39155SOL     OW20741   6.024   7.504  10.928  0.1902  0.3106 -0.6876
39155SOL    HW120742   6.103   7.520  10.876  1.3947 -1.0622  0.6279
39155SOL    HW220743   6.057   7.470  11.011 -1.8237 -1.1888 -0.4449
39156SOL     OW20744   6.528   3.073   7.743 -0.6721 -0.6212 -0.0859
39156SOL    HW120745   6.602   3.085   7.802 -0.5605 -1.0704 -0.1298
39156SOL    HW220746   6.458   3.037   7.798 -1.3728  1.2284  0.2854
39157SOL     OW20747  10.356   8.106   9.578 -0.1790  0.0270  0.0435
39157SOL    HW120748  10.270   8.131   9.544  1.3290  2.4370 -2.3504
39157SOL    HW220749  10.381   8.179   9.635  0.0274 -1.0412  1.3910
39158SOL     OW20750   8.735   6.467   8.470 -0.1125  0.2224 -0.1477
39158SOL    HW120751   8.817   6.515   8.471  0.1271 -0.1746  1.2525
39158SOL    HW220752   8.714   6.453   8.562 -1.2527 -0.5195 -0.4973
39159SOL     OW20753  11.174   8.265   8.599  0.1481 -0.4224  0.3262
39159SOL    HW120754  11.203   8.226   8.516 -0.7626  0.9203 -0.6774
39159SOL    HW220755  11.082   8.239   8.607 -0.2210  0.7383  0.0872
39160SOL     OW20756   8.370   2.541   5.009  0.2023 -0.2025 -0.0294
39160SOL    HW120757   8.291   2.560   5.060  0.2304 -2.7477  1.1081
39160SOL    HW220758   8.418   2.624   5.008 -1.0858  0.6449  1.7986
39161SOL     OW20759   4.889   5.972  10.809  0.6525 -0.0724 -0.0876
39161SOL    HW120760   4.951   5.991  10.879  1.0162 -1.5174  0.0093
39161SOL    HW220761   4.818   5.924  10.852 -0.1367  0.8223 -0.3512
39162SOL     OW20762   5.940   2.067  10.487  0.5139 -0.3162 -0.2288
39162SOL    HW120763   5.980   2.069  10.574 -0.5454  0.3671  0.2636
39162SOL    HW220764   6.014   2.070  10.426  1.2506 -0.2800  0.6503
39163SOL     OW20765   3.899  10.871   0.741 -0.3718  0.2969 -0.1615
39163SOL    HW120766   3.972  10.868   0.679 -0.0460 -0.7312  0.2617
39163SOL    HW220767   3.939  10.902   0.823  0.2312 -2.9398  0.8819
39164SOL     OW20768   1.528   4.068   8.415 -0.1441  0.5254 -0.4833
39164SOL    HW120769   1.476   4.098   8.340 -0.8673 -0.1537 -0.2717
39164SOL    HW220770   1.611   4.116   8.407 -1.0286  2.1495 -0.4645
39165SOL     OW20771   3.668   5.180   9.122  0.3767 -0.3073  0.1418
39165SOL    HW120772   3.708   5.207   9.205 -1.2688  1.8890  0.2814
39165SOL    HW220773   3.698   5.245   9.059 -0.1445 -0.6975 -0.5177
39166SOL     OW20774  10.770   1.723   1.596 -0.0536 -0.3404  0.3938
39166SOL    HW120775  10.675   1.719   1.603 -0.1655  1.5351  0.3448
39166SOL    HW220776  10.802   1.712   1.685 -0.1546 -3.2509  0.1547
39167SOL     OW20777   8.379   7.180   1.527 -0.5199  0.0823  0.3448
39167SOL    HW120778   8.441   7.236   1.573  0.0117 -1.5490  1.6967
39167SOL    HW220779   8.298   7.187   1.577 -0.4999 -0.2413  0.4211
39168SOL     OW20780  10.021   7.543   0.246 -0.0406 -0.4893 -0.1167
39168SOL    HW120781   9.984   7.513   0.162 -1.7492  0.0677  0.3819
39168SOL    HW220782   9.955   7.518   0.311 -0.9087  2.9220  0.5033
39169SOL     OW20783   6.031   9.444  10.648  0.1497  0.1823  0.1158
39169SOL    HW120784   5.975   9.410  10.578  1.0455 -0.5301 -0.2811
39169SOL    HW220785   6.078   9.517  10.609  1.2517 -0.7194 -0.3098
39170SOL     OW20786   9.835   1.316   4.597  0.3729  0.0380  0.1507
39170SOL    HW120787   9.900   1.339   4.663  0.2400 -1.9944  1.0452
39170SOL    HW220788   9.886   1.311   4.515  0.8701  0.7885  0.3986
39171SOL     OW20789   1.455   8.643  11.394 -0.0128 -0.1598 -0.3887
39171SOL    HW120790   1.393   8.600  11.454 -0.9055  1.3027 -0.1805
39171SOL    HW220791   1.400   8.672  11.321  0.5269  0.6280 -0.4914
39172SOL     OW20792   6.546   5.076   3.317  0.1051 -0.1415  0.1711
39172SOL    HW120793   6.467   5.115   3.356  0.2924 -0.1850  0.6049
39172SOL    HW220794   6.528   4.982   3.317 -0.7663 -0.0140 -1.8110
39173SOL     OW20795   1.761   6.674  10.243 -0.1118 -0.2874  0.4603
39173SOL    HW120796   1.677   6.708  10.214 -0.8675 -1.6773  0.9506
39173SOL    HW220797   1.820   6.690  10.169 -0.5302  1.6109  0.5039
39174SOL     OW20798   9.757   6.582   5.206  0.7325 -0.2549 -0.0281
39174SOL    HW120799   9.786   6.621   5.288 -0.3888 -2.0027  1.2687
39174SOL    HW220800   9.829   6.525   5.180  0.4082 -0.9907  0.6619
39175SOL     OW20801   5.763   6.555   1.381  0.0603 -0.9484 -1.0314
39175SOL    HW120802   5.784   6.500   1.305  0.5977 -1.7094 -0.3473
39175SOL    HW220803   5.694   6.507   1.427 -0.1887 -0.5418 -0.9756
39176SOL     OW20804   7.433   4.560   8.350  0.1354 -0.4535  0.3924
39176SOL    HW120805   7.422   4.531   8.260 -2.0030 -1.1811  0.8436
39176SOL    HW220806   7.519   4.603   8.350  0.7615 -1.5473 -1.6622
39177SOL     OW20807   6.867   8.672   5.578  0.2504 -0.3136  0.3030
39177SOL    HW120808   6.834   8.750   5.622  1.9196  0.0713  0.9499
39177SOL    HW220809   6.952   8.655   5.619  0.3849 -1.8699 -0.5409
39178SOL     OW20810   8.239   1.610   7.930 -0.1023 -0.1094 -0.6283
39178SOL    HW120811   8.285   1.554   7.992 -1.2145 -1.1747 -0.7381
39178SOL    HW220812   8.286   1.694   7.934  1.3892 -0.9311 -0.2302
39179SOL     OW20813   5.244   6.300   0.864 -0.2263 -0.4614  0.2679
39179SOL    HW120814   5.155   6.325   0.840 -0.8996 -1.2479  1.8169
39179SOL    HW220815   5.297   6.377   0.844 -1.0689 -0.3192 -1.5736
39180SOL     OW20816  10.034   1.426   7.289  0.5493 -0.1697  0.1734
39180SOL    HW120817   9.966   1.485   7.256  1.2034  0.7467  0.4241
39180SOL    HW220818  10.087   1.481   7.347  0.4257 -1.3351  1.4211
39181SOL     OW20819  10.361   2.957   0.065 -0.4901 -0.0919  0.2582
39181SOL    HW120820  10.297   2.902   0.111  0.1853 -0.3771  0.8942
39181SOL    HW220821  10.417   2.895   0.018 -1.2061  0.2072 -1.0072
39182SOL     OW20822   9.330   2.197   9.761 -0.3157 -0.0482 -0.2640
39182SOL    HW120823   9.319   2.231   9.849 -1.3570 -2.8809  0.8402
39182SOL    HW220824   9.422   2.171   9.756 -0.7682 -2.1446  1.0021
39183SOL     OW20825   4.006   3.173   6.225  0.3638 -0.5683  0.4981
39183SOL    HW120826   4.077   3.224   6.264 -0.6392 -0.2654  2.0226
39183SOL    HW220827   4.030   3.082   6.240  2.0432 -0.6394 -2.0145
39184SOL     OW20828   1.969   9.050   0.103  0.3359 -0.3914  0.7784
39184SOL    HW120829   1.995   8.958   0.098 -0.4344 -0.5757 -0.1854
39184SOL    HW220830   2.047   9.095   0.135  2.1079 -0.8460 -2.4608
39185SOL     OW20831   3.697   6.943   3.106  0.3356 -0.7171  0.1404
39185SOL    HW120832   3.751   6.926   3.183  0.0629 -0.9610  0.2749
39185SOL    HW220833   3.608   6.922   3.133  0.4341 -2.2861 -0.6974
39186SOL     OW20834   3.198  10.116   6.212 -0.5211  0.2602 -0.3758
39186SOL    HW120835   3.183  10.046   6.148  1.1282 -0.1482 -0.3549
39186SOL    HW220836   3.212  10.069   6.294 -0.8241  0.7063 -0.0677
39187SOL     OW20837   7.718   4.065   3.337 -0.3574  0.2550  0.2985
39187SOL    HW120838   7.749   4.018   3.414 -1.3549 -0.3509  0.3534
39187SOL    HW220839   7.666   4.001   3.289  0.8166  0.4183 -1.2643
39188SOL     OW20840   9.757   4.086   1.996  0.1216 -0.4712 -0.3465
39188SOL    HW120841   9.785   4.166   2.040 -2.4280 -0.2020  0.9734
39188SOL    HW220842   9.713   4.117   1.917  1.5342 -0.7775 -1.2980
39189SOL     OW20843   3.519   7.539   3.451 -0.7478 -0.4250  0.1665
39189SOL    HW120844   3.446   7.540   3.513 -0.7629 -1.6437  0.1960
39189SOL    HW220845   3.595   7.518   3.505 -0.5171 -0.0097  0.0016
39190SOL     OW20846   2.513   7.205  10.388  0.3321 -0.4471  0.2212
39190SOL    HW120847   2.454   7.171  10.320 -0.5932  0.6431  0.4571
39190SOL    HW220848   2.600   7.185  10.355 -0.0374  0.9632 -1.8331
39191SOL     OW20849   0.977   4.745  10.500 -0.3446 -1.1710  0.3822
39191SOL    HW120850   0.944   4.751  10.410 -0.7245 -0.2775  0.5701
39191SOL    HW220851   0.906   4.781  10.554  1.1512  1.5088  0.7436
39192SOL     OW20852   1.258   4.867   1.394  0.2452 -0.4484 -0.3955
39192SOL    HW120853   1.333   4.860   1.454  0.4756  0.3418 -0.5873
39192SOL    HW220854   1.186   4.824   1.440  0.5322 -0.2261  0.2662
39193SOL     OW20855  10.999   2.259   2.380  0.2211  0.2749  0.1347
39193SOL    HW120856  11.057   2.322   2.423  0.7825  0.1117 -0.3658
39193SOL    HW220857  10.987   2.293   2.292  0.7633 -0.4472 -0.2350
39194SOL     OW20858  10.775   5.564   4.497 -0.2758 -0.0431  1.1063
39194SOL    HW120859  10.697   5.606   4.462  0.2083  0.7456  0.9350
39194SOL    HW220860  10.762   5.563   4.591 -1.0064 -0.9966  1.0174
39195SOL     OW20861   2.097   7.029   4.951 -0.0405  0.4760  0.0238
39195SOL    HW120862   2.162   6.970   4.987  0.4883  0.6277 -0.6644
39195SOL    HW220863   2.018   6.976   4.943 -0.4408  0.6470  2.1727
39196SOL     OW20864   1.799   9.388   4.130 -0.2201  0.2063  0.3082
39196SOL    HW120865   1.773   9.433   4.210 -4.2373 -1.7556  0.3905
39196SOL    HW220866   1.758   9.438   4.059 -3.8627 -2.3130  0.3327
39197SOL     OW20867   4.360   6.908   6.021 -0.1252  0.1167  0.2692
39197SOL    HW120868   4.324   6.846   6.084  0.8759 -0.5350  0.2167
39197SOL    HW220869   4.400   6.977   6.074 -0.2678  0.1516  0.3322
39198SOL     OW20870   2.552   6.025  10.562 -0.1736  0.3084  0.1320
39198SOL    HW120871   2.493   6.051  10.633  0.8792  1.1686  0.7255
39198SOL    HW220872   2.551   6.100  10.502 -0.5862 -0.1616 -0.4617
39199SOL     OW20873   8.122  11.386  10.563 -0.2229  0.2744 -0.6938
39199SOL    HW120874   8.031  11.386  10.592 -0.3667  0.4256 -1.1457
39199SOL    HW220875   8.163  11.316  10.614 -0.7043 -0.1141 -0.8308
39200SOL     OW20876   9.651   3.421   8.582 -0.2004 -0.2471  0.5686
39200SOL    HW120877   9.728   3.477   8.592 -1.4819  1.3475  2.0881
39200SOL    HW220878   9.622   3.436   8.491 -2.5095  4.5085  1.7576
39201SOL     OW20879   6.028   1.884   6.743 -0.0427  0.0631 -0.1202
39201SOL    HW120880   5.988   1.966   6.771  3.5710  2.0310 -0.1093
39201SOL    HW220881   6.055   1.842   6.824  0.2350  0.0501 -0.2189
39202SOL     OW20882   5.303   3.316   3.192  0.0032  0.2228 -0.2749
39202SOL    HW120883   5.265   3.258   3.126 -0.0750 -0.0554  0.0202
39202SOL    HW220884   5.303   3.402   3.149  0.4496 -0.0489 -0.8490
39203SOL     OW20885   4.145   0.004   1.770  0.3684  0.0861 -0.3320
39203SOL    HW120886   4.189  -0.066   1.817  0.4461 -0.1713 -0.7830
39203SOL    HW220887   4.155   0.081   1.826  1.5902  0.0878 -0.5332
39204SOL     OW20888   7.339   5.048   8.957  0.6696 -0.0784 -0.1598
39204SOL    HW120889   7.285   5.126   8.944 -0.1815 -0.7056 -0.5361
39204SOL    HW220890   7.353   5.013   8.869  2.5878  0.6199 -0.1811
39205SOL     OW20891   7.981   0.300   3.570 -0.3852 -0.0354 -0.0113
39205SOL    HW120892   7.979   0.358   3.647 -1.7780  0.5340 -0.4468
39205SOL    HW220893   7.952   0.215   3.603  0.6382 -0.2250  0.4194
39206SOL     OW20894   7.066  10.288  10.104 -1.0901  0.5835  0.1357
39206SOL    HW120895   7.153  10.319  10.077 -0.5291 -0.6180  0.4824
39206SOL    HW220896   7.037  10.233  10.031 -1.5697  0.9894  0.0192
39207SOL     OW20897   2.317   0.036   5.905  0.6495 -0.3959  0.2133
39207SOL    HW120898   2.396  -0.010   5.931  0.7359  0.3953  1.3960
39207SOL    HW220899   2.340   0.129   5.909 -0.2564 -0.1654  0.2992
39208SOL     OW20900   1.336  11.032   8.468 -0.4811 -0.2440  0.2759
39208SOL    HW120901   1.255  11.064   8.508 -1.3037 -1.1954 -0.5695
39208SOL    HW220902   1.323  11.045   8.374  0.7178  0.3914  0.1829
39209SOL     OW20903   7.781   6.248   2.689  0.1653  0.4761  0.2515
39209SOL    HW120904   7.709   6.185   2.687  1.9290 -1.7274  2.1788
39209SOL    HW220905   7.831   6.230   2.610 -0.3419  0.7357 -0.1342
39210SOL     OW20906   6.711  10.242   4.456  0.6742  0.3986 -0.7252
39210SOL    HW120907   6.666  10.218   4.537  1.0528 -0.4101 -0.7452
39210SOL    HW220908   6.699  10.337   4.449  0.6887  0.4846  0.3004
39211SOL     OW20909   4.074  10.057   3.052  0.4305  0.1230 -0.6605
39211SOL    HW120910   4.118  10.072   3.136  0.6343  0.6103 -0.8482
39211SOL    HW220911   4.146  10.046   2.989  0.3971 -3.6674 -0.2635
39212SOL     OW20912   2.529   3.420   4.024  0.3564  0.2555  0.8343
39212SOL    HW120913   2.479   3.379   3.953 -0.5606 -0.6174  1.9446
39212SOL    HW220914   2.620   3.394   4.007  0.2023  0.3970 -0.2402
39213SOL     OW20915   3.713   0.719   8.808  0.0540 -0.1194  0.2974
39213SOL    HW120916   3.730   0.702   8.715 -1.5727 -0.2816  0.0123
39213SOL    HW220917   3.702   0.632   8.847 -0.8419 -0.0013  0.3201
39214SOL     OW20918   4.968   0.571   5.985  0.1576 -0.0533 -0.2515
39214SOL    HW120919   4.881   0.564   5.945  0.1763 -2.1211 -0.0151
39214SOL    HW220920   5.029   0.545   5.915  0.3751 -1.1067  0.3049
39215SOL     OW20921   8.223   1.867   1.245 -0.3426 -0.1185 -0.2824
39215SOL    HW120922   8.284   1.925   1.199 -0.5014  0.0103 -0.3358
39215SOL    HW220923   8.231   1.783   1.200  0.2926 -0.2934  0.1475
39216SOL     OW20924   2.107   7.541   9.212  0.6891  0.3497 -0.3803
39216SOL    HW120925   2.060   7.465   9.246  1.6027 -0.6640 -1.2951
39216SOL    HW220926   2.051   7.615   9.233 -0.8879 -0.7113 -0.6460
39217SOL     OW20927   0.853   7.378   6.176 -0.6498 -0.4828  0.2579
39217SOL    HW120928   0.930   7.433   6.159 -0.3744 -1.0914 -0.5164
39217SOL    HW220929   0.870   7.339   6.262  1.0566 -2.4328 -0.8641
39218SOL     OW20930   5.987   2.932  10.199 -0.4564  0.4200  0.1177
39218SOL    HW120931   5.906   2.929  10.250 -0.6831  0.5798 -0.2381
39218SOL    HW220932   6.023   2.843  10.208 -1.9721 -0.4652 -1.8328
39219SOL     OW20933   6.018   0.314   2.949 -0.0446 -0.2394 -0.3471
39219SOL    HW120934   5.981   0.226   2.959 -1.0650  0.3184  1.0119
39219SOL    HW220935   6.113   0.299   2.949 -0.1948 -1.3235  0.0058
39220SOL     OW20936   0.091   5.670   4.125  0.1097  0.0757  0.2784
39220SOL    HW120937   0.042   5.749   4.150 -0.5056  0.1000 -0.9386
39220SOL    HW220938   0.149   5.653   4.200 -0.1472  1.3543  0.7950
39221SOL     OW20939   6.252   0.451   5.677  0.0845  0.0519  0.4885
39221SOL    HW120940   6.312   0.475   5.606 -0.0049 -0.2951  0.2943
39221SOL    HW220941   6.169   0.491   5.652  0.2131  0.4608  0.7146
39222SOL     OW20942   1.268   4.596  11.065 -0.3014 -0.2354  0.0064
39222SOL    HW120943   1.210   4.522  11.052 -0.4562 -0.9899  3.7626
39222SOL    HW220944   1.235   4.639  11.144  2.4976  1.0369  0.6136
39223SOL     OW20945   0.340   1.506   7.407 -0.0662  0.2024 -0.2393
39223SOL    HW120946   0.332   1.412   7.424  1.2751  0.1730  0.3822
39223SOL    HW220947   0.433   1.519   7.389 -0.1027  1.5221  0.4154
39224SOL     OW20948   4.706   4.879   8.647 -0.4416 -0.4066 -0.2910
39224SOL    HW120949   4.682   4.814   8.713 -0.5988 -0.1903 -0.1351
39224SOL    HW220950   4.793   4.853   8.618  0.7407  0.9522  1.8401
39225SOL     OW20951   8.060  10.579   1.322  0.1624  0.8887  0.6987
39225SOL    HW120952   8.077  10.641   1.251  0.3415 -1.7205 -1.6865
39225SOL    HW220953   7.975  10.606   1.357 -0.7941  1.2587 -1.7124
39226SOL     OW20954   6.675   8.966   0.121  0.8272 -0.0240 -0.0865
39226SOL    HW120955   6.630   9.042   0.084  0.3671 -1.0062 -1.6297
39226SOL    HW220956   6.615   8.933   0.188  1.0667  0.9793  0.6562
39227SOL     OW20957   7.169   3.350   1.670 -0.1651  0.2152 -0.1387
39227SOL    HW120958   7.256   3.379   1.699  0.0036 -0.4135  0.0043
39227SOL    HW220959   7.184   3.265   1.630 -0.6504  0.3207 -0.5618
39228SOL     OW20960   1.627   0.184   9.121 -0.1781 -0.0916  0.0080
39228SOL    HW120961   1.602   0.237   9.046 -0.7591 -1.9135 -1.1532
39228SOL    HW220962   1.630   0.246   9.195 -0.8747  1.5012 -1.2426
39229SOL     OW20963   9.685  11.093  10.412  0.2511  0.1346  0.4801
39229SOL    HW120964   9.591  11.092  10.395  0.5390  0.3441 -1.3204
39229SOL    HW220965   9.693  11.117  10.504 -1.3985  1.9779  0.1933
39230SOL     OW20966   0.393   3.490   8.794 -0.2725  0.2702  0.3799
39230SOL    HW120967   0.358   3.561   8.848 -0.6463  0.8215 -0.5543
39230SOL    HW220968   0.320   3.463   8.739 -0.1290 -0.8635  0.7341
39231SOL     OW20969   9.764   5.780  11.163 -0.5176 -0.6189  0.7459
39231SOL    HW120970   9.731   5.823  11.083 -1.2005  0.2895  1.4871
39231SOL    HW220971   9.824   5.844  11.201 -0.4829 -0.8955  1.1578
39232SOL     OW20972   5.576  10.645   4.187  1.0266  0.8151 -0.4009
39232SOL    HW120973   5.598  10.639   4.094  0.9145  1.2193 -0.4525
39232SOL    HW220974   5.550  10.736   4.201 -0.6178  0.3559 -0.3297
39233SOL     OW20975   3.319   1.393   4.687  0.5409  0.0888  0.4526
39233SOL    HW120976   3.397   1.412   4.636  0.1191  0.1412 -0.1778
39233SOL    HW220977   3.280   1.317   4.643  0.8534 -0.6768  1.4463
39234SOL     OW20978   0.055   4.972   2.874 -0.5406  0.5891 -0.1063
39234SOL    HW120979  -0.023   4.921   2.850  1.3597 -1.9032 -1.5796
39234SOL    HW220980   0.079   5.018   2.794  0.4846 -0.1573 -0.2555
39235SOL     OW20981   4.564   8.529  10.136  0.5158 -0.0750  0.4511
39235SOL    HW120982   4.653   8.540  10.103 -0.0481 -0.6694 -1.3677
39235SOL    HW220983   4.546   8.610  10.184  2.2761 -0.2566  1.5292
39236SOL     OW20984   6.219   3.819   1.299 -0.1872  0.1549 -0.4325
39236SOL    HW120985   6.171   3.753   1.250 -0.8834 -0.2600  0.7605
39236SOL    HW220986   6.310   3.808   1.271 -0.6812  0.5904 -2.3199
39237SOL     OW20987   4.355   5.149   3.790  0.4256 -0.0116 -0.3427
39237SOL    HW120988   4.305   5.077   3.828 -0.8083  0.8234 -0.3130
39237SOL    HW220989   4.373   5.122   3.700  1.2630 -0.9694  0.0971
39238SOL     OW20990   4.045   8.748   7.526 -0.7162  0.0072 -0.1309
39238SOL    HW120991   3.987   8.778   7.596  1.8390  1.8056  1.4107
39238SOL    HW220992   4.075   8.829   7.484  0.5811 -0.8253 -0.8740
39239SOL     OW20993  10.085   3.230   5.818 -0.1688  0.0319 -0.3631
39239SOL    HW120994  10.095   3.145   5.774 -1.8830  0.0672 -0.8666
39239SOL    HW220995  10.175   3.259   5.832  0.4588 -1.6926 -0.5099
39240SOL     OW20996  10.977   2.556  11.235  0.0324  0.4518  0.0937
39240SOL    HW120997  10.933   2.619  11.177  1.5616  1.4047 -0.0730
39240SOL    HW220998  11.019   2.494  11.175 -0.8492 -0.3133  0.2506
39241SOL     OW20999   0.813   9.552   8.912 -0.0511 -0.0332  0.8479
39241SOL    HW121000   0.727   9.510   8.916 -0.1010  0.1461  2.4469
39241SOL    HW221001   0.866   9.504   8.976  1.2923 -0.6228 -0.6390
39242SOL     OW21002   0.884   9.433   6.857 -0.5449  0.2342  0.4660
39242SOL    HW121003   0.889   9.522   6.822  1.4654 -0.3934 -1.0312
39242SOL    HW221004   0.956   9.429   6.920  1.2445 -1.0718 -1.5196
39243SOL     OW21005   3.598   9.302  10.650  0.3518  0.0219  0.3437
39243SOL    HW121006   3.532   9.254  10.601 -1.5351  1.2723  1.4982
39243SOL    HW221007   3.628   9.370  10.591  0.1382 -0.1737  0.0095
39244SOL     OW21008   1.482   7.992   0.057  0.4072  0.2932  0.0395
39244SOL    HW121009   1.573   7.992   0.026  1.6535 -3.3432  3.0084
39244SOL    HW221010   1.439   7.923   0.006 -0.0934  0.5580  0.0996
39245SOL     OW21011   2.139  11.234   9.989  0.5933 -0.1012 -0.1181
39245SOL    HW121012   2.177  11.274   9.911 -0.3064 -1.3347 -1.2315
39245SOL    HW221013   2.205  11.248  10.057  0.5983  2.6848 -0.5572
39246SOL     OW21014   2.714   9.243   8.061  0.3878  0.2094 -0.3883
39246SOL    HW121015   2.767   9.314   8.025 -0.9454  1.3500 -0.1920
39246SOL    HW221016   2.763   9.213   8.138  1.0432  0.8291 -0.5496
39247SOL     OW21017   2.482   0.835   2.862 -0.3996 -0.5107  0.1086
39247SOL    HW121018   2.530   0.916   2.873  0.4748 -0.9291 -0.5320
39247SOL    HW221019   2.410   0.857   2.802 -0.8479  0.0407  0.8344
39248SOL     OW21020   3.723   3.522   6.676  0.3085 -0.2635  0.0579
39248SOL    HW121021   3.629   3.528   6.690  0.5661  1.8754  1.3332
39248SOL    HW221022   3.732   3.474   6.594 -1.9016 -0.1841 -0.2946
39249SOL     OW21023   3.667  11.398  10.629  0.2797  0.3090 -0.4060
39249SOL    HW121024   3.700  11.357  10.549  0.7229  0.4845 -0.3170
39249SOL    HW221025   3.696  11.489  10.624 -0.6444  0.5995 -0.5682
39250SOL     OW21026   3.897   5.385   7.350 -0.4841 -0.1364 -0.7670
39250SOL    HW121027   3.942   5.403   7.267 -0.1126 -2.2886 -1.0741
39250SOL    HW221028   3.824   5.329   7.326 -0.2844 -0.9101  0.3807
39251SOL     OW21029   7.535   2.918   5.476 -0.2228  0.3512 -0.1672
39251SOL    HW121030   7.514   2.961   5.393  0.4687 -0.7672 -0.9564
39251SOL    HW221031   7.613   2.865   5.457 -0.3079 -0.2718  1.0835
39252SOL     OW21032   8.548  10.560   8.641 -0.0884  0.1117  0.3779
39252SOL    HW121033   8.527  10.498   8.570  1.0478 -0.2291  0.3224
39252SOL    HW221034   8.623  10.609   8.609  0.4925 -0.0994  1.3778
39253SOL     OW21035   2.849   6.142   9.401 -0.5242  0.8522  0.3083
39253SOL    HW121036   2.928   6.089   9.385  0.1633  1.1993  2.2551
39253SOL    HW221037   2.809   6.152   9.315 -0.8379 -3.0076 -0.1697
39254SOL     OW21038   1.370   4.832   6.813  0.1799 -0.4947 -0.0731
39254SOL    HW121039   1.409   4.849   6.727  0.1442  0.1585  0.0346
39254SOL    HW221040   1.284   4.797   6.794 -0.2021  0.5379 -0.3135
39255SOL     OW21041  10.477  11.188   7.691 -0.1990 -0.7994 -0.1355
39255SOL    HW121042  10.570  11.164   7.683 -0.0197  0.1377 -1.0027
39255SOL    HW221043  10.477  11.283   7.695 -1.0441 -0.8314  1.3430
39256SOL     OW21044   9.617   5.376   1.052 -0.2590 -0.8291 -0.3580
39256SOL    HW121045   9.568   5.457   1.066 -1.3007 -1.4855 -0.0739
39256SOL    HW221046   9.554   5.307   1.069  0.5439 -1.7083 -0.8513
39257SOL     OW21047   3.706   7.614   0.652  0.4504 -0.6986 -0.6413
39257SOL    HW121048   3.620   7.591   0.687 -0.1251 -0.4518 -1.8588
39257SOL    HW221049   3.758   7.636   0.729 -0.6958 -0.4526  0.0819
39258SOL     OW21050   7.026  10.835   5.726 -0.5727  0.0622  0.3289
39258SOL    HW121051   7.103  10.781   5.710  0.6179  1.5759  0.7464
39258SOL    HW221052   7.006  10.874   5.641 -1.0543 -0.5303  0.1640
39259SOL     OW21053   0.260   8.694   2.958  0.4124 -0.4154 -0.6587
39259SOL    HW121054   0.260   8.778   2.913  1.2351  0.6018  1.1555
39259SOL    HW221055   0.238   8.715   3.049 -0.0102 -2.2517 -0.2995
39260SOL     OW21056   6.779   7.761   6.724 -0.0296  0.0543  0.2206
39260SOL    HW121057   6.683   7.764   6.728 -0.0447 -0.9615  1.3848
39260SOL    HW221058   6.800   7.785   6.634 -1.3059  1.5486  0.2690
39261SOL     OW21059   1.921   3.504   1.978 -0.1999 -0.4152 -0.1758
39261SOL    HW121060   1.830   3.493   1.950 -0.8962  0.7622  1.4614
39261SOL    HW221061   1.964   3.547   1.904 -0.6461 -2.0502 -1.4380
39262SOL     OW21062   9.156   4.442   4.695  0.3570  1.1401  0.0409
39262SOL    HW121063   9.212   4.474   4.765  2.4571 -2.6181  0.3024
39262SOL    HW221064   9.213   4.438   4.618  0.4525 -2.1181  0.1442
39263SOL     OW21065   6.028   6.773   5.971  0.2376  0.5440 -0.8885
39263SOL    HW121066   5.956   6.805   5.918 -1.6736 -2.4142 -0.3085
39263SOL    HW221067   5.990   6.761   6.059  0.8753 -2.4780 -0.9051
39264SOL     OW21068   1.137  10.203   3.220 -0.1580  0.2584  0.0276
39264SOL    HW121069   1.221  10.172   3.187 -0.4713 -0.2545 -0.3054
39264SOL    HW221070   1.158  10.281   3.271  0.5356  0.0375  0.0829
39265SOL     OW21071   3.750   0.444  11.280 -0.3199 -0.2133  0.3102
39265SOL    HW121072   3.686   0.488  11.224 -0.7478 -0.7664  0.3627
39265SOL    HW221073   3.727   0.472  11.369 -1.5681 -1.7277  0.5018
39266SOL     OW21074   1.286   6.940   4.304  0.7368 -0.3787 -0.1448
39266SOL    HW121075   1.213   6.997   4.279  0.6935 -0.7041 -0.7896
39266SOL    HW221076   1.358   6.968   4.247  1.5708  0.9084  1.4605
39267SOL     OW21077   9.054   3.544   4.302  0.5094  0.0660  0.3901
39267SOL    HW121078   9.071   3.490   4.379 -2.0641 -0.1375  0.9010
39267SOL    HW221079   9.089   3.492   4.229  0.6183 -0.9871  1.1694
39268SOL     OW21080  10.602  11.175   3.930  0.2434  0.6263  0.2339
39268SOL    HW121081  10.517  11.194   3.970  0.8595 -0.0324  1.9200
39268SOL    HW221082  10.664  11.180   4.002  1.4271 -0.5338 -0.6632
39269SOL     OW21083   6.499   5.865   0.694 -0.0506  0.1315 -0.0688
39269SOL    HW121084   6.466   5.776   0.709 -1.8631  0.6875 -0.4493
39269SOL    HW221085   6.563   5.855   0.624 -1.8124 -0.6534 -1.6684
39270SOL     OW21086   7.205   7.312   3.110  0.2692  0.2515  0.4680
39270SOL    HW121087   7.139   7.379   3.092  1.3142  1.3934  0.7609
39270SOL    HW221088   7.156   7.230   3.111 -1.2322  1.1152  1.2190
39271SOL     OW21089   7.567   3.859   3.196 -0.0595  0.0310  0.0051
39271SOL    HW121090   7.595   3.836   3.108  1.4910  1.1090  0.1780
39271SOL    HW221091   7.490   3.914   3.183  0.4313  0.5637 -0.7054
39272SOL     OW21092  10.811   0.552   0.472 -0.0892 -0.5520  0.1861
39272SOL    HW121093  10.890   0.506   0.445 -1.5134 -2.5206 -0.9228
39272SOL    HW221094  10.823   0.570   0.565  2.7204  1.5703 -0.4738
39273SOL     OW21095   6.474  11.268   7.448  0.2639  0.4411  0.3443
39273SOL    HW121096   6.561  11.231   7.438  0.9245  2.0727 -0.4319
39273SOL    HW221097   6.469  11.293   7.540 -0.2733 -1.6591  0.9265
39274SOL     OW21098  11.119   8.644   3.932  0.6157 -0.1751 -0.0233
39274SOL    HW121099  11.088   8.734   3.939  0.5417 -0.1487 -0.6426
39274SOL    HW221100  11.137   8.631   3.839 -0.5141 -1.1778 -0.1347
39275SOL     OW21101  10.850   9.102   4.346  0.0784  0.4850  0.0516
39275SOL    HW121102  10.869   9.082   4.254 -0.4393  0.4374 -0.0438
39275SOL    HW221103  10.930   9.076   4.392 -0.8073 -2.5689  0.0422
39276SOL     OW21104  10.039  10.216   4.239 -0.6465  0.1129  0.0449
39276SOL    HW121105  10.050  10.163   4.160  1.0245  0.2805  0.1245
39276SOL    HW221106   9.953  10.193   4.272 -1.4354  0.1114 -1.8794
39277SOL     OW21107   9.913   5.084   3.368  0.1734 -0.2516 -0.0293
39277SOL    HW121108   9.910   5.034   3.449  1.2192  0.7715  0.6668
39277SOL    HW221109   9.833   5.137   3.370 -1.0217 -1.9081 -0.8420
39278SOL     OW21110   2.381  10.906   5.387  0.1452  0.1122  0.2303
39278SOL    HW121111   2.325  10.984   5.390  0.1871  0.1608 -0.1358
39278SOL    HW221112   2.454  10.926   5.446  1.0039  1.0320 -1.0928
39279SOL     OW21113   7.529   3.162   3.269 -0.2139  0.2287 -0.2372
39279SOL    HW121114   7.495   3.161   3.180 -0.6768  3.8046 -0.2311
39279SOL    HW221115   7.621   3.134   3.260 -0.3337  0.2764 -1.7731
39280SOL     OW21116   4.788   2.556   7.979  0.8398  0.1342 -0.3452
39280SOL    HW121117   4.760   2.644   8.004 -1.3589 -0.9354  1.2515
39280SOL    HW221118   4.745   2.540   7.894 -1.2291 -0.4169  0.7387
39281SOL     OW21119  10.477   9.300   0.924 -0.1580 -0.1798 -0.2626
39281SOL    HW121120  10.548   9.347   0.967 -0.1736 -0.3069 -0.0945
39281SOL    HW221121  10.510   9.211   0.913 -0.8154 -0.6104  1.1127
39282SOL     OW21122   4.139   1.011   2.436  0.7140 -0.4330 -0.1434
39282SOL    HW121123   4.081   1.024   2.361  1.9656 -1.0398 -1.2514
39282SOL    HW221124   4.091   1.049   2.510  0.7475  3.0118 -1.7253
39283SOL     OW21125   5.454   2.520   3.749 -0.2884 -0.0162  0.6167
39283SOL    HW121126   5.496   2.465   3.682 -2.3247 -0.3066 -0.5008
39283SOL    HW221127   5.378   2.557   3.704 -0.5759  1.4145  2.2168
39284SOL     OW21128   9.493   5.982   1.001 -0.0299  0.1557 -0.2332
39284SOL    HW121129   9.579   5.941   1.013  0.5567  0.7666 -1.9968
39284SOL    HW221130   9.513   6.074   0.985 -0.9723  0.2600 -0.9245
39285SOL     OW21131   7.840   7.735   8.822 -0.1546 -0.1994  0.2244
39285SOL    HW121132   7.876   7.674   8.758 -0.0324  1.6247 -1.5533
39285SOL    HW221133   7.755   7.760   8.786  0.3531  1.6361  0.1672
39286SOL     OW21134   4.418   4.864   4.998  0.1905  0.1028 -0.3021
39286SOL    HW121135   4.424   4.778   4.955 -1.4969 -0.7496  1.0421
39286SOL    HW221136   4.331   4.896   4.975  0.5292  1.1343 -0.1715
39287SOL     OW21137   2.979  10.336   7.473  0.6120 -0.5686  0.2441
39287SOL    HW121138   3.071  10.349   7.448  0.8406 -0.4240  1.1194
39287SOL    HW221139   2.968  10.390   7.551 -0.2053 -0.6342  0.1763
39288SOL     OW21140  10.159   2.873   4.692 -0.4743  0.1847 -0.2125
39288SOL    HW121141  10.077   2.911   4.660 -1.0682 -0.0051  0.9948
39288SOL    HW221142  10.133   2.791   4.733  0.1548  0.6007  1.0859
39289SOL     OW21143   1.598   5.642  11.223 -0.2595  0.2963 -0.2511
39289SOL    HW121144   1.614   5.570  11.284 -0.7388  1.8052  1.7604
39289SOL    HW221145   1.673   5.641  11.164  0.3665 -1.0453  0.5244
39290SOL     OW21146   9.243   1.836   6.938  0.3104  0.1376  0.0396
39290SOL    HW121147   9.308   1.784   6.890  0.1449  0.6104 -0.7091
39290SOL    HW221148   9.261   1.818   7.031  0.0769 -1.4760 -0.2069
39291SOL     OW21149   6.581  10.819   6.198 -1.3002 -0.2281 -0.2772
39291SOL    HW121150   6.627  10.753   6.249  0.1462  1.5927  0.9313
39291SOL    HW221151   6.594  10.793   6.107  0.4317 -0.8588  0.1188
39292SOL     OW21152   4.082  10.500   1.037 -0.1176  0.0153  0.1955
39292SOL    HW121153   4.027  10.574   1.063 -0.0987  0.3657 -0.7219
39292SOL    HW221154   4.039  10.424   1.075 -1.8171  0.1684 -1.2994
39293SOL     OW21155   2.061   6.961   9.415 -0.1678  0.2695  0.1546
39293SOL    HW121156   2.121   7.027   9.380  0.9055 -0.8596 -0.1918
39293SOL    HW221157   2.091   6.945   9.504  2.2021 -2.6307 -1.0053
39294SOL     OW21158   4.584   5.559   3.322 -0.4678  0.4092  0.7006
39294SOL    HW121159   4.619   5.542   3.234 -1.6620 -0.9939  0.4641
39294SOL    HW221160   4.550   5.648   3.317  0.6413  0.8328  0.1576
39295SOL     OW21161   1.185   3.898  11.314 -0.5226  0.2412  0.5680
39295SOL    HW121162   1.199   3.991  11.295 -1.2917  0.7337  2.2063
39295SOL    HW221163   1.207   3.889  11.406 -2.3823 -0.7676  0.9589
39296SOL     OW21164   0.042   6.741   2.059  0.2518  0.1289  0.2382
39296SOL    HW121165  -0.051   6.762   2.068 -0.0392 -1.1385  0.3120
39296SOL    HW221166   0.069   6.716   2.147  0.3312 -0.7489 -0.0258
39297SOL     OW21167   9.988   7.619   7.670  0.0790 -0.1777  0.1334
39297SOL    HW121168   9.979   7.605   7.575  0.1085 -0.5135  0.1777
39297SOL    HW221169   9.945   7.543   7.709 -1.3164  0.7255  0.4181
39298SOL     OW21170   0.689   6.344   2.333 -0.2257 -0.1274  0.0280
39298SOL    HW121171   0.785   6.344   2.336 -0.2215  0.9549  0.1997
39298SOL    HW221172   0.668   6.335   2.240  0.0566  0.4098 -0.0929
39299SOL     OW21173   6.766  10.039   8.743  0.0297  0.9710 -0.1453
39299SOL    HW121174   6.782  10.121   8.789 -1.7847  1.0406  0.4242
39299SOL    HW221175   6.756  10.064   8.651 -1.7432  1.6124  0.1744
39300SOL     OW21176   7.740  10.467   1.015  0.2411  0.6470  0.1174
39300SOL    HW121177   7.652  10.431   1.007  0.4631  0.1456 -0.1741
39300SOL    HW221178   7.764  10.454   1.107 -1.0449  3.3562  0.9354
39301SOL     OW21179   9.758   4.751   6.744 -0.3272 -0.1794 -0.1377
39301SOL    HW121180   9.724   4.838   6.720 -1.8731 -1.1308 -1.6222
39301SOL    HW221181   9.680   4.698   6.759  0.5962 -1.2361  1.2125
39302SOL     OW21182   8.022   8.312   5.380 -0.2338 -0.9966 -0.0017
39302SOL    HW121183   8.117   8.315   5.376 -0.1890  2.5810  0.2690
39302SOL    HW221184   7.995   8.301   5.289  0.5354  1.4879 -0.6029
39303SOL     OW21185   7.320   1.511   7.779  0.1293  0.1964 -0.1915
39303SOL    HW121186   7.396   1.568   7.790  0.9562 -0.7383 -0.8293
39303SOL    HW221187   7.251   1.553   7.830  2.2141 -1.2190  4.2667
39304SOL     OW21188   7.347   3.801   9.419 -0.3817  0.1869  0.0801
39304SOL    HW121189   7.288   3.777   9.348 -0.2801 -0.7696  0.3052
39304SOL    HW221190   7.434   3.804   9.378 -0.4205  0.3658  0.0095
39305SOL     OW21191   7.998   2.579   0.626  0.0038  0.2830  0.1342
39305SOL    HW121192   7.963   2.548   0.542 -0.3691 -0.8791  0.6915
39305SOL    HW221193   8.031   2.667   0.607  2.2914 -0.9014 -1.8415
39306SOL     OW21194  10.952  10.095   3.944  0.0410 -0.5750  0.0111
39306SOL    HW121195  10.945  10.002   3.925  0.2101 -0.2890 -1.5291
39306SOL    HW221196  11.003  10.132   3.872  0.6419  0.5970  0.9813
39307SOL     OW21197   9.968   2.564  11.027 -0.5211 -0.1965 -0.0865
39307SOL    HW121198   9.950   2.641  11.081 -0.5437 -0.6864  0.6177
39307SOL    HW221199  10.054   2.533  11.056 -0.1127  0.0599 -0.9717
39308SOL     OW21200   7.769   3.554   2.393 -0.3619  0.4924  0.7055
39308SOL    HW121201   7.860   3.522   2.396 -0.4840  0.1348  0.6345
39308SOL    HW221202   7.776   3.646   2.418  0.5488  1.6545 -3.1220
39309SOL     OW21203   4.253   9.249   9.633  0.5213  0.4266  0.2299
39309SOL    HW121204   4.203   9.243   9.551 -0.2642  0.9427  0.6598
39309SOL    HW221205   4.191   9.284   9.696  1.5031  1.2929  0.7350
39310SOL     OW21206   3.904   6.227  10.527 -0.4151 -0.0577 -0.1173
39310SOL    HW121207   3.859   6.269  10.601  0.8214  3.1546 -1.0049
39310SOL    HW221208   3.997   6.242  10.545 -0.0834  0.6644 -2.1778
39311SOL     OW21209   7.473  10.297   4.798  0.0919  0.3048 -0.6777
39311SOL    HW121210   7.452  10.236   4.727 -0.7231 -0.1640 -0.0477
39311SOL    HW221211   7.468  10.383   4.758  0.5155  0.0042 -1.4030
39312SOL     OW21212  10.790   7.130  11.133 -0.1625  0.3053 -0.0473
39312SOL    HW121213  10.874   7.171  11.113 -0.0790  1.0679  1.6765
39312SOL    HW221214  10.788   7.052  11.079  2.2076 -0.3924  0.7331
39313SOL     OW21215   8.918   4.301   2.059  0.4992 -0.0717  0.7195
39313SOL    HW121216   8.905   4.216   2.016 -0.2692 -0.3369  1.4725
39313SOL    HW221217   8.841   4.352   2.036  0.0752 -0.2181  1.7831
39314SOL     OW21218   0.525  11.099   8.967  0.4220 -1.2245 -0.3225
39314SOL    HW121219   0.527  11.004   8.956 -1.6755 -1.2034 -1.2771
39314SOL    HW221220   0.511  11.112   9.061 -3.0636 -2.0478 -0.5928
39315SOL     OW21221   1.512   6.986   0.016  0.0961  0.6383  0.3605
39315SOL    HW121222   1.561   6.928   0.075 -0.7688  0.1139  0.5843
39315SOL    HW221223   1.571   7.059  -0.000  1.2049 -0.2687  0.1227
39316SOL     OW21224   8.938   9.704   8.330  0.0548 -0.2599 -0.1872
39316SOL    HW121225   9.016   9.661   8.366  0.3366 -0.5578 -1.1402
39316SOL    HW221226   8.872   9.635   8.327  0.2915 -0.4547 -1.0444
39317SOL     OW21227   9.707   3.179   2.925  0.6239 -0.1641  0.1740
39317SOL    HW121228   9.645   3.109   2.903  1.7668 -0.5017 -2.4072
39317SOL    HW221229   9.686   3.250   2.864 -0.2790  1.6827  2.5104
39318SOL     OW21230  11.312   5.838   9.713 -0.0582 -0.4987 -0.0432
39318SOL    HW121231  11.369   5.762   9.702  0.9369  0.2925 -0.5011
39318SOL    HW221232  11.283   5.860   9.625  0.8317  0.5231 -0.0949
39319SOL     OW21233   8.193   2.120   9.058 -0.5396  0.4940 -0.1734
39319SOL    HW121234   8.124   2.170   9.100 -0.8256 -0.4954  0.5847
39319SOL    HW221235   8.245   2.086   9.131 -0.3986 -0.3613 -0.6605
39320SOL     OW21236   5.784   5.664   8.008 -0.4667 -0.9212  0.1846
39320SOL    HW121237   5.796   5.599   8.077  0.0895 -1.3460 -0.3034
39320SOL    HW221238   5.830   5.628   7.932 -1.0381 -0.4491 -0.4040
39321SOL     OW21239   0.146   8.216  10.815 -0.4044 -0.1457 -0.5276
39321SOL    HW121240   0.106   8.283  10.759 -0.1530  0.5524  0.1160
39321SOL    HW221241   0.124   8.133  10.772 -1.3727  0.3010 -0.9218
39322SOL     OW21242   0.428   4.338  11.053 -0.1216  0.2068  0.7012
39322SOL    HW121243   0.463   4.270  10.996  0.6075  1.0373  0.1332
39322SOL    HW221244   0.333   4.326  11.049 -0.0070 -0.8187  0.6918
39323SOL     OW21245   5.969   5.229   7.052 -0.0782  0.5094  0.3582
39323SOL    HW121246   6.023   5.217   7.131 -0.6794 -0.3228  0.6613
39323SOL    HW221247   5.947   5.322   7.052  0.6999  0.7053  0.6558
39324SOL     OW21248   2.085   7.560   7.396  0.1764 -0.2340 -0.2775
39324SOL    HW121249   2.031   7.607   7.460  3.2442  1.4072  1.3457
39324SOL    HW221250   2.064   7.468   7.410 -2.8875  0.2932 -0.5421
39325SOL     OW21251   9.829   7.937   0.351  0.1156  0.4868 -0.1362
39325SOL    HW121252   9.762   7.977   0.295 -0.0707 -0.2380 -0.4419
39325SOL    HW221253   9.844   7.850   0.313  0.1020  0.0376  0.8405
39326SOL     OW21254   1.832   8.863   4.611 -0.0001 -0.5719 -0.0284
39326SOL    HW121255   1.835   8.802   4.685  1.7311  2.0540  2.2872
39326SOL    HW221256   1.922   8.865   4.577 -0.1348  0.3086 -0.3674
39327SOL     OW21257   3.384   3.964   2.450  0.2259 -0.0554  0.4094
39327SOL    HW121258   3.442   3.894   2.420  1.0581  0.3436  1.0267
39327SOL    HW221259   3.368   3.943   2.542  0.7362  0.7213  0.6819
39328SOL     OW21260   0.734   7.438   7.757  0.4234 -0.2474 -0.9889
39328SOL    HW121261   0.769   7.407   7.673 -0.0519 -0.8624 -0.9709
39328SOL    HW221262   0.692   7.521   7.737  0.0655 -0.5281 -1.4228
39329SOL     OW21263   1.629   7.389   4.987 -0.6775 -0.1652 -0.2256
39329SOL    HW121264   1.641   7.478   5.019  0.5901 -0.5740  0.4927
39329SOL    HW221265   1.559   7.352   5.042 -1.8559  0.6401 -1.1222
39330SOL     OW21266   7.707  10.003  11.326 -0.2123 -0.5363 -0.3067
39330SOL    HW121267   7.659   9.972  11.402  0.0335  0.9872  0.5066
39330SOL    HW221268   7.737   9.923  11.282 -0.1583 -1.4478  1.3091
39331SOL     OW21269   3.286   2.901   6.222 -0.3984 -0.0447  0.2765
39331SOL    HW121270   3.263   2.942   6.306  1.3518 -0.9204  1.2554
39331SOL    HW221271   3.351   2.961   6.184 -1.0849  0.2788 -0.4001
39332SOL     OW21272   7.007   9.206   8.658  0.0539  0.6712 -0.1633
39332SOL    HW121273   7.085   9.150   8.650  0.5311  0.9951  1.6840
39332SOL    HW221274   6.953   9.183   8.582  1.6299 -0.0673 -1.1026
39333SOL     OW21275   5.893   4.139   7.422 -0.0458 -0.3391 -0.1531
39333SOL    HW121276   5.932   4.177   7.501  0.9114 -1.0017 -0.3007
39333SOL    HW221277   5.962   4.140   7.357 -1.1940  1.4280 -1.4405
39334SOL     OW21278   5.698   9.029   8.050 -0.0193  0.1170  0.2432
39334SOL    HW121279   5.760   9.085   8.004  0.9562 -0.2545  1.0829
39334SOL    HW221280   5.675   8.961   7.986  0.3601  0.3123 -0.1060
39335SOL     OW21281   7.952   5.662   4.643 -0.1927  0.4236  0.0634
39335SOL    HW121282   7.884   5.687   4.581  0.3811 -0.9865 -1.1978
39335SOL    HW221283   7.984   5.745   4.679  0.6447  1.4677 -2.8393
39336SOL     OW21284  11.302   1.942   5.207  0.4152 -0.5852 -0.5359
39336SOL    HW121285  11.334   1.857   5.177  0.0770 -0.8158 -0.2524
39336SOL    HW221286  11.293   1.994   5.127  0.4603 -0.8716 -0.7286
39337SOL     OW21287  10.941   9.355   3.111  0.4675  0.3245  0.8891
39337SOL    HW121288  11.014   9.335   3.052  0.5428 -0.1515  1.1411
39337SOL    HW221289  10.970   9.325   3.197  0.0839  0.3825  1.0413
39338SOL     OW21290   2.494   6.564   6.683 -0.7313  0.6264  0.2971
39338SOL    HW121291   2.509   6.568   6.589  0.3953  2.9557  0.5018
39338SOL    HW221292   2.421   6.503   6.693 -0.5190 -0.1040 -2.0085
39339SOL     OW21293   2.834   6.658   6.654 -0.3217  0.1831  0.5419
39339SOL    HW121294   2.792   6.578   6.685 -0.7870 -1.0346 -2.7941
39339SOL    HW221295   2.763   6.711   6.618  0.1925  1.3891  1.2303
39340SOL     OW21296   5.619   3.492   0.530 -0.2983 -0.3175  0.0549
39340SOL    HW121297   5.539   3.539   0.555  0.4446  0.3127  1.3544
39340SOL    HW221298   5.618   3.492   0.435 -1.0260  1.1306  0.0356
39341SOL     OW21299   5.459   5.017   9.363  0.0567  0.2635 -0.1719
39341SOL    HW121300   5.381   5.033   9.415 -0.0110 -1.4403  0.3159
39341SOL    HW221301   5.425   4.986   9.279  0.2037  0.1344 -0.1829
39342SOL     OW21302   1.027   7.046  10.996  0.4148 -0.1054  0.1886
39342SOL    HW121303   1.054   7.138  11.002 -0.5026  0.1527  0.5575
39342SOL    HW221304   0.953   7.047  10.936  1.4683 -0.8729 -1.1915
39343SOL     OW21305   1.160   7.157   7.776 -0.0598  0.4546  0.4045
39343SOL    HW121306   1.132   7.180   7.688 -0.2639 -4.2442 -1.0291
39343SOL    HW221307   1.080   7.128   7.820  0.4842  0.0115  1.1213
39344SOL     OW21308   4.020   3.609   2.016  0.0321 -0.4201  0.3883
39344SOL    HW121309   4.064   3.686   1.982 -0.0448 -0.6923 -0.3427
39344SOL    HW221310   4.055   3.598   2.105  0.8929 -0.2218  0.0787
39345SOL     OW21311   8.095   2.605   7.812 -0.3548  0.4543  0.1775
39345SOL    HW121312   8.084   2.521   7.857 -1.1000  0.4226 -0.0484
39345SOL    HW221313   8.133   2.662   7.878 -0.5377  0.1430  0.5608
39346SOL     OW21314  10.180   3.018  10.776 -0.3255  0.0151  0.2516
39346SOL    HW121315  10.246   2.950  10.766 -0.8095 -0.5489  0.8192
39346SOL    HW221316  10.097   2.974  10.762 -0.5599  0.8812 -1.2140
39347SOL     OW21317   1.512   0.975   0.450 -0.6404  0.7284 -0.1871
39347SOL    HW121318   1.601   1.002   0.474 -0.7386  0.9189 -0.0375
39347SOL    HW221319   1.463   1.057   0.443 -0.5153  0.7264 -1.4488
39348SOL     OW21320   2.233  10.705   0.652  0.6326  0.2671  0.6371
39348SOL    HW121321   2.199  10.665   0.731 -1.3124  0.4577 -0.0557
39348SOL    HW221322   2.270  10.789   0.681  1.1461 -0.2557  1.5129
39349SOL     OW21323   2.436   4.002   6.230  0.7182 -0.1775 -0.2933
39349SOL    HW121324   2.407   3.966   6.146 -1.3258  1.0435 -0.1784
39349SOL    HW221325   2.480   4.084   6.207 -1.3051  1.0249 -0.1678
39350SOL     OW21326   9.412   4.072   7.417  0.3819  0.0168  0.7910
39350SOL    HW121327   9.395   4.014   7.343 -1.5676  0.6629  0.6763
39350SOL    HW221328   9.404   4.160   7.381 -2.1128  0.3569  2.0186
39351SOL     OW21329   1.552  11.395   0.410  0.1581 -0.3680  0.4545
39351SOL    HW121330   1.532  11.336   0.483  1.6961  0.5420  1.6871
39351SOL    HW221331   1.648  11.395   0.405  0.1022  0.3322 -0.9554
39352SOL     OW21332   5.122   9.158   1.564  0.1059  0.0290  0.4100
39352SOL    HW121333   5.043   9.199   1.528  0.3807 -0.0937 -0.3467
39352SOL    HW221334   5.128   9.193   1.653 -0.7154  0.1597  0.4289
39353SOL     OW21335   6.695   6.656   5.198  1.1077 -0.0598 -0.0796
39353SOL    HW121336   6.670   6.567   5.225  1.1304  0.1911  0.8118
39353SOL    HW221337   6.674   6.711   5.274 -3.5283  1.5479 -2.1700
39354SOL     OW21338   3.324  11.246   8.664 -0.1345  0.1515 -0.1100
39354SOL    HW121339   3.245  11.203   8.631  0.8121 -2.3462  0.7125
39354SOL    HW221340   3.387  11.239   8.593  0.0593  0.0821  0.0683
39355SOL     OW21341   9.729   8.083   2.645  0.1422 -0.2240 -0.0789
39355SOL    HW121342   9.730   8.093   2.549  0.8692  0.1306 -0.0409
39355SOL    HW221343   9.713   7.990   2.659 -1.2276 -0.0740 -0.5254
39356SOL     OW21344   8.616   2.475   0.169  0.2685  0.2159  0.3165
39356SOL    HW121345   8.690   2.509   0.218  1.0158  1.2764 -1.4352
39356SOL    HW221346   8.562   2.553   0.150 -1.7173 -0.6185  2.1425
39357SOL     OW21347  10.641   7.485   2.159 -0.3912  0.3699  0.4962
39357SOL    HW121348  10.730   7.470   2.126 -0.4266 -0.0292  0.5776
39357SOL    HW221349  10.647   7.468   2.253 -0.8707 -1.1607  0.2801
39358SOL     OW21350   2.988   3.500   8.064  0.1901 -0.0679  0.1509
39358SOL    HW121351   3.040   3.452   8.130 -1.2121  1.0164  2.1475
39358SOL    HW221352   3.053   3.528   8.000  1.4745 -2.1290  0.4267
39359SOL     OW21353   9.429   5.204   1.104 -0.5055  0.4150 -0.7036
39359SOL    HW121354   9.423   5.119   1.148  0.3315  0.0767 -1.2192
39359SOL    HW221355   9.341   5.242   1.112 -0.8482 -0.4393 -0.3563
39360SOL     OW21356   2.091   0.456  10.318  0.4667 -0.0054 -0.1353
39360SOL    HW121357   2.059   0.505  10.242 -2.6066 -0.8892  0.4481
39360SOL    HW221358   2.118   0.524  10.380  0.4689  0.8003 -0.9823
39361SOL     OW21359   8.200   1.813   6.249 -0.3347  0.5688  0.4978
39361SOL    HW121360   8.205   1.760   6.170 -1.6885 -0.4987  1.0934
39361SOL    HW221361   8.137   1.882   6.228 -1.5919 -0.3941  0.9879
39362SOL     OW21362   4.088   6.146   7.016 -0.1962 -0.0982 -0.0585
39362SOL    HW121363   4.022   6.168   6.951 -1.8251 -0.7920  1.2810
39362SOL    HW221364   4.062   6.195   7.094  0.4593 -0.9458  0.7150
39363SOL     OW21365  10.759  11.282   6.656  0.0003 -0.0304 -0.0752
39363SOL    HW121366  10.851  11.301   6.676  0.1539  0.3608 -1.1357
39363SOL    HW221367  10.758  11.189   6.633  0.4784  0.4148 -1.9953
39364SOL     OW21368   0.320  11.161   5.523  0.0035 -0.4168  0.6323
39364SOL    HW121369   0.262  11.201   5.588 -0.0835  0.7755 -0.1378
39364SOL    HW221370   0.318  11.221   5.449  2.3489 -0.2285  0.6248
39365SOL     OW21371   6.503   5.680   2.928 -0.2929  0.1031 -0.2021
39365SOL    HW121372   6.433   5.744   2.941 -0.5949  0.0262 -1.3718
39365SOL    HW221373   6.458   5.597   2.912 -0.0043  0.2567 -2.0722
39366SOL     OW21374  10.157   1.917  11.067  0.0168 -0.1746 -0.6386
39366SOL    HW121375  10.229   1.976  11.044 -0.3248  0.2622 -0.6109
39366SOL    HW221376  10.175   1.837  11.018  0.8527 -0.2927 -0.1441
39367SOL     OW21377   3.286   4.898  10.480  0.2738 -0.1172 -0.5672
39367SOL    HW121378   3.329   4.916  10.397  2.6808  0.3286  0.6893
39367SOL    HW221379   3.274   4.804  10.481  1.1598 -0.2454 -1.0131
39368SOL     OW21380   1.727   8.385   6.347  0.0201  0.1067 -0.6014
39368SOL    HW121381   1.702   8.401   6.438  0.4055  0.3724 -0.5391
39368SOL    HW221382   1.732   8.290   6.340  1.4272  0.1038  0.0597
39369SOL     OW21383   2.507   4.582  10.974 -0.3808 -0.2246 -0.8174
39369SOL    HW121384   2.456   4.542  10.904  0.8842 -0.2909 -1.7291
39369SOL    HW221385   2.577   4.630  10.929  0.8640 -0.8280  0.3987
39370SOL     OW21386   3.557   4.453   8.797 -0.0452  0.2766  0.1534
39370SOL    HW121387   3.532   4.437   8.888  0.1447  2.1572  0.5842
39370SOL    HW221388   3.622   4.524   8.802 -1.5224  1.8660 -1.5443
39371SOL     OW21389  10.280   7.444   2.347 -0.2672  0.1322 -0.1348
39371SOL    HW121390  10.225   7.414   2.275  1.2286  0.1002 -1.2982
39371SOL    HW221391  10.354   7.385   2.347  0.1755  0.6555  0.9048
39372SOL     OW21392   1.851   0.574   8.648 -0.0000 -0.1802  0.0880
39372SOL    HW121393   1.768   0.622   8.643 -0.1425 -0.4920 -0.6752
39372SOL    HW221394   1.847   0.512   8.575  0.5500 -0.7707  0.5473
39373SOL     OW21395   2.779   6.364   7.147  0.1952 -0.2388  0.3529
39373SOL    HW121396   2.845   6.410   7.095  0.1880 -0.2869  0.3005
39373SOL    HW221397   2.824   6.342   7.229  0.0005  0.4390  0.6428
39374SOL     OW21398   8.576   2.215  11.058 -0.0237 -0.1658 -0.1186
39374SOL    HW121399   8.662   2.189  11.026  0.0684  2.1158 -1.9439
39374SOL    HW221400   8.515   2.185  10.990 -0.3419  0.7436 -0.2493
39375SOL     OW21401   9.576   4.141   7.662 -0.3361  0.9249  0.0890
39375SOL    HW121402   9.550   4.224   7.622  2.4550  1.5795 -0.5742
39375SOL    HW221403   9.556   4.075   7.596  1.0349  1.5925 -1.0531
39376SOL     OW21404  11.108   1.891   6.737 -0.2605  0.1758  0.0288
39376SOL    HW121405  11.192   1.888   6.693  0.9748 -0.0747  2.2421
39376SOL    HW221406  11.073   1.978   6.718  0.9783  0.6548 -0.1351
39377SOL     OW21407   7.758   1.216   7.324 -0.1065 -0.7848 -0.0695
39377SOL    HW121408   7.801   1.131   7.318  1.1246 -0.2202  0.4080
39377SOL    HW221409   7.779   1.247   7.413  0.6640  0.6337 -0.7189
39378SOL     OW21410   5.180   5.125  10.783 -0.0371  0.5914  0.8314
39378SOL    HW121411   5.092   5.156  10.803 -0.3319  0.1936  0.1902
39378SOL    HW221412   5.204   5.170  10.702  0.3764  0.7477  1.0385
39379SOL     OW21413   0.591   7.408   2.029 -0.7973 -0.1093  0.1875
39379SOL    HW121414   0.528   7.344   2.062 -1.5112  1.2785  1.6380
39379SOL    HW221415   0.553   7.493   2.052  0.4185  0.8326 -1.1339
39380SOL     OW21416   5.581   0.484   8.271 -0.0051  0.2678  0.3928
39380SOL    HW121417   5.620   0.510   8.354  2.0057 -0.8215 -0.1579
39380SOL    HW221418   5.625   0.538   8.205  0.4759 -0.8495 -0.2279
39381SOL     OW21419   3.504   5.614   2.325  0.7227 -0.1396 -0.1743
39381SOL    HW121420   3.580   5.562   2.355  1.4538  0.9322 -0.1114
39381SOL    HW221421   3.476   5.662   2.403  1.2310  0.9701 -0.6569
39382SOL     OW21422   0.467   2.331  11.239 -0.0022 -0.1282  0.3742
39382SOL    HW121423   0.514   2.315  11.321  0.0385  1.0488  0.5986
39382SOL    HW221424   0.479   2.424  11.222  0.9192 -0.5433 -1.5642
39383SOL     OW21425  11.247  10.738   6.222 -0.0974 -0.1851 -0.4959
39383SOL    HW121426  11.162  10.745   6.178  0.7104 -1.3931 -2.4236
39383SOL    HW221427  11.228  10.746   6.315 -2.4083 -1.0105 -0.8366
39384SOL     OW21428   9.185   5.795   8.142 -0.5524  0.3629 -0.3197
39384SOL    HW121429   9.203   5.884   8.111 -0.7410  1.1801  1.7216
39384SOL    HW221430   9.163   5.746   8.063 -0.3621  2.1082 -1.5167
39385SOL     OW21431   1.016   1.777   3.663  0.2184 -0.1613 -1.3126
39385SOL    HW121432   0.957   1.714   3.622 -1.9913  0.0912  1.2228
39385SOL    HW221433   0.972   1.862   3.652  1.2526  0.3863 -1.3498
39386SOL     OW21434  11.274   4.239   9.023  0.1213 -0.1316 -0.1701
39386SOL    HW121435  11.200   4.179   9.034 -0.2006  0.2346 -0.3105
39386SOL    HW221436  11.261   4.305   9.091  1.0271 -0.7602  0.6446
39387SOL     OW21437   8.789   2.987   1.318  0.1320 -0.1096  1.2891
39387SOL    HW121438   8.700   3.008   1.290  1.0155  0.4859 -1.3967
39387SOL    HW221439   8.841   3.065   1.294  2.0364 -1.9364 -1.1068
39388SOL     OW21440   3.454  10.822   5.117 -0.6557  0.2251 -0.4861
39388SOL    HW121441   3.462  10.905   5.164  0.2181 -0.6516  0.9869
39388SOL    HW221442   3.486  10.756   5.179  1.5165 -0.8993 -2.6349
39389SOL     OW21443   7.957  10.634   7.008 -0.4676  0.4455  0.1803
39389SOL    HW121444   7.995  10.602   7.090 -1.0166 -1.2594 -0.1816
39389SOL    HW221445   7.888  10.694   7.036 -0.0238  0.6318  0.9308
39390SOL     OW21446   1.633   6.917   0.835 -0.3195 -0.4054  0.9599
39390SOL    HW121447   1.541   6.900   0.854 -0.0687 -0.9387  1.7160
39390SOL    HW221448   1.658   6.987   0.895 -0.1175 -0.5614  1.0605
39391SOL     OW21449  10.784   4.738   4.273  0.3632 -0.5730  0.1863
39391SOL    HW121450  10.830   4.821   4.290 -0.1160  0.0464 -1.3385
39391SOL    HW221451  10.694   4.755   4.300  0.2993 -0.6478  0.0225
39392SOL     OW21452   9.313   7.476   4.257  0.0474  0.3527  0.5324
39392SOL    HW121453   9.362   7.547   4.299  0.6169  1.3853 -1.7056
39392SOL    HW221454   9.225   7.482   4.294 -0.0333  2.5363  0.1113
39393SOL     OW21455   2.161   5.914   6.412 -0.2079  0.3432  0.3872
39393SOL    HW121456   2.231   5.914   6.346  0.6370 -0.2227  1.2653
39393SOL    HW221457   2.113   5.833   6.396 -0.0475  0.2394  0.4390
39394SOL     OW21458   0.841   5.109   6.382 -0.5421 -0.8209  0.1244
39394SOL    HW121459   0.774   5.097   6.315 -0.0597 -0.6271 -0.3953
39394SOL    HW221460   0.875   5.022   6.398 -0.4728 -0.8297 -0.0725
39395SOL     OW21461   1.851   1.965   6.085 -0.6499  0.2906  0.0736
39395SOL    HW121462   1.883   1.987   6.172  1.3681  1.0559 -0.8204
39395SOL    HW221463   1.838   1.870   6.088  1.7835 -0.0919  0.5291
39396SOL     OW21464   1.302   6.384   7.641 -0.1809 -0.4541 -0.1418
39396SOL    HW121465   1.236   6.431   7.589  0.4284  0.9925  0.3708
39396SOL    HW221466   1.386   6.420   7.614  0.1536  0.4911  1.9598
39397SOL     OW21467   5.971   5.261   4.483 -0.2530 -0.3677 -0.3770
39397SOL    HW121468   5.920   5.309   4.548  0.2068  1.7943 -1.5403
39397SOL    HW221469   6.037   5.214   4.534 -0.9843 -0.1091  0.8361
39398SOL     OW21470   5.566   9.045   0.633  0.5570 -0.5055  0.0576
39398SOL    HW121471   5.472   9.026   0.635  0.0753  1.6448  2.4883
39398SOL    HW221472   5.584   9.065   0.541 -1.7384  0.5682 -0.2316
39399SOL     OW21473   7.602  10.817   7.009 -0.1395 -0.9754  0.0034
39399SOL    HW121474   7.637  10.893   6.962 -0.1894 -0.6186  0.5442
39399SOL    HW221475   7.514  10.807   6.975 -0.6923  0.1604  1.0331
39400SOL     OW21476   4.800   7.650  10.882 -0.4448 -0.2928 -0.0718
39400SOL    HW121477   4.874   7.591  10.862 -0.4538 -0.2652 -0.1850
39400SOL    HW221478   4.838   7.738  10.879 -0.5084 -0.2708 -0.2472
39401SOL     OW21479   9.661   7.719   4.937  0.1411 -0.2644 -0.4176
39401SOL    HW121480   9.663   7.623   4.927  2.6589 -0.2006 -1.0997
39401SOL    HW221481   9.628   7.732   5.026  0.4990 -1.8168 -0.0138
39402SOL     OW21482   1.899   4.477  11.227  0.5421 -0.1314  0.7754
39402SOL    HW121483   1.969   4.505  11.167  0.2517 -0.9843  0.0159
39402SOL    HW221484   1.927   4.509  11.313  0.3027  2.3657  0.0189
39403SOL     OW21485   2.017   6.854   6.678  0.4116 -0.1270 -0.5456
39403SOL    HW121486   2.112   6.866   6.687  0.0910  1.7360  0.8295
39403SOL    HW221487   1.995   6.787   6.742  0.3934  1.8113  1.5876
39404SOL     OW21488   5.692   6.900  10.185  0.6901 -0.0547  0.1088
39404SOL    HW121489   5.770   6.867  10.230  0.8903 -0.9212 -0.8413
39404SOL    HW221490   5.717   6.902  10.093 -0.4553 -0.4644 -0.2238
39405SOL     OW21491   5.288   9.874   1.881  0.1062  0.0463  0.5788
39405SOL    HW121492   5.341   9.946   1.846 -2.3931  2.6172  1.6869
39405SOL    HW221493   5.230   9.851   1.809  0.6088 -0.5997  0.3707
39406SOL     OW21494  11.235  10.129   1.591 -0.4447 -0.0153  0.5886
39406SOL    HW121495  11.147  10.106   1.562  0.2281 -3.2041  0.7160
39406SOL    HW221496  11.236  10.225   1.590 -3.8795  0.1592  0.5897
39407SOL     OW21497  10.945   0.449   9.881  0.2175  0.6461  0.2154
39407SOL    HW121498  10.957   0.357   9.904  0.5106  0.4478 -0.7210
39407SOL    HW221499  10.982   0.497   9.955  1.9109  0.0155 -0.1884
39408SOL     OW21500   6.615   9.215   0.931  0.4906 -0.7180 -0.2828
39408SOL    HW121501   6.667   9.148   0.887  2.0400  0.0662  0.2458
39408SOL    HW221502   6.659   9.297   0.910 -0.3980 -0.0406  0.4049
39409SOL     OW21503   8.481   3.377   8.003 -0.4186  0.4555  0.0773
39409SOL    HW121504   8.513   3.441   7.939  0.7043  0.8049  0.9603
39409SOL    HW221505   8.528   3.297   7.983 -0.4271  0.4282  0.1668
39410SOL     OW21506  10.921   5.485   9.489 -0.4244 -0.0022 -0.4689
39410SOL    HW121507  10.998   5.434   9.517 -0.4278 -0.4109 -1.1804
39410SOL    HW221508  10.861   5.480   9.564  1.1544  2.3410  1.0991
39411SOL     OW21509   4.431   3.960   1.827  0.3592  0.2328  0.4080
39411SOL    HW121510   4.429   4.014   1.749 -2.4791  1.6636  1.3245
39411SOL    HW221511   4.389   3.878   1.801  1.6120 -0.2491 -0.1385
39412SOL     OW21512  10.213   7.526   7.819 -0.0041  0.1317  0.3093
39412SOL    HW121513  10.138   7.546   7.762  0.2156  1.1765  0.3660
39412SOL    HW221514  10.251   7.447   7.780 -0.6056  0.0979 -0.2466
39413SOL     OW21515   2.647   1.317   1.929  0.1518 -0.6277  0.4645
39413SOL    HW121516   2.716   1.383   1.943 -0.3972  0.0400  0.1096
39413SOL    HW221517   2.570   1.369   1.905  0.3152 -1.4783 -2.3234
39414SOL     OW21518   6.704   5.286   2.387  0.2633  0.5060  0.2271
39414SOL    HW121519   6.776   5.349   2.383 -0.0041  0.8806  1.0734
39414SOL    HW221520   6.636   5.330   2.439  0.4218 -0.8098  1.6326
39415SOL     OW21521   9.808   2.137  10.792 -0.0642 -0.7422 -0.1088
39415SOL    HW121522   9.836   2.085  10.717 -0.9606 -1.1242 -0.1917
39415SOL    HW221523   9.870   2.210  10.796  0.0927 -0.8170 -1.1136
39416SOL     OW21524   9.768   7.542   7.110  0.6821 -0.5729  0.3887
39416SOL    HW121525   9.861   7.566   7.116  0.1389  1.4070  1.6463
39416SOL    HW221526   9.733   7.600   7.042 -0.2785  1.0424  2.1930
39417SOL     OW21527   2.470   5.610   7.901 -0.1693  0.1137 -0.4989
39417SOL    HW121528   2.429   5.695   7.917 -0.0940 -0.0156  0.3982
39417SOL    HW221529   2.560   5.632   7.876  0.1922  0.2661  0.8645
39418SOL     OW21530   7.224   3.468   5.449  0.0259  0.4009  0.2308
39418SOL    HW121531   7.286   3.403   5.416  0.2394  0.4410  0.5549
39418SOL    HW221532   7.262   3.499   5.531 -0.3836  0.4829  0.3929
39419SOL     OW21533   1.600   5.042   3.474 -0.5971 -0.9985 -0.3387
39419SOL    HW121534   1.670   5.038   3.409 -0.2097  0.1067 -0.0036
39419SOL    HW221535   1.610   4.962   3.526 -0.9469 -1.9164 -1.6512
39420SOL     OW21536   8.104   9.358   7.057  0.4960 -0.4789  0.0843
39420SOL    HW121537   8.060   9.432   7.017  0.2767 -0.9348 -0.5426
39420SOL    HW221538   8.185   9.394   7.094 -0.5393  0.4306  1.5654
39421SOL     OW21539   1.277   7.700   7.463  0.1368 -0.3314 -0.1623
39421SOL    HW121540   1.297   7.717   7.371 -0.3481 -0.4504 -0.2902
39421SOL    HW221541   1.313   7.775   7.510  0.7658 -0.4808 -0.4024
39422SOL     OW21542   8.949   8.648  10.396  0.1596 -0.2416  0.3411
39422SOL    HW121543   8.863   8.614  10.373  1.0981 -2.2702 -0.4249
39422SOL    HW221544   8.996   8.652  10.312  0.2520  2.7141  0.4350
39423SOL     OW21545   4.588   6.120   3.652 -0.2233  0.1257  0.1600
39423SOL    HW121546   4.580   6.054   3.584  2.1027 -0.7116  0.6198
39423SOL    HW221547   4.602   6.070   3.733 -1.4727  1.1382  1.0646
39424SOL     OW21548  10.167   9.647   2.999  0.1390 -0.4910 -0.1163
39424SOL    HW121549  10.180   9.585   3.071  0.2243  0.6487  0.8869
39424SOL    HW221550  10.255   9.681   2.982  0.4081 -1.9323 -1.9119
39425SOL     OW21551   5.377   7.510  10.135  0.1950  0.2358 -0.0108
39425SOL    HW121552   5.375   7.425  10.091 -1.2117  0.5335 -0.5989
39425SOL    HW221553   5.336   7.494  10.220  2.3154 -0.1978  0.9878
39426SOL     OW21554   9.972   9.747   1.075  0.7169  0.7805 -0.4543
39426SOL    HW121555  10.017   9.673   1.036 -0.6229 -0.4848  0.3006
39426SOL    HW221556   9.938   9.796   1.000 -2.5792 -2.0731 -1.0867
39427SOL     OW21557   3.142   1.347  10.410 -0.3322 -0.0416  0.2574
39427SOL    HW121558   3.099   1.266  10.382 -0.0368  0.0552 -0.4926
39427SOL    HW221559   3.148   1.339  10.505  0.6287 -1.3739  0.1175
39428SOL     OW21560   2.551  11.278   6.745  0.0527 -0.4986 -0.5284
39428SOL    HW121561   2.541  11.303   6.654  0.9065 -1.3464 -0.8763
39428SOL    HW221562   2.477  11.220   6.763  0.1298 -0.6933 -0.8290
39429SOL     OW21563   9.909   6.071   7.790  0.2534  0.0721  0.3843
39429SOL    HW121564   9.942   6.080   7.879 -1.2008  0.1455  0.9356
39429SOL    HW221565   9.963   6.132   7.739  0.3219  0.9091  1.4164
39430SOL     OW21566   9.375   4.224  10.756 -0.4085  0.2908  0.0611
39430SOL    HW121567   9.280   4.222  10.766 -0.4174 -1.2852 -0.0011
39430SOL    HW221568   9.390   4.216  10.662 -0.2064  0.2648  0.0944
39431SOL     OW21569   6.876   5.816   5.534 -0.1173  0.1532 -0.5197
39431SOL    HW121570   6.828   5.883   5.584  1.4579  0.7969  0.2049
39431SOL    HW221571   6.810   5.777   5.477 -1.7639  0.1637  1.2619
39432SOL     OW21572   4.216   1.239   8.601  0.1158 -0.2880 -0.3804
39432SOL    HW121573   4.187   1.176   8.667 -0.9277 -0.4998 -1.0045
39432SOL    HW221574   4.200   1.325   8.640 -0.7245 -0.4086 -0.4262
39433SOL     OW21575   0.535   8.945   6.150  0.2077  0.1371 -0.3441
39433SOL    HW121576   0.578   8.952   6.065 -0.8502  2.7668 -0.7408
39433SOL    HW221577   0.598   8.980   6.213 -0.4794  2.0583 -0.6561
39434SOL     OW21578   6.280   2.691   4.521  0.0334  0.1264  0.8189
39434SOL    HW121579   6.265   2.741   4.442  0.7671 -0.4651  0.2835
39434SOL    HW221580   6.236   2.740   4.590 -0.9279  0.4544 -0.0152
39435SOL     OW21581  10.669   0.897   5.065 -0.0159 -0.2709 -0.0042
39435SOL    HW121582  10.680   0.982   5.021  0.5516 -0.0278  0.5770
39435SOL    HW221583  10.750   0.850   5.045  0.7536  0.2779  1.6816
39436SOL     OW21584   0.370   2.385   6.412 -0.4872  0.0622 -0.2501
39436SOL    HW121585   0.354   2.477   6.431  1.2095  0.3251  0.0519
39436SOL    HW221586   0.464   2.374   6.424 -0.6082 -1.6379 -0.6187
39437SOL     OW21587   4.379   4.736  11.281 -0.4580 -0.6605 -0.1658
39437SOL    HW121588   4.329   4.656  11.267  0.8136 -1.2705 -1.4374
39437SOL    HW221589   4.440   4.740  11.207 -0.5714  1.5561 -0.2128
39438SOL     OW21590   3.629   8.545   1.813  0.3954 -0.1879 -0.0261
39438SOL    HW121591   3.575   8.469   1.790 -0.6578  0.9070 -1.3671
39438SOL    HW221592   3.683   8.560   1.736 -1.2867  1.9588 -0.8895
39439SOL     OW21593   0.970   0.866   3.855 -0.3319 -0.3471 -0.0762
39439SOL    HW121594   0.915   0.829   3.786 -0.0892 -1.2735  0.2032
39439SOL    HW221595   0.917   0.859   3.935 -0.3412  0.0528 -0.0463
39440SOL     OW21596   1.589   2.256   1.574  0.0529  0.0047 -0.8265
39440SOL    HW121597   1.542   2.173   1.565 -1.7829  0.9907 -0.8050
39440SOL    HW221598   1.563   2.289   1.660 -0.1526  1.1365 -1.3097
39441SOL     OW21599  10.372  10.664   7.735  0.3072  0.6668  0.1027
39441SOL    HW121600  10.297  10.656   7.793 -1.2387 -0.7019 -1.9446
39441SOL    HW221601  10.362  10.751   7.695  1.7474  1.8986  2.2434
39442SOL     OW21602   3.120   3.901   1.225  0.1303 -0.0940  0.2505
39442SOL    HW121603   3.145   3.940   1.309 -1.7771  1.6458  0.0870
39442SOL    HW221604   3.026   3.884   1.234 -0.0419 -0.1438 -1.4191
39443SOL     OW21605   5.514   7.820   3.203  0.0454 -0.0217  0.5318
39443SOL    HW121606   5.504   7.771   3.284 -1.3318  0.7100  0.8287
39443SOL    HW221607   5.486   7.759   3.134 -3.9308  0.9442  1.0753
39444SOL     OW21608  11.079  10.213   8.520 -0.0691 -0.1515  0.1336
39444SOL    HW121609  11.107  10.266   8.446  0.1408  1.8173  1.5558
39444SOL    HW221610  11.142  10.141   8.523 -0.2744 -0.4722 -1.7447
39445SOL     OW21611   9.181   8.652   9.669 -0.2486 -0.3012 -0.3310
39445SOL    HW121612   9.177   8.585   9.600  0.0716  0.7006 -1.3479
39445SOL    HW221613   9.221   8.728   9.627 -0.8366  0.6289  0.7317
39446SOL     OW21614   9.869   7.783   1.417  0.4209 -0.1309 -0.5265
39446SOL    HW121615   9.798   7.809   1.358  0.4510  1.9370  0.2864
39446SOL    HW221616   9.831   7.791   1.504  1.6798  1.1437 -0.0715
39447SOL     OW21617   6.472   4.066   8.743 -0.1589 -0.4736 -0.2403
39447SOL    HW121618   6.423   3.992   8.780  0.5651  0.2606  2.3862
39447SOL    HW221619   6.544   4.024   8.694 -0.8117 -1.5047 -0.3561
39448SOL     OW21620   6.555   4.260   9.353 -0.0892 -0.0961 -0.0588
39448SOL    HW121621   6.551   4.347   9.393 -1.9889  1.0716 -2.5519
39448SOL    HW221622   6.464   4.229   9.354  0.5154 -2.0249  0.5979
39449SOL     OW21623   2.599   8.939   2.671  0.1537 -0.0764  0.3911
39449SOL    HW121624   2.688   8.942   2.706  0.3747 -0.6954 -0.0964
39449SOL    HW221625   2.560   9.022   2.698  0.1596 -0.6975  2.5082
39450SOL     OW21626   0.090   9.655   2.524 -0.2378 -0.3800 -0.2791
39450SOL    HW121627   0.110   9.584   2.463  0.9532 -0.1552 -0.1728
39450SOL    HW221628   0.175   9.688   2.551 -0.7140  2.1411 -1.5384
39451SOL     OW21629   0.691   1.492   9.931 -0.1691 -0.1375  0.6993
39451SOL    HW121630   0.601   1.462   9.925 -0.5394  1.0917 -0.4519
39451SOL    HW221631   0.726   1.451  10.010 -0.6039 -3.5795 -0.7295
39452SOL     OW21632   4.732   6.662   3.315 -0.4546  0.2490  0.1850
39452SOL    HW121633   4.738   6.633   3.406 -0.6240 -0.0226  0.1110
39452SOL    HW221634   4.682   6.593   3.271  0.4416 -0.0979 -0.3190
39453SOL     OW21635   1.760  10.745   8.953  0.0720  0.2799  0.0142
39453SOL    HW121636   1.726  10.834   8.940  0.8926  0.2979 -2.6316
39453SOL    HW221637   1.854  10.753   8.937  0.0841 -1.1467 -0.7430
39454SOL     OW21638   5.867   3.589   4.618  0.1067 -0.2575 -0.1203
39454SOL    HW121639   5.870   3.654   4.548 -1.1241  0.7447  0.7232
39454SOL    HW221640   5.784   3.545   4.607 -0.1489 -0.0204  0.7466
39455SOL     OW21641   7.475   9.661   2.927 -0.2363  0.0024 -0.0657
39455SOL    HW121642   7.436   9.743   2.956  0.0859 -0.0725  0.5934
39455SOL    HW221643   7.430   9.641   2.845  2.3068  2.8633 -2.4085
39456SOL     OW21644   7.491   3.506   8.673 -0.0297  0.2285  0.9133
39456SOL    HW121645   7.474   3.415   8.696 -0.5346  0.3795  1.1556
39456SOL    HW221646   7.584   3.519   8.692  0.3095 -0.5277 -0.1172
39457SOL     OW21647   1.094  10.525   7.502  0.0144 -0.0843  0.0484
39457SOL    HW121648   1.109  10.431   7.493 -1.6787 -0.4918  1.1427
39457SOL    HW221649   1.072  10.538   7.594  0.2523  1.4056 -0.0692
39458SOL     OW21650   3.641   8.693   2.894  0.0176 -0.3189  0.7793
39458SOL    HW121651   3.627   8.773   2.944 -1.1718 -0.3617  0.5401
39458SOL    HW221652   3.714   8.650   2.938  0.4479  0.7256  1.1180
39459SOL     OW21653   1.915   6.341   2.771  0.1825  0.1182  0.0744
39459SOL    HW121654   1.949   6.254   2.747 -1.0948 -0.1472 -0.8312
39459SOL    HW221655   1.982   6.402   2.740  0.7024 -0.4938 -0.0242
39460SOL     OW21656   0.323  10.324   6.534 -0.2199 -0.2045  0.0996
39460SOL    HW121657   0.299  10.285   6.449 -0.1475 -1.6827  0.7308
39460SOL    HW221658   0.239  10.333   6.580  0.0023 -2.5067  1.1113
39461SOL     OW21659   2.694   8.298   4.851  0.2818 -0.3559 -0.2772
39461SOL    HW121660   2.739   8.250   4.782 -2.7226 -1.4524 -1.6449
39461SOL    HW221661   2.704   8.242   4.929  1.4982 -0.3967 -0.4472
39462SOL     OW21662   5.069   1.349   6.447 -0.1371 -0.2079  0.2129
39462SOL    HW121663   5.145   1.406   6.435 -0.0924 -0.5023 -1.0275
39462SOL    HW221664   5.094   1.266   6.407 -1.2182 -0.2119 -0.5078
39463SOL     OW21665   3.436   0.174   9.028 -0.0886 -0.2106 -0.1630
39463SOL    HW121666   3.466   0.095   9.072 -0.4945  0.3652  1.1779
39463SOL    HW221667   3.347   0.188   9.060 -0.9875 -0.5820 -2.3056
39464SOL     OW21668   8.287   3.307   8.584  0.3987  0.9253  0.1365
39464SOL    HW121669   8.293   3.262   8.669  1.4603  1.0144  0.1223
39464SOL    HW221670   8.351   3.377   8.590  1.9983 -0.3099 -1.4863
39465SOL     OW21671   4.813  10.977   5.667  0.4384 -0.5578  0.1128
39465SOL    HW121672   4.792  10.886   5.646 -0.6719 -0.0428 -1.1710
39465SOL    HW221673   4.835  11.016   5.583  2.2674  0.0556  0.8388
39466SOL     OW21674   7.138   4.785   6.118 -0.2434  0.5911 -0.0304
39466SOL    HW121675   7.055   4.805   6.074 -0.6415  0.4213  0.6320
39466SOL    HW221676   7.199   4.851   6.085 -0.4673  0.3326 -1.0074
39467SOL     OW21677   8.097   7.726   6.519 -0.8585  0.2006 -0.3181
39467SOL    HW121678   8.186   7.739   6.552 -0.8857 -1.1729  0.3418
39467SOL    HW221679   8.060   7.815   6.517  0.1010  0.6487  0.6023
39468SOL     OW21680   5.996   9.353   5.010  0.0877  0.1872 -0.6645
39468SOL    HW121681   6.019   9.310   4.928 -1.3640  0.6899 -1.3543
39468SOL    HW221682   6.062   9.322   5.072  0.5209 -1.1061 -1.7258
39469SOL     OW21683  10.434   4.847   7.325 -0.0804 -0.6775  0.2009
39469SOL    HW121684  10.340   4.846   7.307  0.0539 -1.9179 -0.5029
39469SOL    HW221685  10.463   4.757   7.309  1.1017 -0.4802  1.1082
39470SOL     OW21686   7.157  10.740   1.226 -0.2051  0.0531 -0.4728
39470SOL    HW121687   7.092  10.758   1.158 -1.2961 -1.8565 -0.0091
39470SOL    HW221688   7.201  10.824   1.239  0.1596  0.4704 -3.6020
39471SOL     OW21689   1.267   0.163   7.508 -0.1625 -0.3523 -0.5451
39471SOL    HW121690   1.249   0.083   7.557  2.4853 -0.6949 -0.0056
39471SOL    HW221691   1.313   0.219   7.570 -0.9715  1.1695 -1.2601
39472SOL     OW21692   5.093  10.045   1.610  0.0693 -0.0478  0.2672
39472SOL    HW121693   5.002  10.071   1.622  0.2972  1.0127 -0.2171
39472SOL    HW221694   5.094   9.952   1.632 -1.4627 -0.4952 -1.3272
39473SOL     OW21695   5.993   5.857   3.606 -0.1098  0.3670 -0.4853
39473SOL    HW121696   5.964   5.870   3.696 -0.3742  1.6289 -0.7384
39473SOL    HW221697   5.913   5.839   3.556  0.1923 -2.1054 -0.2254
39474SOL     OW21698   2.198   3.053   2.661 -0.3001 -0.1657  0.1171
39474SOL    HW121699   2.114   3.022   2.628  0.6784 -2.8432 -0.1024
39474SOL    HW221700   2.201   3.023   2.752  1.7010 -3.3128 -0.8006
39475SOL     OW21701   0.726   6.492   8.711 -0.0292 -0.1811  0.5191
39475SOL    HW121702   0.797   6.512   8.649 -0.3324  0.9322  0.5048
39475SOL    HW221703   0.739   6.400   8.734  1.5393  0.0494  0.6639
39476SOL     OW21704   3.844   6.674   3.200 -0.3198  0.0649  0.2723
39476SOL    HW121705   3.830   6.690   3.293 -0.1263 -1.1340  0.5238
39476SOL    HW221706   3.757   6.683   3.161 -0.4686  0.1776  0.6265
39477SOL     OW21707   7.019   7.615   2.362  0.4070 -0.0575  0.5525
39477SOL    HW121708   6.961   7.691   2.372 -0.4878 -0.9422  3.0432
39477SOL    HW221709   6.961   7.545   2.330  0.3916 -0.5683  1.6506
39478SOL     OW21710   5.981   0.112   7.300 -0.0223 -0.1292 -0.5151
39478SOL    HW121711   6.005   0.204   7.310 -0.0456 -0.3089  1.5844
39478SOL    HW221712   5.918   0.096   7.370 -0.4460 -1.6166 -1.2027
39479SOL     OW21713   0.875  10.954   6.513  0.8920  0.5675  0.2470
39479SOL    HW121714   0.831  10.894   6.574  2.9134  0.0109  1.2502
39479SOL    HW221715   0.855  10.918   6.427 -2.9064  1.9570  0.3475
39480SOL     OW21716  10.389  10.331   2.520 -0.2219 -0.6938 -0.4139
39480SOL    HW121717  10.397  10.245   2.479 -0.7999  0.0299 -2.1825
39480SOL    HW221718  10.474  10.348   2.560 -0.7022 -2.8872  1.7359
39481SOL     OW21719   3.985   2.139   4.387 -0.2561 -0.1437  0.4411
39481SOL    HW121720   3.990   2.143   4.292  0.8160  1.6516  0.5196
39481SOL    HW221721   3.926   2.211   4.411  0.6099  0.3501  1.1661
39482SOL     OW21722   6.282   3.080   4.124  0.1337 -0.1203  0.0821
39482SOL    HW121723   6.238   3.163   4.145  0.3143 -0.0895  0.3527
39482SOL    HW221724   6.371   3.091   4.160 -0.3006 -1.0091  1.5055
39483SOL     OW21725   1.692   2.740   4.692 -0.1667  0.0771 -0.3340
39483SOL    HW121726   1.737   2.786   4.762 -0.5531 -0.1379  0.0645
39483SOL    HW221727   1.655   2.662   4.734  1.1836 -1.0490 -1.1513
39484SOL     OW21728   9.805   3.630   8.262 -0.0887  0.1716 -0.5356
39484SOL    HW121729   9.748   3.687   8.314 -1.0864 -0.6576 -0.6820
39484SOL    HW221730   9.842   3.569   8.327  2.5309  2.1287 -0.0511
39485SOL     OW21731   0.741   9.260  11.089  0.0386 -0.0402  0.3641
39485SOL    HW121732   0.827   9.283  11.124  0.7618 -1.0708 -0.6596
39485SOL    HW221733   0.734   9.165  11.102 -0.4891 -0.1299 -0.4790
39486SOL     OW21734   3.619   2.907   1.956 -0.2798  0.3037  0.5835
39486SOL    HW121735   3.569   2.970   2.007 -0.6512  1.2032 -0.8633
39486SOL    HW221736   3.595   2.923   1.865  0.5841 -1.0697  0.0685
39487SOL     OW21737   5.255   5.541   1.392  0.7528  0.0018  0.2387
39487SOL    HW121738   5.294   5.627   1.379  0.8889  0.1400  1.5036
39487SOL    HW221739   5.174   5.544   1.341 -0.0816  1.4709  1.5631
39488SOL     OW21740   3.970   3.077  10.247 -0.3743  0.6947  0.4515
39488SOL    HW121741   4.005   3.011  10.308 -1.0506 -1.6234 -1.5077
39488SOL    HW221742   4.047   3.108  10.199 -0.2239  0.2369  0.3922
39489SOL     OW21743   0.913   1.231   2.334  0.0643  0.1717 -0.9381
39489SOL    HW121744   0.974   1.159   2.318  0.0359  0.3059 -1.6705
39489SOL    HW221745   0.828   1.189   2.341  0.4296 -0.2716  2.1525
39490SOL     OW21746   6.845   3.841   6.385 -0.9194 -0.5711 -0.8317
39490SOL    HW121747   6.880   3.927   6.409  0.6490 -1.1223 -1.0374
39490SOL    HW221748   6.775   3.825   6.449 -0.0992  0.1185  0.2742
39491SOL     OW21749  11.335   1.060   4.814 -0.0275  0.3338 -0.2705
39491SOL    HW121750  11.279   1.137   4.808  0.3842  0.7570  1.0340
39491SOL    HW221751  11.405   1.085   4.874  0.8556 -0.6169 -0.8599
39492SOL     OW21752  11.255   6.879   1.305  0.0785 -0.2405  0.0308
39492SOL    HW121753  11.221   6.827   1.377  0.2647  1.3932  1.3707
39492SOL    HW221754  11.236   6.828   1.227  1.7891 -3.1354  1.3313
39493SOL     OW21755   7.054   6.900   2.845  0.0678 -0.0704  0.5673
39493SOL    HW121756   7.016   6.817   2.816 -1.5336  0.1582  1.8804
39493SOL    HW221757   7.130   6.913   2.788 -1.3924 -0.9204 -1.6872
39494SOL     OW21758   0.229   1.775   1.136  0.3987 -0.3755  0.0406
39494SOL    HW121759   0.187   1.841   1.081  1.0790  1.4863  1.6544
39494SOL    HW221760   0.172   1.698   1.129 -1.3743  0.9232 -0.5540
39495SOL     OW21761   8.772   3.860   7.486  0.5076 -0.1604  0.1075
39495SOL    HW121762   8.756   3.855   7.580  1.6216  1.0516  0.3933
39495SOL    HW221763   8.865   3.837   7.476  0.2562 -0.8555 -0.7685
39496SOL     OW21764   2.018  10.197   7.080 -0.1203  0.5754 -0.0458
39496SOL    HW121765   2.080  10.203   7.153 -0.0158 -0.2433 -0.0507
39496SOL    HW221766   1.953  10.265   7.098 -0.2212  0.2397  0.9382
39497SOL     OW21767   4.688   5.933   8.849  0.2787  0.5397 -0.3829
39497SOL    HW121768   4.597   5.965   8.843  0.1406  0.7448  1.7330
39497SOL    HW221769   4.734   6.003   8.895  1.2449 -0.0670 -0.4064
39498SOL     OW21770   4.588   1.006   1.225 -0.7500  0.2509 -0.1553
39498SOL    HW121771   4.580   1.003   1.130  0.7411  1.2074 -0.3318
39498SOL    HW221772   4.529   0.936   1.256  1.0773 -2.2400 -1.9020
39499SOL     OW21773   8.867  10.385   8.650 -0.4521 -0.0198 -0.1024
39499SOL    HW121774   8.819  10.454   8.605 -2.0262 -1.0924 -0.1425
39499SOL    HW221775   8.858  10.407   8.743  0.4265  0.6783 -0.1702
39500SOL     OW21776   8.120   2.518  10.120  0.1097 -0.9693 -0.2519
39500SOL    HW121777   8.156   2.434  10.092  0.3730 -0.3611 -1.8198
39500SOL    HW221778   8.036   2.525  10.074  1.4742  0.9582 -2.6813
39501SOL     OW21779   9.488   9.953   2.285 -0.0653  0.3128  0.3216
39501SOL    HW121780   9.557   9.992   2.338  1.2729 -2.5349  0.8720
39501SOL    HW221781   9.513   9.972   2.195  0.2233  1.1497  0.5669
39502SOL     OW21782   5.016  10.612   1.552 -0.3198  0.4237 -0.2857
39502SOL    HW121783   4.992  10.575   1.637  2.9829  1.0018  1.0651
39502SOL    HW221784   5.068  10.544   1.510 -0.6275  0.7349 -1.1943
39503SOL     OW21785   0.504   0.512   5.249  0.0513  0.1131  0.8630
39503SOL    HW121786   0.412   0.496   5.231  0.0893  0.6196  0.2144
39503SOL    HW221787   0.505   0.596   5.296  0.2153  0.3550  0.4366
39504SOL     OW21788   9.124  10.257   1.664  0.0304  0.0797  0.3247
39504SOL    HW121789   9.191  10.201   1.703  0.2066 -0.5465 -0.8354
39504SOL    HW221790   9.042  10.230   1.704  0.0263 -1.4501 -0.6664
39505SOL     OW21791   6.229   2.347   0.677  0.1052 -0.0374 -0.1351
39505SOL    HW121792   6.156   2.409   0.678 -0.7160 -0.9461  1.6456
39505SOL    HW221793   6.296   2.389   0.730  1.2001  1.0698 -2.2675
39506SOL     OW21794   1.762   1.306   2.869 -0.6621 -0.1290  0.3504
39506SOL    HW121795   1.778   1.261   2.786 -2.1606  2.1842 -1.3231
39506SOL    HW221796   1.847   1.343   2.894 -0.0386 -1.4629  0.3056
39507SOL     OW21797   2.436   6.961   2.061  0.1456  0.1126 -0.2166
39507SOL    HW121798   2.443   7.021   2.135  0.1300  2.2836 -1.8932
39507SOL    HW221799   2.345   6.930   2.064 -0.3569  1.5207 -0.2917
39508SOL     OW21800   4.085   0.110   5.670 -0.2851 -0.2007  0.4412
39508SOL    HW121801   4.138   0.123   5.749  1.5468  0.5063 -0.8467
39508SOL    HW221802   4.091   0.194   5.624 -1.1988 -0.6528 -0.5299
39509SOL     OW21803   1.939   1.173   4.482 -0.0565 -0.0218 -0.3241
39509SOL    HW121804   1.939   1.241   4.414  1.0494 -0.8998 -1.2510
39509SOL    HW221805   1.857   1.126   4.469  0.0033  0.0121 -0.8475
39510SOL     OW21806   7.666   2.052   3.470  0.0278 -0.7211  0.5121
39510SOL    HW121807   7.711   2.011   3.544  0.4547 -1.1032  0.0507
39510SOL    HW221808   7.734   2.101   3.425 -0.3927  0.1439  0.8010
39511SOL     OW21809   1.946   9.188   3.862 -0.1843  0.0966 -0.2121
39511SOL    HW121810   2.021   9.149   3.819  0.7070  0.6845  0.7541
39511SOL    HW221811   1.903   9.115   3.906  1.2966  0.0951  1.3311
39512SOL     OW21812   2.454  11.035   2.369 -0.0295 -0.8503  0.5641
39512SOL    HW121813   2.484  10.957   2.322 -1.0271 -1.0514  0.2348
39512SOL    HW221814   2.448  11.102   2.302  1.8908 -0.1386  1.0267
39513SOL     OW21815   8.074   6.877   8.460 -0.0854  0.0955 -0.6466
39513SOL    HW121816   8.122   6.899   8.541 -1.4728  3.3420 -0.5323
39513SOL    HW221817   8.137   6.894   8.390  0.4398 -0.5341 -0.3350
39514SOL     OW21818   7.954   6.866   9.513  0.3660 -0.1640  0.0318
39514SOL    HW121819   7.862   6.840   9.520  0.1504  0.4206 -0.5049
39514SOL    HW221820   8.001   6.804   9.569 -0.4942  0.3040  1.3284
39515SOL     OW21821   0.874   1.749   9.054 -0.5436  0.3687 -0.5773
39515SOL    HW121822   0.901   1.840   9.045  0.5378 -0.0208 -1.4508
39515SOL    HW221823   0.905   1.724   9.141  0.7824  0.3180 -1.0463
39516SOL     OW21824  10.551   1.991   0.844  0.0322 -0.3902  0.0345
39516SOL    HW121825  10.477   1.969   0.787 -0.5518 -1.3569  1.1430
39516SOL    HW221826  10.532   2.080   0.874 -1.7107 -1.3008  1.8244
39517SOL     OW21827   5.842   5.925   3.816  0.9491 -0.2224 -0.1491
39517SOL    HW121828   5.760   5.963   3.846  1.0108  0.3119 -0.6259
39517SOL    HW221829   5.887   5.898   3.896 -0.0357 -1.2648  0.0724
39518SOL     OW21830   6.157   3.146   7.722  0.1735 -0.0525 -0.4624
39518SOL    HW121831   6.082   3.113   7.672  0.3865 -0.8711 -0.2468
39518SOL    HW221832   6.123   3.163   7.809 -0.4349  2.2965 -1.0974
39519SOL     OW21833   3.101  10.634  11.367  0.4511  0.1307 -0.4193
39519SOL    HW121834   3.106  10.594  11.280 -1.4579 -0.7894 -0.1509
39519SOL    HW221835   3.118  10.562  11.427 -0.8738  0.1597  0.0170
39520SOL     OW21836  11.211   9.196   1.928 -0.3732 -0.4535 -0.1367
39520SOL    HW121837  11.195   9.125   1.991  0.9663 -0.5544  0.1378
39520SOL    HW221838  11.242   9.269   1.982 -1.7170  0.3579 -0.4214
39521SOL     OW21839   0.901   6.779   4.232  0.6610 -0.4332 -0.1045
39521SOL    HW121840   0.912   6.689   4.263  0.6089 -0.3329  0.2096
39521SOL    HW221841   0.969   6.828   4.277  1.2335 -0.4640 -0.9177
39522SOL     OW21842   3.037   7.288  11.201  0.5212  0.0177  0.4352
39522SOL    HW121843   2.981   7.220  11.163  0.9823 -0.0268 -0.1710
39522SOL    HW221844   3.102   7.307  11.133  1.0155  0.3420  0.9886
39523SOL     OW21845   1.408   8.877   4.661  0.1264  0.5778  0.0192
39523SOL    HW121846   1.385   8.784   4.660 -1.2293  0.8932 -1.3784
39523SOL    HW221847   1.487   8.881   4.715 -0.1471 -1.2901  0.6414
39524SOL     OW21848   4.146   9.651   1.361  0.0961  0.2171  0.1120
39524SOL    HW121849   4.184   9.672   1.275  1.6728 -3.2326 -0.2220
39524SOL    HW221850   4.120   9.559   1.354  0.2572 -0.1940  3.3239
39525SOL     OW21851   3.970   9.079   2.429  0.3361 -0.0967  0.0250
39525SOL    HW121852   3.969   9.149   2.495  0.5128  0.4272 -0.5127
39525SOL    HW221853   4.061   9.051   2.425  0.0966 -1.0815  0.9663
39526SOL     OW21854   7.084   8.001   5.835  0.0833 -0.3162  0.2428
39526SOL    HW121855   7.070   8.047   5.918 -4.8578  0.2747 -0.6318
39526SOL    HW221856   7.014   7.936   5.831  2.2683 -2.7815 -2.0228
39527SOL     OW21857   3.631   2.424   3.334 -1.4427 -0.4799 -0.0339
39527SOL    HW121858   3.708   2.410   3.389 -1.0839 -1.3781 -0.7432
39527SOL    HW221859   3.596   2.336   3.319 -1.3156 -0.3070 -1.5348
39528SOL     OW21860   2.835   0.010   5.147 -0.2790  0.3262  0.5899
39528SOL    HW121861   2.868  -0.042   5.221 -2.0501  0.2235  1.3572
39528SOL    HW221862   2.793   0.086   5.188 -2.2483 -0.2645 -0.1971
39529SOL     OW21863   7.757   8.971   9.020  0.6580 -0.2412 -0.0750
39529SOL    HW121864   7.661   8.963   9.024  0.6656 -0.8971 -0.9471
39529SOL    HW221865   7.772   9.058   8.985  0.3890  0.0496  0.5226
39530SOL     OW21866   1.867   1.173   2.652  0.4210 -0.3552  0.1531
39530SOL    HW121867   1.904   1.183   2.564  0.8508  0.4265  0.4158
39530SOL    HW221868   1.830   1.085   2.652 -0.2518 -0.0889 -1.0502
39531SOL     OW21869   7.160   8.792   5.445  0.1234 -0.0182 -0.6563
39531SOL    HW121870   7.084   8.736   5.428 -0.8057  1.4481 -1.6441
39531SOL    HW221871   7.233   8.748   5.402 -0.8259  0.0880 -2.5138
39532SOL     OW21872   5.374   1.667   1.992 -0.0243  0.1836  0.0720
39532SOL    HW121873   5.448   1.643   1.937  0.7638  0.1433  1.1134
39532SOL    HW221874   5.414   1.698   2.073 -1.1399  0.7649  0.4198
39533SOL     OW21875   4.892   8.111   5.982  0.4607 -0.0212  0.1891
39533SOL    HW121876   4.978   8.134   6.017  0.2622  2.2763 -0.6488
39533SOL    HW221877   4.896   8.139   5.890 -1.2600  0.4338  0.2260
39534SOL     OW21878   3.994   1.272   7.285 -0.1655  0.0825 -0.2576
39534SOL    HW121879   4.025   1.343   7.342  0.2355 -0.8928  0.7683
39534SOL    HW221880   4.038   1.194   7.318  1.5895 -0.2503 -3.1092
39535SOL     OW21881   9.204   6.358   9.599 -0.4613  0.0771  0.0099
39535SOL    HW121882   9.127   6.401   9.562  0.1440  1.5560  0.4240
39535SOL    HW221883   9.265   6.351   9.525 -0.5073  0.0462 -0.0256
39536SOL     OW21884   1.881   7.207   9.790  0.4707  0.2270  0.0665
39536SOL    HW121885   1.795   7.231   9.825  1.8493  0.2334  3.9732
39536SOL    HW221886   1.942   7.264   9.837  2.7117 -0.4082 -1.9000
39537SOL     OW21887   3.140   9.428   0.614  0.4245 -0.1015 -0.1542
39537SOL    HW121888   3.122   9.471   0.698  1.9996  0.6366 -0.1586
39537SOL    HW221889   3.101   9.486   0.549 -0.3393 -0.4054  0.0178
39538SOL     OW21890   1.738   5.053   1.981  0.0175  0.6860 -0.3879
39538SOL    HW121891   1.697   5.100   1.909 -0.0086  0.7040 -0.3612
39538SOL    HW221892   1.809   5.110   2.011  0.8274  0.1314 -1.2103
39539SOL     OW21893   5.186   7.176   1.239 -0.2698 -0.0410  0.2282
39539SOL    HW121894   5.093   7.197   1.229 -0.4580 -1.1628 -0.5676
39539SOL    HW221895   5.195   7.088   1.202  1.5479  0.9069 -1.8202
39540SOL     OW21896   1.442   0.579   0.815 -0.0838  0.4913  0.1939
39540SOL    HW121897   1.433   0.492   0.776  1.7092 -0.0410  0.8367
39540SOL    HW221898   1.472   0.562   0.904  0.3296  1.7597  0.3190
39541SOL     OW21899   4.581   0.284   4.843 -0.3095  0.1876 -0.2210
39541SOL    HW121900   4.676   0.292   4.843 -0.2974  0.0349 -0.5577
39541SOL    HW221901   4.562   0.231   4.921 -0.2899  2.1308  1.1770
39542SOL     OW21902  10.949   0.850  10.264 -0.2344 -0.1535  0.4748
39542SOL    HW121903  10.983   0.931  10.302  0.4929  0.8191 -1.9931
39542SOL    HW221904  10.859   0.872  10.238 -0.7352 -0.8089  1.6091
39543SOL     OW21905  11.049   9.831   0.293 -0.0244 -0.3184 -0.4445
39543SOL    HW121906  11.038   9.900   0.228 -2.5345  0.3355  0.5607
39543SOL    HW221907  11.064   9.877   0.376 -0.5394 -1.0073  0.0452
39544SOL     OW21908   7.968   9.204   7.802 -0.1909  0.1374 -0.3419
39544SOL    HW121909   8.050   9.217   7.849  0.1072 -0.5324 -0.6697
39544SOL    HW221910   7.978   9.257   7.723 -0.0990  0.1037 -0.3532
39545SOL     OW21911   3.580   0.878   6.091  0.8032 -0.2804  0.2164
39545SOL    HW121912   3.525   0.924   6.155  1.1212  0.4792 -0.0440
39545SOL    HW221913   3.634   0.819   6.144 -1.6577 -2.6076  0.3378
39546SOL     OW21914   7.133   8.988   1.288  0.0970 -0.3681 -0.0111
39546SOL    HW121915   7.140   9.041   1.367  2.6935  0.5789 -0.7781
39546SOL    HW221916   7.109   8.901   1.320  0.6567  0.0948  1.7836
39547SOL     OW21917  10.630   1.735   8.377 -0.1247 -0.0384 -0.2346
39547SOL    HW121918  10.568   1.798   8.341  1.9220  1.4485 -1.3497
39547SOL    HW221919  10.668   1.691   8.301  1.8284  0.7389  0.2286
39548SOL     OW21920  11.370   5.876   3.226 -0.4001 -0.6687 -0.3204
39548SOL    HW121921  11.361   5.786   3.255  2.6780 -0.4592  1.7328
39548SOL    HW221922  11.339   5.875   3.135 -1.3955 -3.5139 -0.0549
39549SOL     OW21923   0.683   6.031   9.482  0.2417  0.0222 -0.5389
39549SOL    HW121924   0.645   6.075   9.558 -0.1051  1.0756 -1.2944
39549SOL    HW221925   0.756   5.981   9.517 -0.4985 -0.2719  0.6184
39550SOL     OW21926   7.421  10.665   3.915 -0.5776  0.3809 -0.0325
39550SOL    HW121927   7.448  10.653   4.006  2.9022 -0.0636 -0.9685
39550SOL    HW221928   7.457  10.750   3.890 -0.6286  0.0631 -1.2492
39551SOL     OW21929  10.517   2.761   6.475 -0.0494  0.1711 -0.5605
39551SOL    HW121930  10.447   2.702   6.447 -1.6436  0.3743  2.5437
39551SOL    HW221931  10.596   2.706   6.478 -1.0199 -1.2207  0.0684
39552SOL     OW21932   2.353   7.218   8.768 -0.5350 -0.2582 -0.6408
39552SOL    HW121933   2.396   7.302   8.778  0.7833 -0.9153 -0.5233
39552SOL    HW221934   2.277   7.222   8.825 -0.4985  0.8514 -0.6583
39553SOL     OW21935   6.104   6.053  10.220  0.0698 -0.1393  0.0883
39553SOL    HW121936   6.154   5.982  10.180 -1.2436 -0.5665 -0.8803
39553SOL    HW221937   6.029   6.009  10.261  0.0742  0.5481  0.8576
39554SOL     OW21938   6.627   4.275   6.300  0.2181  0.2878  0.3284
39554SOL    HW121939   6.716   4.287   6.269  0.0517 -0.7064 -0.5978
39554SOL    HW221940   6.635   4.268   6.395  1.3462 -1.4137  0.1520
39555SOL     OW21941   7.300   3.007   1.183 -0.0980 -0.0305  0.0896
39555SOL    HW121942   7.255   2.923   1.188 -1.9010  0.8924  0.2688
39555SOL    HW221943   7.392   2.985   1.168 -0.7744 -1.9944 -1.5656
39556SOL     OW21944   3.772   2.896   0.015 -0.7679  0.0924 -0.1491
39556SOL    HW121945   3.744   2.825   0.073  0.5066 -0.5956 -0.3420
39556SOL    HW221946   3.835   2.946   0.067 -0.3581  0.0512 -0.6019
39557SOL     OW21947   1.881   7.811   9.716  0.1318 -0.2101 -0.0138
39557SOL    HW121948   1.867   7.717   9.703 -0.0663 -0.1915  0.0663
39557SOL    HW221949   1.935   7.816   9.795 -0.4020 -0.2299  0.3586
39558SOL     OW21950   1.801   3.417   9.197  0.0704  0.3202 -0.4786
39558SOL    HW121951   1.746   3.388   9.125  1.1216  1.7666 -1.9205
39558SOL    HW221952   1.787   3.351   9.266 -0.4741 -1.4604 -2.2018
39559SOL     OW21953   2.562   0.209   6.924 -0.3378 -0.1323 -0.4603
39559SOL    HW121954   2.501   0.139   6.947 -0.8620  0.8045  1.0897
39559SOL    HW221955   2.524   0.288   6.961  1.8284  0.4765  0.6479
39560SOL     OW21956   4.084  10.353  10.678 -0.0063 -0.0838  0.5693
39560SOL    HW121957   4.110  10.389  10.593 -0.3460 -0.0399  0.4828
39560SOL    HW221958   4.156  10.295  10.703 -0.4812 -1.1171 -0.3567
39561SOL     OW21959   7.774   9.583   4.697 -0.0473 -0.7753  0.1202
39561SOL    HW121960   7.827   9.660   4.720 -0.8684  0.1700 -1.0216
39561SOL    HW221961   7.803   9.515   4.757  1.4140  0.1392  0.5021
39562SOL     OW21962   6.561   3.201  10.979 -0.3811 -0.0301 -0.0284
39562SOL    HW121963   6.622   3.274  10.964  0.0859 -0.5147 -0.5469
39562SOL    HW221964   6.475   3.241  10.975 -0.2055  0.2356 -2.0784
39563SOL     OW21965   4.320  10.361   1.957  0.5269  0.1685  0.5221
39563SOL    HW121966   4.406  10.327   1.983  0.0978 -1.9642 -0.6638
39563SOL    HW221967   4.259  10.322   2.019  0.3832  2.0162  1.6295
39564SOL     OW21968   1.259   3.959   8.013  0.3678 -0.4669 -0.0282
39564SOL    HW121969   1.287   4.050   8.003 -0.7134 -0.0742  0.3785
39564SOL    HW221970   1.222   3.954   8.101  0.0378 -1.1985 -0.1975
39565SOL     OW21971   1.250   7.301   4.003  0.1231  0.0606 -0.3573
39565SOL    HW121972   1.203   7.362   4.059  0.3961 -0.1257  0.0751
39565SOL    HW221973   1.340   7.336   4.000 -0.4529  1.6045 -2.8367
39566SOL     OW21974   1.740   5.493   5.736  0.8518 -0.5320 -0.4320
39566SOL    HW121975   1.696   5.553   5.677 -1.4942 -0.1833  1.5357
39566SOL    HW221976   1.797   5.548   5.790  0.5027 -0.3928 -0.2043
39567SOL     OW21977   5.271   1.504   4.458  0.3215 -1.0325  0.0558
39567SOL    HW121978   5.178   1.500   4.436 -0.3402  0.9265  2.1487
39567SOL    HW221979   5.308   1.563   4.392 -0.5048  0.2868  0.7115
39568SOL     OW21980   8.443   9.850   7.867 -0.3768  0.1063 -0.0682
39568SOL    HW121981   8.373   9.843   7.931  1.3960  0.5925  2.0682
39568SOL    HW221982   8.427   9.934   7.823 -0.7420  0.5808  0.9250
39569SOL     OW21983   6.029   2.242   8.192  0.4868  0.2443 -0.1490
39569SOL    HW121984   5.935   2.231   8.202  0.1791  1.0180 -1.8252
39569SOL    HW221985   6.047   2.328   8.231  0.3315  0.5193 -0.6771
39570SOL     OW21986  10.507   1.483   6.720 -0.3226  0.4569 -0.0410
39570SOL    HW121987  10.556   1.433   6.785  1.8147  1.8003 -0.5168
39570SOL    HW221988  10.482   1.419   6.654  0.2997 -0.3798  0.5168
39571SOL     OW21989   6.912   1.738   9.090 -0.2176  0.1947 -0.7254
39571SOL    HW121990   6.885   1.710   9.177 -1.4570 -0.0822 -1.1843
39571SOL    HW221991   6.834   1.727   9.036  1.2375 -2.3124 -2.5066
39572SOL     OW21992   9.595   5.964   8.310  0.3327  0.0078  0.9159
39572SOL    HW121993   9.670   6.018   8.334  1.1697 -0.3166 -0.8277
39572SOL    HW221994   9.532   6.026   8.271  1.3038 -0.1831 -1.1083
39573SOL     OW21995   1.015   6.707  10.841 -0.2788 -0.1340  0.3143
39573SOL    HW121996   1.018   6.694  10.936  1.1529  0.9985  0.4501
39573SOL    HW221997   1.105   6.693  10.812 -0.4810  0.5955 -0.7129
39574SOL     OW21998   1.769  10.609   6.532  0.1464 -0.1797 -0.3952
39574SOL    HW121999   1.841  10.630   6.592  0.3458  1.0358 -1.0533
39574SOL    HW222000   1.697  10.665   6.560 -1.3703 -2.8815  1.6695
39575SOL     OW22001   9.579   8.367   1.364  0.1967  0.4598 -0.7305
39575SOL    HW122002   9.526   8.447   1.371 -0.9299 -0.1933 -1.4914
39575SOL    HW222003   9.515   8.297   1.351  1.2569 -0.3679 -1.6485
39576SOL     OW22004  11.353   3.086   3.107 -0.2056  0.7223  0.5909
39576SOL    HW122005  11.270   3.131   3.121 -0.1350  0.8437  0.6293
39576SOL    HW222006  11.404   3.106   3.186 -0.7347 -0.7124  1.3294
39577SOL     OW22007   3.430   6.793   6.359 -0.2724 -0.3170 -0.1439
39577SOL    HW122008   3.405   6.783   6.267  0.9925 -1.0169 -0.4366
39577SOL    HW222009   3.413   6.707   6.398  1.0490 -0.6189 -0.2065
39578SOL     OW22010   0.850  11.267   9.102 -0.1319  0.3573  0.3468
39578SOL    HW122011   0.798  11.190   9.123 -0.7737  0.5057 -0.6665
39578SOL    HW222012   0.941  11.235   9.102 -0.3089 -0.1567  0.9614
39579SOL     OW22013   6.800  10.376   2.012 -0.4499  0.2304 -0.2144
39579SOL    HW122014   6.807  10.289   2.051 -0.0682  0.2178 -0.3151
39579SOL    HW222015   6.852  10.432   2.070  0.9544  0.0391 -1.2418
39580SOL     OW22016   7.209  10.683   4.215  0.1127  0.6132 -0.2984
39580SOL    HW122017   7.244  10.657   4.130 -1.4353 -1.9308 -0.2517
39580SOL    HW222018   7.114  10.677   4.205 -0.1335  1.1836  1.3451
39581SOL     OW22019  10.003  11.112   1.291 -0.3970  0.0547 -0.3462
39581SOL    HW122020  10.061  11.052   1.245 -1.6334 -2.4792  1.1873
39581SOL    HW222021   9.981  11.067   1.373 -2.6972  1.8789  0.1607
39582SOL     OW22022   0.720   0.021   7.422  0.6204  0.0090  0.4793
39582SOL    HW122023   0.677   0.104   7.442  0.2808 -0.0871  0.1600
39582SOL    HW222024   0.811   0.033   7.450  0.1795 -0.1113  2.0819
39583SOL     OW22025   4.779   1.374   1.931  0.1083 -0.0902 -0.1086
39583SOL    HW122026   4.701   1.420   1.960 -0.6469  0.2274 -2.4487
39583SOL    HW222027   4.849   1.440   1.934 -0.3425  0.4275 -0.6422
39584SOL     OW22028  10.463   9.352   6.512 -0.6101  0.1632  0.0734
39584SOL    HW122029  10.481   9.443   6.538 -1.0574 -0.3686  2.4535
39584SOL    HW222030  10.429   9.359   6.423  0.5852  2.1973 -0.2852
39585SOL     OW22031   6.361   0.932   0.137 -0.0778  0.1979 -0.4772
39585SOL    HW122032   6.411   1.003   0.097  2.2394 -0.6867  0.6809
39585SOL    HW222033   6.348   0.960   0.228  0.6703 -0.7450 -0.0695
39586SOL     OW22034   4.885   1.030   9.562  0.5042 -0.4076 -0.0313
39586SOL    HW122035   4.839   1.011   9.643  1.2681 -0.8531  0.3083
39586SOL    HW222036   4.899   0.944   9.522  0.6930 -0.2441 -0.3222
39587SOL     OW22037   7.475   4.525   2.794  0.1214  0.3040 -0.2472
39587SOL    HW122038   7.427   4.443   2.809  1.5310 -0.6564 -0.7642
39587SOL    HW222039   7.463   4.544   2.701  0.3434  0.3108 -0.2764
39588SOL     OW22040  11.112  10.495   8.091  0.2501 -0.4906  0.1392
39588SOL    HW122041  11.025  10.457   8.094  0.1508 -0.2594  0.1806
39588SOL    HW222042  11.165  10.438   8.148  0.6420 -1.9097 -1.5359
39589SOL     OW22043   9.353   1.378   4.998  0.5365 -0.0653  0.1601
39589SOL    HW122044   9.259   1.377   5.016  0.2938 -0.2414 -1.0346
39589SOL    HW222045   9.370   1.294   4.957  0.9828  0.4674 -0.7617
39590SOL     OW22046   9.916   3.700   2.123  0.3741  0.6023  0.3109
39590SOL    HW122047   9.823   3.712   2.104 -0.0406 -1.3608  0.8786
39590SOL    HW222048   9.959   3.771   2.076 -1.0951 -0.4467 -2.9294
39591SOL     OW22049   0.109   4.383   3.306 -0.3020 -0.2561 -0.4311
39591SOL    HW122050   0.121   4.458   3.365  1.1660 -1.2117  0.5635
39591SOL    HW222051   0.033   4.337   3.341  0.5540 -0.8136  0.7953
39592SOL     OW22052  10.786  11.203   7.988  0.1860 -0.3300 -0.0460
39592SOL    HW122053  10.696  11.214   8.020  0.6535 -0.6347  1.4669
39592SOL    HW222054  10.838  11.261   8.044  1.0839 -1.0870 -0.0761
39593SOL     OW22055  10.798  10.076   2.075  0.2548  0.2580  0.4534
39593SOL    HW122056  10.893  10.068   2.090 -0.0468 -1.3776  1.9092
39593SOL    HW222057  10.780  10.170   2.082  1.4683  0.4028  2.4809
39594SOL     OW22058   3.734   2.547   0.782 -0.0684 -0.5463  0.3123
39594SOL    HW122059   3.640   2.565   0.776 -0.0459 -0.2858  0.6881
39594SOL    HW222060   3.757   2.572   0.872  0.2349 -1.1819  0.4224
39595SOL     OW22061   6.705   3.675   1.015  1.0161  0.5762  0.4328
39595SOL    HW122062   6.727   3.598   1.069 -0.3109  0.6517  1.1259
39595SOL    HW222063   6.775   3.679   0.950  1.6829 -0.6005  1.0320
39596SOL     OW22064   8.539   3.330  11.116 -0.1295  0.3125 -0.1308
39596SOL    HW122065   8.565   3.310  11.026 -1.3155  0.8203 -0.6024
39596SOL    HW222066   8.534   3.245  11.159 -1.7539 -0.1601 -1.1686
39597SOL     OW22067   7.651   9.881   4.805 -0.1902  0.0360  0.2335
39597SOL    HW122068   7.658   9.976   4.815 -2.1924  0.1832  0.7868
39597SOL    HW222069   7.741   9.850   4.808  0.4409  1.7930  1.3283
39598SOL     OW22070  10.117   6.858   3.195 -0.1705 -0.1151 -0.0529
39598SOL    HW122071  10.148   6.769   3.213  1.4333  0.4692  0.2825
39598SOL    HW222072  10.038   6.867   3.248 -0.4428 -1.3875 -0.2091
39599SOL     OW22073   0.748   0.481  11.313  0.2111  0.5149 -1.1560
39599SOL    HW122074   0.720   0.435  11.234  0.9530  1.0706 -1.7527
39599SOL    HW222075   0.714   0.570  11.304 -1.4320  0.0646  0.1127
39600SOL     OW22076   1.026   2.952   3.099 -0.2041  0.0002 -0.0990
39600SOL    HW122077   1.026   2.990   3.011  0.4857 -1.4915 -0.7861
39600SOL    HW222078   0.998   2.862   3.086 -2.1138  0.2783  1.5193
39601SOL     OW22079   3.948   1.768   0.519 -0.1658 -0.3791 -0.1517
39601SOL    HW122080   4.026   1.813   0.549 -0.7211  0.5680 -0.0928
39601SOL    HW222081   3.889   1.838   0.490 -1.9563 -0.8870  2.0262
39602SOL     OW22082   3.219   9.680   6.709 -0.0533 -0.5489  0.2226
39602SOL    HW122083   3.203   9.764   6.664 -1.0819 -0.6328  0.3899
39602SOL    HW222084   3.239   9.619   6.638 -0.5696 -0.4352 -0.0315
39603SOL     OW22085   0.167   9.418   2.400  0.1454  0.6689  0.3737
39603SOL    HW122086   0.107   9.450   2.333 -0.4772  0.4367  0.8090
39603SOL    HW222087   0.250   9.404   2.354 -0.3760  0.1433 -0.4202
39604SOL     OW22088   0.051   4.015   8.959 -0.3439  0.2715 -0.0673
39604SOL    HW122089   0.145   4.025   8.974 -0.3131  1.0838 -0.7144
39604SOL    HW222090   0.013   4.098   8.987 -0.8850 -0.0694  0.2373
39605SOL     OW22091   1.738  10.027   6.865 -0.0454  0.0806  0.4225
39605SOL    HW122092   1.809  10.077   6.824 -0.4042 -0.3743 -0.8021
39605SOL    HW222093   1.726   9.951   6.807 -2.0565  0.5438  0.1770
39606SOL     OW22094   2.941   6.204   8.360  0.0144  0.0797  0.0185
39606SOL    HW122095   2.963   6.292   8.390  0.2330  0.4929 -1.2781
39606SOL    HW222096   2.858   6.184   8.403 -0.1350  1.0020  0.1836
39607SOL     OW22097   3.871  11.381   0.486 -0.1541 -0.0635 -0.3769
39607SOL    HW122098   3.919  11.362   0.567  1.3784  1.2119 -0.9568
39607SOL    HW222099   3.920  11.336   0.418  0.6081  1.7090 -1.0547
39608SOL     OW22100   7.720   9.652   5.860  0.0939 -0.5235  0.0562
39608SOL    HW122101   7.691   9.633   5.949 -1.1832 -0.0609 -0.2458
39608SOL    HW222102   7.645   9.630   5.805  1.0050 -1.2018 -0.9576
39609SOL     OW22103  10.452   4.233   4.693  0.1659 -0.1828 -0.3365
39609SOL    HW122104  10.510   4.225   4.618  1.2963 -0.7805  0.5632
39609SOL    HW222105  10.372   4.187   4.666  1.3800 -2.4201 -0.4094
39610SOL     OW22106   9.444   4.878   2.160  0.6510  0.2893 -0.2251
39610SOL    HW122107   9.521   4.933   2.145  1.2044 -0.8019 -1.5436
39610SOL    HW222108   9.465   4.829   2.239  0.8642  0.7568  0.0122
39611SOL     OW22109   3.454   5.782   6.649 -0.1172  0.0279 -0.5051
39611SOL    HW122110   3.378   5.724   6.642  0.5439 -0.8313 -0.7173
39611SOL    HW222111   3.485   5.769   6.739 -0.5334  0.7847 -0.2465
39612SOL     OW22112   0.763  11.255   5.677  0.1281  0.5033  0.1812
39612SOL    HW122113   0.739  11.164   5.658  0.8557  0.6300 -1.5512
39612SOL    HW222114   0.841  11.248   5.732  0.2493  0.0756 -0.0390
39613SOL     OW22115   6.336   3.870   4.002  0.2972  0.4837  0.3936
39613SOL    HW122116   6.282   3.912   3.936  0.3874 -1.1592 -0.7876
39613SOL    HW222117   6.406   3.828   3.952  1.4449  0.7532  1.7077
39614SOL     OW22118   2.341   9.360   7.945 -0.9978 -0.3543 -0.0709
39614SOL    HW122119   2.280   9.402   8.006  0.6997 -0.4628  1.7884
39614SOL    HW222120   2.391   9.299   7.999  2.5011  1.5213 -0.8755
39615SOL     OW22121   6.530   6.657   1.904 -0.4210 -0.1814 -0.0594
39615SOL    HW122122   6.541   6.603   1.826  1.0384 -0.1834  0.1329
39615SOL    HW222123   6.616   6.660   1.944 -0.8932  0.7863  0.9331
39616SOL     OW22124   1.430   6.958   8.345  0.3210 -0.0024  0.8141
39616SOL    HW122125   1.362   6.891   8.335  0.7329 -0.2672 -0.4012
39616SOL    HW222126   1.382   7.037   8.370 -0.3274 -0.4120  0.8974
39617SOL     OW22127   1.112   7.573   1.776 -0.3139  0.1887  0.0451
39617SOL    HW122128   1.188   7.618   1.740 -1.7637  0.8656 -2.4535
39617SOL    HW222129   1.133   7.480   1.770  1.3722  0.3803  2.0645
39618SOL     OW22130   1.730   4.637   7.429 -0.0214  0.1345 -0.2392
39618SOL    HW122131   1.775   4.557   7.458  0.3093  0.4458  0.1077
39618SOL    HW222132   1.672   4.660   7.502 -1.9265 -1.1209 -1.2659
39619SOL     OW22133   3.315   5.657   3.666 -0.6323  0.5586  0.0043
39619SOL    HW122134   3.344   5.727   3.724 -2.1731  1.3935 -0.1841
39619SOL    HW222135   3.273   5.593   3.724  3.7678 -2.1103  0.7175
39620SOL     OW22136   8.753   8.031   5.858 -0.1588 -0.2639 -0.7140
39620SOL    HW122137   8.840   8.001   5.834  1.0698  2.5700 -0.2902
39620SOL    HW222138   8.728   7.977   5.932  0.9512 -1.5580 -1.2490
39621SOL     OW22139   4.550   3.079   3.106  0.0395  0.9927  0.4762
39621SOL    HW122140   4.623   3.018   3.089 -0.9198 -0.0406 -0.0861
39621SOL    HW222141   4.578   3.161   3.067  1.0257  0.6883  0.5099
39622SOL     OW22142   1.507   4.525   8.223  0.0987  0.2971 -0.3907
39622SOL    HW122143   1.468   4.447   8.263  0.3322  0.8687  1.0281
39622SOL    HW222144   1.439   4.591   8.228  0.2569  0.4778 -0.6207
39623SOL     OW22145   1.903  10.210   9.903  0.5583 -0.3767  0.0300
39623SOL    HW122146   1.956  10.132   9.886 -1.0696 -1.2414 -1.4931
39623SOL    HW222147   1.829  10.202   9.842 -0.1880  1.8605  0.5408
39624SOL     OW22148   9.919   6.156   2.156  0.4756 -0.6135 -0.3522
39624SOL    HW122149   9.829   6.127   2.170 -0.2409  1.1896 -0.9324
39624SOL    HW222150   9.947   6.190   2.241 -0.0076  0.3349 -0.5532
39625SOL     OW22151   3.152   0.298   3.091  0.2688 -0.0226  0.7228
39625SOL    HW122152   3.133   0.204   3.089 -1.4461  0.2899 -0.0640
39625SOL    HW222153   3.125   0.325   3.179 -0.0900 -0.1316  0.6516
39626SOL     OW22154   1.034   7.621   6.613 -0.2839  0.6254  0.0316
39626SOL    HW122155   1.009   7.620   6.521  0.2894 -0.8149 -0.1280
39626SOL    HW222156   1.117   7.670   6.615  0.4997 -0.6204 -0.4706
39627SOL     OW22157   3.054   3.719   4.185 -0.1980  0.3077 -0.2223
39627SOL    HW122158   2.975   3.733   4.238 -0.6634 -0.7686 -0.6004
39627SOL    HW222159   3.028   3.745   4.096 -0.1636 -0.1371 -0.3652
39628SOL     OW22160   7.385  11.205  11.043 -0.0525  0.6680  0.2162
39628SOL    HW122161   7.471  11.247  11.051 -0.4172  1.9360 -1.8803
39628SOL    HW222162   7.396  11.140  10.973 -1.1969  2.1341 -1.4125
39629SOL     OW22163   7.940   3.777   1.846  0.1722  0.0055  0.1369
39629SOL    HW122164   7.871   3.720   1.811  0.4145 -0.2713  0.1089
39629SOL    HW222165   7.987   3.808   1.769  0.4136 -0.2318  0.1899
39630SOL     OW22166   9.668   3.225   6.915  0.4953 -0.4102  0.2368
39630SOL    HW122167   9.599   3.171   6.875  0.4715  0.4196 -0.9013
39630SOL    HW222168   9.749   3.187   6.883  0.4620  0.8950 -1.5744
39631SOL     OW22169   7.464   9.853   6.388  0.1079  0.4104  0.2331
39631SOL    HW122170   7.442   9.766   6.422 -1.7621  0.9096  0.4195
39631SOL    HW222171   7.488   9.838   6.297  0.6542 -0.3854  0.4929
39632SOL     OW22172   3.337   2.745  10.910  0.6817  0.3782  0.3794
39632SOL    HW122173   3.378   2.687  10.974  2.8237 -1.0462 -2.1081
39632SOL    HW222174   3.410   2.784  10.862 -0.8045  2.3965 -0.4037
39633SOL     OW22175  11.231   0.411   3.589 -0.5735 -0.7825  0.0164
39633SOL    HW122176  11.306   0.367   3.548 -0.1380 -1.1379  1.1392
39633SOL    HW222177  11.200   0.472   3.523  0.5876 -0.7844 -0.5663
39634SOL     OW22178   4.741   5.217   1.111 -0.3290 -0.7858  0.3297
39634SOL    HW122179   4.815   5.222   1.172  2.0006 -1.0525 -2.2688
39634SOL    HW222180   4.721   5.308   1.092  0.5569 -0.7062 -0.2854
39635SOL     OW22181   7.208   2.383  10.410 -0.4234 -0.3525  0.7351
39635SOL    HW122182   7.215   2.389  10.505 -0.7178 -0.9011  0.7992
39635SOL    HW222183   7.276   2.321  10.384 -0.7467 -0.6801  0.6585
39636SOL     OW22184   1.005  11.251   2.306  0.7552 -1.3554  0.4314
39636SOL    HW122185   0.929  11.261   2.364  0.3896 -0.3916 -0.1877
39636SOL    HW222186   1.068  11.316   2.338  0.2604 -0.2799 -0.6656
39637SOL     OW22187   7.342   9.534   7.737  0.4255  0.3821 -0.3402
39637SOL    HW122188   7.384   9.554   7.821  2.2823 -0.0216 -1.1187
39637SOL    HW222189   7.392   9.585   7.673 -0.4274  0.0275 -1.3178
39638SOL     OW22190   3.680  10.034   5.824  0.3846 -0.1404 -0.9331
39638SOL    HW122191   3.591  10.024   5.791 -0.6371  2.7888  0.6234
39638SOL    HW222192   3.730  10.064   5.749 -0.1855 -0.6674 -1.5400
39639SOL     OW22193   0.695   6.394   1.626  0.6513  0.4178  0.0321
39639SOL    HW122194   0.660   6.483   1.621  1.1017  0.6514  0.7759
39639SOL    HW222195   0.771   6.394   1.568 -1.1170 -0.4029 -2.4696
39640SOL     OW22196   1.620  10.919   4.975  0.3857 -0.3700 -0.0066
39640SOL    HW122197   1.634  10.877   5.060  0.8200  2.2827  1.3704
39640SOL    HW222198   1.544  10.976   4.989  0.2855 -0.1076 -1.4872
39641SOL     OW22199   7.316   9.428   1.719 -0.3539 -0.3742 -0.5580
39641SOL    HW122200   7.224   9.404   1.731 -0.4802  0.3278 -0.0149
39641SOL    HW222201   7.365   9.347   1.736 -0.7978 -0.4209  0.5764
39642SOL     OW22202   9.122   5.047   9.854  0.7979 -0.7035  0.3274
39642SOL    HW122203   9.072   5.057   9.935  0.3587 -1.4751  0.1621
39642SOL    HW222204   9.155   4.958   9.857 -1.4259 -1.6990 -1.5142
39643SOL     OW22205   1.574   6.174   9.316 -0.5311 -0.9623  0.0385
39643SOL    HW122206   1.545   6.207   9.401 -0.6813 -1.7102  0.2863
39643SOL    HW222207   1.562   6.248   9.256  3.1351  0.9508  1.3037
39644SOL     OW22208   1.882   5.747   4.097  0.2879  0.1547  0.1995
39644SOL    HW122209   1.788   5.728   4.101  0.5037 -0.8293  1.0736
39644SOL    HW222210   1.897   5.807   4.170  0.5010 -0.4899  0.6933
39645SOL     OW22211   2.575   6.173   1.906  0.3925  0.6110 -0.2455
39645SOL    HW122212   2.525   6.133   1.977 -0.0917  0.5896 -0.5921
39645SOL    HW222213   2.588   6.102   1.843  1.1497  0.5305 -0.0140
39646SOL     OW22214   9.122   9.348   9.808 -0.9054  0.3262  0.0692
39646SOL    HW122215   9.059   9.391   9.750 -0.4571 -0.0265 -0.6816
39646SOL    HW222216   9.070   9.326   9.886 -1.6766  0.2003 -0.4635
39647SOL     OW22217   3.491   0.745   4.072 -0.8653  0.1995 -0.1444
39647SOL    HW122218   3.423   0.798   4.032 -1.4155 -0.1297  0.3374
39647SOL    HW222219   3.482   0.659   4.030 -1.3884 -0.1218  0.6138
39648SOL     OW22220   6.781   1.625  10.527 -0.3530  0.2983  0.4299
39648SOL    HW122221   6.711   1.568  10.494 -0.6572  0.7679  0.2586
39648SOL    HW222222   6.771   1.622  10.623  0.3702 -0.8620  0.4928
39649SOL     OW22223   7.620   8.628   3.736 -0.2224 -0.8275 -0.1519
39649SOL    HW122224   7.542   8.682   3.745 -0.7961 -1.4031 -1.3347
39649SOL    HW222225   7.595   8.543   3.772  0.7145 -0.3209  1.8184
39650SOL     OW22226   4.360   2.768   9.365  0.2480  0.4776  0.2974
39650SOL    HW122227   4.349   2.675   9.344 -1.3135  1.0314 -1.6476
39650SOL    HW222228   4.425   2.769   9.436  2.3721 -1.9187 -1.4155
39651SOL     OW22229   3.939   4.483   9.754 -0.6712  0.4730 -0.5527
39651SOL    HW122230   3.994   4.424   9.702  1.7673  2.6201 -0.6043
39651SOL    HW222231   3.865   4.429   9.782  1.6643 -2.7646 -0.0918
39652SOL     OW22232   3.496   0.952   8.852  0.2401 -0.0067  0.6223
39652SOL    HW122233   3.547   0.886   8.898 -1.6417 -1.0760  1.2649
39652SOL    HW222234   3.561   1.002   8.802  2.0364 -0.5317  2.3094
39653SOL     OW22235   4.834   7.959  11.156 -0.4902 -0.7078 -0.2424
39653SOL    HW122236   4.859   7.867  11.163  0.0837 -0.4672  1.0867
39653SOL    HW222237   4.887   8.004  11.221 -1.9564  0.3211  0.3028
39654SOL     OW22238   4.203   6.224   5.830  0.1994  0.1895  0.5403
39654SOL    HW122239   4.184   6.152   5.890  2.6833 -0.9168  0.1552
39654SOL    HW222240   4.149   6.206   5.753 -0.0694 -0.6181  0.8995
39655SOL     OW22241   2.934   1.954   8.925 -0.3393 -0.3066  0.0182
39655SOL    HW122242   2.984   2.002   8.991 -1.0171 -0.1435  0.4214
39655SOL    HW222243   2.860   2.011   8.904 -0.2966 -0.4900 -0.6658
39656SOL     OW22244   5.585   9.875   6.110  0.2080 -0.1808 -0.1180
39656SOL    HW122245   5.623   9.947   6.060 -0.1725  0.1259  0.0286
39656SOL    HW222246   5.648   9.803   6.101  0.2682 -0.0486 -0.8266
39657SOL     OW22247  10.303   7.384   8.927 -0.2404 -0.6092 -0.0074
39657SOL    HW122248  10.380   7.358   8.977  0.2261  1.5812  0.5212
39657SOL    HW222249  10.251   7.437   8.988 -0.1369  1.3274 -1.5050
39658SOL     OW22250   8.594  11.280  10.956 -0.0108 -0.4328  0.2986
39658SOL    HW122251   8.568  11.318  10.872 -0.0506 -1.1246 -0.0068
39658SOL    HW222252   8.607  11.356  11.013 -0.2443  0.0325 -0.2533
39659SOL     OW22253   2.427  11.300   1.319  0.0204 -0.3387 -0.0200
39659SOL    HW122254   2.368  11.290   1.244  0.1343  0.2372 -0.1879
39659SOL    HW222255   2.368  11.312   1.394 -0.0818 -0.1825 -0.1244
39660SOL     OW22256   1.604   7.402  10.220  1.2080  0.0038  0.0979
39660SOL    HW122257   1.646   7.470  10.272  0.5291  0.4964  0.0186
39660SOL    HW222258   1.620   7.321  10.268  1.1977  0.3544  0.6983
39661SOL     OW22259   1.607   4.040   6.148  0.4501  0.2687 -0.3481
39661SOL    HW122260   1.688   3.990   6.145  0.0015 -0.4341 -0.8455
39661SOL    HW222261   1.578   4.032   6.239 -0.6463 -2.0842 -0.8189
39662SOL     OW22262   0.065   5.099   6.798 -0.2844 -0.4563  0.7477
39662SOL    HW122263   0.155   5.102   6.765 -0.8843 -0.6324 -1.0633
39662SOL    HW222264   0.073   5.079   6.891  1.5074 -2.2864  0.2646
39663SOL     OW22265   6.042   8.423   4.082  0.2435 -0.0200  0.2658
39663SOL    HW122266   6.134   8.408   4.061  0.2033  1.8304 -1.5500
39663SOL    HW222267   6.035   8.517   4.094 -1.5116 -0.0607 -0.1683
39664SOL     OW22268  10.228   9.504   0.451 -0.1405 -0.1097  0.0879
39664SOL    HW122269  10.313   9.481   0.489 -0.5860 -1.6191  0.2246
39664SOL    HW222270  10.166   9.493   0.523 -0.6326 -0.3345 -0.3655
39665SOL     OW22271   2.585   3.041   8.151  0.3052  0.0489  0.2437
39665SOL    HW122272   2.638   3.004   8.080 -0.7195  0.6185 -0.8598
39665SOL    HW222273   2.511   3.082   8.106 -1.0472 -0.6639  1.7245
39666SOL     OW22274   4.232   8.988   2.415  0.2737 -0.1972  0.1235
39666SOL    HW122275   4.237   9.030   2.329  1.1626 -0.2198  0.1632
39666SOL    HW222276   4.299   8.919   2.413 -1.0803 -1.5823  0.0941
39667SOL     OW22277   1.797   2.486   3.951 -0.0930  0.6800 -0.0365
39667SOL    HW122278   1.806   2.396   3.983  1.6230  1.4001  1.7053
39667SOL    HW222279   1.778   2.477   3.858  0.8885 -1.4709 -0.0815
39668SOL     OW22280   0.784  10.827   2.035 -0.4952  0.1673 -0.3232
39668SOL    HW122281   0.702  10.866   2.005 -0.7383 -0.3286 -0.3186
39668SOL    HW222282   0.793  10.855   2.126 -0.4991  0.4771 -0.4177
39669SOL     OW22283  10.533   2.355   2.876 -0.4236 -0.1234  0.1521
39669SOL    HW122284  10.533   2.434   2.822  0.8124  0.9911  1.6917
39669SOL    HW222285  10.522   2.283   2.814 -0.2531  1.1620 -1.4282
39670SOL     OW22286   4.507   2.308   7.943  0.0538 -0.0324  0.2494
39670SOL    HW122287   4.513   2.403   7.958 -1.4372  0.2571 -0.7589
39670SOL    HW222288   4.443   2.299   7.872 -0.6899 -1.8690  1.0861
39671SOL     OW22289  11.215   6.120   9.549 -0.4985 -0.1300  0.5343
39671SOL    HW122290  11.296   6.144   9.505 -0.8670  0.7239  0.3000
39671SOL    HW222291  11.239   6.108   9.640 -0.0007 -0.4950  0.3622
39672SOL     OW22292   9.161   3.130   3.714  0.1332 -0.0675 -0.2401
39672SOL    HW122293   9.072   3.096   3.718  0.5771 -1.2134  0.6038
39672SOL    HW222294   9.195   3.120   3.803  0.7126  1.4933 -0.2505
39673SOL     OW22295   0.235   1.604   7.167  0.1603 -0.1453 -0.0086
39673SOL    HW122296   0.266   1.561   7.248 -1.0823 -1.3675 -0.1349
39673SOL    HW222297   0.202   1.688   7.197 -2.0200 -1.3179  1.1324
39674SOL     OW22298   0.736   8.961   5.261 -0.2236 -0.5881  0.2780
39674SOL    HW122299   0.673   8.956   5.333 -0.8794 -0.7524 -0.3003
39674SOL    HW222300   0.789   9.038   5.280 -0.4359 -0.5942  0.9006
39675SOL     OW22301   6.832   0.343   3.626  0.0661 -0.0676 -0.1177
39675SOL    HW122302   6.780   0.271   3.590 -0.5594 -0.6175  1.7342
39675SOL    HW222303   6.901   0.358   3.562 -0.0724 -2.0102 -0.7868
39676SOL     OW22304   6.970   1.265  10.181 -0.3114  0.1738  0.1380
39676SOL    HW122305   7.058   1.234  10.160 -0.1948 -0.6879  1.7602
39676SOL    HW222306   6.983   1.325  10.255 -0.9469  1.2571 -0.5984
39677SOL     OW22307   7.825   7.964   1.991  0.6546 -0.1765 -0.0695
39677SOL    HW122308   7.895   7.989   2.051  1.1764 -1.0968 -0.2874
39677SOL    HW222309   7.848   7.876   1.961  0.3708  0.2287 -1.5756
39678SOL     OW22310   9.958   8.146   0.799  0.0851  0.2246 -0.2032
39678SOL    HW122311   9.942   8.054   0.779  1.4832 -0.6667  2.3811
39678SOL    HW222312   9.919   8.159   0.885  2.1278  1.2959  0.6314
39679SOL     OW22313   0.334   8.326   3.485  0.7727  0.4338  0.0220
39679SOL    HW122314   0.269   8.297   3.549  0.8437  1.0849  0.4067
39679SOL    HW222315   0.356   8.248   3.435  0.6797 -0.0750  0.7673
39680SOL     OW22316   6.853  11.395   6.851  0.0282 -0.3548  0.2963
39680SOL    HW122317   6.764  11.429   6.840  1.3540  3.0755 -1.2669
39680SOL    HW222318   6.861  11.327   6.784 -1.3692 -0.6910  0.4408
39681SOL     OW22319   7.719   2.637   7.820 -0.0913 -0.1450 -0.4273
39681SOL    HW122320   7.751   2.571   7.882 -1.3179  2.0514  2.7660
39681SOL    HW222321   7.645   2.594   7.776  0.0434 -1.4038  0.5184
39682SOL     OW22322   1.740   3.240   0.074  0.6960  0.3006 -0.8298
39682SOL    HW122323   1.825   3.234   0.030  0.1539  1.0196 -2.0417
39682SOL    HW222324   1.722   3.150   0.104  1.3078 -0.1277 -1.6976
39683SOL     OW22325   3.469   2.775   8.652  0.2280 -0.4716 -0.5823
39683SOL    HW122326   3.493   2.704   8.711  1.0068  1.5838  1.7103
39683SOL    HW222327   3.377   2.759   8.631  0.6423 -2.6783 -1.0183
39684SOL     OW22328   8.958  10.716   6.085  0.0416  0.1995 -0.2195
39684SOL    HW122329   8.885  10.736   6.027 -1.8894  0.3228  2.1254
39684SOL    HW222330   8.956  10.621   6.096  1.8626 -0.1395 -2.0442
39685SOL     OW22331   5.242   2.063   6.690 -0.6143 -0.2941  0.3797
39685SOL    HW122332   5.217   2.004   6.760 -0.4457 -0.6301  0.1572
39685SOL    HW222333   5.316   2.020   6.647 -0.9653 -0.2741 -0.2524
39686SOL     OW22334   0.365   7.114   1.331 -0.0283 -0.1879 -0.3631
39686SOL    HW122335   0.310   7.046   1.293  0.6268 -1.0750  0.2492
39686SOL    HW222336   0.351   7.107   1.426  0.1028  0.4785 -0.2880
39687SOL     OW22337   4.659   9.032   3.458  0.4106  0.0682  0.2048
39687SOL    HW122338   4.657   9.081   3.540  0.8450 -0.4829  0.5564
39687SOL    HW222339   4.752   9.016   3.442  0.5708  2.3807 -1.7596
39688SOL     OW22340   7.619   1.024   2.951  0.3212 -0.4834 -0.0748
39688SOL    HW122341   7.571   0.990   3.026  1.5878 -0.3506  0.8198
39688SOL    HW222342   7.551   1.054   2.890 -0.7150  0.1197  1.3374
39689SOL     OW22343   2.955   2.503   9.712  0.1355  0.1903  0.5261
39689SOL    HW122344   2.940   2.429   9.770  0.1003  0.0681  0.3627
39689SOL    HW222345   2.926   2.580   9.761  2.1034  0.3580  1.5394
39690SOL     OW22346   4.176   8.991   4.914 -0.2457 -0.8523  0.1469
39690SOL    HW122347   4.126   9.046   4.974 -1.1239 -0.3891 -0.9704
39690SOL    HW222348   4.261   8.981   4.956 -1.2501 -1.6676  2.1081
39691SOL     OW22349   3.125   0.335  11.230  0.4951  0.2587  0.3755
39691SOL    HW122350   3.095   0.285  11.306  1.7132 -1.2318 -0.0703
39691SOL    HW222351   3.047   0.347  11.176 -0.1513  0.3248  1.2956
39692SOL     OW22352   1.161   1.241   1.903 -0.3071 -0.8893  0.2815
39692SOL    HW122353   1.098   1.261   1.972 -0.0892  1.7753 -0.1647
39692SOL    HW222354   1.119   1.173   1.850 -1.3565 -1.4979  1.8192
39693SOL     OW22355  11.201   3.634   8.461  0.7389 -0.0092 -0.2086
39693SOL    HW122356  11.289   3.609   8.433  0.6711 -0.3215 -0.1404
39693SOL    HW222357  11.208   3.644   8.556  0.9556  0.9971 -0.3192
39694SOL     OW22358  11.057   8.306   1.780  0.2371  0.0580 -0.4302
39694SOL    HW122359  11.090   8.392   1.756  0.2470  0.6945  1.6563
39694SOL    HW222360  10.965   8.320   1.802  0.0638 -0.6037 -0.6911
39695SOL     OW22361   6.141   0.651   9.624  0.3402 -0.2937 -0.0773
39695SOL    HW122362   6.076   0.636   9.555  0.8087 -1.1631 -0.3423
39695SOL    HW222363   6.176   0.564   9.643  1.9685  0.2488 -0.4630
39696SOL     OW22364  10.026  10.144   1.984 -0.9205  0.4965  0.1760
39696SOL    HW122365  10.082  10.069   2.005 -1.2401  0.7946  2.3490
39696SOL    HW222366  10.085  10.210   1.949 -0.4412 -0.3118 -0.5716
39697SOL     OW22367   3.827   9.383   4.214 -0.4971  0.1105 -0.5248
39697SOL    HW122368   3.787   9.446   4.274  0.2727  2.3159 -2.1639
39697SOL    HW222369   3.777   9.303   4.225 -0.7609  0.5940  2.5728
39698SOL     OW22370  10.503   7.082   9.661  0.3808 -0.3594 -0.6918
39698SOL    HW122371  10.591   7.091   9.625 -0.1464 -0.8638 -2.1738
39698SOL    HW222372  10.481   6.990   9.650 -0.5031 -0.1518 -0.7649
39699SOL     OW22373   8.344   1.717   9.350  0.4855 -0.0929  0.3505
39699SOL    HW122374   8.327   1.782   9.419  0.0540 -0.7249  0.8465
39699SOL    HW222375   8.258   1.701   9.310  0.5704 -0.4446  0.3074
39700SOL     OW22376   4.787   8.956   8.583  0.2103 -0.5983  0.1901
39700SOL    HW122377   4.795   8.944   8.677  1.0986  0.1947  0.2351
39700SOL    HW222378   4.815   9.047   8.568 -0.6929 -0.4562 -0.7439
39701SOL     OW22379   9.622   3.064   7.442  0.0336 -0.3343  0.0349
39701SOL    HW122380   9.630   3.092   7.351  3.2009 -2.1854 -0.4289
39701SOL    HW222381   9.544   3.010   7.444  0.1780 -0.6752 -1.7549
39702SOL     OW22382   0.142  10.279   0.687  0.5200 -0.1174 -0.1309
39702SOL    HW122383   0.073  10.315   0.743 -0.1029 -2.6005  0.8323
39702SOL    HW222384   0.121  10.311   0.599 -1.3745 -0.1290  0.2841
39703SOL     OW22385   0.394   0.684   4.400  0.4376 -0.3844  0.1430
39703SOL    HW122386   0.384   0.590   4.415 -1.8631  0.1987  3.2886
39703SOL    HW222387   0.314   0.710   4.355  0.8170  0.1597 -0.2380
39704SOL     OW22388   2.408   8.365   3.051 -0.1883 -0.2764 -0.5876
39704SOL    HW122389   2.393   8.322   3.136 -1.4569  0.0134 -0.6469
39704SOL    HW222390   2.340   8.329   2.994 -1.3349  1.8137 -0.6239
39705SOL     OW22391   7.813   5.673   0.964  0.1124  0.1010  0.0645
39705SOL    HW122392   7.811   5.755   1.013 -1.5102 -0.1053  0.4028
39705SOL    HW222393   7.826   5.700   0.873  0.6653  0.6565  0.3039
39706SOL     OW22394   5.923   5.404   6.217  0.1026 -0.1747  0.9334
39706SOL    HW122395   5.963   5.412   6.130  0.3765 -1.5398  0.9130
39706SOL    HW222396   5.990   5.437   6.277  0.7372 -1.1867  0.7882
39707SOL     OW22397   5.737   5.720   9.301  0.3139 -0.3101 -0.3339
39707SOL    HW122398   5.756   5.693   9.211  0.0854  0.1137 -0.5112
39707SOL    HW222399   5.651   5.683   9.319 -0.5834  1.3229 -1.0245
39708SOL     OW22400   0.966   8.073   8.610  0.5504  0.0830  0.7649
39708SOL    HW122401   1.050   8.044   8.647  0.8220  0.4874  0.4689
39708SOL    HW222402   0.925   7.993   8.578  0.6048 -0.1850  1.3455
39709SOL     OW22403   2.650   7.795   7.163 -0.0712  0.0334 -0.1759
39709SOL    HW122404   2.650   7.769   7.071  0.7092  1.0593 -0.4857
39709SOL    HW222405   2.675   7.715   7.210  0.2177 -0.3225 -0.9149
39710SOL     OW22406   9.857   8.286   8.145  0.0764 -0.0014 -0.0636
39710SOL    HW122407   9.828   8.220   8.208  0.2731  0.2587  0.3038
39710SOL    HW222408   9.902   8.236   8.077 -0.4056 -0.3134 -0.1547
39711SOL     OW22409   2.739  10.876   8.188 -0.0057  0.3807 -0.0377
39711SOL    HW122410   2.743  10.951   8.247  0.3858 -0.0467  0.4807
39711SOL    HW222411   2.813  10.821   8.213 -0.7075 -0.5403  0.0844
39712SOL     OW22412   0.031   7.193   0.408  0.5480  0.3521 -0.1897
39712SOL    HW122413   0.087   7.264   0.376 -0.2555  0.6027 -1.0927
39712SOL    HW222414  -0.005   7.227   0.490  1.1038  0.5015 -0.0050
39713SOL     OW22415   0.239   2.499   0.276  0.1994 -0.1660 -0.1497
39713SOL    HW122416   0.275   2.411   0.286  0.1733 -0.2731 -0.9309
39713SOL    HW222417   0.246   2.517   0.182  0.3596  0.7333  0.0280
39714SOL     OW22418   2.620  10.475   3.152  0.6369 -0.0555  0.3226
39714SOL    HW122419   2.525  10.472   3.165  0.6535  2.9943  1.8066
39714SOL    HW222420   2.631  10.461   3.058 -1.3782  0.6883 -0.0754
39715SOL     OW22421  11.008   2.296   4.855 -0.4138  0.1140  0.3750
39715SOL    HW122422  11.060   2.306   4.775 -1.6568 -0.2843 -0.5069
39715SOL    HW222423  10.953   2.219   4.839 -0.7113  0.0401  1.6065
39716SOL     OW22424   6.008   1.550   8.067 -0.0693 -0.0486 -0.4769
39716SOL    HW122425   5.956   1.620   8.026  1.5984  0.2190 -2.3011
39716SOL    HW222426   6.042   1.589   8.147 -0.9305  0.4833 -0.3594
39717SOL     OW22427   0.436   4.951   2.859  0.4260  0.5447  0.1944
39717SOL    HW122428   0.395   4.956   2.945 -1.4678 -2.0135 -0.4319
39717SOL    HW222429   0.408   5.030   2.813  0.9481  1.6221  1.6602
39718SOL     OW22430   8.263  10.508   0.384 -0.2993  0.1562 -0.1251
39718SOL    HW122431   8.224  10.561   0.454 -0.3776  1.4941 -1.1453
39718SOL    HW222432   8.314  10.441   0.430 -0.8639  0.6032  1.2050
39719SOL     OW22433   9.272   7.173   7.979 -0.2065  0.3329  0.0314
39719SOL    HW122434   9.218   7.196   7.903 -3.2932 -0.0196  1.9524
39719SOL    HW222435   9.256   7.080   7.992  1.4533  0.0579  0.3159
39720SOL     OW22436   2.487   8.838   1.875 -0.1208  0.1078  0.0855
39720SOL    HW122437   2.533   8.846   1.959  0.4702 -0.2161 -0.2023
39720SOL    HW222438   2.425   8.766   1.888  3.0804 -3.1834 -1.0854
39721SOL     OW22439   6.488   6.949   8.534  0.1620  0.7328 -0.2478
39721SOL    HW122440   6.447   6.970   8.619 -1.7038  0.0233 -0.9235
39721SOL    HW222441   6.506   7.035   8.495  1.5199  1.0783  1.0497
39722SOL     OW22442   9.868   6.205   4.568  0.6341  0.1640  0.0165
39722SOL    HW122443   9.920   6.246   4.498 -1.5445  1.9788 -0.6577
39722SOL    HW222444   9.919   6.129   4.594  1.6768 -0.4959 -3.4227
39723SOL     OW22445   9.730   2.724   2.031 -0.0988  0.1203  0.6328
39723SOL    HW122446   9.640   2.698   2.012 -0.0902  0.5606 -0.0467
39723SOL    HW222447   9.743   2.803   1.978  1.3782 -1.1097 -0.9348
39724SOL     OW22448   6.885   0.571   1.129  0.1247 -0.2946  0.7190
39724SOL    HW122449   6.844   0.657   1.118  1.6962  0.1952 -2.5419
39724SOL    HW222450   6.818   0.518   1.172 -3.3347  0.9622 -2.5204
39725SOL     OW22451   4.292   4.099  10.807 -0.0479 -0.1530  0.0472
39725SOL    HW122452   4.203   4.085  10.841 -0.3469  0.6595 -0.3619
39725SOL    HW222453   4.308   4.192  10.821  0.8001 -0.3210  0.2383
39726SOL     OW22454   6.079   8.030   3.789 -0.1793  0.4154 -0.2549
39726SOL    HW122455   6.036   7.958   3.743  0.0844 -0.6974  1.1397
39726SOL    HW222456   6.033   8.108   3.761 -0.8562 -0.3549 -1.3834
39727SOL     OW22457   8.461  11.310   3.725  0.4133 -0.2069 -0.3259
39727SOL    HW122458   8.413  11.255   3.787 -0.2489  0.3285 -0.3514
39727SOL    HW222459   8.396  11.372   3.693  0.9619  0.0795 -0.8999
39728SOL     OW22460   8.191   2.357   9.450 -0.1661 -0.1606  0.2196
39728SOL    HW122461   8.151   2.419   9.389 -0.6834  0.2266  0.9423
39728SOL    HW222462   8.280   2.388   9.461 -0.0958 -0.1760 -0.2533
39729SOL     OW22463   7.606   2.040  11.141  0.1792 -0.2923 -0.2776
39729SOL    HW122464   7.551   2.112  11.173  0.8455 -0.1017  0.4684
39729SOL    HW222465   7.559   1.961  11.167 -0.2666 -0.1383 -0.5901
39730SOL     OW22466  10.211  10.905   5.411 -0.0135  0.0629  0.2031
39730SOL    HW122467  10.204  10.879   5.320  0.3256  2.0984 -0.4545
39730SOL    HW222468  10.151  10.980   5.419  0.5680  0.4277  1.4217
39731SOL     OW22469   2.777   7.797   8.132 -0.3878  0.6369  0.3514
39731SOL    HW122470   2.850   7.835   8.180 -0.4310 -0.3341  1.2361
39731SOL    HW222471   2.703   7.800   8.193 -0.4194 -0.7176  0.4181
39732SOL     OW22472   6.895   2.140   7.561 -0.0875  0.6630 -0.1041
39732SOL    HW122473   6.878   2.232   7.541  2.2048  1.3959  0.9254
39732SOL    HW222474   6.977   2.120   7.516  2.0325  0.6234  3.4274
39733SOL     OW22475   9.851  10.145   1.619 -0.3250  0.3764  0.3315
39733SOL    HW122476   9.810  10.060   1.608 -2.1970  0.9692  2.1327
39733SOL    HW222477   9.944  10.126   1.628 -0.8074 -1.6140  1.7871
39734SOL     OW22478   0.668   6.447   9.103 -0.5670  0.5004  0.4511
39734SOL    HW122479   0.576   6.475   9.099 -0.3204  1.3445  0.5208
39734SOL    HW222480   0.670   6.383   9.174 -1.1009  0.4845  0.4564
39735SOL     OW22481   4.427   9.816   8.589 -0.3220  0.0377 -0.2263
39735SOL    HW122482   4.332   9.826   8.584 -0.4765 -1.7431 -3.0715
39735SOL    HW222483   4.440   9.734   8.635 -0.2240 -0.2659 -0.7890
39736SOL     OW22484   9.107   4.927   8.572 -0.4460 -0.5247  0.2565
39736SOL    HW122485   9.181   4.975   8.609 -0.0484 -0.1978 -0.9301
39736SOL    HW222486   9.058   4.993   8.522  0.4017 -1.4075 -1.8541
39737SOL     OW22487  10.333   0.923   3.931  0.7133 -0.2589  0.2801
39737SOL    HW122488  10.377   0.958   3.853  2.4669 -1.1747  0.8083
39737SOL    HW222489  10.367   0.975   4.003 -1.0199  0.6868  0.4671
39738SOL     OW22490   2.098   7.711   3.928  0.0970 -0.0798 -0.8081
39738SOL    HW122491   2.105   7.618   3.906  1.2389 -0.1780 -0.0859
39738SOL    HW222492   2.121   7.716   4.020 -2.7673  0.5641 -0.0184
39739SOL     OW22493   4.482  10.463  10.811 -0.2741  0.8007 -0.3910
39739SOL    HW122494   4.558  10.481  10.866 -0.9568  0.9542  0.5356
39739SOL    HW222495   4.495  10.373  10.781 -0.1736  0.5021  0.5143
39740SOL     OW22496   6.862   4.452   0.945  0.1229  0.2978 -0.5507
39740SOL    HW122497   6.942   4.401   0.957 -0.9726 -1.1904  0.9226
39740SOL    HW222498   6.846   4.492   1.030  0.0845  1.8660 -1.2568
39741SOL     OW22499   3.832   5.027   5.038 -0.8358  0.5112 -0.1770
39741SOL    HW122500   3.845   5.069   5.123 -0.2626 -0.3125  0.1485
39741SOL    HW222501   3.917   5.033   4.995 -0.5751 -0.8212  0.1103
39742SOL     OW22502   8.599   4.416   2.792 -0.0199 -0.1081 -0.2369
39742SOL    HW122503   8.548   4.483   2.748 -0.6995 -0.0319  0.6445
39742SOL    HW222504   8.613   4.349   2.725 -1.4576 -0.2349 -0.4429
39743SOL     OW22505   9.783   4.502   0.253 -0.0950 -0.0596  0.0886
39743SOL    HW122506   9.816   4.463   0.172 -0.1661  0.6865 -0.3081
39743SOL    HW222507   9.708   4.555   0.225  0.1836  0.5992  0.5706
39744SOL     OW22508   1.702   1.595   1.402  0.1940 -0.2453 -1.1011
39744SOL    HW122509   1.695   1.640   1.317  1.3770  1.1387 -0.5103
39744SOL    HW222510   1.718   1.665   1.465  1.5648 -1.4350 -0.0567
39745SOL     OW22511   8.415   1.934   4.982  0.1327  0.1534 -0.6604
39745SOL    HW122512   8.465   1.960   4.905 -0.0524  0.6332 -0.6202
39745SOL    HW222513   8.395   1.842   4.967  3.1190 -0.8152  0.4409
39746SOL     OW22514   3.558   2.083   6.190  0.9546 -0.3316 -0.3605
39746SOL    HW122515   3.517   2.097   6.104  0.0268  0.6780  0.2212
39746SOL    HW222516   3.496   2.120   6.252  1.5273 -1.2376  0.7766
39747SOL     OW22517   5.823   9.769   5.423 -0.2374 -0.2822  0.0630
39747SOL    HW122518   5.733   9.775   5.394 -0.1777 -2.0662 -0.5736
39747SOL    HW222519   5.827   9.690   5.476  0.7684  0.2338  0.8030
39748SOL     OW22520   5.284   7.183   7.991 -0.3243  0.0391 -0.3087
39748SOL    HW122521   5.331   7.251   8.039 -0.3852 -0.7448  0.9001
39748SOL    HW222522   5.325   7.182   7.905  0.8157  0.4453  0.2103
39749SOL     OW22523   7.477  10.096   8.182 -0.1614  0.2550  0.4276
39749SOL    HW122524   7.540  10.024   8.176  0.4694  0.6506  1.9938
39749SOL    HW222525   7.462  10.108   8.276 -0.9321  1.5921  0.1640
39750SOL     OW22526   0.216   0.124   9.827 -0.4741  0.0695  0.0937
39750SOL    HW122527   0.223   0.210   9.868  1.5806  0.7562 -1.5231
39750SOL    HW222528   0.165   0.139   9.747 -0.3746 -0.2836 -0.0393
39751SOL     OW22529   3.963   6.697   7.019  0.4457 -0.3610 -0.3903
39751SOL    HW122530   4.046   6.713   7.063  0.4464  0.3154 -0.6259
39751SOL    HW222531   3.897   6.710   7.087  0.5914 -2.6261  0.2537
39752SOL     OW22532   3.358   2.231  11.031 -0.0012 -0.5792  0.6750
39752SOL    HW122533   3.418   2.275  10.971  0.2979 -1.1320  0.5626
39752SOL    HW222534   3.407   2.222  11.112  0.0093 -0.8667  0.6409
39753SOL     OW22535   0.544   2.256   6.823 -0.3149  0.1252 -0.1139
39753SOL    HW122536   0.535   2.347   6.850  0.5735  0.2259 -0.1259
39753SOL    HW222537   0.496   2.250   6.740 -0.6809  0.4872  0.0692
39754SOL     OW22538   7.647   8.664   2.748 -0.0297 -0.8096  0.4612
39754SOL    HW122539   7.555   8.640   2.741  0.1023 -1.6481  1.4361
39754SOL    HW222540   7.656   8.740   2.691 -1.0804 -1.3781 -0.5067
39755SOL     OW22541   3.283   9.334   9.131  0.1078  0.4033  0.4478
39755SOL    HW122542   3.322   9.383   9.058  0.1109  0.3269  0.3980
39755SOL    HW222543   3.189   9.340   9.117  0.0016  2.1857  1.5782
39756SOL     OW22544   4.247   0.467   6.161  0.0394  0.4258  0.2400
39756SOL    HW122545   4.204   0.382   6.150  1.8095 -0.3578 -1.1197
39756SOL    HW222546   4.176   0.531   6.152 -1.3448 -0.8706  1.4185
39757SOL     OW22547   9.195  10.512   8.957 -0.1929 -0.3769  0.5475
39757SOL    HW122548   9.107  10.503   8.921 -1.1580  1.4499  2.2505
39757SOL    HW222549   9.185  10.492   9.050  1.5479 -1.6899  0.5083
39758SOL     OW22550   8.150  10.849   7.053  0.3636 -0.5554 -0.1404
39758SOL    HW122551   8.104  10.827   6.972  0.0269  1.0597 -0.4252
39758SOL    HW222552   8.082  10.884   7.110  0.6474 -1.4396  0.7749
39759SOL     OW22553   3.986   2.250   1.966  0.4933 -0.5827 -0.3939
39759SOL    HW122554   3.948   2.323   1.917  0.7172 -0.9558 -1.1444
39759SOL    HW222555   3.938   2.249   2.049 -0.4854 -0.4543 -0.9382
39760SOL     OW22556  11.349   3.291   3.902 -0.1414  0.1443 -1.0455
39760SOL    HW122557  11.422   3.246   3.944 -1.0264  1.0093  1.5713
39760SOL    HW222558  11.390   3.361   3.851  0.8764  2.4250  2.6032
39761SOL     OW22559   2.702   2.069   6.622  0.1118 -0.2663 -0.5620
39761SOL    HW122560   2.710   2.006   6.694 -1.1147 -2.5156 -2.2847
39761SOL    HW222561   2.608   2.080   6.611  0.2623 -0.4995 -2.2418
39762SOL     OW22562   3.579   3.215  11.241 -0.4192  0.4018  0.0209
39762SOL    HW122563   3.592   3.308  11.219  2.1054 -0.2625 -1.8783
39762SOL    HW222564   3.608   3.169  11.162 -0.7195 -2.0313  1.2594
39763SOL     OW22565   5.771   3.397   5.381 -0.0357  0.5406  0.6000
39763SOL    HW122566   5.819   3.340   5.440  1.3969 -0.8921 -1.8147
39763SOL    HW222567   5.825   3.476   5.373  0.6232  0.0351 -0.0488
39764SOL     OW22568   6.907   1.112   8.091 -0.4209  0.3289 -0.3881
39764SOL    HW122569   6.869   1.186   8.137 -0.6567 -0.5033  0.7978
39764SOL    HW222570   6.845   1.040   8.106  1.1371 -0.8266  0.8439
39765SOL     OW22571   4.121   7.373   8.726  0.0496 -0.0440  0.4847
39765SOL    HW122572   4.155   7.319   8.654 -0.0418  0.8827 -0.2668
39765SOL    HW222573   4.163   7.336   8.804 -1.3297 -2.3407  0.2490
39766SOL     OW22574   1.100   9.878  11.349  0.3100  0.2683 -0.5314
39766SOL    HW122575   1.011   9.885  11.383  0.9202  1.4777  0.9522
39766SOL    HW222576   1.118   9.964  11.312  0.8081 -0.0271 -0.9788
39767SOL     OW22577   6.452  10.773  10.248 -0.2792  0.3189 -0.0502
39767SOL    HW122578   6.495  10.804  10.168 -0.2211 -0.3305 -0.2742
39767SOL    HW222579   6.369  10.736  10.218  0.2985 -1.0918  0.0216
39768SOL     OW22580   6.335   4.411   7.301  0.1242  0.1272  0.5033
39768SOL    HW122581   6.258   4.426   7.356 -0.2612 -1.0779  0.3011
39768SOL    HW222582   6.347   4.494   7.253 -0.2470  0.7721  1.4976
39769SOL     OW22583   9.165   0.893  10.222 -0.1952  0.6695  0.2309
39769SOL    HW122584   9.114   0.837  10.281 -1.8826  1.2721 -0.5894
39769SOL    HW222585   9.177   0.974  10.271  3.1183 -0.6161  1.8250
39770SOL     OW22586   8.723  10.181   5.434 -0.2586  0.0915  0.2862
39770SOL    HW122587   8.746  10.162   5.343 -0.3222  1.9315 -0.1488
39770SOL    HW222588   8.670  10.106   5.462  1.5685 -1.5515 -0.4705
39771SOL     OW22589   3.766   3.188  10.080 -0.3269 -0.1547 -0.0275
39771SOL    HW122590   3.824   3.142  10.140  0.4826  0.3121 -0.4350
39771SOL    HW222591   3.741   3.268  10.127 -0.9734 -0.5414  0.3049
39772SOL     OW22592  10.289   3.953   6.543 -0.3498 -0.1232 -0.0189
39772SOL    HW122593  10.350   3.958   6.470  0.0992 -0.7763  0.3017
39772SOL    HW222594  10.325   3.884   6.599 -1.6495 -0.8871 -0.0808
39773SOL     OW22595   6.471   8.626   1.433  0.5380  0.1782  0.3244
39773SOL    HW122596   6.460   8.630   1.338  0.7356  1.1752  0.3291
39773SOL    HW222597   6.565   8.612   1.445  0.5347  0.2028  0.3765
39774SOL     OW22598  10.740   9.784   9.946 -0.2566 -0.2697 -0.4758
39774SOL    HW122599  10.765   9.716   9.884  0.4998 -0.1210 -0.3387
39774SOL    HW222600  10.736   9.740  10.031  3.1433  0.3768  0.1550
39775SOL     OW22601   1.822  10.029   8.457  0.0056 -0.3496 -0.3006
39775SOL    HW122602   1.790  10.011   8.546  0.4648  0.9424  0.1450
39775SOL    HW222603   1.893  10.091   8.469 -1.3385  1.5643 -1.7038
39776SOL     OW22604   8.228  10.087   5.663  0.4294  0.0907 -0.1627
39776SOL    HW122605   8.209  10.061   5.573  1.4819  1.5687 -0.8584
39776SOL    HW222606   8.316  10.053   5.680  0.1919 -0.2712  0.3400
39777SOL     OW22607   2.873   0.931   3.046 -0.6243  0.2822 -0.2590
39777SOL    HW122608   2.809   0.928   2.974 -2.9158  0.5543  1.6361
39777SOL    HW222609   2.840   1.000   3.103  0.2375 -0.9608  1.8200
39778SOL     OW22610   3.821   2.613   7.493 -0.1025  0.5142 -0.6616
39778SOL    HW122611   3.904   2.595   7.448 -0.0303 -1.6438  0.2121
39778SOL    HW222612   3.754   2.576   7.435 -0.1841 -0.2873 -0.0803
39779SOL     OW22613  10.733  11.095   2.425  0.8487  0.2837 -0.0890
39779SOL    HW122614  10.663  11.065   2.366  0.5744 -0.9791  0.8230
39779SOL    HW222615  10.687  11.131   2.501  1.1999  1.4869 -0.4318
39780SOL     OW22616   1.079  11.209   9.376 -0.3774  0.7882  0.6860
39780SOL    HW122617   1.154  11.269   9.374  0.9868 -0.8317  0.8937
39780SOL    HW222618   1.094  11.149   9.303 -1.6984  0.6586  0.4944
39781SOL     OW22619   4.763   7.910   1.741 -0.2578 -0.2231  0.4151
39781SOL    HW122620   4.815   7.830   1.749  0.1492  0.0614  0.6583
39781SOL    HW222621   4.724   7.922   1.828 -0.9815 -0.5975  0.1530
39782SOL     OW22622   4.569   4.869   9.488  0.6739  0.6600 -0.4129
39782SOL    HW122623   4.554   4.913   9.404 -0.6843  1.6418  0.2912
39782SOL    HW222624   4.624   4.930   9.537  0.6557  0.5474 -0.2510
39783SOL     OW22625  10.503   3.432   0.439 -0.7291 -0.3773 -0.2940
39783SOL    HW122626  10.503   3.444   0.344 -0.8113  1.5622 -0.0913
39783SOL    HW222627  10.596   3.428   0.462 -0.7124 -1.4196 -0.4949
39784SOL     OW22628   4.159  10.147   5.124  0.0485 -0.1476  0.0466
39784SOL    HW122629   4.140  10.179   5.212  2.2534  0.2105  0.4468
39784SOL    HW222630   4.188  10.225   5.076 -1.9081 -0.1765 -1.2884
39785SOL     OW22631   3.758   1.593   0.901  0.0911 -0.7886 -0.5084
39785SOL    HW122632   3.704   1.623   0.975  2.3642  0.1882  0.8811
39785SOL    HW222633   3.736   1.501   0.891 -0.4245 -0.8966  1.2895
39786SOL     OW22634   7.555   0.927   9.140  0.3181 -0.1008 -0.0646
39786SOL    HW122635   7.622   0.918   9.207  0.2183  2.2967  0.4261
39786SOL    HW222636   7.593   0.884   9.063  2.3578  1.0148  0.2490
39787SOL     OW22637   0.237   9.228  10.783  0.0846  0.2439 -0.3359
39787SOL    HW122638   0.204   9.304  10.736  0.4838  0.0475 -0.9488
39787SOL    HW222639   0.248   9.161  10.716  1.7231  0.3005 -0.1709
39788SOL     OW22640   3.058   2.080   9.111  0.0475 -0.2790 -0.3139
39788SOL    HW122641   3.105   2.161   9.132 -0.0477 -0.1076 -0.7442
39788SOL    HW222642   3.017   2.054   9.193 -1.4789  1.1349 -0.5802
39789SOL     OW22643   6.463   0.713   5.302  0.0915 -0.2968  0.1330
39789SOL    HW122644   6.379   0.699   5.259  1.0484 -0.7380 -1.7138
39789SOL    HW222645   6.476   0.635   5.355 -1.8556  0.9675  2.6854
39790SOL     OW22646   9.577   1.156   9.953  0.4140 -0.1111  0.5654
39790SOL    HW122647   9.486   1.185   9.947 -0.0829 -1.6065  0.3236
39790SOL    HW222648   9.575   1.065   9.922  2.0725 -0.0305  0.1090
39791SOL     OW22649   8.208   3.643   7.115 -0.5970  0.2071 -0.3224
39791SOL    HW122650   8.288   3.686   7.145  0.9106 -2.9410  0.5605
39791SOL    HW222651   8.151   3.642   7.191 -0.6656  0.6728 -0.3663
39792SOL     OW22652   7.716   4.386   7.698 -0.3794  0.0415  0.1364
39792SOL    HW122653   7.728   4.399   7.792  0.2650  1.5352 -0.1330
39792SOL    HW222654   7.683   4.469   7.665 -1.2229 -0.6669 -0.8745
39793SOL     OW22655   4.840   9.698   5.399  0.4858  0.3448  0.1484
39793SOL    HW122656   4.752   9.707   5.361  0.4097  3.4495  0.7351
39793SOL    HW222657   4.829   9.722   5.491  1.4806 -2.4464  1.1023
39794SOL     OW22658   3.401   0.220   3.002  0.0017 -0.4336  0.2716
39794SOL    HW122659   3.317   0.265   2.994 -2.3860 -4.5145 -0.4503
39794SOL    HW222660   3.444   0.261   3.077 -2.5163  1.9592  0.5246
39795SOL     OW22661   0.668   6.588   6.774  0.3524  0.0177 -0.4157
39795SOL    HW122662   0.582   6.630   6.784  0.1933 -0.6553  1.4164
39795SOL    HW222663   0.666   6.515   6.835  2.5520  0.4706  0.2799
39796SOL     OW22664   8.744  10.988   7.683 -0.1135  0.4636  1.0580
39796SOL    HW122665   8.707  11.041   7.612 -1.2704  0.2922  1.5191
39796SOL    HW222666   8.819  11.040   7.714  1.5187 -0.2366 -1.3821
39797SOL     OW22667   9.148   9.911  10.243 -0.1571  0.1624 -0.1322
39797SOL    HW122668   9.209   9.874  10.307  0.7711  1.2183 -0.3783
39797SOL    HW222669   9.099   9.977  10.293  2.7329  3.3176 -1.0609
39798SOL     OW22670   8.738   3.485   0.174 -0.2913 -0.4482 -0.4399
39798SOL    HW122671   8.784   3.490   0.090  1.1541 -3.0198  0.0851
39798SOL    HW222672   8.767   3.563   0.222 -0.9188  0.9019 -2.1728
39799SOL     OW22673  10.659   0.856   7.652 -0.5825  0.1459 -0.1048
39799SOL    HW122674  10.581   0.825   7.606  1.4029 -0.7850 -3.1160
39799SOL    HW222675  10.685   0.935   7.605  1.0278 -0.3188 -0.0451
39800SOL     OW22676   6.432   7.336   6.232  0.6218  0.3805  0.6468
39800SOL    HW122677   6.397   7.416   6.272 -0.9983  0.3365 -0.5808
39800SOL    HW222678   6.472   7.365   6.150 -2.1116 -0.2223 -1.0472
39801SOL     OW22679   1.560   1.651   8.504 -0.0302 -0.6918  0.4364
39801SOL    HW122680   1.562   1.636   8.598  0.3844  0.6441  0.6610
39801SOL    HW222681   1.610   1.732   8.491  1.4526 -1.7695 -1.1082
39802SOL     OW22682   2.095   5.127   0.922  0.2437  0.1810 -0.2633
39802SOL    HW122683   2.134   5.188   0.985  1.8258  0.2000 -1.2163
39802SOL    HW222684   2.166   5.068   0.898 -0.8699 -1.1245 -0.5024
39803SOL     OW22685   9.201   1.338   0.066  0.0148  0.4381  0.1880
39803SOL    HW122686   9.252   1.384  -0.002 -0.3064  0.8685  0.2393
39803SOL    HW222687   9.148   1.276   0.017 -1.8648  2.2480 -0.1931
39804SOL     OW22688   8.182   3.943   5.247 -0.0837 -0.6417 -0.7014
39804SOL    HW122689   8.185   3.871   5.311  1.0338  1.5294  1.8551
39804SOL    HW222690   8.274   3.965   5.232 -0.3505 -0.7213 -2.7071
39805SOL     OW22691  10.464   4.462   6.529 -0.0234 -0.2344  0.7685
39805SOL    HW122692  10.444   4.551   6.502  1.5562 -0.3369 -0.8890
39805SOL    HW222693  10.555   4.465   6.559  0.2052 -1.3672  0.2381
39806SOL     OW22694   7.158   4.401   2.788  0.5342 -0.2150  0.2531
39806SOL    HW122695   7.182   4.449   2.709  1.3112  0.2798  0.7721
39806SOL    HW222696   7.225   4.333   2.796  2.0878  1.3794  1.8888
39807SOL     OW22697   4.051   8.937  10.820  0.0176 -0.3400 -0.1235
39807SOL    HW122698   3.987   8.884  10.772 -0.9531  0.3340  0.3925
39807SOL    HW222699   4.003   8.967  10.898  0.3365  1.8031 -0.7031
39808SOL     OW22700   6.415   7.744   3.251  0.0640 -0.7515  0.1620
39808SOL    HW122701   6.441   7.740   3.160  0.8027 -2.7788  0.4045
39808SOL    HW222702   6.418   7.653   3.281 -3.1430 -0.5987  1.3855
39809SOL     OW22703  10.366   4.320  11.162  0.2841  0.6997  0.3535
39809SOL    HW122704  10.322   4.268  11.230 -0.4845  2.1222  0.9826
39809SOL    HW222705  10.362   4.410  11.195  0.4850  1.3256 -1.2827
39810SOL     OW22706   9.903   4.928   3.603  0.2893 -0.2908  0.2396
39810SOL    HW122707   9.994   4.901   3.614  0.8036  0.6588 -1.3401
39810SOL    HW222708   9.866   4.926   3.691  1.6698 -1.2324  0.8351
39811SOL     OW22709   6.953   4.633  10.768 -0.6627 -0.5641 -0.5456
39811SOL    HW122710   6.880   4.686  10.799  0.2286  0.1479  0.3919
39811SOL    HW222711   6.927   4.605  10.680 -1.8070  0.1610 -0.4499
39812SOL     OW22712   3.478   8.950   2.117 -0.5076 -0.3781  0.1617
39812SOL    HW122713   3.552   8.908   2.161  0.6602  0.0889 -1.2506
39812SOL    HW222714   3.441   9.008   2.184  1.5821  0.7706  0.4388
39813SOL     OW22715  10.464   9.653   2.984 -0.1074  0.6501 -0.1355
39813SOL    HW122716  10.543   9.607   2.958 -0.6316  0.1839 -0.9660
39813SOL    HW222717  10.410   9.586   3.025  0.2441  1.1370  1.1702
39814SOL     OW22718   6.895   0.558   8.947 -0.1731 -0.0142 -0.1890
39814SOL    HW122719   6.988   0.537   8.940 -0.4245 -1.1160 -0.5804
39814SOL    HW222720   6.886   0.605   9.030  0.4405 -1.7785  0.9474
39815SOL     OW22721   9.474   4.727   6.434 -0.5567 -0.3716 -0.9798
39815SOL    HW122722   9.391   4.762   6.404  0.0094  1.9938 -0.0142
39815SOL    HW222723   9.539   4.763   6.373 -0.0288 -0.4314 -0.4631
39816SOL     OW22724   5.465   2.902   6.467 -0.1791 -0.1860  0.0211
39816SOL    HW122725   5.519   2.879   6.391  1.1242 -0.7053  1.0483
39816SOL    HW222726   5.527   2.901   6.541 -1.3417  0.5835  1.0455
39817SOL     OW22727   5.897   9.691  11.024 -0.4512  0.2025 -0.2415
39817SOL    HW122728   5.822   9.662  10.974  0.9652 -0.5599 -2.0412
39817SOL    HW222729   5.901   9.785  11.011 -1.8533  0.4719  1.0291
39818SOL     OW22730   3.746   4.363   1.970  0.0748 -0.2275 -0.6838
39818SOL    HW122731   3.711   4.453   1.972 -2.2044 -1.0613  0.1590
39818SOL    HW222732   3.777   4.347   2.059  1.1218 -0.0760 -1.0063
39819SOL     OW22733   3.647   2.717   1.637  0.0338 -0.5941 -0.5842
39819SOL    HW122734   3.644   2.733   1.543 -0.8467  1.0709 -0.3078
39819SOL    HW222735   3.693   2.793   1.673 -2.6794  0.6065  0.6405
39820SOL     OW22736   0.681   2.339   7.209 -0.4553  0.1702 -0.1016
39820SOL    HW122737   0.764   2.318   7.167  0.0417  1.7258  0.0254
39820SOL    HW222738   0.658   2.261   7.260  1.3678  0.0185  0.5465
39821SOL     OW22739   4.800   6.046   1.981 -0.6993  0.6021 -0.0975
39821SOL    HW122740   4.864   5.980   1.955  0.5419  1.8767 -0.3564
39821SOL    HW222741   4.760   6.074   1.899 -0.7154  0.6864 -0.0609
39822SOL     OW22742  11.055  11.148   9.085  0.3113  0.1349  0.3813
39822SOL    HW122743  11.096  11.190   9.161 -1.8698  1.8847  0.6975
39822SOL    HW222744  10.965  11.132   9.112 -0.4589  0.5811 -1.7177
39823SOL     OW22745   7.645   6.117  10.718 -0.0906 -0.0314  0.9348
39823SOL    HW122746   7.569   6.131  10.661  0.0030 -1.2013  0.4751
39823SOL    HW222747   7.639   6.024  10.742  1.1412 -0.1136  0.9639
39824SOL     OW22748   8.462   6.984   6.947  1.1403 -0.1010 -0.4844
39824SOL    HW122749   8.485   7.052   6.883  1.5993  1.4057  1.1755
39824SOL    HW222750   8.546   6.950   6.977  0.9888  0.1988  0.2990
39825SOL     OW22751   2.024   4.000  10.875  0.2106  0.4678 -0.4783
39825SOL    HW122752   2.001   4.091  10.855  1.0711  1.0179  0.9339
39825SOL    HW222753   2.030   3.998  10.970 -1.1634 -1.4188 -0.3778
39826SOL     OW22754   4.925   2.741   6.210  0.0812 -0.0231 -0.2223
39826SOL    HW122755   4.925   2.671   6.144 -0.3187 -0.4571  0.2267
39826SOL    HW222756   5.005   2.727   6.259  0.2908  0.1908 -0.5030
39827SOL     OW22757   4.511   0.088  11.000 -0.6311 -0.2510 -0.3184
39827SOL    HW122758   4.461   0.008  10.979 -0.0096 -0.6516 -0.2776
39827SOL    HW222759   4.601   0.058  11.010 -0.4330  0.4254 -0.0644
39828SOL     OW22760  11.366   2.806  10.578 -0.0228  0.2360  0.5995
39828SOL    HW122761  11.406   2.764  10.654  0.3527 -0.8280 -0.1657
39828SOL    HW222762  11.418   2.775  10.503 -0.4092  1.2215 -0.1076
39829SOL     OW22763  10.592   0.077   4.772 -0.6355  0.2290  0.6932
39829SOL    HW122764  10.600   0.003   4.832  1.8901  0.7045  1.0546
39829SOL    HW222765  10.626   0.152   4.822  0.7630  0.7958 -1.0247
39830SOL     OW22766   2.109   4.331   2.657  0.0826  0.3979  0.0779
39830SOL    HW122767   2.102   4.261   2.722 -1.8162 -0.6186 -1.1154
39830SOL    HW222768   2.203   4.346   2.647  0.5696 -2.0721  0.3178
39831SOL     OW22769   8.259   4.616   7.029  0.1075 -0.2657  0.2284
39831SOL    HW122770   8.170   4.648   7.034 -0.3893 -1.6966  1.2838
39831SOL    HW222771   8.308   4.686   6.986 -1.4972  0.5573 -0.3298
39832SOL     OW22772   4.875   0.897   9.857  0.0392  0.4864 -0.0677
39832SOL    HW122773   4.956   0.847   9.866 -0.2424 -0.1082 -0.7256
39832SOL    HW222774   4.810   0.848   9.907 -0.6338 -0.7615 -2.0689
39833SOL     OW22775   5.991   9.684   3.207  0.0952  0.5470  0.3024
39833SOL    HW122776   6.060   9.677   3.273 -0.2913 -1.2655  0.5727
39833SOL    HW222777   5.911   9.659   3.253 -0.6369  1.8110 -0.2219
39834SOL     OW22778   3.276   2.078   1.940  0.1010 -0.1893 -0.0652
39834SOL    HW122779   3.259   2.075   2.035  0.5684  0.4526  0.0412
39834SOL    HW222780   3.364   2.042   1.931 -0.3647 -1.2975 -0.3811
39835SOL     OW22781   4.133  10.202   9.038  0.6683 -0.6931 -0.0875
39835SOL    HW122782   4.076  10.162   8.972 -1.0024  0.6760  0.4532
39835SOL    HW222783   4.177  10.274   8.992 -1.7366  1.3291  0.5564
39836SOL     OW22784   4.089  10.085   2.017  0.1602 -0.6384  0.1824
39836SOL    HW122785   4.128  10.104   2.102 -0.9619  0.4204  0.4863
39836SOL    HW222786   4.054  10.170   1.987  0.1593 -1.0796 -1.1327
39837SOL     OW22787   9.377   6.386   2.480  0.1119  0.3013 -0.2944
39837SOL    HW122788   9.282   6.378   2.469  0.1545 -1.1742  0.2142
39837SOL    HW222789   9.395   6.478   2.462 -1.6742  1.0963  1.5589
39838SOL     OW22790   9.483  10.021  10.417 -0.5994 -0.0273  0.4071
39838SOL    HW122791   9.444   9.933  10.420 -1.6772  0.3878 -0.7107
39838SOL    HW222792   9.552  10.014  10.351 -0.4533 -0.0962  0.5612
39839SOL     OW22793   9.802   0.272   4.118  0.3594 -0.2090 -0.1530
39839SOL    HW122794   9.851   0.196   4.148  1.3141  0.4107 -0.0626
39839SOL    HW222795   9.806   0.333   4.192 -0.3618 -0.0568 -0.2348
39840SOL     OW22796   2.839   9.873   0.681 -0.3197 -0.2772 -0.4868
39840SOL    HW122797   2.828   9.866   0.586  0.6588 -2.3157 -0.5049
39840SOL    HW222798   2.756   9.910   0.712 -0.9598 -0.3143 -2.0513
39841SOL     OW22799   8.465   1.583   6.918  0.3630 -0.2273 -0.1292
39841SOL    HW122800   8.401   1.577   6.846  0.7878 -1.3746 -0.4252
39841SOL    HW222801   8.550   1.575   6.875  0.6649  0.0414  0.4063
39842SOL     OW22802   3.914  10.908  10.439  0.1469  0.1726  0.1351
39842SOL    HW122803   3.889  10.976  10.502 -0.7310 -0.0176  0.0118
39842SOL    HW222804   3.953  10.955  10.366 -1.5487  0.6963 -0.4948
39843SOL     OW22805   4.156   2.088   3.129  0.3890  0.2163  0.4299
39843SOL    HW122806   4.138   2.116   3.039  1.8217 -0.4383 -0.1009
39843SOL    HW222807   4.236   2.135   3.153  1.1246 -1.0671  0.6248
39844SOL     OW22808   4.146   1.717   2.001  0.5621  0.5459  0.3532
39844SOL    HW122809   4.092   1.689   1.927 -1.2228 -0.0893  1.8021
39844SOL    HW222810   4.187   1.798   1.971 -0.4002  0.5149 -1.1889
39845SOL     OW22811   4.436   8.443   8.323 -0.4786 -0.5052 -0.6597
39845SOL    HW122812   4.412   8.354   8.296  1.1303 -0.8265 -1.0937
39845SOL    HW222813   4.508   8.467   8.266 -1.2566  1.3297 -0.9332
39846SOL     OW22814   6.892   2.184   7.895 -0.3701 -0.0883 -0.1259
39846SOL    HW122815   6.906   2.146   7.981  1.3555 -1.3121 -0.8872
39846SOL    HW222816   6.945   2.130   7.836 -1.0713  1.0403 -1.8754
39847SOL     OW22817   3.375   3.517   9.797  0.5271  0.1974 -0.0356
39847SOL    HW122818   3.396   3.492   9.887  1.3823 -0.9951 -0.5543
39847SOL    HW222819   3.399   3.609   9.792 -1.5857  0.9240  1.5737
39848SOL     OW22820   6.096   1.878   4.290 -0.4439 -0.2960  0.2661
39848SOL    HW122821   6.029   1.945   4.277 -0.5496 -0.2570  0.9966
39848SOL    HW222822   6.112   1.877   4.384 -0.4884 -1.3418  0.2733
39849SOL     OW22823   0.674   1.136   8.647  0.1650  0.4283  0.1875
39849SOL    HW122824   0.766   1.113   8.640 -0.1205 -0.7617  0.1627
39849SOL    HW222825   0.627   1.053   8.636 -0.9035  0.9995  0.2788
39850SOL     OW22826   8.925  11.234   9.952  0.1887 -0.4103 -0.4061
39850SOL    HW122827   8.861  11.215   9.884  0.7736 -0.9727 -0.8031
39850SOL    HW222828   8.898  11.181  10.027 -1.3460  1.3354  0.3648
39851SOL     OW22829   6.655   8.450   8.801  0.5329 -0.1006  0.4812
39851SOL    HW122830   6.726   8.488   8.852  1.7912 -1.8760  0.1583
39851SOL    HW222831   6.615   8.386   8.860 -1.3307  1.3817  0.9098
39852SOL     OW22832   6.454  11.130   4.816  0.0276  0.0492  0.1246
39852SOL    HW122833   6.470  11.180   4.896  1.8498  0.3194 -0.3648
39852SOL    HW222834   6.423  11.195   4.753 -0.0259  0.0964  0.1991
39853SOL     OW22835   9.691   8.664  10.430  0.1569  0.1143 -0.2077
39853SOL    HW122836   9.671   8.595  10.493  3.2724 -0.6729  0.0681
39853SOL    HW222837   9.708   8.742  10.484 -0.4088  0.3388 -0.3380
39854SOL     OW22838   6.418   9.997   9.225  0.1212 -0.5830 -0.1231
39854SOL    HW122839   6.436  10.081   9.184  3.1937 -1.1240 -0.1640
39854SOL    HW222840   6.380   9.943   9.156  1.1752 -0.1564 -1.0723
39855SOL     OW22841   2.255   5.144   6.445 -0.3800 -0.2842  0.1751
39855SOL    HW122842   2.265   5.052   6.424 -1.0326 -0.4450  0.5427
39855SOL    HW222843   2.236   5.146   6.539  0.3715  0.2756  0.3222
39856SOL     OW22844  10.700   7.433   2.408  0.1273  0.1816 -0.3074
39856SOL    HW122845  10.713   7.505   2.470  0.1362 -0.4685  0.4639
39856SOL    HW222846  10.655   7.366   2.458 -2.2963  0.6267 -1.7128
39857SOL     OW22847   7.314  10.681   2.328  0.1912  0.5622 -0.5626
39857SOL    HW122848   7.400  10.721   2.315  1.3041 -1.6308 -0.4084
39857SOL    HW222849   7.332  10.588   2.342 -2.1136  0.2336  0.8621
39858SOL     OW22850  10.672   8.302  10.519  0.0816 -0.2430 -0.4441
39858SOL    HW122851  10.620   8.273  10.443  1.5487 -0.4524 -1.4144
39858SOL    HW222852  10.607   8.319  10.587 -1.5288  2.0355 -2.3634
39859SOL     OW22853   2.917   7.250   1.210  0.4535 -0.2264  0.3198
39859SOL    HW122854   2.867   7.178   1.248  0.7096 -0.1538  0.7886
39859SOL    HW222855   2.929   7.312   1.281 -0.0309  0.4317 -0.1535
39860SOL     OW22856   6.929   2.496   1.070  0.0102 -0.6275 -0.3807
39860SOL    HW122857   6.975   2.573   1.105 -0.7887 -0.4272  0.2394
39860SOL    HW222858   6.960   2.490   0.980  2.0242 -1.0863  0.2748
39861SOL     OW22859   1.559  10.558   1.007 -1.0289  0.2596  0.1193
39861SOL    HW122860   1.564  10.634   1.065  2.7331  0.2283  0.1086
39861SOL    HW222861   1.550  10.597   0.919 -0.6211  0.6555  0.2444
39862SOL     OW22862   2.003   9.919  11.360 -0.5822  0.3649  0.1868
39862SOL    HW122863   2.046   9.859  11.299  1.2363  1.2187  0.5721
39862SOL    HW222864   2.021   9.882  11.446 -3.1088 -0.8170  0.2906
39863SOL     OW22865   3.218   3.617   3.185  0.1506  0.5921  0.4968
39863SOL    HW122866   3.232   3.526   3.212 -0.7055  0.8434  1.9159
39863SOL    HW222867   3.303   3.647   3.155  0.1917 -1.0338 -1.2045
39864SOL     OW22868   1.385  10.601  10.031  0.3618  0.3683 -0.8517
39864SOL    HW122869   1.468  10.584  10.076 -1.1986 -3.0318  1.1625
39864SOL    HW222870   1.364  10.517   9.989 -1.1946  1.7208 -2.9481
39865SOL     OW22871   0.857   9.231   1.397  0.1411  0.2784 -0.2352
39865SOL    HW122872   0.852   9.271   1.311  2.9821  0.7853 -0.2538
39865SOL    HW222873   0.902   9.296   1.451  3.5931 -2.1121  0.1107
39866SOL     OW22874   0.484   9.353   0.028 -0.3167  0.7418  0.0833
39866SOL    HW122875   0.498   9.327  -0.063 -0.6998  0.9257 -0.0300
39866SOL    HW222876   0.571   9.349   0.068 -0.2311  0.1471 -0.1538
39867SOL     OW22877   0.779   4.898   7.282 -0.0482  0.5413  0.4768
39867SOL    HW122878   0.830   4.818   7.292 -1.3269 -0.2658  0.7240
39867SOL    HW222879   0.758   4.924   7.372 -0.1866  0.7899  0.3730
39868SOL     OW22880   5.475   7.973   4.268 -0.0358 -0.2814 -0.5081
39868SOL    HW122881   5.558   7.955   4.312  0.0442  1.6095  0.2058
39868SOL    HW222882   5.499   8.024   4.190 -0.3735 -1.6209 -1.5217
39869SOL     OW22883   3.767   4.134   1.074 -0.7605  0.1957  0.0675
39869SOL    HW122884   3.751   4.040   1.078 -1.2345  0.2668 -0.1960
39869SOL    HW222885   3.690   4.174   1.114 -1.8071  0.5804 -2.2230
39870SOL     OW22886   7.253  10.368  10.937 -0.2104  0.2459  0.8410
39870SOL    HW122887   7.183  10.350  10.999  0.1300 -0.1126  1.1212
39870SOL    HW222888   7.333  10.367  10.989 -0.0938  1.7724  0.7261
39871SOL     OW22889   1.122   2.864   6.794  0.4429  0.2204  0.0351
39871SOL    HW122890   1.030   2.882   6.811 -0.1105 -0.4647 -1.9185
39871SOL    HW222891   1.138   2.779   6.835  0.1175  0.1971  0.1182
39872SOL     OW22892   8.236   5.705   1.462 -0.4610 -0.2293  0.9478
39872SOL    HW122893   8.256   5.783   1.411 -1.7142 -0.9701 -0.7606
39872SOL    HW222894   8.316   5.688   1.513  1.0897  0.2228 -1.2196
39873SOL     OW22895   3.332  10.946   7.629  0.1889 -0.5995 -0.1585
39873SOL    HW122896   3.322  10.867   7.683  0.6944 -1.3487 -1.1147
39873SOL    HW222897   3.280  10.928   7.551  0.0739  0.1489 -0.2586
39874SOL     OW22898   8.793   3.862   0.762 -0.6864  0.0759  0.4281
39874SOL    HW122899   8.783   3.891   0.852  0.9475 -1.7567  1.2803
39874SOL    HW222900   8.776   3.768   0.764  2.5173 -0.6576 -0.4456
39875SOL     OW22901   4.129   1.251   7.937  0.3887  0.3329 -0.0474
39875SOL    HW122902   4.105   1.184   7.873 -1.3346  1.9980 -1.2529
39875SOL    HW222903   4.224   1.260   7.928  0.2903 -0.0526 -1.8154
39876SOL     OW22904   5.486   9.788   2.529  0.3101  0.6909 -0.6910
39876SOL    HW122905   5.577   9.817   2.530  1.1662 -1.7743 -0.5918
39876SOL    HW222906   5.463   9.785   2.436  1.2519 -1.1739 -0.9056
39877SOL     OW22907   3.064   2.767   3.470 -0.3125  0.1273  0.2467
39877SOL    HW122908   3.060   2.819   3.550  0.1947 -1.2510  1.2074
39877SOL    HW222909   2.972   2.746   3.451 -0.4183  0.2657  0.5956
39878SOL     OW22910  10.339   9.445   3.150  0.2360 -0.5920  0.0062
39878SOL    HW122911  10.328   9.364   3.100 -1.8189 -0.6211  0.4128
39878SOL    HW222912  10.332   9.417   3.242 -0.1412  0.0044  0.1618
39879SOL     OW22913   1.768   9.372   3.751 -0.0737  0.1311  0.1975
39879SOL    HW122914   1.681   9.332   3.759 -0.0960  0.1583  0.0862
39879SOL    HW222915   1.827   9.309   3.792  0.1373 -0.8442 -1.4913
39880SOL     OW22916   6.881   9.916   3.701 -0.7431 -0.5879 -0.3106
39880SOL    HW122917   6.813   9.938   3.764 -0.8164  0.3306 -0.7009
39880SOL    HW222918   6.883   9.990   3.640 -0.4448 -1.2998 -1.1912
39881SOL     OW22919   0.123   6.475  10.188 -0.2670 -0.3467 -0.5951
39881SOL    HW122920   0.174   6.515  10.259  0.4183 -0.4390 -1.0242
39881SOL    HW222921   0.043   6.527  10.184 -0.5506 -0.6751  0.5923
39882SOL     OW22922  11.052   5.696   5.998  0.3037  0.0226 -0.1824
39882SOL    HW122923  11.018   5.748   5.926 -1.8409 -0.7103  0.2303
39882SOL    HW222924  11.142   5.675   5.972 -0.9294 -1.8370 -3.6546
39883SOL     OW22925  10.328   5.472   1.034 -0.0810 -0.3660 -0.3751
39883SOL    HW122926  10.284   5.556   1.023 -0.4344 -0.6647 -1.4208
39883SOL    HW222927  10.266   5.419   1.085  0.7663  0.4459  1.5841
39884SOL     OW22928  10.551   2.441   6.662 -0.5128 -0.2827 -0.0400
39884SOL    HW122929  10.577   2.453   6.570 -1.3834  2.0494 -0.0567
39884SOL    HW222930  10.630   2.462   6.712 -0.6093  0.5356 -0.2213
39885SOL     OW22931   5.128   6.245   0.460  0.6230 -0.1102 -0.0616
39885SOL    HW122932   5.079   6.325   0.441  0.7761  0.3030  1.1975
39885SOL    HW222933   5.217   6.276   0.480  1.4108 -0.8367 -2.1959
39886SOL     OW22934   8.891   1.883   9.908  0.5576 -0.1781  0.6689
39886SOL    HW122935   8.816   1.862   9.963 -0.4374  3.8551  1.1479
39886SOL    HW222936   8.854   1.922   9.829  2.1290 -1.5802 -0.8714
39887SOL     OW22937   8.941   0.290   6.074 -0.2594 -0.2052 -0.1384
39887SOL    HW122938   9.004   0.233   6.031  1.0932  0.6098  0.6658
39887SOL    HW222939   8.915   0.243   6.153  0.7639  0.1987  0.4625
39888SOL     OW22940   4.348   5.323   2.893 -0.4571 -0.0731 -0.3355
39888SOL    HW122941   4.430   5.278   2.915 -0.2340 -0.2376 -1.4176
39888SOL    HW222942   4.283   5.285   2.951  0.0158 -0.7558 -0.2460
39889SOL     OW22943   7.809  10.808   3.998  0.8930  0.1820 -0.0236
39889SOL    HW122944   7.781  10.888   3.954 -0.1744 -0.1598  0.0011
39889SOL    HW222945   7.784  10.738   3.937  0.3303 -0.2258  0.6535
39890SOL     OW22946   3.283  10.297   7.074 -0.0007 -0.1115 -0.1852
39890SOL    HW122947   3.252  10.348   6.999 -0.3489  0.0102  0.0379
39890SOL    HW222948   3.356  10.247   7.040 -0.1989 -0.1096 -0.6247
39891SOL     OW22949   4.335   6.074   0.755 -0.1981  0.0123  0.4681
39891SOL    HW122950   4.268   6.084   0.687  1.2498 -2.2855 -1.4336
39891SOL    HW222951   4.296   6.014   0.818  0.6018 -2.9094 -1.6235
39892SOL     OW22952  10.380   4.170   5.772  0.2520  0.0697  0.0659
39892SOL    HW122953  10.444   4.233   5.807  0.8763 -0.7638  0.4733
39892SOL    HW222954  10.385   4.181   5.677  1.2853 -0.2206  0.0705
39893SOL     OW22955   6.100   0.991   1.064  0.1720  0.1601  0.1657
39893SOL    HW122956   6.062   0.937   0.994  0.9370 -1.5671  1.0310
39893SOL    HW222957   6.036   0.987   1.135  0.7134 -0.4996  0.6224
39894SOL     OW22958   2.938   2.231   9.484 -0.4746  0.0924  0.0691
39894SOL    HW122959   2.897   2.280   9.555  0.7123  1.1573  0.0497
39894SOL    HW222960   2.864   2.194   9.435 -1.3286 -0.2288  1.5245
39895SOL     OW22961   6.916   4.987   0.324  0.4453 -0.2048  0.0692
39895SOL    HW122962   6.855   5.060   0.334 -1.7344 -1.6582 -1.5360
39895SOL    HW222963   6.990   5.023   0.277 -0.1977  1.1436  0.0441
39896SOL     OW22964   8.346   9.861   8.580  0.4823  0.5648 -0.0694
39896SOL    HW122965   8.407   9.887   8.649 -0.1108  0.5893  0.4583
39896SOL    HW222966   8.281   9.806   8.624  0.3892  0.1439 -0.7135
39897SOL     OW22967   1.878   6.556   5.483  0.5914 -0.5557 -0.2884
39897SOL    HW122968   1.857   6.629   5.424 -0.9286  1.5574  2.6414
39897SOL    HW222969   1.800   6.501   5.481  0.4579 -0.3747 -0.1147
39898SOL     OW22970   6.052   3.990   4.911  0.5145  0.8310 -0.4105
39898SOL    HW122971   6.017   4.072   4.876 -1.0017  0.1275 -0.6180
39898SOL    HW222972   6.122   3.965   4.850  1.0180  1.9741 -0.3158
39899SOL     OW22973   8.669   7.500   7.445  0.0574 -0.3097  0.8702
39899SOL    HW122974   8.645   7.431   7.382  0.5144 -0.4174  0.8111
39899SOL    HW222975   8.744   7.543   7.406 -0.0609  0.0547  1.0368
39900SOL     OW22976   3.475   6.189   2.351 -0.1591 -0.4852  0.3978
39900SOL    HW122977   3.515   6.108   2.320  0.0587  0.2502 -1.4124
39900SOL    HW222978   3.415   6.162   2.420  1.8505 -1.8597  1.7120
39901SOL     OW22979   4.199   2.132   6.523  0.9302 -0.4209  0.1051
39901SOL    HW122980   4.262   2.160   6.457  0.9071 -0.0231  0.2486
39901SOL    HW222981   4.193   2.037   6.512  1.0361 -0.3748 -0.3634
39902SOL     OW22982   0.002   6.459   8.642  0.1848  0.2993 -0.0367
39902SOL    HW122983   0.082   6.508   8.627 -0.2953  1.0776 -0.0758
39902SOL    HW222984   0.015   6.419   8.729  0.7053  0.2288 -0.1453
39903SOL     OW22985  10.035   9.014  10.987 -0.6403  0.6814  0.1152
39903SOL    HW122986  10.007   9.098  11.024  1.3865  1.2449  0.4669
39903SOL    HW222987  10.033   8.954  11.061  1.4539  1.3327  0.7659
39904SOL     OW22988   1.004   9.991   5.119 -0.2981  0.3998  0.2179
39904SOL    HW122989   1.024  10.084   5.123  0.2494  0.2848  0.1313
39904SOL    HW222990   1.066   9.955   5.056  0.2915 -0.2318  1.1266
39905SOL     OW22991  10.412   6.854   9.144  0.4436  0.0579 -0.1568
39905SOL    HW122992  10.445   6.921   9.204  0.5507 -0.5654  0.5005
39905SOL    HW222993  10.356   6.799   9.199  0.9299 -0.8108 -0.5166
39906SOL     OW22994   7.750   4.310  10.953  0.4231 -0.0561 -0.0433
39906SOL    HW122995   7.713   4.230  10.989  1.7934 -1.4009 -1.4707
39906SOL    HW222996   7.845   4.301  10.966  0.6147  1.2576 -0.3850
39907SOL     OW22997   8.348   6.497   9.862  0.0358  0.0280 -0.1444
39907SOL    HW122998   8.318   6.571   9.808  0.5961  0.5319  0.2187
39907SOL    HW222999   8.443   6.507   9.866 -0.0804  0.8299  2.0741
39908SOL     OW23000   5.656   2.141   2.941  0.1997 -0.1668  0.0702
39908SOL    HW123001   5.658   2.164   2.848  0.1301  1.8210  0.5107
39908SOL    HW223002   5.563   2.141   2.964  0.1367 -1.7319 -0.0636
39909SOL     OW23003  10.509   7.191   0.169 -0.2222 -0.3279 -0.5896
39909SOL    HW123004  10.549   7.278   0.167  0.9927 -0.8360  0.2619
39909SOL    HW223005  10.551   7.147   0.243 -3.7513 -0.2683  1.7299
39910SOL     OW23006  10.729   6.134   5.192 -0.3045  0.6911  0.0030
39910SOL    HW123007  10.734   6.042   5.164 -1.5776  0.8103 -0.6936
39910SOL    HW223008  10.745   6.130   5.286 -2.0887 -0.4885  0.3072
39911SOL     OW23009   5.438   4.567   2.381  0.2791 -0.1895 -0.2516
39911SOL    HW123010   5.518   4.619   2.371 -0.4187  1.0379  0.4073
39911SOL    HW223011   5.380   4.600   2.313  0.7641 -2.0157 -1.6400
39912SOL     OW23012   8.885   2.742   8.317 -0.3894 -0.2200 -0.2117
39912SOL    HW123013   8.864   2.833   8.296  3.0761  0.6241 -0.5712
39912SOL    HW223014   8.836   2.691   8.253 -1.5155  1.4357 -0.7405
39913SOL     OW23015   9.686   5.372   7.045  0.0543  0.2619  0.2932
39913SOL    HW123016   9.642   5.392   7.128 -0.5530  1.8910 -0.3687
39913SOL    HW223017   9.639   5.296   7.010 -0.3061  0.1578  0.9945
39914SOL     OW23018   0.571   0.036   5.028 -0.0281 -0.2503  0.6928
39914SOL    HW123019   0.561  -0.056   5.053  0.6219 -0.0871  1.6162
39914SOL    HW223020   0.613   0.077   5.104  0.4580  0.6379 -0.0301
39915SOL     OW23021   3.579   2.132   9.930  0.0288  0.1589  0.1500
39915SOL    HW123022   3.577   2.213   9.879 -1.3730  0.1148  0.1029
39915SOL    HW223023   3.488   2.113   9.948  0.4606  0.9183  3.8749
39916SOL     OW23024   3.243   4.115   1.764 -0.5085  0.0805 -0.4842
39916SOL    HW123025   3.172   4.132   1.826  0.4769  0.6056  0.5331
39916SOL    HW223026   3.300   4.191   1.771  1.0470 -1.0623 -0.0075
39917SOL     OW23027   4.761   2.042  10.690 -0.9353  0.2647 -0.2109
39917SOL    HW123028   4.831   2.076  10.634  0.1574 -3.3653 -1.3695
39917SOL    HW223029   4.802   2.030  10.775 -1.0487  0.8526 -0.0669
39918SOL     OW23030   2.900   5.728   0.896  1.3259 -0.0734  0.1402
39918SOL    HW123031   2.879   5.809   0.941 -0.9109 -0.1400 -0.6586
39918SOL    HW223032   2.862   5.659   0.950  1.5554 -0.4212 -0.1360
39919SOL     OW23033   6.200   5.565   4.351  0.4923 -0.1670 -0.8354
39919SOL    HW123034   6.284   5.605   4.371 -0.1719  1.0473 -0.3864
39919SOL    HW223035   6.205   5.477   4.389  0.5381  0.8660  1.7048
39920SOL     OW23036   3.415   1.977   4.560 -0.1677  0.5017 -0.0268
39920SOL    HW123037   3.339   2.034   4.574  0.0948  0.3758  2.2306
39920SOL    HW223038   3.380   1.903   4.511 -1.3753  0.7671  0.3844
39921SOL     OW23039   9.875   5.889   7.422 -0.2232  0.0736  0.4019
39921SOL    HW123040   9.894   5.958   7.358 -1.4793  0.5651  0.5161
39921SOL    HW223041   9.896   5.807   7.377 -1.3893  0.3927 -0.7877
39922SOL     OW23042   6.090   0.573   0.934  0.3928 -0.1507  0.1514
39922SOL    HW123043   6.017   0.511   0.940  0.1721  0.2610  2.5572
39922SOL    HW223044   6.057   0.641   0.875  0.2136 -1.6606 -1.6206
39923SOL     OW23045   1.773   5.881   9.433  0.2450 -0.7227  0.0722
39923SOL    HW123046   1.743   5.880   9.342  0.4945  1.5669 -0.0868
39923SOL    HW223047   1.787   5.974   9.453  4.1022 -1.3716  1.1696
39924SOL     OW23048   1.341   2.206   9.323 -0.1911  0.0459  0.5758
39924SOL    HW123049   1.250   2.235   9.319  0.0646  0.9896  1.2266
39924SOL    HW223050   1.365   2.188   9.232 -0.8093  0.5194  0.3136
39925SOL     OW23051   4.180  10.629   9.914  0.0486 -0.0570 -0.1042
39925SOL    HW123052   4.177  10.589   9.827 -0.0705  1.4418 -0.8254
39925SOL    HW223053   4.216  10.716   9.899 -0.8213  0.5691  1.2173
39926SOL     OW23054   6.757   1.387   1.373  1.1133 -0.2569 -0.3175
39926SOL    HW123055   6.833   1.365   1.319  1.4174  0.5842 -0.2501
39926SOL    HW223056   6.709   1.305   1.381  1.2681 -0.4905 -1.5409
39927SOL     OW23057  11.302   7.349   6.559 -0.6650  0.3175 -0.3569
39927SOL    HW123058  11.367   7.420   6.559  0.4004 -0.6348  0.8278
39927SOL    HW223059  11.336   7.286   6.495  1.4137 -1.7237  2.5103
39928SOL     OW23060   5.578   9.890   1.471  0.3876 -0.5602  0.3951
39928SOL    HW123061   5.556   9.851   1.556 -1.6581  2.2499  1.2868
39928SOL    HW223062   5.499   9.877   1.418  0.5841  0.1901 -0.0945
39929SOL     OW23063  10.242   0.491   9.192  0.4496 -0.5544  0.1002
39929SOL    HW123064  10.218   0.559   9.129  2.1292 -3.0875 -3.6531
39929SOL    HW223065  10.158   0.449   9.214 -0.4331  1.7772  1.4286
39930SOL     OW23066   6.619  11.221   9.910  0.3688  0.1090  0.5539
39930SOL    HW123067   6.703  11.187   9.879 -0.5329 -1.4091 -0.4063
39930SOL    HW223068   6.607  11.303   9.863  1.0392  0.0240  0.2296
39931SOL     OW23069   0.191   7.547   6.038  0.0524 -0.3232 -0.5746
39931SOL    HW123070   0.223   7.471   5.991 -2.5243 -1.1371 -1.1895
39931SOL    HW223071   0.249   7.618   6.011  1.9099 -1.8247 -0.7567
39932SOL     OW23072   3.996   4.817   8.742 -0.1805  0.1364  0.1491
39932SOL    HW123073   3.996   4.754   8.670 -2.4901  0.5205 -0.2651
39932SOL    HW223074   3.972   4.900   8.701  3.2430  1.5062  0.6027
39933SOL     OW23075   3.110   8.252   0.972 -0.1587  0.2736  0.0477
39933SOL    HW123076   3.092   8.220   1.061  0.4820 -1.7965 -0.5048
39933SOL    HW223077   3.077   8.183   0.915 -2.3645  2.4168 -1.4829
39934SOL     OW23078   4.064  10.085   3.696 -0.0980  0.3784  0.2847
39934SOL    HW123079   4.141  10.043   3.657  0.3295  0.4396  1.0379
39934SOL    HW223080   4.079  10.178   3.682  0.4912  0.4596  1.3344
39935SOL     OW23081   6.986   7.274   0.389  0.1170 -0.1961  0.0010
39935SOL    HW123082   7.049   7.310   0.327  1.3051 -1.0093  0.6975
39935SOL    HW223083   6.923   7.344   0.402 -0.3988 -0.1256 -2.3872
39936SOL     OW23084  11.192   8.267   6.227  0.3340 -0.6364  0.3173
39936SOL    HW123085  11.176   8.361   6.222 -0.0540 -0.7449 -0.7074
39936SOL    HW223086  11.279   8.259   6.265  0.5135  0.1420  0.0786
39937SOL     OW23087   2.780   2.635   6.463 -0.3390 -0.0594 -0.3023
39937SOL    HW123088   2.698   2.585   6.467 -0.8179  0.7496  0.7545
39937SOL    HW223089   2.797   2.647   6.370 -1.2331 -0.5650 -0.5434
39938SOL     OW23090   3.449   5.993   7.339 -0.6992 -0.1533 -0.2518
39938SOL    HW123091   3.440   6.088   7.331 -1.0848 -0.3144 -2.1967
39938SOL    HW223092   3.432   5.960   7.251 -1.6001 -2.1137  0.6089
39939SOL     OW23093  11.139   7.397  10.162 -0.1763 -0.2154  0.6499
39939SOL    HW123094  11.066   7.335  10.156  0.1865 -0.5639 -0.5245
39939SOL    HW223095  11.176   7.399  10.074  0.7945  0.4939  1.0498
39940SOL     OW23096   8.721   3.215   3.178 -0.1152 -0.0393 -0.1481
39940SOL    HW123097   8.791   3.279   3.162 -2.2826  2.1647 -1.4257
39940SOL    HW223098   8.683   3.240   3.262 -0.8802  0.2919 -0.5815
39941SOL     OW23099   2.859   6.895   4.770  0.1531 -0.3605  0.0542
39941SOL    HW123100   2.954   6.908   4.770  0.1533 -0.1554  1.9605
39941SOL    HW223101   2.824   6.971   4.816 -0.8659 -0.9297  0.2438
39942SOL     OW23102   2.815   0.933   6.031 -0.3624 -0.2429  0.1610
39942SOL    HW123103   2.750   0.929   5.961 -2.2991  0.6256  1.8353
39942SOL    HW223104   2.834   1.026   6.041  1.8052 -0.5186 -0.8175
39943SOL     OW23105   1.267   7.411   9.481 -0.5350  0.0628 -0.1595
39943SOL    HW123106   1.362   7.405   9.498 -0.5893 -0.9563 -0.1520
39943SOL    HW223107   1.246   7.502   9.500  0.5504  0.4495 -0.7058
39944SOL     OW23108   7.436  10.777   0.996 -0.3204 -0.5389 -0.3233
39944SOL    HW123109   7.381  10.717   0.947 -0.2385 -0.2495 -0.7760
39944SOL    HW223110   7.393  10.862   0.988 -1.2675 -0.7938  1.5965
39945SOL     OW23111   1.974   9.697   3.022  0.3882  0.0602  0.3136
39945SOL    HW123112   2.034   9.718   3.093  1.5054 -0.0334 -0.5801
39945SOL    HW223113   1.994   9.606   3.000 -0.8074 -0.3128  0.6806
39946SOL     OW23114   4.190   1.608   1.442  0.1097  0.3470 -0.0502
39946SOL    HW123115   4.162   1.544   1.507  2.0531  0.3071  0.8093
39946SOL    HW223116   4.249   1.667   1.489  1.0833  0.6954 -1.6169
39947SOL     OW23117   6.325   9.073  10.129  0.1973  0.1170  0.2023
39947SOL    HW123118   6.356   9.147  10.182 -0.9347 -0.4532  1.7460
39947SOL    HW223119   6.375   8.998  10.160  0.1078 -0.0801 -0.1230
39948SOL     OW23120   7.198  10.653   4.787 -0.2103 -0.2843  0.3355
39948SOL    HW123121   7.203  10.598   4.709 -2.1620  0.2097 -0.1909
39948SOL    HW223122   7.147  10.601   4.849 -2.0449  0.8255 -0.1574
39949SOL     OW23123   8.129   7.870   6.043  0.8455  1.3444 -0.4560
39949SOL    HW123124   8.213   7.912   6.062  2.1436 -0.9891 -0.6072
39949SOL    HW223125   8.120   7.878   5.948  1.0892  1.2927 -0.4859
39950SOL     OW23126   5.216   2.775   6.742  0.1818  0.8187 -0.0594
39950SOL    HW123127   5.234   2.861   6.705  0.6728  1.7767  2.2041
39950SOL    HW223128   5.125   2.781   6.772  0.3618  0.7147  0.5131
39951SOL     OW23129   1.834   0.197  10.210 -0.3013  0.0785  0.0142
39951SOL    HW123130   1.752   0.213  10.162 -0.4243 -0.0201  0.1898
39951SOL    HW223131   1.893   0.160  10.145 -0.9515 -1.4907  0.2734
39952SOL     OW23132   3.737   9.550   0.439 -0.6305 -0.4450 -0.1024
39952SOL    HW123133   3.715   9.524   0.349  0.3442 -1.7060 -0.0044
39952SOL    HW223134   3.658   9.593   0.472 -0.4156  1.7334 -2.1515
39953SOL     OW23135   7.398   4.766   1.355 -0.0406  0.5717  0.2309
39953SOL    HW123136   7.431   4.822   1.284  1.2590 -0.9138 -0.3989
39953SOL    HW223137   7.399   4.822   1.432  1.6342  1.3065 -0.2792
39954SOL     OW23138   1.387   0.822  10.742 -0.0156  0.0578 -0.2593
39954SOL    HW123139   1.475   0.789  10.730  0.4752  0.7421  1.2488
39954SOL    HW223140   1.358   0.786  10.826  0.0341  2.2476  0.7727
39955SOL     OW23141   9.519   8.772   9.015 -0.1643 -0.7045 -0.1092
39955SOL    HW123142   9.498   8.842   8.953  1.3823 -1.7097 -1.8804
39955SOL    HW223143   9.555   8.817   9.091 -0.5111  0.4877 -0.6330
39956SOL     OW23144   9.416   7.485   0.459  0.0390 -0.2320 -0.6569
39956SOL    HW123145   9.380   7.574   0.466 -1.0198 -0.5889 -1.3144
39956SOL    HW223146   9.408   7.450   0.548  0.0944  0.1958 -0.4796
39957SOL     OW23147   2.291   7.676   6.786 -0.1944  0.1252 -0.2660
39957SOL    HW123148   2.246   7.597   6.817  0.7608 -0.2544  0.1843
39957SOL    HW223149   2.310   7.725   6.865 -0.2108  0.5049 -0.4950
39958SOL     OW23150   8.349   9.276   2.331  0.1983  0.5572  0.0150
39958SOL    HW123151   8.444   9.268   2.327  0.3031  0.4383  1.8022
39958SOL    HW223152   8.333   9.351   2.388 -0.7016 -1.1813  2.2246
39959SOL     OW23153   0.684   9.834   9.498 -0.3951  0.2279  0.1745
39959SOL    HW123154   0.778   9.842   9.510 -0.6515  0.9193  2.2341
39959SOL    HW223155   0.650   9.920   9.525 -1.6964 -0.5360  1.1029
39960SOL     OW23156   5.645   6.802   9.502  0.2028  0.2129 -0.3651
39960SOL    HW123157   5.643   6.713   9.537 -1.3585  0.3950  0.1093
39960SOL    HW223158   5.648   6.859   9.579 -0.6523  0.5866 -0.5927
39961SOL     OW23159   8.935   7.976   5.463  0.1931  0.3553 -0.4381
39961SOL    HW123160   9.000   7.948   5.528  0.7925 -0.9698 -1.5518
39961SOL    HW223161   8.977   8.048   5.417  0.1054  0.7479  0.0915
39962SOL     OW23162  10.047   7.298   8.754 -0.2168 -0.4785 -0.3747
39962SOL    HW123163  10.113   7.357   8.789  2.3893 -2.9445 -0.7714
39962SOL    HW223164  10.042   7.227   8.817 -2.4901 -0.4202 -0.4113
39963SOL     OW23165   6.989   0.131  10.881  0.3166 -0.3238  0.2238
39963SOL    HW123166   6.923   0.093  10.823  0.2887  0.4513 -0.2603
39963SOL    HW223167   7.049   0.178  10.823  1.1717 -0.8196  0.6774
39964SOL     OW23168   7.515   2.250   3.587 -0.0309 -0.5604  0.1685
39964SOL    HW123169   7.458   2.176   3.607 -0.0005 -0.7462 -0.4295
39964SOL    HW223170   7.511   2.259   3.492  0.3421 -0.0939  0.1922
39965SOL     OW23171   7.610  11.241   4.909  0.5070  0.2221 -0.0500
39965SOL    HW123172   7.519  11.252   4.882  0.5628 -0.6058 -0.6049
39965SOL    HW223173   7.620  11.147   4.924  0.8070  0.5045  1.7579
39966SOL     OW23174   6.037   8.094   9.094  0.0129 -0.1161  0.4534
39966SOL    HW123175   5.957   8.130   9.055  0.9580  0.9244 -0.6098
39966SOL    HW223176   6.095   8.078   9.019  0.7334 -1.0427  1.1872
39967SOL     OW23177   1.963   8.951   7.129 -0.2102  0.4950 -0.2651
39967SOL    HW123178   2.037   8.895   7.153  0.2838  0.9001 -0.7928
39967SOL    HW223179   1.901   8.943   7.201  0.6420  0.6565  0.4952
39968SOL     OW23180   4.396   3.502   5.544 -0.2512 -0.1100 -0.0339
39968SOL    HW123181   4.404   3.553   5.464 -0.2127 -2.6168 -1.7329
39968SOL    HW223182   4.477   3.520   5.592  0.9469 -0.5191 -1.8065
39969SOL     OW23183   5.549   5.374  10.171  0.0265  0.3982  0.3333
39969SOL    HW123184   5.564   5.456  10.219  1.4990  0.0966  0.4214
39969SOL    HW223185   5.486   5.398  10.103 -1.1836  1.1151  1.6397
39970SOL     OW23186   7.577  11.271   8.664 -0.3096  0.4104 -0.0749
39970SOL    HW123187   7.487  11.301   8.658 -0.2042  0.7733  0.1235
39970SOL    HW223188   7.601  11.285   8.756  0.9723  3.3454 -0.7383
39971SOL     OW23189   9.232   0.910   4.932 -0.0647 -0.0035 -0.3996
39971SOL    HW123190   9.154   0.881   4.980 -2.6280  1.3132 -3.4134
39971SOL    HW223191   9.288   0.832   4.927 -0.5638 -0.7216  2.7696
39972SOL     OW23192   2.713   0.699   1.062  0.2677  0.2055 -0.4560
39972SOL    HW123193   2.711   0.752   0.982  0.0456  1.3498  0.2848
39972SOL    HW223194   2.800   0.714   1.099  0.3985 -0.3816 -0.5050
39973SOL     OW23195   0.304   4.716   4.803 -0.6336  0.0061 -0.1049
39973SOL    HW123196   0.252   4.794   4.822 -1.9560 -0.5374 -1.3716
39973SOL    HW223197   0.381   4.750   4.756 -0.8367  0.6053 -0.0111
39974SOL     OW23198   8.101   0.014   7.327 -0.3392 -0.0760  0.4581
39974SOL    HW123199   8.065   0.086   7.275  0.8988 -0.6794 -1.3536
39974SOL    HW223200   8.025  -0.028   7.366 -1.3668  0.3555 -0.9888
39975SOL     OW23201   3.200   3.815   7.411 -0.1680 -0.0365 -0.4029
39975SOL    HW123202   3.296   3.820   7.412 -0.1767  1.6510 -2.2339
39975SOL    HW223203   3.175   3.834   7.501  1.1916 -0.6255  0.1431
39976SOL     OW23204   1.007   8.662  10.467  0.5765 -0.5921  0.0077
39976SOL    HW123205   1.068   8.606  10.420  2.5575  1.2894  0.1914
39976SOL    HW223206   0.955   8.704  10.398  1.8131  0.3163 -0.4045
39977SOL     OW23207   2.229   2.569   2.898  0.5867  0.4472  0.1095
39977SOL    HW123208   2.210   2.512   2.973  0.1841  1.8665  1.1561
39977SOL    HW223209   2.170   2.644   2.910 -0.1190  0.3189 -2.1415
39978SOL     OW23210   3.649  10.919  10.175 -0.6566  0.3514 -0.2783
39978SOL    HW123211   3.735  10.960  10.187 -1.1941  1.1092  1.2840
39978SOL    HW223212   3.668  10.829  10.150  0.5814  0.5096  0.0524
39979SOL     OW23213   3.961   8.370   2.488  0.3299  0.4727  0.0609
39979SOL    HW123214   3.942   8.429   2.561 -0.3695  0.7763 -0.3603
39979SOL    HW223215   4.027   8.417   2.437  0.2758  0.5918  0.0982
39980SOL     OW23216   9.329   6.164   0.013 -0.1814 -0.2679  0.7873
39980SOL    HW123217   9.414   6.195  -0.021  1.1229 -2.2873  1.9923
39980SOL    HW223218   9.297   6.104  -0.054 -1.1175  1.1307 -0.0574
39981SOL     OW23219  10.911  10.450   5.506  0.0189  0.1351 -0.0576
39981SOL    HW123220  10.892  10.499   5.426 -1.2937  2.4696  1.5375
39981SOL    HW223221  11.004  10.429   5.500  0.0508  0.6249 -1.9860
39982SOL     OW23222   4.783   2.717   5.506  0.2172  0.0554 -0.6024
39982SOL    HW123223   4.846   2.658   5.546  0.6002  0.8156 -0.0628
39982SOL    HW223224   4.815   2.730   5.417  2.7322  2.9374  0.5299
39983SOL     OW23225   2.969   4.276   7.002  0.5596 -0.3102  0.4397
39983SOL    HW123226   2.991   4.258   6.911 -1.5528  2.0327 -0.6720
39983SOL    HW223227   2.923   4.198   7.031 -1.0348 -0.1420 -1.4257
39984SOL     OW23228   9.500   9.130   6.506 -0.1155 -0.1453  0.1398
39984SOL    HW123229   9.516   9.221   6.484  1.1055 -0.4445 -0.3201
39984SOL    HW223230   9.583   9.100   6.545  0.6027 -1.8296 -2.4323
39985SOL     OW23231   0.444   3.181   5.737  0.2849  0.1981  0.1059
39985SOL    HW123232   0.431   3.276   5.728  1.5634  0.3005 -0.9087
39985SOL    HW223233   0.398   3.144   5.661 -0.1238  0.0079  0.4442
39986SOL     OW23234   1.577   0.417   4.088 -0.3818  0.4390  0.4336
39986SOL    HW123235   1.484   0.409   4.108 -0.4640 -0.6213 -0.2994
39986SOL    HW223236   1.623   0.388   4.167 -0.6941 -2.2820 -0.2895
39987SOL     OW23237   2.061   7.227   2.547  0.4776  0.2564 -0.5736
39987SOL    HW123238   2.100   7.211   2.633 -1.0290 -0.3501  0.0458
39987SOL    HW223239   1.989   7.288   2.564 -0.5885 -0.7732 -1.1676
39988SOL     OW23240  11.348   9.238   8.869  0.0821  0.2916 -0.3472
39988SOL    HW123241  11.407   9.249   8.795 -0.0448 -0.0858 -0.5068
39988SOL    HW223242  11.400   9.263   8.946  0.6787 -0.7075 -0.4051
39989SOL     OW23243   2.342   1.406   1.199 -0.1557  0.0378 -0.1233
39989SOL    HW123244   2.335   1.442   1.110  0.4080 -0.3562 -0.3404
39989SOL    HW223245   2.274   1.451   1.249  2.5695  3.9925  0.5181
39990SOL     OW23246   4.541   9.687   7.117 -0.4586 -0.1266 -0.3318
39990SOL    HW123247   4.610   9.628   7.088  0.8067  1.7542 -1.3333
39990SOL    HW223248   4.500   9.642   7.191  0.2845 -2.3179 -1.1795
39991SOL     OW23249   2.591   1.422   6.646 -1.2417  0.2491 -0.6912
39991SOL    HW123250   2.647   1.457   6.577 -0.2475  2.5653  1.1545
39991SOL    HW223251   2.503   1.452   6.623 -0.7283  2.1101 -0.3289
39992SOL     OW23252  10.189   5.648   5.009 -0.5356 -0.1732  0.1701
39992SOL    HW123253  10.114   5.600   5.042 -1.9552  1.5017 -0.4326
39992SOL    HW223254  10.247   5.581   4.972 -1.5597 -1.5293  0.9384
39993SOL     OW23255   1.061   5.463   9.802  0.2597 -0.0736 -0.2614
39993SOL    HW123256   1.096   5.436   9.717 -0.5002  0.4945 -0.7736
39993SOL    HW223257   1.031   5.553   9.788 -0.0126 -0.0263  0.5688
39994SOL     OW23258  10.945   7.823   4.727 -0.0714 -0.5344  0.3150
39994SOL    HW123259  10.972   7.784   4.644  0.9576  1.6935 -0.4925
39994SOL    HW223260  10.860   7.783   4.746 -1.2381  0.1483 -2.7626
39995SOL     OW23261   0.874   0.837   1.529 -0.9017 -0.3153  0.2318
39995SOL    HW123262   0.840   0.828   1.439 -1.9596 -0.6236  0.6466
39995SOL    HW223263   0.885   0.931   1.540  3.0673 -0.3828 -1.5569
39996SOL     OW23264   1.246   1.584  10.146 -0.2510  0.3703  0.2457
39996SOL    HW123265   1.328   1.631  10.130 -1.6678  2.9046 -0.0923
39996SOL    HW223266   1.199   1.590  10.063 -0.7353 -1.1853  0.3856
39997SOL     OW23267   6.734   7.288   5.785  0.2768  0.3729 -0.0650
39997SOL    HW123268   6.734   7.237   5.866 -2.4711  2.5965  1.5436
39997SOL    HW223269   6.799   7.356   5.800 -0.3851  0.9142  0.4232
39998SOL     OW23270   8.734   9.497   2.793 -0.2243  0.0079  0.1085
39998SOL    HW123271   8.779   9.526   2.714  0.8425 -0.2187  0.6140
39998SOL    HW223272   8.803   9.461   2.849 -1.1050 -0.8376  0.6957
39999SOL     OW23273   5.758   4.136   1.872 -0.3382 -0.0445  0.0610
39999SOL    HW123274   5.732   4.101   1.958 -0.2329  0.5751  0.3489
39999SOL    HW223275   5.723   4.073   1.809 -1.0683 -0.1183  0.5279
40000SOL     OW23276   9.491   2.675   0.222  0.2542  0.0604 -0.7097
40000SOL    HW123277   9.411   2.720   0.250  0.6120  0.8101 -0.8869
40000SOL    HW223278   9.483   2.587   0.259 -0.5650  0.1897 -0.5677
40001SOL     OW23279   8.581   9.265   0.977 -0.2420  0.8089  0.7313
40001SOL    HW123280   8.497   9.225   1.000 -0.7896  1.8816  0.6443
40001SOL    HW223281   8.642   9.234   1.044 -0.0748 -1.9509 -0.5319
40002SOL     OW23282   1.066   3.053   9.238 -0.3721  0.8582 -0.2975
40002SOL    HW123283   1.148   3.088   9.274 -0.1500 -0.3734  0.4546
40002SOL    HW223284   1.053   3.101   9.156  0.8366  1.4226 -0.1802
40003SOL     OW23285   1.697   3.699   2.705 -0.0366  0.4370 -0.3278
40003SOL    HW123286   1.613   3.657   2.685 -0.9777  1.1782  1.7695
40003SOL    HW223287   1.748   3.631   2.748  0.1809  0.1876 -0.9700
40004SOL     OW23288   8.425   5.011   0.685  0.3695 -0.6719 -0.1026
40004SOL    HW123289   8.465   4.964   0.759  0.4223  0.3520  0.5564
40004SOL    HW223290   8.344   4.965   0.667  0.5834 -1.2100  0.3019
40005SOL     OW23291   7.533   1.436   3.799  0.1083 -0.0896  0.1303
40005SOL    HW123292   7.569   1.444   3.887 -1.3552 -1.0219  0.8393
40005SOL    HW223293   7.445   1.473   3.805 -0.6776 -1.7695 -0.4836
40006SOL     OW23294  10.505   8.587  10.880 -0.6689 -0.0659  0.1446
40006SOL    HW123295  10.522   8.673  10.840 -0.6962 -0.2447 -0.2535
40006SOL    HW223296  10.432   8.603  10.940  0.5066  0.5977  1.4621
40007SOL     OW23297   4.452   9.254   8.986 -0.4416  0.8823 -0.4281
40007SOL    HW123298   4.381   9.295   9.035  0.1401  1.4113 -0.0180
40007SOL    HW223299   4.487   9.187   9.044 -1.4801 -0.3342 -1.1488
40008SOL     OW23300   1.651   8.007   6.844  0.2236 -0.1107 -0.0257
40008SOL    HW123301   1.680   8.097   6.860 -0.4127 -0.0546  0.8931
40008SOL    HW223302   1.722   7.953   6.878  1.0620  0.0320 -1.4887
40009SOL     OW23303   4.191   8.515   1.109 -0.4981  0.1055 -0.3886
40009SOL    HW123304   4.174   8.502   1.015 -0.4838 -0.2595 -0.3419
40009SOL    HW223305   4.172   8.608   1.124  1.5226  0.7151 -1.1959
40010SOL     OW23306   8.771   3.779   7.757 -0.1370 -0.6877 -0.6730
40010SOL    HW123307   8.836   3.823   7.811 -0.5080  2.0592 -2.3171
40010SOL    HW223308   8.687   3.808   7.793 -0.4756 -2.2446 -0.1250
40011SOL     OW23309   1.518   7.196   7.056 -0.9878  0.3135  0.1020
40011SOL    HW123310   1.464   7.145   6.996 -2.1922 -0.3761  1.6750
40011SOL    HW223311   1.516   7.285   7.021  0.2421 -0.4380 -2.0892
40012SOL     OW23312   4.458   4.713   6.523 -0.0940  0.0469  0.2631
40012SOL    HW123313   4.482   4.649   6.591 -0.0375  0.6067  0.7852
40012SOL    HW223314   4.364   4.727   6.536 -0.3940 -0.9319 -0.7300
40013SOL     OW23315   4.924   4.411   9.609  0.0374  0.2108 -0.5339
40013SOL    HW123316   4.914   4.388   9.702  0.9120 -1.4962 -0.8211
40013SOL    HW223317   4.867   4.349   9.563 -0.1084  0.8052 -1.1776
40014SOL     OW23318  10.991   0.375   5.736  0.2466  0.6047 -0.6758
40014SOL    HW123319  11.082   0.402   5.724  0.0152  1.3564 -0.7845
40014SOL    HW223320  10.954   0.442   5.793 -0.2498  0.3236 -0.6683
40015SOL     OW23321  10.313   1.531   5.782 -0.0381 -0.1900  0.1543
40015SOL    HW123322  10.296   1.442   5.811 -0.7885 -0.7968 -1.9820
40015SOL    HW223323  10.299   1.585   5.860 -4.2052 -1.4562  0.5270
40016SOL     OW23324   8.090   7.037   5.314  0.0195  0.0698 -0.0597
40016SOL    HW123325   8.097   7.120   5.268  0.3870  0.4068  0.5948
40016SOL    HW223326   8.151   7.045   5.387 -0.2223 -0.6304  0.2238
40017SOL     OW23327   2.949   0.312   9.028  0.2812  0.0545 -0.5729
40017SOL    HW123328   2.996   0.337   8.948  2.2300  0.7006  0.7118
40017SOL    HW223329   2.981   0.373   9.095 -0.0762 -1.4906  1.0738
40018SOL     OW23330   8.347   7.666   7.835  0.5243  0.3134  0.0795
40018SOL    HW123331   8.403   7.722   7.889  3.0131 -1.3028 -0.6341
40018SOL    HW223332   8.316   7.598   7.894  3.0630 -1.3230 -0.3094
40019SOL     OW23333   9.426   7.429   7.018 -0.3293  0.2880 -0.7411
40019SOL    HW123334   9.428   7.522   7.039 -0.8817  0.3342 -0.8712
40019SOL    HW223335   9.416   7.385   7.102  0.7017  0.3068 -0.6066
40020SOL     OW23336   3.827   0.928   7.624 -0.2527  0.5519  0.8311
40020SOL    HW123337   3.794   0.848   7.582  0.2860  1.3603 -1.2495
40020SOL    HW223338   3.751   0.965   7.668 -1.3685  0.6472 -1.0681
40021SOL     OW23339   7.629   7.893   7.479  0.9012 -0.3340 -0.5726
40021SOL    HW123340   7.719   7.911   7.453  1.0097  0.4821  0.3501
40021SOL    HW223341   7.603   7.818   7.424  1.1690  1.1837 -2.9380
40022SOL     OW23342   5.139   7.948   5.000 -0.3547  0.0327  0.1099
40022SOL    HW123343   5.205   8.009   4.964 -0.3964  0.3367  0.5354
40022SOL    HW223344   5.078   7.934   4.928  0.9320 -1.3878 -0.7859
40023SOL     OW23345   5.842   2.549   3.222 -0.0241  0.0189 -0.1436
40023SOL    HW123346   5.761   2.555   3.273  1.0182 -0.5754  1.6807
40023SOL    HW223347   5.814   2.521   3.135 -1.6868 -1.4115  0.8008
40024SOL     OW23348   6.453   3.659   6.180  0.2311 -0.2810  0.5323
40024SOL    HW123349   6.477   3.638   6.270 -0.0087  3.5996  1.6979
40024SOL    HW223350   6.362   3.688   6.185  0.6895  1.5357 -0.6136
40025SOL     OW23351  11.285   8.120  10.821  0.0771 -0.9071 -0.2584
40025SOL    HW123352  11.243   8.105  10.736 -0.5678 -0.8743  0.0551
40025SOL    HW223353  11.278   8.214  10.835  0.0021 -0.9407 -0.0715
40026SOL     OW23354   5.370   6.610   4.593  0.1060 -0.3287 -0.3816
40026SOL    HW123355   5.341   6.683   4.647 -0.3829 -0.9426  0.1950
40026SOL    HW223356   5.465   6.619   4.591  0.0768  0.1129 -0.0131
40027SOL     OW23357   0.105   2.977   4.781 -0.5588  0.0447  0.0508
40027SOL    HW123358   0.136   3.026   4.857 -0.5005  1.3033 -0.7478
40027SOL    HW223359   0.165   2.904   4.773  0.6735  1.0239  0.0466
40028SOL     OW23360   6.775   6.997   7.658 -0.6912 -0.5378  0.0109
40028SOL    HW123361   6.734   7.060   7.717  0.0518 -0.1960  0.1830
40028SOL    HW223362   6.823   6.937   7.716 -0.1307 -0.3257 -0.2254
40029SOL     OW23363  10.730   6.118   7.314 -0.0389 -1.0171  0.4283
40029SOL    HW123364  10.712   6.102   7.407 -0.3589 -1.4688  0.2943
40029SOL    HW223365  10.743   6.213   7.308 -0.9162 -0.8605  0.7894
40030SOL     OW23366  11.013   6.478   2.575 -0.1152 -0.1827  0.9717
40030SOL    HW123367  11.087   6.533   2.550 -0.5022  0.0312  0.2952
40030SOL    HW223368  11.009   6.410   2.508 -0.5883 -0.1420  0.9560
40031SOL     OW23369   5.800   5.159   3.188 -0.5678  0.8172 -0.2502
40031SOL    HW123370   5.852   5.084   3.163 -0.8533  0.7231 -0.5728
40031SOL    HW223371   5.775   5.200   3.105 -1.3457  0.6248 -0.1236
40032SOL     OW23372   6.544   3.019   7.486  0.2093  0.1133  0.3246
40032SOL    HW123373   6.537   3.031   7.581 -0.3027 -0.4614  0.3629
40032SOL    HW223374   6.518   3.104   7.449 -1.4730 -0.2217  0.6497
40033SOL     OW23375   5.361   6.923   2.614 -0.2694 -0.6007 -0.2668
40033SOL    HW123376   5.378   7.000   2.560 -5.4997  1.1613 -0.0411
40033SOL    HW223377   5.342   6.854   2.550  0.0903 -0.4438 -0.5515
40034SOL     OW23378   3.875  11.012   3.919 -0.2405 -0.2092 -0.2737
40034SOL    HW123379   3.835  11.044   3.838 -0.7883  0.3145  0.1893
40034SOL    HW223380   3.831  10.928   3.936 -1.1548  0.3523  0.2186
40035SOL     OW23381   6.425   3.031   1.623  0.3904 -0.0275  0.1407
40035SOL    HW123382   6.488   2.959   1.623 -0.3017 -0.6462  0.3456
40035SOL    HW223383   6.345   2.993   1.589 -0.1894  0.4646  0.9202
40036SOL     OW23384   2.244  10.416  10.740  0.6141 -0.3785  0.4301
40036SOL    HW123385   2.333  10.384  10.723  1.1870  1.2534  0.1772
40036SOL    HW223386   2.252  10.512  10.737 -1.0827 -0.1966  0.7909
40037SOL     OW23387   2.981   6.062   9.944  0.5737  0.3847  0.3688
40037SOL    HW123388   2.994   6.015  10.026 -1.0516  0.2646  0.5749
40037SOL    HW223389   3.066   6.057   9.900  1.8941  1.6047  2.6134
40038SOL     OW23390   3.919   9.007   6.960 -0.3688  0.2663  0.2285
40038SOL    HW123391   3.825   8.992   6.962 -0.4462 -0.0994 -2.6467
40038SOL    HW223392   3.957   8.920   6.966 -0.3711  0.0884 -1.6560
40039SOL     OW23393   4.191  10.589   9.616  0.3400 -0.2050 -0.0121
40039SOL    HW123394   4.278  10.562   9.585  0.5823  0.5842 -0.0353
40039SOL    HW223395   4.202  10.681   9.640 -0.4251 -0.1791  0.2463
40040SOL     OW23396   6.626   9.605   6.383  0.6734 -0.3610 -0.0580
40040SOL    HW123397   6.681   9.580   6.309  1.0703 -0.3649  0.2361
40040SOL    HW223398   6.675   9.577   6.460 -0.3811 -1.6766  0.1717
40041SOL     OW23399  10.575  10.376   3.267 -0.1355  0.2563  0.0119
40041SOL    HW123400  10.610  10.427   3.340 -1.0223 -0.3553  0.8965
40041SOL    HW223401  10.555  10.440   3.200  1.4066  0.7564 -0.0059
40042SOL     OW23402   5.846  10.989   4.986 -0.4418  0.1667 -0.3177
40042SOL    HW123403   5.855  11.034   4.902 -0.8327 -0.5618 -0.7627
40042SOL    HW223404   5.893  11.044   5.048  1.8581 -0.4151 -1.4138
40043SOL     OW23405   6.306   9.080   8.874 -0.0639  0.0272  0.4234
40043SOL    HW123406   6.269   9.160   8.911  0.8365  1.3015 -1.3060
40043SOL    HW223407   6.363   9.110   8.803  0.5410 -2.1395 -0.0889
40044SOL     OW23408   1.764   1.958   6.397 -0.3104 -0.0562 -0.0825
40044SOL    HW123409   1.707   2.027   6.363 -0.6597 -0.4660 -0.3374
40044SOL    HW223410   1.708   1.882   6.405  0.4307 -0.7739 -1.3865
40045SOL     OW23411   5.969   8.722   0.814 -0.3839 -0.4079  0.2844
40045SOL    HW123412   5.902   8.663   0.849 -1.6247  0.2275 -0.9454
40045SOL    HW223413   5.919   8.795   0.777  0.7919 -1.2139 -3.1614
40046SOL     OW23414   4.105   3.634  11.331  0.2653  0.2070  0.2421
40046SOL    HW123415   4.190   3.656  11.371  1.1124 -2.2108 -0.0512
40046SOL    HW223416   4.099   3.691  11.255  0.9935  1.3428  0.9989
40047SOL     OW23417   0.664   3.655   9.111  0.9903 -0.2899 -0.3009
40047SOL    HW123418   0.691   3.596   9.182 -0.6007 -1.8898 -0.9459
40047SOL    HW223419   0.648   3.597   9.037 -3.7240  0.3815 -0.1063
40048SOL     OW23420   3.049   1.611   5.233 -0.2126  0.3877 -0.6485
40048SOL    HW123421   3.043   1.547   5.162 -1.3207  0.3406 -0.5354
40048SOL    HW223422   3.143   1.620   5.250  0.0351 -0.0615 -1.6973
40049SOL     OW23423   6.912   6.010   6.520  0.0874 -0.1082 -0.1900
40049SOL    HW123424   6.898   6.042   6.609 -1.3722 -0.2798 -0.3265
40049SOL    HW223425   6.928   5.916   6.532  0.8326  0.0341 -0.0460
40050SOL     OW23426   5.751   1.421   8.835  0.2466 -0.4688  0.9188
40050SOL    HW123427   5.789   1.359   8.897  1.3404  0.1810  0.9196
40050SOL    HW223428   5.767   1.383   8.749  2.0660  0.3800  0.8413
40051SOL     OW23429   0.228  11.016   4.531  0.0738  0.1233 -0.1635
40051SOL    HW123430   0.155  11.065   4.493 -0.2607 -0.6025 -0.4577
40051SOL    HW223431   0.201  11.000   4.622  0.2061  0.5171 -0.0508
40052SOL     OW23432   6.057   9.971   3.945 -0.1187 -0.6201  0.0493
40052SOL    HW123433   6.104   9.953   3.864 -1.9811 -3.1004 -0.6381
40052SOL    HW223434   6.035   9.884   3.980  0.5299  0.3389  3.2310
40053SOL     OW23435   7.843   1.646   4.414  0.2323  0.2435  0.5958
40053SOL    HW123436   7.902   1.572   4.424  0.3841  0.1867 -0.5910
40053SOL    HW223437   7.897   1.716   4.379 -0.1195  0.6170  0.7855
40054SOL     OW23438  10.284   3.275   4.098  0.2842 -0.2943 -0.4912
40054SOL    HW123439  10.290   3.327   4.178  0.5635 -2.5045  1.0241
40054SOL    HW223440  10.336   3.197   4.116 -0.9060 -1.5943 -2.2592
40055SOL     OW23441   8.470   5.232   7.552 -0.2196 -0.5438 -0.1876
40055SOL    HW123442   8.409   5.254   7.481 -1.6254  0.1586  1.1684
40055SOL    HW223443   8.478   5.313   7.602  1.4262 -0.7866 -0.0035
40056SOL     OW23444   3.652   2.368   5.850  0.2615  0.5516 -0.2664
40056SOL    HW123445   3.744   2.395   5.842  0.5681 -0.6283 -1.0016
40056SOL    HW223446   3.608   2.409   5.776  0.4480  0.1568 -0.5997
40057SOL     OW23447  10.125   9.055   8.746  0.1122 -0.3160  0.1332
40057SOL    HW123448  10.043   9.105   8.743 -1.7318 -2.7487  3.3047
40057SOL    HW223449  10.117   8.993   8.673  0.4123  1.0570 -1.1316
40058SOL     OW23450   1.262  11.280  10.761  0.1954  0.6931  0.2260
40058SOL    HW123451   1.286  11.215  10.694  1.7115  0.2128  1.1749
40058SOL    HW223452   1.282  11.364  10.720 -2.0215  0.6445 -1.1097
40059SOL     OW23453   2.068   0.406   5.635  0.1015 -0.4125  0.2735
40059SOL    HW123454   2.145   0.412   5.578 -1.9033  1.5893 -2.4947
40059SOL    HW223455   2.043   0.496   5.652 -1.9990 -0.9847  0.5026
40060SOL     OW23456   3.892   9.172   4.424 -0.3458  0.1008 -0.2118
40060SOL    HW123457   3.806   9.164   4.382  0.6183 -0.0129 -2.2840
40060SOL    HW223458   3.924   9.258   4.395  0.6125 -0.2440 -0.1915
40061SOL     OW23459   5.851   1.215  11.088  0.3690  0.1195 -0.5026
40061SOL    HW123460   5.826   1.227  10.997 -1.5491  0.5871  0.0259
40061SOL    HW223461   5.800   1.138  11.116 -0.7356  1.2278  0.6921
40062SOL     OW23462   9.853   9.286  10.307 -0.3574 -0.9792 -0.1440
40062SOL    HW123463   9.940   9.262  10.337 -0.1089 -1.2239 -1.0215
40062SOL    HW223464   9.856   9.273  10.212 -0.8271  0.6126 -0.4056
40063SOL     OW23465   4.394   4.362  10.815  0.2293  0.2323  0.3584
40063SOL    HW123466   4.338   4.438  10.800  2.0094  1.5722  0.1736
40063SOL    HW223467   4.437   4.379  10.898 -1.6084 -2.1105  1.9462
40064SOL     OW23468   9.892   2.634   5.860 -0.3477  0.4596  0.8869
40064SOL    HW123469   9.906   2.617   5.767  0.5069  1.5410  0.8062
40064SOL    HW223470   9.801   2.664   5.865  0.2163  2.4747  0.0745
40065SOL     OW23471   0.031   5.902   5.063  0.3755  0.4832 -0.1130
40065SOL    HW123472   0.051   5.944   5.147  0.3391 -0.3012  0.2964
40065SOL    HW223473  -0.048   5.852   5.079  0.6103 -0.0180 -0.4939
40066SOL     OW23474   6.722   7.227   9.335 -0.2291 -0.7993 -0.6258
40066SOL    HW123475   6.664   7.286   9.383 -0.0608  0.0112 -1.3777
40066SOL    HW223476   6.810   7.262   9.351 -0.3156  1.0841 -3.5019
40067SOL     OW23477  10.094   2.781   6.971  0.4141 -0.1100  0.0961
40067SOL    HW123478  10.010   2.739   6.954  0.2026  0.9278 -1.7171
40067SOL    HW223479  10.151   2.711   7.002  0.3509 -2.0687 -3.6469
40068SOL     OW23480   8.741   7.805   1.176  0.1132 -0.5269  0.4808
40068SOL    HW123481   8.822   7.843   1.142 -0.1145  1.7061  2.1693
40068SOL    HW223482   8.685   7.797   1.099  1.5396 -1.0983 -0.5437
40069SOL     OW23483   2.719   9.272  11.147 -0.1277 -0.6573 -0.3224
40069SOL    HW123484   2.763   9.328  11.083  1.1727 -0.0223  1.0594
40069SOL    HW223485   2.713   9.325  11.226 -1.9869 -1.3132  0.0351
40070SOL     OW23486   6.619   4.738   2.307  0.5875  0.8843  0.3143
40070SOL    HW123487   6.657   4.708   2.224 -3.1075  0.2970 -1.3885
40070SOL    HW223488   6.647   4.673   2.371  0.5428 -0.8065 -1.3039
40071SOL     OW23489   0.445   6.140   2.567  0.7500 -0.0791 -0.2653
40071SOL    HW123490   0.479   6.219   2.609 -0.0042 -0.9553  2.2455
40071SOL    HW223491   0.389   6.172   2.497  1.1774  1.5854  0.1091
40072SOL     OW23492   7.759   2.161   8.718 -0.1516 -0.2726  0.3151
40072SOL    HW123493   7.692   2.096   8.698 -0.1194 -0.3975  0.6158
40072SOL    HW223494   7.838   2.110   8.735 -0.1449 -0.1613  0.6269
40073SOL     OW23495  10.643   9.975   1.064  0.4958 -0.5723 -0.0994
40073SOL    HW123496  10.673   9.911   1.129  1.5536  1.2267  1.2539
40073SOL    HW223497  10.555   9.999   1.093  1.4100  1.1193  1.4634
40074SOL     OW23498   2.333   5.862   3.833  0.5024 -0.6129  0.4507
40074SOL    HW123499   2.252   5.813   3.842 -1.0725  1.4582 -1.4878
40074SOL    HW223500   2.308   5.954   3.845  2.7850  0.0165  0.9370
40075SOL     OW23501   4.134  10.221   4.235 -0.0187  0.7044  0.7410
40075SOL    HW123502   4.087  10.301   4.258  1.5347  2.2990 -1.2157
40075SOL    HW223503   4.226  10.242   4.252  0.7936  0.6205 -2.7038
40076SOL     OW23504   9.854   4.874   7.191  0.2764 -0.2316 -0.3952
40076SOL    HW123505   9.843   4.963   7.157  1.7473 -0.2441 -0.9960
40076SOL    HW223506   9.880   4.822   7.115  1.0924 -0.8117  0.2529
40077SOL     OW23507   1.651   0.829   9.556 -0.1375 -0.7188  0.3823
40077SOL    HW123508   1.630   0.871   9.640  0.1060  0.0743  0.0583
40077SOL    HW223509   1.747   0.830   9.552 -0.1629 -0.0650 -0.2356
40078SOL     OW23510   1.220  10.868   5.328 -0.3012  0.0911 -0.1584
40078SOL    HW123511   1.165  10.801   5.369  0.7239 -0.2678  0.6863
40078SOL    HW223512   1.260  10.914   5.402  0.3139  0.5178 -0.7500
40079SOL     OW23513   7.885  10.326   5.133 -0.5421 -0.0822  0.0460
40079SOL    HW123514   7.941  10.320   5.055 -0.1667  0.4774  0.2701
40079SOL    HW223515   7.856  10.236   5.148 -1.3561 -0.0672 -1.2717
40080SOL     OW23516  10.261  11.187   7.963 -0.3566  0.4606  0.2118
40080SOL    HW123517  10.356  11.186   7.950 -0.3529  1.5482  0.0598
40080SOL    HW223518  10.248  11.246   8.038 -0.8569 -0.4087  0.8234
40081SOL     OW23519   6.418   3.205   1.848 -0.0151  0.1406 -0.4516
40081SOL    HW123520   6.485   3.211   1.916 -1.2490  1.3254  0.7401
40081SOL    HW223521   6.458   3.152   1.779  0.7838 -2.4810  1.8102
40082SOL     OW23522   4.219   8.034   7.661 -0.4622 -0.1056  0.6400
40082SOL    HW123523   4.161   8.091   7.610 -0.5051 -1.9831 -1.5549
40082SOL    HW223524   4.177   8.027   7.746 -1.9926  0.7957  0.0003
40083SOL     OW23525  10.855   3.726   1.866  0.4744 -0.7005  0.0868
40083SOL    HW123526  10.810   3.803   1.903  0.0425 -0.8419 -0.1396
40083SOL    HW223527  10.945   3.734   1.897 -0.1048 -1.4196  2.1556
40084SOL     OW23528   5.303   4.048   4.789  0.2123 -0.7227 -0.6482
40084SOL    HW123529   5.387   4.017   4.822  0.7550  1.4314  0.1878
40084SOL    HW223530   5.239   4.021   4.854  0.4965 -0.9819 -0.4754
40085SOL     OW23531   2.475   8.997   9.343  0.7462 -0.3233  0.4241
40085SOL    HW123532   2.412   9.040   9.400  0.6870  0.8733 -0.5186
40085SOL    HW223533   2.488   8.910   9.383 -1.4873 -0.6045  0.6345
40086SOL     OW23534   8.398   4.405  10.578  0.4820  0.1578 -0.2696
40086SOL    HW123535   8.314   4.451  10.579 -0.3401 -1.2593  1.1060
40086SOL    HW223536   8.383   4.330  10.521  0.3385 -0.8594  1.0607
40087SOL     OW23537   5.028  11.070   4.135 -0.2513 -0.2752 -0.2998
40087SOL    HW123538   5.060  11.158   4.154 -0.2648  0.2862 -2.5584
40087SOL    HW223539   4.943  11.064   4.179  0.1792  0.4841  0.6429
40088SOL     OW23540   3.486   7.597   9.469  0.8375  0.2619  0.1013
40088SOL    HW123541   3.558   7.658   9.482  0.3156  0.8113  0.4917
40088SOL    HW223542   3.506   7.523   9.526  1.6987 -0.1510 -0.7044
40089SOL     OW23543   5.552   1.095   2.550  0.1317 -0.2630  0.9632
40089SOL    HW123544   5.470   1.125   2.588 -0.1810 -1.4168  1.2269
40089SOL    HW223545   5.543   1.114   2.456 -0.2372  0.0404  1.0570
40090SOL     OW23546   5.648  11.067   1.259 -0.0468  0.5919  0.4993
40090SOL    HW123547   5.581  11.123   1.296 -0.4439 -0.8904  2.1587
40090SOL    HW223548   5.625  10.979   1.288  1.2685 -0.2881 -0.9276
40091SOL     OW23549   9.895   5.491   8.886 -0.1382  0.4684 -0.2323
40091SOL    HW123550   9.962   5.522   8.825 -0.2868 -0.4436 -0.8745
40091SOL    HW223551   9.812   5.501   8.838 -0.1112 -1.7687 -0.8432
40092SOL     OW23552   8.155   2.984   2.918  0.5560 -0.3503  0.2349
40092SOL    HW123553   8.203   3.018   2.842 -1.8652  2.4480 -0.2041
40092SOL    HW223554   8.119   2.901   2.887  1.5490 -0.4177 -0.8417
40093SOL     OW23555   2.386   1.173   2.364 -0.1941 -0.2804  0.4687
40093SOL    HW123556   2.463   1.222   2.390  0.0991 -1.5134  2.1273
40093SOL    HW223557   2.359   1.212   2.281  0.8544  1.6696  0.9847
40094SOL     OW23558   2.201   1.838   9.098 -0.2838 -0.1117 -0.6474
40094SOL    HW123559   2.206   1.751   9.059 -1.4762 -0.2875 -0.4531
40094SOL    HW223560   2.159   1.892   9.031 -1.9868 -0.3281  0.1915
40095SOL     OW23561   9.798   4.268   6.018 -0.1519  0.8325  0.1138
40095SOL    HW123562   9.719   4.321   6.029 -0.5628  0.4056 -0.7242
40095SOL    HW223563   9.781   4.216   5.940  0.1384 -0.7302  1.0521
40096SOL     OW23564   6.299   4.714   2.534  0.4675 -0.0140 -0.2599
40096SOL    HW123565   6.267   4.787   2.480 -2.2862 -2.6965 -2.6356
40096SOL    HW223566   6.251   4.722   2.616  2.1474  2.1818  0.6098
40097SOL     OW23567   9.425   7.535   5.954  0.0405  0.1800  0.6313
40097SOL    HW123568   9.351   7.568   5.903  0.5937  0.7208  0.1538
40097SOL    HW223569   9.452   7.608   6.009  1.2958  0.5882 -0.4568
40098SOL     OW23570   4.214   0.510   3.942 -0.0927  0.3244 -0.3937
40098SOL    HW123571   4.209   0.570   3.868 -0.5402  0.0477 -0.5913
40098SOL    HW223572   4.280   0.445   3.916  2.2223  2.0450  0.8025
40099SOL     OW23573   0.641   6.392   6.534  0.3000 -0.1419  0.4428
40099SOL    HW123574   0.670   6.477   6.566 -3.0384  1.9081 -1.4895
40099SOL    HW223575   0.587   6.357   6.605  0.9211 -0.2752  0.8629
40100SOL     OW23576   7.514   8.768   3.291 -0.1134  0.5976  0.2738
40100SOL    HW123577   7.607   8.747   3.303 -0.3208 -0.7717 -0.3751
40100SOL    HW223578   7.467   8.693   3.326 -0.9037  0.2027 -1.5149
40101SOL     OW23579   7.112   0.484   0.661 -0.1809  0.4269 -0.3086
40101SOL    HW123580   7.200   0.515   0.638 -0.2432  1.4864  0.7803
40101SOL    HW223581   7.121   0.452   0.751 -1.2012  1.9588  0.3865
40102SOL     OW23582   4.455   0.329   3.172 -0.3641  0.4385  0.0937
40102SOL    HW123583   4.462   0.382   3.252  1.3791  0.7817 -0.2357
40102SOL    HW223584   4.544   0.295   3.158 -0.9414 -0.7125 -0.9708
40103SOL     OW23585   2.827   4.540  10.160 -0.1911  0.0713  0.0706
40103SOL    HW123586   2.833   4.594  10.082 -1.3654  0.3063  0.1197
40103SOL    HW223587   2.792   4.456  10.129 -2.7091  0.8535  0.5824
40104SOL     OW23588   9.293   8.303   7.592 -0.4281 -0.2589  0.2360
40104SOL    HW123589   9.218   8.337   7.542 -0.1110 -2.3620 -1.8405
40104SOL    HW223590   9.270   8.212   7.610  1.7945 -1.0817 -0.8407
40105SOL     OW23591   0.796   1.441  10.195  0.1240 -0.0328  0.1399
40105SOL    HW123592   0.750   1.364  10.229 -0.2555  0.9057  1.8468
40105SOL    HW223593   0.755   1.515  10.240 -1.5430  1.5361 -3.5290
40106SOL     OW23594   0.430   4.390   9.137  0.2723  0.1137  0.4243
40106SOL    HW123595   0.351   4.395   9.191 -0.0891  2.2176 -0.2027
40106SOL    HW223596   0.484   4.463   9.167  1.4572 -0.5861  0.0374
40107SOL     OW23597   9.368   2.808  10.495 -0.4066  0.1163 -0.0029
40107SOL    HW123598   9.278   2.840  10.487  0.2088  1.9371 -0.0943
40107SOL    HW223599   9.389   2.817  10.588 -0.3102 -0.3250  0.0226
40108SOL     OW23600  10.825   1.320   3.120  0.1928  0.2345 -0.0629
40108SOL    HW123601  10.821   1.416   3.114  1.1536  0.2285 -1.0888
40108SOL    HW223602  10.918   1.299   3.117 -0.0054 -0.7341  0.1495
40109SOL     OW23603   9.236  10.108  10.946 -0.1265 -0.0433  0.2178
40109SOL    HW123604   9.326  10.123  10.917 -0.4761  1.5387 -0.1578
40109SOL    HW223605   9.196  10.059  10.874 -0.2026  1.3429 -0.7190
40110SOL     OW23606   6.908   5.255  10.293 -0.3884 -0.4984  0.6492
40110SOL    HW123607   6.976   5.292  10.237 -1.6858 -0.1300 -0.7601
40110SOL    HW223608   6.916   5.303  10.375 -0.2804  1.0233 -0.2169
40111SOL     OW23609   5.283   4.525   7.801 -0.0711 -0.0702 -0.3954
40111SOL    HW123610   5.193   4.556   7.804  0.1375  0.5432 -0.3600
40111SOL    HW223611   5.313   4.546   7.713  0.0515 -0.2234 -0.3899
40112SOL     OW23612   5.889   2.198   8.564 -0.0781  0.0291  0.2023
40112SOL    HW123613   5.914   2.281   8.526  0.4016 -0.6748 -1.0602
40112SOL    HW223614   5.941   2.133   8.518  0.1592 -0.9191  1.7158
40113SOL     OW23615   9.031   3.419   3.849  0.0884 -0.3856 -0.5148
40113SOL    HW123616   9.045   3.391   3.939 -1.1970 -0.6239 -0.3693
40113SOL    HW223617   9.120   3.432   3.814  0.6090  1.8691  1.4043
40114SOL     OW23618  10.754   7.556   5.299 -0.0572 -0.3515 -0.1090
40114SOL    HW123619  10.796   7.629   5.344 -2.3488  1.2457 -0.4063
40114SOL    HW223620  10.753   7.485   5.363  0.3490  0.5463  0.9182
40115SOL     OW23621   9.970   9.679   0.474  0.0379  0.1285 -0.2116
40115SOL    HW123622   9.990   9.627   0.552  0.1550 -0.7072 -0.7851
40115SOL    HW223623   9.875   9.674   0.466  0.0828 -0.3701 -0.5048
40116SOL     OW23624   0.842   9.166   6.774  0.2371  0.1223 -0.0982
40116SOL    HW123625   0.793   9.133   6.849  1.4022 -1.3157  0.0696
40116SOL    HW223626   0.856   9.259   6.794  0.4450 -0.2025  1.4428
40117SOL     OW23627  10.075   1.186   6.464  0.4704  0.5606  0.1834
40117SOL    HW123628  10.089   1.134   6.386 -2.9804 -0.2981 -0.0391
40117SOL    HW223629  10.132   1.262   6.454  0.1550  0.4654 -3.1533
40118SOL     OW23630   6.442   9.779   1.834 -0.3810 -0.2462  0.3241
40118SOL    HW123631   6.461   9.705   1.776  0.5729 -0.5227  0.9572
40118SOL    HW223632   6.434   9.854   1.776 -0.9866 -0.7763 -0.2966
40119SOL     OW23633   9.912   9.283   0.282  0.0918 -0.3812  0.5053
40119SOL    HW123634   9.956   9.364   0.256  1.1769 -1.0579  0.1596
40119SOL    HW223635   9.909   9.288   0.377 -0.0043  0.1358  0.4830
40120SOL     OW23636   1.995   5.018   3.909 -0.4676 -0.4044 -0.2044
40120SOL    HW123637   1.933   4.972   3.852 -0.4642 -0.8512  0.1469
40120SOL    HW223638   2.081   5.000   3.871 -0.4159 -1.1854  0.2667
40121SOL     OW23639   0.437   8.182   1.310 -0.5844 -0.2131 -0.3828
40121SOL    HW123640   0.453   8.229   1.228  0.1780  0.9117  0.3838
40121SOL    HW223641   0.380   8.110   1.285 -0.1488 -0.0573 -1.9561
40122SOL     OW23642   7.110   1.271   9.460  0.5367 -0.5793 -0.1721
40122SOL    HW123643   7.018   1.295   9.451  0.9235  1.8655  1.6236
40122SOL    HW223644   7.120   1.248   9.552  1.3182 -3.0754 -0.7976
40123SOL     OW23645   0.467   4.611   6.380 -0.0260 -0.1593  0.1217
40123SOL    HW123646   0.483   4.701   6.354  0.8516 -0.2373  0.3657
40123SOL    HW223647   0.549   4.582   6.419  0.1678 -1.5137 -1.2172
40124SOL     OW23648   4.075   2.077   8.260  0.1085  0.4858 -0.1809
40124SOL    HW123649   4.086   2.113   8.172 -0.1693  2.0186  0.3901
40124SOL    HW223650   4.161   2.040   8.281  0.4072  0.8189 -0.7911
40125SOL     OW23651   3.003  11.184   4.244  0.2007 -0.9713  0.8065
40125SOL    HW123652   2.977  11.096   4.218  2.8558 -2.0209  1.3763
40125SOL    HW223653   3.084  11.171   4.294  0.1053  1.7150  1.8121
40126SOL     OW23654   1.225   2.998   3.279  0.3867  0.1205  0.2082
40126SOL    HW123655   1.243   2.912   3.318 -1.2282  0.1492  1.0970
40126SOL    HW223656   1.158   2.981   3.213 -0.3386  0.7413  0.7609
40127SOL     OW23657   2.885   3.473   2.220 -0.4796 -0.2658 -0.0366
40127SOL    HW123658   2.905   3.549   2.274 -0.3305  0.1904 -0.7317
40127SOL    HW223659   2.954   3.410   2.241 -1.3019 -0.7176  1.4778
40128SOL     OW23660  10.937  10.151   8.919 -0.2009  0.0543 -0.0929
40128SOL    HW123661  10.898  10.077   8.965  0.2505  0.0142  0.2419
40128SOL    HW223662  10.924  10.226   8.978 -0.3444  0.1707 -0.2714
40129SOL     OW23663   6.856   3.075   3.358  0.2412  0.4029 -0.5263
40129SOL    HW123664   6.769   3.090   3.322 -1.1734  0.1088  2.4727
40129SOL    HW223665   6.911   3.142   3.318 -1.9343  2.2093 -0.6676
40130SOL     OW23666   3.334   6.682   1.107  0.2604 -0.0883  0.3027
40130SOL    HW123667   3.399   6.637   1.160  0.8465  2.1058  1.5596
40130SOL    HW223668   3.356   6.658   1.017  0.8014 -1.8922  0.8805
40131SOL     OW23669   3.270   5.315  10.550 -0.0157  0.3399 -0.1279
40131SOL    HW123670   3.352   5.276  10.519  0.0111  0.3283 -0.0439
40131SOL    HW223671   3.291   5.348  10.637  0.1595  1.2047 -0.4895
40132SOL     OW23672   1.034  10.181   4.398  0.3786  0.4124 -0.1611
40132SOL    HW123673   0.976  10.111   4.429  0.4032  0.3884 -0.1700
40132SOL    HW223674   1.054  10.158   4.307  1.0843 -0.0224  0.0994
40133SOL     OW23675   0.136   8.794   3.174  0.4986  0.3678  0.3217
40133SOL    HW123676   0.067   8.743   3.217  0.3316 -1.1536 -1.5979
40133SOL    HW223677   0.093   8.877   3.150 -0.3875 -0.1444  0.0866
40134SOL     OW23678   6.932   1.785  11.381 -0.0323  0.2254  0.5744
40134SOL    HW123679   6.969   1.711  11.333  1.1384  1.4217 -0.4395
40134SOL    HW223680   6.971   1.863  11.341 -0.3190  1.3678  2.3695
40135SOL     OW23681   4.582   1.190   6.618 -0.7429  0.4845  0.4376
40135SOL    HW123682   4.560   1.156   6.705 -0.2619  0.6798  0.6437
40135SOL    HW223683   4.672   1.222   6.628 -0.4832 -0.0086 -0.2906
40136SOL     OW23684   8.478   2.697   7.352 -0.5275 -0.5764  0.5793
40136SOL    HW123685   8.501   2.777   7.303 -0.0839 -1.5635 -0.9061
40136SOL    HW223686   8.500   2.626   7.292  0.2817 -1.8848  2.3576
40137SOL     OW23687   0.380   8.996  11.327 -0.0864 -0.5884 -0.3123
40137SOL    HW123688   0.320   9.055  11.373  0.0431 -0.0445 -0.8290
40137SOL    HW223689   0.467   9.025  11.353  0.0540  0.8548 -2.2056
40138SOL     OW23690   0.398   6.514   1.863 -0.6323 -0.0755 -0.0723
40138SOL    HW123691   0.310   6.487   1.836 -0.9097  1.7520 -1.1370
40138SOL    HW223692   0.386   6.552   1.950 -1.2247  1.5997 -0.8406
40139SOL     OW23693  10.689   5.053   7.818  0.0818  0.4157  0.9304
40139SOL    HW123694  10.655   4.965   7.797  0.5300  0.3002  0.6964
40139SOL    HW223695  10.637   5.112   7.764  0.3745  0.2212  0.4274
40140SOL     OW23696   4.594   0.372   3.621  0.2572  0.8178  0.0904
40140SOL    HW123697   4.602   0.288   3.575 -0.9505  0.2565  0.8426
40140SOL    HW223698   4.568   0.434   3.554 -2.4252 -0.1746  0.0567
40141SOL     OW23699   1.881   2.585   5.995 -0.2695  0.2535  0.2672
40141SOL    HW123700   1.881   2.579   6.091 -0.1720  0.6006  0.2914
40141SOL    HW223701   1.863   2.677   5.977  2.2746  0.7831  0.0074
40142SOL     OW23702   9.539   3.059   5.054 -0.8678  0.2838 -0.2419
40142SOL    HW123703   9.502   2.999   5.118 -0.5441 -0.1747 -0.4739
40142SOL    HW223704   9.605   3.108   5.103  0.0127 -0.6840 -0.4053
40143SOL     OW23705   2.547   4.833   5.466  0.4281 -0.0740 -0.2650
40143SOL    HW123706   2.552   4.859   5.374 -0.7399  1.1768 -0.0155
40143SOL    HW223707   2.547   4.916   5.514 -1.7140 -0.5470  0.6866
40144SOL     OW23708   6.524   4.584   6.250 -0.2175 -0.6341 -0.1734
40144SOL    HW123709   6.592   4.530   6.208 -0.1977 -0.7061 -0.0495
40144SOL    HW223710   6.509   4.542   6.335  1.5840  0.9225  1.0256
40145SOL     OW23711   5.396   9.074  11.342  0.3942 -0.1466 -0.0744
40145SOL    HW123712   5.391   8.992  11.292 -1.7392 -0.2724  0.2095
40145SOL    HW223713   5.321   9.125  11.310  0.1068  0.5534  1.6170
40146SOL     OW23714   2.973   8.397   6.736 -0.2072 -0.6026  0.1936
40146SOL    HW123715   2.969   8.301   6.732  2.7697 -0.7762 -0.4481
40146SOL    HW223716   3.058   8.419   6.699 -1.9106  2.5265 -2.2820
40147SOL     OW23717   1.506   9.024   6.734 -0.2566 -0.1242 -0.0033
40147SOL    HW123718   1.570   9.030   6.663  0.1181 -1.3910  0.2041
40147SOL    HW223719   1.544   9.076   6.804  0.1238 -0.1405 -0.1912
40148SOL     OW23720   0.800   2.022   8.389 -0.0799  0.4415 -0.2568
40148SOL    HW123721   0.858   2.086   8.347  1.0243 -0.2255  0.2020
40148SOL    HW223722   0.805   1.945   8.333  1.4428 -0.4730  1.0531
40149SOL     OW23723   1.181   5.783  10.009  0.3435 -0.4537  0.7086
40149SOL    HW123724   1.234   5.863  10.012  1.4099 -1.0399 -1.0896
40149SOL    HW223725   1.108   5.801  10.069  1.6062  1.0692  1.8969
40150SOL     OW23726   0.211   8.423   0.075  0.4225  0.3036  0.0868
40150SOL    HW123727   0.277   8.489   0.052  1.5956 -0.5321  0.9095
40150SOL    HW223728   0.167   8.404  -0.008  2.1224 -0.0594 -0.7890
40151SOL     OW23729   6.222   7.113   2.238  0.6079  0.1821  0.0579
40151SOL    HW123730   6.314   7.121   2.264  1.3237 -2.7566 -1.2212
40151SOL    HW223731   6.175   7.100   2.321  1.5476  0.0912  0.5898
40152SOL     OW23732   9.555   5.268   0.324 -0.2003  0.0729 -0.3094
40152SOL    HW123733   9.634   5.214   0.327 -0.2772 -0.0107  0.7231
40152SOL    HW223734   9.587   5.357   0.336 -0.1778  0.1467 -0.8898
40153SOL     OW23735   9.842   3.532   2.857  0.3121 -0.0994 -0.1388
40153SOL    HW123736   9.866   3.449   2.817  0.2142 -0.8359  1.2824
40153SOL    HW223737   9.759   3.556   2.815  0.2601 -0.7929 -0.4445
40154SOL     OW23738  10.920   5.856   1.947  0.3984  0.0568 -0.2943
40154SOL    HW123739  10.827   5.839   1.962  0.4999 -0.1439  0.1046
40154SOL    HW223740  10.949   5.902   2.026  0.4876  0.7197 -0.6988
40155SOL     OW23741   3.225  10.706  10.981 -0.1635 -0.6012 -0.3024
40155SOL    HW123742   3.161  10.648  11.023  0.9905 -0.9558  1.0229
40155SOL    HW223743   3.176  10.787  10.966 -0.8445 -0.7356  1.0416
40156SOL     OW23744   0.649   2.314   9.605  0.1172  0.0411  0.5046
40156SOL    HW123745   0.616   2.273   9.685  1.3153  0.2623  1.1332
40156SOL    HW223746   0.584   2.382   9.584 -1.7150 -1.8736 -0.3713
40157SOL     OW23747   3.089   1.587   6.415 -0.6903  0.9841  0.3373
40157SOL    HW123748   3.183   1.592   6.397 -0.3856 -0.2113  1.4253
40157SOL    HW223749   3.063   1.678   6.430  0.0909  1.4271 -0.8594
40158SOL     OW23750   3.223   4.375   9.005  0.4452  0.1022  0.1177
40158SOL    HW123751   3.231   4.465   9.037 -0.0642  0.0911  0.2779
40158SOL    HW223752   3.248   4.320   9.079  0.4651  0.1046  0.1126
40159SOL     OW23753   8.637  10.064   2.322 -0.2946 -0.2870  0.0611
40159SOL    HW123754   8.597  10.014   2.251 -0.8034 -0.7035  0.6323
40159SOL    HW223755   8.618  10.014   2.401  0.8803 -0.2071  0.4195
40160SOL     OW23756  11.127   3.777   1.858 -0.3161 -0.4868 -0.0499
40160SOL    HW123757  11.187   3.780   1.932  0.0176  0.0441 -0.3282
40160SOL    HW223758  11.179   3.740   1.786  0.2538  1.5452 -0.7659
40161SOL     OW23759   5.492  10.225   3.414 -0.1718  0.0655  0.0490
40161SOL    HW123760   5.562  10.282   3.386  0.2674  0.9779  2.6804
40161SOL    HW223761   5.531  10.171   3.483 -1.5201 -0.8974  0.1048
40162SOL     OW23762   4.692  10.676   2.847  0.0500 -0.6595  0.1197
40162SOL    HW123763   4.638  10.601   2.824  1.2252 -1.7251  0.7193
40162SOL    HW223764   4.773  10.664   2.797  0.1765  0.3168  0.0645
40163SOL     OW23765   0.379   7.220   6.138  0.2967  0.2354  0.0857
40163SOL    HW123766   0.425   7.302   6.159 -0.1175  0.3072  0.7535
40163SOL    HW223767   0.345   7.190   6.222 -0.0488 -0.3241 -0.2495
40164SOL     OW23768  10.759   6.941  10.935  0.0098 -0.2356 -0.0679
40164SOL    HW123769  10.797   6.875  10.877 -0.0741 -0.1515 -0.2175
40164SOL    HW223770  10.730   7.011  10.877  0.0427 -0.0931  0.0872
40165SOL     OW23771   6.715   3.842   1.846  0.0494  0.2940  0.7376
40165SOL    HW123772   6.749   3.925   1.879  0.0712  1.1100 -1.2063
40165SOL    HW223773   6.624   3.840   1.873 -0.1589  1.3305  0.1497
40166SOL     OW23774   3.336  11.175   7.808  0.2861  0.1401  0.0812
40166SOL    HW123775   3.304  11.156   7.720  0.4171  0.6916 -0.0842
40166SOL    HW223776   3.424  11.210   7.795 -0.3687  1.9524  0.3016
40167SOL     OW23777  11.230   2.596  10.005  0.1278 -0.0181  0.9169
40167SOL    HW123778  11.203   2.632  10.089 -0.7760 -2.9630  2.0302
40167SOL    HW223779  11.158   2.617   9.945 -0.2348  0.2173  1.4332
40168SOL     OW23780   4.465   4.076   3.995 -0.0006 -0.2944 -0.2119
40168SOL    HW123781   4.473   4.005   4.058 -0.3827 -0.0195  0.1529
40168SOL    HW223782   4.466   4.155   4.048  1.0348  0.0141 -0.6599
40169SOL     OW23783   4.487   2.086   2.874 -0.1009 -0.3851 -0.4258
40169SOL    HW123784   4.542   2.042   2.809  0.8939  0.3594 -0.1068
40169SOL    HW223785   4.471   2.019   2.941  2.2566 -0.0384  0.5735
40170SOL     OW23786   1.637   2.672   2.066  0.3201  0.0142  0.2225
40170SOL    HW123787   1.639   2.581   2.035  1.4073 -0.7084  2.2062
40170SOL    HW223788   1.632   2.664   2.161  2.4411  1.9988  0.5884
40171SOL     OW23789   7.567   4.218   0.834  0.7299 -0.0466 -0.2083
40171SOL    HW123790   7.644   4.184   0.789  0.7965 -2.4596  1.4938
40171SOL    HW223791   7.541   4.146   0.892 -2.8746  0.6475 -0.7761
40172SOL     OW23792   5.990   9.393   1.389  0.0232  0.3720 -0.1981
40172SOL    HW123793   5.987   9.485   1.415  2.1832 -0.1628  2.3231
40172SOL    HW223794   5.935   9.347   1.453 -0.5162 -0.2148 -1.0489
40173SOL     OW23795   2.792   0.518   6.176 -0.6631 -0.1441 -0.1495
40173SOL    HW123796   2.837   0.602   6.174 -1.5071  0.3137 -0.2102
40173SOL    HW223797   2.836   0.469   6.246 -1.3266  1.0238  1.1254
40174SOL     OW23798   0.366   5.939   9.050  0.0789 -0.2841  0.4229
40174SOL    HW123799   0.390   6.026   9.081 -0.9498  0.4985 -0.8895
40174SOL    HW223800   0.366   5.884   9.129 -0.0386  1.0670  1.3917
40175SOL     OW23801   5.375   7.612   3.064  0.4548  0.2106 -0.2424
40175SOL    HW123802   5.431   7.542   3.032 -0.1418 -0.5030  0.2515
40175SOL    HW223803   5.319   7.571   3.130 -1.1822  0.7226 -1.2456
40176SOL     OW23804   7.864   3.465  10.733 -0.0907  0.2729  0.4858
40176SOL    HW123805   7.916   3.544  10.719 -0.9108  0.9337  1.0474
40176SOL    HW223806   7.919   3.393  10.701  0.5331  1.0993 -0.3472
40177SOL     OW23807   1.176   7.375   8.014 -1.0831  0.3447  0.1454
40177SOL    HW123808   1.120   7.321   7.959 -1.2710  1.0400 -0.3614
40177SOL    HW223809   1.265   7.355   7.987 -1.0958 -0.4753  0.6828
40178SOL     OW23810   9.575   0.744   8.464  0.2346  0.1754  0.1230
40178SOL    HW123811   9.484   0.712   8.462  0.0665 -0.1325  4.1062
40178SOL    HW223812   9.624   0.674   8.506  2.5134  0.1647 -2.3529
40179SOL     OW23813   9.972   3.815   8.530 -0.2520  0.5755  0.5081
40179SOL    HW123814   9.916   3.880   8.573 -1.5963  0.9861 -1.6972
40179SOL    HW223815  10.031   3.867   8.476 -1.0709  0.0215 -0.9660
40180SOL     OW23816   4.115   4.988   5.209  0.0233 -0.1884 -0.0007
40180SOL    HW123817   4.091   4.896   5.224  0.5825 -0.0564  1.9808
40180SOL    HW223818   4.147   5.018   5.293  1.4044  1.3898 -1.0345
40181SOL     OW23819   9.682   9.384   6.740 -0.0466 -0.0267 -0.3498
40181SOL    HW123820   9.722   9.437   6.809 -1.2241  1.1711 -0.5255
40181SOL    HW223821   9.616   9.332   6.785  0.4666 -0.6479 -0.3117
40182SOL     OW23822   0.590   3.166   3.059  0.2789  0.4898  0.0184
40182SOL    HW123823   0.565   3.162   2.967  0.2186  0.9504  0.0120
40182SOL    HW223824   0.586   3.259   3.081  1.4967  0.5265  0.1609
40183SOL     OW23825   6.774   7.515   1.582  0.0651  0.1791  0.1391
40183SOL    HW123826   6.817   7.454   1.521  1.4995 -0.0024  1.2926
40183SOL    HW223827   6.713   7.460   1.631  0.0706  0.0217 -0.0276
40184SOL     OW23828   4.540   6.359   1.899  0.5296 -0.2206 -0.2046
40184SOL    HW123829   4.542   6.364   1.995 -0.8957  1.5919 -0.1999
40184SOL    HW223830   4.594   6.432   1.870  0.4629 -0.3958 -0.7774
40185SOL     OW23831   9.997   6.144  11.396  0.4174 -0.4443  0.5628
40185SOL    HW123832  10.029   6.149  11.486 -1.4316 -1.9405  1.3684
40185SOL    HW223833   9.957   6.230  11.380  0.6348 -0.2161  1.2253
40186SOL     OW23834   3.692   4.256   2.915  0.8241  0.1909  0.2798
40186SOL    HW123835   3.663   4.166   2.898  0.1490  0.2742  0.9390
40186SOL    HW223836   3.749   4.277   2.841 -0.8607  0.0500 -1.1137
40187SOL     OW23837   8.783   8.298   9.688  0.2715 -0.2408  0.0814
40187SOL    HW123838   8.868   8.338   9.703  0.7879  0.2299 -3.4236
40187SOL    HW223839   8.799   8.203   9.694  0.7896 -0.1327  0.4522
40188SOL     OW23840   0.460   8.225   2.008  0.1482 -0.1347  0.1420
40188SOL    HW123841   0.517   8.293   1.971  0.0344  0.5361  1.1581
40188SOL    HW223842   0.517   8.178   2.070 -0.1850  0.0308  0.5773
40189SOL     OW23843   2.360   4.057   0.608 -0.4618  0.2008 -0.5609
40189SOL    HW123844   2.305   4.098   0.674  0.2159  0.6665 -0.2703
40189SOL    HW223845   2.447   4.095   0.622 -0.1434 -0.2477 -1.2388
40190SOL     OW23846   7.603   4.046   2.012 -0.4554  0.0194 -0.2921
40190SOL    HW123847   7.691   4.066   1.978 -0.4057 -0.1410 -0.2606
40190SOL    HW223848   7.604   3.952   2.026 -0.5193  0.0682  0.0361
40191SOL     OW23849   0.215   7.463   4.755  0.2150  0.1386  0.2008
40191SOL    HW123850   0.229   7.480   4.848 -0.5637  0.1471  0.3221
40191SOL    HW223851   0.247   7.542   4.711  0.6497  0.1042  0.4526
40192SOL     OW23852   6.365  10.031   4.115 -0.6144 -0.3779 -0.4107
40192SOL    HW123853   6.442   9.990   4.075 -1.3642 -1.8185 -0.4393
40192SOL    HW223854   6.293  10.009   4.057 -1.3894 -0.8076  0.6924
40193SOL     OW23855   5.542   5.280   8.749  0.2755  0.2793  0.4123
40193SOL    HW123856   5.557   5.354   8.692  0.0681  0.3213  0.4113
40193SOL    HW223857   5.500   5.317   8.827 -0.5545  0.0680  0.0853
40194SOL     OW23858   3.341   8.370   2.854 -0.1482 -0.1419  0.1873
40194SOL    HW123859   3.263   8.400   2.808 -0.2112  1.7688  1.4130
40194SOL    HW223860   3.349   8.278   2.831 -1.8574  0.0100 -1.2101
40195SOL     OW23861   3.197   5.207   9.451 -0.5819 -0.3971 -0.0914
40195SOL    HW123862   3.214   5.133   9.510 -0.7864 -0.6914 -0.3976
40195SOL    HW223863   3.107   5.194   9.422 -0.3250 -0.5193 -0.8419
40196SOL     OW23864   8.923  10.265   8.255 -0.1488 -0.3064  0.4997
40196SOL    HW123865   9.016  10.266   8.277 -0.2590  1.2008  0.9833
40196SOL    HW223866   8.887  10.342   8.298 -0.8956  1.2856 -2.6589
40197SOL     OW23867  11.338   9.273  10.438  0.7983 -1.0952  0.0627
40197SOL    HW123868  11.423   9.293  10.479  0.0003  2.6636  0.2986
40197SOL    HW223869  11.342   9.316  10.353 -1.1689  0.0905  0.5038
40198SOL     OW23870   1.265   1.122   5.032 -0.3203  0.0766 -0.0282
40198SOL    HW123871   1.360   1.114   5.027 -0.3692 -0.1483 -0.7485
40198SOL    HW223872   1.232   1.038   4.998 -0.7727  0.2127  0.0685
40199SOL     OW23873   1.865   6.783  11.278 -0.3815 -0.1918 -0.9035
40199SOL    HW123874   1.878   6.813  11.367 -0.8068  0.3199 -1.0093
40199SOL    HW223875   1.817   6.701  11.287  0.3739 -0.6149 -0.6337
40200SOL     OW23876   9.799   1.950   6.760 -0.6378 -0.1077 -0.4044
40200SOL    HW123877   9.723   1.946   6.819 -0.3345  0.2957  0.0238
40200SOL    HW223878   9.832   1.860   6.757  0.1788  0.1135  1.1671
40201SOL     OW23879   2.766   4.672   8.580 -0.1837 -0.7582 -0.1612
40201SOL    HW123880   2.759   4.637   8.491 -0.5506  0.3877 -0.6057
40201SOL    HW223881   2.677   4.700   8.601  0.2923  1.0645 -0.3464
40202SOL     OW23882   8.061  10.732  10.374  0.0776 -0.3806  0.1612
40202SOL    HW123883   8.144  10.718  10.327  0.8094  2.2116  0.5072
40202SOL    HW223884   8.034  10.820  10.348 -1.3988 -0.2866  1.8436
40203SOL     OW23885   6.332  10.319   9.216 -0.3612 -0.1495  0.2919
40203SOL    HW123886   6.293  10.274   9.141 -1.5864  0.5529  0.4699
40203SOL    HW223887   6.282  10.400   9.223 -0.3555 -0.2621  1.9511
40204SOL     OW23888   3.769   2.178   6.772 -0.4604  0.9454  0.3947
40204SOL    HW123889   3.815   2.114   6.717  1.5985  0.6758  2.2677
40204SOL    HW223890   3.755   2.253   6.715  0.8302  0.3663 -0.7409
40205SOL     OW23891   2.872   4.936   5.140  0.0637  0.3438  0.0745
40205SOL    HW123892   2.832   4.996   5.203  0.2959  0.8435 -0.2459
40205SOL    HW223893   2.964   4.962   5.137  0.1585 -0.0023 -0.1040
40206SOL     OW23894   1.510   3.402   2.759  0.3710  0.7497  0.1084
40206SOL    HW123895   1.473   3.403   2.671 -1.0658  0.1049  0.6721
40206SOL    HW223896   1.540   3.312   2.772 -0.5317  0.5226  0.6976
40207SOL     OW23897   7.620   3.339   2.849  0.2829 -0.0680  0.2146
40207SOL    HW123898   7.616   3.361   2.756  2.0932 -0.0274  0.1077
40207SOL    HW223899   7.657   3.416   2.891  1.7917 -0.9360  0.5805
40208SOL     OW23900   8.519  10.178   9.195 -0.0324  0.1632  0.4432
40208SOL    HW123901   8.584  10.248   9.207 -0.0110  0.0637  0.9513
40208SOL    HW223902   8.519  10.131   9.279  1.0419 -1.3829 -0.3814
40209SOL     OW23903   9.595   1.481   6.439  0.0546 -0.4417 -0.4597
40209SOL    HW123904   9.592   1.519   6.351  0.3905 -0.4619 -0.4817
40209SOL    HW223905   9.656   1.536   6.488  1.0474 -1.2910 -0.6736
40210SOL     OW23906   0.104   4.889   4.209 -0.3258 -0.1290 -0.2923
40210SOL    HW123907   0.143   4.976   4.206 -1.0389  0.2342  0.4074
40210SOL    HW223908   0.017   4.903   4.249  0.8791 -1.5760  3.3098
40211SOL     OW23909   5.752   2.660  10.200  0.2655  0.1553 -0.1132
40211SOL    HW123910   5.725   2.571  10.219 -1.0143  0.1652 -1.6815
40211SOL    HW223911   5.732   2.673  10.107  0.8660  1.9141 -0.0493
40212SOL     OW23912   3.892   7.713  10.372  0.2288  0.3767 -0.4241
40212SOL    HW123913   3.944   7.793  10.365 -0.7804  1.2617  1.4752
40212SOL    HW223914   3.826   7.733  10.439 -1.1726 -1.4457 -1.1808
40213SOL     OW23915   9.080   0.353   5.393  0.1997  0.5153  0.1683
40213SOL    HW123916   9.080   0.296   5.470 -0.7202 -1.1721 -1.0036
40213SOL    HW223917   8.990   0.387   5.388  0.4340  1.1582  0.1965
40214SOL     OW23918   6.198   3.967   3.715 -0.0276 -0.0622 -0.0714
40214SOL    HW123919   6.118   3.918   3.699  0.9635 -1.7764  0.0214
40214SOL    HW223920   6.168   4.056   3.736 -1.8637 -0.5759 -0.3764
40215SOL     OW23921   1.657   5.196   1.525 -0.3688 -0.3734 -0.4873
40215SOL    HW123922   1.717   5.125   1.503  0.1675 -0.3320  0.7579
40215SOL    HW223923   1.602   5.206   1.447  0.4565 -1.2095 -1.2013
40216SOL     OW23924   3.415   4.423   2.793 -0.0526 -0.3400 -0.1015
40216SOL    HW123925   3.399   4.330   2.778 -0.0864 -0.0377 -2.3643
40216SOL    HW223926   3.393   4.465   2.710 -1.2067  1.8745  1.2289
40217SOL     OW23927   4.582   7.579   0.254  0.3636 -0.3514  0.4835
40217SOL    HW123928   4.608   7.669   0.273  1.0206 -0.2938 -0.5683
40217SOL    HW223929   4.487   7.581   0.255  0.2016  1.1720 -2.6923
40218SOL     OW23930   1.548   2.283   7.069  0.0778  0.1786  0.9130
40218SOL    HW123931   1.627   2.293   7.121 -0.1009 -0.2899  1.2805
40218SOL    HW223932   1.509   2.201   7.099  0.2054 -0.3414 -0.2561
40219SOL     OW23933  11.218   6.762   1.030  0.3165  0.2017 -0.1649
40219SOL    HW123934  11.148   6.708   0.993 -0.3218  1.3247 -0.6359
40219SOL    HW223935  11.292   6.748   0.971 -0.0425  0.3213 -0.6587
40220SOL     OW23936   7.727   0.799   6.075 -0.4371  0.2293  0.3225
40220SOL    HW123937   7.687   0.802   5.988 -1.1763 -1.2896  0.5711
40220SOL    HW223938   7.751   0.707   6.088 -2.4470 -0.0796  2.5986
40221SOL     OW23939  10.206   5.418   3.852  0.3991  0.1536 -0.0107
40221SOL    HW123940  10.203   5.385   3.762  2.9499 -0.1333 -0.0759
40221SOL    HW223941  10.188   5.341   3.907 -0.7585  0.2452 -0.2368
40222SOL     OW23942   0.430   3.926   0.841 -0.3835  0.1333 -1.1997
40222SOL    HW123943   0.366   3.965   0.900  0.2395 -1.2083  0.4627
40222SOL    HW223944   0.490   3.998   0.819 -0.5944  0.6603 -0.1154
40223SOL     OW23945  11.363   6.990   9.171 -0.2098 -0.5315 -0.2287
40223SOL    HW123946  11.410   7.073   9.184 -1.2013 -0.1665  1.3085
40223SOL    HW223947  11.273   7.017   9.155 -0.8778 -1.3265  1.9213
40224SOL     OW23948   1.887   6.352   1.508 -0.1920 -0.2183  0.2577
40224SOL    HW123949   1.849   6.440   1.511 -1.3970 -0.6993 -0.6302
40224SOL    HW223950   1.856   6.310   1.588 -0.6110 -0.2353  0.0883
40225SOL     OW23951   2.554   5.789   5.333  0.0186  0.6562 -0.2060
40225SOL    HW123952   2.572   5.727   5.262 -0.0402  0.6932 -0.2539
40225SOL    HW223953   2.567   5.739   5.413 -0.4171  0.4690 -0.2481
40226SOL     OW23954   5.140   3.161   3.001  0.2502 -0.5530 -0.3136
40226SOL    HW123955   5.194   3.147   2.923 -0.7549 -2.7263 -0.6884
40226SOL    HW223956   5.067   3.214   2.971 -0.4711 -1.9134 -1.0711
40227SOL     OW23957   0.811   9.574   7.617  0.1386  0.1633 -0.0126
40227SOL    HW123958   0.866   9.532   7.683 -0.6610  1.0147  1.2394
40227SOL    HW223959   0.723   9.570   7.653 -0.2281  1.2065 -0.7344
40228SOL     OW23960   0.102  11.013   6.829 -0.3335  0.2043  0.1089
40228SOL    HW123961   0.195  11.028   6.813 -0.3788 -0.1121 -0.4659
40228SOL    HW223962   0.093  11.020   6.924  0.3775 -0.3265  0.2244
40229SOL     OW23963   7.999   9.385   1.380 -0.2510 -0.4611  0.2884
40229SOL    HW123964   8.075   9.422   1.334  0.5809 -1.7300  0.5946
40229SOL    HW223965   8.006   9.291   1.366 -2.3901 -0.5303 -0.5682
40230SOL     OW23966   2.882  10.703  10.549  0.1622 -0.2690  0.0565
40230SOL    HW123967   2.881  10.699  10.453  0.6249  0.9670 -0.0208
40230SOL    HW223968   2.846  10.789  10.570 -2.1107 -1.3928  1.1062
40231SOL     OW23969   0.008   4.601   4.818  0.0351  0.4142  0.0348
40231SOL    HW123970   0.089   4.602   4.869 -0.2288 -0.3888  0.4990
40231SOL    HW223971  -0.019   4.693   4.812  0.6069  0.6143  0.4834
40232SOL     OW23972   7.733   6.502   2.718 -0.1813 -0.5297 -0.4112
40232SOL    HW123973   7.807   6.563   2.721 -0.2796 -0.4160 -0.2559
40232SOL    HW223974   7.771   6.419   2.691 -0.4548  0.2356 -3.4827
40233SOL     OW23975   0.866  10.074   3.929  0.3626 -0.4148  0.2343
40233SOL    HW123976   0.897  10.118   4.008  1.1477 -2.0386  0.8762
40233SOL    HW223977   0.943  10.068   3.872 -0.0813  0.3083 -0.4620
40234SOL     OW23978   3.380   9.846   1.548  0.2222 -0.0357 -0.2664
40234SOL    HW123979   3.425   9.928   1.526 -0.2758  0.8630  1.7885
40234SOL    HW223980   3.449   9.789   1.582  0.3414  0.0811 -0.3110
40235SOL     OW23981   2.966   5.478   7.680 -0.2323 -0.3353  0.2528
40235SOL    HW123982   3.012   5.451   7.759  2.1379  3.5301  0.4378
40235SOL    HW223983   3.020   5.446   7.608 -0.6795 -1.1009  0.2413
40236SOL     OW23984   2.328   1.697   9.531  0.4614 -0.3196 -0.4297
40236SOL    HW123985   2.311   1.732   9.618  1.2247  0.1047 -0.4452
40236SOL    HW223986   2.403   1.747   9.499  0.2911 -0.5825 -1.2660
40237SOL     OW23987   2.017  10.989  10.049 -0.7507  0.1296  0.1480
40237SOL    HW123988   2.074  10.914  10.031  0.2498  0.1694  2.7200
40237SOL    HW223989   2.078  11.061  10.068 -1.6557  0.6263  1.2876
40238SOL     OW23990   3.192   1.760   7.806  0.6065 -0.6873 -0.3709
40238SOL    HW123991   3.137   1.818   7.860  0.9601 -1.3950  0.7813
40238SOL    HW223992   3.139   1.742   7.729  0.0620  0.3065 -0.2554
40239SOL     OW23993   6.184   0.872   7.975  0.3463 -0.3798 -0.0639
40239SOL    HW123994   6.096   0.872   8.013  0.0550  0.5363 -0.6755
40239SOL    HW223995   6.169   0.892   7.882  1.2518  0.7498  0.0101
40240SOL     OW23996   8.731   1.825   0.329 -0.3993 -0.1259 -0.0772
40240SOL    HW123997   8.697   1.742   0.360  0.2266 -0.6690 -0.8109
40240SOL    HW223998   8.714   1.825   0.235 -0.8675  0.8119 -0.0058
40241SOL     OW23999  10.804   9.060   9.671  0.6099 -0.2823  0.0923
40241SOL    HW124000  10.861   9.006   9.725 -0.5892 -2.2712 -0.5157
40241SOL    HW224001  10.847   9.062   9.586  0.1017 -1.2908 -0.2035
40242SOL     OW24002   4.003   2.328   5.639  0.0904 -0.5132 -0.1971
40242SOL    HW124003   3.984   2.405   5.586  0.0850 -1.5168 -1.7052
40242SOL    HW224004   3.948   2.259   5.601  1.9883 -1.9030 -0.5525
40243SOL     OW24005   6.576   9.906   4.317  0.6768 -0.3363 -0.4667
40243SOL    HW124006   6.544   9.839   4.256  0.6084  0.2096 -1.0279
40243SOL    HW224007   6.644   9.861   4.368  0.2835 -0.9796 -0.4944
40244SOL     OW24008   1.303   9.778   1.771  0.1553 -0.1180  0.0236
40244SOL    HW124009   1.306   9.760   1.865  0.3967  0.2816  0.0956
40244SOL    HW224010   1.395   9.785   1.746  0.0802  0.2494 -0.1475
40245SOL     OW24011   5.021   2.259   4.260  0.0783 -0.1822  0.1838
40245SOL    HW124012   4.992   2.193   4.197 -0.1974 -1.0531  1.1730
40245SOL    HW224013   5.116   2.256   4.256  0.0671  0.3603 -0.7618
40246SOL     OW24014   0.510  11.210   2.138 -0.3444 -0.4445  0.0346
40246SOL    HW124015   0.527  11.283   2.198 -0.3183 -0.3120 -0.1367
40246SOL    HW224016   0.491  11.136   2.196 -0.8360 -0.1884  0.1993
40247SOL     OW24017   2.394   0.965   4.329  0.7662  0.1798 -0.0949
40247SOL    HW124018   2.365   0.932   4.244  0.5965  0.0332  0.0204
40247SOL    HW224019   2.330   0.932   4.391  1.7805 -1.1058  0.3170
40248SOL     OW24020   1.427   1.054   1.136 -0.6174  0.1291 -0.1142
40248SOL    HW124021   1.503   1.025   1.086 -1.7052  0.2344 -1.9045
40248SOL    HW224022   1.461   1.123   1.194  0.8458 -0.6434 -0.0212
40249SOL     OW24023   7.383   5.767   6.940 -0.2625 -0.5173  0.2179
40249SOL    HW124024   7.326   5.830   6.983  1.3296  0.2719  1.3102
40249SOL    HW224025   7.427   5.721   7.012  0.7304 -0.8368 -0.5545
40250SOL     OW24026   0.634   3.412   4.935 -0.0545 -0.3293 -0.0592
40250SOL    HW124027   0.697   3.354   4.891  1.1872  0.3016  0.8176
40250SOL    HW224028   0.656   3.499   4.902 -1.3947 -0.2421 -0.7784
40251SOL     OW24029   2.379   5.628  10.902 -0.7065  0.2793  0.4941
40251SOL    HW124030   2.309   5.606  10.841 -1.6438  0.2659  1.5473
40251SOL    HW224031   2.453   5.653  10.846 -1.3800 -0.2143 -0.6350
40252SOL     OW24032   7.024   2.043  10.698 -0.5701 -0.6060 -0.6569
40252SOL    HW124033   6.939   2.056  10.741 -0.8305 -0.1617 -1.2923
40252SOL    HW224034   7.004   1.986  10.624 -0.6414  0.7886 -1.7729
40253SOL     OW24035   8.614   7.165   0.153 -0.5315  0.1239  0.1440
40253SOL    HW124036   8.567   7.118   0.085 -0.8128  0.3945  0.1531
40253SOL    HW224037   8.707   7.148   0.134 -0.5110  1.7827 -1.4646
40254SOL     OW24038  10.702   8.250   5.894 -0.1413  0.3369 -0.2751
40254SOL    HW124039  10.733   8.174   5.845 -1.1163 -0.8762  0.8996
40254SOL    HW224040  10.701   8.220   5.985 -0.4792  1.7947  0.2240
40255SOL     OW24041   4.995   2.533   6.058 -0.1403 -0.5513 -0.7195
40255SOL    HW124042   5.087   2.521   6.033 -0.2744  0.7236 -1.9757
40255SOL    HW224043   4.949   2.543   5.974 -1.1244  0.7560 -0.0653
40256SOL     OW24044   9.180   0.157   7.861  0.2805 -0.4898  0.0293
40256SOL    HW124045   9.195   0.203   7.779 -0.3563  0.9064  0.6578
40256SOL    HW224046   9.268   0.138   7.895  0.5863  1.1828  0.2355
40257SOL     OW24047   2.602   8.561   0.113  0.1561 -0.2837 -0.2733
40257SOL    HW124048   2.588   8.501   0.040 -1.1843  0.0366 -0.2999
40257SOL    HW224049   2.675   8.616   0.085  1.8386 -2.2711  0.0138
40258SOL     OW24050   3.437   6.298   3.666 -0.3465 -0.5629  0.0875
40258SOL    HW124051   3.527   6.329   3.653 -0.3918  0.7388  2.3235
40258SOL    HW224052   3.448   6.206   3.692  0.4701 -0.1092  1.4471
40259SOL     OW24053   9.911   8.857   6.367 -0.2877  0.1607  0.2787
40259SOL    HW124054   9.833   8.898   6.330  0.1618  2.2856  1.4972
40259SOL    HW224055   9.878   8.798   6.435 -0.8678  0.0171 -0.1184
40260SOL     OW24056   2.689   7.541   6.218  0.9310  0.1048 -0.0767
40260SOL    HW124057   2.748   7.571   6.287  1.8952  1.2266 -1.3254
40260SOL    HW224058   2.724   7.456   6.192 -0.9916 -1.5987  2.5388
40261SOL     OW24059   8.016   6.577   9.962  0.4610  0.1013 -0.0138
40261SOL    HW124060   7.957   6.503   9.975 -0.3144  0.3734 -1.7486
40261SOL    HW224061   8.068   6.581  10.042 -1.0328 -0.9079  1.0499
40262SOL     OW24062   6.741   6.853   5.013 -0.3498  0.2177  0.0668
40262SOL    HW124063   6.730   6.775   5.067 -0.6704 -0.9240 -1.5557
40262SOL    HW224064   6.824   6.839   4.967 -1.0134  0.2016 -1.1799
40263SOL     OW24065   8.685   4.169   0.267  0.4322  0.5832 -0.6124
40263SOL    HW124066   8.613   4.189   0.328  0.9796  1.5906 -0.2714
40263SOL    HW224067   8.642   4.126   0.193 -0.4977  0.9530 -0.3073
40264SOL     OW24068   3.549   9.497   6.923 -0.5300 -0.3513 -0.0708
40264SOL    HW124069   3.462   9.457   6.918 -0.9205  0.5416 -1.0459
40264SOL    HW224070   3.602   9.447   6.861 -0.5059 -0.5262  0.0898
40265SOL     OW24071  10.837   9.147   5.137  0.3017  0.5744  0.1020
40265SOL    HW124072  10.785   9.150   5.217  1.5768  0.3254  0.9696
40265SOL    HW224073  10.915   9.199   5.156 -0.2079  2.1015 -1.6493
40266SOL     OW24074   8.262  10.609   3.427  0.4116  0.2709 -0.1757
40266SOL    HW124075   8.255  10.641   3.517  1.3591  1.1215 -0.3972
40266SOL    HW224076   8.197  10.659   3.379 -1.1522 -1.2134  0.2734
40267SOL     OW24077   1.262   9.019   1.286 -0.3192  0.8063  0.1103
40267SOL    HW124078   1.171   8.997   1.265 -0.1499 -0.3898  0.5500
40267SOL    HW224079   1.256   9.075   1.363 -0.6821  0.6349  0.2082
40268SOL     OW24080   2.999   4.181   7.525  0.1679  0.4278 -0.0210
40268SOL    HW124081   3.070   4.194   7.588 -0.1512 -1.0649  0.6745
40268SOL    HW224082   2.980   4.269   7.493  1.1337  1.0734  1.0969
40269SOL     OW24083   7.251   1.152  10.976 -0.0428  0.1804 -0.2399
40269SOL    HW124084   7.175   1.122  10.925 -0.2592  0.7591 -0.2610
40269SOL    HW224085   7.313   1.080  10.970  0.1238  0.4127 -1.7305
40270SOL     OW24086   2.976   9.439  10.999 -0.9966  0.5013  0.8880
40270SOL    HW124087   3.023   9.467  10.920 -2.0684 -1.5406 -0.5540
40270SOL    HW224088   3.045   9.411  11.059 -0.1760  1.8232  0.6228
40271SOL     OW24089   1.200   5.911   3.355 -0.1581  0.0011 -0.4111
40271SOL    HW124090   1.149   5.930   3.434 -0.5226  0.5646 -0.7776
40271SOL    HW224091   1.255   5.837   3.380  0.7855  1.0699  0.8163
40272SOL     OW24092  11.143   8.367   5.002 -0.0636 -0.7717  0.8463
40272SOL    HW124093  11.205   8.294   5.009  0.7196 -0.2408 -0.2767
40272SOL    HW224094  11.178   8.434   5.061  2.0477  0.5943 -1.7484
40273SOL     OW24095   4.096   3.259   9.428  0.0361  0.1610  0.5001
40273SOL    HW124096   4.027   3.324   9.439  0.8767  1.2742 -0.5073
40273SOL    HW224097   4.169   3.293   9.480  0.4705  0.0190 -0.0088
40274SOL     OW24098  10.760   1.429   4.272  0.2579 -0.0954 -0.6160
40274SOL    HW124099  10.818   1.496   4.309  0.2427 -0.3546 -0.1163
40274SOL    HW224100  10.704   1.477   4.211  1.4546  0.0566 -1.6599
40275SOL     OW24101   0.840   5.463  10.395  0.5182  0.4648  0.4409
40275SOL    HW124102   0.792   5.505  10.325 -0.3667 -1.5439 -0.2442
40275SOL    HW224103   0.901   5.404  10.350 -0.3494 -1.1669  1.2847
40276SOL     OW24104  11.046   0.469   1.189  0.2777  0.1350 -0.1228
40276SOL    HW124105  10.984   0.541   1.201 -0.5565 -0.4727 -0.6204
40276SOL    HW224106  11.104   0.473   1.265  1.2327  2.2628 -0.8893
40277SOL     OW24107   2.614   4.713   8.880  0.2317  0.0357  0.1943
40277SOL    HW124108   2.639   4.769   8.806  0.4006 -0.1032  0.1466
40277SOL    HW224109   2.620   4.770   8.956 -0.1202  0.2287  0.0776
40278SOL     OW24110   5.942   1.247   0.388  0.7886 -0.6168  0.1018
40278SOL    HW124111   5.936   1.286   0.301 -0.7375  0.2504  0.5670
40278SOL    HW224112   5.877   1.176   0.388  0.5559 -0.4097  0.6324
40279SOL     OW24113   3.915   9.632   3.585 -0.0012  0.2987 -0.3573
40279SOL    HW124114   3.913   9.711   3.529 -0.8128  1.0664  0.7127
40279SOL    HW224115   3.833   9.587   3.565  0.9205 -0.8541 -1.7199
40280SOL     OW24116  10.188   8.612   3.406 -0.1761  0.3557  0.0000
40280SOL    HW124117  10.099   8.597   3.437  0.1068 -0.4578  0.4446
40280SOL    HW224118  10.239   8.628   3.485  0.4759 -1.3445 -0.0383
40281SOL     OW24119   8.723   1.272   7.960  0.3457  0.0877 -0.3380
40281SOL    HW124120   8.760   1.359   7.975 -0.3409  0.1052  1.5885
40281SOL    HW224121   8.751   1.221   8.037 -0.8265 -0.8415 -0.5075
40282SOL     OW24122   9.831  10.006   9.642  0.0592  0.0469 -0.3798
40282SOL    HW124123   9.858   9.917   9.619  0.1776 -0.1341  0.4145
40282SOL    HW224124   9.853  10.014   9.735 -3.1938 -0.3488  0.5666
40283SOL     OW24125   3.776   4.932   1.895 -0.1881 -0.2600  0.0737
40283SOL    HW124126   3.860   4.929   1.851 -0.4187  1.6570 -0.5908
40283SOL    HW224127   3.767   5.023   1.923 -2.2909 -0.2868 -0.3823
40284SOL     OW24128   1.283   5.556   7.232 -0.2203 -0.1724  0.0615
40284SOL    HW124129   1.348   5.500   7.273  2.1409  1.5985 -1.0527
40284SOL    HW224130   1.233   5.498   7.175  0.7878 -1.4733  0.4786
40285SOL     OW24131   1.858   9.486   3.269 -0.3042 -0.4415  0.0117
40285SOL    HW124132   1.869   9.581   3.271 -1.6969 -0.2535  1.5718
40285SOL    HW224133   1.901   9.456   3.350 -0.9906 -0.9790  0.1828
40286SOL     OW24134   2.073   9.226   7.839 -0.1699  0.7146  0.2942
40286SOL    HW124135   2.043   9.138   7.818  1.1282  0.2205  0.4366
40286SOL    HW224136   2.021   9.251   7.916  0.0783 -0.2830  0.8059
40287SOL     OW24137   2.309   8.813   0.835  0.0705 -0.5554 -0.0684
40287SOL    HW124138   2.327   8.726   0.801  1.3515 -1.1592  1.9840
40287SOL    HW224139   2.392   8.843   0.872 -0.1265  1.9021 -1.4135
40288SOL     OW24140   4.650   7.745   3.385  0.2804  0.4333 -0.0726
40288SOL    HW124141   4.621   7.724   3.474  0.2202  2.2918  0.3757
40288SOL    HW224142   4.572   7.733   3.331  0.2680 -0.5065  0.1263
40289SOL     OW24143  10.168   7.895   2.166  0.2740 -0.2159  0.4141
40289SOL    HW124144  10.109   7.885   2.241  0.0129 -0.9978  0.1126
40289SOL    HW224145  10.148   7.821   2.109  1.4103 -0.3829  0.2006
40290SOL     OW24146   0.087   4.714   5.504 -0.0622 -0.6957 -0.5762
40290SOL    HW124147   0.022   4.772   5.544  1.1227  0.3508 -0.0796
40290SOL    HW224148   0.064   4.627   5.535 -0.5096 -0.1847  0.6096
40291SOL     OW24149   8.190  11.013   5.354  0.5376 -0.0653 -0.1983
40291SOL    HW124150   8.285  10.997   5.350  0.4641 -0.4509 -0.3906
40291SOL    HW224151   8.183  11.108   5.364  0.9194  0.1068 -1.4299
40292SOL     OW24152   7.767   1.779   8.903 -0.0300 -1.0754 -0.6051
40292SOL    HW124153   7.710   1.711   8.868 -0.3766 -0.8161 -0.5439
40292SOL    HW224154   7.746   1.782   8.996  1.1023 -1.9734 -0.2918
40293SOL     OW24155  10.068   8.362   7.181  0.4966  0.0138 -0.2928
40293SOL    HW124156  10.053   8.384   7.089 -3.2200 -1.5322 -0.2286
40293SOL    HW224157  10.019   8.429   7.230 -1.0857 -1.5151  0.3114
40294SOL     OW24158   2.573   1.290   9.460 -0.1371 -0.5151  0.0955
40294SOL    HW124159   2.514   1.361   9.436 -0.1266 -0.3137  0.6406
40294SOL    HW224160   2.525   1.242   9.529  0.4448 -0.1740  0.7509
40295SOL     OW24161   9.208   4.374  11.093 -0.0187 -0.0397 -0.2073
40295SOL    HW124162   9.297   4.408  11.081 -0.0328 -0.3246 -1.1892
40295SOL    HW224163   9.220   4.281  11.112 -0.0981 -0.0026  0.0364
40296SOL     OW24164   3.116   9.251   8.421 -0.1929  0.6964  0.4142
40296SOL    HW124165   3.168   9.326   8.392 -0.3687  1.1686  1.2985
40296SOL    HW224166   3.121   9.189   8.348  1.3099  0.8774  0.3298
40297SOL     OW24167   2.633   2.880   4.304 -0.2879  0.3542 -0.4102
40297SOL    HW124168   2.692   2.805   4.305 -1.2290 -0.4110  1.0837
40297SOL    HW224169   2.671   2.942   4.367 -0.1489  0.6349 -0.7634
40298SOL     OW24170   0.641  11.131   2.983  0.0351  0.3269  0.1965
40298SOL    HW124171   0.622  11.147   3.075 -0.8096 -0.5251  0.1826
40298SOL    HW224172   0.599  11.048   2.963  0.4543  0.3515 -0.8901
40299SOL     OW24173   8.718   3.993   5.985 -0.2102 -0.1731  0.6480
40299SOL    HW124174   8.777   3.963   5.915  0.5866  0.1670  1.1602
40299SOL    HW224175   8.775   4.007   6.060 -0.8700  0.6775  1.0039
40300SOL     OW24176   6.640  10.115  10.784 -0.9789 -0.2179  0.6483
40300SOL    HW124177   6.566  10.077  10.832 -2.5893  1.6919 -0.1452
40300SOL    HW224178   6.652  10.201  10.825  0.4075 -0.2488  0.3406
40301SOL     OW24179  10.994   4.892   8.397 -0.1375 -0.3331  0.5221
40301SOL    HW124180  11.040   4.821   8.444  2.4726 -0.2830 -1.6842
40301SOL    HW224181  10.923   4.848   8.351  1.1268 -1.5277 -0.4002
40302SOL     OW24182   5.408   9.267   3.553 -0.3687 -0.1818 -0.1081
40302SOL    HW124183   5.422   9.361   3.559 -2.5392  0.2234 -0.3962
40302SOL    HW224184   5.431   9.233   3.639  0.6372  0.5562 -0.0695
40303SOL     OW24185   6.502   7.577   8.932 -0.7621  0.5000  0.0841
40303SOL    HW124186   6.441   7.541   8.867 -0.8262  0.8089 -0.0287
40303SOL    HW224187   6.514   7.506   8.995  0.5148 -0.3816 -1.0892
40304SOL     OW24188   3.311   1.877  10.973  0.5143  0.4830 -0.0344
40304SOL    HW124189   3.314   1.925  10.890  1.6529  0.2302 -0.1522
40304SOL    HW224190   3.357   1.934  11.035  0.9505  0.0190  0.0718
40305SOL     OW24191   8.183   9.885   3.931  0.3682  0.4901  0.3412
40305SOL    HW124192   8.103   9.835   3.947  1.0357 -1.0820 -1.0407
40305SOL    HW224193   8.249   9.842   3.985  0.4773  1.3057  0.8766
40306SOL     OW24194   5.756   6.567   7.768 -0.6680 -0.0310  0.6250
40306SOL    HW124195   5.715   6.483   7.746  0.9387 -0.9340  0.9286
40306SOL    HW224196   5.845   6.544   7.796  0.9752  2.0133 -2.3953
40307SOL     OW24197   2.766   5.568   4.212  0.2043  0.1047 -0.3615
40307SOL    HW124198   2.809   5.550   4.295  0.4483 -0.4579 -0.6096
40307SOL    HW224199   2.770   5.664   4.204  1.5129  0.0675 -0.4298
40308SOL     OW24200  11.141   0.503   7.071  0.3955  0.0655  0.3481
40308SOL    HW124201  11.168   0.516   7.162  0.6931 -0.1138  0.2902
40308SOL    HW224202  11.077   0.572   7.054 -1.6070 -1.4155  1.4794
40309SOL     OW24203   6.309   3.342   8.007  0.5073  0.5560 -0.0283
40309SOL    HW124204   6.290   3.433   8.027  1.4864  0.8087 -0.2255
40309SOL    HW224205   6.377   3.317   8.070  0.3635  0.0129 -0.0809
40310SOL     OW24206   8.542   4.066   0.067  0.6561 -0.0116 -0.0869
40310SOL    HW124207   8.492   4.127   0.013  0.2348 -0.6401 -0.4246
40310SOL    HW224208   8.570   3.998   0.006  2.5080  0.6582 -0.0380
40311SOL     OW24209   8.418   1.661   6.074  0.1719  0.0708 -0.1246
40311SOL    HW124210   8.483   1.594   6.097  0.8888  1.3047  1.6686
40311SOL    HW224211   8.465   1.744   6.082 -1.2323  0.9198 -0.3275
40312SOL     OW24212  10.256   2.688   6.670 -0.2774 -0.2638  0.5299
40312SOL    HW124213  10.240   2.603   6.630 -2.8255  0.5123 -0.2792
40312SOL    HW224214  10.224   2.679   6.760  0.0246 -0.3274  0.6322
40313SOL     OW24215  11.189   2.535   4.677  0.2292 -0.0572 -0.2269
40313SOL    HW124216  11.222   2.447   4.657 -1.0748 -0.5372 -0.3887
40313SOL    HW224217  11.251   2.594   4.636  0.8086 -0.9172 -0.6241
40314SOL     OW24218  10.388   0.003   8.690 -0.0987 -0.0617 -0.7825
40314SOL    HW124219  10.416   0.079   8.639  0.7071 -0.1808 -0.5348
40314SOL    HW224220  10.344   0.040   8.766  2.3494  0.2794  0.5617
40315SOL     OW24221   8.779   0.665  10.736 -0.0402 -0.0218  0.1590
40315SOL    HW124222   8.821   0.701  10.814 -0.4219  1.9786 -0.5218
40315SOL    HW224223   8.686   0.658  10.760 -0.1857  0.7568 -0.1590
40316SOL     OW24224   6.237   0.974   5.849  0.1725 -0.2398  0.0476
40316SOL    HW124225   6.221   1.063   5.818 -2.9669 -0.9530 -0.7549
40316SOL    HW224226   6.195   0.972   5.935 -1.5915 -1.4087 -0.7864
40317SOL     OW24227   5.369   4.422   5.696  0.8871 -0.0473 -0.4769
40317SOL    HW124228   5.335   4.341   5.734  0.7549 -1.1833 -2.8681
40317SOL    HW224229   5.455   4.398   5.660  0.7728  0.8173 -1.3774
40318SOL     OW24230   4.890   5.201   2.987  0.1108 -0.1939 -0.5638
40318SOL    HW124231   4.908   5.208   3.081  0.3210 -0.7278 -0.5550
40318SOL    HW224232   4.950   5.263   2.946  0.5582 -0.5034 -0.3910
40319SOL     OW24233   4.112   6.817   9.750 -0.0151 -0.1780  0.0155
40319SOL    HW124234   4.074   6.763   9.681 -1.7063  0.7310  0.1904
40319SOL    HW224235   4.105   6.764   9.829 -1.1719  0.0746  0.0900
40320SOL     OW24236   8.695   6.556  10.607 -0.3056  0.0779  0.0959
40320SOL    HW124237   8.772   6.574  10.553  0.9327 -0.1045  1.7183
40320SOL    HW224238   8.723   6.485  10.666 -2.5813 -1.9061 -1.0293
40321SOL     OW24239   2.013   4.517   4.093 -0.3601 -0.2473  0.2716
40321SOL    HW124240   2.002   4.569   4.013  0.9359 -0.0035  0.2396
40321SOL    HW224241   1.967   4.567   4.160 -1.0362 -0.2046 -0.2151
40322SOL     OW24242   2.508   6.094   5.693  0.2372 -0.0560  0.0170
40322SOL    HW124243   2.427   6.132   5.660  0.0054 -1.9358 -1.7176
40322SOL    HW224244   2.569   6.099   5.620  2.3114  2.7399  1.7289
40323SOL     OW24245   8.448   2.497  10.287  0.2406 -0.2143 -0.8333
40323SOL    HW124246   8.383   2.472  10.222 -0.9543  0.0711  0.1989
40323SOL    HW224247   8.414   2.578  10.325 -0.0064 -1.2150  1.2858
40324SOL     OW24248   2.335  10.199   3.976  0.0960  0.0299 -0.4481
40324SOL    HW124249   2.254  10.181   3.927  0.3021  0.2253 -0.8711
40324SOL    HW224250   2.353  10.291   3.957  0.7418 -0.1737 -0.8397
40325SOL     OW24251   1.889   5.208   5.230  0.3984 -0.1000 -0.8793
40325SOL    HW124252   1.946   5.239   5.160  0.1000 -1.8320 -1.9681
40325SOL    HW224253   1.865   5.119   5.204  0.6238 -0.9977  1.6425
40326SOL     OW24254   0.320   0.818   9.508 -0.0462  0.6346  0.8417
40326SOL    HW124255   0.379   0.758   9.555 -0.2055 -0.5949 -0.4702
40326SOL    HW224256   0.281   0.764   9.440 -0.6279  2.1196 -0.0305
40327SOL     OW24257  11.010   1.329   9.250 -0.0148 -0.3615  0.0950
40327SOL    HW124258  11.025   1.286   9.334  0.7971 -0.7245 -0.2217
40327SOL    HW224259  10.930   1.289   9.216  0.7178 -1.6356 -0.1916
40328SOL     OW24260   6.989   8.988   7.866  0.3968  0.4350  0.1789
40328SOL    HW124261   7.025   9.077   7.873  1.0980  0.1427  0.3609
40328SOL    HW224262   6.986   8.957   7.957  2.3318 -0.5602 -0.0423
40329SOL     OW24263  10.698   5.363   6.192 -0.2152  0.2008  0.2111
40329SOL    HW124264  10.754   5.322   6.126 -4.4443 -2.6453 -2.0794
40329SOL    HW224265  10.637   5.416   6.141 -0.5991  2.0230  2.4261
40330SOL     OW24266  11.109   5.520   7.074  1.3021 -0.4278  0.2152
40330SOL    HW124267  11.196   5.494   7.104  1.5855 -0.3841 -0.5452
40330SOL    HW224268  11.118   5.527   6.979  0.5189 -0.2283  0.1529
40331SOL     OW24269   5.659   0.028   3.234 -0.4221  0.2633 -0.2048
40331SOL    HW124270   5.671  -0.065   3.213  1.8257  0.6098 -0.7777
40331SOL    HW224271   5.674   0.073   3.150 -0.0616  1.1950  0.3499
40332SOL     OW24272   4.311   8.775   9.898  0.6086 -0.0851 -0.0393
40332SOL    HW124273   4.342   8.862   9.872  1.1272 -0.0338  0.7094
40332SOL    HW224274   4.368   8.714   9.851  0.2640 -0.0228 -0.5419
40333SOL     OW24275   5.028   2.435   8.678 -0.4298 -0.1092 -0.3078
40333SOL    HW124276   4.938   2.442   8.708 -0.5296 -0.6215 -0.4806
40333SOL    HW224277   5.027   2.365   8.613  0.1618 -0.3838 -0.0339
40334SOL     OW24278   4.356  11.261   2.427  0.1843  0.0691  0.1645
40334SOL    HW124279   4.281  11.214   2.392  1.1275 -1.9880  0.7309
40334SOL    HW224280   4.322  11.306   2.505 -0.7946  0.5622 -0.5253
40335SOL     OW24281   1.610   1.914   4.011  0.6457 -0.1966  1.0849
40335SOL    HW124282   1.672   1.987   4.011  1.0018 -0.4865  0.0617
40335SOL    HW224283   1.665   1.836   4.021  0.5635 -0.5321 -0.8183
40336SOL     OW24284   6.287   1.481   5.546  0.2508 -0.5545 -0.2267
40336SOL    HW124285   6.305   1.537   5.471 -1.7951  0.2410 -0.1708
40336SOL    HW224286   6.228   1.414   5.513 -1.5476  0.4189  0.8418
40337SOL     OW24287   7.834   0.019   0.538 -0.4204 -0.7925  0.3397
40337SOL    HW124288   7.865  -0.034   0.611 -0.9906  0.9923  1.9818
40337SOL    HW224289   7.904   0.082   0.522 -0.5335 -0.8208 -0.3038
40338SOL     OW24290  10.393   6.663   3.054  0.0109 -0.6260 -0.3597
40338SOL    HW124291  10.361   6.753   3.058  0.4145 -0.3747 -2.0722
40338SOL    HW224292  10.472   6.663   3.108  0.0535  0.0653 -0.4175
40339SOL     OW24293   6.607  10.943   4.708  0.5829 -0.4038 -0.1373
40339SOL    HW124294   6.576  11.029   4.736  0.7555 -0.5619  0.5719
40339SOL    HW224295   6.643  10.957   4.621 -1.3776 -0.2033 -0.9713
40340SOL     OW24296  11.332   2.351   7.283 -0.1003  0.0061  0.5520
40340SOL    HW124297  11.391   2.425   7.271  0.0682 -0.1674  0.2899
40340SOL    HW224298  11.383   2.275   7.253 -0.4759 -0.1364  0.2628
40341SOL     OW24299   0.990   4.965   2.971  0.3124  0.8551  0.4257
40341SOL    HW124300   1.078   4.981   2.937  1.8779  1.6111  4.2838
40341SOL    HW224301   0.967   5.045   3.018 -1.6752  0.0157  1.0163
40342SOL     OW24302   9.113   1.605   2.405 -0.1354  0.0588  0.9384
40342SOL    HW124303   9.123   1.687   2.454  2.8930  1.3814 -1.5120
40342SOL    HW224304   9.194   1.557   2.422 -0.6417 -1.1334  0.1332
40343SOL     OW24305   5.489   6.846   0.266  0.2541 -0.1352  0.5288
40343SOL    HW124306   5.414   6.792   0.289 -0.7201  0.5390 -0.9504
40343SOL    HW224307   5.540   6.851   0.347  0.1431 -2.8145  0.8574
40344SOL     OW24308   3.824  10.227   5.244  0.1372  0.4176  0.8382
40344SOL    HW124309   3.794  10.155   5.189  1.1818 -1.0494  2.0912
40344SOL    HW224310   3.862  10.290   5.183 -1.0863  0.0739 -0.3139
40345SOL     OW24311   2.911   5.098   7.594  0.5521 -0.9249  0.2518
40345SOL    HW124312   2.972   5.087   7.668 -0.2711 -0.6294  0.9823
40345SOL    HW224313   2.833   5.048   7.619  0.2909 -0.8878 -0.4597
40346SOL     OW24314   7.356   5.946   8.391 -0.1325 -0.2141  0.5984
40346SOL    HW124315   7.375   5.917   8.480  0.2398 -1.5852  0.0976
40346SOL    HW224316   7.266   5.918   8.375 -0.0832 -0.2818  0.4345
40347SOL     OW24317   3.333   5.301   7.752 -0.0159 -0.1091  0.1168
40347SOL    HW124318   3.314   5.334   7.664  2.0280  0.0761 -0.3044
40347SOL    HW224319   3.428   5.298   7.756 -0.0762 -0.4140  2.2367
40348SOL     OW24320   0.873   3.293   9.753  0.0049  0.0518  0.0466
40348SOL    HW124321   0.867   3.263   9.843  2.7248 -1.0050 -0.0229
40348SOL    HW224322   0.872   3.213   9.700 -2.0824  0.6779 -0.9531
40349SOL     OW24323   0.746  11.040   9.546 -0.0040  0.2706 -0.9471
40349SOL    HW124324   0.830  11.005   9.573  0.5641  0.8425 -1.9021
40349SOL    HW224325   0.702  10.966   9.504  0.0477 -0.0066 -0.5235
40350SOL     OW24326   6.317   1.149   9.544  0.5276 -0.5855 -0.6819
40350SOL    HW124327   6.261   1.137   9.467  0.6355 -2.3862 -0.5186
40350SOL    HW224328   6.331   1.060   9.578  2.9394 -0.1413 -0.3204
40351SOL     OW24329   2.926   9.731   0.934  0.2718 -0.1604 -0.5404
40351SOL    HW124330   2.949   9.792   1.005  0.0903  0.7875 -1.2726
40351SOL    HW224331   2.909   9.788   0.859 -1.3453 -1.0373 -0.8696
40352SOL     OW24332   8.477  10.779   3.356  0.1191  0.1609  0.0109
40352SOL    HW124333   8.509  10.802   3.269  0.9704 -0.1254  0.2402
40352SOL    HW224334   8.398  10.727   3.340  0.7499 -0.6245 -0.6208
40353SOL     OW24335   5.784   9.130  10.028 -0.1518 -0.4800  0.2146
40353SOL    HW124336   5.856   9.192  10.016  0.7830 -1.9155 -2.4428
40353SOL    HW224337   5.826   9.053  10.067 -0.1452 -1.3342 -1.3796
40354SOL     OW24338   6.461   6.455   4.046 -0.3226 -0.0144 -0.1752
40354SOL    HW124339   6.401   6.389   4.082 -0.1012 -0.2268 -0.1883
40354SOL    HW224340   6.404   6.521   4.007 -0.5432 -1.0946 -1.7837
40355SOL     OW24341   0.735   8.170   7.152 -0.3351 -0.1301 -0.1658
40355SOL    HW124342   0.726   8.079   7.181  0.0410 -0.3418 -0.6984
40355SOL    HW224343   0.709   8.222   7.228  2.1293 -0.6381  1.1245
40356SOL     OW24344   1.187  10.958   7.896 -0.0818  0.1189 -0.3625
40356SOL    HW124345   1.093  10.967   7.908 -0.1343 -0.4092 -0.3574
40356SOL    HW224346   1.197  10.886   7.832  0.3687 -2.1141  2.0376
40357SOL     OW24347  11.018   2.427   4.438 -0.0045 -0.2378 -0.0077
40357SOL    HW124348  10.997   2.513   4.403 -0.1942  0.2984  1.3630
40357SOL    HW224349  11.075   2.444   4.513 -1.2983 -1.1861  1.2503
40358SOL     OW24350  10.367   6.983   6.430 -0.0650 -0.5056  0.2706
40358SOL    HW124351  10.433   6.970   6.361  1.1473 -0.6322  1.4173
40358SOL    HW224352  10.403   6.938   6.506 -1.4065 -0.4040  0.9903
40359SOL     OW24353   2.857  11.125   8.929  0.1205 -0.2234 -0.5570
40359SOL    HW124354   2.858  11.039   8.887  0.5209 -1.0104  0.9919
40359SOL    HW224355   2.948  11.152   8.932  0.0616 -0.0309 -0.4636
40360SOL     OW24356  10.949   9.026   6.817 -1.1068 -0.2590 -0.1171
40360SOL    HW124357  11.028   9.074   6.842 -2.4374  2.3963 -0.6457
40360SOL    HW224358  10.893   9.031   6.894 -1.8530  0.4656 -0.6788
40361SOL     OW24359   4.904   1.738   9.470 -0.6975  0.2600 -0.4179
40361SOL    HW124360   4.860   1.773   9.547 -0.3304  1.2686 -0.6552
40361SOL    HW224361   4.905   1.811   9.408  1.2706  0.2729 -0.4297
40362SOL     OW24362   5.348   5.482   3.824 -0.4180 -0.3184 -0.2327
40362SOL    HW124363   5.322   5.393   3.845  0.4403 -0.3596  0.7570
40362SOL    HW224364   5.268   5.534   3.836 -0.5006 -0.6937  1.0046
40363SOL     OW24365   0.136   7.233   2.505 -0.0057  0.1805  0.2685
40363SOL    HW124366   0.166   7.212   2.594 -1.1393  1.1056  0.8829
40363SOL    HW224367   0.138   7.328   2.501 -1.0644  0.1827 -0.3165
40364SOL     OW24368   6.694   7.121   4.270 -0.2294  0.7583  0.4837
40364SOL    HW124369   6.657   7.208   4.257 -0.7780  1.0466  3.3149
40364SOL    HW224370   6.641   7.064   4.214  1.3166  2.3769 -2.8439
40365SOL     OW24371   5.195   5.447   0.353 -0.7530  0.0336 -0.1042
40365SOL    HW124372   5.158   5.399   0.427  0.6464  1.1120  1.3574
40365SOL    HW224373   5.262   5.503   0.392 -0.1897  0.8703 -2.1636
40366SOL     OW24374   5.075   4.445   6.951 -0.6420 -0.2307 -0.1759
40366SOL    HW124375   5.136   4.482   6.888  0.2432 -0.8030  0.3311
40366SOL    HW224376   5.074   4.351   6.932 -0.0587 -0.4712  0.9062
40367SOL     OW24377   9.864   6.641   3.132 -0.2753  0.7277  0.5624
40367SOL    HW124378   9.869   6.724   3.179 -0.4693  0.7933  0.4707
40367SOL    HW224379   9.788   6.596   3.169  0.6713 -0.0491  1.6215
40368SOL     OW24380   4.324   4.995   2.107  0.3187  0.3688  0.6163
40368SOL    HW124381   4.331   5.024   2.016  0.1416 -0.1192  0.4425
40368SOL    HW224382   4.355   5.069   2.159  2.2398 -0.0199  0.0847
40369SOL     OW24383   4.792   0.162   5.209 -0.0301 -0.3205  0.2827
40369SOL    HW124384   4.793   0.075   5.169  1.0030 -0.2408  0.0892
40369SOL    HW224385   4.873   0.203   5.176 -0.2223  0.4991  0.8232
40370SOL     OW24386   3.806   7.367   5.027 -0.2116 -0.2272 -0.3125
40370SOL    HW124387   3.897   7.396   5.034 -1.3179  3.4647  0.5847
40370SOL    HW224388   3.792   7.314   5.105  0.7790  0.3714  0.2947
40371SOL     OW24389   0.308   7.727   5.687 -0.5945  0.4491  0.1034
40371SOL    HW124390   0.284   7.812   5.649 -1.4812  0.3533  0.4135
40371SOL    HW224391   0.325   7.671   5.612  0.0274  0.9075 -0.1055
40372SOL     OW24392   6.103  11.098   2.556 -0.4396  0.2624 -0.0073
40372SOL    HW124393   6.149  11.021   2.589 -0.4972  0.0599 -0.3908
40372SOL    HW224394   6.119  11.097   2.461  0.5457  1.3822  0.1296
40373SOL     OW24395   3.565   0.481   9.583  0.5893  0.0601  0.0721
40373SOL    HW124396   3.473   0.506   9.590  0.7805  1.0683 -0.8050
40373SOL    HW224397   3.598   0.486   9.673  0.0511  0.8016  0.2358
40374SOL     OW24398   4.061   0.810   8.662 -0.0705  0.5388 -0.0976
40374SOL    HW124399   4.074   0.719   8.687  0.9867  0.6035 -0.3499
40374SOL    HW224400   3.995   0.807   8.593  0.8997 -0.1946 -1.0365
40375SOL     OW24401   7.630   7.402   7.409  0.2739  0.2831 -0.3424
40375SOL    HW124402   7.687   7.476   7.387  0.9024  0.3048  1.2754
40375SOL    HW224403   7.543   7.441   7.419 -0.0044  0.3132 -2.3876
40376SOL     OW24404   6.613   2.264   3.466  0.3832 -0.3869 -0.1163
40376SOL    HW124405   6.701   2.293   3.443  1.1169  1.3013  3.9639
40376SOL    HW224406   6.556   2.336   3.439  0.6111 -0.2329 -0.1832
40377SOL     OW24407   7.610   2.569   9.349 -0.9549  0.1478 -0.7528
40377SOL    HW124408   7.682   2.530   9.299 -1.0795  0.0993 -0.8904
40377SOL    HW224409   7.536   2.569   9.290 -1.2909 -0.5588 -0.3409
40378SOL     OW24410   5.097   4.266   5.135 -0.3276 -0.2124 -0.1869
40378SOL    HW124411   5.100   4.356   5.169 -0.3471 -0.5531  0.7564
40378SOL    HW224412   5.022   4.265   5.076  0.3642  0.6914 -1.1207
40379SOL     OW24413   2.225   1.647  10.306  0.2824  0.0052  0.4989
40379SOL    HW124414   2.305   1.621  10.352 -0.4639 -0.7210  1.4276
40379SOL    HW224415   2.243   1.628  10.214  0.9271 -0.8493  0.7821
40380SOL     OW24416   6.955   3.699   1.177 -0.3927 -0.3267  0.5082
40380SOL    HW124417   7.030   3.748   1.211 -0.3502  0.7632 -1.0591
40380SOL    HW224418   6.972   3.692   1.083 -0.8718 -2.5884  0.5402
40381SOL     OW24419   3.336   2.132   4.920 -0.3445  0.4415 -0.0040
40381SOL    HW124420   3.290   2.136   5.004 -0.8378  0.1282 -0.2586
40381SOL    HW224421   3.316   2.216   4.878 -1.0451  0.1267 -0.3018
40382SOL     OW24422   2.918   1.830   3.844  0.3878 -0.1813 -0.9464
40382SOL    HW124423   2.875   1.912   3.819  2.7275  0.8148 -1.9634
40382SOL    HW224424   2.970   1.853   3.921  0.3689 -0.9487 -0.7001
40383SOL     OW24425   0.641   9.703   8.760  0.3573 -0.0676 -0.1739
40383SOL    HW124426   0.715   9.685   8.819  0.2803 -1.4685 -0.4630
40383SOL    HW224427   0.678   9.759   8.691  0.8492  0.2249  0.3238
40384SOL     OW24428   3.249   6.315   7.106  0.7068 -0.2183 -0.4944
40384SOL    HW124429   3.261   6.272   7.190  0.7489 -0.4345 -0.6100
40384SOL    HW224430   3.334   6.310   7.063  0.6321 -0.2958 -0.6361
40385SOL     OW24431  10.470   0.641  10.527 -0.4129 -0.1936 -0.2459
40385SOL    HW124432  10.414   0.564  10.514 -1.4861  0.5368 -0.1271
40385SOL    HW224433  10.409   0.710  10.551  0.5490  0.6777 -0.2622
40386SOL     OW24434   6.509   4.204   1.213  0.4899  0.0335  0.4255
40386SOL    HW124435   6.473   4.255   1.285 -0.4764  1.3287 -0.9330
40386SOL    HW224436   6.436   4.149   1.183  0.5771  0.2831 -0.2526
40387SOL     OW24437   8.726   6.067   0.594 -0.4429  0.0488  0.1400
40387SOL    HW124438   8.681   6.060   0.509  1.0812 -0.2195 -0.6750
40387SOL    HW224439   8.806   6.116   0.574  2.0954 -3.5876  0.5117
40388SOL     OW24440   5.808   8.905  10.954  0.1932  0.0814 -0.0221
40388SOL    HW124441   5.891   8.913  11.002 -0.4131  0.7226  0.9549
40388SOL    HW224442   5.742   8.899  11.023 -0.7731  1.7570 -0.7412
40389SOL     OW24443   7.109   1.999   1.229 -0.2808  0.1638 -0.3304
40389SOL    HW124444   7.096   1.945   1.151  2.2095 -1.2343  0.1203
40389SOL    HW224445   7.184   2.054   1.207 -1.0231  1.4655  0.2785
40390SOL     OW24446  10.047  10.081  10.859  0.5640  0.3186  0.4922
40390SOL    HW124447  10.080  10.143  10.925  3.1172  0.2538 -0.6113
40390SOL    HW224448  10.044   9.997  10.905 -1.5075  0.9230  1.5787
40391SOL     OW24449   2.814  11.079   2.197  0.1721 -0.2093 -0.2104
40391SOL    HW124450   2.769  11.011   2.248 -0.7583  0.5473  0.0016
40391SOL    HW224451   2.878  11.031   2.145 -1.6226 -1.4667 -1.3519
40392SOL     OW24452   0.393   1.676   4.526 -0.2279  0.6088  0.5952
40392SOL    HW124453   0.390   1.634   4.612  1.6950  0.0241  0.4124
40392SOL    HW224454   0.305   1.713   4.515 -0.5969  0.4967  2.6898
40393SOL     OW24455  11.399   3.107   3.666 -0.3651 -0.1379  0.2517
40393SOL    HW124456  11.468   3.153   3.619 -0.7342 -0.6001 -0.7835
40393SOL    HW224457  11.347   3.176   3.708  0.4673  0.2312  0.6901
40394SOL     OW24458  10.077   5.975   0.583 -0.3325  0.4674  0.5927
40394SOL    HW124459  10.126   5.982   0.664  0.8719  1.2088 -0.1599
40394SOL    HW224460  10.128   5.916   0.528 -0.8252  0.4235  0.1624
40395SOL     OW24461   3.463   7.519  10.196  0.0354  0.2536 -0.8028
40395SOL    HW124462   3.428   7.595  10.243  0.4874  0.0159 -0.0634
40395SOL    HW224463   3.558   7.527  10.204  0.1053 -0.0131 -1.3262
40396SOL     OW24464   4.997   6.867   6.428  0.1003 -0.6738  0.8027
40396SOL    HW124465   5.043   6.865   6.512  0.6702 -0.0668  0.5167
40396SOL    HW224466   4.905   6.858   6.451  0.3870 -2.5331  1.3463
40397SOL     OW24467  10.792   3.493  10.156 -0.1810  0.2947 -0.1081
40397SOL    HW124468  10.726   3.457  10.096 -1.2950 -0.1954  1.3323
40397SOL    HW224469  10.773   3.450  10.240  1.7841  0.4090  0.4342
40398SOL     OW24470   5.349   8.061  10.277 -0.6993  0.1139 -0.0545
40398SOL    HW124471   5.436   8.090  10.251 -0.6484  0.3344  0.3602
40398SOL    HW224472   5.347   8.072  10.372 -0.5332 -1.6020  0.1786
40399SOL     OW24473   7.728   7.241   1.802 -0.3722  0.2299  0.0010
40399SOL    HW124474   7.725   7.320   1.748  0.1766  0.1256 -0.1807
40399SOL    HW224475   7.797   7.258   1.866 -1.6314  0.7325  1.2779
40400SOL     OW24476  10.595   5.462   1.095 -0.7999 -0.0723 -0.0584
40400SOL    HW124477  10.501   5.477   1.085 -1.3046 -2.7632 -0.2692
40400SOL    HW224478  10.604   5.429   1.185  0.0866  0.9240  0.2307
40401SOL     OW24479  10.045   0.189  10.595 -0.4312 -0.4406 -0.7304
40401SOL    HW124480  10.019   0.224  10.510 -2.2340 -0.6230 -0.2928
40401SOL    HW224481  10.000   0.244  10.659  0.8517 -0.3337  0.1389
40402SOL     OW24482  11.357   9.483   7.628  0.2698 -0.0642  0.0769
40402SOL    HW124483  11.349   9.539   7.552  0.8493  1.1005  0.8472
40402SOL    HW224484  11.426   9.421   7.605  0.5585  0.3861 -0.2771
40403SOL     OW24485   2.764   0.014   6.884  0.1713 -0.2132  0.3106
40403SOL    HW124486   2.746   0.091   6.937 -2.1042 -1.2040  1.0667
40403SOL    HW224487   2.680  -0.010   6.847  1.2567 -1.0150 -1.7996
40404SOL     OW24488   0.929   4.278   1.799  0.1510 -0.3017  0.2104
40404SOL    HW124489   1.001   4.321   1.845 -0.3406  0.0861  0.6251
40404SOL    HW224490   0.854   4.289   1.857 -0.2544 -0.6561 -0.2454
40405SOL     OW24491   4.384   6.068   9.764 -0.4377  0.5551 -0.6733
40405SOL    HW124492   4.399   5.987   9.814 -0.3640  1.1724  0.3411
40405SOL    HW224493   4.471   6.093   9.734 -0.5031  0.0937 -1.2668
40406SOL     OW24494   6.394   0.971   9.279  0.0904 -0.0914 -0.5818
40406SOL    HW124495   6.437   1.042   9.232  0.2941  0.7666  0.8552
40406SOL    HW224496   6.307   1.005   9.299 -0.0866 -0.5466 -0.5705
40407SOL     OW24497   7.876   4.684   7.915  0.2100 -0.0398  0.7077
40407SOL    HW124498   7.793   4.724   7.891 -0.8842 -1.8236  1.3873
40407SOL    HW224499   7.909   4.739   7.987 -0.2620  0.7998  0.2974
40408SOL     OW24500   9.698   0.726   8.880  0.1754 -0.3701 -0.3642
40408SOL    HW124501   9.790   0.727   8.906 -0.2477  0.7315  1.2304
40408SOL    HW224502   9.701   0.718   8.785  1.9362  0.0400 -0.3923
40409SOL     OW24503  11.201   9.568  11.341 -0.1029 -0.5747 -0.6334
40409SOL    HW124504  11.213   9.530  11.428 -0.6943 -1.4724 -0.9232
40409SOL    HW224505  11.289   9.595  11.314  0.0564 -0.1290  0.3062
40410SOL     OW24506   8.944   5.325   5.626 -0.5622  0.8428  1.0544
40410SOL    HW124507   8.899   5.257   5.575  0.2057  2.2755 -1.7673
40410SOL    HW224508   8.888   5.340   5.702 -1.0274 -2.4900  1.5022
40411SOL     OW24509   4.237   0.977   0.423 -0.4769 -0.3620 -0.2413
40411SOL    HW124510   4.223   0.914   0.352 -1.6982  0.6137 -0.9022
40411SOL    HW224511   4.231   0.924   0.502 -1.4987 -1.0975 -0.7777
40412SOL     OW24512   8.888   8.308   1.039 -0.3010  0.3641 -0.1762
40412SOL    HW124513   8.826   8.287   1.110 -0.1260 -2.8611 -0.8053
40412SOL    HW224514   8.972   8.320   1.084 -0.4708 -0.2294  0.3290
40413SOL     OW24515  11.253   0.455   4.294 -0.1704 -0.0403  0.5057
40413SOL    HW124516  11.291   0.381   4.341  1.1049  0.7958  0.8472
40413SOL    HW224517  11.159   0.445   4.306  0.0627 -0.4283  2.4006
40414SOL     OW24518   1.004   0.558   1.300  0.1137 -0.0945  0.0717
40414SOL    HW124519   0.933   0.501   1.329  0.7733 -1.6442 -1.2116
40414SOL    HW224520   0.965   0.613   1.231 -0.0823 -0.2586  0.0539
40415SOL     OW24521   4.237   4.253   4.152  0.0006  0.2407  0.1761
40415SOL    HW124522   4.330   4.260   4.171 -0.1222  0.2431  0.7889
40415SOL    HW224523   4.233   4.196   4.075  0.5782  1.2522 -0.6408
40416SOL     OW24524   6.039   3.732   6.860  0.1104 -0.5497  0.1882
40416SOL    HW124525   6.031   3.780   6.942 -0.2490 -1.2912  0.5910
40416SOL    HW224526   6.133   3.732   6.842  0.0461  1.0398 -0.2724
40417SOL     OW24527   5.902  11.061   4.733  0.3917 -0.0846  0.1575
40417SOL    HW124528   5.995  11.056   4.752  0.2971 -1.5709  0.3424
40417SOL    HW224529   5.882  10.979   4.688 -0.3915  1.1641 -1.9755
40418SOL     OW24530   1.996   7.022   5.598 -0.6362 -0.2829 -0.0071
40418SOL    HW124531   1.915   7.057   5.562 -0.4951  0.4207  0.3503
40418SOL    HW224532   2.061   7.090   5.582  0.0392 -1.1095 -0.8782
40419SOL     OW24533   6.718   3.090   0.064  0.3907  0.1653 -0.2454
40419SOL    HW124534   6.630   3.057   0.080  0.1936  1.6398  2.2564
40419SOL    HW224535   6.705   3.171   0.015  0.4640 -0.2389 -0.9471
40420SOL     OW24536   1.697   6.446   5.775  0.2332 -0.2855  0.1432
40420SOL    HW124537   1.679   6.540   5.763  0.8384  0.0050  1.3797
40420SOL    HW224538   1.627   6.403   5.726  0.2837  0.8047 -0.9418
40421SOL     OW24539   5.108   6.575   3.982 -0.4621  0.0003 -0.5413
40421SOL    HW124540   5.203   6.582   3.990 -0.1690 -0.2025 -2.9783
40421SOL    HW224541   5.082   6.514   4.051  1.4967 -1.7237 -1.2461
40422SOL     OW24542   1.258   2.774   5.789  0.0624 -0.8877  0.3842
40422SOL    HW124543   1.292   2.749   5.874  1.8201  0.5427  0.1662
40422SOL    HW224544   1.288   2.705   5.730  0.4510 -0.9294  0.6274
40423SOL     OW24545   8.724   7.289   7.016  0.1518  0.6875  0.0793
40423SOL    HW124546   8.769   7.353   6.962 -0.3141 -0.1397 -1.3633
40423SOL    HW224547   8.654   7.255   6.960 -1.2513  0.7669  1.6857
40424SOL     OW24548   0.128   5.292   5.084  0.1831 -0.3101 -0.1895
40424SOL    HW124549   0.127   5.198   5.102 -0.8921 -0.7638 -2.2897
40424SOL    HW224550   0.048   5.326   5.124 -0.2191 -0.6052 -0.7211
40425SOL     OW24551   3.841   2.133   9.938 -0.5280  0.3657  0.5367
40425SOL    HW124552   3.857   2.207   9.997 -0.4054  0.3458  0.5288
40425SOL    HW224553   3.747   2.120   9.941 -0.4559 -0.0668  1.2659
40426SOL     OW24554   4.099  10.346   0.779  0.6659  0.1204  0.0733
40426SOL    HW124555   4.164  10.378   0.717  1.1957  0.9688  1.0452
40426SOL    HW224556   4.112  10.399   0.858  0.4728 -1.3789  1.1587
40427SOL     OW24557   5.620   1.547   1.941  0.4462  1.1942  0.6187
40427SOL    HW124558   5.670   1.546   2.022  0.8529  0.4654  0.3698
40427SOL    HW224559   5.672   1.602   1.882  0.3279  1.4350  0.7348
40428SOL     OW24560   7.520   4.456   9.881  0.0590 -0.1053  0.4183
40428SOL    HW124561   7.601   4.472   9.831 -0.1313 -0.5948 -0.0536
40428SOL    HW224562   7.539   4.378   9.933 -0.4175 -0.7749 -0.3915
40429SOL     OW24563   0.581   3.122  10.328  0.2559 -0.3180  0.5406
40429SOL    HW124564   0.510   3.137  10.390 -0.3013 -0.6493 -0.0023
40429SOL    HW224565   0.593   3.027  10.328 -0.6641 -0.4738 -0.8154
40430SOL     OW24566   5.651   4.798   8.576  0.1518 -0.1836 -0.1856
40430SOL    HW124567   5.716   4.789   8.506 -0.5105  1.2906 -1.0369
40430SOL    HW224568   5.670   4.883   8.616  0.1757 -0.7629  1.0853
40431SOL     OW24569  10.011   8.655   0.865 -0.1593 -0.3594 -0.6009
40431SOL    HW124570  10.080   8.591   0.887 -0.1687 -0.4587 -0.8610
40431SOL    HW224571   9.946   8.604   0.817  1.6950  0.5635 -4.4746
40432SOL     OW24572   8.358   2.710   5.511 -0.2150 -0.7136 -0.6035
40432SOL    HW124573   8.345   2.785   5.569  0.3061  1.3272 -2.9618
40432SOL    HW224574   8.452   2.692   5.515 -0.6668 -3.2261  2.1033
40433SOL     OW24575   0.869   3.800   9.023  0.0658 -0.0371 -0.5374
40433SOL    HW124576   0.788   3.765   9.059 -0.0555  0.7419 -0.0272
40433SOL    HW224577   0.841   3.864   8.957  0.2596  0.3764 -0.2223
40434SOL     OW24578   2.601   2.960   2.398 -0.0218  0.9045 -0.2625
40434SOL    HW124579   2.657   2.986   2.325 -0.7280  0.1876 -1.0857
40434SOL    HW224580   2.655   2.899   2.449 -0.7819 -1.7779 -2.4278
40435SOL     OW24581   7.019  11.274   8.591  0.3522  0.4466  0.2423
40435SOL    HW124582   7.017  11.230   8.506 -0.2469 -0.9348  0.9399
40435SOL    HW224583   7.043  11.364   8.571 -0.2243  0.2596 -1.4501
40436SOL     OW24584  10.619   3.918   5.235  0.0800 -0.8664  0.1939
40436SOL    HW124585  10.608   3.851   5.303  0.3717  1.8709  3.1757
40436SOL    HW224586  10.714   3.932   5.231 -0.0148 -0.2471  0.0014
40437SOL     OW24587   6.555   0.175   6.312 -0.2519 -0.2106  0.0465
40437SOL    HW124588   6.537   0.094   6.265 -1.0442  0.0351 -0.0814
40437SOL    HW224589   6.470   0.217   6.321  0.0901  0.3970  0.5038
40438SOL     OW24590   1.295   6.260   0.931 -0.4999  0.0833 -0.6603
40438SOL    HW124591   1.366   6.291   0.987  0.1800  1.3780 -2.1819
40438SOL    HW224592   1.295   6.319   0.856 -3.0842  0.0034 -0.8063
40439SOL     OW24593  10.889   2.399   0.073  0.6630  0.0960  0.3801
40439SOL    HW124594  10.944   2.321   0.085  0.5449 -0.0689 -0.1163
40439SOL    HW224595  10.928   2.444  -0.003 -1.5438 -1.5205 -1.8771
40440SOL     OW24596   8.094  11.115   3.311 -0.2184  0.3783 -0.1108
40440SOL    HW124597   8.106  11.210   3.311  0.6915  0.2827 -0.9211
40440SOL    HW224598   8.082  11.091   3.403  0.9905  1.1178  0.2595
40441SOL     OW24599   0.218   5.515   7.328 -0.3315  0.5071 -0.3050
40441SOL    HW124600   0.241   5.460   7.252 -1.0977 -1.2954  0.7033
40441SOL    HW224601   0.129   5.544   7.310 -0.5730 -0.0528 -0.0486
40442SOL     OW24602   0.368   7.151  10.995  0.5092 -0.2831  0.0487
40442SOL    HW124603   0.330   7.163  10.908 -1.6220 -1.2340  0.7818
40442SOL    HW224604   0.321   7.213  11.051  1.6350  0.0902  0.6315
40443SOL     OW24605   7.433   2.547   0.563  0.0067  0.3867 -0.1537
40443SOL    HW124606   7.454   2.607   0.491 -0.7990  0.6194 -0.2154
40443SOL    HW224607   7.338   2.535   0.556  0.3709 -2.6417 -1.5391
40444SOL     OW24608   5.524   0.433  10.903  0.2810 -0.0068 -0.0135
40444SOL    HW124609   5.519   0.491  10.980 -1.3663  0.7879 -0.6855
40444SOL    HW224610   5.455   0.464  10.845  2.3613  0.3239 -2.4810
40445SOL     OW24611   1.173   6.294   0.585  0.6927 -0.6174 -0.3668
40445SOL    HW124612   1.244   6.301   0.648  0.1747 -0.9303  0.2709
40445SOL    HW224613   1.211   6.249   0.509  0.5889 -3.0634  0.9292
40446SOL     OW24614   3.821  11.383   7.561 -0.4038 -0.5248  0.1777
40446SOL    HW124615   3.874  11.377   7.482 -0.3298 -0.1222  0.1949
40446SOL    HW224616   3.789  11.294   7.576  0.3044 -0.7783  0.1931
40447SOL     OW24617  11.173   3.170   1.396  0.2813  0.3169 -0.0161
40447SOL    HW124618  11.184   3.246   1.454  0.3390 -0.7325  1.3903
40447SOL    HW224619  11.097   3.193   1.342  1.1604  1.9754 -0.6534
40448SOL     OW24620   9.987   1.231   5.030 -0.7998 -0.1712  0.2087
40448SOL    HW124621  10.065   1.216   5.084 -1.1095 -0.1784  0.6674
40448SOL    HW224622  10.004   1.182   4.949  0.5084  1.4008 -0.5215
40449SOL     OW24623   9.463   5.281   3.342  0.1759 -0.1036  0.4048
40449SOL    HW124624   9.434   5.319   3.425 -2.2419 -0.0345 -0.3909
40449SOL    HW224625   9.442   5.188   3.349 -1.5065  0.1521 -0.6421
40450SOL     OW24626   4.861   1.413   6.666 -0.4442  0.1664  0.1641
40450SOL    HW124627   4.860   1.340   6.728  0.7583 -0.2419 -0.2759
40450SOL    HW224628   4.917   1.383   6.594 -1.3451  0.8529 -0.8603
40451SOL     OW24629   4.244  10.566   8.896  0.4399  0.3952  0.6444
40451SOL    HW124630   4.281  10.654   8.910  1.3080  0.4158 -1.5258
40451SOL    HW224631   4.214  10.566   8.806 -0.5326 -1.2310  0.9247
40452SOL     OW24632   0.549  10.912   1.960  0.3989 -0.0573 -0.1461
40452SOL    HW124633   0.512  10.999   1.950 -0.2177 -0.1752  0.9046
40452SOL    HW224634   0.476  10.858   1.991  0.2977 -1.3839 -2.4481
40453SOL     OW24635   1.493   5.953   7.456  0.0719  0.4818  0.4513
40453SOL    HW124636   1.555   5.904   7.402 -1.0970  0.3968 -0.8703
40453SOL    HW224637   1.492   6.041   7.418 -0.8101  0.4072  0.2849
40454SOL     OW24638   3.948   7.392   1.004  0.7557 -0.4967  0.1334
40454SOL    HW124639   3.940   7.374   1.098  0.4587  1.1887  0.4699
40454SOL    HW224640   4.030   7.439   0.995  0.2766  0.2857 -0.2846
40455SOL     OW24641   1.590   8.006   0.837  0.3110  0.2599  0.0125
40455SOL    HW124642   1.532   7.944   0.793  0.2120  0.4254 -0.0925
40455SOL    HW224643   1.585   8.085   0.784  0.5365  0.3162  0.0743
40456SOL     OW24644   4.670   8.195   6.978  0.5455  0.2045 -0.0121
40456SOL    HW124645   4.709   8.262   7.035  0.8072  1.1626 -1.2743
40456SOL    HW224646   4.732   8.123   6.981 -0.3023 -0.5012  2.2833
40457SOL     OW24647   8.975   4.711   1.461 -0.5197  0.0624 -0.6652
40457SOL    HW124648   8.942   4.718   1.371 -0.8137  2.3438 -0.4614
40457SOL    HW224649   8.972   4.801   1.493 -1.2400 -0.8192  1.9434
40458SOL     OW24650   3.472   9.869   8.698 -0.4453  0.7099  0.2337
40458SOL    HW124651   3.484   9.963   8.681 -0.5580  0.6203 -0.3794
40458SOL    HW224652   3.410   9.866   8.771 -2.1107  1.1325 -1.0805
40459SOL     OW24653   5.228   0.162   2.356  0.1456  0.0827  0.2777
40459SOL    HW124654   5.289   0.148   2.428  0.7968  1.4894  0.0266
40459SOL    HW224655   5.282   0.196   2.285 -0.8088  0.6952 -0.1823
40460SOL     OW24656   6.497   5.836  11.346 -0.6195  0.0920  0.0050
40460SOL    HW124657   6.453   5.850  11.262  0.2749  0.7202 -0.3882
40460SOL    HW224658   6.486   5.919  11.392 -0.5928 -0.0462  0.2590
40461SOL     OW24659   5.546  10.257   6.809 -0.8218 -0.3762 -0.2448
40461SOL    HW124660   5.492  10.279   6.733  0.2768  1.7027 -0.5124
40461SOL    HW224661   5.571  10.342   6.846  0.3333 -1.3080  1.2506
40462SOL     OW24662   8.726   1.381   8.739  0.4083  0.4785  0.0307
40462SOL    HW124663   8.675   1.299   8.739  0.7976  0.2336  0.0400
40462SOL    HW224664   8.817   1.352   8.732  0.6548  0.8493  1.4558
40463SOL     OW24665   8.580   6.286   3.555  0.1057 -0.0529  0.5641
40463SOL    HW124666   8.510   6.346   3.580  0.2963  0.2253  0.4256
40463SOL    HW224667   8.537   6.220   3.501  0.3546  1.4167 -1.5284
40464SOL     OW24668   5.779   6.209   8.153  0.3879  0.5254  0.0624
40464SOL    HW124669   5.869   6.201   8.121  0.1390 -1.5015 -0.2889
40464SOL    HW224670   5.786   6.196   8.247  0.4692  0.1330  0.0077
40465SOL     OW24671   2.477   9.075   3.877  0.6305  0.5277  0.1638
40465SOL    HW124672   2.456   9.114   3.792  2.0671 -1.1538 -1.0399
40465SOL    HW224673   2.566   9.041   3.866  0.1396 -1.4125  1.6928
40466SOL     OW24674   8.684   2.035   7.775  0.2617  0.8127 -0.0946
40466SOL    HW124675   8.728   1.967   7.724  1.6450  3.1867 -2.3303
40466SOL    HW224676   8.741   2.049   7.851 -0.6281 -1.2136  1.0046
40467SOL     OW24677   9.727   3.349  11.174 -0.1028 -0.0753 -0.5938
40467SOL    HW124678   9.676   3.347  11.093  0.6664 -0.1156 -1.0916
40467SOL    HW224679   9.800   3.408  11.155 -0.5580  0.8507  0.4744
40468SOL     OW24680  10.738   1.998   5.461  0.3072  0.0463  0.0251
40468SOL    HW124681  10.673   1.985   5.392  0.8228 -1.1041 -0.2617
40468SOL    HW224682  10.753   1.910   5.496  0.2536  0.5829  1.4243
40469SOL     OW24683   2.564   7.148   6.917 -0.6163  0.3814  0.3982
40469SOL    HW124684   2.648   7.120   6.953 -0.3509 -0.1192 -0.5830
40469SOL    HW224685   2.504   7.145   6.991  0.0050 -0.2477  0.8890
40470SOL     OW24686   7.917   9.830   5.236 -0.0933  0.0002 -0.0546
40470SOL    HW124687   7.918   9.900   5.171 -1.2931 -0.7783 -0.9540
40470SOL    HW224688   8.002   9.788   5.226 -0.3391 -0.2477 -1.3023
40471SOL     OW24689   9.166   0.578  10.745  0.0271 -0.3036  0.1458
40471SOL    HW124690   9.135   0.665  10.719  0.7168 -0.2351 -0.4905
40471SOL    HW224691   9.176   0.584  10.840  0.3905  0.4255  0.0703
40472SOL     OW24692   7.091   0.662   8.650 -0.0460  0.2699  0.0314
40472SOL    HW124693   7.038   0.604   8.594 -0.2395 -0.4988  0.9814
40472SOL    HW224694   7.037   0.740   8.661 -0.2763  0.1691 -0.3596
40473SOL     OW24695   2.950   7.595   6.381  0.2403  0.0901 -0.1471
40473SOL    HW124696   2.980   7.686   6.375  3.7066 -0.8647  0.8108
40473SOL    HW224697   2.991   7.561   6.460  0.7131 -2.8769 -1.5394
40474SOL     OW24698   7.678   4.547   9.314  0.1539  0.4134 -0.5216
40474SOL    HW124699   7.725   4.612   9.366 -0.8247 -1.2636  2.7290
40474SOL    HW224700   7.587   4.556   9.341 -0.5508 -0.1957 -2.4673
40475SOL     OW24701   9.979  10.914   5.823 -0.2937  0.5933  0.8094
40475SOL    HW124702  10.065  10.948   5.844  0.8298 -0.1549 -2.0728
40475SOL    HW224703   9.982  10.822   5.849  1.1979 -0.4121 -2.3282
40476SOL     OW24704   0.760   5.763   5.156 -0.2505 -0.1452  0.3428
40476SOL    HW124705   0.745   5.856   5.174  0.2606 -0.1885  1.0007
40476SOL    HW224706   0.674   5.722   5.166 -0.4774  0.2539  0.0473
40477SOL     OW24707   9.250   9.304   2.044  0.8369  0.2433  0.5501
40477SOL    HW124708   9.310   9.243   2.089 -1.1249 -1.4831  1.0015
40477SOL    HW224709   9.220   9.363   2.113  0.1597 -0.4726  0.8866
40478SOL     OW24710   3.791   3.649   9.970  0.6034  0.2428  0.0250
40478SOL    HW124711   3.864   3.589   9.979  0.0921 -0.1948  1.6091
40478SOL    HW224712   3.818   3.711   9.902  2.1875 -0.2450  0.1814
40479SOL     OW24713  11.076   4.950   9.447 -0.0216  0.5445  0.2996
40479SOL    HW124714  10.982   4.937   9.430  0.0329 -0.0676  0.4648
40479SOL    HW224715  11.090   5.043   9.428 -0.7913  0.7935  0.8818
40480SOL     OW24716  10.706   5.842  11.311  0.4947  0.2706 -0.0573
40480SOL    HW124717  10.679   5.923  11.354  1.8989  0.7778 -0.0969
40480SOL    HW224718  10.634   5.781  11.327 -0.9222  1.7175 -0.6183
40481SOL     OW24719   2.231   6.752   8.277 -0.1218  0.3000 -0.5832
40481SOL    HW124720   2.236   6.703   8.194 -0.2805  0.3546 -0.6263
40481SOL    HW224721   2.278   6.833   8.260  0.0891  0.1887 -0.5309
40482SOL     OW24722   4.829   0.428  11.064  0.4400  0.2619  0.3098
40482SOL    HW124723   4.898   0.494  11.061  0.8597 -0.2046 -1.2254
40482SOL    HW224724   4.875   0.345  11.079 -0.2294  0.4031  4.5321
40483SOL     OW24725   9.582   2.265   1.448  0.1345 -0.5580  0.3171
40483SOL    HW124726   9.673   2.236   1.445  0.3354  0.1175 -0.9610
40483SOL    HW224727   9.574   2.326   1.375 -1.2135 -0.2013  0.7313
40484SOL     OW24728   6.585  10.639   1.052 -0.4382  0.4604  0.4215
40484SOL    HW124729   6.658  10.654   1.112 -1.1253 -0.6665  1.6046
40484SOL    HW224730   6.593  10.708   0.986  0.8600  1.2027  1.3075
40485SOL     OW24731   6.304   8.463   5.445 -0.1338 -0.1943 -0.3731
40485SOL    HW124732   6.334   8.451   5.535 -0.3059 -1.7595 -0.4987
40485SOL    HW224733   6.264   8.380   5.421 -0.5672  0.3686 -1.7283
40486SOL     OW24734   8.111   1.053   0.432  0.5874  0.4375  0.1855
40486SOL    HW124735   8.016   1.043   0.437  0.7479 -1.0855  0.8777
40486SOL    HW224736   8.132   1.120   0.497  0.1245 -0.3785  1.1977
40487SOL     OW24737   6.911   2.283   6.904  0.3354 -0.7949  0.4692
40487SOL    HW124738   6.902   2.240   6.988  0.0880 -0.4693  0.6125
40487SOL    HW224739   6.981   2.236   6.859  0.3623 -1.0622  0.7960
40488SOL     OW24740   4.569   4.276   9.867 -0.1745  0.1067 -0.4712
40488SOL    HW124741   4.484   4.280   9.823 -0.3204  1.6464 -0.1094
40488SOL    HW224742   4.548   4.280   9.960  0.2856  0.2159 -0.3684
40489SOL     OW24743   3.912   5.830   6.318 -0.1323  0.4557 -0.2790
40489SOL    HW124744   3.978   5.896   6.299 -0.7419  0.8775 -0.9711
40489SOL    HW224745   3.845   5.842   6.251  0.0799 -1.3302 -0.8872
40490SOL     OW24746   1.174   8.456  10.377  0.1375 -0.4194 -0.1768
40490SOL    HW124747   1.167   8.362  10.396 -0.4748 -0.1075  1.2682
40490SOL    HW224748   1.268   8.473  10.377  0.3033 -1.2262 -1.5355
40491SOL     OW24749   8.276   6.391   8.063  0.4699  0.9655 -0.0951
40491SOL    HW124750   8.351   6.346   8.103 -0.2890  0.7375  1.1079
40491SOL    HW224751   8.221   6.320   8.029  0.3833  1.0899 -0.2149
40492SOL     OW24752   7.694  10.106   8.958  0.9408 -0.6205  0.6078
40492SOL    HW124753   7.759  10.107   9.028  0.0566 -0.0022  1.4363
40492SOL    HW224754   7.615  10.072   8.998  0.3953 -0.1734 -0.0640
40493SOL     OW24755   1.503   5.704   6.090  0.0738  0.2988  0.0232
40493SOL    HW124756   1.452   5.651   6.151  0.5870  1.7819  1.8356
40493SOL    HW224757   1.486   5.794   6.117  0.5999  1.0066 -1.8470
40494SOL     OW24758   9.693   3.285   1.517 -0.3695 -0.7582  0.0248
40494SOL    HW124759   9.746   3.309   1.593 -0.3158  0.0475 -0.2641
40494SOL    HW224760   9.726   3.198   1.492 -0.5692 -1.1584  1.0757
40495SOL     OW24761   5.267   9.709   3.662 -0.6826 -0.4733  0.1558
40495SOL    HW124762   5.333   9.772   3.692 -1.4978 -0.3390  1.7661
40495SOL    HW224763   5.208   9.761   3.607  0.2661 -0.5026 -0.9352
40496SOL     OW24764   6.464   1.596   7.490  0.2110 -0.1980  0.0112
40496SOL    HW124765   6.545   1.640   7.514 -0.0717 -0.6674  1.9918
40496SOL    HW224766   6.402   1.666   7.472  0.5793  0.1725  0.1845
40497SOL     OW24767   4.621   6.094   9.646 -0.0322 -0.2049  1.1674
40497SOL    HW124768   4.651   6.182   9.623 -3.2346  1.1724  1.6726
40497SOL    HW224769   4.692   6.057   9.698  1.7264  1.7468  0.3169
40498SOL     OW24770  10.071   8.648   7.563  0.3862 -0.1601 -0.0972
40498SOL    HW124771  10.090   8.619   7.474  0.6985  1.0748 -0.4641
40498SOL    HW224772  10.031   8.573   7.605  0.0203 -0.6993 -1.3553
40499SOL     OW24773   1.924   8.171   4.626 -0.0698 -0.4525 -0.5425
40499SOL    HW124774   1.855   8.112   4.594 -0.0852 -0.9550  0.3767
40499SOL    HW224775   1.924   8.158   4.721  0.8215  0.0682 -0.4626
40500SOL     OW24776   9.961   6.693   8.226  0.7937 -0.4069  0.3848
40500SOL    HW124777  10.043   6.677   8.272  1.3060 -0.1779 -0.4252
40500SOL    HW224778   9.982   6.763   8.163 -0.5236  1.0796  1.5251
40501SOL     OW24779  10.842   1.463   7.472  0.0466 -0.1435  0.0683
40501SOL    HW124780  10.898   1.508   7.408  0.2060  0.3343  0.5351
40501SOL    HW224781  10.870   1.372   7.468  1.1855  0.1618  0.6061
40502SOL     OW24782   3.560   6.786   8.763  0.3589 -0.0943  0.0630
40502SOL    HW124783   3.605   6.870   8.773  0.7742 -0.3769  0.6667
40502SOL    HW224784   3.516   6.792   8.679  1.1457  0.3738 -0.3301
40503SOL     OW24785   0.170   7.900   1.596  0.0913 -0.0539  0.0643
40503SOL    HW124786   0.193   7.972   1.654  0.3861 -0.6445  0.7010
40503SOL    HW224787   0.242   7.838   1.606  0.4879  0.1238 -1.4511
40504SOL     OW24788   1.994   2.841  10.579  0.0330 -0.5309  0.1586
40504SOL    HW124789   1.925   2.896  10.618  0.0558  1.0461 -1.8434
40504SOL    HW224790   1.962   2.752  10.590 -2.8446  0.1738 -1.5007
40505SOL     OW24791   3.279   0.966   4.325  0.3197  0.3407  0.5123
40505SOL    HW124792   3.190   1.001   4.333 -0.0452 -0.1474 -1.0535
40505SOL    HW224793   3.322   0.991   4.407 -1.6535 -0.6028  1.9078
40506SOL     OW24794   7.044   0.698   9.575 -0.4694  0.6044 -0.4444
40506SOL    HW124795   7.039   0.769   9.512 -3.0336  0.9926  0.1085
40506SOL    HW224796   7.085   0.626   9.527  3.4838  2.7138 -0.6459
40507SOL     OW24797   3.268   8.827   5.204 -0.1369  0.0454 -0.1106
40507SOL    HW124798   3.321   8.779   5.267 -1.4234 -0.7216  0.4438
40507SOL    HW224799   3.200   8.765   5.178 -0.7776  0.9922 -0.7670
40508SOL     OW24800   1.607   1.107   9.477 -0.5868 -0.0537 -0.3975
40508SOL    HW124801   1.640   1.021   9.451  1.6357  0.6206 -0.0183
40508SOL    HW224802   1.514   1.093   9.495 -0.4490 -2.1839 -1.1076
40509SOL     OW24803   1.901   8.283   1.078 -0.0449 -0.2628  0.0464
40509SOL    HW124804   1.825   8.304   1.133  1.2009  2.2463  0.9746
40509SOL    HW224805   1.933   8.199   1.111 -2.1111 -1.1674 -0.0844
40510SOL     OW24806   4.444   3.013   0.501 -0.2464 -0.0505  0.0140
40510SOL    HW124807   4.375   2.952   0.528 -0.7741  0.0703 -1.0048
40510SOL    HW224808   4.455   2.997   0.408  1.0964 -0.0286  0.1587
40511SOL     OW24809   4.809   9.642   9.600  0.1757 -0.1331  1.0810
40511SOL    HW124810   4.834   9.727   9.637 -0.1774  0.0497  0.8983
40511SOL    HW224811   4.718   9.653   9.572  1.2759  0.7688 -2.7605
40512SOL     OW24812   7.648   8.228   5.015 -0.2702  0.0163  0.2479
40512SOL    HW124813   7.618   8.211   4.926  1.3463  1.6483 -0.6741
40512SOL    HW224814   7.731   8.180   5.022 -0.7990 -0.7895  1.1873
40513SOL     OW24815   1.670   3.514   0.196  0.5376  0.4651 -0.1290
40513SOL    HW124816   1.642   3.576   0.129 -1.5239 -0.8236 -0.5396
40513SOL    HW224817   1.690   3.433   0.147  0.5866 -0.0047  0.6524
40514SOL     OW24818   9.514   9.299  10.655 -0.0631  0.1712 -0.7740
40514SOL    HW124819   9.515   9.394  10.668  1.6399  0.1197 -0.3034
40514SOL    HW224820   9.584   9.283  10.592 -1.0651 -0.6915 -1.7256
40515SOL     OW24821  10.131   0.725   9.072  0.4855 -0.3398 -0.0160
40515SOL    HW124822  10.063   0.729   9.140 -1.2699 -0.5706 -1.6910
40515SOL    HW224823  10.084   0.734   8.990  2.5484 -0.1851 -1.2538
40516SOL     OW24824   4.458   4.577   7.214 -0.5527  0.0368  0.1190
40516SOL    HW124825   4.453   4.503   7.153  1.1209  0.0635 -0.1230
40516SOL    HW224826   4.551   4.600   7.215 -0.5265  0.0446  2.7136
40517SOL     OW24827  10.890  10.581   0.296  0.3013 -0.3816  0.5100
40517SOL    HW124828  10.970  10.532   0.277  0.4980  0.8722 -2.5180
40517SOL    HW224829  10.896  10.659   0.240 -2.5781  0.2496  0.9258
40518SOL     OW24830  11.279   4.026   5.923  0.2827  0.1055 -0.4840
40518SOL    HW124831  11.272   3.947   5.869  0.7894 -0.3982  0.1700
40518SOL    HW224832  11.207   4.082   5.893 -0.8439 -1.1016 -0.1679
40519SOL     OW24833   1.465   9.157  10.383  0.2790 -0.2198  0.2066
40519SOL    HW124834   1.408   9.088  10.418 -1.6508  2.2146  2.2552
40519SOL    HW224835   1.509   9.192  10.461  0.5589  1.3841 -0.6469
40520SOL     OW24836   6.133   6.368   2.590  0.6956  0.3424 -0.4112
40520SOL    HW124837   6.053   6.421   2.593  0.3874  0.0339 -1.9896
40520SOL    HW224838   6.185   6.408   2.519  0.3689 -1.5414 -1.7869
40521SOL     OW24839   6.078   3.624   1.139 -0.1295  0.1256 -0.1936
40521SOL    HW124840   5.996   3.592   1.176  0.2287  1.3898  1.7995
40521SOL    HW224841   6.122   3.545   1.106 -1.4326 -0.7561  0.1092
40522SOL     OW24842   0.311   3.635   5.052  0.1524 -0.0134  0.2945
40522SOL    HW124843   0.236   3.574   5.055  0.9282 -0.9502  2.1334
40522SOL    HW224844   0.284   3.702   4.989 -0.8558 -2.0927 -1.6471
40523SOL     OW24845  10.884   4.813   0.367  0.3518  0.4307  0.3083
40523SOL    HW124846  10.836   4.872   0.308  2.2960  1.3317 -0.4549
40523SOL    HW224847  10.855   4.839   0.455  0.0790  1.5158 -0.0863
40524SOL     OW24848   9.409  10.954  11.222 -0.0762 -1.0544  0.3652
40524SOL    HW124849   9.428  10.865  11.250  0.1233 -1.2791 -0.4536
40524SOL    HW224850   9.398  10.948  11.127  0.1825 -0.1683  0.2650
40525SOL     OW24851   9.422   1.776  10.407 -0.6763  0.5336 -0.3165
40525SOL    HW124852   9.505   1.737  10.379 -0.2792  0.9786  0.2373
40525SOL    HW224853   9.426   1.774  10.502 -1.4921  0.1652 -0.2841
40526SOL     OW24854   5.685   7.699   7.871 -0.3530  0.5738 -0.0907
40526SOL    HW124855   5.608   7.651   7.842 -0.5960  1.4380 -0.9322
40526SOL    HW224856   5.758   7.653   7.831 -0.5288  0.5007 -0.3299
40527SOL     OW24857   3.035   5.457   6.974 -0.2052  0.4179  0.5767
40527SOL    HW124858   3.075   5.386   6.924  0.7135 -0.1119  2.0164
40527SOL    HW224859   2.966   5.490   6.917 -0.3938 -1.3636 -0.2891
40528SOL     OW24860   3.707   5.809   5.340 -0.2478 -0.4852  0.2745
40528SOL    HW124861   3.715   5.899   5.310  0.4248 -0.8108 -0.5660
40528SOL    HW224862   3.775   5.800   5.407  0.9726 -0.8799 -0.9710
40529SOL     OW24863   1.020   7.012   1.406  0.5517 -0.1385  0.4752
40529SOL    HW124864   0.987   6.923   1.419  0.3143 -0.0411  0.5449
40529SOL    HW224865   0.981   7.039   1.322  0.8912 -0.2234  0.2903
40530SOL     OW24866  11.160   8.853   4.705  0.5083 -0.1640  0.4762
40530SOL    HW124867  11.139   8.802   4.783 -0.4705  0.4475  0.6229
40530SOL    HW224868  11.087   8.838   4.646  1.5831 -1.2053 -0.6392
40531SOL     OW24869   8.261   0.053   8.193 -0.4336 -0.7071 -0.0263
40531SOL    HW124870   8.243  -0.034   8.229  1.7040 -0.8555  0.7960
40531SOL    HW224871   8.251   0.042   8.098  0.3886 -2.0292  0.0085
40532SOL     OW24872   0.502   2.295  10.674 -0.0184 -0.1739  0.5459
40532SOL    HW124873   0.499   2.360  10.603 -2.1889  0.9510  1.5784
40532SOL    HW224874   0.591   2.303  10.709  0.7432  0.0421 -1.2690
40533SOL     OW24875   7.931   4.174   9.706 -0.3854  0.5796 -0.2155
40533SOL    HW124876   7.983   4.185   9.626 -1.5018 -2.3506 -1.4834
40533SOL    HW224877   7.841   4.162   9.675 -0.9761  0.1322  1.5493
40534SOL     OW24878   7.824   7.354   7.660 -0.3263 -0.2740  0.5165
40534SOL    HW124879   7.751   7.388   7.608  0.6294  1.2234  0.0766
40534SOL    HW224880   7.861   7.432   7.702  1.7057 -0.7921 -0.2040
40535SOL     OW24881   0.671   7.409  11.240  0.7623 -0.6661 -0.0183
40535SOL    HW124882   0.751   7.404  11.189  0.4382 -2.5099 -0.4251
40535SOL    HW224883   0.696   7.379  11.327  0.6401 -0.7665 -0.0162
40536SOL     OW24884   4.237   7.188   6.353 -0.6913 -0.5927  0.3836
40536SOL    HW124885   4.260   7.278   6.374 -0.2952 -0.6763  0.3230
40536SOL    HW224886   4.290   7.167   6.276 -0.9669 -0.7945  0.2480
40537SOL     OW24887   9.500   6.645   0.861 -0.2230 -0.8559  0.0686
40537SOL    HW124888   9.439   6.588   0.814 -2.1527 -0.4962  1.9845
40537SOL    HW224889   9.471   6.641   0.952  0.5880  1.8954  0.5233
40538SOL     OW24890   3.082   5.739   7.771  0.2024  0.1253  0.1439
40538SOL    HW124891   3.063   5.666   7.712  0.9860  0.6614 -0.8177
40538SOL    HW224892   3.007   5.743   7.830  1.2137 -2.9336  1.7847
40539SOL     OW24893   7.105   5.587   9.053 -0.0978 -0.3572 -0.1406
40539SOL    HW124894   7.070   5.567   9.140 -1.0125  1.8034  0.0709
40539SOL    HW224895   7.150   5.671   9.064 -0.6420  0.1990 -1.8358
40540SOL     OW24896   6.158   1.273   8.077  0.4921  0.0994  0.0729
40540SOL    HW124897   6.132   1.349   8.129  1.2639  0.3997  0.0417
40540SOL    HW224898   6.159   1.305   7.987 -0.2216 -0.2476 -0.0677
40541SOL     OW24899   2.325   4.847   0.505 -0.6964 -0.9799 -0.2819
40541SOL    HW124900   2.408   4.863   0.550  0.8241 -3.3445 -1.9855
40541SOL    HW224901   2.344   4.866   0.413 -2.1920 -1.2219 -0.6722
40542SOL     OW24902   0.109   5.547   2.422 -0.1435 -0.1417  0.3148
40542SOL    HW124903   0.046   5.499   2.369 -1.8396  1.8453  0.3855
40542SOL    HW224904   0.192   5.540   2.374 -1.6780  1.9784 -3.0415
40543SOL     OW24905   2.019   4.480   7.706  0.0304  0.6807 -0.0482
40543SOL    HW124906   2.024   4.409   7.770 -0.2189  1.0653  0.4026
40543SOL    HW224907   2.092   4.538   7.729  1.0724 -0.0978 -1.2489
40544SOL     OW24908   0.106   4.572  10.807  0.4207 -0.1157 -0.1653
40544SOL    HW124909   0.023   4.524  10.810 -0.7970  1.8505  0.1810
40544SOL    HW224910   0.084   4.658  10.844  2.1127  1.2068 -2.0337
40545SOL     OW24911   7.213   1.531   9.681 -0.0017  0.1091 -0.5746
40545SOL    HW124912   7.209   1.440   9.711 -2.3465  0.9068  1.9299
40545SOL    HW224913   7.135   1.541   9.626  0.8753  0.3433 -1.8119
40546SOL     OW24914   9.868   6.763   6.590 -0.4652 -0.6235  0.1045
40546SOL    HW124915   9.892   6.698   6.656 -0.1013 -2.1046 -1.4071
40546SOL    HW224916   9.778   6.741   6.566 -0.3830 -0.5087 -0.3336
40547SOL     OW24917   6.011   3.802   8.166 -0.3101 -0.3312  0.1121
40547SOL    HW124918   5.976   3.872   8.111  0.1483 -0.3429 -0.2022
40547SOL    HW224919   6.095   3.780   8.126  0.2435 -0.0341  1.0758
40548SOL     OW24920  10.863   1.918   5.138 -0.3555  0.2983 -0.3747
40548SOL    HW124921  10.900   1.950   5.056 -0.8389  1.0127 -0.3245
40548SOL    HW224922  10.889   1.826   5.142  1.0458  0.6658 -0.5416
40549SOL     OW24923  11.039  10.372   2.164  0.3427  0.4549  0.2587
40549SOL    HW124924  11.051  10.278   2.154 -0.0681  0.6249 -3.4125
40549SOL    HW224925  10.967  10.393   2.104  0.1603  3.0674  1.2624
40550SOL     OW24926   3.202   3.286   9.066 -0.0517 -0.2610 -0.5066
40550SOL    HW124927   3.218   3.371   9.107 -0.0520  0.9482 -2.8158
40550SOL    HW224928   3.260   3.225   9.112  0.6153  1.1714  0.6225
40551SOL     OW24929  10.454   7.583   4.694  0.6085  0.0796  0.0154
40551SOL    HW124930  10.408   7.589   4.611  0.4931 -0.8198  0.0017
40551SOL    HW224931  10.399   7.630   4.756  1.6502  2.4884 -0.7738
40552SOL     OW24932   4.463   2.081   3.354 -0.0389  0.1779  0.3426
40552SOL    HW124933   4.415   2.123   3.282 -0.9851  0.8282  1.3070
40552SOL    HW224934   4.413   2.001   3.373  0.4250 -0.1874  0.0325
40553SOL     OW24935   3.345   7.017  10.287 -0.0134 -0.0343 -0.4081
40553SOL    HW124936   3.395   7.098  10.292  0.8895 -0.4996 -1.5382
40553SOL    HW224937   3.281   7.032  10.218 -0.1930 -0.1116 -0.2615
40554SOL     OW24938   1.449   0.735   9.048 -0.2323 -0.7256 -0.1203
40554SOL    HW124939   1.499   0.803   9.002  0.9673 -0.1683  1.8648
40554SOL    HW224940   1.377   0.783   9.089  0.4855 -0.6559  1.0966
40555SOL     OW24941   7.770   1.766  10.240  0.4044 -0.2936 -0.1504
40555SOL    HW124942   7.697   1.737  10.295 -0.8879  1.2355 -0.9713
40555SOL    HW224943   7.804   1.843  10.286 -0.5140  0.8323 -1.2939
40556SOL     OW24944   5.053   8.424   5.938 -0.3843 -0.2668  0.1534
40556SOL    HW124945   5.009   8.353   5.891  0.1061 -1.0484  0.8354
40556SOL    HW224946   5.012   8.423   6.025  0.7597 -0.8137  0.7008
40557SOL     OW24947   9.784  10.127  10.823 -0.1976  0.0069 -1.2735
40557SOL    HW124948   9.878  10.118  10.839 -0.4653 -0.5642  0.1502
40557SOL    HW224949   9.771  10.094  10.734  0.9190 -0.0581 -1.4218
40558SOL     OW24950   9.076   9.948   5.554 -0.2649 -0.3649  0.2901
40558SOL    HW124951   8.994   9.985   5.586 -1.3862 -1.9055 -0.6512
40558SOL    HW224952   9.053   9.909   5.469  1.4007 -0.9534  0.0777
40559SOL     OW24953  10.027   7.168   8.182 -0.4527 -0.0169 -0.5947
40559SOL    HW124954  10.104   7.213   8.214 -0.7981 -0.0458  0.3125
40559SOL    HW224955  10.053   7.131   8.098  0.1949  0.8487 -0.7781
40560SOL     OW24956   8.963   7.873   1.009  0.1590 -0.4687  0.4417
40560SOL    HW124957   8.939   7.807   0.944 -1.4967 -1.0807  1.6239
40560SOL    HW224958   9.039   7.918   0.970  0.6460 -2.3126 -0.8769
40561SOL     OW24959   6.743  10.798   8.251  0.0282 -0.3061  0.0632
40561SOL    HW124960   6.795  10.841   8.182  0.3910 -0.3679  0.2944
40561SOL    HW224961   6.655  10.793   8.214  0.2140 -0.3238 -0.3915
40562SOL     OW24962   1.423   9.961   6.074 -0.0945  0.1134  0.0063
40562SOL    HW124963   1.513   9.990   6.067 -0.1037  0.8786  2.3198
40562SOL    HW224964   1.391   9.961   5.984  2.1047  0.0834 -0.8339
40563SOL     OW24965   8.247   1.391   1.243  0.0549  0.3496  0.2311
40563SOL    HW124966   8.261   1.476   1.201  1.8726  0.4943  1.0360
40563SOL    HW224967   8.186   1.409   1.315 -1.5097  0.4593 -1.0464
40564SOL     OW24968   0.686   9.862  10.629 -0.1158  0.3421  0.4327
40564SOL    HW124969   0.670   9.877  10.536  0.3472 -1.6516 -0.0306
40564SOL    HW224970   0.642   9.934  10.673  0.4996  1.9068 -1.3608
40565SOL     OW24971   4.104  10.920   3.467 -0.5177  0.0286 -0.0868
40565SOL    HW124972   4.010  10.930   3.455 -0.5560  1.6791  1.2027
40565SOL    HW224973   4.140  11.006   3.446  0.6617 -0.4764 -0.2124
40566SOL     OW24974  10.944   5.480   9.229  0.1151 -0.7095 -0.0534
40566SOL    HW124975  10.925   5.499   9.321 -1.8049 -0.7876 -0.3995
40566SOL    HW224976  11.034   5.446   9.230  1.1644  1.7663  1.4430
40567SOL     OW24977   7.329   7.091   6.301 -0.3297 -0.5681  0.3919
40567SOL    HW124978   7.263   7.159   6.312 -0.6970 -0.8457 -0.0679
40567SOL    HW224979   7.319   7.061   6.211  1.6827  0.6796 -0.3246
40568SOL     OW24980   7.090   1.321   0.681 -0.4779 -0.0915  0.4448
40568SOL    HW124981   7.044   1.238   0.694 -2.0861  0.5881 -0.7216
40568SOL    HW224982   7.035   1.371   0.621 -0.0771  2.2450  1.8906
40569SOL     OW24983   4.511   6.285   7.189 -0.0257 -0.1191 -0.3294
40569SOL    HW124984   4.477   6.339   7.117  1.8309  2.3670  0.4928
40569SOL    HW224985   4.585   6.238   7.150 -1.1978 -1.5635 -0.8699
40570SOL     OW24986   4.809   9.594   1.855  0.0689 -0.4783 -0.1122
40570SOL    HW124987   4.783   9.534   1.926  0.7632 -0.5927  0.0596
40570SOL    HW224988   4.749   9.574   1.783 -0.6313 -0.3760  0.4386
40571SOL     OW24989   7.757   3.505   5.023  0.1422 -0.7703  0.2686
40571SOL    HW124990   7.777   3.529   4.933 -1.4609 -0.9404 -0.1525
40571SOL    HW224991   7.761   3.587   5.071 -0.6130 -0.4098 -0.2728
40572SOL     OW24992  10.797   5.117   6.675 -0.0533  0.4036 -0.3719
40572SOL    HW124993  10.864   5.053   6.649 -0.0591 -0.4576  1.5342
40572SOL    HW224994  10.763   5.151   6.593 -0.4497 -2.4924 -1.5343
40573SOL     OW24995  10.745   2.459   6.889  0.2376 -0.8145 -0.5719
40573SOL    HW124996  10.801   2.458   6.967 -2.2474  2.3926  1.5470
40573SOL    HW224997  10.656   2.461   6.924 -0.9973  1.9952 -3.3401
40574SOL     OW24998   6.442   1.958   8.459  0.0377  0.0899  0.1016
40574SOL    HW124999   6.445   1.982   8.552  0.5101 -1.0581  0.3916
40574SOL    HW225000   6.349   1.966   8.436  0.0870  1.6749  0.2974
40575SOL     OW25001   0.096   9.099   5.490  0.5421  0.0388  0.1994
40575SOL    HW125002   0.077   9.098   5.584  0.3216  0.2463  0.1589
40575SOL    HW225003   0.110   9.191   5.470 -0.6353  0.1431 -0.2089
40576SOL     OW25004   5.087   9.811   9.914 -0.0282  0.0182 -0.2581
40576SOL    HW125005   5.144   9.754   9.864  0.5360  1.5794 -1.4721
40576SOL    HW225006   5.096   9.897   9.873 -0.8950  0.9847  1.4445
40577SOL     OW25007   1.096   8.724   9.753 -0.2517  0.0644  0.3315
40577SOL    HW125008   1.009   8.716   9.792 -0.8994  0.7513 -0.8931
40577SOL    HW225009   1.148   8.770   9.819 -0.3063 -1.8242  1.7677
40578SOL     OW25010  11.269   7.353   5.289 -0.5547  0.5828 -0.5174
40578SOL    HW125011  11.328   7.279   5.274  0.0678  0.9936 -0.0968
40578SOL    HW225012  11.191   7.313   5.328  0.2578  0.2763  0.8660
40579SOL     OW25013   1.303   7.024  11.011  0.6320 -0.4705  0.0883
40579SOL    HW125014   1.311   7.119  10.999  0.6302 -0.3475  0.9523
40579SOL    HW225015   1.209   7.009  11.021  0.4363 -0.8201 -1.8201
40580SOL     OW25016   1.767   6.473  11.087  0.8076  0.0949 -0.4565
40580SOL    HW125017   1.830   6.411  11.050  1.0238 -0.0968  0.2179
40580SOL    HW225018   1.712   6.499  11.013  2.2226  0.9257 -1.2603
40581SOL     OW25019  10.642  10.450   9.129 -0.2332 -0.1281 -0.3418
40581SOL    HW125020  10.660  10.520   9.066 -1.8488  1.4440  0.8270
40581SOL    HW225021  10.555  10.418   9.105 -0.0224 -0.8821 -0.1078
40582SOL     OW25022   6.640   9.043   2.203 -0.2403  0.1841 -0.3273
40582SOL    HW125023   6.578   8.973   2.180 -0.1045 -0.1783  0.3543
40582SOL    HW225024   6.707   8.998   2.255  0.3210  0.6701 -0.6300
40583SOL     OW25025   3.650   0.324   2.853 -0.0626  0.4630  0.7233
40583SOL    HW125026   3.667   0.283   2.768 -0.1553  1.3253  0.2750
40583SOL    HW225027   3.571   0.282   2.885  0.8000 -0.9461  1.1000
40584SOL     OW25028   6.739   5.446   8.725  0.3399  0.1537 -0.0707
40584SOL    HW125029   6.650   5.445   8.761  0.2149  1.0572 -0.3274
40584SOL    HW225030   6.733   5.391   8.647  0.3994 -1.0841  0.7719
40585SOL     OW25031   2.835   7.871   1.899 -0.4169  0.5305  0.3507
40585SOL    HW125032   2.866   7.952   1.859 -0.5869  0.4487  0.0541
40585SOL    HW225033   2.908   7.810   1.888 -0.6136  0.3898 -0.1918
40586SOL     OW25034   8.099   4.725   7.395 -0.2543 -0.2373  0.0455
40586SOL    HW125035   8.177   4.699   7.444  0.7496  1.7691 -0.3806
40586SOL    HW225036   8.029   4.728   7.461  0.8855  1.6288  1.2542
40587SOL     OW25037   4.435   0.380   5.253  0.8572 -0.2201 -0.4027
40587SOL    HW125038   4.379   0.422   5.188 -0.7594 -2.0621 -0.2970
40587SOL    HW225039   4.378   0.368   5.329  1.3080 -2.3622 -0.3560
40588SOL     OW25040   6.957   4.125   6.347  0.0726 -0.1577  0.2466
40588SOL    HW125041   6.965   4.169   6.432 -1.0951  0.2871  0.1328
40588SOL    HW225042   6.938   4.194   6.285  0.3440 -0.5621 -0.2987
40589SOL     OW25043   4.500   6.158  10.168  0.2775  0.1895  0.1572
40589SOL    HW125044   4.482   6.072  10.130  2.5607  0.0741 -0.8432
40589SOL    HW225045   4.490   6.145  10.262  1.3392 -1.4151  0.0916
40590SOL     OW25046   8.117   4.603   0.781 -0.1274 -0.8372 -0.0454
40590SOL    HW125047   8.023   4.589   0.782 -0.1665 -0.5816 -0.1182
40590SOL    HW225048   8.153   4.525   0.738 -0.3201 -0.8443 -0.1938
40591SOL     OW25049   7.261   0.373  10.965  0.4502  0.2688  0.1452
40591SOL    HW125050   7.260   0.424  11.047  2.7413 -0.1534  0.5136
40591SOL    HW225051   7.228   0.433  10.899  1.3584  1.6607  0.8936
40592SOL     OW25052   3.906  10.018   7.139  0.4350  0.0247 -0.0676
40592SOL    HW125053   3.875  10.082   7.203 -0.8002 -0.5895 -0.0286
40592SOL    HW225054   3.960   9.957   7.190 -0.3160 -0.3044  0.3546
40593SOL     OW25055   3.251  10.070  11.046  0.1993 -0.0885 -0.1395
40593SOL    HW125056   3.341  10.099  11.031 -0.1938  1.5949  0.5325
40593SOL    HW225057   3.257  10.010  11.120  0.7964 -0.1663 -0.2455
40594SOL     OW25058   4.232   3.460   4.125 -0.4988 -0.3068  0.1549
40594SOL    HW125059   4.297   3.527   4.148  0.2350 -0.6200 -0.9292
40594SOL    HW225060   4.189   3.440   4.208  0.5595  0.1547  0.8484
40595SOL     OW25061   9.197   2.483   8.614 -0.3786 -0.4305  0.0263
40595SOL    HW125062   9.159   2.560   8.571  0.9917 -0.9709 -2.3273
40595SOL    HW225063   9.155   2.481   8.700 -2.2453  1.5459 -0.7307
40596SOL     OW25064   1.289   5.977   1.032  0.2646  0.1924 -0.1323
40596SOL    HW125065   1.358   5.952   0.971 -0.8057 -1.6083 -0.6889
40596SOL    HW225066   1.268   6.068   1.009  0.0207 -0.3797 -2.3572
40597SOL     OW25067   4.903   2.934   4.267  0.2690  0.0418 -0.3005
40597SOL    HW125068   4.968   2.912   4.334 -2.1400 -2.8633  1.3491
40597SOL    HW225069   4.895   2.855   4.214 -0.9409  0.7978 -1.3047
40598SOL     OW25070   1.666   2.759  11.249 -0.1644 -0.2847 -0.1751
40598SOL    HW125071   1.610   2.736  11.175  0.9456 -2.0195 -0.5341
40598SOL    HW225072   1.755   2.754  11.215  0.2941  1.1208  0.7268
40599SOL     OW25073   0.852   3.555   9.729  0.3636  0.0232 -0.1087
40599SOL    HW125074   0.907   3.606   9.789 -0.9660  0.9608  0.3741
40599SOL    HW225075   0.878   3.464   9.745  0.5243  0.2960  1.4208
40600SOL     OW25076   9.483   5.381   9.441  0.2421  0.3283  0.3182
40600SOL    HW125077   9.560   5.342   9.398 -0.0666  0.8418 -0.7408
40600SOL    HW225078   9.497   5.365   9.534  0.8609 -0.9820  0.0348
40601SOL     OW25079   6.363   1.786   6.485 -0.2928  0.6010 -0.4915
40601SOL    HW125080   6.449   1.826   6.472 -0.2992  1.1491  0.9857
40601SOL    HW225081   6.301   1.858   6.475 -0.5310  0.3448 -0.8678
40602SOL     OW25082   8.279   9.087   0.403  0.2758  0.1592 -0.1532
40602SOL    HW125083   8.313   8.998   0.418 -1.3942 -0.9977 -2.5492
40602SOL    HW225084   8.357   9.140   0.388  1.3041 -1.0093  0.7777
40603SOL     OW25085   6.360   7.669  11.061 -0.4328 -0.1150 -0.1886
40603SOL    HW125086   6.327   7.703  10.979  1.2166  2.5389  0.1386
40603SOL    HW225087   6.326   7.580  11.066 -0.4710 -0.4287 -3.7932
40604SOL     OW25088   0.892   6.618   1.322 -0.8181 -0.2541 -0.3008
40604SOL    HW125089   0.970   6.634   1.269 -1.9630  2.0897 -1.4286
40604SOL    HW225090   0.905   6.668   1.402 -0.3436 -1.4862  0.4253
40605SOL     OW25091   3.092   3.893   4.820 -0.2934 -0.1053 -0.1792
40605SOL    HW125092   3.127   3.808   4.791 -0.5002  0.2273 -1.4957
40605SOL    HW225093   3.048   3.875   4.902  0.1737 -1.1604 -0.1460
40606SOL     OW25094   6.674   1.833   0.717 -0.2814 -0.4002  0.0452
40606SOL    HW125095   6.590   1.795   0.692 -0.0125 -0.5729 -0.6121
40606SOL    HW225096   6.737   1.793   0.657  0.3382 -0.5955  0.8120
40607SOL     OW25097   7.399   9.328   3.995  0.5086 -0.1147  0.5735
40607SOL    HW125098   7.388   9.257   4.059  0.4861 -0.0843  0.6032
40607SOL    HW225099   7.398   9.283   3.910 -0.1081 -0.0904  0.5614
40608SOL     OW25100   5.351   6.900   8.629 -0.2585 -0.7761 -0.1194
40608SOL    HW125101   5.362   6.944   8.545 -2.4324  1.7520  0.7858
40608SOL    HW225102   5.279   6.838   8.614 -1.6183  0.6830  0.1606
40609SOL     OW25103   3.646   4.387   6.910 -0.1787 -0.3308  0.7162
40609SOL    HW125104   3.742   4.388   6.919  0.1635  1.4092 -1.9466
40609SOL    HW225105   3.614   4.433   6.988  1.2455  0.1992  1.0264
40610SOL     OW25106   0.926   0.000   2.038  0.2258  0.0401 -0.0042
40610SOL    HW125107   1.019  -0.011   2.058 -0.1507 -0.9711  1.3413
40610SOL    HW225108   0.886  -0.085   2.059 -1.3227  1.0523  1.5001
40611SOL     OW25109   8.350   6.419   9.541 -0.3079  1.5144  0.0120
40611SOL    HW125110   8.257   6.439   9.543 -0.4895  0.7113 -0.2555
40611SOL    HW225111   8.383   6.463   9.462 -0.7327  0.6616 -0.6549
40612SOL     OW25112  10.618   7.861   8.235  0.6667  0.2242 -0.2160
40612SOL    HW125113  10.612   7.822   8.148 -0.0985  0.3024 -0.2007
40612SOL    HW225114  10.703   7.832   8.268  0.4511 -0.7729 -0.5135
40613SOL     OW25115   3.238   2.338   6.890 -0.1499  0.0325 -0.4811
40613SOL    HW125116   3.208   2.263   6.838  0.1648  0.3638 -1.1513
40613SOL    HW225117   3.165   2.358   6.948  0.2992 -1.7661  0.8100
40614SOL     OW25118   1.679   9.819   5.676  0.4810 -0.2717  0.1827
40614SOL    HW125119   1.759   9.857   5.639  0.6170  1.0938  1.7349
40614SOL    HW225120   1.615   9.890   5.672  0.1320 -0.5048  1.2998
40615SOL     OW25121   3.745   9.032   4.648  0.2865  0.3368 -0.5748
40615SOL    HW125122   3.664   9.083   4.659  1.1619  1.7672 -0.5768
40615SOL    HW225123   3.805   9.091   4.604  1.7584 -0.2621  0.5420
40616SOL     OW25124   6.024   3.134   1.484  0.0969  0.5384 -0.6184
40616SOL    HW125125   5.998   3.085   1.407 -0.4653  0.6181 -0.4829
40616SOL    HW225126   6.107   3.176   1.459  1.1740 -1.3348 -0.3682
40617SOL     OW25127   5.727   7.334   7.558 -0.2247 -0.3172  0.7969
40617SOL    HW125128   5.793   7.306   7.495 -2.2811 -1.7623 -0.8748
40617SOL    HW225129   5.716   7.428   7.541  1.9666  0.1546  1.7489
40618SOL     OW25130   0.623  11.350   1.013 -0.2205 -0.3927  0.3306
40618SOL    HW125131   0.715  11.326   1.003 -0.1349  0.3015 -0.6705
40618SOL    HW225132   0.623  11.420   1.079  0.1217  0.4494 -0.5419
40619SOL     OW25133   5.812   9.116   3.221 -0.6793 -0.1367  0.2417
40619SOL    HW125134   5.889   9.110   3.164 -0.8098 -0.9564  0.1455
40619SOL    HW225135   5.799   9.210   3.233 -0.0471  0.0245 -0.2643
40620SOL     OW25136   5.888   6.518   6.333 -0.0535  0.1644  0.1505
40620SOL    HW125137   5.947   6.567   6.390  0.5716  1.2082 -1.3408
40620SOL    HW225138   5.803   6.561   6.345 -0.0693 -0.0274  0.7576
40621SOL     OW25139  10.871   6.319   3.634  0.0295 -0.5111 -1.1385
40621SOL    HW125140  10.786   6.298   3.674  0.0418  1.1444 -0.1381
40621SOL    HW225141  10.929   6.250   3.665 -0.5340 -0.5980 -0.2237
40622SOL     OW25142   8.208   9.964   3.564 -0.3211 -0.3124 -0.5911
40622SOL    HW125143   8.266   9.899   3.523  0.5917  0.7612 -1.0919
40622SOL    HW225144   8.200   9.936   3.655  0.6918 -0.7148 -0.6062
40623SOL     OW25145   2.297   7.691   3.487  0.3411 -0.0988  0.3578
40623SOL    HW125146   2.327   7.759   3.547 -1.9950  1.4923 -0.1282
40623SOL    HW225147   2.219   7.654   3.531  0.7900 -1.5511 -0.0108
40624SOL     OW25148   3.738   5.319   8.628  0.2257  0.0687  0.0515
40624SOL    HW125149   3.819   5.370   8.627  0.4968 -0.3575 -0.0334
40624SOL    HW225150   3.708   5.319   8.537  0.4426 -0.2642 -0.0203
40625SOL     OW25151   9.192   7.716   6.102  0.2580  0.4460 -0.4815
40625SOL    HW125152   9.152   7.655   6.041  1.8915 -0.8200 -0.3571
40625SOL    HW225153   9.224   7.662   6.175  0.1754  1.6647  0.5122
40626SOL     OW25154   2.332   4.050   0.208  0.2131 -1.0503  0.1814
40626SOL    HW125155   2.389   4.003   0.146  0.0172  0.8955 -1.6036
40626SOL    HW225156   2.256   4.075   0.156 -0.7209 -0.7227  1.6644
40627SOL     OW25157   9.761   4.522   2.012 -0.3450  0.1801  0.1897
40627SOL    HW125158   9.685   4.485   1.967 -0.3722  0.2508  0.1772
40627SOL    HW225159   9.793   4.451   2.068 -0.0652 -0.0474 -0.2493
40628SOL     OW25160   9.694   0.091   4.664 -0.2504 -0.1818  0.0909
40628SOL    HW125161   9.686   0.058   4.574 -2.5362  1.0169 -0.2239
40628SOL    HW225162   9.615   0.060   4.708  0.4548 -0.0771  1.4819
40629SOL     OW25163   1.542   9.064   9.754  0.1320  0.1209 -0.2114
40629SOL    HW125164   1.530   9.025   9.841  2.2754  0.2051  0.1846
40629SOL    HW225165   1.518   8.994   9.693 -0.7374 -0.1641  0.4408
40630SOL     OW25166   0.271   1.390   9.412  0.4530  0.4509 -0.5142
40630SOL    HW125167   0.293   1.355   9.498  1.6752  0.7214 -0.6939
40630SOL    HW225168   0.230   1.317   9.366  0.4655  0.0851  0.0464
40631SOL     OW25169   7.688   6.954   7.693  0.0792 -0.1781 -0.0985
40631SOL    HW125170   7.644   7.014   7.633 -0.6493 -0.5637  0.0432
40631SOL    HW225171   7.740   7.011   7.750 -0.9461  0.3661  0.3194
40632SOL     OW25172   6.445   1.445   9.070 -0.0607 -0.4068 -0.5294
40632SOL    HW125173   6.404   1.358   9.076  1.0801 -0.8972  0.3562
40632SOL    HW225174   6.538   1.428   9.081  0.1276  1.0012  0.1392
40633SOL     OW25175   1.715   3.715   1.052  0.1216  0.0176  0.2144
40633SOL    HW125176   1.761   3.783   1.100 -1.0132  0.2064  1.0930
40633SOL    HW225177   1.661   3.762   0.988 -0.7366 -0.0396  0.8870
40634SOL     OW25178   8.143   0.465   7.265  0.3877 -0.0995 -0.8296
40634SOL    HW125179   8.128   0.372   7.250 -0.8187  0.0632 -0.6798
40634SOL    HW225180   8.099   0.484   7.347 -0.0541  0.7746 -1.2547
40635SOL     OW25181   8.021   7.789   8.550 -0.1510  0.1595  0.2638
40635SOL    HW125182   7.961   7.723   8.585  0.7854 -1.4299 -1.0210
40635SOL    HW225183   7.974   7.827   8.476 -0.7089  1.0238  1.0300
40636SOL     OW25184   0.840   0.931   3.320 -0.1606  0.2879 -0.1158
40636SOL    HW125185   0.914   0.907   3.265 -0.5036 -2.7951  0.5602
40636SOL    HW225186   0.784   0.984   3.264  1.4649  0.7776 -1.3462
40637SOL     OW25187   7.505   7.487  11.225  0.6095 -0.1096  0.3684
40637SOL    HW125188   7.463   7.420  11.280  1.8089  0.1825  1.6877
40637SOL    HW225189   7.432   7.541  11.194 -0.1634 -0.6641  1.1559
40638SOL     OW25190   0.774   8.314   4.847 -0.1552 -0.0964  0.0840
40638SOL    HW125191   0.720   8.374   4.897  1.0577 -0.3390  1.8042
40638SOL    HW225192   0.745   8.227   4.875  0.0806 -0.2571 -0.1613
40639SOL     OW25193  11.035   1.639  11.035  0.7292 -0.1400 -0.2748
40639SOL    HW125194  11.001   1.716  11.080 -0.2112 -0.4648 -0.4054
40639SOL    HW225195  10.978   1.628  10.959  1.2056 -0.6321 -0.5694
40640SOL     OW25196   2.909  10.495   2.217 -0.1024 -0.0218 -0.2326
40640SOL    HW125197   2.951  10.431   2.276  0.6270  0.4191 -0.2524
40640SOL    HW225198   2.982  10.546   2.182 -0.5340 -0.2465 -1.4950
40641SOL     OW25199   3.017   1.334   3.552 -0.2513 -0.1557 -0.6606
40641SOL    HW125200   2.953   1.404   3.564 -1.1095 -0.6939 -1.8965
40641SOL    HW225201   3.047   1.313   3.640 -1.9597 -0.0585 -0.0340
40642SOL     OW25202   8.604   8.708   9.373  0.0602 -0.7850 -0.3536
40642SOL    HW125203   8.543   8.640   9.344  1.5950 -1.7337 -1.5362
40642SOL    HW225204   8.688   8.662   9.380  0.4263  0.1279  2.6139
40643SOL     OW25205   8.755  10.365  10.300 -0.1362 -0.4707  0.0156
40643SOL    HW125206   8.702  10.290  10.272 -0.1410 -0.6582  0.5200
40643SOL    HW225207   8.754  10.361  10.396 -0.7704  0.6147  0.0719
40644SOL     OW25208   7.321   8.484   5.800 -0.0069  0.2796 -0.0761
40644SOL    HW125209   7.295   8.394   5.818 -1.0463  0.4912 -0.4317
40644SOL    HW225210   7.396   8.476   5.742  1.7215 -0.3669  2.1228
40645SOL     OW25211   4.435  11.212   6.557 -0.0300  0.2303  0.2371
40645SOL    HW125212   4.352  11.226   6.601  0.0218 -0.6830  0.6552
40645SOL    HW225213   4.500  11.215   6.628 -0.0562 -2.3788  0.4560
40646SOL     OW25214   3.790   1.982   0.454  0.1953  0.2983  0.5236
40646SOL    HW125215   3.695   1.970   0.448  0.1981  0.6772 -0.4190
40646SOL    HW225216   3.801   2.074   0.475  0.3762  0.5770 -0.7280
40647SOL     OW25217   2.945   4.127   5.740  0.3166  0.4374  0.1276
40647SOL    HW125218   2.927   4.205   5.688  1.6765  0.4306 -0.3832
40647SOL    HW225219   2.977   4.063   5.677 -2.4459 -1.2039  0.2121
40648SOL     OW25220   5.919   4.426   1.250 -0.1660 -0.4944  0.3065
40648SOL    HW125221   5.896   4.378   1.329  0.0241 -1.8183 -0.3985
40648SOL    HW225222   5.880   4.374   1.179  0.0802  0.3903 -0.4916
40649SOL     OW25223   9.341  10.364   0.450  0.1067 -0.3277 -0.3153
40649SOL    HW125224   9.424  10.334   0.411  0.1408  0.1762 -0.6369
40649SOL    HW225225   9.275  10.342   0.384  0.0032 -0.5826 -0.1281
40650SOL     OW25226   2.741   5.145   2.410  0.0535  0.1570 -0.4731
40650SOL    HW125227   2.778   5.101   2.333 -0.7012 -0.7057 -0.3559
40650SOL    HW225228   2.695   5.221   2.374  0.3140  0.1635 -0.7992
40651SOL     OW25229   0.001   5.902   0.670 -0.3575  0.0751  0.3413
40651SOL    HW125230   0.003   5.992   0.702 -0.9369 -0.5119  2.1799
40651SOL    HW225231  -0.036   5.909   0.582  0.4213  1.6967  0.0973
40652SOL     OW25232   6.661   8.703   7.615  0.1264  0.1654  0.2738
40652SOL    HW125233   6.580   8.706   7.564  1.1343 -1.8863 -1.5981
40652SOL    HW225234   6.692   8.794   7.617 -1.0641  0.6229 -0.9395
40653SOL     OW25235   3.687   1.234   2.293 -0.4996 -0.7302 -0.0986
40653SOL    HW125236   3.603   1.264   2.326  0.1122  0.2168  0.6575
40653SOL    HW225237   3.666   1.165   2.231 -1.8258 -0.4932  0.0749
40654SOL     OW25238   0.912   4.186   8.591  0.5230  0.4890 -0.2043
40654SOL    HW125239   0.830   4.164   8.546  0.8146  1.3148 -1.1847
40654SOL    HW225240   0.971   4.114   8.567 -0.4567 -1.2935  2.2575
40655SOL     OW25241   0.379   9.147   9.300 -0.5783 -0.0655 -0.0150
40655SOL    HW125242   0.359   9.236   9.327 -0.9545  0.0664 -0.6920
40655SOL    HW225243   0.305   9.095   9.332 -1.0172  0.0886 -0.7284
40656SOL     OW25244   1.770   5.263   7.365 -0.5799 -0.2626 -0.5497
40656SOL    HW125245   1.702   5.280   7.430  0.0753  0.8160 -0.1326
40656SOL    HW225246   1.807   5.348   7.346  2.5062 -1.0507  1.2676
40657SOL     OW25247   1.235   4.502   4.656 -0.0302  0.0129 -0.6049
40657SOL    HW125248   1.143   4.476   4.665  0.0889 -0.0450  0.5051
40657SOL    HW225249   1.277   4.426   4.615  0.0252 -1.0507  1.2988
40658SOL     OW25250   4.138   4.825   8.353 -0.3519 -0.1580  0.0339
40658SOL    HW125251   4.210   4.888   8.348 -0.8082  0.4030  0.4748
40658SOL    HW225252   4.114   4.809   8.262 -0.0733  0.1156 -0.0885
40659SOL     OW25253   0.996   3.925   3.949 -0.4560 -0.4870 -0.3276
40659SOL    HW125254   0.989   3.920   3.853  0.9789  0.1807 -0.4888
40659SOL    HW225255   0.965   4.012   3.971  1.1142  0.1333 -0.4230
40660SOL     OW25256   8.151   2.810   0.170 -0.0277  0.6188 -0.4235
40660SOL    HW125257   8.066   2.766   0.181  0.0598  0.6717  0.5712
40660SOL    HW225258   8.175   2.792   0.080 -1.5475  1.4159 -1.0245
40661SOL     OW25259   9.027   4.681   0.237 -0.3631 -0.4620  0.1232
40661SOL    HW125260   8.962   4.670   0.168 -1.1325 -1.5353  0.9800
40661SOL    HW225261   9.009   4.767   0.274 -1.6353 -0.9285  0.6526
40662SOL     OW25262   4.281   4.102  10.120 -0.2268 -0.5570  0.1675
40662SOL    HW125263   4.204   4.118  10.066 -0.5096  0.8141  0.9423
40662SOL    HW225264   4.246   4.078  10.206  0.2181 -1.5305  0.0862
40663SOL     OW25265  10.490   6.291   1.535 -0.0334 -0.3332 -0.4225
40663SOL    HW125266  10.462   6.323   1.450 -2.3203  0.2738  0.4920
40663SOL    HW225267  10.518   6.369   1.582 -1.4459 -0.2296  0.3024
40664SOL     OW25268  11.018   0.995   9.028  0.0756  0.0563 -0.6789
40664SOL    HW125269  11.092   1.003   9.089  0.1332 -0.3937 -0.6858
40664SOL    HW225270  11.059   0.975   8.944 -0.1231 -1.6360 -0.3917
40665SOL     OW25271   4.109   5.229   6.334 -0.1746  0.2601  0.5272
40665SOL    HW125272   4.046   5.256   6.402  0.0558 -0.1259  0.9064
40665SOL    HW225273   4.169   5.171   6.381  0.3241  0.4425  0.1100
40666SOL     OW25274  10.252   2.209   3.767 -0.3299  0.0984 -0.4150
40666SOL    HW125275  10.185   2.169   3.712  0.7059  0.8432 -2.3210
40666SOL    HW225276  10.320   2.141   3.775 -0.8498 -0.3272  0.7607
40667SOL     OW25277   3.589   8.691   5.323  0.2688 -0.1063  0.1253
40667SOL    HW125278   3.609   8.598   5.310 -0.1743 -0.3853  1.3436
40667SOL    HW225279   3.606   8.731   5.237 -0.6748 -1.5032 -0.7479
40668SOL     OW25280   2.939   4.872   1.548 -0.7371  0.2736 -0.0146
40668SOL    HW125281   2.877   4.853   1.478 -0.4431 -0.2530 -0.1418
40668SOL    HW225282   2.967   4.786   1.579 -1.0193  0.4988  0.8945
40669SOL     OW25283   4.672   3.796   2.911  0.2602 -0.2354  0.5528
40669SOL    HW125284   4.669   3.891   2.903 -2.8584 -0.0918  2.0946
40669SOL    HW225285   4.603   3.774   2.974  1.4166 -3.4765  0.9155
40670SOL     OW25286   1.415  11.024   3.749 -0.3963  0.0290  0.3945
40670SOL    HW125287   1.390  11.079   3.824 -0.4590  0.4097  0.0957
40670SOL    HW225288   1.418  11.085   3.675 -1.7314 -0.5893 -0.1942
40671SOL     OW25289   1.011   2.531   3.892 -0.6708  0.4807  0.1467
40671SOL    HW125290   0.968   2.454   3.931  0.7034 -0.1995  0.3679
40671SOL    HW225291   1.068   2.494   3.825  2.5137  0.9285  2.3980
40672SOL     OW25292   5.843   6.293   0.776  0.2249 -0.2083  0.1531
40672SOL    HW125293   5.851   6.198   0.782  0.3495 -0.1639  0.7093
40672SOL    HW225294   5.831   6.310   0.683 -1.8193 -0.9344  0.2309
40673SOL     OW25295   0.523  10.905  10.058 -0.7476  0.5846 -0.1885
40673SOL    HW125296   0.564  10.992  10.062  1.1054 -0.2788  2.2730
40673SOL    HW225297   0.459  10.906  10.129  0.4871 -0.5654  0.9825
40674SOL     OW25298   3.933   7.539   7.131 -0.5231 -0.4380 -0.1460
40674SOL    HW125299   3.877   7.465   7.110 -0.2867 -1.2909  1.9576
40674SOL    HW225300   3.914   7.558   7.223  1.6070  0.1598  0.2255
40675SOL     OW25301   6.697   9.515  10.497 -0.6285 -0.4719 -0.1942
40675SOL    HW125302   6.732   9.442  10.548  0.8145  0.0212 -0.4231
40675SOL    HW225303   6.636   9.558  10.557  0.3363 -0.4545  0.8232
40676SOL     OW25304   4.679   0.074   8.695  0.3655  0.4243 -0.1113
40676SOL    HW125305   4.593   0.114   8.686  0.3789  1.0094  1.7555
40676SOL    HW225306   4.664  -0.003   8.750  1.1295  1.1538  1.1961
40677SOL     OW25307   2.340   5.317   6.958 -0.0217 -0.4835  0.4702
40677SOL    HW125308   2.300   5.230   6.968  1.0502 -0.9713  0.6217
40677SOL    HW225309   2.375   5.337   7.044 -2.2271  1.1420  1.0845
40678SOL     OW25310   6.101   5.920   7.938  0.6164 -0.6297 -0.0099
40678SOL    HW125311   6.088   6.015   7.939  3.3246 -0.1616  0.9979
40678SOL    HW225312   6.073   5.891   8.025 -0.7041 -0.8847 -0.4961
40679SOL     OW25313   8.795   0.016   1.196 -0.4185  0.4534 -0.5365
40679SOL    HW125314   8.755   0.099   1.170 -0.9951  0.4608  0.3309
40679SOL    HW225315   8.798   0.020   1.292 -1.7880 -1.1219 -0.3770
40680SOL     OW25316   5.500   0.929   9.664 -0.5371 -0.4721 -0.2415
40680SOL    HW125317   5.438   0.992   9.701  2.0222  0.9614  1.8436
40680SOL    HW225318   5.547   0.978   9.597  0.5894 -0.5364  0.4911
40681SOL     OW25319   7.193   2.941   2.935  0.2583  0.1898 -0.0496
40681SOL    HW125320   7.118   2.884   2.952 -1.1185  1.0349 -2.6577
40681SOL    HW225321   7.163   3.028   2.962  1.4571  0.1504  1.6211
40682SOL     OW25322  10.478   2.983  10.253  0.5611  0.0376 -0.2857
40682SOL    HW125323  10.423   3.023  10.319 -0.5881 -0.1829 -1.0668
40682SOL    HW225324  10.548   2.940  10.302  0.0956  0.4132  0.7292
40683SOL     OW25325   0.267   1.015   2.534  0.2859 -0.0662  0.0704
40683SOL    HW125326   0.297   1.070   2.606  0.6915 -0.5782  0.3058
40683SOL    HW225327   0.345   1.002   2.480  0.4614 -1.2128  0.5539
40684SOL     OW25328  10.789   6.525   9.701 -0.6169  0.5807 -0.0149
40684SOL    HW125329  10.710   6.499   9.749  0.8315  0.3657  2.4135
40684SOL    HW225330  10.796   6.620   9.715 -1.1557  0.8744 -1.4627
40685SOL     OW25331   2.116   4.015   6.971 -0.0867  0.3278  0.2163
40685SOL    HW125332   2.189   3.998   7.030  0.7990 -1.9083 -1.3500
40685SOL    HW225333   2.074   3.929   6.960 -1.3054  1.0411 -0.9871
40686SOL     OW25334   3.250  10.013   5.923  0.3266  0.0333 -0.0457
40686SOL    HW125335   3.192   9.963   5.866  1.2918 -0.4597 -0.6195
40686SOL    HW225336   3.244  10.103   5.891  0.3644 -0.1302 -0.5183
40687SOL     OW25337   9.382   5.855   9.492  0.5262 -0.8964  0.3370
40687SOL    HW125338   9.469   5.828   9.462  1.3600 -0.1507  1.9825
40687SOL    HW225339   9.379   5.949   9.476  0.9058 -0.5176  2.2744
40688SOL     OW25340   0.582   9.057   3.068 -0.1896 -0.1854 -0.6259
40688SOL    HW125341   0.635   9.076   2.990  1.1973  0.5623  0.4645
40688SOL    HW225342   0.642   9.014   3.128 -0.9904  0.1165  0.4126
40689SOL     OW25343  10.994   8.629   5.524  0.3634 -0.5819 -0.1966
40689SOL    HW125344  10.969   8.712   5.482 -1.7905 -1.4380 -0.7141
40689SOL    HW225345  10.983   8.646   5.618  0.5472 -0.0953 -0.2580
40690SOL     OW25346   1.317  10.764   0.368 -0.6406 -0.0650  0.0876
40690SOL    HW125347   1.345  10.791   0.455 -0.7633  1.1837 -0.2459
40690SOL    HW225348   1.229  10.801   0.358  0.2158  1.6796 -1.3729
40691SOL     OW25349  10.631   9.934   9.115 -0.5918 -0.1903  0.5206
40691SOL    HW125350  10.557   9.987   9.145 -0.4978  0.8004 -0.8904
40691SOL    HW225351  10.689   9.930   9.191 -0.8083  1.3993  0.8228
40692SOL     OW25352   1.805   7.339   3.258  0.0756  0.0842  0.3030
40692SOL    HW125353   1.739   7.282   3.218  0.6081  0.5869 -1.3718
40692SOL    HW225354   1.856   7.372   3.184  0.4375  1.9210  1.3036
40693SOL     OW25355   8.105   7.868   5.766 -0.1761 -0.0135  0.5966
40693SOL    HW125356   8.024   7.818   5.759 -0.4861  0.3560  1.3738
40693SOL    HW225357   8.174   7.802   5.771 -0.1940 -0.3473 -2.0256
40694SOL     OW25358   6.171   3.578   8.335  0.4366  0.6342  0.0151
40694SOL    HW125359   6.179   3.654   8.393 -0.1391  1.1342 -0.5382
40694SOL    HW225360   6.186   3.614   8.247  0.0404  0.1326 -0.2609
40695SOL     OW25361   8.837   3.053   6.319  0.6606 -0.4872 -0.0394
40695SOL    HW125362   8.859   3.011   6.236 -0.1116 -1.0238  0.0183
40695SOL    HW225363   8.800   3.138   6.293  1.2668 -0.2686 -0.1996
40696SOL     OW25364  11.347   9.238   7.367 -0.0602 -0.3328 -0.0217
40696SOL    HW125365  11.384   9.152   7.388  4.0893  1.8035  2.8454
40696SOL    HW225366  11.389   9.263   7.285 -1.4819 -1.0407 -1.0050
40697SOL     OW25367   7.469   2.063   7.462 -0.1412  0.0367  0.1304
40697SOL    HW125368   7.564   2.053   7.462 -0.1476 -0.0958 -0.9639
40697SOL    HW225369   7.452   2.138   7.405 -0.5898  1.3812  1.9344
40698SOL     OW25370   2.784   5.316   9.203 -0.5025  0.5117  0.1393
40698SOL    HW125371   2.852   5.382   9.214 -0.5119  1.0045 -2.1507
40698SOL    HW225372   2.715   5.361   9.153 -0.0714 -1.4168 -2.3922
40699SOL     OW25373   4.015   9.710   7.624  0.7363  0.7296 -0.1015
40699SOL    HW125374   4.082   9.778   7.613 -0.8303  2.3145 -0.3719
40699SOL    HW225375   3.947   9.752   7.677  0.2300 -1.0497  0.7457
40700SOL     OW25376   3.944   3.181   8.545 -0.4012  0.0935 -0.0175
40700SOL    HW125377   3.974   3.262   8.504 -0.9142  0.4375  0.2866
40700SOL    HW225378   3.850   3.193   8.557 -0.4659 -0.5056  0.1306
40701SOL     OW25379   2.571   9.979   4.816  0.0318 -0.4863 -0.2315
40701SOL    HW125380   2.571   9.956   4.909 -0.0349  1.6739  0.3529
40701SOL    HW225381   2.481  10.001   4.796 -0.0369 -1.3419 -0.9604
40702SOL     OW25382   1.029   1.820   9.780  0.0603 -0.2497 -0.0658
40702SOL    HW125383   1.049   1.853   9.692 -0.3438 -1.0609 -0.4661
40702SOL    HW225384   1.105   1.846   9.832  1.4804 -1.8717 -1.2079
40703SOL     OW25385   2.443   7.359   4.759  0.1492  0.1726  0.2901
40703SOL    HW125386   2.363   7.399   4.723  0.2696 -1.4179 -1.9366
40703SOL    HW225387   2.512   7.422   4.739 -0.0354 -0.0019 -0.9868
40704SOL     OW25388  11.128  10.449   0.269 -0.1065 -0.1648 -0.0712
40704SOL    HW125389  11.143  10.454   0.364  0.5947 -1.4879 -0.0871
40704SOL    HW225390  11.215  10.434   0.232 -0.2305  1.3116 -1.0328
40705SOL     OW25391   7.139   7.155   7.834  0.3002 -0.1590  0.5262
40705SOL    HW125392   7.193   7.173   7.757 -0.6379 -1.9529 -0.6274
40705SOL    HW225393   7.067   7.218   7.827  0.9517  0.6328  0.7532
40706SOL     OW25394   3.930   7.329   0.071  0.0364 -0.3667 -0.0655
40706SOL    HW125395   3.873   7.400   0.042  0.1457 -0.6172 -0.9303
40706SOL    HW225396   3.882   7.249   0.050 -0.0339 -0.5596  0.7918
40707SOL     OW25397   5.290  11.209   0.704  0.5829  0.1679 -0.0894
40707SOL    HW125398   5.347  11.202   0.628 -1.7200 -1.0411 -1.8178
40707SOL    HW225399   5.349  11.233   0.776  2.9456  0.7042 -2.0807
40708SOL     OW25400   7.517   1.183   9.225 -0.1900  0.2010  0.4292
40708SOL    HW125401   7.429   1.205   9.255  0.6674  1.0148  2.4997
40708SOL    HW225402   7.507   1.097   9.184 -1.5503 -0.8124  2.7105
40709SOL     OW25403   8.159   7.407  11.024 -0.4924  0.1885 -0.1224
40709SOL    HW125404   8.138   7.314  11.031 -2.5177  0.5501 -0.6700
40709SOL    HW225405   8.189   7.431  11.112  0.5066 -1.0549 -0.0985
40710SOL     OW25406   4.739   4.319   7.793  0.0465 -0.3739  0.0055
40710SOL    HW125407   4.645   4.335   7.805 -0.1504 -1.1290 -0.4445
40710SOL    HW225408   4.775   4.325   7.882 -0.0215  2.1913 -0.0771
40711SOL     OW25409   9.437   8.269   3.819  0.4463 -0.5438 -0.0113
40711SOL    HW125410   9.476   8.194   3.863 -0.7625 -0.1402  1.8453
40711SOL    HW225411   9.505   8.337   3.820 -0.0068 -0.0048  2.7523
40712SOL     OW25412   5.590   5.356   0.944  0.0151  0.1427  0.1188
40712SOL    HW125413   5.595   5.450   0.962 -1.9200  0.1873  0.5881
40712SOL    HW225414   5.507   5.329   0.982  0.5423 -1.7738 -0.0280
40713SOL     OW25415   7.264   6.357   3.169 -0.2527 -0.1089 -0.4315
40713SOL    HW125416   7.215   6.287   3.213  0.8739  0.3894  1.7685
40713SOL    HW225417   7.233   6.437   3.211 -1.5256  0.8013 -2.9099
40714SOL     OW25418   6.890   8.082   3.532 -0.2722  0.3104 -0.0522
40714SOL    HW125419   6.913   7.993   3.559 -0.6221  0.7319  1.7699
40714SOL    HW225420   6.898   8.081   3.437 -1.3106 -1.9657 -0.1736
40715SOL     OW25421   7.930  10.163   1.622 -0.2756 -0.0107  0.2685
40715SOL    HW125422   7.870  10.203   1.685 -0.1693  0.0862  0.3094
40715SOL    HW225423   7.962  10.084   1.666  0.1966  0.3301  0.5471
40716SOL     OW25424   4.440   0.142   3.802  0.2321  0.7484 -0.6924
40716SOL    HW125425   4.372   0.181   3.748 -0.3351  0.3236 -0.2873
40716SOL    HW225426   4.479   0.074   3.747 -0.2482  0.4137 -0.6198
40717SOL     OW25427   6.070   1.402   7.477  0.3840  0.0879 -0.6080
40717SOL    HW125428   5.987   1.369   7.442 -0.6945  0.7093  1.1827
40717SOL    HW225429   6.125   1.414   7.400 -0.5087 -2.1119 -1.6891
40718SOL     OW25430   2.738   3.181   6.501 -0.6076 -0.4519 -0.7786
40718SOL    HW125431   2.833   3.184   6.509 -0.5504  3.4024 -1.1924
40718SOL    HW225432   2.722   3.189   6.407 -1.3400  0.4652 -0.5822
40719SOL     OW25433   8.186   6.507   3.268 -0.0475 -0.4070  0.2303
40719SOL    HW125434   8.101   6.468   3.249  0.0117 -1.7670  2.4991
40719SOL    HW225435   8.166   6.586   3.318  0.0157 -1.2108  1.5573
40720SOL     OW25436  10.644   4.086   7.365 -0.0356  0.1224  0.0294
40720SOL    HW125437  10.612   4.010   7.415 -0.9202  1.2365  1.2239
40720SOL    HW225438  10.566   4.124   7.326  0.5251 -0.1188 -1.3995
40721SOL     OW25439   3.202   7.031   7.942  0.4348  0.0611 -0.3515
40721SOL    HW125440   3.269   6.964   7.933  0.2470 -0.0564 -0.8564
40721SOL    HW225441   3.242   7.110   7.907 -0.0649 -0.2507 -1.6631
40722SOL     OW25442   4.337   5.960   3.942 -0.6274 -0.3054  0.0320
40722SOL    HW125443   4.362   6.017   4.015 -1.3113 -0.3983  0.3441
40722SOL    HW225444   4.267   5.905   3.977  0.4294 -1.7699 -0.0876
40723SOL     OW25445   5.392   7.192  11.017  0.2388 -0.6208  0.3366
40723SOL    HW125446   5.431   7.173  10.932 -1.4690  0.8267 -0.8765
40723SOL    HW225447   5.442   7.140  11.080  1.2088 -2.1640 -1.6121
40724SOL     OW25448   8.750   9.641   8.675  0.1955  0.1209 -0.2634
40724SOL    HW125449   8.803   9.669   8.749 -0.1930 -1.8196  0.8071
40724SOL    HW225450   8.755   9.714   8.613  1.6217  1.2300  1.0843
40725SOL     OW25451   4.131   1.055   8.787 -0.1757  0.1716 -0.2799
40725SOL    HW125452   4.127   1.073   8.881 -2.7123  0.0996 -0.2964
40725SOL    HW225453   4.121   0.960   8.780  0.0462  0.1719 -0.6184
40726SOL     OW25454   2.120   4.699   3.210  0.7506  0.4195 -0.5164
40726SOL    HW125455   2.176   4.633   3.251  0.5750  0.3800 -0.3374
40726SOL    HW225456   2.082   4.654   3.134  0.7798  0.3719 -0.5031
40727SOL     OW25457   3.019   6.246   8.834 -0.5583 -0.1976 -0.3886
40727SOL    HW125458   3.080   6.255   8.906  0.2021 -0.6234 -0.9684
40727SOL    HW225459   2.974   6.331   8.830  1.5423  0.9400 -1.3318
40728SOL     OW25460   5.218   9.317   9.350 -0.3795 -0.8594 -0.3038
40728SOL    HW125461   5.312   9.319   9.364 -0.3675  1.0195 -0.4164
40728SOL    HW225462   5.191   9.229   9.377  1.3725 -1.3838 -0.1777
40729SOL     OW25463   9.932   1.309   4.351  0.1039  0.1310 -0.3162
40729SOL    HW125464   9.874   1.363   4.297 -1.0765 -0.3274  0.4419
40729SOL    HW225465   9.925   1.221   4.313  1.7714  0.3971 -1.3523
40730SOL     OW25466   0.319   2.984   5.585 -0.7215 -0.6725 -0.3314
40730SOL    HW125467   0.368   2.902   5.577  0.0233 -0.6118  2.3765
40730SOL    HW225468   0.231   2.957   5.610  0.2301 -0.7887  3.5572
40731SOL     OW25469   9.745   5.301   3.368 -0.1568 -0.2169 -0.0685
40731SOL    HW125470   9.775   5.322   3.280 -1.0113  3.7649  0.4399
40731SOL    HW225471   9.661   5.257   3.355  0.3038 -0.8246 -1.2027
40732SOL     OW25472   6.823   4.570   1.209 -0.7557 -0.3357 -0.1513
40732SOL    HW125473   6.775   4.541   1.286 -0.8604  0.1329 -0.0321
40732SOL    HW225474   6.859   4.655   1.235 -0.6075 -0.2778 -0.5439
40733SOL     OW25475  10.506   3.888   9.734  0.5793  0.0273 -0.2926
40733SOL    HW125476  10.536   3.901   9.824 -2.4781  0.8626  0.7388
40733SOL    HW225477  10.543   3.961   9.685  0.9099  0.5252  0.6917
40734SOL     OW25478   6.362  10.284  10.610 -0.3863  0.0435 -0.0141
40734SOL    HW125479   6.361  10.259  10.518 -2.1793  1.4501 -0.4169
40734SOL    HW225480   6.428  10.352  10.616 -0.0465 -0.2666 -0.1809
40735SOL     OW25481  10.109   6.781   3.508  0.6917  0.8769 -0.3733
40735SOL    HW125482  10.098   6.785   3.603  1.2323  0.6941 -0.2980
40735SOL    HW225483  10.204   6.781   3.495  0.6630 -0.8282 -0.8348
40736SOL     OW25484  11.302   0.351   4.891 -0.1476  0.9452 -0.6019
40736SOL    HW125485  11.302   0.436   4.846  1.1336  1.5350  0.4478
40736SOL    HW225486  11.300   0.374   4.984 -0.2795 -0.1979 -0.3116
40737SOL     OW25487   8.825   1.646   4.328  0.5485  0.2516 -0.2364
40737SOL    HW125488   8.757   1.609   4.271  0.3039  0.1925  0.0916
40737SOL    HW225489   8.895   1.581   4.327 -0.0779 -0.4464  0.7129
40738SOL     OW25490   3.528   1.579   6.113 -0.2808 -0.2841  0.3949
40738SOL    HW125491   3.621   1.574   6.095 -0.3301 -2.4020  0.4726
40738SOL    HW225492   3.488   1.602   6.029  0.3488  1.7392  0.6045
40739SOL     OW25493   6.067  10.585   2.128  0.2507  0.4604  0.0074
40739SOL    HW125494   6.144  10.593   2.072  0.0774  0.2746 -0.2601
40739SOL    HW225495   6.095  10.527   2.199  0.2640  0.1390 -0.2584
40740SOL     OW25496   4.746   0.961   0.372 -0.4090 -0.4816 -0.0907
40740SOL    HW125497   4.709   0.970   0.284  0.9744 -1.7817 -0.8541
40740SOL    HW225498   4.672   0.933   0.426 -1.1594 -0.2214 -0.9599
40741SOL     OW25499   1.690   0.363  11.323  0.2586 -0.8857 -0.1760
40741SOL    HW125500   1.658   0.438  11.373  0.1050 -1.0546 -0.0175
40741SOL    HW225501   1.705   0.295  11.389 -1.2307 -1.5594 -0.4682
40742SOL     OW25502   6.670  10.758   8.515  0.1184 -0.4109  0.1489
40742SOL    HW125503   6.688  10.753   8.421 -2.0844 -1.5122 -0.2998
40742SOL    HW225504   6.662  10.851   8.534 -0.4658 -0.2151 -0.9998
40743SOL     OW25505  10.732   8.755   8.441 -0.1038 -0.0859  0.2522
40743SOL    HW125506  10.690   8.670   8.449 -0.3448 -0.0870 -0.8986
40743SOL    HW225507  10.750   8.781   8.531  0.4048 -1.5619  0.6085
40744SOL     OW25508   7.278   0.879   9.179 -0.7800  0.1913  0.3505
40744SOL    HW125509   7.274   0.799   9.127 -0.0515  1.6336 -2.0453
40744SOL    HW225510   7.371   0.890   9.197 -0.9054  0.3923  0.8886
40745SOL     OW25511   3.276   4.407   3.548  0.0364 -0.8068  0.3615
40745SOL    HW125512   3.282   4.344   3.476  1.6384 -1.8604  1.3656
40745SOL    HW225513   3.235   4.359   3.619 -4.5265  1.1014 -0.6430
40746SOL     OW25514   2.076   3.856   4.357  0.1019 -0.3548 -0.7013
40746SOL    HW125515   2.122   3.901   4.428 -0.2402  0.2324 -0.8407
40746SOL    HW225516   2.069   3.923   4.288 -1.3941 -0.2651 -0.4906
40747SOL     OW25517   6.658   2.546  10.302 -0.0983 -0.1961 -0.1390
40747SOL    HW125518   6.643   2.453  10.286  0.1558 -0.0445 -1.3382
40747SOL    HW225519   6.753   2.556  10.300 -0.1550  0.2586 -1.1295
40748SOL     OW25520   6.299   4.435   9.540 -0.4659 -0.2344 -0.1872
40748SOL    HW125521   6.273   4.527   9.547 -0.2774 -0.1773 -0.2455
40748SOL    HW225522   6.390   4.438   9.510 -0.9155 -0.4607 -1.6240
40749SOL     OW25523   3.315   7.584   1.551 -0.5059  0.0739  0.2217
40749SOL    HW125524   3.353   7.497   1.533 -1.5476  0.2289 -3.4109
40749SOL    HW225525   3.236   7.565   1.601  0.0141 -0.8978  0.7225
40750SOL     OW25526   4.120  11.151   3.914 -0.0986  0.4445  0.7363
40750SOL    HW125527   4.031  11.119   3.924 -0.0564  0.3538  0.8202
40750SOL    HW225528   4.132  11.212   3.986 -0.7257  1.8905 -0.3334
40751SOL     OW25529   0.661   8.493   1.555 -0.2516  0.1951 -0.7156
40751SOL    HW125530   0.714   8.437   1.498 -1.2473  0.3997 -1.8966
40751SOL    HW225531   0.681   8.582   1.526  0.5836  0.4206  0.4936
40752SOL     OW25532   5.525   5.151   7.297  0.1704 -0.4273  0.2880
40752SOL    HW125533   5.542   5.110   7.382 -1.1603  1.5744  1.6312
40752SOL    HW225534   5.489   5.081   7.243  0.9026 -1.7205  1.4159
40753SOL     OW25535   9.850   6.825   0.200 -0.4140 -0.2526  0.1629
40753SOL    HW125536   9.754   6.823   0.209 -0.4994 -0.9731 -0.7227
40753SOL    HW225537   9.877   6.905   0.244 -1.5497  0.6149 -0.6658
40754SOL     OW25538  10.089   6.805   6.241  0.3692 -0.2062 -0.0110
40754SOL    HW125539  10.103   6.880   6.299 -0.7483  0.2657 -0.3386
40754SOL    HW225540  10.155   6.816   6.173  2.3784 -1.2996  1.6181
40755SOL     OW25541   1.353   8.895  10.471 -0.3219 -0.1775  0.4296
40755SOL    HW125542   1.278   8.890  10.530  0.2333  3.0042  1.5425
40755SOL    HW225543   1.314   8.899  10.383 -1.4189  0.5014  0.9300
40756SOL     OW25544   7.312   2.831   8.582 -0.6253  0.2636  0.4900
40756SOL    HW125545   7.309   2.916   8.625 -0.4789  1.7559 -2.2602
40756SOL    HW225546   7.228   2.824   8.537 -0.9066 -1.3920  1.1637
40757SOL     OW25547   7.833   1.993   6.815 -0.1854 -0.1614 -0.0179
40757SOL    HW125548   7.841   1.973   6.722 -1.3080  0.4569 -0.2631
40757SOL    HW225549   7.778   2.071   6.819  1.1789  0.8230  1.0826
40758SOL     OW25550   2.940   6.661   0.575  0.2946 -0.3752 -0.7339
40758SOL    HW125551   3.034   6.647   0.587  0.1875 -0.8134 -0.3840
40758SOL    HW225552   2.918   6.731   0.636 -0.5629 -3.6542  3.1226
40759SOL     OW25553   9.255   5.047   8.258  0.5023 -0.1645  0.5200
40759SOL    HW125554   9.270   4.967   8.207 -0.4777 -0.2208  0.3035
40759SOL    HW225555   9.305   5.114   8.211 -0.7729 -0.1071 -0.8541
40760SOL     OW25556   3.824   7.330   9.767 -0.1835 -0.6095 -0.0632
40760SOL    HW125557   3.760   7.259   9.759 -1.3613  0.5767 -2.0557
40760SOL    HW225558   3.889   7.311   9.699  1.7596 -1.8725  2.0319
40761SOL     OW25559   0.197   7.089   0.811  0.6468 -0.1128 -0.1696
40761SOL    HW125560   0.130   7.024   0.832 -0.0165  0.1432 -1.3796
40761SOL    HW225561   0.192   7.153   0.882  0.5037 -0.7705  0.4224
40762SOL     OW25562   5.704   7.863   8.119 -0.5449  0.1852 -0.6225
40762SOL    HW125563   5.718   7.817   8.037  2.0546  0.8326 -0.6208
40762SOL    HW225564   5.648   7.937   8.096 -0.5516 -0.1126 -1.6083
40763SOL     OW25565   2.190   6.906   9.690 -0.1723  0.3552 -0.1302
40763SOL    HW125566   2.182   6.903   9.785  1.0984 -1.4047 -0.0159
40763SOL    HW225567   2.249   6.979   9.673  0.2251  0.1907  0.5094
40764SOL     OW25568   3.893   8.427   7.238  0.0248  0.0512 -0.0983
40764SOL    HW125569   3.982   8.445   7.209 -0.2006  0.9162 -0.2754
40764SOL    HW225570   3.903   8.361   7.306  1.0190  1.7142  1.4674
40765SOL     OW25571   8.364  10.121   3.926 -0.2717  0.6299 -0.0196
40765SOL    HW125572   8.292  10.057   3.923  1.1039 -1.2468  2.7666
40765SOL    HW225573   8.341  10.180   3.997  0.0993  1.1865 -0.3514
40766SOL     OW25574   0.878   9.551   0.040 -0.2501 -0.1337 -0.1370
40766SOL    HW125575   0.931   9.489   0.091 -0.2312  0.2689  0.3388
40766SOL    HW225576   0.861   9.505  -0.042  0.7484 -0.3145 -0.2553
40767SOL     OW25577   3.857   4.341   3.309  0.2114  0.1510  0.3164
40767SOL    HW125578   3.785   4.393   3.344  0.5756  0.7692  0.1511
40767SOL    HW225579   3.850   4.351   3.214  0.6903  0.4460  0.3115
40768SOL     OW25580   2.705   0.603   9.501 -0.2923  0.0303 -0.0865
40768SOL    HW125581   2.797   0.626   9.513 -0.4386  0.2846  0.5576
40768SOL    HW225582   2.677   0.572   9.587 -0.7889 -0.1260 -0.3038
40769SOL     OW25583   7.888   5.660   7.423  0.0235  0.3938 -0.0432
40769SOL    HW125584   7.933   5.648   7.507  2.1778 -1.1495 -1.3167
40769SOL    HW225585   7.805   5.702   7.446  1.1419  1.3391  2.6927
40770SOL     OW25586   5.905   6.402  10.017  0.6835 -0.3493 -0.3002
40770SOL    HW125587   5.811   6.382  10.023  0.4768  0.1343 -1.5194
40770SOL    HW225588   5.946   6.319   9.992  0.9484 -1.1896  2.6394
40771SOL     OW25589   5.333   5.379   2.656 -0.1879 -0.2904 -0.3593
40771SOL    HW125590   5.269   5.429   2.707  0.4955  0.6693 -0.4130
40771SOL    HW225591   5.293   5.294   2.643 -1.2399  0.1356  0.0389
40772SOL     OW25592   3.186   3.150   4.350 -0.3440 -0.5027 -0.1131
40772SOL    HW125593   3.212   3.059   4.364 -2.3566 -1.1668 -0.2975
40772SOL    HW225594   3.242   3.201   4.408 -0.0596 -1.9999  0.9719
40773SOL     OW25595   5.961  10.358   9.172  0.7804 -0.3895  0.0096
40773SOL    HW125596   6.005  10.440   9.195 -0.5683  0.0474  1.1259
40773SOL    HW225597   5.929  10.373   9.083 -0.0692  0.5972  0.4558
40774SOL     OW25598   2.831   9.776  10.041  0.4524 -0.4273  0.7290
40774SOL    HW125599   2.875   9.696  10.012 -0.0448 -0.9369  1.3589
40774SOL    HW225600   2.844   9.778  10.135 -0.8302 -0.5770  0.9271
40775SOL     OW25601   6.283   5.084   2.726 -0.6841  0.1156  0.2395
40775SOL    HW125602   6.228   5.030   2.669 -0.5273 -0.3705  0.5413
40775SOL    HW225603   6.368   5.087   2.681  0.2985 -2.5104  1.6742
40776SOL     OW25604   7.289   4.424   7.757 -0.0861 -0.1864  0.3019
40776SOL    HW125605   7.229   4.403   7.686  1.2280 -0.7559 -0.6815
40776SOL    HW225606   7.340   4.499   7.725  0.8128 -0.7193  0.4514
40777SOL     OW25607   0.464   7.608   9.879 -0.2016 -0.2958  0.1120
40777SOL    HW125608   0.464   7.512   9.886 -0.3640 -0.4754 -1.9432
40777SOL    HW225609   0.438   7.637   9.966  1.1530 -2.0593  1.1931
40778SOL     OW25610  10.586   2.475   5.355  0.2768  0.1949  0.2749
40778SOL    HW125611  10.615   2.385   5.362 -4.1059 -1.3959  1.1948
40778SOL    HW225612  10.583   2.507   5.445 -0.1602  0.5414  0.1420
40779SOL     OW25613   9.464   6.034   7.468  0.1179  0.2293  0.1374
40779SOL    HW125614   9.388   6.055   7.523  0.7262  3.3022 -0.0405
40779SOL    HW225615   9.527   5.996   7.529 -1.1084 -1.3231  0.4983
40780SOL     OW25616   5.329   9.768   5.119 -0.2196  0.3896  0.2575
40780SOL    HW125617   5.255   9.781   5.179 -2.0661 -0.8622 -1.6352
40780SOL    HW225618   5.306   9.690   5.069  1.9798  0.5069 -1.0417
40781SOL     OW25619   0.930   8.113   0.210 -0.0103  0.2766  0.2030
40781SOL    HW125620   0.933   8.187   0.149 -0.5233  0.1663  0.0388
40781SOL    HW225621   0.973   8.146   0.289 -1.0654  1.0842  0.4732
40782SOL     OW25622  10.051   5.035  10.628  0.2711  0.1720  0.0628
40782SOL    HW125623  10.021   5.105  10.569  0.9213  0.3736 -0.0416
40782SOL    HW225624  10.031   5.068  10.715 -2.4874 -0.9517 -0.0423
40783SOL     OW25625   0.152   8.020   8.147  0.3186 -0.2986  0.1554
40783SOL    HW125626   0.217   8.015   8.217  0.3778 -0.2877  0.1013
40783SOL    HW225627   0.191   8.078   8.082  0.9347 -1.5072 -0.5856
40784SOL     OW25628  10.878   1.028   7.768  0.3731 -0.2886  0.1937
40784SOL    HW125629  10.957   1.058   7.814 -0.3542  1.4945  0.3584
40784SOL    HW225630  10.807   1.046   7.829 -0.2989 -0.7351 -0.4442
40785SOL     OW25631   7.841   1.838   8.508 -0.3773 -0.0270 -0.2349
40785SOL    HW125632   7.909   1.887   8.463  0.0639 -0.1639  0.2644
40785SOL    HW225633   7.827   1.886   8.590  0.2682 -0.8686  0.3954
40786SOL     OW25634   6.480   5.170   7.449 -0.0548 -0.1171 -0.8758
40786SOL    HW125635   6.519   5.140   7.531 -0.7970  0.2360 -0.3817
40786SOL    HW225636   6.542   5.234   7.415 -0.2280  0.5018 -0.0600
40787SOL     OW25637   9.561   9.355   1.433  0.0100 -0.3195 -0.0651
40787SOL    HW125638   9.586   9.289   1.497  2.1948 -1.0567 -1.5532
40787SOL    HW225639   9.588   9.438   1.472 -2.3829 -0.2633  1.6402
40788SOL     OW25640  10.150   3.647   8.060  0.2066  0.3880  0.0833
40788SOL    HW125641  10.233   3.622   8.101  0.2113  1.4335  0.7617
40788SOL    HW225642  10.175   3.694   7.981  0.3994  2.6404  1.3745
40789SOL     OW25643  11.057   2.553   5.263 -0.1460  0.1276 -0.1312
40789SOL    HW125644  11.091   2.612   5.196 -0.1586  0.4937  0.1853
40789SOL    HW225645  11.096   2.585   5.345 -0.6086  0.0476  0.1194
40790SOL     OW25646   9.595   5.766   6.075 -0.0555 -0.2118  0.2680
40790SOL    HW125647   9.566   5.681   6.043 -1.1309 -0.1174  0.9207
40790SOL    HW225648   9.514   5.808   6.106  0.3294  1.3194 -0.6705
40791SOL     OW25649   4.649   0.114   0.682 -0.1736 -0.5198  0.0033
40791SOL    HW125650   4.645   0.137   0.775  2.0071  0.9626 -0.1995
40791SOL    HW225651   4.713   0.043   0.678  0.8115  0.3686 -0.4790
40792SOL     OW25652   7.587   5.131   7.703 -0.1206  0.4940 -0.4883
40792SOL    HW125653   7.580   5.091   7.790  1.1884  1.6131  0.1774
40792SOL    HW225654   7.497   5.142   7.674 -0.5732 -0.1350  0.6291
40793SOL     OW25655   8.073   0.375  11.036  0.2365  0.6060  0.0259
40793SOL    HW125656   8.062   0.338  11.123  0.2611 -2.9685 -1.3127
40793SOL    HW225657   7.986   0.406  11.012 -0.2312 -0.2194  0.6007
40794SOL     OW25658  10.631   0.509   7.967 -0.4825  0.1852 -0.5280
40794SOL    HW125659  10.707   0.530   7.911 -0.1139 -0.5112 -0.2970
40794SOL    HW225660  10.571   0.463   7.908 -1.2031  1.6270 -0.9827
40795SOL     OW25661   9.465   9.850   6.115 -0.3917  0.0213 -0.1737
40795SOL    HW125662   9.474   9.934   6.071  0.4438  0.1741  0.2596
40795SOL    HW225663   9.550   9.836   6.157 -1.0062 -0.3404  0.9854
40796SOL     OW25664   1.038   6.940  10.195 -0.0918 -0.2616  0.4558
40796SOL    HW125665   0.950   6.952  10.159 -0.1208  0.4681  0.7385
40796SOL    HW225666   1.043   7.003  10.268 -0.7109 -2.9472  3.0181
40797SOL     OW25667   3.931  11.001  10.170  0.0819  0.6335 -0.7701
40797SOL    HW125668   3.925  11.015  10.075  1.1659 -0.7796 -1.0751
40797SOL    HW225669   4.025  11.007  10.189 -0.0668  0.2875  0.1109
40798SOL     OW25670   4.528   0.522   6.562  0.3798 -0.6179  0.3788
40798SOL    HW125671   4.484   0.598   6.524 -1.0368 -0.8935  1.3670
40798SOL    HW225672   4.602   0.505   6.505  0.0210  0.7750 -0.5324
40799SOL     OW25673   3.300   0.842   8.120 -0.3064 -0.3316 -0.2215
40799SOL    HW125674   3.261   0.929   8.107 -0.3878 -0.2441  0.5768
40799SOL    HW225675   3.327   0.841   8.212 -0.9369 -1.4035 -0.0298
40800SOL     OW25676   6.225   4.471   6.681 -0.2263  0.2720  0.0975
40800SOL    HW125677   6.308   4.450   6.725 -0.3417  0.7950  0.5813
40800SOL    HW225678   6.197   4.554   6.721 -0.7548  0.3322 -0.3843
40801SOL     OW25679   7.174   5.122   2.612 -0.0423 -0.3424 -0.0160
40801SOL    HW125680   7.216   5.143   2.528  0.6636  1.2212  0.6945
40801SOL    HW225681   7.162   5.027   2.609  0.5900 -0.4106 -1.6056
40802SOL     OW25682   1.707  11.185   3.699 -0.3163 -0.1232  0.0281
40802SOL    HW125683   1.739  11.274   3.685  0.1306 -0.1373  0.8826
40802SOL    HW225684   1.616  11.187   3.668 -1.2653  1.4084  2.6000
40803SOL     OW25685   3.063   2.443   0.190 -0.1370  0.1634 -0.1286
40803SOL    HW125686   3.080   2.349   0.189 -0.0182  0.1170  2.1194
40803SOL    HW225687   3.009   2.458   0.113 -0.6579 -1.8441 -0.2160
40804SOL     OW25688   2.874   0.964   8.332 -0.0630  0.9341 -0.2390
40804SOL    HW125689   2.822   0.963   8.412 -0.1988 -0.1642 -0.3210
40804SOL    HW225690   2.832   1.030   8.277 -1.0953  0.4160 -0.1081
40805SOL     OW25691   6.181   8.235   5.863  0.1751 -0.4909  0.3294
40805SOL    HW125692   6.111   8.189   5.817 -2.4849  1.0971  2.5339
40805SOL    HW225693   6.159   8.327   5.855  1.5528  0.0173  1.8255
40806SOL     OW25694   8.951   7.773   5.104  0.0034  0.4121  0.0450
40806SOL    HW125695   9.028   7.805   5.055 -0.4463  1.1857 -0.1738
40806SOL    HW225696   8.887   7.753   5.036 -0.2371  0.4454  0.2623
40807SOL     OW25697   6.302  10.674   3.168  0.3036 -0.3113 -0.3971
40807SOL    HW125698   6.342  10.726   3.098  0.2031  0.2824 -0.0262
40807SOL    HW225699   6.213  10.707   3.175  0.5579  0.2256  0.5626
40808SOL     OW25700   6.283   3.488   2.641  0.0521 -0.2629 -0.2283
40808SOL    HW125701   6.312   3.398   2.629 -1.5139 -0.6729 -1.1300
40808SOL    HW225702   6.199   3.480   2.687  0.5527  0.8184  0.9438
40809SOL     OW25703   5.703   5.178   3.435  0.0584  0.1070  0.2919
40809SOL    HW125704   5.744   5.168   3.349 -0.2115 -2.3741  0.3959
40809SOL    HW225705   5.772   5.214   3.490 -0.0664  2.8370 -1.1319
40810SOL     OW25706   1.901   5.232   8.901  0.1670 -0.1174 -0.3908
40810SOL    HW125707   1.928   5.149   8.941 -0.3414  0.7777  1.9688
40810SOL    HW225708   1.879   5.288   8.975 -1.8054  1.3611 -1.9899
40811SOL     OW25709   5.613   7.012   4.434 -0.6643 -0.4992  0.1892
40811SOL    HW125710   5.640   6.923   4.414  0.1794 -0.4735  1.1485
40811SOL    HW225711   5.638   7.062   4.356 -1.3157 -1.1269 -0.4284
40812SOL     OW25712   2.761   0.919   5.012  0.2383 -0.5673 -0.1653
40812SOL    HW125713   2.705   0.982   4.967  0.3116 -0.0253  0.4978
40812SOL    HW225714   2.729   0.833   4.982 -0.4435 -0.2435 -0.3819
40813SOL     OW25715   9.277   8.205   4.647  0.3989 -0.0761  0.0853
40813SOL    HW125716   9.288   8.112   4.669 -0.5381 -0.5762 -1.4496
40813SOL    HW225717   9.289   8.209   4.552 -0.4093  1.2430  0.0216
40814SOL     OW25718   8.962   5.735   4.724 -0.1547  0.0429 -0.2099
40814SOL    HW125719   9.017   5.761   4.650 -0.1914 -1.7091 -0.8939
40814SOL    HW225720   9.020   5.683   4.780 -0.0632  1.5338  1.1594
40815SOL     OW25721   4.381   1.614   4.940  0.4355 -0.0812 -0.5383
40815SOL    HW125722   4.399   1.620   5.034 -2.5629  1.2309  0.0520
40815SOL    HW225723   4.421   1.692   4.902  1.1104 -0.2948 -0.2845
40816SOL     OW25724   6.913   2.712  11.158  0.7657 -0.1914  0.6920
40816SOL    HW125725   6.889   2.796  11.199 -0.5864 -0.5813  0.7603
40816SOL    HW225726   6.857   2.707  11.080  1.5260 -0.6040  0.1575
40817SOL     OW25727   0.888   4.524   5.519 -0.0606  0.1056  0.1154
40817SOL    HW125728   0.910   4.589   5.586  0.6585  1.4564 -1.3419
40817SOL    HW225729   0.793   4.512   5.528  0.0530  0.0786  1.4959
40818SOL     OW25730   5.808   9.033   0.728 -0.3882  0.1397  0.3425
40818SOL    HW125731   5.729   9.043   0.675  0.2712  1.8216 -0.3965
40818SOL    HW225732   5.780   9.050   0.818 -0.9963 -0.0166  0.1845
40819SOL     OW25733   4.590   6.492   5.505  0.0630 -0.0253  0.5303
40819SOL    HW125734   4.558   6.564   5.560 -1.0509 -0.3112  0.2887
40819SOL    HW225735   4.524   6.423   5.516  1.5241 -1.3384  1.4006
40820SOL     OW25736   6.411   7.846   0.816  0.0845 -0.8817  0.2623
40820SOL    HW125737   6.487   7.870   0.762  0.2857 -0.3368  0.7806
40820SOL    HW225738   6.393   7.924   0.868  0.5847 -1.7398  1.8037
40821SOL     OW25739  11.130   7.897   6.663  0.3567  0.0846 -0.9255
40821SOL    HW125740  11.127   7.907   6.758  2.0125  0.0168 -0.8388
40821SOL    HW225741  11.207   7.842   6.647  0.7104  0.9449 -2.3467
40822SOL     OW25742   5.103   1.101   5.321 -0.1596  0.4073 -0.4089
40822SOL    HW125743   5.163   1.067   5.387 -0.3978  0.6511 -0.0674
40822SOL    HW225744   5.034   1.034   5.314 -0.9894  1.1169  0.7492
40823SOL     OW25745   0.431   7.913   8.281  0.1999  0.3141 -0.8494
40823SOL    HW125746   0.397   7.881   8.364  2.1103 -0.1689 -0.1842
40823SOL    HW225747   0.501   7.851   8.258  1.0153  1.5226 -1.7906
40824SOL     OW25748   7.249  11.024   1.866  0.6882 -0.0123 -0.0811
40824SOL    HW125749   7.231  11.095   1.927 -2.8604 -3.0465  2.8740
40824SOL    HW225750   7.238  11.064   1.780 -2.3587  2.8230  1.3962
40825SOL     OW25751   9.170   5.477   3.194 -0.5822 -0.3789  0.2501
40825SOL    HW125752   9.172   5.501   3.102 -1.3174  0.8166  0.5223
40825SOL    HW225753   9.079   5.491   3.221 -0.1131  0.5523  1.4511
40826SOL     OW25754   8.556  10.640   7.175 -0.0595 -0.3657 -0.5830
40826SOL    HW125755   8.592  10.552   7.172  0.2140 -0.3148  0.5560
40826SOL    HW225756   8.470  10.630   7.216  0.7975  0.0981  1.4611
40827SOL     OW25757   7.816   7.747   5.009 -0.3442 -0.1818 -0.9213
40827SOL    HW125758   7.892   7.788   4.968 -0.3931  0.3812 -0.4548
40827SOL    HW225759   7.754   7.733   4.937 -0.8409  1.6979 -0.9133
40828SOL     OW25760   6.533   6.929   4.149 -0.2166  0.3241 -0.1666
40828SOL    HW125761   6.606   6.868   4.137 -0.1538  0.1056  1.1719
40828SOL    HW225762   6.515   6.962   4.061 -1.6803 -3.1953 -1.3784
40829SOL     OW25763   2.254  10.090   4.988 -0.0935  0.8959  0.4422
40829SOL    HW125764   2.325  10.117   5.046  0.4827  0.8019 -0.2050
40829SOL    HW225765   2.260  10.150   4.913  0.3777 -0.1737 -0.3988
40830SOL     OW25766   6.620   8.650   3.000  0.1373 -0.1054  0.2177
40830SOL    HW125767   6.653   8.577   3.053  0.1577 -0.1911  0.0881
40830SOL    HW225768   6.696   8.681   2.951 -0.0909 -0.6736 -0.5144
40831SOL     OW25769   5.323   9.002   3.425 -0.0337 -0.2983 -0.1187
40831SOL    HW125770   5.304   8.909   3.437  0.6515 -0.6685 -1.6161
40831SOL    HW225771   5.408   9.016   3.466  0.7013 -0.7681 -1.4224
40832SOL     OW25772   2.450   8.633   6.858  0.2175 -0.1439 -0.1363
40832SOL    HW125773   2.500   8.592   6.787  2.1387 -1.2352  1.7357
40832SOL    HW225774   2.500   8.711   6.881  0.1241 -0.2870  0.5954
40833SOL     OW25775   0.649   8.588   9.829  0.4555 -0.6517  0.0683
40833SOL    HW125776   0.566   8.573   9.786  0.9165 -0.0768 -1.0547
40833SOL    HW225777   0.654   8.520   9.897 -0.5725 -1.1616 -0.3572
40834SOL     OW25778   0.644   5.342  11.228  0.4048  0.0251 -0.7444
40834SOL    HW125779   0.584   5.315  11.159  0.7823 -2.3036 -0.2461
40834SOL    HW225780   0.706   5.270  11.236  2.8093  1.9673 -0.6571
40835SOL     OW25781   1.695  10.044   6.015  0.3076 -0.2925  0.5269
40835SOL    HW125782   1.773  10.011   6.060  1.4251 -3.2507 -3.0569
40835SOL    HW225783   1.727  10.118   5.964  0.8073 -1.3647 -0.7674
40836SOL     OW25784  10.876   0.272   3.177  0.7544 -0.8492 -0.6589
40836SOL    HW125785  10.910   0.208   3.239  0.0897 -0.1453  0.4622
40836SOL    HW225786  10.937   0.269   3.103  1.9300 -1.2226  0.3053
40837SOL     OW25787   4.158  10.860   1.356  0.0479 -0.3230  0.4473
40837SOL    HW125788   4.147  10.954   1.344 -1.8514 -0.3874  1.2474
40837SOL    HW225789   4.069  10.827   1.367  0.5762 -2.4024 -0.9941
40838SOL     OW25790   2.759  11.369   0.929  0.0009 -0.1413  0.5883
40838SOL    HW125791   2.854  11.359   0.920  0.0817  0.5566  0.6646
40838SOL    HW225792   2.724  11.347   0.843  0.3234  0.7557  0.2209
40839SOL     OW25793   1.080   6.752   5.632 -0.4234 -0.0215 -0.2448
40839SOL    HW125794   1.021   6.733   5.704  0.5948 -0.1857  0.5748
40839SOL    HW225795   1.090   6.847   5.632 -0.7792  0.0153 -0.4587
40840SOL     OW25796   8.735   0.743   1.321 -0.0011  0.1898 -0.1593
40840SOL    HW125797   8.748   0.838   1.319 -0.0773  0.2048  0.0892
40840SOL    HW225798   8.804   0.710   1.378  1.3695 -0.1257 -1.8920
40841SOL     OW25799   6.268  11.240   8.873  0.0424 -0.2085 -0.6107
40841SOL    HW125800   6.210  11.164   8.880  1.7022 -1.4341  0.3300
40841SOL    HW225801   6.208  11.314   8.867 -1.6295 -1.5198 -1.0470
40842SOL     OW25802   7.020   0.430   0.930 -0.2917 -0.8157 -0.5215
40842SOL    HW125803   6.992   0.473   1.010  1.1217 -1.3699  0.2990
40842SOL    HW225804   6.940   0.419   0.879 -1.0400  0.5276  0.3239
40843SOL     OW25805   7.766   9.902   2.325 -0.3635 -0.3181  0.0313
40843SOL    HW125806   7.754   9.894   2.230 -2.0116 -1.0009  0.2529
40843SOL    HW225807   7.689   9.858   2.362  0.1184  0.1689  1.6855
40844SOL     OW25808   0.861   0.480   8.633 -0.2520 -0.3358 -0.3718
40844SOL    HW125809   0.783   0.514   8.676 -0.3602 -0.4546 -0.4694
40844SOL    HW225810   0.905   0.428   8.700  0.0222  0.1607 -0.1619
40845SOL     OW25811  10.682   4.879  10.598  0.3334 -0.0255 -0.0959
40845SOL    HW125812  10.715   4.940  10.665  0.1056 -1.0246  0.9560
40845SOL    HW225813  10.603   4.922  10.565 -1.3206 -0.8568  2.4853
40846SOL     OW25814   1.303   8.737   1.792  0.6132  0.1463 -0.3159
40846SOL    HW125815   1.347   8.818   1.764  0.1428  0.8942  0.9876
40846SOL    HW225816   1.349   8.711   1.871 -1.1465  0.8885  1.0220
40847SOL     OW25817   4.071   9.095   9.310 -0.0723  0.0081 -0.5628
40847SOL    HW125818   4.064   9.154   9.235  0.5405 -2.6184 -2.8834
40847SOL    HW225819   3.981   9.082   9.339 -0.2808  1.4275 -0.4899
40848SOL     OW25820  11.160   7.686   9.058  0.1320  0.0457  0.0642
40848SOL    HW125821  11.244   7.645   9.036  1.1192  1.7160  0.5793
40848SOL    HW225822  11.175   7.728   9.143 -1.0114  0.9242 -0.1452
40849SOL     OW25823   6.689   1.788   4.698  0.6428  0.4503 -0.3389
40849SOL    HW125824   6.674   1.871   4.743 -0.2975 -0.4764  1.1229
40849SOL    HW225825   6.767   1.752   4.739  1.6785  1.0580 -1.6978
40850SOL     OW25826  11.255   5.562   3.738  0.7635  0.1821  0.2655
40850SOL    HW125827  11.258   5.473   3.772 -1.3581  0.1897  0.6063
40850SOL    HW225828  11.341   5.576   3.700  1.2208 -1.9253  0.4036
40851SOL     OW25829   0.709   1.193   2.585  0.2717 -0.2990 -0.6119
40851SOL    HW125830   0.675   1.152   2.506 -1.1165  0.1588 -0.2666
40851SOL    HW225831   0.764   1.265   2.553  1.0086 -1.0794 -1.1676
40852SOL     OW25832   5.314   3.155   0.359 -0.0705  0.2628  0.3427
40852SOL    HW125833   5.397   3.188   0.324  0.0516 -0.6440 -0.2755
40852SOL    HW225834   5.263   3.133   0.281  0.7300 -3.1414  0.5924
40853SOL     OW25835   7.283   7.720   5.257  0.3244  0.2829  0.0995
40853SOL    HW125836   7.335   7.661   5.203 -1.1836 -1.1088  0.0672
40853SOL    HW225837   7.340   7.743   5.330  1.4490 -0.0271 -0.6530
40854SOL     OW25838   9.312   3.906   7.199 -0.8860  0.1042  0.9058
40854SOL    HW125839   9.221   3.910   7.167 -0.4870 -0.0084 -0.3041
40854SOL    HW225840   9.365   3.898   7.119  0.2891  1.4562  1.5046
40855SOL     OW25841   3.044   1.038   0.774 -0.5000  0.0697  0.2295
40855SOL    HW125842   3.042   1.117   0.721 -0.1195 -0.5531 -0.7405
40855SOL    HW225843   3.004   0.971   0.719  0.1180 -0.6452  0.6239
40856SOL     OW25844  10.237   2.037   8.364 -0.2406 -0.0326  0.4357
40856SOL    HW125845  10.204   2.029   8.274  0.7657 -2.0038  0.1710
40856SOL    HW225846  10.164   2.010   8.419 -0.5662  0.2598  0.1510
40857SOL     OW25847   6.821   8.434   2.440 -0.4138 -0.3221  0.2143
40857SOL    HW125848   6.811   8.471   2.353 -1.2440  0.0800  0.4632
40857SOL    HW225849   6.875   8.356   2.428 -0.9888 -0.5879 -0.7493
40858SOL     OW25850   1.009   3.313   8.370  0.0208 -0.6116  0.3096
40858SOL    HW125851   1.083   3.356   8.327 -0.1956 -0.3530  0.1922
40858SOL    HW225852   0.967   3.383   8.420  0.0947 -0.8478  0.7044
40859SOL     OW25853   9.219   1.302   7.687  0.3525 -0.2103  0.7408
40859SOL    HW125854   9.215   1.389   7.726  2.0122  0.0555  0.4027
40859SOL    HW225855   9.173   1.246   7.749  0.9772  0.5719  1.9633
40860SOL     OW25856   2.512   0.589  10.120  0.1954  0.5152 -0.3728
40860SOL    HW125857   2.517   0.558  10.210 -3.1091 -1.6053 -0.7636
40860SOL    HW225858   2.582   0.541  10.074  0.2997 -0.2838  0.5914
40861SOL     OW25859   6.438  10.257   5.908 -0.2918 -0.0728 -0.6871
40861SOL    HW125860   6.356  10.301   5.885 -0.5422 -1.2640 -2.2290
40861SOL    HW225861   6.504  10.327   5.904 -1.3157  1.1335  1.6451
40862SOL     OW25862   9.786  11.018   7.672  0.6501 -0.2472  0.3881
40862SOL    HW125863   9.813  11.054   7.588 -2.4397  0.2707 -0.5203
40862SOL    HW225864   9.725  11.083   7.707 -0.1333 -1.6725  1.7705
40863SOL     OW25865  10.589   3.178   4.193  0.4090  0.1341 -0.2071
40863SOL    HW125866  10.597   3.258   4.141  1.6611 -0.1827 -0.5428
40863SOL    HW225867  10.583   3.208   4.283  0.0986  0.6236 -0.3834
40864SOL     OW25868   1.831   3.918   0.822 -0.7135  0.0577 -0.0009
40864SOL    HW125869   1.852   3.994   0.875 -0.4929  1.4967 -2.0444
40864SOL    HW225870   1.903   3.857   0.838  0.4281  1.3007 -0.1839
40865SOL     OW25871  11.115   2.585   3.438  0.2187 -0.6574 -0.3163
40865SOL    HW125872  11.162   2.618   3.361  0.9398 -0.6329  0.1244
40865SOL    HW225873  11.035   2.546   3.402  1.1840 -1.8828 -1.2150
40866SOL     OW25874   9.444   5.732   1.960  0.0872 -0.0909  0.1136
40866SOL    HW125875   9.469   5.824   1.967  0.0979 -0.1452  0.8648
40866SOL    HW225876   9.453   5.697   2.049  3.6412 -1.7435 -0.6913
40867SOL     OW25877   4.538   8.019   5.614  0.0265 -0.4919 -0.0406
40867SOL    HW125878   4.459   8.002   5.562  0.5809 -0.2225 -1.0001
40867SOL    HW225879   4.507   8.069   5.689 -0.5498  0.7254 -1.0573
40868SOL     OW25880   7.823   7.041   9.936  0.3204 -0.1993  0.4094
40868SOL    HW125881   7.778   6.959   9.920 -0.8120  0.7483 -1.6168
40868SOL    HW225882   7.823   7.050  10.032 -2.5916 -0.9400  0.5760
40869SOL     OW25883   8.098   0.670   5.239 -0.2754 -0.3997 -0.0879
40869SOL    HW125884   8.096   0.586   5.285 -0.0224 -0.6714 -0.5627
40869SOL    HW225885   8.170   0.718   5.279 -0.5145 -0.3460  0.2870
40870SOL     OW25886   1.601   4.197   8.789 -0.0575  0.2485 -0.7378
40870SOL    HW125887   1.635   4.286   8.779  0.6717  0.3262  1.7461
40870SOL    HW225888   1.532   4.205   8.856 -0.0386 -1.0264 -0.5387
40871SOL     OW25889   3.648   5.072   6.066 -0.7036  0.0187 -0.1558
40871SOL    HW125890   3.710   5.128   6.113 -0.5222  0.3297 -0.7561
40871SOL    HW225891   3.562   5.103   6.092 -0.6092 -0.3689  0.6308
40872SOL     OW25892   7.176   6.901  10.741  0.4822  0.7839 -0.1975
40872SOL    HW125893   7.115   6.964  10.703  2.8747  1.8898 -2.5078
40872SOL    HW225894   7.128   6.818  10.741 -1.8596  2.0506  0.5599
40873SOL     OW25895   9.499   7.474   2.051 -0.2064  0.0202 -0.2764
40873SOL    HW125896   9.408   7.498   2.069 -0.3810  0.4962 -1.6699
40873SOL    HW225897   9.551   7.543   2.093 -0.4761 -0.3226  0.6312
40874SOL     OW25898   7.412  11.395   0.993 -0.6440 -0.1954 -0.1826
40874SOL    HW125899   7.341  11.453   0.962 -2.1039 -1.9338 -0.2577
40874SOL    HW225900   7.443  11.436   1.073  0.8231  2.5596 -1.9872
40875SOL     OW25901   7.521   9.126   6.208 -0.4309 -0.1129 -0.2746
40875SOL    HW125902   7.563   9.079   6.280 -0.1156 -2.4487 -1.8577
40875SOL    HW225903   7.593   9.152   6.151 -0.7634  0.5271 -0.4064
40876SOL     OW25904   8.265   3.538   6.539  0.1516 -0.0771 -0.6645
40876SOL    HW125905   8.235   3.620   6.580 -2.5471 -1.8279  1.2091
40876SOL    HW225906   8.336   3.508   6.596 -0.0209  0.1267 -0.3353
40877SOL     OW25907   0.531   1.247  10.532  0.5086 -0.2137 -0.0519
40877SOL    HW125908   0.490   1.296  10.460 -0.5556  2.3165  2.1255
40877SOL    HW225909   0.459   1.228  10.592  1.3206 -2.5924  0.2714
40878SOL     OW25910   8.843   2.826   1.567  0.0894 -0.2563  0.5311
40878SOL    HW125911   8.785   2.751   1.552  1.2422 -1.0679  0.0102
40878SOL    HW225912   8.854   2.866   1.481 -1.1467  1.0064  0.9366
40879SOL     OW25913   9.832   2.114   0.220 -0.4277 -0.3813  0.2126
40879SOL    HW125914   9.822   2.188   0.280 -0.4100 -1.0206  1.0125
40879SOL    HW225915   9.789   2.041   0.265  1.5046 -1.4225  0.4653
40880SOL     OW25916  10.089   4.422   6.881 -0.4414 -0.4543  0.1087
40880SOL    HW125917  10.084   4.487   6.811 -1.6132  0.1581  0.7376
40880SOL    HW225918  10.003   4.381   6.881 -0.9036  0.4265  1.9916
40881SOL     OW25919   4.978  11.043   6.930  0.6495  0.4447 -0.7178
40881SOL    HW125920   4.979  11.102   7.005  0.6484 -1.0786  0.5440
40881SOL    HW225921   4.893  11.056   6.889 -0.1393 -0.0444  0.7098
40882SOL     OW25922   1.419   0.803   1.282  0.1454  0.2449  0.0522
40882SOL    HW125923   1.406   0.892   1.249  0.2693  1.3536  2.6964
40882SOL    HW225924   1.510   0.783   1.261  1.5541  2.5967  3.0834
40883SOL     OW25925   6.095   0.119   0.417 -0.0635  0.2210 -0.0185
40883SOL    HW125926   6.145   0.166   0.484  2.2927  1.3006 -2.3546
40883SOL    HW225927   6.150   0.045   0.392 -0.8078 -0.0615 -0.9048
40884SOL     OW25928   3.100   6.505   1.514  0.2459  0.2386 -0.3204
40884SOL    HW125929   3.035   6.459   1.568  0.8089 -1.0354 -0.6750
40884SOL    HW225930   3.058   6.513   1.428  0.4361 -0.3495 -0.4770
40885SOL     OW25931   5.597   8.760   4.204 -0.3833  0.0781 -0.0163
40885SOL    HW125932   5.591   8.832   4.266  0.6497  0.3202 -0.1839
40885SOL    HW225933   5.518   8.708   4.219  0.2092 -0.2928  2.0087
40886SOL     OW25934   6.982   3.346   7.280 -0.1129 -0.2191 -0.3002
40886SOL    HW125935   6.960   3.253   7.275  0.8517 -0.4440 -0.7173
40886SOL    HW225936   7.045   3.359   7.209  1.7707  0.1595  1.3581
40887SOL     OW25937   8.534   5.184  10.666  0.3761  0.0833 -0.1702
40887SOL    HW125938   8.540   5.114  10.731  0.2546  0.8224  0.6756
40887SOL    HW225939   8.608   5.171  10.608 -0.9993 -2.2083 -1.5731
40888SOL     OW25940   6.418   9.420   9.154 -0.4738 -0.0773  0.0770
40888SOL    HW125941   6.405   9.423   9.249  0.4675  2.0139  0.2016
40888SOL    HW225942   6.501   9.375   9.143 -1.1692 -1.4161  0.1384
40889SOL     OW25943   8.277   7.212   9.465 -0.8156  0.2802 -0.9531
40889SOL    HW125944   8.266   7.263   9.545  0.8654 -3.8344  2.2622
40889SOL    HW225945   8.191   7.174   9.449 -0.4682 -1.4728  1.0099
40890SOL     OW25946   0.737  10.179   4.266 -0.1908  0.7810  0.1015
40890SOL    HW125947   0.699  10.190   4.179  0.7351 -1.3393 -0.6243
40890SOL    HW225948   0.673  10.126   4.314 -0.4203  1.4400  0.5416
40891SOL     OW25949   5.839   1.457  10.613  0.0984 -0.2243  0.1027
40891SOL    HW125950   5.750   1.423  10.628 -0.5228  0.5245 -1.6042
40891SOL    HW225951   5.826   1.532  10.554  1.6531  1.5020  1.8377
40892SOL     OW25952  10.463   0.087   5.647  0.1422 -0.6848  0.6221
40892SOL    HW125953  10.445   0.063   5.738 -1.0516  0.3387  0.6878
40892SOL    HW225954  10.418   0.020   5.595 -2.1043  0.5888  0.8060
40893SOL     OW25955   1.927   7.680   4.645 -0.5340  0.2530 -0.4245
40893SOL    HW125956   1.957   7.610   4.704 -0.7219 -0.1644 -0.8132
40893SOL    HW225957   1.833   7.686   4.660 -0.9581 -1.2959 -2.1374
40894SOL     OW25958   9.404   7.353   1.476  0.3029 -0.1745  0.0358
40894SOL    HW125959   9.413   7.340   1.570 -0.2045 -3.1169 -0.2535
40894SOL    HW225960   9.313   7.331   1.457  0.6022 -0.3817 -1.2486
40895SOL     OW25961   6.340   6.987   0.723  0.6124 -0.0513 -0.1749
40895SOL    HW125962   6.402   6.973   0.652  0.8474  0.1046 -0.0033
40895SOL    HW225963   6.299   7.071   0.703 -0.8033 -0.9456 -1.2084
40896SOL     OW25964   5.110   8.249   8.064  0.2469 -0.1119  0.5745
40896SOL    HW125965   5.058   8.217   7.990 -1.7205  1.7186  1.0570
40896SOL    HW225966   5.098   8.183   8.132  0.2723 -0.7300 -0.0143
40897SOL     OW25967  10.582   6.306   4.556 -0.3224 -0.4528  0.2140
40897SOL    HW125968  10.624   6.315   4.470 -0.0560 -1.4855  0.2183
40897SOL    HW225969  10.563   6.395   4.583 -0.2558 -0.1025 -0.8506
40898SOL     OW25970   0.106   1.632   8.432 -0.6322  0.1468  0.0640
40898SOL    HW125971   0.099   1.674   8.518  1.9245  0.4759  0.2064
40898SOL    HW225972   0.104   1.538   8.451  1.4196  0.1819  0.7471
40899SOL     OW25973   8.646   1.930   0.670  0.2539  0.7686  0.5456
40899SOL    HW125974   8.644   1.932   0.766  1.3297  2.6779  0.5742
40899SOL    HW225975   8.681   2.016   0.645  0.4723  0.1186 -1.5471
40900SOL     OW25976   4.965   3.081  10.279  0.2973 -0.0144  0.2171
40900SOL    HW125977   4.904   3.126  10.337  1.2846  0.1358  1.1823
40900SOL    HW225978   4.914   3.011  10.239 -0.6093  0.3863  0.6497
40901SOL     OW25979   2.721   2.708   1.455  0.3811 -0.0148  0.7413
40901SOL    HW125980   2.685   2.704   1.544 -1.0692 -2.7579  0.1699
40901SOL    HW225981   2.799   2.653   1.459 -0.2038 -0.9179  0.1706
40902SOL     OW25982   2.166   5.519   4.365 -0.3801  0.1570  0.0604
40902SOL    HW125983   2.160   5.614   4.364 -2.1476  0.0934 -0.9971
40902SOL    HW225984   2.197   5.497   4.453  0.2409  1.7087  0.2420
40903SOL     OW25985   0.981   0.859   8.809 -0.2509  0.1526  0.1314
40903SOL    HW125986   1.044   0.889   8.875  0.3661  0.8530 -0.7586
40903SOL    HW225987   0.923   0.801   8.857  0.7728 -0.1182  1.0907
40904SOL     OW25988   8.089   2.567   9.152 -0.4576  0.2381  0.3921
40904SOL    HW125989   8.175   2.572   9.111 -1.1935  2.8493 -1.1025
40904SOL    HW225990   8.049   2.488   9.117  0.1877  0.6797 -1.4260
40905SOL     OW25991   3.077   2.853   5.055 -0.3455  0.2520 -0.4777
40905SOL    HW125992   3.015   2.882   4.988 -0.5220 -0.3415 -0.5772
40905SOL    HW225993   3.062   2.759   5.062 -0.0849  0.2541  0.1473
40906SOL     OW25994   0.136  10.750   3.035 -0.1287 -0.3116 -0.4178
40906SOL    HW125995   0.054  10.795   3.052 -0.6587 -0.4054 -2.4753
40906SOL    HW225996   0.155  10.702   3.116 -2.1900 -0.4460  0.0223
40907SOL     OW25997   3.925   6.492  11.166  0.6320 -0.5298  0.3179
40907SOL    HW125998   3.973   6.471  11.086 -0.3139 -0.3167 -0.3293
40907SOL    HW225999   3.834   6.474  11.144  0.1340  1.2278  0.7480
40908SOL     OW26000   6.481   1.643  11.253 -0.0353 -0.4097  0.0449
40908SOL    HW126001   6.553   1.706  11.257 -1.0292  0.8420 -0.9367
40908SOL    HW226002   6.522   1.562  11.222  0.8253  0.5524 -1.4734
40909SOL     OW26003  10.376   8.719   8.408  0.5627  0.5358 -0.0571
40909SOL    HW126004  10.332   8.792   8.364 -0.7296 -0.1246  0.0895
40909SOL    HW226005  10.361   8.644   8.350 -1.4798 -0.4377  1.5775
40910SOL     OW26006  10.478   7.811   8.762 -0.2127 -0.4649  0.6268
40910SOL    HW126007  10.410   7.747   8.743  0.7672 -1.1142 -0.9623
40910SOL    HW226008  10.517   7.830   8.676  0.1991  1.4964  1.2127
40911SOL     OW26009   4.557   8.741   6.979 -0.0212  0.0897  0.0068
40911SOL    HW126010   4.595   8.725   7.065 -2.3251  0.9759  1.2780
40911SOL    HW226011   4.491   8.672   6.969 -1.0117  1.0372 -0.2189
40912SOL     OW26012   4.146   3.585   6.828 -0.6006 -0.0178  0.2500
40912SOL    HW126013   4.218   3.603   6.767  0.5280 -2.1507  0.8495
40912SOL    HW226014   4.085   3.531   6.777  0.3819 -1.8705  0.9374
40913SOL     OW26015   5.739   0.096   4.609  0.5605  0.0182  0.1764
40913SOL    HW126016   5.685   0.078   4.532  0.7577  1.5241 -0.3568
40913SOL    HW226017   5.741   0.014   4.657  1.0897 -1.1955 -1.8257
40914SOL     OW26018  10.920   0.166   8.992  0.4170 -0.1000  0.3317
40914SOL    HW126019  11.003   0.119   8.993 -0.5326 -1.8940  1.2871
40914SOL    HW226020  10.942   0.254   8.963  2.6481 -0.4985  0.6413
40915SOL     OW26021   1.512   2.771   5.382  0.2896  0.5635 -0.2891
40915SOL    HW126022   1.540   2.681   5.394  2.4080  0.9012 -2.0070
40915SOL    HW226023   1.438   2.782   5.442  1.2572 -1.6840  1.4391
40916SOL     OW26024   2.013   4.002  11.174  0.2443 -0.1224 -0.3818
40916SOL    HW126025   1.977   4.022  11.261  0.3086  1.9487 -0.7868
40916SOL    HW226026   2.107   4.014  11.184  0.2385  0.2418 -0.7756
40917SOL     OW26027   0.181   8.278   5.330 -0.0381  0.2303  0.4841
40917SOL    HW126028   0.106   8.218   5.335 -0.1015  0.4406  2.6038
40917SOL    HW226029   0.156   8.340   5.261 -2.2793  0.8622  1.7543
40918SOL     OW26030   7.340   8.122   3.633  0.0305  0.1121 -0.3004
40918SOL    HW126031   7.326   8.210   3.600  1.2015  0.0318 -1.0905
40918SOL    HW226032   7.340   8.131   3.728 -2.2765  0.5386 -0.2856
40919SOL     OW26033   1.315   1.143   3.091  0.4851  0.3495 -0.2719
40919SOL    HW126034   1.367   1.179   3.163  1.6309  1.7220 -1.7257
40919SOL    HW226035   1.360   1.172   3.012  0.0137 -2.2405 -1.5800
40920SOL     OW26036   2.222   0.240   9.527 -0.4288  0.0234  0.1942
40920SOL    HW126037   2.227   0.166   9.588 -0.7341  0.4235  0.7212
40920SOL    HW226038   2.271   0.310   9.571 -1.3458  0.5702  0.3636
40921SOL     OW26039   4.610   4.630   2.585 -0.1012  0.2390  0.0563
40921SOL    HW126040   4.620   4.719   2.619 -0.9090  0.9112 -1.3922
40921SOL    HW226041   4.614   4.640   2.490 -2.0589 -1.0164 -0.2087
40922SOL     OW26042  11.217   1.850   4.298  0.6820  0.0254 -0.2196
40922SOL    HW126043  11.278   1.823   4.366  2.1460 -0.4811 -1.6808
40922SOL    HW226044  11.266   1.842   4.217 -1.3863 -0.6057 -1.4855
40923SOL     OW26045   8.085   8.442   2.076  0.1489 -0.1388 -0.0762
40923SOL    HW126046   8.003   8.403   2.045  0.4120 -1.0198  0.3033
40923SOL    HW226047   8.059   8.499   2.148 -0.2393  0.4156 -0.6348
40924SOL     OW26048  11.317   4.672   8.701  0.1513 -0.8312 -0.4017
40924SOL    HW126049  11.327   4.722   8.782 -1.7729 -2.0895  0.6778
40924SOL    HW226050  11.262   4.598   8.725 -1.8320 -0.3980 -3.2141
40925SOL     OW26051   6.904   8.528   3.410 -0.1296 -0.0314 -0.3033
40925SOL    HW126052   6.969   8.495   3.348 -0.3879  1.1054 -1.2265
40925SOL    HW226053   6.890   8.456   3.471  2.2116 -0.2164  0.1124
40926SOL     OW26054   6.348  10.759   5.353 -0.4603  0.1886  0.5532
40926SOL    HW126055   6.354  10.855   5.347 -0.8817  0.2147  0.5177
40926SOL    HW226056   6.319  10.743   5.443  1.2376  0.0093  1.1133
40927SOL     OW26057  10.579   3.638   2.505 -0.1881  0.0281 -0.7622
40927SOL    HW126058  10.535   3.567   2.458  2.4831 -1.9711 -0.4747
40927SOL    HW226059  10.568   3.617   2.598  0.5151  0.0322 -0.6706
40928SOL     OW26060   2.928   6.388   1.114  0.2913 -0.0466 -0.0509
40928SOL    HW126061   2.979   6.464   1.141 -1.1366  1.1035 -0.4265
40928SOL    HW226062   2.992   6.317   1.106  1.5565  0.9145  1.0236
40929SOL     OW26063   0.350   4.357   3.833 -0.5978  0.8932  0.4531
40929SOL    HW126064   0.258   4.364   3.859 -0.5588  0.7816  0.6239
40929SOL    HW226065   0.348   4.361   3.737 -0.8465  0.1676  0.4186
40930SOL     OW26066   9.423   5.180  10.472  0.0134 -0.0262 -0.0500
40930SOL    HW126067   9.514   5.181  10.499 -0.5816  0.1989  2.0818
40930SOL    HW226068   9.425   5.206  10.380  1.9249  2.1315  0.5201
40931SOL     OW26069   1.018   2.898   6.310  0.2602 -0.3188 -0.2663
40931SOL    HW126070   1.043   2.806   6.320  1.7592  0.2519  2.3387
40931SOL    HW226071   1.072   2.931   6.238  3.1025 -0.5271  1.5760
40932SOL     OW26072  11.042   3.067   9.575 -0.1246  0.5591  0.2563
40932SOL    HW126073  11.055   3.047   9.667  1.4742 -0.9742 -0.2414
40932SOL    HW226074  11.125   3.042   9.533 -1.0772  0.4807 -1.6948
40933SOL     OW26075   3.900   9.112  11.177  0.8075  0.7762 -0.2166
40933SOL    HW126076   3.870   9.122  11.086 -0.4301  0.4630  0.1396
40933SOL    HW226077   3.974   9.052  11.170  0.2566  0.1523 -0.9529
40934SOL     OW26078   7.355   2.862   3.275  0.6629  0.2622 -0.4360
40934SOL    HW126079   7.315   2.843   3.359 -0.5139  0.5137 -0.9159
40934SOL    HW226080   7.331   2.788   3.219 -0.5185  1.1594 -1.1724
40935SOL     OW26081   6.548   5.030   6.881 -0.4636 -0.0829  1.2753
40935SOL    HW126082   6.532   5.064   6.793  0.5543  0.6753  1.3653
40935SOL    HW226083   6.463   4.994   6.908 -0.5090 -1.5064 -0.4918
40936SOL     OW26084  10.937   4.985   2.850  0.1972  0.3154 -0.3691
40936SOL    HW126085  11.029   4.958   2.852  0.6919  1.7998  2.5751
40936SOL    HW226086  10.890   4.912   2.889  0.6273  0.8306  1.1972
40937SOL     OW26087   5.585   8.453   9.423  0.2982 -0.3484  0.0450
40937SOL    HW126088   5.513   8.494   9.376  1.4797  1.4191 -0.3346
40937SOL    HW226089   5.582   8.491   9.510  2.6257  2.2877 -0.8955
40938SOL     OW26090   3.678   1.518   2.585 -0.4951 -1.0976 -0.0188
40938SOL    HW126091   3.744   1.496   2.650  1.0453  1.7494 -0.4395
40938SOL    HW226092   3.600   1.541   2.636 -0.8210 -3.2313  0.5331
40939SOL     OW26093   3.769   5.855   8.340 -0.6852 -0.3813 -0.2403
40939SOL    HW126094   3.748   5.815   8.425 -2.3406 -0.0541 -0.4501
40939SOL    HW226095   3.745   5.788   8.276  0.4078 -0.5670 -0.4769
40940SOL     OW26096  11.066   7.069   5.267  0.0762 -0.1630  0.3533
40940SOL    HW126097  11.029   7.123   5.336 -0.7458 -0.5483  0.2292
40940SOL    HW226098  11.022   7.099   5.187  1.3860  0.6360 -0.1101
40941SOL     OW26099   0.655   4.523   3.651 -0.1056 -0.2728 -0.0746
40941SOL    HW126100   0.701   4.503   3.570  1.6456  0.4549  0.6941
40941SOL    HW226101   0.567   4.487   3.639  1.0478 -2.9844 -1.0591
40942SOL     OW26102   4.533   3.087   1.618 -0.0850  0.1605 -0.4664
40942SOL    HW126103   4.501   3.116   1.703 -0.1345 -0.3064 -0.3227
40942SOL    HW226104   4.617   3.046   1.636  0.9441  1.9596 -0.9283
40943SOL     OW26105   3.027   7.029  11.371  0.0126 -0.6771 -0.4236
40943SOL    HW126106   2.933   7.045  11.366 -0.0619 -1.2063 -0.7734
40943SOL    HW226107   3.042   6.952  11.316  0.3846 -1.7189  1.0684
40944SOL     OW26108   0.873  10.992   4.730 -0.0206 -0.1270  0.0124
40944SOL    HW126109   0.916  10.907   4.736  1.5522  0.6966  0.9048
40944SOL    HW226110   0.941  11.051   4.699 -0.5365  1.1743  1.2598
40945SOL     OW26111   9.770   7.482   0.364  0.1220 -0.3197 -0.6196
40945SOL    HW126112   9.801   7.392   0.372 -0.1515 -0.5108 -1.5046
40945SOL    HW226113   9.700   7.477   0.298 -0.6588  0.3597  0.1318
40946SOL     OW26114   1.759   2.269   2.874 -0.2320  0.4229  0.5881
40946SOL    HW126115   1.755   2.213   2.797 -2.4118 -0.8258  1.5185
40946SOL    HW226116   1.774   2.208   2.947  1.0005  1.4849  1.2690
40947SOL     OW26117   4.526   3.065   9.757 -0.0601 -0.3829 -0.3804
40947SOL    HW126118   4.487   3.134   9.704 -0.1884 -0.1922 -0.0347
40947SOL    HW226119   4.620   3.083   9.753 -0.2175  1.1985  1.6072
40948SOL     OW26120   7.689   0.837   7.561 -0.9603  0.1685 -0.3124
40948SOL    HW126121   7.688   0.892   7.639 -0.7335  0.2626 -0.3729
40948SOL    HW226122   7.761   0.873   7.508 -1.3438  0.3317 -0.7265
40949SOL     OW26123   4.250  11.305  10.724 -0.2165  0.6106  0.0432
40949SOL    HW126124   4.196  11.361  10.668 -0.6101 -1.2315 -1.5222
40949SOL    HW226125   4.312  11.263  10.664  0.0637 -0.6126  1.1461
40950SOL     OW26126   4.200   6.323   3.822 -0.7256  0.1801  0.1713
40950SOL    HW126127   4.175   6.415   3.833  1.8688  0.9248  0.8273
40950SOL    HW226128   4.213   6.292   3.912 -0.9798 -0.6417 -0.0728
40951SOL     OW26129   4.999   0.732   3.985 -0.0701  1.0577  0.3522
40951SOL    HW126130   5.070   0.694   3.933  0.0182 -0.9288  1.8195
40951SOL    HW226131   5.030   0.727   4.075 -2.4454 -0.8728  1.1718
40952SOL     OW26132   8.547   7.758  11.241  0.2421  0.0565 -0.2952
40952SOL    HW126133   8.531   7.668  11.212  1.2502  0.2341 -1.4634
40952SOL    HW226134   8.642   7.769  11.234  0.1115  1.2709 -0.3294
40953SOL     OW26135   8.920   3.640   2.350  0.2429 -0.4242 -0.5177
40953SOL    HW126136   8.836   3.653   2.393  0.2493  0.0308 -0.6324
40953SOL    HW226137   8.976   3.603   2.417 -0.3414 -1.7421 -0.7275
40954SOL     OW26138   9.928   8.984   2.282  0.3179  0.1467 -0.2746
40954SOL    HW126139   9.858   9.025   2.334 -0.2442  0.6619 -1.3908
40954SOL    HW226140   9.899   8.893   2.271  0.3969  0.0578  0.2283
40955SOL     OW26141   9.867   4.564   0.503  0.2036 -0.0128 -0.3011
40955SOL    HW126142   9.816   4.491   0.538  1.2650 -0.4520  0.3980
40955SOL    HW226143   9.844   4.568   0.410 -0.8253 -0.4072 -0.0771
40956SOL     OW26144   3.948   5.846   7.550  0.1044 -0.0886  0.0145
40956SOL    HW126145   3.860   5.858   7.514  0.4087  0.1040 -0.6984
40956SOL    HW226146   3.935   5.842   7.645 -0.6752 -0.1275 -0.0819
40957SOL     OW26147   9.201   7.718   2.839  0.0462 -0.3565 -0.3388
40957SOL    HW126148   9.132   7.717   2.773 -0.1807  1.0176 -0.1457
40957SOL    HW226149   9.258   7.790   2.812  1.0079 -1.0110 -0.0867
40958SOL     OW26150   0.248   2.684   1.209  0.2364  0.1824 -0.0057
40958SOL    HW126151   0.270   2.604   1.162  0.7128 -0.4331  1.2452
40958SOL    HW226152   0.321   2.700   1.268 -1.5642 -0.6967  2.6496
40959SOL     OW26153  11.197   9.980   8.665 -0.2869 -0.2604  0.7538
40959SOL    HW126154  11.241  10.009   8.745  0.9417 -1.6652  0.6209
40959SOL    HW226155  11.268   9.952   8.607 -1.2761 -1.0780 -0.0919
40960SOL     OW26156   6.134   8.078   6.068  0.2312  0.7253  0.4655
40960SOL    HW126157   6.141   8.140   5.996  0.9419  0.5680  0.3913
40960SOL    HW226158   6.220   8.080   6.110  0.2497 -0.1540  0.4936
40961SOL     OW26159  10.818   3.141   3.464  0.8862  0.0281 -0.1000
40961SOL    HW126160  10.899   3.100   3.494  1.4640 -0.1688 -1.7884
40961SOL    HW226161  10.823   3.232   3.496  0.7976 -0.5020  1.4956
40962SOL     OW26162   1.512   8.362   2.772  0.0814 -0.7330  0.0672
40962SOL    HW126163   1.588   8.394   2.724 -0.7986 -0.9338 -1.5404
40962SOL    HW226164   1.460   8.316   2.706 -1.2220 -0.9778  1.2178
40963SOL     OW26165  10.743   4.282  10.717  0.0389 -0.3219 -0.2428
40963SOL    HW126166  10.832   4.288  10.752 -0.4970  0.8005  1.0246
40963SOL    HW226167  10.697   4.225  10.778 -0.5798  0.6163  0.1878
40964SOL     OW26168  10.338   0.895   6.233  0.0005  0.0505  0.1019
40964SOL    HW126169  10.246   0.910   6.213  0.5060  0.7415 -1.9041
40964SOL    HW226170  10.355   0.948   6.311 -0.8686  1.4028 -0.5963
40965SOL     OW26171   3.982   0.115   6.791  0.2411  0.1188 -0.1028
40965SOL    HW126172   3.983   0.210   6.779  2.8638  0.2243  0.5016
40965SOL    HW226173   4.074   0.089   6.789 -0.4402 -2.6017 -1.4497
40966SOL     OW26174   3.456  11.058   3.427  0.6314 -0.8193 -0.9941
40966SOL    HW126175   3.450  10.963   3.433  1.0856 -0.9328 -2.1706
40966SOL    HW226176   3.519  11.074   3.357  0.2732  0.3553 -1.0687
40967SOL     OW26177   5.779   0.272  11.024 -0.1062 -0.3139  0.1415
40967SOL    HW126178   5.842   0.333  11.062  0.1064  0.1393 -0.9024
40967SOL    HW226179   5.719   0.328  10.975 -0.4002 -0.8805 -0.1501
40968SOL     OW26180   3.613  11.261   6.570 -0.2281 -0.9366  0.6245
40968SOL    HW126181   3.630  11.348   6.607  0.9481 -1.6949  1.9945
40968SOL    HW226182   3.540  11.227   6.623 -0.4110 -0.9432  0.3674
40969SOL     OW26183   3.712   0.092   3.545  0.1874  0.2284 -0.4716
40969SOL    HW126184   3.733   0.157   3.478  1.3776  0.9453  0.5478
40969SOL    HW226185   3.630   0.052   3.515  0.9852  0.0790 -2.6450
40970SOL     OW26186  10.345  10.297   6.524  0.0435  0.6843  0.2955
40970SOL    HW126187  10.409  10.296   6.452 -0.4320  0.4180 -0.1281
40970SOL    HW226188  10.291  10.373   6.506 -1.7111 -0.8143 -1.0979
40971SOL     OW26189   4.158   6.830   0.581 -0.3012 -0.1480 -0.4420
40971SOL    HW126190   4.175   6.878   0.662 -2.1107 -0.1208 -0.0442
40971SOL    HW226191   4.242   6.789   0.560  1.1542  2.5988 -0.4356
40972SOL     OW26192   8.333  10.822  10.243 -0.4714  0.2446  0.5060
40972SOL    HW126193   8.282  10.793  10.167 -0.3535  1.2444  0.0329
40972SOL    HW226194   8.423  10.800  10.221 -0.4823  0.1886  0.5194
40973SOL     OW26195  11.278   8.009   8.192  0.4848  0.6274  0.3865
40973SOL    HW126196  11.369   8.026   8.167  0.3494  0.0203 -0.5661
40973SOL    HW226197  11.243   7.958   8.119 -0.5771  0.7244  0.8227
40974SOL     OW26198   8.782   5.451   7.135  0.1935 -0.3959  0.2195
40974SOL    HW126199   8.730   5.522   7.173  1.0241 -0.1090  0.8385
40974SOL    HW226200   8.717   5.394   7.094 -0.3977  1.5309 -1.7382
40975SOL     OW26201   4.051   2.779   0.907  0.6904  0.1555 -0.3247
40975SOL    HW126202   4.025   2.839   0.978 -0.8402 -1.7095  0.7696
40975SOL    HW226203   4.146   2.773   0.915  0.5554 -0.1434  1.7479
40976SOL     OW26204   7.008   1.746   5.520 -0.0215  0.0402  0.3408
40976SOL    HW126205   6.940   1.776   5.581 -0.3055 -0.0969  0.0953
40976SOL    HW226206   7.081   1.805   5.535 -0.0956  0.0215  0.8026
40977SOL     OW26207  11.052   5.839   5.765  0.3518  0.2202 -0.1695
40977SOL    HW126208  11.104   5.905   5.719  0.6401 -0.6402 -1.1243
40977SOL    HW226209  10.962   5.870   5.759  0.6863  1.6309  1.3309
40978SOL     OW26210   5.557   5.719   8.245  0.4363  0.1659 -0.2175
40978SOL    HW126211   5.631   5.659   8.237  0.6582  0.2344  1.0248
40978SOL    HW226212   5.494   5.689   8.179  0.1979 -1.9488  0.8709
40979SOL     OW26213   2.956   7.324   3.935 -0.2191 -0.2619  0.4418
40979SOL    HW126214   2.952   7.357   3.845 -2.3664 -0.9808  0.2293
40979SOL    HW226215   2.982   7.232   3.925  2.6911  0.3941  0.8418
40980SOL     OW26216   0.804   0.714   7.798 -0.0634 -0.4768 -0.5925
40980SOL    HW126217   0.734   0.704   7.734 -0.9557  1.7112 -0.0671
40980SOL    HW226218   0.767   0.679   7.879 -0.0757 -0.4790 -0.5991
40981SOL     OW26219   9.535   2.968   2.850 -0.1816  0.0178  0.0573
40981SOL    HW126220   9.605   2.903   2.845 -2.3348 -2.5495  0.9098
40981SOL    HW226221   9.504   2.977   2.760  0.0211 -0.3003 -0.0457
40982SOL     OW26222   4.434   8.346   7.209  0.2126  0.2563 -0.0832
40982SOL    HW126223   4.365   8.382   7.265  0.2313  2.0442 -1.1541
40982SOL    HW226224   4.474   8.277   7.263 -1.0013  0.6137  1.3613
40983SOL     OW26225   4.015   5.951   2.123 -0.9117 -0.3523 -0.2100
40983SOL    HW126226   3.953   6.023   2.118 -1.9019 -1.0485  1.3374
40983SOL    HW226227   4.082   5.981   2.184  0.0094  0.1661 -1.4271
40984SOL     OW26228   6.574   5.997   8.013  0.0168 -0.3848 -0.0391
40984SOL    HW126229   6.604   5.912   7.981  0.6054 -0.2652  0.1805
40984SOL    HW226230   6.620   6.060   7.958 -0.6771 -0.2012 -0.4285
40985SOL     OW26231   4.450   3.661   8.147 -0.1549 -0.3605  0.6175
40985SOL    HW126232   4.540   3.629   8.159  0.6469  1.9444  1.2442
40985SOL    HW226233   4.424   3.626   8.061  1.2380 -1.2691  0.5224
40986SOL     OW26234   8.076   0.218   0.570  0.0150 -0.5531  0.8035
40986SOL    HW126235   8.039   0.267   0.644 -1.0818  0.0387 -0.1022
40986SOL    HW226236   8.168   0.205   0.593 -0.1780  0.0928  2.0184
40987SOL     OW26237   0.550   4.738   9.823 -0.0305  0.1984 -0.5799
40987SOL    HW126238   0.493   4.813   9.839  0.4199  0.4423 -0.0790
40987SOL    HW226239   0.638   4.775   9.822  0.2934 -0.4967  0.8799
40988SOL     OW26240   3.318  11.184   2.638 -0.1138 -0.2494  0.2738
40988SOL    HW126241   3.234  11.229   2.645 -0.7597 -1.3210 -0.4462
40988SOL    HW226242   3.365  11.211   2.717 -0.8083  0.9849  0.2982
40989SOL     OW26243   1.262   8.345   6.970  0.0795 -0.1014 -0.2007
40989SOL    HW126244   1.347   8.384   6.989  0.8050 -1.4986 -0.4698
40989SOL    HW226245   1.211   8.360   7.050  1.2226 -0.9499  0.7326
40990SOL     OW26246   5.076   4.171  11.164 -0.0344  0.0001 -0.4560
40990SOL    HW126247   4.992   4.126  11.154  1.0198 -1.9362 -1.0004
40990SOL    HW226248   5.053   4.264  11.158 -2.3293 -0.3800  0.9585
40991SOL     OW26249   4.930   5.855   1.438 -0.7983 -0.5060  0.3476
40991SOL    HW126250   4.980   5.931   1.468  0.4589 -0.8435 -0.8167
40991SOL    HW226251   4.888   5.822   1.518 -1.2437  1.2845  0.9064
40992SOL     OW26252   1.538  10.832   2.540  0.2226 -0.1004 -0.3373
40992SOL    HW126253   1.454  10.787   2.551  0.9829 -1.2475  1.0173
40992SOL    HW226254   1.579  10.788   2.466  0.3367 -0.6496  0.0524
40993SOL     OW26255   0.631   3.228  11.313  0.1284 -0.0003  0.1884
40993SOL    HW126256   0.555   3.213  11.370 -0.1745  0.7803 -0.0029
40993SOL    HW226257   0.683   3.294  11.359  0.5505 -0.3151  0.1759
40994SOL     OW26258   8.450   8.340   3.058  0.2516  0.3679  0.1569
40994SOL    HW126259   8.514   8.365   2.991 -0.8119  1.1146 -0.6164
40994SOL    HW226260   8.460   8.407   3.126  0.4512  0.3398  0.1574
40995SOL     OW26261   4.016   3.153   0.074 -0.0870  0.3941  0.1127
40995SOL    HW126262   3.928   3.190   0.074  0.7095  2.4484 -0.4419
40995SOL    HW226263   4.074   3.228   0.089  1.5794 -0.8779  0.3678
40996SOL     OW26264   2.464   9.586   8.517  0.1986 -0.3540 -0.5128
40996SOL    HW126265   2.438   9.656   8.577  1.5345  0.4589 -0.8237
40996SOL    HW226266   2.466   9.507   8.571 -1.4545 -0.1941 -0.1827
40997SOL     OW26267   1.251  11.284   6.462 -0.5350 -0.1440 -0.8507
40997SOL    HW126268   1.248  11.189   6.475 -1.0296  0.0086  0.3420
40997SOL    HW226269   1.214  11.298   6.375 -0.8085 -1.0176 -0.8885
40998SOL     OW26270   6.667   5.301   3.394  0.7203 -0.2932  0.1605
40998SOL    HW126271   6.640   5.225   3.342  0.9652  0.4946 -1.1821
40998SOL    HW226272   6.668   5.373   3.331 -2.1774  1.4638  1.8801
40999SOL     OW26273  10.458   0.223   7.148 -0.1532 -0.2120  0.5005
40999SOL    HW126274  10.516   0.291   7.180 -1.1092  0.4624  0.8343
40999SOL    HW226275  10.472   0.149   7.207  0.7298 -0.2436  0.2641
41000SOL     OW26276  11.354   2.060   4.734 -0.8123 -0.6210 -0.2255
41000SOL    HW126277  11.408   2.009   4.674  0.8752  1.3590 -0.5008
41000SOL    HW226278  11.403   2.060   4.816 -1.8512 -1.1745  0.4240
41001SOL     OW26279   5.780   5.169  10.313 -0.2927  0.4590  0.0110
41001SOL    HW126280   5.811   5.090  10.358  0.3141  0.5581 -0.2287
41001SOL    HW226281   5.790   5.239  10.378  0.4690  0.5802 -0.2265
41002SOL     OW26282   9.687   5.831   4.860 -0.5383 -0.1005  0.5284
41002SOL    HW126283   9.716   5.804   4.947  0.7810 -1.2064 -0.2296
41002SOL    HW226284   9.661   5.923   4.871  1.0987  0.2570  1.7601
41003SOL     OW26285   0.408   1.582   0.924 -0.2882 -0.1867  0.2017
41003SOL    HW126286   0.441   1.505   0.878  1.3470  0.8595 -0.4415
41003SOL    HW226287   0.486   1.633   0.944 -1.2987  1.0487  1.0855
41004SOL     OW26288   9.672   4.664   9.651  0.0969 -0.1983  0.0531
41004SOL    HW126289   9.617   4.697   9.580  1.2774  1.1299 -0.2950
41004SOL    HW226290   9.750   4.631   9.607  0.7145  0.3723  0.7051
41005SOL     OW26291   6.520   6.475   3.753 -0.0754 -0.0983 -0.0398
41005SOL    HW126292   6.493   6.444   3.839 -0.8593 -0.7699 -0.5163
41005SOL    HW226293   6.616   6.475   3.757 -0.1012  0.1374  0.9092
41006SOL     OW26294   2.296   9.792   0.088 -0.0567  0.7923  0.1108
41006SOL    HW126295   2.217   9.792   0.143 -0.4683 -1.2409 -0.3907
41006SOL    HW226296   2.265   9.760   0.003  1.2032  0.5456 -0.2689
41007SOL     OW26297  10.394   9.240   5.883  0.3195 -0.5495 -0.5605
41007SOL    HW126298  10.344   9.186   5.946  0.3437  1.7132  1.5663
41007SOL    HW226299  10.327   9.273   5.822 -0.7093  1.3125  1.4175
41008SOL     OW26300   6.231   5.261   4.669 -0.2660  0.1804  0.0754
41008SOL    HW126301   6.199   5.203   4.738 -0.0709  0.0297  0.0395
41008SOL    HW226302   6.291   5.321   4.714  0.4114 -0.3695 -0.0852
41009SOL     OW26303   1.009   6.179   6.714 -0.1658 -0.0066 -0.3523
41009SOL    HW126304   1.004   6.168   6.809 -1.9613  1.1227 -0.2639
41009SOL    HW226305   0.997   6.273   6.700 -1.2378 -0.3124 -1.7336
41010SOL     OW26306  10.080   5.575   8.701 -0.1165  0.0328 -0.7505
41010SOL    HW126307  10.130   5.525   8.636  0.6472  1.3522 -1.2260
41010SOL    HW226308  10.143   5.596   8.769 -0.1223  1.2526 -1.0924
41011SOL     OW26309   1.559   9.030   3.425 -0.0580 -0.1551  1.0744
41011SOL    HW126310   1.469   9.040   3.454 -0.4012 -0.4950  0.1537
41011SOL    HW226311   1.612   9.058   3.500 -0.9191  2.2189  0.8843
41012SOL     OW26312   3.815   7.802   2.469 -0.1836 -0.0635 -0.7942
41012SOL    HW126313   3.887   7.849   2.427  0.9859 -0.3352  0.8002
41012SOL    HW226314   3.741   7.862   2.465  1.3937  2.2824  1.6654
41013SOL     OW26315   3.301   2.933   1.594 -0.9462 -0.8592  0.3237
41013SOL    HW126316   3.256   3.017   1.594 -0.8066 -0.7849  0.0949
41013SOL    HW226317   3.326   2.919   1.502  1.3329  0.0715  0.7405
41014SOL     OW26318   4.457   9.188   7.086  0.7446  0.2143  0.3596
41014SOL    HW126319   4.363   9.167   7.083  0.4407  1.2996  1.4930
41014SOL    HW226320   4.500   9.104   7.094  0.0705 -0.5644 -2.7947
41015SOL     OW26321   2.676   9.167   2.483 -0.2342 -0.1274  0.5734
41015SOL    HW126322   2.721   9.250   2.495 -0.2783 -0.0770  0.3921
41015SOL    HW226323   2.634   9.174   2.397  3.0636 -1.8419 -1.4159
41016SOL     OW26324   0.121   5.202   0.059 -0.7137 -0.1998  0.3350
41016SOL    HW126325   0.043   5.218   0.112 -0.9174  1.6889 -0.4457
41016SOL    HW226326   0.166   5.287   0.057  1.1081 -1.1080  0.3270
41017SOL     OW26327   0.833   2.660   4.309  0.0957  0.1607 -0.2115
41017SOL    HW126328   0.801   2.590   4.367  0.7841 -0.7242 -0.8699
41017SOL    HW226329   0.830   2.739   4.363 -0.1689 -0.4734  0.7321
41018SOL     OW26330   5.000   0.578  10.826 -0.6264  0.4857  0.3520
41018SOL    HW126331   5.089   0.565  10.858 -0.6022  1.8537  0.9213
41018SOL    HW226332   4.974   0.493  10.792  0.3069 -0.3576  1.6537
41019SOL     OW26333   0.628   5.808   1.025 -0.1813  0.8412  0.4540
41019SOL    HW126334   0.587   5.895   1.029 -0.0621  0.8978  0.4771
41019SOL    HW226335   0.596   5.770   0.943  2.0262  2.0768 -1.1064
41020SOL     OW26336   6.600   3.228   8.942  0.1340 -0.2211 -0.1273
41020SOL    HW126337   6.562   3.212   8.856  0.7930 -0.9669 -0.2924
41020SOL    HW226338   6.554   3.167   9.000  0.8210 -0.8864 -0.2657
41021SOL     OW26339   6.425   8.399   9.210 -0.3506  0.1942  0.1991
41021SOL    HW126340   6.349   8.357   9.249 -1.0194  0.1574 -1.0766
41021SOL    HW226341   6.388   8.461   9.147  0.6585  1.0474  0.4216
41022SOL     OW26342   4.525   0.035  10.569 -0.1353 -0.0600  0.7821
41022SOL    HW126343   4.460   0.093  10.608 -0.5636  0.6195 -0.8314
41022SOL    HW226344   4.568   0.088  10.502 -0.7414 -1.6345 -0.9715
41023SOL     OW26345   7.270   9.211  10.213  1.1099  0.8087 -0.2278
41023SOL    HW126346   7.239   9.159  10.138  0.9056  0.8508 -0.1754
41023SOL    HW226347   7.360   9.183  10.227  0.4583 -0.8707  0.9523
41024SOL     OW26348   4.004   6.993   5.005 -0.1030 -1.1922 -0.2651
41024SOL    HW126349   4.091   7.032   5.000 -0.5339 -0.3817 -2.0009
41024SOL    HW226350   3.959   7.023   4.926 -1.2820 -3.2341 -0.4535
41025SOL     OW26351   1.727   6.155   3.585 -0.0716  0.7372 -0.2075
41025SOL    HW126352   1.745   6.065   3.558 -1.7339  0.1483  0.4946
41025SOL    HW226353   1.741   6.155   3.679  0.4478  1.3608 -0.2823
41026SOL     OW26354  10.803  10.290   8.330 -0.0217 -0.5078 -0.0291
41026SOL    HW126355  10.832  10.314   8.242  2.3604 -1.2433  0.4884
41026SOL    HW226356  10.777  10.373   8.370  1.1660  0.1923 -0.6489
41027SOL     OW26357   5.524   4.850   9.560  0.4194  0.1691 -0.8180
41027SOL    HW126358   5.508   4.757   9.543  3.0932 -1.0636  2.3684
41027SOL    HW226359   5.521   4.891   9.473 -1.2268 -2.7616 -2.2939
41028SOL     OW26360   0.352   5.352  11.149  0.0439 -0.6816  0.1113
41028SOL    HW126361   0.275   5.405  11.170 -0.4304 -1.0624 -0.6154
41028SOL    HW226362   0.384   5.389  11.066  0.4739 -0.7184  0.2563
41029SOL     OW26363   7.380   9.408  10.689  0.1046  0.0358 -0.1760
41029SOL    HW126364   7.466   9.449  10.678  0.2709  0.2147  1.4474
41029SOL    HW226365   7.322   9.458  10.632  0.4702  2.0146  1.0753
41030SOL     OW26366   1.333   5.850   3.011 -0.0873 -0.2069 -0.0705
41030SOL    HW126367   1.364   5.822   2.925 -0.8698  0.6912 -0.6670
41030SOL    HW226368   1.239   5.864   3.000  0.1709  2.3332  0.2176
41031SOL     OW26369  11.167   4.074   5.053  0.1709  0.0529 -0.2771
41031SOL    HW126370  11.139   4.147   4.997 -0.2834  1.0010  1.1175
41031SOL    HW226371  11.233   4.113   5.112  0.9976 -1.0309 -0.4600
41032SOL     OW26372   1.935   1.608   6.172  0.5354 -0.3868  0.3995
41032SOL    HW126373   1.889   1.533   6.210 -0.4190 -0.2332 -0.4069
41032SOL    HW226374   2.028   1.590   6.187  0.3388 -1.8617  0.0060
41033SOL     OW26375   4.553   4.477   5.154 -0.2342 -0.2265 -0.2901
41033SOL    HW126376   4.484   4.507   5.095 -1.1177 -1.5042  0.0657
41033SOL    HW226377   4.634   4.508   5.113 -0.9146  0.0017 -1.5024
41034SOL     OW26378   3.162   6.036   9.743 -0.4770 -0.2179 -0.0588
41034SOL    HW126379   3.219   5.973   9.788 -2.6545 -1.1927  1.5442
41034SOL    HW226380   3.145   5.997   9.657  1.7860  0.4600 -0.8715
41035SOL     OW26381   4.983   5.733   3.488 -0.3662  0.7740  0.1912
41035SOL    HW126382   5.049   5.796   3.460  1.0563  0.1206  1.8856
41035SOL    HW226383   4.953   5.765   3.573 -1.0456  0.1999  0.1792
41036SOL     OW26384   7.692   1.890   0.255  0.4989 -0.1107  0.5326
41036SOL    HW126385   7.669   1.904   0.347 -1.3777  0.3400  0.0479
41036SOL    HW226386   7.659   1.802   0.236  0.1653  0.1003  0.1086
41037SOL     OW26387   1.389   9.502   4.345  0.2443 -0.3899  0.5347
41037SOL    HW126388   1.405   9.459   4.429  0.7977 -2.8152 -0.7143
41037SOL    HW226389   1.463   9.562   4.335  1.2199 -1.4807  0.9565
41038SOL     OW26390  10.318   4.193   8.266  0.5990  0.2962  0.3182
41038SOL    HW126391  10.303   4.099   8.252  1.1954 -0.1332  2.3204
41038SOL    HW226392  10.230   4.229   8.277  0.4050 -0.1524  0.2972
41039SOL     OW26393   0.369   3.177  10.502  0.0490 -0.1428  0.1251
41039SOL    HW126394   0.381   3.267  10.531  0.1417  0.5815 -1.9714
41039SOL    HW226395   0.313   3.184  10.425  0.3332 -1.8554 -0.2818
41040SOL     OW26396   7.716   1.320   7.062 -0.5298  0.1586  0.5924
41040SOL    HW126397   7.660   1.248   7.033 -0.2616 -0.1589  0.8566
41040SOL    HW226398   7.773   1.281   7.128  1.0477  0.0746 -0.7311
41041SOL     OW26399   8.569   4.665   9.000 -0.3574  0.5587 -0.5219
41041SOL    HW126400   8.648   4.615   9.022 -0.3344  1.8417  2.8814
41041SOL    HW226401   8.497   4.603   9.013 -0.0751  0.2129 -0.6050
41042SOL     OW26402   9.416   3.819  11.144 -0.8676 -0.0905  0.0081
41042SOL    HW126403   9.381   3.809  11.055 -0.9076 -2.0878  0.2198
41042SOL    HW226404   9.345   3.791  11.201  0.1991 -1.8529  0.5316
41043SOL     OW26405   8.530   5.294   5.108  0.1629 -0.8484 -0.0719
41043SOL    HW126406   8.561   5.256   5.190  0.0054  0.2745  0.5221
41043SOL    HW226407   8.592   5.261   5.042  1.1019 -0.6970  0.7019
41044SOL     OW26408  10.075   1.398   4.107  0.0999  0.1876  0.0607
41044SOL    HW126409  10.081   1.332   4.039 -0.2163 -0.3747  0.5646
41044SOL    HW226410  10.047   1.350   4.185 -1.5704  1.1249  0.0895
41045SOL     OW26411   6.559   6.232   1.633 -0.0754 -0.3095 -0.0576
41045SOL    HW126412   6.589   6.220   1.723  1.0940 -0.5872 -0.4749
41045SOL    HW226413   6.510   6.152   1.613 -2.1434  0.6167  0.9977
41046SOL     OW26414  10.793   9.061   1.256  0.3433 -0.2362  0.3479
41046SOL    HW126415  10.874   9.011   1.261  0.3386 -0.4400 -1.0724
41046SOL    HW226416  10.758   9.040   1.169  0.0183  1.7591 -0.0424
41047SOL     OW26417   9.986  11.391   5.811  0.2545 -0.0368  0.3748
41047SOL    HW126418   9.907  11.399   5.756 -0.1887  0.8384  1.1029
41047SOL    HW226419   9.983  11.469   5.867  0.9884 -0.6408  1.2636
41048SOL     OW26420   6.750   6.488   4.048 -0.0870  0.3809 -0.3401
41048SOL    HW126421   6.656   6.481   4.067  0.1991 -0.7158  0.7627
41048SOL    HW226422   6.775   6.574   4.080 -0.2733 -0.2141  1.5131
41049SOL     OW26423   6.486   2.503   9.326  0.1945 -0.0043 -0.0323
41049SOL    HW126424   6.453   2.448   9.398 -0.8721  0.1900 -0.3556
41049SOL    HW226425   6.528   2.441   9.266  1.2731 -0.1434  0.8388
41050SOL     OW26426   9.512   0.344   5.346 -0.0520  0.3780  0.2936
41050SOL    HW126427   9.595   0.327   5.392  0.1887  0.0059 -0.2681
41050SOL    HW226428   9.474   0.257   5.333 -0.0409  0.4663 -0.3466
41051SOL     OW26429  10.605   8.629   4.648 -0.0468 -1.0495 -0.5724
41051SOL    HW126430  10.553   8.644   4.569 -1.3573 -1.0746  0.2480
41051SOL    HW226431  10.611   8.715   4.690 -1.8981 -1.5070  0.7638
41052SOL     OW26432   4.369   6.270   6.072 -0.0293 -0.1993 -0.3287
41052SOL    HW126433   4.357   6.217   5.993 -1.2159 -2.2678  1.1445
41052SOL    HW226434   4.281   6.295   6.098 -0.0037 -2.0608  1.8944
41053SOL     OW26435   1.278   3.232   7.325  0.7105 -0.4660 -0.7145
41053SOL    HW126436   1.372   3.224   7.309  0.9688 -1.0898  0.9554
41053SOL    HW226437   1.254   3.150   7.368 -1.1165 -1.3974 -3.2076
41054SOL     OW26438   7.661   7.059   6.028 -0.3632  0.2640 -0.1122
41054SOL    HW126439   7.676   6.969   6.058  1.1892 -0.0022 -1.5367
41054SOL    HW226440   7.592   7.051   5.962  1.4727 -0.3344 -2.0724
41055SOL     OW26441   5.927   7.566   0.367 -0.0068  0.2654  0.1141
41055SOL    HW126442   5.973   7.575   0.284  1.0019  2.8423  0.8811
41055SOL    HW226443   5.883   7.650   0.380 -1.6983 -0.7416  1.3328
41056SOL     OW26444   8.240  10.358  10.204 -0.4457  0.3400 -0.2906
41056SOL    HW126445   8.186  10.281  10.222  1.7713 -0.7447  2.5355
41056SOL    HW226446   8.301  10.330  10.136 -2.1380  0.9997 -2.1807
41057SOL     OW26447   6.048   0.654   4.223 -0.0027  0.5100 -0.3781
41057SOL    HW126448   6.141   0.634   4.213 -0.4596 -1.0812 -1.9380
41057SOL    HW226449   6.043   0.749   4.213  1.5423  0.7746  0.7951
41058SOL     OW26450   4.493   9.724   5.867 -0.3068 -0.1005  0.3229
41058SOL    HW126451   4.506   9.811   5.906 -1.2225 -0.2798  1.0746
41058SOL    HW226452   4.446   9.741   5.786  0.2438  0.1655  0.0569
41059SOL     OW26453   3.308   1.068   7.244  0.5411 -0.0311  0.2839
41059SOL    HW126454   3.273   1.023   7.167  1.4123  0.2762 -0.3157
41059SOL    HW226455   3.346   1.149   7.209  1.6720 -0.2694  0.9113
41060SOL     OW26456   3.214   3.065   5.687 -0.2430 -0.6596  0.0066
41060SOL    HW126457   3.220   3.144   5.740 -0.9163  0.0450 -0.9244
41060SOL    HW226458   3.257   2.998   5.739 -1.7088 -0.2314  1.8630
41061SOL     OW26459   0.132   2.843   6.915 -0.5954 -0.4826 -0.1998
41061SOL    HW126460   0.076   2.897   6.971 -0.0531 -0.1056 -0.0065
41061SOL    HW226461   0.195   2.804   6.975  0.2814  0.2933 -0.5813
41062SOL     OW26462   8.309   5.724   4.622 -0.2172  0.5577 -0.3413
41062SOL    HW126463   8.229   5.775   4.635 -0.4957  0.3695 -1.2543
41062SOL    HW226464   8.280   5.646   4.574  0.7566  1.3315 -2.2742
41063SOL     OW26465   2.536   1.936   0.524  0.3317 -0.3030  0.0861
41063SOL    HW126466   2.561   2.026   0.547  0.8191 -0.3309 -0.3197
41063SOL    HW226467   2.474   1.946   0.452  0.1499 -0.2791  0.2467
41064SOL     OW26468   6.869   5.683   7.408  0.1475  0.1481  0.1391
41064SOL    HW126469   6.866   5.598   7.364  1.9479 -0.0231  0.2837
41064SOL    HW226470   6.777   5.707   7.420 -0.4313 -0.4747 -2.3774
41065SOL     OW26471  10.205   4.653   4.284 -0.3801 -0.4555  0.3728
41065SOL    HW126472  10.169   4.719   4.344 -0.8394 -0.3555 -0.0141
41065SOL    HW226473  10.129   4.617   4.238  0.0686  0.3251 -1.0324
41066SOL     OW26474   2.589  10.333   9.987 -0.5807  0.3367 -0.1755
41066SOL    HW126475   2.562  10.243   9.970  0.8221 -0.2802  0.6841
41066SOL    HW226476   2.624  10.363   9.903  0.8830 -0.6635  0.0444
41067SOL     OW26477   9.749   4.666   8.731  0.2699  0.0680  0.5191
41067SOL    HW126478   9.843   4.679   8.728  0.4522 -0.7454  1.9537
41067SOL    HW226479   9.717   4.733   8.791 -0.2234  1.0029 -0.7404
41068SOL     OW26480   7.127  10.158   7.313  0.0820  0.3240 -0.6069
41068SOL    HW126481   7.220  10.180   7.319 -0.0266  0.5815  0.2269
41068SOL    HW226482   7.124  10.063   7.317  0.2983  0.3258 -0.3985
41069SOL     OW26483   4.154   3.466   4.386  0.2664 -0.0375  0.4355
41069SOL    HW126484   4.102   3.543   4.411  2.0297  1.5982 -0.6962
41069SOL    HW226485   4.203   3.444   4.465 -0.1438  0.0926  0.7296
41070SOL     OW26486   6.610   5.080   3.739  0.1833 -0.2964 -0.4349
41070SOL    HW126487   6.672   5.133   3.789 -1.1481 -0.2833  1.3097
41070SOL    HW226488   6.657   5.056   3.660  1.3561  2.2365 -0.5956
41071SOL     OW26489   2.414   6.038   6.536  0.0994  0.8300  0.7980
41071SOL    HW126490   2.350   5.986   6.584 -0.9208  0.6077 -0.7128
41071SOL    HW226491   2.364   6.075   6.463  1.5107  1.3554  0.0703
41072SOL     OW26492   7.450   9.692   0.446  0.0109  0.3861  0.1581
41072SOL    HW126493   7.519   9.715   0.383 -1.2540 -0.4176 -1.5771
41072SOL    HW226494   7.498   9.673   0.527  1.8646 -0.4228 -1.0677
41073SOL     OW26495   3.341   3.427   7.654  0.1828  0.6776  0.3678
41073SOL    HW126496   3.412   3.363   7.646 -0.5268 -0.0857 -0.0594
41073SOL    HW226497   3.385   3.511   7.661  1.1666  0.1033  1.5059
41074SOL     OW26498   4.532   4.516   6.711  0.3646  0.0301 -0.4952
41074SOL    HW126499   4.618   4.479   6.692  0.3596  0.9132 -2.5316
41074SOL    HW226500   4.480   4.442   6.741  0.4455 -1.6577 -4.0903
41075SOL     OW26501   5.346   7.993   7.599  0.0997 -0.2089 -0.1457
41075SOL    HW126502   5.414   7.955   7.543  1.1377  1.3108  0.0390
41075SOL    HW226503   5.315   7.919   7.652  2.0748 -0.8333  0.2238
41076SOL     OW26504  10.081   0.205   4.478  0.1982 -0.2615 -0.4728
41076SOL    HW126505  10.149   0.267   4.451  0.6296 -0.6534 -0.2987
41076SOL    HW226506  10.031   0.252   4.545  0.9073 -0.3149  0.1089
41077SOL     OW26507   0.621   4.779   9.192 -0.0789 -0.2540 -0.5831
41077SOL    HW126508   0.637   4.873   9.189 -2.8853  0.3128 -0.5836
41077SOL    HW226509   0.653   4.752   9.277 -0.1962  0.9349 -0.1427
41078SOL     OW26510   5.087   9.302  10.921  0.3020 -0.2308  0.2451
41078SOL    HW126511   5.051   9.356  10.992 -0.4174 -1.1147  0.5681
41078SOL    HW226512   5.180   9.296  10.941  0.3371  0.6048  0.3898
41079SOL     OW26513   2.451   1.614   6.199 -0.3926  0.4143 -0.3244
41079SOL    HW126514   2.432   1.683   6.136  0.0868  1.0913  0.2631
41079SOL    HW226515   2.541   1.631   6.227 -1.4955  1.9215  2.7442
41080SOL     OW26516   6.647   7.918   0.668 -0.5786  0.0680  1.1088
41080SOL    HW126517   6.697   7.838   0.683  0.3467  0.3516 -0.2351
41080SOL    HW226518   6.713   7.987   0.665 -1.1682  0.6227  0.5182
41081SOL     OW26519   8.352   9.167   1.061  0.2646  0.1510 -0.6095
41081SOL    HW126520   8.333   9.090   1.007 -0.8703  0.8142 -1.1961
41081SOL    HW226521   8.270   9.185   1.107  0.8853  0.2939  0.4552
41082SOL     OW26522   1.442   9.112   8.323 -0.4847 -0.6055  0.4265
41082SOL    HW126523   1.467   9.031   8.367  0.7562  0.5612  2.0241
41082SOL    HW226524   1.515   9.172   8.341 -2.1067  1.3854  0.7916
41083SOL     OW26525  11.353   3.545   3.035  0.3527 -0.1631  0.2185
41083SOL    HW126526  11.338   3.596   2.956 -1.3979 -1.6657 -0.5183
41083SOL    HW226527  11.372   3.457   3.003  2.5773 -0.1932  1.4524
41084SOL     OW26528   5.918   0.583   4.462  0.2306  0.4649 -0.7298
41084SOL    HW126529   5.964   0.591   4.378 -1.2740 -1.3953 -1.8125
41084SOL    HW226530   5.904   0.489   4.472  0.2060  0.6690  1.5597
41085SOL     OW26531   5.235   6.537  11.009 -0.1172 -0.1997  0.1557
41085SOL    HW126532   5.225   6.623  11.051 -0.0541 -1.3546  2.7221
41085SOL    HW226533   5.146   6.503  11.002 -0.3316  0.6285 -2.3539
41086SOL     OW26534   7.793   5.604   1.541  0.2611 -0.4028  0.8914
41086SOL    HW126535   7.881   5.611   1.577  0.8013  0.1366 -0.5021
41086SOL    HW226536   7.787   5.675   1.478 -0.3283 -1.8687 -0.7741
41087SOL     OW26537   3.877   8.644   2.312  0.3083 -0.1629  0.3267
41087SOL    HW126538   3.955   8.684   2.275 -0.1686  0.1803 -0.3406
41087SOL    HW226539   3.867   8.562   2.263 -0.3542  0.3171 -0.3679
41088SOL     OW26540   8.169  10.752  10.033 -0.2374 -0.2847  0.0152
41088SOL    HW126541   8.100  10.775   9.970 -1.7709 -1.5331  1.1495
41088SOL    HW226542   8.200  10.666  10.004 -2.0652 -1.6141  1.7584
41089SOL     OW26543   4.067  10.156   8.398  0.3958  0.2490 -0.6420
41089SOL    HW126544   4.087  10.249   8.387  1.3942 -0.0254 -1.3078
41089SOL    HW226545   4.089  10.116   8.314 -0.7489 -0.4855 -0.6210
41090SOL     OW26546   0.784   1.637   3.589  0.1711  0.1130 -0.6035
41090SOL    HW126547   0.745   1.594   3.665 -0.0818  1.3730  0.0005
41090SOL    HW226548   0.786   1.569   3.521 -0.8355 -0.6550  0.1114
41091SOL     OW26549   6.659   9.357   0.384 -0.7280  0.6323 -0.1593
41091SOL    HW126550   6.739   9.306   0.370 -1.6805 -0.7890 -0.7819
41091SOL    HW226551   6.631   9.333   0.472 -1.4601 -0.3940 -0.6477
41092SOL     OW26552   8.273   4.029   6.309  0.0437  0.1959 -0.6112
41092SOL    HW126553   8.326   4.065   6.238  0.7497  1.3769  0.4731
41092SOL    HW226554   8.201   4.092   6.319  0.4073  0.4829  0.2512
41093SOL     OW26555   3.163   5.173   4.306  0.2946 -0.4212 -0.3463
41093SOL    HW126556   3.215   5.118   4.246  0.5710 -0.6042  0.0519
41093SOL    HW226557   3.074   5.170   4.271  0.2339 -1.4165 -0.1382
41094SOL     OW26558   0.825   6.457   2.038  0.2269 -0.5989  0.0780
41094SOL    HW126559   0.801   6.536   1.990  0.5887 -1.4329 -1.5991
41094SOL    HW226560   0.744   6.406   2.041  0.2672 -0.6616  0.0968
41095SOL     OW26561   0.441   5.203   4.092 -0.0558 -1.1481 -0.0897
41095SOL    HW126562   0.468   5.129   4.147  3.3544 -1.0172 -1.3125
41095SOL    HW226563   0.383   5.165   4.027  2.5674 -3.1939 -1.4486
41096SOL     OW26564   1.065   6.761   8.722 -0.2675 -0.8063 -0.3788
41096SOL    HW126565   1.140   6.812   8.692  0.3522 -1.2242  0.4408
41096SOL    HW226566   1.012   6.748   8.643 -0.0475  0.4276 -0.7477
41097SOL     OW26567   7.997   4.370   8.026  0.4411  0.0682  0.1941
41097SOL    HW126568   8.048   4.445   8.055  0.5384 -0.5611  1.7604
41097SOL    HW226569   7.906   4.394   8.044  0.5718 -0.7087  2.0396
41098SOL     OW26570   8.147   1.557   9.718 -0.7417 -0.4818 -0.8396
41098SOL    HW126571   8.100   1.626   9.765 -2.1807 -0.9150 -1.5975
41098SOL    HW226572   8.112   1.475   9.754 -0.0890 -0.8220 -0.9582
41099SOL     OW26573   8.749   4.313   5.509  0.4272  0.0164  0.4963
41099SOL    HW126574   8.770   4.336   5.600 -0.3215 -0.3211  0.7649
41099SOL    HW226575   8.809   4.366   5.457  0.2814  0.8649  1.1641
41100SOL     OW26576   2.017   2.801   4.351 -0.2225 -0.0629 -0.6717
41100SOL    HW126577   1.943   2.860   4.337 -0.3795 -0.6381 -2.5749
41100SOL    HW226578   2.061   2.796   4.266  1.5849 -0.3295  0.2154
41101SOL     OW26579  10.055   4.293   7.690  0.1244  0.7010  0.1356
41101SOL    HW126580  10.130   4.245   7.654  0.4708 -0.0703  1.7867
41101SOL    HW226581  10.036   4.250   7.773 -2.6661  0.3906 -0.5616
41102SOL     OW26582   5.965   8.883   7.387  0.2857 -0.3051  0.1282
41102SOL    HW126583   5.958   8.851   7.477 -1.5951  0.6168  0.3525
41102SOL    HW226584   5.980   8.977   7.396  1.4095 -0.3972 -0.5467
41103SOL     OW26585   6.213   4.782   5.167 -0.6981 -0.0353  0.7547
41103SOL    HW126586   6.200   4.836   5.089  4.6298  0.2217 -0.3586
41103SOL    HW226587   6.188   4.838   5.240 -2.4270  1.0283 -0.5701
41104SOL     OW26588  10.128  10.950   8.054 -0.2370  0.5038 -0.1830
41104SOL    HW126589  10.189  11.012   8.014 -1.9671  1.5906 -1.2750
41104SOL    HW226590  10.046  10.962   8.005 -1.8874  0.4592  2.3690
41105SOL     OW26591   9.561   7.341   6.780  0.1508  0.1473  0.1924
41105SOL    HW126592   9.543   7.415   6.723 -0.8799 -0.2949 -0.0805
41105SOL    HW226593   9.528   7.368   6.866  1.7568  0.8366  0.6230
41106SOL     OW26594  10.543  10.220   9.316 -0.0879  0.1503  0.1835
41106SOL    HW126595  10.594  10.298   9.295  0.7243 -0.3890  0.1105
41106SOL    HW226596  10.465  10.227   9.262 -0.1643  1.0561  0.3928
41107SOL     OW26597   0.722   2.928   3.092  0.6751 -0.0452 -0.0421
41107SOL    HW126598   0.776   2.909   3.015  0.1957 -1.4372 -0.0705
41107SOL    HW226599   0.708   3.022   3.089  1.8156  0.1185 -0.8877
41108SOL     OW26600   7.839   8.321   7.822 -0.0982  0.2847  0.2976
41108SOL    HW126601   7.838   8.404   7.869 -1.9118  0.2540  0.3682
41108SOL    HW226602   7.771   8.268   7.864  0.2066 -0.7948 -0.5215
41109SOL     OW26603   1.602   1.373   5.315 -0.0093 -1.1333  0.1603
41109SOL    HW126604   1.627   1.424   5.392 -1.7404  2.2669 -1.3004
41109SOL    HW226605   1.666   1.397   5.248 -1.4013  0.0436 -0.8238
41110SOL     OW26606   5.178   8.135   3.713 -0.5425 -0.2366 -0.8034
41110SOL    HW126607   5.120   8.113   3.640  0.2649  0.3701 -1.6478
41110SOL    HW226608   5.208   8.223   3.694  1.2632 -0.8141 -0.8083
41111SOL     OW26609   7.534   2.508  10.042 -0.0191  0.6669 -0.3308
41111SOL    HW126610   7.547   2.599  10.015 -1.8061  0.4156 -2.2782
41111SOL    HW226611   7.449   2.508  10.086  0.4050  0.0800  0.5144
41112SOL     OW26612   2.257   7.116   0.695 -0.8921  0.2456  0.3131
41112SOL    HW126613   2.219   7.149   0.613 -0.3102  0.4318  0.1194
41112SOL    HW226614   2.216   7.170   0.763 -2.2482 -0.6576  0.2611
41113SOL     OW26615  10.919   0.131   5.847  0.3662  0.4338  0.0756
41113SOL    HW126616  10.943   0.216   5.810  0.7858  0.1174 -0.3889
41113SOL    HW226617  10.861   0.092   5.781  1.9156 -0.5608 -0.7721
41114SOL     OW26618   6.685   4.774   6.371  0.1162 -0.3076 -0.2048
41114SOL    HW126619   6.644   4.688   6.363  0.9927 -1.0568  2.3900
41114SOL    HW226620   6.778   4.758   6.356  0.1297  0.4555 -1.0171
41115SOL     OW26621   6.751   5.636   5.351  0.1854 -0.5591  0.7876
41115SOL    HW126622   6.664   5.632   5.312 -0.6862  1.8615  2.2410
41115SOL    HW226623   6.747   5.575   5.425 -0.7436  0.4040  1.5708
41116SOL     OW26624   0.935   0.728   5.986  0.0434 -0.6383  0.0456
41116SOL    HW126625   0.859   0.676   5.961  0.3344 -0.8594 -0.4047
41116SOL    HW226626   0.919   0.814   5.947 -1.4934  0.3532  2.6237
41117SOL     OW26627   0.205   1.911   1.971 -0.5136 -0.1324 -0.1885
41117SOL    HW126628   0.212   1.821   1.940  0.8024  0.0726 -0.5426
41117SOL    HW226629   0.116   1.918   2.004 -0.0997 -2.1168  1.5737
41118SOL     OW26630   6.651   5.414   7.527 -0.3769 -0.5325  0.0826
41118SOL    HW126631   6.579   5.463   7.487 -0.4668 -0.9492 -0.2701
41118SOL    HW226632   6.639   5.426   7.621 -0.7805 -0.4206  0.0184
41119SOL     OW26633   6.174   2.034  10.324 -0.0895 -0.4460  0.4478
41119SOL    HW126634   6.267   2.054  10.334  0.1460 -1.1316 -0.2963
41119SOL    HW226635   6.161   2.025  10.230 -0.7094 -1.2807  0.6058
41120SOL     OW26636   2.515  10.574   8.067  0.4670 -0.0249  0.7656
41120SOL    HW126637   2.532  10.657   8.023  0.0649 -1.0681 -1.4932
41120SOL    HW226638   2.431  10.588   8.112  0.0851  0.6065 -0.1148
41121SOL     OW26639   3.919   8.742   3.205 -0.4242  0.4992 -0.0456
41121SOL    HW126640   3.983   8.793   3.254  0.7736  0.2274 -1.2636
41121SOL    HW226641   3.838   8.749   3.256 -0.0654  2.8246  0.2920
41122SOL     OW26642   6.200   6.788   0.896  0.2451  0.1598 -0.0783
41122SOL    HW126643   6.112   6.797   0.858 -0.1972 -2.1367  0.2598
41122SOL    HW226644   6.245   6.868   0.870 -1.4122  0.6466 -1.6987
41123SOL     OW26645   9.618   3.169   4.007 -0.3889  1.0789 -0.3111
41123SOL    HW126646   9.708   3.144   4.029 -0.1070  1.6117 -0.8244
41123SOL    HW226647   9.566   3.138   4.081 -0.0253 -0.6601 -0.7275
41124SOL     OW26648   3.330   4.802   4.620  0.1100 -0.3029 -0.1372
41124SOL    HW126649   3.418   4.836   4.634 -0.0735 -0.0588  0.4318
41124SOL    HW226650   3.340   4.707   4.621  0.3790 -0.2743 -0.1666
41125SOL     OW26651   9.516  10.475   1.667 -0.3289  0.1730  0.1940
41125SOL    HW126652   9.422  10.486   1.683 -0.1303  0.7592  1.0664
41125SOL    HW226653   9.522  10.414   1.595 -1.3726 -0.5458  0.6996
41126SOL     OW26654   8.354   6.576   7.522 -0.4913  0.2421 -0.0526
41126SOL    HW126655   8.268   6.620   7.528 -1.6842 -1.9511 -0.1581
41126SOL    HW226656   8.349   6.524   7.442  0.2272 -1.3228  0.8657
41127SOL     OW26657   7.262   0.898   6.658 -0.3203  0.1426 -0.2648
41127SOL    HW126658   7.234   0.960   6.725 -0.7197 -1.9215  1.6133
41127SOL    HW226659   7.182   0.852   6.633  0.2890 -1.1554  0.0907
41128SOL     OW26660   6.857   5.996   9.343 -0.3516  0.4007 -0.0560
41128SOL    HW126661   6.856   5.922   9.281 -0.5893  0.4162 -0.0713
41128SOL    HW226662   6.811   6.066   9.297 -0.5542  0.4036  0.1507
41129SOL     OW26663   9.254   5.497  10.424  0.2242  0.7950 -0.3614
41129SOL    HW126664   9.197   5.447  10.482 -0.2332  2.1807  0.4334
41129SOL    HW226665   9.235   5.462  10.336 -0.0516 -0.4168  0.1536
41130SOL     OW26666   4.361  11.234   2.796 -0.2158 -0.5838 -0.0624
41130SOL    HW126667   4.436  11.239   2.737 -0.7706  0.6202 -0.6833
41130SOL    HW226668   4.308  11.310   2.775 -0.1046  0.2927  2.4547
41131SOL     OW26669   4.268   1.797   5.614  0.1696 -0.0780 -0.4358
41131SOL    HW126670   4.310   1.844   5.542  0.1855  1.5830  0.6140
41131SOL    HW226671   4.295   1.844   5.693  1.3414 -2.7108  0.8569
41132SOL     OW26672   8.240   5.333   6.556  0.1947 -0.5144  0.4908
41132SOL    HW126673   8.328   5.367   6.542 -0.3385  0.9463  0.4375
41132SOL    HW226674   8.236   5.315   6.650  0.7747 -1.2919  0.3707
41133SOL     OW26675   8.934   0.597   8.018  0.1863 -0.0487  0.8128
41133SOL    HW126676   9.011   0.566   7.971 -0.6401 -2.4596  0.9346
41133SOL    HW226677   8.914   0.681   7.977  0.9801 -0.8797 -1.4182
41134SOL     OW26678   4.205   8.014   7.289  0.1318 -0.6489  0.0012
41134SOL    HW126679   4.252   8.095   7.267  1.7893 -1.5330  0.0733
41134SOL    HW226680   4.260   7.945   7.251 -1.0378 -1.7641  0.2962
41135SOL     OW26681   9.537   3.966   5.734 -0.1250  0.2251  0.5610
41135SOL    HW126682   9.496   3.994   5.653  3.5747 -0.3545 -1.7647
41135SOL    HW226683   9.482   3.895   5.766 -1.9648  0.8129 -1.0885
41136SOL     OW26684   0.477   5.008   5.309  0.2531 -0.0582  0.2981
41136SOL    HW126685   0.442   4.932   5.355 -1.0145  0.8756  0.9504
41136SOL    HW226686   0.447   5.083   5.360  0.2909  0.9440 -1.0826
41137SOL     OW26687  10.690   0.569   4.603  0.5091 -0.1280 -0.8652
41137SOL    HW126688  10.616   0.631   4.606 -0.2290 -1.0266  0.3050
41137SOL    HW226689  10.659   0.498   4.547  0.2034 -0.8305  0.1753
41138SOL     OW26690   3.233   7.137  11.035 -1.1121 -0.7207  0.1991
41138SOL    HW126691   3.266   7.076  11.100 -0.3107 -0.6328 -0.1121
41138SOL    HW226692   3.148   7.101  11.010 -0.7606 -1.5841  0.1976
41139SOL     OW26693   4.635   1.253   3.608 -0.1468 -0.5734  0.0574
41139SOL    HW126694   4.719   1.252   3.654 -0.6551  0.0158  1.0511
41139SOL    HW226695   4.658   1.243   3.516  1.1139  0.6858  0.1884
41140SOL     OW26696   3.123   6.741   8.800 -0.0530 -0.2506 -0.1002
41140SOL    HW126697   3.056   6.803   8.769 -1.2420 -0.4231  1.9326
41140SOL    HW226698   3.195   6.797   8.829  0.1587  0.0109 -1.1082
41141SOL     OW26699   7.034   0.583   5.115 -0.9627 -0.7942 -0.0523
41141SOL    HW126700   7.024   0.665   5.067 -0.4847  0.6748  2.2044
41141SOL    HW226701   7.002   0.516   5.055 -1.4670  1.0337 -1.9417
41142SOL     OW26702   4.721   0.342   3.145 -0.2408  0.1260  0.2389
41142SOL    HW126703   4.771   0.373   3.220 -0.5392 -1.0952  0.9765
41142SOL    HW226704   4.778   0.357   3.070  0.3685  0.6693  0.7959
41143SOL     OW26705   8.599   1.182   7.235  0.4177 -0.3638  0.3928
41143SOL    HW126706   8.536   1.218   7.173 -0.2617 -1.7243  0.2504
41143SOL    HW226707   8.652   1.257   7.263 -2.4055  1.2086  1.9108
41144SOL     OW26708   0.746  10.684   5.527  0.0637  0.1296 -0.1052
41144SOL    HW126709   0.816  10.712   5.585 -2.2873  1.1481  2.4894
41144SOL    HW226710   0.732  10.592   5.549  0.3255  0.0303 -0.3485
41145SOL     OW26711   6.813   8.677   1.272 -0.2877 -0.3116 -0.3876
41145SOL    HW126712   6.807   8.739   1.199 -1.1058 -2.0325 -1.8683
41145SOL    HW226713   6.749   8.609   1.251 -0.1103 -1.1805  1.6530
41146SOL     OW26714   1.158   6.938   2.360 -0.6329 -0.6329 -0.0237
41146SOL    HW126715   1.107   6.861   2.387  0.6741 -2.1137 -1.5196
41146SOL    HW226716   1.249   6.908   2.363 -0.2414 -0.0925 -3.3038
41147SOL     OW26717   0.483   3.300   1.834  0.3474  0.1267  0.9522
41147SOL    HW126718   0.450   3.375   1.785  1.9884  0.9459  1.0200
41147SOL    HW226719   0.423   3.229   1.814 -0.7582  1.2431  0.2077
41148SOL     OW26720   9.843   8.083  10.904  0.2521  0.0338 -0.2059
41148SOL    HW126721   9.872   8.089  10.813  6.4387 -0.7484  1.2988
41148SOL    HW226722   9.832   7.989  10.919 -1.1915  0.1906 -0.1581
41149SOL     OW26723  10.258   3.056   0.871  0.4227  0.3126  0.4959
41149SOL    HW126724  10.213   3.106   0.804 -1.3363 -1.4351  0.2567
41149SOL    HW226725  10.313   2.994   0.822 -1.0332 -1.1172  0.5498
41150SOL     OW26726   1.890   3.914   2.805 -0.3176 -0.4670  0.3150
41150SOL    HW126727   1.859   3.923   2.895  2.0732  0.5206  1.1333
41150SOL    HW226728   1.850   3.833   2.773 -0.4974 -1.3255  2.5883
41151SOL     OW26729   0.037   2.855   2.225  0.3991 -0.2204 -0.0951
41151SOL    HW126730  -0.036   2.891   2.275  0.8864 -0.3051  0.6806
41151SOL    HW226731   0.055   2.922   2.158  1.0108  0.8219  1.0577
41152SOL     OW26732   3.966   6.191   3.417  0.4580 -0.3950  0.2994
41152SOL    HW126733   3.988   6.231   3.501  0.3744  0.8301 -0.2309
41152SOL    HW226734   3.983   6.261   3.353 -0.5439 -0.9397 -0.5782
41153SOL     OW26735   2.032  11.395   3.592  0.5012 -0.2672  0.3832
41153SOL    HW126736   1.944  11.366   3.569  0.1084  0.5067  0.9003
41153SOL    HW226737   2.066  11.325   3.649 -0.3598  0.1521  1.4402
41154SOL     OW26738   9.236   3.105   9.320  0.3133  0.6507 -0.1776
41154SOL    HW126739   9.316   3.121   9.370  0.0583 -1.3352  0.9870
41154SOL    HW226740   9.267   3.069   9.237  0.7831 -3.8697  1.6631
41155SOL     OW26741   6.096   4.822  11.066 -0.2105  0.7481  0.2032
41155SOL    HW126742   6.122   4.904  11.025 -0.3645 -0.3672 -2.2609
41155SOL    HW226743   6.003   4.833  11.084 -0.4181  0.8424 -0.8700
41156SOL     OW26744   9.842   8.541   8.411  0.2098  0.0802 -0.2460
41156SOL    HW126745   9.796   8.606   8.357  0.3562  0.3878 -0.0019
41156SOL    HW226746   9.811   8.456   8.377 -3.5722  0.1838  2.3349
41157SOL     OW26747   2.300   3.997  11.169  0.2799  0.2834  0.0100
41157SOL    HW126748   2.296   3.966  11.078  2.8251 -0.4525  0.0459
41157SOL    HW226749   2.281   3.920  11.222  2.1004 -0.2027  0.0550
41158SOL     OW26750   7.365   2.507   7.964  0.1759  0.0271 -0.3148
41158SOL    HW126751   7.406   2.462   7.890 -0.4068  0.1438 -0.7155
41158SOL    HW226752   7.287   2.548   7.927  0.1383  0.4944  0.2642
41159SOL     OW26753   3.747   6.556   9.182  0.7493  0.0385  0.1943
41159SOL    HW126754   3.680   6.540   9.248 -0.3706  0.5261 -0.8007
41159SOL    HW226755   3.793   6.634   9.213 -0.3768  0.8200 -0.0465
41160SOL     OW26756  10.943   4.269  10.911 -0.0662 -0.3702 -0.6146
41160SOL    HW126757  10.890   4.247  10.987 -2.4158 -0.2291 -2.1048
41160SOL    HW226758  10.963   4.184  10.871  0.3102 -0.3864 -0.3959
41161SOL     OW26759   6.629   9.363   5.549  0.7445 -0.2707 -0.2507
41161SOL    HW126760   6.712   9.333   5.513 -0.1798 -5.1801  1.0226
41161SOL    HW226761   6.580   9.394   5.473  2.0766 -1.7194 -1.7644
41162SOL     OW26762   6.297   3.903  10.387  0.0114  0.3182  0.3022
41162SOL    HW126763   6.247   3.876  10.311  0.3351  0.5573  0.0010
41162SOL    HW226764   6.387   3.876  10.367  0.0332  0.0269  0.7712
41163SOL     OW26765  10.216   4.487   6.320  0.1931  0.3799 -0.3046
41163SOL    HW126766  10.305   4.509   6.294  0.5732 -1.6150 -0.8756
41163SOL    HW226767  10.226   4.414   6.381 -0.9681  1.5336  1.3652
41164SOL     OW26768   5.346   7.254   3.562  0.2629 -0.4700  0.1747
41164SOL    HW126769   5.291   7.227   3.489 -1.3440  1.1317  0.7288
41164SOL    HW226770   5.360   7.348   3.549 -0.4131 -0.0451  2.1027
41165SOL     OW26771   6.729   9.992   3.430 -0.1135 -0.4989 -0.2309
41165SOL    HW126772   6.741   9.973   3.337 -0.6349  1.3940 -0.7377
41165SOL    HW226773   6.665  10.063   3.432 -0.8035 -1.1095  1.6391
41166SOL     OW26774   4.861   9.168  11.386 -0.5098 -0.5181  0.0585
41166SOL    HW126775   4.833   9.082  11.356 -1.7402 -0.2913  0.5120
41166SOL    HW226776   4.836   9.228  11.315  0.0027 -0.4691 -0.0902
41167SOL     OW26777   5.469   3.329   3.948  0.2518  0.2655 -0.0568
41167SOL    HW126778   5.536   3.312   4.015  0.4942 -1.1840 -0.6223
41167SOL    HW226779   5.512   3.388   3.886  0.9210 -0.3854 -0.2387
41168SOL     OW26780   1.559   9.143   9.304  0.2043  0.1557  0.0615
41168SOL    HW126781   1.600   9.091   9.235  1.6868  2.5967 -1.0011
41168SOL    HW226782   1.542   9.080   9.374  2.3602 -1.6635 -0.9335
41169SOL     OW26783   8.520   2.750   3.624  0.1549 -0.1659  0.4717
41169SOL    HW126784   8.425   2.736   3.623  0.1101  0.0134  1.2568
41169SOL    HW226785   8.531   2.842   3.602  0.1569 -0.2229  0.2316
41170SOL     OW26786   1.852   5.336  10.702  0.3468  0.2380  0.0261
41170SOL    HW126787   1.912   5.341  10.777  2.4002 -0.3258 -1.5160
41170SOL    HW226788   1.886   5.265  10.648 -1.0153  0.7078 -1.5232
41171SOL     OW26789   6.360   0.687   3.516 -0.2673  0.2157 -0.0568
41171SOL    HW126790   6.453   0.682   3.495 -0.2716  2.1212 -0.7226
41171SOL    HW226791   6.346   0.618   3.580  1.4769 -0.4891 -0.3856
41172SOL     OW26792   7.952   3.557   2.936  0.5135 -0.0319 -0.2657
41172SOL    HW126793   7.946   3.580   2.843  2.2706 -0.3203 -0.4789
41172SOL    HW226794   8.034   3.509   2.944  0.0903 -0.5501  1.3416
41173SOL     OW26795   2.714   7.280   8.515  0.0415 -0.7071  0.0296
41173SOL    HW126796   2.793   7.274   8.461  0.2993  0.3102  0.2700
41173SOL    HW226797   2.662   7.203   8.491  1.7187 -2.1863  0.8737
41174SOL     OW26798   1.672   4.053   4.120  0.0118  0.2427  0.3564
41174SOL    HW126799   1.603   3.989   4.100  0.2665 -0.1533  0.7208
41174SOL    HW226800   1.724   4.057   4.040 -0.5452  0.6953  0.0056
41175SOL     OW26801   0.762   9.643  11.135 -0.4167 -0.3698  0.1679
41175SOL    HW126802   0.849   9.604  11.123 -0.4531  0.2439 -2.7463
41175SOL    HW226803   0.736   9.672  11.048 -3.8778 -1.1223  0.7958
41176SOL     OW26804   7.933  11.375  11.047 -0.7560 -0.1589 -0.5089
41176SOL    HW126805   7.988  11.300  11.029  1.5394  0.8411  1.8046
41176SOL    HW226806   7.979  11.449  11.007 -0.6851  0.5988  0.8981
41177SOL     OW26807   3.275   7.901   0.964  0.4322  0.0135 -0.6355
41177SOL    HW126808   3.196   7.948   0.937 -0.3726 -0.4095  0.8797
41177SOL    HW226809   3.338   7.970   0.984 -0.3430  0.4450  0.4114
41178SOL     OW26810   0.888   2.835   0.442 -1.0617 -0.1837  0.1131
41178SOL    HW126811   0.862   2.927   0.432  0.3510  0.1898 -0.3938
41178SOL    HW226812   0.984   2.837   0.436 -0.7895 -1.3779  2.7484
41179SOL     OW26813   7.180   8.197   2.686  0.8215  0.0130 -0.8393
41179SOL    HW126814   7.215   8.108   2.684  1.7266  0.3066  0.5270
41179SOL    HW226815   7.246   8.248   2.733  1.1363  1.7945 -3.0382
41180SOL     OW26816   1.752   5.687  10.982 -0.3347  0.2123  0.1274
41180SOL    HW126817   1.734   5.660  10.892  2.8495 -1.4448 -0.1604
41180SOL    HW226818   1.808   5.764  10.972  0.4192 -0.2601  0.6459
41181SOL     OW26819   6.970   9.400   2.058 -0.2443 -0.3923  0.0418
41181SOL    HW126820   6.965   9.493   2.034 -1.9285 -0.5715 -0.4273
41181SOL    HW226821   6.933   9.354   1.983  0.6498 -1.4549  0.2429
41182SOL     OW26822   0.822  11.025   4.029  0.0271  0.0084 -0.6336
41182SOL    HW126823   0.840  10.976   3.949 -0.3310 -1.6313  0.2267
41182SOL    HW226824   0.731  11.055   4.019  1.1489  3.2360 -2.4608
41183SOL     OW26825   5.598   7.103   0.485  0.0491 -0.2770 -0.2228
41183SOL    HW126826   5.511   7.113   0.446 -0.6918 -0.2458  1.3208
41183SOL    HW226827   5.589   7.027   0.543  1.2278 -0.6211 -0.4701
41184SOL     OW26828   0.470   6.566   5.391  0.5328 -0.7083 -0.0369
41184SOL    HW126829   0.391   6.542   5.439 -0.0190  0.8343 -0.0917
41184SOL    HW226830   0.542   6.539   5.447 -0.0783 -0.5992  0.8200
41185SOL     OW26831   1.722   7.053   9.554  0.2188  0.4170 -0.3557
41185SOL    HW126832   1.777   7.057   9.633  2.3626  0.6160 -1.7575
41185SOL    HW226833   1.640   7.094   9.580  0.3811 -0.6041  2.1101
41186SOL     OW26834  10.852   0.617   5.440  0.4722  0.0524 -0.4271
41186SOL    HW126835  10.935   0.595   5.397  0.3663 -1.1751 -0.0463
41186SOL    HW226836  10.786   0.597   5.375  0.4148  0.0145 -0.3568
41187SOL     OW26837   4.073   4.097   8.078  0.8874 -0.4736  0.3407
41187SOL    HW126838   4.158   4.140   8.072  0.3017  0.9620  1.7757
41187SOL    HW226839   4.053   4.071   7.987  4.1544 -3.6540  0.2863
41188SOL     OW26840   8.123   5.312   9.576  0.3003  0.2053 -0.3162
41188SOL    HW126841   8.146   5.404   9.594 -1.0241  0.6319 -0.6807
41188SOL    HW226842   8.059   5.317   9.504  0.2909 -1.0110 -0.4071
41189SOL     OW26843   8.134   0.632  11.161 -0.2102  0.3166  0.1867
41189SOL    HW126844   8.096   0.666  11.242 -0.3084  0.4721  0.0763
41189SOL    HW226845   8.115   0.539  11.162 -1.3774  0.5307 -0.2871
41190SOL     OW26846   7.563   1.823   4.235  0.3285  0.3160  0.3208
41190SOL    HW126847   7.514   1.835   4.316 -0.7974  0.4309 -0.3587
41190SOL    HW226848   7.497   1.805   4.169  1.2474 -0.0365 -0.5364
41191SOL     OW26849   4.701   6.852   2.054  0.3846  0.3034 -0.1559
41191SOL    HW126850   4.753   6.928   2.082  1.1811 -0.7457  1.3590
41191SOL    HW226851   4.637   6.840   2.124 -1.3931  1.0287 -1.5691
41192SOL     OW26852   2.306  10.748   6.486  0.6314  0.6263 -0.3088
41192SOL    HW126853   2.292  10.842   6.499  0.3879  0.3976  1.3006
41192SOL    HW226854   2.398  10.741   6.461  0.7107  1.2804 -0.2198
41193SOL     OW26855   9.691   6.436   9.217 -0.1963 -0.2732 -0.4267
41193SOL    HW126856   9.772   6.465   9.260  0.7745  0.2428 -2.4627
41193SOL    HW226857   9.709   6.346   9.190  1.1000  0.8118 -3.7570
41194SOL     OW26858   2.677   6.700   4.804  0.4716  0.4671  0.4777
41194SOL    HW126859   2.746   6.752   4.764  0.7114  0.2907  0.6559
41194SOL    HW226860   2.718   6.659   4.880  0.6002 -0.8389 -0.2587
41195SOL     OW26861   9.551   8.693   9.878 -0.4861  0.0014 -0.3229
41195SOL    HW126862   9.612   8.694   9.952 -0.4252  0.0276 -0.3730
41195SOL    HW226863   9.473   8.738   9.911 -0.7282 -0.6094 -0.0442
41196SOL     OW26864   8.413   5.025   7.817 -0.0465 -0.3183 -0.1363
41196SOL    HW126865   8.398   5.094   7.882 -0.9127 -0.1022 -0.5539
41196SOL    HW226866   8.450   5.072   7.742  0.1341 -0.4404 -0.1252
41197SOL     OW26867   2.196   6.506   3.938 -0.6701  0.1105 -0.2190
41197SOL    HW126868   2.244   6.477   3.861  0.7635  1.7260  0.0193
41197SOL    HW226869   2.156   6.589   3.912  0.4050  1.0357  0.9365
41198SOL     OW26870  10.591   9.859   8.835  0.1878 -0.1748 -0.1012
41198SOL    HW126871  10.547   9.861   8.921 -0.4214 -2.1924 -0.3131
41198SOL    HW226872  10.600   9.766   8.815  1.2888  0.2491 -1.7626
41199SOL     OW26873   4.316   6.122   9.496 -0.0523 -0.2326  0.4159
41199SOL    HW126874   4.339   6.098   9.586  0.0959 -0.5699  0.2921
41199SOL    HW226875   4.399   6.119   9.449 -0.2313 -0.7275  0.1233
41200SOL     OW26876   3.856   2.168   4.121 -0.6914  0.2889 -0.1719
41200SOL    HW126877   3.840   2.177   4.027 -0.8915 -1.0725 -0.2835
41200SOL    HW226878   3.775   2.130   4.156 -0.4140  0.2761  0.4688
41201SOL     OW26879   8.277   9.457   3.749 -0.0917  0.1623  0.1223
41201SOL    HW126880   8.230   9.452   3.832  0.1646 -0.3518  0.2380
41201SOL    HW226881   8.367   9.475   3.774  0.0041 -0.0911 -0.0364
41202SOL     OW26882   2.603   4.807   4.130  0.7020  0.2995 -0.2386
41202SOL    HW126883   2.642   4.742   4.188  2.0669  1.4046  0.1442
41202SOL    HW226884   2.674   4.832   4.071 -0.3654 -0.0030 -1.7033
41203SOL     OW26885   4.290   7.917   8.030 -0.3120  0.3710 -0.5794
41203SOL    HW126886   4.253   7.829   8.038  0.9073 -0.2027 -1.0292
41203SOL    HW226887   4.226   7.965   7.979 -1.1951 -0.1334  0.0247
41204SOL     OW26888   5.073   8.241   8.462 -0.4097  0.1827  0.3272
41204SOL    HW126889   5.035   8.173   8.518 -0.7627  0.4404  0.4033
41204SOL    HW226890   5.001   8.267   8.405  0.0024 -0.2266 -0.3903
41205SOL     OW26891   1.350   8.869   5.484 -0.5489 -0.1739 -0.3466
41205SOL    HW126892   1.331   8.876   5.577 -0.8505 -0.1891 -0.4077
41205SOL    HW226893   1.446   8.871   5.479 -0.5407  0.6866 -0.1018
41206SOL     OW26894   9.017   1.563   0.996 -0.5164  0.1163  1.1273
41206SOL    HW126895   9.102   1.522   0.980  0.2453  2.5216 -2.1535
41206SOL    HW226896   9.028   1.610   1.078  1.6545  0.9188  0.4550
41207SOL     OW26897   5.851   0.432   0.983 -0.5677 -0.2550  0.0974
41207SOL    HW126898   5.787   0.446   1.053 -1.0291 -1.2698 -0.1077
41207SOL    HW226899   5.799   0.404   0.908 -0.0008  0.1251 -0.4448
41208SOL     OW26900   6.816   7.082   0.940  0.4996 -0.2080  0.0314
41208SOL    HW126901   6.805   7.083   1.035 -0.9110  0.5976 -0.1132
41208SOL    HW226902   6.787   6.995   0.914 -1.6903  0.4323  0.1169
41209SOL     OW26903   1.553   2.467   5.955 -0.5889 -0.2539  0.0760
41209SOL    HW126904   1.622   2.401   5.953  1.1159  1.3910 -2.6022
41209SOL    HW226905   1.566   2.517   5.875 -3.2774  1.8536  0.8038
41210SOL     OW26906   8.686   1.062   0.477 -0.0046  0.2333  0.1248
41210SOL    HW126907   8.592   1.046   0.487  0.1512 -2.1008 -1.3653
41210SOL    HW226908   8.711   1.012   0.400  2.0419  2.8260 -1.0498
41211SOL     OW26909   0.275   9.814   3.685  0.4119 -0.0491  0.6868
41211SOL    HW126910   0.231   9.895   3.712 -0.6688  0.1159 -1.3686
41211SOL    HW226911   0.299   9.830   3.594  2.0427 -1.3104  0.8568
41212SOL     OW26912   2.976   7.864   3.119  0.2311 -0.4334  0.2734
41212SOL    HW126913   2.950   7.833   3.032  0.8900 -2.1154  0.6452
41212SOL    HW226914   2.904   7.922   3.146 -0.7099 -1.0761 -0.7599
41213SOL     OW26915   4.275   1.044   4.966 -0.1266 -0.2142  0.0562
41213SOL    HW126916   4.231   1.082   5.043  1.7388 -0.1841  1.1491
41213SOL    HW226917   4.255   0.951   4.971 -2.4958  0.1358 -1.1565
41214SOL     OW26918   6.638   7.603   4.921 -0.2285  0.4796 -0.5228
41214SOL    HW126919   6.589   7.531   4.960 -0.3769  1.6944  1.7061
41214SOL    HW226920   6.718   7.563   4.888 -0.0017 -0.6306  1.2416
41215SOL     OW26921   9.507   9.309   0.351  0.6592  0.8503 -0.2676
41215SOL    HW126922   9.567   9.238   0.372  0.3991  0.6122 -0.3114
41215SOL    HW226923   9.521   9.374   0.420 -0.8948 -0.3611  1.3067
41216SOL     OW26924   3.594   5.774  11.378  0.1351  0.1003  0.6584
41216SOL    HW126925   3.541   5.729  11.311  0.7920 -1.3239  1.0662
41216SOL    HW226926   3.677   5.727  11.378  0.0974 -0.0304  2.5720
41217SOL     OW26927   7.171   9.708   2.918  0.1165 -0.1120 -0.3393
41217SOL    HW126928   7.202   9.698   2.828  1.1901 -1.8951  0.1602
41217SOL    HW226929   7.230   9.773   2.956 -0.6918  1.0598 -1.0502
41218SOL     OW26930   6.464   9.481   5.326 -0.1103  0.4585 -0.1198
41218SOL    HW126931   6.427   9.431   5.254  1.1856  0.2964 -0.6931
41218SOL    HW226932   6.466   9.571   5.295 -1.4964  0.7452  0.5320
41219SOL     OW26933  10.825   4.460   2.057  0.0243  0.1054 -0.2565
41219SOL    HW126934  10.827   4.543   2.010 -0.8357 -0.5369 -1.4840
41219SOL    HW226935  10.885   4.473   2.131 -0.5315  2.0063 -0.0785
41220SOL     OW26936  10.366   6.949   2.164 -0.2169 -0.1914  0.5915
41220SOL    HW126937  10.332   6.942   2.075  0.8739 -2.3119  0.2697
41220SOL    HW226938  10.290   6.972   2.217 -0.9205  0.9665 -0.8449
41221SOL     OW26939   0.392   8.794   2.091  0.0370 -0.1145  0.4294
41221SOL    HW126940   0.341   8.865   2.130 -0.4697  1.0335 -2.1590
41221SOL    HW226941   0.327   8.730   2.063  0.2003  0.0861 -0.4337
41222SOL     OW26942   9.448   6.334   1.525 -0.2132  0.0613  0.1910
41222SOL    HW126943   9.504   6.307   1.452 -0.8850  1.2359 -0.7971
41222SOL    HW226944   9.509   6.357   1.595  0.4606 -0.7555 -0.1202
41223SOL     OW26945   4.868  11.015   4.591  0.1555 -0.1824 -0.2691
41223SOL    HW126946   4.885  11.097   4.637  0.3002  0.0482 -0.7225
41223SOL    HW226947   4.799  10.972   4.642  1.7150 -0.9128  1.3231
41224SOL     OW26948   5.031   1.220   9.250  0.3277 -0.1337 -0.1169
41224SOL    HW126949   5.012   1.308   9.217 -1.1765 -0.3085  0.2072
41224SOL    HW226950   5.045   1.232   9.344  1.1666 -0.1077 -0.2397
41225SOL     OW26951   7.994   0.373   6.933 -0.5016  0.7537  0.5638
41225SOL    HW126952   8.074   0.375   6.881 -2.0580  0.0708 -2.0295
41225SOL    HW226953   7.965   0.465   6.936 -1.0258  0.6567 -0.8900
41226SOL     OW26954   5.402   0.902   6.819 -0.3563 -0.0537  0.2457
41226SOL    HW126955   5.309   0.888   6.838 -0.8065  1.9102 -0.2697
41226SOL    HW226956   5.420   0.845   6.745 -1.1218 -0.5449  0.4268
41227SOL     OW26957   7.614   8.586  11.057 -0.1861 -0.8978 -0.1865
41227SOL    HW126958   7.639   8.604  10.966 -0.5385  2.4089  0.2527
41227SOL    HW226959   7.520   8.602  11.060 -0.0032  0.1166  0.9493
41228SOL     OW26960   5.086   0.539   6.414 -0.0779  0.3587  0.2780
41228SOL    HW126961   5.077   0.495   6.329 -0.0610 -0.2283  0.5729
41228SOL    HW226962   5.028   0.491   6.472  0.8903 -0.0781  0.9091
41229SOL     OW26963   0.327   0.930   3.687 -0.2603  0.3557  0.3080
41229SOL    HW126964   0.268   0.864   3.723 -0.9857  1.1664  0.6421
41229SOL    HW226965   0.343   0.901   3.597  0.3867 -0.8972  0.7986
41230SOL     OW26966   8.825  11.318   1.482 -0.4901  0.5394 -0.2884
41230SOL    HW126967   8.899  11.264   1.453  0.9859  1.4532  1.5593
41230SOL    HW226968   8.748  11.267   1.458  0.7922 -1.7247  0.0343
41231SOL     OW26969   9.727   0.166   7.735  0.3533 -0.8169  0.4415
41231SOL    HW126970   9.806   0.154   7.682  0.2424  2.9401 -0.8391
41231SOL    HW226971   9.753   0.228   7.803 -1.6289  1.3584 -0.6380
41232SOL     OW26972   4.521   0.890   0.536  0.0544 -0.0259  0.2955
41232SOL    HW126973   4.458   0.938   0.590  0.7196  0.9593  0.2265
41232SOL    HW226974   4.471   0.863   0.459 -0.3907  0.3852  0.4347
41233SOL     OW26975  11.352   2.612   1.273 -0.1553 -0.5834 -0.5372
41233SOL    HW126976  11.361   2.623   1.178 -0.6400  0.3234 -0.4920
41233SOL    HW226977  11.442   2.611   1.305  0.0198  1.6344 -0.7702
41234SOL     OW26978   0.555   2.155   0.766 -0.6488  0.2859 -0.0196
41234SOL    HW126979   0.609   2.079   0.743  1.9220  1.6712  0.9886
41234SOL    HW226980   0.572   2.169   0.859 -2.8901  0.7651  0.3735
41235SOL     OW26981   1.140   1.098   1.246  0.4343  0.1548 -0.3129
41235SOL    HW126982   1.165   1.030   1.184 -0.9842 -0.3260 -0.3979
41235SOL    HW226983   1.045   1.106   1.236  0.2079  0.2969  1.5346
41236SOL     OW26984   6.003   5.834   1.271 -0.1914 -0.3766 -0.3914
41236SOL    HW126985   5.971   5.783   1.345  0.7713 -1.9607 -1.0240
41236SOL    HW226986   6.008   5.924   1.304 -0.4590 -0.9345  1.2344
41237SOL     OW26987   8.321   0.877   8.680  0.0338  0.5053 -0.2336
41237SOL    HW126988   8.401   0.866   8.731 -0.2163 -0.2822 -0.0057
41237SOL    HW226989   8.341   0.842   8.594 -0.7489 -1.8585  0.4806
41238SOL     OW26990   1.127   6.427   8.060  0.5482  0.3106  0.0286
41238SOL    HW126991   1.082   6.509   8.037  1.3638  0.6024 -0.6019
41238SOL    HW226992   1.140   6.432   8.155  1.0248  1.1556 -0.0698
41239SOL     OW26993   6.597   5.288   5.378  0.2596 -0.3588 -0.0957
41239SOL    HW126994   6.628   5.363   5.430  1.3005 -0.1692 -0.9684
41239SOL    HW226995   6.672   5.265   5.322 -0.3299 -1.5327 -0.4219
41240SOL     OW26996   4.154  10.615   8.647 -0.2222  0.3235  0.4984
41240SOL    HW126997   4.088  10.682   8.630 -0.9200 -0.4118  0.2700
41240SOL    HW226998   4.237  10.659   8.629 -0.6839  1.0492  0.0870
41241SOL     OW26999   0.977   6.013   1.202 -0.2196 -0.3881  0.0570
41241SOL    HW127000   0.993   6.103   1.175  0.1805 -0.6918 -0.7403
41241SOL    HW227001   0.935   6.021   1.288 -2.0099  0.6182 -0.8680
41242SOL     OW27002   3.633   2.531   0.510  0.0964 -0.0794  0.2077
41242SOL    HW127003   3.541   2.542   0.533  0.1262  0.3243  0.1325
41242SOL    HW227004   3.681   2.556   0.589  0.1358 -0.5260  0.3283
41243SOL     OW27005   2.478  10.139   6.315  0.0060 -0.5751 -0.0339
41243SOL    HW127006   2.397  10.109   6.272 -1.1014 -0.1322  1.6152
41243SOL    HW227007   2.545  10.077   6.286 -1.2110 -1.7620 -0.4387
41244SOL     OW27008   1.361   5.743   2.771  0.0028 -0.1310 -0.0510
41244SOL    HW127009   1.447   5.702   2.778 -0.0613 -0.2039  0.3786
41244SOL    HW227010   1.304   5.673   2.739  0.1371 -0.0305 -0.5183
41245SOL     OW27011   0.405  10.785   4.644 -0.4572 -0.1026 -0.1733
41245SOL    HW127012   0.350  10.845   4.595 -0.9108 -0.0998  0.3356
41245SOL    HW227013   0.456  10.840   4.702 -0.8335 -0.1999  0.2541
41246SOL     OW27014   1.243  10.976   5.569 -0.1002 -0.2264  0.3508
41246SOL    HW127015   1.200  10.946   5.649 -1.8480  0.7908 -0.1508
41246SOL    HW227016   1.304  11.044   5.599  0.6309 -1.1498  0.9973
41247SOL     OW27017   3.781  10.979   4.542  0.3507 -0.2798  0.1378
41247SOL    HW127018   3.819  10.917   4.480  1.5076  1.4488 -0.9484
41247SOL    HW227019   3.694  10.997   4.507  0.4148 -0.4666 -0.1203
41248SOL     OW27020   5.355   7.942  10.972  0.8974  0.0565 -0.6149
41248SOL    HW127021   5.424   7.909  10.914 -0.0307 -0.2239 -1.5783
41248SOL    HW227022   5.274   7.902  10.939  0.0831  1.4196 -0.3371
41249SOL     OW27023   1.302  10.529   6.014  0.5520 -1.0639 -0.5807
41249SOL    HW127024   1.367  10.469   5.979  0.9296 -0.1403 -1.5292
41249SOL    HW227025   1.350  10.610   6.030 -0.6206  0.2225 -2.9634
41250SOL     OW27026   0.351   6.036   7.450  0.8132 -0.1797 -0.3438
41250SOL    HW127027   0.304   6.077   7.522  1.5497 -0.0409  0.0681
41250SOL    HW227028   0.317   5.947   7.446 -0.9304  0.4811 -1.3533
41251SOL     OW27029   6.569   2.751   8.996 -0.4431  0.2530  0.2623
41251SOL    HW127030   6.600   2.708   8.917 -0.3387 -0.5383  0.7292
41251SOL    HW227031   6.622   2.715   9.067 -2.0557 -0.7740  1.0075
41252SOL     OW27032   5.427   0.245  11.124  0.4978 -0.4577  0.1654
41252SOL    HW127033   5.472   0.286  11.051  3.2216 -1.3364  1.2498
41252SOL    HW227034   5.418   0.153  11.098 -2.2966 -0.0624 -0.7013
41253SOL     OW27035   9.244   9.344   3.145  0.3431 -0.2389 -0.6637
41253SOL    HW127036   9.175   9.384   3.198 -0.3897 -2.1865 -0.0929
41253SOL    HW227037   9.325   9.387   3.175 -0.4475  1.2759 -0.5776
41254SOL     OW27038   6.379   6.036  10.795 -0.1101 -0.1941 -0.3530
41254SOL    HW127039   6.425   5.997  10.721 -0.9265 -0.6866 -0.6136
41254SOL    HW227040   6.342   6.117  10.761  2.2837  1.3445  0.3977
41255SOL     OW27041   3.810   6.683   7.252 -0.3915  0.1414  0.9061
41255SOL    HW127042   3.830   6.633   7.331 -0.3021  0.9089  1.3719
41255SOL    HW227043   3.723   6.652   7.226  0.6649 -2.0873 -0.2556
41256SOL     OW27044  10.572   8.636   6.193 -0.0635  0.3988  1.0633
41256SOL    HW127045  10.547   8.633   6.285 -0.2468 -2.4341  1.0053
41256SOL    HW227046  10.667   8.631   6.193 -0.1442 -1.9912  1.1245
41257SOL     OW27047   6.352  10.791   5.647 -0.1940  0.2329  0.3393
41257SOL    HW127048   6.417  10.862   5.655  0.0960 -0.1672  2.0617
41257SOL    HW227049   6.286  10.812   5.713 -2.2448  0.9958 -1.8418
41258SOL     OW27050   0.136   2.540   7.011 -0.4171  0.1903  0.4739
41258SOL    HW127051   0.047   2.508   6.997 -0.2968 -0.7488  1.6516
41258SOL    HW227052   0.135   2.575   7.100 -0.1993  2.4271 -0.3301
41259SOL     OW27053   8.648   8.520   9.804  0.2143 -0.0339 -0.0113
41259SOL    HW127054   8.559   8.549   9.820  0.2168 -0.9008  1.7950
41259SOL    HW227055   8.642   8.425   9.794  1.0222 -0.2118  1.0134
41260SOL     OW27056   1.532   5.120   5.686  0.3115 -0.8591 -0.5280
41260SOL    HW127057   1.576   5.176   5.622  0.4168 -0.1187  0.1746
41260SOL    HW227058   1.601   5.061   5.717  1.0626  0.7707  1.1051
41261SOL     OW27059   9.885   0.581   5.849 -0.0757  0.2385  0.0825
41261SOL    HW127060   9.889   0.634   5.928  1.3268  1.4909 -0.7727
41261SOL    HW227061   9.885   0.645   5.777  2.0806 -0.8575 -1.0010
41262SOL     OW27062  11.203   6.036   5.631 -0.3253 -0.2523  0.0463
41262SOL    HW127063  11.287   6.075   5.655 -0.4421  0.1980 -0.2625
41262SOL    HW227064  11.143   6.110   5.623 -0.7543 -0.5721  0.2626
41263SOL     OW27065   5.801   8.545   9.780 -0.7416  0.5724  0.5719
41263SOL    HW127066   5.762   8.523   9.865 -0.7200  1.9944  0.9737
41263SOL    HW227067   5.800   8.640   9.777 -0.9617  0.5536 -1.1474
41264SOL     OW27068   3.982  11.197  10.827 -0.3222  0.1802 -0.0035
41264SOL    HW127069   4.069  11.233  10.810  0.3198 -1.8628 -1.3724
41264SOL    HW227070   3.989  11.159  10.915  0.4191 -0.5447 -0.3519
41265SOL     OW27071   4.716   4.573  10.755 -0.4609 -0.4490  0.3002
41265SOL    HW127072   4.653   4.608  10.692 -0.5549 -0.6919  0.2585
41265SOL    HW227073   4.664   4.552  10.833 -0.7333 -2.2053 -0.3094
41266SOL     OW27074   9.609   2.368   7.641 -0.5374  0.4930  0.3877
41266SOL    HW127075   9.585   2.295   7.584  0.8299 -0.7891  1.3877
41266SOL    HW227076   9.667   2.423   7.587  2.7992 -2.0016  1.1462
41267SOL     OW27077   1.654   0.355   9.330  1.0052  0.0595 -0.3556
41267SOL    HW127078   1.641   0.437   9.283  1.6484  1.0358  1.0879
41267SOL    HW227079   1.654   0.380   9.423 -1.9013 -1.9946  0.3394
41268SOL     OW27080   3.589   6.749   1.949  0.2068 -0.4244 -0.6313
41268SOL    HW127081   3.514   6.706   1.991 -0.1829 -0.8298 -1.6880
41268SOL    HW227082   3.558   6.837   1.928 -0.1311 -0.7156 -1.4161
41269SOL     OW27083   5.274   6.232   9.456  0.7598 -0.1605  1.0300
41269SOL    HW127084   5.362   6.266   9.441  0.2284  1.2617  1.0042
41269SOL    HW227085   5.256   6.176   9.380  0.6027  1.7642 -0.4228
41270SOL     OW27086   1.750   4.825   0.791  0.5299  0.2582  0.2754
41270SOL    HW127087   1.735   4.739   0.753  1.2618  0.1149  0.2973
41270SOL    HW227088   1.844   4.841   0.778  1.0457 -0.2156  2.8266
41271SOL     OW27089   5.263   8.476   0.068  0.7062  0.5960  0.6558
41271SOL    HW127090   5.207   8.540   0.025 -0.3705 -0.1768  0.8439
41271SOL    HW227091   5.232   8.475   0.159  2.9932  2.2688  1.5561
41272SOL     OW27092   2.848  10.993   0.034 -0.3923 -0.2271 -0.0352
41272SOL    HW127093   2.861  10.928   0.104 -0.7825 -0.5756 -0.2774
41272SOL    HW227094   2.765  11.035   0.055 -0.4151 -0.1964 -0.1825
41273SOL     OW27095   4.614   1.550   5.392  0.7116 -0.4139  0.0645
41273SOL    HW127096   4.685   1.592   5.440  1.2082  1.7780 -2.3573
41273SOL    HW227097   4.643   1.460   5.379  2.0228 -0.1486  1.0053
41274SOL     OW27098   0.515   3.398   8.336 -0.1798  0.0202  0.3234
41274SOL    HW127099   0.487   3.307   8.341 -0.9321  0.1934 -0.5141
41274SOL    HW227100   0.578   3.408   8.407  0.9699 -1.5215 -0.4187
41275SOL     OW27101   1.011   8.316   2.998  0.8297  0.0977 -0.1978
41275SOL    HW127102   1.055   8.355   2.922 -1.8919  0.0387 -1.9515
41275SOL    HW227103   0.922   8.301   2.968  0.2194 -2.0592  2.3340
41276SOL     OW27104   1.024   0.777   2.664  0.1988 -0.2410  0.5149
41276SOL    HW127105   1.116   0.801   2.654 -0.1687  0.5917 -1.3363
41276SOL    HW227106   0.990   0.841   2.726  0.7922 -0.3597  0.9740
41277SOL     OW27107   5.405   3.096   8.092  0.1481 -0.0623  0.0181
41277SOL    HW127108   5.373   3.172   8.141  0.8565  0.1745  0.1240
41277SOL    HW227109   5.330   3.069   8.039 -0.6996 -0.4202  1.3439
41278SOL     OW27110   5.179   5.235  10.015  0.7141  0.1733  0.3587
41278SOL    HW127111   5.234   5.311  10.035  0.5406  0.1132  1.0936
41278SOL    HW227112   5.164   5.193  10.099 -0.0893 -0.0613  0.1140
41279SOL     OW27113  10.843  10.400   8.075 -0.3840 -0.6197 -0.2362
41279SOL    HW127114  10.801  10.385   7.991  2.9869  1.6502 -2.6010
41279SOL    HW227115  10.846  10.495   8.083  2.0375 -0.7133  0.8803
41280SOL     OW27116   7.316  10.185   0.821 -0.5399 -0.4600  0.0850
41280SOL    HW127117   7.393  10.137   0.851 -0.3844 -0.7218 -0.6962
41280SOL    HW227118   7.244  10.151   0.872 -0.0323  0.3314  1.3829
41281SOL     OW27119   0.287  10.105   7.482  0.1028 -0.0649 -0.3733
41281SOL    HW127120   0.368  10.098   7.431 -0.8399  0.2741 -1.9853
41281SOL    HW227121   0.316  10.130   7.570  1.7769 -0.4843 -0.7711
41282SOL     OW27122   5.555   4.680   4.089  0.3900 -0.2221  1.1314
41282SOL    HW127123   5.609   4.675   4.169  0.0946 -1.6068  1.2585
41282SOL    HW227124   5.491   4.610   4.099  0.9019 -1.0088 -0.7301
41283SOL     OW27125   2.909   7.050  11.082  0.0517  0.6331 -0.3563
41283SOL    HW127126   2.949   6.967  11.056  1.1878  0.3799  1.9671
41283SOL    HW227127   2.929   7.109  11.010 -1.3902 -1.2129 -2.4013
41284SOL     OW27128   8.124   3.886   7.431  0.3436  0.6748  0.3839
41284SOL    HW127129   8.145   3.950   7.499  0.4561  0.9395  0.1048
41284SOL    HW227130   8.086   3.812   7.478  1.4848  0.3738  0.8430
41285SOL     OW27131   2.694   5.233   2.050 -0.4932  0.3194 -0.1685
41285SOL    HW127132   2.723   5.160   1.995 -0.5611  0.1543  0.0151
41285SOL    HW227133   2.652   5.191   2.125  2.4314  0.4330  1.6877
41286SOL     OW27134   6.792   9.306   8.062 -0.8017  0.4547  0.0748
41286SOL    HW127135   6.776   9.376   7.999 -1.0960  0.0319 -0.3260
41286SOL    HW227136   6.754   9.228   8.022 -1.9282  0.3770  1.2332
41287SOL     OW27137   8.245   0.323   5.828  0.4503  0.4630  0.0829
41287SOL    HW127138   8.202   0.268   5.893  0.7009  0.8847  0.6120
41287SOL    HW227139   8.339   0.312   5.845  0.9091 -3.1629 -3.1917
41288SOL     OW27140   7.421   1.668   6.040  1.2581  0.3930 -0.1512
41288SOL    HW127141   7.458   1.580   6.047  0.7958  0.2498  0.6137
41288SOL    HW227142   7.338   1.656   5.994 -0.8321 -0.2379  3.3842
41289SOL     OW27143   3.159   1.865   3.543 -0.2782 -0.5253  0.0762
41289SOL    HW127144   3.168   1.780   3.586 -0.9593  0.4510  2.3340
41289SOL    HW227145   3.068   1.867   3.512 -0.0883 -0.8240 -0.5230
41290SOL     OW27146   0.312   7.317   1.948 -0.3375 -0.2118 -0.1688
41290SOL    HW127147   0.313   7.236   1.897  0.9977 -0.5941  0.4076
41290SOL    HW227148   0.307   7.287   2.039  2.4821  0.2005  0.2005
41291SOL     OW27149   5.238   4.026   2.678 -0.6584  0.3250 -0.3718
41291SOL    HW127150   5.283   4.011   2.762 -2.4445 -0.0493  0.5711
41291SOL    HW227151   5.295   4.087   2.631  1.6177 -1.3152  0.0587
41292SOL     OW27152   5.586   7.709   6.243  0.3123  0.3706 -0.0614
41292SOL    HW127153   5.629   7.765   6.179  0.4202  0.5161  0.1375
41292SOL    HW227154   5.649   7.701   6.315  0.5625 -0.5201 -0.3594
41293SOL     OW27155   5.181   9.306   4.238  0.3777  0.0107 -0.5621
41293SOL    HW127156   5.182   9.360   4.158  0.6727  0.4995 -0.2363
41293SOL    HW227157   5.203   9.218   4.208  3.8557  0.7368 -0.6455
41294SOL     OW27158   5.758   9.967   2.487  0.0285  0.4624  0.3549
41294SOL    HW127159   5.784   9.913   2.562  1.6894 -1.5981 -1.5391
41294SOL    HW227160   5.841   9.999   2.451 -0.7391  1.5309 -0.5385
41295SOL     OW27161  11.055   8.475   7.162  0.1995  0.6487  0.2355
41295SOL    HW127162  11.085   8.450   7.075  0.9552 -0.3648  0.7693
41295SOL    HW227163  10.960   8.465   7.158  0.2451  0.4324 -0.4096
41296SOL     OW27164   1.270   2.517   8.736  0.2312  0.5709  0.2990
41296SOL    HW127165   1.331   2.553   8.672 -0.5231 -0.5201 -1.0905
41296SOL    HW227166   1.223   2.593   8.770 -0.4452  1.0575 -1.6119
41297SOL     OW27167  11.052   7.402   5.855 -0.1982 -0.8217  0.2532
41297SOL    HW127168  11.096   7.406   5.770 -1.3936 -1.3118 -0.4055
41297SOL    HW227169  10.961   7.425   5.836 -0.9384 -2.8672  1.0310
41298SOL     OW27170   6.321   3.918   6.747 -0.2664  0.4488  0.0508
41298SOL    HW127171   6.250   3.908   6.683 -0.1364 -0.9543  0.0854
41298SOL    HW227172   6.341   3.828   6.774  1.5551  0.8010  0.0029
41299SOL     OW27173   0.670   7.688   6.196  0.1950 -0.3143  0.4041
41299SOL    HW127174   0.692   7.673   6.104 -1.6132 -2.3113  0.2272
41299SOL    HW227175   0.665   7.783   6.204  0.1121 -0.1003 -1.6175
41300SOL     OW27176  10.953   9.558   6.644  0.2641  0.2167  0.0457
41300SOL    HW127177  11.035   9.600   6.672 -0.4807  1.5624  0.3260
41300SOL    HW227178  10.973   9.465   6.641  1.8778  0.5433 -0.1424
41301SOL     OW27179   0.527   6.278   3.456  0.3356  0.2345 -0.3367
41301SOL    HW127180   0.563   6.197   3.493  0.6969  1.1748  1.4959
41301SOL    HW227181   0.454   6.301   3.514  0.1732  1.1581 -0.8815
41302SOL     OW27182   0.369   5.663   6.233 -0.2779 -0.1780 -0.0486
41302SOL    HW127183   0.389   5.642   6.324  1.8416  0.3208 -0.3476
41302SOL    HW227184   0.453   5.658   6.188 -1.2935 -0.6058 -2.0452
41303SOL     OW27185   6.504   0.072   0.287  0.4497  0.1208 -0.2412
41303SOL    HW127186   6.419   0.029   0.286  0.1658  0.6805 -0.3210
41303SOL    HW227187   6.491   0.151   0.339  1.4757 -0.9016  1.7099
41304SOL     OW27188   0.100   5.785   2.533 -0.2147 -0.1144 -0.3821
41304SOL    HW127189   0.114   5.695   2.506 -0.3625  0.1344 -1.3439
41304SOL    HW227190   0.187   5.820   2.549  0.0012  0.1505 -2.0043
41305SOL     OW27191   6.121   9.594   5.218 -0.3447  0.3299  0.6306
41305SOL    HW127192   6.060   9.552   5.279 -0.3818  0.6937  0.8490
41305SOL    HW227193   6.146   9.525   5.157 -0.3602 -0.0202  1.0176
41306SOL     OW27194   8.430   1.085   5.484  0.3976  0.6513 -0.1798
41306SOL    HW127195   8.466   1.058   5.569 -1.9924  1.8859  1.3245
41306SOL    HW227196   8.352   1.135   5.506 -0.0880  1.3585 -3.1405
41307SOL     OW27197   8.951   7.848   5.819  0.4988 -0.4527  0.2827
41307SOL    HW127198   9.001   7.856   5.738 -0.6196 -1.2353 -0.4988
41307SOL    HW227199   8.911   7.761   5.815  0.2668 -0.4315  1.5844
41308SOL     OW27200   2.427   0.787   1.125 -0.3831  0.2584  0.0469
41308SOL    HW127201   2.362   0.719   1.104 -0.2794  0.3302 -0.5153
41308SOL    HW227202   2.484   0.790   1.049  0.6554 -0.2262  0.7889
41309SOL     OW27203   5.321   5.528   0.998 -0.1227  0.0370  0.6734
41309SOL    HW127204   5.323   5.550   0.905  1.2198 -2.7403 -0.0771
41309SOL    HW227205   5.357   5.605   1.042  0.6394  0.8595 -1.2684
41310SOL     OW27206   0.657   7.551   0.286  0.4493  0.1864  0.0751
41310SOL    HW127207   0.594   7.592   0.344  1.1490  2.4315 -0.6545
41310SOL    HW227208   0.718   7.506   0.344  0.0443  0.7567  0.9593
41311SOL     OW27209   6.710   3.078   4.672  0.1028 -0.2298 -0.0116
41311SOL    HW127210   6.761   3.017   4.725  0.1415 -1.8064 -1.7776
41311SOL    HW227211   6.653   3.023   4.619 -0.2443  1.2956 -1.3149
41312SOL     OW27212   8.163   7.203   6.577  0.5659  0.8664 -0.1103
41312SOL    HW127213   8.245   7.154   6.573  0.3932  0.5205  0.3666
41312SOL    HW227214   8.182   7.288   6.538  1.3321  1.0385  0.6192
41313SOL     OW27215   2.608   9.367   4.481 -0.3944 -0.5011  0.0764
41313SOL    HW127216   2.663   9.443   4.460 -1.0262  0.1027  0.5404
41313SOL    HW227217   2.630   9.345   4.571  0.3918 -1.4038 -0.3321
41314SOL     OW27218   3.441   1.771   3.486 -0.2446  1.0069  0.8007
41314SOL    HW127219   3.415   1.785   3.577 -0.4150 -0.8527  1.0747
41314SOL    HW227220   3.459   1.677   3.480  0.8162  1.2692 -0.8274
41315SOL     OW27221   9.948   5.393   1.364  0.5994 -0.2827 -0.3589
41315SOL    HW127222   9.878   5.458   1.353  1.6780  0.7066 -1.7276
41315SOL    HW227223   9.934   5.357   1.451  0.8922  2.9709  1.1788
41316SOL     OW27224   3.426   9.590   1.930 -1.0294  0.0325 -0.5063
41316SOL    HW127225   3.374   9.531   1.985 -3.7017  0.1962 -2.6449
41316SOL    HW227226   3.443   9.666   1.986 -1.6121 -0.7637  0.8071
41317SOL     OW27227   8.485   7.543  10.238  0.1408  0.4750 -0.1873
41317SOL    HW127228   8.426   7.468  10.247  0.4913 -0.0326 -1.7264
41317SOL    HW227229   8.428   7.619  10.236 -0.3904  0.0715 -0.6896
41318SOL     OW27230   1.885   9.770   3.842  0.3569  0.0736 -0.1010
41318SOL    HW127231   1.805   9.801   3.799  0.2594  1.5493  1.0421
41318SOL    HW227232   1.954   9.782   3.777  0.0019  0.9530 -0.3264
41319SOL     OW27233   5.657   9.456  10.437  0.2547  0.3797 -0.1183
41319SOL    HW127234   5.595   9.405  10.490 -0.4102 -1.7919 -2.7692
41319SOL    HW227235   5.742   9.417  10.457  0.3408  1.1257  1.0364
41320SOL     OW27236   3.253   2.769   0.117  0.1106 -0.4239 -0.2529
41320SOL    HW127237   3.220   2.851   0.080  0.2784 -0.2819 -0.0933
41320SOL    HW227238   3.303   2.729   0.046 -1.1873 -1.1121 -0.8165
41321SOL     OW27239   4.395   7.147   6.905 -0.6994 -0.3339  0.1688
41321SOL    HW127240   4.464   7.163   6.841 -0.4904 -0.4593  0.3590
41321SOL    HW227241   4.392   7.052   6.914 -0.2872 -0.2980  0.8087
41322SOL     OW27242   0.203   4.323  10.547  0.7996 -0.4524 -0.5110
41322SOL    HW127243   0.123   4.327  10.599  0.5000  0.6745 -1.0085
41322SOL    HW227244   0.221   4.415  10.525  0.8448 -0.8768 -2.4538
41323SOL     OW27245   2.242   3.976   2.256  0.2441 -0.0059 -0.2163
41323SOL    HW127246   2.298   3.938   2.188  0.1296 -0.8810  0.1582
41323SOL    HW227247   2.257   3.921   2.333 -0.0386  0.6398  0.3062
41324SOL     OW27248   8.337   8.770   3.700 -0.3921 -0.3353 -0.7664
41324SOL    HW127249   8.398   8.760   3.627  0.1431  0.0723 -0.3766
41324SOL    HW227250   8.297   8.683   3.709  0.1335 -0.6119 -1.0136
41325SOL     OW27251   7.313   3.431   8.095 -0.2239 -0.2903 -0.4689
41325SOL    HW127252   7.279   3.411   8.182  0.7914 -1.1188 -0.2403
41325SOL    HW227253   7.391   3.376   8.086  0.4774  0.7858 -1.3608
41326SOL     OW27254   3.302   8.153   5.187 -0.1200  0.7546  0.0709
41326SOL    HW127255   3.227   8.191   5.143 -0.0832  1.2773  0.4533
41326SOL    HW227256   3.264   8.098   5.256 -0.2496 -1.6755 -1.8246
41327SOL     OW27257   4.987   3.888  10.944 -0.5339 -0.2354 -0.6001
41327SOL    HW127258   4.942   3.919  11.023  0.4251 -0.6348  0.1239
41327SOL    HW227259   4.943   3.933  10.872  1.1403  3.3942  0.3774
41328SOL     OW27260  10.233   5.928   7.765 -0.0942 -0.2844  0.6603
41328SOL    HW127261  10.154   5.880   7.742 -1.4801  2.8041 -1.7360
41328SOL    HW227262  10.208   5.983   7.839 -0.0259  0.2631  0.2832
41329SOL     OW27263   0.603  10.035   2.957  0.0129 -0.1355  0.0918
41329SOL    HW127264   0.673  10.101   2.946  0.7354 -0.7458  0.9305
41329SOL    HW227265   0.634   9.960   2.906  0.2818 -0.6316  0.9667
41330SOL     OW27266   3.493   4.962   9.151 -0.0390  0.8167  0.0926
41330SOL    HW127267   3.558   5.030   9.132 -0.9144  1.9347  0.9934
41330SOL    HW227268   3.417   5.010   9.184  0.3277 -0.7306  3.5803
41331SOL     OW27269   8.292   6.035   0.321  0.3390 -0.1198 -0.6995
41331SOL    HW127270   8.253   5.950   0.341  1.1543 -0.7340 -1.5732
41331SOL    HW227271   8.296   6.037   0.225  0.5995  0.7848 -0.6803
41332SOL     OW27272   3.588   3.263   1.551  0.5684  0.2231  0.3052
41332SOL    HW127273   3.557   3.350   1.524  0.3893  0.7065  1.9961
41332SOL    HW227274   3.660   3.244   1.491  0.0792  1.1683 -0.6220
41333SOL     OW27275   2.735  11.088   5.241 -0.1257 -0.5673  0.0594
41333SOL    HW127276   2.809  11.074   5.183 -0.2949  0.4019 -0.4108
41333SOL    HW227277   2.663  11.039   5.201 -0.0186 -0.6012 -0.0900
41334SOL     OW27278   7.303   5.813   7.696 -0.8169 -0.1739 -0.1337
41334SOL    HW127279   7.280   5.721   7.700 -1.7332 -0.0773 -1.9129
41334SOL    HW227280   7.362   5.820   7.621  0.1220  0.5343  0.6453
41335SOL     OW27281   6.798   3.012   8.707  0.2727  0.2728 -0.7109
41335SOL    HW127282   6.855   2.959   8.651 -0.5364 -0.9239 -0.4209
41335SOL    HW227283   6.847   3.022   8.789  0.4761  0.0719 -0.8065
41336SOL     OW27284  10.856   9.931   5.349  0.0554 -0.6670  0.1022
41336SOL    HW127285  10.815   9.872   5.285  0.3740  0.3147 -1.0357
41336SOL    HW227286  10.830  10.019   5.322  0.5994 -0.1989  1.0378
41337SOL     OW27287   2.162   9.512   1.582 -0.2988  0.1649  0.1103
41337SOL    HW127288   2.206   9.517   1.498  2.2842  0.7228  1.3992
41337SOL    HW227289   2.070   9.529   1.562  0.1020 -0.4716 -2.6565
41338SOL     OW27290   1.055   0.505   3.267  0.4570  0.4597 -0.3816
41338SOL    HW127291   1.013   0.483   3.349 -1.3068  1.0708 -1.0738
41338SOL    HW227292   1.045   0.427   3.212  2.5449 -0.3382  0.2595
41339SOL     OW27293   0.535  10.048  10.730  0.1771 -0.4920  0.1655
41339SOL    HW127294   0.469  10.045  10.660 -0.2237  1.9056  0.3809
41339SOL    HW227295   0.536  10.139  10.759  0.4092 -1.3547  3.2432
41340SOL     OW27296   1.333   9.930   9.711 -0.6962 -0.0361 -0.9337
41340SOL    HW127297   1.294  10.003   9.759 -0.9217  0.0091 -1.1819
41340SOL    HW227298   1.416   9.913   9.756 -1.8092 -1.3387  0.7704
41341SOL     OW27299   9.776   6.863   4.349  0.0303 -0.6566  0.0913
41341SOL    HW127300   9.852   6.845   4.405  0.3160  1.5409  0.5102
41341SOL    HW227301   9.812   6.916   4.278 -0.7636 -1.4590 -0.9406
41342SOL     OW27302   4.004   3.625   9.469 -0.1870  0.1356  0.5747
41342SOL    HW127303   3.939   3.675   9.420 -1.5281 -0.7370  1.3543
41342SOL    HW227304   3.953   3.553   9.507  1.4251 -1.0898  0.5008
41343SOL     OW27305   6.966   4.816   0.537 -0.3050  0.2448 -0.0788
41343SOL    HW127306   6.957   4.832   0.631  1.8145  1.0110  0.0474
41343SOL    HW227307   6.936   4.897   0.496 -2.3057 -0.4949 -0.1643
41344SOL     OW27308   8.394   3.007   7.467 -0.1896  0.0811  0.2206
41344SOL    HW127309   8.425   2.918   7.485  0.9091  0.4656  0.2993
41344SOL    HW227310   8.350   3.001   7.383  0.5780 -0.3862 -0.1554
41345SOL     OW27311   3.065   4.488   3.156  0.5082  0.1174 -0.3914
41345SOL    HW127312   3.041   4.458   3.244  2.4987  0.8191  0.4593
41345SOL    HW227313   3.113   4.415   3.117 -0.7737 -0.3654 -1.1051
41346SOL     OW27314   2.877   6.040   7.825 -0.1372  0.1161 -0.5535
41346SOL    HW127315   2.973   6.050   7.828 -0.1565  0.4461 -0.9266
41346SOL    HW227316   2.863   5.968   7.763 -0.1140 -0.2979 -0.0870
41347SOL     OW27317   1.014   5.064   2.044  0.0079  0.2528  0.0656
41347SOL    HW127318   1.080   5.084   1.978  1.6093 -1.0078  1.2125
41347SOL    HW227319   0.975   4.981   2.014  1.3364 -0.7755  1.0859
41348SOL     OW27320   8.525   1.047   7.917  0.4706 -0.1812  0.3357
41348SOL    HW127321   8.491   1.063   7.828  1.1687  0.1252  0.1196
41348SOL    HW227322   8.614   1.081   7.915  0.0854  0.9642  1.5342
41349SOL     OW27323  10.788   5.988   6.713  0.1796 -0.4584 -0.4176
41349SOL    HW127324  10.859   5.950   6.766  2.3559  3.1536 -0.4044
41349SOL    HW227325  10.803   5.953   6.625  0.2746 -1.7931  0.1003
41350SOL     OW27326   3.009  11.388   6.118  0.0478  0.3455 -0.4323
41350SOL    HW127327   2.935  11.402   6.177  0.3221 -1.3677  0.3731
41350SOL    HW227328   2.985  11.312   6.066  1.2247 -0.2236 -0.1790
41351SOL     OW27329   6.278   8.864   1.792  0.0249 -0.3229 -0.1335
41351SOL    HW127330   6.308   8.953   1.773 -1.5159  0.6890  1.7936
41351SOL    HW227331   6.244   8.832   1.708 -0.5729  1.4116 -0.5990
41352SOL     OW27332   7.715   6.159   0.209 -0.3672 -0.2555 -0.3417
41352SOL    HW127333   7.805   6.126   0.201  0.7076  2.2639  0.1599
41352SOL    HW227334   7.665   6.085   0.242  1.7378 -1.4761  0.3190
41353SOL     OW27335   2.280   7.929   5.851  0.5039  0.0926 -0.1706
41353SOL    HW127336   2.363   7.916   5.806  0.3072 -0.0410 -0.4952
41353SOL    HW227337   2.295   7.893   5.939  0.5743 -0.5665 -0.4440
41354SOL     OW27338   7.340   9.881   3.058  0.5704 -0.5524 -0.2365
41354SOL    HW127339   7.344   9.872   3.153 -2.0000  0.8161  0.1013
41354SOL    HW227340   7.361   9.973   3.041  2.7568 -1.1648 -1.2308
41355SOL     OW27341   4.138   6.575   3.883  0.2403 -0.0511  0.0641
41355SOL    HW127342   4.156   6.661   3.845  1.3941 -0.9185 -1.4254
41355SOL    HW227343   4.048   6.582   3.916  0.6129  1.9922  0.8026
41356SOL     OW27344   9.236   7.598   2.082  0.4439 -0.2075 -0.6532
41356SOL    HW127345   9.176   7.529   2.109 -0.3939  0.4083 -0.8669
41356SOL    HW227346   9.180   7.662   2.037  1.2134  0.5301 -0.5985
41357SOL     OW27347   5.702   9.127  10.741 -0.3320  0.4945 -0.1595
41357SOL    HW127348   5.763   9.113  10.668 -0.9745 -0.5953 -0.5168
41357SOL    HW227349   5.757   9.122  10.819 -0.0116 -1.0478 -0.4405
41358SOL     OW27350   0.746   0.890  10.347 -0.2498 -0.2918 -1.0760
41358SOL    HW127351   0.798   0.891  10.267 -0.5082 -0.7772 -1.2516
41358SOL    HW227352   0.655   0.882  10.317 -0.6385  2.4133 -0.8645
41359SOL     OW27353   7.504   5.608   3.420  0.0140  0.0816  0.0246
41359SOL    HW127354   7.579   5.662   3.398  0.7621 -0.2132  1.7010
41359SOL    HW227355   7.430   5.669   3.419  0.4876  0.6623 -0.2747
41360SOL     OW27356   2.898   6.703   1.318 -0.1008 -0.0504  0.0051
41360SOL    HW127357   2.814   6.656   1.316 -0.1963  0.0707  0.8653
41360SOL    HW227358   2.889   6.765   1.391  0.3456  0.7057 -0.5695
41361SOL     OW27359   3.208   3.002   2.336  0.1443 -0.7278 -0.0470
41361SOL    HW127360   3.268   3.064   2.378  0.0454  0.9557 -2.2082
41361SOL    HW227361   3.132   2.998   2.394  0.8762 -0.1645  0.9825
41362SOL     OW27362   6.151   7.204   5.960 -0.7972  0.0398  0.0841
41362SOL    HW127363   6.214   7.132   5.950  0.0030  0.7120  0.2390
41362SOL    HW227364   6.202   7.283   5.944 -1.4890  0.6233  0.7106
41363SOL     OW27365   2.897   1.716   2.804 -0.8749 -0.4462 -0.4085
41363SOL    HW127366   2.963   1.674   2.860 -0.2983 -0.5669 -1.1643
41363SOL    HW227367   2.853   1.643   2.761 -1.6032 -0.3720  0.1837
41364SOL     OW27368   8.017   4.244   8.753  0.8424 -0.1053  0.4240
41364SOL    HW127369   8.108   4.266   8.773  0.7891  0.5596 -0.0418
41364SOL    HW227370   7.973   4.328   8.741  0.4547 -0.4308 -0.6049
41365SOL     OW27371   1.911   4.459   3.288 -0.5145 -0.2613  0.1559
41365SOL    HW127372   1.873   4.532   3.240 -1.5479 -0.9605 -0.1197
41365SOL    HW227373   1.957   4.500   3.361  2.1400  0.9359 -1.9975
41366SOL     OW27374  10.221   1.961   0.174  0.4945  0.2178 -0.3217
41366SOL    HW127375  10.238   1.871   0.146  1.4652  0.6541 -1.2521
41366SOL    HW227376  10.136   1.983   0.136  0.9543  0.1818 -1.3995
41367SOL     OW27377  10.509  11.312  10.148 -0.7105 -0.7736 -0.2214
41367SOL    HW127378  10.601  11.333  10.137 -1.1929  1.3872 -0.5182
41367SOL    HW227379  10.471  11.322  10.061 -1.7660  1.4927  0.4275
41368SOL     OW27380   2.528   6.591   1.942 -1.0522 -0.2550 -0.4824
41368SOL    HW127381   2.438   6.574   1.967 -0.9229 -0.3131 -0.0527
41368SOL    HW227382   2.581   6.543   2.006 -0.7254 -2.1396 -2.0602
41369SOL     OW27383   4.486   7.232  10.463 -0.6423  0.3880  0.0608
41369SOL    HW127384   4.573   7.251  10.428 -0.6164 -0.7070 -0.4989
41369SOL    HW227385   4.485   7.137  10.474 -1.2547  0.5422  1.4590
41370SOL     OW27386   1.048   2.387   5.479  0.0039  0.0742 -0.5179
41370SOL    HW127387   1.123   2.333   5.456 -0.4258 -0.9175  0.3172
41370SOL    HW227388   0.974   2.344   5.437 -0.4513 -0.4625  0.7550
41371SOL     OW27389   3.458   7.431   8.467  0.2487 -0.0806  0.5199
41371SOL    HW127390   3.533   7.400   8.415 -0.0790  0.3105 -0.2047
41371SOL    HW227391   3.411   7.491   8.408  0.2200  0.8811  1.4825
41372SOL     OW27392  10.261   0.791   8.840 -0.2922  0.3671 -0.0299
41372SOL    HW127393  10.340   0.839   8.867 -1.2929  1.6799  0.7105
41372SOL    HW227394  10.260   0.714   8.897  0.2255  0.5711  0.2668
41373SOL     OW27395   9.771   9.789   9.936  0.1005 -0.3133 -0.1287
41373SOL    HW127396   9.866   9.799   9.944 -0.1816  1.1978  2.3996
41373SOL    HW227397   9.750   9.711   9.986 -0.1418  0.3130  0.7592
41374SOL     OW27398   5.684  11.152   7.495  0.2037  0.0976  0.2024
41374SOL    HW127399   5.589  11.156   7.509 -0.1274 -1.1015 -1.4369
41374SOL    HW227400   5.715  11.091   7.562 -0.1698  0.5250  0.7729
41375SOL     OW27401   4.902  10.834   9.404  0.2642  0.2092  0.0660
41375SOL    HW127402   4.944  10.825   9.319 -0.0092  1.6869 -0.2537
41375SOL    HW227403   4.886  10.928   9.413 -2.0666 -0.1726  0.5860
41376SOL     OW27404   7.605   2.089   8.215  0.4627  0.1883  0.1794
41376SOL    HW127405   7.574   2.005   8.247 -0.5458  0.8708  1.0803
41376SOL    HW227406   7.691   2.071   8.177 -0.2597 -1.4507 -0.7421
41377SOL     OW27407   8.230   2.782   8.142 -0.2976 -0.1111 -0.0435
41377SOL    HW127408   8.147   2.749   8.176  0.2463 -0.6779  0.7598
41377SOL    HW227409   8.226   2.877   8.158 -0.1005 -0.3401  1.5688
41378SOL     OW27410   4.450   9.642  10.074  0.7142  0.3891  0.2945
41378SOL    HW127411   4.464   9.683  10.159  0.2312  0.0171  0.5604
41378SOL    HW227412   4.512   9.685  10.015  2.1917 -0.4861  1.1792
41379SOL     OW27413   3.295   2.626   3.348  0.3195  0.3480  0.0729
41379SOL    HW127414   3.207   2.635   3.382 -0.5838 -0.7870 -1.7960
41379SOL    HW227415   3.305   2.533   3.329  2.1569  0.3492  0.7694
41380SOL     OW27416   5.099   3.570   8.902  0.6111 -0.1653 -0.6328
41380SOL    HW127417   5.075   3.521   8.981 -0.1164  0.8074 -0.2398
41380SOL    HW227418   5.054   3.654   8.911  2.4052  0.8832 -0.9421
41381SOL     OW27419   4.017  11.066   9.153 -0.2686  0.1029 -0.0770
41381SOL    HW127420   4.017  11.058   9.248 -1.4819 -0.3847 -0.0973
41381SOL    HW227421   3.987  10.981   9.121  0.2641  0.2155 -0.9053
41382SOL     OW27422   7.889   1.200   2.648 -0.2759 -0.3340 -0.2576
41382SOL    HW127423   7.931   1.204   2.563  1.1565  0.2927  0.4530
41382SOL    HW227424   7.889   1.107   2.671  1.7357 -0.2702  0.1808
41383SOL     OW27425   9.672   5.189   7.884 -0.4549  0.0700 -1.5296
41383SOL    HW127426   9.732   5.257   7.853  0.1358  0.1861 -0.1681
41383SOL    HW227427   9.710   5.108   7.851  1.8073 -0.1219  1.1471
41384SOL     OW27428   4.524   1.763  10.001  0.6227  0.4609 -0.2879
41384SOL    HW127429   4.606   1.725  10.030 -1.0518 -2.3593  1.2585
41384SOL    HW227430   4.518   1.847  10.045  1.6840 -0.3136  1.4004
41385SOL     OW27431   0.601  10.293  10.773  0.2063 -0.0320  0.1335
41385SOL    HW127432   0.682  10.329  10.738  0.5627  0.4691  1.4112
41385SOL    HW227433   0.582  10.347  10.850 -1.3964 -0.0711 -0.1911
41386SOL     OW27434   4.057   6.541  10.450 -0.0599  0.2220 -0.1225
41386SOL    HW127435   4.049   6.600  10.525  1.1004  1.7898 -1.1738
41386SOL    HW227436   4.000   6.578  10.383 -0.4353 -0.6880 -0.3261
41387SOL     OW27437   3.112   7.024   0.835 -0.5547  0.1119  0.2235
41387SOL    HW127438   3.169   7.022   0.758 -0.0167  0.3047  0.6145
41387SOL    HW227439   3.101   7.117   0.854 -0.9355  0.0731  0.2012
41388SOL     OW27440   4.080   8.516   4.460  0.1727 -0.2111 -0.6802
41388SOL    HW127441   4.123   8.498   4.543  2.0764 -1.7329 -1.8908
41388SOL    HW227442   4.043   8.431   4.433 -0.4078  0.2532 -1.3927
41389SOL     OW27443   8.507   5.392   6.557 -0.5207 -0.1706 -0.0472
41389SOL    HW127444   8.580   5.437   6.601 -1.2039  0.9745 -0.0473
41389SOL    HW227445   8.549   5.340   6.488  0.4861 -1.2908  1.3577
41390SOL     OW27446   6.107   5.324  10.647 -0.0349 -0.0133 -0.2793
41390SOL    HW127447   6.161   5.249  10.668 -1.0593 -0.5976  0.3780
41390SOL    HW227448   6.119   5.384  10.720 -1.1955 -0.6888  0.5038
41391SOL     OW27449  11.101   0.550   9.632 -0.3166 -0.1988  0.2472
41391SOL    HW127450  11.046   0.627   9.650 -0.7167 -0.1815 -0.9970
41391SOL    HW227451  11.105   0.504   9.716  1.3533  2.0399  1.4894
41392SOL     OW27452   6.164   2.089   5.950 -0.5663  0.0627  0.5162
41392SOL    HW127453   6.179   2.066   6.042  0.4958 -0.0510  0.3323
41392SOL    HW227454   6.252   2.096   5.913 -0.9730  0.5279 -0.3925
41393SOL     OW27455   1.959   3.950   8.007  0.2109  0.3932  0.2048
41393SOL    HW127456   1.953   4.029   7.953 -1.5068  2.6008  3.3096
41393SOL    HW227457   1.890   3.892   7.973  1.0996  0.3654 -1.7282
41394SOL     OW27458   8.233  10.423   1.740  0.2078 -0.3055  0.4278
41394SOL    HW127459   8.325  10.449   1.738 -0.2202  1.2947 -0.0369
41394SOL    HW227460   8.210  10.409   1.648 -0.5175  1.3462  0.3166
41395SOL     OW27461   4.795  11.293   0.559 -0.0161 -0.1280 -0.1170
41395SOL    HW127462   4.756  11.297   0.471  0.2287  1.7714 -0.1677
41395SOL    HW227463   4.879  11.249   0.546  1.0221  2.0518 -1.2655
41396SOL     OW27464   7.150   7.309   9.790 -0.2082 -0.1175 -0.6458
41396SOL    HW127465   7.110   7.225   9.812  1.0426 -0.6430 -0.2569
41396SOL    HW227466   7.143   7.360   9.871 -1.3184  0.3213 -0.9978
41397SOL     OW27467   4.971   4.277   2.016 -0.4253  0.6418  0.3018
41397SOL    HW127468   5.023   4.237   2.085 -1.5130  0.9096  1.3188
41397SOL    HW227469   5.030   4.342   1.976 -0.0983  1.2363  1.6949
41398SOL     OW27470   4.603   4.177  10.970 -0.1892  0.0806 -0.2443
41398SOL    HW127471   4.586   4.152  10.879  1.8990  1.2876 -1.0379
41398SOL    HW227472   4.597   4.273  10.970 -1.0522  0.0529  1.1215
41399SOL     OW27473   0.213   1.040   9.625  0.1848 -0.1260  0.3146
41399SOL    HW127474   0.141   0.992   9.667  0.6609 -0.7448  0.4440
41399SOL    HW227475   0.259   0.973   9.573  0.0241  0.4867 -0.6306
41400SOL     OW27476   0.994   4.838   6.057  0.5525 -0.2665  0.0190
41400SOL    HW127477   0.989   4.746   6.083 -1.8395 -0.2398 -0.0702
41400SOL    HW227478   0.943   4.843   5.976  0.5517  1.1501  0.0732
41401SOL     OW27479   8.467   3.830   0.597 -0.4437 -0.4574 -0.0075
41401SOL    HW127480   8.378   3.800   0.581 -0.5860 -0.5444  0.9234
41401SOL    HW227481   8.498   3.860   0.511 -1.4734 -0.1202 -0.2691
41402SOL     OW27482   2.657   4.463  11.175 -0.2869 -0.1181  0.4072
41402SOL    HW127483   2.737   4.427  11.138 -0.3894  1.4622 -1.5372
41402SOL    HW227484   2.612   4.503  11.100 -2.3424  0.0244  1.6427
41403SOL     OW27485   3.914  10.272   1.910 -0.0444  0.1814  0.2081
41403SOL    HW127486   3.826  10.234   1.899  0.1300  0.3497 -2.5203
41403SOL    HW227487   3.899  10.367   1.911  0.0165  0.1837  0.8520
41404SOL     OW27488  10.654   0.124   6.453 -0.5408  0.5670 -0.7894
41404SOL    HW127489  10.707   0.097   6.378 -0.2090  1.4085 -0.8677
41404SOL    HW227490  10.605   0.045   6.477  1.2365 -0.4314 -0.2905
41405SOL     OW27491   2.500   4.450   0.020 -0.4919 -0.0476  0.2064
41405SOL    HW127492   2.552   4.377   0.053 -0.8463 -0.5506 -0.3331
41405SOL    HW227493   2.433   4.464   0.087 -0.2104  0.0108  0.4761
41406SOL     OW27494  10.627   8.593   7.054  0.1647 -0.2329  0.5445
41406SOL    HW127495  10.537   8.620   7.035  0.1952 -0.7653 -0.4253
41406SOL    HW227496  10.621   8.548   7.139 -0.1224  1.4640  1.4559
41407SOL     OW27497   4.741   3.941   0.211 -0.0067 -0.0749 -0.9302
41407SOL    HW127498   4.739   3.914   0.303 -1.2981  1.0620 -0.6029
41407SOL    HW227499   4.793   4.021   0.211 -0.2250  0.0654 -1.1632
41408SOL     OW27500   8.312   8.053   7.623  0.0474 -0.0856 -0.3595
41408SOL    HW127501   8.301   7.988   7.554 -1.4539  0.0161 -0.2418
41408SOL    HW227502   8.224   8.069   7.656  0.6279  0.4838  1.0247
41409SOL     OW27503   6.091   8.057   3.120 -0.2418  0.2783 -0.6433
41409SOL    HW127504   6.036   8.098   3.054 -0.7453  0.1759 -0.2956
41409SOL    HW227505   6.091   7.964   3.097  1.4565  0.5305 -1.8344
41410SOL     OW27506   9.518   6.282   8.643 -0.1063  0.4339  0.0221
41410SOL    HW127507   9.534   6.231   8.723  0.0588 -0.1112 -0.3489
41410SOL    HW227508   9.604   6.317   8.620 -0.4084  1.7716  0.8572
41411SOL     OW27509   8.274  10.928   7.509  0.0847 -0.0839  0.3086
41411SOL    HW127510   8.193  10.975   7.531 -0.3609 -0.5660 -0.2642
41411SOL    HW227511   8.298  10.960   7.422 -0.2526 -0.9257 -0.1140
41412SOL     OW27512   2.709   7.974   3.177 -0.2087  0.2132  0.7906
41412SOL    HW127513   2.699   8.069   3.182  0.1650  0.2389  1.0688
41412SOL    HW227514   2.638   7.940   3.231  0.9302  0.3880  2.4845
41413SOL     OW27515  10.746  11.159   7.709  0.1414 -0.3508 -0.0639
41413SOL    HW127516  10.821  11.107   7.681  0.9963  0.5779  0.4305
41413SOL    HW227517  10.764  11.178   7.802 -2.1724 -2.6328  0.9876
41414SOL     OW27518   3.199   7.410   6.370  0.2983  0.2356  0.4531
41414SOL    HW127519   3.200   7.320   6.403  1.7788 -0.7848 -2.0670
41414SOL    HW227520   3.109   7.423   6.341 -0.4096  0.3043  2.4947
41415SOL     OW27521   6.127   4.944   2.491  0.2906 -0.2821 -0.1688
41415SOL    HW127522   6.084   4.890   2.557  0.1256 -0.6359 -0.5624
41415SOL    HW227523   6.115   4.896   2.409  0.8847 -0.0672 -0.3857
41416SOL     OW27524   3.162   9.460  10.422 -0.3797 -0.0644 -0.2744
41416SOL    HW127525   3.174   9.545  10.380 -0.6898  0.9149  1.5530
41416SOL    HW227526   3.174   9.477  10.515 -1.8849 -1.7482  0.2809
41417SOL     OW27527   0.092   7.268  10.277 -0.2058  0.0937 -0.4126
41417SOL    HW127528   0.159   7.322  10.235 -2.3620  1.5587 -2.2037
41417SOL    HW227529   0.083   7.305  10.365  2.7990 -1.5809  0.7442
41418SOL     OW27530   5.682   5.629   6.549 -0.4533 -0.0452 -0.3078
41418SOL    HW127531   5.665   5.536   6.563 -0.7321  0.3153  2.1230
41418SOL    HW227532   5.775   5.640   6.572 -0.6221  0.4070  0.1548
41419SOL     OW27533   0.149   8.187   2.740  0.2632 -0.1588 -0.0134
41419SOL    HW127534   0.087   8.115   2.751 -0.0117 -0.0449 -0.7291
41419SOL    HW227535   0.162   8.221   2.828 -0.4572 -0.3802  0.1919
41420SOL     OW27536   2.291  10.034   1.223 -0.4617  0.0001 -0.0541
41420SOL    HW127537   2.277  10.123   1.189 -0.5306 -0.4306 -1.2214
41420SOL    HW227538   2.215   9.985   1.193  0.2413 -0.7665 -0.6160
41421SOL     OW27539   9.148   6.979   2.124  0.1458  0.2781 -0.2986
41421SOL    HW127540   9.184   6.893   2.142  1.2060  0.7295 -0.1949
41421SOL    HW227541   9.217   7.026   2.077  0.4430  1.7396  1.4267
41422SOL     OW27542   5.349   6.116  10.649  0.4492 -0.0104  0.0019
41422SOL    HW127543   5.254   6.107  10.647  0.2519  1.7285  0.2492
41422SOL    HW227544   5.369   6.146  10.737  1.4601 -2.1739  0.5813
41423SOL     OW27545   0.350  10.352   9.976  0.3893 -0.1045  0.0845
41423SOL    HW127546   0.400  10.422  10.017  1.4970 -0.9725  0.2616
41423SOL    HW227547   0.411  10.311   9.915 -0.5394 -0.2959 -0.7424
41424SOL     OW27548   1.375   6.816   0.514  0.1982  0.3869 -0.0428
41424SOL    HW127549   1.437   6.889   0.510  3.0698 -1.9077 -1.7635
41424SOL    HW227550   1.336   6.813   0.426  0.4449 -0.3716 -0.1344
41425SOL     OW27551   4.872   3.393   4.243 -0.1498  0.2578  0.3008
41425SOL    HW127552   4.781   3.372   4.223 -0.5605  1.5808  0.6670
41425SOL    HW227553   4.923   3.330   4.193 -1.2554  0.0697 -0.6250
41426SOL     OW27554   6.298   6.752  10.541  0.1134  0.0092  0.0921
41426SOL    HW127555   6.322   6.660  10.554  0.1627 -0.2655 -1.7077
41426SOL    HW227556   6.202   6.752  10.538  0.1314 -0.1622 -0.9022
41427SOL     OW27557   6.014   4.298   6.036  0.5245  0.2111 -0.2628
41427SOL    HW127558   6.033   4.227   5.974  1.2369 -1.3968  1.7107
41427SOL    HW227559   6.096   4.347   6.042  0.4719  0.3340 -0.5187
41428SOL     OW27560   7.170   2.247   6.838 -0.1230 -0.4864 -0.6360
41428SOL    HW127561   7.214   2.193   6.772 -1.2085 -1.0690 -0.9037
41428SOL    HW227562   7.127   2.316   6.787  0.9638  0.4697 -0.3249
41429SOL     OW27563   3.948  10.616   6.410 -0.4094 -0.1075 -0.4025
41429SOL    HW127564   3.925  10.527   6.385  0.0718 -0.2609 -0.3259
41429SOL    HW227565   3.903  10.672   6.347 -0.3484 -0.4267 -0.7308
41430SOL     OW27566   9.190   4.187   1.867 -0.5363 -0.0856  0.1887
41430SOL    HW127567   9.201   4.144   1.952  0.5243 -1.1510 -0.4578
41430SOL    HW227568   9.107   4.153   1.834 -1.4806  1.1171  1.2086
41431SOL     OW27569   2.239   9.413   7.703  0.4340  0.0939 -0.3896
41431SOL    HW127570   2.183   9.336   7.715 -0.2977  0.4067 -1.5714
41431SOL    HW227571   2.278   9.428   7.789  0.9222 -1.8347 -0.2170
41432SOL     OW27572   3.664   1.283   1.874 -0.1633 -0.5628 -0.4406
41432SOL    HW127573   3.644   1.276   1.781 -1.6654 -1.4554 -0.0892
41432SOL    HW227574   3.674   1.377   1.890 -2.1382 -0.2108 -1.0893
41433SOL     OW27575   3.476   9.212   3.465  0.0017  0.2474 -0.5620
41433SOL    HW127576   3.529   9.160   3.404  2.3078  1.5759  0.1801
41433SOL    HW227577   3.501   9.181   3.551 -0.0947  1.1897 -0.1775
41434SOL     OW27578   6.495   6.331   9.140 -0.2392 -0.0455 -0.1468
41434SOL    HW127579   6.421   6.330   9.201 -0.4825 -0.4674 -0.4504
41434SOL    HW227580   6.564   6.378   9.188 -1.3596  2.2949 -0.6582
41435SOL     OW27581   4.683   7.672   4.302  0.3274  0.7885 -0.0381
41435SOL    HW127582   4.653   7.734   4.236 -0.1137  0.5013 -0.1162
41435SOL    HW227583   4.752   7.719   4.350 -0.3331  1.5244  0.2219
41436SOL     OW27584   0.300   2.553   2.825  0.0576 -0.4312  0.5313
41436SOL    HW127585   0.324   2.639   2.862 -2.0778  0.2380  0.4803
41436SOL    HW227586   0.230   2.522   2.882 -0.9635 -0.9441 -0.9474
41437SOL     OW27587   2.164  10.534   8.539  0.3724  0.0208 -0.3730
41437SOL    HW127588   2.244  10.581   8.516  1.1186 -1.1934 -0.3358
41437SOL    HW227589   2.141  10.485   8.460  0.6022 -0.9129  0.1282
41438SOL     OW27590   9.386   0.715   9.745  0.0839 -0.2001  0.2735
41438SOL    HW127591   9.343   0.747   9.825 -0.8742  0.1217 -0.3485
41438SOL    HW227592   9.379   0.620   9.750 -0.7105 -0.1569  0.2012
41439SOL     OW27593   8.845   4.828   9.594 -0.4340  0.3763 -0.0557
41439SOL    HW127594   8.845   4.921   9.617 -0.1161  0.3710 -0.0184
41439SOL    HW227595   8.797   4.824   9.511 -0.1196  0.6315 -0.2600
41440SOL     OW27596  10.768   8.740   3.036  0.0651  0.2675 -0.0526
41440SOL    HW127597  10.759   8.785   3.120 -3.0177  1.2019 -0.7559
41440SOL    HW227598  10.764   8.647   3.057  1.1300  0.4194  0.9376
41441SOL     OW27599   5.811   5.785   7.680 -0.1768 -0.2577 -0.1555
41441SOL    HW127600   5.838   5.865   7.635  0.1410  0.0380  0.5522
41441SOL    HW227601   5.762   5.815   7.757  0.3672 -0.7238  0.3867
41442SOL     OW27602  10.781   6.301   2.058 -0.1778  0.1827  0.2329
41442SOL    HW127603  10.803   6.227   2.115 -1.5597  0.0500  0.6378
41442SOL    HW227604  10.687   6.291   2.042  0.3363 -0.3957 -2.9782
41443SOL     OW27605   0.888   4.873  10.968  0.0003  0.2008  0.1943
41443SOL    HW127606   0.826   4.938  10.936 -0.4526 -1.1714 -1.9002
41443SOL    HW227607   0.840   4.826  11.036  0.3780  2.0459  1.8240
41444SOL     OW27608   5.188   8.993   6.779  0.7728 -0.3625  0.1931
41444SOL    HW127609   5.103   8.951   6.790  1.6858 -2.4458 -0.3135
41444SOL    HW227610   5.167   9.085   6.760 -1.2946 -0.5769  1.1716
41445SOL     OW27611   7.162   5.899  11.108 -0.1438  0.1645 -0.1102
41445SOL    HW127612   7.176   5.904  11.013  0.6992  1.0973  0.0496
41445SOL    HW227613   7.250   5.898  11.145 -0.4717  0.5505  0.6982
41446SOL     OW27614   2.874   1.412   9.105 -0.1873  0.6088 -0.1988
41446SOL    HW127615   2.838   1.498   9.083 -0.8933  0.0221 -1.4145
41446SOL    HW227616   2.807   1.371   9.160 -0.1367  0.5881 -0.1526
41447SOL     OW27617   0.090   8.207   0.200  0.3551  0.0890  0.0198
41447SOL    HW127618   0.146   8.278   0.168  0.3692  0.3614  0.6288
41447SOL    HW227619   0.044   8.245   0.275  1.4356 -0.9452  1.2695
41448SOL     OW27620  10.088  10.203   1.069 -0.3688  0.1450  0.3884
41448SOL    HW127621  10.076  10.205   0.974 -0.1560  1.0393  0.3752
41448SOL    HW227622  10.167  10.151   1.081 -1.0103 -0.9197  0.1520
41449SOL     OW27623   7.661   3.010   8.124 -0.1466 -0.2501 -0.3570
41449SOL    HW127624   7.648   2.981   8.215 -0.9754 -1.9923 -0.9819
41449SOL    HW227625   7.729   2.953   8.090 -2.3239 -2.1481 -1.8401
41450SOL     OW27626  10.360   0.068   8.349 -0.3776  0.2120 -0.3717
41450SOL    HW127627  10.376   0.129   8.421  0.9479 -1.0715  0.4845
41450SOL    HW227628  10.435   0.009   8.351 -1.3778 -1.1664 -1.4669
41451SOL     OW27629   6.401   6.440   4.578  0.3208  0.5386 -0.2073
41451SOL    HW127630   6.351   6.457   4.498 -1.5638 -0.7716  0.6034
41451SOL    HW227631   6.466   6.375   4.552 -0.9496 -0.6613 -0.5060
41452SOL     OW27632   3.650   9.271   5.383  0.0575  0.7411  0.2191
41452SOL    HW127633   3.669   9.188   5.428  2.5319 -0.5941 -2.8524
41452SOL    HW227634   3.567   9.255   5.337  0.8696 -0.4077 -0.9278
41453SOL     OW27635   6.045  11.283  10.477  0.1719 -0.0987  0.2412
41453SOL    HW127636   6.003  11.220  10.537  0.5798 -1.0526 -0.4602
41453SOL    HW227637   6.097  11.229  10.418  0.1434  0.8709 -0.6896
41454SOL     OW27638  11.034   7.224   3.783  0.1102 -0.2901  0.3614
41454SOL    HW127639  11.101   7.292   3.787  0.9211 -1.1001  3.4237
41454SOL    HW227640  10.968   7.250   3.848 -1.2114 -0.8490 -0.7021
41455SOL     OW27641   3.635   0.546  10.725  0.1591  0.7516 -0.6133
41455SOL    HW127642   3.587   0.616  10.769 -0.0142  0.2480  0.0016
41455SOL    HW227643   3.682   0.501  10.795  0.2709  0.2514 -1.0021
41456SOL     OW27644   1.267   7.983   8.181 -0.0553 -0.1765 -0.7205
41456SOL    HW127645   1.275   7.946   8.269  1.8405  0.7389 -0.4542
41456SOL    HW227646   1.176   7.967   8.157 -1.3586  1.6482  2.3625
41457SOL     OW27647   2.819   8.230   7.628  0.4292 -0.1309  0.0466
41457SOL    HW127648   2.831   8.292   7.701  1.8481  0.4448 -0.6428
41457SOL    HW227649   2.724   8.225   7.617  0.0868 -1.1480  2.6832
41458SOL     OW27650   1.029   6.158   6.398  0.0201  0.1030  0.1781
41458SOL    HW127651   0.990   6.139   6.483  0.2864  1.6019  0.6723
41458SOL    HW227652   1.124   6.151   6.414  0.0460 -0.8214 -0.3211
41459SOL     OW27653   2.482   9.974   4.053 -0.2259 -0.1640  0.5142
41459SOL    HW127654   2.566  10.009   4.021  0.1967 -2.3231 -0.9689
41459SOL    HW227655   2.416  10.033   4.017  0.5919  1.1790  1.1410
41460SOL     OW27656   1.226   4.308   5.949 -0.0322 -0.0846 -0.0200
41460SOL    HW127657   1.187   4.365   5.882  0.5952 -0.8728 -1.0700
41460SOL    HW227658   1.194   4.344   6.032  0.5093  1.9368 -0.6311
41461SOL     OW27659   8.018   2.935   8.732  0.3054  0.0776 -0.2833
41461SOL    HW127660   8.071   3.011   8.757 -0.7413  0.6676  0.2085
41461SOL    HW227661   8.033   2.872   8.802  1.1574 -0.1692 -0.6783
41462SOL     OW27662   1.305  10.578   5.641  0.1414  0.7091  0.3452
41462SOL    HW127663   1.391  10.617   5.627  0.0929  0.9068  0.5867
41462SOL    HW227664   1.323  10.496   5.686  0.4867 -1.1068 -2.8543
41463SOL     OW27665   6.810   5.816   0.225 -0.5165  0.2101 -0.2661
41463SOL    HW127666   6.786   5.895   0.176 -0.0726 -0.8628 -2.3463
41463SOL    HW227667   6.727   5.781   0.256 -1.0733 -0.0807 -1.9603
41464SOL     OW27668   3.359   6.615   5.655  0.1804 -0.5704  0.5816
41464SOL    HW127669   3.267   6.639   5.660  0.4346  0.5522  0.1783
41464SOL    HW227670   3.376   6.607   5.561  0.8658  0.8468  0.5549
41465SOL     OW27671  10.211   9.304   6.712 -0.7364  0.2121  0.6619
41465SOL    HW127672  10.276   9.338   6.651  0.9568  0.2128  2.3668
41465SOL    HW227673  10.258   9.236   6.761 -1.6775  0.9186  2.6419
41466SOL     OW27674   4.178   1.605   6.608  0.4007 -0.2524  0.2060
41466SOL    HW127675   4.092   1.645   6.595  0.9771  1.1208  0.3984
41466SOL    HW227676   4.183   1.536   6.542 -0.1632  0.8056 -0.9886
41467SOL     OW27677   5.229   2.806   5.731  0.4487 -0.2829 -0.1626
41467SOL    HW127678   5.149   2.825   5.682  0.2818  1.7070  0.7993
41467SOL    HW227679   5.198   2.773   5.815  0.6183  0.3464  0.1542
41468SOL     OW27680   6.506   7.431   5.265 -0.0804 -0.1063  0.1616
41468SOL    HW127681   6.478   7.385   5.344  1.4294 -0.5371  0.4694
41468SOL    HW227682   6.595   7.400   5.249 -0.8361 -1.1969 -2.5759
41469SOL     OW27683   0.651   1.282   2.975  0.6776 -0.3076 -0.2876
41469SOL    HW127684   0.653   1.375   2.952 -0.8052  0.0919  1.0423
41469SOL    HW227685   0.580   1.245   2.923  0.7142 -0.5164 -0.1929
41470SOL     OW27686   6.099   8.701   4.111  0.1786 -0.2708 -0.4168
41470SOL    HW127687   6.026   8.737   4.161 -0.8166 -1.7262 -0.7489
41470SOL    HW227688   6.177   8.725   4.161 -0.5850  0.5225  0.4376
41471SOL     OW27689   7.818   8.517   5.331  0.2472 -0.5986 -0.1399
41471SOL    HW127690   7.877   8.493   5.402  2.1330  0.7961 -1.1730
41471SOL    HW227691   7.746   8.454   5.338  2.1937 -2.8646  0.7110
41472SOL     OW27692   7.598   1.852   5.898  0.4008  0.9768 -0.7192
41472SOL    HW127693   7.561   1.940   5.892 -0.9901  0.4252 -0.6355
41472SOL    HW227694   7.536   1.797   5.851  0.1610 -0.2544  0.9586
41473SOL     OW27695   5.051   3.563  10.390 -0.1684  0.3851  0.6487
41473SOL    HW127696   5.081   3.644  10.348 -3.0300  1.8418  1.1529
41473SOL    HW227697   5.037   3.586  10.481 -1.2607 -0.5979  0.7592
41474SOL     OW27698   4.829   4.703   3.958  0.5918 -0.1424  0.7167
41474SOL    HW127699   4.855   4.618   3.995  0.7827 -2.0030 -3.2028
41474SOL    HW227700   4.734   4.705   3.966  0.7178  0.3111  2.6428
41475SOL     OW27701  10.746   2.869   0.153  0.0613 -0.1077 -0.2434
41475SOL    HW127702  10.777   2.785   0.119 -0.8363 -0.6174  0.1665
41475SOL    HW227703  10.718   2.849   0.243 -0.6301  0.5270 -0.3161
41476SOL     OW27704   0.538   7.813   4.913  0.3710 -0.1457 -0.1433
41476SOL    HW127705   0.533   7.867   4.834  1.5019  0.9172  0.4703
41476SOL    HW227706   0.531   7.875   4.985  1.6153 -0.8047  0.5885
41477SOL     OW27707   4.417   0.892   6.838 -0.9420  0.6120 -0.3957
41477SOL    HW127708   4.457   0.839   6.769 -1.9558 -0.1311 -0.4365
41477SOL    HW227709   4.489   0.943   6.874  0.7202 -2.6957  1.4445
41478SOL     OW27710   5.609   9.716  10.396 -0.0315  0.5437 -0.0395
41478SOL    HW127711   5.645   9.629  10.416  0.5746  0.8537  0.2534
41478SOL    HW227712   5.535   9.726  10.455 -1.7312 -0.7922 -1.7829
41479SOL     OW27713   2.969   4.199   1.308  0.0550  0.4273 -0.7474
41479SOL    HW127714   2.904   4.264   1.335 -0.3278 -0.1875 -0.1582
41479SOL    HW227715   2.944   4.175   1.219  0.1126  0.9766 -0.9130
41480SOL     OW27716   9.409   9.039  10.487  0.3885  0.0275  0.0094
41480SOL    HW127717   9.454   9.120  10.464  0.8658 -0.2768 -0.1337
41480SOL    HW227718   9.438   9.020  10.576 -0.7680  0.7268  0.5515
41481SOL     OW27719   7.978   2.293   8.187  0.0725 -0.2009 -0.1342
41481SOL    HW127720   7.916   2.310   8.257 -0.4715  0.8806 -0.8428
41481SOL    HW227721   8.061   2.274   8.231 -0.4393 -0.3059  0.7938
41482SOL     OW27722   1.282   0.644   7.780  0.2277 -0.0160 -1.0645
41482SOL    HW127723   1.332   0.696   7.717 -0.0692  0.4325 -0.9373
41482SOL    HW227724   1.198   0.691   7.787 -0.0159 -0.4769 -0.8960
41483SOL     OW27725   5.962   9.027  10.566  0.0550 -0.6314  0.3137
41483SOL    HW127726   5.956   8.966  10.492 -2.5185 -2.6357  1.9961
41483SOL    HW227727   6.039   8.998  10.615 -0.2010 -1.5221  0.2124
41484SOL     OW27728  10.902   1.680   4.765 -0.6242 -0.1816 -0.0180
41484SOL    HW127729  10.987   1.715   4.792 -0.1132 -0.9989 -0.5035
41484SOL    HW227730  10.859   1.752   4.720  0.6487 -0.3156 -1.5509
41485SOL     OW27731   3.229   3.825   9.161  0.1339 -0.4536  0.2103
41485SOL    HW127732   3.196   3.887   9.226  0.8243  0.8090 -0.6143
41485SOL    HW227733   3.230   3.740   9.207  2.0571  0.6298  2.3707
41486SOL     OW27734   4.210   8.502   8.910  0.0391 -0.5401  0.4051
41486SOL    HW127735   4.188   8.573   8.849 -0.9926  0.0278  1.4143
41486SOL    HW227736   4.305   8.491   8.899  0.0708  0.3509 -0.4430
41487SOL     OW27737   2.566   8.516   4.935 -0.4360 -0.6933  0.0979
41487SOL    HW127738   2.632   8.537   5.000 -0.4053 -0.5505  0.0219
41487SOL    HW227739   2.609   8.455   4.875  0.0887  0.4582 -0.7501
41488SOL     OW27740   0.849   7.898   5.616  0.0377  0.2860 -0.3375
41488SOL    HW127741   0.926   7.904   5.559  0.4721 -2.8653 -0.2712
41488SOL    HW227742   0.885   7.893   5.704 -0.0040 -2.4330 -0.3696
41489SOL     OW27743  11.102   3.700   6.488  0.1938  0.4246  0.7552
41489SOL    HW127744  11.075   3.784   6.526 -0.3336  0.0537  1.2186
41489SOL    HW227745  11.156   3.659   6.556 -0.7500 -0.2404  1.1198
41490SOL     OW27746  10.130   8.444   7.774  0.2512 -0.3516 -0.5798
41490SOL    HW127747  10.059   8.459   7.837 -0.2108 -2.3355 -0.5394
41490SOL    HW227748  10.201   8.407   7.827  1.3387  1.5710 -0.6312
41491SOL     OW27749   7.066   1.533   5.666  0.6124  0.1046  0.1763
41491SOL    HW127750   6.994   1.470   5.662  1.5300 -0.9099 -1.4232
41491SOL    HW227751   7.038   1.605   5.609  0.8934 -0.3332 -0.5221
41492SOL     OW27752   3.520   6.467  11.355  0.0930  0.6173 -0.3248
41492SOL    HW127753   3.485   6.390  11.309 -0.5973  1.6080 -1.5140
41492SOL    HW227754   3.523   6.441  11.447 -2.4086 -0.0232 -0.3644
41493SOL     OW27755   4.232   0.785   4.963 -0.3415  0.3101 -0.0902
41493SOL    HW127756   4.274   0.715   5.012 -0.9774  1.5809  2.4796
41493SOL    HW227757   4.139   0.765   4.966 -0.6605  1.8249  1.7898
41494SOL     OW27758   5.041   3.859   6.350  0.2401  0.4410 -0.2560
41494SOL    HW127759   5.124   3.906   6.341  0.0536  0.7002 -0.6496
41494SOL    HW227760   5.046   3.818   6.436  0.3657  1.2744  0.1473
41495SOL     OW27761   2.235   2.415   9.732 -0.7747  0.0391  0.1022
41495SOL    HW127762   2.297   2.347   9.706 -1.0400 -0.1336 -0.0837
41495SOL    HW227763   2.264   2.494   9.685  0.6079  0.5322  1.6792
41496SOL     OW27764  10.785   3.118  10.168 -0.5010  0.3459  0.6210
41496SOL    HW127765  10.798   3.076  10.253 -1.1426  0.3951  0.7513
41496SOL    HW227766  10.762   3.209  10.191 -1.8256  0.0723  0.4473
41497SOL     OW27767   5.824   1.127   5.514 -0.1701  0.0927 -0.1311
41497SOL    HW127768   5.807   1.221   5.515  0.3475  0.1885  1.1559
41497SOL    HW227769   5.860   1.110   5.427 -0.6862  1.0007 -0.5367
41498SOL     OW27770   4.091  10.618   7.796  0.1996 -0.0459  0.6556
41498SOL    HW127771   4.109  10.687   7.732  0.6033 -0.4318  0.3432
41498SOL    HW227772   4.142  10.643   7.873  0.5544 -0.1239  0.4513
41499SOL     OW27773   9.002   6.035   6.189 -0.6651  0.0973  0.0815
41499SOL    HW127774   9.071   6.054   6.125  0.0155 -1.3184  0.3441
41499SOL    HW227775   8.921   6.040   6.138 -0.1128 -1.3875 -1.0314
41500SOL     OW27776   3.214   0.865   0.916 -0.2970 -0.0230  0.5648
41500SOL    HW127777   3.164   0.935   0.874 -0.7484 -0.7588 -0.1661
41500SOL    HW227778   3.243   0.902   0.999  0.5235  1.4430 -0.3293
41501SOL     OW27779   5.689   9.231   0.443 -0.4983  0.6901 -0.3865
41501SOL    HW127780   5.782   9.216   0.431 -0.9260 -1.0922 -2.0645
41501SOL    HW227781   5.662   9.277   0.363 -1.2287  0.1508 -0.4656
41502SOL     OW27782   3.788   4.183   3.552 -0.5312  0.2595  0.1821
41502SOL    HW127783   3.704   4.200   3.510 -0.9674  1.1248  1.3467
41502SOL    HW227784   3.820   4.269   3.578  1.0292  0.0099 -0.7775
41503SOL     OW27785   3.527   0.547   0.778  0.2635 -0.5897  0.2509
41503SOL    HW127786   3.505   0.512   0.692  1.8784 -1.1987  0.0582
41503SOL    HW227787   3.622   0.539   0.784  0.2689  0.2256  1.7581
41504SOL     OW27788   5.931   4.089   0.276  0.2231 -0.5292 -0.1445
41504SOL    HW127789   5.878   4.052   0.347  2.4269  0.7443  2.3162
41504SOL    HW227790   5.876   4.158   0.238 -1.2292 -1.6451 -0.1361
41505SOL     OW27791   3.618   7.229  10.056  0.2642  0.2097 -0.0089
41505SOL    HW127792   3.699   7.260  10.097 -0.2971  0.0552  1.2436
41505SOL    HW227793   3.636   7.236   9.962  0.7688  2.8165  0.1808
41506SOL     OW27794   8.339   2.816   3.853  0.3772  0.1459  0.2904
41506SOL    HW127795   8.290   2.821   3.935 -0.4796 -0.7120 -0.1472
41506SOL    HW227796   8.274   2.835   3.785  0.5885 -1.1497 -0.3100
41507SOL     OW27797   3.222  10.903   7.376 -0.2934  0.2841 -0.2824
41507SOL    HW127798   3.186  10.817   7.357  1.2600 -0.3921 -0.3062
41507SOL    HW227799   3.267  10.928   7.295  1.4038 -0.0229  0.5257
41508SOL     OW27800   7.347   2.291   4.185  0.7505 -0.2804 -0.1021
41508SOL    HW127801   7.397   2.217   4.153 -0.1660 -0.2003 -1.8612
41508SOL    HW227802   7.308   2.261   4.267  0.0897 -1.8990 -0.9723
41509SOL     OW27803   5.262   5.049  11.315 -0.1122 -0.3028  0.7881
41509SOL    HW127804   5.259   5.134  11.357  0.6471 -0.6859  1.6466
41509SOL    HW227805   5.256   5.067  11.222 -2.4365  0.5436  1.0252
41510SOL     OW27806   9.110   3.973  10.702 -0.0111  0.3671  0.4519
41510SOL    HW127807   9.128   3.965  10.608 -2.5100 -2.4869  0.0360
41510SOL    HW227808   9.170   3.910  10.743  1.7435  2.2805  0.9875
41511SOL     OW27809   2.261   6.588   1.673 -0.6046 -0.2140  0.2022
41511SOL    HW127810   2.196   6.643   1.718 -0.4735 -0.4481  0.6808
41511SOL    HW227811   2.210   6.516   1.635 -0.6432 -0.3172  0.4512
41512SOL     OW27812   1.650   8.435   8.499  0.0177  0.2796 -0.2538
41512SOL    HW127813   1.563   8.468   8.522 -1.0228 -2.7208  0.6592
41512SOL    HW227814   1.633   8.371   8.430  1.4400 -0.6513  0.2215
41513SOL     OW27815   6.423   8.210   3.566  0.1451 -0.5269  0.0985
41513SOL    HW127816   6.488   8.275   3.538 -2.3026  1.6962 -0.7762
41513SOL    HW227817   6.457   8.127   3.531  1.8424  0.7480 -1.5106
41514SOL     OW27818   0.850   1.125   1.492 -0.2048  0.1009  0.4478
41514SOL    HW127819   0.782   1.166   1.546  1.4136  0.5578  2.2334
41514SOL    HW227820   0.918   1.191   1.485  0.6146 -0.7868 -0.2605
41515SOL     OW27821  11.136   1.761   6.413  0.0110 -0.0074 -0.3578
41515SOL    HW127822  11.218   1.765   6.365  0.8234 -0.0882  0.9849
41515SOL    HW227823  11.140   1.833   6.475 -0.3483 -0.7859  0.6085
41516SOL     OW27824   2.327   7.191   9.643 -0.2054  0.0814 -0.0966
41516SOL    HW127825   2.348   7.158   9.730 -2.4060 -3.0366 -0.5622
41516SOL    HW227826   2.408   7.179   9.592 -0.2213 -2.7099  0.3892
41517SOL     OW27827   0.793   4.382  10.129 -0.3717  0.9453  0.1880
41517SOL    HW127828   0.703   4.358  10.152 -0.1387  0.2595  0.4192
41517SOL    HW227829   0.816   4.323  10.057  0.2862  0.2813  0.9120
41518SOL     OW27830   4.851   9.321   7.612 -0.6912 -0.1324 -0.5588
41518SOL    HW127831   4.841   9.275   7.529 -1.1775 -0.4742 -0.3154
41518SOL    HW227832   4.801   9.402   7.601 -1.1087 -0.3712 -0.4590
41519SOL     OW27833   0.764   0.340   3.319 -0.3261  0.1887 -0.1408
41519SOL    HW127834   0.777   0.281   3.393  1.0164  0.4754 -0.1147
41519SOL    HW227835   0.829   0.311   3.255  0.6240  1.8613  0.0211
41520SOL     OW27836   4.960   8.444  10.766 -0.1711  0.2111  0.2300
41520SOL    HW127837   4.994   8.360  10.735 -2.0258  0.0659 -1.6209
41520SOL    HW227838   4.971   8.504  10.693 -2.1196  0.6124  0.1979
41521SOL     OW27839   5.335   2.091  10.228 -0.1938  0.5724 -0.0656
41521SOL    HW127840   5.275   2.018  10.242  0.6383 -0.0487  0.3945
41521SOL    HW227841   5.283   2.157  10.184 -1.3067  0.2005  0.6559
41522SOL     OW27842   7.775   1.682   4.085 -0.4686 -0.1040 -0.4382
41522SOL    HW127843   7.740   1.749   4.144 -1.4187 -0.8548 -0.1174
41522SOL    HW227844   7.707   1.615   4.082  0.2739 -0.8527 -1.1036
41523SOL     OW27845   5.506   3.650   6.842 -0.1107 -0.6927  0.1792
41523SOL    HW127846   5.493   3.626   6.934 -0.3388  1.0305  0.6287
41523SOL    HW227847   5.421   3.632   6.801 -0.4626 -0.1084  0.6357
41524SOL     OW27848   2.400   5.347   0.336 -0.0942 -0.5218  0.6074
41524SOL    HW127849   2.307   5.369   0.338  0.4609  2.3477  0.1388
41524SOL    HW227850   2.439   5.408   0.399  1.7480  0.1302 -1.0875
41525SOL     OW27851   9.000   4.033   6.435  0.1632  0.7213  0.4575
41525SOL    HW127852   8.945   3.974   6.486  0.3532 -0.0953 -0.2591
41525SOL    HW227853   9.066   4.063   6.497  1.0269 -1.0761  0.4814
41526SOL     OW27854   2.386  10.464   3.933  0.0973  0.3644  0.2655
41526SOL    HW127855   2.364  10.504   3.849 -0.3580 -0.0832  0.1650
41526SOL    HW227856   2.474  10.495   3.953 -0.4635  1.8936  0.4792
41527SOL     OW27857   9.880   3.315   9.644  0.3971  0.0654 -0.0985
41527SOL    HW127858   9.974   3.330   9.635  0.8111 -2.2928 -0.4994
41527SOL    HW227859   9.846   3.324   9.555  0.6496 -1.1307 -0.3435
41528SOL     OW27860   6.573   2.426   7.476 -0.1965  0.0781  0.4772
41528SOL    HW127861   6.527   2.507   7.453  2.6266  1.7471  0.0767
41528SOL    HW227862   6.600   2.389   7.392  1.2222  0.5270  0.6915
41529SOL     OW27863   7.087   9.679  10.178 -0.1248 -0.3898  0.0115
41529SOL    HW127864   7.051   9.649  10.262 -0.3096  0.9344  0.4278
41529SOL    HW227865   7.135   9.604  10.145 -1.0971 -1.3550  0.7023
41530SOL     OW27866   0.079   6.349   9.074 -0.2191  0.2408 -0.1156
41530SOL    HW127867   0.170   6.339   9.046  0.0837 -0.4021  1.0083
41530SOL    HW227868   0.028   6.301   9.009  0.4276 -0.9885  0.2471
41531SOL     OW27869   1.634  10.991   2.190  0.5088  0.5297 -0.1154
41531SOL    HW127870   1.616  10.948   2.106  1.2090  0.9285 -0.4775
41531SOL    HW227871   1.714  10.949   2.222  2.7351  3.1920 -1.7063
41532SOL     OW27872   4.148   2.135   0.036  0.5481  0.3614 -0.0106
41532SOL    HW127873   4.160   2.093   0.121  0.2217 -0.4161 -0.3283
41532SOL    HW227874   4.182   2.071  -0.027  1.4401  1.2244 -0.4235
41533SOL     OW27875   5.424  10.431   7.646  0.3692  0.3196  0.3674
41533SOL    HW127876   5.346  10.407   7.596  0.4492  1.3880 -0.3168
41533SOL    HW227877   5.394  10.438   7.736 -0.0865 -0.2819  0.2720
41534SOL     OW27878   7.926  10.535   9.248  0.1290  0.5025 -0.0087
41534SOL    HW127879   7.978  10.521   9.169 -1.2214  0.9848 -1.0253
41534SOL    HW227880   7.963  10.615   9.286  1.4194 -0.2659  0.4017
41535SOL     OW27881   9.651   4.318   7.454 -0.1125 -0.3427 -0.2345
41535SOL    HW127882   9.589   4.390   7.463 -0.5089 -0.8021  1.0215
41535SOL    HW227883   9.736   4.355   7.480 -0.0212  0.0558 -1.0835
41536SOL     OW27884   2.921   7.109   9.276 -0.0129 -0.7878 -0.9226
41536SOL    HW127885   2.981   7.111   9.202 -0.0651 -1.6588 -0.9994
41536SOL    HW227886   2.849   7.053   9.247 -0.3972 -0.5336 -0.4830
41537SOL     OW27887   0.163   9.813   7.686  0.0603 -0.0194 -0.5424
41537SOL    HW127888   0.220   9.825   7.610  1.4718  0.4208  0.5466
41537SOL    HW227889   0.123   9.899   7.700 -0.6937 -0.2625 -1.1513
41538SOL     OW27890   4.195   4.455   8.177 -0.0154 -0.2584  0.4281
41538SOL    HW127891   4.262   4.394   8.208  0.0747 -0.5967 -0.4022
41538SOL    HW227892   4.166   4.418   8.094  2.1333  2.3212 -1.6571
41539SOL     OW27893   9.911   7.608   3.491  0.0605  0.4167  0.3727
41539SOL    HW127894   9.909   7.542   3.560 -1.2530  1.3318  1.2746
41539SOL    HW227895   9.876   7.563   3.414 -1.2217  0.1300  1.0827
41540SOL     OW27896   7.635   7.423   2.283 -0.4316  0.2300  0.6107
41540SOL    HW127897   7.602   7.482   2.351  0.8984  1.7084  0.0205
41540SOL    HW227898   7.656   7.480   2.209  1.3354 -0.9057  0.1784
41541SOL     OW27899   9.409   5.932   1.335 -0.0649 -0.5487 -0.7555
41541SOL    HW127900   9.475   5.993   1.303  0.1401 -1.4440 -2.1454
41541SOL    HW227901   9.343   5.987   1.377  0.8235  0.4804 -0.6802
41542SOL     OW27902   2.899   5.258   0.629 -0.1428 -0.2245 -0.2241
41542SOL    HW127903   2.889   5.250   0.534 -0.5649  1.3780 -0.3395
41542SOL    HW227904   2.900   5.352   0.645  3.2400 -0.3439  1.0300
41543SOL     OW27905   8.205   9.482   1.241  0.2869  0.4340  0.2528
41543SOL    HW127906   8.188   9.558   1.295  0.0411  1.1260 -0.7736
41543SOL    HW227907   8.290   9.450   1.270  0.8096  1.6430  0.0606
41544SOL     OW27908   5.573  10.864   1.508 -0.4873  0.6360  0.1124
41544SOL    HW127909   5.643  10.813   1.551  0.0686  1.0998 -0.2342
41544SOL    HW227910   5.582  10.844   1.415 -0.8543  0.6586  0.0709
41545SOL     OW27911   1.038   0.407  10.340  0.3195 -0.5143 -0.2401
41545SOL    HW127912   1.133   0.396  10.344  0.6340  1.7674 -0.0141
41545SOL    HW227913   1.004   0.319  10.325  2.3975 -1.5357  0.6569
41546SOL     OW27914   8.776   7.425   0.737 -0.5874  0.5770  0.1113
41546SOL    HW127915   8.783   7.440   0.832  0.7148 -1.5118  0.4068
41546SOL    HW227916   8.683   7.431   0.719 -1.1195 -0.9797  1.9481
41547SOL     OW27917  11.246   7.652   5.330 -0.1203 -0.3223  0.3584
41547SOL    HW127918  11.176   7.670   5.392  0.5233  0.0171  0.9982
41547SOL    HW227919  11.225   7.566   5.294 -2.3962  0.8984 -1.5638
41548SOL     OW27920   0.307   3.185  10.999 -0.2481  0.3959 -0.4617
41548SOL    HW127921   0.260   3.117  10.951 -2.6829  0.6740  1.3373
41548SOL    HW227922   0.304   3.261  10.942  0.9421 -0.4609 -1.7376
41549SOL     OW27923  10.380   7.538   4.400  1.0404 -0.1177 -0.1364
41549SOL    HW127924  10.384   7.446   4.374  1.8942  0.2313 -1.3318
41549SOL    HW227925  10.287   7.560   4.393  0.5629 -1.2774  1.7435
41550SOL     OW27926   3.861   1.301   5.670  0.3035 -0.3851  0.3576
41550SOL    HW127927   3.849   1.382   5.620  0.0099 -0.0699  0.9256
41550SOL    HW227928   3.773   1.262   5.673  0.7034 -1.5191 -1.2073
41551SOL     OW27929   2.339   5.981   5.437  0.8509 -0.0841  0.0320
41551SOL    HW127930   2.290   6.052   5.395  0.8372  0.0535  0.2825
41551SOL    HW227931   2.296   5.901   5.407  1.6063 -0.0523 -1.2279
41552SOL     OW27932   6.419   0.111   2.728 -0.4646  0.0770  0.7477
41552SOL    HW127933   6.348   0.056   2.760 -0.9498  1.5629  2.3770
41552SOL    HW227934   6.488   0.102   2.793  0.0166  0.2820  0.2732
41553SOL     OW27935   1.355   8.426   3.002 -0.2597  0.7122  0.0700
41553SOL    HW127936   1.260   8.425   2.988 -0.4072 -0.5212  0.9898
41553SOL    HW227937   1.393   8.420   2.915 -1.0401  0.0671 -0.2311
41554SOL     OW27938   6.369   9.782   5.547 -0.3823 -0.4316 -0.2700
41554SOL    HW127939   6.402   9.787   5.457 -0.2527  2.3120 -0.1418
41554SOL    HW227940   6.434   9.730   5.594  0.6929 -0.0619 -1.3000
41555SOL     OW27941  10.204   2.853  10.247  0.0576 -0.0968 -0.1746
41555SOL    HW127942  10.229   2.925  10.305  1.2318 -0.0189 -0.7552
41555SOL    HW227943  10.246   2.776  10.285  0.6554 -0.0818 -0.7891
41556SOL     OW27944   9.835   8.137   1.410  0.4327  0.1700  0.1420
41556SOL    HW127945   9.924   8.118   1.381 -0.1959  1.3139 -2.8391
41556SOL    HW227946   9.781   8.076   1.360 -0.4959 -1.0551  2.4902
41557SOL     OW27947   8.046  10.472   9.025  1.1410 -0.3537  0.5744
41557SOL    HW127948   8.091  10.408   8.969  2.7444  1.2078  0.0060
41557SOL    HW227949   8.088  10.555   9.005 -1.4827  1.0714  0.6504
41558SOL     OW27950   1.328   0.076   1.046  0.9005 -0.2132 -0.0206
41558SOL    HW127951   1.354  -0.000   1.098 -1.0029 -0.0009  1.3506
41558SOL    HW227952   1.288   0.135   1.110  3.2090  2.4462 -0.8546
41559SOL     OW27953   4.275   1.292   2.137 -0.3476  0.6035 -0.1543
41559SOL    HW127954   4.317   1.377   2.132  0.6153  0.5195  3.5051
41559SOL    HW227955   4.197   1.306   2.190 -0.5439 -0.6765 -0.0530
41560SOL     OW27956   1.722   6.595   8.713  0.2710  0.2844  0.2947
41560SOL    HW127957   1.638   6.607   8.758 -0.3875  1.6459 -1.1654
41560SOL    HW227958   1.735   6.500   8.710 -1.4976  0.0097  0.1083
41561SOL     OW27959   2.150  11.249   6.251 -0.1534 -0.0230  0.1173
41561SOL    HW127960   2.099  11.302   6.190  0.8005  0.5632 -0.1965
41561SOL    HW227961   2.241  11.273   6.234  0.2570 -1.2229  0.4893
41562SOL     OW27962   4.542   8.888   1.190  0.1874 -0.2382 -0.2853
41562SOL    HW127963   4.622   8.921   1.231  0.5250  0.2812 -1.3207
41562SOL    HW227964   4.476   8.954   1.211 -0.3091 -1.2580  1.6004
41563SOL     OW27965  11.176   2.573  10.892  0.0519  0.4590 -0.0501
41563SOL    HW127966  11.153   2.651  10.942  0.2775  1.3237 -1.2555
41563SOL    HW227967  11.180   2.603  10.801 -0.2358 -1.0415 -0.5843
41564SOL     OW27968   8.672  10.431   1.233 -0.6264 -0.2527 -0.3291
41564SOL    HW127969   8.637  10.495   1.171 -1.3796  0.4088  0.7573
41564SOL    HW227970   8.610  10.357   1.228 -1.7114  0.5296  0.8995
41565SOL     OW27971   6.917   4.712   3.613 -0.3157 -0.1346 -0.3768
41565SOL    HW127972   6.858   4.746   3.545 -0.6550  0.7596  0.3535
41565SOL    HW227973   6.983   4.663   3.564 -2.1606 -1.9989 -1.1794
41566SOL     OW27974   0.069   8.465   1.359  0.0384  0.2349 -0.7440
41566SOL    HW127975   0.108   8.407   1.424 -0.2051  1.1290  0.2194
41566SOL    HW227976   0.103   8.434   1.275  0.4006 -0.8997 -0.1891
41567SOL     OW27977   7.755   7.392   8.806 -0.3139  0.0731 -0.0418
41567SOL    HW127978   7.809   7.439   8.742 -2.3596 -0.6485 -2.4390
41567SOL    HW227979   7.780   7.300   8.795  0.5144  0.0929  1.4628
41568SOL     OW27980   0.021   0.633   1.446 -0.0850 -0.4300 -0.1441
41568SOL    HW127981  -0.066   0.655   1.413  0.2854  0.6823 -0.4541
41568SOL    HW227982   0.040   0.546   1.409 -0.0148  0.4294 -2.2928
41569SOL     OW27983  10.989   5.076   9.094 -0.0649  0.6080 -0.8453
41569SOL    HW127984  10.942   5.140   9.041  0.8805  0.6391 -1.6676
41569SOL    HW227985  11.041   5.026   9.031  1.0221  0.5916  0.0381
41570SOL     OW27986   1.212   2.175  10.714  0.0029 -0.5059 -0.4584
41570SOL    HW127987   1.236   2.262  10.681 -0.7637  0.6694  1.8396
41570SOL    HW227988   1.180   2.192  10.803 -1.9299 -2.9309 -0.6132
41571SOL     OW27989   0.225   5.126   4.706 -0.3233  0.2991 -0.4659
41571SOL    HW127990   0.158   5.181   4.745 -2.6297 -1.1307 -2.1871
41571SOL    HW227991   0.248   5.169   4.624  0.3642  0.4228 -0.2131
41572SOL     OW27992   3.267   2.577   4.849  0.5648  0.0825 -0.4058
41572SOL    HW127993   3.356   2.594   4.817  1.6707 -2.7582  0.8566
41572SOL    HW227994   3.255   2.640   4.920  2.2910 -0.5924  0.5518
41573SOL     OW27995   1.119   5.872   8.178  0.1337  0.4114  0.6783
41573SOL    HW127996   1.086   5.798   8.228 -1.4788 -0.0630 -0.9726
41573SOL    HW227997   1.123   5.841   8.088  3.0113  1.2084  0.4229
41574SOL     OW27998  10.181   9.598   1.370 -1.0132  0.3185 -0.1536
41574SOL    HW127999  10.142   9.544   1.438 -1.1643  2.3235  1.4415
41574SOL    HW228000  10.247   9.541   1.330  0.3620 -0.4500  2.8792
41575SOL     OW28001   8.779   9.556   4.100  0.0264  0.1005  0.1559
41575SOL    HW128002   8.767   9.623   4.033  3.4018  1.1027  0.3286
41575SOL    HW228003   8.784   9.605   4.183  0.3779 -0.5777  0.5501
41576SOL     OW28004   3.774   0.091   8.937  0.4780 -0.5170  0.2190
41576SOL    HW128005   3.796  -0.002   8.933 -0.1205 -0.6300 -0.9355
41576SOL    HW228006   3.787   0.115   9.029 -1.7924 -2.3606  1.1411
41577SOL     OW28007   3.637   9.293   6.776 -0.5140  0.2828 -0.1108
41577SOL    HW128008   3.594   9.307   6.692  1.5125 -0.8252 -1.3923
41577SOL    HW228009   3.629   9.199   6.793  1.6266 -0.0363 -0.5819
41578SOL     OW28010   4.124   8.435   9.144 -0.1337 -0.3904 -0.2041
41578SOL    HW128011   4.074   8.359   9.116 -0.6280  0.1278 -0.7507
41578SOL    HW228012   4.156   8.475   9.063  0.2038 -0.0691  0.0800
41579SOL     OW28013   4.169   4.570   9.881 -0.1401 -0.0164  0.1206
41579SOL    HW128014   4.085   4.565   9.836  0.7046  3.5426 -2.3034
41579SOL    HW228015   4.168   4.656   9.923  1.9476 -0.2907  0.8269
41580SOL     OW28016   8.306  10.052   2.867 -0.1439 -0.0756  0.1147
41580SOL    HW128017   8.326  10.146   2.868  0.3011 -0.1702  0.5846
41580SOL    HW228018   8.219  10.047   2.828 -0.8031  0.6638  1.3809
41581SOL     OW28019   7.225   2.346   9.291  0.2124  0.3673 -0.2653
41581SOL    HW128020   7.145   2.295   9.285 -0.6830  1.4099  2.0136
41581SOL    HW228021   7.285   2.291   9.341 -0.5369  1.2014  1.6326
41582SOL     OW28022   0.025   6.562  11.323 -0.9051 -0.2589 -0.0443
41582SOL    HW128023  -0.019   6.632  11.371  2.4434  2.0229  0.0680
41582SOL    HW228024   0.051   6.602  11.240  1.1173 -1.3127  0.0145
41583SOL     OW28025   9.734   1.197   7.957  0.3340  0.0791 -0.3455
41583SOL    HW128026   9.660   1.139   7.939  0.6743 -0.6810  0.6259
41583SOL    HW228027   9.775   1.211   7.872 -0.0694 -0.6580 -0.6695
41584SOL     OW28028   5.727   4.722   7.485 -0.2057 -0.3030 -0.4294
41584SOL    HW128029   5.749   4.736   7.393  0.7476 -0.2396 -0.2041
41584SOL    HW228030   5.776   4.643   7.510 -1.2005 -0.8695 -0.2236
41585SOL     OW28031   6.388   3.310   6.276 -0.1392  0.2101 -0.3479
41585SOL    HW128032   6.361   3.402   6.287 -0.1498  0.1105  0.5602
41585SOL    HW228033   6.432   3.308   6.191 -0.8875  0.8776 -0.7668
41586SOL     OW28034   6.576   1.206   1.109 -0.4485  0.0823 -0.3925
41586SOL    HW128035   6.560   1.297   1.083 -1.3259  0.0713  0.0718
41586SOL    HW228036   6.497   1.159   1.083  0.5489 -0.8501 -1.8723
41587SOL     OW28037   9.690   5.474   1.307  0.0112  0.0766 -0.1336
41587SOL    HW128038   9.682   5.448   1.215 -0.3776 -0.4651  0.0495
41587SOL    HW228039   9.651   5.402   1.356  1.5127 -0.3145  0.5420
41588SOL     OW28040   5.909   6.771   2.556 -0.3434 -0.3043 -0.1274
41588SOL    HW128041   5.974   6.760   2.625 -0.1289 -2.1487 -0.5680
41588SOL    HW228042   5.851   6.841   2.587  1.2578  0.6877  0.7116
41589SOL     OW28043   5.591  10.995   3.264 -0.0480 -0.1281 -1.0065
41589SOL    HW128044   5.541  10.936   3.208 -1.6306 -0.3220  0.5240
41589SOL    HW228045   5.526  11.033   3.323  1.5421 -0.0484  0.7932
41590SOL     OW28046   1.865   4.944   9.191 -0.2870  0.1285 -0.4224
41590SOL    HW128047   1.818   4.957   9.109  1.0503 -0.4032 -1.3232
41590SOL    HW228048   1.835   5.014   9.249 -1.2467  0.5132 -1.3685
41591SOL     OW28049   6.884   9.759   1.689  0.1146  0.0645 -0.6918
41591SOL    HW128050   6.831   9.722   1.759  1.5641 -0.2666  0.2776
41591SOL    HW228051   6.965   9.786   1.732  0.2955  1.6217 -1.9143
41592SOL     OW28052   9.023   2.252   3.375 -0.4843 -0.1324  0.6598
41592SOL    HW128053   9.107   2.237   3.419 -0.2312  1.3634  0.7160
41592SOL    HW228054   8.961   2.199   3.424  0.1815 -0.1914  1.4565
41593SOL     OW28055   1.141   1.069   9.966 -0.0823  0.2259 -0.2801
41593SOL    HW128056   1.184   1.115   9.893  0.3312 -0.8761 -0.7480
41593SOL    HW228057   1.048   1.074   9.945  0.0349 -0.1102 -0.9121
41594SOL     OW28058   5.298   4.872   4.128  0.5579 -0.3854 -0.3575
41594SOL    HW128059   5.228   4.923   4.088  0.4616 -0.6906 -0.5838
41594SOL    HW228060   5.321   4.920   4.207  0.9595  0.3862 -0.9361
41595SOL     OW28061   2.754   3.472   4.999 -0.5793 -0.6902 -0.5098
41595SOL    HW128062   2.779   3.380   4.991 -1.6461 -0.9031 -1.6495
41595SOL    HW228063   2.659   3.470   5.008 -0.8605  0.3815 -2.8101
41596SOL     OW28064   9.207   4.729   5.261 -0.2223 -0.4468  0.3137
41596SOL    HW128065   9.299   4.755   5.257 -0.0599 -0.8113  1.2481
41596SOL    HW228066   9.202   4.647   5.212 -0.3092  0.2205 -0.8101
41597SOL     OW28067   0.881   9.028   2.172 -0.2292 -0.3640  0.3200
41597SOL    HW128068   0.849   9.060   2.088  0.5748  0.7012  0.3946
41597SOL    HW228069   0.813   8.968   2.203 -0.1182 -1.5180 -1.5182
41598SOL     OW28070   8.840   2.067  11.033  0.3171  0.2630 -0.5960
41598SOL    HW128071   8.923   2.037  11.071  0.0651 -1.7580 -1.5163
41598SOL    HW228072   8.815   1.998  10.972 -1.6656  1.1993 -0.9250
41599SOL     OW28073   9.474   6.609   5.759  0.0080  0.7752  0.6329
41599SOL    HW128074   9.383   6.611   5.787 -0.4800  0.2771 -0.8117
41599SOL    HW228075   9.474   6.652   5.673  0.7155 -1.1133 -0.3799
41600SOL     OW28076   8.738   4.448   9.422 -0.0476 -0.1835 -0.0278
41600SOL    HW128077   8.779   4.503   9.355  0.1522 -0.8615 -0.4773
41600SOL    HW228078   8.790   4.368   9.422 -0.6334 -0.5715  0.2674
41601SOL     OW28079   1.938   0.149   4.952 -0.1397  0.0451 -0.2478
41601SOL    HW128080   1.900   0.193   5.028  1.4630 -1.1094  1.2919
41601SOL    HW228081   1.914   0.057   4.964  1.6488 -0.4300 -0.1509
41602SOL     OW28082   4.181   2.960   3.375 -0.0168 -0.0543  0.0609
41602SOL    HW128083   4.222   2.942   3.291  0.7320  0.4389  0.3089
41602SOL    HW228084   4.107   3.017   3.353 -1.1589 -1.6717 -0.4847
41603SOL     OW28085   7.765   3.995   9.971  0.1268  0.5251  0.1275
41603SOL    HW128086   7.858   3.977   9.962  0.0680 -0.4989  1.3483
41603SOL    HW228087   7.735   4.012   9.881  1.1496 -0.7929 -0.4875
41604SOL     OW28088   0.881   8.877   6.213 -0.0824 -0.3096 -0.1480
41604SOL    HW128089   0.955   8.936   6.228  0.6261 -1.1849 -0.1532
41604SOL    HW228090   0.805   8.925   6.245  0.8269 -0.4957  2.4623
41605SOL     OW28091   8.496   4.727   6.758 -0.2418  0.2768  0.7147
41605SOL    HW128092   8.462   4.638   6.747  2.3897 -0.7585  0.3044
41605SOL    HW228093   8.466   4.754   6.845  0.1607 -1.6335  1.4860
41606SOL     OW28094   2.993   9.489   8.807 -0.2800 -0.7168  0.4077
41606SOL    HW128095   3.000   9.581   8.782 -1.1970 -0.1665  1.9737
41606SOL    HW228096   2.976   9.442   8.725 -0.5185  0.6045 -0.3183
41607SOL     OW28097   6.119   2.067   3.225  0.0589  0.5283 -0.3379
41607SOL    HW128098   6.039   2.101   3.187 -0.9526 -0.9914  0.3670
41607SOL    HW228099   6.126   2.112   3.310 -0.3993  0.1739 -0.1137
41608SOL     OW28100   7.757   9.742   6.279  1.2964 -0.5032 -0.7840
41608SOL    HW128101   7.748   9.827   6.235 -2.1976 -1.1713 -1.6774
41608SOL    HW228102   7.751   9.762   6.372  3.0103  0.3799 -0.8138
41609SOL     OW28103  11.361   9.456  10.011  0.8075  0.1647 -0.4257
41609SOL    HW128104  11.443   9.412   9.988 -0.4579 -1.4276 -2.2555
41609SOL    HW228105  11.339   9.508   9.934 -0.2835 -0.0364 -0.2685
41610SOL     OW28106   9.517  10.674   5.484  0.2684 -0.1365 -0.1472
41610SOL    HW128107   9.582  10.722   5.432  1.0257 -0.6216  0.3345
41610SOL    HW228108   9.498  10.596   5.432 -0.3472  0.2699 -0.5443
41611SOL     OW28109   5.266   4.243   7.776  0.1052  0.0322 -0.2999
41611SOL    HW128110   5.292   4.331   7.801  0.0295 -0.5630  2.0596
41611SOL    HW228111   5.272   4.191   7.856 -1.1692 -1.8159 -1.3015
41612SOL     OW28112   6.041   9.852   5.299  0.1983  0.0473  0.2676
41612SOL    HW128113   5.968   9.818   5.352 -0.3262 -1.1028 -1.1216
41612SOL    HW228114   6.097   9.775   5.284  1.1394  0.6900  0.4131
41613SOL     OW28115   1.193   1.185   5.836 -1.1402  0.5518  0.2727
41613SOL    HW128116   1.139   1.264   5.840 -0.7401  1.0972 -2.6932
41613SOL    HW228117   1.154   1.133   5.766  1.0872  0.1510 -0.7558
41614SOL     OW28118  10.107  10.099   3.997 -0.2122  0.3350  0.1485
41614SOL    HW128119  10.032  10.097   3.937  1.5308 -0.0052 -2.1617
41614SOL    HW228120  10.140  10.009   3.997 -0.4204  0.2024  2.0749
41615SOL     OW28121   4.917   8.295   5.379 -0.0073  0.1228  0.0130
41615SOL    HW128122   4.915   8.278   5.473  0.7408 -1.3301 -0.2173
41615SOL    HW228123   5.001   8.337   5.364 -0.7134  1.6619  0.1713
41616SOL     OW28124   3.508   1.461   3.325 -0.2046  0.2643 -0.3119
41616SOL    HW128125   3.532   1.389   3.268 -1.6240 -0.7173  0.2759
41616SOL    HW228126   3.489   1.534   3.266  2.3693  0.5729 -0.8636
41617SOL     OW28127   3.430   4.171   5.690  0.1159 -0.3535  0.1540
41617SOL    HW128128   3.519   4.138   5.688  0.1664 -0.1665 -1.6826
41617SOL    HW228129   3.400   4.153   5.779  2.3360  0.5718  1.1653
41618SOL     OW28130   2.451   3.157   9.914 -0.6392 -0.8131  0.2394
41618SOL    HW128131   2.468   3.211   9.836  0.5817 -0.5808  0.6458
41618SOL    HW228132   2.399   3.084   9.881 -4.3029  1.5918 -0.0066
41619SOL     OW28133   5.235   1.994   9.218  0.1826 -0.0878  0.4192
41619SOL    HW128134   5.311   1.983   9.275  0.6871 -1.0846 -0.4169
41619SOL    HW228135   5.218   1.906   9.184  0.3223  0.5734 -1.4824
41620SOL     OW28136   8.573   6.105   4.114  0.2948 -0.1944  0.2262
41620SOL    HW128137   8.655   6.124   4.069  0.0831 -0.1900 -0.1557
41620SOL    HW228138   8.574   6.010   4.127  1.0418 -0.0264  1.5438
41621SOL     OW28139   9.799   9.588   6.576  0.0322  0.3238 -0.1444
41621SOL    HW128140   9.707   9.594   6.602 -0.1229 -0.5736 -0.4507
41621SOL    HW228141   9.820   9.495   6.584  1.3247  0.7091  1.2761
41622SOL     OW28142   8.976   4.717  10.633 -0.5667  0.3407  0.3399
41622SOL    HW128143   8.883   4.735  10.647 -1.1145 -0.6866 -1.6336
41622SOL    HW228144   9.016   4.803  10.620 -1.3372  0.7582  0.6959
41623SOL     OW28145   0.233   6.425   6.720 -0.4188  0.2997 -0.4576
41623SOL    HW128146   0.198   6.367   6.653 -1.2752 -1.3158  1.2907
41623SOL    HW228147   0.156   6.469   6.756 -1.0375 -3.4378  3.5699
41624SOL     OW28148   7.242   4.802   4.000 -0.0248 -0.0657 -0.0998
41624SOL    HW128149   7.244   4.709   3.979 -1.2698  0.1894 -1.4921
41624SOL    HW228150   7.333   4.823   4.023  0.5444 -1.3465 -1.0446
41625SOL     OW28151   4.538   3.843   5.457  0.2241 -0.4841  0.0219
41625SOL    HW128152   4.472   3.907   5.432  0.5311  0.8063  2.2087
41625SOL    HW228153   4.488   3.770   5.495 -0.0894 -1.3419 -1.9127
41626SOL     OW28154   2.179   0.777   6.938  0.5224 -0.9435 -0.0541
41626SOL    HW128155   2.120   0.707   6.965 -0.7390  0.3098  0.5794
41626SOL    HW228156   2.172   0.842   7.007 -0.0277  0.7653 -1.6229
41627SOL     OW28157   7.198   4.759   3.607 -0.0648  0.5631 -0.3813
41627SOL    HW128158   7.231   4.809   3.533  2.5546  1.7812  1.4425
41627SOL    HW228159   7.151   4.823   3.660  0.6500  0.4088  0.4549
41628SOL     OW28160   7.207   5.354   3.008 -0.2341  0.2659  0.0500
41628SOL    HW128161   7.148   5.427   2.988  2.5735  2.8718  0.5644
41628SOL    HW228162   7.233   5.368   3.099 -1.1425 -2.6588  0.8731
41629SOL     OW28163   9.586   6.100   6.180  0.1480  0.0066  0.2269
41629SOL    HW128164   9.649   6.028   6.184  1.5262  1.2067  1.1518
41629SOL    HW228165   9.558   6.113   6.270 -0.2815  0.4811  0.0308
41630SOL     OW28166   5.858   4.621   8.398  0.2349  0.1331  0.6464
41630SOL    HW128167   5.852   4.575   8.482  1.5835 -1.6975 -0.1966
41630SOL    HW228168   5.800   4.572   8.340  1.9029 -0.7372 -0.3404
41631SOL     OW28169   0.272   6.720   4.061  0.1511  0.2276 -0.2447
41631SOL    HW128170   0.179   6.730   4.042  0.3546  0.4827 -1.2129
41631SOL    HW228171   0.287   6.626   4.065  0.3370  0.0452 -2.9745
41632SOL     OW28172   2.988   3.910   8.075  0.6442 -0.6277  0.5446
41632SOL    HW128173   2.949   3.885   8.159  1.1670 -1.7594  0.4772
41632SOL    HW228174   2.929   3.871   8.010  0.2227  0.2739  0.3815
41633SOL     OW28175  10.227   9.115   6.066  0.2780 -0.3634  0.2688
41633SOL    HW128176  10.193   9.056   6.134  1.3151 -2.7125 -1.1465
41633SOL    HW228177  10.149   9.149   6.022 -0.3362 -0.5888  1.1603
41634SOL     OW28178   6.820   2.520   6.355  0.4538 -0.3565  0.0197
41634SOL    HW128179   6.793   2.441   6.402  1.5755 -0.0256  1.2723
41634SOL    HW228180   6.914   2.507   6.338  0.6210  0.6245  0.1059
41635SOL     OW28181   6.242  10.788  11.046  0.0828  0.1118  0.4666
41635SOL    HW128182   6.279  10.860  10.995  2.4717 -1.1277  0.2974
41635SOL    HW228183   6.167  10.757  10.994 -0.0944  1.5253 -0.1580
41636SOL     OW28184   9.855   8.381   0.068  0.3382 -0.4109  0.0846
41636SOL    HW128185   9.908   8.336   0.133 -0.1457 -2.2114 -0.6799
41636SOL    HW228186   9.776   8.408   0.114  0.6628 -0.2965  0.5730
41637SOL     OW28187   4.157   5.243  11.334 -0.1522  0.5699 -0.2574
41637SOL    HW128188   4.160   5.241  11.239 -0.9024  0.7280 -0.2911
41637SOL    HW228189   4.064   5.253  11.355 -0.0689 -0.1281  0.4985
41638SOL     OW28190   5.273   9.403   5.494  0.6289 -0.0533 -0.4051
41638SOL    HW128191   5.279   9.410   5.589 -0.5383  0.0481 -0.3210
41638SOL    HW228192   5.346   9.455   5.460 -0.3629  1.9622  0.3934
41639SOL     OW28193   8.202   4.017   3.759 -0.0811 -0.1771  0.1537
41639SOL    HW128194   8.229   3.937   3.714 -0.8748 -0.6386  0.4813
41639SOL    HW228195   8.271   4.033   3.824 -0.5999 -1.3673  1.0204
41640SOL     OW28196   7.674   8.346   6.302  0.4134 -0.0230  0.6394
41640SOL    HW128197   7.764   8.377   6.291  0.0699  0.4708 -1.1267
41640SOL    HW228198   7.622   8.425   6.312  0.0898 -0.2733  0.9456
41641SOL     OW28199   7.695   9.247  11.113  0.1568  0.3549  0.0009
41641SOL    HW128200   7.698   9.343  11.106  1.4364  0.2453 -1.8019
41641SOL    HW228201   7.718   9.216  11.025 -1.1696 -1.6297  0.2808
41642SOL     OW28202   0.253   3.343   9.266 -0.2004  1.0050  0.1963
41642SOL    HW128203   0.340   3.324   9.301 -0.9489 -1.7036  0.8399
41642SOL    HW228204   0.204   3.376   9.342 -0.9905 -2.0839  1.1933
41643SOL     OW28205   0.190  11.327   2.342 -0.7443 -0.2903  0.1807
41643SOL    HW128206   0.193  11.315   2.247  0.9595  0.9571  0.0369
41643SOL    HW228207   0.190  11.238   2.377  1.5190 -0.8030 -0.9507
41644SOL     OW28208   1.568   2.853   5.884 -0.0253  0.1030 -0.0206
41644SOL    HW128209   1.583   2.916   5.813 -0.4128  2.5661  1.9458
41644SOL    HW228210   1.637   2.871   5.947 -0.8059 -0.7147  1.1057
41645SOL     OW28211   7.616   3.696   9.390  0.5891  0.5105  0.2419
41645SOL    HW128212   7.657   3.780   9.409  1.6069 -0.0226  0.4508
41645SOL    HW228213   7.623   3.646   9.472  0.4770  0.0316 -0.0332
41646SOL     OW28214   4.760   8.805   0.299 -0.5327  0.1361 -0.5191
41646SOL    HW128215   4.802   8.821   0.384 -1.7684 -0.6043  0.2593
41646SOL    HW228216   4.833   8.797   0.238  0.3334  2.2980  0.1511
41647SOL     OW28217   5.806   8.305   4.050  0.4179  0.4940  0.6115
41647SOL    HW128218   5.748   8.382   4.053  0.6590  0.7366 -0.5548
41647SOL    HW228219   5.894   8.342   4.056  0.4900  0.1531  1.9697
41648SOL     OW28220   6.223  11.300   0.045  0.4571 -0.2860 -0.1493
41648SOL    HW128221   6.304  11.251   0.059  1.2904  1.7673  4.0476
41648SOL    HW228222   6.235  11.344  -0.039  2.7056 -1.7535 -0.6748
41649SOL     OW28223   2.135  11.273   4.099  0.3778  0.5285 -0.2855
41649SOL    HW128224   2.137  11.242   4.008  1.7509  0.0768 -0.1343
41649SOL    HW228225   2.227  11.292   4.119  0.1839 -0.0270  1.2216
41650SOL     OW28226   7.511  10.764   6.055  0.4423  0.0312  0.0806
41650SOL    HW128227   7.517  10.684   6.108 -0.2100 -0.4641 -0.5740
41650SOL    HW228228   7.598  10.803   6.060  0.7453 -0.6782  0.4709
41651SOL     OW28229   7.099   3.280   0.523  0.7752 -0.2495  0.5533
41651SOL    HW128230   7.076   3.319   0.438 -0.1588 -0.0670  0.8832
41651SOL    HW228231   7.105   3.186   0.506  0.1347 -0.2640  0.3739
41652SOL     OW28232   8.763   0.339   6.408  0.4178 -0.3030  0.1073
41652SOL    HW128233   8.684   0.289   6.428 -0.8904  2.1447  1.7146
41652SOL    HW228234   8.735   0.401   6.340  0.7643  0.9375  1.0640
41653SOL     OW28235   4.769   9.862   3.652  0.0901 -0.2191 -0.1138
41653SOL    HW128236   4.749   9.955   3.644 -2.1660 -0.6176  0.3254
41653SOL    HW228237   4.706   9.818   3.595  1.4615 -1.4828 -0.7192
41654SOL     OW28238   8.768  10.491   8.313 -0.1659 -0.0713  0.0438
41654SOL    HW128239   8.843  10.550   8.311  0.0211 -0.2996 -1.4046
41654SOL    HW228240   8.695  10.543   8.280  0.2665 -0.8985 -2.4684
41655SOL     OW28241   8.574   0.397   9.163  0.0397 -0.0769  0.3016
41655SOL    HW128242   8.572   0.422   9.070  0.1721 -0.5487  0.1709
41655SOL    HW228243   8.661   0.421   9.193  0.1473 -0.3281  0.1905
41656SOL     OW28244   3.092   5.476   6.242 -0.7359  0.0688 -0.4059
41656SOL    HW128245   3.086   5.572   6.247 -3.1125  0.0056 -0.6299
41656SOL    HW228246   3.090   5.447   6.334  0.1992  0.2382 -0.3312
41657SOL     OW28247   3.132  10.266   9.337  0.2541 -0.1294  0.8663
41657SOL    HW128248   3.129  10.340   9.276  0.3202 -1.4125 -0.7617
41657SOL    HW228249   3.071  10.290   9.406 -2.3731  0.0682 -1.3223
41658SOL     OW28250  10.913  10.895   8.807 -0.3565 -0.4863  0.6587
41658SOL    HW128251  10.853  10.960   8.841 -1.6876 -1.5795  0.4828
41658SOL    HW228252  10.898  10.895   8.713  0.5666 -0.1597  0.4984
41659SOL     OW28253   4.058   4.080   6.853  0.1108  0.6670  0.2610
41659SOL    HW128254   4.024   4.169   6.845  1.4012  1.1085 -0.5776
41659SOL    HW228255   4.074   4.069   6.947 -2.7579  0.2288  0.8015
41660SOL     OW28256   4.079   4.072   7.195  0.2576  0.0112  0.3259
41660SOL    HW128257   4.070   3.987   7.238 -1.5004 -0.7431 -1.3725
41660SOL    HW228258   4.007   4.124   7.230  1.3061  0.8295  1.3304
41661SOL     OW28259   6.871   6.805  10.671 -0.2310  0.5692  0.0096
41661SOL    HW128260   6.950   6.754  10.653  0.6632  1.6357  0.7182
41661SOL    HW228261   6.825   6.755  10.739 -0.0513  0.0425 -0.2564
41662SOL     OW28262  10.599   3.321   5.414 -0.0122 -0.1040 -0.4197
41662SOL    HW128263  10.652   3.343   5.337 -0.1593 -0.9669 -0.7754
41662SOL    HW228264  10.509   3.320   5.382 -0.3945  2.1753  0.3542
41663SOL     OW28265   4.811   9.302   3.998  0.4808 -0.3279 -0.4437
41663SOL    HW128266   4.755   9.224   3.997 -0.3195  0.2360 -0.9501
41663SOL    HW228267   4.834   9.314   4.090  1.4311 -1.7225 -0.4651
41664SOL     OW28268   9.112   5.705   6.560 -0.5116 -0.0463 -0.4400
41664SOL    HW128269   9.124   5.761   6.637 -0.5601 -1.1839  0.4108
41664SOL    HW228270   9.051   5.754   6.505  0.0024  1.0691 -0.0572
41665SOL     OW28271   7.352   6.997   1.834  0.4844 -0.6602  0.3974
41665SOL    HW128272   7.258   6.986   1.849  0.6827 -0.3626  2.0973
41665SOL    HW228273   7.374   6.932   1.768 -1.1553  0.2144 -1.1050
41666SOL     OW28274   4.804   6.567   2.956  0.1300 -0.0948 -0.4162
41666SOL    HW128275   4.839   6.636   3.011  2.2646 -0.8630 -0.6933
41666SOL    HW228276   4.728   6.605   2.913 -2.0165  0.3608  3.4039
41667SOL     OW28277  10.254   7.289   8.201  0.0241  0.5699  0.3152
41667SOL    HW128278  10.303   7.223   8.249 -0.1884 -0.1647 -0.4605
41667SOL    HW228279  10.316   7.323   8.137 -0.9273 -1.7825 -2.0515
41668SOL     OW28280  10.933  10.282   6.833 -0.1135  0.6717 -0.0577
41668SOL    HW128281  10.903  10.235   6.911  0.2918  0.3301 -0.1032
41668SOL    HW228282  10.963  10.367   6.866 -1.6670  1.2632 -0.0827
41669SOL     OW28283   7.724   6.435   7.132 -0.2629  0.1590 -0.0228
41669SOL    HW128284   7.762   6.521   7.110  0.3358  0.4266  1.8662
41669SOL    HW228285   7.783   6.372   7.091  0.6062  0.6256  0.4839
41670SOL     OW28286   4.961   8.950   1.877  0.0612  0.3002 -0.2376
41670SOL    HW128287   4.946   8.904   1.794  2.4411 -0.1688 -0.4893
41670SOL    HW228288   5.025   8.896   1.923 -0.7208  0.9025  1.6462
41671SOL     OW28289  11.086  11.239   4.882  0.4299  0.1724  0.1916
41671SOL    HW128290  11.108  11.332   4.875 -0.9066  0.5049 -0.0827
41671SOL    HW228291  11.130  11.198   4.808 -0.0354  0.8383 -0.4793
41672SOL     OW28292   4.219   9.659   5.950  0.3058 -0.5210  0.1668
41672SOL    HW128293   4.209   9.752   5.927 -2.9513 -1.6913 -4.8242
41672SOL    HW228294   4.313   9.646   5.958  0.8534  3.3093  2.5132
41673SOL     OW28295   5.296   7.761   9.917 -0.2556  0.6861  0.0304
41673SOL    HW128296   5.331   7.799   9.837  0.0956  0.4026  0.0492
41673SOL    HW228297   5.341   7.677   9.926 -0.0698  0.8484  0.6770
41674SOL     OW28298   0.339   9.986   2.010  1.1596  0.5870 -0.0186
41674SOL    HW128299   0.257   9.979   1.961  0.4647  0.9582  1.0386
41674SOL    HW228300   0.403  10.017   1.946  0.4366  0.4249 -0.8337
41675SOL     OW28301   4.802  10.202   4.036 -0.1393 -0.3431  0.4773
41675SOL    HW128302   4.732  10.137   4.025 -0.5669  0.0046  1.1139
41675SOL    HW228303   4.763  10.284   4.006 -0.5211  0.1513  2.2153
41676SOL     OW28304   3.958   0.528   5.157  0.2295  0.1375  0.5202
41676SOL    HW128305   3.989   0.446   5.119 -0.1059 -0.0567  0.6633
41676SOL    HW228306   3.870   0.508   5.188  0.0899  0.5954  0.4191
41677SOL     OW28307   5.565   3.009   4.632 -0.1525  0.0531  0.2128
41677SOL    HW128308   5.524   2.951   4.696  0.9063 -1.7748 -0.6866
41677SOL    HW228309   5.523   3.094   4.645 -2.5764 -1.1789  0.8195
41678SOL     OW28310   1.165   1.072   0.452  0.0171 -0.8547 -0.3214
41678SOL    HW128311   1.098   1.065   0.520  1.5417  1.0110  1.4799
41678SOL    HW228312   1.130   1.137   0.391  1.1278  2.2291  2.0318
41679SOL     OW28313   5.792  10.565   6.263  0.5688  0.9362 -0.1999
41679SOL    HW128314   5.855  10.596   6.197 -2.4878  0.8007 -3.4568
41679SOL    HW228315   5.743  10.644   6.287  1.2323  0.8583  1.5891
41680SOL     OW28316   7.319   8.544   4.412 -0.1123  0.4063 -0.2027
41680SOL    HW128317   7.248   8.570   4.353 -1.6462  0.0190  1.3483
41680SOL    HW228318   7.399   8.564   4.365 -1.2515  1.5220 -1.7712
41681SOL     OW28319   3.460  11.149   2.417  0.1662  0.0203  0.1432
41681SOL    HW128320   3.432  11.138   2.508 -1.6115  2.0425 -0.1047
41681SOL    HW228321   3.484  11.241   2.410 -1.0602  0.2492 -1.7685
41682SOL     OW28322  11.105   9.692   7.154 -0.2853  0.2165  0.5224
41682SOL    HW128323  11.039   9.745   7.199  0.5030  1.2293  0.5363
41682SOL    HW228324  11.173   9.755   7.129 -0.0712 -0.5377 -0.9092
41683SOL     OW28325   7.725   3.426   9.172 -0.2103 -0.7243  0.3365
41683SOL    HW128326   7.794   3.450   9.234  0.0579 -1.2972  0.2593
41683SOL    HW228327   7.698   3.510   9.134  1.3998 -0.6274 -0.6557
41684SOL     OW28328   5.335  11.308   3.847 -0.4003  0.2349  0.2263
41684SOL    HW128329   5.352  11.236   3.907  0.5969  0.6809  0.5153
41684SOL    HW228330   5.384  11.285   3.767 -0.4108  0.3923  0.1734
41685SOL     OW28331   8.233   4.465   7.302  0.0552  0.1338  0.0444
41685SOL    HW128332   8.245   4.548   7.256  0.4682  0.8180  1.3174
41685SOL    HW228333   8.155   4.427   7.263  1.6394 -0.4778 -2.8300
41686SOL     OW28334  10.038   1.998   5.356  0.4506 -0.9681  0.1458
41686SOL    HW128335   9.958   1.968   5.313  0.1409 -0.6167  0.4662
41686SOL    HW228336  10.015   2.083   5.393  1.8803  0.7077 -2.4934
41687SOL     OW28337   7.359   5.000   9.872  0.2471 -0.5231 -0.5040
41687SOL    HW128338   7.412   5.066   9.915 -2.2767  0.8406  0.7450
41687SOL    HW228339   7.341   4.935   9.939  0.0414 -0.7722 -0.7943
41688SOL     OW28340   6.003   5.101   9.353  0.5512  0.6334 -0.1947
41688SOL    HW128341   5.973   5.159   9.423  0.9551 -1.3237  1.7231
41688SOL    HW228342   5.925   5.050   9.329 -0.0046  2.3992 -2.4337
41689SOL     OW28343   5.334   5.262   1.117 -0.4287  0.6066  0.5672
41689SOL    HW128344   5.327   5.209   1.038 -1.7632  0.8232  0.5098
41689SOL    HW228345   5.315   5.351   1.087  1.1307  1.0312  0.7761
41690SOL     OW28346   3.010   9.238   6.844 -0.0602  0.3382  0.2529
41690SOL    HW128347   2.985   9.240   6.752  0.8658 -1.0109 -0.0562
41690SOL    HW228348   3.025   9.330   6.867 -1.4940  0.8140 -0.5736
41691SOL     OW28349  10.847   0.370   3.993  0.3278  0.0963  0.5614
41691SOL    HW128350  10.843   0.283   4.033 -0.0727 -0.0354  0.2434
41691SOL    HW228351  10.911   0.361   3.923 -0.4839 -0.2470 -0.1675
41692SOL     OW28352   6.701   1.229   4.395 -0.1605 -0.4566 -0.6913
41692SOL    HW128353   6.773   1.283   4.427  1.3303 -1.0405 -2.8490
41692SOL    HW228354   6.638   1.290   4.358  0.2228 -0.0543 -0.6768
41693SOL     OW28355  10.770   0.538   4.200 -0.2693  0.0456 -0.3037
41693SOL    HW128356  10.819   0.477   4.144  0.5250 -1.6283  2.0468
41693SOL    HW228357  10.747   0.610   4.142  3.2718 -0.0085 -2.0691
41694SOL     OW28358   4.309   5.758   7.786 -0.2766  0.1171  0.0483
41694SOL    HW128359   4.342   5.673   7.756  0.7974  0.6512 -0.3787
41694SOL    HW228360   4.218   5.760   7.758 -0.5723 -1.2465  0.8565
41695SOL     OW28361   9.547   9.655   9.424  0.2627 -0.1223  0.2985
41695SOL    HW128362   9.628   9.625   9.466  0.1039 -1.7826 -0.4920
41695SOL    HW228363   9.477   9.622   9.481  0.0532 -2.2185 -1.0583
41696SOL     OW28364  11.335   2.887  10.967  0.1310 -0.1322  0.4747
41696SOL    HW128365  11.249   2.925  10.953  1.0094  1.8553  0.2526
41696SOL    HW228366  11.394   2.938  10.912  1.4119 -1.7585  0.2416
41697SOL     OW28367  10.053  11.192   3.457 -0.2449 -0.2144  0.1198
41697SOL    HW128368  10.102  11.262   3.501 -0.4392  0.3337 -0.5137
41697SOL    HW228369  10.087  11.192   3.367  0.4438 -1.6040  0.3619
41698SOL     OW28370   7.341   3.675  10.142 -0.2916  0.2164  0.2693
41698SOL    HW128371   7.433   3.689  10.165 -1.1019  3.0787  2.3404
41698SOL    HW228372   7.310   3.610  10.205 -0.3996  1.6890  1.8083
41699SOL     OW28373   4.524  10.991  10.716  0.0386 -0.0671  0.5935
41699SOL    HW128374   4.475  11.001  10.797 -0.6804  1.8880 -0.0457
41699SOL    HW228375   4.611  10.961  10.744  0.2603  1.9563  2.2280
41700SOL     OW28376  10.183   3.984   8.426  0.1049 -0.7023 -0.2480
41700SOL    HW128377  10.222   3.927   8.492  1.8534  1.1940  0.4286
41700SOL    HW228378  10.221   3.954   8.343 -0.1802 -1.4646 -0.1176
41701SOL     OW28379   5.946   4.866   4.636 -0.0427  0.6002  0.2048
41701SOL    HW128380   6.027   4.820   4.611 -0.7940  0.1916 -1.6486
41701SOL    HW228381   5.937   4.849   4.730  1.2933 -0.5310  0.1664
41702SOL     OW28382   5.647  10.240   2.157  0.9016 -0.1422 -0.0421
41702SOL    HW128383   5.672  10.312   2.215  1.2580 -0.2090 -0.1129
41702SOL    HW228384   5.599  10.179   2.214 -0.4633  0.7127 -0.2321
41703SOL     OW28385   6.726   4.279   6.586 -0.1091  0.0248 -0.2703
41703SOL    HW128386   6.816   4.247   6.597  0.4656  2.2094  2.6060
41703SOL    HW228387   6.671   4.210   6.622  0.5366 -0.5903 -0.4429
41704SOL     OW28388   4.980   3.852   7.096 -0.0449 -0.3521  0.2154
41704SOL    HW128389   5.031   3.916   7.045  2.7615 -1.7428  1.0469
41704SOL    HW228390   5.018   3.858   7.184  0.6641 -3.4176  0.2120
41705SOL     OW28391   1.586   5.057   6.806  0.6490  0.5901 -0.1153
41705SOL    HW128392   1.566   5.015   6.722 -1.9280  0.2197  0.5873
41705SOL    HW228393   1.534   5.138   6.805  0.8329  0.7362  0.9901
41706SOL     OW28394   8.390   3.819   6.426 -0.5548 -0.0178  0.1109
41706SOL    HW128395   8.356   3.751   6.368  0.2581 -0.0595 -0.3418
41706SOL    HW228396   8.339   3.897   6.404 -1.7486 -0.5575  0.8976
41707SOL     OW28397   6.863   3.591   5.122 -0.1276 -0.0741 -0.7072
41707SOL    HW128398   6.874   3.686   5.111  1.4052 -0.0691  0.4629
41707SOL    HW228399   6.952   3.558   5.137 -0.5219 -1.8392 -1.9202
41708SOL     OW28400   7.438   4.903   1.591  0.1582 -0.1770 -0.3045
41708SOL    HW128401   7.520   4.954   1.585  0.4418 -0.5460  0.4182
41708SOL    HW228402   7.398   4.932   1.672  0.5197 -1.3887  0.3251
41709SOL     OW28403   1.897   4.439   2.317  0.6413 -0.0912  0.0090
41709SOL    HW128404   1.988   4.465   2.330  0.0020  1.0966  3.2375
41709SOL    HW228405   1.896   4.345   2.333  1.1675  0.0975  1.2764
41710SOL     OW28406   8.248   2.973   4.935 -0.4370  0.8241  0.1834
41710SOL    HW128407   8.155   2.953   4.919 -0.2413 -0.7764  0.8840
41710SOL    HW228408   8.294   2.931   4.861 -0.0337 -1.3993  1.5933
41711SOL     OW28409   6.092   5.335   0.302 -0.9327 -0.1828  0.6016
41711SOL    HW128410   6.142   5.355   0.222  1.8660  2.4551  2.7711
41711SOL    HW228411   6.102   5.241   0.313  2.2703 -0.0429 -0.0328
41712SOL     OW28412   4.181   3.764   0.871  0.6605 -0.0968  0.4538
41712SOL    HW128413   4.235   3.792   0.945 -1.0449 -0.1335  1.7815
41712SOL    HW228414   4.164   3.844   0.822  1.4743 -0.0045  0.2997
41713SOL     OW28415   8.800   4.060   3.883 -0.2201 -0.1215  0.0274
41713SOL    HW128416   8.727   4.002   3.901 -0.9884  0.4227 -1.1876
41713SOL    HW228417   8.806   4.063   3.787 -1.6248  3.4146 -0.0972
41714SOL     OW28418  10.404   4.189   2.975  0.4276 -0.4578 -0.4133
41714SOL    HW128419  10.425   4.276   3.011  0.5173 -0.6154 -0.0764
41714SOL    HW228420  10.489   4.154   2.947  0.3534 -0.3241 -0.8087
41715SOL     OW28421  10.161   7.059  11.013  0.4506  0.0281 -0.0283
41715SOL    HW128422  10.233   7.119  10.992  1.5069 -0.7311  1.2831
41715SOL    HW228423  10.194   7.005  11.085 -0.9644 -1.2322 -0.2650
41716SOL     OW28424   8.584   8.981  10.605  0.0487  0.0433 -0.3494
41716SOL    HW128425   8.564   8.908  10.547 -2.0438 -0.8321  1.3421
41716SOL    HW228426   8.577   9.058  10.549  0.5499 -0.9250 -1.7826
41717SOL     OW28427   8.768   2.596   1.728  0.5261  0.3556 -0.2198
41717SOL    HW128428   8.707   2.572   1.798 -0.5535  2.4944 -0.3280
41717SOL    HW228429   8.839   2.643   1.773  0.7101  0.2302 -0.3777
41718SOL     OW28430   8.997   5.661   7.090  0.2596  0.5155  0.4040
41718SOL    HW128431   8.947   5.596   7.042  1.0705  0.4337 -0.3531
41718SOL    HW228432   9.031   5.720   7.023 -2.8021  3.4933  1.2457
41719SOL     OW28433   6.192   1.161   5.537  0.6641  0.0524  0.7777
41719SOL    HW128434   6.126   1.097   5.513  0.0512  1.5335 -1.8925
41719SOL    HW228435   6.264   1.145   5.476 -0.1893  2.8092 -1.1524
41720SOL     OW28436   0.563   9.234   4.169  0.1112 -0.3083 -0.2843
41720SOL    HW128437   0.576   9.328   4.181  0.7397 -0.3495 -0.5921
41720SOL    HW228438   0.646   9.203   4.132 -0.2704 -0.8953 -0.6605
41721SOL     OW28439   2.878   0.319  11.082  0.7595  0.7612  0.1293
41721SOL    HW128440   2.906   0.240  11.035  1.0119  0.4338  0.8057
41721SOL    HW228441   2.846   0.378  11.014  0.2747 -0.0478 -0.3517
41722SOL     OW28442   2.088   1.008   7.720 -0.0295  0.2536 -0.6283
41722SOL    HW128443   2.107   1.098   7.746  2.7746 -0.4523  0.1729
41722SOL    HW228444   2.139   0.995   7.640 -0.8756 -0.4628 -1.0645
41723SOL     OW28445   3.875  10.890   7.157 -0.2222  0.6349  0.5972
41723SOL    HW128446   3.832  10.838   7.224 -1.4250  2.7794  1.5772
41723SOL    HW228447   3.964  10.903   7.190 -0.7940  1.6442  1.8056
41724SOL     OW28448   5.207   4.512   5.502  0.3265 -0.2942  0.2849
41724SOL    HW128449   5.228   4.601   5.531 -0.2161 -0.3180  0.7821
41724SOL    HW228450   5.273   4.457   5.545  0.8708 -0.1048 -0.2931
41725SOL     OW28451   3.092  11.114   0.115  0.3772  0.1876 -0.5525
41725SOL    HW128452   3.004  11.086   0.092 -0.1812  0.2551  1.3309
41725SOL    HW228453   3.150  11.048   0.077 -0.4950 -0.0690 -1.4679
41726SOL     OW28454   1.169   2.899  10.008  0.0647 -0.2484 -0.2000
41726SOL    HW128455   1.165   2.990  10.034 -0.1371  0.0610 -1.2480
41726SOL    HW228456   1.077   2.874   9.993  0.1164 -0.6279  0.1135
41727SOL     OW28457  10.573   5.996   3.474  0.4741 -0.4739  0.5103
41727SOL    HW128458  10.631   5.986   3.399 -0.0262  0.2985  0.0102
41727SOL    HW228459  10.521   6.074   3.454 -0.8017 -1.1957  0.9048
41728SOL     OW28460   3.016   0.366   5.928  0.4192 -0.3652  0.6541
41728SOL    HW128461   3.054   0.283   5.958  0.4126 -0.4383  0.4582
41728SOL    HW228462   3.057   0.432   5.984  1.4336 -0.3608 -0.0685
41729SOL     OW28463   2.616   5.171   6.855 -0.0534  0.2417  0.0728
41729SOL    HW128464   2.557   5.142   6.925  1.3814 -2.0793  0.4128
41729SOL    HW228465   2.618   5.097   6.794  1.1188  1.0087 -0.8495
41730SOL     OW28466   7.350   6.810  11.190 -0.0377 -0.1431  0.3087
41730SOL    HW128467   7.433   6.850  11.216  0.0336 -0.0847 -0.0055
41730SOL    HW228468   7.310   6.873  11.130 -0.2205 -0.2554  0.3110
41731SOL     OW28469   5.930   9.392   5.356 -0.4267 -0.4767  0.3157
41731SOL    HW128470   5.955   9.310   5.399  1.9784  1.1169  2.2140
41731SOL    HW228471   5.896   9.447   5.427 -1.0514  0.5371 -0.7254
41732SOL     OW28472   9.521   6.587   1.950 -0.3723 -0.6548 -0.6392
41732SOL    HW128473   9.538   6.646   1.877 -1.0821 -0.0220 -0.3108
41732SOL    HW228474   9.562   6.504   1.925  0.1420 -0.1914 -1.3596
41733SOL     OW28475  11.313  10.020   3.253 -0.7003 -0.3391  0.3658
41733SOL    HW128476  11.393  10.033   3.305 -0.2223  1.1173 -0.6714
41733SOL    HW228477  11.327   9.937   3.208 -0.6025 -1.0278  1.6123
41734SOL     OW28478   1.162   1.585   9.613 -0.1436  0.2742 -0.3205
41734SOL    HW128479   1.069   1.606   9.602 -0.4517 -0.0105  1.4238
41734SOL    HW228480   1.208   1.646   9.555 -1.2491  2.6585  1.1530
41735SOL     OW28481  10.843   2.741  11.078  0.2877 -0.0099 -0.3194
41735SOL    HW128482  10.871   2.826  11.044  1.0785 -0.4262 -0.7392
41735SOL    HW228483  10.749   2.738  11.063  0.7031 -0.6483 -3.5884
41736SOL     OW28484   0.342   5.184  10.278 -0.3701  0.3072  0.7148
41736SOL    HW128485   0.358   5.226  10.363  0.8884  0.5891  0.3587
41736SOL    HW228486   0.351   5.255  10.214  2.7509 -0.5532  0.0043
41737SOL     OW28487   9.956   7.958   4.067  0.0057  0.1104 -0.1112
41737SOL    HW128488   9.941   7.990   4.156 -1.4545  2.4230 -1.1024
41737SOL    HW228489  10.050   7.966   4.054 -0.0343  2.0635  0.4655
41738SOL     OW28490   3.697   1.806   0.128 -0.5276  0.1481 -0.2069
41738SOL    HW128491   3.765   1.870   0.148  1.3205 -1.5770 -0.6852
41738SOL    HW228492   3.617   1.858   0.119  0.6426  2.2142  0.6643
41739SOL     OW28493   0.222   4.556   7.227 -0.4465 -0.7048  0.3846
41739SOL    HW128494   0.151   4.597   7.276  1.1659  1.8913  0.7074
41739SOL    HW228495   0.280   4.521   7.294 -0.2648 -0.7879  0.1854
41740SOL     OW28496   7.269   3.277   0.203  0.6182 -0.4445 -0.5613
41740SOL    HW128497   7.311   3.195   0.229 -0.5984 -1.2061 -0.9254
41740SOL    HW228498   7.176   3.262   0.216  0.4429  1.4409  0.8811
41741SOL     OW28499   8.203   8.583   5.344  0.2566 -0.4350  0.1742
41741SOL    HW128500   8.275   8.640   5.368  0.2650  0.2314 -1.2993
41741SOL    HW228501   8.144   8.585   5.419  1.3995 -0.4021  1.0952
41742SOL     OW28502   7.043   2.813   9.180 -0.1261 -0.0490 -0.4659
41742SOL    HW128503   7.002   2.777   9.102 -1.1761  0.2972 -0.0945
41742SOL    HW228504   7.015   2.754   9.251  0.4341 -0.0963 -0.2817
41743SOL     OW28505   2.265   4.821  10.156 -0.2430  0.1076  0.2942
41743SOL    HW128506   2.244   4.914  10.164 -0.0513  0.1922 -0.1202
41743SOL    HW228507   2.200   4.776  10.209  1.1607  0.6218  2.5830
41744SOL     OW28508   6.711   4.575   0.742 -0.0693 -0.0180  0.9458
41744SOL    HW128509   6.654   4.648   0.766 -0.5332 -0.6823  1.9158
41744SOL    HW228510   6.750   4.547   0.824 -0.2610 -1.1586  0.6662
41745SOL     OW28511   0.726   8.783   8.893  0.2739  0.1215  0.0885
41745SOL    HW128512   0.725   8.699   8.939  0.2602  0.1532  0.1468
41745SOL    HW228513   0.813   8.788   8.853 -0.2176 -0.5800 -1.1209
41746SOL     OW28514   8.022   1.350   7.216  0.0853  0.4808 -0.7759
41746SOL    HW128515   8.039   1.266   7.173 -3.5270 -0.1918 -1.1672
41746SOL    HW228516   8.044   1.335   7.308  0.9006 -0.3729 -1.0888
41747SOL     OW28517   4.042  10.824  11.017  0.2353 -0.1766  0.0730
41747SOL    HW128518   4.052  10.747  11.073  0.1872  1.4750  2.5288
41747SOL    HW228519   4.016  10.789  10.932  0.4968 -2.8611  1.0094
41748SOL     OW28520   4.746   7.634   7.645 -0.3596  0.4082  0.3399
41748SOL    HW128521   4.834   7.601   7.660  0.0061  0.8808 -0.7053
41748SOL    HW228522   4.759   7.721   7.609 -1.2435  0.2431 -0.4038
41749SOL     OW28523   8.976   1.383   1.260 -0.1384 -0.2580 -0.1451
41749SOL    HW128524   8.965   1.319   1.330  0.0598 -0.9547 -0.7256
41749SOL    HW228525   8.982   1.329   1.180  0.4880  0.4592 -0.5978
41750SOL     OW28526   8.418   6.327   9.145 -0.1025  0.2287 -0.2062
41750SOL    HW128527   8.405   6.412   9.103  0.0470 -0.7727 -2.3919
41750SOL    HW228528   8.346   6.272   9.112  0.2827 -0.7293  0.4958
41751SOL     OW28529   8.585   0.205   6.692  0.1793  0.3115 -0.0415
41751SOL    HW128530   8.530   0.140   6.737 -0.1420  0.5240 -0.1289
41751SOL    HW228531   8.661   0.155   6.662 -0.3665 -0.1596 -0.6643
41752SOL     OW28532   5.533   8.621   9.644  0.3350 -0.5366 -0.1355
41752SOL    HW128533   5.469   8.601   9.712  0.6809 -0.4031  0.2348
41752SOL    HW228534   5.552   8.715   9.656  0.1426 -0.4298 -0.6350
41753SOL     OW28535  10.957   3.759   8.033  0.1700 -0.4193 -0.0375
41753SOL    HW128536  10.895   3.688   8.018 -0.3412  0.2206 -1.1625
41753SOL    HW228537  11.024   3.722   8.090 -0.1356 -1.7615 -0.5153
41754SOL     OW28538   2.493   4.568   1.842 -0.0268  0.3591 -0.3598
41754SOL    HW128539   2.563   4.511   1.873 -0.3389  0.4060  0.4640
41754SOL    HW228540   2.525   4.603   1.759  0.1512 -1.0411 -0.9081
41755SOL     OW28541   3.201  10.594   4.069  0.1718 -0.1198 -0.7100
41755SOL    HW128542   3.267  10.650   4.109  0.1082 -0.7279  0.2868
41755SOL    HW228543   3.153  10.652   4.010 -1.4751  1.5515  2.0493
41756SOL     OW28544   1.000   9.310   8.329  0.3334  0.8121 -0.1104
41756SOL    HW128545   0.957   9.314   8.414  1.4992  0.2155  0.5444
41756SOL    HW228546   0.929   9.310   8.265 -0.6818 -1.1566  0.9428
41757SOL     OW28547   2.865   2.559   8.163  0.0381  0.0781 -0.1514
41757SOL    HW128548   2.796   2.533   8.101 -0.0858  0.8038 -0.3257
41757SOL    HW228549   2.822   2.555   8.249 -0.3092  0.7978 -0.2863
41758SOL     OW28550   9.883   9.718   7.227 -0.3587  0.3941  0.3107
41758SOL    HW128551   9.834   9.800   7.232  0.8360  1.2175 -0.7788
41758SOL    HW228552   9.864   9.683   7.141 -0.6923 -0.3716  0.6914
41759SOL     OW28553   5.332  10.490  10.020 -0.0149  0.1719  0.0184
41759SOL    HW128554   5.308  10.536   9.939 -1.5943  0.3060  0.5280
41759SOL    HW228555   5.428  10.488  10.019  0.0087  0.7842 -1.5094
41760SOL     OW28556   8.010   9.359   2.033 -0.7134 -0.7818  0.4236
41760SOL    HW128557   8.054   9.334   2.114  0.5787  1.7211  0.6093
41760SOL    HW228558   7.972   9.445   2.053  1.0748  0.7119 -2.0200
41761SOL     OW28559   7.296   7.813   4.649 -0.7153  0.1322 -0.3837
41761SOL    HW128560   7.288   7.719   4.633 -0.0188 -0.3778  1.8497
41761SOL    HW228561   7.206   7.845   4.649 -1.4244 -1.4079  2.9869
41762SOL     OW28562   0.900  10.997   6.064 -0.3084 -0.2223 -0.1692
41762SOL    HW128563   0.833  10.992   5.996 -0.2497  0.9687 -0.3360
41762SOL    HW228564   0.957  11.069   6.036 -0.3070  0.3236  1.1461
41763SOL     OW28565   2.445   5.934   1.606  0.2061 -0.3309  0.1099
41763SOL    HW128566   2.386   5.886   1.547  0.0861 -0.8675  0.6552
41763SOL    HW228567   2.444   6.023   1.573 -0.5123 -0.4479 -0.2057
41764SOL     OW28568   2.306  10.249   5.865  0.2258 -0.0887 -0.0244
41764SOL    HW128569   2.316  10.293   5.781 -0.0713  0.0852  0.0303
41764SOL    HW228570   2.212  10.232   5.873 -0.0893  1.8735  1.2556
41765SOL     OW28571   8.925   9.015   7.556  0.7467 -0.4403 -0.2194
41765SOL    HW128572   8.875   9.060   7.624  2.1720 -0.6004  0.9789
41765SOL    HW228573   8.972   9.085   7.512 -0.9048 -0.2145 -1.7445
41766SOL     OW28574   4.345  10.294   1.690  0.3511  0.0639  0.1508
41766SOL    HW128575   4.322  10.346   1.767 -2.7359 -0.4764 -0.2810
41766SOL    HW228576   4.355  10.205   1.723  0.3705  0.0543  0.1194
41767SOL     OW28577  11.061   5.159   1.496 -0.1648  0.1970  0.4832
41767SOL    HW128578  10.980   5.206   1.512  1.2476  3.0500 -0.0472
41767SOL    HW228579  11.130   5.217   1.529  1.8235 -0.8195 -1.5673
41768SOL     OW28580   8.659  10.633  10.243  0.6063 -0.3838  0.2948
41768SOL    HW128581   8.698  10.548  10.264  1.8275  0.0443 -0.1384
41768SOL    HW228582   8.566  10.622  10.264  0.7508 -1.7877  0.3466
41769SOL     OW28583   0.955   1.012   7.669  0.5121  0.5920  0.1923
41769SOL    HW128584   0.982   1.082   7.729  0.1278 -0.2756  1.4045
41769SOL    HW228585   1.037   0.981   7.630  0.5829  2.7132 -1.5722
41770SOL     OW28586   0.877   3.317   3.188 -0.2398 -0.2644  0.3250
41770SOL    HW128587   0.830   3.379   3.133  0.8348 -0.5104 -0.9346
41770SOL    HW228588   0.824   3.237   3.185 -0.0345 -0.3905 -0.7017
41771SOL     OW28589   2.073   4.318   8.822 -0.4533 -0.4454 -0.0368
41771SOL    HW128590   2.033   4.394   8.780 -0.8046  0.6398  2.1224
41771SOL    HW228591   1.999   4.259   8.838 -0.4172 -0.5817 -0.3679
41772SOL     OW28592   4.869   9.822   7.169 -0.4978 -0.1186  0.6464
41772SOL    HW128593   4.827   9.907   7.183  0.7920  0.4144  1.5858
41772SOL    HW228594   4.853   9.802   7.077 -3.9496 -0.6456  1.2293
41773SOL     OW28595  11.043   6.647   0.613  0.6790  0.3023  0.3251
41773SOL    HW128596  11.113   6.689   0.564  0.3546  1.4277  0.7951
41773SOL    HW228597  10.977   6.625   0.547  1.0070  0.2145  0.0245
41774SOL     OW28598   2.019   7.536   9.610 -0.1847 -0.2646  0.0898
41774SOL    HW128599   2.060   7.450   9.601  0.5854  0.2192 -1.1708
41774SOL    HW228600   2.082   7.598   9.573 -2.0542  0.4894 -2.0937
41775SOL     OW28601   0.870   1.868   1.977 -0.0867 -0.5828 -0.6682
41775SOL    HW128602   0.842   1.835   1.892 -2.8963  1.2235 -0.5618
41775SOL    HW228603   0.818   1.946   1.991  1.1536 -0.1392  2.2250
41776SOL     OW28604   6.802   3.859   7.340 -0.3443  0.5943  0.0220
41776SOL    HW128605   6.882   3.910   7.347  0.4180 -0.6488  0.8732
41776SOL    HW228606   6.831   3.774   7.305 -1.2044 -0.0354  0.7891
41777SOL     OW28607   0.146  10.662   0.263 -0.4422 -0.8612  0.3515
41777SOL    HW128608   0.169  10.716   0.187 -1.6292 -1.8558 -0.7613
41777SOL    HW228609   0.225  10.610   0.280  0.1660  0.0623  0.4440
41778SOL     OW28610   4.080   9.385   1.315 -0.3529  0.5600 -0.3375
41778SOL    HW128611   4.027   9.353   1.242  1.1198 -3.1342  0.0266
41778SOL    HW228612   4.032   9.356   1.393  1.3522 -1.6264 -0.0035
41779SOL     OW28613   0.504   6.684   4.853  0.5904  0.1596  0.1548
41779SOL    HW128614   0.529   6.680   4.946 -0.9663 -0.0077  0.6003
41779SOL    HW228615   0.563   6.622   4.810  1.2767  0.1683  1.0374
41780SOL     OW28616   2.549   2.015   5.165  0.6163 -0.3888 -0.0478
41780SOL    HW128617   2.460   2.031   5.133  0.3740  0.0449  0.8358
41780SOL    HW228618   2.603   2.013   5.085  0.3887  2.9050 -0.4083
41781SOL     OW28619   8.001   6.189   5.555 -0.0951 -0.3435 -0.2607
41781SOL    HW128620   7.905   6.178   5.553 -0.1603  0.1662  0.0750
41781SOL    HW228621   8.031   6.138   5.479 -0.5986 -0.8089 -0.1596
41782SOL     OW28622   6.389   1.453   8.763  0.0581  0.2011  0.0661
41782SOL    HW128623   6.423   1.495   8.685  1.0578 -0.6901 -0.0039
41782SOL    HW228624   6.459   1.462   8.828 -1.4542  2.5644  1.5066
41783SOL     OW28625   0.477   3.232   2.096 -0.4586 -0.8590  0.3363
41783SOL    HW128626   0.396   3.181   2.093 -1.3189  0.4943 -0.6533
41783SOL    HW228627   0.486   3.267   2.007  1.5891 -1.5143  0.2398
41784SOL     OW28628   8.111   1.952   7.888 -0.0049 -0.2217 -0.2680
41784SOL    HW128629   8.199   1.985   7.870  0.0470  1.2750  2.2943
41784SOL    HW228630   8.124   1.878   7.948 -0.4706 -0.3534 -0.3210
41785SOL     OW28631  11.028   7.387   6.637  0.1754 -0.2916  0.5627
41785SOL    HW128632  11.013   7.482   6.641  0.4600 -0.2299  0.1532
41785SOL    HW228633  11.113   7.377   6.594 -1.2749 -0.7995 -2.5152
41786SOL     OW28634  10.084   3.092   2.534 -0.0412 -0.6515  0.1158
41786SOL    HW128635  10.055   3.043   2.457 -1.0133 -1.7304  1.1338
41786SOL    HW228636  10.166   3.049   2.560  1.6064  1.2138 -1.6537
41787SOL     OW28637   9.124   7.136   0.261 -0.1628  0.0461  0.2718
41787SOL    HW128638   9.202   7.153   0.209 -0.2784 -1.1077 -0.3282
41787SOL    HW228639   9.157   7.119   0.349  0.6346 -3.1479 -0.5065
41788SOL     OW28640   3.954   0.233   8.552 -0.2944  0.7712 -0.6768
41788SOL    HW128641   3.871   0.252   8.508 -1.1858 -1.4783 -0.0699
41788SOL    HW228642   3.935   0.158   8.608  2.1077  0.3649 -0.3176
41789SOL     OW28643   3.678   6.749  10.092 -0.1539  0.1843 -0.2412
41789SOL    HW128644   3.672   6.837  10.130  4.2179  0.5718  0.0887
41789SOL    HW228645   3.668   6.763   9.998 -1.7572  0.6030 -0.0461
41790SOL     OW28646   1.404   1.557  10.830 -0.3004 -0.2184 -0.8893
41790SOL    HW128647   1.410   1.616  10.755  1.9917  0.6973 -0.0861
41790SOL    HW228648   1.310   1.545  10.844 -0.8731  2.7915 -1.4597
41791SOL     OW28649   1.747   6.276   9.840 -0.2225 -0.4257  0.2268
41791SOL    HW128650   1.734   6.369   9.857  0.5962 -0.5901  2.0036
41791SOL    HW228651   1.664   6.236   9.868  0.3249 -0.4544  1.9428
41792SOL     OW28652   8.017   9.837   9.151  0.5054  0.3723  0.4825
41792SOL    HW128653   7.997   9.760   9.204 -0.1818 -0.5022 -0.9857
41792SOL    HW228654   8.108   9.859   9.174  0.8483 -1.1097  0.6559
41793SOL     OW28655  10.564   0.690  10.957 -0.0054 -0.7361 -0.1296
41793SOL    HW128656  10.652   0.673  10.991  0.7063 -0.3536 -1.6774
41793SOL    HW228657  10.579   0.737  10.875 -1.6189 -1.6328 -0.9841
41794SOL     OW28658   9.930  10.648   7.698 -0.0560 -0.0308  0.5415
41794SOL    HW128659   9.970  10.595   7.629 -1.0555  0.6715 -0.6123
41794SOL    HW228660   9.976  10.732   7.692  0.9415 -0.4450  1.8093
41795SOL     OW28661  10.941   9.914   1.779  0.0917 -0.1761 -0.6641
41795SOL    HW128662  10.858   9.865   1.775  0.6368 -1.4261  1.4784
41795SOL    HW228663  10.999   9.868   1.719 -0.5863  0.4361 -1.8369
41796SOL     OW28664   2.459   3.856   2.103 -0.1152  0.1505 -0.1463
41796SOL    HW128665   2.486   3.767   2.125  1.3327  0.8817  1.2553
41796SOL    HW228666   2.540   3.899   2.074 -0.6254  1.2228 -0.0297
41797SOL     OW28667   6.842   7.746   0.776  0.0186  0.3614 -0.0255
41797SOL    HW128668   6.835   7.793   0.860 -0.9578  2.1054 -1.0224
41797SOL    HW228669   6.936   7.739   0.761  0.2046  0.3750  1.0193
41798SOL     OW28670   9.955   1.242   1.897  1.1450  0.6449  0.7498
41798SOL    HW128671  10.022   1.224   1.962  0.7445  2.0503  1.5969
41798SOL    HW228672  10.003   1.280   1.823  1.7911 -2.2254 -0.4436
41799SOL     OW28673   6.488   1.366   4.219  0.0416  0.0676 -0.3781
41799SOL    HW128674   6.431   1.437   4.191  0.3192  0.4010 -0.1125
41799SOL    HW228675   6.479   1.300   4.151  0.5621  0.7844 -1.1737
41800SOL     OW28676   9.323   0.674   1.183  0.3400  0.1204  0.4202
41800SOL    HW128677   9.401   0.728   1.198 -0.5871  1.5934  0.0537
41800SOL    HW228678   9.267   0.727   1.127 -0.5267 -1.3145 -0.1156
41801SOL     OW28679   3.484   6.527   6.736  0.1382 -0.4736 -0.4223
41801SOL    HW128680   3.451   6.463   6.673 -1.6259 -0.4146  0.3523
41801SOL    HW228681   3.438   6.608   6.714 -0.1801 -0.3440  0.6228
41802SOL     OW28682   1.032  10.268   5.144  0.3585  0.3216  0.1190
41802SOL    HW128683   0.938  10.276   5.156  0.0205 -1.4704 -1.0006
41802SOL    HW228684   1.054  10.335   5.080 -0.0497  1.0717  0.7466
41803SOL     OW28685   2.490   3.075   4.123  0.2235  0.3797  0.4540
41803SOL    HW128686   2.512   3.020   4.048  1.5066  2.2887 -0.6547
41803SOL    HW228687   2.540   3.038   4.195  0.6321 -0.2264 -0.1226
41804SOL     OW28688   4.673   5.746   1.969  0.1418 -0.4899  0.3216
41804SOL    HW128689   4.627   5.804   1.908 -1.0409 -0.2662  1.3920
41804SOL    HW228690   4.681   5.664   1.921 -0.3858 -0.1893 -0.3084
41805SOL     OW28691   7.890   4.470   5.873 -0.2764 -0.4544  0.1017
41805SOL    HW128692   7.912   4.437   5.785 -3.8134  1.1297 -1.5740
41805SOL    HW228693   7.813   4.421   5.899  1.1759 -1.4823  2.8446
41806SOL     OW28694   5.250   0.605  11.026  0.0579  0.4833  0.6535
41806SOL    HW128695   5.345   0.614  11.032  0.3370 -0.8780 -0.9020
41806SOL    HW228696   5.220   0.602  11.117  1.5015  0.8562  1.1688
41807SOL     OW28697   9.182  11.036   6.436 -0.4141  0.2098  0.3067
41807SOL    HW128698   9.269  11.032   6.397 -1.2707  1.2894 -1.8526
41807SOL    HW228699   9.176  10.956   6.489  0.0947 -2.5544 -3.4312
41808SOL     OW28700   0.945   6.850   0.674 -0.5235  0.1372  0.0716
41808SOL    HW128701   1.034   6.882   0.686 -0.2169 -1.6730  3.9352
41808SOL    HW228702   0.956   6.761   0.638 -0.6950 -0.3183  1.1124
41809SOL     OW28703   4.125   4.919   5.940  0.2781  0.3848 -0.6245
41809SOL    HW128704   4.086   4.947   6.023  1.0202 -0.5803  0.0705
41809SOL    HW228705   4.072   4.844   5.912  2.8061 -2.4117  1.4715
41810SOL     OW28706   3.708   4.184   0.299  0.6272 -0.6663  0.1317
41810SOL    HW128707   3.696   4.157   0.208  1.5914 -2.3963  0.4734
41810SOL    HW228708   3.803   4.189   0.310  0.5412 -1.1101  1.1889
41811SOL     OW28709   9.006   5.271   0.783  0.0514 -0.3116  0.0416
41811SOL    HW128710   9.100   5.256   0.799  0.0731 -2.0695 -1.3582
41811SOL    HW228711   8.962   5.210   0.843 -0.1301 -0.7500 -0.5345
41812SOL     OW28712   0.828   5.120   5.535  0.3353  0.0248  0.9266
41812SOL    HW128713   0.773   5.170   5.595 -0.9748  0.1107 -0.3028
41812SOL    HW228714   0.840   5.177   5.459  0.6147 -0.7004  0.4079
41813SOL     OW28715   9.472   2.129  10.579 -0.4833 -0.0547 -0.4222
41813SOL    HW128716   9.402   2.195  10.578 -0.1466  0.3097 -0.2366
41813SOL    HW228717   9.463   2.084  10.495 -0.3097  0.6677 -0.8380
41814SOL     OW28718   3.331   0.854  10.598 -0.4399 -0.0084  0.2520
41814SOL    HW128719   3.289   0.858  10.685 -0.0023  0.9462  0.4282
41814SOL    HW228720   3.332   0.944  10.568 -0.8772 -0.3765 -0.9055
41815SOL     OW28721   5.836   0.090   0.982 -0.0308  0.1769 -0.6161
41815SOL    HW128722   5.795   0.004   0.984 -2.2287  1.1599 -0.4975
41815SOL    HW228723   5.822   0.126   1.069 -0.7151  1.3082 -1.1618
41816SOL     OW28724   0.696   3.891   3.244 -0.1834 -0.4219  0.1415
41816SOL    HW128725   0.779   3.914   3.203 -1.1423  0.6147 -1.2885
41816SOL    HW228726   0.672   3.807   3.205 -0.9972  0.4685 -1.4027
41817SOL     OW28727   0.247   1.821   3.185  0.2162 -0.3089 -0.0322
41817SOL    HW128728   0.178   1.763   3.152  0.9155 -0.4987 -1.2141
41817SOL    HW228729   0.322   1.763   3.200  0.9503  0.2601 -1.2984
41818SOL     OW28730   9.633  11.233   0.568 -0.4306  0.1511  0.2548
41818SOL    HW128731   9.656  11.209   0.479  0.3947  0.0303  0.4898
41818SOL    HW228732   9.597  11.152   0.606  0.5040 -0.1880  0.4428
41819SOL     OW28733  10.554   4.008   7.027  0.4244  0.3002  0.3580
41819SOL    HW128734  10.628   3.953   7.000  0.6377 -0.1169  1.7435
41819SOL    HW228735  10.546   4.073   6.957  2.2222  0.4574  0.2580
41820SOL     OW28736   4.686   6.339   8.414  0.2439 -0.4306 -0.1207
41820SOL    HW128737   4.721   6.268   8.467  1.0752 -0.5014 -0.7445
41820SOL    HW228738   4.736   6.416   8.440  1.3403 -0.6573 -1.4616
41821SOL     OW28739   3.104   7.078   0.233 -0.1692 -0.4380  0.5383
41821SOL    HW128740   3.061   7.047   0.153 -1.4182 -0.0416  1.0331
41821SOL    HW228741   3.194   7.096   0.206 -0.7836  0.5084 -1.0107
41822SOL     OW28742   9.736   7.630   9.292  0.1992 -0.4989 -0.1829
41822SOL    HW128743   9.681   7.637   9.370  0.0919 -0.9320 -0.2178
41822SOL    HW228744   9.717   7.543   9.257  2.3505 -1.4701  0.8886
41823SOL     OW28745   5.968   9.467   9.003  0.4572 -0.2664  0.3908
41823SOL    HW128746   5.914   9.477   9.081 -2.1779  3.6779 -1.6528
41823SOL    HW228747   5.912   9.424   8.940  0.8265  0.9054 -0.7714
41824SOL     OW28748   0.227   7.014  10.315  0.2502  0.4625  0.7173
41824SOL    HW128749   0.210   7.076  10.243  0.4862  0.0827  0.3303
41824SOL    HW228750   0.148   7.018  10.369 -0.4615 -0.1667 -0.2402
41825SOL     OW28751   4.544   4.592   3.034 -0.7057  0.5835 -0.0903
41825SOL    HW128752   4.562   4.556   2.947 -1.4751 -0.6169  0.2136
41825SOL    HW228753   4.451   4.615   3.032 -1.2511 -1.2907  0.9829
41826SOL     OW28754   7.139   5.252   6.043  0.3635  0.6119  0.0170
41826SOL    HW128755   7.231   5.240   6.065  0.3813 -0.9462 -0.7998
41826SOL    HW228756   7.139   5.330   5.986  0.7533  2.3981  2.2964
41827SOL     OW28757   5.936   3.166   8.861 -0.2957 -0.8830  0.8972
41827SOL    HW128758   5.995   3.092   8.846  2.1356  0.8137  1.6146
41827SOL    HW228759   5.923   3.204   8.774 -0.2395 -1.1837  0.7564
41828SOL     OW28760   9.392   5.557   9.812 -0.2664  0.0696  0.2214
41828SOL    HW128761   9.332   5.609   9.758 -0.8286 -0.8458 -0.0614
41828SOL    HW228762   9.365   5.575   9.902  1.0504  2.0591  0.2646
41829SOL     OW28763   9.779   8.996  10.528 -0.4248  0.0829 -0.1633
41829SOL    HW128764   9.726   9.065  10.487 -0.6358  1.0604  1.6743
41829SOL    HW228765   9.716   8.942  10.576  0.0639  0.4138  0.8731
41830SOL     OW28766   3.269   8.081   7.614 -0.6031 -0.3802 -0.3433
41830SOL    HW128767   3.227   8.026   7.680 -1.1186 -0.7473 -0.9682
41830SOL    HW228768   3.257   8.170   7.647 -0.9523 -0.5495  0.0018
41831SOL     OW28769   0.869   4.968   3.814  1.0952 -0.4402  0.2583
41831SOL    HW128770   0.864   5.056   3.777  0.7177 -0.0361  1.2325
41831SOL    HW228771   0.945   4.971   3.872  1.1378 -0.7872  0.2246
41832SOL     OW28772   9.456   0.781   1.560  0.5732  0.3364  0.3723
41832SOL    HW128773   9.482   0.817   1.645 -0.4909  0.9363  0.4582
41832SOL    HW228774   9.411   0.699   1.581 -0.2663  0.8098  0.4396
41833SOL     OW28775   9.782   3.315   2.071 -0.3233  0.3646  0.4612
41833SOL    HW128776   9.750   3.236   2.028  2.6880 -1.1121  0.6355
41833SOL    HW228777   9.704   3.365   2.091 -2.1547 -0.6963 -3.1479
41834SOL     OW28778   0.103   3.436   9.942  0.1825 -0.4937  0.3054
41834SOL    HW128779   0.190   3.412   9.911 -0.1037 -1.4267  0.1991
41834SOL    HW228780   0.118   3.471  10.030  0.6178 -1.0408  0.4551
41835SOL     OW28781   7.673   5.000   1.680 -0.3059 -0.1148  0.3133
41835SOL    HW128782   7.657   5.094   1.671 -0.3005 -0.2944 -2.2702
41835SOL    HW228783   7.680   4.986   1.775 -0.1370  2.4958  0.7667
41836SOL     OW28784   6.133   2.728   7.950 -0.2013  0.0221  0.6505
41836SOL    HW128785   6.046   2.721   7.911 -0.3470  0.4449  0.8962
41836SOL    HW228786   6.163   2.637   7.957 -0.2273 -0.0774 -0.3133
41837SOL     OW28787   6.078   8.393   0.691  0.3041 -0.2742 -0.3656
41837SOL    HW128788   6.039   8.433   0.613  0.3689  0.9636  0.2011
41837SOL    HW228789   6.135   8.324   0.657  0.1130  0.0561 -1.3991
41838SOL     OW28790   6.141   3.647  10.468  0.1991 -0.2366 -0.2681
41838SOL    HW128791   6.063   3.677  10.420  0.0843  0.6846  0.4650
41838SOL    HW228792   6.110   3.572  10.519 -0.3791  0.4932  0.4844
41839SOL     OW28793   6.088  10.648   7.199  0.0276  0.4741  0.0876
41839SOL    HW128794   6.070  10.681   7.111  0.8873 -0.1990 -0.3584
41839SOL    HW228795   6.015  10.679   7.252 -0.3045  1.2135 -0.7818
41840SOL     OW28796  10.111   6.919   5.732 -0.2091 -0.3620  0.0566
41840SOL    HW128797  10.053   6.847   5.709  0.4747 -1.0026  0.2837
41840SOL    HW228798  10.152   6.944   5.649 -1.2737  0.5334 -0.2221
41841SOL     OW28799   3.859   4.264  10.525  0.1535 -0.4701 -0.2894
41841SOL    HW128800   3.806   4.189  10.497  0.1932 -0.3526 -0.6883
41841SOL    HW228801   3.813   4.340  10.490 -1.0187 -0.1231  1.8301
41842SOL     OW28802   6.859   6.301   6.179  0.5696 -0.0049 -0.1317
41842SOL    HW128803   6.939   6.266   6.219  0.6991 -1.1534 -1.3345
41842SOL    HW228804   6.867   6.396   6.189  1.4407 -0.1636  0.9373
41843SOL     OW28805   8.555   1.199   6.682 -0.2003  1.1576  0.0194
41843SOL    HW128806   8.504   1.277   6.702 -1.2560  0.1305  1.5698
41843SOL    HW228807   8.501   1.150   6.620 -3.2776 -1.7795  4.4077
41844SOL     OW28808   0.643   9.500   5.762 -0.0888  0.0205 -0.4377
41844SOL    HW128809   0.575   9.432   5.760 -1.2417  1.1492 -1.3693
41844SOL    HW228810   0.684   9.496   5.676  1.1854 -0.7628  0.1773
41845SOL     OW28811   8.158   9.975   1.372 -0.3667  0.3063  0.0388
41845SOL    HW128812   8.172   9.884   1.398  0.3271  1.2348  3.5069
41845SOL    HW228813   8.063   9.988   1.381 -0.5579 -0.1975 -1.1036
41846SOL     OW28814   4.898   1.760   3.304  0.1117  0.7265 -0.9395
41846SOL    HW128815   4.961   1.782   3.235  0.4821  2.0559 -0.2017
41846SOL    HW228816   4.848   1.840   3.318 -0.1144  0.4117  0.1769
41847SOL     OW28817   2.432   7.274   7.599  0.0255 -0.0132  0.1907
41847SOL    HW128818   2.508   7.290   7.655 -0.2829 -0.8989  0.8861
41847SOL    HW228819   2.419   7.179   7.604 -1.5402  0.2016  0.6420
41848SOL     OW28820   1.421  11.392  10.300 -0.4671 -0.4324  0.1124
41848SOL    HW128821   1.511  11.364  10.285 -0.2979 -0.8998  1.7416
41848SOL    HW228822   1.375  11.313  10.329 -1.0507  0.0677  0.5978
41849SOL     OW28823   6.840   7.466   7.358 -0.1467  0.0244 -0.0353
41849SOL    HW128824   6.795   7.515   7.427 -0.5469 -0.1421 -0.1720
41849SOL    HW228825   6.769   7.437   7.300  0.1398 -0.2593 -0.2449
41850SOL     OW28826   5.334   5.320   9.375  0.3389 -0.0880  0.1157
41850SOL    HW128827   5.418   5.301   9.335  0.0983 -1.1225  0.0857
41850SOL    HW228828   5.354   5.337   9.467  0.4719 -1.3337  0.3291
41851SOL     OW28829   5.255   7.553   7.077  0.4821  0.3038  0.5801
41851SOL    HW128830   5.344   7.586   7.065  0.6792 -0.7821 -1.2574
41851SOL    HW228831   5.256   7.466   7.039 -1.2232  0.0228  1.0876
41852SOL     OW28832   3.277  10.902   2.666 -0.1298  0.3596 -0.4461
41852SOL    HW128833   3.285  10.900   2.570 -0.1672  0.9570 -0.4654
41852SOL    HW228834   3.278  10.995   2.688 -2.8795  0.3992 -0.0913
41853SOL     OW28835   1.101   7.171   2.466 -0.6391  0.0081 -0.2434
41853SOL    HW128836   1.081   7.166   2.559  0.5407  1.1800  0.1060
41853SOL    HW228837   1.140   7.085   2.446  0.0638  0.1113  0.6010
41854SOL     OW28838   4.808   5.458   9.164 -0.1645 -0.2103 -0.2073
41854SOL    HW128839   4.856   5.413   9.095 -0.4815 -0.4304 -0.2865
41854SOL    HW228840   4.769   5.534   9.120  0.1414 -0.0113 -0.1342
41855SOL     OW28841   1.058   1.376   9.420  0.4014 -0.0114  0.6323
41855SOL    HW128842   1.065   1.447   9.356 -1.2788  1.5788  2.0932
41855SOL    HW228843   1.072   1.418   9.505 -1.4168 -1.2089  1.6086
41856SOL     OW28844   3.638   2.831   1.338  0.0260  0.4035  0.2921
41856SOL    HW128845   3.546   2.832   1.313 -0.1791 -0.1124  1.0064
41856SOL    HW228846   3.660   2.738   1.348  0.9918  0.4351 -1.1472
41857SOL     OW28847   0.085   2.590   7.271 -0.2375 -0.5288 -0.4122
41857SOL    HW128848   0.150   2.627   7.331 -2.1475 -0.8301  1.9429
41857SOL    HW228849   0.010   2.649   7.278 -1.0833 -1.4643 -1.3484
41858SOL     OW28850   6.386   4.848   9.186 -0.1858 -0.3315 -0.3805
41858SOL    HW128851   6.334   4.927   9.174 -1.5798 -0.8619  1.6471
41858SOL    HW228852   6.477   4.880   9.189 -0.7893  1.4947  2.0006
41859SOL     OW28853   1.460  10.310   5.815 -0.3899 -0.0327 -0.0208
41859SOL    HW128854   1.540  10.333   5.863 -0.9456  0.8557  0.5085
41859SOL    HW228855   1.485  10.317   5.723  0.8376 -2.2687  0.0641
41860SOL     OW28856   3.833   6.556   4.581  0.3571  0.2865  0.0231
41860SOL    HW128857   3.891   6.630   4.561  0.9147 -0.0359  0.3954
41860SOL    HW228858   3.792   6.579   4.664  0.5549  0.1677  0.1550
41861SOL     OW28859   6.696   8.992  10.971  0.0260  0.4821  0.3730
41861SOL    HW128860   6.746   9.069  10.996  0.6765  0.5813 -1.1115
41861SOL    HW228861   6.703   8.933  11.046  1.0306  1.1455  0.8208
41862SOL     OW28862   6.623   0.281   4.922  0.1681 -0.4358  0.9538
41862SOL    HW128863   6.616   0.237   5.007  0.2522  0.6574  1.5386
41862SOL    HW228864   6.615   0.374   4.942 -0.8633 -0.2096 -0.3499
41863SOL     OW28865   3.842   4.811   2.130 -0.1614 -0.0861  0.2055
41863SOL    HW128866   3.836   4.860   2.048 -0.7082 -0.4226  0.0455
41863SOL    HW228867   3.929   4.834   2.164  0.0058  0.1838 -0.3800
41864SOL     OW28868   7.194  10.678   6.183 -0.1844  0.4493  0.6414
41864SOL    HW128869   7.201  10.743   6.113 -0.9140 -0.0903  0.0591
41864SOL    HW228870   7.122  10.708   6.237 -1.7680 -0.8025 -0.6655
41865SOL     OW28871   6.347   1.510   3.765 -0.0928  0.1580 -0.0661
41865SOL    HW128872   6.329   1.603   3.771 -1.1937 -0.0559  0.3476
41865SOL    HW228873   6.314   1.484   3.679  0.4538  0.2024 -0.2871
41866SOL     OW28874   0.115   6.195   6.909 -0.4690 -0.0048  0.7969
41866SOL    HW128875   0.055   6.121   6.900 -0.9079  0.5204 -1.0007
41866SOL    HW228876   0.189   6.174   6.853  1.1301 -0.6477  2.9990
41867SOL     OW28877  11.139   9.910   1.364 -0.2553 -0.1005  0.4936
41867SOL    HW128878  11.078   9.977   1.331 -1.2100 -0.8223  0.7549
41867SOL    HW228879  11.222   9.930   1.320 -0.5528  1.1799  0.4677
41868SOL     OW28880   9.431   9.357   5.437  0.1618 -0.0028  0.1376
41868SOL    HW128881   9.435   9.264   5.456  3.2218 -1.2146 -4.6283
41868SOL    HW228882   9.383   9.363   5.354  0.6636  2.5668 -0.0679
41869SOL     OW28883   0.826   3.636   3.538  0.1902  0.5035 -0.3510
41869SOL    HW128884   0.831   3.613   3.631 -0.4845 -0.5893 -0.5736
41869SOL    HW228885   0.791   3.726   3.538 -3.2317 -0.6503  0.4150
41870SOL     OW28886  10.215   3.991   3.388  0.0433 -0.2305 -0.1727
41870SOL    HW128887  10.268   4.062   3.424  0.5606 -0.7943  0.1784
41870SOL    HW228888  10.257   3.970   3.304 -0.0936 -0.1474 -0.2634
41871SOL     OW28889   3.629   8.151   6.014  0.8494 -0.0617 -0.7268
41871SOL    HW128890   3.706   8.096   6.029  0.3908 -0.9586 -1.5048
41871SOL    HW228891   3.557   8.088   6.001  0.1634  0.7377 -0.8762
41872SOL     OW28892   7.745   3.614   1.746  0.7096 -0.3834 -0.0022
41872SOL    HW128893   7.686   3.640   1.676  0.4886  1.2421  0.7537
41872SOL    HW228894   7.744   3.518   1.744 -0.6734 -0.3679 -1.0468
41873SOL     OW28895   5.953   7.540  10.104 -0.0711 -0.2533  0.6894
41873SOL    HW128896   5.929   7.597  10.031 -2.2387 -1.2044  0.5924
41873SOL    HW228897   5.938   7.452  10.071  1.6553 -0.8524  1.3857
41874SOL     OW28898   1.374  11.350   3.117  0.0279  0.0772 -0.3347
41874SOL    HW128899   1.280  11.333   3.120 -0.0355  0.1534 -1.4232
41874SOL    HW228900   1.394  11.389   3.202 -0.7532 -0.7362  0.2416
41875SOL     OW28901   1.332   6.110   8.137  0.6562 -0.2382  0.4174
41875SOL    HW128902   1.406   6.164   8.106  1.3767  0.5799  3.2141
41875SOL    HW228903   1.371   6.025   8.156  0.3135 -0.5997 -0.4550
41876SOL     OW28904   4.478   7.263   5.870 -0.3867 -0.2891  0.3214
41876SOL    HW128905   4.441   7.308   5.794 -0.7914 -0.6061  0.3288
41876SOL    HW228906   4.541   7.202   5.832  0.2102  0.3157  0.3156
41877SOL     OW28907   7.738   6.126   0.916 -0.7651  0.1550 -0.3137
41877SOL    HW128908   7.754   6.137   0.822  1.7769 -0.8413 -0.0907
41877SOL    HW228909   7.741   6.031   0.929  1.3503  0.3386  1.0600
41878SOL     OW28910  10.901   7.438  11.100  0.1315  0.0497 -0.3489
41878SOL    HW128911  10.907   7.455  11.006 -0.8646 -0.4642 -0.5142
41878SOL    HW228912  10.817   7.393  11.112 -0.0108  0.5845  0.8598
41879SOL     OW28913   7.290   0.752   2.608 -0.6808  0.1522  0.1827
41879SOL    HW128914   7.200   0.746   2.639 -1.0473 -0.9683 -1.0238
41879SOL    HW228915   7.295   0.690   2.535  1.5716 -1.2411  1.4105
41880SOL     OW28916  11.066   5.972   2.629 -0.2581 -0.3069  0.2447
41880SOL    HW128917  11.125   6.047   2.623 -1.7244  1.1955  2.8906
41880SOL    HW228918  11.124   5.898   2.647  1.1406  0.2382 -1.6760
41881SOL     OW28919   1.732   0.957   6.021 -0.0860  0.1775 -0.2949
41881SOL    HW128920   1.813   0.943   6.072 -0.3622 -0.8211 -0.1232
41881SOL    HW228921   1.762   1.000   5.941  0.4686  0.9370  0.2970
41882SOL     OW28922   5.982   1.218  10.286  0.0821 -0.3575 -0.7178
41882SOL    HW128923   6.014   1.195  10.199 -0.2287  1.0612 -1.2324
41882SOL    HW228924   5.979   1.314  10.286  0.9495 -0.2808  1.1823
41883SOL     OW28925   3.125  10.204   8.128 -0.0931  0.0170 -0.0116
41883SOL    HW128926   3.124  10.170   8.039  0.6011 -0.3093  0.1034
41883SOL    HW228927   3.212  10.242   8.139 -0.6267  1.2888  0.0777
41884SOL     OW28928   6.615   9.617   4.540  0.3012  0.1904  0.4044
41884SOL    HW128929   6.703   9.654   4.526  0.2018  0.3300  0.1256
41884SOL    HW228930   6.609   9.547   4.474 -0.9855  2.2499 -1.8380
41885SOL     OW28931   2.781   1.118   3.231  0.3619  0.1864  0.4071
41885SOL    HW128932   2.721   1.130   3.305  0.8681  1.0234  0.7005
41885SOL    HW228933   2.816   1.206   3.215  0.2506  0.0214 -0.8416
41886SOL     OW28934  11.097   5.841   6.226  0.2736 -0.1755 -0.2010
41886SOL    HW128935  11.130   5.922   6.187 -1.8807  1.2551  0.7777
41886SOL    HW228936  11.065   5.789   6.152  0.2339  0.5681 -0.7104
41887SOL     OW28937   8.843   7.457   1.008 -0.3190  0.1814 -0.1669
41887SOL    HW128938   8.776   7.447   1.076  0.0074 -0.4479  0.0679
41887SOL    HW228939   8.903   7.383   1.022  1.2908  1.5732  0.5995
41888SOL     OW28940   6.123   4.429   9.898  0.2083 -0.1185 -0.0612
41888SOL    HW128941   6.100   4.514   9.863  0.3904  0.2398  0.6589
41888SOL    HW228942   6.068   4.367   9.851 -0.6876  0.5071  0.1426
41889SOL     OW28943   4.495   8.456   8.873  0.3279 -0.0455  0.0926
41889SOL    HW128944   4.569   8.418   8.825  0.4805  0.0037  0.2890
41889SOL    HW228945   4.502   8.419   8.961  0.7039  0.7296  0.3980
41890SOL     OW28946   9.351   8.922   5.751 -0.6231 -0.4863 -0.3212
41890SOL    HW128947   9.263   8.890   5.731 -0.4364 -1.4120  0.2929
41890SOL    HW228948   9.409   8.847   5.734 -0.2029 -0.5699  1.3260
41891SOL     OW28949  11.171   6.052   0.079  0.4975  0.4191 -0.1478
41891SOL    HW128950  11.086   6.040   0.121 -0.3528  0.4179 -1.7677
41891SOL    HW228951  11.234   6.013   0.139 -0.8738 -1.3649  0.2105
41892SOL     OW28952  10.223   7.589   7.240  0.6525 -0.2809  0.1398
41892SOL    HW128953  10.189   7.669   7.278 -1.5585 -2.0272  2.1948
41892SOL    HW228954  10.203   7.595   7.147  2.0858  2.1845 -0.0858
41893SOL     OW28955   1.066   2.035   6.363 -0.2484  0.1784  0.6825
41893SOL    HW128956   1.158   2.024   6.388 -0.5962 -1.7021  1.2889
41893SOL    HW228957   1.062   2.002   6.273 -0.5934 -1.2158  1.1909
41894SOL     OW28958   9.452  10.147   9.612 -0.6712 -0.5443 -0.6066
41894SOL    HW128959   9.498  10.227   9.585  1.0011 -1.0728  0.5208
41894SOL    HW228960   9.491  10.078   9.559 -0.6707 -0.9023 -0.1481
41895SOL     OW28961  11.218  10.323   2.641 -0.4621 -0.6284 -0.1449
41895SOL    HW128962  11.303  10.280   2.648 -0.5710 -0.8619 -0.2418
41895SOL    HW228963  11.239  10.413   2.616 -0.2587 -0.7771 -0.5288
41896SOL     OW28964   0.242   6.483   2.584 -0.4003 -0.3494  0.3626
41896SOL    HW128965   0.224   6.537   2.661  1.7146  1.3885 -0.2700
41896SOL    HW228966   0.333   6.456   2.594 -0.8676 -2.3692 -0.2752
41897SOL     OW28967  10.973   3.638   3.749 -0.5343 -0.0803 -0.1026
41897SOL    HW128968  11.057   3.596   3.770 -0.8016 -0.8749 -0.5942
41897SOL    HW228969  10.962   3.704   3.817 -0.0169 -0.6877  0.5875
41898SOL     OW28970   4.666   4.542   9.031  0.3862  0.0029  0.1187
41898SOL    HW128971   4.697   4.453   9.049  0.0359 -0.3183 -0.8032
41898SOL    HW228972   4.586   4.550   9.082 -0.8930 -1.0877 -1.6055
41899SOL     OW28973   4.169   2.885  10.371 -0.3285 -0.0972 -0.2309
41899SOL    HW128974   4.194   2.946  10.440 -0.6197 -1.2446  0.9237
41899SOL    HW228975   4.170   2.799  10.413 -0.5423 -0.8303 -1.6509
41900SOL     OW28976   9.434   0.098   7.306  0.4031  0.0209 -0.1413
41900SOL    HW128977   9.461   0.102   7.397  0.2124  1.3336 -0.1165
41900SOL    HW228978   9.343   0.129   7.306 -0.8742 -3.3407 -0.3574
41901SOL     OW28979   5.095   6.049   9.286 -0.3671 -0.5508  0.2369
41901SOL    HW128980   5.089   5.961   9.323 -2.6436  1.0084  4.2044
41901SOL    HW228981   5.011   6.063   9.243 -0.9018  0.3306  1.5064
41902SOL     OW28982   6.404   7.910   7.090 -0.1327  0.6840 -0.1480
41902SOL    HW128983   6.312   7.937   7.094 -0.4053 -0.1338 -0.5587
41902SOL    HW228984   6.400   7.814   7.089  0.6457  0.6411 -1.7106
41903SOL     OW28985   3.021   1.763   9.219 -0.0461  0.1166  0.0082
41903SOL    HW128986   3.068   1.712   9.285 -2.2432 -0.6947  1.0493
41903SOL    HW228987   3.059   1.735   9.136 -1.1197 -3.3062  0.5282
41904SOL     OW28988  11.243   1.368   6.247 -0.3150  0.2265 -0.0970
41904SOL    HW128989  11.266   1.277   6.263 -0.6172  0.1887  0.1441
41904SOL    HW228990  11.217   1.371   6.155  0.7412  0.2946 -0.3975
41905SOL     OW28991   1.364   6.909   9.498  0.4517 -0.9531  0.4600
41905SOL    HW128992   1.390   6.994   9.535 -1.5965 -0.8275  1.7666
41905SOL    HW228993   1.407   6.844   9.554  2.6944 -0.8662 -1.0346
41906SOL     OW28994  10.288   9.742   1.164 -0.3993  0.3996 -0.3388
41906SOL    HW128995  10.258   9.667   1.113  0.6506 -0.6588  0.5416
41906SOL    HW228996  10.252   9.726   1.252  0.6256  0.4043  0.0954
41907SOL     OW28997   1.772   6.952   6.793  0.4219 -0.0563 -0.0788
41907SOL    HW128998   1.721   6.873   6.811  2.0797 -0.7662  1.8658
41907SOL    HW228999   1.846   6.921   6.740 -0.6777  0.8462 -2.2729
41908SOL     OW29000   4.746   0.847   4.420 -0.5217  0.0689  1.2886
41908SOL    HW129001   4.654   0.861   4.442 -1.3984 -1.0521 -1.2084
41908SOL    HW229002   4.759   0.752   4.430  0.5472  0.2821  2.1426
41909SOL     OW29003   4.308  10.513  11.049 -0.1190  0.0945  0.2164
41909SOL    HW129004   4.356  10.467  10.980  0.2627  0.0470  0.5127
41909SOL    HW229005   4.374  10.537  11.113 -0.4990 -0.0297  0.6611
41910SOL     OW29006  10.386   5.599   9.540  0.3047  0.5802  0.3363
41910SOL    HW129007  10.447   5.526   9.552  0.5105  0.6137 -0.4323
41910SOL    HW229008  10.328   5.594   9.616  0.1114 -0.5827  0.1452
41911SOL     OW29009   2.927   3.498   5.274 -0.2380  0.1498  0.2952
41911SOL    HW129010   3.008   3.518   5.319 -0.1272  0.7077 -0.1415
41911SOL    HW229011   2.923   3.561   5.202  0.1609 -1.4343 -1.1695
41912SOL     OW29012   8.225   7.762   7.161 -0.0951  0.0594 -0.1703
41912SOL    HW129013   8.195   7.722   7.242  0.4849 -0.0094  0.0154
41912SOL    HW229014   8.165   7.729   7.094  0.4202 -1.1992 -0.0310
41913SOL     OW29015   0.017   2.498   9.326 -0.2780  0.3176 -0.7166
41913SOL    HW129016  -0.071   2.480   9.359 -0.1158  1.1752  0.2289
41913SOL    HW229017   0.005   2.520   9.234 -1.1060  0.9105 -0.4692
41914SOL     OW29018   8.861   7.721   6.608  0.3258 -0.2717 -0.3128
41914SOL    HW129019   8.839   7.814   6.612 -1.2287 -0.5833 -0.7729
41914SOL    HW229020   8.950   7.719   6.573  0.9393  1.0677  1.0466
41915SOL     OW29021  10.147   6.903   3.954  0.2086 -0.0111 -0.6265
41915SOL    HW129022  10.126   6.825   3.901  0.5870 -1.2898  1.0266
41915SOL    HW229023  10.242   6.904   3.960  0.1768  0.1697 -0.0628
41916SOL     OW29024   7.678   5.013   1.960  0.0522 -0.0925  0.1569
41916SOL    HW129025   7.624   4.974   2.029 -0.5367  1.4445  0.5927
41916SOL    HW229026   7.766   4.980   1.978 -0.5682 -2.0660 -0.1531
41917SOL     OW29027   9.823   7.226   2.640 -0.4984 -0.1336 -0.4185
41917SOL    HW129028   9.914   7.245   2.662 -0.2778  2.0658 -2.7276
41917SOL    HW229029   9.816   7.246   2.546 -3.2293 -0.7831 -0.4528
41918SOL     OW29030   4.109   8.044   6.785 -0.9500 -0.1232 -0.3703
41918SOL    HW129031   4.071   8.104   6.850 -1.5664 -0.6005 -0.2890
41918SOL    HW229032   4.093   7.957   6.821  1.6486 -0.3356  0.4838
41919SOL     OW29033   9.427   6.687  10.677  0.6569 -0.1384 -0.8093
41919SOL    HW129034   9.372   6.762  10.657 -0.5563 -0.6549  0.4504
41919SOL    HW229035   9.371   6.610  10.664  1.5612 -0.7777 -1.0785
41920SOL     OW29036   5.555  10.529   9.216 -0.2783  0.2559 -0.1374
41920SOL    HW129037   5.621  10.460   9.224  1.2459  1.6272 -0.3384
41920SOL    HW229038   5.477  10.493   9.257  0.9150 -1.0236  1.1272
41921SOL     OW29039   9.282  10.687   6.942  0.5802  0.5586  0.3289
41921SOL    HW129040   9.249  10.767   6.984  0.5971 -0.1975  1.8720
41921SOL    HW229041   9.358  10.662   6.995  0.7596 -0.3194 -0.3144
41922SOL     OW29042   9.878   5.413   1.020  0.3101  0.2973 -0.0229
41922SOL    HW129043   9.882   5.457   1.105  1.6378  3.1685 -1.4136
41922SOL    HW229044   9.785   5.410   0.998  0.1063  1.5207  0.6010
41923SOL     OW29045   1.738   3.044   3.781  0.1502  0.1020 -0.3309
41923SOL    HW129046   1.723   2.956   3.815 -1.9717 -0.1714 -1.8216
41923SOL    HW229047   1.759   3.096   3.859 -0.0089 -1.4015  0.7598
41924SOL     OW29048   0.495   8.949   5.414 -0.1689 -0.0725 -0.0131
41924SOL    HW129049   0.462   9.015   5.353  1.5661 -0.2853 -1.2500
41924SOL    HW229050   0.418   8.896   5.436 -0.8368 -0.0305 -2.0863
41925SOL     OW29051   5.107   4.573   4.767 -0.1736  0.2223 -0.0176
41925SOL    HW129052   5.192   4.562   4.810 -0.1637  0.1735 -0.0488
41925SOL    HW229053   5.128   4.596   4.677 -0.1812 -0.6977 -0.2630
41926SOL     OW29054   2.702   9.348  10.833  0.2850  0.0345 -0.5297
41926SOL    HW129055   2.795   9.338  10.816  0.4816  0.8055 -0.0006
41926SOL    HW229056   2.659   9.314  10.755  0.9522 -1.5762 -0.2319
41927SOL     OW29057  10.779   2.368   0.349 -0.1098  0.2606 -0.2432
41927SOL    HW129058  10.807   2.347   0.260 -0.7458  1.1343 -0.6586
41927SOL    HW229059  10.855   2.347   0.403  1.3476  2.4166 -1.3153
41928SOL     OW29060   0.612   3.085   6.748 -0.2835 -0.3680  0.0213
41928SOL    HW129061   0.621   3.160   6.690  0.7561  0.6086  1.3689
41928SOL    HW229062   0.642   3.010   6.696  0.6281  0.4809 -0.7088
41929SOL     OW29063   3.154  10.598   5.393  0.9697  0.1833 -0.2701
41929SOL    HW129064   3.105  10.546   5.329 -1.4368  0.3008  1.3377
41929SOL    HW229065   3.213  10.535   5.435 -1.3057 -1.1975  1.0678
41930SOL     OW29066  11.391  10.703   5.955 -0.7239 -0.0681 -0.1511
41930SOL    HW129067  11.327  10.751   5.901  0.7297  2.6026  0.3249
41930SOL    HW229068  11.353  10.704   6.043 -0.3596  0.9598  0.0088
41931SOL     OW29069   4.046   8.182   3.934 -0.4424  0.3366  0.1388
41931SOL    HW129070   3.976   8.120   3.913 -0.6732  0.8780 -0.7843
41931SOL    HW229071   4.037   8.199   4.027 -0.6651 -0.6627  0.3027
41932SOL     OW29072   7.786   6.974  10.396  0.2086 -0.1510 -0.0988
41932SOL    HW129073   7.778   7.024  10.477  0.6037  0.7857 -0.6194
41932SOL    HW229074   7.866   6.921  10.408  0.4630  0.2511 -0.0150
41933SOL     OW29075   7.287   7.267   7.357 -0.3769 -0.3958  0.0760
41933SOL    HW129076   7.228   7.340   7.376 -1.3534 -1.2965  0.5697
41933SOL    HW229077   7.311   7.280   7.265  2.6107  2.7292  1.0626
41934SOL     OW29078   6.031   5.890   2.628 -0.4532 -0.0980 -0.1548
41934SOL    HW129079   6.003   5.912   2.717  0.5331 -2.4499  0.7960
41934SOL    HW229080   5.959   5.837   2.593 -0.8180  0.7833 -0.7784
41935SOL     OW29081   9.307   4.074   4.705  0.6472  0.7773 -0.3625
41935SOL    HW129082   9.228   4.052   4.655  1.8871 -0.2467 -1.9741
41935SOL    HW229083   9.345   3.990   4.729  0.6200  1.2620  1.4912
41936SOL     OW29084   5.310  10.810   7.190  0.3307  0.3430  0.0552
41936SOL    HW129085   5.235  10.761   7.225 -0.5660  2.6713  1.6617
41936SOL    HW229086   5.337  10.761   7.113 -2.6092 -0.8269 -0.3725
41937SOL     OW29087   5.348   0.158   3.950  0.5200  0.7541 -0.0905
41937SOL    HW129088   5.335   0.069   3.917 -1.4465  0.8431  0.3722
41937SOL    HW229089   5.435   0.183   3.916  1.1473 -1.3403 -0.1692
41938SOL     OW29090   3.954   7.508   4.558  0.3104  0.9175 -0.6001
41938SOL    HW129091   3.881   7.507   4.620 -1.6207  3.1096 -2.6428
41938SOL    HW229092   4.014   7.574   4.593  0.5018  0.3438  0.1893
41939SOL     OW29093   0.285   4.380   1.810 -0.2266  0.0298  0.5199
41939SOL    HW129094   0.268   4.288   1.829 -0.8420  0.3643  1.6397
41939SOL    HW229095   0.199   4.417   1.791 -0.1377  0.6448  1.2975
41940SOL     OW29096   3.273   0.951   1.599 -0.2816 -0.1199  0.3384
41940SOL    HW129097   3.241   0.903   1.675 -0.6733 -0.6476 -0.1526
41940SOL    HW229098   3.273   1.043   1.626  0.0501 -0.3542  1.1359
41941SOL     OW29099   3.814   3.249   1.738 -0.8175 -0.0679  0.1699
41941SOL    HW129100   3.758   3.323   1.715 -0.5952  0.8189  2.2345
41941SOL    HW229101   3.879   3.286   1.797  1.6918 -1.1817 -1.7527
41942SOL     OW29102  11.176   0.214   9.207 -0.2588 -0.2326 -0.2013
41942SOL    HW129103  11.214   0.266   9.137 -0.1764 -0.7840 -0.5742
41942SOL    HW229104  11.132   0.277   9.263  0.4740  0.3203 -0.2311
41943SOL     OW29105   8.563   2.808   8.280  0.1500 -0.2536  0.4538
41943SOL    HW129106   8.496   2.761   8.330  0.1083 -0.8504 -0.1498
41943SOL    HW229107   8.600   2.742   8.221  0.5278  0.3252  0.0318
41944SOL     OW29108   4.173   8.322   9.626 -0.1102  0.6711  0.1894
41944SOL    HW129109   4.244   8.259   9.636 -1.0655 -0.6673 -0.9625
41944SOL    HW229110   4.192   8.368   9.544 -1.1228 -0.5224 -0.7602
41945SOL     OW29111   1.389   2.554   3.232 -0.1355 -0.6411 -0.2723
41945SOL    HW129112   1.472   2.553   3.281  0.2641 -0.5737 -0.9333
41945SOL    HW229113   1.365   2.462   3.224  0.5067 -0.7444 -1.1160
41946SOL     OW29114   8.084  11.143   5.003 -0.5363 -0.2169 -0.2620
41946SOL    HW129115   8.089  11.214   4.940 -0.3001 -0.6875 -0.7779
41946SOL    HW229116   8.075  11.064   4.950  0.1601 -0.6686  0.2695
41947SOL     OW29117   8.878   4.509   3.666 -0.4354  0.3950 -0.1662
41947SOL    HW129118   8.926   4.579   3.622  0.9792  0.5288  1.5000
41947SOL    HW229119   8.805   4.554   3.708 -0.3235  0.6555 -0.2470
41948SOL     OW29120   1.418   1.265   8.811 -0.1990  0.4947  0.5239
41948SOL    HW129121   1.367   1.335   8.852 -0.5914  0.1573  0.6287
41948SOL    HW229122   1.508   1.281   8.839 -0.1550  1.4072 -0.0888
41949SOL     OW29123   0.362   2.664  10.363 -0.1292  0.3002  0.2864
41949SOL    HW129124   0.316   2.627  10.439 -0.5181  0.6713  0.2321
41949SOL    HW229125   0.379   2.588  10.307 -1.2221  0.2401  0.0184
41950SOL     OW29126   0.824   8.248   8.294 -0.7698 -0.3590 -0.2769
41950SOL    HW129127   0.881   8.324   8.293 -0.4196 -0.6129  0.0909
41950SOL    HW229128   0.756   8.268   8.230 -1.2088  0.6553  0.4786
41951SOL     OW29129   6.567  10.670   5.031 -0.3597 -0.2167 -0.2171
41951SOL    HW129130   6.564  10.765   5.026 -0.7476 -0.1948  0.3044
41951SOL    HW229131   6.650  10.650   5.073 -0.7067 -0.0634  0.5542
41952SOL     OW29132  10.856   1.057   7.068 -0.3190  0.0755  0.0440
41952SOL    HW129133  10.852   1.152   7.067  0.2489  0.1273  1.0977
41952SOL    HW229134  10.783   1.031   7.125  0.5714 -0.0145  1.1871
41953SOL     OW29135   3.923   4.491   7.752  0.2509 -0.3052  0.0097
41953SOL    HW129136   3.857   4.535   7.807 -0.6369 -0.5848 -0.7976
41953SOL    HW229137   3.871   4.443   7.687  1.2474 -1.2763 -0.0881
41954SOL     OW29138  10.959   9.977   5.623 -0.2311 -0.1809 -0.7992
41954SOL    HW129139  10.937   9.975   5.530  0.1288  0.2190 -0.8942
41954SOL    HW229140  10.889   9.927   5.665  0.5580 -1.9663 -1.4772
41955SOL     OW29141   4.994   4.071   4.217  0.4512 -0.0865  0.5815
41955SOL    HW129142   4.974   3.977   4.217 -1.1322  0.2223  0.4510
41955SOL    HW229143   5.084   4.076   4.249  0.3597 -1.6104  1.1782
41956SOL     OW29144   2.082   3.140   8.055 -0.1582 -0.5166 -0.4187
41956SOL    HW129145   2.076   3.184   7.970 -1.1518 -1.2992 -0.7712
41956SOL    HW229146   1.991   3.130   8.084  0.1749  2.2031  2.0627
41957SOL     OW29147   9.473   6.973   6.666 -0.0192  0.0525 -0.0571
41957SOL    HW129148   9.436   7.024   6.738  1.5195  2.3337 -0.7844
41957SOL    HW229149   9.557   7.015   6.647  1.1322 -2.4876 -1.0619
41958SOL     OW29150  11.072   4.831   1.142 -0.6963 -0.0418  0.0797
41958SOL    HW129151  11.034   4.903   1.091 -1.9071 -1.2628 -0.8022
41958SOL    HW229152  11.089   4.762   1.077 -0.4659 -0.9194  1.0480
41959SOL     OW29153   7.487   1.880  10.596 -0.3661  0.1567 -0.0013
41959SOL    HW129154   7.418   1.941  10.571  0.1583  0.2300 -1.3558
41959SOL    HW229155   7.526   1.919  10.674 -1.4312  0.4265  0.4261
41960SOL     OW29156   1.881   8.641   8.163 -0.2637 -0.1029 -0.1059
41960SOL    HW129157   1.874   8.643   8.068 -0.0100  2.4156 -0.1398
41960SOL    HW229158   1.965   8.599   8.180  0.7773  1.4479 -1.1304
41961SOL     OW29159   7.015   9.232   5.001  0.9803 -0.1268 -0.0978
41961SOL    HW129160   6.982   9.156   5.049 -2.3397  1.5292  0.5031
41961SOL    HW229161   7.015   9.204   4.909  1.7523 -1.4587  0.2882
41962SOL     OW29162   5.636   2.195   4.864  0.3780  0.0695  0.3408
41962SOL    HW129163   5.648   2.100   4.872  0.3025  0.1633  1.8523
41962SOL    HW229164   5.682   2.218   4.783 -0.0160 -1.3190 -0.3099
41963SOL     OW29165   6.684   1.691   6.894  0.0606  0.2370 -0.4045
41963SOL    HW129166   6.682   1.706   6.989  0.7364  1.7965 -0.6120
41963SOL    HW229167   6.599   1.722   6.863 -0.5802 -1.2420 -0.2076
41964SOL     OW29168   7.455   7.749   5.464  0.6555 -0.3418 -0.2352
41964SOL    HW129169   7.463   7.760   5.559  0.1583 -1.6392 -0.0171
41964SOL    HW229170   7.544   7.759   5.431  1.1659 -1.7732  0.6108
41965SOL     OW29171   4.735   7.307   1.886  1.0010 -0.4606  0.1219
41965SOL    HW129172   4.681   7.320   1.963  0.4148 -0.3228 -0.3074
41965SOL    HW229173   4.698   7.230   1.843 -1.2259  1.6552 -2.1203
41966SOL     OW29174   1.976   2.905  10.256  0.5368 -0.2488  0.2711
41966SOL    HW129175   1.962   2.904  10.162  0.1355 -4.3594  0.2159
41966SOL    HW229176   1.891   2.928  10.293  0.9313  2.3649 -0.2720
41967SOL     OW29177   0.837   8.083   4.574 -0.2671 -0.7040 -0.1822
41967SOL    HW129178   0.825   8.024   4.500  2.2866  0.8497 -1.9916
41967SOL    HW229179   0.885   8.157   4.538 -0.0285  0.7345  2.8038
41968SOL     OW29180   0.995   8.350   5.989  0.0803 -0.4199 -0.0662
41968SOL    HW129181   0.979   8.362   5.895 -1.2666 -0.0979  0.1738
41968SOL    HW229182   0.960   8.431   6.028  0.2971 -0.7140  0.7325
41969SOL     OW29183   2.502  10.644   6.156  0.2451  0.7027  0.4198
41969SOL    HW129184   2.424  10.651   6.102 -1.0088 -0.1297  2.0186
41969SOL    HW229185   2.488  10.565   6.209  2.1636  0.5421  0.7803
41970SOL     OW29186   8.863   2.540  10.762 -0.1007 -0.0144  0.9062
41970SOL    HW129187   8.883   2.462  10.814  0.5057  0.0883  0.8348
41970SOL    HW229188   8.930   2.603  10.786  0.0932  0.0908  0.1260
41971SOL     OW29189   0.246   5.603   9.104 -0.1635  0.4262 -0.2903
41971SOL    HW129190   0.166   5.654   9.117 -0.0811  1.0220 -1.8465
41971SOL    HW229191   0.218   5.511   9.113 -0.9547  0.6416 -0.4685
41972SOL     OW29192   8.054   8.618   2.297  0.1965 -0.2122 -0.3112
41972SOL    HW129193   8.111   8.599   2.371 -1.1569  0.8928  1.0749
41972SOL    HW229194   8.050   8.714   2.293  0.2341 -0.2479 -1.8247
41973SOL     OW29195   5.650   7.794   0.099 -0.6173 -0.2033  0.4618
41973SOL    HW129196   5.671   7.885   0.080 -0.4041 -0.2470  0.4840
41973SOL    HW229197   5.624   7.794   0.191 -1.1481 -0.0754  0.3108
41974SOL     OW29198   7.070   9.376  10.777 -0.2355 -0.3704 -0.0710
41974SOL    HW129199   7.079   9.307  10.844 -0.7515  0.1991  0.5941
41974SOL    HW229200   7.148   9.431  10.789 -0.3081 -0.2906  0.0364
41975SOL     OW29201   1.640   0.832   5.724 -0.2599 -0.1283 -0.1635
41975SOL    HW129202   1.692   0.903   5.762 -0.7803 -0.2175  0.7568
41975SOL    HW229203   1.620   0.861   5.635 -0.1443  0.6969  0.0703
41976SOL     OW29204   9.994   3.874   7.895 -0.5125  0.3240 -0.6015
41976SOL    HW129205  10.024   3.823   7.820 -0.7960 -0.9355  0.1282
41976SOL    HW229206  10.030   3.962   7.879  2.2338 -0.6982 -0.5871
41977SOL     OW29207   1.044   4.255   7.967  0.0008 -0.4493  0.1940
41977SOL    HW129208   1.086   4.275   7.883 -0.3134  0.2833  0.2051
41977SOL    HW229209   0.961   4.303   7.964  0.2162 -0.0012  1.1300
41978SOL     OW29210   4.086   4.008   9.470  0.4261  0.0386 -0.3008
41978SOL    HW129211   4.072   4.073   9.401 -2.6141  0.2089  0.3511
41978SOL    HW229212   3.999   3.976   9.491  1.5015 -1.7629  1.8327
41979SOL     OW29213   4.126   5.867   1.657 -0.3662  0.2476 -0.5146
41979SOL    HW129214   4.184   5.940   1.638  0.5089 -0.7109 -1.7042
41979SOL    HW229215   4.156   5.835   1.742  0.1795  0.4143 -0.6370
41980SOL     OW29216   6.029   6.953   8.197 -0.6411 -0.1146  0.2661
41980SOL    HW129217   6.007   7.023   8.259 -0.5243  0.9763 -0.8989
41980SOL    HW229218   5.955   6.950   8.136  0.5553  0.8687 -1.3034
41981SOL     OW29219   6.074  10.373   7.427 -0.5807 -0.1652 -0.7642
41981SOL    HW129220   6.045  10.453   7.382  3.1540  2.1690  0.5076
41981SOL    HW229221   6.043  10.384   7.516  2.0173  1.3333  0.0744
41982SOL     OW29222   5.400   0.185   6.764  0.5654 -0.0571 -0.3039
41982SOL    HW129223   5.318   0.166   6.808  0.2013  1.2304 -0.3732
41982SOL    HW229224   5.468   0.154   6.824  0.0652 -2.3844 -0.8333
41983SOL     OW29225  10.432   2.732   7.078 -0.7542 -0.0298  0.6291
41983SOL    HW129226  10.453   2.642   7.056  1.7404  0.7613 -0.5546
41983SOL    HW229227  10.426   2.777   6.993 -0.4513  1.2228  1.2476
41984SOL     OW29228   8.313  11.045   1.898 -0.0750 -0.3635 -0.6589
41984SOL    HW129229   8.382  10.979   1.888  0.8268  0.5930 -0.8513
41984SOL    HW229230   8.258  11.033   1.821 -1.6949 -2.8762  0.7451
41985SOL     OW29231   6.930   7.529   6.417  0.0340 -0.1824 -0.4332
41985SOL    HW129232   6.932   7.502   6.508  0.7290 -0.8200 -0.6335
41985SOL    HW229233   6.842   7.565   6.405 -0.4189 -1.0347  0.2166
41986SOL     OW29234   6.441   0.134   0.667 -0.0176  0.4015  0.0331
41986SOL    HW129235   6.446   0.175   0.581 -0.9349  1.6746  0.5472
41986SOL    HW229236   6.349   0.109   0.676  0.5869 -2.3837 -0.4784
41987SOL     OW29237  10.972   7.410   2.305 -0.3954 -0.4987 -0.1578
41987SOL    HW129238  10.888   7.377   2.336 -0.0075 -0.8172  0.5846
41987SOL    HW229239  11.011   7.337   2.258 -0.9800 -0.0173 -1.4185
41988SOL     OW29240  10.506   1.969  10.034  0.3908 -0.0581  0.4740
41988SOL    HW129241  10.468   2.027   9.968 -0.8319 -0.1727  1.0464
41988SOL    HW229242  10.444   1.896  10.041  2.1247 -1.7139 -0.5564
41989SOL     OW29243   0.859   6.393  11.213 -0.1677  0.4171 -0.4558
41989SOL    HW129244   0.946   6.356  11.199 -0.3773  0.0646 -0.8803
41989SOL    HW229245   0.828   6.351  11.293  0.6760  1.7509  0.6151
41990SOL     OW29246   8.787   9.962  10.159  0.3780 -0.0728  0.1472
41990SOL    HW129247   8.725  10.034  10.175 -0.0355 -0.0545 -1.3818
41990SOL    HW229248   8.777   9.942  10.066  2.7450 -0.0077 -0.1788
41991SOL     OW29249   7.711   8.758  10.739 -0.2413 -0.2431 -0.1909
41991SOL    HW129250   7.787   8.813  10.757 -0.0716 -1.0115  1.6518
41991SOL    HW229251   7.653   8.814  10.686  0.0384  1.6215  1.3752
41992SOL     OW29252   7.336   7.694   6.892  0.0159 -0.2265 -0.5626
41992SOL    HW129253   7.388   7.641   6.832 -0.7185 -0.5154 -0.9698
41992SOL    HW229254   7.317   7.635   6.965  1.9452  0.4954  0.5950
41993SOL     OW29255   7.015  10.147   7.047  0.7412 -0.2965  0.1375
41993SOL    HW129256   7.047  10.146   7.138  1.9653 -1.8629 -0.2737
41993SOL    HW229257   6.989  10.057   7.030 -0.3338  0.1720 -0.8086
41994SOL     OW29258   8.958   9.463   9.598 -0.0416  0.0461 -0.0389
41994SOL    HW129259   8.885   9.456   9.536 -0.9777  0.9873  0.9090
41994SOL    HW229260   9.029   9.503   9.548 -0.1682 -0.8586 -0.9683
41995SOL     OW29261   9.234   3.624   0.355  0.2599  0.2300  0.1967
41995SOL    HW129262   9.162   3.601   0.297  0.6624  1.8139 -0.9889
41995SOL    HW229263   9.191   3.646   0.438 -0.3646 -1.4607  0.3676
41996SOL     OW29264   2.485   9.408   5.892 -0.0798 -0.1006  0.0063
41996SOL    HW129265   2.484   9.371   5.803 -1.3445 -2.5351  0.9449
41996SOL    HW229266   2.552   9.476   5.888  0.4583 -0.6579 -2.6122
41997SOL     OW29267   3.124  10.064   4.138 -0.1289  0.5970 -0.2531
41997SOL    HW129268   3.112   9.978   4.099  1.4865  0.0868  0.3218
41997SOL    HW229269   3.184  10.109   4.078  0.3316  0.7245  0.2990
41998SOL     OW29270   4.786   4.719   8.324 -0.0197 -0.5303  0.3684
41998SOL    HW129271   4.868   4.715   8.373 -1.7590  0.6080  3.7009
41998SOL    HW229272   4.736   4.643   8.354 -0.3165 -1.1582 -1.5394
41999SOL     OW29273   4.450   4.662   9.791 -0.0940  0.0673 -0.2221
41999SOL    HW129274   4.394   4.697   9.861 -0.5343  2.0226 -1.4569
41999SOL    HW229275   4.395   4.597   9.747 -0.5222  0.2228  0.0722
42000SOL     OW29276  11.067   4.562   5.919  0.6447  0.1445 -0.1358
42000SOL    HW129277  11.125   4.507   5.972 -0.0025 -0.8838 -0.4556
42000SOL    HW229278  10.997   4.588   5.979  0.6249  0.0890 -0.1341
42001SOL     OW29279   2.166   4.636   9.162 -0.3059  0.2431  0.1499
42001SOL    HW129280   2.250   4.590   9.155  0.3218  1.5480 -1.8378
42001SOL    HW229281   2.100   4.568   9.151  0.4874 -0.6807  0.9178
42002SOL     OW29282   0.386   8.552   0.424 -0.0592  0.1847 -0.3553
42002SOL    HW129283   0.398   8.530   0.516  1.4825  0.2730 -0.5032
42002SOL    HW229284   0.424   8.477   0.377 -0.2714  0.4186 -0.9055
42003SOL     OW29285   6.632   1.924   9.532 -0.3127 -0.0526  0.4179
42003SOL    HW129286   6.554   1.869   9.533 -0.0681 -0.3893  1.5695
42003SOL    HW229287   6.601   2.011   9.558 -0.3122 -0.1722  0.8152
42004SOL     OW29288   2.034   4.531   4.722 -0.4652  0.9075  0.0844
42004SOL    HW129289   2.095   4.519   4.795 -2.3235 -0.1777  1.5451
42004SOL    HW229290   1.994   4.617   4.738  0.9188  1.8235 -1.1208
42005SOL     OW29291   1.423   5.412   0.924  0.4419 -0.0071  0.0406
42005SOL    HW129292   1.367   5.351   0.877 -2.7234  0.9143  2.3250
42005SOL    HW229293   1.432   5.487   0.866  0.9037 -0.9175 -1.0930
42006SOL     OW29294   9.691   8.144   1.642  0.2144 -0.6164 -0.2045
42006SOL    HW129295   9.601   8.125   1.616 -0.1693  1.2979 -0.4360
42006SOL    HW229296   9.737   8.160   1.559 -0.1020  1.7269 -0.0187
42007SOL     OW29297   5.507   7.311   8.144 -0.2013 -0.3206 -0.2982
42007SOL    HW129298   5.557   7.236   8.113 -0.0586 -0.2052 -0.3433
42007SOL    HW229299   5.567   7.385   8.139  0.0754 -0.4397  0.9840
42008SOL     OW29300   2.796   6.509   7.627  0.0591  0.3989  0.5395
42008SOL    HW129301   2.780   6.488   7.719  0.3155  0.0196  0.4997
42008SOL    HW229302   2.843   6.433   7.593 -0.1173  0.4970  0.0706
42009SOL     OW29303   0.741   7.143   4.429  0.1562  0.3386  0.0782
42009SOL    HW129304   0.664   7.192   4.459 -0.1126  0.7510 -1.2243
42009SOL    HW229305   0.809   7.209   4.419  0.1815  0.2454 -0.3915
42010SOL     OW29306   4.066   4.929   4.693 -0.0720 -0.7868  0.4193
42010SOL    HW129307   4.012   5.000   4.659 -0.1070 -0.4110  1.2391
42010SOL    HW229308   4.116   4.968   4.764  0.2661 -1.4648  0.5637
42011SOL     OW29309   5.687   4.651   9.373  0.0283 -0.1033 -0.2801
42011SOL    HW129310   5.599   4.662   9.337 -0.7663  1.3851  1.9156
42011SOL    HW229311   5.745   4.682   9.303 -1.2590  0.3127 -1.2074
42012SOL     OW29312   5.644   9.978   0.221  0.1934 -0.2810  0.5179
42012SOL    HW129313   5.582   9.955   0.152 -0.7979  1.3295  0.8202
42012SOL    HW229314   5.725   9.999   0.175  0.3485 -1.7403  0.0698
42013SOL     OW29315   6.503   8.238   0.783 -0.2965 -0.2133 -0.5113
42013SOL    HW129316   6.569   8.258   0.717 -0.9239  1.5661 -0.6529
42013SOL    HW229317   6.442   8.311   0.779 -0.0022  0.3380  2.4721
42014SOL     OW29318   5.905  10.706   9.847  0.5184 -0.1402 -0.2893
42014SOL    HW129319   5.951  10.715   9.930  0.7531  0.3727 -0.4664
42014SOL    HW229320   5.816  10.735   9.865  0.7584  0.6929 -0.3806
42015SOL     OW29321   9.283   2.710   7.827 -0.4662 -0.3227 -0.0947
42015SOL    HW129322   9.370   2.749   7.835 -0.5709 -0.0283 -0.3649
42015SOL    HW229323   9.297   2.629   7.779  0.0165 -1.5608  1.9911
42016SOL     OW29324   0.225   0.216   2.126  0.0795  0.3035  0.2374
42016SOL    HW129325   0.185   0.135   2.095 -0.3831  0.7310 -0.3165
42016SOL    HW229326   0.306   0.223   2.075 -0.9397  1.2786 -1.3422
42017SOL     OW29327   9.918   7.232   9.020  0.1997 -0.4711  0.0512
42017SOL    HW129328   9.855   7.193   8.959 -0.5817 -1.8170  1.6416
42017SOL    HW229329   9.944   7.161   9.077  0.0133  0.9652  2.0314
42018SOL     OW29330   5.382   4.307   0.825  0.0048  0.5196 -0.0166
42018SOL    HW129331   5.388   4.219   0.787  1.8272 -0.3085  1.9837
42018SOL    HW229332   5.446   4.359   0.776 -1.3986  0.9468 -1.5144
42019SOL     OW29333   2.229   7.724   3.218 -0.1584  0.5522  0.5391
42019SOL    HW129334   2.260   7.672   3.292  0.8130  0.0635 -0.1942
42019SOL    HW229335   2.134   7.731   3.232 -0.3779 -1.6262  0.5562
42020SOL     OW29336   4.795   6.703   8.346 -0.7963  0.0585 -0.1675
42020SOL    HW129337   4.877   6.732   8.306 -0.5091  0.7312  0.8670
42020SOL    HW229338   4.821   6.638   8.412 -0.8732  1.5691  1.4242
42021SOL     OW29339   5.048   6.068   2.868  0.6116  0.0074  0.4844
42021SOL    HW129340   5.067   5.989   2.818  0.7903  0.9762 -1.0279
42021SOL    HW229341   5.001   6.125   2.807 -1.3280  0.3204  2.1277
42022SOL     OW29342   3.296   1.851   9.290 -0.0075 -1.0155  0.3190
42022SOL    HW129343   3.351   1.924   9.262 -0.3244 -1.3804 -1.3681
42022SOL    HW229344   3.217   1.892   9.325 -1.4163 -0.4086 -3.1054
42023SOL     OW29345   3.776   4.945   8.989  0.2957  0.2251 -0.0825
42023SOL    HW129346   3.764   5.009   9.059 -1.4668  0.1820 -0.2982
42023SOL    HW229347   3.829   4.990   8.923  0.3062  0.9427  0.4118
42024SOL     OW29348   1.422   4.601   0.106 -0.1002  0.1790 -0.1188
42024SOL    HW129349   1.340   4.604   0.057  0.4653  0.4091 -1.0932
42024SOL    HW229350   1.480   4.547   0.052  0.5035  0.3150  0.3752
42025SOL     OW29351   4.124   7.724   6.688 -0.1208 -0.3547 -0.3824
42025SOL    HW129352   4.171   7.651   6.728 -0.3026 -0.2952 -0.0577
42025SOL    HW229353   4.144   7.717   6.595 -0.4223 -1.0417 -0.4077
42026SOL     OW29354   8.228   9.174   8.359  0.1880  0.1499  0.8122
42026SOL    HW129355   8.190   9.143   8.441 -2.4798 -0.7607 -0.6413
42026SOL    HW229356   8.315   9.134   8.356 -1.5704 -4.2633  0.8505
42027SOL     OW29357   6.734   9.507   3.796  0.3854  0.6281  0.2685
42027SOL    HW129358   6.790   9.432   3.814 -0.0856  0.7113  2.3730
42027SOL    HW229359   6.765   9.541   3.713  1.6331 -0.9630  0.0372
42028SOL     OW29360   9.574   4.374   2.761  0.0475  0.0730 -0.1831
42028SOL    HW129361   9.518   4.350   2.836  1.4953  0.7087  1.1597
42028SOL    HW229362   9.538   4.458   2.731 -0.8486 -0.4226 -0.5346
42029SOL     OW29363   8.332   4.859   3.003 -0.1577  0.4843 -0.1187
42029SOL    HW129364   8.287   4.784   2.964  3.8123 -1.4896 -1.4305
42029SOL    HW229365   8.278   4.883   3.078 -2.6663 -2.3880 -0.8043
42030SOL     OW29366   5.308   6.805  10.879 -0.2204  0.3974  0.4067
42030SOL    HW129367   5.228   6.815  10.930 -1.6686 -0.1177 -1.6415
42030SOL    HW229368   5.315   6.711  10.864 -0.9476  0.6626 -1.9459
42031SOL     OW29369  10.927   5.208   5.059 -0.0438  0.2343  0.3569
42031SOL    HW129370  10.834   5.229   5.056  0.0527  0.6568  0.3988
42031SOL    HW229371  10.959   5.247   5.140  0.5585  1.7117 -0.5463
42032SOL     OW29372   0.760   4.380   8.898 -0.0479  0.1273 -0.3465
42032SOL    HW129373   0.765   4.473   8.917 -1.1161  0.4111 -1.2848
42032SOL    HW229374   0.830   4.340   8.949  1.7491  1.6975 -1.4809
42033SOL     OW29375   7.083   2.690   2.189  0.4525 -0.5355 -0.2906
42033SOL    HW129376   7.147   2.757   2.167  1.5360 -2.0176 -1.9484
42033SOL    HW229377   7.000   2.725   2.156  0.5454  0.9731  0.9954
42034SOL     OW29378   4.918   6.950   0.875  0.5239 -0.2187  0.4019
42034SOL    HW129379   4.870   7.008   0.935 -0.4768  1.0539 -1.5160
42034SOL    HW229380   4.953   6.882   0.932  1.1420  1.8343  2.6879
42035SOL     OW29381   5.060   4.997   5.579  0.3849 -0.0537  0.1681
42035SOL    HW129382   5.028   5.086   5.566  0.6141 -0.2195 -1.8244
42035SOL    HW229383   4.981   4.944   5.586  0.2510  0.2331  0.9620
42036SOL     OW29384   0.292   2.743   9.088  0.2069 -0.2526 -0.4619
42036SOL    HW129385   0.349   2.820   9.083  1.8884 -1.2082  1.8006
42036SOL    HW229386   0.352   2.672   9.112 -1.5911 -1.8583 -0.5642
42037SOL     OW29387   7.021   2.762   3.902 -0.1670  0.3723 -0.0161
42037SOL    HW129388   6.963   2.762   3.826  0.5574 -1.0784 -0.5972
42037SOL    HW229389   7.009   2.677   3.943  1.4025  0.1016 -0.0467
42038SOL     OW29390   5.795   6.331  11.012  0.3049 -0.0348 -0.1326
42038SOL    HW129391   5.782   6.267  10.942  0.0194  1.9375 -2.0121
42038SOL    HW229392   5.708   6.366  11.029  0.6027  0.6197  0.0780
42039SOL     OW29393   5.342   7.342   9.450  0.7647  0.4172 -0.1852
42039SOL    HW129394   5.416   7.284   9.465  0.6971 -0.0007 -1.4210
42039SOL    HW229395   5.268   7.284   9.435  0.2001  0.8311  0.8166
42040SOL     OW29396   4.625   7.700   2.104 -0.5241 -0.2506  0.0295
42040SOL    HW129397   4.598   7.629   2.163 -0.7762  0.6062  0.9789
42040SOL    HW229398   4.699   7.664   2.055 -0.4373 -1.0589  0.7305
42041SOL     OW29399   4.981  10.503   5.549  0.0711  0.1656  0.0711
42041SOL    HW129400   5.021  10.438   5.606 -0.2604 -0.0803  0.0275
42041SOL    HW229401   5.055  10.546   5.506  0.3151  0.2888  0.6136
42042SOL     OW29402  10.148   9.145   7.196 -0.6022  0.3080  0.1967
42042SOL    HW129403  10.222   9.200   7.221 -0.4525 -0.2197  0.9404
42042SOL    HW229404  10.072   9.188   7.236 -0.8689  1.4459 -1.4558
42043SOL     OW29405   1.784   7.587   0.477 -0.6748 -0.2217 -0.0584
42043SOL    HW129406   1.878   7.601   0.491 -1.0003  1.1414  0.9689
42043SOL    HW229407   1.777   7.562   0.385  0.7773 -1.2928  0.0906
42044SOL     OW29408   1.516   2.535   8.865  0.2869  0.5643  0.2498
42044SOL    HW129409   1.425   2.527   8.837  0.0894 -0.3581  1.0867
42044SOL    HW229410   1.514   2.605   8.931  0.5170  1.7776 -0.9761
42045SOL     OW29411   4.919   0.812  10.926 -0.4573 -0.2993  0.2069
42045SOL    HW129412   4.906   0.888  10.868  0.3336 -0.3578 -0.0711
42045SOL    HW229413   4.922   0.737  10.867 -1.4087 -0.5771  0.4982
42046SOL     OW29414   7.312   4.786   8.490  0.0552  0.1230  0.0218
42046SOL    HW129415   7.371   4.715   8.465  3.4334  2.3862  0.8980
42046SOL    HW229416   7.278   4.820   8.407 -0.4293 -1.4732 -0.4710
42047SOL     OW29417   3.342   8.091   2.836  0.1946  0.6334 -0.0915
42047SOL    HW129418   3.247   8.085   2.848  0.0124 -1.9963 -2.1253
42047SOL    HW229419   3.376   8.012   2.877  1.0386 -0.5000 -2.7848
42048SOL     OW29420   6.610   4.004   2.646  0.8341 -0.3246  0.5154
42048SOL    HW129421   6.586   4.081   2.698  0.6082  0.9364 -1.3726
42048SOL    HW229422   6.704   4.011   2.633  0.7690 -0.2107  0.0995
42049SOL     OW29423   3.025  11.135   6.593  0.5176 -0.6963  0.0285
42049SOL    HW129424   3.030  11.220   6.637  0.8364 -1.0063  0.6016
42049SOL    HW229425   3.032  11.156   6.500  1.8031 -0.1751  0.2136
42050SOL     OW29426   0.660   1.913  11.366 -0.0451  0.2713 -0.0319
42050SOL    HW129427   0.729   1.979  11.366  0.5000 -0.1511  2.9586
42050SOL    HW229428   0.584   1.957  11.328  1.1309  1.5977 -0.9281
42051SOL     OW29429   5.630   9.248   1.682  0.2071 -0.0743 -0.9822
42051SOL    HW129430   5.584   9.216   1.759  0.6196  0.8594 -0.3267
42051SOL    HW229431   5.565   9.300   1.635  0.5941  1.4725  0.0833
42052SOL     OW29432   6.796   6.412   3.794  0.4366  0.0488  0.1691
42052SOL    HW129433   6.766   6.447   3.878 -1.6780  0.5901 -0.7342
42052SOL    HW229434   6.882   6.374   3.813  0.6384  1.3749  2.2592
42053SOL     OW29435  11.379   2.603   2.415 -0.5654  0.0882 -0.3678
42053SOL    HW129436  11.342   2.685   2.381 -1.4354 -0.2462 -0.2740
42053SOL    HW229437  11.473   2.611   2.400 -0.6156  1.1628 -0.2295
42054SOL     OW29438   2.071   7.719   1.386 -0.0289  0.1231  0.1836
42054SOL    HW129439   1.984   7.750   1.361 -0.0525 -1.0385 -1.3025
42054SOL    HW229440   2.057   7.669   1.466 -0.8461 -0.5486 -0.3625
42055SOL     OW29441   2.553   3.221   5.849  0.3387 -0.6833  0.1938
42055SOL    HW129442   2.648   3.211   5.852  0.4607  0.2893 -0.0670
42055SOL    HW229443   2.539   3.316   5.851 -0.6228 -0.8192  0.1977
42056SOL     OW29444   8.278   2.839   4.686 -0.5111  0.3072 -0.1212
42056SOL    HW129445   8.254   2.836   4.593 -0.0009  2.6249 -0.3765
42056SOL    HW229446   8.370   2.811   4.688 -0.4332  0.5497 -0.3480
42057SOL     OW29447   0.889   9.246  10.664  0.6332  0.4197 -0.4289
42057SOL    HW129448   0.932   9.295  10.593 -0.6877  1.1202 -0.7798
42057SOL    HW229449   0.866   9.162  10.624 -0.3160  0.9001 -0.9331
42058SOL     OW29450   8.800   0.428  10.420  0.3075  0.4970  0.1122
42058SOL    HW129451   8.795   0.472  10.505 -0.4501  2.0587 -0.6973
42058SOL    HW229452   8.711   0.396  10.405  0.7771 -1.1220  0.5441
42059SOL     OW29453   2.724   6.993   6.234  0.5275  0.7483  0.2129
42059SOL    HW129454   2.694   7.019   6.321 -1.9980  1.2833 -0.7201
42059SOL    HW229455   2.788   6.924   6.250  0.2125  0.9100  2.4872
42060SOL     OW29456   1.517   2.005   9.110 -0.2420  0.2271  0.0846
42060SOL    HW129457   1.546   1.929   9.059  0.5388 -0.9970  2.2003
42060SOL    HW229458   1.569   2.078   9.076  2.0195 -1.0129  0.6364
42061SOL     OW29459   1.481   1.637  11.089 -0.0327 -0.7823  0.8061
42061SOL    HW129460   1.557   1.637  11.148  0.9183  2.2621 -0.2236
42061SOL    HW229461   1.507   1.582  11.015  1.9589  1.4656 -0.2928
42062SOL     OW29462   9.117   0.074   5.995 -0.3150 -0.2756  0.3705
42062SOL    HW129463   9.137   0.025   5.915 -2.5415  1.4468 -1.4033
42062SOL    HW229464   9.196   0.125   6.013  1.3189 -2.9273  1.1323
42063SOL     OW29465   4.145   2.479   6.457 -0.2044  0.1756 -0.2625
42063SOL    HW129466   4.141   2.393   6.499 -1.3498  1.5596  2.7726
42063SOL    HW229467   4.060   2.488   6.412 -1.2614  0.6895  1.7194
42064SOL     OW29468   0.104   7.945   0.218  0.3068  0.0151 -0.0301
42064SOL    HW129469   0.114   7.934   0.124  2.7507  0.2667  0.1500
42064SOL    HW229470   0.133   8.035   0.235 -1.4690  0.4788  0.8212
42065SOL     OW29471   1.159   7.193   3.308 -0.4142 -0.2190  0.2638
42065SOL    HW129472   1.122   7.245   3.237 -2.5029 -1.9521 -0.0197
42065SOL    HW229473   1.087   7.182   3.370  0.7778 -0.4922  1.6763
42066SOL     OW29474   1.103  11.340  10.075  0.9043  0.1814  0.3221
42066SOL    HW129475   1.036  11.325  10.008 -0.0471  2.7879  0.5817
42066SOL    HW229476   1.186  11.338  10.027  0.3985  0.0672 -0.5675
42067SOL     OW29477   8.599   5.094   3.695  0.4599  0.4979  0.0790
42067SOL    HW129478   8.574   5.047   3.775 -0.0308 -0.1630 -0.4470
42067SOL    HW229479   8.679   5.140   3.718  0.6057 -0.1053  0.8051
42068SOL     OW29480  10.389   5.110   5.102  0.3052 -0.0694  0.1630
42068SOL    HW129481  10.381   5.093   5.008  1.5344 -0.2552  0.0655
42068SOL    HW229482  10.300   5.127   5.132 -0.2036 -0.8333 -0.8754
42069SOL     OW29483  11.348   3.291   0.432  0.7345 -0.0654 -0.5789
42069SOL    HW129484  11.314   3.352   0.498  1.2073 -0.0952 -0.2981
42069SOL    HW229485  11.271   3.250   0.394  0.4859 -0.7589  0.6410
42070SOL     OW29486   6.482  10.756   2.936  0.4065 -0.0545  0.1547
42070SOL    HW129487   6.577  10.745   2.944  0.5322  0.8733  0.0615
42070SOL    HW229488   6.467  10.847   2.961 -0.0270  0.9479 -3.2745
42071SOL     OW29489  10.274   6.792   8.075 -0.0664 -0.3321 -0.3573
42071SOL    HW129490  10.274   6.726   8.145 -1.7062 -0.0449 -0.0348
42071SOL    HW229491  10.362   6.830   8.077 -0.6787  1.3119  3.1651
42072SOL     OW29492   5.458  11.373  11.154  0.1923  0.3071  0.2373
42072SOL    HW129493   5.463  11.311  11.227 -0.2001  1.1022  0.9621
42072SOL    HW229494   5.524  11.439  11.174 -0.0146  0.6054 -0.0517
42073SOL     OW29495   9.726   8.398   6.247  1.1681  0.0596 -0.1002
42073SOL    HW129496   9.742   8.311   6.282  1.5160 -0.0453 -0.5098
42073SOL    HW229497   9.654   8.386   6.184  0.0008  0.3837  1.1265
42074SOL     OW29498   9.528  10.091   1.980  0.2856 -0.5827 -0.6757
42074SOL    HW129499   9.617  10.057   1.979  0.2968 -0.5667 -2.2967
42074SOL    HW229500   9.494  10.073   1.893 -1.4710 -0.9975  0.0570
42075SOL     OW29501   0.707   9.864   7.406  0.4513  0.3285  0.0381
42075SOL    HW129502   0.641   9.796   7.422  0.2250  0.2988 -0.9846
42075SOL    HW229503   0.770   9.854   7.478  0.5447 -1.1244 -0.2201
42076SOL     OW29504   0.692   2.418   5.776  0.4361 -0.1909 -0.0074
42076SOL    HW129505   0.738   2.502   5.781  0.3205 -0.1500  0.3808
42076SOL    HW229506   0.627   2.431   5.707 -0.1006  0.2958  0.5733
42077SOL     OW29507   3.625   8.348  10.155 -0.3097  0.1161  0.2006
42077SOL    HW129508   3.677   8.355  10.075 -0.5269  1.2377  0.1302
42077SOL    HW229509   3.567   8.273  10.140  1.8441 -1.7168  0.6390
42078SOL     OW29510  11.280   3.312   2.418  0.1972  0.4441 -0.1502
42078SOL    HW129511  11.251   3.261   2.343  1.1861  1.2363 -1.1121
42078SOL    HW229512  11.200   3.333   2.465 -0.2757 -1.5322  0.0050
42079SOL     OW29513   4.168   6.666   8.178  0.3897 -0.4012  0.1536
42079SOL    HW129514   4.102   6.702   8.118 -1.3929 -2.4800  0.7478
42079SOL    HW229515   4.222   6.610   8.122 -0.0851 -0.8560  0.1461
42080SOL     OW29516   3.850   0.295   3.084 -0.2632 -0.0138  0.2667
42080SOL    HW129517   3.919   0.241   3.046 -0.3474  0.5024 -0.6542
42080SOL    HW229518   3.783   0.300   3.015 -0.9592 -0.0370  0.9339
42081SOL     OW29519   1.452   2.402   7.699 -0.0750 -0.3494 -0.1342
42081SOL    HW129520   1.511   2.330   7.678  2.1989  0.8651  1.6222
42081SOL    HW229521   1.478   2.430   7.787 -1.4478  2.0446 -0.3937
42082SOL     OW29522   2.880   3.049   4.114 -0.0577  0.6427 -0.2766
42082SOL    HW129523   2.814   3.104   4.072  1.6286  2.9282 -0.1934
42082SOL    HW229524   2.908   3.100   4.190  0.9347 -0.8235  0.3867
42083SOL     OW29525   3.390   4.372   7.546  0.4499 -0.0379  0.4247
42083SOL    HW129526   3.434   4.423   7.614  0.0400 -0.0456  0.7009
42083SOL    HW229527   3.344   4.303   7.594  0.3281 -0.1681  0.1224
42084SOL     OW29528   7.317   2.531   6.792 -0.4448 -0.0419  0.4231
42084SOL    HW129529   7.323   2.562   6.882 -0.5872  0.5041  0.2501
42084SOL    HW229530   7.408   2.520   6.764 -0.3799  0.6232  0.3567
42085SOL     OW29531   7.017   3.989   4.706 -0.4107 -0.1696 -0.1362
42085SOL    HW129532   7.074   4.039   4.647  0.7686 -0.5758  0.6212
42085SOL    HW229533   7.059   3.903   4.713 -0.6135 -0.1896  1.1407
42086SOL     OW29534   2.154   7.857   1.159 -0.1502  0.1192  0.1886
42086SOL    HW129535   2.140   7.781   1.216  0.6226  0.0053  0.2406
42086SOL    HW229536   2.243   7.845   1.125 -1.0636 -0.5616 -2.1649
42087SOL     OW29537   3.828   2.134  10.815  0.0400 -0.2135 -0.5222
42087SOL    HW129538   3.870   2.176  10.740  0.0585 -0.4873 -0.6684
42087SOL    HW229539   3.847   2.192  10.889  1.2037 -0.6362 -0.4690
42088SOL     OW29540   1.541   3.865   1.707  0.2772 -0.5613  0.0356
42088SOL    HW129541   1.544   3.769   1.700  0.1943 -0.5186 -0.6413
42088SOL    HW229542   1.569   3.896   1.621  1.7688  0.0422  0.7004
42089SOL     OW29543   1.482   6.534   3.933 -0.2076 -0.0808 -0.2484
42089SOL    HW129544   1.524   6.501   4.013  1.6007 -1.6814 -1.7905
42089SOL    HW229545   1.421   6.601   3.965 -1.6470 -2.5765  2.7539
42090SOL     OW29546   3.321   4.041  10.081  0.3874  0.5337  0.0490
42090SOL    HW129547   3.277   4.032  10.165 -0.9660 -0.3599 -0.7009
42090SOL    HW229548   3.396   3.982  10.086  0.1365  0.2527  0.5335
42091SOL     OW29549   4.242   2.677   2.723 -1.0022 -0.5056 -0.3173
42091SOL    HW129550   4.242   2.770   2.747 -3.4133 -0.0718 -1.6311
42091SOL    HW229551   4.230   2.677   2.628  0.8029 -2.1898 -0.5941
42092SOL     OW29552   9.235   1.781  10.177  0.1457  0.1327  0.1026
42092SOL    HW129553   9.209   1.696  10.143  1.9514 -0.6675  0.5716
42092SOL    HW229554   9.272   1.762  10.264  0.9763  1.3073  0.0362
42093SOL     OW29555   6.457  10.240   1.972  0.1121  0.1832 -0.2217
42093SOL    HW129556   6.472  10.334   1.961 -0.9745  0.2867 -0.8787
42093SOL    HW229557   6.523  10.199   1.916 -0.3432  0.5812 -1.0571
42094SOL     OW29558   9.097   2.819   8.141  0.2660 -0.1883  0.2824
42094SOL    HW129559   9.030   2.769   8.188 -0.1150 -0.8297 -0.9125
42094SOL    HW229560   9.102   2.777   8.055 -1.0602  2.6620 -1.3099
42095SOL     OW29561   9.916   7.030   0.349 -0.1425  0.0464  0.5211
42095SOL    HW129562   9.983   7.050   0.415  1.4129  0.2696 -1.0639
42095SOL    HW229563   9.884   7.116   0.320 -0.6084 -0.0448  0.7563
42096SOL     OW29564   1.127   9.138   7.136  0.1010 -0.0501 -0.9182
42096SOL    HW129565   1.217   9.169   7.144 -0.0181  0.5477 -1.7390
42096SOL    HW229566   1.104   9.109   7.224  1.3474 -0.9538 -0.8628
42097SOL     OW29567   2.730   4.866   6.472  0.2101 -0.4549 -0.5374
42097SOL    HW129568   2.770   4.947   6.441 -1.1267  0.0259 -1.0903
42097SOL    HW229569   2.721   4.812   6.394 -0.1251 -0.5937 -0.4071
42098SOL     OW29570   1.777   8.882   8.561 -0.3660 -0.1088  0.1040
42098SOL    HW129571   1.842   8.850   8.498 -0.7981 -0.9335  0.0631
42098SOL    HW229572   1.785   8.978   8.557  1.4721 -0.1922  0.7715
42099SOL     OW29573   9.055   8.870   5.731  0.3188 -0.3404 -0.2594
42099SOL    HW129574   9.038   8.778   5.710 -0.4688 -0.2294 -0.1401
42099SOL    HW229575   9.049   8.915   5.647  0.6599 -0.3906 -0.3112
42100SOL     OW29576   2.107   7.732   8.236 -0.4885 -0.1910 -0.2946
42100SOL    HW129577   2.013   7.720   8.222 -0.4709 -0.3883 -0.2379
42100SOL    HW229578   2.120   7.827   8.229 -0.8886 -0.0334  0.9086
42101SOL     OW29579   1.562   3.148   9.508 -0.0678 -0.0853  0.4569
42101SOL    HW129580   1.593   3.221   9.562 -0.1175  0.5195 -0.3218
42101SOL    HW229581   1.628   3.139   9.439 -0.3919 -0.3577  0.1764
42102SOL     OW29582   6.548   4.696   4.335 -0.0827 -0.3116 -0.1745
42102SOL    HW129583   6.556   4.777   4.285  0.5561 -0.9407 -1.1344
42102SOL    HW229584   6.457   4.669   4.323 -0.5496  0.6955  0.8800
42103SOL     OW29585   8.527   1.449   6.312  0.1591 -0.1693  0.3604
42103SOL    HW129586   8.476   1.522   6.346  0.7858  0.4397  0.0242
42103SOL    HW229587   8.463   1.379   6.297 -0.5557  0.5503  0.0120
42104SOL     OW29588   5.534  10.956   2.081  0.1400 -0.6958 -0.4827
42104SOL    HW129589   5.440  10.966   2.095  0.3165 -0.5188  0.7410
42104SOL    HW229590   5.574  10.986   2.163  1.3118  0.0600 -1.2987
42105SOL     OW29591   0.596   4.527   5.518  0.5948 -0.0493  0.2927
42105SOL    HW129592   0.624   4.610   5.478  1.3374  0.3663  1.6003
42105SOL    HW229593   0.542   4.485   5.452  0.3939  1.3855 -0.4866
42106SOL     OW29594   3.555   4.752   8.287  0.0618  0.3212 -0.1332
42106SOL    HW129595   3.517   4.721   8.369  0.6042 -0.2789 -0.1030
42106SOL    HW229596   3.644   4.779   8.311  0.8902 -1.5947 -0.8362
42107SOL     OW29597   1.415   4.703   2.917 -0.5382 -0.8868 -0.8552
42107SOL    HW129598   1.496   4.741   2.883 -0.0728 -1.4772 -0.4134
42107SOL    HW229599   1.355   4.704   2.842 -0.1904 -0.2859 -1.1365
42108SOL     OW29600   0.273   8.490   4.747 -0.2672  0.5761 -0.1863
42108SOL    HW129601   0.259   8.517   4.838 -2.5665 -0.4193 -0.1857
42108SOL    HW229602   0.201   8.530   4.699  0.8108  0.9167 -1.5841
42109SOL     OW29603   4.492   4.639  10.158  0.2871  0.3090 -1.0279
42109SOL    HW129604   4.473   4.546  10.146 -0.8034  0.6624 -2.3556
42109SOL    HW229605   4.419   4.684  10.116  0.3843  1.7853  0.2895
42110SOL     OW29606   5.111  10.210   4.740 -0.4430  0.2689 -0.1723
42110SOL    HW129607   5.203  10.218   4.764 -0.4786 -1.0698  0.5215
42110SOL    HW229608   5.064  10.209   4.824 -0.9960  0.0281 -0.4790
42111SOL     OW29609   3.962   7.398   6.046  0.3528 -0.8920  0.3391
42111SOL    HW129610   3.975   7.467   5.981  0.5526  0.5219  1.8380
42111SOL    HW229611   4.040   7.343   6.039  0.2627 -0.9123 -0.7597
42112SOL     OW29612   2.801   4.082   4.139 -0.3269  0.2547 -0.4495
42112SOL    HW129613   2.790   4.047   4.051 -1.1198 -0.2181 -0.1686
42112SOL    HW229614   2.733   4.149   4.147 -0.4100  0.1361 -0.1230
42113SOL     OW29615   6.554   0.954   5.867 -0.5540 -0.5824  0.6749
42113SOL    HW129616   6.459   0.956   5.850 -0.4869  2.2018  0.1472
42113SOL    HW229617   6.565   1.007   5.947  0.6385  0.2696 -0.0173
42114SOL     OW29618   2.170   8.660   0.570  0.3764  0.2744 -0.1675
42114SOL    HW129619   2.106   8.719   0.531  0.1708 -0.3508 -0.7808
42114SOL    HW229620   2.230   8.639   0.498  0.5272 -0.1588  0.0848
42115SOL     OW29621  10.538  10.726  10.572 -0.8194  0.6743 -0.3896
42115SOL    HW129622  10.533  10.671  10.494  1.4257 -0.9288  0.4960
42115SOL    HW229623  10.619  10.776  10.562  0.7452 -1.2005  1.8038
42116SOL     OW29624   2.506   2.687   6.703  0.0331 -0.7790 -0.0888
42116SOL    HW129625   2.525   2.593   6.704  2.5679 -0.3395  1.1960
42116SOL    HW229626   2.508   2.712   6.795 -0.7541  0.5529 -0.4098
42117SOL     OW29627   8.571   5.186   6.331 -0.3051 -0.4059  0.5801
42117SOL    HW129628   8.646   5.140   6.369  0.4043  1.2367  1.2416
42117SOL    HW229629   8.503   5.119   6.324  1.2701 -1.9955 -0.2545
42118SOL     OW29630   5.758   8.150   9.667 -0.3592  0.5581  0.1268
42118SOL    HW129631   5.838   8.151   9.613 -1.9466  0.6952 -2.4130
42118SOL    HW229632   5.786   8.183   9.752  2.4321 -0.1167 -0.4196
42119SOL     OW29633   7.835   5.782  10.323  0.5343  0.1460 -0.4508
42119SOL    HW129634   7.925   5.769  10.294  0.2066 -0.1238 -1.3581
42119SOL    HW229635   7.794   5.833  10.253 -0.0091  0.3111 -0.0172
42120SOL     OW29636  10.139  11.392   9.863 -0.5473  0.0639 -0.1682
42120SOL    HW129637  10.205  11.402   9.795 -1.7910  3.2162 -1.1090
42120SOL    HW229638  10.056  11.407   9.818 -1.6276 -0.3207  1.6029
42121SOL     OW29639   7.261   2.968  10.979  0.6486  0.5113 -0.4072
42121SOL    HW129640   7.260   2.974  10.884 -0.1152  2.9570 -0.3148
42121SOL    HW229641   7.264   2.874  10.998 -0.1049 -0.0473 -2.8238
42122SOL     OW29642   6.732   4.065   1.262  0.0419  0.5314 -1.2054
42122SOL    HW129643   6.642   4.096   1.272  0.5982  1.5012  2.8097
42122SOL    HW229644   6.785   4.145   1.256  0.8359  0.1814  0.3782
42123SOL     OW29645   8.468   6.489   5.460  0.3281  0.0153  0.1743
42123SOL    HW129646   8.445   6.488   5.367 -0.0872  1.6999  0.2302
42123SOL    HW229647   8.406   6.429   5.501  0.1683 -0.3359 -0.5714
42124SOL     OW29648   7.376   0.571   7.072 -0.2781  0.3191 -0.7589
42124SOL    HW129649   7.358   0.649   7.019 -2.1179  0.6449  0.2559
42124SOL    HW229650   7.290   0.537   7.094  0.4657 -0.8069  0.5783
42125SOL     OW29651   3.214   6.275   9.030 -0.5493 -0.2066 -0.0767
42125SOL    HW129652   3.279   6.315   8.972 -0.3462  0.0328  0.3150
42125SOL    HW229653   3.250   6.188   9.049 -0.7622 -0.4048 -0.5449
42126SOL     OW29654   5.290   9.737   6.671  0.3447  0.2873  0.1610
42126SOL    HW129655   5.330   9.821   6.692 -0.3704  0.6287  0.1704
42126SOL    HW229656   5.228   9.757   6.600  0.0281 -0.1921  0.2983
42127SOL     OW29657  10.000   2.068  10.262 -0.1119  0.2281  0.0350
42127SOL    HW129658   9.914   2.093  10.295 -0.7587  1.3821 -2.3138
42127SOL    HW229659   9.988   2.059  10.167  2.3205  0.3290 -0.3551
42128SOL     OW29660   0.985   3.099   7.568 -0.1308  0.3206  0.4646
42128SOL    HW129661   1.023   3.091   7.655 -1.0710  1.8669  1.0559
42128SOL    HW229662   0.891   3.088   7.581 -0.2448  0.1317 -0.4173
42129SOL     OW29663   1.411  10.372   6.572  0.1925 -0.3327  0.2604
42129SOL    HW129664   1.477  10.305   6.592  0.0186 -0.3779  0.7069
42129SOL    HW229665   1.353  10.371   6.648 -0.0673  0.0172  0.0688
42130SOL     OW29666   9.059   4.652   4.353  0.2528 -0.4498 -0.5262
42130SOL    HW129667   9.058   4.634   4.447  0.0659  0.4480 -0.3560
42130SOL    HW229668   9.036   4.744   4.345 -0.4591 -0.6939 -1.5012
42131SOL     OW29669   6.334   3.513   3.462  0.4848 -0.1721 -0.1598
42131SOL    HW129670   6.298   3.425   3.475 -0.2299 -0.0546 -1.1987
42131SOL    HW229671   6.418   3.511   3.507  0.6108 -1.4850 -0.4107
42132SOL     OW29672   5.696   0.516   2.669 -0.1738  0.0519  0.0005
42132SOL    HW129673   5.781   0.472   2.672  1.1394  1.9771 -3.6702
42132SOL    HW229674   5.675   0.521   2.576 -2.7909  2.4441  0.5931
42133SOL     OW29675   0.124   9.575   2.151 -0.3764  0.2048  0.4068
42133SOL    HW129676   0.088   9.662   2.131 -1.1059 -0.2125 -0.1267
42133SOL    HW229677   0.216   9.581   2.126  0.1244  1.4824  2.3672
42134SOL     OW29678   2.216   8.122   9.913 -0.0324 -0.4674 -0.5321
42134SOL    HW129679   2.144   8.106   9.974 -3.7937 -0.3141 -4.4995
42134SOL    HW229680   2.228   8.039   9.867  0.6961  0.1743 -1.5483
42135SOL     OW29681   5.868   4.273   8.259 -0.1870  0.2389 -0.0467
42135SOL    HW129682   5.854   4.345   8.321 -0.7544  0.6500 -0.6418
42135SOL    HW229683   5.790   4.220   8.266 -1.0380  1.2132 -1.6174
42136SOL     OW29684   4.734  11.067   6.816  0.2102 -0.4456 -0.1965
42136SOL    HW129685   4.705  11.155   6.791 -1.8186 -0.8442  0.5145
42136SOL    HW229686   4.653  11.024   6.845  1.6032 -1.6132  2.2300
42137SOL     OW29687  10.770   5.090   2.260  0.1803 -0.5592 -1.2058
42137SOL    HW129688  10.705   5.057   2.197 -0.4989 -1.0356 -0.2747
42137SOL    HW229689  10.832   5.139   2.206 -3.0363  3.4013 -1.8057
42138SOL     OW29690   1.587   9.360   3.506  0.1861 -0.0474  0.1960
42138SOL    HW129691   1.502   9.404   3.517 -0.5939 -1.7956  1.6083
42138SOL    HW229692   1.650   9.432   3.503 -0.8697  1.2372  3.7646
42139SOL     OW29693   2.033   2.717   0.391  0.1731 -0.2410  1.3155
42139SOL    HW129694   2.099   2.649   0.407 -0.6841 -1.0907  1.3339
42139SOL    HW229695   2.038   2.774   0.468  1.0442 -0.1445  1.2032
42140SOL     OW29696   5.718   8.512   6.007 -0.5613 -0.2472 -0.0011
42140SOL    HW129697   5.729   8.601   5.974  0.8006 -0.2517  0.3464
42140SOL    HW229698   5.628   8.489   5.986  0.1121 -0.2071 -3.6034
42141SOL     OW29699   8.674   4.604  11.202 -0.6761 -0.7043 -0.2603
42141SOL    HW129700   8.668   4.620  11.108  1.6031 -1.7533 -0.6523
42141SOL    HW229701   8.610   4.534  11.219 -2.3520  0.6548 -0.6359
42142SOL     OW29702   4.043   9.878   4.685  0.5522 -0.1380 -0.2455
42142SOL    HW129703   4.088   9.916   4.760  0.9111 -0.4653 -0.2942
42142SOL    HW229704   3.954   9.861   4.716  0.0076  1.8685 -0.5737
42143SOL     OW29705  10.807   5.789   1.503  0.5751  0.2881  0.2799
42143SOL    HW129706  10.768   5.839   1.430  2.1865  2.0995  0.5790
42143SOL    HW229707  10.849   5.715   1.461  1.4458  1.2849 -0.6755
42144SOL     OW29708   7.989   5.000  10.996  0.0820 -0.4592 -0.2138
42144SOL    HW129709   7.900   5.028  10.974 -0.1560 -1.4683 -0.6381
42144SOL    HW229710   7.994   5.008  11.092 -0.8579 -1.4089 -0.0597
42145SOL     OW29711   8.284  11.079  10.275 -0.6309  0.3121 -0.1394
42145SOL    HW129712   8.246  11.110  10.192 -2.0496  0.8920  0.6801
42145SOL    HW229713   8.308  10.988  10.258 -1.8223  0.1133 -0.9272
42146SOL     OW29714   2.042   9.324  10.732 -0.2108 -0.3233  0.4827
42146SOL    HW129715   2.135   9.346  10.728 -0.2157 -0.3244  0.3630
42146SOL    HW229716   2.040   9.232  10.757 -0.1871 -0.2344  0.8147
42147SOL     OW29717   3.773   6.232   3.836 -0.4883 -0.7642 -0.2680
42147SOL    HW129718   3.804   6.147   3.805  1.4471 -0.2814  0.2100
42147SOL    HW229719   3.834   6.256   3.905 -1.9761  0.2892  0.7408
42148SOL     OW29720  10.766   7.433  10.417 -0.5273 -0.2064 -0.3786
42148SOL    HW129721  10.826   7.499  10.381 -0.2867  0.2302  0.7705
42148SOL    HW229722  10.710   7.409  10.344 -0.9770  1.6793 -0.7170
42149SOL     OW29723   9.590   1.730  10.766  0.5038 -0.0002  0.2343
42149SOL    HW129724   9.586   1.654  10.708  1.2316 -1.7355  2.3245
42149SOL    HW229725   9.683   1.754  10.767  0.0406  2.3544 -2.0262
42150SOL     OW29726   3.054   1.363   6.629 -0.0794  0.0679 -0.6846
42150SOL    HW129727   3.148   1.344   6.628  0.0751  0.5949  1.1544
42150SOL    HW229728   3.049   1.456   6.604  0.0397  0.4954  0.8284
42151SOL     OW29729   3.979   5.884   5.227 -0.0126 -0.4646  0.3139
42151SOL    HW129730   3.990   5.792   5.251 -0.2371 -0.2800  1.1996
42151SOL    HW229731   4.056   5.928   5.263 -0.0384 -0.2659  0.1288
42152SOL     OW29732   6.109   3.645   7.284 -0.4505 -0.0638  0.1492
42152SOL    HW129733   6.043   3.597   7.233 -1.3490  0.6758  0.6002
42152SOL    HW229734   6.071   3.653   7.371 -0.2917  1.3796  0.1130
42153SOL     OW29735   1.269   3.922   1.428  0.3160  0.1405 -0.5025
42153SOL    HW129736   1.245   3.965   1.346  1.0374 -0.4254 -1.0261
42153SOL    HW229737   1.269   3.992   1.493  0.6436  0.7709 -1.1758
42154SOL     OW29738   1.135   1.003   8.980  0.0120 -0.7067  0.0845
42154SOL    HW129739   1.188   1.022   9.057  0.7435 -1.9879 -0.0737
42154SOL    HW229740   1.081   1.081   8.967  0.7385 -0.0112  1.1780
42155SOL     OW29741   3.195   2.907   3.238 -0.0408  0.6524 -0.0612
42155SOL    HW129742   3.253   2.947   3.303 -1.9052  1.3809  1.2683
42155SOL    HW229743   3.155   2.833   3.285  0.3624 -0.3064 -1.1923
42156SOL     OW29744   9.433   9.525   9.858  0.4009 -0.3812  0.4246
42156SOL    HW129745   9.488   9.571   9.794 -0.1515 -1.2779 -0.7150
42156SOL    HW229746   9.444   9.576   9.939  0.4017  1.3033 -0.5924
42157SOL     OW29747   4.120   1.285   3.622  0.7511  0.1606 -0.3788
42157SOL    HW129748   4.177   1.267   3.697 -0.7400  1.7231  1.2190
42157SOL    HW229749   4.086   1.200   3.596  0.7866 -0.3419  1.1399
42158SOL     OW29750   7.186  10.360   7.960  0.0812 -0.6318  0.0503
42158SOL    HW129751   7.093  10.341   7.973 -0.0105  0.4690  1.2191
42158SOL    HW229752   7.227  10.274   7.957 -1.0022 -1.1453 -0.7618
42159SOL     OW29753  10.982   0.841   6.180 -0.3107 -0.4641  0.5201
42159SOL    HW129754  10.949   0.882   6.100 -1.2283 -2.1205  0.0097
42159SOL    HW229755  10.906   0.798   6.219  0.4992 -1.2608  1.2760
42160SOL     OW29756   9.226   2.829  10.808  0.3887  0.6326 -0.1303
42160SOL    HW129757   9.279   2.752  10.789 -0.9280 -0.4074  0.3346
42160SOL    HW229758   9.290   2.900  10.818  1.7151 -0.6459  0.7536
42161SOL     OW29759   1.968   8.898   1.573  0.0157  0.3691  0.7340
42161SOL    HW129760   2.016   8.819   1.548 -1.0086 -0.6560  1.8692
42161SOL    HW229761   2.036   8.964   1.585  1.1045 -0.8282  1.4915
42162SOL     OW29762   0.710   4.005  10.364  0.1360  0.6923 -0.2648
42162SOL    HW129763   0.688   4.098  10.366 -1.8603  0.2519  1.1532
42162SOL    HW229764   0.658   3.966  10.435 -0.8036 -1.8454 -2.1645
42163SOL     OW29765   9.290   0.775   8.182  0.5587 -0.3504 -0.0605
42163SOL    HW129766   9.232   0.852   8.184  0.2972 -0.4936 -1.1547
42163SOL    HW229767   9.322   0.773   8.092  2.4051 -0.1925  0.5571
42164SOL     OW29768   2.827   6.799   7.929 -0.1929  0.0198  0.2489
42164SOL    HW129769   2.894   6.835   7.871  0.6526 -0.2821  1.0200
42164SOL    HW229770   2.874   6.741   7.989 -1.3505 -1.3841 -0.1306
42165SOL     OW29771   7.138   2.473   7.212  0.5882  0.0832  0.0976
42165SOL    HW129772   7.165   2.457   7.303 -1.9446 -3.6494  0.3706
42165SOL    HW229773   7.160   2.392   7.166 -1.0262  0.7092 -1.8848
42166SOL     OW29774   9.595   0.701   4.749  0.2718 -0.1810  0.6670
42166SOL    HW129775   9.658   0.772   4.760  0.8039 -0.5641  0.1403
42166SOL    HW229776   9.533   0.734   4.684 -0.7898  0.6657  2.0510
42167SOL     OW29777   1.062  10.005   6.997  0.7880 -0.1858 -0.1053
42167SOL    HW129778   1.140   9.971   7.040  1.5296  0.8502 -0.5859
42167SOL    HW229779   1.043  10.087   7.044  0.9046  0.3436 -0.9616
42168SOL     OW29780   9.906   2.799   6.555 -0.1017 -0.3288 -0.2901
42168SOL    HW129781   9.999   2.798   6.530  0.1578  0.7079  0.5487
42168SOL    HW229782   9.906   2.829   6.646 -1.2688 -0.2083 -0.3171
42169SOL     OW29783  11.178   2.083   2.947  0.3104 -0.6603 -0.1459
42169SOL    HW129784  11.158   2.037   2.866 -0.5849  0.0262 -0.3324
42169SOL    HW229785  11.246   2.146   2.922 -1.0829  0.6590 -0.7674
42170SOL     OW29786   6.919   2.167   1.134 -0.1435 -0.2379  0.2658
42170SOL    HW129787   6.954   2.132   1.052 -2.5945 -3.2897  0.3317
42170SOL    HW229788   6.953   2.108   1.201 -1.3323 -0.2048  0.9136
42171SOL     OW29789   9.472   0.146  10.994 -0.4087 -0.1857  0.0700
42171SOL    HW129790   9.445   0.226  11.040 -1.4782  0.6420 -1.8901
42171SOL    HW229791   9.561   0.166  10.964 -1.4702  1.2769 -2.3890
42172SOL     OW29792   0.696   4.111   2.921  0.6069 -0.3413  0.3656
42172SOL    HW129793   0.651   4.071   2.846 -0.5475 -0.0031  0.8636
42172SOL    HW229794   0.632   4.109   2.991  1.7895 -0.9813  1.4739
42173SOL     OW29795   0.734  10.338   1.849 -0.0887  0.1823 -0.1433
42173SOL    HW129796   0.779  10.255   1.836  1.1144  0.6732  0.7532
42173SOL    HW229797   0.786  10.384   1.915 -0.6245  1.7334 -0.7501
42174SOL     OW29798   3.380   8.996   7.685 -0.0584 -0.1678  0.1002
42174SOL    HW129799   3.358   8.922   7.629  1.0059 -0.4079 -0.0204
42174SOL    HW229800   3.313   9.062   7.666 -1.6487 -1.4654  0.9639
42175SOL     OW29801   8.054   6.879   5.844 -0.4961  0.3591 -0.0993
42175SOL    HW129802   8.037   6.844   5.756 -0.6073  0.7277 -0.2271
42175SOL    HW229803   8.127   6.826   5.877 -0.0470  0.6124 -0.6579
42176SOL     OW29804   4.282   6.865   6.968  0.1348 -0.0315  0.1169
42176SOL    HW129805   4.325   6.831   6.889  1.1646  1.0269  0.1934
42176SOL    HW229806   4.264   6.787   7.020  0.7733 -0.6306 -0.5160
42177SOL     OW29807   3.756  10.441   7.513 -0.2878  0.7668  0.1101
42177SOL    HW129808   3.695  10.367   7.508  0.4071  0.1573  0.3288
42177SOL    HW229809   3.718  10.499   7.578  0.0085 -0.2490  1.2375
42178SOL     OW29810  10.311   3.072   2.906  0.2223  0.1859 -0.2818
42178SOL    HW129811  10.256   3.028   2.970  0.3409 -0.4480 -0.6001
42178SOL    HW229812  10.259   3.146   2.876  0.3809  0.7963  0.9216
42179SOL     OW29813   0.611   8.680   0.294 -0.2777 -0.3028  0.1282
42179SOL    HW129814   0.520   8.697   0.317 -0.3220 -0.0032 -0.2376
42179SOL    HW229815   0.617   8.585   0.284 -0.2945 -0.4248  1.1640
42180SOL     OW29816   9.990   7.396   4.169 -0.3109 -0.4084 -0.4569
42180SOL    HW129817   9.963   7.349   4.248  1.5035 -0.7223  0.0101
42180SOL    HW229818   9.922   7.375   4.105 -0.2772 -2.5815  0.1463
42181SOL     OW29819   6.939   4.605   7.068 -0.6726  0.0158 -0.0951
42181SOL    HW129820   6.877   4.672   7.096 -1.0181  0.0063 -0.8160
42181SOL    HW229821   6.923   4.595   6.974 -1.4457 -1.9043  0.1897
42182SOL     OW29822  10.046  11.324   8.828 -0.1473  0.0695  0.9858
42182SOL    HW129823   9.988  11.278   8.888 -0.7744  1.1582  1.2469
42182SOL    HW229824  10.081  11.256   8.771 -1.4892 -0.6632  0.9881
42183SOL     OW29825   9.321   3.826   1.667 -0.0973  0.2334  0.2815
42183SOL    HW129826   9.406   3.829   1.711  0.8280 -1.5490 -1.2446
42183SOL    HW229827   9.336   3.871   1.584 -0.9918  0.9012  0.4658
42184SOL     OW29828   0.942   3.483   2.835 -0.1225 -0.5200  0.2869
42184SOL    HW129829   0.861   3.485   2.886 -0.6476  1.3383 -0.5785
42184SOL    HW229830   1.006   3.445   2.895 -1.2635 -0.5822  1.5108
42185SOL     OW29831   9.102   2.593   6.827  0.2952 -0.5407 -0.0215
42185SOL    HW129832   9.115   2.666   6.766  2.4988 -3.6925 -3.7707
42185SOL    HW229833   9.173   2.602   6.891  1.2522  0.0651 -1.1235
42186SOL     OW29834   4.786   2.626   5.005 -0.0405  0.6038  0.5393
42186SOL    HW129835   4.795   2.532   5.022  1.1829  0.6433  0.2347
42186SOL    HW229836   4.798   2.634   4.910 -2.3904  0.8458  0.2157
42187SOL     OW29837   5.879   7.180   5.380 -0.2619  0.6502  0.3550
42187SOL    HW129838   5.848   7.212   5.295  0.1924 -0.5361 -0.2790
42187SOL    HW229839   5.954   7.237   5.400  0.2940  0.2818 -0.5705
42188SOL     OW29840   2.140   1.435   8.295 -0.0700  0.2323  0.3585
42188SOL    HW129841   2.059   1.412   8.251 -0.8983  0.8714  1.4875
42188SOL    HW229842   2.180   1.352   8.318 -1.2614 -0.1211  1.2696
42189SOL     OW29843  10.104   5.373   7.584  0.4097  0.0253 -0.2444
42189SOL    HW129844  10.168   5.302   7.576  0.1299 -0.0431 -2.6323
42189SOL    HW229845  10.146   5.437   7.640  1.6629 -0.9735  0.0074
42190SOL     OW29846   1.458  10.343   3.138  0.2401 -0.0618  0.0428
42190SOL    HW129847   1.499  10.345   3.225 -0.5411  0.2943  0.4115
42190SOL    HW229848   1.419  10.256   3.133 -0.3467  0.1812  0.3508
42191SOL     OW29849   2.605   6.753   6.868  0.1836 -0.4050  0.1191
42191SOL    HW129850   2.532   6.704   6.832  0.0813  0.9402 -1.6253
42191SOL    HW229851   2.622   6.712   6.953 -2.3541 -0.9607  0.4311
42192SOL     OW29852   6.859   5.009   1.438  0.1535 -0.3325 -0.3630
42192SOL    HW129853   6.784   5.042   1.489 -0.2476 -2.1665  0.2893
42192SOL    HW229854   6.824   4.933   1.391  0.9551  0.3403 -2.1311
42193SOL     OW29855   3.767   5.136   2.059  0.1642 -0.7086 -0.0873
42193SOL    HW129856   3.751   5.209   1.998 -0.5920 -0.0688  0.8428
42193SOL    HW229857   3.703   5.150   2.129 -0.8785 -2.9949 -0.5042
42194SOL     OW29858   8.690   9.349   9.013  0.6771 -0.1681 -0.0972
42194SOL    HW129859   8.747   9.359   9.089 -0.2377  1.2671  0.4352
42194SOL    HW229860   8.605   9.323   9.050  0.8748 -2.0849 -0.8587
42195SOL     OW29861   2.144   1.509   2.728 -0.0058 -0.2527 -0.3037
42195SOL    HW129862   2.114   1.470   2.646 -0.8003 -0.6454  0.1597
42195SOL    HW229863   2.238   1.489   2.731 -0.2624 -1.5389 -0.4089
42196SOL     OW29864   5.601   1.872   2.992 -0.6629 -0.0500 -0.6959
42196SOL    HW129865   5.630   1.958   2.961  1.1301  0.0466  1.0306
42196SOL    HW229866   5.548   1.891   3.070  1.9725 -0.4844  1.3446
42197SOL     OW29867   6.850   3.485   4.642 -0.7547  0.4468 -0.0130
42197SOL    HW129868   6.887   3.572   4.656 -0.0909  0.4970 -1.8368
42197SOL    HW229869   6.834   3.480   4.548  1.9102 -2.3895 -0.4909
42198SOL     OW29870   8.130   9.274  11.274  0.9457  0.5859 -0.2011
42198SOL    HW129871   8.073   9.347  11.299 -0.2141  0.1271 -1.3585
42198SOL    HW229872   8.070   9.200  11.264  2.1229 -0.5985  1.1577
42199SOL     OW29873   7.101   4.743   4.845 -0.2610 -0.3250 -0.0690
42199SOL    HW129874   7.080   4.738   4.752  0.5170  1.9236 -0.4117
42199SOL    HW229875   7.131   4.655   4.867 -1.3633 -1.1532 -1.6929
42200SOL     OW29876   6.568   7.247  11.137  0.4142 -0.7194  0.0322
42200SOL    HW129877   6.559   7.170  11.081  3.2524 -1.9720  1.0918
42200SOL    HW229878   6.581   7.212  11.225 -1.6068  1.1389  1.1843
42201SOL     OW29879   9.993   3.063  11.215  0.5122  0.3831 -0.0211
42201SOL    HW129880   9.914   3.078  11.267  0.0922 -0.4413 -0.4100
42201SOL    HW229881   9.965   3.079  11.125  0.6137 -0.5506 -0.2270
42202SOL     OW29882   4.392  11.162  10.932  0.0628  0.3999  0.7296
42202SOL    HW129883   4.328  11.099  10.964  0.1687 -0.6678 -1.0265
42202SOL    HW229884   4.340  11.226  10.883  0.2833 -0.3225 -0.4769
42203SOL     OW29885   8.926   2.755   4.104  0.3369  0.0611 -0.0316
42203SOL    HW129886   8.999   2.715   4.151  0.1246  0.1422  0.3667
42203SOL    HW229887   8.965   2.784   4.021  0.5786 -0.5990 -0.1540
42204SOL     OW29888   4.192   4.064  10.380  0.3633 -0.4856 -0.6936
42204SOL    HW129889   4.234   4.003  10.441 -0.3383 -0.2781  0.0133
42204SOL    HW229890   4.154   4.132  10.436  0.3387  0.1059 -1.4134
42205SOL     OW29891   1.233   5.236   6.700 -0.0858 -0.0151  0.0655
42205SOL    HW129892   1.189   5.159   6.736  1.6322 -0.4032  1.4614
42205SOL    HW229893   1.167   5.278   6.645 -1.5548 -1.6108  0.5333
42206SOL     OW29894   1.412   7.289  10.914  0.2971  0.3570 -0.3272
42206SOL    HW129895   1.469   7.213  10.910  0.7630  0.6384  0.5530
42206SOL    HW229896   1.468   7.360  10.944 -0.4234  0.7294  0.1917
42207SOL     OW29897  10.801   5.821  10.091 -0.1726  0.2086 -0.5272
42207SOL    HW129898  10.751   5.855  10.166 -1.6765  1.1608 -1.8859
42207SOL    HW229899  10.745   5.839  10.016  0.3153 -2.6859 -1.6863
42208SOL     OW29900   6.960   5.408   7.258  0.3802 -0.1438  0.2531
42208SOL    HW129901   7.006   5.457   7.189 -0.2379  0.5362  0.3077
42208SOL    HW229902   6.961   5.317   7.227  1.9437 -0.1918  0.3658
42209SOL     OW29903   3.168  11.110   5.687  0.0444  0.4962 -0.5606
42209SOL    HW129904   3.105  11.053   5.643  0.7041  0.7171 -1.8420
42209SOL    HW229905   3.181  11.070   5.773 -0.1817 -0.7863 -1.1001
42210SOL     OW29906   6.943  10.878   8.429 -0.3426 -0.3710 -0.2674
42210SOL    HW129907   6.928  10.830   8.347  0.9999 -1.9492  0.3493
42210SOL    HW229908   6.916  10.818   8.498 -4.5713  2.0954  0.5338
42211SOL     OW29909   4.373  10.750  10.916  0.1956  0.1666 -0.1538
42211SOL    HW129910   4.319  10.674  10.936 -1.8892  1.8715  1.2614
42211SOL    HW229911   4.418  10.771  10.998  0.0575  0.9409 -0.2630
42212SOL     OW29912   0.991  10.919   9.555 -0.2981 -0.3691  0.4588
42212SOL    HW129913   1.037  10.989   9.601 -1.0430 -1.1264  2.4910
42212SOL    HW229914   0.979  10.952   9.466  0.9507  1.3129  0.8720
42213SOL     OW29915   1.151   8.998   2.215  0.0282 -0.7649 -0.5346
42213SOL    HW129916   1.177   8.996   2.307  0.6743  1.9151 -0.5808
42213SOL    HW229917   1.056   9.008   2.217  0.0858 -0.2525 -0.1275
42214SOL     OW29918  10.247   0.359   5.998  0.0106  0.5755 -0.1210
42214SOL    HW129919  10.307   0.339   5.925  1.3664 -0.3643  1.1839
42214SOL    HW229920  10.236   0.276   6.043 -0.6062  1.1837  0.8835
42215SOL     OW29921  10.565   3.259   1.150 -0.6670  0.3264 -0.6575
42215SOL    HW129922  10.511   3.330   1.186 -0.6212  0.0713 -0.0781
42215SOL    HW229923  10.629   3.304   1.094  0.0143  0.8400  0.5030
42216SOL     OW29924   1.906   8.161  10.309  0.3047  0.1983 -0.2276
42216SOL    HW129925   1.821   8.202  10.293 -0.9326 -2.2528 -0.4160
42216SOL    HW229926   1.922   8.107  10.231  0.8162 -1.2760  0.8483
42217SOL     OW29927   8.093   3.615   5.256  0.1804 -0.4428  0.4066
42217SOL    HW129928   8.007   3.643   5.224  0.0371 -0.8053  0.4694
42217SOL    HW229929   8.101   3.656   5.342  0.0243 -0.4931  0.4457
42218SOL     OW29930   8.369   7.201  10.670  0.2697 -0.0822  0.1841
42218SOL    HW129931   8.450   7.251  10.674  0.1345  0.2182 -0.5660
42218SOL    HW229932   8.310   7.245  10.730  0.6139 -0.2183  0.6258
42219SOL     OW29933   0.451   6.248   3.197 -0.3396  0.1110 -0.0049
42219SOL    HW129934   0.497   6.270   3.278  0.0060  0.2947 -0.2562
42219SOL    HW229935   0.374   6.305   3.197 -0.4287 -0.0057  0.2749
42220SOL     OW29936   0.148   4.830   1.191 -0.0848 -0.3950 -1.1355
42220SOL    HW129937   0.193   4.754   1.228  1.0070  1.2131  1.1281
42220SOL    HW229938   0.218   4.881   1.149 -0.5628  0.0450 -1.4191
42221SOL     OW29939  10.360   3.260   5.226  0.8671 -0.4586  0.2047
42221SOL    HW129940  10.349   3.315   5.149  2.3325 -0.3327  0.0469
42221SOL    HW229941  10.272   3.250   5.262  0.2653  0.0719 -1.0715
42222SOL     OW29942   8.583   9.613  10.541  0.4433  0.1423 -0.1247
42222SOL    HW129943   8.606   9.706  10.543 -0.4409  0.4733 -2.6027
42222SOL    HW229944   8.662   9.569  10.510  1.4002 -0.2267  2.5424
42223SOL     OW29945   7.607   4.284   2.468  0.1010 -0.2385 -0.1391
42223SOL    HW129946   7.654   4.222   2.413  0.4522 -0.3958  0.3344
42223SOL    HW229947   7.582   4.355   2.408  2.1588  0.5491 -0.1550
42224SOL     OW29948   6.841   1.498   8.898  0.4482 -0.1849  0.4807
42224SOL    HW129949   6.904   1.490   8.826 -0.9998 -0.8116 -0.7894
42224SOL    HW229950   6.885   1.459   8.973  2.9218  2.5272  0.6439
42225SOL     OW29951   5.480   3.273  10.677  0.3989  0.0807  0.1565
42225SOL    HW129952   5.560   3.326  10.680  0.5118  0.1085 -1.9954
42225SOL    HW229953   5.411   3.334  10.650 -0.0007 -0.3056  0.2847
42226SOL     OW29954   3.155   3.960  10.561 -0.6904 -0.1696 -0.0473
42226SOL    HW129955   3.121   3.871  10.561 -1.3687  0.0602  1.1147
42226SOL    HW229956   3.078   4.015  10.579 -0.1747  0.5953 -0.1221
42227SOL     OW29957   0.242  11.010  11.119 -0.0814  0.4620 -0.3082
42227SOL    HW129958   0.254  10.916  11.110  0.4594  0.5876 -1.0495
42227SOL    HW229959   0.331  11.046  11.117 -0.3187  1.0511 -0.9732
42228SOL     OW29960   9.143   4.508   5.031  0.3071  0.4037 -0.3104
42228SOL    HW129961   9.237   4.496   5.016  0.0486 -0.8425 -1.0648
42228SOL    HW229962   9.110   4.420   5.045 -0.3879  0.9934  2.3636
42229SOL     OW29963  11.336   0.569   5.800  0.5738 -0.2172 -0.1840
42229SOL    HW129964  11.315   0.524   5.718  2.7475 -1.8598  0.0743
42229SOL    HW229965  11.264   0.631   5.812 -0.3184 -0.6076 -2.8070
42230SOL     OW29966   5.362   5.284   9.657 -0.0456  0.3476  0.2687
42230SOL    HW129967   5.319   5.204   9.689  0.3720 -0.2590 -0.6246
42230SOL    HW229968   5.455   5.263   9.660  0.0276  0.4598 -0.8022
42231SOL     OW29969   2.132   1.535   1.325 -0.2559  0.3363  0.2176
42231SOL    HW129970   2.059   1.552   1.385 -0.7208  1.4369 -0.6214
42231SOL    HW229971   2.098   1.559   1.239  1.4174  1.9675 -0.0610
42232SOL     OW29972   9.254   4.470   2.272 -0.5784 -0.3249  0.6723
42232SOL    HW129973   9.329   4.451   2.328  1.1355 -0.5763 -1.5711
42232SOL    HW229974   9.229   4.560   2.294 -0.0885 -0.4868  1.9486
42233SOL     OW29975  10.497   2.304   1.789  0.4407  0.3136  0.1135
42233SOL    HW129976  10.530   2.387   1.755 -0.0415  1.0123  1.2931
42233SOL    HW229977  10.402   2.313   1.787  0.3962  0.5816  2.0654
42234SOL     OW29978   2.246   0.848   3.031 -0.3604  0.4506 -1.0214
42234SOL    HW129979   2.162   0.802   3.028 -0.7581  0.9833  0.8909
42234SOL    HW229980   2.237   0.918   2.966 -1.3309  0.3766 -0.9806
42235SOL     OW29981   5.525   3.150   1.748 -0.1704 -0.1266 -0.0234
42235SOL    HW129982   5.579   3.136   1.670 -2.4595 -0.5837 -1.6361
42235SOL    HW229983   5.551   3.081   1.809 -0.4195 -1.7373 -1.6490
42236SOL     OW29984   4.938   2.613   4.691  0.7937  0.4958  0.4913
42236SOL    HW129985   5.002   2.574   4.631  1.8694  1.3305  1.0473
42236SOL    HW229986   4.899   2.685   4.641  1.1869  0.7479  0.5330
42237SOL     OW29987   8.812   7.446   2.053 -0.2324 -0.2062 -1.0118
42237SOL    HW129988   8.833   7.413   2.140  0.5399  1.7641 -0.3959
42237SOL    HW229989   8.761   7.376   2.012 -1.0414 -0.9724  1.1914
42238SOL     OW29990   7.490  10.671   0.032  0.4230 -0.0190 -0.4911
42238SOL    HW129991   7.577  10.683  -0.006 -0.0070 -0.3056 -1.5910
42238SOL    HW229992   7.431  10.713  -0.030 -0.2062  0.4807  0.4201
42239SOL     OW29993   2.936   2.413   0.939 -0.7112 -0.3202  0.6200
42239SOL    HW129994   2.923   2.367   0.856  1.3500  2.1262 -1.2707
42239SOL    HW229995   2.864   2.476   0.943  1.4333  2.6914 -1.9122
42240SOL     OW29996   2.136   5.127   3.463  0.3453  0.0809 -0.5604
42240SOL    HW129997   2.225   5.098   3.479 -0.0885 -0.4358  1.0523
42240SOL    HW229998   2.129   5.132   3.367  1.9476 -0.3019 -0.7105
42241SOL     OW29999   8.996  10.459   2.316  0.2832  0.0268  0.1498
42241SOL    HW130000   8.957  10.502   2.391  1.6357  0.3903  0.6631
42241SOL    HW230001   8.930  10.467   2.247 -0.1405  1.5236  0.6877
42242SOL     OW30002   0.631   6.331   6.958 -0.0638 -0.0372  0.3608
42242SOL    HW130003   0.673   6.246   6.976 -1.1966 -0.5195  0.8425
42242SOL    HW230004   0.573   6.314   6.884  0.6785  0.6666 -0.4058
42243SOL     OW30005   4.247  10.611   4.485 -0.4763  0.0330  0.3238
42243SOL    HW130006   4.178  10.564   4.437  0.1888  0.2121 -0.8405
42243SOL    HW230007   4.328  10.570   4.456 -0.0347  0.3628  1.0709
42244SOL     OW30008   8.837   7.154   7.808 -0.1647 -0.1058  0.8564
42244SOL    HW130009   8.838   7.231   7.751 -0.6775 -1.1268 -0.5842
42244SOL    HW230010   8.784   7.181   7.883  0.3023  1.1800  0.7551
42245SOL     OW30011   5.904  10.692   4.914 -0.0740  0.2575  0.4476
42245SOL    HW130012   5.967  10.703   4.985  1.2316 -0.1468 -0.6018
42245SOL    HW230013   5.864  10.778   4.904  1.4234  0.9525  0.1523
42246SOL     OW30014   3.074   8.860   4.151 -0.1892 -0.3004 -0.1070
42246SOL    HW130015   3.134   8.836   4.080  0.0424  2.9523 -1.1751
42246SOL    HW230016   2.991   8.880   4.106 -1.0272 -1.2479  0.9494
42247SOL     OW30017   4.084   4.182   6.450 -0.3753  0.2812 -0.1563
42247SOL    HW130018   4.136   4.250   6.491  0.7080  0.2222 -1.3720
42247SOL    HW230019   4.125   4.168   6.365 -2.1009 -0.1060 -0.9731
42248SOL     OW30020   5.751   9.168   5.010 -0.1600 -0.4188  0.2936
42248SOL    HW130021   5.713   9.212   4.934  0.4938 -0.5849 -0.1377
42248SOL    HW230022   5.837   9.209   5.021 -0.0648 -0.7116  0.6650
42249SOL     OW30023   6.057  11.218  10.129  0.1336 -0.0484 -0.2113
42249SOL    HW130024   6.108  11.278  10.183  0.7670  1.7176 -2.5829
42249SOL    HW230025   6.092  11.131  10.150  0.2680  0.5165  2.1846
42250SOL     OW30026   0.163   6.205   9.518 -0.6066 -0.7002  0.6031
42250SOL    HW130027   0.101   6.264   9.474 -1.1676 -0.3125  1.8711
42250SOL    HW230028   0.227   6.184   9.450  0.7841  2.9707  0.5243
42251SOL     OW30029   0.584  10.688   9.777  0.1988 -0.1638  0.1765
42251SOL    HW130030   0.549  10.619   9.722 -0.8613 -1.2183  2.0635
42251SOL    HW230031   0.536  10.680   9.859  1.0487  1.9277  0.9483
42252SOL     OW30032  10.262   4.534  10.252  0.6558 -0.3716 -0.1569
42252SOL    HW130033  10.217   4.480  10.317  0.3558 -0.1777 -0.2013
42252SOL    HW230034  10.198   4.543  10.181  0.5792  0.3080 -0.0099
42253SOL     OW30035  10.184   6.187   4.900  0.4977  0.1324 -0.1113
42253SOL    HW130036  10.156   6.096   4.910 -0.3856  0.0711 -2.4081
42253SOL    HW230037  10.265   6.181   4.848  0.5751  0.6523 -0.0525
42254SOL     OW30038   0.692   5.866   9.815 -0.1585  0.6137  0.5136
42254SOL    HW130039   0.605   5.906   9.813 -0.5469 -0.2008  0.5537
42254SOL    HW230040   0.746   5.928   9.863 -0.6050  1.3531  0.0836
42255SOL     OW30041  10.976  11.306   3.812  0.0645 -0.2455 -0.1535
42255SOL    HW130042  10.979  11.214   3.836  1.0768 -0.2594 -0.2960
42255SOL    HW230043  10.896  11.314   3.759  0.1152 -1.0938 -0.3773
42256SOL     OW30044   2.713   5.713   0.178 -1.1351  0.4957 -0.1363
42256SOL    HW130045   2.755   5.796   0.156 -0.0962 -0.5556 -2.3770
42256SOL    HW230046   2.708   5.713   0.274  2.9885  1.1934  0.2646
42257SOL     OW30047   6.864   5.493   6.614 -0.2263 -0.1783  0.5222
42257SOL    HW130048   6.774   5.518   6.636 -0.2105  0.9023 -0.5204
42257SOL    HW230049   6.858   5.460   6.524  0.1189 -1.9716  1.1232
42258SOL     OW30050   2.228  11.220  11.395  0.1142  0.5650 -0.1538
42258SOL    HW130051   2.218  11.209  11.301 -2.4896  0.5104  0.0538
42258SOL    HW230052   2.298  11.159  11.419  0.6525  0.3908 -1.9888
42259SOL     OW30053  10.016   8.191   0.231 -0.5610 -0.3709 -0.0402
42259SOL    HW130054  10.093   8.135   0.242  0.6302  1.4886  1.6506
42259SOL    HW230055   9.956   8.162   0.300 -0.5084 -0.4458 -0.0253
42260SOL     OW30056   4.471  10.242   9.113  0.3288 -0.2172 -0.2434
42260SOL    HW130057   4.459  10.254   9.019 -3.1800 -2.6030 -0.3032
42260SOL    HW230058   4.400  10.292   9.153 -1.8709 -3.6539  0.6037
42261SOL     OW30059   1.826   9.183   9.891  0.8738  0.0020  0.5834
42261SOL    HW130060   1.765   9.216   9.957  2.2893  1.9293  1.0220
42261SOL    HW230061   1.835   9.090   9.911 -0.6215  0.0243  1.5286
42262SOL     OW30062   3.475   9.967   5.666 -0.5386 -0.3138  0.4227
42262SOL    HW130063   3.502   9.876   5.679 -0.3617 -0.1736  1.0825
42262SOL    HW230064   3.381   9.961   5.650 -0.3609 -0.6895 -0.5314
42263SOL     OW30065   7.664  10.137   2.942  0.0947 -0.8262  0.1460
42263SOL    HW130066   7.627  10.071   2.884  0.0251 -1.8394  1.3117
42263SOL    HW230067   7.749  10.158   2.904 -0.6375 -0.2483 -1.2232
42264SOL     OW30068   0.392   3.379   2.343  0.6558 -0.0631  0.5227
42264SOL    HW130069   0.346   3.318   2.284  1.1509  1.9451 -2.1557
42264SOL    HW230070   0.484   3.366   2.322  0.8168  0.9195  0.6159
42265SOL     OW30071   0.188   5.767  10.428 -0.9869 -0.3393 -0.1231
42265SOL    HW130072   0.115   5.785  10.368 -1.0194  0.4206  0.1365
42265SOL    HW230073   0.147   5.757  10.514 -0.9465 -1.4855 -0.2196
42266SOL     OW30074   0.953   5.906   5.908 -0.2535  0.1525 -0.5249
42266SOL    HW130075   0.857   5.913   5.908 -0.3753 -1.0302 -2.0944
42266SOL    HW230076   0.976   5.898   5.816  1.2987 -0.3621 -0.1144
42267SOL     OW30077   4.645   1.487   6.375 -0.1877 -0.0100 -0.2747
42267SOL    HW130078   4.673   1.553   6.439  0.4485 -0.7946  0.2768
42267SOL    HW230079   4.593   1.425   6.425  1.1575 -1.1886 -0.2548
42268SOL     OW30080   4.404  10.999   3.608 -0.4982 -0.1593 -0.7340
42268SOL    HW130081   4.455  11.045   3.542  0.2434 -0.7927 -0.6118
42268SOL    HW230082   4.336  11.061   3.634  1.5636  1.6126  0.7714
42269SOL     OW30083   3.053   5.354   2.036 -0.8971 -0.2039  0.1328
42269SOL    HW130084   3.055   5.449   2.035 -3.0552 -0.1122 -0.3156
42269SOL    HW230085   3.037   5.328   1.945 -0.6365 -0.9878  0.2949
42270SOL     OW30086   2.345   6.004  10.995 -0.0589 -0.3508  0.2419
42270SOL    HW130087   2.305   6.010  10.908 -0.9563 -0.3870  0.6457
42270SOL    HW230088   2.288   6.056  11.051 -0.9772 -2.4099  1.3196
42271SOL     OW30089   1.615   1.234   1.232 -0.0803  0.5676 -0.1805
42271SOL    HW130090   1.697   1.252   1.187  0.7566  0.0553  1.0971
42271SOL    HW230091   1.638   1.232   1.325 -1.0018 -2.1048  0.0837
42272SOL     OW30092   8.823   2.624   9.137  0.3303 -0.6102  0.2515
42272SOL    HW130093   8.791   2.700   9.187 -0.3560 -0.4462 -0.4244
42272SOL    HW230094   8.760   2.555   9.156  1.0410 -1.0760  0.9899
42273SOL     OW30095   8.062   6.558   7.212 -0.0435  0.1020 -0.1301
42273SOL    HW130096   8.115   6.634   7.236 -0.3577  0.0451  0.8054
42273SOL    HW230097   8.021   6.531   7.294  0.5509 -1.4630 -0.3095
42274SOL     OW30098   2.462   3.733   2.624 -0.1662 -0.2031 -0.1396
42274SOL    HW130099   2.367   3.743   2.630 -0.0539  2.1364 -1.0118
42274SOL    HW230100   2.496   3.796   2.688  0.8123 -0.5818 -0.2739
42275SOL     OW30101   5.507   8.943   9.090  0.2950 -0.4886  0.2308
42275SOL    HW130102   5.567   9.017   9.089  0.3475 -0.5158  0.9148
42275SOL    HW230103   5.559   8.870   9.121 -0.4213 -0.1977  2.2576
42276SOL     OW30104   8.176   3.976   9.323  0.1357  0.0520 -0.2974
42276SOL    HW130105   8.148   3.945   9.237 -0.2475 -1.4324  0.3389
42276SOL    HW230106   8.243   4.042   9.304 -1.6089  1.5052 -1.7837
42277SOL     OW30107   8.032   4.737  10.789 -0.1262  0.1667 -0.4819
42277SOL    HW130108   8.091   4.805  10.756 -0.0014  0.1575 -0.2804
42277SOL    HW230109   8.001   4.770  10.873  2.1981 -1.2555  1.0759
42278SOL     OW30110   4.314  10.291   9.998 -0.3963  0.0408 -0.0404
42278SOL    HW130111   4.268  10.322  10.076 -1.4173  0.3824 -0.7698
42278SOL    HW230112   4.245  10.266   9.937  0.3870  0.3186 -1.0696
42279SOL     OW30113  10.709   2.077   8.352 -0.2176 -0.4611  0.8209
42279SOL    HW130114  10.736   2.161   8.316 -0.2943 -0.5788  0.4897
42279SOL    HW230115  10.770   2.014   8.314 -0.8752 -0.7134  0.1604
42280SOL     OW30116   4.125  11.237   2.628  0.3827 -0.3345  0.1786
42280SOL    HW130117   4.058  11.169   2.638  0.2840 -0.1268  1.0046
42280SOL    HW230118   4.206  11.195   2.656  0.4246 -0.2906  0.1240
42281SOL     OW30119   3.538   1.367  10.180  0.4659 -0.2491  0.3842
42281SOL    HW130120   3.587   1.339  10.256 -1.8163 -0.1182  2.0109
42281SOL    HW230121   3.547   1.463  10.179  3.0753 -0.4165 -1.4631
42282SOL     OW30122   3.711   7.354   6.126 -0.2505 -0.2731 -0.0680
42282SOL    HW130123   3.723   7.341   6.220 -0.6978 -0.0308  0.0260
42282SOL    HW230124   3.792   7.323   6.087  0.0631 -0.0833  0.4235
42283SOL     OW30125   0.081   8.377   7.990  0.0989  0.0463  0.5506
42283SOL    HW130126   0.169   8.344   8.005 -0.0275 -0.9759 -0.7790
42283SOL    HW230127   0.061   8.428   8.068  2.1199  0.8616  0.5983
42284SOL     OW30128   7.200   6.228   6.532 -0.6007 -0.5341  0.0543
42284SOL    HW130129   7.274   6.276   6.569  1.0502 -1.1235 -2.2097
42284SOL    HW230130   7.210   6.138   6.564 -0.9842 -0.3772  0.6172
42285SOL     OW30131   2.983   7.029   3.673 -0.4126  0.4056  0.1567
42285SOL    HW130132   2.899   7.072   3.689 -0.4875 -0.1340  1.3177
42285SOL    HW230133   3.037   7.051   3.749  0.2173  0.0951 -0.1927
42286SOL     OW30134   2.247   0.553   3.009  0.4853 -0.1283 -0.1856
42286SOL    HW130135   2.158   0.536   3.041  0.3697 -0.9015 -0.8719
42286SOL    HW230136   2.280   0.466   2.985  2.5325 -0.3087  2.7957
42287SOL     OW30137   3.953   7.415   9.166 -0.3908 -0.0868  0.6771
42287SOL    HW130138   4.005   7.337   9.146  1.9803  1.0095  2.0665
42287SOL    HW230139   3.932   7.452   9.081  1.7271 -0.2677  0.0007
42288SOL     OW30140   4.739   2.968   2.091 -0.1223 -0.0226 -0.2803
42288SOL    HW130141   4.828   3.002   2.100 -0.3231  0.4510 -0.0504
42288SOL    HW230142   4.751   2.875   2.070  0.4249  0.0551 -0.3300
42289SOL     OW30143   2.790   8.275   9.763  0.7958  0.1117  0.3412
42289SOL    HW130144   2.831   8.308   9.683  1.7373  0.0480  0.7795
42289SOL    HW230145   2.816   8.183   9.767  0.1110 -0.0855  0.3244
42290SOL     OW30146   6.143   6.400   9.678  0.7373  0.1129 -0.3626
42290SOL    HW130147   6.144   6.490   9.709  0.6052 -0.0106  0.0165
42290SOL    HW230148   6.206   6.355   9.734 -2.1941 -0.9480  2.4354
42291SOL     OW30149   2.560   2.697   2.135 -0.1139  0.4428 -0.0881
42291SOL    HW130150   2.510   2.737   2.206  0.2360  2.3600 -0.8573
42291SOL    HW230151   2.641   2.668   2.176 -0.8165 -0.4905  0.6905
42292SOL     OW30152   9.731  10.486   7.795  0.7582  0.0114  0.5191
42292SOL    HW130153   9.807  10.528   7.756 -0.0435  0.5852 -0.4573
42292SOL    HW230154   9.659  10.548   7.781 -0.0193 -0.7879  0.8742
42293SOL     OW30155  10.440   2.589   3.995 -0.3477 -0.5300 -0.0901
42293SOL    HW130156  10.391   2.507   3.999 -0.5892 -0.4032 -0.3943
42293SOL    HW230157  10.527   2.567   4.028 -0.6677 -0.7096  0.6579
42294SOL     OW30158   6.382   2.451   4.886 -0.4768 -0.1498 -0.5347
42294SOL    HW130159   6.369   2.422   4.976  2.0118 -0.4000 -0.1743
42294SOL    HW230160   6.476   2.470   4.881 -1.0058  2.5987 -2.2910
42295SOL     OW30161   0.408  10.958   4.293 -0.5457 -0.1344 -0.3661
42295SOL    HW130162   0.335  10.976   4.353 -0.7981 -1.9592 -0.0650
42295SOL    HW230163   0.485  10.992   4.338 -0.8634 -0.6170  0.5832
42296SOL     OW30164   0.606   5.369   3.611  0.6881 -0.6549 -0.1997
42296SOL    HW130165   0.603   5.445   3.670 -1.6451 -1.3351  0.6938
42296SOL    HW230166   0.680   5.386   3.553  0.6609  1.9624  0.4159
42297SOL     OW30167   9.898  11.194   0.723  0.0828  0.2539  0.8291
42297SOL    HW130168   9.826  11.245   0.687  0.0761 -0.8005 -0.7314
42297SOL    HW230169   9.969  11.203   0.659  0.7421 -0.1199  1.4832
42298SOL     OW30170   6.353   0.851   4.311 -0.0383 -0.0338  0.2336
42298SOL    HW130171   6.384   0.762   4.327 -0.7535 -0.6919 -1.7682
42298SOL    HW230172   6.427   0.896   4.270 -0.1927 -0.1960 -0.2277
42299SOL     OW30173   9.172   7.348  11.246 -0.6924 -0.3965  0.1021
42299SOL    HW130174   9.098   7.314  11.296 -1.7204  1.8354  0.2222
42299SOL    HW230175   9.201   7.274  11.193 -3.9089 -1.0767 -0.9784
42300SOL     OW30176   3.547   1.532   7.113 -0.5893  0.5224 -0.1191
42300SOL    HW130177   3.500   1.599   7.162 -2.6507  0.1442 -1.4366
42300SOL    HW230178   3.609   1.582   7.058 -0.7876  1.1990  0.2619
42301SOL     OW30179   1.634  10.022   4.803 -0.0209  0.1762  0.8451
42301SOL    HW130180   1.552  10.063   4.775  0.2519  0.0159 -0.2421
42301SOL    HW230181   1.703  10.076   4.763  0.3619 -0.6306  0.3961
42302SOL     OW30182   8.202   9.232   6.733 -0.0106 -0.2090 -0.0588
42302SOL    HW130183   8.269   9.170   6.707 -1.0872 -0.5336 -2.2832
42302SOL    HW230184   8.145   9.183   6.792 -0.0729 -0.9157 -0.7023
42303SOL     OW30185   8.310  10.716   7.295 -0.4093  0.2046  0.5169
42303SOL    HW130186   8.234  10.659   7.285  0.3645 -0.9299  0.9529
42303SOL    HW230187   8.320  10.725   7.390 -0.0873  0.4801  0.4568
42304SOL     OW30188  10.247   0.207   2.806  0.4960  0.1978  0.3290
42304SOL    HW130189  10.154   0.191   2.788  1.1931 -2.0078 -1.8338
42304SOL    HW230190  10.257   0.189   2.900 -0.7427 -2.7480  0.0048
42305SOL     OW30191   5.447   4.170   9.868  0.2899  0.1310  0.2873
42305SOL    HW130192   5.380   4.108   9.897  2.6692 -1.8952  1.8256
42305SOL    HW230193   5.485   4.205   9.948  1.7691  0.4151 -0.4886
42306SOL     OW30194   5.671   5.376  11.042 -0.1970  0.5471 -0.2681
42306SOL    HW130195   5.602   5.328  10.996  1.1967 -0.5176 -1.3290
42306SOL    HW230196   5.687   5.324  11.122 -0.9368  1.0658  0.2300
42307SOL     OW30197   1.684   1.951   8.123 -0.3173  0.0180  0.0760
42307SOL    HW130198   1.611   2.005   8.092 -0.6257 -0.0424  0.6907
42307SOL    HW230199   1.666   1.935   8.215  1.0680  0.9751  0.5517
42308SOL     OW30200   7.691   6.039  11.237  0.1883  0.7819 -0.2860
42308SOL    HW130201   7.621   6.037  11.171 -1.2232 -2.5084  1.0924
42308SOL    HW230202   7.742   5.959  11.220 -0.0369 -0.0093  2.3627
42309SOL     OW30203   4.710   2.924   9.290 -0.0762  0.0733  0.0483
42309SOL    HW130204   4.784   2.966   9.335 -0.8648 -0.4608  1.9368
42309SOL    HW230205   4.710   2.834   9.322 -0.9168 -0.2216 -0.7409
42310SOL     OW30206   5.705   2.631   4.143  0.2677 -0.1664  0.0078
42310SOL    HW130207   5.630   2.574   4.128 -0.2620  0.5552 -0.1870
42310SOL    HW230208   5.671   2.719   4.126  1.2305  0.1499 -0.3259
42311SOL     OW30209   9.417   1.393   5.424  0.4245  0.1115  0.2410
42311SOL    HW130210   9.504   1.434   5.428  0.9270 -0.9622  0.7230
42311SOL    HW230211   9.425   1.326   5.356 -0.0053 -0.0376  0.3370
42312SOL     OW30212   0.162   3.989   3.607  0.1979  0.4294 -0.5068
42312SOL    HW130213   0.226   3.958   3.543  0.2711  2.0738 -1.2949
42312SOL    HW230214   0.080   3.947   3.581  0.5804 -0.2695 -0.6062
42313SOL     OW30215   4.110   6.416   3.576 -0.0260  0.5352 -0.3085
42313SOL    HW130216   4.152   6.366   3.646  0.2052  1.0688 -0.0617
42313SOL    HW230217   4.183   6.454   3.527 -0.2129  1.1537 -0.1097
42314SOL     OW30218   0.411  10.284   0.534  0.0398  0.1222  1.4489
42314SOL    HW130219   0.403  10.293   0.439  1.6669 -2.4882  0.9726
42314SOL    HW230220   0.467  10.358   0.560 -1.2446  1.4599  0.5955
42315SOL     OW30221   0.990   6.523   5.123  0.5348 -0.3735 -0.1728
42315SOL    HW130222   1.035   6.586   5.067 -1.1772 -0.0955 -1.3176
42315SOL    HW230223   0.988   6.565   5.209  0.2257  0.7631 -0.7070
42316SOL     OW30224   0.704   3.825   4.219  0.2325  0.4772 -0.1029
42316SOL    HW130225   0.645   3.832   4.294  0.5218  0.6813  0.1117
42316SOL    HW230226   0.726   3.732   4.214  0.9461  0.5983  0.6434
42317SOL     OW30227   2.310   0.667   3.743  0.4242 -0.2198 -0.2492
42317SOL    HW130228   2.228   0.691   3.701 -0.1726 -0.7815  0.5514
42317SOL    HW230229   2.372   0.658   3.671 -0.6969 -1.7314 -1.1021
42318SOL     OW30230   8.049   3.820   0.135 -0.5291 -0.1126 -0.2646
42318SOL    HW130231   8.074   3.735   0.171 -0.1420 -0.2278 -0.7962
42318SOL    HW230232   8.020   3.801   0.046  0.5858  0.4377 -0.7617
42319SOL     OW30233   4.287   0.476   5.045  0.6624  0.0227 -0.2353
42319SOL    HW130234   4.318   0.427   4.969 -0.1503  0.2239 -0.7100
42319SOL    HW230235   4.196   0.446   5.057  0.3028  1.0825 -0.2639
42320SOL     OW30236   4.972   4.571   0.637  0.0414 -0.0537  0.0394
42320SOL    HW130237   4.941   4.486   0.666  1.1867 -0.4865  0.0372
42320SOL    HW230238   4.912   4.596   0.566 -1.6216  0.1513  1.4600
42321SOL     OW30239   7.687   0.965   2.520  0.1136  0.4570  0.0921
42321SOL    HW130240   7.709   1.034   2.458  0.5940  1.1238  0.9830
42321SOL    HW230241   7.734   0.989   2.600  0.6606 -1.1474  0.2810
42322SOL     OW30242  10.014   8.079   0.494  0.8046  0.8395 -0.2897
42322SOL    HW130243  10.062   8.007   0.534 -0.4643  1.0842  1.8000
42322SOL    HW230244   9.948   8.038   0.439  0.8140  0.4501 -0.0068
42323SOL     OW30245  10.790   0.090   4.115  0.5908 -0.2247  0.0990
42323SOL    HW130246  10.697   0.108   4.107  0.5787 -0.8049 -1.3635
42323SOL    HW230247  10.799  -0.003   4.095  1.5922  0.0549 -0.9098
42324SOL     OW30248   7.256   2.230   7.101  0.1554  0.3012 -0.2988
42324SOL    HW130249   7.251   2.243   7.006  0.1889  1.2069 -0.1820
42324SOL    HW230250   7.197   2.156   7.118  0.0446  0.2210 -1.0081
42325SOL     OW30251   2.303   6.615   4.764  0.1982  0.1047  0.1381
42325SOL    HW130252   2.300   6.709   4.751 -0.5406  0.0286 -0.3309
42325SOL    HW230253   2.346   6.581   4.686 -0.8086 -0.0452 -0.3759
42326SOL     OW30254   7.984   8.178   8.821 -0.9126  0.3448  0.2236
42326SOL    HW130255   7.961   8.180   8.914 -0.6511 -1.5336  0.3701
42326SOL    HW230256   8.019   8.090   8.807 -1.0603  0.5504 -1.6918
42327SOL     OW30257   8.669   8.271  11.333 -0.7111 -0.2246  0.6068
42327SOL    HW130258   8.636   8.225  11.256 -1.6915 -1.1551  1.5381
42327SOL    HW230259   8.710   8.351  11.299 -0.4790 -0.9696 -0.9134
42328SOL     OW30260   6.324   6.089   4.332  0.5525 -0.8453 -0.1638
42328SOL    HW130261   6.235   6.102   4.367 -0.3960  1.8486 -3.0991
42328SOL    HW230262   6.310   6.044   4.249  2.0419 -1.1469 -0.2733
42329SOL     OW30263   4.077   4.319   9.587  0.0693 -0.1330  0.0590
42329SOL    HW130264   4.154   4.270   9.557 -0.8329 -0.9224 -1.0658
42329SOL    HW230265   4.025   4.331   9.507 -1.0746  0.1861  0.8386
42330SOL     OW30266  10.513   4.534  10.163 -0.0426 -0.2861  1.0579
42330SOL    HW130267  10.424   4.530  10.197 -0.5642  1.0796 -0.0378
42330SOL    HW230268  10.523   4.624  10.131  2.9635  0.8200  4.3748
42331SOL     OW30269   2.006   4.545   8.103 -0.4261  0.1902 -0.5439
42331SOL    HW130270   2.033   4.557   8.194  0.6263 -1.2359 -0.6375
42331SOL    HW230271   2.082   4.570   8.051 -1.1372  1.3384 -1.0838
42332SOL     OW30272   4.205   9.064   2.845 -0.2920 -0.0222 -0.5257
42332SOL    HW130273   4.180   9.001   2.778  0.3747  0.4465 -1.2249
42332SOL    HW230274   4.258   9.014   2.907  1.3316  0.1091 -1.7575
42333SOL     OW30275   0.516   2.587   9.896 -0.0073  0.0923  0.3741
42333SOL    HW130276   0.602   2.605   9.856 -0.5905  0.8328 -0.5978
42333SOL    HW230277   0.476   2.523   9.839 -0.6741  0.8292 -0.0075
42334SOL     OW30278   2.735   0.069   5.624  0.7524 -0.1597  0.4251
42334SOL    HW130279   2.721  -0.010   5.572 -0.4602 -0.6108  1.3902
42334SOL    HW230280   2.657   0.122   5.607  1.4613  0.7479 -0.0449
42335SOL     OW30281   4.420   0.822   3.609 -0.4096 -0.1160 -0.0931
42335SOL    HW130282   4.507   0.782   3.598 -0.7137 -1.0342  0.6859
42335SOL    HW230283   4.438   0.915   3.616  0.6140 -0.3644  0.8849
42336SOL     OW30284   8.806   3.826   8.957 -0.5164 -0.4665  0.3029
42336SOL    HW130285   8.761   3.863   8.881  1.9540 -2.0477 -2.0981
42336SOL    HW230286   8.875   3.888   8.977 -0.8822 -0.2782  1.0271
42337SOL     OW30287   3.075  10.591   4.955 -0.2879 -0.0754  0.2842
42337SOL    HW130288   3.170  10.605   4.950 -0.3808  0.6935  0.6731
42337SOL    HW230289   3.063  10.539   5.034 -0.1323 -0.7848 -0.1441
42338SOL     OW30290   6.421   5.594   0.741  0.7889 -0.1670  0.2414
42338SOL    HW130291   6.499   5.544   0.764  1.2532  0.7922  0.8137
42338SOL    HW230292   6.358   5.573   0.811  1.1758  0.4636  0.7883
42339SOL     OW30293   8.039   9.591   8.371  0.1803 -0.2222  0.1613
42339SOL    HW130294   8.021   9.611   8.463 -1.5147  0.6976 -0.3406
42339SOL    HW230295   8.107   9.653   8.346 -0.8395  0.9707  0.2522
42340SOL     OW30296   5.367   2.498   7.268  0.1839  0.1865  0.2952
42340SOL    HW130297   5.315   2.418   7.264  0.7741 -0.2247  0.8070
42340SOL    HW230298   5.453   2.473   7.234  1.0575  0.0259  2.4581
42341SOL     OW30299   6.526   1.013   4.589 -0.4668  0.4375  0.5366
42341SOL    HW130300   6.531   1.100   4.628 -1.0912  0.8847 -0.3484
42341SOL    HW230301   6.575   1.019   4.507 -0.1669 -0.1585  0.6640
42342SOL     OW30302   4.944   1.356   5.982 -0.1904 -0.4476  0.1235
42342SOL    HW130303   4.906   1.330   6.066  1.6426  1.3276  1.6142
42342SOL    HW230304   5.016   1.294   5.968  1.2824  0.9055  1.3581
42343SOL     OW30305   4.177   6.013   3.323 -0.8384 -0.3526 -0.0321
42343SOL    HW130306   4.117   6.069   3.372  0.1926  2.8285 -2.0513
42343SOL    HW230307   4.123   5.972   3.256 -1.6264 -1.9588  1.5199
42344SOL     OW30308   4.150   7.233   1.164 -0.3033  0.4196 -0.4574
42344SOL    HW130309   4.113   7.145   1.155 -0.7516  0.5480  0.0390
42344SOL    HW230310   4.082   7.282   1.211 -1.1635  1.7217 -2.8549
42345SOL     OW30311   2.188  11.319   2.661  0.1247 -0.6093  0.0561
42345SOL    HW130312   2.195  11.382   2.733  0.2744 -0.0410 -0.4451
42345SOL    HW230313   2.277  11.315   2.625 -0.3435  0.6022 -1.3218
42346SOL     OW30314  10.320   1.221   7.220 -0.0250 -0.8835 -0.3074
42346SOL    HW130315  10.336   1.306   7.177  0.1153 -0.3586  0.7549
42346SOL    HW230316  10.224   1.213   7.221 -0.0885 -0.1206  0.7395
42347SOL     OW30317   9.470  10.308   8.100  0.8460 -0.7275  0.0372
42347SOL    HW130318   9.402  10.242   8.113 -0.5820  0.5642 -0.5742
42347SOL    HW230319   9.534  10.265   8.043  1.1384 -2.3347  1.4848
42348SOL     OW30320   2.744   8.344   2.906 -0.4567  0.2644  0.0060
42348SOL    HW130321   2.682   8.394   2.851  0.8792 -0.2123 -2.0247
42348SOL    HW230322   2.733   8.253   2.878  0.9764  0.1449 -0.2361
42349SOL     OW30323   5.609   0.267  10.503 -0.1072  0.0242 -0.2391
42349SOL    HW130324   5.577   0.334  10.443 -0.4999  0.7449  0.7491
42349SOL    HW230325   5.619   0.188  10.449  0.3925  0.8771 -1.4241
42350SOL     OW30326   7.800  10.350   0.541 -0.5589  0.3584 -0.1052
42350SOL    HW130327   7.837  10.438   0.550  2.0681 -0.8207  2.0875
42350SOL    HW230328   7.776  10.325   0.630 -0.1155 -1.5698 -0.4773
42351SOL     OW30329   2.552   9.591   2.915  0.2690 -0.1294  0.6121
42351SOL    HW130330   2.487   9.524   2.894  0.6174 -0.2487 -0.1119
42351SOL    HW230331   2.573   9.575   3.007 -0.5036 -0.2781  0.7714
42352SOL     OW30332   0.231  10.419  11.116 -0.0218  0.4927 -0.3914
42352SOL    HW130333   0.325  10.435  11.127  0.4910 -1.4375 -1.4333
42352SOL    HW230334   0.218  10.331  11.154 -1.3015  0.5062 -0.7553
42353SOL     OW30335   7.363   5.827   5.228  0.2021  0.0158  0.4269
42353SOL    HW130336   7.423   5.872   5.287 -0.2469 -0.5864  1.3755
42353SOL    HW230337   7.279   5.828   5.274  0.0978 -1.4397  0.3258
42354SOL     OW30338   6.815   1.094   0.017  0.7456 -0.1274  0.6453
42354SOL    HW130339   6.836   1.172  -0.035 -0.4411 -0.9784 -1.2385
42354SOL    HW230340   6.872   1.026  -0.021 -1.4145 -1.1920 -0.8870
42355SOL     OW30341   5.817   2.012   8.177  0.5464 -0.1942  0.7982
42355SOL    HW130342   5.737   2.040   8.131  0.6560  0.5079  1.0186
42355SOL    HW230343   5.785   1.960   8.250  0.3428 -0.8126  0.2730
42356SOL     OW30344   9.518   5.599   4.512  0.1381 -0.3949 -0.0001
42356SOL    HW130345   9.465   5.677   4.491 -1.4319 -0.7309  2.3538
42356SOL    HW230346   9.525   5.553   4.428 -0.3861  1.3894 -1.0941
42357SOL     OW30347   8.205   5.977   8.031  0.6281 -0.4573  0.3214
42357SOL    HW130348   8.172   5.891   8.059 -0.2193 -0.3803 -0.3899
42357SOL    HW230349   8.239   5.962   7.942  0.2004 -0.0052  0.0740
42358SOL     OW30350   6.743   9.091  10.044  0.7237 -0.5412  0.1864
42358SOL    HW130351   6.679   9.160  10.061 -1.8569 -3.0466  1.8214
42358SOL    HW230352   6.809   9.102  10.112  0.1549  0.1307  0.6448
42359SOL     OW30353   5.668   8.969   3.964  0.2312  0.3426  0.0490
42359SOL    HW130354   5.651   8.935   4.052 -0.8055  1.6600  0.3768
42359SOL    HW230355   5.698   9.058   3.978 -2.1803  1.4058 -0.9739
42360SOL     OW30356   8.081   0.126   5.991  0.4653  0.1616  0.0182
42360SOL    HW130357   8.117   0.066   5.926 -0.7376  0.6300 -1.1404
42360SOL    HW230358   7.987   0.105   5.993  0.4270  0.3984  1.3515
42361SOL     OW30359   1.918   3.527   2.268  0.3654 -0.0832  0.3060
42361SOL    HW130360   1.927   3.622   2.271 -1.2184  0.0930  0.3460
42361SOL    HW230361   1.924   3.506   2.175  1.7121 -0.0818  0.3705
42362SOL     OW30362   5.237   6.521   8.347  0.1578  0.3257  0.0209
42362SOL    HW130363   5.192   6.585   8.402 -1.0808 -0.3655 -0.1555
42362SOL    HW230364   5.208   6.543   8.258 -0.1496 -0.3654 -0.0547
42363SOL     OW30365   5.040  10.330   8.510 -0.4901 -0.2047 -0.0682
42363SOL    HW130366   4.993  10.392   8.567 -1.2702 -1.0366  0.2202
42363SOL    HW230367   5.098  10.283   8.569 -2.1753 -1.9187  0.3177
42364SOL     OW30368   4.680   7.149  10.753 -0.0742 -0.3945  0.0255
42364SOL    HW130369   4.768   7.125  10.723 -0.4932 -1.7176 -0.2037
42364SOL    HW230370   4.634   7.066  10.763 -2.4432  0.3164 -3.2616
42365SOL     OW30371   1.027   8.492  10.134  0.1108  0.1587  0.6947
42365SOL    HW130372   1.073   8.478  10.217  0.5954 -1.8412  0.1538
42365SOL    HW230373   0.997   8.582  10.138  0.4571  0.2297  2.8774
42366SOL     OW30374   0.903   3.454   0.257  0.4256 -0.4145 -0.1644
42366SOL    HW130375   0.908   3.527   0.319  0.5007 -1.0792  0.6370
42366SOL    HW230376   0.994   3.436   0.234  0.3598  0.2662 -1.0116
42367SOL     OW30377   9.538   4.086   8.472  0.3348  0.3472 -0.2995
42367SOL    HW130378   9.492   4.139   8.536 -0.0105 -1.5794  1.1611
42367SOL    HW230379   9.627   4.121   8.470  1.1445 -1.0388  3.2808
42368SOL     OW30380   0.159   5.299   0.494 -0.3779  0.1278 -0.1716
42368SOL    HW130381   0.083   5.327   0.544  0.0737 -0.0290  0.6200
42368SOL    HW230382   0.229   5.358   0.522  0.4470 -1.3561  1.0886
42369SOL     OW30383  10.566  11.262   6.127  0.1741  0.1536  0.6559
42369SOL    HW130384  10.591  11.202   6.057  2.8654  0.8475  0.9304
42369SOL    HW230385  10.523  11.335   6.082 -1.9725 -1.2860  0.2056
42370SOL     OW30386  10.126   6.814  10.923  0.0362 -0.6333 -0.0660
42370SOL    HW130387  10.157   6.758  10.995 -0.8307  1.4737  2.0944
42370SOL    HW230388  10.123   6.902  10.961 -1.1053  0.4853 -2.5334
42371SOL     OW30389   7.122   3.874   3.789  0.4073 -0.2685 -0.1994
42371SOL    HW130390   7.145   3.940   3.855 -0.4374 -1.2729  1.1299
42371SOL    HW230391   7.046   3.829   3.825  0.6554 -1.6469 -1.3181
42372SOL     OW30392   6.746  10.417   7.175 -0.1969 -0.4602  0.0243
42372SOL    HW130393   6.741  10.322   7.174 -2.9279 -0.4165 -0.2945
42372SOL    HW230394   6.754  10.441   7.082  0.5680 -0.3615  0.1103
42373SOL     OW30395   0.739  10.457   8.513 -0.0999  0.4989 -0.2312
42373SOL    HW130396   0.711  10.460   8.604  0.0761  2.6923 -0.1829
42373SOL    HW230397   0.683  10.521   8.469  2.0965  2.0544 -0.9181
42374SOL     OW30398   7.697   0.969   8.252 -0.3626 -0.3592  0.5800
42374SOL    HW130399   7.607   0.997   8.236 -0.5931 -1.5892 -0.4451
42374SOL    HW230400   7.717   1.001   8.340 -1.4470  0.7827  0.4393
42375SOL     OW30401   0.208   8.237   3.043 -0.4577 -0.4757 -0.1251
42375SOL    HW130402   0.188   8.144   3.060  0.6969 -0.6205  0.5643
42375SOL    HW230403   0.170   8.283   3.118  1.7318 -0.7636  1.2489
42376SOL     OW30404   9.141   3.411   4.523 -0.3755 -0.2199 -0.4335
42376SOL    HW130405   9.124   3.367   4.607  0.7451  1.5622  0.8226
42376SOL    HW230406   9.139   3.504   4.545 -0.7399  0.3163 -2.5627
42377SOL     OW30407  10.687   5.318   9.297 -0.6400 -0.0370  0.4841
42377SOL    HW130408  10.646   5.391   9.345 -0.4827  0.7874 -0.5873
42377SOL    HW230409  10.761   5.292   9.351 -1.4608 -0.2892  1.5249
42378SOL     OW30410  10.010   2.307  11.260 -0.3841  0.3806  1.1041
42378SOL    HW130411   9.980   2.218  11.275  0.9324 -0.1902  0.4552
42378SOL    HW230412  10.084   2.319  11.319  0.7173  0.3277 -0.2125
42379SOL     OW30413   1.557   5.771   0.209 -0.4278 -0.1282 -0.0171
42379SOL    HW130414   1.639   5.748   0.165 -0.5761 -0.1443 -0.2848
42379SOL    HW230415   1.489   5.734   0.153 -0.5702 -2.1112  1.3544
42380SOL     OW30416   5.247   6.724   3.528  0.3089  0.0625  0.1807
42380SOL    HW130417   5.209   6.676   3.454  1.7995 -0.9878  0.0625
42380SOL    HW230418   5.288   6.656   3.582 -1.3002  0.7021  2.3588
42381SOL     OW30419   5.793   1.669  10.417 -0.6465 -0.1710 -0.6168
42381SOL    HW130420   5.742   1.731  10.468  0.6975  1.5859 -1.3333
42381SOL    HW230421   5.731   1.634  10.353 -1.3810  0.5826 -0.3327
42382SOL     OW30422   8.259   9.355  10.599  0.2503 -0.5906  0.0049
42382SOL    HW130423   8.311   9.385  10.673 -0.2284  0.1421  0.0516
42382SOL    HW230424   8.173   9.396  10.611 -0.4330 -1.9927  0.0774
42383SOL     OW30425   3.327   2.079  10.802 -0.2714  0.3928  0.4572
42383SOL    HW130426   3.348   2.121  10.885 -0.1237  0.5674  0.3315
42383SOL    HW230427   3.261   2.135  10.762 -1.6499 -0.6015  1.2377
42384SOL     OW30428   3.794   7.752   8.236  0.5013  0.3747 -0.5778
42384SOL    HW130429   3.773   7.672   8.283  0.2312 -0.5177 -2.1408
42384SOL    HW230430   3.710   7.794   8.220  0.6318  0.9225  0.1340
42385SOL     OW30431   9.901   7.076   1.932  0.2728  0.8645 -0.8321
42385SOL    HW130432   9.807   7.088   1.925 -0.1530 -0.5779  1.5573
42385SOL    HW230433   9.922   7.100   2.022  1.6377 -1.7984 -0.3420
42386SOL     OW30434   8.522   8.513   3.280  0.1634 -0.1268  0.0109
42386SOL    HW130435   8.585   8.570   3.238 -0.3400  0.4622  0.0383
42386SOL    HW230436   8.558   8.496   3.367  1.1818 -1.3113 -0.6161
42387SOL     OW30437   1.529  11.278   4.787 -0.3923 -0.0462  0.1985
42387SOL    HW130438   1.609  11.245   4.746 -0.4123  1.4829 -1.1744
42387SOL    HW230439   1.559  11.347   4.846 -0.5415 -0.8654  1.2470
42388SOL     OW30440   6.065   5.357   9.108 -0.0033  0.3477 -0.0705
42388SOL    HW130441   6.030   5.284   9.056 -0.4599 -0.0459  0.7654
42388SOL    HW230442   5.991   5.385   9.162  0.6127  0.3835  0.7624
42389SOL     OW30443   5.173   9.456   3.376  0.8573 -0.5217  0.2274
42389SOL    HW130444   5.202   9.405   3.300  2.4081  3.3678 -2.1163
42389SOL    HW230445   5.251   9.460   3.433  0.5899 -1.1184  0.6405
42390SOL     OW30446   2.835   7.546  11.169 -0.3508 -0.1076 -0.4138
42390SOL    HW130447   2.818   7.456  11.141  0.4670 -0.1393 -0.8606
42390SOL    HW230448   2.929   7.548  11.187 -0.4154  0.5832 -0.1052
42391SOL     OW30449   0.335   4.497   5.676 -0.3436 -0.0600  0.0736
42391SOL    HW130450   0.417   4.534   5.641 -0.3888  0.7025  0.7352
42391SOL    HW230451   0.286   4.574   5.707 -0.4526 -0.6724  1.4757
42392SOL     OW30452   1.667   1.509   8.746 -0.2103  0.1980 -0.1617
42392SOL    HW130453   1.604   1.580   8.756 -0.3578 -0.0002  0.3556
42392SOL    HW230454   1.658   1.458   8.826  0.5230  0.0988 -0.1386
42393SOL     OW30455   4.987   0.080   7.592  0.2112 -0.0460  0.2267
42393SOL    HW130456   5.077   0.105   7.571 -0.8342  0.9531 -3.9839
42393SOL    HW230457   4.978  -0.009   7.557 -0.8597  0.5079 -0.9421
42394SOL     OW30458   1.036   0.013   4.997 -0.0859 -0.2650 -0.1267
42394SOL    HW130459   0.956   0.060   5.020  0.3885  0.1407  0.7423
42394SOL    HW230460   1.056   0.042   4.908 -0.4508  0.2743 -0.0409
42395SOL     OW30461  10.374  10.005   1.093 -0.3284  0.3729 -0.4684
42395SOL    HW130462  10.317   9.949   1.146  0.5298 -0.8145 -0.7601
42395SOL    HW230463  10.355   9.980   1.003  2.5658 -2.1401 -0.5580
42396SOL     OW30464   1.947   3.202   9.728  0.0344 -0.2400  0.0183
42396SOL    HW130465   1.886   3.265   9.690  0.4378 -0.2972 -0.7411
42396SOL    HW230466   1.929   3.120   9.682 -1.3645 -1.0615  1.8659
42397SOL     OW30467   0.738   8.105   9.719  0.6064 -0.3153 -0.9793
42397SOL    HW130468   0.770   8.042   9.655  0.8083 -0.6203 -0.5847
42397SOL    HW230469   0.812   8.118   9.779  0.9136  1.0556 -1.6156
42398SOL     OW30470   1.576   9.689   9.627 -0.0779  0.2680 -0.0949
42398SOL    HW130471   1.573   9.674   9.722  0.3773  0.3277 -0.0666
42398SOL    HW230472   1.652   9.746   9.615 -1.4193  2.1228 -0.2548
42399SOL     OW30473   4.226   2.110   2.653 -0.3980 -0.3834  0.3436
42399SOL    HW130474   4.284   2.083   2.725 -0.2628 -1.0401 -0.0071
42399SOL    HW230475   4.282   2.160   2.594 -0.3581 -0.3941  0.3724
42400SOL     OW30476   6.684   9.396   9.059 -0.0640 -0.3677  0.6630
42400SOL    HW130477   6.745   9.360   8.995  0.7480  0.4644  0.9475
42400SOL    HW230478   6.708   9.353   9.141  1.0664  0.9377  1.0520
42401SOL     OW30479   7.526   6.294   7.004 -0.0150  0.1237 -0.8271
42401SOL    HW130480   7.574   6.348   7.067 -0.8155  0.7670 -0.7496
42401SOL    HW230481   7.583   6.219   6.989 -0.4293 -0.8346  1.8287
42402SOL     OW30482   1.718   4.430   4.998  0.2649 -0.2643  0.3975
42402SOL    HW130483   1.627   4.414   4.971 -0.0188 -1.2764  1.8918
42402SOL    HW230484   1.717   4.519   5.033  0.6504  1.1219 -2.7791
42403SOL     OW30485   0.896   4.186   9.378 -0.5291  0.3353  0.4021
42403SOL    HW130486   0.898   4.247   9.452  2.9041  0.1745  0.6000
42403SOL    HW230487   0.931   4.104   9.415 -1.3374 -0.5798 -0.8016
42404SOL     OW30488   9.507   7.087   5.186  0.1558  0.7218  0.1591
42404SOL    HW130489   9.469   7.075   5.273  1.0431  2.3922  0.8425
42404SOL    HW230490   9.576   7.021   5.180 -1.9934 -1.5690 -0.6396
42405SOL     OW30491   2.896   4.835   1.862 -0.1970  0.6018 -0.1032
42405SOL    HW130492   2.931   4.909   1.913  0.8106 -0.2847  0.5189
42405SOL    HW230493   2.907   4.862   1.771 -0.9956  1.7433  0.1119
42406SOL     OW30494   9.379   2.255   6.857 -0.2056 -0.2639  0.0488
42406SOL    HW130495   9.288   2.223   6.850 -0.2881 -0.3126  1.0814
42406SOL    HW230496   9.392   2.309   6.779 -1.9741  1.8251  1.0839
42407SOL     OW30497  11.135   6.620   8.082 -0.2715 -0.1369  0.4883
42407SOL    HW130498  11.112   6.633   7.990 -2.4563 -0.8820  0.8769
42407SOL    HW230499  11.110   6.702   8.125  1.0519  0.3374  0.4167
42408SOL     OW30500   8.034   4.177   6.357 -0.0652 -0.0846  0.0381
42408SOL    HW130501   8.039   4.178   6.453 -1.6933  1.1100  0.1656
42408SOL    HW230502   8.051   4.268   6.332  0.8817 -0.4997 -0.8575
42409SOL     OW30503   3.043   6.035   8.602 -0.5305  1.0799  0.3128
42409SOL    HW130504   3.132   6.008   8.580  0.0518  2.4978  0.8251
42409SOL    HW230505   3.008   6.070   8.520 -1.0357 -0.4670 -0.1694
42410SOL     OW30506   5.886   9.379   3.224  0.6287 -0.2725  0.3024
42410SOL    HW130507   5.969   9.409   3.187  0.1199 -0.9356 -1.5133
42410SOL    HW230508   5.844   9.458   3.257  0.0652  0.8902 -2.8033
42411SOL     OW30509   5.839   2.700   4.442  0.0274  0.2100 -0.0542
42411SOL    HW130510   5.922   2.661   4.470  0.0815  0.1778 -0.2533
42411SOL    HW230511   5.864   2.765   4.376 -0.1534 -0.2986 -0.6387
42412SOL     OW30512   2.468   6.334   3.444 -0.1939 -0.1617  0.6619
42412SOL    HW130513   2.454   6.250   3.400 -1.0956  0.4356 -0.2366
42412SOL    HW230514   2.561   6.336   3.464  0.2412 -0.4678 -1.2071
42413SOL     OW30515  10.508   3.290   3.136  0.1807  0.4343  0.0609
42413SOL    HW130516  10.447   3.325   3.071 -1.9995 -2.3542  0.3960
42413SOL    HW230517  10.583   3.262   3.085  0.0667  1.5007 -0.7381
42414SOL     OW30518   4.850  10.926   6.616 -0.0101 -0.3144 -0.2804
42414SOL    HW130519   4.776  10.968   6.572  1.0536  1.2802 -0.6807
42414SOL    HW230520   4.846  10.959   6.706  0.4124  0.1009 -0.4065
42415SOL     OW30521   3.101   8.421   2.704  0.2333 -0.3517 -0.1652
42415SOL    HW130522   3.014   8.382   2.709  0.7676 -1.5930 -0.2600
42415SOL    HW230523   3.128   8.410   2.613  1.0477 -1.2584  0.1678
42416SOL     OW30524   8.895   3.356   0.508  0.3257 -0.1979  0.8273
42416SOL    HW130525   8.985   3.323   0.509  0.9302  1.3127 -0.3856
42416SOL    HW230526   8.859   3.323   0.426  0.7139  1.5327 -0.0635
42417SOL     OW30527   7.721   8.492   0.297  0.2992 -0.3544  0.2000
42417SOL    HW130528   7.649   8.554   0.293  0.1249 -0.6004 -0.6581
42417SOL    HW230529   7.796   8.543   0.328  0.2408  0.3694 -0.8183
42418SOL     OW30530   9.136   7.126  10.490 -0.0264  0.1796  0.4056
42418SOL    HW130531   9.178   7.199  10.443  2.6458 -1.0829  0.6162
42418SOL    HW230532   9.094   7.075  10.421  1.0409  0.1055 -0.2140
42419SOL     OW30533   6.495   1.361   9.932 -0.3295 -0.0500 -0.4487
42419SOL    HW130534   6.446   1.334  10.010  0.3981  1.0928  0.4323
42419SOL    HW230535   6.559   1.424   9.964  0.7626 -0.4095 -1.7997
42420SOL     OW30536  10.790   4.802   3.534 -0.1231  0.4832 -0.1600
42420SOL    HW130537  10.744   4.761   3.607 -1.3108  1.0892 -0.5444
42420SOL    HW230538  10.821   4.886   3.569  0.7543  0.0556  0.1119
42421SOL     OW30539  10.046   8.297   7.518 -0.2970  0.3040  0.0113
42421SOL    HW130540   9.967   8.334   7.559 -0.3738 -1.1438  1.2345
42421SOL    HW230541  10.112   8.299   7.588  0.8413  1.6622 -1.0506
42422SOL     OW30542  10.515   9.731   8.092 -0.1195  0.3519  0.0285
42422SOL    HW130543  10.610   9.742   8.100 -0.1657  1.4830 -0.6269
42422SOL    HW230544  10.497   9.645   8.128  1.2387 -0.1374 -0.3947
42423SOL     OW30545   4.765   3.359   4.672  0.1216 -0.0382 -0.4455
42423SOL    HW130546   4.750   3.401   4.587  0.8285  1.4340  0.1380
42423SOL    HW230547   4.736   3.423   4.736 -0.4890 -1.1721  0.4533
42424SOL     OW30548   3.457   4.677   8.041  0.1148  0.3574  0.4846
42424SOL    HW130549   3.377   4.715   8.076 -0.1708  0.2011  0.0196
42424SOL    HW230550   3.520   4.682   8.112 -1.2368 -2.5727  2.0534
42425SOL     OW30551  10.803   7.955   4.377  0.0438 -0.5532  0.1805
42425SOL    HW130552  10.749   8.004   4.439 -0.1995 -0.7507  0.1242
42425SOL    HW230553  10.893   7.984   4.396 -0.0676 -0.3115  0.3503
42426SOL     OW30554  10.669   9.591   9.729  0.3247  0.1760  0.2640
42426SOL    HW130555  10.740   9.594   9.664  0.1721  0.0657  0.0899
42426SOL    HW230556  10.592   9.622   9.681  0.5060  1.5221  0.7892
42427SOL     OW30557   4.993   9.589   3.182  0.7855  0.3600 -1.3881
42427SOL    HW130558   4.954   9.506   3.158 -1.2495  0.7919  0.1847
42427SOL    HW230559   5.053   9.568   3.254 -1.8491  0.4683  1.0345
42428SOL     OW30560   5.618   3.779   1.051  0.5167 -0.0972  0.2014
42428SOL    HW130561   5.558   3.831   0.997  0.8419  0.3258  0.2402
42428SOL    HW230562   5.661   3.720   0.989  1.9010  1.3117 -0.2818
42429SOL     OW30563   8.254   1.599  10.518  0.2335  0.0846 -0.1373
42429SOL    HW130564   8.328   1.567  10.466  0.3509 -0.1597  0.1796
42429SOL    HW230565   8.206   1.656  10.458  0.3197 -0.2622 -0.5448
42430SOL     OW30566   9.901   8.384   9.895  0.0258  0.2406 -1.1334
42430SOL    HW130567   9.878   8.296   9.867 -0.7921  0.6891 -1.9065
42430SOL    HW230568   9.855   8.396   9.978  1.2479 -0.5374 -0.3024
42431SOL     OW30569   1.445   1.779  10.180  0.2984 -0.7105 -0.1634
42431SOL    HW130570   1.366   1.831  10.193  1.5085  1.4806 -0.9682
42431SOL    HW230571   1.511   1.842  10.150  2.0774 -2.6157 -0.5432
42432SOL     OW30572   2.668   8.991   1.299 -0.2592 -0.0667  0.2456
42432SOL    HW130573   2.636   9.027   1.382 -0.7865  1.2474 -0.5049
42432SOL    HW230574   2.661   8.896   1.310 -1.8656  0.1230  1.1300
42433SOL     OW30575   9.751   4.869  11.201 -0.5689 -0.8832  0.2816
42433SOL    HW130576   9.733   4.945  11.257  1.4683  0.5279 -0.8697
42433SOL    HW230577   9.756   4.796  11.262  1.2503  0.5337  1.9776
42434SOL     OW30578   0.795   9.874   1.970 -0.0017  0.1986 -0.1084
42434SOL    HW130579   0.741   9.836   1.901 -1.3556  2.1748 -0.1945
42434SOL    HW230580   0.757   9.841   2.051 -0.0545 -0.0286 -0.2231
42435SOL     OW30581   5.986  11.203   9.110  0.5159  0.9334  0.0696
42435SOL    HW130582   5.929  11.271   9.074  2.5865  2.2084 -1.0102
42435SOL    HW230583   5.967  11.125   9.058  0.3453  1.5579 -0.8327
42436SOL     OW30584   0.843   6.587  10.233  0.8534 -0.4594  0.3382
42436SOL    HW130585   0.848   6.590  10.329  0.1809  2.0939  0.3702
42436SOL    HW230586   0.929   6.619  10.205  0.4165  0.5539  0.1364
42437SOL     OW30587   4.312   8.503   1.536 -0.1609 -0.4810 -0.0384
42437SOL    HW130588   4.345   8.432   1.481  1.9390 -0.7059  1.4055
42437SOL    HW230589   4.229   8.470   1.571 -0.3345 -1.2887 -1.1587
42438SOL     OW30590   2.847   6.767   9.868 -0.3515  0.0305  0.4661
42438SOL    HW130591   2.894   6.689   9.898 -2.1933 -0.7059  1.6069
42438SOL    HW230592   2.884   6.839   9.920  0.5189 -0.2657  0.2740
42439SOL     OW30593  11.001   4.022  10.872  0.8170 -0.1689 -0.3550
42439SOL    HW130594  11.052   3.972  10.808 -0.3485 -2.2148  0.1965
42439SOL    HW230595  10.980   3.958  10.941 -0.4291  1.2010  0.6135
42440SOL     OW30596   9.890  11.168   9.056 -0.5978  0.3108  0.3124
42440SOL    HW130597   9.952  11.178   9.129 -1.9850 -0.0489  1.6038
42440SOL    HW230598   9.814  11.219   9.083 -1.3780 -0.3294 -0.6087
42441SOL     OW30599   4.441   1.359   8.866 -0.2525  0.0668  0.2968
42441SOL    HW130600   4.475   1.326   8.950  1.3868  1.3617  0.2191
42441SOL    HW230601   4.407   1.446   8.888 -1.1062 -0.1544 -0.1392
42442SOL     OW30602   5.721   1.119  10.681 -0.1889  0.2804 -0.4891
42442SOL    HW130603   5.654   1.160  10.735 -1.7983 -1.4878 -1.0084
42442SOL    HW230604   5.801   1.124  10.733 -1.2394  0.3983  1.1946
42443SOL     OW30605   8.946   4.471   0.925 -0.0340 -0.2533  0.3531
42443SOL    HW130606   9.009   4.412   0.967  1.4414  1.3232  0.4712
42443SOL    HW230607   8.991   4.501   0.846 -0.2424  1.5953  0.9086
42444SOL     OW30608  11.011   1.199  10.816  0.3383 -0.4019  0.1372
42444SOL    HW130609  11.064   1.272  10.784  0.0439  0.6198  1.8661
42444SOL    HW230610  10.943   1.189  10.749  0.2022  1.1207  0.0078
42445SOL     OW30611   2.413   7.515   0.521 -0.7198  0.1624  0.3915
42445SOL    HW130612   2.324   7.548   0.515 -0.4615  0.8187  0.1441
42445SOL    HW230613   2.404   7.430   0.564 -1.1691  1.6778  3.6037
42446SOL     OW30614   7.155   9.892   5.517  0.3271  0.4354 -0.3732
42446SOL    HW130615   7.182   9.977   5.551  0.1837  0.6251 -0.7294
42446SOL    HW230616   7.094   9.858   5.583 -0.0974  0.8840 -0.5292
42447SOL     OW30617   6.621   5.457   9.311 -0.4450  0.2571 -0.6586
42447SOL    HW130618   6.708   5.474   9.276  0.2276 -1.3826  0.0990
42447SOL    HW230619   6.603   5.531   9.369 -0.5099  1.7069 -2.4340
42448SOL     OW30620   4.637  11.328   4.715 -0.4161 -0.0892 -0.2152
42448SOL    HW130621   4.583  11.357   4.789 -0.1079  0.0530 -0.0447
42448SOL    HW230622   4.600  11.373   4.640  0.3102  1.0889  0.1063
42449SOL     OW30623   4.793   1.946   8.162  0.4359  0.2137 -0.1701
42449SOL    HW130624   4.719   1.999   8.133  1.8853  0.5479 -3.7439
42449SOL    HW230625   4.852   2.009   8.204 -0.7656  0.0992  1.8464
42450SOL     OW30626   1.843   6.195   3.840  0.0200 -0.0293 -0.3926
42450SOL    HW130627   1.903   6.254   3.886  1.0531 -2.8654  2.2227
42450SOL    HW230628   1.899   6.124   3.809 -1.3421 -0.3134 -2.3751
42451SOL     OW30629   6.313   5.707   2.058  0.8197 -0.4908  0.3733
42451SOL    HW130630   6.256   5.652   2.004 -0.0204 -0.7997  1.5512
42451SOL    HW230631   6.320   5.789   2.009  0.1456 -0.7931 -0.2397
42452SOL     OW30632   0.742   2.125  11.053  0.5863 -0.0198  1.0016
42452SOL    HW130633   0.657   2.118  11.010  0.2398  1.2016  1.4529
42452SOL    HW230634   0.775   2.035  11.055 -0.2924 -0.3838  0.0341
42453SOL     OW30635   3.809   6.209   9.293  0.1331 -0.0255  0.2945
42453SOL    HW130636   3.772   6.167   9.370  2.2976 -0.5066  1.1307
42453SOL    HW230637   3.903   6.210   9.308  0.6189  0.1125 -2.2244
42454SOL     OW30638   9.413   9.925   4.938  0.7346  0.1113  0.4098
42454SOL    HW130639   9.352   9.994   4.962  0.1948 -0.1278 -0.2439
42454SOL    HW230640   9.384   9.849   4.988  1.0580  0.2430  0.7952
42455SOL     OW30641   7.655   9.249   2.844  0.2183 -0.6691  0.3968
42455SOL    HW130642   7.596   9.315   2.881  0.9338  0.1791  0.0485
42455SOL    HW230643   7.597   9.176   2.823 -1.0137  0.7563 -1.4599
42456SOL     OW30644   1.317   2.489   7.402  0.2146 -0.3245 -0.0376
42456SOL    HW130645   1.273   2.523   7.480 -0.0638  2.0582 -1.1431
42456SOL    HW230646   1.375   2.421   7.435 -2.0204 -1.4302  1.8539
42457SOL     OW30647   7.492   0.931   2.699 -0.2248  0.1793 -0.0185
42457SOL    HW130648   7.413   0.886   2.670 -0.1491 -0.4779  0.7596
42457SOL    HW230649   7.549   0.931   2.622  0.7870 -3.3354  0.5077
42458SOL     OW30650   5.741   1.606   2.185 -0.6750 -0.2386  0.3059
42458SOL    HW130651   5.774   1.638   2.269  1.0192  1.5416 -0.9528
42458SOL    HW230652   5.672   1.667   2.161 -2.2363 -1.6254  1.0315
42459SOL     OW30653   7.071   6.051   4.080 -0.1410  0.2985 -0.7263
42459SOL    HW130654   7.047   5.971   4.126  1.1068  0.9024  1.0814
42459SOL    HW230655   7.014   6.118   4.118  0.5797  0.7170 -0.3685
42460SOL     OW30656   6.450   3.585   3.889  0.0284 -0.2038  0.0067
42460SOL    HW130657   6.509   3.563   3.961 -0.5127 -0.9886  0.2242
42460SOL    HW230658   6.371   3.533   3.905  0.4553 -1.5706 -1.9585
42461SOL     OW30659   5.320   7.445   6.434 -0.2273 -0.5150  0.3626
42461SOL    HW130660   5.325   7.349   6.440 -0.1802 -0.5558 -0.2623
42461SOL    HW230661   5.384   7.468   6.366  0.4671  0.0467  1.1807
42462SOL     OW30662   0.621   4.733   1.777 -0.1446 -0.0060 -0.6101
42462SOL    HW130663   0.539   4.781   1.761  0.2449  0.8445 -0.1569
42462SOL    HW230664   0.603   4.644   1.749 -1.5750 -0.0936  0.4723
42463SOL     OW30665   0.428   2.913   2.361  0.4941 -0.1390 -0.0287
42463SOL    HW130666   0.426   2.897   2.456 -2.1335 -1.1665 -0.1779
42463SOL    HW230667   0.520   2.930   2.342  0.8076  2.5686  3.0736
42464SOL     OW30668   1.955   5.980   3.686  0.3749 -0.2380 -0.0801
42464SOL    HW130669   1.869   5.941   3.671 -0.1621  0.1700  1.6731
42464SOL    HW230670   1.995   5.924   3.753  0.2374  1.2246  1.2946
42465SOL     OW30671   3.518   7.867   8.248  0.2271  0.0274 -0.0799
42465SOL    HW130672   3.457   7.931   8.212  0.7763 -0.4653 -1.9930
42465SOL    HW230673   3.516   7.883   8.342 -0.4927  2.0987 -0.3908
42466SOL     OW30674   1.752   0.725   2.979  0.3814  0.4217 -0.0815
42466SOL    HW130675   1.669   0.689   3.010  0.4354  1.3289  1.1838
42466SOL    HW230676   1.766   0.804   3.032  1.6860  0.6994 -0.7837
42467SOL     OW30677   5.471   7.464   5.760 -0.1251 -0.3441 -0.2986
42467SOL    HW130678   5.526   7.517   5.818 -0.4661 -1.5487  1.1898
42467SOL    HW230679   5.526   7.449   5.683  1.1574 -0.4087  0.5912
42468SOL     OW30680   2.954   2.563   1.535  0.1768  0.0316  0.2752
42468SOL    HW130681   3.029   2.611   1.570  1.4693 -2.2001  0.7313
42468SOL    HW230682   2.983   2.532   1.449 -0.1805 -0.8855  0.4744
42469SOL     OW30683   5.216   3.176   8.730 -0.3450  0.0413  0.6190
42469SOL    HW130684   5.155   3.250   8.718 -0.2924  0.0931  0.6724
42469SOL    HW230685   5.302   3.217   8.733 -0.3186 -0.0196  0.6800
42470SOL     OW30686   5.834   1.797   5.349  0.0314  0.3772  0.2032
42470SOL    HW130687   5.898   1.824   5.414 -1.2915  0.3340  1.5644
42470SOL    HW230688   5.768   1.867   5.349 -0.3387  0.0422 -0.5858
42471SOL     OW30689   7.485   8.031   9.923 -0.7431 -0.2352 -0.0309
42471SOL    HW130690   7.394   8.051   9.945 -0.8227 -1.4112  0.8104
42471SOL    HW230691   7.487   7.936   9.915  0.3172 -0.1805 -0.5129
42472SOL     OW30692   2.832   8.941   4.039  0.0695 -0.0976  0.1635
42472SOL    HW130693   2.748   8.942   4.085  0.7713  0.6959  1.4885
42472SOL    HW230694   2.810   8.959   3.947 -1.1261  0.9219  0.6323
42473SOL     OW30695   8.358   2.782  10.650 -0.3485  0.2056  0.8311
42473SOL    HW130696   8.322   2.713  10.705 -2.5644  2.3125  2.2580
42473SOL    HW230697   8.449   2.791  10.679 -0.9522  0.0412  2.9820
42474SOL     OW30698   7.679  10.494   1.765  0.1550  0.1504  0.3973
42474SOL    HW130699   7.613  10.480   1.834 -0.6716 -0.6598 -0.5274
42474SOL    HW230700   7.656  10.430   1.697  2.6419 -1.0172  0.5548
42475SOL     OW30701   5.392  11.342   5.132 -0.5088 -0.0892  0.1539
42475SOL    HW130702   5.407  11.269   5.192 -0.7735  0.0236  0.3596
42475SOL    HW230703   5.408  11.420   5.185 -1.1444  0.0187  0.1927
42476SOL     OW30704   4.285   5.125   0.836  0.0574  0.0762 -1.0160
42476SOL    HW130705   4.264   5.110   0.928  1.1624  1.1705 -0.5625
42476SOL    HW230706   4.247   5.049   0.790 -0.7664 -0.3262  0.2855
42477SOL     OW30707   9.179   4.911   0.753  0.0373  0.3667 -0.1594
42477SOL    HW130708   9.225   4.993   0.768  2.0014 -0.7373  0.1657
42477SOL    HW230709   9.235   4.863   0.691 -1.4870 -0.4074 -1.0019
42478SOL     OW30710   7.121  11.022   0.208 -0.5080  0.1122  0.5617
42478SOL    HW130711   7.057  11.058   0.270 -1.6865  0.8999 -1.0302
42478SOL    HW230712   7.070  10.961   0.154 -0.2837  1.6676 -1.5413
42479SOL     OW30713  10.382   3.656   6.404 -0.0229 -0.0074  0.6644
42479SOL    HW130714  10.314   3.647   6.337 -1.4178  0.8081  1.9189
42479SOL    HW230715  10.432   3.732   6.376  0.4486 -0.6327 -0.2858
42480SOL     OW30716   3.402   1.044   0.053  0.2423 -0.2369  0.4871
42480SOL    HW130717   3.495   1.061   0.035  0.0602 -1.4376 -1.9646
42480SOL    HW230718   3.356   1.120   0.020  0.0216 -1.8824 -3.5379
42481SOL     OW30719   2.157   9.975   2.760 -0.8998  0.1603  0.4437
42481SOL    HW130720   2.252   9.980   2.769 -0.8037  4.3297 -0.9228
42481SOL    HW230721   2.124   9.977   2.850  0.1609 -2.5704  1.0091
42482SOL     OW30722   0.093   3.085   4.524  0.0759  0.1187  0.5620
42482SOL    HW130723   0.132   3.008   4.482 -1.8136 -0.1273 -0.8748
42482SOL    HW230724   0.088   3.061   4.616 -0.2123 -1.3916  0.1900
42483SOL     OW30725   4.332   1.198   2.765  0.6648  0.4711 -0.7980
42483SOL    HW130726   4.258   1.248   2.798  0.7171 -1.0202  1.9355
42483SOL    HW230727   4.406   1.228   2.818  0.8039 -1.9204  0.5132
42484SOL     OW30728  11.086   5.807   4.165 -0.6057 -0.1098  1.0099
42484SOL    HW130729  11.064   5.747   4.236 -1.4674  0.7861  1.5245
42484SOL    HW230730  11.010   5.805   4.107 -1.0849  1.1901  1.5432
42485SOL     OW30731   1.746   5.415   1.272 -0.2895 -0.3159 -0.0863
42485SOL    HW130732   1.654   5.415   1.246 -0.0457 -1.1234 -1.0022
42485SOL    HW230733   1.793   5.448   1.195  0.2419 -0.4826  0.1593
42486SOL     OW30734   6.727   0.100   9.797  1.0507 -0.3478 -0.0712
42486SOL    HW130735   6.816   0.136   9.796  0.5382  0.9748 -1.0483
42486SOL    HW230736   6.723   0.042   9.721  1.0251 -0.2572 -0.1394
42487SOL     OW30737   3.802   8.976   4.154  0.1043  0.3556 -0.4472
42487SOL    HW130738   3.838   8.924   4.225 -0.9047  1.1391  0.6906
42487SOL    HW230739   3.877   9.000   4.100  0.7263 -1.2586 -0.3297
42488SOL     OW30740   2.447  10.369   8.368  0.1527 -0.6468  0.1937
42488SOL    HW130741   2.515  10.406   8.424  0.1005  1.6057 -1.0842
42488SOL    HW230742   2.397  10.446   8.338 -0.2910 -1.8131 -2.2753
42489SOL     OW30743   7.723   8.153   8.718 -0.7995  0.1642 -0.3221
42489SOL    HW130744   7.812   8.183   8.738 -1.0375  1.0577 -0.5864
42489SOL    HW230745   7.691   8.117   8.801 -0.2957  0.0779 -0.1594
42490SOL     OW30746   8.928   4.663   4.935  0.2735 -0.2790 -0.1005
42490SOL    HW130747   8.943   4.633   4.845 -1.2113 -2.0294  0.1926
42490SOL    HW230748   9.004   4.631   4.984  0.2650 -0.8009 -0.4180
42491SOL     OW30749   4.384  11.292   5.960  0.3075 -0.5192 -0.2758
42491SOL    HW130750   4.387  11.196   5.963  0.6680 -0.4954  0.2145
42491SOL    HW230751   4.417  11.320   6.045 -1.5241  0.0258  0.2849
42492SOL     OW30752   6.126   2.466   3.640  0.2985 -0.2004  0.1432
42492SOL    HW130753   6.124   2.455   3.545  2.0678  0.2774  0.0024
42492SOL    HW230754   6.203   2.522   3.655 -1.0650  1.3865  1.7045
42493SOL     OW30755   2.458   3.698   5.691 -0.9086 -0.6088  0.4054
42493SOL    HW130756   2.474   3.790   5.668 -1.7018  0.6845  4.2891
42493SOL    HW230757   2.371   3.679   5.656 -1.7107  0.9248  1.4561
42494SOL     OW30758  10.085  10.949   0.848 -0.0826  0.0198 -0.0344
42494SOL    HW130759  10.075  11.036   0.809 -1.3788 -1.0952 -2.3786
42494SOL    HW230760  10.175  10.924   0.826 -0.4476 -0.1429 -1.4199
42495SOL     OW30761   3.518   4.691   9.073  0.2607 -0.3601 -0.3196
42495SOL    HW130762   3.544   4.769   9.122 -2.0114  0.1033  0.2436
42495SOL    HW230763   3.596   4.669   9.021  1.0430  2.1635 -0.3628
42496SOL     OW30764   2.877   2.300   7.871  0.7840  0.1430  0.3530
42496SOL    HW130765   2.831   2.318   7.789  1.3839  1.3637  0.2567
42496SOL    HW230766   2.830   2.226   7.909 -1.0967  1.1474  0.1372
42497SOL     OW30767   8.631   2.297   0.913 -0.2580 -0.1561 -0.4065
42497SOL    HW130768   8.546   2.340   0.923 -0.8408 -1.3328 -0.1078
42497SOL    HW230769   8.694   2.362   0.945 -1.0886  0.5408 -0.1309
42498SOL     OW30770   4.063   1.013   2.173 -0.1898  0.2933  0.5393
42498SOL    HW130771   3.988   0.965   2.139  0.3346 -0.0121 -0.2210
42498SOL    HW230772   4.059   1.098   2.128  0.4837 -0.0973 -0.2862
42499SOL     OW30773   2.068   9.298   0.694 -0.3709  0.0670  0.0010
42499SOL    HW130774   1.989   9.297   0.748 -0.2449  0.0954  0.1876
42499SOL    HW230775   2.089   9.206   0.680  0.4015  0.0309  1.1987
42500SOL     OW30776   3.082   4.573   2.902  0.1168 -0.3568 -0.1068
42500SOL    HW130777   3.170   4.596   2.931 -0.1372 -1.2616  1.4893
42500SOL    HW230778   3.044   4.525   2.975 -2.2099  1.1725 -0.1923
42501SOL     OW30779  10.527   5.116  10.276  0.8810  0.3421  0.0612
42501SOL    HW130780  10.509   5.210  10.263  0.8740  0.3474  0.1054
42501SOL    HW230781  10.462   5.089  10.342  0.8080  0.2804 -0.0363
42502SOL     OW30782   2.638   1.111   9.031 -0.5049 -0.0681  0.0960
42502SOL    HW130783   2.711   1.078   8.978 -0.1294  2.3629 -1.0358
42502SOL    HW230784   2.679   1.171   9.093 -1.2829 -0.7146  1.2599
42503SOL     OW30785   3.553   7.260   1.976 -0.2852 -0.0349 -0.0221
42503SOL    HW130786   3.558   7.274   2.070  0.8370  2.5649 -0.3671
42503SOL    HW230787   3.629   7.205   1.956 -0.2066 -0.1243  0.5202
42504SOL     OW30788   6.985  10.228   2.960 -0.4978  0.1790  0.3873
42504SOL    HW130789   6.967  10.140   2.992 -0.4423 -0.1815 -0.5415
42504SOL    HW230790   6.982  10.283   3.038  0.3600 -0.7695  1.1127
42505SOL     OW30791   6.267   5.414   3.275  0.1380 -0.5130  0.2636
42505SOL    HW130792   6.293   5.506   3.278  2.1775 -1.0036 -0.8027
42505SOL    HW230793   6.302   5.376   3.355  0.6330 -0.6777 -0.0295
42506SOL     OW30794   4.481   1.773   9.393  0.4313 -0.3717 -0.0658
42506SOL    HW130795   4.439   1.721   9.462 -0.7950 -0.3847 -0.7954
42506SOL    HW230796   4.511   1.852   9.437 -0.1804 -0.4589  0.5102
42507SOL     OW30797   3.043   7.067   3.957 -0.0777 -0.0462  0.0966
42507SOL    HW130798   3.136   7.064   3.937 -0.1412  0.4121 -0.2780
42507SOL    HW230799   3.022   6.979   3.989  0.3723 -0.2962 -0.2930
42508SOL     OW30800   5.135   4.523   5.244 -0.5116 -0.3136  0.6210
42508SOL    HW130801   5.171   4.508   5.332 -0.0433 -0.4329  0.4115
42508SOL    HW230802   5.101   4.612   5.247  0.9562  0.2789  0.4431
42509SOL     OW30803   5.994   9.759   5.002  0.5436 -0.1904 -0.5511
42509SOL    HW130804   5.917   9.799   5.045  2.0265  2.7784 -0.4243
42509SOL    HW230805   6.049   9.731   5.075  0.3786 -0.7278 -0.6277
42510SOL     OW30806   6.682   2.011   7.680 -0.1930  0.1180  0.1465
42510SOL    HW130807   6.765   2.034   7.637 -0.8213 -0.3849 -1.4227
42510SOL    HW230808   6.641   2.095   7.700  0.5450  0.3684  0.6390
42511SOL     OW30809   1.877   3.201  10.108  0.0604 -0.0615 -0.4505
42511SOL    HW130810   1.843   3.182  10.196  0.0132 -4.1650 -1.1231
42511SOL    HW230811   1.807   3.248  10.065 -0.2619  1.2770  1.4153
42512SOL     OW30812   6.882   4.356   2.296  0.1703  0.3080  0.2172
42512SOL    HW130813   6.872   4.299   2.220  0.3523 -0.6185  0.8787
42512SOL    HW230814   6.976   4.373   2.300  0.3058 -0.5454  0.8718
42513SOL     OW30815   2.160   3.191   4.762  0.0864 -0.3787 -0.0163
42513SOL    HW130816   2.070   3.162   4.751 -0.1005  0.5436 -1.0503
42513SOL    HW230817   2.159   3.284   4.741  1.0130 -0.0161  1.4130
42514SOL     OW30818   3.564   7.115   4.020 -0.8414  0.5506  0.3343
42514SOL    HW130819   3.546   7.202   4.054 -2.6599  0.8050 -1.1510
42514SOL    HW230820   3.571   7.127   3.925 -0.9950 -0.9029  0.1168
42515SOL     OW30821   6.124   1.031   0.398  0.0264 -0.0964  0.3198
42515SOL    HW130822   6.219   1.034   0.388  0.2924 -1.3813  2.1414
42515SOL    HW230823   6.095   1.120   0.376  1.7298  0.5805  0.6809
42516SOL     OW30824   7.984  10.261   2.971 -0.2487 -0.3768 -0.3476
42516SOL    HW130825   7.955  10.185   2.920 -1.6306  0.7380 -1.3262
42516SOL    HW230826   8.015  10.324   2.906 -0.1363  0.3032  0.3432
42517SOL     OW30827   5.329   1.375  10.103  0.5323 -0.4147 -0.3225
42517SOL    HW130828   5.245   1.335  10.123  0.3788 -0.0737 -0.2808
42517SOL    HW230829   5.337   1.448  10.165 -0.0889  0.8432 -1.6614
42518SOL     OW30830   2.994   0.715   1.950 -0.3183 -0.4192 -0.1989
42518SOL    HW130831   3.051   0.639   1.961 -1.9340 -1.7912 -0.8973
42518SOL    HW230832   2.934   0.712   2.024  1.3172  1.8565  1.3570
42519SOL     OW30833   3.363   1.584   4.061 -0.2387 -0.0408  0.4494
42519SOL    HW130834   3.418   1.633   4.122  0.3685 -0.9442  0.6568
42519SOL    HW230835   3.274   1.594   4.094  0.0047  0.0396  1.0901
42520SOL     OW30836   2.074   9.448   2.646  0.2516  0.2445  0.4238
42520SOL    HW130837   2.065   9.442   2.741  0.9363  0.5288  0.5148
42520SOL    HW230838   2.007   9.511   2.620  1.9147  2.4222  1.0938
42521SOL     OW30839  10.533   1.677   9.530 -0.4991  0.4326  0.7156
42521SOL    HW130840  10.501   1.691   9.441 -3.0176 -1.3061  1.2622
42521SOL    HW230841  10.454   1.666   9.583  0.9634 -0.8878  2.7670
42522SOL     OW30842   2.917   3.269   4.723 -0.3746  0.2243  0.4464
42522SOL    HW130843   2.825   3.248   4.736 -0.4754  1.0333  1.1251
42522SOL    HW230844   2.923   3.297   4.631 -0.0349 -3.5810 -0.8806
42523SOL     OW30845   9.679   5.654   0.792  0.2274  0.5562  0.5507
42523SOL    HW130846   9.680   5.597   0.715  1.5563  0.4637  0.6279
42523SOL    HW230847   9.591   5.641   0.829 -0.1321 -0.0449 -0.4525
42524SOL     OW30848   6.281  11.259   6.422  0.4154  0.4668  0.6533
42524SOL    HW130849   6.356  11.289   6.371 -0.9114  1.1067 -1.0240
42524SOL    HW230850   6.314  11.185   6.473  2.1683  0.7265 -0.0527
42525SOL     OW30851   4.812   7.530   1.656 -0.0747  0.5363 -0.3644
42525SOL    HW130852   4.856   7.598   1.707  0.1451  1.7199 -2.0668
42525SOL    HW230853   4.827   7.554   1.565  1.2130 -2.5612 -1.1062
42526SOL     OW30854   8.443   8.224   7.148 -0.0626 -0.3964  0.3205
42526SOL    HW130855   8.482   8.145   7.186 -0.6504 -0.7401  0.2211
42526SOL    HW230856   8.463   8.293   7.211  0.2743 -0.6639  0.5104
42527SOL     OW30857   7.406   3.842  10.885 -0.0869 -0.0142 -0.0151
42527SOL    HW130858   7.356   3.780  10.831  0.1905  1.0526 -1.5527
42527SOL    HW230859   7.486   3.858  10.835 -0.5414  2.2461 -0.1307
42528SOL     OW30860   8.617  11.033   8.906 -0.1620 -0.5029  0.4200
42528SOL    HW130861   8.588  11.102   8.965 -0.7876 -0.5557  0.1769
42528SOL    HW230862   8.537  10.994   8.872  0.1814 -1.1848  0.3564
42529SOL     OW30863   6.711   0.547   9.259  0.1159 -0.2303  0.2298
42529SOL    HW130864   6.658   0.545   9.179 -0.6412  0.5743  0.6888
42529SOL    HW230865   6.792   0.591   9.233  0.1902 -0.6567 -0.2711
42530SOL     OW30866   2.694   0.533   9.781  0.0723 -0.3891 -0.4517
42530SOL    HW130867   2.729   0.449   9.811  1.1917 -0.1483 -1.0643
42530SOL    HW230868   2.767   0.594   9.791 -0.5993  0.4208 -0.4448
42531SOL     OW30869   9.073   9.269   7.587 -0.6846 -0.4322 -0.0016
42531SOL    HW130870   9.155   9.227   7.612 -1.4356 -0.7376  2.0850
42531SOL    HW230871   9.058   9.336   7.654 -0.8397  1.4770 -1.8089
42532SOL     OW30872   1.551   1.485   4.747  0.2296  0.4719 -0.5355
42532SOL    HW130873   1.597   1.483   4.664  0.8418 -2.5311 -0.2403
42532SOL    HW230874   1.619   1.496   4.813  0.0721  0.1012 -0.3058
42533SOL     OW30875   8.912  10.257   4.797 -0.4887  0.0677  0.1891
42533SOL    HW130876   8.877  10.344   4.817  0.1901  0.4263 -0.1344
42533SOL    HW230877   8.950  10.228   4.880 -0.1165  0.3772  0.1325
42534SOL     OW30878   0.188   8.277   3.950 -0.2762 -0.6254 -0.1494
42534SOL    HW130879   0.224   8.313   4.031  0.5743 -1.6859 -0.0375
42534SOL    HW230880   0.094   8.271   3.966 -0.3050  0.5207  0.2130
42535SOL     OW30881   6.279   9.118   6.027 -0.9011  0.8364  0.3060
42535SOL    HW130882   6.311   9.152   6.111 -1.4594  0.5486  0.6410
42535SOL    HW230883   6.249   9.196   5.980  2.9399  1.5909 -1.2824
42536SOL     OW30884   6.238   4.628   3.911  0.0450 -0.1971 -0.4927
42536SOL    HW130885   6.157   4.591   3.876 -1.1045  0.8724  0.8895
42536SOL    HW230886   6.270   4.562   3.973 -1.0089  0.2635  0.5983
42537SOL     OW30887   5.122   5.742   8.430  0.1113 -0.2948  0.0252
42537SOL    HW130888   5.211   5.708   8.439  0.1029 -0.0960  0.8986
42537SOL    HW230889   5.111   5.801   8.505 -0.7835 -0.3750 -0.0338
42538SOL     OW30890   3.829  11.385  10.956 -0.2641 -0.0484 -0.5101
42538SOL    HW130891   3.754  11.329  10.977  1.2438 -1.2797  2.0316
42538SOL    HW230892   3.888  11.328  10.907  0.5848 -0.2642  0.7195
42539SOL     OW30893   0.541  11.365   5.561 -0.7204  0.3961  0.4339
42539SOL    HW130894   0.622  11.332   5.599  0.1667  1.6512 -0.3054
42539SOL    HW230895   0.513  11.295   5.501  0.5459  0.5115 -0.3156
42540SOL     OW30896   5.787   0.334   6.325 -0.2677  0.2730 -0.1499
42540SOL    HW130897   5.693   0.342   6.343 -0.7554 -0.7759 -2.0149
42540SOL    HW230898   5.798   0.244   6.293  0.7255  1.3854 -3.2839
42541SOL     OW30899   5.762   2.264  10.411  0.3403  0.2954 -0.2830
42541SOL    HW130900   5.784   2.171  10.417 -0.5368  0.1385  1.2431
42541SOL    HW230901   5.702   2.278  10.485  0.3931  2.0543 -0.5471
42542SOL     OW30902   3.506   9.838   9.065 -0.2002  0.2822  0.2744
42542SOL    HW130903   3.528   9.900   9.135  2.0949 -0.8331  0.6266
42542SOL    HW230904   3.433   9.787   9.100  1.3972 -0.7692  2.2309
42543SOL     OW30905   5.188   0.963  10.281  0.3550 -0.1960 -0.5742
42543SOL    HW130906   5.193   1.012  10.199 -0.9181  1.2764  0.1915
42543SOL    HW230907   5.102   0.983  10.317  1.5075  0.5912  1.9616
42544SOL     OW30908   2.331   0.198  10.683 -0.0533  0.1917 -0.3539
42544SOL    HW130909   2.292   0.164  10.763 -0.6409 -1.0032 -1.1124
42544SOL    HW230910   2.257   0.212  10.624  0.2822  1.8604 -0.4261
42545SOL     OW30911  10.478   9.224   8.185 -0.9478 -0.2464 -0.4164
42545SOL    HW130912  10.475   9.187   8.273  0.3122  0.4125 -0.0694
42545SOL    HW230913  10.493   9.148   8.128  0.0212 -0.4770  0.1223
42546SOL     OW30914   0.356   1.154   4.320  0.0941  1.0041  0.0382
42546SOL    HW130915   0.350   1.172   4.226  1.0511  2.0141  0.1535
42546SOL    HW230916   0.413   1.078   4.326 -3.2014 -1.7787 -0.3900
42547SOL     OW30917   0.041   2.369   9.679 -0.0099 -0.5232  0.1956
42547SOL    HW130918   0.087   2.321   9.748 -1.4018 -0.6624  1.0582
42547SOL    HW230919   0.108   2.385   9.612  1.6258  0.4450  1.9715
42548SOL     OW30920   1.192   3.915  10.343  0.0458  0.4118  0.2479
42548SOL    HW130921   1.238   3.986  10.389 -0.3120  0.0420  1.2112
42548SOL    HW230922   1.212   3.837  10.395 -0.5212  0.0048 -0.1392
42549SOL     OW30923  10.115   2.098   8.996  0.1285 -0.5020  0.1151
42549SOL    HW130924  10.113   2.122   9.089 -0.6172  0.6413 -0.1715
42549SOL    HW230925  10.181   2.155   8.958 -0.9728  0.4638 -0.4026
42550SOL     OW30926   5.552   2.053   6.018 -0.6885 -0.1147  0.2283
42550SOL    HW130927   5.522   1.968   5.988  0.3264 -0.9027  1.3732
42550SOL    HW230928   5.624   2.034   6.078  0.2009  1.5742 -0.2234
42551SOL     OW30929   2.828   6.465   3.524 -0.2436  0.3010 -0.2514
42551SOL    HW130930   2.743   6.456   3.566 -1.4961  2.7369 -2.0225
42551SOL    HW230931   2.862   6.549   3.556 -0.0914  0.9843 -2.1262
42552SOL     OW30932  10.865   0.877  11.386  0.5545  0.1567 -0.0332
42552SOL    HW130933  10.863   0.863  11.292  2.2150 -0.7188  0.0092
42552SOL    HW230934  10.913   0.959  11.397 -2.1752  1.8393 -0.0039
42553SOL     OW30935   4.264   3.527   4.687 -0.1600 -0.0868  0.1897
42553SOL    HW130936   4.309   3.482   4.758 -0.0930 -0.3341 -0.0074
42553SOL    HW230937   4.334   3.562   4.633 -0.1968  1.7624  1.2666
42554SOL     OW30938   4.538  10.167   6.152 -0.0426  0.4025  0.4556
42554SOL    HW130939   4.480  10.131   6.219  0.0586  0.7059  0.7038
42554SOL    HW230940   4.584  10.238   6.195 -0.1801  0.7812 -0.0178
42555SOL     OW30941   8.498   1.774   7.414  0.4954  0.0171  0.1040
42555SOL    HW130942   8.568   1.838   7.398 -0.3170  1.1693  1.0044
42555SOL    HW230943   8.422   1.809   7.368 -0.2030  0.1873  1.3435
42556SOL     OW30944   1.546   5.852   3.244 -0.0973  0.1778  0.1622
42556SOL    HW130945   1.554   5.942   3.276 -0.7247  0.3838 -0.2304
42556SOL    HW230946   1.493   5.860   3.165  1.5767 -0.2863 -1.0581
42557SOL     OW30947   2.927   5.800   7.419  0.4014 -0.1328 -0.1253
42557SOL    HW130948   2.969   5.851   7.350 -1.1674  0.2156 -0.8744
42557SOL    HW230949   2.994   5.791   7.487  0.8114  2.7242 -0.0588
42558SOL     OW30950   1.133   0.094   4.107 -0.2838  0.2500 -0.5300
42558SOL    HW130951   1.192   0.102   4.182  0.8917 -2.7815 -0.9856
42558SOL    HW230952   1.094   0.007   4.116 -1.0644  0.3031 -2.7554
42559SOL     OW30953   0.396   7.864  10.071  0.2623 -0.3880  0.2384
42559SOL    HW130954   0.440   7.815  10.002 -0.1394  0.2381 -0.4824
42559SOL    HW230955   0.450   7.851  10.148  0.8474 -0.9168 -0.2490
42560SOL     OW30956   8.470   6.333  11.087  0.1580  0.3529 -0.0691
42560SOL    HW130957   8.449   6.259  11.145  0.3431 -0.1267 -0.6049
42560SOL    HW230958   8.387   6.382  11.081 -0.2557 -0.3876 -0.5361
42561SOL     OW30959   3.909   9.909   0.049  0.3589 -0.7383 -0.2235
42561SOL    HW130960   3.944   9.822   0.068 -2.4536 -1.6366  1.4331
42561SOL    HW230961   3.817   9.905   0.076  0.5210  3.3097  1.8356
42562SOL     OW30962  10.593   1.470   7.949 -0.6896  0.1768  0.5271
42562SOL    HW130963  10.678   1.491   7.989  0.1620 -1.3260 -0.3831
42562SOL    HW230964  10.529   1.488   8.018  0.5433 -0.3655  1.8816
42563SOL     OW30965   5.858   7.102   6.813 -0.3804 -0.7612  0.6163
42563SOL    HW130966   5.945   7.064   6.826  0.5076  1.0802  0.3270
42563SOL    HW230967   5.834   7.076   6.724 -0.1768 -1.3355  0.7223
42564SOL     OW30968  10.316   7.883   3.132 -0.1656  0.1665  0.1097
42564SOL    HW130969  10.257   7.955   3.109 -1.7685 -0.4993  1.8928
42564SOL    HW230970  10.403   7.922   3.126 -0.9521  2.1382  0.5609
42565SOL     OW30971   1.041  10.565   1.119  0.3767 -0.4062  0.0204
42565SOL    HW130972   1.013  10.502   1.185 -1.3768 -1.0916 -1.3218
42565SOL    HW230973   1.069  10.512   1.045  1.8479  0.3654 -0.0128
42566SOL     OW30974   3.320  11.215   5.449  0.4494  0.0156 -0.0078
42566SOL    HW130975   3.310  11.141   5.509 -0.7891  1.4169  1.5987
42566SOL    HW230976   3.323  11.174   5.362 -0.5880 -1.8991  0.7912
42567SOL     OW30977   0.585   5.396   0.102  0.3126  0.1815  0.7351
42567SOL    HW130978   0.567   5.353   0.019 -1.7960  2.3057 -0.0138
42567SOL    HW230979   0.533   5.348   0.166  0.4130 -0.2737  0.4749
42568SOL     OW30980   8.124   5.901  11.186  0.3069 -0.2996 -0.0820
42568SOL    HW130981   8.141   5.886  11.093 -2.3003 -1.5274 -0.4738
42568SOL    HW230982   8.208   5.886  11.229  1.5076  0.0369 -2.1945
42569SOL     OW30983   9.482   1.160   6.758  0.0846  0.2352 -0.2006
42569SOL    HW130984   9.530   1.104   6.698 -0.5772  1.3180 -1.8138
42569SOL    HW230985   9.526   1.148   6.843  0.1433 -2.4134 -0.5492
42570SOL     OW30986   3.620   3.282  10.728  0.0202 -0.2567 -0.1247
42570SOL    HW130987   3.581   3.362  10.694  0.5338  0.9378  1.9016
42570SOL    HW230988   3.714   3.301  10.732  0.1679 -1.0207  0.1724
42571SOL     OW30989   3.779  10.140   1.557 -0.2687 -0.0122  0.5055
42571SOL    HW130990   3.827  10.089   1.622 -0.8439  0.1881  1.0991
42571SOL    HW230991   3.722  10.077   1.514  0.8162 -0.3405 -0.5165
42572SOL     OW30992   7.080   0.966   0.552 -0.0748  0.1031 -0.3604
42572SOL    HW130993   7.095   1.036   0.488 -0.1814 -0.8264 -1.4275
42572SOL    HW230994   7.144   0.899   0.529  0.1227 -0.1016  0.7481
42573SOL     OW30995   3.004   1.767   0.710 -0.0704 -0.2559  0.0352
42573SOL    HW130996   3.046   1.754   0.625 -0.0679  2.6012 -0.4871
42573SOL    HW230997   2.911   1.761   0.692 -0.0792  0.6660 -0.2441
42574SOL     OW30998   6.306   8.520   2.107  0.4257  0.2805  0.0545
42574SOL    HW130999   6.377   8.482   2.054 -1.7766 -1.5008 -1.8622
42574SOL    HW231000   6.244   8.555   2.043 -1.0273  0.6037  1.5644
42575SOL     OW31001   1.745   8.293   0.078 -0.1086 -0.6191 -0.1023
42575SOL    HW131002   1.708   8.245   0.152 -0.6506  0.5411  0.4195
42575SOL    HW231003   1.760   8.381   0.112 -0.9624  0.1305 -1.5257
42576SOL     OW31004   0.056   2.731   8.398 -0.9128 -0.1068  0.2019
42576SOL    HW131005   0.122   2.774   8.452 -1.4526  1.5640 -0.4027
42576SOL    HW231006   0.035   2.651   8.445 -0.5422  0.7467  1.8892
42577SOL     OW31007   5.119   9.562   5.056  0.3621  0.2836 -0.3678
42577SOL    HW131008   5.159   9.514   5.128  0.5341  0.3368 -0.4257
42577SOL    HW231009   5.028   9.574   5.082 -0.0078 -1.1686 -0.9129
42578SOL     OW31010   3.706   7.884   7.978  0.4324 -0.0692  0.0244
42578SOL    HW131011   3.766   7.886   8.053  1.5624 -0.7745 -0.8185
42578SOL    HW231012   3.761   7.858   7.904 -0.7100  0.3346 -1.0072
42579SOL     OW31013   9.991   0.978   9.778 -0.0654  0.1891 -1.0073
42579SOL    HW131014  10.050   1.046   9.810 -1.0576  0.5633  0.1234
42579SOL    HW231015  10.041   0.897   9.788  0.2151  0.4734  0.1378
42580SOL     OW31016   5.045   2.572  10.490  0.7432 -0.1717 -0.3178
42580SOL    HW131017   5.002   2.580  10.575  0.0286  1.8766 -0.7963
42580SOL    HW231018   4.974   2.550  10.430  1.1937 -1.3065 -0.4605
42581SOL     OW31019   2.840   0.180   4.343 -0.4571 -0.0898  0.0319
42581SOL    HW131020   2.771   0.171   4.278 -1.0288  0.6012  0.5228
42581SOL    HW231021   2.795   0.212   4.421  0.0309 -1.7754  1.0850
42582SOL     OW31022   7.195   4.027   2.895  0.6768  0.6392  0.1834
42582SOL    HW131023   7.213   3.951   2.951 -2.1221  0.3429  0.8860
42582SOL    HW231024   7.273   4.082   2.903  1.8985 -1.1427  1.3975
42583SOL     OW31025   8.331   8.815   0.470 -0.5368 -0.1029  0.7215
42583SOL    HW131026   8.298   8.766   0.545 -2.3452 -0.7109 -0.3964
42583SOL    HW231027   8.271   8.793   0.399  0.9279  0.6968 -0.8383
42584SOL     OW31028   2.500   1.099   8.772  0.0482 -0.2182 -0.0756
42584SOL    HW131029   2.491   1.004   8.775 -0.2094 -0.1789  0.7995
42584SOL    HW231030   2.502   1.126   8.864  0.9004  0.5529 -0.2975
42585SOL     OW31031   1.899   0.093   9.353 -0.0322 -0.5617 -0.0029
42585SOL    HW131032   1.883   0.088   9.259  1.7685 -0.8378 -0.3293
42585SOL    HW231033   1.915   0.186   9.370  0.4535 -0.6256 -0.1141
42586SOL     OW31034   3.823   9.042   1.897  0.2633 -0.0873  0.0562
42586SOL    HW131035   3.842   8.949   1.889 -0.3586 -0.2784  0.7615
42586SOL    HW231036   3.843   9.063   1.988  0.0047  0.3833  0.0087
42587SOL     OW31037   4.164  10.324   3.586 -0.2632  0.4703 -1.3428
42587SOL    HW131038   4.143  10.416   3.602  0.9063  0.3194  1.7269
42587SOL    HW231039   4.256  10.316   3.610 -0.6149 -1.7105 -0.5343
42588SOL     OW31040   3.017   4.437   0.892  0.2678  0.0210  0.2460
42588SOL    HW131041   3.058   4.370   0.947 -0.2403 -0.1041  0.4879
42588SOL    HW231042   2.984   4.389   0.816  1.8053  0.3330 -0.6697
42589SOL     OW31043   6.723   3.393  10.895 -0.3913 -0.0401  0.4772
42589SOL    HW131044   6.785   3.457  10.931  0.3232 -0.2349 -0.3674
42589SOL    HW231045   6.670   3.443  10.833  0.0036 -0.2026 -0.0000
42590SOL     OW31046   3.271   1.615   2.494 -0.2266  0.3180  0.1720
42590SOL    HW131047   3.199   1.678   2.500 -0.2563  0.2528  0.5410
42590SOL    HW231048   3.349   1.669   2.481 -0.1608  0.4811  1.2018
42591SOL     OW31049   2.525   8.907   2.372  0.2796  0.6818  0.1070
42591SOL    HW131050   2.510   8.947   2.458 -1.7450 -0.4880  0.3506
42591SOL    HW231051   2.510   8.814   2.386 -1.9674  0.6722 -1.8685
42592SOL     OW31052  10.901   8.050   8.144  0.0237 -0.3882 -0.6898
42592SOL    HW131053  10.841   8.119   8.115  0.3292 -0.0306 -0.4820
42592SOL    HW231054  10.901   8.056   8.239 -0.1392 -0.8418 -0.6605
42593SOL     OW31055   1.342   1.465   8.482  0.0419  0.2547 -0.5263
42593SOL    HW131056   1.405   1.536   8.466  0.7059  0.0868  1.1259
42593SOL    HW231057   1.374   1.392   8.429  1.5529  0.0253  0.6284
42594SOL     OW31058   9.891   3.574   8.616  0.0468 -0.4221 -0.2580
42594SOL    HW131059   9.979   3.537   8.607  0.3595 -0.0409  0.9700
42594SOL    HW231060   9.902   3.667   8.594  0.5061  0.1763  2.1802
42595SOL     OW31061   7.504   9.913   2.514 -0.1779  0.6776 -0.5145
42595SOL    HW131062   7.468   9.824   2.523 -1.0183  0.8677 -1.6967
42595SOL    HW231063   7.462   9.947   2.435  1.6883  1.3876 -1.2527
42596SOL     OW31064   1.093  10.043   5.983 -0.5930  0.1712 -0.0438
42596SOL    HW131065   1.100  10.007   6.071  2.2282  1.5939  0.4529
42596SOL    HW231066   1.167  10.104   5.977 -1.0170  0.5198 -3.2240
42597SOL     OW31067   3.475  10.360  10.726  0.2178  0.0004 -0.3718
42597SOL    HW131068   3.478  10.350  10.630  0.6925 -0.2071 -0.3421
42597SOL    HW231069   3.447  10.450  10.740 -1.5620 -0.4723 -0.6837
42598SOL     OW31070   5.100   1.967   0.846 -0.0350  0.2069 -0.5580
42598SOL    HW131071   5.147   1.943   0.925  3.7183  1.6026 -2.1281
42598SOL    HW231072   5.030   2.026   0.876  1.1129  0.5157  1.7387
42599SOL     OW31073   3.291   8.438   4.143  0.4102 -0.1132 -0.2413
42599SOL    HW131074   3.351   8.422   4.217  2.3733 -1.3329 -1.9865
42599SOL    HW231075   3.318   8.522   4.108  0.1260  0.0168 -0.1470
42600SOL     OW31076   2.096   8.981   8.172  0.1732  0.1662  0.2304
42600SOL    HW131077   2.059   9.062   8.137  0.5093 -0.1796 -0.9895
42600SOL    HW231078   2.120   8.931   8.094  2.1419 -0.1085  0.9643
42601SOL     OW31079   9.139   3.052   5.094  0.4225 -0.2907 -0.3275
42601SOL    HW131080   9.068   3.065   5.158  1.5747 -0.6206  1.0862
42601SOL    HW231081   9.187   3.134   5.096 -0.2217  0.1439 -1.7155
42602SOL     OW31082   9.666   3.200   4.777 -1.2165 -0.3658 -0.6941
42602SOL    HW131083   9.684   3.254   4.854 -0.0575 -0.7638 -0.6699
42602SOL    HW231084   9.686   3.111   4.805 -0.0278 -0.4325 -1.6746
42603SOL     OW31085   9.151   5.212   7.794  0.3914  0.1666 -0.4628
42603SOL    HW131086   9.240   5.214   7.830  0.6527  0.4238 -1.1107
42603SOL    HW231087   9.137   5.302   7.763  0.5149 -0.2689 -1.8237
42604SOL     OW31088   6.837  11.213  10.384 -0.2832 -0.4026  0.0859
42604SOL    HW131089   6.752  11.177  10.411  0.5321 -2.5048  0.0017
42604SOL    HW231090   6.888  11.137  10.356  0.7670  1.0721 -2.3569
42605SOL     OW31091  10.016   3.920   9.969 -0.1328  0.0936  0.4292
42605SOL    HW131092   9.928   3.905   9.934  0.0700  0.7522 -0.3960
42605SOL    HW231093  10.021   4.015   9.982 -0.0698 -0.0951  1.9267
42606SOL     OW31094   5.715   0.604   3.302  0.9294 -0.2711 -0.1517
42606SOL    HW131095   5.794   0.655   3.286  1.5759 -0.5132  1.9722
42606SOL    HW231096   5.731   0.521   3.256  1.5466 -0.0037 -0.4375
42607SOL     OW31097   5.817   8.695   2.266  0.2788  0.3254 -0.2247
42607SOL    HW131098   5.810   8.744   2.184 -0.2048 -0.4097 -0.6382
42607SOL    HW231099   5.729   8.698   2.303  0.2367 -0.2291 -0.2645
42608SOL     OW31100   7.123   9.913   9.633 -0.3539  0.0371  0.6446
42608SOL    HW131101   7.033   9.932   9.608 -0.1384  1.0150  0.5619
42608SOL    HW231102   7.174   9.985   9.596  0.1786  0.6999  2.5327
42609SOL     OW31103   2.996   7.224   4.754  0.2350 -0.1838 -0.1338
42609SOL    HW131104   3.043   7.141   4.760  0.7802 -0.0122 -1.7112
42609SOL    HW231105   3.034   7.269   4.679 -1.7255  0.4141 -0.8459
42610SOL     OW31106  11.367   1.130   5.091 -0.6129 -0.0444  0.5221
42610SOL    HW131107  11.336   1.209   5.135  0.1997  0.2182  0.6316
42610SOL    HW231108  11.360   1.061   5.157 -1.0997 -0.0258  0.4979
42611SOL     OW31109   1.450   5.886   6.802  0.0679 -0.7197  0.7389
42611SOL    HW131110   1.358   5.880   6.776  0.2897 -2.1158  0.1696
42611SOL    HW231111   1.472   5.979   6.797 -1.2882 -0.3838  0.8245
42612SOL     OW31112   0.933   2.397  10.598  0.0340  0.1123  0.2740
42612SOL    HW131113   0.883   2.406  10.517 -0.2110 -2.6312  0.0312
42612SOL    HW231114   1.020   2.369  10.570  0.1613 -0.1549  0.9215
42613SOL     OW31115   0.885   1.896   5.192 -0.1914 -0.2430 -0.5609
42613SOL    HW131116   0.936   1.819   5.217  0.8525 -0.1580 -2.2657
42613SOL    HW231117   0.949   1.967   5.190 -0.5854  0.1077 -1.5959
42614SOL     OW31118   8.765   4.125   7.847 -0.2693  0.6723  0.2727
42614SOL    HW131119   8.844   4.100   7.893 -0.8688  0.3783  1.1714
42614SOL    HW231120   8.753   4.058   7.780  0.0886  0.5709  0.3101
42615SOL     OW31121   8.273   7.148   0.772  0.1601  0.3170 -0.2891
42615SOL    HW131122   8.212   7.190   0.710  0.5588  1.5323  0.1149
42615SOL    HW231123   8.336   7.102   0.716 -2.0371 -2.4479 -0.7281
42616SOL     OW31124   3.219   9.930   5.616 -0.5050 -0.4884 -0.2717
42616SOL    HW131125   3.142   9.877   5.595 -1.0590  0.4736 -0.7495
42616SOL    HW231126   3.193  10.019   5.594  0.1141  0.1141  1.3018
42617SOL     OW31127   0.323   5.666   1.995 -0.0989 -0.0849  0.0952
42617SOL    HW131128   0.269   5.683   2.073  0.7323  0.9234  0.4704
42617SOL    HW231129   0.363   5.581   2.013  0.3134  0.2664  0.9171
42618SOL     OW31130   3.308   1.711   3.207  0.0825  0.5620 -0.1456
42618SOL    HW131131   3.335   1.795   3.170 -2.0467  1.8121  0.9475
42618SOL    HW231132   3.348   1.709   3.294  0.3015  0.3376 -0.2504
42619SOL     OW31133   8.500  11.186   8.401  0.1877 -0.1326  0.2868
42619SOL    HW131134   8.406  11.207   8.401  0.3704  1.0246 -1.9552
42619SOL    HW231135   8.540  11.251   8.458 -0.2407  0.2737  0.1322
42620SOL     OW31136   8.638   4.514  10.078 -0.5372  0.0023  0.0760
42620SOL    HW131137   8.624   4.472   9.993  1.3311 -0.7353  0.1013
42620SOL    HW231138   8.602   4.452  10.142  0.7167 -0.8352 -0.0032
42621SOL     OW31139   1.274   0.470   8.621  0.3501  0.1638  0.3271
42621SOL    HW131140   1.340   0.462   8.690  1.2934  4.3969  0.1660
42621SOL    HW231141   1.218   0.542   8.651 -1.1842 -0.0501 -1.8577
42622SOL     OW31142   1.348   1.862  11.067 -0.0168  0.4700  0.1825
42622SOL    HW131143   1.412   1.924  11.032  0.0004  0.2585 -0.1571
42622SOL    HW231144   1.392   1.778  11.067 -0.9547 -0.1017 -2.0546
42623SOL     OW31145   8.166   1.801   9.545  0.2106  0.1286  0.5122
42623SOL    HW131146   8.076   1.769   9.537  0.5091 -0.5144 -0.4883
42623SOL    HW231147   8.157   1.896   9.543 -0.5443  0.1145  1.7962
42624SOL     OW31148   7.073   0.239   8.002 -0.2100  0.1798 -0.3972
42624SOL    HW131149   7.125   0.319   7.992 -1.9396  1.4097 -0.0010
42624SOL    HW231150   7.003   0.248   7.938 -2.0635  0.3965  1.5575
42625SOL     OW31151   8.898   3.513   3.627  0.3809 -0.1150  0.1297
42625SOL    HW131152   8.946   3.484   3.705  2.5305  0.2340 -0.9756
42625SOL    HW231153   8.879   3.432   3.580  1.2108 -0.1784 -0.1186
42626SOL     OW31154   6.112   2.289   6.408 -0.2002 -0.3059  0.3006
42626SOL    HW131155   6.056   2.356   6.368  0.7452 -0.5377 -1.4783
42626SOL    HW231156   6.121   2.221   6.341  1.7481 -0.5267  0.7342
42627SOL     OW31157   4.622   1.732   8.157 -0.9269  0.1052  0.5447
42627SOL    HW131158   4.570   1.749   8.079  0.0780 -0.3097 -0.2324
42627SOL    HW231159   4.680   1.808   8.164 -0.7460 -0.0436  0.6690
42628SOL     OW31160   8.733   7.546  10.589  0.0886  0.4649  0.4283
42628SOL    HW131161   8.783   7.467  10.570 -0.4791 -0.1510  1.4199
42628SOL    HW231162   8.778   7.586  10.663 -0.3692  0.3797  0.7548
42629SOL     OW31163   6.040  10.217   7.926  0.2076  0.4861 -0.4047
42629SOL    HW131164   6.062  10.128   7.899  1.5499  0.4387  0.7071
42629SOL    HW231165   6.125  10.259   7.941 -0.2903  2.6999 -3.0817
42630SOL     OW31166   5.806  10.187   6.758  0.2376 -0.1888 -0.1071
42630SOL    HW131167   5.854  10.219   6.835 -0.2328  0.2622  0.0064
42630SOL    HW231168   5.717  10.220   6.771  0.0763 -0.3993 -0.6822
42631SOL     OW31169   8.012  11.379   2.322  0.5322  0.0312  0.1741
42631SOL    HW131170   8.034  11.405   2.232 -0.2868  2.3507  0.5748
42631SOL    HW231171   7.922  11.346   2.316 -0.4799  2.5135  0.4322
42632SOL     OW31172   9.462   2.686   1.938 -0.1705 -0.0605  0.0928
42632SOL    HW131173   9.451   2.776   1.908 -0.7460 -0.0614  0.2980
42632SOL    HW231174   9.388   2.638   1.901  1.1651 -0.9004 -1.6682
42633SOL     OW31175   7.454   6.570   3.717 -0.6064  0.5709  0.1899
42633SOL    HW131176   7.473   6.628   3.644 -3.6084  0.2352 -1.0196
42633SOL    HW231177   7.388   6.617   3.768  1.3201  0.7458  2.7191
42634SOL     OW31178   6.332   8.810   6.798  0.1178  0.2466  0.2006
42634SOL    HW131179   6.419   8.833   6.766 -0.1003 -0.0593 -0.6152
42634SOL    HW231180   6.273   8.829   6.726 -0.3124 -0.9565  0.2057
42635SOL     OW31181   6.845   3.962   3.124 -0.0167  0.6913  0.1189
42635SOL    HW131182   6.758   3.922   3.124  0.4300 -0.3143 -0.1728
42635SOL    HW231183   6.900   3.900   3.076  1.7888 -0.7249  3.6347
42636SOL     OW31184   6.798   3.007   3.753  1.0310 -0.1355  0.0149
42636SOL    HW131185   6.759   2.967   3.831  0.5589  2.4672  1.2339
42636SOL    HW231186   6.725   3.052   3.711  0.9805 -2.4994 -2.7888
42637SOL     OW31187   1.585   9.756  10.313  0.0658  0.1455 -0.5195
42637SOL    HW131188   1.659   9.764  10.252  0.3693  0.1387 -0.1580
42637SOL    HW231189   1.584   9.663  10.337 -0.7787 -0.0849 -1.4053
42638SOL     OW31190   8.720   7.090   1.527  0.3934 -0.2295 -0.2528
42638SOL    HW131191   8.683   7.075   1.440  0.2755 -0.0678 -0.2316
42638SOL    HW231192   8.665   7.159   1.564  1.1490  0.5119 -0.4890
42639SOL     OW31193   5.735   5.552   7.301  0.7384 -0.2541 -0.1915
42639SOL    HW131194   5.662   5.605   7.268  1.3048 -0.1070 -1.2297
42639SOL    HW231195   5.694   5.490   7.362  0.2660  2.7555  2.8729
42640SOL     OW31196   6.283   8.501  10.687  0.3169  0.4038  0.3234
42640SOL    HW131197   6.352   8.552  10.643 -1.4856  0.0408 -3.2667
42640SOL    HW231198   6.310   8.410  10.676 -0.6290  0.2644 -1.0209
42641SOL     OW31199   9.730   5.281   4.439  0.0165  0.3388  0.2228
42641SOL    HW131200   9.771   5.360   4.404 -1.3098  0.4616 -1.1905
42641SOL    HW231201   9.761   5.211   4.382 -1.1076  0.3291 -0.4250
42642SOL     OW31202  10.839   6.592   4.567  0.0072 -0.1038  0.4959
42642SOL    HW131203  10.899   6.594   4.493  0.3594  0.6411  0.7892
42642SOL    HW231204  10.824   6.499   4.584  1.7892 -0.3379  0.9879
42643SOL     OW31205   7.653   5.668   1.786  0.3138  0.0602 -0.1180
42643SOL    HW131206   7.694   5.750   1.813  1.1654 -0.8367  1.4887
42643SOL    HW231207   7.679   5.657   1.695  2.2110  0.3964  0.3418
42644SOL     OW31208   3.852   6.545   5.447 -0.9378 -0.1154 -0.2631
42644SOL    HW131209   3.913   6.478   5.415  0.7198  1.5808 -0.8699
42644SOL    HW231210   3.794   6.498   5.506  0.8175 -1.9166  0.1569
42645SOL     OW31211   6.356   9.480   1.049  0.6831  0.4898  0.8360
42645SOL    HW131212   6.405   9.525   0.980  2.4573  0.2233  1.8498
42645SOL    HW231213   6.297   9.422   1.002  1.0754  1.0940 -0.4684
42646SOL     OW31214   7.361   5.295   0.162 -0.3009  0.2515 -0.1262
42646SOL    HW131215   7.348   5.320   0.070  1.4722  0.1332 -0.4577
42646SOL    HW231216   7.314   5.212   0.171  1.0587 -0.7252 -1.5004
42647SOL     OW31217   7.961   0.126   9.417  0.2022 -0.1358 -0.0344
42647SOL    HW131218   7.962   0.196   9.351 -0.9329 -0.2419 -0.1782
42647SOL    HW231219   7.925   0.168   9.495 -1.5446 -0.8040 -0.4358
42648SOL     OW31220   5.728   1.567   7.578  0.0817  0.3240 -0.2994
42648SOL    HW131221   5.738   1.613   7.495  0.2128  2.7348  0.9545
42648SOL    HW231222   5.814   1.573   7.620 -0.4341  0.7039  0.7466
42649SOL     OW31223   1.437   5.102  10.132  0.3983  0.0905  0.1638
42649SOL    HW131224   1.491   5.107  10.210  2.2644  0.4250 -1.0965
42649SOL    HW231225   1.464   5.021  10.088 -1.6925 -0.8937  0.5662
42650SOL     OW31226   9.942   8.842   3.296 -0.1553  0.2004 -0.3047
42650SOL    HW131227   9.892   8.801   3.226  0.6443  1.4292 -1.6548
42650SOL    HW231228   9.941   8.935   3.274 -0.9252  0.8083  2.0093
42651SOL     OW31229   2.235   0.053   9.742 -0.0729 -0.3689  0.4058
42651SOL    HW131230   2.303  -0.012   9.759  2.5127  1.7292 -1.2566
42651SOL    HW231231   2.263   0.131   9.790 -0.7765  0.8414 -1.0559
42652SOL     OW31232  10.929   3.047   6.583  0.0782  0.6555  0.5069
42652SOL    HW131233  10.955   2.976   6.524 -2.5169 -0.8268  1.0123
42652SOL    HW231234  10.934   3.126   6.528  3.4484  0.2916  0.0621
42653SOL     OW31235   1.921   4.873   3.199 -0.2285 -0.0993 -0.2022
42653SOL    HW131236   2.008   4.835   3.184 -0.1058  0.2318 -0.3496
42653SOL    HW231237   1.864   4.798   3.213  0.4343 -0.2761  1.9390
42654SOL     OW31238   3.823  10.669  10.521  0.7648 -0.0463  0.6340
42654SOL    HW131239   3.852  10.755  10.489  0.8075 -0.4765 -0.5570
42654SOL    HW231240   3.821  10.615  10.442  1.1647 -1.2586  1.4407
42655SOL     OW31241   3.030   6.508   4.222 -0.2702 -0.7272 -0.1037
42655SOL    HW131242   3.097   6.452   4.261 -1.1742 -0.6665  1.6274
42655SOL    HW231243   3.039   6.592   4.268 -1.5508 -0.7385  0.2049
42656SOL     OW31244   3.499   5.346   7.025  0.3052 -0.0727  0.4340
42656SOL    HW131245   3.416   5.350   7.073 -0.1393 -0.7913 -0.2453
42656SOL    HW231246   3.502   5.427   6.975  1.4337  1.3724  2.6591
42657SOL     OW31247   6.858   8.555   4.833 -0.4112  0.5142  0.1714
42657SOL    HW131248   6.764   8.541   4.821 -0.1110 -0.4895 -1.3020
42657SOL    HW231249   6.890   8.470   4.864  0.0253  0.8314  0.5902
42658SOL     OW31250   2.019   5.755   7.006  0.1693  0.5256  0.4445
42658SOL    HW131251   1.964   5.687   7.045 -0.0084  0.1281 -0.4551
42658SOL    HW231252   2.095   5.707   6.974 -2.3666 -0.4903 -5.3853
42659SOL     OW31253   9.448   9.597   4.769  0.0941 -0.3435 -0.7352
42659SOL    HW131254   9.360   9.635   4.772  0.0644 -0.2693 -1.8536
42659SOL    HW231255   9.465   9.566   4.858 -2.1072 -2.6826 -1.0235
42660SOL     OW31256   7.540   9.460   2.007  0.0865  0.0240  0.4062
42660SOL    HW131257   7.564   9.448   1.915 -0.5387  0.8260  0.1271
42660SOL    HW231258   7.534   9.371   2.041  0.9550 -0.2707 -0.1530
42661SOL     OW31259   6.316   4.355   6.320 -0.0919  0.5323 -0.4867
42661SOL    HW131260   6.251   4.285   6.335  0.7703 -0.1824  0.0024
42661SOL    HW231261   6.379   4.344   6.390  0.4262  1.3933 -0.8080
42662SOL     OW31262   8.588   6.702   7.420  0.3788 -0.7008  0.3846
42662SOL    HW131263   8.617   6.639   7.355 -3.0012  0.8064 -2.9292
42662SOL    HW231264   8.519   6.657   7.468  0.5598 -0.6970  0.6550
42663SOL     OW31265   8.416   8.081   9.270  0.7976  1.2095 -0.5708
42663SOL    HW131266   8.374   8.115   9.350  1.2984 -0.6042  0.5343
42663SOL    HW231267   8.347   8.032   9.226  1.3160 -0.5596  0.4999
42664SOL     OW31268   6.666   4.036   1.575  0.1430 -0.0703  0.0499
42664SOL    HW131269   6.692   3.951   1.612  3.5463  1.3916  1.4899
42664SOL    HW231270   6.716   4.042   1.493  0.5307  0.8281  0.3440
42665SOL     OW31271   7.583   6.378   4.178  0.1479  0.3312 -0.2326
42665SOL    HW131272   7.676   6.393   4.157  0.5554 -0.8697  0.6087
42665SOL    HW231273   7.560   6.452   4.234  0.9709 -0.0158  0.5907
42666SOL     OW31274   1.211  10.448   7.204  0.3151  0.8298 -0.3326
42666SOL    HW131275   1.146  10.499   7.251 -1.5990 -0.2492 -1.6263
42666SOL    HW231276   1.263  10.513   7.156 -1.3087  1.6800 -1.0413
42667SOL     OW31277  10.458   2.185   6.875 -0.2804  0.8673 -0.2709
42667SOL    HW131278  10.539   2.140   6.853 -0.5010  0.7541 -0.8797
42667SOL    HW231279  10.397   2.115   6.898  0.3783  1.0448  2.3198
42668SOL     OW31280   8.946   8.865   9.361 -0.1836 -0.1259 -0.5462
42668SOL    HW131281   8.934   8.948   9.314  1.2991  0.2844 -0.2468
42668SOL    HW231282   9.036   8.839   9.341 -0.8474 -2.0871 -1.2526
42669SOL     OW31283   0.213   9.717   6.602  0.0332 -0.2317 -0.3748
42669SOL    HW131284   0.154   9.667   6.546 -2.0341 -0.6828  2.0285
42669SOL    HW231285   0.157   9.782   6.644  0.4705 -2.3215  3.9870
42670SOL     OW31286   3.002  11.152   1.102  0.0428 -0.3811  0.5572
42670SOL    HW131287   2.998  11.199   1.185  1.3451  0.2350  0.3099
42670SOL    HW231288   3.017  11.220   1.036 -3.8322 -0.4665 -0.6585
42671SOL     OW31289   8.680   9.231   0.523  0.5470  0.0710  0.0253
42671SOL    HW131290   8.697   9.197   0.611 -1.7744 -0.0071  0.5274
42671SOL    HW231291   8.635   9.160   0.478  0.9053  0.4309 -0.9247
42672SOL     OW31292   7.266   4.823   0.154 -0.2567 -0.1979  0.3201
42672SOL    HW131293   7.203   4.769   0.201 -0.1317 -0.7150 -0.1059
42672SOL    HW231294   7.349   4.779   0.164 -0.4466 -1.0850 -1.5295
42673SOL     OW31295   4.639   3.643   9.626  0.2038 -0.3640 -0.0019
42673SOL    HW131296   4.702   3.712   9.608 -0.3635  0.0200 -0.5538
42673SOL    HW231297   4.553   3.686   9.622 -0.1782 -1.1480 -0.6697
42674SOL     OW31298   3.506   3.000   2.672 -0.2365  0.4476  0.2928
42674SOL    HW131299   3.530   2.913   2.707  1.9751  1.1729  0.7518
42674SOL    HW231300   3.538   2.999   2.582  1.7930  1.4585  0.9338
42675SOL     OW31301   2.840   9.077   8.708 -0.1785 -0.2630 -0.0091
42675SOL    HW131302   2.849   8.982   8.705 -0.9926 -0.3405 -0.0487
42675SOL    HW231303   2.748   9.094   8.688 -0.0766  0.5238  0.1451
42676SOL     OW31304   2.272   9.811   3.438  0.4430  0.2180  0.3173
42676SOL    HW131305   2.205   9.743   3.446  1.7277 -1.0653  0.5686
42676SOL    HW231306   2.344   9.781   3.493  1.6131  1.0744 -0.6787
42677SOL     OW31307  11.273   5.626   2.235 -0.3468 -0.1547  0.7695
42677SOL    HW131308  11.241   5.687   2.168  1.5136 -2.0376 -2.0838
42677SOL    HW231309  11.350   5.668   2.272  1.3300 -0.8764 -1.6695
42678SOL     OW31310   9.490   0.328   5.011 -0.1966 -0.6446 -0.2482
42678SOL    HW131311   9.482   0.235   5.033  0.7468 -1.2700 -2.2879
42678SOL    HW231312   9.448   0.336   4.926 -1.8463  1.1991  0.6675
42679SOL     OW31313   6.506   0.572   0.705 -0.4572 -0.5189 -0.3806
42679SOL    HW131314   6.570   0.500   0.701  0.3771  0.2368 -1.3234
42679SOL    HW231315   6.552   0.641   0.753 -1.0477 -0.4175  0.0414
42680SOL     OW31316   3.909   9.745   1.018 -0.4438  0.1957 -0.4202
42680SOL    HW131317   3.859   9.763   1.098 -0.9810 -1.0678 -0.4557
42680SOL    HW231318   3.985   9.695   1.048 -0.4925 -0.0225 -0.6520
42681SOL     OW31319   3.160   6.222  11.152 -0.1858 -0.3360  0.0719
42681SOL    HW131320   3.093   6.201  11.217 -1.5515  0.7739 -0.9415
42681SOL    HW231321   3.127   6.186  11.070  0.8549 -0.4865 -0.3050
42682SOL     OW31322   9.401   4.608   6.938  0.0671  0.2316  0.5243
42682SOL    HW131323   9.389   4.693   6.979 -1.0425  0.7991 -0.8871
42682SOL    HW231324   9.455   4.626   6.861 -2.7083  0.3086 -1.5647
42683SOL     OW31325   7.614   8.039   8.942  0.0893 -0.7636 -0.1432
42683SOL    HW131326   7.580   7.961   8.986  1.5396 -1.5778 -0.4148
42683SOL    HW231327   7.609   8.108   9.009  2.1566 -1.9483  1.3164
42684SOL     OW31328   0.627   7.462   3.685 -0.8059  0.3836  0.8827
42684SOL    HW131329   0.541   7.451   3.726 -0.6699  0.6626  1.2410
42684SOL    HW231330   0.686   7.412   3.741 -0.8874 -0.6650  0.0719
42685SOL     OW31331   9.076   9.800   9.108 -0.1938  0.5579  0.4540
42685SOL    HW131332   9.144   9.859   9.074 -0.0420 -0.2093 -0.6027
42685SOL    HW231333   9.122   9.719   9.128 -0.8480 -0.0898 -0.6119
42686SOL     OW31334   8.197   5.299   1.324 -0.7391 -0.1264 -0.4253
42686SOL    HW131335   8.172   5.362   1.257 -1.0680  0.7732  0.5225
42686SOL    HW231336   8.292   5.308   1.331 -0.9090  1.1073  0.5099
42687SOL     OW31337   6.047   6.696   5.463 -0.0596  0.4048 -0.2794
42687SOL    HW131338   6.083   6.784   5.458  1.7890 -0.2188  0.9219
42687SOL    HW231339   6.065   6.656   5.378  0.0038  0.8483 -0.4738
42688SOL     OW31340   7.406   5.883   7.431 -0.2769 -0.1458 -0.0369
42688SOL    HW131341   7.462   5.956   7.405  0.5045 -1.0169 -0.8733
42688SOL    HW231342   7.321   5.903   7.392 -0.4054  0.8941  0.7397
42689SOL     OW31343   5.031   8.277   6.522  0.8488  0.3760 -0.7114
42689SOL    HW131344   5.110   8.237   6.560  1.5840  0.0136 -2.5413
42689SOL    HW231345   5.056   8.369   6.507  0.0480  0.9221  1.0048
42690SOL     OW31346   9.422   5.533   8.516  0.5155 -0.3502  0.7128
42690SOL    HW131347   9.427   5.629   8.525 -0.3997 -0.3071  0.9055
42690SOL    HW231348   9.461   5.516   8.430 -2.1631  0.5699 -0.8353
42691SOL     OW31349   4.537   1.314   0.738  0.1232 -0.3586  0.8137
42691SOL    HW131350   4.584   1.292   0.658 -2.1913 -0.7070 -0.5506
42691SOL    HW231351   4.510   1.230   0.775 -1.1359 -0.1385  0.4455
42692SOL     OW31352   1.168   0.864   7.482 -0.0296 -0.0935 -0.1312
42692SOL    HW131353   1.156   0.913   7.401  0.6862 -1.6984 -1.2817
42692SOL    HW231354   1.257   0.886   7.511 -0.4242  0.7793  0.4658
42693SOL     OW31355   4.894   7.829   9.868  0.4748  0.0120  0.0030
42693SOL    HW131356   4.903   7.786   9.954  1.2148  0.6727  0.2699
42693SOL    HW231357   4.847   7.765   9.814  0.6981 -0.7376  0.6709
42694SOL     OW31358   3.214   3.232   7.365  0.3368  0.1423  0.4438
42694SOL    HW131359   3.167   3.167   7.311  0.5671  1.6531 -1.7039
42694SOL    HW231360   3.144   3.285   7.404  0.1848 -0.4900  1.0540
42695SOL     OW31361   4.257   5.104   6.736 -0.8155  0.0123  0.2017
42695SOL    HW131362   4.321   5.039   6.710  1.3344  2.2657 -0.5033
42695SOL    HW231363   4.301   5.155   6.804 -2.5728  0.4986  1.0310
42696SOL     OW31364   2.211  11.222   5.779  0.3542  0.2617 -0.4616
42696SOL    HW131365   2.240  11.295   5.834 -0.4548  0.3071 -0.0779
42696SOL    HW231366   2.261  11.147   5.811 -0.0594  0.3046  0.2976
42697SOL     OW31367   9.913   7.497   1.379  0.4232  0.6659  0.1090
42697SOL    HW131368  10.006   7.514   1.365  0.7335  0.0938  1.3481
42697SOL    HW231369   9.877   7.582   1.404  0.8870  0.6246  0.9469
42698SOL     OW31370   7.414   0.352   9.891  0.4244  0.5680 -0.0060
42698SOL    HW131371   7.345   0.367   9.956  0.3712 -1.5156  0.4841
42698SOL    HW231372   7.374   0.374   9.807 -0.1307  1.4213  0.4736
42699SOL     OW31373   3.601   7.120   6.757  0.0722  0.0060 -0.5817
42699SOL    HW131374   3.608   7.068   6.677 -1.6861  0.3876 -1.0240
42699SOL    HW231375   3.628   7.060   6.827 -0.4524 -1.0263 -1.2373
42700SOL     OW31376   3.027   4.308   1.922 -0.3493  0.3233  0.0480
42700SOL    HW131377   3.008   4.358   2.002 -0.4537 -0.6702  0.6688
42700SOL    HW231378   2.986   4.222   1.938 -0.7119  0.2339 -1.2411
42701SOL     OW31379   0.295   2.068   5.220 -0.0430 -0.1236 -0.3188
42701SOL    HW131380   0.306   2.062   5.125  0.7813 -0.2428 -0.2237
42701SOL    HW231381   0.367   2.015   5.256  1.1128  1.8371  0.3989
42702SOL     OW31382   1.598  10.973   3.232  0.0965  0.1561 -0.0094
42702SOL    HW131383   1.541  10.903   3.263  0.0529  0.0388 -0.3546
42702SOL    HW231384   1.544  11.024   3.173  0.4685 -0.2227 -0.6995
42703SOL     OW31385   2.898   1.760   8.224 -0.0767  0.8709 -0.2573
42703SOL    HW131386   2.944   1.677   8.210 -1.2995 -0.0892  1.0347
42703SOL    HW231387   2.968   1.825   8.234  0.9452 -0.1947 -0.2153
42704SOL     OW31388   2.699   1.460   0.469  0.3577  0.0810 -0.1220
42704SOL    HW131389   2.748   1.540   0.450  0.4494  0.0576  0.0199
42704SOL    HW231390   2.710   1.406   0.390  2.6689 -0.9933  0.8419
42705SOL     OW31391   8.389   2.595  10.878  0.8383  0.1279 -0.3354
42705SOL    HW131392   8.330   2.541  10.929  0.3631  0.3746 -0.6238
42705SOL    HW231393   8.470   2.543  10.872  0.3015 -0.6672 -0.8465
42706SOL     OW31394   5.008   4.439   8.962  0.2183 -0.0472  0.7868
42706SOL    HW131395   5.058   4.492   9.024 -2.3246  0.5398  2.5150
42706SOL    HW231396   4.954   4.383   9.017  0.1276 -1.8035 -0.9924
42707SOL     OW31397   9.800   3.186   9.934 -0.4447 -0.3239  0.1386
42707SOL    HW131398   9.787   3.102   9.890 -1.5278  1.0732 -2.3957
42707SOL    HW231399   9.871   3.228   9.885 -3.1680  2.2242 -2.0387
42708SOL     OW31400   8.508   3.770   3.643  0.0935 -0.6444  0.1206
42708SOL    HW131401   8.585   3.739   3.595 -0.3284 -0.8039 -0.4555
42708SOL    HW231402   8.440   3.778   3.577 -0.3853 -0.4839  0.6280
42709SOL     OW31403   9.434   7.796   8.203 -0.8894 -0.3931 -0.0965
42709SOL    HW131404   9.350   7.766   8.237 -0.5589 -0.4523  0.7019
42709SOL    HW231405   9.479   7.715   8.178 -0.5757 -0.4705  0.6809
42710SOL     OW31406   4.172   7.311   4.803  0.3305  0.2737  0.3906
42710SOL    HW131407   4.239   7.370   4.767  1.0695 -1.1889 -0.7087
42710SOL    HW231408   4.222   7.248   4.855 -0.4330  0.4219  1.3309
42711SOL     OW31409   8.996   3.305   9.026 -0.1570 -0.5814  0.2426
42711SOL    HW131410   9.047   3.225   9.015  0.9308  0.0176  0.7301
42711SOL    HW231411   8.907   3.281   8.999  0.4530 -1.5480 -1.0362
42712SOL     OW31412   6.046   0.967   7.485  0.4640  0.5486 -0.5488
42712SOL    HW131413   6.107   0.955   7.558  0.4493  0.5230 -0.5404
42712SOL    HW231414   5.961   0.976   7.527  0.2582 -0.8162 -0.6195
42713SOL     OW31415   9.503   1.880   7.564  0.2393  0.1163 -0.2515
42713SOL    HW131416   9.500   1.822   7.640  0.0424  1.5811  0.9183
42713SOL    HW231417   9.417   1.923   7.563  1.3136  2.5130  0.7325
42714SOL     OW31418   3.455   6.871   1.422 -0.3589  0.1033 -0.0747
42714SOL    HW131419   3.463   6.942   1.358  0.6333  0.5363  0.5188
42714SOL    HW231420   3.449   6.792   1.369 -1.0623  0.5801 -0.7350
42715SOL     OW31421   7.235   0.622  11.173 -0.4301  0.3437  0.0818
42715SOL    HW131422   7.233   0.710  11.209 -1.2673  1.5832 -2.6843
42715SOL    HW231423   7.327   0.598  11.171 -0.2628  0.7835  1.6070
42716SOL     OW31424   3.449   2.887   7.432 -0.3190  0.1981  0.4494
42716SOL    HW131425   3.389   2.957   7.460 -3.2711 -2.6818  2.0682
42716SOL    HW231426   3.461   2.902   7.338  0.2142  3.4681  0.9023
42717SOL     OW31427  10.785   9.578   3.454 -0.0690  0.1081  0.2375
42717SOL    HW131428  10.717   9.643   3.469  0.0208  0.1682  0.3862
42717SOL    HW231429  10.754   9.527   3.379  0.3991  1.0412 -0.6207
42718SOL     OW31430   1.149   3.217   0.294 -0.5849  0.4083  0.0789
42718SOL    HW131431   1.153   3.300   0.246  0.0526 -1.2418 -2.9583
42718SOL    HW231432   1.231   3.216   0.345  0.0784  1.0364 -0.9331
42719SOL     OW31433   7.355   3.808   1.858 -0.4768  0.5163 -0.0559
42719SOL    HW131434   7.308   3.724   1.858  0.9806 -0.3341  0.8691
42719SOL    HW231435   7.399   3.811   1.943 -1.4880  2.8268  0.4559
42720SOL     OW31436   4.471   0.145   6.609 -0.2430 -0.1337  0.4783
42720SOL    HW131437   4.477   0.139   6.513 -0.5086  0.4905  0.4165
42720SOL    HW231438   4.431   0.230   6.625 -1.3663 -0.7618  1.1121
42721SOL     OW31439   1.992   3.660   1.290  0.2305 -0.2778  0.5742
42721SOL    HW131440   1.968   3.577   1.249  0.4703  0.4545 -1.1267
42721SOL    HW231441   2.087   3.662   1.288  0.2082  0.5342 -0.4844
42722SOL     OW31442   1.240   0.126   8.832 -0.2754  0.0914  0.1185
42722SOL    HW131443   1.288   0.043   8.834 -0.8762 -0.2619  0.3306
42722SOL    HW231444   1.191   0.126   8.914  0.3967  1.0750  0.5432
42723SOL     OW31445   8.113   0.481   3.744  0.0979  0.4557 -0.0984
42723SOL    HW131446   8.107   0.566   3.700  1.6476  0.4697 -0.3306
42723SOL    HW231447   8.206   0.471   3.764 -0.0415 -1.2526 -0.1998
42724SOL     OW31448   9.820   6.834  10.743  0.2619  0.0626  0.3037
42724SOL    HW131449   9.745   6.879  10.706  0.1843 -0.0796  0.2858
42724SOL    HW231450   9.868   6.901  10.792  1.3117  0.6687 -1.4645
42725SOL     OW31451   9.373   9.717   5.114 -0.5884 -0.9778 -0.2758
42725SOL    HW131452   9.288   9.702   5.157  0.6970 -2.4881  1.9297
42725SOL    HW231453   9.403   9.630   5.091  0.3342 -0.4438 -1.1453
42726SOL     OW31454   8.765   1.018   1.370 -0.4339 -0.3909  0.2526
42726SOL    HW131455   8.844   1.068   1.389  0.0324 -1.0628  0.1228
42726SOL    HW231456   8.695   1.083   1.370 -0.1748 -0.0490  2.2146
42727SOL     OW31457   3.583   7.614  11.165 -0.1967 -0.1114  0.6770
42727SOL    HW131458   3.664   7.562  11.161  0.4543  0.9895 -1.8133
42727SOL    HW231459   3.527   7.564  11.225  0.9011 -2.9679 -0.4787
42728SOL     OW31460   9.399   5.227   3.093  0.1125  0.4441 -0.3492
42728SOL    HW131461   9.434   5.269   3.172 -2.3634 -0.6295  1.4835
42728SOL    HW231462   9.470   5.172   3.060  0.9253  0.1490  1.7510
42729SOL     OW31463   0.185   0.616   7.033 -0.0970 -0.0586  0.2593
42729SOL    HW131464   0.150   0.589   7.118  0.3535  2.3756  1.2997
42729SOL    HW231465   0.135   0.695   7.011 -0.5981 -0.9519 -2.0594
42730SOL     OW31466   5.433   6.544  10.739  0.4451 -0.2492 -0.3835
42730SOL    HW131467   5.509   6.524  10.684  2.0905  1.0975  1.2810
42730SOL    HW231468   5.430   6.473  10.803  0.8451  0.1374  0.0713
42731SOL     OW31469  10.692   2.765   8.789  0.0900 -0.0714  0.9335
42731SOL    HW131470  10.777   2.734   8.819  0.4185 -1.0366 -0.8475
42731SOL    HW231471  10.663   2.700   8.725 -1.7780  0.4840  1.1399
42732SOL     OW31472   8.397  10.727   9.537 -0.0809  0.2221  0.4997
42732SOL    HW131473   8.387  10.639   9.501 -0.3443 -0.2137  1.5832
42732SOL    HW231474   8.439  10.778   9.467  0.4391 -0.8638  0.0055
42733SOL     OW31475   7.523   0.689   0.822 -0.0356  0.0128  0.2432
42733SOL    HW131476   7.498   0.617   0.880 -1.0986 -0.9453 -1.3440
42733SOL    HW231477   7.590   0.652   0.765 -1.5943 -0.2061 -1.5257
42734SOL     OW31478   7.448   5.559   5.353 -0.4035 -0.3171  0.1231
42734SOL    HW131479   7.408   5.486   5.400  0.0451  0.2512  1.4578
42734SOL    HW231480   7.532   5.573   5.398 -0.8688  1.5502  0.4857
42735SOL     OW31481   1.985   5.212   2.486  0.5519 -0.0331  0.3378
42735SOL    HW131482   2.020   5.266   2.415  1.0679 -1.9395 -0.9103
42735SOL    HW231483   1.890   5.217   2.476  0.6228 -0.2679 -0.4814
42736SOL     OW31484   8.898   4.853   1.940  0.5314  0.1973  0.3103
42736SOL    HW131485   8.905   4.769   1.894  0.5720  0.7546 -0.7315
42736SOL    HW231486   8.979   4.899   1.918  0.9553  0.1602  1.6521
42737SOL     OW31487   8.735  10.946   4.552  0.4768  0.6526 -0.0542
42737SOL    HW131488   8.802  11.014   4.540 -0.3955  1.5131 -0.1324
42737SOL    HW231489   8.707  10.956   4.643 -0.2765  0.9847 -0.3171
42738SOL     OW31490   6.826   6.325   2.812 -0.3494 -0.0793 -0.0619
42738SOL    HW131491   6.787   6.268   2.746  0.7913 -0.5678 -0.3449
42738SOL    HW231492   6.801   6.414   2.786 -0.7124 -0.3368 -0.5972
42739SOL     OW31493   5.372   1.863   9.635  0.0610 -0.0744 -0.6498
42739SOL    HW131494   5.376   1.836   9.543 -0.3373  1.4785 -1.1565
42739SOL    HW231495   5.285   1.835   9.664  0.3010 -0.8385 -0.6350
42740SOL     OW31496   8.671   5.892  10.450  0.0335 -0.0350 -0.7070
42740SOL    HW131497   8.579   5.882  10.472  0.1336 -0.2769 -0.3971
42740SOL    HW231498   8.678   5.857  10.361 -0.3353  0.7909 -1.0749
42741SOL     OW31499   4.338   1.481  10.258  0.4770 -0.3423 -0.2419
42741SOL    HW131500   4.381   1.409  10.304  2.4064  0.9982  0.2065
42741SOL    HW231501   4.391   1.558  10.280 -0.8080  1.0125 -1.6428
42742SOL     OW31502   7.419   9.755   8.356 -0.1763 -0.4893  0.2082
42742SOL    HW131503   7.345   9.816   8.357 -0.8036 -1.1963 -1.0772
42742SOL    HW231504   7.485   9.799   8.302  0.0141 -0.2338  0.6449
42743SOL     OW31505   6.949   9.017   6.000  0.6422 -0.1677  0.1628
42743SOL    HW131506   6.881   8.959   6.033  1.8948 -2.2672 -0.6967
42743SOL    HW231507   7.020   9.010   6.064  2.3701 -2.8567 -1.8158
42744SOL     OW31508  10.491   1.407  10.100  0.0775  0.6424  0.5514
42744SOL    HW131509  10.407   1.367  10.074  0.0839  0.2408  1.1332
42744SOL    HW231510  10.503   1.380  10.191  0.4825  1.3136  0.6982
42745SOL     OW31511  11.078   1.925   3.693 -0.2818 -0.2822  0.1598
42745SOL    HW131512  11.171   1.941   3.678 -0.2557 -0.7626 -0.2315
42745SOL    HW231513  11.067   1.830   3.682 -0.7183 -0.3072  0.7652
42746SOL     OW31514   7.369   6.199   8.738  0.3415 -0.0145  0.0302
42746SOL    HW131515   7.406   6.266   8.681  2.2693 -1.8560 -1.0348
42746SOL    HW231516   7.275   6.214   8.736  0.6936  2.7779  0.0740
42747SOL     OW31517   2.626   2.851  10.606 -0.4467 -1.0289  0.0138
42747SOL    HW131518   2.629   2.796  10.683  1.5261 -1.1248 -0.0665
42747SOL    HW231519   2.679   2.928  10.629 -0.1458 -0.8806 -1.0956
42748SOL     OW31520   6.200   2.584   4.190  0.1813 -0.0764 -0.3307
42748SOL    HW131521   6.112   2.602   4.157  0.3477 -1.6917 -1.7855
42748SOL    HW231522   6.233   2.670   4.218 -1.1953  0.8413 -1.3815
42749SOL     OW31523   8.339   6.611   4.398 -0.1837 -0.5881  0.1756
42749SOL    HW131524   8.434   6.622   4.410 -0.1613 -0.1229 -0.3704
42749SOL    HW231525   8.301   6.642   4.480  0.0016  1.7430 -0.5267
42750SOL     OW31526   5.211  10.840   2.660 -0.1683  0.0699 -0.0001
42750SOL    HW131527   5.158  10.838   2.740  0.1424 -0.3186  0.1976
42750SOL    HW231528   5.150  10.815   2.591 -0.9969  2.4616 -0.2267
42751SOL     OW31529   1.374   7.762  11.321  0.2837  0.0732  0.5056
42751SOL    HW131530   1.290   7.740  11.361  0.0498 -0.8881 -0.4762
42751SOL    HW231531   1.355   7.773  11.228  1.2198 -0.0836  0.2769
42752SOL     OW31532  10.352   9.276   5.456 -0.2881  0.2746 -0.4398
42752SOL    HW131533  10.393   9.292   5.371  0.7328  1.8290  0.2794
42752SOL    HW231534  10.271   9.230   5.436  0.5402 -0.5375 -2.1374
42753SOL     OW31535  10.143   8.427   5.629  0.1426  0.3609  0.0227
42753SOL    HW131536  10.111   8.364   5.694 -1.3828  2.0250  1.0003
42753SOL    HW231537  10.211   8.476   5.675  1.3086 -0.5148 -0.7252
42754SOL     OW31538   8.773   9.673   3.508 -0.3271  0.3566 -0.3406
42754SOL    HW131539   8.687   9.708   3.487  0.2618  0.5392 -2.7386
42754SOL    HW231540   8.771   9.582   3.480  0.1308  0.2405 -0.0225
42755SOL     OW31541  10.440   1.659   4.998 -0.2556 -0.3311 -0.1084
42755SOL    HW131542  10.414   1.582   5.049  0.0670 -0.8054 -0.6465
42755SOL    HW231543  10.532   1.643   4.977  0.0389  0.5883  0.4585
42756SOL     OW31544   4.608   1.367  11.233 -0.5072  0.1804  0.3655
42756SOL    HW131545   4.689   1.399  11.274  0.5428 -1.6899 -0.1566
42756SOL    HW231546   4.570   1.446  11.193  1.4062  1.0278  0.0466
42757SOL     OW31547   2.735   5.415   7.094  0.1657 -0.9839 -0.0800
42757SOL    HW131548   2.711   5.324   7.108 -0.9949 -0.7347 -0.3705
42757SOL    HW231549   2.824   5.422   7.129 -0.2405 -1.8936  1.2013
42758SOL     OW31550   4.442  10.754   1.884 -0.0713  0.4704 -0.2034
42758SOL    HW131551   4.427  10.833   1.936 -1.8701  0.2576 -0.3439
42758SOL    HW231552   4.468  10.787   1.798 -1.9438  1.0031 -0.6175
42759SOL     OW31553   9.869   3.778   1.178 -0.1468 -0.1653 -0.5291
42759SOL    HW131554   9.914   3.695   1.164 -0.9231 -0.8505  0.8276
42759SOL    HW231555   9.860   3.785   1.273  2.8632  3.1003 -0.2776
42760SOL     OW31556   7.761   1.000   5.739  0.3639  0.1544 -0.1009
42760SOL    HW131557   7.754   1.014   5.645  0.9613 -2.5368 -0.6177
42760SOL    HW231558   7.846   0.959   5.751  0.1742  0.1895  1.6010
42761SOL     OW31559   9.730   5.987   6.782 -0.4372  0.0474 -0.4455
42761SOL    HW131560   9.824   6.003   6.772 -0.7064  1.4513 -0.9395
42761SOL    HW231561   9.700   6.056   6.840 -1.4807  0.7487 -1.7640
42762SOL     OW31562   6.005   0.815   5.836 -0.1572 -0.3170 -0.1960
42762SOL    HW131563   6.040   0.904   5.843 -0.0827 -0.4580  1.6865
42762SOL    HW231564   5.956   0.815   5.754 -0.2538  1.4962 -0.1749
42763SOL     OW31565   0.016   7.087  11.131 -0.6937  0.1244 -0.2275
42763SOL    HW131566   0.002   7.128  11.046 -1.3810 -0.4400 -0.3977
42763SOL    HW231567  -0.037   7.007  11.128 -1.0868  0.3267  0.9044
42764SOL     OW31568   7.390   4.009   9.852  0.7356  0.4397  0.6672
42764SOL    HW131569   7.434   3.943   9.799  1.4345  0.5428  1.1051
42764SOL    HW231570   7.310   4.030   9.804 -0.0653 -1.5294  1.0707
42765SOL     OW31571   3.864   3.095   7.029 -0.3192  0.5262 -0.4244
42765SOL    HW131572   3.784   3.093   6.975  1.0195  1.3919 -2.5803
42765SOL    HW231573   3.933   3.066   6.970  1.0252 -0.0167  1.3376
42766SOL     OW31574   2.962   8.641  10.816 -0.3153 -0.2052 -0.2301
42766SOL    HW131575   3.010   8.674  10.892  0.8604 -0.3217 -0.8861
42766SOL    HW231576   2.870   8.657  10.836  0.0950  1.7258  0.2960
42767SOL     OW31577   8.616   5.257   0.315 -0.2866  0.2310  0.0231
42767SOL    HW131578   8.666   5.212   0.247  0.4346 -0.9195  1.2796
42767SOL    HW231579   8.604   5.192   0.384  0.1288  1.7228  1.5836
42768SOL     OW31580   1.546  11.233   7.518 -0.2005  0.0836  0.2404
42768SOL    HW131581   1.616  11.213   7.580 -0.6983 -0.3595  0.6754
42768SOL    HW231582   1.531  11.327   7.529 -0.3331 -0.0012  0.8554
42769SOL     OW31583   6.083   2.509   0.295 -0.1716  0.4225 -0.5513
42769SOL    HW131584   6.034   2.431   0.320 -1.1728  1.2103  0.0642
42769SOL    HW231585   6.052   2.531   0.207  0.3094 -0.0218 -0.8330
42770SOL     OW31586   8.292   7.522   9.449 -0.2325 -0.1377 -0.4609
42770SOL    HW131587   8.237   7.581   9.397  0.9895  0.3721 -1.2281
42770SOL    HW231588   8.265   7.434   9.424 -1.6482  0.0803  0.2294
42771SOL     OW31589   3.517   9.999   9.270 -0.2559  0.5973 -0.3279
42771SOL    HW131590   3.534  10.092   9.254 -0.9761  0.9703  0.8957
42771SOL    HW231591   3.461   9.998   9.348  1.3480 -0.9549  0.8866
42772SOL     OW31592   0.302   2.022   2.961 -0.0598  0.7545  0.1000
42772SOL    HW131593   0.283   1.962   3.033  0.2033 -0.8051 -1.0763
42772SOL    HW231594   0.356   1.971   2.900  1.2802  2.5907 -0.3641
42773SOL     OW31595   9.865   7.845   9.149 -0.2028 -0.0020  0.1712
42773SOL    HW131596   9.807   7.871   9.077 -0.6439  0.0274  0.5284
42773SOL    HW231597   9.847   7.752   9.162  2.0523 -0.7814 -1.7209
42774SOL     OW31598   3.808   4.904   2.727  0.3253 -0.6234  0.3258
42774SOL    HW131599   3.863   4.904   2.649 -0.4889 -1.3433 -0.2761
42774SOL    HW231600   3.769   4.817   2.729 -2.6074  0.5417 -0.6194
42775SOL     OW31601   7.550   9.510  11.160 -0.0510 -0.4825  0.3240
42775SOL    HW131602   7.497   9.505  11.240 -1.8413 -0.0617 -0.7789
42775SOL    HW231603   7.486   9.525  11.090  1.5546  0.1027 -1.0750
42776SOL     OW31604  11.230   0.580   6.601  0.6327 -0.0519  0.4763
42776SOL    HW131605  11.254   0.558   6.691 -1.3732 -1.8174  0.6450
42776SOL    HW231606  11.272   0.512   6.548 -0.3909 -0.6186  0.3684
42777SOL     OW31607   6.219   0.033   4.846 -0.3136 -0.1413  0.2485
42777SOL    HW131608   6.190   0.051   4.935 -0.9850  0.3143 -0.0591
42777SOL    HW231609   6.309   0.003   4.856  0.2164  1.5427  0.9598
42778SOL     OW31610  10.263   2.820  11.210 -0.0950 -0.0817 -0.3129
42778SOL    HW131611  10.328   2.751  11.227 -0.7491 -0.6143  0.0678
42778SOL    HW231612  10.314   2.892  11.172  0.7540 -0.3991  0.1993
42779SOL     OW31613   8.478   3.476  10.631 -0.0515 -0.0473  0.2287
42779SOL    HW131614   8.526   3.406  10.587  1.3312  1.1318 -0.1895
42779SOL    HW231615   8.393   3.479  10.586 -0.6916 -2.3007  1.1234
42780SOL     OW31616   6.231   1.535   6.548 -0.0595 -0.6440  0.3477
42780SOL    HW131617   6.282   1.615   6.538  0.5465 -1.0269  0.3157
42780SOL    HW231618   6.212   1.530   6.641 -0.6437 -0.1407  0.2635
42781SOL     OW31619   9.462   1.516  10.971 -0.1278  0.4584 -0.7793
42781SOL    HW131620   9.553   1.496  10.946  0.2987 -0.0164  1.0110
42781SOL    HW231621   9.464   1.609  10.993  0.3160  0.1008  0.7664
42782SOL     OW31622   3.487   0.176   8.742 -0.7387  0.1498  0.2860
42782SOL    HW131623   3.515   0.184   8.833 -3.5960 -0.5367  1.3479
42782SOL    HW231624   3.419   0.108   8.744 -1.1003  0.3350 -2.3184
42783SOL     OW31625   9.164  11.199   4.105 -0.1172 -0.7080  0.1712
42783SOL    HW131626   9.089  11.250   4.137  0.9887  0.7104  0.5619
42783SOL    HW231627   9.131  11.155   4.027 -1.2540  0.2087  0.1041
42784SOL     OW31628   0.991   6.922   2.052  0.1509 -0.0058  0.5782
42784SOL    HW131629   0.937   6.960   2.121  1.8303 -1.2805  2.7321
42784SOL    HW231630   1.004   6.831   2.079  1.3686 -0.3978 -1.1267
42785SOL     OW31631   7.063   4.670   7.325  0.2683 -0.2907 -0.1343
42785SOL    HW131632   7.095   4.759   7.308  0.8477 -0.4376  0.1649
42785SOL    HW231633   7.020   4.645   7.243 -1.6510  0.9831  0.4223
42786SOL     OW31634   0.549   1.914   0.538 -0.0706  0.1019  0.0650
42786SOL    HW131635   0.628   1.914   0.592 -0.8470 -0.8086  1.2860
42786SOL    HW231636   0.521   1.822   0.537 -1.4212  0.4882  0.1699
42787SOL     OW31637   8.891   5.886   7.763  0.2378 -0.0235 -0.8729
42787SOL    HW131638   8.974   5.875   7.715  0.8481  0.1423  0.1136
42787SOL    HW231639   8.915   5.937   7.840 -0.5916 -0.9021 -0.0089
42788SOL     OW31640   0.870  11.160   8.536 -0.1180 -0.4700  0.2984
42788SOL    HW131641   0.930  11.211   8.591  3.4406 -1.3823 -2.3140
42788SOL    HW231642   0.820  11.107   8.597  1.7316  0.4321  2.7513
42789SOL     OW31643   1.067   6.838   1.793  0.1550  0.1840 -0.5289
42789SOL    HW131644   1.045   6.858   1.884 -1.1531 -0.1816 -0.7508
42789SOL    HW231645   1.084   6.744   1.792  1.4855  0.4063 -0.4232
42790SOL     OW31646   7.046   4.090   9.300 -0.2217  0.0415  0.5205
42790SOL    HW131647   7.110   4.147   9.343 -0.2684  0.6535 -0.1942
42790SOL    HW231648   7.036   4.016   9.359  1.2051 -0.0980  0.6215
42791SOL     OW31649   3.630   3.180   7.383  0.1015 -0.5759  0.6415
42791SOL    HW131650   3.689   3.131   7.325 -0.5523 -1.9077  1.0708
42791SOL    HW231651   3.567   3.115   7.415 -1.2928  0.7083  0.6129
42792SOL     OW31652  11.123   9.171   0.774  0.0199 -0.0776  0.3309
42792SOL    HW131653  11.198   9.226   0.793  0.1139 -0.2871  0.5792
42792SOL    HW231654  11.088   9.148   0.860 -0.8016  0.6630  0.2130
42793SOL     OW31655   7.668   8.037   2.729  0.3785  0.4559 -0.3221
42793SOL    HW131656   7.623   8.065   2.809  1.2241 -0.4770  0.5135
42793SOL    HW231657   7.733   8.105   2.714  0.9896  0.0633  0.4635
42794SOL     OW31658   9.363   6.669   3.569 -0.1702 -0.8766 -0.0762
42794SOL    HW131659   9.317   6.586   3.584 -0.4987 -0.5470  0.7890
42794SOL    HW231660   9.302   6.736   3.598  0.9280 -0.4428  1.4087
42795SOL     OW31661  10.892   7.651   3.809 -0.1991  0.8472 -0.5074
42795SOL    HW131662  10.900   7.635   3.903  0.4639 -1.8572 -0.9423
42795SOL    HW231663  10.815   7.602   3.783  0.1095  0.8875 -1.5245
42796SOL     OW31664   7.132  10.389   1.693 -0.4316 -0.0057  0.0103
42796SOL    HW131665   7.134  10.424   1.782 -0.3093  0.0358 -0.0081
42796SOL    HW231666   7.178  10.306   1.698  0.7072  0.5890 -0.2616
42797SOL     OW31667   4.905  10.236   8.295  0.5938  0.3218 -0.4712
42797SOL    HW131668   4.968  10.250   8.367 -0.9837 -0.5621  1.1760
42797SOL    HW231669   4.883  10.143   8.300 -0.6020  0.5402 -1.2045
42798SOL     OW31670   8.396   8.249   2.549 -0.6809  0.2254  0.1474
42798SOL    HW131671   8.352   8.197   2.481  0.6627 -0.4322 -0.2501
42798SOL    HW231672   8.393   8.339   2.516 -3.1895  0.5124  0.9252
42799SOL     OW31673   4.176   2.596   7.968 -0.7399 -0.2922 -0.4030
42799SOL    HW131674   4.271   2.590   7.977 -0.7432  0.0448 -0.0847
42799SOL    HW231675   4.159   2.688   7.949 -0.9529 -0.4908 -1.1784
42800SOL     OW31676   6.835   4.477   9.855  0.5042  0.3467  0.1965
42800SOL    HW131677   6.833   4.530   9.935  1.3397  2.0151 -0.8313
42800SOL    HW231678   6.928   4.466   9.837  0.3315 -1.1072  0.1249
42801SOL     OW31679  10.985   5.556   8.389  0.3340 -0.3314 -0.5011
42801SOL    HW131680  10.897   5.567   8.355 -0.3674  0.3523  1.4341
42801SOL    HW231681  11.016   5.475   8.348 -0.7623 -0.0415 -1.9985
42802SOL     OW31682   7.627   0.399   6.160 -0.1303  0.3029 -0.1943
42802SOL    HW131683   7.561   0.459   6.125 -0.6303 -0.5051 -0.6462
42802SOL    HW231684   7.605   0.314   6.123  1.1135 -0.0000 -0.2755
42803SOL     OW31685   6.072  11.351   0.894  0.5972  0.3375 -0.1033
42803SOL    HW131686   6.007  11.419   0.913  1.4175  0.6563  1.7223
42803SOL    HW231687   6.156  11.389   0.919  0.9858 -1.6423  1.9306
42804SOL     OW31688   1.554   2.095   1.111  0.2450 -0.2002  0.8875
42804SOL    HW131689   1.545   2.053   1.026  1.2817  0.4254  0.4608
42804SOL    HW231690   1.622   2.160   1.099  0.2532  0.0472  2.1467
42805SOL     OW31691   5.813   9.163   2.107  0.5766  0.2674 -0.0052
42805SOL    HW131692   5.747   9.223   2.140  0.4814  0.7034 -0.9567
42805SOL    HW231693   5.844   9.116   2.184 -0.4317  0.4639  0.5278
42806SOL     OW31694   1.980  10.263   2.013  0.2094 -0.5490  0.3674
42806SOL    HW131695   2.056  10.300   1.968 -0.3202 -0.6289 -0.6036
42806SOL    HW231696   1.972  10.314   2.093  1.7300 -1.0060  0.8456
42807SOL     OW31697   4.791   4.955   6.510  1.1259 -0.8594 -1.0863
42807SOL    HW131698   4.847   5.023   6.547 -1.3546  0.9488 -0.4386
42807SOL    HW231699   4.800   4.881   6.570 -0.2465  0.8361  1.3784
42808SOL     OW31700   5.442   2.341   6.863 -0.1695  0.8925 -0.0145
42808SOL    HW131701   5.391   2.409   6.819 -1.6294  1.0022  1.7522
42808SOL    HW231702   5.378   2.292   6.914  1.1883 -0.4143  0.5036
42809SOL     OW31703   4.922   2.300   7.540 -0.8046  0.4396 -0.4375
42809SOL    HW131704   4.877   2.370   7.493 -0.3840  0.7271 -0.4139
42809SOL    HW231705   4.912   2.321   7.632 -1.4001  0.0176 -0.4029
42810SOL     OW31706   9.641   9.764  10.568  0.1019  0.2575 -0.0548
42810SOL    HW131707   9.726   9.721  10.576  0.0796 -0.9785 -4.2049
42810SOL    HW231708   9.661   9.858  10.569  0.9698  0.1235  2.3429
42811SOL     OW31709   9.112   9.976   0.311  0.0195  0.0743 -0.7422
42811SOL    HW131710   9.146   9.930   0.235 -0.4509  1.7812 -2.0283
42811SOL    HW231711   9.031  10.018   0.281  0.9590  2.6104  0.0137
42812SOL     OW31712   7.617   9.465   7.198  0.8189 -0.9162  0.3914
42812SOL    HW131713   7.653   9.500   7.117  0.0110  0.4558  0.5973
42812SOL    HW231714   7.691   9.465   7.259  0.7973  0.7247  0.4631
42813SOL     OW31715   4.058   0.718   1.580  0.0086 -0.2256 -0.4607
42813SOL    HW131716   4.053   0.813   1.574  1.1097 -0.1253 -0.0564
42813SOL    HW231717   3.975   0.692   1.621 -0.2739  0.5582 -0.5150
42814SOL     OW31718  10.339  10.632   9.102  0.3016  1.0251 -0.0974
42814SOL    HW131719  10.416  10.608   9.051 -0.3439 -0.7718 -0.2832
42814SOL    HW231720  10.371  10.636   9.193  0.4542 -0.6512 -0.0503
42815SOL     OW31721   8.169   1.031   9.755 -0.3457  0.2518 -0.3337
42815SOL    HW131722   8.264   1.020   9.756 -0.4331 -1.0961 -2.0410
42815SOL    HW231723   8.150   1.074   9.672 -1.2518  0.2395 -0.1486
42816SOL     OW31724  11.103  10.516   5.832  0.8528  0.4407  0.0104
42816SOL    HW131725  11.106  10.517   5.736  1.3979  1.8947  0.0218
42816SOL    HW231726  11.126  10.605   5.858  0.1250  0.2279  1.4878
42817SOL     OW31727   5.542   9.241   9.964 -0.0907  0.5768  0.4322
42817SOL    HW131728   5.626   9.208   9.996 -0.0142  1.1977  0.8733
42817SOL    HW231729   5.503   9.286  10.039 -1.5946 -1.1402  0.7431
42818SOL     OW31730   5.912   9.199   6.255  0.1722 -0.3552  0.4483
42818SOL    HW131731   5.935   9.289   6.230  2.1668 -1.4191 -1.9692
42818SOL    HW231732   5.848   9.171   6.190  1.2674 -1.3680 -0.2474
42819SOL     OW31733   6.041   4.656   0.948  0.1063 -0.2752 -0.5427
42819SOL    HW131734   6.045   4.627   1.039  1.3238 -0.6745 -0.7021
42819SOL    HW231735   6.035   4.574   0.898  0.0338 -0.0845 -0.8443
42820SOL     OW31736   0.804  11.031   4.996  0.7098  0.2254 -0.0341
42820SOL    HW131737   0.810  11.026   4.900  1.3087  0.4536 -0.0185
42820SOL    HW231738   0.864  10.964   5.027 -0.0495 -0.3560  0.1888
42821SOL     OW31739   5.154   1.024  10.743 -0.5723  0.2184  0.5500
42821SOL    HW131740   5.239   0.979  10.739 -1.0010 -0.6733  1.1075
42821SOL    HW231741   5.149   1.073  10.661  0.0111 -0.5911  0.0150
42822SOL     OW31742   4.924   6.386   2.354 -0.1971  0.0976 -0.2420
42822SOL    HW131743   4.918   6.472   2.312 -3.0351  0.3880  0.5217
42822SOL    HW231744   4.861   6.391   2.426  0.5507 -2.2136  0.6683
42823SOL     OW31745   5.871   4.900   9.831  0.8454 -0.1662  0.2377
42823SOL    HW131746   5.782   4.932   9.844  0.8605 -0.4843  1.2201
42823SOL    HW231747   5.897   4.935   9.745  0.3002  1.1399  0.5761
42824SOL     OW31748   5.524   4.839   0.481 -0.1987  0.2857  0.2460
42824SOL    HW131749   5.452   4.885   0.524 -0.1697  0.7126 -0.1640
42824SOL    HW231750   5.482   4.786   0.413 -0.0842  0.8990 -0.3086
42825SOL     OW31751   3.682  10.202  11.079  0.0777  0.0423  0.0204
42825SOL    HW131752   3.760  10.236  11.035  0.2018 -0.4022 -0.1006
42825SOL    HW231753   3.715  10.134  11.138 -0.3078 -0.7069 -0.6187
42826SOL     OW31754   1.162   7.455   4.210  0.2712  0.0120  0.5484
42826SOL    HW131755   1.203   7.541   4.210 -2.0385  1.1908 -0.7440
42826SOL    HW231756   1.077   7.469   4.251 -0.0411 -1.7345  0.5754
42827SOL     OW31757   1.413   3.582   1.994  0.0037  0.1434  0.4501
42827SOL    HW131758   1.358   3.634   1.935  1.6317  0.5117 -0.8255
42827SOL    HW231759   1.491   3.561   1.942  2.0129  1.3713  2.7510
42828SOL     OW31760   0.257   3.664   0.410  0.4642 -0.2811  0.2452
42828SOL    HW131761   0.327   3.706   0.459 -0.0395 -0.8994  1.5537
42828SOL    HW231762   0.184   3.658   0.473 -1.0118  0.9510 -1.2692
42829SOL     OW31763   1.793  10.151  10.503  0.3247 -0.2794  0.4313
42829SOL    HW131764   1.725  10.126  10.440  1.0410  0.4801 -0.6818
42829SOL    HW231765   1.758  10.228  10.547  1.0343  1.0084 -1.1819
42830SOL     OW31766   8.908   3.495   7.513 -0.7555  0.5247  0.4827
42830SOL    HW131767   8.929   3.413   7.558 -2.9966 -0.1739  0.3497
42830SOL    HW231768   8.928   3.479   7.421 -3.1501 -0.6739  0.1062
42831SOL     OW31769   3.091   0.358   8.777 -0.3069 -0.5284  0.1463
42831SOL    HW131770   3.180   0.392   8.770 -0.6278  0.0075 -1.6572
42831SOL    HW231771   3.100   0.264   8.764  0.1751 -0.7616  1.8416
42832SOL     OW31772   2.891   9.893   4.709 -0.2807 -0.0244  0.5392
42832SOL    HW131773   2.822   9.935   4.761  0.1297  0.0363  1.0502
42832SOL    HW231774   2.856   9.889   4.620 -0.1996  1.7051  0.4069
42833SOL     OW31775   5.427   7.534   3.652 -0.0507 -0.4368  0.4734
42833SOL    HW131776   5.414   7.546   3.746  0.0842  2.7043  0.2068
42833SOL    HW231777   5.515   7.497   3.643  1.3316  2.3393  1.5727
42834SOL     OW31778   2.669   6.448   9.424 -0.7371 -0.5333  0.1037
42834SOL    HW131779   2.633   6.453   9.512 -0.8545  0.6212  0.0065
42834SOL    HW231780   2.710   6.533   9.410 -0.3151 -0.8688 -0.7873
42835SOL     OW31781   8.361   7.085   7.176  0.0818  0.7071 -0.3462
42835SOL    HW131782   8.399   7.045   7.098  0.7170 -1.3525  0.9473
42835SOL    HW231783   8.422   7.064   7.246 -1.4305  0.8338  1.0764
42836SOL     OW31784   8.003   6.579   7.659 -0.6295  0.2647 -0.1034
42836SOL    HW131785   7.980   6.512   7.594 -3.1743 -0.4939  1.4250
42836SOL    HW231786   8.081   6.545   7.703 -0.4344 -0.4704 -0.9950
42837SOL     OW31787  11.096   7.351  11.365 -0.2636  0.6026 -0.0374
42837SOL    HW131788  11.099   7.333  11.271 -2.1960  0.9872 -0.2151
42837SOL    HW231789  11.013   7.397  11.378  0.3930  1.3741  1.7291
42838SOL     OW31790   0.440   6.911  11.115 -0.0525 -0.0509 -0.1638
42838SOL    HW131791   0.373   6.940  11.177 -1.1390  0.3481 -1.4792
42838SOL    HW231792   0.452   6.985  11.056 -0.8705 -1.2239 -1.9169
42839SOL     OW31793   5.781   9.774   9.189 -0.0183  0.4631  0.4810
42839SOL    HW131794   5.825   9.781   9.273  2.9149 -0.2650 -0.8599
42839SOL    HW231795   5.815   9.848   9.138 -0.9977  0.3469 -0.3852
42840SOL     OW31796   7.881   5.082  11.252  0.2838  0.3422  0.0549
42840SOL    HW131797   7.795   5.052  11.283  0.0596  0.4422 -0.4568
42840SOL    HW231798   7.876   5.178  11.256 -0.4036  0.4349 -1.9564
42841SOL     OW31799   1.088   8.300   2.481 -0.2056 -0.6150  0.3587
42841SOL    HW131800   1.108   8.313   2.388 -2.0079 -0.5203 -0.0507
42841SOL    HW231801   1.172   8.314   2.526  0.7206 -0.7760 -1.2479
42842SOL     OW31802   7.332   0.279   9.194 -0.0031 -0.2488 -0.2940
42842SOL    HW131803   7.304   0.332   9.119 -0.0448 -0.7355 -0.6288
42842SOL    HW231804   7.287   0.196   9.182 -0.5985 -0.0909  0.6715
42843SOL     OW31805   5.805   9.930   1.694  0.1693  0.2197  0.0079
42843SOL    HW131806   5.856   9.849   1.702 -0.3825 -0.0871  0.4821
42843SOL    HW231807   5.768   9.926   1.605  1.1233  0.5411 -0.4124
42844SOL     OW31808   8.976   4.617   1.858  0.0447  0.2284  0.0055
42844SOL    HW131809   9.011   4.609   1.770  1.4612 -0.9708  0.6335
42844SOL    HW231810   9.041   4.575   1.914 -0.8986  0.8002  1.6143
42845SOL     OW31811   4.351   5.286   1.166 -0.0810  0.3687 -0.1301
42845SOL    HW131812   4.423   5.282   1.229 -1.4005  0.2781  1.4540
42845SOL    HW231813   4.374   5.358   1.107  0.2625  1.8576  1.7356
42846SOL     OW31814   8.504   2.063  11.285  0.4239  0.3437  0.1237
42846SOL    HW131815   8.492   2.128  11.216  1.1576  0.3820  0.0184
42846SOL    HW231816   8.510   2.113  11.366 -0.7009  0.2803  0.2584
42847SOL     OW31817   9.280   6.233   5.770  0.2659 -0.2519 -0.6774
42847SOL    HW131818   9.341   6.241   5.697 -1.0746  2.1109 -1.6731
42847SOL    HW231819   9.197   6.208   5.729  0.1186 -1.6854  0.4261
42848SOL     OW31820   3.358   2.507   2.722 -0.4214  0.0020 -0.1276
42848SOL    HW131821   3.383   2.467   2.639 -1.4742 -1.0802  0.0383
42848SOL    HW231822   3.263   2.493   2.728 -0.3433 -0.1069  1.3348
42849SOL     OW31823   7.696  10.296   9.672 -0.1173 -0.1013 -0.6396
42849SOL    HW131824   7.782  10.337   9.659 -0.0319 -0.8051 -2.5149
42849SOL    HW231825   7.668  10.269   9.585 -1.3581 -1.6696  0.1825
42850SOL     OW31826   2.073  11.156   4.345 -0.1180  0.3219 -0.8613
42850SOL    HW131827   2.106  11.180   4.258  0.2746  2.4217 -0.1803
42850SOL    HW231828   1.980  11.137   4.331  0.5034 -2.2764 -2.2004
42851SOL     OW31829  10.971   8.926   0.080 -0.9121  0.4992  0.7491
42851SOL    HW131830  11.019   8.918   0.163  1.0864  4.1158  0.1343
42851SOL    HW231831  11.001   8.852   0.028 -0.0107 -0.2269  2.2220
42852SOL     OW31832   1.939   1.329   8.091 -0.2478 -0.5399  0.0840
42852SOL    HW131833   1.989   1.251   8.071 -0.1041 -0.5567  0.4929
42852SOL    HW231834   1.868   1.298   8.148 -1.0788 -0.6165 -0.9637
42853SOL     OW31835   3.484  10.163  10.024 -0.1160  0.6192 -0.2295
42853SOL    HW131836   3.441  10.079  10.007 -1.9724  1.5989 -0.6856
42853SOL    HW231837   3.554  10.167   9.959  1.3543 -1.4245  1.1101
42854SOL     OW31838  10.775   1.635   1.858  0.3010  0.0736 -0.1229
42854SOL    HW131839  10.802   1.543   1.861 -0.5639 -0.1924 -0.3308
42854SOL    HW231840  10.686   1.636   1.892  0.3090  0.8440 -0.0984
42855SOL     OW31841   2.790  10.781   1.858 -0.2484  0.3156  0.5313
42855SOL    HW131842   2.883  10.772   1.882  0.4546  1.0340 -1.6474
42855SOL    HW231843   2.749  10.702   1.892  2.1929 -2.7289 -2.7834
42856SOL     OW31844   4.703   8.416  10.450  0.4797  0.0301  0.3125
42856SOL    HW131845   4.644   8.344  10.470  1.5693 -0.8571  0.3805
42856SOL    HW231846   4.667   8.455  10.370 -1.4779  0.9464  1.5569
42857SOL     OW31847   0.307   1.324   3.917  0.2624 -0.5302 -0.0379
42857SOL    HW131848   0.252   1.297   3.844 -0.4179  1.3708 -0.2781
42857SOL    HW231849   0.266   1.283   3.994 -0.9016  0.0256 -0.3392
42858SOL     OW31850   9.642  10.899   8.331  0.5256  0.4940 -0.0162
42858SOL    HW131851   9.634  10.920   8.424  0.2917  0.1928  0.0337
42858SOL    HW231852   9.718  10.841   8.326  0.1084 -0.0831  0.0945
42859SOL     OW31853   1.357  10.209   7.430  0.6515 -0.2780 -0.0027
42859SOL    HW131854   1.268  10.212   7.467  0.8819 -0.5357  0.5748
42859SOL    HW231855   1.396  10.130   7.467  0.0016 -2.0920 -2.8409
42860SOL     OW31856   4.026   9.632   6.607  0.2048 -0.6100 -0.0491
42860SOL    HW131857   4.079   9.657   6.683  0.3061 -0.5944 -0.1250
42860SOL    HW231858   4.085   9.642   6.532 -0.2695  0.5945 -0.2770
42861SOL     OW31859   8.854   0.096  10.978 -0.5462 -0.1795 -0.3822
42861SOL    HW131860   8.938   0.059  10.949 -0.0310 -0.2713  1.1638
42861SOL    HW231861   8.849   0.076  11.071 -1.8501  0.6900 -0.2342
42862SOL     OW31862   8.634  10.941   4.807 -0.6572 -0.0374  0.2452
42862SOL    HW131863   8.621  10.851   4.835 -0.6744 -0.1101  0.0020
42862SOL    HW231864   8.547  10.981   4.813 -0.7678 -0.2027 -0.2378
42863SOL     OW31865   7.754   3.043   3.525 -0.1628 -0.1025  0.2127
42863SOL    HW131866   7.725   2.952   3.523 -1.4070  0.2755 -1.2924
42863SOL    HW231867   7.790   3.059   3.437  0.7575  0.6335  0.7101
42864SOL     OW31868   7.995   2.798   4.559  0.8311  0.2894  0.3778
42864SOL    HW131869   8.027   2.783   4.470  0.2193  0.9935  0.0310
42864SOL    HW231870   8.061   2.757   4.615  1.5299  0.3479 -0.3804
42865SOL     OW31871   2.000   9.923   1.172 -0.0384 -0.5219  0.2885
42865SOL    HW131872   1.993  10.009   1.214 -0.4439 -0.8419  0.8950
42865SOL    HW231873   1.928   9.872   1.210  1.2579 -1.6861  1.2864
42866SOL     OW31874   7.152  11.073   6.627 -0.2522  0.0405  0.5852
42866SOL    HW131875   7.076  11.050   6.574  0.5097 -1.6119  0.1656
42866SOL    HW231876   7.216  11.004   6.610  2.0433  2.2486 -0.3933
42867SOL     OW31877   0.199   4.008   5.093 -0.4899  0.4210 -0.0281
42867SOL    HW131878   0.185   3.958   5.014  0.1753  1.7799 -1.0474
42867SOL    HW231879   0.187   3.945   5.164  1.3830 -1.4382 -1.2491
42868SOL     OW31880   6.527   3.023   7.140 -0.6385 -0.3720 -0.0906
42868SOL    HW131881   6.577   3.046   7.061 -0.9367 -2.9821 -1.1314
42868SOL    HW231882   6.543   3.096   7.200  2.8750 -0.1612 -1.0721
42869SOL     OW31883   2.982   7.812  10.060  0.2800  0.3919  0.0707
42869SOL    HW131884   3.041   7.745  10.096 -0.4677 -0.8225 -0.9105
42869SOL    HW231885   2.916   7.763  10.011  0.1879  1.8882 -1.4009
42870SOL     OW31886   3.997   7.068   0.474 -0.3269  0.6221 -0.0226
42870SOL    HW131887   3.998   7.018   0.555  2.9868 -2.4346 -1.6263
42870SOL    HW231888   3.945   7.015   0.413 -0.3832  1.3639 -0.6408
42871SOL     OW31889   4.873   6.281  11.170 -0.0664  0.1254  0.2986
42871SOL    HW131890   4.818   6.204  11.155  0.3732  0.1721 -1.8175
42871SOL    HW231891   4.939   6.252  11.233 -0.1819 -1.0815 -0.1234
42872SOL     OW31892   9.916   4.082   8.196 -0.0157 -0.0716 -0.7360
42872SOL    HW131893   9.977   4.056   8.265 -0.8197 -0.5778 -0.2002
42872SOL    HW231894   9.889   4.171   8.221 -3.4219 -1.6440  1.9673
42873SOL     OW31895   4.634   1.905   3.612 -0.2663 -0.5017 -0.0934
42873SOL    HW131896   4.711   1.938   3.656 -0.3189  0.9119 -1.0057
42873SOL    HW231897   4.647   1.810   3.608  1.5247 -0.2744 -0.4188
42874SOL     OW31898   7.751   6.578   3.375 -0.2319  0.0782 -0.3554
42874SOL    HW131899   7.735   6.664   3.337 -0.6840 -1.3766 -3.8185
42874SOL    HW231900   7.666   6.535   3.374  0.4687 -1.3730 -1.4644
42875SOL     OW31901   9.243  10.696   0.900 -0.2999  0.7010  0.4200
42875SOL    HW131902   9.220  10.784   0.868  0.0720  0.6158 -0.0866
42875SOL    HW231903   9.315  10.668   0.844 -0.3040  0.1363  0.6911
42876SOL     OW31904   0.206   6.367   2.979  0.5378 -0.1889 -0.4087
42876SOL    HW131905   0.201   6.448   2.929  0.4530 -0.3005 -0.5809
42876SOL    HW231906   0.298   6.341   2.972  1.1087  1.1034  1.5622
42877SOL     OW31907  10.329   2.602   7.671 -0.1822  0.4068  0.0411
42877SOL    HW131908  10.277   2.571   7.597  1.0625 -0.6882 -0.4193
42877SOL    HW231909  10.400   2.652   7.630 -1.2713  2.6305  0.6999
42878SOL     OW31910   0.281   7.407   9.651  0.4778  0.2350 -0.2108
42878SOL    HW131911   0.349   7.416   9.718  0.8609  0.9909 -0.6870
42878SOL    HW231912   0.253   7.316   9.656  1.9118 -0.2280 -0.3911
42879SOL     OW31913   1.962   6.267   9.330  0.2538 -0.5923  0.0480
42879SOL    HW131914   1.907   6.251   9.408  0.3508 -0.7921  0.0781
42879SOL    HW231915   2.038   6.210   9.343  0.2479 -0.6593 -0.2159
42880SOL     OW31916   4.276  10.279   8.637 -0.1984 -0.3168  0.7523
42880SOL    HW131917   4.184  10.298   8.657  0.1480 -0.1251  2.2596
42880SOL    HW231918   4.293  10.327   8.556 -1.4819 -0.5402  0.3143
42881SOL     OW31919  11.366   2.845   1.612  0.7138 -0.5642  0.0227
42881SOL    HW131920  11.302   2.813   1.548  1.3046 -1.7613  0.0082
42881SOL    HW231921  11.369   2.777   1.679  0.0809  0.6912  1.3667
42882SOL     OW31922  10.158  10.432  10.238  0.2916 -0.0701  0.3214
42882SOL    HW131923  10.144  10.517  10.281 -2.0909  0.0704 -0.5766
42882SOL    HW231924  10.236  10.445  10.185 -1.3584  2.4548 -1.7357
42883SOL     OW31925   4.511   1.236   8.658 -0.4224 -0.1414  0.1073
42883SOL    HW131926   4.457   1.158   8.655 -1.0238  0.2980 -1.0322
42883SOL    HW231927   4.482   1.283   8.736 -2.0365  0.3189 -0.7372
42884SOL     OW31928   8.703   8.894   9.916  0.2383  0.0066  0.0441
42884SOL    HW131929   8.697   8.810   9.960  3.1203  0.2306  1.0900
42884SOL    HW231930   8.769   8.881   9.848  2.8909  1.9993  2.0293
42885SOL     OW31931   0.414   6.142   4.761 -0.6718  0.0111  0.4782
42885SOL    HW131932   0.376   6.091   4.833 -1.6802  0.2078  0.1021
42885SOL    HW231933   0.507   6.150   4.784 -0.1602 -3.0268 -0.0374
42886SOL     OW31934   5.774   5.491   7.605  0.3109 -0.4420 -0.4370
42886SOL    HW131935   5.829   5.570   7.609 -0.8084  0.3625 -0.4887
42886SOL    HW231936   5.685   5.523   7.615 -0.1443 -1.7663 -0.0068
42887SOL     OW31937   2.613   0.790   3.909  0.0170 -0.3014  0.9568
42887SOL    HW131938   2.522   0.771   3.887  0.1785 -0.4237  0.3948
42887SOL    HW231939   2.610   0.878   3.947 -0.0853  0.5170 -0.8382
42888SOL     OW31940   2.195   5.061   6.720  0.1651  0.1638  0.0656
42888SOL    HW131941   2.243   4.979   6.733  1.4915  0.9144  0.0571
42888SOL    HW231942   2.190   5.099   6.808 -1.7178 -0.5811  0.3188
42889SOL     OW31943   3.004   8.197   2.152  0.2460  0.0773 -0.3891
42889SOL    HW131944   3.067   8.262   2.121  0.3992 -0.6412 -1.6845
42889SOL    HW231945   3.048   8.155   2.225 -0.1388  1.8573  0.9151
42890SOL     OW31946   2.144   1.058   6.322  0.1031  0.0303  0.0933
42890SOL    HW131947   2.091   0.991   6.279  0.2287  0.2463 -0.4076
42890SOL    HW231948   2.215   1.010   6.364 -0.0813 -0.1937  0.1473
42891SOL     OW31949   9.732   1.748   1.545 -0.4308 -0.6218  0.3853
42891SOL    HW131950   9.700   1.687   1.612 -1.4173 -1.8455 -1.1464
42891SOL    HW231951   9.683   1.828   1.561 -1.0971 -1.0928  0.7491
42892SOL     OW31952   9.484  10.782  10.263  0.1164 -0.1602 -0.0473
42892SOL    HW131953   9.555  10.756  10.322 -0.0089 -0.6448 -0.1075
42892SOL    HW231954   9.510  10.868  10.230  0.6760 -0.3399 -0.0772
42893SOL     OW31955  10.222   6.071   9.166  0.2232 -0.4186  0.3485
42893SOL    HW131956  10.241   6.060   9.260  0.7168 -0.2273  0.2764
42893SOL    HW231957  10.264   5.996   9.124 -0.1612 -0.6057  0.2994
42894SOL     OW31958   2.454   9.850  11.154  0.1933  0.0256  0.4239
42894SOL    HW131959   2.507   9.891  11.086 -1.4174  0.1307 -0.8218
42894SOL    HW231960   2.518   9.808  11.212  1.6626  0.9263 -0.4806
42895SOL     OW31961   6.411   2.673   7.578  0.0448  0.0974 -0.0526
42895SOL    HW131962   6.343   2.707   7.636 -0.8467 -0.4195 -0.7846
42895SOL    HW231963   6.477   2.638   7.637 -1.1349 -0.9762  0.6671
42896SOL     OW31964   0.332   3.223   6.801 -0.8688  0.4750  0.2322
42896SOL    HW131965   0.363   3.254   6.715 -1.9464 -0.7801 -0.6511
42896SOL    HW231966   0.307   3.132   6.785 -1.7840  0.4453  1.7185
42897SOL     OW31967   9.129   6.346   7.217  0.5715  0.3087 -0.1262
42897SOL    HW131968   9.121   6.433   7.178  0.2492 -0.4040 -1.7055
42897SOL    HW231969   9.046   6.333   7.263 -0.6084 -0.2415 -2.2538
42898SOL     OW31970   5.771   4.252   1.521 -0.0423 -0.0599 -0.4395
42898SOL    HW131971   5.809   4.314   1.584 -0.8025 -1.0241  1.0078
42898SOL    HW231972   5.677   4.260   1.534 -0.1948 -0.5757 -1.1925
42899SOL     OW31973   1.928   7.852   1.014 -0.4670  0.0368  0.0039
42899SOL    HW131974   1.934   7.875   0.921 -0.2354  2.1985  0.5145
42899SOL    HW231975   2.019   7.848   1.043 -0.5589 -0.0862  0.2733
42900SOL     OW31976   1.838   5.709   9.625  0.0481 -0.5967 -0.6987
42900SOL    HW131977   1.776   5.731   9.695 -0.7147 -3.2587 -0.4259
42900SOL    HW231978   1.815   5.768   9.553 -2.0323 -0.7108 -0.1934
42901SOL     OW31979  10.399   3.213   2.323 -0.4959 -0.1775 -0.4595
42901SOL    HW131980  10.441   3.143   2.373  1.7789  0.6701 -1.0457
42901SOL    HW231981  10.377   3.174   2.239 -0.4879 -0.5285 -0.2976
42902SOL     OW31982   2.090   5.640   8.849  0.4272 -0.1495  0.1666
42902SOL    HW131983   2.003   5.628   8.811 -0.2334  2.1433  0.7605
42902SOL    HW231984   2.072   5.675   8.937  1.9434 -0.4807  0.6254
42903SOL     OW31985   0.876   5.518   6.122  0.0405  0.2708 -0.3919
42903SOL    HW131986   0.962   5.555   6.103 -0.2687  0.6786 -1.0110
42903SOL    HW231987   0.883   5.486   6.212  1.5562 -1.7456 -1.1602
42904SOL     OW31988   1.446   1.221  10.039  0.0420  0.4801  0.7265
42904SOL    HW131989   1.435   1.126  10.039 -1.3502  0.5910 -0.7433
42904SOL    HW231990   1.539   1.235  10.020  0.0381 -0.5936 -0.1852
42905SOL     OW31991   0.598  10.452  10.990 -0.4162  0.2577 -0.2036
42905SOL    HW131992   0.546  10.522  10.951  1.0327  0.4536 -1.9314
42905SOL    HW231993   0.687  10.488  10.995  0.5378 -1.6084 -1.8368
42906SOL     OW31994   4.635   6.901   6.465  0.2669  0.1740 -0.5665
42906SOL    HW131995   4.579   6.967   6.505 -0.0403 -0.4572  0.0693
42906SOL    HW231996   4.643   6.833   6.532 -0.1058 -0.8268 -1.5130
42907SOL     OW31997   3.226   0.873  10.246 -0.1850 -0.9248 -0.3808
42907SOL    HW131998   3.177   0.807  10.296 -0.7995 -0.4234 -0.3167
42907SOL    HW231999   3.318   0.855  10.267 -0.4181 -0.9031  0.7169
42908SOL     OW32000  10.408   3.828   5.704  0.0331  0.4893 -0.1831
42908SOL    HW132001  10.376   3.816   5.615  0.1263  1.6014 -0.3798
42908SOL    HW232002  10.484   3.886   5.694  0.7800 -0.3497  0.4958
42909SOL     OW32003   7.294   2.218   4.851  0.4114  0.6518  0.4683
42909SOL    HW132004   7.348   2.139   4.853 -0.9094 -0.2703  1.1223
42909SOL    HW232005   7.251   2.220   4.936  1.8872  3.1851  1.2626
42910SOL     OW32006   1.426  11.386   2.361 -0.1482  0.3384 -0.1853
42910SOL    HW132007   1.490  11.456   2.357 -0.4400  0.6657  0.6602
42910SOL    HW232008   1.476  11.306   2.343  0.1213  0.7753 -1.4864
42911SOL     OW32009   8.141   7.664   1.007  0.0590 -0.5584 -0.4782
42911SOL    HW132010   8.143   7.607   1.084  1.1865 -0.6422 -0.5567
42911SOL    HW232011   8.120   7.750   1.042 -0.8830 -0.8697 -0.2617
42912SOL     OW32012   7.436   3.601   8.921 -0.1736 -0.3046  0.4724
42912SOL    HW132013   7.461   3.591   8.829 -0.5938 -0.7635  0.4015
42912SOL    HW232014   7.344   3.573   8.923 -0.0262 -0.7487  1.1152
42913SOL     OW32015   1.666   8.127   3.512  0.3880 -0.4992 -0.6817
42913SOL    HW132016   1.574   8.150   3.504  0.1682  0.1383  2.2836
42913SOL    HW232017   1.668   8.031   3.507 -0.5127 -0.5389 -0.4059
42914SOL     OW32018   8.243   5.672   5.870 -0.6157 -0.0904  0.3007
42914SOL    HW132019   8.301   5.621   5.814 -0.2580 -0.3740  0.9316
42914SOL    HW232020   8.263   5.644   5.959 -0.9045  0.6422  0.6083
42915SOL     OW32021   2.454   1.733   2.922  0.3337  0.3240 -0.4598
42915SOL    HW132022   2.415   1.796   2.982  0.3522  0.3123 -0.4356
42915SOL    HW232023   2.529   1.779   2.884 -0.1410  0.6179 -1.0736
42916SOL     OW32024   3.661   8.296   9.048  0.2018  0.1369  0.1966
42916SOL    HW132025   3.596   8.295   8.978 -0.4722  1.7659  0.7581
42916SOL    HW232026   3.613   8.265   9.125  0.4002  0.2489  0.3654
42917SOL     OW32027   8.242   1.966   7.436 -0.0219 -0.6399  0.3469
42917SOL    HW132028   8.158   1.997   7.468 -0.0297  0.4468 -0.6625
42917SOL    HW232029   8.288   2.045   7.406  1.1873 -1.2600  0.4919
42918SOL     OW32030   3.293  10.680   2.981 -0.9833 -0.0017 -0.4766
42918SOL    HW132031   3.370  10.731   2.958 -1.6106  0.0401 -2.7048
42918SOL    HW232032   3.308  10.654   3.072  1.9915 -0.6514 -1.0417
42919SOL     OW32033   6.512   5.860   2.570 -0.1085  0.3343  0.1634
42919SOL    HW132034   6.492   5.925   2.638 -0.4857 -0.9798  1.3652
42919SOL    HW232035   6.427   5.822   2.548  0.1152  0.1905 -0.4660
42920SOL     OW32036  10.393  11.120   3.384 -0.6701 -0.2612 -0.1106
42920SOL    HW132037  10.339  11.077   3.450  0.3886  0.7135  1.4512
42920SOL    HW232038  10.477  11.135   3.427 -0.2057  1.1619 -1.4055
42921SOL     OW32039  10.893   1.490  10.405 -0.2654  0.7346 -0.1595
42921SOL    HW132040  10.902   1.420  10.341 -1.7577 -0.0867  0.5032
42921SOL    HW232041  10.930   1.567  10.361  1.8172 -0.4992 -0.7289
42922SOL     OW32042   5.644   4.352   3.698  0.2828  0.5697 -0.7072
42922SOL    HW132043   5.645   4.415   3.770 -0.6196  1.1226 -1.1535
42922SOL    HW232044   5.728   4.364   3.655  1.3116 -0.5537  0.8858
42923SOL     OW32045   9.606   5.067   3.933 -0.8234 -0.3935 -0.4489
42923SOL    HW132046   9.557   5.099   3.857  0.1743 -0.0758 -0.9717
42923SOL    HW232047   9.669   5.005   3.897 -1.7008 -1.8357  0.3739
42924SOL     OW32048  10.568   9.303   1.590 -0.0522 -0.5252  0.3764
42924SOL    HW132049  10.601   9.389   1.566 -1.6760 -0.1482 -0.6714
42924SOL    HW232050  10.486   9.320   1.637 -0.6055 -1.4786 -0.1927
42925SOL     OW32051   7.527   8.990   0.164  0.0646 -0.1942  0.6168
42925SOL    HW132052   7.581   8.956   0.093 -2.2031 -0.5482 -1.0375
42925SOL    HW232053   7.588   9.044   0.216  2.7417 -3.1521  0.8396
42926SOL     OW32054  10.910   1.580   9.190 -0.2853 -0.0787 -0.0389
42926SOL    HW132055  10.828   1.562   9.235 -0.7658  0.5285 -0.6584
42926SOL    HW232056  10.967   1.507   9.215 -1.3586 -1.1057 -0.4705
42927SOL     OW32057   4.768   6.048  11.129 -0.0701  0.8053  0.0465
42927SOL    HW132058   4.820   5.978  11.089 -1.0921 -0.5581  1.0111
42927SOL    HW232059   4.793   6.046  11.221  1.0850  2.8542 -0.1559
42928SOL     OW32060   2.552   8.068   1.153 -0.3563  0.1554  0.1758
42928SOL    HW132061   2.568   8.064   1.059 -0.0745 -0.2888  0.2392
42928SOL    HW232062   2.596   7.991   1.188 -1.7125 -0.5166  0.4913
42929SOL     OW32063   9.635   0.354   9.968  0.3787  0.3765 -0.1867
42929SOL    HW132064   9.569   0.365  10.036  0.7742 -1.0051  0.4455
42929SOL    HW232065   9.596   0.396   9.891 -0.3363  1.4128  0.7009
42930SOL     OW32066   2.882   6.082   9.020 -0.0920  0.0720 -0.4467
42930SOL    HW132067   2.866   6.011   9.082 -1.0234  1.8634  1.4883
42930SOL    HW232068   2.904   6.157   9.075 -1.4314  1.8801 -2.2530
42931SOL     OW32069   2.023   9.895   0.896 -0.2078  0.0406 -0.1405
42931SOL    HW132070   1.985   9.818   0.855  0.8705 -0.3587 -0.4272
42931SOL    HW232071   2.019   9.878   0.990  0.8437 -0.7810 -0.2290
42932SOL     OW32072   0.275   6.917   2.659 -0.5135 -0.1044 -0.2783
42932SOL    HW132073   0.283   6.878   2.746 -1.3935 -1.1140 -0.6304
42932SOL    HW232074   0.300   7.009   2.671 -2.7848  0.3534  1.5219
42933SOL     OW32075   0.614   0.395   4.526  0.5217 -0.0905 -0.4973
42933SOL    HW132076   0.681   0.369   4.589  0.1676 -0.7311 -0.3794
42933SOL    HW232077   0.533   0.396   4.576 -0.3077 -3.5150 -1.4933
42934SOL     OW32078   7.102   8.725   3.312 -0.4842  0.6262 -0.1300
42934SOL    HW132079   7.028   8.682   3.354  0.0441 -1.8635 -1.5509
42934SOL    HW232080   7.083   8.720   3.218  2.1145 -1.5280 -0.6500
42935SOL     OW32081  10.236   9.464   7.859 -0.1927 -0.4220 -0.3169
42935SOL    HW132082  10.327   9.494   7.866 -0.2716 -0.3975  0.8528
42935SOL    HW232083  10.184   9.544   7.861 -0.2980 -0.5019  0.5307
42936SOL     OW32084   7.275   9.273   5.585 -0.2109 -0.2837 -0.8023
42936SOL    HW132085   7.278   9.180   5.561  1.1923  0.2366 -2.8660
42936SOL    HW232086   7.217   9.313   5.520 -1.6696  0.1886  0.6996
42937SOL     OW32087   6.109  10.579   6.689 -0.1289 -0.2722 -0.3253
42937SOL    HW132088   6.183  10.614   6.638  1.0469 -0.4189  1.1993
42937SOL    HW232089   6.148  10.509   6.742 -0.8698  1.0048  2.0601
42938SOL     OW32090   2.100   5.316   5.357 -0.2752 -0.5963 -0.0986
42938SOL    HW132091   2.131   5.273   5.437 -2.4019  0.5699  1.4783
42938SOL    HW232092   2.022   5.267   5.331 -0.3195 -0.2137 -0.7233
42939SOL     OW32093   3.315   2.139   5.550 -0.5941 -0.5464 -0.4230
42939SOL    HW132094   3.322   2.058   5.500  1.0910 -0.4184 -0.4396
42939SOL    HW232095   3.291   2.205   5.486  0.2052 -0.6364 -0.8239
42940SOL     OW32096   5.311   6.940   5.331 -0.0228  0.2783 -0.3047
42940SOL    HW132097   5.340   6.879   5.263 -0.0111  0.1994 -0.2302
42940SOL    HW232098   5.392   6.980   5.363 -0.0833  0.7512 -0.7453
42941SOL     OW32099   5.320   8.808   1.407  0.5334 -0.2732 -0.4934
42941SOL    HW132100   5.319   8.750   1.483  0.7098 -0.5880 -0.7309
42941SOL    HW232101   5.394   8.778   1.354  0.7993  0.3431 -0.4821
42942SOL     OW32102   3.713   6.670   7.825  0.6863 -0.4699  0.0075
42942SOL    HW132103   3.624   6.634   7.829 -0.1881  1.6622  2.2471
42942SOL    HW232104   3.701   6.759   7.792  2.0914 -0.3693 -0.2963
42943SOL     OW32105   1.633   7.282   7.724  0.0878 -0.0081 -0.2990
42943SOL    HW132106   1.717   7.317   7.693  0.2259  0.0911  0.1834
42943SOL    HW232107   1.576   7.284   7.646  0.9294 -1.3637 -0.9952
42944SOL     OW32108   6.542   5.281   4.271  0.1743  0.1339  0.3160
42944SOL    HW132109   6.530   5.230   4.191  1.5900 -1.1033  0.8485
42944SOL    HW232110   6.454   5.289   4.308  0.0713 -4.5796  1.7621
42945SOL     OW32111   8.616   9.953   7.098 -0.1604 -0.2285  1.0149
42945SOL    HW132112   8.678  10.009   7.052 -0.0135 -0.1111  1.3481
42945SOL    HW232113   8.635   9.967   7.191  0.7921 -1.8448  1.1091
42946SOL     OW32114  11.029   7.987   2.911  0.0397  0.0990  0.0342
42946SOL    HW132115  11.065   7.949   2.831  0.0943 -0.6357  0.3955
42946SOL    HW232116  10.938   7.959   2.912 -0.5814  1.9558 -0.8759
42947SOL     OW32117   0.855   6.043   5.336 -0.5249 -0.4775 -0.4421
42947SOL    HW132118   0.812   6.032   5.251 -1.3655 -0.2487 -0.0590
42947SOL    HW232119   0.813   6.120   5.374  0.5950  0.0507 -0.2626
42948SOL     OW32120  10.253   5.417   5.910 -0.6988  0.6510 -0.3159
42948SOL    HW132121  10.235   5.323   5.914  0.2503  0.4119 -1.0276
42948SOL    HW232122  10.245   5.439   5.817 -2.1522  1.5576  0.0010
42949SOL     OW32123   4.717   6.642  10.398  0.2765  0.1088 -0.5186
42949SOL    HW132124   4.744   6.550  10.398  2.4365  0.6503 -1.8531
42949SOL    HW232125   4.632   6.642  10.355 -0.3000 -1.3585  0.5408
42950SOL     OW32126   5.136   4.979   8.395  0.5383  0.3358 -0.2943
42950SOL    HW132127   5.079   4.940   8.461  0.3333  0.6610 -0.2784
42950SOL    HW232128   5.217   4.928   8.400  0.1882 -0.2572 -0.4500
42951SOL     OW32129   6.806  10.185  11.079 -0.3359 -0.2637 -0.6303
42951SOL    HW132130   6.756  10.172  11.160  1.6381 -1.0536  0.5256
42951SOL    HW232131   6.800  10.102  11.033  0.7714 -0.7396  0.0456
42952SOL     OW32132   3.127   8.325   5.954  0.3132  0.3486  0.5088
42952SOL    HW132133   3.036   8.347   5.935 -0.0796 -2.3472 -1.3875
42952SOL    HW232134   3.133   8.324   6.049 -1.6021  0.6867  0.6733
42953SOL     OW32135  10.185   0.793   0.210 -0.0782 -0.4037  0.2538
42953SOL    HW132136  10.250   0.840   0.157  0.4123 -2.4008 -1.0236
42953SOL    HW232137  10.102   0.836   0.191  0.3879  0.1134 -0.6582
42954SOL     OW32138   5.417  10.157   8.289  0.2026  0.5968 -0.5129
42954SOL    HW132139   5.343  10.099   8.271  1.6374 -1.7546  0.6274
42954SOL    HW232140   5.377  10.244   8.299 -2.5322 -0.6613  0.8257
42955SOL     OW32141   4.964   8.862   7.420 -1.0555 -0.0580 -0.5296
42955SOL    HW132142   4.997   8.929   7.360  1.1772 -1.1382 -0.6075
42955SOL    HW232143   4.887   8.826   7.377 -0.2096  0.0326 -2.1708
42956SOL     OW32144   4.666   9.998  10.010 -0.3052  0.1282 -0.2285
42956SOL    HW132145   4.618   9.979  10.091  1.7244 -1.0678  0.7866
42956SOL    HW232146   4.751  10.029  10.040  1.0250 -1.7383 -1.8646
42957SOL     OW32147   8.809   7.082   9.532 -1.0701  0.3580  0.1122
42957SOL    HW132148   8.775   7.171   9.529 -0.7944  0.4459 -0.3928
42957SOL    HW232149   8.777   7.040   9.452  0.6860  0.6976 -0.8253
42958SOL     OW32150   6.935   0.403   9.989  0.6631  0.4151 -0.1703
42958SOL    HW132151   6.913   0.493   9.966  0.8015  0.3631 -0.5112
42958SOL    HW232152   6.859   0.372  10.039 -0.0919  0.2161 -1.3925
42959SOL     OW32153   3.216   0.817   8.523  0.3729 -0.6933  0.0602
42959SOL    HW132154   3.120   0.814   8.524  0.1911  1.7924 -1.7318
42959SOL    HW232155   3.239   0.855   8.608 -0.4121  0.9129 -0.4077
42960SOL     OW32156   8.059   7.012   8.904 -0.2220 -0.5031  0.1508
42960SOL    HW132157   8.085   7.098   8.938  1.0918 -0.8634  0.1078
42960SOL    HW232158   8.090   6.950   8.970 -0.8959 -0.9807  0.0342
42961SOL     OW32159   8.080   3.725   4.741  0.3741 -0.5096  0.2459
42961SOL    HW132160   8.000   3.688   4.780 -1.0892  2.2273  0.0719
42961SOL    HW232161   8.134   3.749   4.816 -0.7215  1.1601  0.5446
42962SOL     OW32162   6.370   6.843   3.468  0.7036 -0.1421 -0.2046
42962SOL    HW132163   6.445   6.861   3.525 -0.0556  0.1487  0.7313
42962SOL    HW232164   6.358   6.924   3.418 -0.8043  1.0047  1.8085
42963SOL     OW32165   7.575   5.230   8.125 -0.2533 -0.5570 -0.3119
42963SOL    HW132166   7.542   5.225   8.215 -0.1181 -0.2086 -0.2408
42963SOL    HW232167   7.593   5.323   8.111 -1.6401 -0.3865 -1.1929
42964SOL     OW32168   5.257  10.392   1.435 -0.2554  0.3430  0.1253
42964SOL    HW132169   5.312  10.428   1.365 -3.0941 -0.5376 -2.7828
42964SOL    HW232170   5.278  10.298   1.437 -1.2979  0.0847 -0.6799
42965SOL     OW32171   8.280   4.304   3.688 -0.0085 -0.1111  0.1045
42965SOL    HW132172   8.220   4.233   3.665 -0.5680  0.8874 -1.7154
42965SOL    HW232173   8.365   4.262   3.695 -0.5952 -1.2354  0.8584
42966SOL     OW32174   4.416   8.966   8.806 -0.4373  0.0960  0.5777
42966SOL    HW132175   4.343   8.997   8.859  0.3570  0.3267  1.5708
42966SOL    HW232176   4.486   9.029   8.823 -0.0418 -0.0539 -0.4562
42967SOL     OW32177   8.959  10.723   0.711 -0.2379 -0.1970 -0.0575
42967SOL    HW132178   9.043  10.767   0.701 -0.0497 -0.8618 -1.8945
42967SOL    HW232179   8.911  10.776   0.774  3.0841 -2.1646  4.7246
42968SOL     OW32180   3.310   1.200   1.722  0.4339  0.1706 -0.1550
42968SOL    HW132181   3.253   1.277   1.731 -1.0228 -0.9198  0.4153
42968SOL    HW232182   3.390   1.234   1.682 -0.4606  1.8369 -0.6332
42969SOL     OW32183  11.244   4.201   1.654  0.4722  0.4259 -0.4096
42969SOL    HW132184  11.164   4.202   1.603 -0.2825 -0.1675  0.7129
42969SOL    HW232185  11.267   4.293   1.666 -1.3149  0.7280  1.1305
42970SOL     OW32186   1.591   9.844   3.343  0.0937 -0.1575  0.4443
42970SOL    HW132187   1.597   9.888   3.259 -1.2025  0.4424  0.6410
42970SOL    HW232188   1.516   9.885   3.387 -0.3055 -1.6128  1.2003
42971SOL     OW32189   0.642   1.295   4.054 -0.4747 -0.2717  0.0226
42971SOL    HW132190   0.590   1.375   4.040 -0.3508 -0.3466 -0.9579
42971SOL    HW232191   0.721   1.309   4.002  0.2302 -0.4129  1.0412
42972SOL     OW32192   8.821  10.541   2.493 -0.0468  0.1768 -0.2029
42972SOL    HW132193   8.826  10.500   2.579 -1.8991  1.6895  0.6936
42972SOL    HW232194   8.744  10.502   2.452  0.1373  0.3263 -0.7017
42973SOL     OW32195   4.699   1.815   5.871  0.1677 -0.1210  0.5775
42973SOL    HW132196   4.735   1.884   5.927 -0.0839  0.6737 -0.2157
42973SOL    HW232197   4.604   1.826   5.876  0.1018 -0.8362  0.9680
42974SOL     OW32198   9.612   8.469  10.928  0.1247 -0.1522  0.0968
42974SOL    HW132199   9.618   8.374  10.937 -0.7730 -0.1476  1.1139
42974SOL    HW232200   9.679   8.504  10.987 -0.0436 -0.1639  0.2986
42975SOL     OW32201   5.417   7.880   5.657  0.0534 -0.0093 -0.3829
42975SOL    HW132202   5.421   7.806   5.597 -0.9720  0.2554 -0.7960
42975SOL    HW232203   5.341   7.930   5.628  0.9248  1.3910 -0.3253
42976SOL     OW32204   9.575   1.459   0.387  0.2622  0.1457  0.1036
42976SOL    HW132205   9.533   1.388   0.435  0.8760 -0.0827  0.3055
42976SOL    HW232206   9.587   1.528   0.452 -1.6566  1.0407 -0.3989
42977SOL     OW32207   7.764  10.862   2.155 -0.5816 -0.2496  0.5135
42977SOL    HW132208   7.780  10.955   2.139 -2.6908  0.1262  0.3513
42977SOL    HW232209   7.804  10.817   2.080  1.9629  0.3312  1.4350
42978SOL     OW32210   9.251   9.415   1.801  0.0467  0.4484 -0.2595
42978SOL    HW132211   9.273   9.389   1.890  0.8963 -2.1928 -1.1337
42978SOL    HW232212   9.186   9.351   1.772  0.1985  0.8962 -1.7077
42979SOL     OW32213   1.638   1.558   3.847  0.3740 -0.3062  0.0090
42979SOL    HW132214   1.651   1.525   3.936 -0.0186  0.0650  0.2084
42979SOL    HW232215   1.544   1.549   3.831  0.6950 -2.1184 -1.0787
42980SOL     OW32216   0.778   6.825  10.881  0.0215 -0.2959 -0.4053
42980SOL    HW132217   0.758   6.795  10.970  0.6608  0.3022 -0.0484
42980SOL    HW232218   0.862   6.785  10.860 -0.9017 -1.7876 -1.4129
42981SOL     OW32219   6.417   8.548   6.900  0.0025 -0.7183  0.5222
42981SOL    HW132220   6.408   8.487   6.827  1.3359 -1.0669  0.6159
42981SOL    HW232221   6.400   8.634   6.863  0.3051 -0.9324 -0.1183
42982SOL     OW32222  10.351   8.634   5.367 -0.2595  0.3377  0.5116
42982SOL    HW132223  10.282   8.608   5.428  0.3877 -0.9686  0.7204
42982SOL    HW232224  10.338   8.728   5.355 -0.1538  0.7303  2.9709
42983SOL     OW32225   5.157   3.379   5.665  0.2537  0.2707 -0.0018
42983SOL    HW132226   5.231   3.362   5.724  0.5563 -0.7801 -0.6564
42983SOL    HW232227   5.167   3.471   5.641  0.6011  0.4887  0.9257
42984SOL     OW32228   2.671   2.795  10.877 -0.2002  0.2898  0.2571
42984SOL    HW132229   2.738   2.728  10.890  0.4679  0.9930  0.5356
42984SOL    HW232230   2.589   2.751  10.895  0.1418 -0.7454 -0.6796
42985SOL     OW32231   1.694   1.671   9.152 -1.0016  0.1258  0.7996
42985SOL    HW132232   1.630   1.658   9.082 -0.5268  0.2126  0.3389
42985SOL    HW232233   1.642   1.690   9.230 -1.6556 -2.0116  0.9568
42986SOL     OW32234   7.506   0.429   8.182 -0.0797  0.4093 -0.6617
42986SOL    HW132235   7.542   0.516   8.200 -2.2144  1.2502 -0.1480
42986SOL    HW232236   7.526   0.379   8.261 -2.1710  1.6519  0.7797
42987SOL     OW32237  11.383   1.340   8.215  0.0225  0.6308  0.0792
42987SOL    HW132238  11.457   1.387   8.254 -0.0733  0.6191  0.2780
42987SOL    HW232239  11.327   1.318   8.290  0.4875 -0.5499  0.1102
42988SOL     OW32240   5.193   5.305   0.097  0.1852 -0.1323  0.3663
42988SOL    HW132241   5.142   5.225   0.111  1.6582 -1.0533  0.6006
42988SOL    HW232242   5.189   5.351   0.181  0.1851 -0.4494  0.5415
42989SOL     OW32243   0.026   5.116   0.301 -0.5653 -0.0517  0.4006
42989SOL    HW132244  -0.046   5.175   0.323 -0.5373  0.1500 -0.0436
42989SOL    HW232245   0.088   5.126   0.373 -1.1872 -0.5807  1.0339
42990SOL     OW32246   9.035   4.887   9.318  0.5494 -0.4561 -0.0389
42990SOL    HW132247   9.077   4.949   9.378  1.9463  0.7708 -2.1407
42990SOL    HW232248   9.106   4.828   9.292  0.0855 -0.6934 -0.7896
42991SOL     OW32249  10.075   5.120   2.745  0.4704 -0.8202 -0.2811
42991SOL    HW132250  10.166   5.111   2.773 -0.0490 -0.0611  1.8077
42991SOL    HW232251  10.064   5.054   2.676  2.9612  0.0232 -1.6046
42992SOL     OW32252   6.028   7.827   4.735 -0.0801 -0.3606 -0.1988
42992SOL    HW132253   5.953   7.866   4.690 -1.1616 -1.8073  0.3108
42992SOL    HW232254   5.996   7.745   4.771  1.4939 -0.5497  0.8940
42993SOL     OW32255   0.029   6.561   3.392  0.7755  0.2575  0.1809
42993SOL    HW132256   0.037   6.657   3.398 -1.5468  0.6226 -1.3553
42993SOL    HW232257   0.006   6.534   3.481 -0.0795  1.3370  0.3091
42994SOL     OW32258   3.262   1.229   8.733  0.0313  0.3323  0.8748
42994SOL    HW132259   3.207   1.304   8.709 -0.3855  0.3387  1.8081
42994SOL    HW232260   3.344   1.267   8.764 -0.0503  0.3909  1.0196
42995SOL     OW32261  10.842   1.153   0.702  0.3349  0.0924 -0.3286
42995SOL    HW132262  10.804   1.067   0.719 -1.3649  0.7050 -0.7219
42995SOL    HW232263  10.918   1.159   0.759  0.6747 -1.7816 -0.5440
42996SOL     OW32264   8.507   1.429   5.225 -0.2569  0.5041 -0.3685
42996SOL    HW132265   8.544   1.348   5.260 -0.3163  1.2066  1.4121
42996SOL    HW232266   8.577   1.493   5.232  0.1340  0.4349 -2.7190
42997SOL     OW32267   4.869   2.622   8.372 -0.2007  0.1180  0.3107
42997SOL    HW132268   4.896   2.542   8.327 -0.4669 -0.2054  0.7185
42997SOL    HW232269   4.890   2.693   8.311 -2.0333 -0.4154 -1.0304
42998SOL     OW32270   5.914   3.161   5.590  0.6482  0.3494 -0.2062
42998SOL    HW132271   5.888   3.085   5.538  2.3137  0.5223 -1.3699
42998SOL    HW232272   5.975   3.125   5.655  1.1457  0.6284 -0.5165
42999SOL     OW32273   5.988   8.264   5.312 -0.2012  0.0935  0.1648
42999SOL    HW132274   6.075   8.226   5.316  0.2178  1.0761  0.9363
42999SOL    HW232275   5.989   8.321   5.234  0.2523  1.0028  0.8146
43000SOL     OW32276   0.632   1.213   7.664  0.1969  0.4046 -0.6667
43000SOL    HW132277   0.666   1.284   7.610  3.6316  0.5068  1.3144
43000SOL    HW232278   0.669   1.134   7.625  0.4420  0.2105 -0.0508
43001SOL     OW32279  10.850   1.896   6.562 -0.3106 -0.2519  0.6489
43001SOL    HW132280  10.776   1.843   6.591 -0.5551  0.8452  2.1915
43001SOL    HW232281  10.926   1.854   6.602 -0.2281 -0.7050  0.0286
43002SOL     OW32282   1.605   6.592  10.891 -0.1629 -0.0133 -0.1067
43002SOL    HW132283   1.571   6.678  10.915  0.1526  0.3093 -0.7571
43002SOL    HW232284   1.580   6.582  10.799  0.3215 -0.3487 -0.2055
43003SOL     OW32285   3.134  10.782   5.637  0.0701 -0.1455  0.0094
43003SOL    HW132286   3.095  10.694   5.639 -0.5528  0.1272  0.0712
43003SOL    HW232287   3.227  10.767   5.653  0.0250 -0.8289 -0.3098
43004SOL     OW32288   4.604  10.889   7.425  0.6452  0.3828 -0.0462
43004SOL    HW132289   4.681  10.931   7.387 -0.2390  0.6954 -1.5821
43004SOL    HW232290   4.568  10.955   7.484  0.5040  0.9653 -0.7643
43005SOL     OW32291   6.315   1.782  10.253 -0.8831  0.2505  0.3956
43005SOL    HW132292   6.304   1.808  10.344 -0.9860  2.4628 -0.1860
43005SOL    HW232293   6.264   1.847  10.203  1.0696  0.5474 -1.3672
43006SOL     OW32294   6.053   1.391   6.175  0.1609 -0.0773  0.1307
43006SOL    HW132295   6.013   1.465   6.222  0.8293  0.5538 -0.2814
43006SOL    HW232296   6.121   1.360   6.235 -0.4638 -0.7029  0.5290
43007SOL     OW32297   4.528  10.817  11.130 -0.0938  0.1887  0.2027
43007SOL    HW132298   4.554  10.886  11.190  0.5239  1.0694 -1.0384
43007SOL    HW232299   4.610  10.773  11.107 -0.1706  0.5358 -0.7904
43008SOL     OW32300   3.869   3.470   6.081 -0.2014  0.1972  0.3816
43008SOL    HW132301   3.937   3.481   6.015  1.6624 -2.3181  1.7291
43008SOL    HW232302   3.909   3.502   6.162 -1.1693  0.0411  0.9349
43009SOL     OW32303  10.133   2.431   0.428  0.1625  0.5599 -0.0076
43009SOL    HW132304  10.192   2.470   0.364  1.9513 -0.2802  1.0576
43009SOL    HW232305  10.188   2.372   0.480 -1.2865  0.8309  1.9827
43010SOL     OW32306   2.228   0.817   2.732  0.5732  0.4364  0.0820
43010SOL    HW132307   2.159   0.805   2.797  0.4512 -3.1886 -0.4848
43010SOL    HW232308   2.182   0.838   2.651  0.1417 -1.0104 -0.0785
43011SOL     OW32309  11.234  10.081   5.574 -0.0341 -0.0679 -0.0340
43011SOL    HW132310  11.156  10.035   5.606 -0.1759 -1.2392 -1.9560
43011SOL    HW232311  11.301  10.064   5.640 -0.3186 -2.3952 -0.2652
43012SOL     OW32312   1.274   1.467   8.928 -0.5844 -0.3912  0.0166
43012SOL    HW132313   1.182   1.453   8.951 -0.3529 -1.3245  0.4384
43012SOL    HW232314   1.322   1.448   9.009 -0.0238  0.1295 -0.1887
43013SOL     OW32315   8.976   6.512   2.708  0.1809 -0.0828  0.0828
43013SOL    HW132316   8.945   6.528   2.619 -2.1517 -0.9048  0.6686
43013SOL    HW232317   9.001   6.419   2.708 -1.1192 -0.4574  0.5820
43014SOL     OW32318   2.320   9.176  11.243 -0.3858 -0.5290  0.2059
43014SOL    HW132319   2.356   9.088  11.242  0.1256 -0.3435 -1.4115
43014SOL    HW232320   2.225   9.163  11.245 -0.2976 -1.0705  1.3698
43015SOL     OW32321   1.177   4.985   7.907  0.0154  0.1625 -0.4259
43015SOL    HW132322   1.271   5.005   7.907  0.4775 -1.8091 -0.1227
43015SOL    HW232323   1.155   4.971   7.815  0.1217  0.2298 -0.4614
43016SOL     OW32324   2.302   4.944   8.771  0.1666 -0.1476 -0.1702
43016SOL    HW132325   2.230   4.898   8.814  0.5708 -0.8268 -0.1909
43016SOL    HW232326   2.329   5.010   8.834 -1.6675  1.3786 -0.9132
43017SOL     OW32327   2.336   8.554  11.399 -0.1794  0.1187  0.7485
43017SOL    HW132328   2.387   8.594  11.469 -1.2343 -1.5993  2.5979
43017SOL    HW232329   2.338   8.460  11.418 -0.5372 -0.4299 -1.5384
43018SOL     OW32330   7.871   3.423   4.343 -0.5891 -0.0204  0.0247
43018SOL    HW132331   7.787   3.387   4.372 -0.9255  0.8206  0.0986
43018SOL    HW232332   7.915   3.452   4.423 -0.2726 -0.3509 -0.0253
43019SOL     OW32333  10.570   1.471   4.034  0.2140 -0.2940 -0.5516
43019SOL    HW132334  10.553   1.467   3.940 -1.6385 -1.6455 -0.2226
43019SOL    HW232335  10.483   1.469   4.074  0.9354  0.8710  1.1988
43020SOL     OW32336  10.612   9.955   1.492  0.2849  0.0419  0.1928
43020SOL    HW132337  10.639   9.903   1.417  0.2292 -3.9042  2.6233
43020SOL    HW232338  10.520   9.933   1.506  0.2206  0.8910  1.2666
43021SOL     OW32339   6.788   6.892   9.608 -0.2523 -0.8557 -0.4154
43021SOL    HW132340   6.747   6.888   9.522 -0.5627  0.5828 -0.3586
43021SOL    HW232341   6.846   6.968   9.603  0.5508 -1.4099  0.3007
43022SOL     OW32342   5.687   8.546   3.313 -0.0078  0.2889 -0.5611
43022SOL    HW132343   5.621   8.591   3.261 -1.4463 -2.2974 -1.1656
43022SOL    HW232344   5.756   8.523   3.250 -0.2829 -0.1466 -0.7111
43023SOL     OW32345   2.699   6.346   5.546 -0.3648 -0.0117  0.5435
43023SOL    HW132346   2.609   6.378   5.558 -0.0444  0.1501  2.9625
43023SOL    HW232347   2.688   6.253   5.527 -1.0981  0.4960 -1.9306
43024SOL     OW32348   9.193   3.578   0.008 -1.0831 -0.2108  0.2087
43024SOL    HW132349   9.288   3.591   0.009 -1.0922 -0.1109 -0.0650
43024SOL    HW232350   9.163   3.623  -0.071 -1.5371  0.9922  1.0459
43025SOL     OW32351   3.873   2.021   7.657  0.1096 -0.3939  0.0598
43025SOL    HW132352   3.831   2.015   7.743  1.3551  0.3693  0.7592
43025SOL    HW232353   3.936   2.093   7.667  0.2366 -0.2597 -1.5150
43026SOL     OW32354   3.632   8.852   5.088 -0.4060  0.2610 -0.1339
43026SOL    HW132355   3.594   8.935   5.115 -1.1107  0.3687 -1.3751
43026SOL    HW232356   3.709   8.877   5.037  0.3395  0.0864  0.8658
43027SOL     OW32357   7.596   7.251   8.175  0.3036 -0.5896  0.3625
43027SOL    HW132358   7.577   7.328   8.122  0.9238  0.5372  1.7112
43027SOL    HW232359   7.529   7.187   8.149  0.3598  0.0346 -1.4717
43028SOL     OW32360  10.495  10.740   4.934  0.4360 -0.3326 -0.6238
43028SOL    HW132361  10.497  10.792   4.853 -0.9086  0.1136 -0.4012
43028SOL    HW232362  10.501  10.804   5.004 -0.2376 -0.5432 -0.3590
43029SOL     OW32363   5.631   4.995   1.063 -0.4067 -0.0839  0.4616
43029SOL    HW132364   5.670   4.915   1.027 -1.4394 -0.8780  1.0584
43029SOL    HW232365   5.541   4.995   1.031 -0.7751  0.1865  1.4599
43030SOL     OW32366   3.226   1.149   6.439  0.1641 -0.0138 -0.3314
43030SOL    HW132367   3.300   1.092   6.462 -0.2562  0.6591  3.3679
43030SOL    HW232368   3.227   1.217   6.506 -2.7637  1.0667 -1.2365
43031SOL     OW32369   4.330   3.771   5.634 -0.3159  0.0827  0.4196
43031SOL    HW132370   4.241   3.772   5.600  0.5414  0.5147 -2.0312
43031SOL    HW232371   4.342   3.683   5.670 -1.2163 -0.5138 -0.7043
43032SOL     OW32372   8.473   7.775   9.973 -0.3737  0.5608 -0.3879
43032SOL    HW132373   8.568   7.769   9.973 -0.3697  0.2644 -1.7410
43032SOL    HW232374   8.449   7.782  10.065  0.9539  0.6630 -0.0363
43033SOL     OW32375  11.365   5.814   7.566  0.0015 -0.6459 -0.2964
43033SOL    HW132376  11.272   5.825   7.585  0.2473 -0.6765  1.0684
43033SOL    HW232377  11.385   5.725   7.595  0.9731  0.2035  1.9003
43034SOL     OW32378   3.700   7.871   9.025  0.4010 -0.4207  0.1185
43034SOL    HW132379   3.757   7.822   8.966 -0.3211  0.3743 -1.2983
43034SOL    HW232380   3.751   7.881   9.105  0.8473 -2.8169  0.2192
43035SOL     OW32381  10.021   9.544   0.256 -0.3226  0.2787 -0.3683
43035SOL    HW132382  10.003   9.603   0.330 -0.6402  0.7466 -0.8131
43035SOL    HW232383  10.106   9.506   0.276  0.1549  1.3262 -0.3509
43036SOL     OW32384  10.932   3.138   1.196 -0.3974  0.1057 -0.3645
43036SOL    HW132385  10.875   3.074   1.238 -1.2593  0.2192 -1.3082
43036SOL    HW232386  10.872   3.194   1.147  0.4693  0.7149 -0.7438
43037SOL     OW32387   4.903   5.538   0.241 -0.1149 -0.4396  0.4222
43037SOL    HW132388   4.910   5.598   0.166 -2.6014  1.1914  1.3798
43037SOL    HW232389   4.991   5.501   0.250  0.6590  0.4442 -2.3248
43038SOL     OW32390   7.722   8.591   5.997 -0.3852  0.0012 -0.4423
43038SOL    HW132391   7.633   8.625   6.003 -0.2150  0.4602 -0.5282
43038SOL    HW232392   7.764   8.619   6.078 -1.2218 -2.9062  1.1668
43039SOL     OW32393   6.179   0.625  11.086  0.2780 -0.6809 -0.1389
43039SOL    HW132394   6.234   0.602  11.011  0.8541  0.3711 -0.0486
43039SOL    HW232395   6.221   0.701  11.125 -0.6149 -0.5553  0.6174
43040SOL     OW32396  10.781  11.032   5.393  0.2483 -0.0222 -0.0714
43040SOL    HW132397  10.804  11.027   5.300  1.2816 -0.9585  0.2080
43040SOL    HW232398  10.739  10.948   5.411  0.8546 -0.2176  0.4870
43041SOL     OW32399   9.516   8.895   0.065  0.8255 -0.2016  0.3533
43041SOL    HW132400   9.496   8.880   0.157  1.2300  0.5616  0.5726
43041SOL    HW232401   9.509   8.808   0.024  1.8995 -0.7887  1.3439
43042SOL     OW32402   5.301  11.391   9.415  0.3537  0.2650  0.0415
43042SOL    HW132403   5.293  11.430   9.328  0.4809 -0.0574 -0.1167
43042SOL    HW232404   5.393  11.364   9.420  1.0139  2.4729  1.2147
43043SOL     OW32405  10.575   1.227   5.882 -0.0693 -0.4163 -0.0665
43043SOL    HW132406  10.576   1.203   5.974  0.1227 -2.7838 -0.6156
43043SOL    HW232407  10.531   1.154   5.838 -1.6752  1.4085 -1.6860
43044SOL     OW32408   1.166   4.945   4.425 -0.0947 -0.3414 -0.1610
43044SOL    HW132409   1.242   4.943   4.483 -0.1781 -1.3414 -0.0843
43044SOL    HW232410   1.128   4.858   4.431 -1.9105  0.4600  0.6639
43045SOL     OW32411   9.790   2.451  10.768  0.0746 -0.0353 -0.1598
43045SOL    HW132412   9.883   2.435  10.748 -0.3702  0.0665 -2.6786
43045SOL    HW232413   9.778   2.414  10.855  2.3154 -0.6994 -0.0546
43046SOL     OW32414   2.026   5.381   2.903  0.5256 -0.1609  0.1170
43046SOL    HW132415   2.072   5.297   2.901  0.8211 -0.0602  1.5439
43046SOL    HW232416   2.017   5.401   2.997  1.0146  1.6996 -0.1986
43047SOL     OW32417  10.375   0.298   4.922  0.3097 -0.0296  0.6516
43047SOL    HW132418  10.468   0.310   4.936  0.3700 -0.4392  0.6351
43047SOL    HW232419  10.338   0.287   5.010  0.1452  0.9775  0.7203
43048SOL     OW32420   9.621   2.613   5.564 -0.0353 -0.4236 -0.3144
43048SOL    HW132421   9.632   2.708   5.560  1.0386 -0.5893 -1.6751
43048SOL    HW232422   9.558   2.593   5.495  0.0854 -0.7526 -0.3304
43049SOL     OW32423   6.890   5.818   9.904 -0.5972  0.1566  0.3221
43049SOL    HW132424   6.927   5.854   9.824  1.1927 -0.0118  1.0270
43049SOL    HW232425   6.839   5.890   9.942 -0.5496  0.5744 -0.3968
43050SOL     OW32426  10.427   4.596   5.975 -0.7242  0.1480  0.0668
43050SOL    HW132427  10.478   4.670   5.940 -0.2085  0.1469  0.8003
43050SOL    HW232428  10.336   4.622   5.962 -0.5919  1.7157  1.8944
43051SOL     OW32429   3.425  10.044   4.357  0.0804  0.4888 -0.2050
43051SOL    HW132430   3.335  10.042   4.389  0.4620  2.0783  1.0551
43051SOL    HW232431   3.473  10.093   4.423  1.9342 -0.5058 -0.7522
43052SOL     OW32432   6.480   5.336  10.843  0.3178  0.0556  0.4370
43052SOL    HW132433   6.431   5.390  10.906  0.0866  0.4252 -0.0537
43052SOL    HW232434   6.425   5.258  10.830 -0.3728  0.6746 -0.4543
43053SOL     OW32435   1.951   0.961   3.341 -0.6572 -0.2916  0.8494
43053SOL    HW132436   1.877   0.948   3.282 -0.1873  0.1538  0.1452
43053SOL    HW232437   1.911   0.977   3.427 -1.5154  2.3066  0.0766
43054SOL     OW32438   7.733   0.127   0.148  0.2885 -0.3286 -0.0250
43054SOL    HW132439   7.708   0.051   0.200 -0.3662 -1.2873 -1.6711
43054SOL    HW232440   7.738   0.094   0.058  1.7455  1.1851 -0.5351
43055SOL     OW32441   7.782   5.640   9.024  0.7350  0.0287 -0.4056
43055SOL    HW132442   7.730   5.561   9.013 -1.6494  1.6771 -2.0502
43055SOL    HW232443   7.733   5.692   9.088  1.2063  0.9513 -0.7702
43056SOL     OW32444   6.326   1.315  11.139 -0.7031  0.0046  0.2647
43056SOL    HW132445   6.369   1.269  11.067 -0.8887 -1.5603  1.0883
43056SOL    HW232446   6.272   1.382  11.097 -1.6304 -1.5462 -1.1665
43057SOL     OW32447   4.842   2.889   5.856 -0.1779  0.9240 -0.0394
43057SOL    HW132448   4.801   2.814   5.813  1.0339  0.5300 -0.5602
43057SOL    HW232449   4.912   2.916   5.796  0.7968  1.1011  1.1322
43058SOL     OW32450   4.723   7.532   8.086 -0.0522 -0.2825 -0.0843
43058SOL    HW132451   4.768   7.616   8.083  1.8403 -1.1100  2.0385
43058SOL    HW232452   4.631   7.553   8.074  0.4788  1.9539 -0.6108
43059SOL     OW32453   4.811   2.368   6.240 -0.3947 -0.4484  0.3378
43059SOL    HW132454   4.883   2.323   6.284 -1.4863 -0.5773  2.0854
43059SOL    HW232455   4.853   2.437   6.189  0.9694 -0.5432  1.2848
43060SOL     OW32456   4.658  10.560   7.970 -0.4922 -0.0490 -0.2428
43060SOL    HW132457   4.604  10.584   8.045 -0.1034 -0.5798  0.2153
43060SOL    HW232458   4.595  10.544   7.900 -0.8886  0.0311  0.0895
43061SOL     OW32459   2.413   8.626   4.078  0.2793  0.0166 -0.1832
43061SOL    HW132460   2.451   8.621   4.166  0.2530 -1.7595 -0.2325
43061SOL    HW232461   2.324   8.660   4.092  0.3729  0.0137  0.4484
43062SOL     OW32462   5.751   6.032   7.545  0.1429 -0.1831 -0.7014
43062SOL    HW132463   5.813   6.104   7.551 -0.2382  0.1016 -0.1819
43062SOL    HW232464   5.740   6.017   7.451  1.0024 -0.2451 -0.7984
43063SOL     OW32465   0.744   7.039   0.548  0.1778 -0.7039  0.2102
43063SOL    HW132466   0.804   6.975   0.587  1.3220  0.6972  0.8029
43063SOL    HW232467   0.800   7.093   0.493 -0.7402 -0.0550 -0.0977
43064SOL     OW32468   9.995   3.311   0.003 -0.2770  0.5329  0.3044
43064SOL    HW132469   9.918   3.258  -0.015 -0.3997  0.4480  1.0424
43064SOL    HW232470  10.068   3.258  -0.029 -0.4660  0.2997  0.2521
43065SOL     OW32471   7.605   6.540   5.909  0.1911 -0.6513  0.5616
43065SOL    HW132472   7.695   6.509   5.899 -0.5115 -2.4953 -0.6249
43065SOL    HW232473   7.575   6.501   5.991  0.5334  0.2290  1.1270
43066SOL     OW32474   1.960   1.597   8.033  0.7694  0.1625 -0.1698
43066SOL    HW132475   1.963   1.508   8.067  2.1899  0.5267  0.7541
43066SOL    HW232476   2.047   1.611   7.994  0.3698  0.9488 -0.8117
43067SOL     OW32477   4.862   5.701   9.661 -0.1998 -0.5190  0.1112
43067SOL    HW132478   4.874   5.693   9.567 -0.7523  0.4291 -0.0490
43067SOL    HW232479   4.841   5.612   9.690  0.6102 -0.9394 -0.5517
43068SOL     OW32480   6.986   8.390   6.483 -0.1517  0.2064  0.3161
43068SOL    HW132481   6.922   8.457   6.461  0.7498  1.4913  1.4190
43068SOL    HW232482   6.985   8.386   6.579 -0.9230 -2.1361  0.2635
43069SOL     OW32483   3.966   2.828   0.597 -0.1102  0.3091  0.0773
43069SOL    HW132484   3.884   2.851   0.554 -0.1768 -1.0155 -0.5512
43069SOL    HW232485   3.941   2.762   0.662  0.5259 -0.5345 -0.5182
43070SOL     OW32486   7.143   2.586  10.682  0.1037 -0.1173 -0.0630
43070SOL    HW132487   7.196   2.613  10.607 -0.5094  1.5533  0.0603
43070SOL    HW232488   7.117   2.668  10.724 -0.9242 -0.9627  1.0348
43071SOL     OW32489   3.635   8.280   1.432  0.6175  0.2527 -0.2321
43071SOL    HW132490   3.653   8.226   1.355 -0.2135 -1.0904  0.4759
43071SOL    HW232491   3.674   8.365   1.411  0.6208 -0.1432 -2.0287
43072SOL     OW32492   3.806   6.763  11.142 -0.4795 -0.6475  0.0372
43072SOL    HW132493   3.870   6.828  11.172 -1.5183  0.1544  0.5552
43072SOL    HW232494   3.858   6.684  11.128  0.5790 -0.1069  0.7636
43073SOL     OW32495   5.262   6.089   7.826  0.0654 -0.1367  0.4260
43073SOL    HW132496   5.291   6.146   7.897  0.0985  3.2020 -2.0344
43073SOL    HW232497   5.337   6.082   7.768 -0.5124 -1.2265 -0.2216
43074SOL     OW32498   7.248  10.551   0.105 -0.1145  0.6754  0.0955
43074SOL    HW132499   7.332  10.583   0.071 -0.5455  1.3639 -0.3567
43074SOL    HW232500   7.185  10.572   0.036 -0.4098 -1.3284 -0.2920
43075SOL     OW32501   3.461   7.750   7.994  0.5061 -0.2250  0.5512
43075SOL    HW132502   3.550   7.785   7.979 -0.4675  2.1664 -0.1837
43075SOL    HW232503   3.448   7.761   8.088  0.1394  1.8415  0.3178
43076SOL     OW32504   7.381   8.366   7.973 -0.5646 -0.5753  0.2787
43076SOL    HW132505   7.334   8.292   8.011 -0.8376 -0.1501  0.7905
43076SOL    HW232506   7.312   8.419   7.931 -0.3439 -0.7176 -0.2784
43077SOL     OW32507   6.937   9.744  10.869  0.2087  0.1249 -0.5770
43077SOL    HW132508   6.992   9.765  10.945 -2.0984  0.1454  1.1903
43077SOL    HW232509   6.895   9.826  10.846 -1.7989 -0.5557  0.4474
43078SOL     OW32510   2.527   1.122   0.351 -0.3911  0.5463  0.2474
43078SOL    HW132511   2.604   1.107   0.406 -0.9938  1.2117  1.3096
43078SOL    HW232512   2.453   1.100   0.408 -0.9967  0.2796 -0.6334
43079SOL     OW32513   1.512   7.509   2.174  0.3291  0.4245 -0.2356
43079SOL    HW132514   1.603   7.479   2.176  1.8772  4.4068  1.0490
43079SOL    HW232515   1.495   7.528   2.082  1.5713  1.4287 -0.2857
43080SOL     OW32516   7.838   6.359   4.446  0.4433 -0.4656 -0.9652
43080SOL    HW132517   7.875   6.298   4.382  1.2296 -1.3000  0.2580
43080SOL    HW232518   7.894   6.352   4.522 -0.7548  0.1575  0.0205
43081SOL     OW32519   8.467   4.792   2.624 -0.0161 -0.1257  0.2684
43081SOL    HW132520   8.514   4.818   2.545  0.8814 -0.2521  0.7434
43081SOL    HW232521   8.383   4.838   2.618 -0.2777 -0.7332 -1.1191
43082SOL     OW32522   9.014   7.114   5.760 -0.2203  0.0762 -0.2108
43082SOL    HW132523   8.997   7.081   5.672  2.0242  1.0897 -1.0867
43082SOL    HW232524   8.994   7.208   5.755  0.6249  0.2835  0.1378
43083SOL     OW32525  10.058   5.650   3.854  0.6597 -0.1048 -0.1489
43083SOL    HW132526  10.107   5.569   3.841  1.9216  0.7730 -1.0971
43083SOL    HW232527   9.966   5.622   3.859  1.1472 -1.6765  0.6167
43084SOL     OW32528   8.709   8.358   8.858  0.2093  0.0912 -0.2336
43084SOL    HW132529   8.711   8.294   8.788 -1.0237  0.7531 -0.9037
43084SOL    HW232530   8.647   8.323   8.922 -0.1946  0.4358 -0.4323
43085SOL     OW32531   0.646   2.401   3.575  0.4077  0.3984 -0.3705
43085SOL    HW132532   0.685   2.468   3.631 -2.6485  2.5410 -0.5792
43085SOL    HW232533   0.591   2.350   3.634  0.4501 -0.0701 -0.7261
43086SOL     OW32534   9.869  10.714   6.190  0.4613  0.5576  0.5178
43086SOL    HW132535   9.774  10.721   6.188  0.3185 -1.0149  0.4476
43086SOL    HW232536   9.888  10.668   6.272  1.1285  0.4890  0.3300
43087SOL     OW32537   3.950   8.885   5.155  0.1958  0.4098  0.0249
43087SOL    HW132538   4.045   8.872   5.148  0.4209  0.8297  1.8277
43087SOL    HW232539   3.925   8.920   5.069  1.6087 -0.0148 -0.6023
43088SOL     OW32540  10.374  11.393   5.406  0.5436  0.4737  0.2491
43088SOL    HW132541  10.291  11.367   5.444  0.9112  0.7719  1.2936
43088SOL    HW232542  10.423  11.312   5.395 -0.3411  0.1328 -1.5855
43089SOL     OW32543   8.047  10.245   4.941  0.5220  0.1003  0.9866
43089SOL    HW132544   8.066  10.151   4.941  2.6209  0.3781 -1.7791
43089SOL    HW232545   8.127  10.285   4.976  0.2606  0.8822  0.7132
43090SOL     OW32546   8.076   0.336   0.285 -0.3527  0.4017  0.2145
43090SOL    HW132547   8.169   0.358   0.275  0.6904 -1.8207  3.4630
43090SOL    HW232548   8.062   0.331   0.379 -3.1028 -1.8906 -0.1670
43091SOL     OW32549   1.278   5.389  10.751 -0.1259  0.0394 -0.2286
43091SOL    HW132550   1.203   5.333  10.772  0.4804 -0.5324  0.4633
43091SOL    HW232551   1.347   5.359  10.809  0.0152  1.9923  0.6623
43092SOL     OW32552   4.783   3.162   2.477 -0.3295  0.0738  0.1634
43092SOL    HW132553   4.817   3.237   2.427 -1.9615  2.6126  2.5495
43092SOL    HW232554   4.696   3.146   2.440 -0.1303 -0.4242 -0.0974
43093SOL     OW32555   7.465   5.225   0.544 -0.3646 -0.4628  0.1108
43093SOL    HW132556   7.386   5.172   0.534 -0.3049 -0.3544 -1.1045
43093SOL    HW232557   7.493   5.210   0.634 -2.9737  1.1812  1.3507
43094SOL     OW32558  10.570   1.149   0.129 -0.8711  0.4712  0.3144
43094SOL    HW132559  10.637   1.088   0.159 -0.6143  1.2032  1.3032
43094SOL    HW232560  10.498   1.094   0.100  0.1460 -0.3332 -0.7699
43095SOL     OW32561   4.296   7.057   0.344 -0.2016  0.4192 -0.2268
43095SOL    HW132562   4.314   6.987   0.407  1.4949  0.0113 -1.1322
43095SOL    HW232563   4.272   7.132   0.399 -2.6699 -0.9477  0.7495
43096SOL     OW32564   5.144   1.076   3.197 -0.1170  0.3485 -0.1259
43096SOL    HW132565   5.057   1.047   3.223 -0.0062 -0.6148 -0.7978
43096SOL    HW232566   5.197   1.065   3.276 -0.6078  1.0063  0.3058
43097SOL     OW32567   2.206   8.726   4.820 -0.0668  0.1235 -0.3577
43097SOL    HW132568   2.142   8.730   4.891 -0.8798 -0.8067 -1.0095
43097SOL    HW232569   2.286   8.696   4.862 -0.6002 -0.6572  0.1330
43098SOL     OW32570   6.757   6.728  10.901 -0.1446 -0.1040 -0.4792
43098SOL    HW132571   6.829   6.730  10.963  0.3475 -0.8069 -1.0192
43098SOL    HW232572   6.716   6.814  10.910  0.7187  0.2832 -0.1258
43099SOL     OW32573   4.386   5.647   5.144 -0.1969  0.0245  0.1641
43099SOL    HW132574   4.454   5.617   5.084 -0.2766 -1.0146  0.5612
43099SOL    HW232575   4.313   5.673   5.087 -0.4065 -1.2889 -0.2000
43100SOL     OW32576   7.541   4.218  10.024 -0.7838 -0.2483 -0.3632
43100SOL    HW132577   7.523   4.164   9.946 -0.9466 -0.4060 -0.2169
43100SOL    HW232578   7.540   4.156  10.097  1.1086 -0.3960 -0.4232
43101SOL     OW32579  10.934   3.247   7.942 -0.0557 -0.0295 -0.0557
43101SOL    HW132580  10.953   3.280   7.854 -0.6312  0.5655  0.0408
43101SOL    HW232581  11.019   3.248   7.986 -0.0214  1.1667 -0.1156
43102SOL     OW32582   8.177   2.029   3.335 -0.0208 -0.4788 -0.4230
43102SOL    HW132583   8.199   1.938   3.358  0.3645  0.2914  2.6167
43102SOL    HW232584   8.258   2.064   3.298  0.7528 -0.6070  1.0738
43103SOL     OW32585   1.914  11.121   7.506 -0.0569 -0.4322 -0.5384
43103SOL    HW132586   1.848  11.103   7.573  0.2278 -2.1954 -0.6965
43103SOL    HW232587   1.981  11.054   7.519  0.6661  0.0226 -1.7285
43104SOL     OW32588   5.772   7.932   3.157 -0.7014 -0.7148  0.4634
43104SOL    HW132589   5.684   7.906   3.186 -0.0292 -2.0050  1.4805
43104SOL    HW232590   5.790   7.876   3.081 -1.5779  1.0984 -1.1693
43105SOL     OW32591   7.121   6.258   7.714  0.2060  0.3634 -0.4799
43105SOL    HW132592   7.155   6.343   7.687  1.6442  0.1415  0.5042
43105SOL    HW232593   7.199   6.202   7.719 -0.3964 -0.3802  1.1680
43106SOL     OW32594   5.616   9.426   4.131 -0.4456 -0.1182 -0.0779
43106SOL    HW132595   5.597   9.511   4.091  0.2754 -0.4720 -1.2321
43106SOL    HW232596   5.598   9.439   4.224 -0.0535  1.3940 -0.1826
43107SOL     OW32597   2.665   3.915   7.239  0.1162  0.1041  0.0163
43107SOL    HW132598   2.754   3.883   7.233  0.1394 -0.1509  1.3334
43107SOL    HW232599   2.631   3.876   7.319 -1.3284 -0.1430 -0.6862
43108SOL     OW32600   9.496   6.167   5.155  0.0168  0.2339  0.0693
43108SOL    HW132601   9.448   6.146   5.236 -0.6879 -0.6635 -0.5632
43108SOL    HW232602   9.471   6.098   5.094  0.9844  0.5860 -0.7526
43109SOL     OW32603   7.926   6.670   2.292 -0.1080  0.0007  0.2854
43109SOL    HW132604   7.950   6.582   2.264  2.5019  0.0107  2.1317
43109SOL    HW232605   7.860   6.657   2.359  0.9636 -0.6515  1.2449
43110SOL     OW32606   1.802   9.963   3.524 -0.5720  0.1376  0.2428
43110SOL    HW132607   1.736   9.977   3.592 -3.2098  3.3387 -2.6124
43110SOL    HW232608   1.761   9.901   3.464  1.6514 -2.5226  1.2627
43111SOL     OW32609  11.357   6.431  10.629 -0.2642  0.1470 -0.1061
43111SOL    HW132610  11.429   6.478  10.587 -0.0690 -1.1083 -1.2373
43111SOL    HW232611  11.317   6.380  10.559 -1.3601 -0.2698  0.7991
43112SOL     OW32612   1.895   6.101   0.354  0.1857  0.2668  0.1107
43112SOL    HW132613   1.853   6.019   0.381  0.8854 -0.2872 -0.4079
43112SOL    HW232614   1.964   6.115   0.419  1.0130 -0.3573 -0.6067
43113SOL     OW32615   1.161   3.624  10.468 -0.0831 -0.1636 -0.1348
43113SOL    HW132616   1.220   3.553  10.494 -1.6534 -1.2172  0.7039
43113SOL    HW232617   1.206   3.703  10.496  1.7533 -0.7722 -1.1584
43114SOL     OW32618  11.257   5.109   6.387 -0.5371  0.7183  0.2850
43114SOL    HW132619  11.260   5.068   6.474  2.7267  0.1197 -0.0034
43114SOL    HW232620  11.306   5.190   6.398  3.3534 -1.1141 -1.6775
43115SOL     OW32621   0.998  10.472   8.571 -0.6323  0.1414  0.0158
43115SOL    HW132622   1.016  10.539   8.637  1.3472  1.3428 -1.6049
43115SOL    HW232623   0.903  10.474   8.559 -0.8775  0.8502  1.8162
43116SOL     OW32624   4.984   0.175   4.457 -0.2067 -0.2973  0.3647
43116SOL    HW132625   4.889   0.179   4.468 -0.1403  1.2465  0.5803
43116SOL    HW232626   5.001   0.222   4.375  0.3780 -0.5830  0.3170
43117SOL     OW32627   6.236   4.200   1.904  0.0358  0.3318  0.1303
43117SOL    HW132628   6.169   4.162   1.848 -0.3182  0.5115  0.4282
43117SOL    HW232629   6.255   4.131   1.968  0.7299 -0.0232 -0.4450
43118SOL     OW32630   5.556   9.744   3.438 -0.1864 -0.2589  0.1712
43118SOL    HW132631   5.564   9.797   3.517 -0.4643 -1.4729  1.0471
43118SOL    HW232632   5.560   9.807   3.366  1.5479  0.7473  1.0829
43119SOL     OW32633   5.341   1.042   1.422 -0.3722  0.4480  0.0227
43119SOL    HW132634   5.255   1.056   1.462 -0.2395  3.0593 -0.3750
43119SOL    HW232635   5.342   1.101   1.347  2.0810  1.2617  0.5685
43120SOL     OW32636   6.740   4.336   3.467  0.1763 -0.8950  0.2070
43120SOL    HW132637   6.803   4.405   3.445 -0.1454 -0.3588  0.9230
43120SOL    HW232638   6.656   4.381   3.475  0.2880 -0.9608  2.7190
43121SOL     OW32639   7.897   3.742   8.210  0.0665  0.1231 -0.4371
43121SOL    HW132640   7.842   3.691   8.269  0.7994  0.2699  0.3957
43121SOL    HW232641   7.951   3.676   8.166 -0.6211 -0.0037 -1.1090
43122SOL     OW32642   3.550  10.797   3.591 -0.1991  0.2781  0.2089
43122SOL    HW132643   3.539  10.702   3.583  3.4735 -0.4573  1.7831
43122SOL    HW232644   3.583  10.825   3.506  1.8577 -0.5225  0.6971
43123SOL     OW32645   5.761   4.262   3.307 -0.1683  0.1569  0.0564
43123SOL    HW132646   5.794   4.183   3.264 -1.4891 -0.2463 -0.2689
43123SOL    HW232647   5.724   4.314   3.235 -0.6633  0.3640  0.4588
43124SOL     OW32648  10.734  10.379   7.825 -0.1733  0.1561 -0.3854
43124SOL    HW132649  10.705  10.470   7.830 -2.5386 -0.5290 -0.4972
43124SOL    HW232650  10.696  10.345   7.744 -0.0647 -1.1654  0.0810
43125SOL     OW32651   0.603   1.876   5.118 -0.1046  0.2762  0.1964
43125SOL    HW132652   0.603   1.927   5.037  0.4927  1.3688  0.8605
43125SOL    HW232653   0.695   1.876   5.146 -0.3330  0.0467  0.9552
43126SOL     OW32654   3.531  10.135   6.575  0.1331 -0.0115  0.2516
43126SOL    HW132655   3.488  10.123   6.490  0.9550  1.9752 -0.4849
43126SOL    HW232656   3.518  10.051   6.620  0.6437 -1.5187 -2.2464
43127SOL     OW32657  11.096   5.256   3.288  0.6610  0.3651  0.1416
43127SOL    HW132658  11.189   5.247   3.272  0.6131  0.2996 -0.1065
43127SOL    HW232659  11.090   5.318   3.361  0.8230  3.0246 -1.9361
43128SOL     OW32660   5.584   4.770   5.450 -0.3424 -0.0445 -0.4750
43128SOL    HW132661   5.502   4.797   5.491  0.5536  1.3711  0.4763
43128SOL    HW232662   5.637   4.737   5.523  0.7892  1.2915 -0.6472
43129SOL     OW32663  10.616  10.585   4.041  0.1572 -0.5635  0.0977
43129SOL    HW132664  10.616  10.607   3.947  3.8564 -0.5922 -0.0624
43129SOL    HW232665  10.532  10.541   4.055 -0.6228 -0.3869 -3.1387
43130SOL     OW32666   2.340  10.694   3.322  0.2021  0.2007  0.6679
43130SOL    HW132667   2.393  10.760   3.276  0.5436 -0.2038  0.4801
43130SOL    HW232668   2.274  10.746   3.368 -0.6839  0.5761 -0.9611
43131SOL     OW32669   8.458   4.841   7.280  0.2426  0.5901 -0.5331
43131SOL    HW132670   8.511   4.910   7.319  1.0663  0.7165 -1.8015
43131SOL    HW232671   8.431   4.787   7.354  1.8673  0.7251  0.2108
43132SOL     OW32672   0.361   9.808   0.528  0.0535 -0.1707  0.1854
43132SOL    HW132673   0.349   9.790   0.435  1.4855  0.5490 -0.1636
43132SOL    HW232674   0.316   9.891   0.543 -1.3067 -0.9227  0.4555
43133SOL     OW32675   1.093  10.462   4.965 -0.7741  0.5601 -0.1299
43133SOL    HW132676   1.037  10.539   4.958 -0.1112  1.0249 -0.4157
43133SOL    HW232677   1.180  10.497   4.981 -0.5106 -0.1467  0.0200
43134SOL     OW32678  10.160   2.763   8.271  0.7117  0.2984 -0.4413
43134SOL    HW132679  10.211   2.754   8.191  1.5706 -0.0501  0.1291
43134SOL    HW232680  10.215   2.725   8.339 -0.2232  0.1164  0.2334
43135SOL     OW32681   5.332   0.503   9.785  0.0385 -0.3417  0.0298
43135SOL    HW132682   5.409   0.459   9.750 -0.1208 -1.3757  0.9393
43135SOL    HW232683   5.342   0.594   9.758  2.0389 -0.2536  0.8980
43136SOL     OW32684   6.470   9.751   9.382 -0.6516  0.4201  0.2185
43136SOL    HW132685   6.462   9.744   9.478 -2.1411  0.7471  0.1419
43136SOL    HW232686   6.423   9.831   9.360 -0.1942  0.4242 -0.7820
43137SOL     OW32687   0.426   8.292  11.242  0.7163 -0.2597 -0.0957
43137SOL    HW132688   0.352   8.345  11.213  1.5007  1.3346  0.6654
43137SOL    HW232689   0.478   8.278  11.162 -1.1935 -2.8746 -0.9986
43138SOL     OW32690   2.853   8.789   1.554 -0.0391  0.5813 -0.2729
43138SOL    HW132691   2.770   8.783   1.505  1.1228  0.2065 -2.2967
43138SOL    HW232692   2.834   8.849   1.626 -2.2383  0.0088 -0.2939
43139SOL     OW32693   5.368   7.409   5.075  0.5329 -0.2365 -0.1230
43139SOL    HW132694   5.339   7.433   4.987  0.2001 -0.6531 -0.1301
43139SOL    HW232695   5.436   7.472   5.096  1.2894 -0.7110 -1.0638
43140SOL     OW32696   1.497   2.052  10.959 -0.2393  0.1979  0.4419
43140SOL    HW132697   1.475   2.130  10.908 -0.0384  0.6866  1.0757
43140SOL    HW232698   1.508   2.085  11.048 -2.1701 -0.8762  1.1441
43141SOL     OW32699   3.090   0.601   1.551  0.1714  0.2536 -0.4883
43141SOL    HW132700   3.025   0.636   1.612  0.7888 -0.0456  0.3426
43141SOL    HW232701   3.143   0.540   1.602 -1.4934 -2.7993 -2.0913
43142SOL     OW32702   7.537   2.191   6.952 -0.2600  0.3402 -0.2315
43142SOL    HW132703   7.499   2.157   6.871 -1.7278 -1.5961  1.1765
43142SOL    HW232704   7.507   2.281   6.957 -1.3357  0.0588 -1.1430
43143SOL     OW32705   2.511   6.776   4.467 -0.4911 -0.4879 -0.6501
43143SOL    HW132706   2.590   6.827   4.485 -0.4549  0.2842 -2.7087
43143SOL    HW232707   2.528   6.690   4.506  1.2455 -0.2400 -0.7898
43144SOL     OW32708  10.798   7.580   8.835  0.0985 -0.1691  0.2818
43144SOL    HW132709  10.749   7.585   8.753 -1.3761  0.7938  1.1820
43144SOL    HW232710  10.880   7.537   8.811 -0.7607 -0.9339 -1.4682
43145SOL     OW32711   3.966   3.488   5.555  0.0430  0.5916 -0.5661
43145SOL    HW132712   4.016   3.440   5.622  1.9130  2.5704 -0.4238
43145SOL    HW232713   3.892   3.430   5.534  1.0607 -1.4191  0.9987
43146SOL     OW32714   2.869   6.680   2.105  0.0676 -0.1510 -0.3038
43146SOL    HW132715   2.856   6.675   2.010 -2.6493  2.6508 -0.2175
43146SOL    HW232716   2.870   6.588   2.133  0.0773 -1.0425 -2.8957
43147SOL     OW32717  10.413   2.754   2.439  0.6567  0.0903  0.3739
43147SOL    HW132718  10.472   2.679   2.434 -0.2058 -0.5384 -1.4235
43147SOL    HW232719  10.399   2.780   2.347 -2.1866 -0.0958  0.6636
43148SOL     OW32720   2.119   1.884   0.855 -0.1649  0.3540 -0.5551
43148SOL    HW132721   2.089   1.975   0.849 -2.6592 -0.4349 -1.5752
43148SOL    HW232722   2.182   1.875   0.784 -0.2998  1.1583 -0.7855
43149SOL     OW32723   2.152   6.444   8.199  0.5519  0.3271 -0.4663
43149SOL    HW132724   2.098   6.501   8.252 -0.2746 -1.3484  0.5762
43149SOL    HW232725   2.107   6.439   8.115  0.6707  1.2324 -0.5919
43150SOL     OW32726   8.231   9.938   6.689  0.2855  0.0832  0.2664
43150SOL    HW132727   8.199   9.849   6.675  0.3617  0.3874 -2.5385
43150SOL    HW232728   8.325   9.933   6.670  0.2459  0.7911 -0.1541
43151SOL     OW32729   4.235   3.799   6.599  0.1938 -0.0776  0.1530
43151SOL    HW132730   4.157   3.850   6.622  0.4941 -0.0697  1.2539
43151SOL    HW232731   4.283   3.854   6.537  0.6985  1.1944  1.5897
43152SOL     OW32732   9.352   3.700   2.400  0.0578 -0.0021  0.0123
43152SOL    HW132733   9.295   3.736   2.467  0.6710  1.4343 -0.2146
43152SOL    HW232734   9.294   3.684   2.326 -0.3100  0.0190  0.2897
43153SOL     OW32735   2.804   6.769   3.516  0.1826  0.2113  0.4911
43153SOL    HW132736   2.764   6.831   3.455  0.2195 -0.2376  0.0009
43153SOL    HW232737   2.852   6.823   3.578  1.1968  0.6433 -0.6285
43154SOL     OW32738   6.401   8.392  10.236 -0.0214  0.0983 -0.2189
43154SOL    HW132739   6.365   8.344  10.162 -0.8382  0.7450 -0.2547
43154SOL    HW232740   6.333   8.455  10.260  0.0895 -0.3111  1.2840
43155SOL     OW32741   8.350  10.221   8.527  0.6359 -0.1819  0.2299
43155SOL    HW132742   8.422  10.202   8.587  0.7932  0.4800  0.2665
43155SOL    HW232743   8.392  10.264   8.452  0.7653 -3.0391 -1.4741
43156SOL     OW32744   4.895   0.335  10.709 -0.0029  0.5394  0.1010
43156SOL    HW132745   4.853   0.349  10.625  1.1693  0.8434 -0.4588
43156SOL    HW232746   4.840   0.270  10.753  0.3256 -1.0009 -1.6394
43157SOL     OW32747   8.164   6.346   7.076 -0.8677  0.8344 -0.0287
43157SOL    HW132748   8.104   6.279   7.107  0.7544 -0.2433  0.9073
43157SOL    HW232749   8.147   6.422   7.133 -0.7591  0.2472  0.7983
43158SOL     OW32750  11.028   4.893   2.332  0.1693 -0.5871 -0.2765
43158SOL    HW132751  10.952   4.843   2.301  1.4458 -2.5681 -0.3680
43158SOL    HW232752  11.065   4.932   2.253 -0.7302  0.3888 -0.2312
43159SOL     OW32753   9.453   0.813   5.261 -0.5444 -0.1752  0.1312
43159SOL    HW132754   9.475   0.889   5.207  1.5270 -0.9429 -0.1929
43159SOL    HW232755   9.437   0.743   5.198 -0.7676 -0.4209  0.4579
43160SOL     OW32756   4.162   6.005   4.198  0.2467 -0.5307  0.6967
43160SOL    HW132757   4.091   6.028   4.259  1.4158  0.2983  1.7931
43160SOL    HW232758   4.124   5.936   4.142 -1.1747 -0.6333  1.7275
43161SOL     OW32759   9.128   8.331   5.054 -0.4666 -0.2989  0.3650
43161SOL    HW132760   9.216   8.354   5.024 -0.6873  0.3039  0.1703
43161SOL    HW232761   9.139   8.311   5.147  0.1255 -1.6430  0.0285
43162SOL     OW32762   8.638   3.496  10.853  0.0157  0.3652 -0.0180
43162SOL    HW132763   8.610   3.535  10.771  2.9033  2.0640 -0.3274
43162SOL    HW232764   8.644   3.402  10.834 -2.2130  0.3280 -0.7815
43163SOL     OW32765   5.939  10.728   3.971  0.0403  0.1428 -0.3274
43163SOL    HW132766   5.977  10.662   4.030  0.9293  1.0519  0.1417
43163SOL    HW232767   5.967  10.812   4.008 -0.8895  0.7867 -1.0426
43164SOL     OW32768   1.161   0.972   5.435 -0.0180 -0.1520  0.1852
43164SOL    HW132769   1.142   0.908   5.503 -0.1700  0.3852  0.6590
43164SOL    HW232770   1.212   1.040   5.480 -0.6984  0.5432 -0.0715
43165SOL     OW32771  10.805   6.188   4.060 -0.1384 -0.5196 -0.7068
43165SOL    HW132772  10.757   6.228   3.987  0.4424  1.8114  0.0910
43165SOL    HW232773  10.895   6.180   4.029 -0.0120 -0.0688 -0.4739
43166SOL     OW32774   8.190   5.654   5.509 -0.5742 -0.4196  0.1262
43166SOL    HW132775   8.171   5.712   5.436 -0.5078 -0.1982  0.2861
43166SOL    HW232776   8.116   5.592   5.511 -0.2105 -0.8838 -0.5851
43167SOL     OW32777   5.169  10.945   8.911  0.6087 -0.3127  0.0668
43167SOL    HW132778   5.134  11.009   8.973  0.5162  1.0616 -1.3473
43167SOL    HW232779   5.239  10.901   8.958  1.7761  1.9666  0.6016
43168SOL     OW32780   8.440   7.875   5.825 -0.1123  0.3613 -1.0164
43168SOL    HW132781   8.439   7.937   5.898 -1.7825  0.2053 -0.8662
43168SOL    HW232782   8.488   7.799   5.859 -0.6076  0.4115 -0.1594
43169SOL     OW32783   5.137  10.620   5.337  0.1462 -0.1847  0.2898
43169SOL    HW132784   5.150  10.680   5.264  2.5214 -0.5263  0.3646
43169SOL    HW232785   5.172  10.536   5.305  1.3465 -0.3097  1.8199
43170SOL     OW32786   6.289   5.273   4.376  0.0677 -0.3963 -0.0267
43170SOL    HW132787   6.266   5.250   4.466 -1.8286  1.2700 -0.0061
43170SOL    HW232788   6.242   5.209   4.322 -0.1735 -0.3596  0.1383
43171SOL     OW32789   5.784   9.125   7.621 -0.3405 -0.5283  0.4470
43171SOL    HW132790   5.732   9.062   7.572  0.5981 -3.1757  2.5884
43171SOL    HW232791   5.859   9.144   7.564 -2.2579  1.4469 -1.6307
43172SOL     OW32792   3.430   8.496   3.348  0.2297 -0.2316 -0.1110
43172SOL    HW132793   3.396   8.499   3.259  0.8501 -0.8565 -0.3724
43172SOL    HW232794   3.417   8.406   3.376 -1.1389  0.2365  0.9131
43173SOL     OW32795   7.878   2.792   7.380 -1.1011  0.6210  0.2509
43173SOL    HW132796   7.971   2.778   7.364 -0.6767  2.5914  0.7218
43173SOL    HW232797   7.864   2.760   7.470 -1.2175 -0.9329 -0.2904
43174SOL     OW32798   8.702   5.365   2.624  0.0594  0.4303 -0.0230
43174SOL    HW132799   8.745   5.409   2.551 -0.4276 -1.2043 -1.3315
43174SOL    HW232800   8.619   5.335   2.589 -0.3231 -0.1186  1.2918
43175SOL     OW32801  10.860   8.309   7.509 -0.3122 -0.1295  0.2782
43175SOL    HW132802  10.955   8.306   7.497 -0.4937 -0.7955 -1.1394
43175SOL    HW232803  10.847   8.281   7.600  0.7049 -2.7038 -0.2950
43176SOL     OW32804   3.248  11.260   3.790  0.2766 -0.1041  0.5225
43176SOL    HW132805   3.211  11.314   3.859  1.4814 -0.4252  1.4498
43176SOL    HW232806   3.192  11.182   3.788  2.3955 -1.9710  3.9475
43177SOL     OW32807   7.432   1.234   8.536 -0.0399  0.0068 -0.5348
43177SOL    HW132808   7.391   1.254   8.452  1.0641 -0.0984 -1.1127
43177SOL    HW232809   7.376   1.167   8.574 -1.7550  1.5337 -0.1981
43178SOL     OW32810   3.528   4.447   6.682 -0.0071  0.3274 -0.2402
43178SOL    HW132811   3.581   4.417   6.756  1.6497  0.5262 -1.3127
43178SOL    HW232812   3.590   4.463   6.612 -1.5248  0.3075 -1.6577
43179SOL     OW32813   0.533   7.371   5.865 -0.3540  0.1761  0.5783
43179SOL    HW132814   0.524   7.465   5.885 -1.9640  0.1372  0.1053
43179SOL    HW232815   0.444   7.337   5.864  0.2131 -1.4129  0.8691
43180SOL     OW32816   1.818   9.670   8.555 -0.1500 -0.5790 -0.8281
43180SOL    HW132817   1.766   9.737   8.599  1.0278 -0.2937  0.1920
43180SOL    HW232818   1.772   9.654   8.473 -2.2772 -0.9085  0.3368
43181SOL     OW32819   7.605   1.927   9.494  0.0326 -0.4502 -0.4345
43181SOL    HW132820   7.548   1.878   9.552  0.3351 -0.2729  0.0214
43181SOL    HW232821   7.692   1.889   9.506  0.6720  1.3869  1.3836
43182SOL     OW32822   7.724   9.000   3.685  0.0139 -0.1450 -0.0622
43182SOL    HW132823   7.653   8.966   3.630 -0.9380 -0.0573  1.0769
43182SOL    HW232824   7.765   9.069   3.632 -0.5081 -0.4494 -0.8769
43183SOL     OW32825  10.169   1.160   7.827 -0.1596 -0.4501  0.1424
43183SOL    HW132826  10.137   1.172   7.737  3.2650 -1.2834 -1.3782
43183SOL    HW232827  10.245   1.219   7.833 -0.3349 -0.3918  2.5435
43184SOL     OW32828   3.555   7.434   9.690  0.0917  0.3721  0.0954
43184SOL    HW132829   3.580   7.497   9.757 -1.0188 -0.2416  1.1514
43184SOL    HW232830   3.619   7.363   9.698  0.6867  0.8486 -0.3461
43185SOL     OW32831   2.671   2.142   4.092  0.2845 -0.6525 -0.5998
43185SOL    HW132832   2.762   2.172   4.089 -0.2787  1.0965 -1.3011
43185SOL    HW232833   2.675   2.052   4.059  1.7967 -0.7537 -0.2336
43186SOL     OW32834   8.104  10.676   4.493  0.7275  1.1709 -0.0359
43186SOL    HW132835   8.012  10.683   4.518  1.6097  1.4778  3.7958
43186SOL    HW232836   8.118  10.582   4.483  0.0472  1.1105 -0.5005
43187SOL     OW32837  10.223   0.845   9.563 -0.2663 -0.4215 -0.2037
43187SOL    HW132838  10.279   0.800   9.500 -0.4835 -1.2068  0.1469
43187SOL    HW232839  10.278   0.855   9.641 -1.1519 -2.9348  0.8322
43188SOL     OW32840  10.506   7.807   1.298  0.8270 -0.1921 -0.3762
43188SOL    HW132841  10.469   7.893   1.318 -0.5591 -0.7546 -0.4463
43188SOL    HW232842  10.475   7.787   1.210  1.4975 -0.5887 -0.5279
43189SOL     OW32843   1.170   3.101  10.815 -0.5711 -0.3595  0.5041
43189SOL    HW132844   1.135   3.012  10.805 -2.1099  0.3551 -0.9990
43189SOL    HW232845   1.256   3.097  10.774 -0.9068 -1.0057 -0.1798
43190SOL     OW32846   6.094  10.675   4.205  0.4502 -0.5826 -1.0846
43190SOL    HW132847   6.078  10.689   4.299 -1.1198  0.5416 -1.4748
43190SOL    HW232848   6.189  10.682   4.196  0.6350 -0.7917  0.4359
43191SOL     OW32849   5.855   4.359   7.996 -0.2185 -0.2705  0.4922
43191SOL    HW132850   5.843   4.324   8.084  0.6053  2.2627  1.7115
43191SOL    HW232851   5.949   4.357   7.981 -0.4548 -3.2210 -1.5815
43192SOL     OW32852  11.169   8.664   9.821 -0.1685 -0.5634 -0.1923
43192SOL    HW132853  11.119   8.735   9.781  0.7532  0.8497  1.1004
43192SOL    HW232854  11.171   8.596   9.753 -0.9522  0.6752 -1.5179
43193SOL     OW32855  11.328   0.041  11.327 -0.1476  0.4034  0.0187
43193SOL    HW132856  11.240   0.017  11.354 -0.1766 -0.5033 -0.8302
43193SOL    HW232857  11.385  -0.016  11.378 -0.1256 -0.0508 -0.5043
43194SOL     OW32858   1.367   8.188   4.666 -0.4244  0.0825  0.3197
43194SOL    HW132859   1.278   8.195   4.701 -0.0530  0.3480  1.2345
43194SOL    HW232860   1.405   8.275   4.678 -0.6855  0.5543 -1.9235
43195SOL     OW32861   4.705   6.402   0.555  0.6759 -0.3993  0.0966
43195SOL    HW132862   4.728   6.414   0.647  1.9496 -2.3004  0.0751
43195SOL    HW232863   4.720   6.309   0.539 -1.6526 -0.5843 -1.4705
43196SOL     OW32864   5.548   7.612   5.129 -0.0306  0.2490 -0.2115
43196SOL    HW132865   5.593   7.662   5.061 -0.5576  0.8954 -0.0991
43196SOL    HW232866   5.489   7.675   5.169  0.1682 -0.1614  0.7535
43197SOL     OW32867  10.263   5.760   0.445 -0.3524 -0.2494  0.2700
43197SOL    HW132868  10.287   5.706   0.521 -1.2355 -0.4878  0.3941
43197SOL    HW232869  10.187   5.715   0.407  0.2945 -0.3256 -0.9645
43198SOL     OW32870   6.878  11.209   5.581  0.2038  0.0354 -0.2065
43198SOL    HW132871   6.890  11.293   5.538  0.4358  0.1564  0.0944
43198SOL    HW232872   6.893  11.226   5.673  0.0050 -0.2856 -0.1115
43199SOL     OW32873  10.131   6.355  10.822  0.6138 -0.8023  0.4650
43199SOL    HW132874  10.059   6.362  10.885  0.1620 -0.8628 -0.0377
43199SOL    HW232875  10.174   6.272  10.843  0.6435 -0.6852  0.8740
43200SOL     OW32876   7.508   7.993   1.124 -0.9130 -0.2063  0.1480
43200SOL    HW132877   7.545   8.069   1.080  0.4459 -0.2574  1.0956
43200SOL    HW232878   7.448   8.029   1.189 -0.8577  0.0206  0.0724
43201SOL     OW32879   6.237   4.091   0.144 -0.7924 -0.2104  0.1248
43201SOL    HW132880   6.147   4.107   0.173 -0.8063 -1.4367  0.8454
43201SOL    HW232881   6.230   4.018   0.083 -0.5183  1.1142 -1.5731
43202SOL     OW32882   9.976   1.272   5.741 -0.1555  0.0836 -0.3782
43202SOL    HW132883   9.969   1.177   5.754 -2.1306  0.2800  0.3919
43202SOL    HW232884  10.052   1.298   5.793  1.1323 -1.2002 -1.5304
43203SOL     OW32885   0.412   1.088   2.801  0.0079  0.2347 -0.0510
43203SOL    HW132886   0.497   1.045   2.806 -0.0984 -0.3289 -2.1653
43203SOL    HW232887   0.360   1.047   2.870  1.4909  0.7684  1.4352
43204SOL     OW32888   2.267   1.871   4.505  0.6811  0.6949 -0.4115
43204SOL    HW132889   2.293   1.783   4.478 -2.0332 -0.2759 -0.1228
43204SOL    HW232890   2.251   1.917   4.422  0.9374  0.5449 -0.5465
43205SOL     OW32891   1.880   6.949   9.843 -0.0661 -0.5283  0.3265
43205SOL    HW132892   1.938   6.946   9.918  1.5913  0.5845 -0.8424
43205SOL    HW232893   1.903   7.030   9.798 -0.9972 -1.1527 -1.3794
43206SOL     OW32894   2.857   8.934   9.097 -0.1455 -0.0585  0.1995
43206SOL    HW132895   2.780   8.897   9.054 -0.0598 -0.9092  0.7640
43206SOL    HW232896   2.909   8.859   9.122  0.3008  0.4637  0.8849
43207SOL     OW32897   8.364  10.091   4.333  0.5332  0.4425  0.5169
43207SOL    HW132898   8.391  10.137   4.413 -0.6923  1.3424  0.4457
43207SOL    HW232899   8.327  10.160   4.277 -1.1183 -0.5607  0.2976
43208SOL     OW32900   0.652   1.702   5.794 -0.5386 -0.1457 -0.1861
43208SOL    HW132901   0.739   1.740   5.781 -0.2153 -0.8568 -0.1183
43208SOL    HW232902   0.630   1.662   5.710  1.0416 -3.7002  0.9234
43209SOL     OW32903   3.873   8.077  11.196 -0.0368 -0.4731  0.7589
43209SOL    HW132904   3.884   8.087  11.101 -2.6799 -0.7416  0.3534
43209SOL    HW232905   3.882   8.166  11.230 -1.5642  0.0609 -0.1030
43210SOL     OW32906   3.044   7.694   2.308 -0.1661 -0.5336 -0.0501
43210SOL    HW132907   3.052   7.788   2.295  0.3062 -0.5161  0.3330
43210SOL    HW232908   3.104   7.655   2.244 -1.7340 -0.6633 -1.5047
43211SOL     OW32909   8.399   7.629   3.853 -0.3337  0.4613  0.2832
43211SOL    HW132910   8.373   7.539   3.837 -2.3851  1.0396  0.1859
43211SOL    HW232911   8.325   7.669   3.899  0.0956  2.3660 -0.5546
43212SOL     OW32912   6.985   4.390   3.784  0.2391  0.2498 -0.5193
43212SOL    HW132913   7.022   4.323   3.727 -0.4255 -0.9464  0.4018
43212SOL    HW232914   6.906   4.420   3.738  0.6940  0.6170 -1.0658
43213SOL     OW32915   0.509   9.538   3.256 -0.4719 -0.1481  0.3719
43213SOL    HW132916   0.457   9.460   3.240 -0.4702 -0.6496  2.5100
43213SOL    HW232917   0.580   9.508   3.313 -0.0091  1.2364  0.5617
43214SOL     OW32918   8.395   0.593   8.577  0.5749 -0.2333  0.0432
43214SOL    HW132919   8.425   0.684   8.580  1.8948 -0.6702  1.6424
43214SOL    HW232920   8.418   0.563   8.489  0.7159  0.7905 -0.2785
43215SOL     OW32921   0.992   8.085   2.811 -0.0849  0.6305 -0.2235
43215SOL    HW132922   1.079   8.068   2.845 -0.3278 -2.0296 -0.7144
43215SOL    HW232923   1.003   8.087   2.716 -0.3782  1.7457 -0.2568
43216SOL     OW32924   0.736   9.009   2.849  0.3442  0.2210 -0.0364
43216SOL    HW132925   0.721   8.918   2.823 -0.6723  0.2888  0.2653
43216SOL    HW232926   0.809   9.004   2.911 -0.0232 -0.4564  0.3604
43217SOL     OW32927   3.925   2.206   1.597  0.4471  0.0267  0.0987
43217SOL    HW132928   3.867   2.267   1.550 -0.2166 -0.5827  0.1070
43217SOL    HW232929   3.917   2.233   1.689  0.3992  0.1252  0.0663
43218SOL     OW32930   0.719   1.572   5.337  0.2243 -0.2418  0.4422
43218SOL    HW132931   0.773   1.649   5.315  0.4894 -0.2794  0.9433
43218SOL    HW232932   0.707   1.527   5.253 -2.0849  1.6832 -0.3582
43219SOL     OW32933  11.302   4.224   1.280 -0.0060 -0.0963 -0.3950
43219SOL    HW132934  11.228   4.233   1.340  1.0636 -0.8968  1.1003
43219SOL    HW232935  11.318   4.130   1.276  0.8394  0.0608 -0.8388
43220SOL     OW32936   4.307   3.801   4.459 -0.0060 -0.0457  0.4211
43220SOL    HW132937   4.355   3.719   4.467  2.0000  1.1625  1.8165
43220SOL    HW232938   4.319   3.845   4.544 -3.9216  0.2714  1.0353
43221SOL     OW32939   3.077   1.948   8.237 -0.0534  0.0978  0.4743
43221SOL    HW132940   3.100   2.022   8.294  0.1283 -1.2451  2.2380
43221SOL    HW232941   3.160   1.904   8.221 -0.2489 -0.0862 -0.0383
43222SOL     OW32942   2.627  10.172   8.954 -0.2229  0.5621 -0.6785
43222SOL    HW132943   2.693  10.218   9.008 -1.0396  1.1088 -0.1101
43222SOL    HW232944   2.645  10.202   8.865  0.2384  0.7848 -0.5190
43223SOL     OW32945   4.018  10.777   8.477  0.6181  0.3597  0.4368
43223SOL    HW132946   4.088  10.836   8.452  0.3791  0.3152 -0.3831
43223SOL    HW232947   3.939  10.831   8.477  0.3764  0.0355 -0.4499
43224SOL     OW32948   4.418   7.238   3.440 -0.3944  0.1438  0.5737
43224SOL    HW132949   4.501   7.282   3.421 -0.3505 -0.6332 -1.2614
43224SOL    HW232950   4.354   7.280   3.382 -0.3904 -1.9549 -1.0877
43225SOL     OW32951  10.494   6.269   7.187  0.0917  0.1162 -0.4541
43225SOL    HW132952  10.449   6.334   7.241  0.1911  0.8633 -1.2360
43225SOL    HW232953  10.565   6.236   7.242  0.3726  1.0759 -0.2313
43226SOL     OW32954   6.715   4.975  11.315 -0.7081 -0.4642  0.1105
43226SOL    HW132955   6.760   4.927  11.385  2.3480  2.3042  0.2913
43226SOL    HW232956   6.628   4.994  11.352  0.3278 -0.2494  2.6834
43227SOL     OW32957   8.427   4.662   0.099  0.0379  0.2243 -0.1703
43227SOL    HW132958   8.512   4.624   0.116 -0.4013 -0.2836  0.9555
43227SOL    HW232959   8.396   4.692   0.184 -0.5577  1.1486 -0.6912
43228SOL     OW32960   1.306  10.545  10.627 -0.2314  0.1827 -0.0070
43228SOL    HW132961   1.320  10.453  10.605  1.3467  0.1106  1.1103
43228SOL    HW232962   1.310  10.590  10.542  0.5968 -0.6214 -0.4185
43229SOL     OW32963   8.161   8.392   9.154  0.1505  0.4808 -0.2621
43229SOL    HW132964   8.111   8.473   9.154 -0.3402  0.1794 -0.9342
43229SOL    HW232965   8.208   8.392   9.071 -0.2624 -0.1767 -0.5014
43230SOL     OW32966   4.473   2.432   5.649 -0.0324  0.4084  0.2304
43230SOL    HW132967   4.504   2.499   5.710 -1.5357  0.2460  1.2222
43230SOL    HW232968   4.386   2.409   5.681  0.6443 -2.4478  0.2700
43231SOL     OW32969   6.698  10.668  10.306 -0.7168  0.3542 -0.0836
43231SOL    HW132970   6.612  10.709  10.297 -1.7766 -1.6636  0.1178
43231SOL    HW232971   6.723  10.683  10.397  0.3123  2.9689 -0.7097
43232SOL     OW32972   1.049   3.619   2.120 -0.1340  0.3412  0.3025
43232SOL    HW132973   0.957   3.643   2.114  0.4356  2.3703 -1.8937
43232SOL    HW232974   1.081   3.626   2.031  2.0235 -0.9738  0.9099
43233SOL     OW32975   1.228   7.811  11.105  0.0921 -0.2059 -0.0051
43233SOL    HW132976   1.140   7.811  11.066  0.2906 -0.9405 -0.4778
43233SOL    HW232977   1.266   7.894  11.077  0.0107 -0.4602 -0.9039
43234SOL     OW32978   5.758   5.233   2.932 -0.3727  0.0141 -0.1091
43234SOL    HW132979   5.727   5.223   2.842 -1.2399  1.3918  0.0098
43234SOL    HW232980   5.739   5.324   2.954  1.2807  0.1435  0.9359
43235SOL     OW32981   2.361   0.458   3.463 -0.0659 -0.0687 -0.5116
43235SOL    HW132982   2.417   0.534   3.481  0.0294  0.2789 -2.1428
43235SOL    HW232983   2.327   0.433   3.549 -1.4354  2.8547 -0.0752
43236SOL     OW32984   3.407   9.535   0.416 -0.2321 -0.5803 -0.0242
43236SOL    HW132985   3.361   9.462   0.376  0.1434 -0.9014  0.1280
43236SOL    HW232986   3.409   9.514   0.509  2.2217 -1.6936 -0.2833
43237SOL     OW32987   1.431   9.607   7.356  0.1357  0.3515 -0.1396
43237SOL    HW132988   1.451   9.692   7.316  0.3325  0.5822  0.4303
43237SOL    HW232989   1.464   9.615   7.446  0.0974 -0.3074 -0.0626
43238SOL     OW32990   1.363   8.833   0.798 -0.1164  0.0117 -0.0128
43238SOL    HW132991   1.405   8.803   0.717 -1.5805 -0.0919 -0.7698
43238SOL    HW232992   1.328   8.920   0.777  0.3262  0.4035  0.8169
43239SOL     OW32993   7.481   6.475   2.759 -0.5734  0.2655 -0.3077
43239SOL    HW132994   7.575   6.489   2.758 -0.5101  0.4098  2.1279
43239SOL    HW232995   7.468   6.392   2.711  0.9801 -0.6072  0.7159
43240SOL     OW32996   3.692  10.352   1.237  0.0564 -0.1164 -0.1674
43240SOL    HW132997   3.657  10.359   1.148  2.8627  2.3683 -1.2615
43240SOL    HW232998   3.628  10.398   1.291 -0.7460  0.1029 -1.2566
43241SOL     OW32999   3.071   9.216   6.410 -0.2557  0.2163  0.1019
43241SOL    HW133000   3.046   9.249   6.496  0.8716 -1.2952  1.0473
43241SOL    HW233001   2.990   9.178   6.375 -0.9168  1.5641  0.1169
43242SOL     OW33002  10.481   0.551   3.530  0.1883  0.1693  0.7962
43242SOL    HW133003  10.523   0.518   3.608 -0.0612 -0.3403  0.7177
43242SOL    HW233004  10.400   0.592   3.562 -0.7036 -1.4306  0.6572
43243SOL     OW33005   1.650   2.209   6.583  0.4442 -0.1369 -0.1547
43243SOL    HW133006   1.693   2.129   6.615 -0.0222 -0.6587 -0.8058
43243SOL    HW233007   1.557   2.188   6.586  0.2352  0.8787  0.9611
43244SOL     OW33008   6.090   9.285   6.643 -0.3109 -0.5958 -0.0587
43244SOL    HW133009   6.141   9.265   6.565  1.7985  1.1693  0.7761
43244SOL    HW233010   6.108   9.212   6.703 -0.9787 -1.3367 -0.7296
43245SOL     OW33011   2.328   7.846   0.261  0.0215 -0.1388  0.1122
43245SOL    HW133012   2.289   7.833   0.174 -2.1852 -1.5934  1.2104
43245SOL    HW233013   2.345   7.757   0.293  0.6317  0.3598  1.2349
43246SOL     OW33014   3.852   7.682   9.757 -0.1646 -0.4323 -0.0771
43246SOL    HW133015   3.857   7.615   9.825  0.6183  0.4658  0.7690
43246SOL    HW233016   3.939   7.683   9.717  0.4268  1.3032  1.1428
43247SOL     OW33017   5.601   3.817   0.698 -0.2827  0.2825  0.1894
43247SOL    HW133018   5.689   3.849   0.718 -0.1268  0.1646 -0.2913
43247SOL    HW233019   5.601   3.804   0.603 -0.8566  0.3932  0.1697
43248SOL     OW33020   8.167   7.080   2.807  0.5188 -0.3637 -0.4873
43248SOL    HW133021   8.090   7.062   2.754  0.1219 -3.0770  0.8352
43248SOL    HW233022   8.144   7.049   2.894  2.5746  0.2115  0.3233
43249SOL     OW33023   7.819   0.477   4.104  0.1718 -0.2808 -0.1777
43249SOL    HW133024   7.824   0.548   4.167 -1.7339  0.6021 -0.9674
43249SOL    HW233025   7.850   0.400   4.152  0.9200  0.7862  1.1119
43250SOL     OW33026   2.252   0.179   4.673  0.0161  0.0680  0.0201
43250SOL    HW133027   2.207   0.150   4.594  0.2342 -1.1429  0.3215
43250SOL    HW233028   2.328   0.228   4.640 -0.3559  0.2935 -0.5123
43251SOL     OW33029   5.055   3.941   8.597  0.4807  0.5850 -0.5507
43251SOL    HW133030   5.126   3.907   8.650 -0.9156  1.2078  1.8799
43251SOL    HW233031   5.023   4.018   8.645 -2.3470 -0.1305 -1.0818
43252SOL     OW33032   3.297   1.530   3.467  0.0048  0.3507  0.2785
43252SOL    HW133033   3.370   1.475   3.439 -1.2377 -1.5722  0.6085
43252SOL    HW233034   3.237   1.469   3.510 -2.3046  1.6746 -0.9156
43253SOL     OW33035   2.626  11.291   1.963  0.1092  0.4125 -0.5303
43253SOL    HW133036   2.721  11.297   1.976 -0.2183  2.3171  1.5477
43253SOL    HW233037   2.617  11.260   1.873  2.6867 -0.5599 -0.5596
43254SOL     OW33038   3.617   4.736   5.830 -0.2675 -0.0215  0.2768
43254SOL    HW133039   3.581   4.650   5.811 -1.0642  0.2207  0.6321
43254SOL    HW233040   3.672   4.723   5.908 -1.1708 -0.0400  0.9302
43255SOL     OW33041   7.502   6.420   1.621 -0.2191  0.4192 -0.2206
43255SOL    HW133042   7.533   6.340   1.664 -0.6485  0.8071  0.8326
43255SOL    HW233043   7.547   6.420   1.536  0.4708 -0.4723  0.1244
43256SOL     OW33044   5.687   6.271   6.971 -0.3935  0.2115 -0.6609
43256SOL    HW133045   5.641   6.353   6.952 -0.0529  0.9666  1.5438
43256SOL    HW233046   5.618   6.206   6.980 -0.7956  0.6380 -0.6448
43257SOL     OW33047   3.485   4.363   6.176 -0.4179  0.0690 -0.7957
43257SOL    HW133048   3.556   4.327   6.230  0.2428  1.9890 -0.2894
43257SOL    HW233049   3.456   4.290   6.122  0.8443 -1.1843  0.1516
43258SOL     OW33050   2.912  10.719   9.357 -0.1379 -0.1083  0.0624
43258SOL    HW133051   2.952  10.714   9.270 -1.5156 -1.3597 -0.5337
43258SOL    HW233052   2.939  10.804   9.391 -0.0618  0.6616 -1.8278
43259SOL     OW33053   7.646   1.807   4.863 -0.1526  0.1162 -0.2817
43259SOL    HW133054   7.645   1.716   4.894 -2.8571  0.2443  0.2738
43259SOL    HW233055   7.668   1.800   4.770  0.6997 -0.9859 -0.0252
43260SOL     OW33056   3.858   0.872   4.377 -0.3270  0.1053  0.0633
43260SOL    HW133057   3.785   0.906   4.326 -0.6372  0.5273  0.7815
43260SOL    HW233058   3.819   0.808   4.436  0.1235 -0.8477 -0.6501
43261SOL     OW33059   9.814   6.083   1.759  0.0057  0.4463 -0.1206
43261SOL    HW133060   9.845   6.141   1.690 -0.5117  1.2190  0.2852
43261SOL    HW233061   9.750   6.026   1.716  0.9758 -0.2671 -0.6622
43262SOL     OW33062   1.404   1.823   7.015 -0.1201  0.0109 -0.4334
43262SOL    HW133063   1.398   1.878   7.093 -2.8867 -0.1678 -0.4218
43262SOL    HW233064   1.445   1.742   7.046 -1.4623 -0.1803  0.9529
43263SOL     OW33065   0.219   6.278   8.345  0.1811 -0.1754  0.4133
43263SOL    HW133066   0.164   6.209   8.381  1.1916 -0.5919  1.1806
43263SOL    HW233067   0.248   6.328   8.421  1.1791 -0.2021  0.0529
43264SOL     OW33068  10.587   9.344   9.792 -0.3063 -0.5984 -0.2841
43264SOL    HW133069  10.604   9.302   9.707  1.3169 -0.9373  0.1748
43264SOL    HW233070  10.619   9.434   9.780  0.3910 -0.7883  0.1059
43265SOL     OW33071   6.880   1.169   8.520  0.6639 -0.0582 -0.5846
43265SOL    HW133072   6.960   1.194   8.473  0.9993 -0.2812 -0.1487
43265SOL    HW233073   6.895   1.078   8.545  0.7635  0.2314  0.4740
43266SOL     OW33074   4.640   6.594   7.736  0.2396 -0.2589 -0.1928
43266SOL    HW133075   4.639   6.557   7.824  1.6476  0.2336  0.0445
43266SOL    HW233076   4.647   6.688   7.749  1.8332 -0.2568 -0.8044
43267SOL     OW33077   0.182   4.402   2.161  0.0561 -0.3171 -0.4297
43267SOL    HW133078   0.225   4.345   2.226 -0.7065  0.7079  1.0386
43267SOL    HW233079   0.120   4.345   2.116 -0.4026 -0.7734  0.7358
43268SOL     OW33080   9.187   2.823   2.006 -0.1292 -0.6371  0.0455
43268SOL    HW133081   9.187   2.898   2.066 -0.0034 -0.1295 -0.5879
43268SOL    HW233082   9.190   2.747   2.064 -2.7527 -0.2603  0.8439
43269SOL     OW33083   2.021   6.403   9.730 -0.0577  0.3141  0.3152
43269SOL    HW133084   1.935   6.369   9.756 -0.7682  0.3350 -1.8572
43269SOL    HW233085   2.081   6.330   9.744 -0.5440  0.0473  1.1155
43270SOL     OW33086   5.542   0.890   9.956 -0.0634 -1.2133  0.0105
43270SOL    HW133087   5.524   0.982   9.977  2.2458 -0.6211 -0.3148
43270SOL    HW233088   5.528   0.883   9.862  2.2246 -0.4502 -0.4627
43271SOL     OW33089   1.136   1.254   0.224  0.3196  0.0908  0.1292
43271SOL    HW133090   1.089   1.201   0.161  2.1948 -1.4467 -0.0569
43271SOL    HW233091   1.132   1.343   0.188 -0.7997 -0.3112 -0.8092
43272SOL     OW33092   1.355   4.320   8.866  0.3163  0.2750  0.1217
43272SOL    HW133093   1.312   4.345   8.948 -0.2827 -1.6917  0.4568
43272SOL    HW233094   1.307   4.242   8.837  0.3884  1.0517 -2.2256
43273SOL     OW33095   6.212   0.936   7.274  0.6506 -0.2271 -0.3020
43273SOL    HW133096   6.152   0.949   7.348  3.5597  0.2028  2.2319
43273SOL    HW233097   6.196   0.846   7.245  0.7445 -1.2081  2.3434
43274SOL     OW33098   8.719   2.310   5.694  0.3926  0.1736  0.0687
43274SOL    HW133099   8.734   2.216   5.680  0.9147  0.3380 -0.5429
43274SOL    HW233100   8.806   2.349   5.688  0.3372  0.5689  1.5070
43275SOL     OW33101   4.546   7.753  11.088  0.6560  0.0052 -0.3850
43275SOL    HW133102   4.467   7.800  11.062 -0.2412 -0.9319  0.5295
43275SOL    HW233103   4.612   7.821  11.101 -0.1502  0.8491 -0.6412
43276SOL     OW33104   7.919   8.605   4.872  0.2862 -0.3501  0.5425
43276SOL    HW133105   7.984   8.535   4.867  0.7953  0.1179  0.4870
43276SOL    HW233106   7.863   8.581   4.945  0.2880 -0.9567  0.3513
43277SOL     OW33107  10.792   4.762   1.163  0.0762  0.0147  0.1880
43277SOL    HW133108  10.790   4.683   1.216 -0.3095  1.8924  3.2104
43277SOL    HW233109  10.885   4.780   1.150  0.1889 -1.5822 -1.7662
43278SOL     OW33110   7.743   2.147  10.326  0.1915  0.5710 -0.0739
43278SOL    HW133111   7.759   2.219  10.387 -0.3569  1.0242 -0.4578
43278SOL    HW233112   7.797   2.075  10.359  0.4264  1.0267  0.5497
43279SOL     OW33113   9.177   6.591   3.925  0.3629 -0.1198 -0.0601
43279SOL    HW133114   9.179   6.684   3.906 -0.4442  0.1794  1.1584
43279SOL    HW233115   9.084   6.567   3.917  0.5218 -0.7465 -0.0660
43280SOL     OW33116   1.775   8.397   3.406 -0.0766  0.3023  0.1150
43280SOL    HW133117   1.751   8.314   3.447 -0.4432 -0.8658 -2.2820
43280SOL    HW233118   1.706   8.414   3.343  1.8071  0.5179 -2.0199
43281SOL     OW33119   1.203   6.105   0.043  0.1859  0.3138  0.0735
43281SOL    HW133120   1.168   6.016   0.041 -0.4001  0.5367 -1.9328
43281SOL    HW233121   1.264   6.109  -0.030  0.8137  1.3355  0.6293
43282SOL     OW33122   7.782   9.400   2.670 -0.2236 -0.0868 -0.2710
43282SOL    HW133123   7.832   9.327   2.634  0.1450 -0.3383  0.7293
43282SOL    HW233124   7.714   9.359   2.723 -2.0729  0.2130 -2.2450
43283SOL     OW33125   4.788   0.320   9.324 -0.5924  0.2017  0.0636
43283SOL    HW133126   4.852   0.346   9.390 -2.3363  2.0983  1.1399
43283SOL    HW233127   4.838   0.318   9.242  0.8965  1.3930  0.8792
43284SOL     OW33128   1.313   9.721   6.137  0.0656  0.8197  0.2456
43284SOL    HW133129   1.375   9.661   6.094 -1.7790 -0.3622 -0.9391
43284SOL    HW233130   1.347   9.808   6.116  0.8862  0.2268 -1.1034
43285SOL     OW33131   1.484   4.060   0.432  0.4257  0.3026 -0.0533
43285SOL    HW133132   1.399   4.101   0.418  0.7261  1.6590  1.6428
43285SOL    HW233133   1.469   3.998   0.504  0.4853 -0.8721 -1.0288
43286SOL     OW33134   9.593   3.786   0.695 -0.0532  0.5851 -0.0007
43286SOL    HW133135   9.675   3.834   0.699 -0.7939  1.8604  0.6524
43286SOL    HW233136   9.536   3.830   0.758 -0.1439 -2.4436  2.2844
43287SOL     OW33137   9.550   9.281   0.718  0.2381  0.1820  0.0865
43287SOL    HW133138   9.568   9.370   0.686  1.1597  0.3134  0.9326
43287SOL    HW233139   9.608   9.225   0.668  0.0570  0.1208 -0.0550
43288SOL     OW33140   1.221   0.296   0.172 -0.1396 -0.2451 -0.4137
43288SOL    HW133141   1.139   0.322   0.215  0.6943  0.3067  0.8956
43288SOL    HW233142   1.218   0.201   0.170 -0.7424 -0.2323 -0.2456
43289SOL     OW33143   5.617  11.357   0.742 -0.2020  0.3168 -0.3587
43289SOL    HW133144   5.647  11.441   0.777 -0.4381 -0.0199  0.6955
43289SOL    HW233145   5.553  11.381   0.674 -0.6580  0.9894  0.2912
43290SOL     OW33146   2.789   0.123   6.544  0.9529 -0.2676 -0.5433
43290SOL    HW133147   2.849   0.051   6.564  0.1542 -0.3750  1.7973
43290SOL    HW233148   2.780   0.170   6.627  0.1072  1.5249 -1.5874
43291SOL     OW33149   0.748   8.320   7.715 -0.3016 -0.1402 -0.4137
43291SOL    HW133150   0.802   8.383   7.668 -0.2403  1.0620  1.1872
43291SOL    HW233151   0.725   8.364   7.797 -1.0555 -1.8436  0.3448
43292SOL     OW33152   5.842   0.890   6.089 -0.1887  0.6569 -0.2019
43292SOL    HW133153   5.908   0.846   6.143 -1.3066  0.3648  0.9831
43292SOL    HW233154   5.881   0.893   6.001  1.7229  1.2304  0.6132
43293SOL     OW33155   6.223   1.769   9.343 -0.7619 -0.0015 -0.1568
43293SOL    HW133156   6.274   1.732   9.271 -2.0553 -0.1159 -1.0545
43293SOL    HW233157   6.181   1.846   9.304  0.7246  1.6010  1.2710
43294SOL     OW33158   2.321   7.263   1.300  0.4874  0.1750 -0.2298
43294SOL    HW133159   2.389   7.197   1.283  1.3098  0.4310  1.7420
43294SOL    HW233160   2.263   7.258   1.224  2.8548  0.1474 -2.1610
43295SOL     OW33161   1.730   4.642   1.322 -0.1592 -0.0695  0.2225
43295SOL    HW133162   1.815   4.682   1.340 -0.9795  0.8923  2.2778
43295SOL    HW233163   1.680   4.709   1.275  0.2584 -0.7329 -1.2329
43296SOL     OW33164  10.696   9.944   4.945 -0.8506  0.2138 -0.3071
43296SOL    HW133165  10.644  10.017   4.912  1.1424  1.5905 -0.5254
43296SOL    HW233166  10.690   9.878   4.876 -1.9101  0.4963 -0.5175
43297SOL     OW33167   6.547   0.670   1.069 -0.1508  0.2568  0.7938
43297SOL    HW133168   6.495   0.632   1.140  0.0468 -1.3947  0.1083
43297SOL    HW233169   6.598   0.596   1.035 -0.2900  0.9785 -1.1099
43298SOL     OW33170   6.179   9.595   0.043  0.0998  0.2706  0.2840
43298SOL    HW133171   6.178   9.508   0.004 -1.4426 -0.2627  1.4303
43298SOL    HW233172   6.159   9.655  -0.029  1.1978 -0.2787 -0.5169
43299SOL     OW33173   0.133   2.898   1.908  0.6728 -0.0973  0.0041
43299SOL    HW133174   0.042   2.870   1.916 -0.6228  3.3347 -1.1678
43299SOL    HW233175   0.155   2.885   1.816  0.0903  2.3048 -0.5346
43300SOL     OW33176  11.056   8.226   7.931  0.2712  0.4607 -0.0931
43300SOL    HW133177  11.144   8.193   7.913  0.2601  0.5094 -0.2306
43300SOL    HW233178  11.036   8.192   8.019 -0.1866 -0.8411 -0.6790
43301SOL     OW33179   0.452   6.726  10.161 -0.2937  0.1522 -0.0361
43301SOL    HW133180   0.502   6.778  10.224  0.5538 -0.7218  0.0474
43301SOL    HW233181   0.492   6.746  10.077 -0.8416  0.6404 -0.1852
43302SOL     OW33182   9.981   4.330   4.610  0.2492  0.1234  0.2583
43302SOL    HW133183   9.906   4.366   4.658 -0.1057  0.7110 -0.7180
43302SOL    HW233184   9.958   4.238   4.596 -0.7771  0.5286 -0.9100
43303SOL     OW33185   8.960   9.938   7.156  0.0178 -0.3572  0.0766
43303SOL    HW133186   8.928   9.848   7.165  0.5015 -0.4103  1.5108
43303SOL    HW233187   8.882   9.992   7.167 -0.1924 -0.5730 -0.3027
43304SOL     OW33188   8.658  10.605   6.095 -0.5142 -0.2534 -0.5284
43304SOL    HW133189   8.619  10.683   6.135  0.2410 -0.5226  0.7592
43304SOL    HW233190   8.653  10.537   6.162  0.1846 -0.9124 -1.1144
43305SOL     OW33191  10.523   8.320   1.908 -0.7354 -0.1283 -0.3828
43305SOL    HW133192  10.617   8.306   1.898 -0.6588  0.6284 -0.7983
43305SOL    HW233193  10.487   8.233   1.925  0.0463 -0.4103 -0.1564
43306SOL     OW33194   2.145   4.027  10.622  0.2311 -0.9006  0.5936
43306SOL    HW133195   2.137   4.001  10.713  1.8046 -0.6377  0.8280
43306SOL    HW233196   2.138   4.122  10.623  1.9259 -0.7476  0.6789
43307SOL     OW33197   4.706   4.340   3.060  0.7527 -0.4802  0.3813
43307SOL    HW133198   4.794   4.377   3.057  1.3695 -1.8121  1.1149
43307SOL    HW233199   4.648   4.416   3.061  1.8794  0.4237 -0.0810
43308SOL     OW33200   1.940  11.092   7.948 -0.6420  0.5712  0.2547
43308SOL    HW133201   1.951  11.186   7.940 -2.1679  0.6435 -1.4471
43308SOL    HW233202   1.847  11.080   7.966 -0.2386 -0.5796  1.8261
43309SOL     OW33203   9.826   8.231   2.938  0.8592 -0.0492 -0.0648
43309SOL    HW133204   9.817   8.280   3.019  2.2697  0.1822 -0.0369
43309SOL    HW233205   9.739   8.236   2.898  0.4724  0.8516  0.8489
43310SOL     OW33206   9.870   1.060   9.003  0.3687  0.1435  0.6056
43310SOL    HW133207   9.800   1.038   9.065  1.1829 -1.7260  0.9275
43310SOL    HW233208   9.909   1.140   9.038 -1.4710  1.1441  0.5000
43311SOL     OW33209   8.550   8.002   7.275  0.3783 -0.2556 -0.5437
43311SOL    HW133210   8.581   7.943   7.343 -1.1056 -0.3981  0.0427
43311SOL    HW233211   8.535   7.946   7.199 -0.7121 -0.6220 -0.0856
43312SOL     OW33212  11.391   3.700   3.294  0.0833 -0.4837  0.1624
43312SOL    HW133213  11.477   3.742   3.299 -0.8188  1.4013  0.9558
43312SOL    HW233214  11.395   3.647   3.214  1.4986  0.7084 -0.6135
43313SOL     OW33215   8.247  10.866   9.705  0.1456 -0.2067  0.5692
43313SOL    HW133216   8.273  10.792   9.651  0.8840  0.2934  0.2273
43313SOL    HW233217   8.322  10.883   9.762  0.1664  0.5598  0.3308
43314SOL     OW33218  10.648   8.990   2.880 -0.1565 -0.2245  0.3611
43314SOL    HW133219  10.689   9.015   2.797 -1.1871  0.6913  0.1046
43314SOL    HW233220  10.670   9.062   2.940 -2.9275  1.2979 -0.3067
43315SOL     OW33221   3.441   0.390   3.486 -0.2356  0.0234 -1.3194
43315SOL    HW133222   3.406   0.479   3.481 -0.8030 -0.2433 -2.3117
43315SOL    HW233223   3.371   0.339   3.527  0.2058  0.0765 -0.4697
43316SOL     OW33224   2.455  10.010   2.735 -0.0954 -0.1314 -0.0549
43316SOL    HW133225   2.471  10.008   2.641 -2.1778 -1.7840 -0.4489
43316SOL    HW233226   2.525   9.955   2.773 -1.4946 -2.8205 -1.1232
43317SOL     OW33227   5.554   0.898   4.535 -0.4980  0.2314  0.4543
43317SOL    HW133228   5.579   0.816   4.492 -0.8479  0.3697 -0.0086
43317SOL    HW233229   5.492   0.939   4.476  0.2051  1.1745  0.3552
43318SOL     OW33230   0.973   9.862   9.529  0.4967  0.1832  0.1093
43318SOL    HW133231   0.979   9.800   9.602  0.4394  1.4241  1.2155
43318SOL    HW233232   1.048   9.921   9.542  0.4494  0.4502 -0.8088
43319SOL     OW33233   4.596   9.112  10.011  0.5715  0.2923  0.3596
43319SOL    HW133234   4.578   9.069  10.095 -1.4156 -1.4915 -0.8855
43319SOL    HW233235   4.562   9.201  10.022 -2.5517 -0.7916  0.5710
43320SOL     OW33236   7.155   4.663   0.362 -0.0705  0.1885  0.0796
43320SOL    HW133237   7.230   4.660   0.420 -0.5298 -0.7715  0.6535
43320SOL    HW233238   7.087   4.708   0.412  0.2319  1.4323 -0.5920
43321SOL     OW33239   3.395   0.527   9.045  0.2393 -0.3938 -0.1177
43321SOL    HW133240   3.330   0.592   9.070  2.1186  1.8904 -0.7969
43321SOL    HW233241   3.355   0.481   8.970 -1.5438 -0.7992  1.0234
43322SOL     OW33242   8.371   2.633   9.078 -0.2046 -0.0859 -0.2996
43322SOL    HW133243   8.392   2.669   8.992 -1.7374 -0.0930 -0.7124
43322SOL    HW233244   8.432   2.561   9.090  1.7564  1.4901 -0.2239
43323SOL     OW33245   5.346  11.382   8.517 -0.0517 -0.0467 -0.3133
43323SOL    HW133246   5.255  11.352   8.529 -0.0143  0.0903  0.3800
43323SOL    HW233247   5.373  11.409   8.605  0.8422 -0.6020 -0.4095
43324SOL     OW33248   9.689   7.944  10.372  0.0233 -0.0127 -0.0536
43324SOL    HW133249   9.657   7.867  10.326  2.5835 -0.6953 -0.8368
43324SOL    HW233250   9.759   7.979  10.316  0.9677  1.1153  1.7044
43325SOL     OW33251   2.998   8.862   7.036 -0.5184 -0.0423  0.7070
43325SOL    HW133252   3.015   8.826   7.123  0.5441 -0.4353  0.3483
43325SOL    HW233253   2.932   8.804   6.998  0.2155 -0.8525  0.6389
43326SOL     OW33254   4.798   9.371   0.631 -0.3897  0.0480 -0.0490
43326SOL    HW133255   4.818   9.301   0.693 -0.4605 -0.3573 -0.4808
43326SOL    HW233256   4.724   9.418   0.671  0.4451  0.6512  0.8424
43327SOL     OW33257  11.144   5.317   4.335  0.3521 -0.0430  0.0925
43327SOL    HW133258  11.238   5.314   4.353  0.3409  0.0765  0.1641
43327SOL    HW233259  11.134   5.271   4.251  0.5642  0.5803 -0.2822
43328SOL     OW33260  10.514  10.792   6.333 -0.1836 -0.4691  0.0782
43328SOL    HW133261  10.564  10.833   6.403  0.2141 -2.2776  0.8812
43328SOL    HW233262  10.541  10.839   6.254 -1.1445  2.0711  1.1467
43329SOL     OW33263   3.666   0.427   6.483 -0.2083  0.1397  0.1229
43329SOL    HW133264   3.720   0.463   6.413 -2.2756  2.9816 -0.1455
43329SOL    HW233265   3.590   0.390   6.438 -1.1306  1.1985  0.7737
43330SOL     OW33266   4.432   0.716   2.118  0.2610  0.1442 -0.1178
43330SOL    HW133267   4.504   0.653   2.116  1.7836  1.8157 -0.3038
43330SOL    HW233268   4.452   0.773   2.193 -0.4249  1.1215 -0.6529
43331SOL     OW33269   9.660   8.438   0.262 -0.3377  0.3572  0.2451
43331SOL    HW133270   9.619   8.512   0.307  0.4164  0.0100  1.5486
43331SOL    HW233271   9.676   8.373   0.330 -0.3928 -0.7648 -0.7621
43332SOL     OW33272   5.814   7.204  10.327  0.1195  0.0111 -0.2650
43332SOL    HW133273   5.793   7.271  10.391 -0.3792 -0.4568  0.0650
43332SOL    HW233274   5.750   7.216  10.257  0.2378  0.0871 -0.3608
43333SOL     OW33275   9.650   2.763   8.124  0.1001 -0.2909  0.0704
43333SOL    HW133276   9.582   2.772   8.191 -0.4055 -0.5028 -0.4053
43333SOL    HW233277   9.731   2.788   8.169 -0.6051  2.5222 -0.0484
43334SOL     OW33278  10.632   3.219   4.482  0.0119  0.1970 -0.3940
43334SOL    HW133279  10.602   3.177   4.562  0.8836 -1.3200 -0.8259
43334SOL    HW233280  10.650   3.310   4.507 -3.2316  0.7810  0.2524
43335SOL     OW33281   1.624   7.184  10.368  0.3224  0.5894  0.5397
43335SOL    HW133282   1.558   7.180  10.438 -1.6166  0.8717 -1.1889
43335SOL    HW233283   1.708   7.185  10.415 -0.7438 -2.1487  2.8163
43336SOL     OW33284   5.502   1.260   3.824 -0.2748  0.0636 -0.3531
43336SOL    HW133285   5.438   1.236   3.890 -0.1960 -1.2113 -0.7030
43336SOL    HW233286   5.527   1.176   3.784  1.9051  0.4478  0.0499
43337SOL     OW33287   8.046   2.007   7.200 -0.2764 -0.5222  0.7382
43337SOL    HW133288   7.985   1.999   7.273 -1.1798 -0.9689 -0.0422
43337SOL    HW233289   8.076   1.918   7.184  0.4820 -0.3257  1.0155
43338SOL     OW33290   9.130   3.664   4.609  0.4169  0.3856  0.3703
43338SOL    HW133291   9.135   3.753   4.576 -0.8395  0.4856  0.3872
43338SOL    HW233292   9.060   3.667   4.675 -1.4157 -1.0944 -1.3415
43339SOL     OW33293   3.489   6.082   7.907  0.1036  0.2516 -0.1602
43339SOL    HW133294   3.558   6.094   7.971  0.6780 -0.9939 -0.5122
43339SOL    HW233295   3.408   6.078   7.959  0.6238 -1.3695  0.5800
43340SOL     OW33296   0.725   9.301   0.304  0.3724  0.1783  0.2219
43340SOL    HW133297   0.647   9.254   0.332  0.2869  0.1497 -0.0616
43340SOL    HW233298   0.737   9.276   0.212 -0.5564  1.8993 -0.4162
43341SOL     OW33299   9.216   3.411   2.547 -0.2172 -0.5629 -0.1332
43341SOL    HW133300   9.200   3.351   2.620 -0.5188 -0.8017 -0.3954
43341SOL    HW233301   9.237   3.495   2.589  0.5133 -0.9289  0.2357
43342SOL     OW33302   7.803  11.333   9.288  0.1341  0.1061 -0.4983
43342SOL    HW133303   7.719  11.322   9.333 -0.0482  0.5841 -0.7107
43342SOL    HW233304   7.844  11.406   9.334 -0.0848  0.6471 -1.1491
43343SOL     OW33305   4.776   3.669  10.122 -0.1315 -0.2636  0.2895
43343SOL    HW133306   4.755   3.630  10.038 -1.2259 -1.7782  1.2057
43343SOL    HW233307   4.857   3.628  10.150  0.4229  0.5017 -0.1665
43344SOL     OW33308   4.688   1.557   7.004  0.3270 -0.2906 -0.5942
43344SOL    HW133309   4.662   1.511   7.084  3.0350  1.0483  1.1939
43344SOL    HW233310   4.645   1.642   7.011  1.2958  0.1685 -0.0454
43345SOL     OW33311   4.117   1.586   9.085 -0.4118 -0.0134  0.7214
43345SOL    HW133312   4.078   1.534   9.155  0.5036  0.4727  1.6166
43345SOL    HW233313   4.087   1.544   9.004 -0.5186 -1.3008  1.4030
43346SOL     OW33314   2.835   9.134   6.211  0.8717  0.0927 -0.1773
43346SOL    HW133315   2.760   9.076   6.228  1.3934 -0.7004 -0.4931
43346SOL    HW233316   2.861   9.113   6.121  0.6852  1.2822 -0.5185
43347SOL     OW33317  10.209   8.768   3.198 -0.0145 -0.1747  0.6023
43347SOL    HW133318  10.117   8.789   3.178  0.1433 -0.7346 -0.8251
43347SOL    HW233319  10.204   8.713   3.276 -1.0833 -1.7258 -0.4857
43348SOL     OW33320   9.953   9.733   9.586 -0.0399  0.4281 -0.6930
43348SOL    HW133321   9.922   9.672   9.654 -1.5167  0.5560 -1.2290
43348SOL    HW233322   9.964   9.679   9.508  2.0275  0.2055 -0.3140
43349SOL     OW33323   5.866   3.804   4.486 -0.0814 -0.2999  0.0436
43349SOL    HW133324   5.937   3.861   4.458 -1.2778  0.8363 -0.8588
43349SOL    HW233325   5.801   3.863   4.524 -1.0285 -1.1309 -0.2097
43350SOL     OW33326   6.270   9.835   6.540 -0.4723 -0.0744 -0.6056
43350SOL    HW133327   6.240   9.917   6.499  1.3981  0.1090 -1.7105
43350SOL    HW233328   6.356   9.819   6.502  0.2605 -1.2865  1.4098
43351SOL     OW33329   7.796   2.335  10.583  0.1268 -0.2729 -0.3733
43351SOL    HW133330   7.806   2.249  10.623 -0.2520 -1.1752 -2.1676
43351SOL    HW233331   7.718   2.372  10.624  0.3980 -0.6798  0.5352
43352SOL     OW33332  10.218   3.801  11.353 -0.2851  0.2289 -0.1573
43352SOL    HW133333  10.288   3.862  11.376  0.1914 -0.2204 -0.4049
43352SOL    HW233334  10.238   3.721  11.401  0.0621 -0.3188 -1.1781
43353SOL     OW33335   3.731   7.903   1.671 -0.0485  0.0754  0.0867
43353SOL    HW133336   3.743   7.855   1.589 -0.8114  0.0035  0.0102
43353SOL    HW233337   3.663   7.853   1.718 -0.9313  1.1198 -0.0377
43354SOL     OW33338   0.318   0.490   6.819 -0.8710 -0.3495 -0.0398
43354SOL    HW133339   0.311   0.564   6.758  0.1663 -0.1958  0.0048
43354SOL    HW233340   0.281   0.522   6.901  2.1516  1.2012  0.8748
43355SOL     OW33341  10.842   2.241   5.412  0.4696  0.1709  0.0911
43355SOL    HW133342  10.916   2.228   5.352 -0.8410 -0.0971 -1.5262
43355SOL    HW233343  10.816   2.152   5.437 -1.4106  0.0363 -2.0689
43356SOL     OW33344  10.235   7.289   9.333 -0.0824 -0.3582  0.2480
43356SOL    HW133345  10.239   7.277   9.428  0.3236  0.8111  0.3908
43356SOL    HW233346  10.197   7.376   9.321 -2.1244 -1.3042 -0.7230
43357SOL     OW33347  11.004   8.021   9.692  0.3153 -0.0233 -0.1195
43357SOL    HW133348  11.092   7.990   9.715 -0.0988 -1.0419  0.1786
43357SOL    HW233349  10.948   7.984   9.760 -0.7023 -1.6441 -1.7540
43358SOL     OW33350  10.454   9.632   0.033 -0.2332 -0.2593 -0.4710
43358SOL    HW133351  10.479   9.626   0.125  1.2387 -0.9731 -0.8897
43358SOL    HW233352  10.387   9.564   0.022 -1.0094  0.3611  0.2246
43359SOL     OW33353   3.772   5.203  10.402 -0.2814  0.3261  0.1247
43359SOL    HW133354   3.765   5.292  10.367  1.5562  0.7562  0.7211
43359SOL    HW233355   3.865   5.193  10.422 -0.5386 -1.5782  0.5077
43360SOL     OW33356   6.467   8.799   0.570 -0.3366  0.0830  0.3699
43360SOL    HW133357   6.375   8.772   0.574 -0.4093  0.4137  3.9634
43360SOL    HW233358   6.464   8.894   0.572 -0.0157  0.1149  2.8161
43361SOL     OW33359  10.353   3.467   2.961  0.1235 -0.3140  0.1888
43361SOL    HW133360  10.296   3.417   2.902  1.1434 -0.9162 -0.3147
43361SOL    HW233361  10.293   3.504   3.026 -1.3104  1.6890 -2.0574
43362SOL     OW33362   3.100   9.023   2.186  0.2731 -0.0329 -0.3238
43362SOL    HW133363   3.048   9.097   2.156 -0.2732 -0.4983 -0.5413
43362SOL    HW233364   3.036   8.960   2.219  0.7956  0.0479  0.8987
43363SOL     OW33365   6.487  10.861   3.998 -0.6185 -0.3812 -0.2938
43363SOL    HW133366   6.434  10.936   4.023 -0.7056 -1.0227  1.5743
43363SOL    HW233367   6.440  10.823   3.924 -0.5580  1.3742 -1.2972
43364SOL     OW33368   3.561   2.605   9.934 -0.3663  0.2622 -0.3734
43364SOL    HW133369   3.480   2.631   9.978 -0.8696 -0.1280 -1.0442
43364SOL    HW233370   3.565   2.661   9.856 -0.3283 -0.1618 -0.6802
43365SOL     OW33371  10.344   3.848   8.608  0.3634  0.1335 -0.0661
43365SOL    HW133372  10.435   3.865   8.583  1.8540  0.4757  4.7386
43365SOL    HW233373  10.336   3.752   8.608  0.7914  0.0968 -0.1559
43366SOL     OW33374   2.733   6.324   8.943 -0.2780 -0.2263  0.1677
43366SOL    HW133375   2.790   6.250   8.923  0.4563  0.7659 -1.6090
43366SOL    HW233376   2.659   6.314   8.883  0.2465  0.9024 -0.7091
43367SOL     OW33377   4.822   9.177   0.811 -0.3009  0.4602  0.0728
43367SOL    HW133378   4.807   9.178   0.906  0.0621  0.7851  0.1317
43367SOL    HW233379   4.895   9.117   0.799 -0.2624  0.5202  0.0106
43368SOL     OW33380   8.843   3.809   6.284 -0.3263 -0.3250  0.6293
43368SOL    HW133381   8.848   3.715   6.271  1.9945 -0.1415 -0.3083
43368SOL    HW233382   8.882   3.847   6.205 -1.5209  1.4513  0.8216
43369SOL     OW33383  10.459   7.266   2.311 -0.2158 -0.3548 -0.2820
43369SOL    HW133384  10.501   7.202   2.254  1.4746  1.0331 -0.6690
43369SOL    HW233385  10.501   7.254   2.396  1.9895  1.8195 -0.9482
43370SOL     OW33386   5.179   4.653   6.497 -0.1615  0.4835  0.2325
43370SOL    HW133387   5.147   4.741   6.478  0.4781  0.6416 -0.1149
43370SOL    HW233388   5.254   4.641   6.439 -1.1982 -0.8900 -0.8767
43371SOL     OW33389   3.396  11.074  10.765 -1.1277 -0.1093 -0.1745
43371SOL    HW133390   3.394  11.017  10.688  0.4402 -0.0470 -0.2960
43371SOL    HW233391   3.376  11.016  10.839 -0.6376 -0.6092 -0.4240
43372SOL     OW33392  11.116   4.911   8.894 -0.2359 -0.0526  0.2057
43372SOL    HW133393  11.067   4.925   8.813 -2.6771 -3.8904  0.7887
43372SOL    HW233394  11.201   4.878   8.865 -1.1731 -1.6250 -0.8505
43373SOL     OW33395   6.338   3.154   6.873 -0.2459  0.4218 -0.1120
43373SOL    HW133396   6.293   3.112   6.946  0.0705  1.0698  0.4616
43373SOL    HW233397   6.362   3.081   6.815 -3.4634  0.1407 -1.2844
43374SOL     OW33398   5.762   1.535   6.262  0.3961 -0.3288  0.2640
43374SOL    HW133399   5.850   1.549   6.297  0.3464 -0.2040  0.3402
43374SOL    HW233400   5.725   1.467   6.319 -0.1960  0.8679  1.3594
43375SOL     OW33401  10.728   0.624   6.280  0.0701 -0.5010 -0.0634
43375SOL    HW133402  10.688   0.621   6.367  0.9687 -0.6404  0.3576
43375SOL    HW233403  10.774   0.541   6.271 -0.1786 -0.5741 -0.7608
43376SOL     OW33404  10.751   4.551   6.570 -0.3704  0.0904 -0.1555
43376SOL    HW133405  10.797   4.618   6.619  0.8558 -0.6037 -0.3109
43376SOL    HW233406  10.758   4.472   6.623  0.2771 -0.4773 -1.0470
43377SOL     OW33407   2.294   4.558  10.635 -0.2842 -0.5507  0.1325
43377SOL    HW133408   2.312   4.482  10.691 -2.4329 -0.7121  0.6706
43377SOL    HW233409   2.319   4.529  10.547  0.7419 -1.1786  0.6107
43378SOL     OW33410   7.029   7.081   5.536  0.1691 -0.2606 -0.3760
43378SOL    HW133411   7.016   7.174   5.520  0.9549 -0.4138 -2.1811
43378SOL    HW233412   7.066   7.048   5.454  0.3169 -2.0781  0.3814
43379SOL     OW33413   1.096  10.616   8.127 -0.2257 -0.6577  0.1637
43379SOL    HW133414   1.098  10.610   8.223 -1.2879 -1.3248  0.1682
43379SOL    HW233415   1.022  10.675   8.109  0.4693  0.1097 -0.2421
43380SOL     OW33416  10.577  10.091  10.595 -0.2660 -0.3565 -0.1391
43380SOL    HW133417  10.538  10.102  10.682 -1.5789 -0.8769 -0.6480
43380SOL    HW233418  10.507  10.055  10.541 -0.3011  2.3303 -2.1105
43381SOL     OW33419   3.055   0.361   3.696 -0.5907 -0.2903  0.0113
43381SOL    HW133420   3.081   0.423   3.764 -1.1517 -0.8063  0.7145
43381SOL    HW233421   3.033   0.281   3.744 -1.2559 -0.5778 -0.7595
43382SOL     OW33422  10.860   9.520   9.489 -0.0972  0.5368  0.7035
43382SOL    HW133423  10.894   9.433   9.468 -3.1036 -0.1741 -1.7867
43382SOL    HW233424  10.929   9.580   9.459  0.5197 -0.8812 -0.8575
43383SOL     OW33425  10.650   7.022   8.520 -0.1166 -0.6134  0.0227
43383SOL    HW133426  10.648   7.097   8.579 -2.5947 -0.0057 -0.6934
43383SOL    HW233427  10.739   7.021   8.486 -0.1008  2.4100 -0.3649
43384SOL     OW33428   9.878   5.280   7.726 -0.0820  0.1925  0.2867
43384SOL    HW133429   9.802   5.303   7.673  0.1518 -1.3743 -0.8075
43384SOL    HW233430   9.952   5.323   7.682 -0.2656  1.4971  1.1986
43385SOL     OW33431  10.604   0.450   0.028 -0.1643  0.5048  0.3535
43385SOL    HW133432  10.531   0.397   0.060  0.4477  0.1970  1.2744
43385SOL    HW233433  10.578   0.540   0.044  0.1962  0.3616  1.9488
43386SOL     OW33434   8.769   9.876  10.640  0.0122  0.0930 -0.3872
43386SOL    HW133435   8.728   9.812  10.698 -0.2706 -0.5015 -1.2358
43386SOL    HW233436   8.791   9.950  10.698 -0.0627 -0.5738  0.5162
43387SOL     OW33437   2.669   1.867   6.860 -0.4228  0.3567 -0.5839
43387SOL    HW133438   2.660   1.772   6.864  0.4420  0.3049  1.3444
43387SOL    HW233439   2.605   1.900   6.923 -0.0876  0.9957 -0.5622
43388SOL     OW33440   8.527   3.544   6.174 -0.5076  0.5010  0.2898
43388SOL    HW133441   8.454   3.605   6.172  0.9588  2.3258  0.4065
43388SOL    HW233442   8.575   3.560   6.093 -0.5118 -1.0415 -0.0448
43389SOL     OW33443   2.552  10.812   2.237  0.2871 -0.4603  0.0642
43389SOL    HW133444   2.554  10.839   2.145 -1.7348 -1.6034 -0.3783
43389SOL    HW233445   2.634  10.764   2.250  0.5314 -0.4061 -1.1835
43390SOL     OW33446   4.718   5.165   8.691  0.1577 -0.1751  0.4535
43390SOL    HW133447   4.809   5.160   8.721 -0.3397 -1.9454  1.9305
43390SOL    HW233448   4.690   5.073   8.685 -0.9290  0.2482 -2.0417
43391SOL     OW33449   6.672   6.907   8.250 -0.1567 -0.2099 -0.8539
43391SOL    HW133450   6.618   6.831   8.272  1.0933 -0.8725  0.0286
43391SOL    HW233451   6.619   6.982   8.277 -1.1277 -0.7775 -1.1227
43392SOL     OW33452   1.037   5.213   7.771 -0.0242 -0.1359  0.0540
43392SOL    HW133453   1.130   5.194   7.772 -0.4032 -2.3658  2.3363
43392SOL    HW233454   1.031   5.307   7.786  1.8393 -0.0692  0.5875
43393SOL     OW33455  10.217  10.247  10.473 -0.3648 -0.3267 -0.1768
43393SOL    HW133456  10.156  10.318  10.453 -0.9861 -0.3505  1.4138
43393SOL    HW233457  10.295  10.266  10.421 -1.3026  0.3393 -1.3902
43394SOL     OW33458   1.925   2.585  10.621  0.8676  0.1348 -0.3660
43394SOL    HW133459   1.865   2.520  10.585  0.1333  0.0870  0.8803
43394SOL    HW233460   1.885   2.611  10.704  3.0711 -0.6579  1.0465
43395SOL     OW33461   1.342   8.102  10.412 -0.4361 -0.7549  0.3063
43395SOL    HW133462   1.413   8.049  10.376  0.3637 -0.2218  1.0558
43395SOL    HW233463   1.266   8.081  10.358  0.2434 -1.4905 -0.3804
43396SOL     OW33464   9.470   9.022   9.670 -0.1446  0.2009 -0.2899
43396SOL    HW133465   9.439   9.110   9.689  0.3281  0.6615 -1.5547
43396SOL    HW233466   9.392   8.967   9.675 -0.3349  0.5667  1.1336
43397SOL     OW33467   0.215   0.258   8.621  0.3309 -0.0839  0.3253
43397SOL    HW133468   0.303   0.219   8.623 -0.5795 -2.2347  1.2606
43397SOL    HW233469   0.206   0.291   8.532  0.8085 -3.1013 -0.9787
43398SOL     OW33470   8.948   1.931   6.563 -0.0554 -0.3497 -0.3070
43398SOL    HW133471   8.943   1.840   6.533 -0.5408 -1.0156  1.6200
43398SOL    HW233472   8.967   1.924   6.656 -0.8222  1.5221  0.0297
43399SOL     OW33473   3.766   5.615   7.108 -0.1898  0.3844  0.4607
43399SOL    HW133474   3.749   5.547   7.174 -1.1339  0.2564  0.0911
43399SOL    HW233475   3.688   5.615   7.053  0.3070  0.9642 -0.2517
43400SOL     OW33476   1.890   3.256   2.724 -0.0064 -0.7628 -0.0017
43400SOL    HW133477   1.820   3.190   2.722  0.3373 -1.1382  0.3480
43400SOL    HW233478   1.913   3.268   2.632  0.7976 -2.0684  0.0048
43401SOL     OW33479   8.646   7.588   4.711 -0.0229 -0.4051 -0.0578
43401SOL    HW133480   8.559   7.567   4.743  0.4963 -0.4730  1.3766
43401SOL    HW233481   8.673   7.511   4.660 -0.8439 -0.3160 -0.6398
43402SOL     OW33482   9.838   2.971   4.891 -0.3410  0.0379 -0.0648
43402SOL    HW133483   9.836   2.901   4.826  1.3097  0.3447 -0.5070
43402SOL    HW233484   9.834   2.925   4.975 -0.4286 -0.5099 -0.3627
43403SOL     OW33485   2.794   3.412   2.891  0.4920  0.1013 -0.0989
43403SOL    HW133486   2.711   3.430   2.846  1.3470  0.1738 -1.7279
43403SOL    HW233487   2.861   3.445   2.831  1.8234 -2.1664  0.0477
43404SOL     OW33488   8.262   8.667   9.389 -0.4040  0.3703  0.4775
43404SOL    HW133489   8.313   8.640   9.465  0.4322  0.7951  0.0741
43404SOL    HW233490   8.293   8.611   9.318 -2.6066 -1.4570  0.8523
43405SOL     OW33491   1.262   8.224   4.398  0.5482  0.0535 -0.2222
43405SOL    HW133492   1.171   8.250   4.416  0.9336  1.5364 -0.2515
43405SOL    HW233493   1.294   8.190   4.481  0.1342  0.0848 -0.0488
43406SOL     OW33494   7.992   7.421   0.856 -0.9051  0.1738 -0.2086
43406SOL    HW133495   8.003   7.326   0.849  1.7973  0.3939 -0.2977
43406SOL    HW233496   7.939   7.434   0.935  1.3112 -1.4136  1.6876
43407SOL     OW33497  10.194  11.204   7.677  0.1345  0.8388  0.1637
43407SOL    HW133498  10.235  11.222   7.762 -0.0859  2.7099 -0.0746
43407SOL    HW233499  10.264  11.165   7.624 -0.2610 -2.3940  1.7677
43408SOL     OW33500   8.088   4.556   3.073 -0.1861  0.3465  0.3561
43408SOL    HW133501   8.134   4.615   3.013 -1.1033  1.0569  0.3146
43408SOL    HW233502   7.998   4.555   3.041 -0.3592 -0.4659  0.8357
43409SOL     OW33503   1.729   3.720  10.668 -0.2505 -0.6507 -0.0375
43409SOL    HW133504   1.822   3.704  10.687  0.5113  1.8677 -1.1829
43409SOL    HW233505   1.695   3.634  10.644  2.3093 -1.3782 -1.5451
43410SOL     OW33506  10.406   4.176   7.264  0.1459  0.5516  0.5672
43410SOL    HW133507  10.311   4.165   7.262 -0.1596  2.0316  2.9052
43410SOL    HW233508  10.436   4.141   7.180 -2.1935 -1.9533  0.6320
43411SOL     OW33509   4.793  10.321  10.784  0.1706 -0.0533 -0.2452
43411SOL    HW133510   4.737  10.250  10.817 -2.0441  0.9401 -1.6747
43411SOL    HW233511   4.751  10.349  10.703  1.5709  2.2022 -0.2717
43412SOL     OW33512   3.943   0.725   4.973 -0.3214  0.6938 -0.0108
43412SOL    HW133513   3.866   0.696   4.925 -0.4393  0.4899  0.2988
43412SOL    HW233514   3.958   0.656   5.038 -1.2195  1.7988  1.4254
43413SOL     OW33515   6.710   6.675   8.601 -0.1087 -0.1103  0.5186
43413SOL    HW133516   6.781   6.688   8.664 -0.4439  1.5131  0.6114
43413SOL    HW233517   6.728   6.739   8.532 -0.7818 -0.5749 -0.1012
43414SOL     OW33518   4.579   3.739   1.657  0.1553  0.3833  0.2434
43414SOL    HW133519   4.491   3.722   1.692  1.0076 -0.5563  2.1244
43414SOL    HW233520   4.576   3.704   1.568 -1.0888 -0.6268  0.6353
43415SOL     OW33521   6.884   7.091   8.991  0.0578  0.2801 -0.1512
43415SOL    HW133522   6.909   7.021   8.931  0.9594 -0.0877  0.6346
43415SOL    HW233523   6.789   7.099   8.980  0.0497 -0.5496 -0.7991
43416SOL     OW33524   7.941   6.405   1.448  0.5218 -0.3842 -0.5851
43416SOL    HW133525   7.861   6.366   1.414  0.5400  0.7565 -2.0182
43416SOL    HW233526   8.007   6.336   1.438 -0.4003 -1.6382  1.3985
43417SOL     OW33527   9.186   6.003   3.794 -0.4325 -0.1662 -0.1872
43417SOL    HW133528   9.092   5.987   3.797 -0.4778 -0.6822 -2.5974
43417SOL    HW233529   9.225   5.918   3.815 -0.4834 -0.0954  0.2162
43418SOL     OW33530   2.497   2.215   2.658  0.9157 -0.1143 -0.3245
43418SOL    HW133531   2.512   2.296   2.610 -0.2248 -0.2864 -0.9895
43418SOL    HW233532   2.581   2.196   2.700  1.2860  1.2260 -0.4309
43419SOL     OW33533   7.733   4.303   1.208  0.1038  0.2135  0.3921
43419SOL    HW133534   7.800   4.352   1.162 -1.1276 -0.6037 -2.4771
43419SOL    HW233535   7.670   4.369   1.237 -1.2796  0.6004 -2.9842
43420SOL     OW33536   4.325   0.103   0.716  0.3369 -0.6617  0.2526
43420SOL    HW133537   4.376   0.117   0.637 -0.8476  0.6677 -0.3210
43420SOL    HW233538   4.355   0.018   0.749  2.7855 -0.0140 -0.1040
43421SOL     OW33539   1.629   1.021   7.364 -0.0636 -0.3771 -0.1803
43421SOL    HW133540   1.696   0.985   7.421 -2.0389 -1.9293  1.2748
43421SOL    HW233541   1.658   0.997   7.276  0.8769 -1.7492  0.4584
43422SOL     OW33542   8.147   3.876   8.112  0.1483  0.1440 -0.6191
43422SOL    HW133543   8.071   3.823   8.139  0.4394  0.5788  1.1331
43422SOL    HW233544   8.110   3.962   8.093 -0.0345 -0.1238 -1.5636
43423SOL     OW33545   1.652   3.940   6.924 -0.1370  0.9830 -0.9559
43423SOL    HW133546   1.697   3.910   7.003  0.0924  0.8706 -1.1285
43423SOL    HW233547   1.561   3.917   6.939  0.1797 -0.8554 -1.5696
43424SOL     OW33548   1.151   0.087   0.539 -0.1036 -0.7398 -0.0831
43424SOL    HW133549   1.059   0.067   0.523 -0.8094  0.8224  1.6178
43424SOL    HW233550   1.152   0.180   0.560  1.7110 -0.9551  1.0278
43425SOL     OW33551   3.029   0.149   5.567 -0.1629  0.0145  0.0024
43425SOL    HW133552   3.062   0.236   5.590 -0.4195 -0.0354  0.5734
43425SOL    HW233553   2.936   0.163   5.548 -0.4655 -0.2963  1.1483
43426SOL     OW33554  11.385  10.833   3.658 -0.3428  0.3562  0.1959
43426SOL    HW133555  11.415  10.773   3.727  0.3958  1.4460  0.8534
43426SOL    HW233556  11.394  10.920   3.696 -0.8501  0.9301 -0.9440
43427SOL     OW33557   0.887   6.650  11.117  0.2904 -0.2389 -0.2872
43427SOL    HW133558   0.833   6.574  11.142  0.6127 -0.1551  0.7080
43427SOL    HW233559   0.954   6.655  11.185 -0.6292  1.8694  0.5453
43428SOL     OW33560   9.206   2.246  10.032 -0.3334  0.5786  0.0791
43428SOL    HW133561   9.122   2.292  10.024 -1.1417 -0.8910 -0.1184
43428SOL    HW233562   9.183   2.154  10.036  1.3072  0.1239 -0.2437
43429SOL     OW33563   1.312   3.541   9.882 -0.0698  0.1806 -0.1065
43429SOL    HW133564   1.353   3.628   9.889  0.6211 -0.1676  0.3355
43429SOL    HW233565   1.242   3.552   9.818  0.1905  0.9991 -0.2605
43430SOL     OW33566   1.241   2.803  10.995 -0.7108 -0.7593  0.3345
43430SOL    HW133567   1.160   2.848  10.972  0.0828  0.9371  0.7070
43430SOL    HW233568   1.308   2.842  10.939  0.2133 -0.6115  1.4887
43431SOL     OW33569  10.255   8.886   5.387  0.1217  0.1904  0.3168
43431SOL    HW133570  10.333   8.919   5.343 -0.5394  1.0982 -0.2113
43431SOL    HW233571  10.193   8.867   5.317 -0.7077  1.0149  0.7961
43432SOL     OW33572   3.188   8.482   2.418  0.0094 -0.3852 -0.3172
43432SOL    HW133573   3.283   8.479   2.432  0.3346 -0.2798 -2.1926
43432SOL    HW233574   3.164   8.391   2.402 -0.5193 -0.6465  1.7073
43433SOL     OW33575   8.193   2.268   3.872  0.2864  0.0930  0.7944
43433SOL    HW133576   8.165   2.198   3.813 -0.5873 -0.3461  1.7051
43433SOL    HW233577   8.163   2.349   3.830 -1.0538 -0.2701  1.0004
43434SOL     OW33578   6.528   9.648   3.433  0.5798  0.2290  0.2705
43434SOL    HW133579   6.530   9.560   3.470  3.5475  0.4319  0.8487
43434SOL    HW233580   6.597   9.648   3.366 -0.9922  1.4677 -1.4620
43435SOL     OW33581   4.010   5.560   3.931 -0.3843  0.1189 -0.7855
43435SOL    HW133582   4.044   5.634   3.981  1.2845 -0.6310 -0.7677
43435SOL    HW233583   3.928   5.537   3.975  1.0594 -0.5695  1.6886
43436SOL     OW33584   9.764   8.904   7.033  0.7969 -0.3757  0.0475
43436SOL    HW133585   9.844   8.914   7.084 -0.0449  0.2767  1.3197
43436SOL    HW233586   9.787   8.844   6.963  2.2197 -0.6963  0.7481
43437SOL     OW33587   7.639   6.201   5.049  0.2705 -0.1524 -0.1245
43437SOL    HW133588   7.631   6.271   4.985 -1.1676  0.8777  1.1244
43437SOL    HW233589   7.725   6.163   5.032  0.0432  0.2467 -2.4692
43438SOL     OW33590   9.968   6.377   0.948 -0.3076  0.2413  0.0564
43438SOL    HW133591   9.905   6.447   0.932  0.7292  0.9502 -1.0941
43438SOL    HW233592  10.002   6.356   0.861 -0.5251 -1.6464  0.3928
43439SOL     OW33593   7.282   1.457   2.948  0.0130  0.4025  0.2554
43439SOL    HW133594   7.353   1.444   2.886 -0.0304 -0.4814  0.3784
43439SOL    HW233595   7.225   1.381   2.936 -0.2241  0.4399  1.0674
43440SOL     OW33596   4.208   3.642   5.180  0.1605  0.1567 -0.0225
43440SOL    HW133597   4.159   3.724   5.187 -2.2986 -1.3024  1.9543
43440SOL    HW233598   4.147   3.582   5.136  0.6668 -1.3736  1.2590
43441SOL     OW33599   7.734   8.043  10.710  0.0005 -0.1630 -0.2033
43441SOL    HW133600   7.741   8.105  10.638 -1.2657  1.0536  0.6644
43441SOL    HW233601   7.650   7.999  10.696 -1.0066  1.1427  1.2461
43442SOL     OW33602  10.497   4.698   5.018  0.1603 -0.2414  0.0558
43442SOL    HW133603  10.477   4.613   4.979  0.1790 -0.5263  0.6486
43442SOL    HW233604  10.508   4.757   4.944 -0.1696 -0.6874 -0.3537
43443SOL     OW33605   0.027   8.777   6.261  0.2913  0.4893 -0.2593
43443SOL    HW133606   0.066   8.720   6.327 -0.6577  0.4204  0.2611
43443SOL    HW233607   0.101   8.825   6.224  1.0096 -0.5250 -0.1771
43444SOL     OW33608   2.547   3.073   3.279 -0.4309  0.4583  0.2235
43444SOL    HW133609   2.495   3.100   3.355 -0.8548  2.2218 -0.6184
43444SOL    HW233610   2.593   3.153   3.252 -2.3800  0.6896 -2.9746
43445SOL     OW33611   8.284  10.522   3.927 -0.1799  0.0188 -0.3235
43445SOL    HW133612   8.254  10.479   4.007  0.9384  0.5003  0.3797
43445SOL    HW233613   8.339  10.457   3.884 -1.9903 -0.8087 -1.5347
43446SOL     OW33614   7.531   3.055   5.830 -0.2219 -0.5009 -0.0838
43446SOL    HW133615   7.453   3.033   5.779 -1.2745  0.8884  0.8416
43446SOL    HW233616   7.602   3.009   5.786 -1.5805 -1.9856 -0.8325
43447SOL     OW33617   4.547   6.660   2.436  0.1390 -0.1031 -0.1540
43447SOL    HW133618   4.560   6.743   2.390 -0.4312 -0.5790 -1.2058
43447SOL    HW233619   4.486   6.680   2.507  2.6358  1.1160  1.8274
43448SOL     OW33620  11.202   9.611   3.979  0.5120  0.0806 -0.0436
43448SOL    HW133621  11.248   9.685   4.018  0.9650  1.0970 -2.3556
43448SOL    HW233622  11.111   9.641   3.970 -0.0732 -0.8883  1.9025
43449SOL     OW33623   8.886   7.280   7.464 -0.3562 -0.5175 -0.9688
43449SOL    HW133624   8.891   7.363   7.513  1.0872 -0.8203 -0.5552
43449SOL    HW233625   8.883   7.307   7.373  0.6957 -0.0030 -0.8639
43450SOL     OW33626   3.977   1.926   7.290  0.2690 -0.7904  0.4500
43450SOL    HW133627   4.024   1.887   7.364  0.5684 -1.0641  0.1204
43450SOL    HW233628   4.003   2.018   7.291 -0.3847 -0.6048  1.1903
43451SOL     OW33629  10.367   6.440   1.808 -0.3828  0.2024  0.0371
43451SOL    HW133630  10.364   6.491   1.889  1.3643  0.1790  0.1554
43451SOL    HW233631  10.381   6.505   1.739 -1.1334  0.1466 -0.1837
43452SOL     OW33632   9.233   8.080  10.337 -0.5527  0.3480  0.5203
43452SOL    HW133633   9.303   8.062  10.400 -0.2554  1.0380  0.3965
43452SOL    HW233634   9.154   8.086  10.391 -0.6898 -1.3387  0.5654
43453SOL     OW33635   8.884   5.316   1.638  0.3632  0.3055  0.2326
43453SOL    HW133636   8.976   5.341   1.638  1.0140 -1.9009 -0.5312
43453SOL    HW233637   8.877   5.251   1.708 -0.1819 -0.9129 -0.9177
43454SOL     OW33638   1.880   7.818   5.578  0.1527  0.0591 -0.1913
43454SOL    HW133639   1.821   7.779   5.514 -1.4334  0.2685  1.0777
43454SOL    HW233640   1.900   7.748   5.639  2.5795 -0.4562 -1.4505
43455SOL     OW33641   3.621   4.701   3.009 -0.1267  0.3570 -0.5394
43455SOL    HW133642   3.702   4.673   3.053  0.2094  1.4647 -0.4308
43455SOL    HW233643   3.636   4.681   2.917  1.0870  2.3222 -0.8208
43456SOL     OW33644   1.229   1.644   6.863  0.4525 -0.2492 -0.1929
43456SOL    HW133645   1.267   1.573   6.811  0.4170  1.9231 -3.5175
43456SOL    HW233646   1.304   1.700   6.885  0.1052  0.3836 -0.5787
43457SOL     OW33647  10.074   8.368   0.620 -0.2985  0.1158 -0.1741
43457SOL    HW133648  10.038   8.280   0.612 -2.1959  0.9044 -1.0115
43457SOL    HW233649  10.028   8.407   0.694  0.8794  0.2756  0.5056
43458SOL     OW33650  10.754   1.842   1.013 -0.2818 -0.1705 -0.5523
43458SOL    HW133651  10.714   1.922   0.980 -0.3690  0.0737  0.1300
43458SOL    HW233652  10.712   1.828   1.098  1.6338  0.5565  0.5761
43459SOL     OW33653   6.019   2.023   2.806 -0.1931  1.2247 -0.9256
43459SOL    HW133654   6.108   1.994   2.784 -1.1007 -0.3422 -2.8679
43459SOL    HW233655   5.973   1.942   2.830 -1.4329  1.8028 -1.2790
43460SOL     OW33656   6.329  10.744   6.628 -0.1362 -0.1271 -0.4492
43460SOL    HW133657   6.339  10.736   6.533 -0.7884 -0.7012 -0.4844
43460SOL    HW233658   6.418  10.751   6.661  0.0394  1.7216 -1.2235
43461SOL     OW33659   0.726   7.641  10.109  0.0360  0.2288 -0.4192
43461SOL    HW133660   0.801   7.583  10.121  0.8565  1.7598  3.3657
43461SOL    HW233661   0.650   7.589  10.135  0.2790 -0.2469 -0.6704
43462SOL     OW33662   6.274   7.952   9.764  0.4403 -0.0615  0.5021
43462SOL    HW133663   6.188   7.910   9.759  0.9951 -1.1404 -0.3392
43462SOL    HW233664   6.257   8.043   9.742 -0.6103 -0.0882  1.1407
43463SOL     OW33665   0.180   1.483   1.062 -0.1881  0.6539  0.2138
43463SOL    HW133666   0.253   1.537   1.032 -0.5025  1.7356  1.2719
43463SOL    HW233667   0.190   1.479   1.158 -0.7068 -0.3979  0.2408
43464SOL     OW33668   3.636   2.987   5.315 -0.5593 -0.8904 -0.5931
43464SOL    HW133669   3.595   3.022   5.237 -0.8269 -0.4592 -0.2651
43464SOL    HW233670   3.728   2.977   5.292 -0.5622 -0.3812 -0.8362
43465SOL     OW33671   4.268   5.782   3.497 -0.3516  0.1385 -0.1848
43465SOL    HW133672   4.298   5.778   3.587 -0.0491 -0.5664 -0.3136
43465SOL    HW233673   4.285   5.872   3.469 -1.2134  0.5992  0.7174
43466SOL     OW33674   6.780   3.315   1.695  0.0418 -0.0958  0.1974
43466SOL    HW133675   6.822   3.366   1.626 -0.0303 -1.1928 -0.6833
43466SOL    HW233676   6.724   3.378   1.740 -0.5312  0.4914 -1.2630
43467SOL     OW33677   7.545   0.079   2.370 -0.0900 -0.1380  0.3483
43467SOL    HW133678   7.471   0.121   2.415 -0.2330  0.6533 -0.6034
43467SOL    HW233679   7.622   0.126   2.402 -0.2166  0.6114 -0.4370
43468SOL     OW33680   1.326   2.325   2.685 -0.3111  0.1980 -0.4697
43468SOL    HW133681   1.344   2.397   2.625  1.6257  0.2955  0.1499
43468SOL    HW233682   1.344   2.246   2.635  1.1457  0.2759 -0.1263
43469SOL     OW33683   6.031   1.663   5.223 -0.2143 -0.5280 -0.8054
43469SOL    HW133684   5.984   1.724   5.280 -1.5266  0.1987 -2.5756
43469SOL    HW233685   6.002   1.576   5.251  1.9285 -0.5098  1.9752
43470SOL     OW33686   9.338  10.410   0.922 -0.2500 -0.0591  0.1845
43470SOL    HW133687   9.261  10.412   0.866 -0.4890  2.3398  0.4976
43470SOL    HW233688   9.408  10.447   0.868  0.7240 -2.1083 -0.0614
43471SOL     OW33689   0.211   6.375   3.887 -0.0673 -0.4391 -0.3214
43471SOL    HW133690   0.279   6.316   3.857  0.1031 -0.6164  0.3940
43471SOL    HW233691   0.240   6.403   3.974  1.2954  2.8987 -1.6897
43472SOL     OW33692   6.056   4.106   8.159  0.1539 -0.0534 -0.4961
43472SOL    HW133693   6.109   4.088   8.236  0.9587  0.4161 -0.9286
43472SOL    HW233694   5.990   4.169   8.189 -1.1631 -1.7605  0.4227
43473SOL     OW33695   8.022   9.844   6.422 -0.1662  0.4736 -0.0117
43473SOL    HW133696   8.041   9.914   6.484  0.1839  0.0851  0.3243
43473SOL    HW233697   7.993   9.889   6.343  1.1863  1.0458 -0.2069
43474SOL     OW33698   5.840   1.714   2.412 -0.1369  0.7212  0.6342
43474SOL    HW133699   5.851   1.626   2.446 -2.0775  1.3386  3.1630
43474SOL    HW233700   5.901   1.768   2.463 -0.9053  1.2182  1.0541
43475SOL     OW33701   8.091  10.018  10.942 -0.2112 -0.2855  0.2282
43475SOL    HW133702   8.098   9.927  10.915  0.4061 -0.5844  1.3510
43475SOL    HW233703   8.079  10.015  11.036  0.0862  0.8086  0.3214
43476SOL     OW33704   8.651   8.192   9.330 -0.3772  0.1749 -0.9506
43476SOL    HW133705   8.635   8.272   9.380  1.4765 -0.6599  1.1869
43476SOL    HW233706   8.564   8.154   9.317 -1.0576  1.0669  0.6614
43477SOL     OW33707  10.215   6.552   6.951  0.3025  0.3268 -0.2557
43477SOL    HW133708  10.204   6.627   7.010  1.8696  0.4114 -0.0291
43477SOL    HW233709  10.217   6.590   6.864 -0.0001  0.4238 -0.2208
43478SOL     OW33710   0.460   5.949  10.923 -0.0871  0.5550 -0.2332
43478SOL    HW133711   0.460   6.006  10.846  2.2420 -0.2529 -0.9291
43478SOL    HW233712   0.444   6.007  10.997 -1.2424  1.5311 -1.2100
43479SOL     OW33713   8.901   7.919   4.137 -0.2238  0.9106  0.2674
43479SOL    HW133714   8.808   7.908   4.120 -0.1762 -0.3394  0.7734
43479SOL    HW233715   8.927   7.993   4.081 -1.5013  1.2576  0.1158
43480SOL     OW33716   5.696   3.163   4.128 -0.2045 -0.2002  0.1001
43480SOL    HW133717   5.641   3.085   4.122 -1.5127  0.7869 -1.7347
43480SOL    HW233718   5.751   3.159   4.049 -1.1467  1.3196 -0.6670
43481SOL     OW33719   0.653   0.812   0.906  0.3348  0.2730  0.5888
43481SOL    HW133720   0.567   0.834   0.941  0.3237  0.5806  0.3689
43481SOL    HW233721   0.712   0.878   0.943  0.4261  0.2370  0.5095
43482SOL     OW33722   4.593   9.690   3.525  0.3909 -0.0793 -0.1189
43482SOL    HW133723   4.580   9.611   3.579 -1.4037  2.3224  3.3927
43482SOL    HW233724   4.513   9.696   3.473  0.4950 -0.4931 -0.3361
43483SOL     OW33725   8.189   3.422   2.881 -0.8014  0.4046  0.1651
43483SOL    HW133726   8.165   3.360   2.950 -0.1450 -1.3938 -1.1536
43483SOL    HW233727   8.277   3.452   2.905 -0.8689  0.3548  0.4834
43484SOL     OW33728   0.265   2.655   2.403 -0.5291 -0.0597  0.7830
43484SOL    HW133729   0.297   2.743   2.383  0.6879 -0.4178  1.0483
43484SOL    HW233730   0.344   2.602   2.410 -1.1319 -0.8172  2.3685
43485SOL     OW33731  11.209   9.623   5.608 -0.0302 -0.0197 -0.2929
43485SOL    HW133732  11.257   9.697   5.571  2.0863 -0.3441  1.6222
43485SOL    HW233733  11.201   9.643   5.701 -4.7432  0.5480 -0.5405
43486SOL     OW33734   1.653   5.300   5.003  0.5798  0.5056 -0.0596
43486SOL    HW133735   1.602   5.340   4.934 -0.6571 -1.9446 -0.6738
43486SOL    HW233736   1.742   5.333   4.989 -0.5161  4.2406  0.5461
43487SOL     OW33737   2.809   9.442   3.979  0.4317 -0.0388 -0.1658
43487SOL    HW133738   2.739   9.393   4.021 -0.5068  1.6241  0.3398
43487SOL    HW233739   2.887   9.388   3.988  0.0162 -0.2787  2.6579
43488SOL     OW33740   7.718   4.785  10.040 -0.1665  0.1450 -0.3496
43488SOL    HW133741   7.761   4.704  10.067 -0.6513 -0.2524 -0.7533
43488SOL    HW233742   7.625   4.764  10.037 -0.3774  0.9466  0.3293
43489SOL     OW33743   3.062   9.572   2.743 -0.2038 -0.5740 -0.4305
43489SOL    HW133744   3.077   9.663   2.768  0.9458 -1.0443  0.7076
43489SOL    HW233745   2.995   9.577   2.676 -2.3502  0.9114  1.6390
43490SOL     OW33746   0.952   6.667   5.872  0.2952  0.2743 -0.0017
43490SOL    HW133747   0.998   6.648   5.953  0.5202 -0.3593 -0.2695
43490SOL    HW233748   0.909   6.751   5.888  0.8925  0.4881  0.5268
43491SOL     OW33749   5.069   0.450   9.833  0.0603  0.4560  0.5507
43491SOL    HW133750   5.154   0.477   9.799 -1.2506  0.6298 -3.0491
43491SOL    HW233751   5.070   0.355   9.830  0.2924  0.4466  0.9535
43492SOL     OW33752   4.991   3.712   8.128  0.2653 -0.2811  0.7336
43492SOL    HW133753   5.012   3.780   8.064  0.7181 -1.6576 -0.6316
43492SOL    HW233754   5.016   3.750   8.212 -0.3582  1.5782  0.1321
43493SOL     OW33755   7.161   2.192   5.094 -0.2078 -0.8271 -0.3460
43493SOL    HW133756   7.126   2.132   5.159 -2.2035  1.5384  0.9557
43493SOL    HW233757   7.166   2.276   5.140  0.1387  0.5330 -2.7165
43494SOL     OW33758   6.133   3.177   9.092 -0.0935  0.2701 -0.5637
43494SOL    HW133759   6.052   3.130   9.070 -0.3153 -0.1196  0.9368
43494SOL    HW233760   6.168   3.205   9.008  0.0818 -2.6302 -1.5928
43495SOL     OW33761   9.666   5.921   6.478  0.0817  0.1460  0.4115
43495SOL    HW133762   9.686   5.916   6.571 -0.4005 -1.0143  0.4667
43495SOL    HW233763   9.584   5.873   6.468 -0.2458  0.8730 -0.5070
43496SOL     OW33764   1.693   4.384   9.016 -0.1947  0.4168 -0.0783
43496SOL    HW133765   1.638   4.439   9.071  1.8968  2.8385 -0.2126
43496SOL    HW233766   1.724   4.315   9.075  0.5810  1.9293  1.3640
43497SOL     OW33767   9.597   2.732   7.863 -0.0374  0.3125  0.1539
43497SOL    HW133768   9.651   2.662   7.828 -1.9657 -0.7097 -0.9422
43497SOL    HW233769   9.626   2.741   7.954  1.0039 -1.1333  0.0001
43498SOL     OW33770   7.093   4.305   0.966  0.3716 -0.3525  0.1887
43498SOL    HW133771   7.057   4.218   0.985 -0.7443  0.6471  3.2957
43498SOL    HW233772   7.159   4.320   1.034  1.0497  0.9487 -0.7160
43499SOL     OW33773   6.350   5.320  11.291 -1.0577 -0.4102 -0.3779
43499SOL    HW133774   6.406   5.386  11.331 -0.8139  0.0920 -1.5145
43499SOL    HW233775   6.294   5.289  11.363 -0.5341  0.3427  0.3726
43500SOL     OW33776   3.217   4.474   5.767 -0.1718  0.3751 -0.6304
43500SOL    HW133777   3.141   4.431   5.728  0.1771 -1.6880  0.8414
43500SOL    HW233778   3.281   4.478   5.696  0.0959 -2.4160 -0.6474
43501SOL     OW33779   6.379   3.900   2.517  0.1644  0.4266 -0.1688
43501SOL    HW133780   6.303   3.921   2.571  0.3240 -0.9136  0.6111
43501SOL    HW233781   6.451   3.951   2.556  0.2533 -0.4390  0.8352
43502SOL     OW33782   2.850   8.365  10.396 -0.2548 -0.3202  0.0344
43502SOL    HW133783   2.877   8.333  10.482  2.3327 -0.6907 -0.8330
43502SOL    HW233784   2.785   8.433  10.415 -0.4615 -1.0549  2.2103
43503SOL     OW33785   5.819   8.447   3.030 -0.5819  0.0972 -0.8704
43503SOL    HW133786   5.783   8.361   3.050  0.0773  0.0217  0.0407
43503SOL    HW233787   5.790   8.465   2.941 -1.4707 -0.6748 -0.7533
43504SOL     OW33788  10.726   1.421   0.712  0.1220 -0.3691 -0.2648
43504SOL    HW133789  10.775   1.341   0.727  0.0952 -0.0913  1.4887
43504SOL    HW233790  10.792   1.490   0.709  0.2487 -0.4916 -2.7426
43505SOL     OW33791   0.082   7.560   7.314  0.5863 -0.3373  0.1053
43505SOL    HW133792   0.127   7.597   7.390 -0.5812 -1.3133  1.3377
43505SOL    HW233793   0.147   7.560   7.245  2.1508 -0.6798  1.5107
43506SOL     OW33794   8.321   0.193  10.546  0.4038  0.6364 -0.4080
43506SOL    HW133795   8.311   0.273  10.598 -0.0146  0.7760 -0.6966
43506SOL    HW233796   8.236   0.149  10.553  0.9449 -0.2851  0.5639
43507SOL     OW33797   0.715   0.425   5.466 -0.8044 -0.5659  0.2581
43507SOL    HW133798   0.810   0.434   5.458 -0.8576  1.5583  1.2500
43507SOL    HW233799   0.683   0.415   5.376  0.3198 -1.1146 -0.0915
43508SOL     OW33800  10.655   7.350   4.643 -0.8919  0.0365  0.6487
43508SOL    HW133801  10.614   7.431   4.673 -0.2069  0.3641  0.7255
43508SOL    HW233802  10.636   7.286   4.712 -1.1057  0.2333  0.7700
43509SOL     OW33803   1.372   8.740  10.749  0.0634 -0.4070 -0.1872
43509SOL    HW133804   1.303   8.787  10.702  1.8323  0.8070 -1.7148
43509SOL    HW233805   1.377   8.782  10.834 -0.7503 -0.1885 -0.2415
43510SOL     OW33806   7.748   4.947   3.571 -0.3736 -0.3393  0.1789
43510SOL    HW133807   7.836   4.925   3.601  0.0045  2.0405  1.0351
43510SOL    HW233808   7.761   5.000   3.493 -0.9735  0.6771  0.7437
43511SOL     OW33809   2.141  10.272   2.928 -0.4716  0.3897  0.6111
43511SOL    HW133810   2.236  10.272   2.920 -0.6166  1.6763 -1.9147
43511SOL    HW233811   2.123  10.206   2.996  2.1446 -0.5183  0.5333
43512SOL     OW33812   5.097   4.324   2.369 -0.5187 -0.2337  0.1024
43512SOL    HW133813   5.006   4.310   2.394 -0.1701 -0.3223  1.4130
43512SOL    HW233814   5.139   4.240   2.386 -0.4050 -0.5418 -1.5921
43513SOL     OW33815   0.373   4.790   9.106 -0.2226 -0.0181 -0.0957
43513SOL    HW133816   0.314   4.751   9.169  0.0459 -0.1882  0.0514
43513SOL    HW233817   0.461   4.764   9.135  0.1252  2.2303  1.1009
43514SOL     OW33818   4.878   3.525   7.163  0.4486 -0.4329 -0.3013
43514SOL    HW133819   4.930   3.446   7.152  0.8599 -0.0970 -0.8293
43514SOL    HW233820   4.867   3.559   7.074 -2.0494 -1.3598 -0.4392
43515SOL     OW33821  11.051   8.418  11.270 -0.6075 -0.3456 -0.2194
43515SOL    HW133822  10.989   8.420  11.197  0.1530 -1.1642 -0.9078
43515SOL    HW233823  11.072   8.326  11.281  0.6619 -0.0647 -0.1474
43516SOL     OW33824   5.898   2.780   7.441 -0.1101 -0.0524 -0.4643
43516SOL    HW133825   5.965   2.754   7.379 -0.4035 -0.1138 -0.7616
43516SOL    HW233826   5.847   2.847   7.395  0.5455  0.9490  0.2363
43517SOL     OW33827   4.462   9.691   1.866  0.5160  0.1257  0.2845
43517SOL    HW133828   4.394   9.653   1.921 -0.4755  0.6228 -0.5761
43517SOL    HW233829   4.484   9.774   1.908 -0.5735  0.7272 -0.2955
43518SOL     OW33830   8.852  10.642   5.336  0.0259  0.3131  0.4124
43518SOL    HW133831   8.844  10.561   5.386  0.6744  1.2343  2.1044
43518SOL    HW233832   8.762  10.666   5.313 -0.2124 -0.5595  0.4186
43519SOL     OW33833   7.836  10.512   8.818 -0.1239 -0.0196 -0.1456
43519SOL    HW133834   7.886  10.463   8.883  0.6350 -0.5198 -1.0874
43519SOL    HW233835   7.874  10.600   8.820  1.0508 -0.4776 -1.0791
43520SOL     OW33836   9.331   1.616   6.339 -0.4289  0.9070 -0.2957
43520SOL    HW133837   9.317   1.532   6.382  0.3029  1.3646  0.8865
43520SOL    HW233838   9.345   1.594   6.247 -0.9956 -0.1889 -0.1339
43521SOL     OW33839   9.952   8.483   7.975  0.6432 -0.3107 -0.2150
43521SOL    HW133840   9.914   8.400   8.004 -0.0462 -0.6610 -1.9845
43521SOL    HW233841   9.884   8.548   7.994 -0.7463 -0.8446 -2.7906
43522SOL     OW33842   1.934  10.857   6.212 -0.0310 -0.3298 -0.2458
43522SOL    HW133843   1.995  10.929   6.223 -1.0792  0.4249  0.7620
43522SOL    HW233844   1.989  10.784   6.182  1.2309  0.5234 -0.0903
43523SOL     OW33845   1.976   4.538   3.548  0.2615 -0.1891  0.1869
43523SOL    HW133846   2.049   4.484   3.581  0.0980 -0.3411  0.3047
43523SOL    HW233847   1.968   4.608   3.612  2.7931  2.0780 -1.7514
43524SOL     OW33848   7.929  11.396  10.129 -0.3955 -0.0956 -0.3199
43524SOL    HW133849   7.969  11.478  10.100  0.1028 -0.2670 -0.1387
43524SOL    HW233850   7.984  11.367  10.202 -0.2237 -0.8758 -0.7408
43525SOL     OW33851   9.243   3.646   2.125 -0.6796 -0.1999  0.6074
43525SOL    HW133852   9.214   3.735   2.104  1.0720  0.3718  0.4619
43525SOL    HW233853   9.211   3.593   2.052 -0.6744  0.5333  0.0608
43526SOL     OW33854   7.475   8.225  10.599  0.2888 -0.2566 -0.2325
43526SOL    HW133855   7.560   8.200  10.563  0.8010  0.2482  0.6048
43526SOL    HW233856   7.494   8.295  10.661 -0.7119 -0.3053  0.1556
43527SOL     OW33857  10.632   1.338   1.398  0.0206  0.6137  0.2773
43527SOL    HW133858  10.639   1.263   1.457 -3.0434  0.5743  0.7316
43527SOL    HW233859  10.698   1.399   1.430  2.5710 -1.7361 -0.0613
43528SOL     OW33860   3.693   4.901   5.288 -0.5754 -0.2624 -0.1654
43528SOL    HW133861   3.600   4.924   5.282 -0.4993 -0.2599 -1.6904
43528SOL    HW233862   3.739   4.985   5.282 -0.4530 -0.2811  0.4012
43529SOL     OW33863   1.031   7.875   9.059  0.6973  0.3554 -0.0182
43529SOL    HW133864   0.996   7.830   8.982  1.6989 -0.9897  0.2607
43529SOL    HW233865   0.953   7.909   9.104  0.0232  0.2673 -1.0809
43530SOL     OW33866   4.796   1.167   4.938 -0.2056 -0.1295  0.6639
43530SOL    HW133867   4.758   1.145   4.853 -0.4830  0.1411  0.7139
43530SOL    HW233868   4.885   1.194   4.919 -0.2007 -0.2703  0.4830
43531SOL     OW33869  10.165   4.806   0.979  0.7229 -0.1290  0.4624
43531SOL    HW133870  10.247   4.810   1.028  1.0387  2.8494 -0.0981
43531SOL    HW233871  10.101   4.847   1.037  0.3716  0.4667 -0.3328
43532SOL     OW33872   6.335   4.892   5.552 -0.1292 -0.8730 -0.4423
43532SOL    HW133873   6.249   4.888   5.509  0.0736  0.8570 -1.0951
43532SOL    HW233874   6.388   4.948   5.495  0.7174 -0.0133  1.1229
43533SOL     OW33875   3.605   4.143   2.426 -0.0942  0.2229 -0.2563
43533SOL    HW133876   3.532   4.083   2.439 -0.8273  0.6859 -1.9621
43533SOL    HW233877   3.564   4.225   2.399  1.0635  0.2125 -2.2210
43534SOL     OW33878   9.706   9.131   0.346 -0.5054 -0.4314 -0.0594
43534SOL    HW133879   9.776   9.187   0.313 -2.5253  2.2680 -0.0996
43534SOL    HW233880   9.728   9.116   0.438  0.5735 -0.3979 -0.3067
43535SOL     OW33881  11.262   6.666   6.307  0.1610 -0.1842  0.3576
43535SOL    HW133882  11.181   6.653   6.257  0.8314  0.1983 -0.8627
43535SOL    HW233883  11.252   6.608   6.383 -1.6679  0.5780  0.7532
43536SOL     OW33884   8.931   5.592   3.197  0.9325 -0.0351  0.5493
43536SOL    HW133885   8.836   5.592   3.212  0.7198  0.3529 -0.6416
43536SOL    HW233886   8.946   5.670   3.144  1.8490 -0.3494  0.3364
43537SOL     OW33887   6.507  10.431   9.011 -0.4044 -0.5534 -0.0102
43537SOL    HW133888   6.467  10.398   8.931 -0.0299 -0.8048 -0.0969
43537SOL    HW233889   6.467  10.380   9.081 -0.6677 -0.3940 -0.0458
43538SOL     OW33890   4.480   5.887  10.141 -0.4540  0.2493  0.2863
43538SOL    HW133891   4.467   5.833  10.063  0.6441  0.8895 -0.3662
43538SOL    HW233892   4.502   5.826  10.210 -1.1843 -0.3060  0.0448
43539SOL     OW33893   4.639   6.340   2.768  0.2162  0.2816 -0.1679
43539SOL    HW133894   4.680   6.275   2.826 -0.5354 -0.4687 -0.4474
43539SOL    HW233895   4.573   6.383   2.823  0.6384  0.7332 -0.0136
43540SOL     OW33896  11.067   6.396   6.728 -0.0322  0.1883 -0.4745
43540SOL    HW133897  11.124   6.349   6.788  0.2097 -0.0000 -0.8499
43540SOL    HW233898  10.991   6.339   6.717 -0.4229  0.5523  0.2247
43541SOL     OW33899   2.775   0.194   5.863  0.3245 -0.1636 -0.5313
43541SOL    HW133900   2.780   0.149   5.779  1.2908  1.0436 -1.1507
43541SOL    HW233901   2.850   0.253   5.864 -0.2468  0.6056  0.7391
43542SOL     OW33902   1.962   6.126  10.596 -0.3650  0.2027 -0.0991
43542SOL    HW133903   1.874   6.091  10.584  0.2736 -1.5720  0.1710
43542SOL    HW233904   1.951   6.196  10.661 -1.3869 -0.8384  0.8876
43543SOL     OW33905   2.785   3.333  10.505 -0.0562 -0.1391 -0.5678
43543SOL    HW133906   2.866   3.299  10.467 -0.2766 -1.6316  0.1891
43543SOL    HW233907   2.756   3.401  10.445  2.9916  2.1696  0.3749
43544SOL     OW33908   4.501   1.544   1.831 -0.2056  0.1672 -0.0227
43544SOL    HW133909   4.578   1.597   1.809 -1.0933  1.7833  0.6024
43544SOL    HW233910   4.498   1.544   1.926 -1.2747  0.5726 -0.0500
43545SOL     OW33911   5.244  10.099   3.450  0.1364 -0.2466  0.6260
43545SOL    HW133912   5.329  10.131   3.422  0.1824 -0.4023  0.5861
43545SOL    HW233913   5.213  10.163   3.513 -0.8354  1.1746 -1.2035
43546SOL     OW33914   0.740   9.280   9.119 -0.5645 -0.5183  0.2783
43546SOL    HW133915   0.668   9.342   9.125 -0.5163 -0.5872  2.0057
43546SOL    HW233916   0.698   9.194   9.119 -0.5322 -0.5347  0.0699
43547SOL     OW33917   9.184   7.001   0.889  0.2069 -0.2803 -0.5706
43547SOL    HW133918   9.193   6.908   0.909  0.4881 -0.0635  0.3550
43547SOL    HW233919   9.090   7.013   0.875 -0.3487 -0.1282  2.5040
43548SOL     OW33920   1.411   1.699   4.937  0.3049 -0.6034 -0.2687
43548SOL    HW133921   1.435   1.648   5.014  2.0751 -2.1732 -1.7503
43548SOL    HW233922   1.408   1.635   4.866 -0.0067  0.9733 -1.7341
43549SOL     OW33923   4.107   1.387   2.788  0.0035  0.0471  0.4634
43549SOL    HW133924   4.092   1.430   2.872  1.7290  0.7575  0.4262
43549SOL    HW233925   4.022   1.347   2.767 -1.0195  1.5523  1.5540
43550SOL     OW33926   5.306   6.952   1.844  0.0036  0.6844  0.2459
43550SOL    HW133927   5.390   6.948   1.799  0.5859  1.7650  1.1679
43550SOL    HW233928   5.241   6.943   1.775  0.8742  1.0835 -0.6489
43551SOL     OW33929   1.886   1.799   0.717  0.1225  0.1433 -0.2552
43551SOL    HW133930   1.962   1.828   0.768  1.3103 -1.3448 -1.0744
43551SOL    HW233931   1.894   1.845   0.633  0.4635 -0.4472 -0.5530
43552SOL     OW33932   5.129   1.258   2.181  0.2110  0.0337  0.6016
43552SOL    HW133933   5.142   1.307   2.100 -0.6835 -1.1043 -0.2648
43552SOL    HW233934   5.096   1.323   2.244  0.1718  0.7756 -0.1688
43553SOL     OW33935   6.776   8.370   0.971  0.1225  0.2746 -0.2946
43553SOL    HW133936   6.731   8.422   1.037  0.9796  1.6735 -0.7639
43553SOL    HW233937   6.706   8.336   0.915 -0.4589  0.7832  0.1088
43554SOL     OW33938   6.638   8.486   1.188 -0.6002  0.6365  0.2632
43554SOL    HW133939   6.598   8.407   1.224 -0.6400  1.4558  2.1641
43554SOL    HW233940   6.563   8.540   1.162 -0.5735  0.1158 -0.9863
43555SOL     OW33941   7.192   8.212   4.701  1.0521 -0.0203  0.1669
43555SOL    HW133942   7.253   8.152   4.659  1.2814 -0.0088  0.4751
43555SOL    HW233943   7.247   8.284   4.734  0.8269  0.1780  0.1150
43556SOL     OW33944   1.208  10.872   6.778 -0.4697 -0.2793 -0.0495
43556SOL    HW133945   1.157  10.830   6.847 -2.1919  0.9173 -0.5259
43556SOL    HW233946   1.292  10.893   6.820 -0.5168 -1.8354  0.9088
43557SOL     OW33947   9.821   9.895   6.831 -0.1708  0.1087  0.1475
43557SOL    HW133948   9.824   9.946   6.750 -0.4698 -0.0640  0.0262
43557SOL    HW233949   9.734   9.855   6.832  0.3710 -1.1361 -0.2121
43558SOL     OW33950   0.816   1.316   9.174 -0.2511 -0.1838  0.5266
43558SOL    HW133951   0.802   1.224   9.154 -0.5430  0.0290 -0.2861
43558SOL    HW233952   0.743   1.361   9.131  0.6585  0.5629 -0.2757
43559SOL     OW33953   2.599  10.167   5.769  0.3862  0.1370 -0.4946
43559SOL    HW133954   2.555  10.172   5.854 -0.3020 -1.5015 -0.7214
43559SOL    HW233955   2.528  10.163   5.705  0.8952  1.4121 -1.1818
43560SOL     OW33956   3.540  10.695   1.952 -0.0752  0.2214 -0.6822
43560SOL    HW133957   3.547  10.734   1.865  0.5241  1.8221  0.0571
43560SOL    HW233958   3.489  10.758   2.003  0.3621 -0.2605  0.3765
43561SOL     OW33959   2.171   2.357   0.141 -0.0451  0.5449 -0.2696
43561SOL    HW133960   2.241   2.321   0.088 -0.8358 -0.0267 -0.9412
43561SOL    HW233961   2.128   2.420   0.083 -0.5443  0.3481 -0.1130
43562SOL     OW33962   0.286   3.683   2.303 -0.0050 -0.6842 -0.0923
43562SOL    HW133963   0.309   3.732   2.382 -0.1957 -0.4916 -0.1564
43562SOL    HW233964   0.349   3.611   2.301  0.2551 -0.4621  0.0198
43563SOL     OW33965   0.521   4.190   0.802  0.2932 -0.6048  0.0768
43563SOL    HW133966   0.617   4.180   0.802  0.3452 -0.2381  1.3399
43563SOL    HW233967   0.507   4.281   0.777  0.3530 -0.2165  1.3926
43564SOL     OW33968   7.848  10.342   3.192 -0.2557 -0.4787  0.0629
43564SOL    HW133969   7.883  10.304   3.111  1.4336 -0.3772  0.7250
43564SOL    HW233970   7.782  10.279   3.220 -0.5014 -0.7805 -1.1025
43565SOL     OW33971   5.246   6.405   3.514  0.5665 -0.2565  0.0687
43565SOL    HW133972   5.200   6.344   3.457  1.1386  0.2247 -0.9357
43565SOL    HW233973   5.337   6.376   3.513  0.4613 -0.7242  1.4072
43566SOL     OW33974  10.648   1.406   6.951  0.3039 -0.7076 -0.0205
43566SOL    HW133975  10.607   1.462   7.017 -0.3589 -1.0536 -0.1377
43566SOL    HW233976  10.732   1.381   6.991  0.2874 -0.2297  0.3320
43567SOL     OW33977   9.564   2.453   4.992 -0.3803  0.1093 -0.1521
43567SOL    HW133978   9.658   2.450   4.976 -0.6959 -1.2501 -2.0852
43567SOL    HW233979   9.556   2.460   5.087  1.6544 -0.1043  0.0838
43568SOL     OW33980   2.928   3.801   3.970  0.3039 -0.6481  0.0989
43568SOL    HW133981   2.988   3.870   3.941  0.9659 -0.2544  2.2386
43568SOL    HW233982   2.842   3.842   3.966  0.5679 -0.0582  0.3079
43569SOL     OW33983   4.736   4.326   6.633  0.2004 -0.4065 -0.0592
43569SOL    HW133984   4.802   4.298   6.695 -0.8781 -2.0290  0.4050
43569SOL    HW233985   4.781   4.391   6.578  1.0146  1.5271  2.7130
43570SOL     OW33986  10.310   5.031   2.815 -0.2019  1.0607 -0.9416
43570SOL    HW133987  10.322   4.949   2.864  1.3804  0.3766 -2.3620
43570SOL    HW233988  10.363   5.095   2.862  2.4620  0.0782 -2.3740
43571SOL     OW33989   2.022   6.115   7.422  0.5615  0.5324 -0.0239
43571SOL    HW133990   2.087   6.127   7.352  0.0089  0.3378 -0.5779
43571SOL    HW233991   2.074   6.086   7.498  0.8467 -2.3346 -1.1981
43572SOL     OW33992   8.615   3.037   4.295 -0.0001  0.1811 -0.1956
43572SOL    HW133993   8.642   3.125   4.321 -2.4893  1.0492 -0.3011
43572SOL    HW233994   8.609   2.988   4.377  0.3267  0.4310 -0.0227
43573SOL     OW33995   1.919   5.600   5.957  0.4334  1.0010  0.2356
43573SOL    HW133996   2.001   5.553   5.972  0.5456  0.4044 -1.9121
43573SOL    HW233997   1.935   5.688   5.991  2.3221  1.1700 -0.9746
43574SOL     OW33998   7.861   6.365   5.863  0.5519 -0.4290 -0.5593
43574SOL    HW133999   7.829   6.280   5.833 -1.1372  0.0147 -0.1066
43574SOL    HW234000   7.850   6.362   5.958 -1.7123  1.0844 -0.6965
43575SOL     OW34001   0.074   3.060   2.537 -0.7169  0.5246  0.1438
43575SOL    HW134002   0.084   2.970   2.568 -1.1995  0.8763  1.3695
43575SOL    HW234003  -0.013   3.063   2.497 -0.1980  0.1402 -1.0794
43576SOL     OW34004   2.169   6.840   0.694 -0.0623  0.2944 -0.3631
43576SOL    HW134005   2.082   6.880   0.698 -0.0820  0.2748 -0.5689
43576SOL    HW234006   2.228   6.913   0.676 -0.0528  0.2875 -0.3596
43577SOL     OW34007   6.636  10.356  10.890  0.0801  0.1458 -0.3439
43577SOL    HW134008   6.688  10.415  10.946 -0.1790 -0.7353  0.8661
43577SOL    HW234009   6.546  10.370  10.919 -0.0294 -0.5297 -0.3486
43578SOL     OW34010   8.862   7.929   7.715 -0.1386  0.1615  0.1450
43578SOL    HW134011   8.782   7.955   7.670 -0.7811  0.5740  1.4723
43578SOL    HW234012   8.924   8.000   7.697 -0.9392  1.1935  1.2869
43579SOL     OW34013   5.656   4.393   3.107 -0.3454  0.4964 -0.0934
43579SOL    HW134014   5.610   4.472   3.080 -2.3145 -0.1598  1.1235
43579SOL    HW234015   5.642   4.331   3.034 -0.0351  0.7917 -0.4083
43580SOL     OW34016   6.804   2.278   8.701 -0.1439  0.4710 -0.5478
43580SOL    HW134017   6.736   2.216   8.674  0.1726  0.2340 -0.7957
43580SOL    HW234018   6.776   2.307   8.788  0.5244 -1.2472  0.2864
43581SOL     OW34019   0.267   3.206   3.656 -0.1272 -0.4381 -0.0048
43581SOL    HW134020   0.290   3.113   3.658 -0.6519 -0.5591  0.6517
43581SOL    HW234021   0.268   3.233   3.748 -1.5768 -0.2002 -0.0297
43582SOL     OW34022   4.472  10.525   9.936  0.6647  0.3384  0.4914
43582SOL    HW134023   4.494  10.553  10.025  1.0592 -0.1461  0.5552
43582SOL    HW234024   4.398  10.465   9.948  2.2015 -1.6279  0.7812
43583SOL     OW34025   9.894   1.105  11.352 -0.2397  0.0374 -0.2057
43583SOL    HW134026   9.938   1.175  11.303 -2.6233  0.4352 -1.9732
43583SOL    HW234027   9.845   1.150  11.420  1.2469 -0.3230  1.1608
43584SOL     OW34028   8.831   4.368   1.651  0.6646  0.2357  0.1702
43584SOL    HW134029   8.878   4.296   1.608  0.5174  0.1139  0.2083
43584SOL    HW234030   8.893   4.440   1.654  0.8932  0.0304  0.3499
43585SOL     OW34031   6.748   1.135   6.122 -0.0819 -0.1492  0.9596
43585SOL    HW134032   6.720   1.098   6.206 -0.4134  1.7800  1.7698
43585SOL    HW234033   6.817   1.198   6.146 -0.6020  0.8682 -0.1420
43586SOL     OW34034   1.071   3.596   4.662 -1.1453  0.5411  0.3774
43586SOL    HW134035   0.984   3.566   4.636 -1.6190 -0.0077  2.4045
43586SOL    HW234036   1.110   3.521   4.706 -0.2647  1.2629  0.8693
43587SOL     OW34037   0.025   5.091  10.353  0.1697 -0.1410 -0.2302
43587SOL    HW134038   0.087   5.150  10.309 -0.1392  0.7174  0.4698
43587SOL    HW234039   0.043   5.103  10.446 -2.2427  1.5149  0.1110
43588SOL     OW34040   2.786  10.488   5.264  0.6616 -0.6697 -0.0884
43588SOL    HW134041   2.752  10.556   5.322  2.0458  1.0372 -1.1614
43588SOL    HW234042   2.720  10.480   5.195 -0.1792 -1.4776  0.7887
43589SOL     OW34043   9.972   9.268   1.873 -0.6888  0.1772 -0.2676
43589SOL    HW134044  10.010   9.220   1.799  1.9883  1.6733  0.0022
43589SOL    HW234045  10.002   9.220   1.950 -2.1755 -0.4831 -0.0643
43590SOL     OW34046  10.606   2.892   8.170 -0.2792  0.5534 -0.3457
43590SOL    HW134047  10.554   2.955   8.119 -0.5880  0.3315 -0.3058
43590SOL    HW234048  10.689   2.937   8.185 -0.1959  0.6372 -1.0207
43591SOL     OW34049   8.932   5.127   1.815 -0.3019  0.5204  0.0388
43591SOL    HW134050   9.003   5.067   1.792 -1.2425 -0.7875  0.4435
43591SOL    HW234051   8.935   5.133   1.910 -0.3243  0.9970  0.0142
43592SOL     OW34052   7.562   1.485   8.572 -0.6775 -0.0506  0.0805
43592SOL    HW134053   7.538   1.394   8.562 -0.6351  0.0390 -0.8616
43592SOL    HW234054   7.543   1.505   8.664  1.6410 -1.6935  1.0303
43593SOL     OW34055   6.401   0.403  10.960 -0.3739  0.3431 -0.4234
43593SOL    HW134056   6.352   0.400  10.878  0.1894 -0.1731 -0.7408
43593SOL    HW234057   6.485   0.363  10.940 -0.1213  0.4796  0.3331
43594SOL     OW34058   7.330   6.387   7.220  0.5625 -0.5913 -0.1526
43594SOL    HW134059   7.358   6.331   7.148 -0.7364 -2.0600  0.4319
43594SOL    HW234060   7.404   6.388   7.280 -0.0651 -3.4419  0.8130
43595SOL     OW34061   0.772   5.485   3.988 -0.3615 -0.3520  0.0691
43595SOL    HW134062   0.856   5.490   3.943 -0.2563 -0.2789  0.2718
43595SOL    HW234063   0.770   5.397   4.025  0.5031  0.2838  1.7461
43596SOL     OW34064   5.812   6.175   8.413  0.5091 -0.3140 -0.2018
43596SOL    HW134065   5.860   6.235   8.470  0.6315  0.2569 -0.9071
43596SOL    HW234066   5.739   6.145   8.467 -0.8236  2.1454 -0.5175
43597SOL     OW34067   2.688   1.345   7.345  0.2611  0.0828  0.2368
43597SOL    HW134068   2.717   1.294   7.420  2.2842 -0.9054 -1.1422
43597SOL    HW234069   2.702   1.436   7.371  0.6515 -0.2327  1.1601
43598SOL     OW34070   9.804   5.909   2.311  0.1291 -0.0856  0.0911
43598SOL    HW134071   9.745   5.841   2.343 -1.7770  0.6073 -1.7368
43598SOL    HW234072   9.746   5.978   2.279  1.9161  0.4599 -2.2279
43599SOL     OW34073   7.138   9.457   1.139  1.0205 -0.2749 -0.4194
43599SOL    HW134074   7.089   9.533   1.171 -1.1264 -1.4508 -0.7536
43599SOL    HW234075   7.160   9.408   1.218  1.0860 -0.0903 -0.3210
43600SOL     OW34076   1.510   2.968   1.529  0.5242  0.0850 -0.3125
43600SOL    HW134077   1.448   3.017   1.475  0.5514 -0.3478 -0.7492
43600SOL    HW234078   1.475   2.879   1.531  0.7626 -0.0033  0.0128
43601SOL     OW34079   8.922   9.578   4.483 -0.0464  0.9926  0.6275
43601SOL    HW134080   8.879   9.637   4.421 -1.0579 -1.0992 -0.7765
43601SOL    HW234081   9.015   9.587   4.464 -0.3166  0.6879 -0.9516
43602SOL     OW34082   9.660   8.340   7.156 -0.2747 -0.0919  0.0648
43602SOL    HW134083   9.641   8.341   7.250  1.7754 -0.8455  0.5264
43602SOL    HW234084   9.575   8.358   7.114 -1.1132  0.8266  2.0521
43603SOL     OW34085   4.014   7.728   3.259  0.7403 -0.2676  0.6704
43603SOL    HW134086   3.972   7.643   3.271  0.3665  0.1533  2.7644
43603SOL    HW234087   3.996   7.776   3.340  3.4041  0.7517  0.7797
43604SOL     OW34088   9.276   3.328   0.329 -0.3730  0.2214  0.1076
43604SOL    HW134089   9.353   3.330   0.387 -0.2168 -0.4779 -0.0755
43604SOL    HW234090   9.220   3.398   0.363  0.6741  1.2762 -0.2321
43605SOL     OW34091   6.651   6.234   1.886 -0.3712  0.8557 -0.0450
43605SOL    HW134092   6.704   6.302   1.929 -0.6490 -0.4854  2.6170
43605SOL    HW234093   6.680   6.152   1.925 -2.7761 -0.1614 -0.1860
43606SOL     OW34094   8.156   4.743   8.297 -0.2283 -0.1326  0.0764
43606SOL    HW134095   8.124   4.695   8.374 -2.1224 -0.2787 -0.7469
43606SOL    HW234096   8.198   4.676   8.243  0.1740 -0.2277  0.5064
43607SOL     OW34097  10.398   9.292  10.909 -0.1723  0.3592  0.0962
43607SOL    HW134098  10.448   9.312  10.831  0.0545  0.0549  0.1605
43607SOL    HW234099  10.356   9.208  10.890  0.2385  0.0641  0.4663
43608SOL     OW34100   9.329   3.746   1.345 -0.3775 -0.3840  0.2166
43608SOL    HW134101   9.355   3.664   1.386 -1.5242 -0.4347  0.8883
43608SOL    HW234102   9.297   3.721   1.258  1.6887 -0.3210 -0.6203
43609SOL     OW34103   6.732   2.067  10.768 -0.2341 -0.1164 -0.3006
43609SOL    HW134104   6.698   2.049  10.680  3.2069  0.4416 -1.8897
43609SOL    HW234105   6.735   2.163  10.773  1.6904 -0.1125 -0.5918
43610SOL     OW34106   1.139   8.852  10.644  0.0710  0.0188 -0.8399
43610SOL    HW134107   1.070   8.795  10.612  0.1102 -0.2104 -0.5256
43610SOL    HW234108   1.118   8.866  10.737 -0.6978  1.6208 -1.2206
43611SOL     OW34109   9.101   9.201   1.726  0.6953  0.1287  0.2226
43611SOL    HW134110   9.052   9.213   1.645  1.3925  1.1044 -0.0614
43611SOL    HW234111   9.138   9.113   1.719 -0.6895 -0.4898  0.2880
43612SOL     OW34112   9.559   4.236   1.366  0.3514  0.3371 -0.2935
43612SOL    HW134113   9.569   4.181   1.289 -0.2436  0.8874 -0.7782
43612SOL    HW234114   9.470   4.220   1.396  0.1846  1.0090 -0.4222
43613SOL     OW34115   7.939   8.279   9.649  0.2560 -0.2878  0.2366
43613SOL    HW134116   7.875   8.270   9.719  1.0851 -0.0679  1.0296
43613SOL    HW234117   7.943   8.192   9.609  0.0875 -0.5246  0.7299
43614SOL     OW34118  11.078   1.459   8.386 -0.0333 -0.1258 -0.0158
43614SOL    HW134119  11.069   1.450   8.481 -0.1895 -1.8698 -0.1686
43614SOL    HW234120  11.019   1.393   8.350  1.0797 -0.4448 -1.3070
43615SOL     OW34121   9.647   6.396   2.244 -1.0550 -0.1336 -0.0668
43615SOL    HW134122   9.563   6.351   2.237 -0.9751 -0.3257  0.2085
43615SOL    HW234123   9.658   6.414   2.337  0.0941 -1.8126  0.1723
43616SOL     OW34124   6.883  11.243   1.014 -0.2855  0.3923 -0.0521
43616SOL    HW134125   6.790  11.226   0.997 -0.2494 -0.9323  0.9179
43616SOL    HW234126   6.886  11.266   1.107  0.2290  1.6939 -0.3646
43617SOL     OW34127   8.987   6.132   2.302 -0.1211 -0.4169 -0.1604
43617SOL    HW134128   8.986   6.037   2.312 -2.4946 -0.3537  0.8355
43617SOL    HW234129   8.904   6.154   2.261  1.2687  1.1198 -2.4024
43618SOL     OW34130   0.077   5.366   8.303 -0.3212  0.3197  0.6378
43618SOL    HW134131   0.088   5.459   8.282 -0.2224  0.4238  1.1383
43618SOL    HW234132   0.108   5.358   8.393 -0.5846 -0.1483  0.6893
43619SOL     OW34133   0.599   8.448   0.910  0.3228  0.6310  0.7090
43619SOL    HW134134   0.688   8.427   0.883  0.3732  2.1697 -0.4565
43619SOL    HW234135   0.606   8.532   0.954 -0.3838  0.1117  1.8793
43620SOL     OW34136   0.926   5.438   1.992 -0.3337  0.5853 -0.0807
43620SOL    HW134137   0.931   5.414   2.085  0.7887 -1.5881 -0.6250
43620SOL    HW234138   0.835   5.420   1.968 -0.0868 -1.0504  0.1009
43621SOL     OW34139   5.693   4.739   2.471 -0.0720  0.0806 -0.9528
43621SOL    HW134140   5.751   4.722   2.396  1.9087 -0.4261  0.6109
43621SOL    HW234141   5.695   4.658   2.522 -1.7940  0.2463 -0.5766
43622SOL     OW34142  10.116   1.253   3.505 -0.2728 -0.1141 -0.1967
43622SOL    HW134143  10.100   1.338   3.464 -0.0337 -0.0136 -0.0813
43622SOL    HW234144  10.209   1.237   3.494 -0.0496  0.2713  0.9647
43623SOL     OW34145  11.056   7.630   2.485  0.1074 -0.0486 -0.2531
43623SOL    HW134146  10.980   7.610   2.431  0.4713  1.5185 -1.3972
43623SOL    HW234147  11.131   7.614   2.428  0.5928 -0.3380  0.4527
43624SOL     OW34148  11.030   9.076   8.792  0.5017  0.0048 -0.5310
43624SOL    HW134149  11.056   9.168   8.781 -2.3768  0.8527 -1.1222
43624SOL    HW234150  11.035   9.061   8.886  0.0399  1.1269 -0.3112
43625SOL     OW34151  11.030   2.372   5.863  0.0320  0.0222  0.0408
43625SOL    HW134152  11.018   2.287   5.906  1.3536 -0.2236 -0.0531
43625SOL    HW234153  11.080   2.352   5.784 -2.0577  0.5128 -1.4929
43626SOL     OW34154   1.634   9.400   8.564  0.5846  0.6458 -0.0438
43626SOL    HW134155   1.647   9.432   8.474  1.9307  0.1114 -0.0723
43626SOL    HW234156   1.714   9.427   8.610  0.9796 -1.1092  0.3798
43627SOL     OW34157   9.281   9.813   2.961 -0.0132  0.1988  0.4010
43627SOL    HW134158   9.221   9.754   3.006 -0.4236 -0.0078 -0.3915
43627SOL    HW234159   9.366   9.770   2.967 -0.3347 -0.5841 -0.3130
43628SOL     OW34160   6.598   4.012   6.690  0.4108 -0.0960  0.1638
43628SOL    HW134161   6.621   3.926   6.655  0.4048 -0.5013  1.1277
43628SOL    HW234162   6.503   4.009   6.702  0.4357 -0.0292  0.3872
43629SOL     OW34163   0.611   0.805   9.242  0.5734  0.1196  0.2268
43629SOL    HW134164   0.551   0.863   9.289  1.2248  0.3496  0.7987
43629SOL    HW234165   0.691   0.806   9.295  0.9211 -0.5448 -0.2736
43630SOL     OW34166   2.521   6.505   2.790 -0.3561  0.3427 -0.2781
43630SOL    HW134167   2.523   6.425   2.842  1.5253  0.0047 -0.7722
43630SOL    HW234168   2.483   6.571   2.848  0.7665 -0.2499  1.1854
43631SOL     OW34169   8.657   1.480   2.667  0.4026  0.5654 -0.1640
43631SOL    HW134170   8.600   1.490   2.591  0.6584 -2.0844 -0.8071
43631SOL    HW234171   8.635   1.393   2.702  2.4059  0.4403  0.9592
43632SOL     OW34172   2.576   4.909   0.611  0.4577 -0.5742 -0.0494
43632SOL    HW134173   2.617   4.836   0.656  0.7173 -0.9090 -0.8070
43632SOL    HW234174   2.646   4.949   0.560  0.0937 -0.4487 -0.4610
43633SOL     OW34175   9.860   1.046   5.852 -0.4530 -0.3161  0.2304
43633SOL    HW134176   9.797   1.005   5.794 -1.6701  0.8795  0.6386
43633SOL    HW234177   9.942   1.002   5.834 -1.3953 -1.9216 -0.3358
43634SOL     OW34178   6.056   7.000   3.533 -0.3910 -0.6579  0.2817
43634SOL    HW134179   5.981   7.057   3.543 -0.8099 -1.1671  0.0784
43634SOL    HW234180   6.028   6.932   3.472 -0.2322 -1.6280  1.2404
43635SOL     OW34181   8.207   0.469   9.996  0.1465  1.0004  0.6844
43635SOL    HW134182   8.293   0.448   9.960  0.2807 -0.4392  1.7560
43635SOL    HW234183   8.190   0.400  10.060 -2.5363  0.2764 -0.6615
43636SOL     OW34184   3.738   0.980   5.611  0.0483  0.3943 -0.2796
43636SOL    HW134185   3.731   1.013   5.700  2.3458 -1.3999  0.6813
43636SOL    HW234186   3.659   0.927   5.598 -1.3841  2.3961 -0.1998
43637SOL     OW34187   5.345   1.422   5.253  0.4496 -0.7561 -0.3184
43637SOL    HW134188   5.272   1.369   5.222  0.1096  0.6305 -2.0600
43637SOL    HW234189   5.313   1.460   5.336 -1.0393  0.1734 -1.2654
43638SOL     OW34190   3.758  10.505   1.950  0.3230  0.3549  0.1317
43638SOL    HW134191   3.757  10.526   2.043  0.5221 -1.8933  0.7155
43638SOL    HW234192   3.666  10.494   1.926  0.3094  0.1180  0.2889
43639SOL     OW34193   4.978   5.025   9.663 -0.3799 -0.1001 -0.7412
43639SOL    HW134194   4.930   5.107   9.663 -0.4441  0.0111  2.6346
43639SOL    HW234195   4.912   4.958   9.646 -0.9628  0.3523 -0.3028
43640SOL     OW34196   9.405   3.504   1.447 -0.6613 -0.2725 -0.1230
43640SOL    HW134197   9.391   3.411   1.432 -0.6519 -0.0519 -1.6698
43640SOL    HW234198   9.492   3.510   1.486  1.2453 -0.7106 -3.8253
43641SOL     OW34199  11.360   1.145   5.791  0.1434 -0.2210  1.1397
43641SOL    HW134200  11.405   1.081   5.735 -0.0599 -0.6040  1.4088
43641SOL    HW234201  11.429   1.204   5.820 -0.0778  1.4696 -1.4438
43642SOL     OW34202   2.375   5.335   1.416 -0.7545 -0.0342 -0.1983
43642SOL    HW134203   2.374   5.430   1.431  0.3472 -0.1388  0.7153
43642SOL    HW234204   2.463   5.308   1.443 -0.7085 -1.1722 -1.4185
43643SOL     OW34205   7.219   9.896   9.103  0.2641 -0.3041 -0.0488
43643SOL    HW134206   7.191   9.815   9.059  0.7620 -1.1418  1.1144
43643SOL    HW234207   7.140   9.948   9.112  0.0146 -0.4610 -1.2217
43644SOL     OW34208   5.876   7.406   4.512 -0.6599 -0.7550  0.0848
43644SOL    HW134209   5.961   7.382   4.547 -0.2486  2.2143  1.5016
43644SOL    HW234210   5.816   7.393   4.585 -0.5299  1.5496  0.6752
43645SOL     OW34211   5.070   7.484   8.332  0.1195 -0.0315 -0.0417
43645SOL    HW134212   5.164   7.467   8.341 -0.1785 -1.9356 -0.2493
43645SOL    HW234213   5.030   7.398   8.325 -1.5595  0.7765 -1.0372
43646SOL     OW34214   7.067   4.581   9.273  0.1785  0.0349  0.2118
43646SOL    HW134215   7.062   4.547   9.362  1.2513  0.2648  0.3638
43646SOL    HW234216   7.094   4.506   9.220  1.7293  0.4143  0.4248
43647SOL     OW34217   9.159   0.764   7.312 -0.1389 -0.0695 -0.3224
43647SOL    HW134218   9.244   0.771   7.356 -1.6304 -0.2376  2.8159
43647SOL    HW234219   9.140   0.854   7.284 -0.7117  0.8504  2.7165
43648SOL     OW34220   2.899   2.619   5.081 -0.5698 -0.3218  0.2004
43648SOL    HW134221   2.837   2.675   5.034 -0.0501  1.4670  1.5474
43648SOL    HW234222   2.844   2.550   5.119 -1.4310  0.0250 -0.3821
43649SOL     OW34223   3.931   3.998   1.292 -0.0262 -0.2579  0.1349
43649SOL    HW134224   3.880   3.919   1.305  1.9067 -1.8597 -1.4385
43649SOL    HW234225   3.901   4.033   1.208  0.2660 -0.2450  0.0337
43650SOL     OW34226  10.226   7.626  10.517  0.2884 -0.6209 -0.1524
43650SOL    HW134227  10.219   7.640  10.611 -2.6556  1.7919 -0.5412
43650SOL    HW234228  10.274   7.702  10.485  1.1803 -1.3712 -0.6387
43651SOL     OW34229   3.402   7.308   1.424  0.0738 -0.1036  0.2999
43651SOL    HW134230   3.365   7.221   1.438 -0.5894  0.4660  2.5388
43651SOL    HW234231   3.496   7.297   1.439 -0.2484 -0.1199  2.7657
43652SOL     OW34232   6.215   8.660   0.021 -0.2077  0.0831  0.1243
43652SOL    HW134233   6.181   8.572   0.007  2.2219 -1.6464  3.4525
43652SOL    HW234234   6.308   8.653   0.000 -0.1504  2.2178 -0.5643
43653SOL     OW34235   3.879   0.358   6.932 -0.0662  0.1426  0.3909
43653SOL    HW134236   3.952   0.376   6.992  1.7782 -1.8219 -1.1144
43653SOL    HW234237   3.901   0.407   6.853 -1.9222  1.8214  0.8367
43654SOL     OW34238   4.562   8.919   0.848  0.3003 -0.0688  0.1583
43654SOL    HW134239   4.505   8.862   0.901  0.8367 -0.3820  0.4042
43654SOL    HW234240   4.594   8.862   0.778 -0.1066  0.2469 -0.2922
43655SOL     OW34241   0.301   9.110   3.077  0.0323 -1.0678 -0.0365
43655SOL    HW134242   0.396   9.104   3.064 -0.1359 -0.2783 -1.8547
43655SOL    HW234243   0.287   9.199   3.109 -0.1461 -1.0204 -0.2493
43656SOL     OW34244   5.652   0.875   7.934 -0.3884 -0.2392 -0.6442
43656SOL    HW134245   5.560   0.857   7.912 -0.3843 -2.1055  0.6410
43656SOL    HW234246   5.700   0.802   7.894  0.2615 -0.4520  0.4931
43657SOL     OW34247   4.852   8.888  10.880  0.7422 -0.2719  0.4336
43657SOL    HW134248   4.786   8.897  10.810  0.8947 -1.1558  0.1630
43657SOL    HW234249   4.928   8.851  10.836  1.3092  0.3965  0.8229
43658SOL     OW34250   0.548   7.986   8.830  0.8930  0.0664 -0.8789
43658SOL    HW134251   0.503   8.042   8.894 -1.1228 -0.0341 -2.1071
43658SOL    HW234252   0.571   7.907   8.880 -0.5240  0.0380 -0.2003
43659SOL     OW34253   1.415   7.162  10.563  0.3224  0.3797 -0.5067
43659SOL    HW134254   1.388   7.239  10.612  0.8956  1.4559 -1.8148
43659SOL    HW234255   1.334   7.115  10.545 -0.1145  1.0185 -0.2279
43660SOL     OW34256   7.925   1.842   4.937 -0.2783 -0.0183 -0.2807
43660SOL    HW134257   7.830   1.846   4.930 -0.2239  0.9831 -0.6939
43660SOL    HW234258   7.956   1.898   4.865  0.6144 -0.2371 -0.0734
43661SOL     OW34259  11.369   1.080   3.351  0.2147  0.3052  0.1915
43661SOL    HW134260  11.421   1.085   3.432 -0.6361  1.9329  0.6901
43661SOL    HW234261  11.324   1.165   3.347 -0.0492  0.1094 -1.8084
43662SOL     OW34262   0.883   2.981   3.331 -0.1375  0.9111 -0.3901
43662SOL    HW134263   0.848   2.892   3.329 -0.2790  0.9193  0.7542
43662SOL    HW234264   0.942   2.985   3.256  1.7983 -0.9944  0.9047
43663SOL     OW34265   6.245  10.112   9.436 -0.3797  0.6357 -0.0007
43663SOL    HW134266   6.295  10.075   9.363 -0.8108  1.9139 -0.9909
43663SOL    HW234267   6.301  10.183   9.469  0.1460 -0.4035  1.4325
43664SOL     OW34268   3.178   3.005   0.047 -0.4705  0.5285 -0.3198
43664SOL    HW134269   3.171   2.997  -0.048 -0.4788 -0.3800 -0.2588
43664SOL    HW234270   3.252   3.064   0.062 -1.7203  2.3054 -0.8930
43665SOL     OW34271   7.096   8.465   8.454 -0.3815 -0.2779 -0.2047
43665SOL    HW134272   7.057   8.410   8.386 -0.1608 -0.1344 -0.4469
43665SOL    HW234273   7.182   8.427   8.471 -0.5711 -0.5210  0.2464
43666SOL     OW34274   7.330   0.043   9.883 -0.2160 -0.3095 -0.2689
43666SOL    HW134275   7.334   0.109   9.813 -0.3568 -0.8943 -0.8414
43666SOL    HW234276   7.292   0.089   9.957 -2.1586 -0.2364 -1.2607
43667SOL     OW34277   5.604   5.139   0.371  0.0811 -0.5775 -0.1394
43667SOL    HW134278   5.698   5.147   0.384  0.0684 -1.3298  0.5267
43667SOL    HW234279   5.567   5.214   0.418  0.2907 -0.9105  0.5719
43668SOL     OW34280   2.803   2.554   3.289  0.2587  0.9920  0.3758
43668SOL    HW134281   2.810   2.642   3.252  1.6141  1.3097  1.2866
43668SOL    HW234282   2.875   2.505   3.248 -0.8143  0.1258 -0.5341
43669SOL     OW34283   8.035   3.541   8.101 -0.3021  0.1899 -0.5001
43669SOL    HW134284   7.998   3.473   8.157  0.2927  1.0998  1.0650
43669SOL    HW234285   8.129   3.533   8.112 -0.2029  0.8425 -0.8077
43670SOL     OW34286   1.259   5.194   4.376  0.3547  0.4429 -0.3487
43670SOL    HW134287   1.233   5.217   4.465  0.7853 -0.8866  0.1497
43670SOL    HW234288   1.235   5.102   4.367  3.7986 -0.6328 -0.1717
43671SOL     OW34289  10.959   3.114   6.927 -0.0545 -0.3507  0.2525
43671SOL    HW134290  10.871   3.085   6.904 -0.4830  2.1920 -1.6532
43671SOL    HW234291  10.955   3.209   6.928  2.9348 -0.0779 -1.1649
43672SOL     OW34292   6.269   8.470   8.609  0.4644 -0.0509 -0.4337
43672SOL    HW134293   6.181   8.450   8.577  1.5862 -2.5806 -2.2576
43672SOL    HW234294   6.320   8.491   8.530  1.8812 -0.2480  0.3858
43673SOL     OW34295   7.460   1.767   9.654  0.0700 -0.2366  0.7766
43673SOL    HW134296   7.381   1.722   9.623 -0.5738  1.4509 -0.1683
43673SOL    HW234297   7.432   1.810   9.735  0.2331 -0.2190  0.8232
43674SOL     OW34298  10.111   5.998   1.820  0.1480  0.1456  0.0180
43674SOL    HW134299  10.024   6.032   1.802 -0.5104 -1.4980  0.0048
43674SOL    HW234300  10.169   6.074   1.809 -1.0652  0.8760 -1.6813
43675SOL     OW34301   8.223   2.914   9.138  0.1452  0.6605 -0.0828
43675SOL    HW134302   8.257   2.825   9.149 -1.1524 -0.0990 -1.8185
43675SOL    HW234303   8.182   2.935   9.222  0.6428 -0.2938  0.4097
43676SOL     OW34304   7.170   2.064   7.504  0.0210  0.5887 -0.3243
43676SOL    HW134305   7.164   2.021   7.419 -2.0926 -0.1632  0.1389
43676SOL    HW234306   7.260   2.048   7.533  0.2203 -0.7734 -1.5797
43677SOL     OW34307   6.762   4.782   7.215  0.1376  0.1852  0.3057
43677SOL    HW134308   6.818   4.858   7.227  1.2774 -0.1381 -2.3615
43677SOL    HW234309   6.678   4.808   7.254  0.7412  2.4455  0.2447
43678SOL     OW34310   5.997   1.151   6.633  0.1079 -0.4106  0.6208
43678SOL    HW134311   5.916   1.176   6.590 -1.0006  0.5051  3.0755
43678SOL    HW234312   6.013   1.061   6.604 -0.4072  0.2125 -1.7892
43679SOL     OW34313  10.568   3.030  10.628  0.1016 -0.2548 -0.8769
43679SOL    HW134314  10.648   3.028  10.576  0.2844 -0.8448 -0.5777
43679SOL    HW234315  10.542   2.938  10.636  1.5748 -0.5448  2.3300
43680SOL     OW34316   6.170   2.748   5.393 -0.1295  0.8462 -0.2210
43680SOL    HW134317   6.210   2.825   5.354  2.1854  0.4233  1.1228
43680SOL    HW234318   6.232   2.721   5.461 -1.1240 -1.8935 -0.2911
43681SOL     OW34319   2.938   1.572   0.325 -0.0193  0.3683  0.8206
43681SOL    HW134320   2.876   1.644   0.340  0.7855  1.4472 -0.8213
43681SOL    HW234321   3.003   1.582   0.396 -1.4769 -0.5835  2.3670
43682SOL     OW34322   0.748   4.273  11.259  0.1085 -0.1826  0.3232
43682SOL    HW134323   0.825   4.219  11.278  0.5460  0.6915  1.1634
43682SOL    HW234324   0.673   4.216  11.277  0.5488 -1.1060 -0.6980
43683SOL     OW34325   8.872   3.552   9.872  0.7246 -0.2544  0.6291
43683SOL    HW134326   8.874   3.608   9.950  2.2279 -0.3635  0.6965
43683SOL    HW234327   8.863   3.613   9.799  0.5104 -0.0707  0.8054
43684SOL     OW34328   5.401   7.990   8.271  0.8365 -0.3128 -0.4090
43684SOL    HW134329   5.372   7.973   8.361 -0.9188 -0.8187 -1.0250
43684SOL    HW234330   5.409   8.085   8.266 -1.2025 -0.0862 -0.2828
43685SOL     OW34331   2.723   0.226   5.313  0.9770  0.2525 -0.3666
43685SOL    HW134332   2.687   0.297   5.260 -2.0950  0.1753  1.3952
43685SOL    HW234333   2.754   0.268   5.393  0.3406 -0.2048  0.1349
43686SOL     OW34334   8.600   6.616   8.051  0.0991 -0.2376  0.0753
43686SOL    HW134335   8.548   6.650   7.977 -0.1383 -1.0291 -0.1330
43686SOL    HW234336   8.553   6.647   8.128  0.6427  1.0491 -0.0855
43687SOL     OW34337   2.553   6.191   3.681 -0.3035 -0.1314 -0.1414
43687SOL    HW134338   2.514   6.121   3.630 -0.1287  0.9681 -1.8616
43687SOL    HW234339   2.641   6.159   3.703 -0.8915 -1.1940  0.7563
43688SOL     OW34340   2.338   0.103   5.150 -0.5749  0.0535 -0.3195
43688SOL    HW134341   2.351   0.012   5.124 -0.7329  0.5861 -2.4631
43688SOL    HW234342   2.408   0.121   5.213 -0.7153 -1.6079  0.3512
43689SOL     OW34343   1.987   6.284  11.066 -0.6115 -0.4437  0.0374
43689SOL    HW134344   2.066   6.335  11.047 -0.1929 -0.2869  1.9981
43689SOL    HW234345   2.019   6.206  11.113 -1.4940 -1.1443 -0.4936
43690SOL     OW34346   9.766   7.264   1.434 -0.1710 -0.0707 -0.3569
43690SOL    HW134347   9.814   7.344   1.413 -0.4056 -0.1405 -1.2265
43690SOL    HW234348   9.782   7.250   1.527 -2.0655  2.2927  0.4186
43691SOL     OW34349   9.576  10.758   5.725 -0.0794  0.1132 -0.6536
43691SOL    HW134350   9.571  10.732   5.633  1.3729 -0.4845 -0.5864
43691SOL    HW234351   9.533  10.687   5.772  0.5013 -0.3105 -0.7609
43692SOL     OW34352   9.048   0.201   8.172 -0.0494 -0.1353  0.3994
43692SOL    HW134353   9.107   0.228   8.102  1.2833  2.1371  2.2408
43692SOL    HW234354   8.965   0.243   8.151 -0.2213 -0.9928 -0.7264
43693SOL     OW34355   8.258   0.825   0.408  0.0219 -0.0091 -0.0969
43693SOL    HW134356   8.235   0.918   0.412 -1.4815 -0.3725  0.3164
43693SOL    HW234357   8.351   0.822   0.432 -0.1862  1.2877  0.9504
43694SOL     OW34358   1.773   8.532   9.105 -0.4648 -0.2318  0.8630
43694SOL    HW134359   1.782   8.598   9.036  0.1913 -0.7783  0.4245
43694SOL    HW234360   1.678   8.526   9.119 -0.5637  0.4330  0.5544
43695SOL     OW34361   4.379   5.223   9.940  0.2773  0.5269 -0.3451
43695SOL    HW134362   4.440   5.296   9.949  0.2603  0.5142 -0.1080
43695SOL    HW234363   4.346   5.229   9.850 -0.8368  1.7020  0.1082
43696SOL     OW34364   8.792   5.183   8.112  0.1277  0.2031 -0.1140
43696SOL    HW134365   8.842   5.129   8.050  0.3965  1.1903 -0.7915
43696SOL    HW234366   8.859   5.235   8.157 -0.0543 -0.5972  1.1312
43697SOL     OW34367   0.073   1.594  11.306 -0.6770  0.5809  0.2477
43697SOL    HW134368   0.110   1.679  11.285 -1.2046  0.2940 -2.0989
43697SOL    HW234369   0.010   1.577  11.237 -0.1942 -1.9556  0.3101
43698SOL     OW34370   5.004   8.317   7.562 -0.5189 -0.0316  0.0748
43698SOL    HW134371   4.953   8.397   7.552  1.0454  1.1968  1.3105
43698SOL    HW234372   4.988   8.267   7.482  0.1211  2.5006 -1.7642
43699SOL     OW34373   4.818   5.411   8.363 -0.2367  0.2281  0.4216
43699SOL    HW134374   4.888   5.348   8.346 -1.0619  0.1272 -3.4100
43699SOL    HW234375   4.737   5.364   8.343 -1.3355  1.0081  2.6662
43700SOL     OW34376   5.622   7.810   3.784 -0.0416 -0.2729 -0.6540
43700SOL    HW134377   5.581   7.861   3.714 -0.8692  1.2049  0.8533
43700SOL    HW234378   5.550   7.788   3.843  0.4886 -2.2702 -0.6644
43701SOL     OW34379   7.062   4.750   5.575 -0.0478 -0.1119 -0.8658
43701SOL    HW134380   6.976   4.718   5.549 -0.0048 -0.4240 -0.6239
43701SOL    HW234381   7.075   4.717   5.663 -0.5142  1.5912 -0.1224
43702SOL     OW34382   1.581   0.168   5.778  0.1061 -0.6582  0.0532
43702SOL    HW134383   1.612   0.093   5.727 -1.9615 -1.1381 -0.5978
43702SOL    HW234384   1.501   0.137   5.821 -0.4689  0.9751  0.2543
43703SOL     OW34385   8.132   3.786   5.007 -0.3123 -0.0481  0.5830
43703SOL    HW134386   8.159   3.709   5.058 -0.1079  0.0123  0.5663
43703SOL    HW234387   8.174   3.860   5.052 -0.0931  0.0007  0.3007
43704SOL     OW34388  10.215   5.116   5.890  0.8224  0.3765  0.6179
43704SOL    HW134389  10.120   5.120   5.901  0.2389 -1.6699 -2.3060
43704SOL    HW234390  10.242   5.039   5.940  0.4811 -0.4788 -0.4613
43705SOL     OW34391   6.460   9.124   7.170 -0.0514  0.0630 -0.1153
43705SOL    HW134392   6.521   9.125   7.097 -1.1765  2.1364 -1.1275
43705SOL    HW234393   6.376   9.101   7.130 -0.8803  2.1748  0.2604
43706SOL     OW34394   7.232   6.556   1.405 -0.5531 -0.5383 -0.5622
43706SOL    HW134395   7.141   6.526   1.400 -0.6558 -0.4581  0.5513
43706SOL    HW234396   7.278   6.486   1.450 -0.6841  0.6550  1.5628
43707SOL     OW34397   0.021   3.612   7.731 -0.5730 -0.0426 -0.5931
43707SOL    HW134398   0.046   3.674   7.662  0.4608 -1.1821 -1.2730
43707SOL    HW234399  -0.045   3.556   7.689 -1.1487  0.2693 -0.1271
43708SOL     OW34400   8.016  10.129   3.340  0.0430  0.5691  0.5895
43708SOL    HW134401   8.049  10.202   3.288 -1.1703 -1.1608 -2.9202
43708SOL    HW234402   7.927  10.114   3.309  0.0933 -2.1349  1.4281
43709SOL     OW34403   6.400   1.189  10.533 -0.0854 -0.2748 -0.5055
43709SOL    HW134404   6.322   1.240  10.510  0.8003  0.5018 -1.9769
43709SOL    HW234405   6.427   1.150  10.450  1.1520 -0.4284 -0.0364
43710SOL     OW34406  11.279   1.574   1.195  0.1985  0.1204  0.1908
43710SOL    HW134407  11.369   1.568   1.227 -0.7417 -0.1258  3.1398
43710SOL    HW234408  11.271   1.664   1.164  1.4919  0.0990 -0.2594
43711SOL     OW34409   8.036   8.257   6.155  0.2614  0.4410 -0.1827
43711SOL    HW134410   7.984   8.236   6.077 -0.2173  0.3594  0.1542
43711SOL    HW234411   8.126   8.240   6.129 -0.0547 -1.7529 -0.0369
43712SOL     OW34412   8.255   2.695  11.319 -0.4015  0.0735 -0.1389
43712SOL    HW134413   8.235   2.768  11.260 -0.5839  0.4752  0.4132
43712SOL    HW234414   8.350   2.696  11.327 -0.5147  1.5470  1.4727
43713SOL     OW34415   7.657   6.095   4.415  0.0880 -0.1696  0.4897
43713SOL    HW134416   7.675   6.050   4.333  1.1685  1.3405 -0.1611
43713SOL    HW234417   7.659   6.188   4.392  2.3858  0.4066  2.5311
43714SOL     OW34418   4.263   6.271   8.940  0.0796  0.0233  0.0706
43714SOL    HW134419   4.335   6.309   8.889  1.7435 -2.3990  0.4421
43714SOL    HW234420   4.187   6.280   8.884  0.8120  1.8383 -0.7338
43715SOL     OW34421   7.644   7.945   6.683  0.3493 -0.3032 -0.2755
43715SOL    HW134422   7.661   7.869   6.628  1.0313 -0.3018 -0.0784
43715SOL    HW234423   7.655   8.020   6.624  0.2611 -0.3330 -0.3302
43716SOL     OW34424   7.905   7.342  10.683  0.0885 -0.4210  0.3835
43716SOL    HW134425   7.849   7.377  10.614  0.3684 -2.5617 -1.0069
43716SOL    HW234426   7.947   7.419  10.721 -2.8442  1.1669  0.7013
43717SOL     OW34427   7.287   4.370  10.424 -0.2544  0.9216 -0.7848
43717SOL    HW134428   7.381   4.384  10.434 -0.2185  0.6938 -0.7910
43717SOL    HW234429   7.280   4.305  10.354 -0.3130 -0.7217  0.6777
43718SOL     OW34430   3.010   1.815   4.986  0.6577  0.5326  0.1808
43718SOL    HW134431   3.017   1.825   5.081 -1.4194  1.4381  0.2785
43718SOL    HW234432   2.962   1.733   4.974  0.8732  0.4453 -0.0941
43719SOL     OW34433   8.223   5.848   0.940  0.1409 -0.2390 -0.5060
43719SOL    HW134434   8.254   5.881   1.024 -0.1783 -2.2396  0.4717
43719SOL    HW234435   8.165   5.916   0.908  1.2663  1.1364  0.2606
43720SOL     OW34436   2.286   3.522   1.583 -0.5442 -0.1778  0.7524
43720SOL    HW134437   2.372   3.504   1.621 -1.0120 -1.2113  1.3896
43720SOL    HW234438   2.273   3.452   1.520 -1.0979 -0.2869  0.9838
43721SOL     OW34439   3.857   2.389   9.641 -0.7455  0.2229  0.2530
43721SOL    HW134440   3.853   2.477   9.605 -1.9210 -0.0431 -0.3412
43721SOL    HW234441   3.791   2.388   9.710 -0.7816 -0.1913  0.2204
43722SOL     OW34442   0.184  10.836   7.320 -0.0966  0.1332  0.1026
43722SOL    HW134443   0.189  10.863   7.411  0.5473 -1.8810  0.7306
43722SOL    HW234444   0.181  10.740   7.324  0.9529 -0.0441 -2.0164
43723SOL     OW34445   2.787   3.575   4.631 -0.3088  0.9404 -0.4007
43723SOL    HW134446   2.739   3.655   4.649 -2.7723 -0.5040 -0.1032
43723SOL    HW234447   2.770   3.519   4.707  1.1427  0.0358 -0.7038
43724SOL     OW34448   3.763  11.279   9.481 -0.0620  0.0641 -0.6466
43724SOL    HW134449   3.793  11.275   9.572 -2.3693 -0.9089  0.1252
43724SOL    HW234450   3.699  11.350   9.480 -1.6857 -1.3473 -0.9399
43725SOL     OW34451   5.261   8.184   4.893  0.0329  0.1351  0.0431
43725SOL    HW134452   5.225   8.224   4.814 -0.3571 -1.2396 -0.5046
43725SOL    HW234453   5.239   8.245   4.963 -0.7148  0.7799 -0.7281
43726SOL     OW34454   4.987   8.247   8.838  0.4015  0.5224  0.2717
43726SOL    HW134455   4.982   8.155   8.811 -2.1698  0.6357  0.1305
43726SOL    HW234456   5.078   8.272   8.823  0.2377 -0.7471 -3.8749
43727SOL     OW34457   4.932   1.739   2.415  0.8128  0.3457 -0.4243
43727SOL    HW134458   4.891   1.817   2.377  1.2716  0.9985  0.3963
43727SOL    HW234459   4.997   1.712   2.350 -1.2337 -1.0476 -2.0208
43728SOL     OW34460   5.670   3.942   9.423  0.3214 -0.5941  0.0288
43728SOL    HW134461   5.759   3.929   9.389  0.4052 -1.1747  0.4572
43728SOL    HW234462   5.678   4.014   9.485 -0.0058  1.1143 -1.8194
43729SOL     OW34463   8.643   7.976   3.365  0.3606  0.1108 -0.3993
43729SOL    HW134464   8.602   7.890   3.361 -0.3904  0.3881  0.6871
43729SOL    HW234465   8.649   8.005   3.274  2.5799 -1.9461 -0.9994
43730SOL     OW34466   2.534   6.519   1.137  0.0882  0.1659 -0.1337
43730SOL    HW134467   2.576   6.595   1.096 -0.9706  1.5204  1.1547
43730SOL    HW234468   2.466   6.557   1.193 -3.2862 -1.9212 -2.4707
43731SOL     OW34469   6.379   2.861   6.174 -0.3892  0.2050 -0.9158
43731SOL    HW134470   6.446   2.910   6.222 -1.3780  0.6658  0.0411
43731SOL    HW234471   6.409   2.862   6.083  1.1208  0.0158 -0.4584
43732SOL     OW34472   6.076   3.964   4.414 -0.5564  0.3167  0.1111
43732SOL    HW134473   6.091   3.982   4.507 -1.9581  2.2419  0.0343
43732SOL    HW234474   6.158   3.988   4.371  0.5576 -1.8147  0.9408
43733SOL     OW34475   2.202   7.513   6.246 -0.0065  0.4528  0.1328
43733SOL    HW134476   2.261   7.443   6.218  0.0460  0.1814  0.9086
43733SOL    HW234477   2.185   7.563   6.166  1.6112  0.7946 -0.0227
43734SOL     OW34478   6.095   0.805   5.032 -0.2153 -0.3807  0.9960
43734SOL    HW134479   6.015   0.796   4.980 -0.2021 -0.7241  1.0331
43734SOL    HW234480   6.121   0.896   5.020 -0.6604 -0.2426  1.0514
43735SOL     OW34481   3.617   3.975   1.347  0.9273  0.0423  0.0288
43735SOL    HW134482   3.552   4.038   1.377  0.7890 -0.8287  1.6547
43735SOL    HW234483   3.591   3.893   1.388  2.7399 -0.4372  0.2783
43736SOL     OW34484   7.967   6.663   2.567 -0.4284  0.2984 -0.1441
43736SOL    HW134485   8.054   6.643   2.532  0.4512  1.4163  1.2516
43736SOL    HW234486   7.963   6.614   2.649 -1.1300  0.2533 -0.2038
43737SOL     OW34487  10.069  10.443   4.108  0.4475 -0.0330  0.7162
43737SOL    HW134488  10.075  10.359   4.154 -0.2313 -0.5586 -0.1113
43737SOL    HW234489   9.976  10.465   4.113  0.7456  1.1007  1.6415
43738SOL     OW34490  11.303   8.303  11.078  0.2233  0.1986 -0.2958
43738SOL    HW134491  11.276   8.324  10.989 -1.2741 -0.0414  0.0677
43738SOL    HW234492  11.277   8.380  11.129 -0.3321 -0.2955  0.1713
43739SOL     OW34493   2.481  11.303   9.418  0.6984  0.4041  0.0256
43739SOL    HW134494   2.526  11.342   9.492  0.6821  0.8523 -0.1993
43739SOL    HW234495   2.456  11.377   9.363 -0.4462  0.1808  0.2155
43740SOL     OW34496   6.609   5.727  10.187  0.0825 -0.4075 -0.1341
43740SOL    HW134497   6.633   5.816  10.214 -1.2508  0.2936 -1.1410
43740SOL    HW234498   6.610   5.677  10.268 -1.3444  1.0596  0.8472
43741SOL     OW34499   0.233   2.776  10.972  0.0536 -0.7059  0.3550
43741SOL    HW134500   0.232   2.864  11.010 -0.5459 -0.5828  0.0551
43741SOL    HW234501   0.149   2.767  10.927  1.4071 -0.1856 -2.4841
43742SOL     OW34502   0.108   9.154   0.297 -0.3707  0.5197  0.1732
43742SOL    HW134503   0.064   9.213   0.359 -0.2310 -0.7967  1.5549
43742SOL    HW234504   0.037   9.124   0.239 -0.4872  1.8081 -0.3873
43743SOL     OW34505   5.851   3.398   2.959 -0.2270  0.7250  0.2463
43743SOL    HW134506   5.868   3.470   3.021  3.4528 -0.8238  1.3473
43743SOL    HW234507   5.796   3.337   3.008 -0.6337  1.2893  0.5125
43744SOL     OW34508  10.098   7.959  11.374 -0.5002 -0.2438  0.2415
43744SOL    HW134509  10.117   7.988  11.464 -1.5987  0.1363  0.3570
43744SOL    HW234510  10.096   7.864  11.380 -3.8631 -0.2252  1.3721
43745SOL     OW34511  11.246   4.665   0.779 -0.6225  0.1720 -0.4372
43745SOL    HW134512  11.321   4.658   0.720 -0.9585  2.8245 -1.3267
43745SOL    HW234513  11.280   4.708   0.857 -0.5469 -1.7567  0.6316
43746SOL     OW34514   4.852   5.256   2.158 -0.6838  0.1240 -0.2308
43746SOL    HW134515   4.815   5.185   2.105 -1.9502  1.1034 -0.7120
43746SOL    HW234516   4.782   5.280   2.218  0.5455 -0.5872  1.5701
43747SOL     OW34517  10.271   5.769   6.619 -0.1288 -0.1346 -0.3830
43747SOL    HW134518  10.329   5.844   6.622 -1.6923  1.1335 -0.3030
43747SOL    HW234519  10.254   5.754   6.526 -0.8630  0.4763 -0.3535
43748SOL     OW34520   3.049   9.427   5.879 -1.0249  0.4565 -0.6075
43748SOL    HW134521   3.055   9.366   5.953  0.9297 -0.3562 -1.3723
43748SOL    HW234522   2.957   9.422   5.852 -0.9512 -2.2976 -0.7118
43749SOL     OW34523   9.052  11.156   3.222 -0.0753  0.2425  0.6124
43749SOL    HW134524   8.960  11.153   3.250 -0.0786 -0.2871  0.5572
43749SOL    HW234525   9.068  11.248   3.202 -1.6413 -0.0826 -2.8090
43750SOL     OW34526   9.602   5.700  10.731  0.5283 -0.0514  0.0468
43750SOL    HW134527   9.602   5.632  10.798 -0.2368  1.0951  1.2766
43750SOL    HW234528   9.637   5.777  10.776  0.7850  0.5394 -1.1253
43751SOL     OW34529   1.749   8.504   2.667  0.0636 -0.4491 -0.4399
43751SOL    HW134530   1.731   8.587   2.624 -0.6186 -1.1127 -1.4978
43751SOL    HW234531   1.826   8.469   2.622 -0.0567 -0.6947 -0.4582
43752SOL     OW34532   4.794   4.770   5.955 -0.7397 -0.2855 -0.5681
43752SOL    HW134533   4.727   4.702   5.959  0.5337 -1.5367  0.9239
43752SOL    HW234534   4.780   4.821   6.035 -1.3895  0.9581 -1.4484
43753SOL     OW34535   1.470   4.857   1.789  0.6516  0.0171  0.4501
43753SOL    HW134536   1.384   4.822   1.764  0.4631  0.0036  1.1120
43753SOL    HW234537   1.505   4.895   1.708  0.8526 -1.6722 -0.3030
43754SOL     OW34538   6.155   9.093   1.530  0.1623  0.2114 -0.5306
43754SOL    HW134539   6.240   9.072   1.567  0.1522  1.2193  0.0933
43754SOL    HW234540   6.162   9.067   1.438  1.0915  0.1552 -0.4519
43755SOL     OW34541   1.204   8.375   6.452  0.3819 -0.2932  0.3399
43755SOL    HW134542   1.149   8.319   6.506 -0.9534  2.0609  1.5676
43755SOL    HW234543   1.200   8.461   6.494 -1.1319  1.8666 -3.6999
43756SOL     OW34544   7.386   2.644   5.245 -0.4459 -0.2661 -0.2675
43756SOL    HW134545   7.461   2.671   5.192  0.8133 -1.1632  0.9722
43756SOL    HW234546   7.331   2.722   5.251  1.8882  1.3936  1.2936
43757SOL     OW34547   4.908   9.800   7.940 -0.1274  0.4230 -0.3966
43757SOL    HW134548   4.828   9.749   7.926  0.2783 -0.3887  0.1910
43757SOL    HW234549   4.958   9.789   7.859 -0.3531  0.4675 -0.5434
43758SOL     OW34550   8.305   1.771   0.911 -0.2650 -0.6793 -0.4938
43758SOL    HW134551   8.249   1.779   0.834 -1.4567  0.3590  0.4334
43758SOL    HW234552   8.312   1.860   0.945  2.3147 -0.6792 -0.7702
43759SOL     OW34553   2.014   1.922   4.159  0.3942  0.7513 -0.1151
43759SOL    HW134554   2.027   1.989   4.092 -1.1931 -1.4995 -2.8700
43759SOL    HW234555   2.088   1.863   4.148 -0.4959 -0.2730 -0.7611
43760SOL     OW34556  10.952  10.287   4.117  0.6021 -0.0085  0.1647
43760SOL    HW134557  10.951  10.216   4.053  1.2921 -0.4187  0.5881
43760SOL    HW234558  10.922  10.246   4.198  2.4811 -0.2319  0.7978
43761SOL     OW34559   4.105   1.422   1.612 -0.3272 -0.1667  0.0782
43761SOL    HW134560   4.196   1.411   1.639 -0.7003  0.4427  1.6730
43761SOL    HW234561   4.080   1.337   1.576  1.0111 -0.1852 -0.9043
43762SOL     OW34562  10.640   6.113   0.025 -0.4661  0.0733  0.1545
43762SOL    HW134563  10.699   6.188   0.015 -0.4673  0.1145  0.4353
43762SOL    HW234564  10.553   6.148   0.008 -0.4041  0.0012 -0.3111
43763SOL     OW34565   5.037   8.809   2.387 -0.0246 -0.8676 -0.4309
43763SOL    HW134566   4.996   8.866   2.322  0.4439 -0.5237 -0.4275
43763SOL    HW234567   4.972   8.741   2.403 -1.0657  0.2669  0.3875
43764SOL     OW34568   1.707  10.545   3.642 -0.2260  0.1732  0.1517
43764SOL    HW134569   1.665  10.468   3.605 -0.4545  0.4191 -0.1113
43764SOL    HW234570   1.635  10.604   3.664 -0.0095  0.8753 -0.9231
43765SOL     OW34571   3.271   8.674  10.588  0.2574  0.2667  0.4118
43765SOL    HW134572   3.233   8.737  10.527 -0.4498 -0.7038 -0.1867
43765SOL    HW234573   3.365   8.676  10.570  0.3394  1.6083  0.8609
43766SOL     OW34574   7.962   7.151   0.733 -0.3297 -0.1086 -0.1846
43766SOL    HW134575   7.887   7.094   0.752 -1.2440  0.7832 -0.9995
43766SOL    HW234576   7.992   7.122   0.647  1.0116 -1.2189  0.6205
43767SOL     OW34577   0.106  10.313   9.733 -0.6798  0.3172 -0.6900
43767SOL    HW134578   0.127  10.250   9.802 -0.3979  2.3971  1.2090
43767SOL    HW234579   0.132  10.268   9.652  0.7270 -1.4911  0.6705
43768SOL     OW34580   9.008   9.396   7.841  0.5918  0.1663  0.6063
43768SOL    HW134581   9.057   9.413   7.922  0.3800 -0.8951  0.9757
43768SOL    HW234582   8.916   9.402   7.866  0.5170  0.8212  0.2094
43769SOL     OW34583  10.680   8.676   5.108  0.2833 -0.7815  0.2947
43769SOL    HW134584  10.718   8.719   5.184 -1.1312 -0.6689  0.9718
43769SOL    HW234585  10.754   8.632   5.066  1.9100  2.6284 -0.7438
43770SOL     OW34586   2.760   7.097   0.015  0.3879 -0.6025 -0.3590
43770SOL    HW134587   2.688   7.071  -0.042  0.2403 -1.5093  0.2204
43770SOL    HW234588   2.779   7.188  -0.010 -1.9916  0.1989  0.5170
43771SOL     OW34589   3.661   8.658   7.726  0.1430  0.2019 -0.0484
43771SOL    HW134590   3.643   8.591   7.792 -1.7436  1.0239  0.3199
43771SOL    HW234591   3.639   8.616   7.642  1.0916 -0.3397 -0.0416
43772SOL     OW34592   0.972   0.227   2.703  0.1459  0.1686  0.6824
43772SOL    HW134593   1.003   0.139   2.726 -0.4351  0.1338  1.3934
43772SOL    HW234594   0.901   0.212   2.641  0.8710  0.2059 -0.1828
43773SOL     OW34595   4.630  11.079   8.313  0.0160 -0.2002 -0.2968
43773SOL    HW134596   4.661  10.988   8.314  0.7920  0.0583 -0.2932
43773SOL    HW234597   4.589  11.092   8.398 -0.5470 -0.6947 -0.4853
43774SOL     OW34598   8.288   5.520   3.989  0.1256 -0.2606 -0.1590
43774SOL    HW134599   8.357   5.456   3.974  0.7956  0.4572 -0.1744
43774SOL    HW234600   8.276   5.520   4.084 -0.5928 -1.1299 -0.2290
43775SOL     OW34601   5.832   6.647  11.394  0.0039 -0.6613  0.2892
43775SOL    HW134602   5.842   6.740  11.417 -0.8027  0.1698 -2.3356
43775SOL    HW234603   5.740   6.628  11.412 -0.1579 -0.5542 -0.4088
43776SOL     OW34604   6.655   6.492   9.305  0.3737 -0.0675  0.2050
43776SOL    HW134605   6.657   6.559   9.238  0.4938  0.1565  0.4323
43776SOL    HW234606   6.585   6.519   9.364  0.7388  0.1134  0.5597
43777SOL     OW34607   1.555   3.012   4.711 -0.0816 -0.5955 -0.1066
43777SOL    HW134608   1.499   2.999   4.787  0.6779 -0.0533  0.5711
43777SOL    HW234609   1.602   2.929   4.702  1.9995  0.2282  1.8911
43778SOL     OW34610   2.538   3.459   2.753 -0.1200  0.0877 -0.1066
43778SOL    HW134611   2.508   3.550   2.742 -1.9227 -0.3632  0.6262
43778SOL    HW234612   2.484   3.409   2.691  0.0526 -0.6120  0.2995
43779SOL     OW34613   9.059   4.752  10.284 -0.0804 -0.3585  0.1499
43779SOL    HW134614   9.080   4.819  10.348 -0.9718 -0.6750  0.7968
43779SOL    HW234615   9.042   4.673  10.336  0.7966 -1.0611 -0.5793
43780SOL     OW34616  10.636   0.764   1.181 -0.4356 -0.2696 -0.2049
43780SOL    HW134617  10.555   0.815   1.185 -1.4164 -1.7506 -0.4140
43780SOL    HW234618  10.609   0.679   1.147  1.1775 -0.8896 -0.0194
43781SOL     OW34619   5.749   3.822   9.049 -0.3877 -0.1334 -0.0256
43781SOL    HW134620   5.694   3.748   9.025  0.7177 -0.6684 -0.9444
43781SOL    HW234621   5.759   3.815   9.144 -1.1808 -0.5136  0.0394
43782SOL     OW34622  10.603   8.385   0.098  0.2846 -0.2650 -0.0692
43782SOL    HW134623  10.512   8.356   0.105  0.1440  0.3257  0.8302
43782SOL    HW234624  10.619   8.392   0.004 -0.8194  0.2514 -0.2383
43783SOL     OW34625   3.705   9.723   8.265 -0.8241 -0.3683 -0.1244
43783SOL    HW134626   3.727   9.771   8.185  0.0341 -1.5845 -0.6408
43783SOL    HW234627   3.727   9.632   8.245 -1.6452 -0.8557  1.1194
43784SOL     OW34628   4.131   5.224  10.743  0.0928  0.2817 -0.2813
43784SOL    HW134629   4.184   5.302  10.732  1.2215  0.2000  3.3099
43784SOL    HW234630   4.188   5.161  10.788 -2.4665 -0.3748  2.3658
43785SOL     OW34631   9.830   5.293   2.673  0.1912 -0.5468  1.2341
43785SOL    HW134632   9.884   5.360   2.714 -1.7606  1.1348  1.1974
43785SOL    HW234633   9.755   5.282   2.731 -0.5913 -1.1329  0.1647
43786SOL     OW34634   6.258   3.447   9.695  0.1726 -0.3824  0.8029
43786SOL    HW134635   6.296   3.405   9.772  0.8283  1.0646  1.3028
43786SOL    HW234636   6.221   3.528   9.728 -2.4761 -1.2171  0.1266
43787SOL     OW34637  10.923   5.559   1.294 -0.4019 -0.0580  0.1099
43787SOL    HW134638  10.933   5.549   1.200 -1.9124  0.8048 -0.1803
43787SOL    HW234639  10.893   5.474   1.325  0.8999 -0.5916 -0.0356
43788SOL     OW34640   4.364   1.160   3.623 -0.2678 -0.4100 -0.4294
43788SOL    HW134641   4.362   1.104   3.700 -0.7500  0.8545  0.5215
43788SOL    HW234642   4.438   1.219   3.638 -0.1239 -0.3954 -1.1362
43789SOL     OW34643   3.236   9.825   8.431 -0.0962  0.2922  0.4169
43789SOL    HW134644   3.318   9.834   8.382 -0.1882 -2.0264 -0.2751
43789SOL    HW234645   3.252   9.871   8.514  1.4111  1.0012 -0.2286
43790SOL     OW34646   6.408   3.842   4.911  0.8070  0.0905 -0.8919
43790SOL    HW134647   6.355   3.771   4.946 -0.0818  0.1887 -1.9652
43790SOL    HW234648   6.459   3.801   4.841  0.7022  0.3864 -1.1447
43791SOL     OW34649   9.439   7.037   8.819  0.0200  0.4874 -0.3346
43791SOL    HW134650   9.415   7.074   8.903  1.5628  2.3455 -0.6499
43791SOL    HW234651   9.473   6.950   8.840  0.6650  1.0420  1.0232
43792SOL     OW34652   4.813   4.037   5.931  0.2761 -0.1384 -0.4927
43792SOL    HW134653   4.781   4.122   5.961  0.9096  0.4769 -1.4932
43792SOL    HW234654   4.742   3.976   5.949 -0.8609  0.9175 -1.2715
43793SOL     OW34655   0.507   3.265   9.381  0.0548  0.2335 -0.1827
43793SOL    HW134656   0.470   3.188   9.426 -0.1960 -0.8535 -2.1408
43793SOL    HW234657   0.527   3.326   9.452  0.1874 -1.5917  1.4515
43794SOL     OW34658   8.636  10.085   2.770 -0.4385 -0.1350  0.3225
43794SOL    HW134659   8.693  10.014   2.802 -1.8460 -1.8800 -0.8436
43794SOL    HW234660   8.601  10.125   2.850  1.3387  0.1153  1.0357
43795SOL     OW34661   3.906   8.249   3.057 -0.1507 -0.5180  0.0320
43795SOL    HW134662   3.922   8.159   3.085 -0.4264  0.1414  2.5453
43795SOL    HW234663   3.985   8.296   3.084 -0.8903  0.3597  0.7146
43796SOL     OW34664   2.984   1.704   8.834  0.2176 -0.2758  0.2692
43796SOL    HW134665   2.966   1.791   8.870  0.6427  0.1747 -0.5625
43796SOL    HW234666   2.899   1.671   8.806 -0.0228 -0.3641  1.0993
43797SOL     OW34667   6.825   2.452   8.417 -0.1218  0.0330  0.3795
43797SOL    HW134668   6.817   2.365   8.378 -0.5963  0.0346  0.4627
43797SOL    HW234669   6.919   2.465   8.429 -0.0238 -0.2963 -0.0155
43798SOL     OW34670   9.449  10.320   6.841  0.2976  0.1082  0.0890
43798SOL    HW134671   9.367  10.327   6.889  1.0310  2.5480  1.1266
43798SOL    HW234672   9.422  10.320   6.749 -0.9041  0.0273  0.4195
43799SOL     OW34673   3.118   1.149   1.267  0.4647 -0.3377 -0.0467
43799SOL    HW134674   3.026   1.159   1.244  0.7975  1.2697 -0.8762
43799SOL    HW234675   3.147   1.238   1.289  1.7317 -0.8631  0.5276
43800SOL     OW34676   1.130   1.509  10.914 -0.6773 -0.0768  0.3975
43800SOL    HW134677   1.125   1.419  10.948  2.4447 -0.3393  0.4602
43800SOL    HW234678   1.155   1.561  10.990  0.0591  0.3990 -0.1672
43801SOL     OW34679   8.209   3.751   9.758 -0.4819  0.5048  0.3136
43801SOL    HW134680   8.198   3.828   9.702  1.5923  0.8828  0.3424
43801SOL    HW234681   8.297   3.719   9.738 -1.3350 -1.9672  0.2127
43802SOL     OW34682   6.788   9.618   6.683 -0.0540 -0.3435 -0.4345
43802SOL    HW134683   6.750   9.705   6.697  0.0722 -0.6188  2.0675
43802SOL    HW234684   6.712   9.560   6.681 -0.0803 -0.2866 -1.0740
43803SOL     OW34685   2.594   3.160   1.632 -0.0005 -0.5658  0.6198
43803SOL    HW134686   2.514   3.187   1.586  0.4737  0.5689  0.4315
43803SOL    HW234687   2.646   3.117   1.564 -0.6650 -1.8198  0.8702
43804SOL     OW34688   7.209  11.222   9.736 -0.7048 -0.2623  0.5292
43804SOL    HW134689   7.233  11.298   9.790 -0.7209  0.4135 -0.3931
43804SOL    HW234690   7.288  11.167   9.736 -0.1017  0.5737 -0.1561
43805SOL     OW34691   3.351   3.942   8.767  0.2951 -0.0485  0.6866
43805SOL    HW134692   3.312   3.955   8.680  0.8343 -1.6123  0.1752
43805SOL    HW234693   3.386   4.028   8.790  0.8283  0.2277 -0.9931
43806SOL     OW34694   1.139   9.304   4.029  0.0075 -0.3151 -0.9876
43806SOL    HW134695   1.067   9.344   4.078 -0.2337  0.4158 -1.8917
43806SOL    HW234696   1.218   9.338   4.069 -0.1423 -0.8874 -0.1755
43807SOL     OW34697   4.697   1.786   2.924  0.4280  0.2823  0.5255
43807SOL    HW134698   4.780   1.813   2.883  1.4778 -1.5834  1.2897
43807SOL    HW234699   4.682   1.850   2.993  1.0321  0.8586  0.1349
43808SOL     OW34700   2.197   5.332   5.621  1.0870 -0.2163 -0.4395
43808SOL    HW134701   2.265   5.354   5.685 -0.1212  0.4819  0.6498
43808SOL    HW234702   2.130   5.287   5.672  0.9601 -1.4021 -1.6032
43809SOL     OW34703   0.712   7.334   8.266 -0.1855  0.0969  0.3518
43809SOL    HW134704   0.780   7.392   8.230  0.1753 -0.0303  0.8154
43809SOL    HW234705   0.740   7.317   8.356  1.2512 -3.0918 -0.5547
43810SOL     OW34706   7.294   5.750   5.966  0.1708 -0.1905  0.0775
43810SOL    HW134707   7.268   5.763   6.057  1.0993 -0.2650  0.3726
43810SOL    HW234708   7.213   5.751   5.917 -0.5003 -1.6901  1.0863
43811SOL     OW34709   3.126   5.864   2.202 -0.0613  0.2578  0.4824
43811SOL    HW134710   3.070   5.904   2.269 -1.0520 -1.4079  0.7094
43811SOL    HW234711   3.081   5.783   2.178  1.3486 -0.2307 -0.6783
43812SOL     OW34712   6.398   3.157  10.187 -0.3129 -0.2869 -0.2175
43812SOL    HW134713   6.432   3.202  10.110 -0.7508 -0.6165 -0.6089
43812SOL    HW234714   6.306   3.140  10.167 -1.1049  1.7148  1.3223
43813SOL     OW34715   7.477   5.035   9.199  0.5206  0.6783  0.2939
43813SOL    HW134716   7.399   5.026   9.253 -0.6217  1.4019 -1.1744
43813SOL    HW234717   7.445   5.032   9.109  2.5813 -2.4215 -0.4719
43814SOL     OW34718   4.789   5.733   1.645 -0.3211  0.1703 -0.4837
43814SOL    HW134719   4.699   5.744   1.613 -0.0859 -0.8267 -1.5833
43814SOL    HW234720   4.780   5.678   1.723 -0.6359 -0.4677 -0.9557
43815SOL     OW34721   3.988   5.064   6.994 -0.2323 -0.1476 -0.3083
43815SOL    HW134722   3.908   5.030   7.035 -0.6952 -0.2303 -1.2496
43815SOL    HW234723   4.008   5.002   6.924  0.0036  0.4818 -0.8141
43816SOL     OW34724   1.322   5.696   3.740  0.2089 -0.3707  0.2318
43816SOL    HW134725   1.328   5.715   3.646  0.2060  3.9315  0.9193
43816SOL    HW234726   1.404   5.651   3.761  0.9236 -0.0082 -1.5912
43817SOL     OW34727   8.662   1.734   0.073  0.0269  0.2207  0.4334
43817SOL    HW134728   8.602   1.679   0.123  1.1053 -0.0943  1.4368
43817SOL    HW234729   8.615   1.755  -0.008 -0.7474 -1.4379  0.4238
43818SOL     OW34730   6.617  10.171   7.196  0.0131 -0.0017 -0.6635
43818SOL    HW134731   6.608  10.076   7.192 -2.7766  0.1757 -0.7621
43818SOL    HW234732   6.593  10.194   7.286  0.0503  0.6343 -0.8077
43819SOL     OW34733   6.118  11.259   4.482  0.0898  0.2062 -0.7225
43819SOL    HW134734   6.212  11.241   4.475 -0.0921 -0.6588 -1.0162
43819SOL    HW234735   6.079  11.212   4.408 -0.2797  2.8463 -2.3499
43820SOL     OW34736   3.350  10.750   6.037  0.3906 -0.4694  0.3178
43820SOL    HW134737   3.327  10.700   5.959 -2.4547 -0.4386  1.0360
43820SOL    HW234738   3.304  10.706   6.108 -1.2887  2.3974  1.1723
43821SOL     OW34739  10.539   5.181   7.460 -0.0899 -0.3149 -0.2130
43821SOL    HW134740  10.571   5.093   7.441  1.0674  0.2953 -1.2593
43821SOL    HW234741  10.490   5.207   7.382 -0.2176  0.0556 -0.0152
43822SOL     OW34742   0.339   9.529   7.686 -0.4916 -0.7419 -0.2344
43822SOL    HW134743   0.364   9.576   7.606  0.4730  0.5296  0.7722
43822SOL    HW234744   0.249   9.557   7.703 -0.8395 -1.3115 -1.0525
43823SOL     OW34745   4.530   5.124   4.947 -0.3812 -0.2615 -0.0210
43823SOL    HW134746   4.468   5.165   5.007  0.7159 -1.3741  2.0145
43823SOL    HW234747   4.510   5.030   4.953  0.0295 -0.4248 -1.0795
43824SOL     OW34748  10.465   1.177   8.106 -0.0555 -0.0245 -0.2641
43824SOL    HW134749  10.387   1.225   8.079  0.1201  0.2376 -0.3012
43824SOL    HW234750  10.536   1.240   8.100 -0.1078  0.2451  1.4461
43825SOL     OW34751   6.585  10.664  11.258 -0.1606 -0.0600 -0.6378
43825SOL    HW134752   6.505  10.695  11.301 -0.6019  0.1542 -1.5890
43825SOL    HW234753   6.627  10.744  11.225  0.8822 -0.0852  0.5605
43826SOL     OW34754   7.947   3.912  10.765  0.6911 -0.2996 -0.7341
43826SOL    HW134755   8.006   3.897  10.839  0.8163 -1.9847 -1.1152
43826SOL    HW234756   8.006   3.932  10.692  0.6531  0.0480 -0.6707
43827SOL     OW34757   3.012  10.420   7.186 -0.5177  0.8892 -0.3831
43827SOL    HW134758   3.066  10.341   7.192  0.8186  1.8210  0.4001
43827SOL    HW234759   3.049  10.479   7.252 -2.8429  1.3896  0.5569
43828SOL     OW34760   5.539   3.944   4.661 -0.3552 -0.0931  0.1632
43828SOL    HW134761   5.514   4.016   4.603 -1.0403 -0.9927 -0.6783
43828SOL    HW234762   5.625   3.970   4.694 -1.2857  1.9021  1.2118
43829SOL     OW34763   6.550   5.398   7.780  0.2982  0.2815 -0.3556
43829SOL    HW134764   6.533   5.311   7.744  0.1877  1.1665 -2.5995
43829SOL    HW234765   6.580   5.381   7.870 -0.4135 -2.0030 -0.4758
43830SOL     OW34766  10.639   7.125   3.756 -0.2764 -0.1020  0.2674
43830SOL    HW134767  10.681   7.143   3.672 -0.7206  1.4521  0.3449
43830SOL    HW234768  10.710   7.131   3.820  0.1065 -1.5109  0.0199
43831SOL     OW34769   0.029   9.872   1.194  0.1472  0.5592  0.4385
43831SOL    HW134770   0.029   9.951   1.247  0.1921  0.6949  0.2370
43831SOL    HW234771   0.068   9.899   1.110 -0.1535  0.4073  0.2494
43832SOL     OW34772   5.582   3.267  10.261  0.3431 -0.2910 -0.1786
43832SOL    HW134773   5.656   3.245  10.318  1.4974  0.1926 -1.4273
43832SOL    HW234774   5.567   3.361  10.278 -3.4796 -1.2840  3.9049
43833SOL     OW34775   4.346  10.856   5.052  0.0426 -0.0729  0.1618
43833SOL    HW134776   4.410  10.912   5.097 -1.8889  0.0570  2.9529
43833SOL    HW234777   4.368  10.767   5.079 -0.0495 -0.1742 -0.0939
43834SOL     OW34778   7.677   5.416   7.223  0.6844  0.1430 -0.5971
43834SOL    HW134779   7.682   5.328   7.259  1.1374  0.3649 -0.1051
43834SOL    HW234780   7.588   5.444   7.241  1.3769  0.9315  2.0360
43835SOL     OW34781   0.957   1.478   3.245 -0.2251  0.5799 -0.0702
43835SOL    HW134782   1.001   1.559   3.217 -0.1997  0.1795 -1.2776
43835SOL    HW234783   1.010   1.408   3.207 -1.0972  0.0482 -0.3345
43836SOL     OW34784   9.039   5.075   6.663 -0.1790 -0.0191 -0.6262
43836SOL    HW134785   9.109   5.011   6.652 -0.4674 -0.4568  0.0384
43836SOL    HW234786   9.080   5.159   6.643  1.0076 -0.0630  1.3932
43837SOL     OW34787   4.075   2.111   8.671 -0.3991 -0.0665  0.0628
43837SOL    HW134788   3.983   2.112   8.697 -0.3964 -0.1299  0.0754
43837SOL    HW234789   4.092   2.199   8.639 -1.1123 -0.7148 -2.2718
43838SOL     OW34790   4.685  11.017   4.799  0.6508 -0.2306 -0.1849
43838SOL    HW134791   4.668  11.107   4.829 -0.5573 -0.4417 -0.1672
43838SOL    HW234792   4.748  10.982   4.862  2.1915  1.0189 -0.9635
43839SOL     OW34793   6.889  11.231   6.629  0.0121 -0.1280 -0.3082
43839SOL    HW134794   6.896  11.139   6.606 -2.1558 -0.7489  1.2102
43839SOL    HW234795   6.798  11.255   6.608  0.6336  1.8044 -1.0654
43840SOL     OW34796   9.807   2.558   7.979 -0.5945 -0.4104 -0.2531
43840SOL    HW134797   9.833   2.610   8.054 -2.2063 -2.0034  1.5146
43840SOL    HW234798   9.889   2.534   7.936  0.4512 -0.4515  1.6897
43841SOL     OW34799   4.248   2.709   6.553  0.5879 -0.0281  0.3773
43841SOL    HW134800   4.210   2.627   6.521  0.0428  0.1923  0.4418
43841SOL    HW234801   4.173   2.767   6.565  1.0601  0.8641 -0.7653
43842SOL     OW34802   8.814   3.548   9.032 -0.0166  0.4226  0.1145
43842SOL    HW134803   8.878   3.537   9.103  0.8457 -1.9509 -0.9337
43842SOL    HW234804   8.811   3.642   9.017  2.4951  0.6941  0.8867
43843SOL     OW34805   4.761   6.337   3.615 -0.3900 -0.2938  0.2111
43843SOL    HW134806   4.710   6.256   3.607 -2.2030  0.8169 -0.1651
43843SOL    HW234807   4.819   6.322   3.690 -2.9547 -0.8492  2.2362
43844SOL     OW34808   7.300  10.015   4.007 -0.0819  0.1444  0.3223
43844SOL    HW134809   7.355   9.971   4.073 -0.3544 -0.3651  0.2115
43844SOL    HW234810   7.214  10.020   4.048 -0.0445  0.6083  0.3459
43845SOL     OW34811  10.399   5.581  10.812 -0.1252  0.4179 -0.0621
43845SOL    HW134812  10.362   5.624  10.889  0.1823 -0.4327  0.5728
43845SOL    HW234813  10.332   5.519  10.784  0.6132 -0.8380  0.8497
43846SOL     OW34814   6.695   1.159   4.072  0.4492  0.6407 -0.5615
43846SOL    HW134815   6.708   1.204   4.156 -0.7944 -0.3377  0.1973
43846SOL    HW234816   6.605   1.125   4.077  1.3284 -1.9540 -1.0483
43847SOL     OW34817   9.040  10.360   2.667 -0.6327 -0.4481  0.0849
43847SOL    HW134818   8.996  10.395   2.744 -1.4425 -1.4626  0.0956
43847SOL    HW234819   8.984  10.289   2.637  0.8592 -1.6326 -0.0362
43848SOL     OW34820   7.881   9.974   9.539  0.1001  0.0560 -0.7324
43848SOL    HW134821   7.926  10.059   9.547  0.3840 -0.2294  0.9569
43848SOL    HW234822   7.830   9.966   9.619  1.8261 -2.3370  0.2478
43849SOL     OW34823   8.284   1.433   0.901  0.4476  0.4252  0.1144
43849SOL    HW134824   8.292   1.503   0.966  0.3828 -1.4436  2.2794
43849SOL    HW234825   8.374   1.415   0.874  0.6414  0.2470  0.8408
43850SOL     OW34826   3.402   8.506   7.316  0.0432  0.0981 -0.2994
43850SOL    HW134827   3.343   8.462   7.256 -0.0604  0.3047 -0.3507
43850SOL    HW234828   3.437   8.579   7.266  0.8580 -0.4103 -0.4876
43851SOL     OW34829   9.352   7.514   8.968  0.0181  0.2141 -0.0014
43851SOL    HW134830   9.405   7.458   8.911 -1.0351 -1.7195  0.8189
43851SOL    HW234831   9.373   7.484   9.056 -0.4887  1.2302  0.4718
43852SOL     OW34832   0.999   1.741  10.737  0.4471  0.2082 -0.5719
43852SOL    HW134833   0.999   1.746  10.641  1.6057 -0.0645 -0.5957
43852SOL    HW234834   0.981   1.649  10.756  0.0714  0.2912 -0.5216
43853SOL     OW34835  10.347   4.561  11.281 -0.1639 -0.5650 -0.0593
43853SOL    HW134836  10.419   4.588  11.338  0.4183 -0.0011 -1.0272
43853SOL    HW234837  10.269   4.600  11.319  0.1446 -0.5840  0.6018
43854SOL     OW34838   0.597   9.847   3.618 -0.2424 -0.4902 -0.0847
43854SOL    HW134839   0.688   9.829   3.595  0.0720  1.2209 -0.3118
43854SOL    HW234840   0.601   9.893   3.702 -0.7629  0.8472 -0.7613
43855SOL     OW34841   3.488   1.422   5.467 -0.4585  0.1951  0.9867
43855SOL    HW134842   3.489   1.327   5.477 -4.4406  0.0451  1.4437
43855SOL    HW234843   3.509   1.437   5.375  0.8550 -1.0218  1.0530
43856SOL     OW34844   8.782   9.909   1.240  0.3781 -0.1219  0.6613
43856SOL    HW134845   8.870   9.888   1.210  1.4115  2.6165  1.3927
43856SOL    HW234846   8.789   9.908   1.336 -0.3699  0.0848  0.7257
43857SOL     OW34847  10.953   9.704   1.158  0.0680 -0.3794 -0.6475
43857SOL    HW134848  10.946   9.800   1.157 -0.2725 -0.4049 -0.6511
43857SOL    HW234849  11.046   9.688   1.173  0.1937 -0.0478 -1.0609
43858SOL     OW34850   2.992   2.608  10.490  0.1240  0.0394 -0.2158
43858SOL    HW134851   3.081   2.627  10.462 -0.3162  1.5853 -0.6665
43858SOL    HW234852   3.003   2.552  10.567  1.4452 -0.5176 -0.7742
43859SOL     OW34853   7.183   2.370  11.083  0.1928  0.4128 -0.3758
43859SOL    HW134854   7.173   2.399  11.174 -1.3457  0.8176 -0.6456
43859SOL    HW234855   7.158   2.278  11.085  0.1445  0.4256 -0.3939
43860SOL     OW34856   4.426   6.174   2.312  0.0273 -0.0137  0.1442
43860SOL    HW134857   4.511   6.153   2.274  0.0415 -0.8218  0.5851
43860SOL    HW234858   4.445   6.193   2.404 -0.1488  0.7928  0.0236
43861SOL     OW34859   5.635   2.003   0.702 -0.0526  0.0880  0.1855
43861SOL    HW134860   5.629   2.098   0.700  1.1913  0.2277  1.7909
43861SOL    HW234861   5.615   1.976   0.612 -0.3820  1.8551 -0.2999
43862SOL     OW34862   8.417   8.613   9.881 -0.2184 -0.1457 -0.6341
43862SOL    HW134863   8.416   8.704   9.850 -1.0447 -0.0141 -0.2191
43862SOL    HW234864   8.336   8.575   9.848 -0.1784 -0.5559 -0.2685
43863SOL     OW34865   1.254   7.781   5.760  0.0001 -0.0501 -0.1598
43863SOL    HW134866   1.322   7.716   5.773 -0.2454 -0.0016  1.5049
43863SOL    HW234867   1.274   7.820   5.675  0.1856 -2.2190 -1.1784
43864SOL     OW34868   5.514   5.231   0.114 -0.6258 -0.7224 -0.5917
43864SOL    HW134869   5.560   5.188   0.187  0.1213 -1.0830 -1.2638
43864SOL    HW234870   5.431   5.260   0.152  0.2265  0.1236  0.7027
43865SOL     OW34871   0.976   6.064   0.797  0.1777  0.0281 -0.1581
43865SOL    HW134872   0.933   5.998   0.851  0.6337 -0.4185 -0.3302
43865SOL    HW234873   1.034   6.110   0.857  0.4591 -0.2664 -0.2034
43866SOL     OW34874   0.238   9.640   3.340  0.0082 -0.2564 -0.3328
43866SOL    HW134875   0.330   9.666   3.346  0.2959 -1.5514  1.6390
43866SOL    HW234876   0.240   9.545   3.329 -1.0777 -0.5274  1.3934
43867SOL     OW34877   5.212   9.317   3.154  0.0860 -0.4878 -0.4252
43867SOL    HW134878   5.172   9.231   3.164 -1.1866  0.0320 -0.8426
43867SOL    HW234879   5.177   9.351   3.072  0.2164  0.6130 -0.0491
43868SOL     OW34880   7.162   3.452   7.086  0.4162 -0.1682 -0.0039
43868SOL    HW134881   7.136   3.515   7.019 -1.1833 -0.6953  0.0679
43868SOL    HW234882   7.234   3.403   7.047 -1.1721 -1.1808 -1.8050
43869SOL     OW34883   4.417  11.170  10.558 -0.5524 -0.2023  0.0122
43869SOL    HW134884   4.465  11.093  10.585  0.1481 -0.2425 -1.2760
43869SOL    HW234885   4.483  11.239  10.551 -1.0907  0.4003  0.6736
43870SOL     OW34886   3.996  10.106   7.796  0.5057  0.6319  0.6320
43870SOL    HW134887   3.938  10.034   7.770 -1.5665  1.4221  2.6993
43870SOL    HW234888   4.054  10.067   7.862  2.5417 -0.1778 -1.4893
43871SOL     OW34889   5.224   1.836   8.156 -0.0592  0.2423  0.2207
43871SOL    HW134890   5.140   1.789   8.155 -0.3501  0.7553 -0.4093
43871SOL    HW234891   5.286   1.774   8.194 -0.4172 -0.6831 -0.6476
43872SOL     OW34892   0.716   9.923   1.121  0.2756  0.0777 -0.4725
43872SOL    HW134893   0.689  10.000   1.070  1.3487 -0.2623 -1.5938
43872SOL    HW234894   0.811   9.933   1.130  0.8495 -2.3491 -2.8173
43873SOL     OW34895  10.874   9.330   3.811  0.4553  0.3503  0.2870
43873SOL    HW134896  10.916   9.299   3.731  1.0638  0.4842  0.5492
43873SOL    HW234897  10.882   9.257   3.873 -3.3292 -1.2647 -0.8646
43874SOL     OW34898   7.968   8.040   6.444 -0.1875  0.2413 -0.5233
43874SOL    HW134899   7.992   8.051   6.352 -0.4036 -1.0168 -0.7561
43874SOL    HW234900   7.877   8.067   6.449  0.6757  3.5032  0.0421
43875SOL     OW34901   8.630   1.977   4.791 -0.1236  0.1718  0.5229
43875SOL    HW134902   8.679   1.948   4.714 -1.1768 -0.7108  0.1711
43875SOL    HW234903   8.642   2.072   4.792  0.7564  0.0840 -0.1175
43876SOL     OW34904  11.146   1.545   3.535  0.1551  0.0511  0.1444
43876SOL    HW134905  11.203   1.622   3.532  0.4757 -0.1804  0.1637
43876SOL    HW234906  11.100   1.545   3.451 -0.3989  0.6721  0.4399
43877SOL     OW34907   3.565   7.533   6.006 -0.1774 -0.1711 -0.2720
43877SOL    HW134908   3.618   7.472   6.058  0.0504  0.1003 -0.1841
43877SOL    HW234909   3.475   7.504   6.019 -0.0434 -0.6908 -0.4913
43878SOL     OW34910   6.817   9.072   0.325  0.0427 -0.1519 -0.0463
43878SOL    HW134911   6.786   9.002   0.382 -0.2110 -0.2592 -0.3147
43878SOL    HW234912   6.780   9.051   0.239 -0.4471  0.5849 -0.0193
43879SOL     OW34913   7.808   2.079  10.684 -0.7889 -0.2387 -0.5291
43879SOL    HW134914   7.895   2.043  10.664 -1.6248 -1.4159 -2.3359
43879SOL    HW234915   7.768   2.014  10.741 -0.1131  0.8772  1.3078
43880SOL     OW34916   4.948   2.671   1.174 -0.3021 -0.0443 -0.1881
43880SOL    HW134917   4.949   2.599   1.111 -0.3356 -1.4091  1.3137
43880SOL    HW234918   5.003   2.739   1.133 -1.2306 -0.4094 -2.1576
43881SOL     OW34919   7.074   5.230   4.349  0.1911 -0.6956 -0.2315
43881SOL    HW134920   6.978   5.236   4.351  0.2384 -0.1041  0.2529
43881SOL    HW234921   7.096   5.242   4.257 -0.1473  0.1122 -0.2186
43882SOL     OW34922   8.174   1.396   8.977 -0.6934 -0.3494 -0.7421
43882SOL    HW134923   8.208   1.306   8.972  0.1078 -0.0184 -1.4946
43882SOL    HW234924   8.252   1.450   8.987 -1.1483  0.2873 -0.6455
43883SOL     OW34925  10.302   0.506   3.834 -0.2052  0.1091 -0.9065
43883SOL    HW134926  10.306   0.577   3.899  1.0242 -0.7852  0.0412
43883SOL    HW234927  10.277   0.550   3.753  0.3713  1.6074 -0.3124
43884SOL     OW34928   5.330   6.216   5.583 -0.1377 -0.3271 -0.0955
43884SOL    HW134929   5.395   6.277   5.549  0.7716 -0.4076  1.4247
43884SOL    HW234930   5.380   6.135   5.600 -0.7590 -0.5816  0.5365
43885SOL     OW34931   3.787   8.197   3.544  0.0580  0.1223  0.0134
43885SOL    HW134932   3.859   8.230   3.598 -0.2386  1.4668 -0.3599
43885SOL    HW234933   3.721   8.169   3.608  0.8681 -1.0704  0.3575
43886SOL     OW34934   9.752   8.158   5.786  0.8105  0.4159 -0.9467
43886SOL    HW134935   9.753   8.136   5.879  1.8641  0.1060 -1.0140
43886SOL    HW234936   9.842   8.143   5.757  0.8753  1.9633 -1.6717
43887SOL     OW34937   1.845  10.939   9.656  0.0821  0.5037 -0.5380
43887SOL    HW134938   1.876  10.858   9.696  1.2557  1.0132 -0.3764
43887SOL    HW234939   1.925  10.989   9.639 -0.5710  1.3110 -1.3250
43888SOL     OW34940  10.566   7.788   0.086 -0.2341 -0.0847  0.1652
43888SOL    HW134941  10.523   7.847   0.024 -1.0340  0.3102  1.0547
43888SOL    HW234942  10.654   7.824   0.097 -0.5441  0.6591  0.3036
43889SOL     OW34943  10.513  10.131   3.126  0.3964  0.3090  0.0342
43889SOL    HW134944  10.525  10.215   3.171  1.3968 -0.1277  0.6045
43889SOL    HW234945  10.457  10.153   3.051  1.7423  1.7820 -0.6175
43890SOL     OW34946   9.401   7.881   3.183 -0.3549 -0.2914 -0.0252
43890SOL    HW134947   9.470   7.867   3.248  0.5856  0.3568 -0.8691
43890SOL    HW234948   9.390   7.795   3.141  0.2953 -0.2851 -0.2242
43891SOL     OW34949  11.397   1.123  11.064  0.0810 -0.2387  0.2838
43891SOL    HW134950  11.339   1.048  11.079 -0.3133  0.1310  0.6146
43891SOL    HW234951  11.428   1.147  11.151 -0.6017  0.6213  0.2995
43892SOL     OW34952   7.400   6.625  10.770 -0.0213 -0.2680 -0.1432
43892SOL    HW134953   7.432   6.596  10.856  1.4410  0.7853 -0.2983
43892SOL    HW234954   7.325   6.681  10.790 -0.0706 -0.5205  0.4082
43893SOL     OW34955   9.740   5.057   0.296 -0.3382  0.4370 -0.3679
43893SOL    HW134956   9.813   5.117   0.280 -0.1570  0.7140  1.3184
43893SOL    HW234957   9.726   5.061   0.390 -0.7917 -1.6470 -0.3036
43894SOL     OW34958   9.865  10.154   2.353  0.0851 -0.0385 -0.0895
43894SOL    HW134959   9.779  10.128   2.321 -0.6780 -0.0016  1.7759
43894SOL    HW234960   9.908  10.071   2.375  0.3158 -0.0281 -0.4920
43895SOL     OW34961   9.105   1.192   4.395  0.1097  0.2915  0.0553
43895SOL    HW134962   9.017   1.184   4.434 -0.2684  0.9918 -0.6283
43895SOL    HW234963   9.089   1.219   4.305  0.8263 -4.3782 -1.7224
43896SOL     OW34964   3.670   6.891   7.696 -0.2114  0.0885 -0.0162
43896SOL    HW134965   3.643   6.979   7.725 -2.5540 -0.3965 -0.5021
43896SOL    HW234966   3.641   6.887   7.605  1.7890 -0.4751 -0.6650
43897SOL     OW34967  10.551   2.676   1.199 -0.0401  0.4732 -0.2281
43897SOL    HW134968  10.619   2.683   1.133  0.7187  0.3654  0.5300
43897SOL    HW234969  10.594   2.702   1.281 -0.6278 -0.5864  0.4324
43898SOL     OW34970   6.219  10.808   0.173  0.5036  0.3696 -0.7221
43898SOL    HW134971   6.216  10.876   0.240 -3.4786 -0.8921  0.7068
43898SOL    HW234972   6.171  10.846   0.099  1.1774  0.2715 -1.2116
43899SOL     OW34973   5.795   4.555   9.611 -0.2190 -0.2055  0.3495
43899SOL    HW134974   5.771   4.579   9.522 -0.0773  0.2600  0.4330
43899SOL    HW234975   5.879   4.600   9.626 -1.2581  1.5085  1.4527
43900SOL     OW34976   8.295   7.465   8.367 -0.2997 -0.0018  0.3333
43900SOL    HW134977   8.310   7.371   8.377  0.6004 -0.0450 -1.1872
43900SOL    HW234978   8.206   7.472   8.334 -0.6401 -0.2594  1.1751
43901SOL     OW34979   6.231   0.242   5.145 -0.2006 -0.1471  0.4535
43901SOL    HW134980   6.138   0.256   5.161  0.0700 -0.2127  2.3642
43901SOL    HW234981   6.267   0.219   5.231  1.1086 -2.8687 -0.7129
43902SOL     OW34982   3.662   3.264   2.994 -0.4320  0.0161  0.3483
43902SOL    HW134983   3.687   3.354   3.014 -0.6569  0.0969  0.2713
43902SOL    HW234984   3.608   3.272   2.915 -0.6544 -0.1611  0.4840
43903SOL     OW34985   5.573   8.843  10.138 -0.1044  0.5159  0.0744
43903SOL    HW134986   5.609   8.914  10.190 -0.7652 -0.1100  1.4288
43903SOL    HW234987   5.606   8.764  10.179  2.3457 -0.0342 -2.6531
43904SOL     OW34988   4.488   8.479   9.426 -0.5277 -0.4400  0.0549
43904SOL    HW134989   4.539   8.547   9.469  0.3869 -0.3934 -1.0457
43904SOL    HW234990   4.405   8.521   9.403 -0.1552  0.1753 -0.1894
43905SOL     OW34991   7.500   5.825   2.287  0.1375 -0.2477  0.0995
43905SOL    HW134992   7.410   5.794   2.275 -0.3236  0.2368  1.9404
43905SOL    HW234993   7.547   5.748   2.321 -0.1507  0.0633  1.2612
43906SOL     OW34994   8.690   1.798   6.395 -0.1630 -0.3205  0.1031
43906SOL    HW134995   8.614   1.851   6.416  1.7807  2.0867  1.5808
43906SOL    HW234996   8.724   1.834   6.313  2.0042  1.9353  1.8427
43907SOL     OW34997  11.074   3.055   8.209  0.1491 -0.4319  0.3979
43907SOL    HW134998  11.042   2.965   8.196 -1.3949 -0.0565  1.4015
43907SOL    HW234999  11.148   3.045   8.268  0.4623 -1.1064 -0.0886
43908SOL     OW35000   1.469   2.899   9.641 -0.3135 -0.2350  0.0208
43908SOL    HW135001   1.514   2.965   9.589  0.6591 -0.2986  0.7635
43908SOL    HW235002   1.515   2.899   9.725  0.0700 -2.2409 -0.1473
43909SOL     OW35003   7.865   7.876   2.310 -0.0707 -0.2381 -0.1060
43909SOL    HW135004   7.927   7.868   2.383  1.3586  0.2260 -1.2344
43909SOL    HW235005   7.907   7.935   2.248 -1.3775 -0.3975 -1.2025
43910SOL     OW35006   1.681   2.457   9.771 -0.4042  0.1142  0.7769
43910SOL    HW135007   1.763   2.506   9.760 -0.1470 -0.5171 -0.2830
43910SOL    HW235008   1.621   2.519   9.813  0.3163  0.9015  0.6701
43911SOL     OW35009   7.503   5.699   7.205 -0.0632 -0.2625 -0.4175
43911SOL    HW135010   7.478   5.724   7.294 -0.7510 -0.7671 -0.4633
43911SOL    HW235011   7.470   5.610   7.195 -1.1233  0.2360 -1.6099
43912SOL     OW35012   4.121   3.720   2.857  0.7325 -0.1614 -0.2446
43912SOL    HW135013   4.135   3.632   2.893 -1.1359 -1.7082 -2.9920
43912SOL    HW235014   4.203   3.740   2.813  1.2955 -0.3401  0.6798
43913SOL     OW35015   8.204   9.575   5.057  0.5598 -0.3139 -0.2698
43913SOL    HW135016   8.212   9.594   5.151 -0.3406  3.3490 -0.7618
43913SOL    HW235017   8.136   9.508   5.052  1.6525 -1.6689  1.7242
43914SOL     OW35018   7.716   2.740   6.664 -0.1698  0.2481 -0.7624
43914SOL    HW135019   7.674   2.806   6.609 -0.3615 -1.3396 -2.6252
43914SOL    HW235020   7.805   2.735   6.631 -0.3651 -0.9264 -1.1320
43915SOL     OW35021   4.556   5.529   6.127  0.8609 -0.2777 -0.1045
43915SOL    HW135022   4.521   5.485   6.204  1.3798 -0.2312  0.1638
43915SOL    HW235023   4.535   5.470   6.054  1.0046 -0.6714  0.1695
43916SOL     OW35024   7.675   9.253   9.507 -0.1635 -0.1487  0.0330
43916SOL    HW135025   7.695   9.254   9.600  0.0464 -0.2582 -0.0118
43916SOL    HW235026   7.654   9.344   9.486  1.6737  0.2461 -0.2241
43917SOL     OW35027   2.080   6.389   4.773 -0.7299 -0.1042  0.2353
43917SOL    HW135028   2.126   6.461   4.817 -1.2417 -0.7025  1.8585
43917SOL    HW235029   1.988   6.417   4.773 -0.6358  0.2780 -1.3228
43918SOL     OW35030   7.329   4.249   7.371 -0.2521 -0.3271 -0.1124
43918SOL    HW135031   7.410   4.232   7.324 -0.5278 -1.2105 -0.2708
43918SOL    HW235032   7.262   4.201   7.323 -0.5870 -1.0013  0.9977
43919SOL     OW35033   7.736   9.769   3.596  0.1551 -0.1139 -0.2186
43919SOL    HW135034   7.769   9.853   3.567  3.0018 -1.0235  0.1256
43919SOL    HW235035   7.771   9.705   3.534 -0.1054 -1.2731  0.7662
43920SOL     OW35036   3.297   6.582  10.750  0.0829 -0.1317 -0.1182
43920SOL    HW135037   3.274   6.673  10.727  0.0204 -0.5974 -2.1215
43920SOL    HW235038   3.214   6.534  10.741  0.3871 -0.6072 -0.3990
43921SOL     OW35039   5.782   6.576   8.170  0.3537  0.0053 -0.1386
43921SOL    HW135040   5.865   6.574   8.218  1.2588  0.3671 -1.6200
43921SOL    HW235041   5.766   6.484   8.146  1.1743  0.1201 -1.2011
43922SOL     OW35042   9.197   9.568  10.170  0.0384 -0.2488  0.1594
43922SOL    HW135043   9.204   9.593  10.262  1.7013 -1.2210  0.3417
43922SOL    HW235044   9.235   9.480  10.166  1.1813  0.2690 -1.6358
43923SOL     OW35045   8.013   7.564  10.791  0.4800  0.5619 -0.2843
43923SOL    HW135046   8.106   7.571  10.812  0.5469  1.6664 -0.9123
43923SOL    HW235047   7.997   7.633  10.727 -1.1167  1.4462  0.9857
43924SOL     OW35048   6.736   9.337   5.070  0.1711  0.2859  0.0652
43924SOL    HW135049   6.780   9.419   5.089 -0.0179  0.5546 -0.6415
43924SOL    HW235050   6.771   9.275   5.135  2.1823  0.2865 -0.9586
43925SOL     OW35051   1.034   1.694   3.122  0.2273 -0.4271  0.7212
43925SOL    HW135052   1.075   1.771   3.163  0.7172 -0.8020  0.9416
43925SOL    HW235053   0.955   1.729   3.081  1.1183  0.4408 -0.3280
43926SOL     OW35054   4.324   4.337   7.635  0.1990 -0.0138  0.3859
43926SOL    HW135055   4.366   4.421   7.615 -0.7552  0.7910  1.6610
43926SOL    HW235056   4.239   4.343   7.592 -1.1037  0.9642  2.8807
43927SOL     OW35057   0.734   7.690   1.382  0.3215 -0.0482  0.1463
43927SOL    HW135058   0.733   7.723   1.472  0.8418  1.3684 -0.3361
43927SOL    HW235059   0.806   7.738   1.340 -0.8119  0.3503 -1.4012
43928SOL     OW35060   8.681   1.590   4.599 -0.4769  0.1638 -0.1168
43928SOL    HW135061   8.689   1.672   4.648  1.0983 -0.3810  0.6214
43928SOL    HW235062   8.735   1.604   4.521 -0.1276 -0.1975  0.0592
43929SOL     OW35063   8.076   6.184   8.399 -0.4389 -0.3594 -0.3061
43929SOL    HW135064   8.115   6.270   8.379 -0.8357  0.2155  1.2604
43929SOL    HW235065   8.147   6.122   8.385 -0.1768  0.1842 -1.6011
43930SOL     OW35066   8.281   8.552   7.096 -0.2540  0.1558  0.1396
43930SOL    HW135067   8.204   8.526   7.046 -0.2292  1.6398 -0.7254
43930SOL    HW235068   8.329   8.610   7.037  2.1461 -1.5947  0.1985
43931SOL     OW35069   1.223  10.412   4.397  0.1134 -0.2659 -0.4262
43931SOL    HW135070   1.167  10.335   4.388 -3.3485  1.5296  2.9594
43931SOL    HW235071   1.278  10.394   4.473  1.7956 -0.5628 -1.6263
43932SOL     OW35072   3.365   0.276   0.884  0.3757  0.3728 -0.3378
43932SOL    HW135073   3.391   0.332   0.957  1.5092  1.1807 -1.3270
43932SOL    HW235074   3.436   0.212   0.876 -0.5632 -0.7931  0.3204
43933SOL     OW35075   0.908   8.393   0.564  0.6160  0.6440 -0.2726
43933SOL    HW135076   0.871   8.343   0.637  1.1627  0.7572  0.0920
43933SOL    HW235077   0.834   8.411   0.507  0.4059 -0.6496 -0.4528
43934SOL     OW35078   1.281   6.416   5.081 -0.1309  0.7281 -0.1370
43934SOL    HW135079   1.262   6.510   5.091 -1.4933  0.4152  0.4360
43934SOL    HW235080   1.216   6.386   5.017  1.3966  0.4849 -1.6288
43935SOL     OW35081   2.495   8.291   0.656  0.0172 -0.0333 -0.2673
43935SOL    HW135082   2.536   8.308   0.571 -0.2855 -1.7661 -0.8014
43935SOL    HW235083   2.435   8.364   0.669  0.6553  0.6730 -1.1587
43936SOL     OW35084   8.562   3.389   1.736  0.3810  0.2956  0.0134
43936SOL    HW135085   8.604   3.306   1.756 -0.9494 -0.4613 -0.1841
43936SOL    HW235086   8.503   3.369   1.663  0.7415  1.6344 -0.6776
43937SOL     OW35087   9.353   2.681   5.348 -0.5027  0.9167 -0.1325
43937SOL    HW135088   9.368   2.616   5.417  0.9947 -0.0836 -1.3153
43937SOL    HW235089   9.258   2.682   5.336 -0.6127 -0.5552  0.3957
43938SOL     OW35090   8.926   5.953   5.509  0.6106 -0.4871 -0.1747
43938SOL    HW135091   8.897   5.862   5.507  1.1107 -0.6546  0.1365
43938SOL    HW235092   8.846   6.004   5.497  0.2279 -0.9495  0.3765
43939SOL     OW35093   8.716   5.609   1.760  0.0827  0.3108  0.3201
43939SOL    HW135094   8.672   5.539   1.712  0.4438  1.3638 -1.6793
43939SOL    HW235095   8.787   5.566   1.807 -0.0114 -0.7506 -0.4720
43940SOL     OW35096   2.573   4.166   9.170  0.2235  0.3332 -0.2608
43940SOL    HW135097   2.627   4.191   9.095  1.6752 -0.3790  0.5151
43940SOL    HW235098   2.544   4.250   9.207 -0.2338  0.6994 -1.3863
43941SOL     OW35099   0.071   4.065   1.603 -0.3716 -0.4758  0.3751
43941SOL    HW135100   0.095   4.026   1.687 -0.7014  1.2741  1.3368
43941SOL    HW235101  -0.017   4.099   1.617  0.8347  2.9907  0.5754
43942SOL     OW35102   9.144   5.552   2.936 -0.1576  0.0999 -0.2113
43942SOL    HW135103   9.166   5.575   2.846 -2.2364 -1.1469 -1.1126
43942SOL    HW235104   9.092   5.625   2.968 -1.0830 -0.3188 -0.7317
43943SOL     OW35105   7.752   2.429   2.996 -0.4409 -0.3021 -0.1173
43943SOL    HW135106   7.761   2.340   3.029 -0.2231 -0.0589  0.5012
43943SOL    HW235107   7.832   2.474   3.025 -0.8225  0.2516  0.0899
43944SOL     OW35108   0.062   4.291   7.921 -0.0451  0.0733 -0.3256
43944SOL    HW135109   0.055   4.240   8.002  0.8339 -0.5969 -0.6552
43944SOL    HW235110  -0.013   4.350   7.923  1.3551  1.9622  2.2715
43945SOL     OW35111   2.348   3.661   8.155  0.1044  0.5393 -0.0902
43945SOL    HW135112   2.313   3.680   8.068  0.5453 -1.6038 -0.8011
43945SOL    HW235113   2.372   3.568   8.151 -1.2935 -0.0397  2.8193
43946SOL     OW35114   7.476   1.996   4.948  0.0410 -0.1167  0.0002
43946SOL    HW135115   7.526   1.924   4.910  0.0953 -0.1268  0.0901
43946SOL    HW235116   7.542   2.053   4.987  0.1478  0.8582 -1.5161
43947SOL     OW35117   5.268   4.860   4.644 -0.3002  0.3542  0.3247
43947SOL    HW135118   5.310   4.808   4.712 -0.8899  0.1249  0.5237
43947SOL    HW235119   5.187   4.890   4.685  0.3189  1.9747  0.4438
43948SOL     OW35120   5.752   4.645   4.261 -0.6852  0.2564 -0.1566
43948SOL    HW135121   5.783   4.585   4.329 -1.4200  1.3835  1.2318
43948SOL    HW235122   5.798   4.727   4.278  0.3395  0.1449 -2.0555
43949SOL     OW35123   8.509   9.411   9.677  0.1423 -0.2224 -0.3735
43949SOL    HW135124   8.475   9.322   9.666 -1.1239  0.1372  0.3539
43949SOL    HW235125   8.460   9.463   9.613 -0.8509  0.3333  0.8000
43950SOL     OW35126   2.551   9.755   9.670 -0.0456  0.2189 -0.2275
43950SOL    HW135127   2.497   9.740   9.592 -2.9536  0.2037  1.6181
43950SOL    HW235128   2.637   9.778   9.636 -1.0848 -0.0988 -3.4104
43951SOL     OW35129   1.250  11.374   3.545 -0.1796  0.1406 -0.5863
43951SOL    HW135130   1.165  11.371   3.500 -0.2609 -0.7242 -0.3894
43951SOL    HW235131   1.228  11.378   3.638 -0.0778 -3.0755 -0.3133
43952SOL     OW35132   1.461   9.063   2.231  0.2500 -0.1474  0.5175
43952SOL    HW135133   1.509   9.060   2.314 -0.3970 -1.6274  0.8891
43952SOL    HW235134   1.375   9.027   2.253 -0.4534  0.8496 -0.4932
43953SOL     OW35135   0.146   4.184   6.572  0.4966  0.0647  0.1738
43953SOL    HW135136   0.102   4.185   6.487 -0.0204  1.5436  0.4352
43953SOL    HW235137   0.232   4.223   6.556  0.4576  0.2018  0.2906
43954SOL     OW35138   7.529   0.189   5.989 -0.2701  0.1472  0.1705
43954SOL    HW135139   7.581   0.110   6.002 -1.2561 -0.6551 -0.6372
43954SOL    HW235140   7.450   0.176   6.043 -0.8930  0.1303 -0.7307
43955SOL     OW35141   3.094   8.211   8.371  0.1333 -0.0234 -0.4751
43955SOL    HW135142   3.082   8.222   8.466  0.6587 -0.3535 -0.3681
43955SOL    HW235143   3.070   8.120   8.354  0.8277 -0.1964 -0.5302
43956SOL     OW35144   4.394   2.341  10.496  0.7378  0.7147 -0.1970
43956SOL    HW135145   4.458   2.315  10.562 -0.2974 -1.1869  0.1238
43956SOL    HW235146   4.403   2.277  10.426 -0.2058  0.9455 -0.5524
43957SOL     OW35147   7.793  10.959   9.004  0.2587  0.4203  0.7904
43957SOL    HW135148   7.857  11.018   9.043 -0.2380  0.5787  1.3927
43957SOL    HW235149   7.724  11.016   8.970  0.6425  0.2791 -0.2719
43958SOL     OW35150  11.239   0.305   2.691 -0.5859 -0.3560 -0.5747
43958SOL    HW135151  11.266   0.364   2.762 -1.2953  0.5231 -1.0197
43958SOL    HW235152  11.261   0.218   2.723  0.2151  0.1167  0.2254
43959SOL     OW35153   1.633   8.338   4.683 -0.1157  0.0682 -0.1518
43959SOL    HW135154   1.709   8.362   4.736 -0.7172  1.8617 -0.0089
43959SOL    HW235155   1.633   8.402   4.611 -0.7796 -0.6979 -0.8599
43960SOL     OW35156   1.599   4.695   6.159 -0.0848 -0.5270  0.2325
43960SOL    HW135157   1.654   4.620   6.178  1.7798  1.0468  1.4268
43960SOL    HW235158   1.613   4.712   6.066 -1.7462 -2.4985 -0.4602
43961SOL     OW35159   1.001   3.073   3.575  0.0529 -0.1938  0.3057
43961SOL    HW135160   0.995   3.039   3.485  0.5943 -0.1763  0.2589
43961SOL    HW235161   1.051   3.154   3.566  0.6798 -0.5374  0.7154
43962SOL     OW35162   9.557   4.435   9.438  0.6170  0.6940  0.2563
43962SOL    HW135163   9.495   4.397   9.374  1.4509  1.2998 -0.9505
43962SOL    HW235164   9.541   4.529   9.433  1.7831  0.8775 -0.2584
43963SOL     OW35165  10.761   5.851   5.152  0.2736  0.4748 -0.2246
43963SOL    HW135166  10.855   5.849   5.172  0.4563  2.6370 -0.6464
43963SOL    HW235167  10.718   5.827   5.234  1.1745  1.7062  0.6357
43964SOL     OW35168   1.633   0.597   9.194 -0.3266  0.2426 -0.2708
43964SOL    HW135169   1.575   0.644   9.135 -0.3327 -1.0865 -1.3820
43964SOL    HW235170   1.713   0.583   9.143 -0.1249 -0.4570  0.2147
43965SOL     OW35171   2.629   3.306   4.302  0.0703 -0.5703  0.2220
43965SOL    HW135172   2.548   3.270   4.266 -0.1126 -0.2047  0.2714
43965SOL    HW235173   2.632   3.396   4.272  0.8593 -0.8020 -0.4381
43966SOL     OW35174  11.138   6.569   8.835 -0.1357 -0.3793  0.4698
43966SOL    HW135175  11.063   6.587   8.892 -0.2448 -0.6202  0.4050
43966SOL    HW235176  11.205   6.536   8.895 -0.1316 -0.3053  0.5066
43967SOL     OW35177   5.308   7.016   3.266 -0.1203  0.4682 -0.4199
43967SOL    HW135178   5.251   7.012   3.343 -0.5881 -3.6422 -0.7231
43967SOL    HW235179   5.249   7.038   3.194 -0.3667  0.9127 -0.0889
43968SOL     OW35180   3.608   6.263   1.738 -0.1103 -0.6553 -0.5502
43968SOL    HW135181   3.686   6.259   1.683 -0.0276  2.1492 -0.7873
43968SOL    HW235182   3.535   6.243   1.680  0.2912 -2.1239 -0.5916
43969SOL     OW35183   9.804  10.858   0.659 -0.4086 -0.2338  0.4678
43969SOL    HW135184   9.807  10.806   0.579 -2.4865 -0.8786  0.7575
43969SOL    HW235185   9.848  10.940   0.635  1.3919 -1.4150 -0.4985
43970SOL     OW35186   2.998   1.926   4.747 -0.0701 -0.1165 -0.4879
43970SOL    HW135187   2.978   2.020   4.755  0.1720 -0.1723  1.4706
43970SOL    HW235188   3.001   1.896   4.838 -0.6091 -2.1340 -1.1062
43971SOL     OW35189   2.989   2.456   6.985 -0.2662  0.0149  0.1473
43971SOL    HW135190   3.026   2.429   7.069  0.2063  0.6590  0.1471
43971SOL    HW235191   3.043   2.529   6.957 -1.6117  1.0730  0.2035
43972SOL     OW35192  11.336   7.500   8.337 -0.0457  0.1797 -0.1377
43972SOL    HW135193  11.278   7.444   8.388 -0.7262 -0.3482 -1.4489
43972SOL    HW235194  11.278   7.546   8.276  0.6214  1.5799  0.2229
43973SOL     OW35195   6.289   2.259   0.288  0.5714  0.4144 -0.4578
43973SOL    HW135196   6.320   2.241   0.199 -2.1459  0.9425 -1.6337
43973SOL    HW235197   6.314   2.349   0.305  1.5283  0.1607 -0.4642
43974SOL     OW35198   4.350   1.018   0.729  0.1289  0.5154 -0.2759
43974SOL    HW135199   4.387   0.984   0.810  0.7753  1.5682 -0.1130
43974SOL    HW235200   4.284   1.082   0.757 -0.0342  0.4790 -0.5754
43975SOL     OW35201   3.647  11.354   5.964 -0.7435 -0.1639 -0.0009
43975SOL    HW135202   3.726  11.385   6.009 -1.7979  1.3678  0.8916
43975SOL    HW235203   3.652  11.258   5.972 -0.0103 -0.0255  1.8752
43976SOL     OW35204   7.371   1.974   7.730 -0.0810  0.0319  0.3712
43976SOL    HW135205   7.279   1.980   7.756  0.0869  1.3881  0.7388
43976SOL    HW235206   7.420   2.008   7.805  0.7337 -0.8068  0.2332
43977SOL     OW35207   9.240   0.165   0.089  0.2022  0.0897  0.2065
43977SOL    HW135208   9.265   0.244   0.040  0.8136 -0.4073 -0.2947
43977SOL    HW235209   9.318   0.139   0.136 -0.9209  1.7996  3.3010
43978SOL     OW35210   8.074   3.143   5.452 -0.9537  0.4073 -0.5745
43978SOL    HW135211   8.122   3.068   5.416 -1.8778 -0.2653 -0.4551
43978SOL    HW235212   8.113   3.219   5.410  1.7118  0.1254  1.1330
43979SOL     OW35213   6.582   9.956   6.129 -0.4431 -0.0779 -0.4345
43979SOL    HW135214   6.658   9.931   6.076 -0.0582  1.4161 -0.6164
43979SOL    HW235215   6.513   9.976   6.065 -0.3348  0.6067 -0.3423
43980SOL     OW35216   7.065   0.309   3.857 -0.1412 -0.9805 -0.1921
43980SOL    HW135217   7.097   0.361   3.784  0.7630 -1.2081  0.0264
43980SOL    HW235218   6.978   0.344   3.876 -0.3379 -0.8463 -1.2983
43981SOL     OW35219   9.958   2.939   0.521 -0.2943 -0.0014 -0.0185
43981SOL    HW135220   9.911   2.855   0.518  1.1384 -0.8572  0.6888
43981SOL    HW235221   9.931   2.983   0.440 -0.7428 -1.3276 -0.6320
43982SOL     OW35222  10.609   3.083   0.162  0.2705 -0.1627 -0.0955
43982SOL    HW135223  10.518   3.065   0.140  0.1093  0.7000 -0.1332
43982SOL    HW235224  10.653   2.999   0.149 -0.5931 -0.6973  0.3421
43983SOL     OW35225   0.682   9.732   5.467  0.3710 -0.1384 -0.0523
43983SOL    HW135226   0.692   9.651   5.416  1.6315 -0.2096  0.2639
43983SOL    HW235227   0.592   9.731   5.497  0.6193 -1.9356  0.7729
43984SOL     OW35228   2.980   7.281  10.401 -0.2745 -0.2696 -0.4196
43984SOL    HW135229   3.013   7.367  10.424  0.0104 -0.5727  0.3469
43984SOL    HW235230   3.039   7.250  10.331 -1.4813  0.8855 -2.0203
43985SOL     OW35231   3.681  11.141   0.203 -0.1087  0.1468  0.4631
43985SOL    HW135232   3.751  11.081   0.175 -0.6936 -0.8140  1.0098
43985SOL    HW235233   3.709  11.226   0.170  2.3896  0.2171  2.4098
43986SOL     OW35234   4.435   9.390   8.201  0.2328  0.5268  0.3061
43986SOL    HW135235   4.479   9.462   8.156  1.1217  0.2869  0.7676
43986SOL    HW235236   4.498   9.362   8.268  0.6569 -1.8699 -0.9959
43987SOL     OW35237   6.789   7.020   5.314  0.0673 -0.1380  0.2851
43987SOL    HW135238   6.818   7.089   5.254 -0.2579  0.3813  0.7218
43987SOL    HW235239   6.865   6.963   5.323  0.0506 -0.3394 -0.7919
43988SOL     OW35240  10.364   4.497   1.901  0.5243  0.2857 -0.8162
43988SOL    HW135241  10.346   4.590   1.883 -0.5977  0.0981 -0.6941
43988SOL    HW235242  10.331   4.483   1.990  0.7039 -0.2315 -0.8308
43989SOL     OW35243   0.718  10.205   6.515 -0.0388  0.5679 -0.3132
43989SOL    HW135244   0.648  10.151   6.551  0.5378  0.2416  0.3480
43989SOL    HW235245   0.691  10.295   6.533 -0.9353  0.5165 -1.2959
43990SOL     OW35246   1.123   6.159   1.458 -0.1360 -0.5492 -0.3266
43990SOL    HW135247   1.031   6.176   1.478 -0.1993  1.3234 -1.9566
43990SOL    HW235248   1.125   6.067   1.433 -1.5511 -0.6385 -0.1925
43991SOL     OW35249   9.153   5.076   2.459  0.7943  0.6677  0.6451
43991SOL    HW135250   9.215   5.120   2.516  0.0771  2.2018  0.3048
43991SOL    HW235251   9.108   5.014   2.516  2.1465  0.0102  1.0406
43992SOL     OW35252   5.678   5.760   9.678 -0.4358 -0.4249  0.0399
43992SOL    HW135253   5.638   5.674   9.685 -0.5387 -0.4547 -0.8145
43992SOL    HW235254   5.604   5.820   9.665 -0.3003 -0.3165 -0.2431
43993SOL     OW35255   4.092   4.710   5.296 -0.2472  0.6790 -0.0914
43993SOL    HW135256   4.108   4.683   5.206 -0.2338 -2.1015  0.6262
43993SOL    HW235257   4.162   4.667   5.346 -0.5006  1.8120  1.2944
43994SOL     OW35258   9.139   6.620   8.712 -1.0942  0.5370  0.0524
43994SOL    HW135259   9.191   6.641   8.634 -2.1101  3.3859  0.0123
43994SOL    HW235260   9.197   6.567   8.766  0.8397  1.2541 -1.2040
43995SOL     OW35261   7.905   8.254   4.518  0.1742  0.4260  0.0405
43995SOL    HW135262   7.982   8.286   4.565  0.6788  1.0094 -1.1236
43995SOL    HW235263   7.869   8.186   4.574  1.7940 -0.1810  0.4172
43996SOL     OW35264   4.904   8.630   4.267  0.0793 -0.0632 -0.2249
43996SOL    HW135265   4.957   8.573   4.211 -1.4884 -0.0769 -1.7945
43996SOL    HW235266   4.863   8.570   4.329 -0.1117 -0.4036 -0.6744
43997SOL     OW35267   0.127   6.685   5.333  0.2128 -0.6622  0.1454
43997SOL    HW135268   0.036   6.653   5.338 -0.2560  0.5219 -0.5589
43997SOL    HW235269   0.120   6.779   5.347  1.4547 -0.6795  1.0506
43998SOL     OW35270   3.464  11.359   3.474  0.2866  0.0595  0.1039
43998SOL    HW135271   3.450  11.269   3.506  0.2475  0.2692  0.6981
43998SOL    HW235272   3.388  11.377   3.419  0.5266 -0.4379 -0.3957
43999SOL     OW35273   6.839   2.159   8.294 -0.0637 -0.0009 -0.4776
43999SOL    HW135274   6.759   2.164   8.347 -0.4102  2.6008 -1.1167
43999SOL    HW235275   6.910   2.152   8.358 -0.5740  1.5901  0.3061
44000SOL     OW35276   9.238   8.262   3.237 -0.4355  0.1780  0.4899
44000SOL    HW135277   9.196   8.191   3.189  0.1030  1.5489 -2.1540
44000SOL    HW235278   9.296   8.217   3.300 -0.3278 -1.7264 -0.8839
44001SOL     OW35279  10.444   6.726   3.731  0.0245  0.0505  0.6492
44001SOL    HW135280  10.414   6.642   3.766  2.1454 -1.4564 -0.8553
44001SOL    HW235281  10.509   6.756   3.794  0.5240 -0.3512  0.3376
44002SOL     OW35282   5.746   1.984   3.359  0.1375 -0.2081 -0.6050
44002SOL    HW135283   5.758   1.889   3.352  0.1620 -0.4851  2.0226
44002SOL    HW235284   5.652   1.995   3.374  0.3196  0.0254  0.4631
44003SOL     OW35285   0.619   4.224   7.408  0.1574 -0.7696 -0.1042
44003SOL    HW135286   0.545   4.218   7.348 -0.1660  0.3639  0.1482
44003SOL    HW235287   0.648   4.134   7.420 -0.7138 -1.1555 -0.7891
44004SOL     OW35288   3.452   0.464   7.541 -0.0855  0.0269  0.1939
44004SOL    HW135289   3.404   0.400   7.593 -0.5091  0.5843  0.4857
44004SOL    HW235290   3.481   0.414   7.464 -2.1252 -0.0620 -0.5887
44005SOL     OW35291   8.886   8.011   2.071 -0.0283 -0.3957  0.2567
44005SOL    HW135292   8.935   7.951   2.127 -0.2481  0.4986  1.4401
44005SOL    HW235293   8.862   8.084   2.128  0.4847  0.9778 -1.1889
44006SOL     OW35294   5.078   8.032   9.427 -0.4032  0.2160 -0.3980
44006SOL    HW135295   5.105   7.975   9.499  1.2634  0.9874 -0.3554
44006SOL    HW235296   5.159   8.075   9.399 -1.5012  2.1453 -0.7969
44007SOL     OW35297   1.437   0.236   8.658  0.4380 -0.3977 -0.2614
44007SOL    HW135298   1.363   0.212   8.713  0.0391  3.7072  1.3244
44007SOL    HW235299   1.399   0.254   8.572  0.0539 -0.7907 -0.1740
44008SOL     OW35300   0.698   6.978   2.974 -0.7384 -0.6877  0.5860
44008SOL    HW135301   0.736   6.949   3.056 -0.6060 -2.9980 -0.2208
44008SOL    HW235302   0.767   6.965   2.909 -1.9502 -2.4738 -0.4571
44009SOL     OW35303   8.793  11.031   9.157 -0.0291 -0.2101 -0.0948
44009SOL    HW135304   8.725  11.051   9.093  1.4945  0.6372 -1.5199
44009SOL    HW235305   8.779  10.939   9.179 -0.2849 -0.7021 -2.0860
44010SOL     OW35306   4.336   4.292   9.743 -0.1766 -0.1745 -0.0945
44010SOL    HW135307   4.255   4.332   9.773 -1.3422  0.5313 -3.6997
44010SOL    HW235308   4.319   4.268   9.652  3.4713 -0.5098 -0.8602
44011SOL     OW35309   0.064   7.938   6.805 -0.1929  0.3085 -0.2202
44011SOL    HW135310   0.005   7.865   6.786  2.9636 -3.3967  2.6298
44011SOL    HW235311   0.130   7.935   6.735  0.1671  0.1550  0.1218
44012SOL     OW35312   4.986   4.937   4.005 -0.5218 -0.6861  0.0685
44012SOL    HW135313   4.934   4.858   3.989 -0.6206 -0.7055  0.4745
44012SOL    HW235314   5.003   4.973   3.918 -1.8865 -0.2383 -0.0318
44013SOL     OW35315   8.974   0.143   9.198 -0.2885 -0.4448 -0.2916
44013SOL    HW135316   8.988   0.203   9.271  0.4152  0.8399 -1.4306
44013SOL    HW235317   9.005   0.059   9.230  0.9037  0.2860  0.5952
44014SOL     OW35318   4.641   5.210   6.444 -0.0271 -0.2634  0.5021
44014SOL    HW135319   4.640   5.114   6.448 -1.0926 -0.3126 -0.3241
44014SOL    HW235320   4.562   5.237   6.493  0.7608  0.2510  1.5290
44015SOL     OW35321   2.552   8.604   4.302  0.1926 -0.5778 -0.2619
44015SOL    HW135322   2.636   8.569   4.273 -0.4963 -2.4697 -0.1004
44015SOL    HW235323   2.559   8.607   4.397  0.2195 -0.3470 -0.2713
44016SOL     OW35324  10.443   6.816   6.743  0.2363 -0.7681 -0.4004
44016SOL    HW135325  10.476   6.789   6.828  0.4884 -1.3003 -0.6584
44016SOL    HW235326  10.406   6.903   6.757  0.0960 -0.9394  0.2892
44017SOL     OW35327   7.784   8.115   1.782  0.3699 -0.6740  0.4713
44017SOL    HW135328   7.709   8.167   1.810  0.4548 -0.4466  0.2805
44017SOL    HW235329   7.798   8.052   1.853 -0.0756 -0.7987  0.4500
44018SOL     OW35330   9.205   8.599   1.545 -0.1073  0.3919  0.2268
44018SOL    HW135331   9.150   8.669   1.510  1.0341  0.0748 -2.4721
44018SOL    HW235332   9.158   8.518   1.525  0.0936  0.2354  0.3746
44019SOL     OW35333   8.511   4.101  10.654  1.1423  0.0602  0.0612
44019SOL    HW135334   8.498   4.013  10.620 -1.4918 -0.0568  1.1844
44019SOL    HW235335   8.492   4.159  10.579  0.5731 -0.2755 -0.0541
44020SOL     OW35336   4.897  10.658   0.670 -0.9133 -0.7808  0.0878
44020SOL    HW135337   4.807  10.629   0.656 -1.1093 -0.4445  0.6174
44020SOL    HW235338   4.940  10.642   0.587 -1.2682 -1.6558  0.0527
44021SOL     OW35339   5.218   8.272   5.666  0.1077 -0.1176 -0.2153
44021SOL    HW135340   5.127   8.251   5.648 -0.2984  0.6754  0.8311
44021SOL    HW235341   5.231   8.248   5.757  0.4276  1.4156  0.1747
44022SOL     OW35342   9.697  10.361   9.784  0.5359 -0.1471  0.2490
44022SOL    HW135343   9.770  10.414   9.751  0.0008  0.3873 -0.1073
44022SOL    HW235344   9.639  10.351   9.708  1.3240 -2.5132 -0.1006
44023SOL     OW35345   2.597   9.230   2.232  0.1646 -0.5864 -0.4870
44023SOL    HW135346   2.502   9.222   2.238  0.0548  0.4315 -0.7411
44023SOL    HW235347   2.625   9.151   2.185 -0.7445  0.0082 -2.0986
44024SOL     OW35348   6.914  10.955   5.479 -0.3907 -0.4517 -0.3109
44024SOL    HW135349   6.907  11.029   5.540 -1.3361 -2.2000  1.8061
44024SOL    HW235350   6.824  10.930   5.461 -0.0824 -1.0316 -1.1224
44025SOL     OW35351   4.373   1.509   6.792 -0.3163  0.5623  0.0601
44025SOL    HW135352   4.459   1.529   6.754  0.3370  1.1921  1.7458
44025SOL    HW235353   4.310   1.552   6.735  0.4265 -0.4346 -1.5664
44026SOL     OW35354   3.098   8.223   1.582 -0.2718  0.3712  0.0443
44026SOL    HW135355   3.049   8.241   1.502 -1.6737  3.1196  1.3687
44026SOL    HW235356   3.189   8.241   1.559 -0.8387  2.8245 -0.6022
44027SOL     OW35357   3.710   3.590  10.845 -0.3917 -0.1568  0.2102
44027SOL    HW135358   3.763   3.626  10.916  1.2344  0.5899 -1.3009
44027SOL    HW235359   3.655   3.662  10.817  0.3798  0.1625 -0.5382
44028SOL     OW35360  10.039   9.265   5.128  0.1683  0.0566  0.1092
44028SOL    HW135361  10.005   9.204   5.193  0.5487  0.1695  0.4220
44028SOL    HW235362   9.962   9.310   5.094 -0.2170 -1.1960 -0.7540
44029SOL     OW35363   3.473   6.054   6.901 -0.2333  0.2092 -0.0666
44029SOL    HW135364   3.502   6.047   6.810 -0.7184  0.3391 -0.2355
44029SOL    HW235365   3.473   6.148   6.919 -3.0514  0.4641 -0.9234
44030SOL     OW35366   3.785   2.271   2.209  1.1056  0.3076  0.3433
44030SOL    HW135367   3.845   2.242   2.278  2.3411  0.4670 -0.6287
44030SOL    HW235368   3.757   2.358   2.237  1.2460  0.1940  0.8557
44031SOL     OW35369   1.052   5.241  10.822 -0.1453 -0.2133  0.3546
44031SOL    HW135370   1.046   5.146  10.813  0.2014 -0.1987 -0.0126
44031SOL    HW235371   1.022   5.275  10.738  0.7791 -0.0273  0.0915
44032SOL     OW35372   9.684   1.015   6.290 -0.3973  0.0952  0.1369
44032SOL    HW135373   9.701   1.104   6.321  1.0344 -0.1715  0.1883
44032SOL    HW235374   9.689   1.021   6.195 -1.3407  0.2479  0.0831
44033SOL     OW35375   7.456   4.048   9.270 -0.3958 -0.1350 -0.5534
44033SOL    HW135376   7.440   3.965   9.224  0.8110 -0.2615 -0.7829
44033SOL    HW235377   7.539   4.034   9.316  1.0137  1.6610 -2.3554
44034SOL     OW35378   1.216  10.812   8.917 -0.5352 -0.0003  0.5132
44034SOL    HW135379   1.207  10.839   9.008 -0.8157  0.9267  0.2183
44034SOL    HW235380   1.311  10.805   8.903 -0.5097 -1.2810  1.1860
44035SOL     OW35381   7.475  10.433   1.936  0.3049  0.0928 -0.0820
44035SOL    HW135382   7.480  10.400   2.026 -0.3462  0.7582  0.2082
44035SOL    HW235383   7.382  10.429   1.914  0.7434 -2.8873 -1.8335
44036SOL     OW35384   0.452   8.449   8.743 -0.2158 -0.0910 -0.3690
44036SOL    HW135385   0.524   8.405   8.789 -1.5073 -0.7236  1.1400
44036SOL    HW235386   0.420   8.514   8.807  0.2438  1.5558 -1.7407
44037SOL     OW35387   2.240   3.851   7.960 -0.1550 -0.2486 -0.2739
44037SOL    HW135388   2.150   3.832   7.936  0.6037 -1.0322 -2.7678
44037SOL    HW235389   2.291   3.830   7.882  1.8844  2.9131 -0.0066
44038SOL     OW35390   2.061   0.916  10.669 -0.1458 -0.2423 -0.1432
44038SOL    HW135391   1.992   0.878  10.724 -0.3864 -0.0146 -0.2901
44038SOL    HW235392   2.140   0.913  10.724 -0.2004 -0.7869 -0.0841
44039SOL     OW35393   3.981   1.145   5.886  0.6202 -0.4071 -0.4227
44039SOL    HW135394   3.974   1.198   5.807  1.2600 -0.1388 -0.3012
44039SOL    HW235395   3.891   1.142   5.921  0.9434  2.7316  0.9442
44040SOL     OW35396   5.870   7.133   8.960 -0.1568  0.2254 -0.1925
44040SOL    HW135397   5.801   7.069   8.971 -0.1885  0.2585 -0.1976
44040SOL    HW235398   5.949   7.090   8.992 -0.0908  0.0103 -0.6406
44041SOL     OW35399   8.997   6.342  11.062  0.2485  0.1463 -0.5711
44041SOL    HW135400   8.982   6.410  10.996 -0.3361  0.5520 -0.0299
44041SOL    HW235401   9.015   6.263  11.011  1.3675  0.7814 -1.2164
44042SOL     OW35402   8.259   4.472   7.638  0.0052 -0.5291  0.5347
44042SOL    HW135403   8.166   4.468   7.661 -0.0178  0.5493  0.6491
44042SOL    HW235404   8.278   4.384   7.605 -1.7251 -0.0600 -2.0271
44043SOL     OW35405   8.025   5.164   5.287 -0.6594 -0.2069 -0.4409
44043SOL    HW135406   7.981   5.232   5.237 -1.5213 -0.2495  0.2338
44043SOL    HW235407   8.077   5.116   5.222 -0.8378  0.4608 -1.0862
44044SOL     OW35408   3.983   5.329   1.434  0.1973 -0.3031  0.0524
44044SOL    HW135409   3.888   5.330   1.445 -0.0069  1.9002 -1.3178
44044SOL    HW235410   4.011   5.415   1.467  1.7942 -1.1093  0.8823
44045SOL     OW35411   8.570   1.734   9.166 -0.3695  0.0117  0.3212
44045SOL    HW135412   8.509   1.691   9.225  0.2039  0.2393  1.1022
44045SOL    HW235413   8.626   1.786   9.223  0.7763 -0.4547 -0.3368
44046SOL     OW35414   1.382   0.270   2.124 -0.6425 -0.4964 -0.1300
44046SOL    HW135415   1.303   0.321   2.105 -0.1120  0.0441 -0.9710
44046SOL    HW235416   1.393   0.214   2.047  0.6077  0.5032 -0.7032
44047SOL     OW35417   3.820   5.252   6.895  0.1826  0.3804  0.5210
44047SOL    HW135418   3.856   5.164   6.891 -0.6118  0.0729  0.1121
44047SOL    HW235419   3.762   5.258   6.819 -1.7605  0.3717  1.9463
44048SOL     OW35420   2.057   3.284   5.355  0.2145 -0.1172 -0.0690
44048SOL    HW135421   1.994   3.239   5.298  0.8223  0.1027 -0.9350
44048SOL    HW235422   2.124   3.217   5.373  0.4564  0.0648 -0.2983
44049SOL     OW35423   2.067  10.299   6.640 -0.4386 -0.1470 -0.0270
44049SOL    HW135424   2.015  10.279   6.562  1.7431  1.0927 -1.9012
44049SOL    HW235425   2.048  10.391   6.658 -0.9265 -0.4255  0.9663
44050SOL     OW35426   2.029   0.748   2.896  0.1777 -0.6611  0.4015
44050SOL    HW135427   2.009   0.660   2.865 -1.0222  0.5129 -2.4857
44050SOL    HW235428   1.947   0.780   2.933  0.7545 -0.8971  1.9522
44051SOL     OW35429   8.782   5.208   1.400 -0.1158 -0.6734 -0.0897
44051SOL    HW135430   8.822   5.230   1.316  0.0911  1.3200  0.4951
44051SOL    HW235431   8.839   5.249   1.465 -0.4506 -1.9126  1.0287
44052SOL     OW35432   9.477   6.361   3.956  0.4890 -0.1835 -0.1005
44052SOL    HW135433   9.562   6.328   3.985  0.3544 -0.6292 -0.2037
44052SOL    HW235434   9.423   6.283   3.947 -0.4766  0.2346  1.6738
44053SOL     OW35435   4.166   1.242  10.215 -0.2490  0.2912 -0.1973
44053SOL    HW135436   4.191   1.328  10.248 -0.1163  0.1118  0.1701
44053SOL    HW235437   4.166   1.185  10.292  1.2759 -0.4015 -0.6622
44054SOL     OW35438   6.256   1.336   0.692 -0.1367  0.4342 -0.1088
44054SOL    HW135439   6.300   1.419   0.710 -0.9331  1.0539 -0.8893
44054SOL    HW235440   6.322   1.269   0.711  0.5001  1.2384  0.5909
44055SOL     OW35441   7.660  10.439   7.527 -0.4773 -0.1514 -0.3581
44055SOL    HW135442   7.619  10.505   7.583  1.8334 -0.4594  1.8822
44055SOL    HW235443   7.673  10.363   7.584  0.6593 -1.0183 -1.6959
44056SOL     OW35444   3.367   3.098   6.999 -0.3031 -0.0496  0.5909
44056SOL    HW135445   3.323   3.180   6.976  1.1587  0.6351  0.0726
44056SOL    HW235446   3.437   3.089   6.934  0.1828 -1.2036  1.2293
44057SOL     OW35447   4.836   5.569   3.898  0.2413 -0.0445 -0.8983
44057SOL    HW135448   4.757   5.609   3.934 -1.7137 -2.2190 -2.4583
44057SOL    HW235449   4.855   5.496   3.957  1.9448  1.2259  0.2045
44058SOL     OW35450   6.611   4.294   2.386  0.1905  0.2498 -0.3247
44058SOL    HW135451   6.694   4.327   2.351  0.5777 -0.8077 -0.4442
44058SOL    HW235452   6.637   4.238   2.460 -0.5732  1.8651  1.2367
44059SOL     OW35453  11.172   5.956   1.564  0.5215  0.3315  0.2665
44059SOL    HW135454  11.090   6.003   1.578 -0.0043 -0.0677 -1.2932
44059SOL    HW235455  11.162   5.874   1.613  0.1016  0.4036  0.3010
44060SOL     OW35456   0.370   2.566   1.530  0.0402 -0.9364  0.1853
44060SOL    HW135457   0.398   2.627   1.461  0.8038 -1.6910 -0.1904
44060SOL    HW235458   0.386   2.613   1.612 -1.5667  0.2613 -0.1393
44061SOL     OW35459   0.902   5.455   7.376  0.7113  0.4962  0.4460
44061SOL    HW135460   0.931   5.367   7.401 -1.0011 -1.3346 -3.2295
44061SOL    HW235461   0.813   5.462   7.412 -0.6705 -1.0180 -2.3384
44062SOL     OW35462   3.227   8.533   8.249  0.0102 -0.2365 -0.3266
44062SOL    HW135463   3.204   8.505   8.338 -2.2757 -2.0336 -1.3633
44062SOL    HW235464   3.276   8.459   8.213  0.2797  0.1582 -0.7798
44063SOL     OW35465   3.474   7.313   4.599  0.2740  0.3232 -0.2152
44063SOL    HW135466   3.528   7.310   4.678  1.4527  2.0636 -0.8733
44063SOL    HW235467   3.389   7.346   4.629  0.3459 -0.1168  0.4877
44064SOL     OW35468   1.159   5.400   4.213  0.3362  0.2673  0.0455
44064SOL    HW135469   1.209   5.416   4.292  1.0166 -0.5436 -0.2069
44064SOL    HW235470   1.082   5.351   4.242 -0.2439  1.3762  0.4120
44065SOL     OW35471   4.333   5.991   7.086 -0.2471  0.0729 -0.0102
44065SOL    HW135472   4.275   6.052   7.041  0.1418  0.4914  0.0490
44065SOL    HW235473   4.320   6.009   7.179 -1.1674 -0.8995  0.0630
44066SOL     OW35474   1.222  10.910   6.277  0.1976 -0.6469  0.2141
44066SOL    HW135475   1.164  10.836   6.262  0.0555 -0.7294  1.0954
44066SOL    HW235476   1.209  10.932   6.370 -0.0415  0.7071 -0.1091
44067SOL     OW35477   1.042   6.248  10.689  0.6420  0.5500  0.7655
44067SOL    HW135478   1.078   6.287  10.768  0.3541  0.0548  1.1477
44067SOL    HW235479   0.967   6.196  10.720 -0.8434  2.0928 -0.0562
44068SOL     OW35480   0.146  11.319   0.080  0.0773  0.2343  0.4158
44068SOL    HW135481   0.210  11.311   0.010  0.7482  1.8118  0.8093
44068SOL    HW235482   0.136  11.231   0.114 -0.6638 -0.6935 -1.9764
44069SOL     OW35483   4.228   6.345   4.339 -0.0001  0.1906  0.1817
44069SOL    HW135484   4.233   6.405   4.265 -0.4835 -0.1179 -0.1039
44069SOL    HW235485   4.317   6.342   4.374 -0.1144  1.6526  0.6668
44070SOL     OW35486   5.133   4.859   8.834  0.6354  0.1123 -0.3895
44070SOL    HW135487   5.227   4.843   8.825  0.5388 -0.7599  0.0955
44070SOL    HW235488   5.109   4.814   8.914 -0.1135  0.7434 -0.2493
44071SOL     OW35489   9.606  10.082   9.093 -0.0757 -0.0391 -0.3240
44071SOL    HW135490   9.575  10.145   9.158  1.1491  1.2615 -0.9482
44071SOL    HW235491   9.545  10.091   9.020 -0.4486 -0.2571 -0.0421
44072SOL     OW35492   9.003   4.784   3.624 -0.7331  0.3022  0.4970
44072SOL    HW135493   9.032   4.750   3.539 -1.6850  0.6278  0.0253
44072SOL    HW235494   8.964   4.869   3.603 -0.1250  0.8149  1.3982
44073SOL     OW35495   5.895   0.698   2.411 -0.5984 -0.1689  0.1163
44073SOL    HW135496   5.875   0.754   2.335  0.2510  0.6589  0.4828
44073SOL    HW235497   5.985   0.671   2.397 -0.1336  0.7019  1.2447
44074SOL     OW35498   5.302   3.463   1.527 -0.1392 -0.2101 -0.2846
44074SOL    HW135499   5.363   3.518   1.574 -0.6519  1.1706 -1.1814
44074SOL    HW235500   5.353   3.424   1.456 -0.5846  2.2769 -2.0840
44075SOL     OW35501   3.380   7.922   3.625  0.4082 -0.0822 -0.1936
44075SOL    HW135502   3.379   7.839   3.672  1.9145  0.7180  1.3932
44075SOL    HW235503   3.290   7.953   3.629 -0.1558 -1.5635 -0.7372
44076SOL     OW35504   7.911   1.581   0.476 -0.6367 -0.0803 -0.2613
44076SOL    HW135505   7.892   1.598   0.568  2.4052 -1.1594  0.6828
44076SOL    HW235506   7.839   1.526   0.446 -1.4200 -0.1518  1.6249
44077SOL     OW35507   8.614   9.615   1.909 -0.2851  0.1666 -0.8365
44077SOL    HW135508   8.708   9.597   1.899  0.3735  2.1732  0.8747
44077SOL    HW235509   8.580   9.541   1.959  0.5742 -0.1223 -0.6657
44078SOL     OW35510   7.150   2.376  11.368  0.4513  0.4647  0.4751
44078SOL    HW135511   7.064   2.378  11.410  1.3119  1.3026  2.2705
44078SOL    HW235512   7.206   2.330  11.430  1.4856  0.5861 -0.3444
44079SOL     OW35513   1.339   9.712   1.283  0.3150 -0.1339 -0.2416
44079SOL    HW135514   1.422   9.663   1.277  0.4933  0.0052  0.7963
44079SOL    HW235515   1.324   9.745   1.195  2.2685  1.2794 -0.1137
44080SOL     OW35516   4.500   8.900   0.539 -0.2240 -0.4409 -0.0929
44080SOL    HW135517   4.563   8.840   0.579 -0.5621 -0.3236  0.6371
44080SOL    HW235518   4.554   8.971   0.504  0.0349 -0.0365  1.0545
44081SOL     OW35519   9.816  10.444   0.999  0.3055  0.0789  0.0165
44081SOL    HW135520   9.865  10.450   1.082 -0.6495  0.8078  0.5474
44081SOL    HW235521   9.880  10.411   0.936  0.8828 -1.1446  1.1941
44082SOL     OW35522   5.444   1.656   1.189 -0.3820  0.2789 -0.1766
44082SOL    HW135523   5.520   1.668   1.132 -0.6209 -0.2882 -0.6255
44082SOL    HW235524   5.480   1.661   1.278  0.1632  0.1180 -0.3808
44083SOL     OW35525   0.343   2.289   3.599 -0.3828  0.3911 -0.6373
44083SOL    HW135526   0.303   2.274   3.514 -0.7598 -1.3090 -0.1878
44083SOL    HW235527   0.289   2.240   3.661  1.7183 -1.1114  0.1394
44084SOL     OW35528   8.324   6.026   8.265 -0.9786  0.4972  0.6985
44084SOL    HW135529   8.291   5.945   8.305  0.6083  0.1599  1.4166
44084SOL    HW235530   8.285   6.027   8.178  1.3875 -2.7692 -0.6212
44085SOL     OW35531  10.429   9.974   8.166  0.0715 -0.6611  0.2271
44085SOL    HW135532  10.462   9.887   8.144  1.9833 -0.8734  3.3368
44085SOL    HW235533  10.498  10.034   8.139 -1.0924 -0.0723 -1.5921
44086SOL     OW35534   2.309   8.193   2.147  0.2087 -0.5213  0.0641
44086SOL    HW135535   2.355   8.195   2.063  0.7148 -2.5523  0.2201
44086SOL    HW235536   2.378   8.205   2.213 -0.1007  0.4752  0.2206
44087SOL     OW35537   8.642   0.017   0.427 -0.1267  0.1751  0.1298
44087SOL    HW135538   8.660  -0.040   0.352  0.5498 -0.4124  0.7245
44087SOL    HW235539   8.726   0.059   0.446  0.1501 -1.0069  1.6419
44088SOL     OW35540   7.332   8.990   3.169 -0.4207 -0.4252 -0.1481
44088SOL    HW135541   7.370   8.933   3.236  1.1472  0.4432 -0.2754
44088SOL    HW235542   7.356   9.078   3.196  0.1180 -0.0488 -1.7861
44089SOL     OW35543   1.368   9.611  10.568  0.1983 -0.3665  0.0281
44089SOL    HW135544   1.412   9.692  10.594 -0.2180 -0.1467  0.0558
44089SOL    HW235545   1.300   9.639  10.507  0.4455 -0.7647 -0.4259
44090SOL     OW35546   7.316   1.915   5.145 -0.9652  0.2919 -0.0888
44090SOL    HW135547   7.368   1.952   5.073 -2.0614  1.1996 -0.4453
44090SOL    HW235548   7.261   1.849   5.103 -0.5192 -0.2713  0.1947
44091SOL     OW35549   5.360   7.410   3.928 -0.4758  0.1195 -0.5906
44091SOL    HW135550   5.424   7.454   3.984 -0.5516 -0.0055 -0.4051
44091SOL    HW235551   5.281   7.464   3.935 -0.8456 -0.5258  0.3357
44092SOL     OW35552   4.562  11.069   1.871  0.0267 -0.1246 -0.4133
44092SOL    HW135553   4.583  11.021   1.791  0.9297 -0.6435  0.1195
44092SOL    HW235554   4.615  11.148   1.866 -1.9567  1.2071 -1.6109
44093SOL     OW35555   2.966   4.426   5.036 -0.1569  0.4078  0.2526
44093SOL    HW135556   2.939   4.514   5.010 -1.6775 -0.0837  0.0795
44093SOL    HW235557   2.989   4.383   4.953 -3.5718 -0.6799 -0.2941
44094SOL     OW35558   3.852  10.032   9.723 -0.4725  0.4279 -0.0232
44094SOL    HW135559   3.875  10.009   9.813 -0.2518  1.4896  0.2073
44094SOL    HW235560   3.776   9.977   9.704 -1.4145  1.1625  1.3321
44095SOL     OW35561   3.309   6.706   6.005  0.0469 -0.5317 -0.3453
44095SOL    HW135562   3.351   6.648   6.068 -1.5291 -0.1678  1.1263
44095SOL    HW235563   3.376   6.723   5.938  0.9377 -3.0383 -0.1883
44096SOL     OW35564   2.563   3.546   3.181 -0.1815  0.1630  0.2317
44096SOL    HW135565   2.599   3.601   3.112  0.2852  0.2295  0.5225
44096SOL    HW235566   2.504   3.604   3.229  0.7852  0.6055  0.9243
44097SOL     OW35567   4.195   6.539   2.828 -1.0563  0.2024  0.3857
44097SOL    HW135568   4.149   6.457   2.814 -0.7643  0.3432 -1.6910
44097SOL    HW235569   4.266   6.517   2.888  0.6582 -1.7430 -2.1424
44098SOL     OW35570   7.319   1.803   8.615  0.1336  0.4595 -0.1630
44098SOL    HW135571   7.334   1.720   8.660 -0.2600  0.1757 -0.5510
44098SOL    HW235572   7.234   1.833   8.648  1.2572  1.8525  1.7023
44099SOL     OW35573   3.119   6.416   0.105 -0.0247  0.1240 -0.0010
44099SOL    HW135574   3.025   6.431   0.093 -0.0621  2.1616  2.1195
44099SOL    HW235575   3.160   6.463   0.032 -0.6042  2.0131  0.8162
44100SOL     OW35576   0.718   9.068   7.013 -0.7007 -0.0745 -0.1277
44100SOL    HW135577   0.702   9.131   7.083 -0.0770 -0.6885  0.5971
44100SOL    HW235578   0.631   9.033   6.992 -0.9163  0.2211  0.2476
44101SOL     OW35579   6.061   5.052   3.784  0.3633 -0.0727 -0.3516
44101SOL    HW135580   6.065   5.142   3.752 -0.6061 -0.0444 -0.4260
44101SOL    HW235581   5.985   5.050   3.843  0.7288 -0.6957  0.1218
44102SOL     OW35582  10.637   8.889   4.728 -0.0380  0.4164 -0.3424
44102SOL    HW135583  10.569   8.948   4.695 -1.9233 -0.6489  1.3892
44102SOL    HW235584  10.717   8.919   4.687 -1.7009  1.0446 -3.4101
44103SOL     OW35585   0.754   6.663   6.194  0.8837 -0.0837 -0.1839
44103SOL    HW135586   0.849   6.674   6.186  1.0043 -0.8233  0.1876
44103SOL    HW235587   0.732   6.590   6.137  0.2764  1.1399 -1.5712
44104SOL     OW35588   6.637  10.208  11.288 -0.7002 -0.3747 -0.4727
44104SOL    HW135589   6.571  10.274  11.311 -0.7983 -0.1649 -1.3208
44104SOL    HW235590   6.663  10.170  11.372  0.7342  2.0469  0.2718
44105SOL     OW35591   7.159   3.550   4.209 -0.4172 -0.3092 -0.3451
44105SOL    HW135592   7.070   3.526   4.236 -0.1837 -0.5708  0.1982
44105SOL    HW235593   7.157   3.545   4.113 -0.6375 -1.5529 -0.2907
44106SOL     OW35594   2.829   9.848   0.387 -0.0364  0.1010  0.6992
44106SOL    HW135595   2.842   9.774   0.327 -1.2885 -0.5966  1.2331
44106SOL    HW235596   2.768   9.905   0.341 -1.0210 -0.4502  1.2932
44107SOL     OW35597   3.987   2.532  10.978 -0.0451  0.0619 -0.1766
44107SOL    HW135598   4.060   2.507  10.922 -1.5296 -0.1952 -2.0892
44107SOL    HW235599   3.999   2.627  10.991  0.5550  0.0458 -0.5740
44108SOL     OW35600   4.951   6.906   1.262  0.0947  0.3476  0.0416
44108SOL    HW135601   4.986   6.918   1.174 -1.1280  1.1717 -0.3585
44108SOL    HW235602   4.859   6.933   1.255  0.3145  1.7660  1.8888
44109SOL     OW35603   1.318  11.198   7.823 -0.4464  0.2063 -0.1957
44109SOL    HW135604   1.339  11.161   7.737  1.4498 -0.2523  0.4221
44109SOL    HW235605   1.269  11.128   7.868 -1.2756  0.3768 -0.8131
44110SOL     OW35606  10.863   3.581   8.526  0.3602  1.0094  0.6066
44110SOL    HW135607  10.823   3.524   8.460 -0.0364  1.2943  0.5981
44110SOL    HW235608  10.933   3.627   8.479  0.0956  1.1913  0.3909
44111SOL     OW35609   7.881   7.204   4.570  0.1993 -0.5724 -0.5007
44111SOL    HW135610   7.917   7.226   4.656 -0.8523  1.3814 -0.5169
44111SOL    HW235611   7.927   7.262   4.509  1.2879 -2.2658 -1.3906
44112SOL     OW35612   8.453   4.433   6.729 -0.5178  0.0108  0.4123
44112SOL    HW135613   8.441   4.370   6.658  0.7323  1.1582 -0.8905
44112SOL    HW235614   8.548   4.447   6.733 -0.7901  2.7027 -0.2243
44113SOL     OW35615   3.229   2.958   2.049 -0.6706  0.7871  0.1241
44113SOL    HW135616   3.189   2.949   2.136  0.0127 -0.3822  0.3372
44113SOL    HW235617   3.193   2.884   1.999  1.1619 -0.3027  0.3197
44114SOL     OW35618   3.455   6.556   6.172  0.0956 -0.7704  0.0383
44114SOL    HW135619   3.516   6.484   6.157  1.3083  0.3359 -0.5595
44114SOL    HW235620   3.411   6.534   6.254  1.6112 -1.4091  0.7129
44115SOL     OW35621   2.213   6.997   7.276 -0.5723  0.2869  0.3627
44115SOL    HW135622   2.173   6.910   7.276 -0.4413  0.1237 -2.6179
44115SOL    HW235623   2.140   7.056   7.256  0.0353  0.2799 -2.2735
44116SOL     OW35624   6.591   0.801   9.421 -0.3982  0.3475  0.0121
44116SOL    HW135625   6.523   0.830   9.361 -0.7642 -3.1819 -1.5525
44116SOL    HW235626   6.670   0.798   9.367 -0.4072 -1.3957  0.0278
44117SOL     OW35627   1.018   5.469   2.287 -0.6565  0.7108  0.6504
44117SOL    HW135628   0.952   5.415   2.330  0.1958 -1.8262 -0.9635
44117SOL    HW235629   1.092   5.410   2.273  1.2015  2.9087  0.6111
44118SOL     OW35630   0.357   0.417   7.943  0.0541 -0.6033  0.2755
44118SOL    HW135631   0.309   0.356   7.887  1.0459 -1.0326 -0.1412
44118SOL    HW235632   0.325   0.504   7.917  1.0784 -0.7312 -1.5908
44119SOL     OW35633   9.177   5.350  10.181  0.2277  0.1697  0.2611
44119SOL    HW135634   9.210   5.268  10.219  1.8208  0.7097  0.1425
44119SOL    HW235635   9.224   5.358  10.098 -0.2692  0.9726  0.0540
44120SOL     OW35636  11.305   1.604   5.966 -0.2767 -0.0735  0.2770
44120SOL    HW135637  11.309   1.543   5.892  0.9648  0.5377 -0.1751
44120SOL    HW235638  11.396   1.627   5.983 -0.6924  1.3520  0.6921
44121SOL     OW35639   7.198   7.404   3.357  0.2168  0.4816  0.4058
44121SOL    HW135640   7.113   7.447   3.345  1.1236  2.2694  0.0132
44121SOL    HW235641   7.217   7.364   3.273 -0.2705 -0.0225  0.5284
44122SOL     OW35642   4.072  11.180   7.607  1.0220  0.3382 -0.0053
44122SOL    HW135643   3.997  11.197   7.664  0.5201  0.6171 -0.7379
44122SOL    HW235644   4.073  11.085   7.597  1.3221  0.2565  0.7367
44123SOL     OW35645   2.199   9.086   3.947  0.1684 -0.1938 -0.8247
44123SOL    HW135646   2.169   9.132   4.026 -2.5002 -0.0222 -1.8230
44123SOL    HW235647   2.282   9.127   3.926  0.4373  0.4906  1.2816
44124SOL     OW35648   5.768   0.621   4.062 -0.1135  0.7296 -0.5399
44124SOL    HW135649   5.861   0.613   4.086 -0.1273  2.3956  0.1816
44124SOL    HW235650   5.743   0.709   4.090 -2.5015 -0.4220  1.3152
44125SOL     OW35651  10.762   3.552   6.542 -0.0443  0.5083  0.0375
44125SOL    HW135652  10.778   3.623   6.480  0.2659 -0.4940 -1.0633
44125SOL    HW235653  10.805   3.580   6.622  1.3580  0.9181 -0.8246
44126SOL     OW35654  11.134   6.119   8.728 -0.0675 -0.1421 -0.5467
44126SOL    HW135655  11.090   6.204   8.726  1.1945  0.6209  1.0544
44126SOL    HW235656  11.103   6.078   8.809 -0.0849 -0.8798 -0.9242
44127SOL     OW35657   4.374   6.731   1.847  0.4811 -0.6657 -0.1904
44127SOL    HW135658   4.295   6.739   1.794  0.8589 -0.2185 -0.7026
44127SOL    HW235659   4.342   6.709   1.934 -0.3769  1.4491  0.1054
44128SOL     OW35660   1.231   8.995  11.336  0.2712 -0.6114  0.0005
44128SOL    HW135661   1.312   9.019  11.291  0.9000 -0.7938  0.9981
44128SOL    HW235662   1.169   8.976  11.266  0.5714  1.1992 -0.8011
44129SOL     OW35663   6.496   4.499   8.594 -0.1758 -0.4776 -0.2564
44129SOL    HW135664   6.577   4.448   8.595  0.6782  0.8249  0.1713
44129SOL    HW235665   6.442   4.460   8.663  1.0149  0.0197  1.0061
44130SOL     OW35666   5.763   9.007   6.914 -0.2930 -0.5829 -0.7766
44130SOL    HW135667   5.691   8.977   6.970  0.7796 -2.4855 -0.3175
44130SOL    HW235668   5.720   9.044   6.837 -1.8732  3.1240  1.6027
44131SOL     OW35669   6.144   4.380   2.227 -0.8231 -0.2791  0.2416
44131SOL    HW135670   6.209   4.443   2.196 -0.7740 -0.2147  0.4716
44131SOL    HW235671   6.192   4.327   2.291 -0.8888 -0.4901  0.1171
44132SOL     OW35672   2.722   3.687   1.020 -0.2449 -0.1817  0.3824
44132SOL    HW135673   2.767   3.607   0.996 -0.4373 -1.0136  2.5277
44132SOL    HW235674   2.646   3.692   0.962 -0.1231 -1.4454  0.1054
44133SOL     OW35675   7.991   0.388   1.420 -0.1640 -0.2308  0.4887
44133SOL    HW135676   8.002   0.479   1.447 -0.8635 -0.3251  1.1351
44133SOL    HW235677   8.058   0.340   1.469 -1.1251 -0.3348  1.7607
44134SOL     OW35678   9.279   3.785   5.686  0.5282  0.4317  0.1477
44134SOL    HW135679   9.341   3.712   5.691 -1.9464 -1.9778 -0.9891
44134SOL    HW235680   9.196   3.743   5.665 -1.5305  3.4444  1.5645
44135SOL     OW35681   3.184  11.064  10.545  0.0150  0.0685 -0.5423
44135SOL    HW135682   3.138  11.067  10.629  1.3755 -2.0517  0.3303
44135SOL    HW235683   3.240  11.141  10.545 -0.5504  0.4874  0.1496
44136SOL     OW35684   8.620   4.020   2.374 -0.1537 -0.2382 -0.0224
44136SOL    HW135685   8.604   4.091   2.312  0.6063  1.1465  1.3185
44136SOL    HW235686   8.713   3.999   2.364  0.1089  0.3812  1.0209
44137SOL     OW35687   8.401   9.620   4.140  0.0012  0.9660  0.0107
44137SOL    HW135688   8.390   9.584   4.228 -1.9026  1.5002  0.0519
44137SOL    HW235689   8.389   9.715   4.152 -1.1844  0.9557 -0.9286
44138SOL     OW35690   0.701   3.996   9.540 -0.7072 -0.3965  0.9490
44138SOL    HW135691   0.797   3.990   9.548 -0.6702 -1.2674 -0.0044
44138SOL    HW235692   0.677   4.064   9.603  0.4632 -0.6430  1.7040
44139SOL     OW35693   8.660   3.154   7.185 -0.2102 -0.0853 -0.2875
44139SOL    HW135694   8.654   3.208   7.264  3.3538  0.1978 -0.0620
44139SOL    HW235695   8.603   3.197   7.122  0.0150  2.0676  0.8766
44140SOL     OW35696  11.067   6.343   8.187  0.0833  0.2096 -0.4014
44140SOL    HW135697  11.097   6.431   8.162 -0.7358  0.5559 -0.2386
44140SOL    HW235698  10.990   6.360   8.242 -0.2985 -0.6212 -0.6702
44141SOL     OW35699   0.940   4.869   8.228 -0.3624  0.0792  0.7851
44141SOL    HW135700   0.864   4.822   8.193  0.4012 -0.6953  0.1393
44141SOL    HW235701   0.929   4.865   8.323 -0.9082 -0.3962  0.7059
44142SOL     OW35702   8.136   1.499   9.303 -0.4502  0.6541 -0.0673
44142SOL    HW135703   8.081   1.466   9.375 -1.7695 -1.0957 -1.7527
44142SOL    HW235704   8.077   1.554   9.252  0.3322  1.4506 -0.1342
44143SOL     OW35705   4.947   1.052   8.644 -0.2053 -0.2862 -0.0067
44143SOL    HW135706   4.898   1.133   8.632 -1.2744 -1.0940 -1.3818
44143SOL    HW235707   4.889   0.984   8.610  0.1442 -1.8120  2.2445
44144SOL     OW35708   5.336   8.561   7.013 -0.1806 -0.3736 -0.6658
44144SOL    HW135709   5.381   8.477   7.025  1.9878  0.7682 -0.3114
44144SOL    HW235710   5.397   8.614   6.961 -0.8170  1.4834  0.3924
44145SOL     OW35711   3.894   2.759   2.718  0.2293 -0.0270 -0.3167
44145SOL    HW135712   3.961   2.811   2.675 -0.1647  0.9940  0.2525
44145SOL    HW235713   3.936   2.725   2.797  0.4562 -0.4910 -0.6348
44146SOL     OW35714   0.173   2.242   8.550 -0.5581  0.2606  0.4914
44146SOL    HW135715   0.153   2.221   8.641  1.1680 -1.2458  0.5658
44146SOL    HW235716   0.233   2.173   8.522 -0.5146  1.0855 -1.5862
44147SOL     OW35717   6.509   2.739   0.816  0.1427  0.0491  0.4530
44147SOL    HW135718   6.500   2.716   0.724 -0.7479  1.1145  0.2497
44147SOL    HW235719   6.591   2.699   0.843  0.4006 -0.3048 -0.7921
44148SOL     OW35720   5.002  11.283   7.092  0.3018 -0.1534  0.0286
44148SOL    HW135721   5.043  11.313   7.173  2.2092  1.6609 -1.4959
44148SOL    HW235722   4.915  11.324   7.093 -0.0065 -0.7699  1.4555
44149SOL     OW35723  10.854   9.833   7.421  0.0793  0.8002  0.3723
44149SOL    HW135724  10.772   9.857   7.378 -0.0938  0.2714  0.3935
44149SOL    HW235725  10.828   9.776   7.493  0.5836 -1.9609 -1.4326
44150SOL     OW35726   0.758   0.226   2.470  0.1089 -0.0274 -0.3211
44150SOL    HW135727   0.794   0.155   2.417 -1.6053 -0.0948 -1.4725
44150SOL    HW235728   0.684   0.259   2.419 -0.7324  0.8601  1.3940
44151SOL     OW35729   5.704   2.236   1.428  0.3991 -0.6039 -0.2102
44151SOL    HW135730   5.745   2.188   1.356  0.9557  0.5926 -0.7011
44151SOL    HW235731   5.715   2.179   1.504  0.5338 -1.5102 -0.8923
44152SOL     OW35732   1.304   5.251   0.612  0.2168  0.3585 -0.1897
44152SOL    HW135733   1.329   5.285   0.526 -0.2940  1.7517  0.1919
44152SOL    HW235734   1.230   5.305   0.639  1.3919  1.0595  1.8259
44153SOL     OW35735   7.579   7.120   4.080 -0.3673  0.1393  0.0456
44153SOL    HW135736   7.590   7.035   4.036  2.9776 -0.1146  1.0805
44153SOL    HW235737   7.572   7.183   4.008  1.2553 -0.6402 -0.8702
44154SOL     OW35738   3.922  11.261   5.753  0.1126 -0.0247  0.3191
44154SOL    HW135739   3.912  11.173   5.789 -1.5511  0.0145  0.0520
44154SOL    HW235740   3.999  11.256   5.698  0.4974 -1.0984  0.9172
44155SOL     OW35741   1.115   7.084   9.890  0.0584 -0.0795  0.4278
44155SOL    HW135742   1.114   7.157   9.827 -0.5220 -1.3134 -1.0589
44155SOL    HW235743   1.026   7.080   9.922  0.0549 -0.2222  0.3997
44156SOL     OW35744   4.203  10.732   6.468 -0.0220 -0.3298 -0.0129
44156SOL    HW135745   4.110  10.710   6.463 -0.3676  1.1250 -0.4430
44156SOL    HW235746   4.235  10.683   6.544 -1.3699 -0.0944  0.7414
44157SOL     OW35747   4.686   3.997   9.357 -0.0576 -0.2269  0.1917
44157SOL    HW135748   4.591   3.992   9.364 -0.2191  1.9449  0.2816
44157SOL    HW235749   4.718   3.942   9.428 -1.2816  0.1062  1.0374
44158SOL     OW35750   0.657   6.791   4.644  0.2298 -0.0397 -0.3060
44158SOL    HW135751   0.655   6.697   4.659 -0.6408 -0.0891 -0.6484
44158SOL    HW235752   0.587   6.826   4.699  0.1419  0.3266 -0.6411
44159SOL     OW35753  10.287   5.525   2.136 -0.1228  0.3510 -0.2068
44159SOL    HW135754  10.348   5.496   2.204 -1.0363 -0.3892  0.3287
44159SOL    HW235755  10.328   5.602   2.098  1.5451 -0.5953 -0.4275
44160SOL     OW35756   6.761   6.126   1.338  0.1490  0.1818 -0.1695
44160SOL    HW135757   6.702   6.050   1.339 -0.8566  0.8729  3.0818
44160SOL    HW235758   6.704   6.201   1.353  1.5862  1.1512  0.6304
44161SOL     OW35759   5.269  10.692   5.568 -0.0863  0.1938 -0.3634
44161SOL    HW135760   5.227  10.670   5.485  1.0912 -0.7313 -0.7452
44161SOL    HW235761   5.204  10.670   5.635 -0.7331  0.1563 -0.9922
44162SOL     OW35762  10.574   2.134  11.320  0.3880 -0.6402 -0.1821
44162SOL    HW135763  10.596   2.050  11.361  1.1063 -0.2507  0.2502
44162SOL    HW235764  10.510   2.174  11.378 -2.7557 -2.4095 -2.1618
44163SOL     OW35765   3.584   5.535   0.723  0.1674  0.6633 -0.2065
44163SOL    HW135766   3.679   5.552   0.729  0.3036 -0.4151  1.0739
44163SOL    HW235767   3.566   5.475   0.795 -1.3455  0.1320 -0.9967
44164SOL     OW35768   8.756  10.989   8.643 -0.1857 -0.5210  0.5959
44164SOL    HW135769   8.690  10.997   8.574 -0.3214 -0.3867  0.7379
44164SOL    HW235770   8.707  11.001   8.724 -0.0120 -0.5853  0.7106
44165SOL     OW35771  10.867   0.208   6.094  0.1104 -0.3731 -0.4314
44165SOL    HW135772  10.873   0.163   6.010 -1.1142  1.0454 -1.3296
44165SOL    HW235773  10.878   0.139   6.159  1.5119 -1.4512 -1.7333
44166SOL     OW35774   7.773   1.284   0.718  0.2400 -0.3410  0.0326
44166SOL    HW135775   7.821   1.366   0.724 -0.3097 -0.0310  0.3431
44166SOL    HW235776   7.823   1.222   0.771 -0.0702  0.1636  0.9392
44167SOL     OW35777   9.008   0.893   6.706  0.0270 -0.0996  0.6392
44167SOL    HW135778   9.102   0.881   6.694 -0.2320 -2.5490  0.5278
44167SOL    HW235779   8.979   0.937   6.626  1.0764  0.8617  0.7618
44168SOL     OW35780   3.528   9.679   9.376 -0.0654 -0.2242 -0.5643
44168SOL    HW135781   3.471   9.745   9.336  0.2437 -0.1319 -0.8635
44168SOL    HW235782   3.468   9.616   9.416 -0.3574  0.9315  0.8892
44169SOL     OW35783   6.948   0.018   0.193 -0.2869  0.4061  0.1499
44169SOL    HW135784   7.037  -0.009   0.214 -0.3389  0.6618  0.7465
44169SOL    HW235785   6.931  -0.018   0.107  0.6087  0.8561 -0.2312
44170SOL     OW35786   6.611   1.470   0.176 -0.0329 -0.2945  0.3083
44170SOL    HW135787   6.660   1.552   0.183  0.2325 -0.2165 -1.8202
44170SOL    HW235788   6.538   1.490   0.117 -1.3617 -1.0210  1.6049
44171SOL     OW35789   4.647   7.226   9.398 -0.2930  0.1019 -0.3993
44171SOL    HW135790   4.568   7.195   9.354 -0.1748  0.0896 -0.6064
44171SOL    HW235791   4.706   7.249   9.327 -0.8339  2.0056 -0.2842
44172SOL     OW35792   1.544   2.019  10.098 -0.3716  0.1831  0.2088
44172SOL    HW135793   1.597   2.051  10.170 -0.3486 -1.3173  0.9022
44172SOL    HW235794   1.512   2.098  10.054  1.2855  1.1114  0.6011
44173SOL     OW35795   2.511   8.132   1.975 -0.9035  0.4477 -0.3004
44173SOL    HW135796   2.596   8.176   1.973 -0.2285 -0.8222 -0.1655
44173SOL    HW235797   2.525   8.050   1.929 -2.6711  1.2019 -2.3805
44174SOL     OW35798   2.381   6.670  10.271  0.6782  0.0121 -0.1883
44174SOL    HW135799   2.455   6.646  10.327  0.7489  1.1701  0.2417
44174SOL    HW235800   2.400   6.629  10.187  0.5103 -1.8589  0.6440
44175SOL     OW35801   8.982   6.653   4.759  0.1181  0.4813 -0.4055
44175SOL    HW135802   9.052   6.619   4.814 -0.4648  0.1960  0.1800
44175SOL    HW235803   9.017   6.734   4.722  0.8066  0.2633 -0.2457
44176SOL     OW35804   4.361   1.831   3.490  0.3197  0.0404  0.1840
44176SOL    HW135805   4.441   1.839   3.542 -0.3689  1.0317  1.1163
44176SOL    HW235806   4.374   1.750   3.440  0.4424 -1.7565  2.9038
44177SOL     OW35807   5.004   2.355   3.909 -0.3779  0.0233  0.1408
44177SOL    HW135808   5.031   2.422   3.971  0.3413  1.0685 -1.2390
44177SOL    HW235809   5.000   2.274   3.960  0.2844  0.8288  1.5062
44178SOL     OW35810  10.045   0.644   9.443  0.2944 -0.3211 -0.3587
44178SOL    HW135811  10.122   0.700   9.459  2.5845 -3.3691  0.3709
44178SOL    HW235812   9.982   0.702   9.401  3.4084  2.1664 -2.1087
44179SOL     OW35813   0.112   3.373   9.610 -0.3204  0.1882  0.7943
44179SOL    HW135814   0.193   3.418   9.636 -1.6304  1.9957  1.9595
44179SOL    HW235815   0.043   3.418   9.659 -1.8866 -2.3842  1.1157
44180SOL     OW35816  10.508  10.445   6.747  0.8041  0.2203  0.4542
44180SOL    HW135817  10.601  10.457   6.731  1.0337 -0.5423  1.1440
44180SOL    HW235818  10.475  10.402   6.669  1.3048 -0.7147  0.7442
44181SOL     OW35819   3.849   6.250   5.757  0.0194 -0.4734  0.0281
44181SOL    HW135820   3.874   6.168   5.714 -1.3223 -1.8616  1.7024
44181SOL    HW235821   3.860   6.232   5.851  0.8842  1.7286  0.4214
44182SOL     OW35822   3.662   8.575   8.257  0.1115  0.2903  0.3305
44182SOL    HW135823   3.587   8.597   8.203  0.7296  1.2246 -0.1667
44182SOL    HW235824   3.733   8.630   8.224  1.0805 -0.7369  0.6340
44183SOL     OW35825  10.979   8.161   2.667  0.0589 -0.0135  0.0997
44183SOL    HW135826  11.022   8.159   2.582 -1.9036  1.3827 -0.9858
44183SOL    HW235827  11.042   8.205   2.725  0.4283  1.2691 -1.2283
44184SOL     OW35828  11.086   0.905   3.975  0.1614  0.1245 -0.6111
44184SOL    HW135829  11.098   0.819   3.934 -0.3601 -0.9061  1.2439
44184SOL    HW235830  11.054   0.884   4.063  0.0990  2.2403 -0.0894
44185SOL     OW35831   0.777   6.757   5.273  0.0805  0.2160  0.2086
44185SOL    HW135832   0.832   6.811   5.215 -0.9025  0.9072 -0.1074
44185SOL    HW235833   0.815   6.769   5.360  1.1941 -0.3285 -0.1817
44186SOL     OW35834   7.448   3.503   9.275 -0.4212  0.2763 -0.2637
44186SOL    HW135835   7.389   3.573   9.247 -0.1680  0.4650 -0.3256
44186SOL    HW235836   7.515   3.547   9.326  1.0021  0.4077 -2.1512
44187SOL     OW35837   0.395   6.429   5.719  0.2817 -0.3300 -0.0440
44187SOL    HW135838   0.343   6.417   5.640  1.3750 -3.3456 -0.4059
44187SOL    HW235839   0.477   6.469   5.688  0.2397 -0.3950 -0.2386
44188SOL     OW35840   0.238   5.172   3.613 -0.0920 -0.7221  0.2306
44188SOL    HW135841   0.151   5.187   3.575  0.2180  0.2459 -0.1282
44188SOL    HW235842   0.236   5.220   3.696 -0.0826 -1.1706  0.4953
44189SOL     OW35843   0.993   6.053  10.044 -0.2157  0.2211  0.2635
44189SOL    HW135844   0.921   6.101  10.005 -1.2069 -1.4684 -0.0685
44189SOL    HW235845   1.041   6.118  10.095 -1.4876  1.5316 -0.1726
44190SOL     OW35846   7.654   2.407   4.207 -0.3464  0.4097 -0.0046
44190SOL    HW135847   7.564   2.425   4.231  0.1340  1.0944  1.3418
44190SOL    HW235848   7.666   2.452   4.123 -1.6441 -0.8856 -0.9348
44191SOL     OW35849  10.274   9.571   6.305 -0.0181  0.5730  0.4671
44191SOL    HW135850  10.268   9.476   6.297 -1.0333  0.6268  0.4921
44191SOL    HW235851  10.229   9.604   6.228 -0.0718  1.0420  0.6991
44192SOL     OW35852   9.830  11.356  10.123 -0.0473 -0.7187 -0.3626
44192SOL    HW135853   9.826  11.370  10.218 -0.2779 -1.9159 -0.1796
44192SOL    HW235854   9.906  11.300  10.110  0.8341  0.5691 -1.0650
44193SOL     OW35855   4.926   6.844   3.481  0.0136  0.4802 -0.4664
44193SOL    HW135856   4.874   6.856   3.402 -0.5525 -2.0999 -0.5718
44193SOL    HW235857   4.909   6.754   3.508  0.8401  1.0096  2.1444
44194SOL     OW35858   1.901   2.115   3.345  0.6864  0.2254  0.0251
44194SOL    HW135859   1.914   2.207   3.368  1.4151  0.1521 -0.0720
44194SOL    HW235860   1.969   2.068   3.393 -0.2885 -0.3846  0.8590
44195SOL     OW35861   4.159  10.974   4.185 -0.1623 -0.1089  0.3693
44195SOL    HW135862   4.083  11.003   4.236 -0.3194 -0.3143  0.2499
44195SOL    HW235863   4.145  11.012   4.098 -1.0642 -1.6579 -0.1933
44196SOL     OW35864   9.735   8.667   7.228  0.8722 -0.0298  0.4705
44196SOL    HW135865   9.702   8.708   7.309  1.1130  1.1626 -0.0115
44196SOL    HW235866   9.675   8.697   7.160  0.1985 -1.6779  0.3056
44197SOL     OW35867   0.477   0.092   7.030  0.2511  0.1801  0.1999
44197SOL    HW135868   0.431   0.123   6.952  1.0201 -1.9799 -1.2333
44197SOL    HW235869   0.570   0.109   7.010  0.4863 -0.8006  0.4299
44198SOL     OW35870   4.700   6.076   6.600  0.0056 -0.8394  0.7380
44198SOL    HW135871   4.668   6.030   6.677  2.0483 -2.3557  0.7630
44198SOL    HW235872   4.671   6.023   6.526 -1.6939  0.4542  0.4106
44199SOL     OW35873   0.315   2.418   5.414 -0.4493 -0.6114 -0.5543
44199SOL    HW135874   0.242   2.365   5.382  0.3050 -0.9137 -1.8158
44199SOL    HW235875   0.335   2.477   5.341 -1.3524  1.5305  0.8459
44200SOL     OW35876   4.151   3.621   3.841  0.2543  0.4830 -0.2926
44200SOL    HW135877   4.177   3.559   3.910 -0.3084  0.7889  0.1970
44200SOL    HW235878   4.194   3.587   3.762 -0.5920 -0.9186 -0.1792
44201SOL     OW35879   9.133  11.357   0.275  0.0695  0.6503  0.5668
44201SOL    HW135880   9.067  11.308   0.226 -0.3090 -0.4628  2.1001
44201SOL    HW235881   9.175  11.413   0.210 -0.8961 -0.2221 -0.8634
44202SOL     OW35882  10.202   1.583   6.519 -0.5668  0.4243 -0.1061
44202SOL    HW135883  10.250   1.500   6.517 -1.1415  0.1004 -0.8235
44202SOL    HW235884  10.242   1.636   6.450 -0.2235  0.7474  0.3282
44203SOL     OW35885   8.321   0.142   6.182 -0.7249  0.3097 -0.0820
44203SOL    HW135886   8.245   0.153   6.125  0.3350  1.4310 -1.3355
44203SOL    HW235887   8.358   0.057   6.157 -1.1801  0.0607  0.0791
44204SOL     OW35888   9.429   3.422   9.638 -0.1893 -0.4616  0.3378
44204SOL    HW135889   9.382   3.340   9.623  0.0093 -0.4382 -0.4240
44204SOL    HW235890   9.489   3.401   9.710  0.9241 -1.4377 -0.8190
44205SOL     OW35891   9.910   1.789   0.501  0.7187  0.3753  0.1072
44205SOL    HW135892   9.986   1.782   0.443  0.5822  0.1103 -0.0388
44205SOL    HW235893   9.941   1.844   0.573  1.6428 -1.2711  1.0198
44206SOL     OW35894   3.209   3.684   7.166  0.1452  0.4690  0.7001
44206SOL    HW135895   3.183   3.755   7.109  0.0041  0.4298  0.7169
44206SOL    HW235896   3.205   3.721   7.254 -0.8471  0.1650  0.7920
44207SOL     OW35897   9.364   4.961   9.987 -0.5232  0.2695 -0.1185
44207SOL    HW135898   9.414   4.928   9.912 -0.2157 -0.1072  0.2467
44207SOL    HW235899   9.431   4.977  10.054 -1.0408 -2.0593  1.0690
44208SOL     OW35900   5.283   3.510   5.080 -0.1004  0.4308  0.1416
44208SOL    HW135901   5.236   3.550   5.153 -0.9613 -0.0348 -0.1449
44208SOL    HW235902   5.354   3.460   5.122 -1.6569 -1.3163  0.8496
44209SOL     OW35903   5.326   6.323   2.512  0.2094  0.1261  0.1505
44209SOL    HW135904   5.415   6.308   2.543 -0.0454  0.9672  1.3976
44209SOL    HW235905   5.288   6.236   2.504  1.4602 -0.3037 -1.4610
44210SOL     OW35906   2.468   8.091   2.455 -0.6886  0.3414 -0.0786
44210SOL    HW135907   2.472   8.117   2.547  0.0997  0.9573 -0.2697
44210SOL    HW235908   2.485   8.172   2.406  0.7934 -0.3125 -0.7137
44211SOL     OW35909   2.818   5.644  10.972 -0.4262 -0.3785  0.2348
44211SOL    HW135910   2.820   5.574  11.037 -0.2718 -1.9752 -1.4083
44211SOL    HW235911   2.874   5.612  10.901 -1.1058  1.0149 -0.9814
44212SOL     OW35912   6.471   7.953   6.685 -0.3617  0.3213 -0.6392
44212SOL    HW135913   6.526   7.962   6.608  0.4010  1.7897  0.0409
44212SOL    HW235914   6.430   7.867   6.675  0.9657 -0.2104 -1.8613
44213SOL     OW35915   2.382   1.531   9.135 -0.0912  0.2182 -0.1142
44213SOL    HW135916   2.315   1.566   9.077 -1.0734 -0.0700  0.8140
44213SOL    HW235917   2.409   1.449   9.094  0.7431  1.0221 -1.2288
44214SOL     OW35918   7.629  10.938   7.484  0.7703 -0.0092 -0.4358
44214SOL    HW135919   7.664  11.016   7.441 -0.0241  1.0672  0.7865
44214SOL    HW235920   7.614  10.965   7.575  0.1566 -1.4862 -0.0654
44215SOL     OW35921  10.250   0.853   4.885 -0.0430  0.3591  0.2132
44215SOL    HW135922  10.263   0.848   4.790 -0.1840  1.3149  0.1271
44215SOL    HW235923  10.339   0.846   4.921 -0.1096 -1.4718  0.1163
44216SOL     OW35924   3.601   9.536   5.490  0.2190 -0.3530 -0.9101
44216SOL    HW135925   3.676   9.553   5.433 -0.2298  0.7352 -1.2063
44216SOL    HW235926   3.623   9.455   5.534  2.3367  0.7431  0.2315
44217SOL     OW35927   8.753   5.293   3.783  0.3908 -0.0389  0.1100
44217SOL    HW135928   8.710   5.379   3.779  1.2052  0.3940  0.5433
44217SOL    HW235929   8.807   5.296   3.862  2.8805  0.2192 -1.5000
44218SOL     OW35930   3.134   5.154   9.877  0.1522  0.2538 -0.2164
44218SOL    HW135931   3.093   5.067   9.877 -0.7376  0.6560 -0.8945
44218SOL    HW235932   3.222   5.139   9.842 -0.6421 -0.1056 -2.1891
44219SOL     OW35933   9.916   8.822   9.109  0.2932 -0.1683 -0.2563
44219SOL    HW135934  10.007   8.847   9.123  0.5689 -0.1407 -1.9329
44219SOL    HW235935   9.918   8.727   9.096 -0.1703 -0.4479  1.4377
44220SOL     OW35936   3.019   4.243   0.337  0.0137 -0.2111  0.5432
44220SOL    HW135937   2.987   4.237   0.427  0.5646 -1.5388  0.6799
44220SOL    HW235938   2.940   4.243   0.283 -0.2809 -1.0524  0.9660
44221SOL     OW35939   0.518   0.639   2.356 -0.4914  0.0222  0.0043
44221SOL    HW135940   0.535   0.677   2.442 -0.1207  0.8478 -0.4154
44221SOL    HW235941   0.605   0.615   2.323 -0.2167  2.5209 -1.3703
44222SOL     OW35942   3.215   7.145   4.588 -0.3160  0.2456  0.1166
44222SOL    HW135943   3.187   7.069   4.640  0.1066 -0.4672 -0.6720
44222SOL    HW235944   3.215   7.113   4.497 -0.3505  1.2582 -0.2491
44223SOL     OW35945  10.989  10.750   2.016  0.1540  0.2933 -0.1874
44223SOL    HW135946  11.052  10.688   1.979  0.1571  0.9410 -1.3141
44223SOL    HW235947  10.909  10.736   1.965 -0.6395 -0.4883  1.1944
44224SOL     OW35948   9.470   2.062   5.529 -0.0009  0.5746  0.0865
44224SOL    HW135949   9.526   2.119   5.476 -1.8337  0.4270 -2.1619
44224SOL    HW235950   9.481   2.094   5.619  1.3828  2.4242 -0.6818
44225SOL     OW35951   6.306   6.363   0.387 -0.0264  0.5535 -0.4945
44225SOL    HW135952   6.334   6.439   0.337  1.9814  0.4195  0.3580
44225SOL    HW235953   6.353   6.369   0.470  0.6416 -1.8706 -0.6179
44226SOL     OW35954   1.593  10.792   9.352 -0.0897  0.1553 -0.4018
44226SOL    HW135955   1.605  10.860   9.419 -0.5923  0.6592 -0.8114
44226SOL    HW235956   1.498  10.783   9.343 -0.0280 -0.0480 -0.8980
44227SOL     OW35957   9.994   8.907   7.189 -0.2085  0.4045  0.5747
44227SOL    HW135958   9.983   8.893   7.283  0.7757 -0.1675  0.6150
44227SOL    HW235959  10.042   8.990   7.183 -1.4751  1.1646  0.5090
44228SOL     OW35960  10.934   6.852   3.184  0.1758  0.1269 -0.4866
44228SOL    HW135961  10.971   6.919   3.243 -0.7765  0.0181  0.2579
44228SOL    HW235962  10.934   6.772   3.237 -2.6497  0.4658  0.1705
44229SOL     OW35963   5.482   7.862   9.036 -0.3312 -0.0645 -0.5062
44229SOL    HW135964   5.542   7.862   9.110 -0.3462 -1.3356 -0.4789
44229SOL    HW235965   5.489   7.774   8.999 -0.9077  0.3045 -1.5442
44230SOL     OW35966   3.158   7.859   8.574 -0.7144  0.0438 -0.0118
44230SOL    HW135967   3.159   7.764   8.585 -0.5761  0.1183  0.6543
44230SOL    HW235968   3.097   7.874   8.502 -0.1855 -0.5947 -0.6176
44231SOL     OW35969   0.312   4.857   7.452 -0.3058 -0.0881 -0.4882
44231SOL    HW135970   0.227   4.900   7.439 -0.7117 -0.6084  0.3568
44231SOL    HW235971   0.316   4.841   7.546  0.4447 -0.6558 -0.6115
44232SOL     OW35972   2.956   3.386   9.658  0.3315 -0.2351  0.5912
44232SOL    HW135973   2.973   3.302   9.615  0.1424  0.5730 -1.1704
44232SOL    HW235974   2.867   3.408   9.633  0.4707  0.6158  0.8010
44233SOL     OW35975   7.316  10.130   7.611 -0.5320 -0.5496 -0.2905
44233SOL    HW135976   7.343  10.043   7.641  0.6345  0.0430  0.4569
44233SOL    HW235977   7.227  10.139   7.643 -0.9436 -1.7554 -1.0283
44234SOL     OW35978   4.807   8.741  11.105  1.3495  0.2514  0.4876
44234SOL    HW135979   4.792   8.654  11.067  2.4554  0.1089  0.3535
44234SOL    HW235980   4.827   8.797  11.031 -0.8361  1.0140  0.3868
44235SOL     OW35981   8.181   9.501   4.014  0.4301 -0.0968 -0.3303
44235SOL    HW135982   8.105   9.540   4.057  0.6701 -1.7217  1.7240
44235SOL    HW235983   8.256   9.547   4.053  0.5885 -0.2946 -0.4041
44236SOL     OW35984   9.813   6.971   8.150  0.6721 -0.5939 -0.1663
44236SOL    HW135985   9.852   7.055   8.125 -0.1164  0.0303  0.6563
44236SOL    HW235986   9.794   6.928   8.066 -1.4354  1.2382 -0.7227
44237SOL     OW35987  10.618   5.625   8.154 -0.0168  0.0259 -0.1386
44237SOL    HW135988  10.652   5.570   8.225  1.4305 -0.1629 -0.9432
44237SOL    HW235989  10.646   5.714   8.176 -1.7978  0.3890  0.8263
44238SOL     OW35990   4.179   7.675   8.095  0.7730  0.2744 -0.1347
44238SOL    HW135991   4.113   7.631   8.040  0.3746  1.6305 -0.7769
44238SOL    HW235992   4.201   7.610   8.161  0.2975 -0.9494 -1.1209
44239SOL     OW35993   9.426   0.500   8.618 -0.4102  0.4015 -0.2543
44239SOL    HW135994   9.386   0.416   8.639  0.1458  0.4201  0.9615
44239SOL    HW235995   9.412   0.510   8.524  0.2127 -1.4466 -0.6018
44240SOL     OW35996   1.140   3.931   8.271 -0.0395  0.6216 -0.2431
44240SOL    HW135997   1.057   3.890   8.246 -0.1132  0.2280  0.6144
44240SOL    HW235998   1.119   3.984   8.348  0.4833  0.5698 -0.0575
44241SOL     OW35999   3.154   8.839   8.128  0.3915  0.3102  0.5144
44241SOL    HW136000   3.183   8.749   8.144 -0.1319  0.2614  1.2711
44241SOL    HW236001   3.160   8.850   8.034 -1.3402 -1.1629  0.1846
44242SOL     OW36002   9.790   2.749  10.797  0.5761 -0.1644 -0.4946
44242SOL    HW136003   9.833   2.665  10.777  0.5638 -0.5266  0.8660
44242SOL    HW236004   9.749   2.734  10.882 -3.2828 -0.1900 -2.1725
44243SOL     OW36005   2.912  11.277   9.853 -0.2717  0.2110  0.4092
44243SOL    HW136006   2.956  11.361   9.863  0.8234 -0.0965 -1.3674
44243SOL    HW236007   2.980  11.212   9.871 -0.4448 -0.2783 -0.6329
44244SOL     OW36008   9.015  10.660   8.426 -0.0400  0.1413 -0.4939
44244SOL    HW136009   9.033  10.735   8.369 -1.2954 -1.2905 -2.9513
44244SOL    HW236010   8.931  10.681   8.466 -2.2071 -1.1916 -3.8350
44245SOL     OW36011   6.670   7.671   4.262  0.3924 -0.4350  0.1692
44245SOL    HW136012   6.673   7.658   4.356  0.3980  1.9056  0.5613
44245SOL    HW236013   6.757   7.646   4.231  1.2591  1.1494  1.1999
44246SOL     OW36014   8.923   4.495   5.342 -0.4037 -0.1721  0.1726
44246SOL    HW136015   8.965   4.422   5.297 -0.6940  0.8658 -1.9177
44246SOL    HW236016   8.864   4.533   5.276  1.1648  3.1157  0.4614
44247SOL     OW36017   5.028  10.812  11.271  0.3509 -0.1169  0.5719
44247SOL    HW136018   5.068  10.814  11.358  2.4949 -0.2714 -0.3689
44247SOL    HW236019   5.094  10.773  11.215 -0.8076  0.4143 -1.2393
44248SOL     OW36020   4.636   6.521   4.117 -0.4901  0.2470 -0.6310
44248SOL    HW136021   4.603   6.474   4.040  0.3050  0.7586 -1.3021
44248SOL    HW236022   4.622   6.461   4.190  0.4526 -1.0277 -1.4579
44249SOL     OW36023   9.776   1.734   7.761 -0.5229 -0.2828 -0.6323
44249SOL    HW136024   9.820   1.817   7.743  0.6533 -0.5969  0.5932
44249SOL    HW236025   9.818   1.671   7.702 -1.3163 -0.0536 -1.4608
44250SOL     OW36026   6.712  10.130   7.915 -0.3704 -0.2990  0.7611
44250SOL    HW136027   6.729  10.167   7.829 -0.1234 -1.2629  0.3805
44250SOL    HW236028   6.706  10.205   7.973 -1.2301  0.4006 -0.2101
44251SOL     OW36029   3.538   6.087   1.241  0.5611 -0.1386  0.1037
44251SOL    HW136030   3.633   6.084   1.253  0.6663 -1.1015 -0.8652
44251SOL    HW236031   3.517   6.180   1.240  1.6960  0.1331 -1.1649
44252SOL     OW36032   0.772   0.133   3.058  0.0195 -0.0709 -0.1739
44252SOL    HW136033   0.747   0.066   2.994 -0.4100  0.6500 -0.7727
44252SOL    HW236034   0.772   0.087   3.142  0.1057 -0.9109 -0.6242
44253SOL     OW36035   7.531   6.054  10.999 -0.1543 -0.1549  0.5847
44253SOL    HW136036   7.470   5.982  11.019 -0.2017 -0.4980 -0.7476
44253SOL    HW236037   7.604   6.012  10.953 -0.2243  0.6465 -0.2832
44254SOL     OW36038   2.754   7.136   5.962 -0.2328 -0.4302 -0.2354
44254SOL    HW136039   2.698   7.061   5.946 -0.8380  0.1597 -0.9559
44254SOL    HW236040   2.694   7.210   5.968  0.3576  0.0201  0.3973
44255SOL     OW36041   1.702  10.736   7.472 -0.0676 -0.8522 -0.2123
44255SOL    HW136042   1.794  10.724   7.447  0.3766 -1.8717  1.7375
44255SOL    HW236043   1.667  10.793   7.404  1.6265 -1.5686 -1.7899
44256SOL     OW36044   5.093  10.713   7.816  0.4730 -0.0330 -0.2085
44256SOL    HW136045   5.096  10.734   7.910 -0.8338  2.2449 -0.6025
44256SOL    HW236046   5.182  10.728   7.785  0.5231  0.9151  0.3518
44257SOL     OW36047   1.301  10.096   5.813 -0.0679  0.1179  0.0877
44257SOL    HW136048   1.246  10.138   5.746 -0.7469  1.2830  1.3180
44257SOL    HW236049   1.366  10.163   5.835 -0.1168 -0.0916  0.8882
44258SOL     OW36050   7.663   2.426   5.700  0.5797 -0.5387  0.2405
44258SOL    HW136051   7.618   2.449   5.619  1.5107 -0.4994 -0.2779
44258SOL    HW236052   7.689   2.510   5.737  0.0334 -0.5497  0.6554
44259SOL     OW36053   3.551  10.460   9.734  0.2327  0.6091  0.4918
44259SOL    HW136054   3.481  10.462   9.668  0.0072  0.2202  0.7127
44259SOL    HW236055   3.552  10.370   9.765 -1.6508  1.3572  3.1012
44260SOL     OW36056   1.770   8.133   9.007 -0.3259 -0.8608 -0.6134
44260SOL    HW136057   1.762   8.139   9.102  0.8662 -3.4556 -0.2625
44260SOL    HW236058   1.823   8.208   8.982 -0.3400 -0.3572  0.8019
44261SOL     OW36059   3.926  11.066   1.173  0.5270  0.4218  0.0370
44261SOL    HW136060   3.843  11.094   1.135  0.8664  1.7291  0.2144
44261SOL    HW236061   3.901  11.020   1.254 -0.0158  1.1059  0.2661
44262SOL     OW36062   2.380  10.187   7.679 -0.7586  0.3380  0.0130
44262SOL    HW136063   2.390  10.267   7.732  1.6502 -0.0655  0.2841
44262SOL    HW236064   2.330  10.128   7.734 -0.8334  0.9720  0.6435
44263SOL     OW36065  11.330   2.317   1.248  0.2194  0.2403 -0.0133
44263SOL    HW136066  11.293   2.401   1.221 -0.4860  0.1263  0.5472
44263SOL    HW236067  11.420   2.318   1.215  0.0441  0.9755 -0.4954
44264SOL     OW36068   5.110   4.559   3.238 -0.2621  0.3010  0.0653
44264SOL    HW136069   5.148   4.490   3.293  0.0451 -0.3345 -0.9043
44264SOL    HW236070   5.036   4.517   3.195  1.4085 -0.2528 -2.4673
44265SOL     OW36071   4.428   8.772  10.507  0.2663  0.1102 -0.3202
44265SOL    HW136072   4.385   8.845  10.550  2.5620  1.5955 -0.3526
44265SOL    HW236073   4.380   8.761  10.424 -0.5934  1.0458  0.0378
44266SOL     OW36074   0.324   2.600  10.626 -0.3181 -0.3318  0.5120
44266SOL    HW136075   0.390   2.532  10.610 -0.1795 -0.1822  0.4534
44266SOL    HW236076   0.313   2.600  10.721 -0.8085 -0.9012  0.4603
44267SOL     OW36077   8.980   4.899   2.257  0.5973 -0.7613  0.5523
44267SOL    HW136078   8.911   4.892   2.191  2.5426 -0.7142 -1.6212
44267SOL    HW236079   8.944   4.958   2.323 -0.8332  0.6102 -1.3181
44268SOL     OW36080   8.666   1.517   6.088 -0.4371 -0.1483 -0.0409
44268SOL    HW136081   8.630   1.487   6.171  1.3151 -2.8317 -0.1395
44268SOL    HW236082   8.706   1.439   6.049  1.6522  1.7126 -1.8909
44269SOL     OW36083  11.228   9.850  10.038  0.0426  0.1370  0.1531
44269SOL    HW136084  11.232   9.938  10.000 -1.9267  0.2207  0.0367
44269SOL    HW236085  11.291   9.799   9.987  0.5118  1.2444 -0.4108
44270SOL     OW36086   1.741   1.102   5.780  0.9155 -0.0446  0.3156
44270SOL    HW136087   1.794   1.176   5.810  0.5018  0.1988  0.4514
44270SOL    HW236088   1.713   1.126   5.692 -0.2051  0.4981  0.8045
44271SOL     OW36089   2.256  11.346   3.161  0.3166 -0.0402  0.0130
44271SOL    HW136090   2.242  11.272   3.220  1.1421  1.8685  2.7773
44271SOL    HW236091   2.199  11.415   3.194  0.6403  1.0714 -1.5942
44272SOL     OW36092   8.060   4.673   4.531  0.0079 -0.5258  0.4109
44272SOL    HW136093   8.020   4.642   4.450  0.0742  0.7667 -0.1484
44272SOL    HW236094   8.103   4.596   4.568  1.1401 -0.8668 -1.4875
44273SOL     OW36095   5.355   9.673   7.764  0.0369  0.4789 -0.2511
44273SOL    HW136096   5.412   9.598   7.778  0.8163  0.6653 -2.1619
44273SOL    HW236097   5.267   9.642   7.788  0.3254 -1.0923 -1.1155
44274SOL     OW36098   9.654   6.811   5.615 -0.6430 -0.3633  0.1416
44274SOL    HW136099   9.748   6.827   5.613 -0.7395  0.1263 -0.7050
44274SOL    HW236100   9.629   6.824   5.707  0.1179 -0.5429  0.3748
44275SOL     OW36101   0.752   6.260   0.028  0.4297 -0.3824 -0.4981
44275SOL    HW136102   0.840   6.278   0.062  0.7511 -1.0917 -0.9424
44275SOL    HW236103   0.729   6.174   0.064 -0.1097 -0.1721 -0.3341
44276SOL     OW36104   9.975   6.237   0.419  0.7535 -0.2184  0.3754
44276SOL    HW136105   9.962   6.159   0.364  1.2345 -0.1942  0.2224
44276SOL    HW236106   9.901   6.236   0.479  0.9928 -1.0533  0.6763
44277SOL     OW36107   1.387   2.523   9.905  0.1178  0.5375 -0.6308
44277SOL    HW136108   1.404   2.575   9.984  0.1863  0.5314 -0.6409
44277SOL    HW236109   1.292   2.527   9.893  0.3244  2.8990 -2.1709
44278SOL     OW36110   0.553   8.926   9.351 -0.0322 -0.3541 -0.2284
44278SOL    HW136111   0.587   8.917   9.261 -1.0684 -0.6278 -0.6085
44278SOL    HW236112   0.495   9.002   9.347  0.4369  0.0426  0.3870
44279SOL     OW36113   8.077   5.135   6.409  0.2355  0.0239  0.6393
44279SOL    HW136114   8.100   5.221   6.443  1.2514 -1.0428  2.8548
44279SOL    HW236115   8.109   5.073   6.475 -0.3848 -2.0729 -0.8971
44280SOL     OW36116   8.457   4.286   6.181  0.3878 -0.0930 -0.0606
44280SOL    HW136117   8.432   4.340   6.256 -2.1312 -2.7118  1.2250
44280SOL    HW236118   8.517   4.221   6.219  1.8639  0.6003 -1.1423
44281SOL     OW36119  11.046   1.057   2.049  0.6309 -0.0951  0.1759
44281SOL    HW136120  11.010   1.094   2.129 -1.5394  0.0848 -0.8058
44281SOL    HW236121  11.127   1.013   2.077  0.1682  0.3227  2.3635
44282SOL     OW36122   1.632   4.858   2.854 -0.1311  0.5458  0.3079
44282SOL    HW136123   1.615   4.892   2.766  0.3467  0.0173  0.0103
44282SOL    HW236124   1.711   4.805   2.845 -0.7799 -0.5348  0.7979
44283SOL     OW36125   9.457   4.410   8.341  0.1814 -1.2503  0.1600
44283SOL    HW136126   9.440   4.368   8.425 -1.9952 -0.7770  0.0133
44283SOL    HW236127   9.499   4.493   8.365 -1.4185 -0.6029  0.9238
44284SOL     OW36128   4.182   2.707   8.429  0.2749  0.5403  0.0346
44284SOL    HW136129   4.110   2.655   8.393  0.8179 -0.4303  0.3240
44284SOL    HW236130   4.186   2.785   8.373 -0.7295  0.4153 -0.2319
44285SOL     OW36131   3.576   1.192   9.384 -0.2081  0.3611 -0.2061
44285SOL    HW136132   3.638   1.145   9.440 -0.1853 -0.3462 -0.8156
44285SOL    HW236133   3.540   1.125   9.326 -2.2500  0.5576  0.7327
44286SOL     OW36134   1.501  10.783   1.497  0.0881  0.0604  0.1572
44286SOL    HW136135   1.435  10.852   1.504 -0.5501 -0.4502 -0.6231
44286SOL    HW236136   1.579  10.819   1.540 -0.1046  1.4110 -0.5743
44287SOL     OW36137  10.412   3.060   1.462 -0.3914  0.4048  0.6337
44287SOL    HW136138  10.405   3.009   1.381  1.5099  0.9921  0.0405
44287SOL    HW236139  10.504   3.052   1.487 -0.8320  0.6438  2.4966
44288SOL     OW36140   4.966   2.462   4.427 -0.3378  0.2805 -0.5810
44288SOL    HW136141   5.050   2.475   4.472 -1.3319 -0.0026  1.4976
44288SOL    HW236142   4.972   2.375   4.387  0.2891  0.1731 -0.2564
44289SOL     OW36143   2.861   5.834   4.159  0.1864  0.0993  0.5827
44289SOL    HW136144   2.893   5.862   4.244  0.7006  1.8471 -0.1392
44289SOL    HW236145   2.939   5.831   4.103 -0.4075  1.0093 -0.3313
44290SOL     OW36146   6.273   6.190   8.838  0.1228  0.4618  0.2547
44290SOL    HW136147   6.368   6.177   8.843  0.1999  0.2577 -1.3213
44290SOL    HW236148   6.255   6.255   8.905  1.4877  1.0203  0.1272
44291SOL     OW36149  11.108   1.595   1.401 -0.2816 -0.0037  0.4077
44291SOL    HW136150  11.168   1.576   1.329 -1.1782 -0.4244 -0.2430
44291SOL    HW236151  11.133   1.683   1.430  1.2572 -0.5138  0.7726
44292SOL     OW36152   4.118   3.512   5.942 -0.3122 -0.4621 -0.1550
44292SOL    HW136153   4.148   3.476   5.859 -0.8638  0.1828 -0.6399
44292SOL    HW236154   4.189   3.494   6.003  0.5042 -0.1104 -0.9861
44293SOL     OW36155   6.652   1.261  10.176  0.2760 -0.1209 -0.1871
44293SOL    HW136156   6.649   1.357  10.173 -0.6124 -0.1517 -0.6276
44293SOL    HW236157   6.745   1.240  10.180  0.4490  0.7800  0.7595
44294SOL     OW36158   7.483  10.651   4.971 -0.6883  0.1213 -0.2257
44294SOL    HW136159   7.573  10.631   4.996 -0.6633  1.3643  0.7311
44294SOL    HW236160   7.450  10.708   5.040 -1.9045  0.4553 -1.0416
44295SOL     OW36161   4.512   5.730   8.798 -0.4583 -0.0363  0.1166
44295SOL    HW136162   4.572   5.675   8.749 -0.5102  1.4083 -1.6773
44295SOL    HW236163   4.554   5.817   8.798 -2.5206  1.0437 -1.2915
44296SOL     OW36164   7.620   7.546   7.131 -0.2022 -0.2616  0.0800
44296SOL    HW136165   7.689   7.479   7.138 -0.0621 -0.0165  1.2401
44296SOL    HW236166   7.668   7.628   7.115 -0.3523 -0.3539 -0.9492
44297SOL     OW36167   4.973   8.402   9.585 -0.4489 -0.2617 -0.1419
44297SOL    HW136168   5.058   8.368   9.611  0.2729  1.7922  0.4008
44297SOL    HW236169   4.994   8.479   9.532 -1.9810 -0.2744 -0.8191
44298SOL     OW36170   3.159   5.113   2.665  0.3601  0.0263 -0.0235
44298SOL    HW136171   3.119   5.066   2.738  0.4658 -1.1902 -0.7210
44298SOL    HW236172   3.151   5.206   2.689  0.3500 -0.3393  1.4908
44299SOL     OW36173   0.889   9.256   8.858 -0.1459  0.1802  0.2163
44299SOL    HW136174   0.805   9.244   8.901  0.3825 -0.0508  1.2203
44299SOL    HW236175   0.935   9.321   8.913  0.9155 -0.8489  0.5797
44300SOL     OW36176   4.418   0.796   0.303 -0.3114 -0.3223 -1.1865
44300SOL    HW136177   4.337   0.771   0.258 -0.5040 -0.4748 -0.7660
44300SOL    HW236178   4.443   0.718   0.352 -1.1461  0.3929  0.4739
44301SOL     OW36179   3.822   4.484   0.167 -0.7582 -0.3594 -0.1327
44301SOL    HW136180   3.845   4.399   0.204  0.6413 -0.6056 -1.4496
44301SOL    HW236181   3.726   4.488   0.174 -0.6336 -0.5375  3.0210
44302SOL     OW36182   6.267   4.418   4.098  0.4923 -0.4468 -0.3876
44302SOL    HW136183   6.231   4.334   4.068  2.0876 -1.1205 -0.5309
44302SOL    HW236184   6.361   4.411   4.080  1.1278  0.1991  2.2587
44303SOL     OW36185   1.041   2.035   9.264 -0.7505  0.5598 -0.0201
44303SOL    HW136186   1.098   2.014   9.191 -0.1998  1.5192  0.1199
44303SOL    HW236187   1.064   2.125   9.288  0.8249 -0.4974  2.9188
44304SOL     OW36188   1.077   8.186   2.199  0.2438 -0.1683  0.3849
44304SOL    HW136189   1.068   8.106   2.147  2.1701 -1.8874  2.4739
44304SOL    HW236190   0.990   8.201   2.235 -1.0138  0.7750 -2.7572
44305SOL     OW36191  10.837   6.371   7.316 -0.0237 -0.0956 -0.2748
44305SOL    HW136192  10.891   6.355   7.394  0.1099  0.4578 -0.2467
44305SOL    HW236193  10.882   6.443   7.271 -2.0062  2.0787  0.9976
44306SOL     OW36194   7.465  10.884  10.434 -0.1905 -0.2991  0.5857
44306SOL    HW136195   7.417  10.891  10.516  0.5110 -1.8985  1.1669
44306SOL    HW236196   7.537  10.946  10.443  0.7428 -1.5269  1.8278
44307SOL     OW36197   5.564   3.850  10.799 -0.3206  0.2438  0.3317
44307SOL    HW136198   5.558   3.912  10.727 -0.9572  0.5631  0.6507
44307SOL    HW236199   5.658   3.841  10.815 -0.0933 -0.9382 -1.4729
44308SOL     OW36200  10.531   0.302   8.810 -0.1070 -0.2630 -0.0803
44308SOL    HW136201  10.619   0.289   8.775  0.2634  0.8768  0.3551
44308SOL    HW236202  10.540   0.287   8.904 -0.1483  0.8032  0.1053
44309SOL     OW36203   3.897   7.478   8.892 -0.0895  0.5713 -0.2257
44309SOL    HW136204   3.977   7.450   8.847  0.0615 -0.1247  0.4575
44309SOL    HW236205   3.828   7.465   8.827 -0.2551 -2.7811  0.4323
44310SOL     OW36206   0.503   1.677   7.771  0.1228 -0.0018  0.2431
44310SOL    HW136207   0.591   1.658   7.805  0.5602  1.0724 -0.2209
44310SOL    HW236208   0.519   1.734   7.695 -1.0174  1.3834  0.9841
44311SOL     OW36209   9.841   5.957   6.282  0.3890  0.0535  0.1645
44311SOL    HW136210   9.800   5.924   6.362  3.0606 -1.8441  0.8661
44311SOL    HW236211   9.849   6.052   6.297 -0.2789 -0.0893  1.6036
44312SOL     OW36212  10.662   7.724   6.016 -0.3366  0.0016  0.4638
44312SOL    HW136213  10.623   7.810   6.002  0.7749  0.7908  1.8746
44312SOL    HW236214  10.590   7.671   6.050 -0.9033  0.5469  0.1391
44313SOL     OW36215   2.310   4.444   3.265  0.2105  0.4906 -0.5200
44313SOL    HW136216   2.402   4.421   3.279  0.1132 -0.2540 -1.0381
44313SOL    HW236217   2.272   4.367   3.224 -0.7650  0.6134  0.1209
44314SOL     OW36218   9.220   6.490   5.798  0.3630 -0.0305 -1.0410
44314SOL    HW136219   9.280   6.417   5.784  0.6137  0.4753 -2.7802
44314SOL    HW236220   9.133   6.450   5.796  0.5676 -0.5619  0.0859
44315SOL     OW36221   8.536   6.390   1.575 -0.0357  0.2224 -0.4137
44315SOL    HW136222   8.507   6.481   1.565  0.2728  0.3171 -0.4675
44315SOL    HW236223   8.488   6.358   1.651 -1.1249  0.0251 -1.1680
44316SOL     OW36224   5.172  10.092   2.527  0.0603 -0.1438 -0.1338
44316SOL    HW136225   5.139  10.047   2.449 -2.2300 -0.2226  0.7977
44316SOL    HW236226   5.150  10.033   2.600 -0.6991  1.2960  0.8490
44317SOL     OW36227   3.574   4.240   8.083 -0.8269 -0.1033  0.0345
44317SOL    HW136228   3.526   4.181   8.024 -1.8473 -0.3905  1.1087
44317SOL    HW236229   3.594   4.187   8.159  0.1625  0.3605  0.1070
44318SOL     OW36230   0.520   8.571  10.935  0.3950  0.2931  0.0302
44318SOL    HW136231   0.552   8.510  11.002  1.0770  0.1538 -0.4165
44318SOL    HW236232   0.427   8.582  10.956  0.9554  1.6495  2.0820
44319SOL     OW36233   0.501   0.857   5.545 -0.2994 -0.0654 -0.3216
44319SOL    HW136234   0.574   0.812   5.588 -1.4359 -0.1936  1.5759
44319SOL    HW236235   0.435   0.788   5.533 -1.6835  0.8067  1.7535
44320SOL     OW36236   3.703   1.636   1.649  0.0773 -0.2575  0.2080
44320SOL    HW136237   3.613   1.664   1.635  0.4706  0.8972 -0.1818
44320SOL    HW236238   3.718   1.568   1.584 -0.7251 -0.9896  0.7683
44321SOL     OW36239   9.047   3.284  10.706 -0.4565 -0.0469  0.4724
44321SOL    HW136240   9.124   3.316  10.659 -0.2665  0.0852  0.8738
44321SOL    HW236241   9.059   3.189  10.709  1.1177  0.1462  2.9703
44322SOL     OW36242   0.644  11.194   1.903 -0.1172  0.1032  0.2093
44322SOL    HW136243   0.614  11.200   1.994  0.8843  1.7477  0.4882
44322SOL    HW236244   0.720  11.136   1.907 -1.3102 -1.5116  0.0410
44323SOL     OW36245   5.871   0.918   9.287 -0.0659 -0.6487 -0.2451
44323SOL    HW136246   5.905   0.948   9.203  1.5493 -0.2892  0.5134
44323SOL    HW236247   5.922   0.839   9.307 -0.4696 -0.7577  0.3792
44324SOL     OW36248   5.287   9.510   0.056  0.0241  0.4757  0.4980
44324SOL    HW136249   5.227   9.452   0.104  1.4775 -2.7167 -1.2390
44324SOL    HW236250   5.324   9.567   0.124 -1.8966 -0.2285  2.2438
44325SOL     OW36251  10.218   5.457   8.162 -0.0196  0.1862 -0.2088
44325SOL    HW136252  10.151   5.455   8.093 -1.9604  0.8145  1.5240
44325SOL    HW236253  10.294   5.416   8.123 -0.7359  1.2460 -2.9932
44326SOL     OW36254   8.789   5.939   4.791 -0.1183 -0.0587 -0.1143
44326SOL    HW136255   8.839   6.020   4.784  0.1391 -0.2007  0.0701
44326SOL    HW236256   8.855   5.870   4.788 -0.4255 -0.3131 -1.4619
44327SOL     OW36257   3.945   6.981   2.728 -0.2180 -0.1059 -0.9452
44327SOL    HW136258   3.892   7.033   2.668 -0.1160  0.8936 -0.2140
44327SOL    HW236259   3.911   7.003   2.815  1.4051  0.6427 -0.4379
44328SOL     OW36260   8.676  11.337   6.952  0.4031  0.7431  0.9064
44328SOL    HW136261   8.728  11.345   6.872  0.1934  1.8217  0.8599
44328SOL    HW236262   8.688  11.421   6.996  0.6105  0.1230  2.0704
44329SOL     OW36263   3.350   1.286   3.582 -0.7266 -0.5886 -0.4414
44329SOL    HW136264   3.398   1.203   3.578 -0.6403 -0.4779 -1.9112
44329SOL    HW236265   3.416   1.349   3.612 -1.0483 -1.1863  1.7715
44330SOL     OW36266   5.703   9.903   9.962 -0.0042 -0.4382 -0.0876
44330SOL    HW136267   5.798   9.899   9.950  0.1306  0.5231  0.5440
44330SOL    HW236268   5.691   9.956  10.041 -1.0506 -1.0538  0.1867
44331SOL     OW36269   5.009   6.441   9.151  0.2610 -0.2005  0.2979
44331SOL    HW136270   4.968   6.415   9.233  0.2349 -0.4531  0.2060
44331SOL    HW236271   5.103   6.444   9.170  0.1985  0.4978  0.5425
44332SOL     OW36272   5.824   5.452   4.637 -0.6124 -0.3537  0.2139
44332SOL    HW136273   5.830   5.411   4.723 -1.0638  2.3679  1.6557
44332SOL    HW236274   5.904   5.505   4.630 -1.3500  0.7131 -0.3158
44333SOL     OW36275   8.519   6.630  11.177  0.8348  0.2156  0.0060
44333SOL    HW136276   8.525   6.534  11.179 -0.1515  0.1428  2.8879
44333SOL    HW236277   8.543   6.658  11.265 -0.9572  2.4735 -0.1334
44334SOL     OW36278  10.983   1.902   9.299 -0.8318 -0.2246 -0.2807
44334SOL    HW136279  10.940   1.877   9.218  0.1386 -0.2191 -0.8169
44334SOL    HW236280  11.075   1.881   9.285 -0.7881 -1.2100  1.2123
44335SOL     OW36281   1.300   2.543   1.555 -0.2778 -0.2257  0.0883
44335SOL    HW136282   1.289   2.590   1.473 -0.4649  0.0393  0.2608
44335SOL    HW236283   1.379   2.582   1.594  0.4940 -1.1605 -0.5025
44336SOL     OW36284   5.820   7.968   1.045 -0.2914  0.3599 -0.1027
44336SOL    HW136285   5.748   8.015   1.003  0.6567  2.4447  0.4731
44336SOL    HW236286   5.899   8.003   1.004  0.4884 -0.5885  0.5301
44337SOL     OW36287   9.835  10.787   9.619  0.4384  0.6271 -0.1511
44337SOL    HW136288   9.796  10.778   9.706  0.2213 -2.5618 -0.4466
44337SOL    HW236289   9.767  10.829   9.566 -0.9362 -0.8057  0.3986
44338SOL     OW36290   3.459   4.127   1.075 -0.0750  0.3067  0.1827
44338SOL    HW136291   3.366   4.138   1.095 -0.0934  0.0043  0.2747
44338SOL    HW236292   3.470   4.032   1.067 -0.0388  0.4112 -1.1224
44339SOL     OW36293   0.293   3.558   7.218 -0.1290 -0.1956 -0.5825
44339SOL    HW136294   0.313   3.475   7.173  0.5180 -0.7007  0.5979
44339SOL    HW236295   0.240   3.607   7.155  0.7754 -0.8609 -1.9121
44340SOL     OW36296   8.984   2.906  10.237  0.7656 -0.3790 -0.5106
44340SOL    HW136297   9.060   2.939  10.285  0.8548  0.0579 -0.9475
44340SOL    HW236298   8.976   2.964  10.161  1.4686 -1.9058 -1.7872
44341SOL     OW36299   0.182   0.249   6.539 -0.3423 -0.2221  0.1751
44341SOL    HW136300   0.164   0.248   6.633 -1.0192 -2.2334  0.0893
44341SOL    HW236301   0.234   0.170   6.524 -0.3344  0.0104 -1.1581
44342SOL     OW36302   9.392   9.227   4.193 -0.3212 -0.8119  0.4601
44342SOL    HW136303   9.449   9.178   4.252 -1.3305 -0.2624  1.9380
44342SOL    HW236304   9.374   9.166   4.121  1.2283 -1.3648  0.4906
44343SOL     OW36305   8.579   8.194   9.989  0.7743  0.1045  0.0939
44343SOL    HW136306   8.622   8.113   9.962  0.3131  0.1909 -0.9417
44343SOL    HW236307   8.619   8.216  10.073  1.8603 -0.4789 -0.2586
44344SOL     OW36308   9.815   7.199   4.681  0.0133 -0.8051 -0.1232
44344SOL    HW136309   9.760   7.221   4.755  0.3456 -0.5390  0.0469
44344SOL    HW236310   9.768   7.129   4.635 -0.5085 -0.5078 -0.0376
44345SOL     OW36311   4.560   6.829   9.278  0.1369 -0.1022 -0.5133
44345SOL    HW136312   4.520   6.896   9.334 -0.0566  0.3201 -1.1488
44345SOL    HW236313   4.495   6.812   9.211 -1.4393 -3.6369  1.6243
44346SOL     OW36314   7.963   6.505  10.584 -0.1469  0.1206  0.6373
44346SOL    HW136315   8.039   6.531  10.636  0.4449 -0.7628  0.2401
44346SOL    HW236316   7.888   6.542  10.632  0.4502  0.1584  1.5809
44347SOL     OW36317  10.669  10.435   0.327  0.5959 -1.1076  0.0329
44347SOL    HW136318  10.748  10.481   0.296  0.5210 -1.0560 -0.0810
44347SOL    HW236319  10.613  10.505   0.360  1.5401 -1.3250  2.2673
44348SOL     OW36320   0.183   9.506   0.758  0.6367 -0.1074 -0.2194
44348SOL    HW136321   0.224   9.451   0.692  2.8694 -1.4279  2.0770
44348SOL    HW236322   0.236   9.585   0.761  0.8276 -0.2452  0.2519
44349SOL     OW36323   5.605   6.464   4.319  0.4876  0.0288 -0.0979
44349SOL    HW136324   5.698   6.442   4.308  0.0120 -0.7656 -3.5022
44349SOL    HW236325   5.601   6.558   4.305  0.8263  0.1944  0.8181
44350SOL     OW36326   2.313   5.531   3.612 -0.1200 -0.0420  0.2071
44350SOL    HW136327   2.241   5.469   3.602 -0.7447  1.0580 -3.5697
44350SOL    HW236328   2.270   5.613   3.639 -0.1765  0.3042 -0.8861
44351SOL     OW36329   5.190   1.781   3.974 -0.3666  0.2892  0.4403
44351SOL    HW136330   5.099   1.756   3.990  0.2630 -1.7445  1.2188
44351SOL    HW236331   5.212   1.737   3.892 -0.6629  2.5409 -0.9192
44352SOL     OW36332   1.509   2.158   0.027 -0.4327  0.2719  0.0140
44352SOL    HW136333   1.423   2.120   0.012 -0.7258  1.1628 -0.5556
44352SOL    HW236334   1.495   2.252   0.030  0.4604  0.4091  0.3170
44353SOL     OW36335   6.345  10.459   0.673 -0.4570  0.0502  0.1422
44353SOL    HW136336   6.357  10.386   0.613  0.6054 -0.4058  0.8816
44353SOL    HW236337   6.275  10.431   0.732 -1.7730  0.6557 -1.0849
44354SOL     OW36338  11.109   4.772   9.648 -0.3870 -0.0105 -0.0407
44354SOL    HW136339  11.102   4.818   9.732 -1.7127 -1.6382  0.8247
44354SOL    HW236340  11.067   4.830   9.585 -1.6212  0.1851  0.9248
44355SOL     OW36341   0.818   2.848   5.878 -0.1231  0.1456  0.3737
44355SOL    HW136342   0.854   2.879   5.961  0.4602 -0.7205  0.4588
44355SOL    HW236343   0.758   2.917   5.851  0.0246  0.6518  1.2857
44356SOL     OW36344   2.174   4.714   8.892 -0.2432  0.3569 -0.3167
44356SOL    HW136345   2.246   4.652   8.905  0.2612  0.9719 -0.1280
44356SOL    HW236346   2.121   4.705   8.971 -0.0563  0.3162 -0.1945
44357SOL     OW36347   7.068   8.836  10.525  0.2348 -0.2385  0.2132
44357SOL    HW136348   7.120   8.900  10.574  0.7523 -1.3785  1.1983
44357SOL    HW236349   6.981   8.875  10.520  0.1614 -0.0905  2.0958
44358SOL     OW36350   8.339   7.354   8.645 -0.4140  0.8697 -0.2309
44358SOL    HW136351   8.379   7.424   8.696 -0.8158  1.5440 -0.8316
44358SOL    HW236352   8.403   7.333   8.577  0.0220  0.1298  0.3817
44359SOL     OW36353   5.959   6.780   3.385  0.0596  0.4602  0.0740
44359SOL    HW136354   5.885   6.744   3.335 -0.6695  2.0596 -0.0553
44359SOL    HW236355   6.037   6.748   3.339 -0.5429 -0.6134 -0.2462
44360SOL     OW36356  10.957   6.192   9.595  0.1883  0.3377  0.1089
44360SOL    HW136357  10.926   6.196   9.505  1.2720 -0.2514 -0.3157
44360SOL    HW236358  11.046   6.157   9.588 -0.0400 -0.5876  1.4792
44361SOL     OW36359   4.649   8.433   8.145  0.1942  0.1041 -0.2332
44361SOL    HW136360   4.593   8.487   8.088 -0.4713  2.1800  2.2017
44361SOL    HW236361   4.737   8.468   8.132  0.5367 -1.2444 -1.9099
44362SOL     OW36362  10.098   4.168  11.157  0.1619  0.5548 -0.0653
44362SOL    HW136363  10.131   4.187  11.244  1.0865 -0.6012 -0.1519
44362SOL    HW236364  10.057   4.082  11.165 -2.3146  1.6426 -0.1157
44363SOL     OW36365   8.268   1.566   5.624 -0.0534  0.9609 -0.1018
44363SOL    HW136366   8.198   1.596   5.682 -0.3898  0.5105 -0.2658
44363SOL    HW236367   8.236   1.586   5.536  0.4423  1.6130 -0.1310
44364SOL     OW36368   5.320   0.507  10.744 -0.0805 -0.2100  0.5374
44364SOL    HW136369   5.238   0.485  10.700  0.0454  1.0944 -0.4016
44364SOL    HW236370   5.364   0.568  10.685  2.0804 -1.6628  0.5323
44365SOL     OW36371  10.120   4.668   5.964  0.4439  0.0465  0.1954
44365SOL    HW136372  10.082   4.582   5.985 -0.4799  0.2656 -0.5039
44365SOL    HW236373  10.057   4.707   5.904  2.1511  0.1307 -1.6292
44366SOL     OW36374   4.984   8.029   8.590 -0.5134 -0.1582  0.4475
44366SOL    HW136375   4.901   8.005   8.549  0.4448 -1.5865 -0.7384
44366SOL    HW236376   4.986   7.979   8.672 -1.0605  0.3416  0.7786
44367SOL     OW36377  10.754   0.456   8.486  0.0321  0.4685  0.2090
44367SOL    HW136378  10.714   0.491   8.406  2.1503  0.3545 -0.9681
44367SOL    HW236379  10.765   0.532   8.542 -0.0865  0.8212 -0.2352
44368SOL     OW36380   8.228   5.516   8.261  0.2321 -0.6578  0.5190
44368SOL    HW136381   8.305   5.573   8.265  0.0382 -0.3630  0.1557
44368SOL    HW236382   8.222   5.478   8.349 -0.2035  0.6526  1.0911
44369SOL     OW36383   9.641  10.586   3.121  0.0316 -0.1188  0.2288
44369SOL    HW136384   9.713  10.598   3.059 -0.2316 -2.3766 -0.6316
44369SOL    HW236385   9.626  10.673   3.158  0.6624  1.2227 -2.3801
44370SOL     OW36386   4.574   7.850   5.908 -0.1999  0.3930  0.4534
44370SOL    HW136387   4.571   7.776   5.847  1.5450  0.5184  0.1686
44370SOL    HW236388   4.604   7.924   5.855  0.6014  0.6841  1.2831
44371SOL     OW36389   4.913   7.852   4.093  0.2956 -0.4293  0.7556
44371SOL    HW136390   4.979   7.893   4.150  1.1083 -0.8838  0.1657
44371SOL    HW236391   4.955   7.847   4.007 -0.5580 -0.6251  0.3352
44372SOL     OW36392   7.229   7.534   4.737  0.1914  0.0230 -0.5823
44372SOL    HW136393   7.271   7.453   4.766 -0.2648  0.1207  0.3578
44372SOL    HW236394   7.143   7.534   4.779  0.4857  1.3676  0.0693
44373SOL     OW36395  11.185   9.583   0.846  0.2157  0.3138  0.0668
44373SOL    HW136396  11.210   9.590   0.938 -1.4388 -0.5929  0.6333
44373SOL    HW236397  11.228   9.658   0.804  0.3600  1.2198  1.7235
44374SOL     OW36398  10.023  10.430   3.829 -0.4700  0.4793  0.1954
44374SOL    HW136399   9.964  10.354   3.826 -0.5377  0.5442 -0.4269
44374SOL    HW236400  10.047  10.439   3.921  1.4062 -1.7218  0.0058
44375SOL     OW36401   9.558   5.301   2.496  0.0159  0.1808 -0.2134
44375SOL    HW136402   9.650   5.282   2.510 -0.0569  0.9428  1.6058
44375SOL    HW236403   9.556   5.351   2.415  1.2611  0.5537 -0.0350
44376SOL     OW36404  10.342   2.126   3.379  0.1704 -0.6624 -0.1022
44376SOL    HW136405  10.370   2.131   3.288 -0.0068  1.5985 -0.0936
44376SOL    HW236406  10.380   2.044   3.411  1.6209 -0.6999 -1.7444
44377SOL     OW36407   7.055  10.107   7.766  0.0505 -0.0669 -0.0309
44377SOL    HW136408   6.973  10.089   7.721 -0.5354  0.7742  0.6801
44377SOL    HW236409   7.042  10.075   7.855  1.2208 -1.7638 -0.4148
44378SOL     OW36410   7.296   5.897   6.197  0.7404 -0.2494  0.2654
44378SOL    HW136411   7.213   5.944   6.210  0.0323 -1.4365  0.1904
44378SOL    HW236412   7.339   5.945   6.126 -0.2244 -0.0363 -0.2023
44379SOL     OW36413   4.678   2.106   3.857  0.0105 -0.6059  0.4611
44379SOL    HW136414   4.688   2.192   3.899 -0.6302 -1.1139  1.7152
44379SOL    HW236415   4.647   2.049   3.927  0.3978 -1.8676 -0.3634
44380SOL     OW36416   1.563   1.335  10.772 -0.3045  0.0260  0.5714
44380SOL    HW136417   1.518   1.264  10.726 -0.8495  1.5051 -1.2795
44380SOL    HW236418   1.494   1.398  10.791  0.2607  0.3163  1.7781
44381SOL     OW36419   3.242   9.953   8.187  0.1757 -0.2846 -0.0527
44381SOL    HW136420   3.218   9.896   8.260  0.9251 -0.7378 -0.1464
44381SOL    HW236421   3.202  10.037   8.209 -0.9162 -0.8215  0.1044
44382SOL     OW36422   4.803   8.787   9.327 -0.2591 -0.7501  0.2446
44382SOL    HW136423   4.729   8.837   9.293  0.1655  0.4007  0.9523
44382SOL    HW236424   4.879   8.822   9.279 -0.0150 -1.0866  0.3796
44383SOL     OW36425   8.376   4.955   5.158  0.5676  0.1843 -0.4650
44383SOL    HW136426   8.293   4.909   5.144  1.0289 -0.8433  0.1233
44383SOL    HW236427   8.350   5.047   5.168 -0.4520 -0.0586 -0.7338
44384SOL     OW36428   7.051   4.527  11.207 -0.0504 -0.5986  0.0966
44384SOL    HW136429   6.968   4.556  11.243  0.2051  0.4207 -0.0953
44384SOL    HW236430   7.029   4.486  11.123 -0.3296 -0.0874 -0.0781
44385SOL     OW36431   1.927   2.774   3.541  0.2673  0.1081 -0.5311
44385SOL    HW136432   1.963   2.746   3.625 -2.4408 -1.3618  0.2471
44385SOL    HW236433   1.986   2.735   3.475  1.2105 -0.5362  0.6608
44386SOL     OW36434   3.724   9.621   4.363 -0.2148  0.5942  0.0200
44386SOL    HW136435   3.685   9.697   4.320 -1.8635  0.0549  0.4708
44386SOL    HW236436   3.653   9.584   4.415  0.7548 -0.8197  0.4110
44387SOL     OW36437   5.212   8.458   8.847  0.0000 -0.3310  0.1488
44387SOL    HW136438   5.152   8.499   8.785  0.6523  1.1755  0.4939
44387SOL    HW236439   5.289   8.513   8.848 -0.1288 -0.0608  2.5625
44388SOL     OW36440   6.063   0.770   9.867 -0.1595  0.0807  0.1107
44388SOL    HW136441   6.111   0.725   9.798  0.1307 -0.8114  0.8846
44388SOL    HW236442   5.975   0.733   9.864 -0.5862  1.0928 -0.7265
44389SOL     OW36443   3.024   2.319   6.267  0.6244  0.2171 -0.0985
44389SOL    HW136444   2.976   2.364   6.198 -0.3113  0.1729  0.5131
44389SOL    HW236445   3.116   2.327   6.241  0.5229  2.6307  0.0785
44390SOL     OW36446   1.670   7.851   0.427 -0.3092  0.4218  0.0041
44390SOL    HW136447   1.722   7.784   0.472  0.0880  0.4356 -0.4425
44390SOL    HW236448   1.579   7.829   0.451 -0.0882  0.6353  1.0982
44391SOL     OW36449   4.161   5.383   5.325 -0.9542  0.5453  0.0506
44391SOL    HW136450   4.225   5.427   5.382 -0.3521  0.1884 -0.3307
44391SOL    HW236451   4.151   5.296   5.363 -1.4983  0.7276  0.3219
44392SOL     OW36452   2.728  10.803   6.184 -0.8965 -0.6122 -0.5542
44392SOL    HW136453   2.681  10.865   6.240 -1.1172 -0.2930 -1.0806
44392SOL    HW236454   2.659  10.748   6.146 -0.6109 -1.9753  0.8251
44393SOL     OW36455   1.971   5.800   0.791 -0.0940 -0.0053 -0.0273
44393SOL    HW136456   1.928   5.731   0.741 -0.7356  0.1234  0.3427
44393SOL    HW236457   1.924   5.880   0.768  0.4620  0.2674 -0.2334
44394SOL     OW36458   3.586  10.186   7.499 -0.0148  0.2334  0.0105
44394SOL    HW136459   3.511  10.183   7.558  1.0591  1.7827  1.5713
44394SOL    HW236460   3.550  10.213   7.414 -1.2647  0.5607  0.6319
44395SOL     OW36461   5.913   2.137   4.370  0.3468 -0.1573 -0.3423
44395SOL    HW136462   5.881   2.226   4.389  0.3791 -0.5374  1.7339
44395SOL    HW236463   5.948   2.106   4.454 -0.8527 -2.6228 -0.6700
44396SOL     OW36464  10.034   1.693   2.033  0.0713  0.3794  0.2613
44396SOL    HW136465   9.962   1.670   2.092 -0.1947  0.7015  0.0666
44396SOL    HW236466  10.092   1.617   2.034  0.0404  0.3625  0.8921
44397SOL     OW36467   9.362   7.939   2.136 -0.0541 -0.6801  0.7668
44397SOL    HW136468   9.375   7.954   2.043 -0.1023 -0.3679  0.8099
44397SOL    HW236469   9.366   8.026   2.175  2.4552 -0.9962  1.3742
44398SOL     OW36470   0.814   5.543  10.845 -0.5058 -0.3841  0.1206
44398SOL    HW136471   0.872   5.617  10.866 -0.7985  0.2685 -1.2774
44398SOL    HW236472   0.825   5.483  10.919 -1.0447  1.5001  1.8024
44399SOL     OW36473   5.511   3.012   0.803 -0.5025 -0.0388  0.2446
44399SOL    HW136474   5.552   3.091   0.838 -1.2038 -0.1319  1.3195
44399SOL    HW236475   5.442   3.045   0.746  1.0872  0.1198 -1.6730
44400SOL     OW36476   5.828   2.775   3.666  0.8562 -0.4287 -0.4124
44400SOL    HW136477   5.743   2.788   3.625 -0.0451 -3.0933  0.4318
44400SOL    HW236478   5.891   2.791   3.596 -0.3142  1.3807 -1.1042
44401SOL     OW36479   5.440   1.141  10.000  0.1938  0.1395 -0.2944
44401SOL    HW136480   5.428   1.231  10.032 -0.5937  0.1908 -0.7201
44401SOL    HW236481   5.422   1.147   9.907  1.2805 -0.2478 -0.5374
44402SOL     OW36482   3.216  11.314   0.305 -0.6273  0.1482 -0.6595
44402SOL    HW136483   3.249  11.396   0.342  1.8412 -1.9257  2.2745
44402SOL    HW236484   3.294  11.272   0.267 -0.8203 -2.4822  1.5009
44403SOL     OW36485   6.205   4.431  10.478 -0.0792  0.2142 -0.2349
44403SOL    HW136486   6.262   4.387  10.415  0.0195 -0.3056  0.2130
44403SOL    HW236487   6.266   4.479  10.535 -0.1549  0.5032 -0.3960
44404SOL     OW36488   2.987   2.444  11.350  0.0439  0.1448 -0.0871
44404SOL    HW136489   3.011   2.521  11.297  1.2628 -1.1422 -1.5095
44404SOL    HW236490   2.906   2.412  11.309  1.4205 -1.3279 -1.8184
44405SOL     OW36491   0.328   4.267   5.115  0.2224  0.6881 -0.1532
44405SOL    HW136492   0.275   4.190   5.093 -0.8483  1.5613 -0.7355
44405SOL    HW236493   0.416   4.244   5.086 -0.1928 -0.1005 -0.8552
44406SOL     OW36494   1.738   8.048   9.870 -0.1807 -0.0640 -0.0513
44406SOL    HW136495   1.650   8.086   9.878  0.1795  1.0446 -1.1361
44406SOL    HW236496   1.722   7.954   9.856 -1.1452 -0.0512  0.8330
44407SOL     OW36497  11.094   8.423   4.742  0.4116  0.1324  0.0387
44407SOL    HW136498  11.029   8.492   4.732 -0.0909 -0.5616 -1.8555
44407SOL    HW236499  11.108   8.417   4.837 -0.5844  1.8287  0.3299
44408SOL     OW36500  11.003   7.117   5.011  0.1756  0.2924 -0.1707
44408SOL    HW136501  10.967   7.053   4.950  0.9124 -1.0745  0.7643
44408SOL    HW236502  11.098   7.113   4.997  0.2493  0.9559  0.1078
44409SOL     OW36503   7.255   1.981   8.963 -0.4933 -0.7788 -0.2779
44409SOL    HW136504   7.308   2.060   8.976  0.1309 -0.9062 -1.8390
44409SOL    HW236505   7.191   1.983   9.034  0.3437  0.4402  0.4717
44410SOL     OW36506   3.513   0.090   4.397  0.0741 -0.0774 -0.2508
44410SOL    HW136507   3.597   0.051   4.376 -0.3836 -1.1513 -0.1677
44410SOL    HW236508   3.529   0.142   4.476  0.3230 -1.5955  0.7238
44411SOL     OW36509   9.868   0.779   5.618  0.4892 -0.3105  0.0989
44411SOL    HW136510   9.951   0.798   5.573  0.0300 -0.2240 -0.7262
44411SOL    HW236511   9.810   0.748   5.549 -0.3316  0.1393  0.5766
44412SOL     OW36512   1.971   7.193   2.101 -0.0694 -0.3127  0.4352
44412SOL    HW136513   1.984   7.136   2.025  0.3879 -0.8218  0.8842
44412SOL    HW236514   1.911   7.261   2.070 -1.7575 -1.7989  0.2675
44413SOL     OW36515   6.044   2.565   5.685 -0.2012  0.0192  0.0611
44413SOL    HW136516   6.005   2.493   5.635  1.4790 -0.1754 -1.0593
44413SOL    HW236517   6.120   2.526   5.728 -0.5284  0.6436  1.2220
44414SOL     OW36518  10.605   8.153   8.078 -0.4146  0.0012  0.4850
44414SOL    HW136519  10.589   8.115   7.992 -1.3626 -0.0574  0.6779
44414SOL    HW236520  10.557   8.097   8.138  0.8594 -0.4128  1.1565
44415SOL     OW36521   7.334  10.495   8.340 -0.0469  0.0899 -0.4201
44415SOL    HW136522   7.402  10.432   8.314  0.1142  0.2674 -0.4342
44415SOL    HW236523   7.319  10.548   8.261 -0.1995  0.0534 -0.4160
44416SOL     OW36524   6.844   6.572   5.781  0.4302  0.0376 -0.1544
44416SOL    HW136525   6.795   6.503   5.826 -2.4502  0.5363 -2.2834
44416SOL    HW236526   6.900   6.524   5.719  0.6399 -0.4678  0.4136
44417SOL     OW36527  10.860   5.817   3.992 -0.7367 -0.3985 -0.1735
44417SOL    HW136528  10.823   5.880   3.930  2.0916 -1.0337 -2.7334
44417SOL    HW236529  10.854   5.733   3.948  3.7235 -0.5144 -0.9531
44418SOL     OW36530   8.196   0.012   3.423  0.0763 -0.6016  0.7037
44418SOL    HW136531   8.182   0.106   3.415 -3.1744 -1.0639 -0.7725
44418SOL    HW236532   8.228  -0.015   3.337 -1.1020 -1.0821  0.3970
44419SOL     OW36533   4.431   7.922   3.496  0.0967  0.0056 -0.2381
44419SOL    HW136534   4.391   7.837   3.478 -1.1472  0.4554  0.2806
44419SOL    HW236535   4.359   7.976   3.531  0.9985  1.0730  0.0455
44420SOL     OW36536   1.414   1.684  10.591  0.8090  0.1301 -0.1933
44420SOL    HW136537   1.370   1.765  10.618  1.3822  0.0831  0.9262
44420SOL    HW236538   1.369   1.658  10.511  1.4600  2.2631 -1.3381
44421SOL     OW36539   4.513   1.622   7.421 -0.0176 -0.5740 -0.8228
44421SOL    HW136540   4.503   1.565   7.498  2.1531 -0.8629 -0.7043
44421SOL    HW236541   4.565   1.695   7.452  1.0138 -0.7603 -2.0387
44422SOL     OW36542   2.594   3.082   6.716 -0.3703  0.5081 -0.2374
44422SOL    HW136543   2.629   3.137   6.646  0.2896 -0.3771 -0.6236
44422SOL    HW236544   2.592   2.993   6.679 -0.0065  0.0217  0.8568
44423SOL     OW36545   8.756   7.420   3.246  0.1921 -0.1555 -0.6633
44423SOL    HW136546   8.727   7.410   3.156 -0.5466  0.4726 -0.4984
44423SOL    HW236547   8.829   7.359   3.254 -0.4803 -1.0706 -1.3450
44424SOL     OW36548   9.719   3.005   3.733 -0.4331 -0.3953  0.6281
44424SOL    HW136549   9.735   3.049   3.650 -2.0075 -2.9916 -1.1842
44424SOL    HW236550   9.797   3.023   3.785  0.5459  1.4266 -1.3147
44425SOL     OW36551   4.663   1.012   2.279  0.0139  0.0696 -0.3780
44425SOL    HW136552   4.697   1.092   2.238 -0.4809  0.5985  0.2136
44425SOL    HW236553   4.569   1.029   2.288  0.2531  0.5119  2.0988
44426SOL     OW36554   5.486   4.985   3.480 -0.3875  0.4229 -0.3815
44426SOL    HW136555   5.581   4.975   3.470 -0.0557  0.6260  2.0191
44426SOL    HW236556   5.473   5.078   3.493 -0.5839  0.1280  1.8205
44427SOL     OW36557   0.863   5.240   3.737 -0.2986  0.1463 -0.2391
44427SOL    HW136558   0.897   5.322   3.772 -2.2471  1.6568 -1.6894
44427SOL    HW236559   0.859   5.254   3.642  0.7562 -2.2239 -0.7086
44428SOL     OW36560   6.826   0.137   9.520 -0.2733 -0.0978 -0.1845
44428SOL    HW136561   6.882   0.067   9.554  0.9428  1.2066  0.5921
44428SOL    HW236562   6.753   0.091   9.479  1.7127 -1.9362 -1.9264
44429SOL     OW36563   3.517   1.468   4.507 -0.4360  0.0332 -0.4323
44429SOL    HW136564   3.596   1.521   4.497  0.3328 -0.9002  0.4668
44429SOL    HW236565   3.530   1.394   4.447 -0.3969 -0.3780  0.0797
44430SOL     OW36566   0.218   1.367   8.402  0.0363  0.2165 -0.6120
44430SOL    HW136567   0.302   1.373   8.447  1.3361 -1.7120 -2.5875
44430SOL    HW236568   0.205   1.274   8.387 -1.1808  0.6454 -2.6008
44431SOL     OW36569   3.469   4.752   1.439  0.2500 -0.1847 -0.7208
44431SOL    HW136570   3.545   4.784   1.391  2.2900 -1.9944  1.0924
44431SOL    HW236571   3.449   4.822   1.502  1.1831 -0.1881 -0.4133
44432SOL     OW36572   2.539   6.072   5.955 -0.3564  0.5513 -0.4210
44432SOL    HW136573   2.626   6.033   5.962 -0.7663 -0.5851 -1.3497
44432SOL    HW236574   2.528   6.090   5.862 -0.8863  1.2472 -0.2288
44433SOL     OW36575   2.155   7.957   2.168 -0.8714 -0.1523  0.0565
44433SOL    HW136576   2.195   7.945   2.254  0.0475 -0.5972 -0.4248
44433SOL    HW236577   2.191   8.040   2.136 -3.7247  1.7910  1.4416
44434SOL     OW36578   4.437  10.496   9.531  0.0276  0.3366 -0.0788
44434SOL    HW136579   4.507  10.543   9.578 -0.8351  1.1379  0.4595
44434SOL    HW236580   4.450  10.404   9.554  0.5765  0.5423  0.4720
44435SOL     OW36581   7.620   3.584   2.048  0.5177  0.3096  0.7501
44435SOL    HW136582   7.682   3.654   2.071  0.4079  1.7421 -2.7217
44435SOL    HW236583   7.655   3.547   1.967 -1.5088 -1.0252  0.4189
44436SOL     OW36584   8.338   5.066   2.045 -0.1219  0.5276  0.1457
44436SOL    HW136585   8.384   5.149   2.035 -0.9705  0.8126 -1.9922
44436SOL    HW236586   8.289   5.056   1.964 -1.1764 -1.3870  0.9468
44437SOL     OW36587   1.849   8.136   3.824  0.1066  0.4268  0.6944
44437SOL    HW136588   1.848   8.041   3.833  0.1558  0.2636 -0.7477
44437SOL    HW236589   1.912   8.166   3.889 -0.0446 -0.5104  1.2825
44438SOL     OW36590   9.732   5.776   9.823  0.1620 -0.6211  0.2632
44438SOL    HW136591   9.691   5.819   9.898 -0.2697 -0.1328 -0.2428
44438SOL    HW236592   9.825   5.798   9.832 -0.1636  1.2122 -0.4697
44439SOL     OW36593   7.943   6.447   6.508 -0.3472 -0.0436  0.1247
44439SOL    HW136594   8.013   6.383   6.522 -0.3087 -0.3806 -1.4448
44439SOL    HW236595   7.970   6.497   6.431 -1.5558  0.1959 -0.1688
44440SOL     OW36596   6.388  10.948   7.080  0.4114 -0.1770  0.4221
44440SOL    HW136597   6.350  10.874   7.127 -0.4654  0.4033  0.6537
44440SOL    HW236598   6.464  10.973   7.133  1.3901 -1.5882 -0.2554
44441SOL     OW36599   0.308   1.715   3.452 -0.0213  0.3637  0.6864
44441SOL    HW136600   0.339   1.765   3.376 -1.8727 -0.6446 -0.8174
44441SOL    HW236601   0.292   1.781   3.520  0.5447  1.4323 -0.1836
44442SOL     OW36602   1.330   6.474  10.122  0.6345  0.1225 -0.2785
44442SOL    HW136603   1.328   6.441  10.212  2.0743 -0.8267 -0.5601
44442SOL    HW236604   1.423   6.487  10.103  0.3162  0.8812 -1.4365
44443SOL     OW36605   9.526   9.419   3.225 -0.0550 -0.6272  0.6079
44443SOL    HW136606   9.580   9.351   3.187  1.2101  0.7985 -0.2510
44443SOL    HW236607   9.572   9.445   3.305 -0.5639 -0.7913  0.9641
44444SOL     OW36608   5.366   3.674   9.222 -0.2350  0.1158  0.2641
44444SOL    HW136609   5.327   3.591   9.249  0.7802 -0.4472  0.0712
44444SOL    HW236610   5.298   3.740   9.237 -1.1895 -0.8055  0.0459
44445SOL     OW36611   8.884  11.060   6.294 -0.0631 -0.1074  0.0249
44445SOL    HW136612   8.975  11.086   6.310 -0.2592  0.4904  0.1784
44445SOL    HW236613   8.883  10.966   6.314  0.4567 -0.0601  0.3069
44446SOL     OW36614   1.253   4.580   3.585 -0.3486 -0.5641 -0.5297
44446SOL    HW136615   1.167   4.620   3.572 -0.2385 -0.2907 -0.4449
44446SOL    HW236616   1.264   4.580   3.680  0.7618  1.6536 -0.5883
44447SOL     OW36617   2.160   2.253   4.618 -0.2314  0.4048 -0.2969
44447SOL    HW136618   2.232   2.288   4.565 -0.8472 -0.4033 -1.7344
44447SOL    HW236619   2.188   2.163   4.638  0.4972  1.0510  1.7525
44448SOL     OW36620   0.565   2.007   7.047 -0.9829 -0.3356 -0.3468
44448SOL    HW136621   0.487   2.021   6.993 -1.3321  4.8249  0.9821
44448SOL    HW236622   0.637   2.034   6.991 -0.4165 -2.1225 -0.5371
44449SOL     OW36623   1.075   8.317   5.005 -0.6450 -0.3007 -0.2493
44449SOL    HW136624   0.984   8.308   5.034 -0.1554 -0.9611  1.1951
44449SOL    HW236625   1.119   8.357   5.080 -0.0190  1.4888 -1.5104
44450SOL     OW36626  10.498   1.947   4.655  0.5835  0.1117 -0.5723
44450SOL    HW136627  10.406   1.941   4.681  0.5168  2.2904 -0.0963
44450SOL    HW236628  10.497   2.007   4.580  1.6314  0.2791 -0.4590
44451SOL     OW36629   0.409   3.157   0.061  0.6136  0.2913  0.0075
44451SOL    HW136630   0.364   3.094   0.005 -0.3555  0.3744  0.6671
44451SOL    HW236631   0.387   3.131   0.150  2.4527 -0.0730  0.4043
44452SOL     OW36632   5.002   2.726   3.577 -0.3942  0.3871 -0.4124
44452SOL    HW136633   4.982   2.714   3.485  0.9767  0.9283 -0.7993
44452SOL    HW236634   4.916   2.724   3.620 -1.1493  1.1620 -1.8114
44453SOL     OW36635   6.993   8.948   6.877  0.5255  0.5206  0.0795
44453SOL    HW136636   7.019   9.023   6.931  1.4320 -0.2221  0.7117
44453SOL    HW236637   6.899   8.938   6.893  0.6969  0.5547  1.2343
44454SOL     OW36638   3.737   6.691   6.711  0.7318 -0.2087 -0.0357
44454SOL    HW136639   3.788   6.621   6.751  1.0546  0.4041  0.6584
44454SOL    HW236640   3.652   6.652   6.692  1.0791 -0.9228 -0.1322
44455SOL     OW36641   3.503   4.109   6.907 -0.1709  0.4306  0.0649
44455SOL    HW136642   3.542   4.196   6.914 -0.9397  0.9483 -1.6333
44455SOL    HW236643   3.549   4.068   6.834 -0.4379 -0.2464  0.2729
44456SOL     OW36644   6.532   1.114   0.058  0.1399  0.4877 -1.0724
44456SOL    HW136645   6.626   1.127   0.072 -0.0534  1.0861 -0.1950
44456SOL    HW236646   6.497   1.203   0.052 -0.2349  0.2593 -2.4710
44457SOL     OW36647   7.850   4.837   4.479 -0.4234 -0.1379 -0.1169
44457SOL    HW136648   7.936   4.807   4.509 -0.7401 -1.8281 -0.8102
44457SOL    HW236649   7.788   4.795   4.539 -0.8109  0.7187  0.1051
44458SOL     OW36650   3.948  10.502   9.646  0.1065 -0.7258  1.0458
44458SOL    HW136651   3.947  10.414   9.608  0.4205  0.3994 -1.8423
44458SOL    HW236652   4.039  10.531   9.637  0.0719 -0.1895  2.2527
44459SOL     OW36653   5.922   6.750   5.141 -0.2195  0.4722 -0.2040
44459SOL    HW136654   5.874   6.688   5.196 -0.5097  0.4348 -0.4945
44459SOL    HW236655   5.855   6.810   5.107 -0.3018 -0.4473 -1.7748
44460SOL     OW36656   7.232   4.804   4.480 -0.0387  0.4775  0.5265
44460SOL    HW136657   7.141   4.797   4.507 -0.7171  0.0983 -1.6276
44460SOL    HW236658   7.248   4.725   4.427  2.0169 -0.2281  2.0526
44461SOL     OW36659   7.516   1.218   3.132 -0.1995 -0.3279 -0.4125
44461SOL    HW136660   7.468   1.253   3.207 -0.4333  0.0383 -0.7327
44461SOL    HW236661   7.512   1.287   3.066 -1.6804 -1.3821 -1.5043
44462SOL     OW36662   2.218   4.221   3.483  0.1981 -0.9142 -0.7230
44462SOL    HW136663   2.124   4.206   3.483 -0.0680  0.6115  0.0232
44462SOL    HW236664   2.228   4.311   3.452  1.2687 -0.4013  1.0025
44463SOL     OW36665  11.255   3.592   0.040 -0.3434 -0.3576  0.1284
44463SOL    HW136666  11.192   3.598   0.112  0.3772  1.6134  0.6586
44463SOL    HW236667  11.325   3.653   0.064 -0.4408  0.9706 -2.5890
44464SOL     OW36668   0.680  11.200   5.144  0.1089 -0.2380  0.2593
44464SOL    HW136669   0.627  11.154   5.209 -0.3708  0.3537  0.2987
44464SOL    HW236670   0.736  11.133   5.106  0.5414 -0.5582  1.4298
44465SOL     OW36671   1.818   0.977   3.080 -0.6121 -0.4121  0.3525
44465SOL    HW136672   1.732   1.018   3.077 -0.1897  0.4498 -1.0910
44465SOL    HW236673   1.872   1.031   3.022  0.0862 -2.7564 -1.3463
44466SOL     OW36674  10.944   9.821   3.831 -0.3569  0.3194 -0.5757
44466SOL    HW136675  10.917   9.733   3.854 -0.9232  0.3272 -1.1763
44466SOL    HW236676  11.038   9.813   3.812 -0.3030 -0.0534 -0.1606
44467SOL     OW36677   8.643   2.389   6.367 -0.4817 -0.0230  0.4234
44467SOL    HW136678   8.701   2.358   6.436 -1.0942  0.0550  0.9839
44467SOL    HW236679   8.572   2.325   6.365  0.2639 -0.8683 -1.1647
44468SOL     OW36680   8.423   4.753   1.571 -0.0781  0.0659  0.5559
44468SOL    HW136681   8.409   4.672   1.524  0.5370  0.3143 -0.0740
44468SOL    HW236682   8.464   4.726   1.653  1.8919 -0.1503 -0.4463
44469SOL     OW36683   5.923   1.696   0.042  0.0356  0.2330  0.0503
44469SOL    HW136684   5.830   1.675   0.046 -0.1073  1.0066  1.2881
44469SOL    HW236685   5.957   1.668   0.127  0.9857 -0.2355 -0.4691
44470SOL     OW36686   0.668   6.330   5.912  0.4551  0.0644  0.4548
44470SOL    HW136687   0.667   6.411   5.861  0.3670 -0.3975 -0.2962
44470SOL    HW236688   0.637   6.356   5.999  3.9740  1.6105  1.4380
44471SOL     OW36689   4.495   7.947   4.549 -0.0711 -0.4096 -0.2606
44471SOL    HW136690   4.436   8.011   4.588 -1.2436  0.3735 -3.1431
44471SOL    HW236691   4.543   7.911   4.624 -0.7080  2.4288  1.6638
44472SOL     OW36692   7.875   1.417   1.172 -0.0294  0.4993  0.0986
44472SOL    HW136693   7.835   1.426   1.258 -0.5268 -1.3146  0.1060
44472SOL    HW236694   7.805   1.382   1.116  0.7898 -0.1192 -0.5719
44473SOL     OW36695  10.746  10.240   5.540  0.0125  0.3055 -0.0798
44473SOL    HW136696  10.806  10.314   5.543  1.4967 -0.8467  0.0348
44473SOL    HW236697  10.736  10.222   5.446 -1.0666  1.1846 -0.1468
44474SOL     OW36698   2.595   3.869   3.071 -0.2637  0.2092  0.2135
44474SOL    HW136699   2.603   3.879   3.166  1.1423  0.1739  0.1173
44474SOL    HW236700   2.660   3.803   3.048  0.8949  1.6910 -1.0199
44475SOL     OW36701   1.886   8.543   9.647  0.1112 -0.4780 -0.1397
44475SOL    HW136702   1.892   8.552   9.552  1.4589  2.3001  0.1057
44475SOL    HW236703   1.923   8.456   9.665  0.7508 -0.6634 -2.0798
44476SOL     OW36704   2.434   4.862   1.310  0.2192 -0.3882  0.6378
44476SOL    HW136705   2.437   4.906   1.225  1.9934 -0.5801  0.5648
44476SOL    HW236706   2.440   4.769   1.290 -1.3974 -0.5888  0.9084
44477SOL     OW36707   9.587   2.051   8.300 -0.4422 -0.1784  0.0595
44477SOL    HW136708   9.633   1.988   8.245  1.0685  0.4842  0.5142
44477SOL    HW236709   9.579   2.129   8.245  1.5861  0.6827  0.9138
44478SOL     OW36710   1.270   7.725  10.076 -0.3555 -1.2298 -0.0558
44478SOL    HW136711   1.347   7.755  10.028 -0.1171 -1.2133  0.3294
44478SOL    HW236712   1.200   7.723  10.011 -0.0436 -1.1879 -0.3955
44479SOL     OW36713   3.361   1.581   6.358 -0.3045  0.3189  0.1227
44479SOL    HW136714   3.396   1.493   6.373 -1.5830 -0.2332 -0.0306
44479SOL    HW236715   3.379   1.599   6.266  0.1043  0.3016  0.1944
44480SOL     OW36716   1.950   7.703   7.125 -0.0118  0.3094  0.2246
44480SOL    HW136717   1.963   7.759   7.202  1.7748 -0.8555  0.8482
44480SOL    HW236718   2.026   7.720   7.070 -0.0265 -0.6656 -0.1103
44481SOL     OW36719   9.910   3.275   5.588 -0.2108  0.4192 -0.4320
44481SOL    HW136720   9.968   3.301   5.660  0.1133 -1.0021 -0.1463
44481SOL    HW236721   9.872   3.192   5.617 -0.6901  0.2288 -1.5685
44482SOL     OW36722   2.262   4.338   7.119 -0.0746  0.3548  0.2305
44482SOL    HW136723   2.263   4.327   7.024  0.0918 -0.9636  0.3659
44482SOL    HW236724   2.267   4.433   7.132  2.1611  0.4847 -1.0333
44483SOL     OW36725   3.745  11.002   0.437 -0.4672  0.3798  0.1162
44483SOL    HW136726   3.832  10.980   0.404 -0.6237 -1.8636  1.0680
44483SOL    HW236727   3.701  11.043   0.362  0.1230 -2.0023 -1.6570
44484SOL     OW36728  10.960   2.498   8.844 -0.1236  0.0881 -0.2242
44484SOL    HW136729  10.905   2.559   8.893  0.0206  0.8593 -0.9877
44484SOL    HW236730  11.020   2.463   8.910 -2.6642 -2.2527  1.0406
44485SOL     OW36731   5.665  10.050   7.488 -0.2936 -0.0520 -0.0600
44485SOL    HW136732   5.638  10.060   7.580 -2.2247 -1.7421 -0.3748
44485SOL    HW236733   5.699   9.960   7.483 -0.5309 -0.0915 -1.0705
44486SOL     OW36734   9.797   4.661   5.820  0.5359 -0.9457  0.4021
44486SOL    HW136735   9.730   4.593   5.811 -1.1459  0.8423 -1.5220
44486SOL    HW236736   9.862   4.638   5.754  0.3426 -1.0856  0.2558
44487SOL     OW36737   6.790   1.960   3.580  0.0215  0.3805  0.0424
44487SOL    HW136738   6.817   1.969   3.489  0.5960  0.5443  0.2255
44487SOL    HW236739   6.857   2.007   3.630 -1.8094  2.8754  0.3705
44488SOL     OW36740   1.790   9.414   8.974 -0.3168 -0.1202 -0.7844
44488SOL    HW136741   1.705   9.370   8.974 -1.7816  2.4548 -2.2144
44488SOL    HW236742   1.772   9.501   9.009  0.8224  1.8435 -4.5467
44489SOL     OW36743   5.835  10.810   7.116 -0.3262 -0.6293  0.1285
44489SOL    HW136744   5.889  10.848   7.186 -1.6965  0.6635  0.5467
44489SOL    HW236745   5.893  10.804   7.041  0.1882  1.7346  0.2506
44490SOL     OW36746   7.456   2.219   0.644 -0.2079 -0.3850  0.5461
44490SOL    HW136747   7.461   2.310   0.615 -0.9043 -0.1424  1.1784
44490SOL    HW236748   7.429   2.224   0.735 -0.5244 -1.2378  0.5057
44491SOL     OW36749   5.521   6.480   3.933  0.3259  0.1024  0.3517
44491SOL    HW136750   5.490   6.414   3.994  2.8578 -0.0710  1.5929
44491SOL    HW236751   5.572   6.431   3.868 -0.7163  0.5001 -0.8104
44492SOL     OW36752   9.191   3.858   8.308  0.3346 -0.1990  0.2628
44492SOL    HW136753   9.211   3.781   8.362  0.6990 -1.3678 -1.4514
44492SOL    HW236754   9.272   3.908   8.306  0.1159  0.2349  1.3302
44493SOL     OW36755   4.880   4.650   5.335  0.2246 -0.2066 -0.4235
44493SOL    HW136756   4.806   4.695   5.376  0.3358  0.4894 -0.9775
44493SOL    HW236757   4.938   4.720   5.306  0.7818 -0.7293 -0.5959
44494SOL     OW36758  10.419   3.838  10.181 -0.3068  0.0983  0.0332
44494SOL    HW136759  10.453   3.845  10.092  2.5936 -2.0237  0.8388
44494SOL    HW236760  10.378   3.751  10.185  0.5025 -0.2574  1.0162
44495SOL     OW36761   6.427   7.910  10.367  0.3205  0.1501  0.0516
44495SOL    HW136762   6.345   7.881  10.406  0.7000  0.9940  1.5156
44495SOL    HW236763   6.439   7.852  10.291 -1.6988  0.1367 -0.3082
44496SOL     OW36764   0.977  10.923   8.441 -0.6297  0.2925  0.1561
44496SOL    HW136765   1.008  10.888   8.524  0.0588 -0.8377 -0.5456
44496SOL    HW236766   0.936  11.006   8.463 -0.1606  0.1645  1.5765
44497SOL     OW36767   2.446   0.835   8.822 -0.1338  0.3675 -0.3092
44497SOL    HW136768   2.451   0.757   8.767  0.0691 -0.3904  0.7534
44497SOL    HW236769   2.521   0.827   8.881 -1.4785  0.0893  1.4386
44498SOL     OW36770   7.967   6.041   3.448 -0.3250  0.0939 -0.1513
44498SOL    HW136771   7.947   6.121   3.400  0.5289 -0.6619 -1.8859
44498SOL    HW236772   8.056   6.018   3.419 -0.1655 -0.9470  1.0748
44499SOL     OW36773   9.996   5.189  10.871 -0.3139  0.4103 -0.2073
44499SOL    HW136774  10.078   5.233  10.896 -0.8279  0.8097  0.8560
44499SOL    HW236775   9.945   5.258  10.828 -0.6787  0.5660  0.4665
44500SOL     OW36776   8.825   4.598   0.082  0.1509  0.0802  0.0656
44500SOL    HW136777   8.761   4.543   0.126  0.5954 -0.1631  0.4107
44500SOL    HW236778   8.807   4.585  -0.012 -0.8321  0.6541  0.1644
44501SOL     OW36779   5.227   7.828   7.829 -0.1518  0.1443 -0.2704
44501SOL    HW136780   5.235   7.736   7.801  2.0622 -0.0669  0.8427
44501SOL    HW236781   5.227   7.824   7.924 -0.7594  1.2835 -0.2103
44502SOL     OW36782   8.066   0.613   6.303 -0.5346 -0.2947 -0.1972
44502SOL    HW136783   8.067   0.701   6.339  0.3411 -0.1232 -0.6288
44502SOL    HW236784   8.157   0.594   6.282 -1.0678 -0.0190 -3.2168
44503SOL     OW36785   8.627   1.140   9.052  0.3237 -0.1263 -0.0861
44503SOL    HW136786   8.682   1.061   9.057 -0.6384 -0.8846 -0.9100
44503SOL    HW236787   8.637   1.169   8.961 -0.2500 -0.0017 -0.1134
44504SOL     OW36788   1.761   2.189   7.769 -0.3404  0.1692 -0.2573
44504SOL    HW136789   1.667   2.178   7.782 -0.7475  2.7014 -0.4986
44504SOL    HW236790   1.794   2.217   7.854  0.2494 -0.8693 -0.1284
44505SOL     OW36791   3.364   5.941   2.685  0.1785  0.3116 -0.2614
44505SOL    HW136792   3.350   5.986   2.602  0.6303 -0.6119 -0.8607
44505SOL    HW236793   3.284   5.889   2.698  0.1159  0.4409 -0.1306
44506SOL     OW36794   7.605   8.045   0.060  0.3061 -0.1278 -0.2831
44506SOL    HW136795   7.624   8.130   0.101  1.0677 -0.3004 -0.2547
44506SOL    HW236796   7.689   8.017   0.025  0.0141 -0.7802 -0.4684
44507SOL     OW36797   1.332   7.372   5.949 -0.2379 -0.1293  0.1706
44507SOL    HW136798   1.310   7.293   5.900 -0.1594  0.3671 -0.6770
44507SOL    HW236799   1.411   7.349   5.998 -1.0282 -1.0327  1.0683
44508SOL     OW36800   7.620   0.140   0.831 -0.0512  0.4683 -0.3857
44508SOL    HW136801   7.689   0.085   0.869 -0.3118  0.8085  0.6124
44508SOL    HW236802   7.543   0.083   0.829 -0.0853  0.5082 -0.2224
44509SOL     OW36803   4.796   3.042   2.981  0.0643 -0.0294  0.1092
44509SOL    HW136804   4.828   2.960   2.943  0.5661  0.4551 -0.5224
44509SOL    HW236805   4.847   3.110   2.938  0.6615  0.5441  1.6505
44510SOL     OW36806   8.965   6.917   2.782 -0.1331 -0.4474  0.2197
44510SOL    HW136807   8.881   6.874   2.798  0.0064 -0.2161  1.7673
44510SOL    HW236808   9.030   6.851   2.807  0.1896 -0.8739 -1.6278
44511SOL     OW36809   7.197   1.151  10.049  0.2767  0.2494 -0.3310
44511SOL    HW136810   7.247   1.232  10.061 -0.0542  0.3849  0.1626
44511SOL    HW236811   7.179   1.147   9.955 -1.3006  1.7046 -0.1235
44512SOL     OW36812  11.203   1.275  11.340  0.3844 -0.7451 -0.4979
44512SOL    HW136813  11.292   1.252  11.311  1.3566  0.2856  1.4597
44512SOL    HW236814  11.190   1.364  11.307  0.7725 -0.2605  0.6202
44513SOL     OW36815   0.937   7.569   5.779 -0.1608  0.3111  0.0557
44513SOL    HW136816   0.931   7.488   5.831  0.4634  0.5816  0.5612
44513SOL    HW236817   0.846   7.593   5.761 -0.3566 -0.3351  0.1657
44514SOL     OW36818   0.386   9.725   5.183 -0.0515  0.3969 -0.3129
44514SOL    HW136819   0.478   9.702   5.198 -0.2508 -0.1517  0.0979
44514SOL    HW236820   0.385   9.821   5.182  0.4566  0.4114  0.0952
44515SOL     OW36821   0.911   2.995   8.064  0.0911 -0.0328 -0.1404
44515SOL    HW136822   0.892   2.905   8.040  0.2749  0.0096 -0.4556
44515SOL    HW236823   0.962   3.029   7.991  1.5043 -0.1897  0.7401
44516SOL     OW36824   8.726   5.059   8.438 -0.2676 -0.1713  0.9695
44516SOL    HW136825   8.780   5.041   8.361 -1.5329 -0.8271  0.1821
44516SOL    HW236826   8.766   5.135   8.479  1.3810 -0.7902  0.5851
44517SOL     OW36827   3.140   3.660   5.779 -0.0006  0.2211  0.3183
44517SOL    HW136828   3.069   3.642   5.841 -0.9245 -1.1698 -1.0766
44517SOL    HW236829   3.206   3.594   5.799 -0.3571 -0.3150 -0.2307
44518SOL     OW36830   7.841   4.487   0.191  0.0348 -0.2671  0.4437
44518SOL    HW136831   7.834   4.425   0.118  0.4193  0.9975 -0.7158
44518SOL    HW236832   7.752   4.493   0.226  0.0195 -1.5645  0.6874
44519SOL     OW36833   9.556   6.823   0.577  0.1355 -0.0714  0.8289
44519SOL    HW136834   9.465   6.793   0.583 -0.2185  0.8418  0.2683
44519SOL    HW236835   9.549   6.918   0.562  1.1171 -0.2417 -1.0392
44520SOL     OW36836   0.589  10.871   0.030 -0.2101 -0.8987 -0.1979
44520SOL    HW136837   0.625  10.958   0.018 -1.2377 -0.1942  1.5034
44520SOL    HW236838   0.612  10.824  -0.050 -1.0470  1.4163 -1.8909
44521SOL     OW36839   1.392   7.526   3.293  0.3068  0.1493  0.6818
44521SOL    HW136840   1.481   7.549   3.320  0.9338 -0.6937 -0.5516
44521SOL    HW236841   1.394   7.431   3.287 -0.4759  0.1772 -0.0484
44522SOL     OW36842   4.682   9.964   1.046 -0.5607  0.2473  0.2625
44522SOL    HW136843   4.616  10.027   1.016 -0.8118 -0.2950 -0.3380
44522SOL    HW236844   4.639   9.917   1.117 -0.5543  0.4111  0.3744
44523SOL     OW36845   1.156   4.530   9.347  0.6008 -0.4675 -0.6405
44523SOL    HW136846   1.074   4.499   9.309 -0.6198  0.6999  0.9090
44523SOL    HW236847   1.163   4.482   9.430  1.1876 -0.1290 -0.4861
44524SOL     OW36848   5.666   7.139   6.352  0.8767  0.3760 -0.2359
44524SOL    HW136849   5.684   7.085   6.275 -0.6180  0.5637 -0.7452
44524SOL    HW236850   5.715   7.220   6.336  0.2396  0.5830 -1.2056
44525SOL     OW36851  11.280   4.459   5.279 -0.0174  0.1437 -0.6993
44525SOL    HW136852  11.190   4.447   5.251 -0.4207 -0.0886  0.6086
44525SOL    HW236853  11.323   4.376   5.260 -0.4306 -0.2106 -0.1137
44526SOL     OW36854   2.657   6.822   5.653  0.0425 -0.3202  0.5492
44526SOL    HW136855   2.719   6.749   5.660 -0.3640 -0.8330 -0.8997
44526SOL    HW236856   2.572   6.784   5.677 -0.1603 -0.3350 -0.1538
44527SOL     OW36857   0.909   9.280   3.838 -0.6835 -0.1927 -0.3545
44527SOL    HW136858   0.873   9.368   3.847 -0.7155 -0.1578 -0.8274
44527SOL    HW236859   0.973   9.273   3.909 -2.2900 -0.5927  1.1512
44528SOL     OW36860   3.942   3.313   8.887  0.1255 -0.0530  0.3222
44528SOL    HW136861   3.854   3.319   8.849 -1.2106  1.6200  3.3521
44528SOL    HW236862   3.994   3.376   8.837 -0.5456 -0.5439 -1.0384
44529SOL     OW36863   2.877   0.139   7.119 -0.4057 -0.1862 -0.3864
44529SOL    HW136864   2.931   0.128   7.198 -1.3029  1.7112  0.5488
44529SOL    HW236865   2.816   0.209   7.141 -1.1835 -0.1165 -2.5356
44530SOL     OW36866   3.307   3.287   4.810 -0.3066 -0.2511 -0.4103
44530SOL    HW136867   3.226   3.338   4.810  0.2850  0.7761  1.4057
44530SOL    HW236868   3.321   3.266   4.903  1.9150  0.2959 -0.5826
44531SOL     OW36869   3.672   6.706   9.587  0.0622 -0.7366  0.6694
44531SOL    HW136870   3.707   6.627   9.546 -0.3753 -0.6132  0.0499
44531SOL    HW236871   3.629   6.753   9.516 -2.7410 -1.6298  1.6410
44532SOL     OW36872   9.718   6.522   8.831 -0.3801 -0.9240 -0.1022
44532SOL    HW136873   9.741   6.523   8.738 -0.8911 -1.5474 -0.2424
44532SOL    HW236874   9.639   6.468   8.835 -2.1555  1.5459  0.2900
44533SOL     OW36875   1.439  10.851   4.068 -0.0893 -0.3237 -0.2290
44533SOL    HW136876   1.358  10.801   4.069 -0.2487 -0.0572  0.9300
44533SOL    HW236877   1.506  10.789   4.096 -0.2962  0.0976  1.2685
44534SOL     OW36878   6.834   2.543   7.541 -0.3485  0.0911  0.0131
44534SOL    HW136879   6.850   2.514   7.631 -1.3557  0.3384  0.2928
44534SOL    HW236880   6.739   2.551   7.535 -0.7022 -3.6301 -2.2526
44535SOL     OW36881   5.904   9.522   5.619  0.0831  0.3236  0.1876
44535SOL    HW136882   5.836   9.460   5.645  0.0694  1.3149  2.9089
44535SOL    HW236883   5.985   9.487   5.656  0.6064  0.4558 -0.7970
44536SOL     OW36884   4.603  10.685   4.582  0.2013  0.1477 -0.6132
44536SOL    HW136885   4.622  10.746   4.511  1.8359  1.5996  0.9914
44536SOL    HW236886   4.526  10.721   4.626 -0.4778 -0.4550 -1.2799
44537SOL     OW36887   7.468  10.463   5.752 -0.3709 -0.1621 -0.3191
44537SOL    HW136888   7.427  10.462   5.838 -1.4285  2.9652 -0.6598
44537SOL    HW236889   7.394  10.463   5.690  0.2587  0.4281 -1.0994
44538SOL     OW36890  10.573   9.952   6.548  0.5822 -0.4076 -0.1320
44538SOL    HW136891  10.543   9.897   6.475 -0.0817 -1.2727  0.7584
44538SOL    HW236892  10.507   9.939   6.616  1.8106 -0.6075  1.0750
44539SOL     OW36893   1.032   8.217   6.214 -0.3305  0.0016  0.2814
44539SOL    HW136894   1.009   8.238   6.123 -0.0184  0.1187  0.2290
44539SOL    HW236895   1.127   8.208   6.213 -0.2516  0.7530  0.7536
44540SOL     OW36896   1.969   5.629   0.550 -0.5368  0.1243  0.2164
44540SOL    HW136897   1.889   5.585   0.578 -1.9172  2.3915  0.1099
44540SOL    HW236898   2.040   5.567   0.571 -1.9722 -0.6184  3.4211
44541SOL     OW36899   3.331   1.507   8.610  0.0943 -0.3626 -0.1225
44541SOL    HW136900   3.304   1.578   8.669 -1.7554  0.6585 -2.0287
44541SOL    HW236901   3.414   1.477   8.645  1.2764  3.1479  0.4989
44542SOL     OW36902   5.262   7.127   4.224  0.0495  0.8073  0.2803
44542SOL    HW136903   5.344   7.089   4.192  0.2781  0.1761  1.5497
44542SOL    HW236904   5.197   7.102   4.159  0.7554  0.8461 -0.4594
44543SOL     OW36905   5.534   6.790   1.414 -0.1560  0.0131  0.0577
44543SOL    HW136906   5.517   6.867   1.469  0.3481  1.2079 -1.3892
44543SOL    HW236907   5.614   6.752   1.451 -1.1562 -0.6796  1.6383
44544SOL     OW36908   3.437   6.536   4.341  0.3510 -0.1979 -0.6018
44544SOL    HW136909   3.430   6.464   4.403  2.1513  1.0245  1.1237
44544SOL    HW236910   3.480   6.606   4.390  0.1971  1.4714 -2.7124
44545SOL     OW36911   0.007  10.938   4.276 -0.4362 -0.2584 -0.7776
44545SOL    HW136912  -0.036  11.001   4.219 -1.1371 -0.5847 -0.6272
44545SOL    HW236913   0.063  10.887   4.217 -2.9201 -2.1596 -1.6742
44546SOL     OW36914  10.270   4.926   7.761 -0.4951 -0.4686  0.2387
44546SOL    HW136915  10.197   4.981   7.789  0.9191  1.4054  0.4573
44546SOL    HW236916  10.266   4.850   7.818 -2.6020 -0.7234 -0.1584
44547SOL     OW36917   4.826   5.468   5.880  0.1159  0.2370 -0.4180
44547SOL    HW136918   4.766   5.402   5.913 -0.0702  1.0726  0.9879
44547SOL    HW236919   4.822   5.539   5.945  1.3962  1.0022 -1.1358
44548SOL     OW36920   1.273   4.551   3.859 -0.5963 -0.1640  0.1887
44548SOL    HW136921   1.366   4.554   3.880 -0.0985  1.8715 -1.9180
44548SOL    HW236922   1.236   4.626   3.905 -1.0186 -0.4561  0.3236
44549SOL     OW36923   2.749  11.101   8.357 -0.3337  0.2785 -0.5167
44549SOL    HW136924   2.684  11.143   8.414 -1.3285 -0.3954 -1.1329
44549SOL    HW236925   2.748  11.153   8.277 -2.3000 -1.4274 -1.6773
44550SOL     OW36926   6.992   3.702   0.871  0.0226  0.5451  0.1996
44550SOL    HW136927   7.087   3.689   0.878 -0.0437  0.1990  0.4819
44550SOL    HW236928   6.962   3.633   0.813  0.1709  1.6899 -1.3049
44551SOL     OW36929   5.849  10.146   0.423 -0.8666  0.3794  0.4130
44551SOL    HW136930   5.818  10.060   0.451  0.4920 -0.2614  0.0291
44551SOL    HW236931   5.885  10.132   0.335  1.4181  0.8204  1.2085
44552SOL     OW36932   6.843  10.918   9.567 -0.3358  0.5385 -0.2372
44552SOL    HW136933   6.867  10.869   9.488 -1.4483 -1.4544  0.5923
44552SOL    HW236934   6.927  10.943   9.605  0.2934 -0.8515 -0.6385
44553SOL     OW36935   1.316   3.830   9.217  0.0068 -0.2486  0.2557
44553SOL    HW136936   1.258   3.758   9.195 -1.0460  0.3175  1.0689
44553SOL    HW236937   1.304   3.893   9.146 -0.3456 -0.1526  0.3990
44554SOL     OW36938   8.921   4.727   5.735 -0.0065  0.1429  0.5712
44554SOL    HW136939   8.892   4.800   5.789 -2.4217 -0.2253 -0.1057
44554SOL    HW236940   8.897   4.752   5.646  0.1310 -1.0174  0.1849
44555SOL     OW36941   5.748   8.326   1.012  0.1481 -0.4074  0.0233
44555SOL    HW136942   5.749   8.337   1.107  1.8409 -0.8430  0.0862
44555SOL    HW236943   5.701   8.244   0.998  0.4708 -0.6875  0.5364
44556SOL     OW36944   6.671   2.803   4.949  0.0981  0.2286  0.1023
44556SOL    HW136945   6.584   2.799   4.987 -0.6642 -2.7691 -1.5978
44556SOL    HW236946   6.722   2.738   4.998  0.1676 -0.9142 -1.3726
44557SOL     OW36947   9.887   4.329   0.078 -0.5046 -0.1919  0.2358
44557SOL    HW136948   9.929   4.280   0.148 -0.3429  2.5602  2.1903
44557SOL    HW236949   9.821   4.268   0.043  0.4836 -2.1919  1.6537
44558SOL     OW36950   7.262   5.539   9.395  0.2031  0.6835  0.3316
44558SOL    HW136951   7.183   5.528   9.449  0.6015  1.5422  1.1191
44558SOL    HW236952   7.330   5.491   9.442  0.6212  1.6824  0.7731
44559SOL     OW36953   0.557   0.713  10.092  0.6019 -0.5879 -0.5581
44559SOL    HW136954   0.629   0.658  10.123  0.0477 -0.6186  0.7807
44559SOL    HW236955   0.537   0.770  10.167 -0.2043 -0.0004 -1.1990
44560SOL     OW36956   7.057   4.415   5.396  0.4029  0.2880 -0.2300
44560SOL    HW136957   7.106   4.381   5.471 -0.3614 -1.4065 -0.4394
44560SOL    HW236958   7.041   4.507   5.417  0.5142 -0.0534  1.5169
44561SOL     OW36959   4.232   4.801   3.657  0.2314  0.1571  0.4631
44561SOL    HW136960   4.249   4.890   3.627  0.9415  0.3038  1.2751
44561SOL    HW236961   4.272   4.796   3.743  0.3293 -0.9945  0.3701
44562SOL     OW36962   4.206  10.994  10.251  0.6920  0.1839  0.4974
44562SOL    HW136963   4.194  10.996  10.346 -0.9917 -0.9534  0.3510
44562SOL    HW236964   4.212  11.086  10.225  2.8255  0.4798  1.8478
44563SOL     OW36965   4.485   0.583   5.547  0.5277  0.4716  0.0167
44563SOL    HW136966   4.532   0.625   5.619 -0.2314 -2.1886  2.2477
44563SOL    HW236967   4.393   0.607   5.560  0.6151  1.8732 -1.5604
44564SOL     OW36968   7.967   5.067   3.029  0.3250 -0.0253 -0.0166
44564SOL    HW136969   7.880   5.059   3.068  0.9614  1.2498  1.7871
44564SOL    HW236970   8.026   5.025   3.092  1.0887 -0.3473 -0.9218
44565SOL     OW36971   8.912   1.436   0.696  0.2544  0.3285 -0.3641
44565SOL    HW136972   8.999   1.432   0.657  0.9029  1.9642  0.7946
44565SOL    HW236973   8.852   1.446   0.622  1.0826 -0.2465 -1.1325
44566SOL     OW36974   7.381   1.359  11.100 -0.5439 -0.2643  0.0185
44566SOL    HW136975   7.362   1.352  11.193  0.8915 -0.4184  0.3268
44566SOL    HW236976   7.359   1.274  11.064 -0.4852 -0.4194  0.3439
44567SOL     OW36977  10.496   1.771   9.018  0.5088  0.3591 -0.1379
44567SOL    HW136978  10.413   1.813   8.998 -1.2865 -1.7670  2.2295
44567SOL    HW236979  10.513   1.713   8.944 -0.6365  0.1097 -0.2132
44568SOL     OW36980   9.447   1.889   1.126 -0.0340  0.0031  0.2053
44568SOL    HW136981   9.499   1.968   1.139 -0.0514 -0.1943  1.6446
44568SOL    HW236982   9.388   1.910   1.054  1.7830  0.3494 -1.2504
44569SOL     OW36983   6.641   2.063   0.974 -0.1385 -0.4287  0.4172
44569SOL    HW136984   6.608   1.975   0.990  0.7895 -0.7171  0.8131
44569SOL    HW236985   6.725   2.049   0.929  0.6322  0.2021  1.6114
44570SOL     OW36986   7.125   7.786   2.851  0.0746 -0.0668 -0.3775
44570SOL    HW136987   7.068   7.780   2.928  0.7061 -0.5503  0.0696
44570SOL    HW236988   7.102   7.708   2.800  1.3257 -1.0645  0.5214
44571SOL     OW36989   5.181   5.671   6.764  0.5496  0.4876  0.1697
44571SOL    HW136990   5.187   5.690   6.858  2.4599 -1.2829  0.4834
44571SOL    HW236991   5.126   5.593   6.759 -1.2910  1.7554 -0.4383
44572SOL     OW36992   4.043   5.776   9.953  0.6261 -0.7735  0.0464
44572SOL    HW136993   4.088   5.776  10.037  2.9185 -0.0498 -1.0907
44572SOL    HW236994   3.965   5.829   9.968  1.6194  0.3779  1.4194
44573SOL     OW36995   2.491   1.768   7.810  0.0815 -0.3412  0.0600
44573SOL    HW136996   2.496   1.766   7.905  0.8327  0.3731  0.0523
44573SOL    HW236997   2.506   1.678   7.782 -0.1785 -0.5575  0.6113
44574SOL     OW36998   3.017   5.696   5.999 -0.1579 -0.2532 -0.0821
44574SOL    HW136999   3.081   5.756   6.037 -1.0891  0.8093 -0.1650
44574SOL    HW237000   3.071   5.629   5.957  0.8966  0.0017  0.8014
44575SOL     OW37001   2.078   0.093   3.347  0.0629 -0.1938 -0.2222
44575SOL    HW137002   2.076   0.038   3.426  1.1661 -0.1011 -0.1174
44575SOL    HW237003   2.060   0.181   3.379  2.2081  0.1361  0.2200
44576SOL     OW37004   2.617   2.477   3.486 -0.7571 -0.2263  0.4052
44576SOL    HW137005   2.561   2.551   3.465  0.6389  1.0884  1.0964
44576SOL    HW237006   2.688   2.482   3.422 -0.5614 -0.8842  0.5629
44577SOL     OW37007  10.821   2.101  10.027 -0.3835  0.0176  0.2361
44577SOL    HW137008  10.770   2.084  10.106  0.9442  1.2718  1.4176
44577SOL    HW237009  10.773   2.170   9.981 -1.4988 -1.1596 -0.4271
44578SOL     OW37010   4.233   6.530   4.144  0.1912 -0.3213  0.0246
44578SOL    HW137011   4.207   6.542   4.053  0.4687  1.3465  0.1333
44578SOL    HW237012   4.200   6.608   4.189  1.9228 -0.0612  0.9302
44579SOL     OW37013   3.286   4.709   6.479 -0.2659 -0.3486  0.3624
44579SOL    HW137014   3.210   4.758   6.509 -0.7138 -1.3333  0.8819
44579SOL    HW237015   3.250   4.631   6.437  0.4163 -0.0193 -0.9036
44580SOL     OW37016   9.742   2.152   1.683  0.4932  0.6755  0.5556
44580SOL    HW137017   9.666   2.107   1.647  1.0593 -0.6436  0.9610
44580SOL    HW237018   9.803   2.159   1.610  1.1028 -0.8017  0.9038
44581SOL     OW37019   1.051   5.257   3.347 -0.2402  0.5475 -0.8421
44581SOL    HW137020   1.129   5.303   3.379 -0.8297 -0.0302  1.6309
44581SOL    HW237021   1.040   5.184   3.407 -2.4237  0.3280 -1.4209
44582SOL     OW37022   7.420   9.147   8.472 -0.0023 -1.0000  0.6418
44582SOL    HW137023   7.469   9.073   8.436  0.8573 -1.0703  1.9155
44582SOL    HW237024   7.442   9.220   8.414  1.0546 -1.1957  0.7853
44583SOL     OW37025   8.745  11.204   3.328 -0.1660  0.0174  0.2802
44583SOL    HW137026   8.694  11.264   3.383 -0.7172  1.9446 -2.1628
44583SOL    HW237027   8.696  11.122   3.330 -1.2793  0.6775  1.0004
44584SOL     OW37028   0.119  10.441   5.584 -0.2362 -0.0327  0.0648
44584SOL    HW137029   0.123  10.388   5.504 -2.4731  0.5722 -0.5043
44584SOL    HW237030   0.207  10.478   5.592  0.3791 -1.0674 -1.4369
44585SOL     OW37031   7.176   0.344  10.699 -0.3627 -1.1289 -0.1829
44585SOL    HW137032   7.092   0.345  10.653 -1.3617 -0.0434  1.5641
44585SOL    HW237033   7.232   0.404  10.650 -1.7141  0.7582  0.4859
44586SOL     OW37034   2.488   0.663   3.548  0.1275  0.2312 -0.0982
44586SOL    HW137035   2.541   0.586   3.570 -2.4965 -2.0641 -1.1252
44586SOL    HW237036   2.549   0.736   3.551  2.6858 -1.7819  1.4741
44587SOL     OW37037   1.012   6.304   3.514  0.3692 -0.5607 -0.0736
44587SOL    HW137038   1.052   6.369   3.456  1.2870 -1.2251 -0.2140
44587SOL    HW237039   0.947   6.260   3.459  1.0449 -1.0040 -0.5212
44588SOL     OW37040  10.786   4.942   0.608 -0.1626  0.0962 -0.2834
44588SOL    HW137041  10.865   4.906   0.648 -0.2985  1.1266  0.9852
44588SOL    HW237042  10.717   4.880   0.630  0.1257 -0.3731 -0.6750
44589SOL     OW37043  10.659  11.242  10.369  0.1720 -0.3889  0.3325
44589SOL    HW137044  10.627  11.237  10.459  0.6135  1.3383  0.6250
44589SOL    HW237045  10.582  11.262  10.317  0.4364  2.2821  0.8416
44590SOL     OW37046  10.263   6.006   2.056 -0.0992 -0.4341 -0.0695
44590SOL    HW137047  10.227   6.038   2.139  0.6702 -0.2082  0.1859
44590SOL    HW237048  10.187   5.975   2.007 -0.6140 -0.1446  0.5346
44591SOL     OW37049   6.775   2.630   6.070 -0.1799 -0.3077  0.1114
44591SOL    HW137050   6.714   2.703   6.063 -1.5198 -1.4417 -0.6071
44591SOL    HW237051   6.770   2.604   6.162  0.7881  0.8608  0.5231
44592SOL     OW37052   5.583   0.300   3.810 -0.0320  0.1941  0.4498
44592SOL    HW137053   5.665   0.314   3.764 -1.4863  0.2144 -2.3732
44592SOL    HW237054   5.534   0.381   3.799 -1.1827 -0.4829  0.3239
44593SOL     OW37055   5.745   3.428   3.965  0.2558  0.6616 -0.3988
44593SOL    HW137056   5.731   3.448   4.057  0.6981  1.2335 -0.4492
44593SOL    HW237057   5.790   3.343   3.965 -1.2670 -0.1787 -0.1648
44594SOL     OW37058   9.912   2.067  11.138 -0.0030  0.3004  0.2246
44594SOL    HW137059   9.991   2.045  11.088 -0.5640  0.1465 -0.6092
44594SOL    HW237060   9.875   2.143  11.093 -0.1217  0.6210  0.8514
44595SOL     OW37061   8.769   8.920   5.285  0.0861 -0.1031 -0.4933
44595SOL    HW137062   8.774   8.909   5.190 -4.4706  1.6335 -1.1576
44595SOL    HW237063   8.804   9.008   5.301  0.5074 -0.2538 -0.5582
44596SOL     OW37064  10.045   9.358   4.222  0.1759 -0.2055  0.1522
44596SOL    HW137065  10.038   9.447   4.257  0.8959  0.5437 -1.5262
44596SOL    HW237066   9.996   9.360   4.140  0.0257 -1.4222  0.1910
44597SOL     OW37067   7.535   7.781   0.195 -0.2012 -0.4933 -0.0241
44597SOL    HW137068   7.558   7.718   0.127  1.0388 -0.8702  0.7199
44597SOL    HW237069   7.553   7.867   0.156 -1.3778 -0.5945 -0.8439
44598SOL     OW37070   8.199   9.307   2.636  0.1572  0.5297  0.1675
44598SOL    HW137071   8.209   9.289   2.729 -0.6572  1.6503  0.4942
44598SOL    HW237072   8.265   9.375   2.617  0.0131  0.6342  0.0348
44599SOL     OW37073   8.453   9.962  10.847  0.6438 -0.0527  0.5615
44599SOL    HW137074   8.435  10.035  10.787  0.0605 -0.7235 -0.1097
44599SOL    HW237075   8.451  10.001  10.934 -0.3149  0.6219  0.2565
44600SOL     OW37076   5.271   0.346   8.707  0.0330 -0.1861 -0.1872
44600SOL    HW137077   5.325   0.329   8.630  0.7370  0.6226  0.1075
44600SOL    HW237078   5.207   0.411   8.678  0.1446 -0.0612 -0.1535
44601SOL     OW37079   0.519   7.342   9.853  0.2192  0.2945 -0.4589
44601SOL    HW137080   0.606   7.348   9.814 -0.8424 -0.6163 -3.1929
44601SOL    HW237081   0.511   7.251   9.880  0.1532  0.4019 -0.1141
44602SOL     OW37082  11.391   0.709   0.303  0.2818 -0.1272 -0.0526
44602SOL    HW137083  11.411   0.790   0.350 -0.5188 -0.4104  0.8196
44602SOL    HW237084  11.309   0.728   0.258  0.1216 -0.4174  0.1080
44603SOL     OW37085   5.351   1.799   6.554 -0.1426  0.6004 -0.0527
44603SOL    HW137086   5.385   1.750   6.629  0.4561  0.2134 -0.5579
44603SOL    HW237087   5.429   1.835   6.512 -0.4061  0.2976 -0.8291
44604SOL     OW37088   5.147   8.568   9.274  0.0015  0.3790 -0.0979
44604SOL    HW137089   5.141   8.633   9.204  1.0872  0.9569  0.3150
44604SOL    HW237090   5.094   8.603   9.345  2.1087  1.8421  0.8537
44605SOL     OW37091   9.423   6.659   2.397 -0.4684  0.8400 -0.4078
44605SOL    HW137092   9.329   6.672   2.404 -0.2670  1.7104  0.9319
44605SOL    HW237093   9.455   6.741   2.358  0.0134  1.6793  1.6400
44606SOL     OW37094   5.353   9.755   8.157 -0.0410  0.0705 -0.0772
44606SOL    HW137095   5.443   9.778   8.181  0.7164 -2.3352 -0.3717
44606SOL    HW237096   5.304   9.767   8.238  0.4426  1.7569 -0.0027
44607SOL     OW37097   0.697   4.233   3.717  0.5152  0.2246 -0.2213
44607SOL    HW137098   0.671   4.325   3.713 -0.2114  0.0588  0.3984
44607SOL    HW237099   0.765   4.224   3.650 -0.8083  0.7479 -1.6870
44608SOL     OW37100   3.292   5.759  11.316  0.8871  0.3725  0.1503
44608SOL    HW137101   3.317   5.831  11.374  2.0763  0.5639 -0.5531
44608SOL    HW237102   3.200   5.774  11.297  0.6647  0.6985  1.4266
44609SOL     OW37103   8.163  10.839  10.663  0.0116  0.0456 -0.2396
44609SOL    HW137104   8.226  10.772  10.635  0.1914  0.2009 -0.2103
44609SOL    HW237105   8.086  10.824  10.608 -0.3592 -0.8797  0.5230
44610SOL     OW37106   6.515   2.862   5.875  0.0744 -0.6566  0.0903
44610SOL    HW137107   6.536   2.832   5.787 -3.6188  3.5947 -2.6688
44610SOL    HW237108   6.600   2.871   5.918  2.2493 -1.2435 -3.6791
44611SOL     OW37109   4.872   5.855   0.839  0.0199  0.2956  0.0350
44611SOL    HW137110   4.950   5.825   0.791  1.3182 -1.4812  2.9937
44611SOL    HW237111   4.904   5.925   0.896 -0.9097  0.6377  0.1422
44612SOL     OW37112   5.398  11.113   6.277  0.0877  0.6083 -0.2334
44612SOL    HW137113   5.448  11.140   6.354  0.8283 -1.4246  0.0416
44612SOL    HW237114   5.382  11.020   6.289 -1.6951  0.6799 -1.5073
44613SOL     OW37115   0.045   1.618   0.202 -0.1433 -0.3977  0.3999
44613SOL    HW137116   0.037   1.712   0.215  0.8630  0.1495 -2.3116
44613SOL    HW237117   0.064   1.608   0.109  1.8027 -3.1529  0.9703
44614SOL     OW37118  11.141   2.953   4.612 -0.0056  0.3344  0.1130
44614SOL    HW137119  11.048   2.968   4.629 -0.8178 -1.7816 -1.9023
44614SOL    HW237120  11.157   2.996   4.528  0.1551 -1.2384 -0.7109
44615SOL     OW37121   5.453   4.027   1.259 -0.6353  0.1039 -0.6050
44615SOL    HW137122   5.517   4.023   1.330 -1.8337  0.5735  0.5574
44615SOL    HW237123   5.489   4.092   1.198  0.5123 -0.4551 -0.5400
44616SOL     OW37124   0.682  11.227  10.529 -0.3487 -0.1358 -0.3197
44616SOL    HW137125   0.772  11.259  10.528 -0.4061  0.0118 -1.2784
44616SOL    HW237126   0.672  11.179  10.447 -0.7138 -1.3857  0.4337
44617SOL     OW37127   9.857   9.681   8.927  0.4109  0.0316 -0.5350
44617SOL    HW137128   9.794   9.686   8.999 -3.4139  1.3137 -3.5957
44617SOL    HW237129   9.933   9.636   8.964 -2.0077 -1.1045  3.6744
44618SOL     OW37130   5.330   0.305   7.654  0.4175  1.4081  0.1005
44618SOL    HW137131   5.386   0.374   7.617  0.7277  2.3588  2.1902
44618SOL    HW237132   5.280   0.349   7.722  0.5187 -0.4121  1.4167
44619SOL     OW37133  11.074   2.419   7.322  0.7629  0.3062  0.4411
44619SOL    HW137134  11.056   2.363   7.398  2.5774 -0.4957  0.3388
44619SOL    HW237135  11.165   2.399   7.299  0.2704  0.5524 -1.9513
44620SOL     OW37136   9.843   5.099   0.883 -0.1263  0.0001  0.3291
44620SOL    HW137137   9.868   5.181   0.925 -0.2586 -0.4153  1.2600
44620SOL    HW237138   9.748   5.107   0.869 -0.1667 -0.0573  0.5684
44621SOL     OW37139   2.523   9.621  10.099 -0.2027  0.2253 -0.6701
44621SOL    HW137140   2.531   9.549  10.162 -2.0203 -0.3061 -1.0101
44621SOL    HW237141   2.556   9.585  10.017 -2.0881 -0.6254 -1.1018
44622SOL     OW37142  10.292   6.569   8.579 -0.4953  0.2423  0.1899
44622SOL    HW137143  10.218   6.547   8.636  1.4238 -0.7015  2.5095
44622SOL    HW237144  10.333   6.644   8.622  0.6069 -0.0595 -0.3124
44623SOL     OW37145   7.571   8.288   9.067 -0.0164  0.0290 -0.1510
44623SOL    HW137146   7.629   8.328   9.003 -0.9660  2.7015  0.5519
44623SOL    HW237147   7.602   8.321   9.152 -0.6800 -0.9781  0.5072
44624SOL     OW37148   7.433   9.241   8.976  0.1432  0.1642  0.1131
44624SOL    HW137149   7.509   9.259   9.031  0.5588  0.0375 -0.4093
44624SOL    HW237150   7.394   9.327   8.960  0.1683  0.2289  0.3923
44625SOL     OW37151  10.788   6.777   7.093  0.9341 -0.4955 -0.4150
44625SOL    HW137152  10.873   6.819   7.084  1.1743 -0.9367 -0.2018
44625SOL    HW237153  10.794   6.697   7.042  0.6089 -0.4703 -0.4957
44626SOL     OW37154   0.040   5.744   5.393  0.1525 -0.2287  0.2765
44626SOL    HW137155  -0.049   5.780   5.395  0.0327 -0.4165 -0.8366
44626SOL    HW237156   0.042   5.690   5.314  1.7684  1.1746 -0.7221
44627SOL     OW37157   3.693   5.695   1.451 -0.6714 -0.5795  0.0022
44627SOL    HW137158   3.716   5.694   1.358 -1.1564  2.4923 -0.2670
44627SOL    HW237159   3.765   5.744   1.492 -2.4658  1.7981  0.4870
44628SOL     OW37160   5.879   2.285   6.174  0.5788  0.4910  0.0652
44628SOL    HW137161   5.874   2.191   6.155  1.9263  0.5715 -0.8461
44628SOL    HW237162   5.931   2.321   6.102  1.8068  1.6022  1.4413
44629SOL     OW37163   4.888  11.274   6.570 -0.1713  1.1589  0.4390
44629SOL    HW137164   4.875  11.277   6.476  0.9839  0.2413  0.2154
44629SOL    HW237165   4.969  11.223   6.581 -0.7643  0.4723  1.9588
44630SOL     OW37166   4.961   5.467   4.743  0.2247 -0.2202 -0.0394
44630SOL    HW137167   5.003   5.503   4.665  0.0439  0.1682  0.0416
44630SOL    HW237168   5.032   5.424   4.790  0.4040 -0.1444 -0.2383
44631SOL     OW37169   5.898   1.903   4.751 -0.3920  0.5688  0.4380
44631SOL    HW137170   5.826   1.943   4.800 -0.0362  0.4658  1.0552
44631SOL    HW237171   5.938   1.843   4.814 -0.9321 -0.7810 -0.4677
44632SOL     OW37172  11.241  10.609   4.104 -0.1808  0.0792 -0.2800
44632SOL    HW137173  11.291  10.565   4.173 -0.3498 -0.1000 -0.2732
44632SOL    HW237174  11.177  10.662   4.152 -0.7836 -0.6108 -0.3107
44633SOL     OW37175   3.155   9.709   7.998  0.5585 -0.2980 -0.3940
44633SOL    HW137176   3.179   9.657   7.921 -0.0863  0.9009 -1.4353
44633SOL    HW237177   3.238   9.729   8.041  1.2287  1.3640 -2.3469
44634SOL     OW37178   7.108   0.115   8.554  0.1195 -0.3393 -0.7776
44634SOL    HW137179   7.044   0.158   8.611  0.7218 -1.2790  0.6623
44634SOL    HW237180   7.148   0.187   8.504 -1.3471  0.3572 -0.9816
44635SOL     OW37181  10.642   1.218   7.610  0.3655 -0.0670  0.0455
44635SOL    HW137182  10.737   1.224   7.604  0.5132 -0.6217  1.3310
44635SOL    HW237183  10.617   1.164   7.535  0.9885  0.5747 -0.6408
44636SOL     OW37184   8.633   4.825   5.884  0.7461  0.1040  0.3387
44636SOL    HW137185   8.669   4.754   5.937  0.7708  0.1344  0.3620
44636SOL    HW237186   8.601   4.781   5.805  1.4974  0.1781 -0.0071
44637SOL     OW37187  11.390   0.482   8.312  0.1586  0.2407 -0.5356
44637SOL    HW137188  11.371   0.544   8.242  1.6233  1.9247  0.4658
44637SOL    HW237189  11.383   0.535   8.392 -1.8297 -1.6884  0.6778
44638SOL     OW37190   2.399   5.763   9.117  0.5756 -1.0810 -0.3932
44638SOL    HW137191   2.473   5.772   9.177  0.8593 -0.8424 -0.7771
44638SOL    HW237192   2.338   5.705   9.163  0.5080 -0.4144  0.4020
44639SOL     OW37193   9.911   8.290  11.231 -0.5392  0.4864 -0.1145
44639SOL    HW137194   9.852   8.219  11.207  0.0243 -0.2548  0.6074
44639SOL    HW237195   9.876   8.323  11.314  0.5837 -0.6465  0.8666
44640SOL     OW37196   6.947   9.347   1.425 -0.0103  0.5992  0.1366
44640SOL    HW137197   7.013   9.412   1.447 -1.1724  1.8813 -0.0385
44640SOL    HW237198   6.870   9.398   1.402 -0.8177 -0.8404 -0.4832
44641SOL     OW37199   8.105   2.518   0.081 -0.4824  0.1580 -0.4281
44641SOL    HW137200   8.021   2.564   0.082 -0.9128 -0.4686 -2.8775
44641SOL    HW237201   8.154   2.558   0.009  1.3672  0.4910  0.9376
44642SOL     OW37202  11.209  10.659  10.881  0.2709  0.1048 -0.2804
44642SOL    HW137203  11.126  10.645  10.836 -0.0118 -1.0178  0.5339
44642SOL    HW237204  11.228  10.752  10.869 -1.0131  0.3412 -0.6127
44643SOL     OW37205   6.460   0.810   4.773  0.0019 -0.4868 -0.3627
44643SOL    HW137206   6.512   0.804   4.852 -2.2311 -0.0008  1.2433
44643SOL    HW237207   6.496   0.885   4.726  2.2415 -1.6101 -0.5725
44644SOL     OW37208   0.078   6.882   3.333 -0.1612  0.0239  0.9185
44644SOL    HW137209   0.169   6.854   3.337 -0.4292 -1.6851 -2.0595
44644SOL    HW237210   0.082   6.971   3.299  0.4425 -0.7982 -1.3780
44645SOL     OW37211   1.263   9.973   5.024 -0.3659 -0.5325  0.2553
44645SOL    HW137212   1.291   9.903   5.082 -2.0862 -0.9805  0.5943
44645SOL    HW237213   1.280  10.053   5.073 -1.3940 -0.8865  1.2261
44646SOL     OW37214   6.842   1.941   8.852 -0.2529 -0.1093  0.3499
44646SOL    HW137215   6.786   1.973   8.781 -1.0387  0.4254  1.1817
44646SOL    HW237216   6.852   1.847   8.834 -1.3468 -0.1974  0.1125
44647SOL     OW37217   0.635   2.772   7.017  0.6343 -0.4117 -0.5116
44647SOL    HW137218   0.603   2.688   6.984  0.1024  0.1390 -1.4418
44647SOL    HW237219   0.669   2.752   7.104 -2.1610 -1.1043  0.5459
44648SOL     OW37220   1.701   4.050   5.257  0.3739  0.5703  0.0999
44648SOL    HW137221   1.715   3.955   5.256 -0.4441  0.4346 -0.7206
44648SOL    HW237222   1.738   4.080   5.174  0.2029  0.8944  0.1407
44649SOL     OW37223   0.916   6.297   4.990 -0.1121  0.3231  0.2303
44649SOL    HW137224   0.825   6.273   4.971  0.1810 -0.4930 -0.1833
44649SOL    HW237225   0.909   6.374   5.046 -1.1405 -1.5657  2.9066
44650SOL     OW37226   1.465  10.730   8.846 -0.3199 -0.0792 -0.0834
44650SOL    HW137227   1.500  10.779   8.772 -0.7225  1.3791  0.6634
44650SOL    HW237228   1.540  10.719   8.905  0.1886 -1.9074 -1.0064
44651SOL     OW37229  11.126   0.448  10.371 -0.3329 -0.4713 -0.1032
44651SOL    HW137230  11.054   0.413  10.424 -0.4934 -0.2885 -0.2015
44651SOL    HW237231  11.178   0.500  10.432 -0.0340 -0.9647  0.0700
44652SOL     OW37232   0.204   5.038   9.596  0.1954 -0.1692  0.3176
44652SOL    HW137233   0.289   5.060   9.634  0.0746  0.2366  0.3560
44652SOL    HW237234   0.216   4.950   9.561  1.3873  0.7952 -1.8800
44653SOL     OW37235   1.002   8.866   7.818  0.4791 -0.2041  0.4749
44653SOL    HW137236   0.968   8.818   7.893  0.9995 -0.4416  0.5586
44653SOL    HW237237   1.005   8.958   7.847 -0.1717 -0.1645  0.4348
44654SOL     OW37238   6.116   7.293   7.481  0.3369 -0.1504  0.5008
44654SOL    HW137239   6.135   7.207   7.519 -0.6287 -0.9975 -0.8714
44654SOL    HW237240   6.028   7.286   7.446  0.8726  0.8537 -1.1580
44655SOL     OW37241   8.043   4.296   7.753 -0.3339  0.4131  0.0103
44655SOL    HW137242   8.037   4.360   7.823  0.4734  0.6837 -0.1511
44655SOL    HW237243   7.966   4.312   7.698 -1.5922 -0.5516  1.4241
44656SOL     OW37244   1.720   5.068   5.944 -0.3844  0.0003  0.0428
44656SOL    HW137245   1.633   5.079   5.982 -0.9126 -0.8732 -0.8808
44656SOL    HW237246   1.776   5.051   6.019 -1.0751  0.1797  0.6138
44657SOL     OW37247   1.301   1.351   0.550 -0.2685 -0.0348 -0.2558
44657SOL    HW137248   1.315   1.267   0.505 -0.4011 -0.7283  0.9692
44657SOL    HW237249   1.259   1.406   0.484  0.0366 -0.8475 -1.1619
44658SOL     OW37250   4.672   6.345   9.543 -0.2142  0.4264 -0.5758
44658SOL    HW137251   4.702   6.432   9.517  0.7435  0.7735  1.4703
44658SOL    HW237252   4.582   6.359   9.575 -0.3976  0.4732 -1.0954
44659SOL     OW37253   3.312   9.012   4.991  0.4533  0.4535 -0.7815
44659SOL    HW137254   3.237   9.071   5.005 -0.4768 -0.8252 -0.1247
44659SOL    HW237255   3.295   8.939   5.050  0.6618 -1.3239 -2.8252
44660SOL     OW37256   1.026   2.834  11.238 -0.1402  0.5988  0.2502
44660SOL    HW137257   1.103   2.798  11.281  1.5340  0.7021 -2.4040
44660SOL    HW237258   0.992   2.762  11.184  0.9530  1.7608 -2.1484
44661SOL     OW37259   1.391   8.636   3.752  0.8012  0.1341  0.2883
44661SOL    HW137260   1.446   8.607   3.825 -0.9718 -0.5561  1.4161
44661SOL    HW237261   1.377   8.729   3.767  1.8082  0.3623 -0.1260
44662SOL     OW37262   9.919   9.846   2.061  1.0295 -0.1332 -0.3431
44662SOL    HW137263  10.013   9.837   2.075  1.2263 -0.1519 -1.5706
44662SOL    HW237264   9.887   9.757   2.048  0.5516 -0.2924  1.5824
44663SOL     OW37265  10.543  10.566   7.095  0.5666  0.1082 -0.0963
44663SOL    HW137266  10.554  10.612   7.178  1.5180 -0.1542 -0.0595
44663SOL    HW237267  10.612  10.602   7.038  1.3336 -1.2454 -0.0611
44664SOL     OW37268   2.467   3.373   0.780  0.1902  1.3930 -0.7932
44664SOL    HW137269   2.454   3.359   0.686  1.7787 -1.6854 -0.6687
44664SOL    HW237270   2.394   3.327   0.822  0.9643  0.3703 -0.5175
44665SOL     OW37271   2.318   6.708   4.278  0.3527  0.4679  0.0869
44665SOL    HW137272   2.327   6.618   4.247 -0.2983  1.0530 -2.0106
44665SOL    HW237273   2.386   6.718   4.345 -0.0140 -1.7500  0.8611
44666SOL     OW37274   8.028   8.044  10.706 -0.6418  0.0680 -0.4357
44666SOL    HW137275   7.934   8.048  10.694 -0.7083  0.7385  0.2024
44666SOL    HW237276   8.060   8.127  10.669 -0.2985 -0.1591 -0.6560
44667SOL     OW37277   4.981   1.706   0.141  0.0417 -0.2159 -0.9866
44667SOL    HW137278   5.077   1.698   0.139  0.1704  1.1087 -1.3508
44667SOL    HW237279   4.965   1.800   0.130 -1.2282  0.0093  1.8134
44668SOL     OW37280   9.489   3.347   7.291 -0.1422 -0.1290 -0.8006
44668SOL    HW137281   9.527   3.268   7.252  0.7593  0.0436 -0.3101
44668SOL    HW237282   9.409   3.317   7.334 -1.7400 -0.1759 -3.5213
44669SOL     OW37283  11.051  10.667   8.560  0.2527 -0.3255  0.4620
44669SOL    HW137284  11.126  10.714   8.524 -0.2229 -0.6641 -1.0484
44669SOL    HW237285  11.077  10.575   8.558 -0.7231 -0.6301 -1.5954
44670SOL     OW37286   3.723   1.538   1.893  0.2455 -0.2078  0.0148
44670SOL    HW137287   3.718   1.584   1.809  1.0025 -0.4458 -0.1726
44670SOL    HW237288   3.766   1.600   1.952  1.5219 -0.7397 -0.3119
44671SOL     OW37289   1.614  11.144   6.113  0.8575 -0.2809  0.1439
44671SOL    HW137290   1.633  11.206   6.183  1.0309  0.1479 -0.2819
44671SOL    HW237291   1.529  11.172   6.078 -0.5248 -2.0360  1.8742
44672SOL     OW37292   0.467   2.968   8.738  0.7745 -0.0705  0.4733
44672SOL    HW137293   0.505   2.993   8.822  1.5202  0.8286 -0.1123
44672SOL    HW237294   0.455   3.051   8.692 -1.1000 -0.4093  0.2892
44673SOL     OW37295   5.807   9.352   8.792  0.2216  0.2940 -0.0525
44673SOL    HW137296   5.746   9.425   8.782  0.3642  0.2392 -1.4227
44673SOL    HW237297   5.860   9.354   8.713  1.3373 -0.2862  0.6510
44674SOL     OW37298   2.880   9.193   3.325 -0.1327  0.1943 -0.0090
44674SOL    HW137299   2.961   9.223   3.367 -1.0060  2.9413 -0.0866
44674SOL    HW237300   2.905   9.174   3.235  0.4830  0.7897  0.0293
44675SOL     OW37301   2.797   3.044   1.052  0.2120 -0.0717  0.1523
44675SOL    HW137302   2.732   3.006   0.992  1.8579 -2.9541  0.0170
44675SOL    HW237303   2.777   3.006   1.137  1.3698 -0.5360  0.2234
44676SOL     OW37304  10.445   5.472   2.360 -0.6417 -0.3003  0.1167
44676SOL    HW137305  10.406   5.386   2.349  1.5236 -1.1355 -1.8267
44676SOL    HW237306  10.511   5.461   2.428  0.3414 -0.5143 -0.8268
44677SOL     OW37307   4.436   5.377   3.445 -0.0893  0.3959  0.6359
44677SOL    HW137308   4.384   5.344   3.373  2.0431 -2.2591  0.1474
44677SOL    HW237309   4.480   5.455   3.410  3.3391 -2.4948 -2.2945
44678SOL     OW37310   4.249   7.002   4.147  0.3950  0.5410  0.1612
44678SOL    HW137311   4.252   6.924   4.202 -0.6537 -0.1291 -0.6945
44678SOL    HW237312   4.204   7.067   4.202 -1.0333 -0.2524 -0.0200
44679SOL     OW37313   7.563   7.557   2.496 -0.3725  0.1976  0.0643
44679SOL    HW137314   7.602   7.642   2.519  0.2093  0.6211 -2.2257
44679SOL    HW237315   7.606   7.495   2.555  0.6817  1.2320  0.4321
44680SOL     OW37316   8.557   7.257   8.465  0.1199 -0.2421 -0.2785
44680SOL    HW137317   8.600   7.329   8.417  0.7796 -0.1457  0.4398
44680SOL    HW237318   8.498   7.218   8.400  0.3576  0.4289 -0.9218
44681SOL     OW37319   8.783   7.702   8.449  0.1453  0.1443 -0.4642
44681SOL    HW137320   8.872   7.732   8.434  0.4952 -0.4489  0.3698
44681SOL    HW237321   8.766   7.722   8.541 -1.4682  2.4638 -1.1588
44682SOL     OW37322   5.290   3.643   7.027  0.5144 -0.5909  0.2166
44682SOL    HW137323   5.195   3.649   7.036  0.4290 -2.1236  0.6070
44682SOL    HW237324   5.321   3.624   7.116  1.2226  0.0878  0.1273
44683SOL     OW37325   2.239   2.112  10.901  0.4728 -0.7380  0.4191
44683SOL    HW137326   2.192   2.030  10.913  0.1908 -0.6118  0.1796
44683SOL    HW237327   2.303   2.092  10.832  0.5118 -0.7975  0.4716
44684SOL     OW37328   8.425   8.140  10.461  0.9593  0.3666 -0.5239
44684SOL    HW137329   8.335   8.166  10.445  0.8973  0.4128 -0.1148
44684SOL    HW237330   8.455   8.103  10.378 -0.2672 -2.1337  0.0650
44685SOL     OW37331   4.753   7.207   0.985  0.1520  0.6106 -0.0247
44685SOL    HW137332   4.659   7.192   0.988  0.4796 -2.5293 -1.3551
44685SOL    HW237333   4.780   7.212   1.077 -0.9259 -1.9899  0.5074
44686SOL     OW37334   7.053   2.093   6.437 -0.0964 -0.1512 -0.2013
44686SOL    HW137335   6.980   2.120   6.494 -1.3795 -1.4565 -1.1455
44686SOL    HW237336   7.074   2.172   6.387 -1.6125  0.0076 -0.6580
44687SOL     OW37337   2.498   7.091   6.145  0.4177  0.1462  0.2130
44687SOL    HW137338   2.503   7.040   6.064 -0.2021 -0.1454  0.3540
44687SOL    HW237339   2.580   7.072   6.190  0.3615 -0.4282  0.0828
44688SOL     OW37340   2.277   3.660   0.193  0.3856 -0.0348 -0.2459
44688SOL    HW137341   2.349   3.638   0.253 -1.1466 -0.9259  1.3730
44688SOL    HW237342   2.228   3.729   0.238 -0.8578 -0.7893 -0.3718
44689SOL     OW37343   2.299   9.165   9.853 -0.1558  0.2465  0.2423
44689SOL    HW137344   2.230   9.139   9.915  1.0894 -0.1616  1.5116
44689SOL    HW237345   2.366   9.206   9.908  0.4782  0.9430 -1.0067
44690SOL     OW37346   5.295   8.418   2.536 -0.0828  0.1346  0.4411
44690SOL    HW137347   5.244   8.337   2.538  0.0093 -0.0908 -2.4928
44690SOL    HW237348   5.381   8.392   2.505  0.3393  1.2102  0.6532
44691SOL     OW37349   1.144   0.830   4.328 -0.0705  0.0833 -0.2947
44691SOL    HW137350   1.099   0.822   4.411 -0.6449  1.2194 -0.4867
44691SOL    HW237351   1.232   0.796   4.345 -0.6449 -1.1326  0.3570
44692SOL     OW37352   9.978   2.294   9.877  0.3505 -0.1360 -0.0847
44692SOL    HW137353  10.059   2.278   9.926  0.0009  1.9805  1.3454
44692SOL    HW237354   9.938   2.208   9.866  3.3467 -1.4443 -1.9790
44693SOL     OW37355   7.897   6.389   3.084  0.2344  0.1474  0.1033
44693SOL    HW137356   7.852   6.314   3.045  2.4027 -0.4265 -1.4417
44693SOL    HW237357   7.915   6.362   3.174 -0.3453 -0.5609  0.0150
44694SOL     OW37358   9.475   0.659   7.151  0.1570  0.8751 -0.1078
44694SOL    HW137359   9.467   0.586   7.090  0.4345 -0.0530  0.9459
44694SOL    HW237360   9.539   0.718   7.109  0.3843  0.2335 -0.6761
44695SOL     OW37361   6.024   4.672  10.581 -0.0056 -0.1027 -0.4900
44695SOL    HW137362   6.107   4.637  10.612  0.0886 -0.3822 -1.0417
44695SOL    HW237363   6.045   4.716  10.498 -0.5487 -0.9864 -1.1225
44696SOL     OW37364   3.683   4.611   2.093 -0.1259 -0.1101 -0.6684
44696SOL    HW137365   3.737   4.686   2.117  1.4249 -1.2617 -0.4075
44696SOL    HW237366   3.600   4.625   2.139  0.1510  1.3892 -0.5867
44697SOL     OW37367   7.912   7.952   7.483  0.0014  0.6281 -0.5219
44697SOL    HW137368   7.938   7.976   7.394  0.1707 -0.3223 -0.7318
44697SOL    HW237369   7.949   7.865   7.497  2.3086  1.8036  1.4637
44698SOL     OW37370   7.017   5.338   0.870  0.5788  0.1508  0.4811
44698SOL    HW137371   7.019   5.374   0.781  0.4968 -1.7714 -0.3349
44698SOL    HW237372   7.092   5.278   0.873  2.1653  2.0537  2.5858
44699SOL     OW37373  11.244  10.032   5.098 -0.1632 -0.4625  0.0995
44699SOL    HW137374  11.319   9.981   5.128 -0.3042 -1.0260 -0.4958
44699SOL    HW237375  11.207   9.981   5.027  0.3463  0.9868 -1.2622
44700SOL     OW37376   4.918   3.769   0.099 -0.0579 -0.0071  0.0792
44700SOL    HW137377   4.844   3.825   0.124  0.2455 -0.3670  1.8685
44700SOL    HW237378   4.876   3.689   0.065 -0.4769  0.8477 -1.5446
44701SOL     OW37379   4.030   3.382   1.185 -0.5932 -0.1761  0.0351
44701SOL    HW137380   3.983   3.419   1.260 -2.6601  0.3800 -1.4388
44701SOL    HW237381   4.004   3.437   1.111  0.8333 -1.1160 -1.2276
44702SOL     OW37382   6.561   9.971   8.904 -0.0613 -0.0335  0.0893
44702SOL    HW137383   6.629   9.966   8.837  0.4404 -0.5003  0.6256
44702SOL    HW237384   6.479   9.961   8.855  0.3061 -0.5160 -0.4466
44703SOL     OW37385   8.636   9.313   6.248 -0.1485 -0.0798 -0.0921
44703SOL    HW137386   8.600   9.263   6.175  0.4387 -0.4069 -0.1581
44703SOL    HW237387   8.726   9.332   6.222 -0.9470  2.9989 -1.1361
44704SOL     OW37388   3.265   7.082   3.765 -0.1191 -0.1318  0.4741
44704SOL    HW137389   3.291   7.026   3.838 -3.7734 -1.3713  1.0540
44704SOL    HW237390   3.272   7.026   3.688 -2.3142 -1.0254  0.8493
44705SOL     OW37391   3.292   4.877   6.897  0.1900 -0.3670 -0.1176
44705SOL    HW137392   3.246   4.944   6.847  0.5513 -0.4456 -0.5623
44705SOL    HW237393   3.324   4.922   6.975  0.0155 -0.1386 -0.1791
44706SOL     OW37394   9.905   0.750   9.245 -0.3264  0.6364  0.4818
44706SOL    HW137395   9.870   0.838   9.259 -0.5840  1.0535 -2.2614
44706SOL    HW237396   9.829   0.692   9.251 -0.8093  1.0504 -1.0983
44707SOL     OW37397   0.655   3.394  10.155 -0.2605 -0.1492  0.1306
44707SOL    HW137398   0.568   3.357  10.170 -1.3097  2.0872 -0.0254
44707SOL    HW237399   0.707   3.363  10.229 -1.3699 -0.9436  0.6195
44708SOL     OW37400   0.470  10.973   1.480 -0.4073  0.0522 -0.7740
44708SOL    HW137401   0.471  11.062   1.515 -2.6165  0.4207 -1.5314
44708SOL    HW237402   0.416  10.978   1.401  2.1085 -1.3297 -2.7321
44709SOL     OW37403  10.671   0.229   3.014 -0.0778  0.3886  0.2184
44709SOL    HW137404  10.752   0.241   3.064  0.7462  0.4630 -1.0909
44709SOL    HW237405  10.617   0.304   3.038 -0.7183 -0.7526  2.7708
44710SOL     OW37406   2.697   3.728   5.834 -0.3401  0.6595  0.5127
44710SOL    HW137407   2.689   3.823   5.842  0.3416  0.6666  1.1994
44710SOL    HW237408   2.619   3.701   5.786 -2.0363  1.2448  2.7608
44711SOL     OW37409   6.550   6.725   1.568  0.5476  0.4327  0.3023
44711SOL    HW137410   6.573   6.657   1.504 -0.8795  0.1756  0.0248
44711SOL    HW237411   6.491   6.680   1.630  0.8039  1.0375  0.9969
44712SOL     OW37412   7.488   4.076   5.191 -0.1360  0.3417  0.1524
44712SOL    HW137413   7.428   4.143   5.226 -0.6987  1.5454 -2.8004
44712SOL    HW237414   7.434   3.998   5.183 -0.6163  0.6906 -0.0826
44713SOL     OW37415   2.858   2.755   9.074 -0.1344  0.0389 -0.4295
44713SOL    HW137416   2.779   2.720   9.114 -0.3557 -0.8546 -1.5780
44713SOL    HW237417   2.873   2.698   8.998  0.1896  1.7134 -1.6717
44714SOL     OW37418   4.900   6.206  10.203 -0.0488  0.2091  0.1178
44714SOL    HW137419   4.870   6.115  10.209 -1.1617  0.6425  1.7034
44714SOL    HW237420   4.971   6.204  10.139 -0.2614 -1.7202 -0.1012
44715SOL     OW37421   3.273   2.330   1.766 -0.2886 -0.0294  0.1076
44715SOL    HW137422   3.249   2.238   1.769 -1.0689 -0.0312 -2.9019
44715SOL    HW237423   3.206   2.370   1.709  0.9134  2.0684  0.0842
44716SOL     OW37424   4.021   3.356   3.184  0.1381  0.2599  0.2988
44716SOL    HW137425   3.979   3.275   3.210  0.3698 -0.1935 -0.6946
44716SOL    HW237426   4.110   3.350   3.219  0.1971  0.0189  0.1077
44717SOL     OW37427   3.973   8.340   5.668 -0.1246 -0.0895  0.0371
44717SOL    HW137428   3.882   8.333   5.640  0.3783 -1.7682 -1.3340
44717SOL    HW237429   4.018   8.386   5.597  0.1646  0.4538  0.5622
44718SOL     OW37430   1.366   7.929   4.950  0.0690 -0.0151 -0.8160
44718SOL    HW137431   1.370   8.006   5.006  1.2389 -1.3404  1.0220
44718SOL    HW237432   1.445   7.934   4.896  1.7045 -1.2849  1.2975
44719SOL     OW37433   0.071   2.151   9.194  0.0515 -1.1062 -1.0351
44719SOL    HW137434   0.070   2.205   9.115 -1.2238 -0.0278 -0.3333
44719SOL    HW237435  -0.020   2.122   9.204 -0.2576  0.3601  1.0318
44720SOL     OW37436   5.150   6.307   5.786  0.4579 -0.3322  0.7414
44720SOL    HW137437   5.193   6.280   5.868  0.7727 -1.2258  0.2974
44720SOL    HW237438   5.213   6.283   5.718 -1.1269 -2.6388 -0.0321
44721SOL     OW37439   9.395   4.936   4.987  0.3476  0.0902 -0.4818
44721SOL    HW137440   9.331   5.004   4.964  0.4920 -0.1593 -1.6334
44721SOL    HW237441   9.349   4.882   5.051 -0.3797  0.2722 -0.8388
44722SOL     OW37442  11.261  10.411   1.119 -0.4204 -0.1236  0.2924
44722SOL    HW137443  11.322  10.460   1.174  0.6746 -1.1913  0.0727
44722SOL    HW237444  11.208  10.361   1.181 -0.1776 -0.2055  0.4352
44723SOL     OW37445   2.128   7.536   8.458  0.3841 -0.0061  0.4003
44723SOL    HW137446   2.132   7.571   8.368 -1.4849 -1.0736 -0.1472
44723SOL    HW237447   2.199   7.473   8.462  0.4453 -0.0018 -0.3586
44724SOL     OW37448   0.815   6.233   3.345  0.1492 -0.4654 -0.3956
44724SOL    HW137449   0.841   6.288   3.272  0.1189 -3.1150 -2.5454
44724SOL    HW237450   0.728   6.264   3.370  0.8482  1.5376 -0.3139
44725SOL     OW37451   1.523   9.488  10.367 -0.3571  0.5389 -0.0681
44725SOL    HW137452   1.468   9.514  10.440 -0.7585  1.5367 -0.6961
44725SOL    HW237453   1.501   9.396  10.352 -0.8119  0.5341  0.5853
44726SOL     OW37454   3.282   7.037   7.212  0.3204  0.2570 -0.1427
44726SOL    HW137455   3.261   6.946   7.234  1.8668 -0.4482 -1.4026
44726SOL    HW237456   3.378   7.041   7.213  0.3004  2.2992  1.4232
44727SOL     OW37457   7.192   5.980   6.675 -0.1850  0.2138  0.3248
44727SOL    HW137458   7.116   5.939   6.634 -1.6098  2.8244  0.1439
44727SOL    HW237459   7.184   5.959   6.768 -0.0256 -1.0990  0.0618
44728SOL     OW37460   8.268  10.932   0.975  0.2309 -0.5983 -0.3027
44728SOL    HW137461   8.181  10.912   0.939 -0.2555  0.9057 -0.0470
44728SOL    HW237462   8.314  10.975   0.903 -0.5841  2.0019  0.6236
44729SOL     OW37463   1.805   2.098   3.697 -0.0658  0.5178  0.1818
44729SOL    HW137464   1.748   2.035   3.653  0.7315 -0.3630  0.3716
44729SOL    HW237465   1.744   2.156   3.743 -0.8797  1.0127 -1.4457
44730SOL     OW37466   3.222   3.287   1.834 -0.9456 -0.1098  0.0352
44730SOL    HW137467   3.172   3.365   1.809  0.5030  1.0602  0.6818
44730SOL    HW237468   3.280   3.316   1.904  0.5342 -1.4511 -0.5706
44731SOL     OW37469   1.173   5.548   7.643  0.1537 -0.3982  0.3320
44731SOL    HW137470   1.081   5.528   7.654  0.2122  0.4725  3.0202
44731SOL    HW237471   1.176   5.643   7.629  0.6971 -0.1713  1.8163
44732SOL     OW37472   7.885   0.228   4.187 -0.4898  0.7358  0.0079
44732SOL    HW137473   7.832   0.213   4.265  0.9814  0.7422  1.0553
44732SOL    HW237474   7.891   0.142   4.145  1.5649 -0.0965  1.8263
44733SOL     OW37475   3.455   4.629  10.032 -0.1242 -0.3332 -0.0880
44733SOL    HW137476   3.482   4.703   9.978  0.8289  0.3734  1.2797
44733SOL    HW237477   3.373   4.657  10.073 -0.4090 -0.5307 -0.5252
44734SOL     OW37478   0.148   7.234   3.514  0.2894  0.0292  0.6662
44734SOL    HW137479   0.161   7.329   3.510  1.3330 -0.1058  0.5615
44734SOL    HW237480   0.233   7.200   3.541 -0.2916 -0.8241  1.4776
44735SOL     OW37481   0.460   9.267   1.901  0.2484 -0.2724 -0.1090
44735SOL    HW137482   0.365   9.268   1.915  0.3267 -0.9421  0.5783
44735SOL    HW237483   0.470   9.247   1.808 -0.2904 -0.7033 -0.0822
44736SOL     OW37484   0.920   5.138   7.205  0.7880 -0.1740 -1.0695
44736SOL    HW137485   1.013   5.142   7.228  0.4267  1.3682  0.3188
44736SOL    HW237486   0.886   5.065   7.257  0.5739  1.4824  1.3121
44737SOL     OW37487   3.387   0.244   5.542  0.0863  0.2941  0.1725
44737SOL    HW137488   3.430   0.208   5.619  0.6568 -0.0555 -0.3103
44737SOL    HW237489   3.436   0.209   5.467 -1.1289 -0.2528 -0.3948
44738SOL     OW37490   0.965   9.630   3.425 -0.1001 -0.5894 -0.8232
44738SOL    HW137491   1.051   9.658   3.393  0.8017  0.2392  2.0159
44738SOL    HW237492   0.909   9.632   3.348  2.2351 -0.4287 -2.6356
44739SOL     OW37493   2.981   6.026   2.380 -0.3875 -0.2193 -0.8579
44739SOL    HW137494   2.910   6.060   2.326  0.8950  0.1754 -2.3637
44739SOL    HW237495   2.938   5.972   2.446 -2.3314  2.4088  0.1972
44740SOL     OW37496   7.383   1.811   6.515 -0.3541  0.6998  1.0015
44740SOL    HW137497   7.370   1.729   6.563 -2.7167 -0.8915 -2.0544
44740SOL    HW237498   7.470   1.801   6.476 -1.6306 -1.7911 -1.5788
44741SOL     OW37499   0.056   8.999   6.646  0.5393  0.0330  0.0377
44741SOL    HW137500   0.014   9.011   6.731 -0.2367 -1.1564 -0.1497
44741SOL    HW237501   0.126   9.065   6.644  0.4104  0.2492  1.4796
44742SOL     OW37502   1.285  10.072  10.363 -0.3663  0.7176 -0.1370
44742SOL    HW137503   1.251  10.047  10.449 -0.9867 -0.3350 -0.6647
44742SOL    HW237504   1.219  10.040  10.302  0.7424  0.2137 -1.0969
44743SOL     OW37505   0.928   8.086   8.074 -0.6543  0.1722 -0.0418
44743SOL    HW137506   0.921   8.000   8.116  4.0754 -0.0387  0.8901
44743SOL    HW237507   0.885   8.146   8.136  1.1815 -0.8829  2.4315
44744SOL     OW37508   6.760   0.501  11.210  0.2822 -0.2510  0.5271
44744SOL    HW137509   6.759   0.560  11.286 -0.2606  0.3368  0.0783
44744SOL    HW237510   6.836   0.530  11.160 -1.2752  1.6738 -0.8851
44745SOL     OW37511   7.389   1.080   8.269 -0.0727  0.1338  0.5024
44745SOL    HW137512   7.310   1.031   8.248  0.3532 -0.8586  1.1485
44745SOL    HW237513   7.388   1.155   8.209  0.5649 -1.9876 -2.3765
44746SOL     OW37514   4.578   4.245   2.464  0.4200 -0.3945  1.0157
44746SOL    HW137515   4.512   4.311   2.483  2.7561  2.1984  0.6747
44746SOL    HW237516   4.577   4.188   2.541 -1.1433  0.4687  1.6750
44747SOL     OW37517  10.197   8.569   2.799 -0.1247 -0.3596 -0.5367
44747SOL    HW137518  10.195   8.598   2.708 -0.9636 -0.5775 -0.5989
44747SOL    HW237519  10.126   8.617   2.841  0.8357  0.4189  0.2277
44748SOL     OW37520   3.273   4.459   6.339 -0.3854  0.4223 -0.3685
44748SOL    HW137521   3.361   4.442   6.306 -0.1321 -0.6368  0.7674
44748SOL    HW237522   3.220   4.470   6.261  0.8290  1.5486 -1.0754
44749SOL     OW37523   9.505   4.061   3.972 -0.8525 -0.0598 -0.4236
44749SOL    HW137524   9.510   4.010   3.892  0.2377 -1.0975  0.2744
44749SOL    HW237525   9.429   4.118   3.959 -1.1526 -0.7391 -1.8678
44750SOL     OW37526   8.865   5.116   5.030 -0.5299 -0.3608  0.0789
44750SOL    HW137527   8.845   5.162   5.112 -0.7520  1.2401 -0.8223
44750SOL    HW237528   8.797   5.145   4.969 -0.1893 -1.2808 -0.7691
44751SOL     OW37529   2.384  10.190   6.991 -0.0456  0.5023  0.6037
44751SOL    HW137530   2.304  10.169   6.942  0.2240  2.2098 -0.6414
44751SOL    HW237531   2.368  10.277   7.028  0.5869  0.1313  1.8067
44752SOL     OW37532   5.303   4.513   1.662 -0.5841 -0.7606  0.5235
44752SOL    HW137533   5.284   4.601   1.630  0.0437  0.4012  3.0658
44752SOL    HW237534   5.221   4.465   1.652 -1.5200  0.7073  0.8559
44753SOL     OW37535   8.582   1.040  10.549  0.6229 -0.4797  0.4247
44753SOL    HW137536   8.557   1.043  10.456 -1.1888  1.2519  0.9075
44753SOL    HW237537   8.555   0.953  10.578  0.1114 -0.6060 -0.3964
44754SOL     OW37538   8.435   3.159   5.031  0.5794  0.0184  0.1176
44754SOL    HW137539   8.372   3.098   4.992  2.4607 -1.6303 -0.4789
44754SOL    HW237540   8.489   3.188   4.958 -0.0144  2.1857  0.4519
44755SOL     OW37541   7.441   3.127   2.905 -0.2715  0.3016  0.3556
44755SOL    HW137542   7.367   3.187   2.907 -0.1506  0.5049 -0.6871
44755SOL    HW237543   7.512   3.178   2.865 -0.0391 -0.3993 -0.1413
44756SOL     OW37544   3.886  10.131   4.343  0.5323  0.1364 -0.2058
44756SOL    HW137545   3.886  10.036   4.347  0.6505  0.1719  2.9721
44756SOL    HW237546   3.979  10.155   4.341  0.5162  0.2109 -0.0279
44757SOL     OW37547   2.833   1.571   7.815  1.0569 -0.1441  0.0698
44757SOL    HW137548   2.834   1.564   7.910  0.3432 -0.9085  0.0358
44757SOL    HW237549   2.888   1.647   7.795  1.4913 -0.1902  1.0659
44758SOL     OW37550   8.656   2.863   7.219 -0.2667  0.0792  0.3587
44758SOL    HW137551   8.748   2.838   7.204 -0.1706  0.6108  0.0511
44758SOL    HW237552   8.654   2.957   7.204 -1.1533 -0.1415 -1.0164
44759SOL     OW37553  10.571   8.502   9.899  0.2066  0.0894  0.1864
44759SOL    HW137554  10.594   8.594   9.885  2.9508 -0.5952 -0.3636
44759SOL    HW237555  10.493   8.505   9.953  0.6083  2.7515  0.7567
44760SOL     OW37556   0.253  11.318   2.006  0.3658 -0.4761  0.4786
44760SOL    HW137557   0.268  11.377   1.932 -2.1399  1.3805  1.3071
44760SOL    HW237558   0.341  11.297   2.038  1.4309  1.9929 -0.5296
44761SOL     OW37559   5.583   0.888   2.779  0.5988 -0.1553 -0.3389
44761SOL    HW137560   5.577   0.969   2.730  1.0865 -0.0566 -0.2387
44761SOL    HW237561   5.557   0.911   2.869  0.9970 -0.0521 -0.2495
44762SOL     OW37562   6.961   3.338   0.741 -0.8145 -0.2340  0.1367
44762SOL    HW137563   7.013   3.302   0.669 -0.9515 -0.3287  0.0851
44762SOL    HW237564   6.907   3.405   0.700  0.4066  1.0042  0.4523
44763SOL     OW37565   7.773  10.529   2.188 -0.1530 -0.0385 -0.1664
44763SOL    HW137566   7.800  10.596   2.250 -0.7139  0.4337 -0.4280
44763SOL    HW237567   7.766  10.575   2.104 -1.6454 -0.1599 -0.1292
44764SOL     OW37568   3.435   5.748   8.243  0.1907  0.2112 -0.4866
44764SOL    HW137569   3.512   5.694   8.225 -1.2779 -2.5057  0.7525
44764SOL    HW237570   3.366   5.710   8.188 -0.8515  0.9503  0.2733
44765SOL     OW37571   6.698   8.615   1.912 -0.5325  0.3375  0.3278
44765SOL    HW137572   6.652   8.651   1.837  0.3535  0.2082 -0.3036
44765SOL    HW237573   6.758   8.684   1.939 -0.5963  0.2526  0.6928
44766SOL     OW37574   9.706   0.188   0.762  0.0927 -0.4258  0.1268
44766SOL    HW137575   9.748   0.233   0.835 -0.7423 -0.2434  0.5039
44766SOL    HW237576   9.751   0.222   0.684  0.7503 -0.3663  0.5310
44767SOL     OW37577   3.755   6.055   2.416 -0.1494  0.1348 -0.6799
44767SOL    HW137578   3.790   6.073   2.328  0.8650 -2.0820 -0.7822
44767SOL    HW237579   3.693   5.984   2.402  0.3623 -0.5457  0.4608
44768SOL     OW37580   7.364   7.966   6.002 -0.2276 -0.1459  0.2889
44768SOL    HW137581   7.273   7.995   5.998  0.4928  2.3217 -0.6926
44768SOL    HW237582   7.388   7.974   6.095 -0.3940  1.5557  0.2220
44769SOL     OW37583   3.733   5.548   7.921 -0.2303 -0.2038  0.1308
44769SOL    HW137584   3.804   5.490   7.896 -0.6401 -0.4384 -0.5108
44769SOL    HW237585   3.766   5.636   7.904  0.2170 -0.2695  0.6516
44770SOL     OW37586   3.504  10.800   3.327 -0.5013  0.5511  0.3110
44770SOL    HW137587   3.438  10.801   3.259 -0.2486  0.2777  0.0561
44770SOL    HW237588   3.587  10.785   3.280  0.1291  3.4688  0.3023
44771SOL     OW37589   7.020   6.515   2.001  0.2376  0.2431  0.2611
44771SOL    HW137590   7.095   6.562   1.964 -0.9400  0.6805 -1.7368
44771SOL    HW237591   7.038   6.423   1.981  1.3968  0.0205  2.0584
44772SOL     OW37592   5.336   6.281   4.055  0.0195 -0.3462 -0.1661
44772SOL    HW137593   5.252   6.247   4.027  0.6314 -0.5567 -1.8439
44772SOL    HW237594   5.317   6.327   4.137 -1.7627 -0.1022 -0.6747
44773SOL     OW37595   8.354   4.517   4.562  0.6203  0.2893 -0.3945
44773SOL    HW137596   8.426   4.460   4.590  0.3574 -0.1443 -0.5925
44773SOL    HW237597   8.327   4.482   4.478  0.1816  0.4545 -0.3259
44774SOL     OW37598  10.508   9.994   6.060 -0.0412  0.4327 -0.1014
44774SOL    HW137599  10.582  10.000   6.120 -1.8824 -0.8091  2.5107
44774SOL    HW237600  10.531   9.924   5.999  0.6528 -0.4835  1.1624
44775SOL     OW37601   1.685   4.021  10.650 -0.3372 -0.2013  0.1299
44775SOL    HW137602   1.727   3.935  10.658  0.5052  0.2315  0.5042
44775SOL    HW237603   1.619   4.023  10.719  0.5234 -0.0647  0.9680
44776SOL     OW37604   3.283  10.197   8.488 -0.0618  0.6470 -0.1986
44776SOL    HW137605   3.349  10.265   8.477 -0.3231  0.9631  0.1693
44776SOL    HW237606   3.329  10.125   8.532  0.0105  0.9096  0.1557
44777SOL     OW37607   2.621   1.428  10.911  0.1242 -0.3357  0.2985
44777SOL    HW137608   2.655   1.470  10.990 -1.4842 -0.0160  0.8572
44777SOL    HW237609   2.638   1.335  10.924  1.5813 -0.1036  0.1405
44778SOL     OW37610   9.251   4.227   5.280  0.0118  0.2319  0.0515
44778SOL    HW137611   9.259   4.202   5.188  1.7562  0.7055  0.0409
44778SOL    HW237612   9.161   4.258   5.289 -0.7444 -1.5533 -1.0386
44779SOL     OW37613   2.973   7.756  10.497  0.1260  0.4829 -0.2901
44779SOL    HW137614   3.063   7.778  10.471  0.2620  0.9512  0.5426
44779SOL    HW237615   2.932   7.841  10.514  0.0713  0.2024  1.0856
44780SOL     OW37616   9.427   9.226   7.610 -0.5212  0.6773  0.0122
44780SOL    HW137617   9.490   9.298   7.616 -0.4622  0.7047 -0.8597
44780SOL    HW237618   9.437   9.179   7.693  1.8675 -0.3299 -0.7539
44781SOL     OW37619   3.150   5.292   0.025 -0.4240 -0.0485  0.2867
44781SOL    HW137620   3.103   5.370   0.056 -0.4690 -0.6469  1.7923
44781SOL    HW237621   3.081   5.230   0.001 -0.4393  1.0335 -2.8954
44782SOL     OW37622   8.432   1.327   7.065  0.5863 -0.3007 -0.6170
44782SOL    HW137623   8.373   1.293   6.997 -1.2708  0.1606  0.6850
44782SOL    HW237624   8.438   1.421   7.047 -1.0734  0.0992  0.5832
44783SOL     OW37625   8.533   7.906   2.661 -0.1315  0.1445 -0.0646
44783SOL    HW137626   8.483   7.851   2.723  3.5215 -1.3946  1.8269
44783SOL    HW237627   8.560   7.982   2.713 -1.3132  1.5423 -1.3865
44784SOL     OW37628   0.708   8.116   1.687  0.1477 -0.0316 -0.6343
44784SOL    HW137629   0.783   8.056   1.692 -0.7491 -1.1762 -0.2335
44784SOL    HW237630   0.664   8.091   1.605 -0.9615 -0.8708  0.1769
44785SOL     OW37631   5.738   4.987   7.048 -0.0192  0.6636 -0.1450
44785SOL    HW137632   5.781   4.999   6.964 -0.4384  2.0856 -0.1828
44785SOL    HW237633   5.714   5.076   7.076 -2.7221 -0.0234 -0.0285
44786SOL     OW37634   4.881   2.462   1.636  0.3888 -0.0126  0.0645
44786SOL    HW137635   4.917   2.458   1.547  0.8076 -0.0403  0.2334
44786SOL    HW237636   4.852   2.373   1.655  2.5438 -0.6040  0.8721
44787SOL     OW37637   9.604   9.865  10.902  0.4024 -0.2684 -0.1641
44787SOL    HW137638   9.567   9.944  10.863  0.0259 -0.7413 -0.7885
44787SOL    HW237639   9.529   9.808  10.918  0.8194 -1.1990 -1.3418
44788SOL     OW37640   7.682   1.106   6.266  0.6320 -0.4099 -0.0384
44788SOL    HW137641   7.640   1.191   6.281 -0.2325 -0.7595 -0.3718
44788SOL    HW237642   7.693   1.102   6.171 -0.9757 -1.4051 -0.2097
44789SOL     OW37643   2.404   3.314   0.520  0.2722  0.5643 -0.0069
44789SOL    HW137644   2.317   3.342   0.492  0.6376 -1.3026 -3.6437
44789SOL    HW237645   2.462   3.348   0.452  2.1583  0.2558  1.3821
44790SOL     OW37646   2.780   5.150   7.240  0.2615  0.1800 -0.2695
44790SOL    HW137647   2.823   5.070   7.270 -0.0148  0.9071  2.3145
44790SOL    HW237648   2.810   5.217   7.300 -1.9920  1.3805 -0.3704
44791SOL     OW37649   4.162  10.447   3.315  0.9488 -0.3441  0.5059
44791SOL    HW137650   4.078  10.478   3.282  0.9189 -1.4407 -0.5516
44791SOL    HW237651   4.140  10.399   3.395  0.7283  0.3868  0.8913
44792SOL     OW37652   5.561   2.289   0.766 -0.3210 -0.3429 -0.1052
44792SOL    HW137653   5.468   2.307   0.757 -0.0544  0.8478 -0.6824
44792SOL    HW237654   5.574   2.279   0.860 -1.1245 -1.1165 -0.0652
44793SOL     OW37655   2.826   7.796   5.069 -0.0573 -0.4916  0.2078
44793SOL    HW137656   2.797   7.848   4.994 -0.1910 -1.6072 -0.5334
44793SOL    HW237657   2.809   7.852   5.145 -0.8611  0.2544 -0.5057
44794SOL     OW37658   4.633   1.699  11.336 -0.2665  0.2337 -0.0448
44794SOL    HW137659   4.710   1.706  11.279  0.3662 -0.2535  0.7195
44794SOL    HW237660   4.655   1.753  11.412  0.4979 -1.9761  1.4095
44795SOL     OW37661  10.871   3.956   8.878 -0.2408  0.4109  0.0564
44795SOL    HW137662  10.790   3.989   8.838 -0.7002 -0.6946  0.0352
44795SOL    HW237663  10.842   3.885   8.935  0.8377 -1.0550 -1.1330
44796SOL     OW37664   2.938   5.596   4.419 -0.4492 -0.2595  0.5650
44796SOL    HW137665   3.012   5.541   4.444 -0.4630 -0.1785  0.7877
44796SOL    HW237666   2.898   5.622   4.502  1.1655  2.3260  0.6490
44797SOL     OW37667   5.381   0.902   6.359 -0.1993  0.6889 -0.1471
44797SOL    HW137668   5.352   0.814   6.381  0.8187  0.2871 -0.3383
44797SOL    HW237669   5.360   0.912   6.266 -1.4701  1.1434  0.1645
44798SOL     OW37670   8.494   6.989   7.870  0.3623  0.1321 -0.7791
44798SOL    HW137671   8.449   6.952   7.794  1.6602 -0.3100 -1.3502
44798SOL    HW237672   8.584   7.001   7.842  0.9798 -0.4508  0.8174
44799SOL     OW37673   9.350   7.085   8.375  0.5166 -0.1980 -0.0345
44799SOL    HW137674   9.326   7.097   8.467 -0.2125 -0.6751 -0.1527
44799SOL    HW237675   9.332   7.170   8.335 -0.0811 -0.2605  0.0820
44800SOL     OW37676   3.231  10.339  10.832 -0.3390  0.4744  0.1696
44800SOL    HW137677   3.321  10.322  10.857  0.0998  1.5606 -0.5942
44800SOL    HW237678   3.203  10.411  10.889 -0.0349  1.5100 -0.9499
44801SOL     OW37679   2.566   1.581   3.995 -0.1337  0.1088 -0.2644
44801SOL    HW137680   2.610   1.558   3.913  1.1238 -0.2278  0.4633
44801SOL    HW237681   2.481   1.538   3.990  1.1458 -2.7330 -0.0582
44802SOL     OW37682   1.348   3.716   4.620 -0.2796 -0.2218 -0.1010
44802SOL    HW137683   1.308   3.706   4.707 -3.2691 -0.7420 -1.4037
44802SOL    HW237684   1.422   3.655   4.621 -1.0677 -1.2316  1.6454
44803SOL     OW37685   4.890   1.760   3.911  0.2922  0.0473  0.0192
44803SOL    HW137686   4.907   1.747   4.004 -0.0752 -0.6959 -0.0115
44803SOL    HW237687   4.798   1.784   3.906  0.4628  0.7091 -0.1083
44804SOL     OW37688   3.777   9.575   7.587  0.6898 -0.0459 -0.0472
44804SOL    HW137689   3.780   9.655   7.639 -2.0718  0.3166 -0.3040
44804SOL    HW237690   3.818   9.509   7.643  0.0046  0.8535  1.5811
44805SOL     OW37691   2.998   9.856   7.504  0.6376 -0.0892 -0.6165
44805SOL    HW137692   2.905   9.856   7.525  0.6177  0.8761 -0.6440
44805SOL    HW237693   3.001   9.863   7.408  0.7135  1.9434 -0.5061
44806SOL     OW37694   1.509   9.198   4.389  0.3171  0.6526  0.1043
44806SOL    HW137695   1.422   9.168   4.363  0.5568  0.4672 -0.5001
44806SOL    HW237696   1.494   9.285   4.428 -0.1331  0.6205  0.0043
44807SOL     OW37697   5.718  10.860   8.851  0.1617 -0.2365  0.6666
44807SOL    HW137698   5.799  10.878   8.803 -0.1106  1.9279  0.9197
44807SOL    HW237699   5.741  10.788   8.910  2.4766  1.4451  1.9993
44808SOL     OW37700   7.451   1.171   0.157 -0.4599 -0.2575 -0.2729
44808SOL    HW137701   7.530   1.188   0.106 -0.1864  0.4337  0.3725
44808SOL    HW237702   7.386   1.232   0.120 -0.0815  0.7092  0.6089
44809SOL     OW37703   8.919   5.957   3.284 -0.2043 -0.3334 -0.2319
44809SOL    HW137704   8.926   6.044   3.325 -0.1481  1.2747 -3.3432
44809SOL    HW237705   9.010   5.931   3.267 -0.2814  0.0988 -1.3583
44810SOL     OW37706   0.867   9.846   3.603  0.4864  0.1346  0.6549
44810SOL    HW137707   0.884   9.776   3.540  2.2310 -0.6027  1.8704
44810SOL    HW237708   0.903   9.813   3.685  0.3864  2.0360  1.5057
44811SOL     OW37709  10.568   7.159   5.482  0.3516 -0.1934  0.1539
44811SOL    HW137710  10.492   7.184   5.534 -0.6221 -2.1467 -0.2176
44811SOL    HW237711  10.555   7.066   5.464  1.4365  0.0403 -2.2343
44812SOL     OW37712   4.524   7.584   3.603 -0.2032  0.1166  0.0615
44812SOL    HW137713   4.556   7.526   3.534  1.2277 -2.6541  2.8083
44812SOL    HW237714   4.435   7.554   3.621  0.0702 -0.3891  0.6009
44813SOL     OW37715   2.517   0.417   9.445  0.0001  0.0400 -0.1058
44813SOL    HW137716   2.575   0.493   9.446  1.8952 -1.3104 -0.7862
44813SOL    HW237717   2.455   0.435   9.374  0.2907  1.0071 -0.1298
44814SOL     OW37718   1.956   0.162   1.245  0.0298  0.4842 -0.5786
44814SOL    HW137719   1.887   0.173   1.179 -1.8771  1.0704  1.3950
44814SOL    HW237720   1.947   0.072   1.275  1.1234  0.1084 -1.3157
44815SOL     OW37721   2.158   3.423   0.114 -0.2294  0.0940 -0.4882
44815SOL    HW137722   2.184   3.512   0.139 -1.9021  0.4805  0.0128
44815SOL    HW237723   2.098   3.395   0.183 -0.6238 -0.9958 -1.2393
44816SOL     OW37724   8.977   2.379   5.619  0.1991 -0.4479 -0.4849
44816SOL    HW137725   9.021   2.410   5.698  1.0205  0.8524 -1.4232
44816SOL    HW237726   8.954   2.459   5.571 -1.8061 -1.1432 -0.7858
44817SOL     OW37727   0.778   1.652   7.624 -0.2617 -0.0759 -0.0781
44817SOL    HW137728   0.845   1.679   7.687  0.2856 -1.8336  0.1458
44817SOL    HW237729   0.748   1.734   7.584 -0.1853  1.0433  2.0177
44818SOL     OW37730   2.563   3.601  11.080  0.2233  1.0247 -0.4280
44818SOL    HW137731   2.483   3.567  11.121  0.4984  0.8577 -0.0291
44818SOL    HW237732   2.616   3.524  11.061 -0.6342  0.9122 -2.7403
44819SOL     OW37733   3.926   6.863   1.845  0.1458 -0.1848 -0.5991
44819SOL    HW137734   3.964   6.828   1.926 -0.0295 -1.3583 -1.0035
44819SOL    HW237735   3.999   6.863   1.783  0.3760  1.0817 -0.3522
44820SOL     OW37736   3.472   0.705   2.065  0.0606  0.3172  0.3361
44820SOL    HW137737   3.564   0.686   2.086  0.5834 -0.3086 -2.2028
44820SOL    HW237738   3.459   0.794   2.096  1.4321  0.3420  0.9562
44821SOL     OW37739   8.901   6.025  10.227  0.9179 -0.4255 -0.1260
44821SOL    HW137740   8.839   6.034  10.155 -0.1338 -0.9769  0.6902
44821SOL    HW237741   8.946   5.942  10.209  0.1443 -0.9285  0.2210
44822SOL     OW37742   1.607   5.324   3.985 -0.2082 -0.0533 -0.3038
44822SOL    HW137743   1.669   5.252   3.982 -0.3030 -0.2545  1.3030
44822SOL    HW237744   1.541   5.295   4.049  0.0874  1.6857  0.8479
44823SOL     OW37745   2.718   8.933   9.994  0.1855  0.3574 -0.4618
44823SOL    HW137746   2.635   8.978  10.005 -0.3242 -0.5636 -0.4347
44823SOL    HW237747   2.723   8.915   9.900  0.3663  0.4253 -0.4668
44824SOL     OW37748   5.309   4.046   3.800 -0.2819 -0.4382  0.0281
44824SOL    HW137749   5.288   3.952   3.798 -1.6865 -0.1471  0.1958
44824SOL    HW237750   5.241   4.087   3.747  0.2319  0.5090  0.0882
44825SOL     OW37751   3.034   1.655   1.229  0.6094  0.4338 -0.0434
44825SOL    HW137752   3.043   1.715   1.155  1.4281 -0.0730 -0.3762
44825SOL    HW237753   2.940   1.644   1.240  0.4690  0.7997 -0.7824
44826SOL     OW37754   9.268   2.251   0.746 -0.2803 -0.2309  0.4365
44826SOL    HW137755   9.245   2.262   0.654  0.8412 -0.0653  0.1495
44826SOL    HW237756   9.186   2.232   0.790 -0.9412  0.3603 -0.4972
44827SOL     OW37757   5.060   3.074   2.071  0.3934  0.1223 -0.0661
44827SOL    HW137758   5.098   3.140   2.012 -1.6428 -0.7199 -2.4948
44827SOL    HW237759   5.088   2.990   2.034 -1.3457 -0.4327 -0.2083
44828SOL     OW37760   8.198   8.763   7.937 -0.3564 -0.1125 -0.2424
44828SOL    HW137761   8.131   8.798   7.878  1.1576  0.2655 -1.8159
44828SOL    HW237762   8.281   8.793   7.900  0.6773  0.7369  2.4703
44829SOL     OW37763  10.065   1.150   7.555  0.7012 -0.4625  0.1834
44829SOL    HW137764  10.135   1.107   7.508  1.8737 -0.2427  1.6614
44829SOL    HW237765  10.077   1.243   7.536  0.0014 -0.5189 -0.5926
44830SOL     OW37766  10.376   9.473  10.163  0.1245  0.6745  0.0145
44830SOL    HW137767  10.288   9.510  10.163 -0.3183 -0.3252  0.4611
44830SOL    HW237768  10.403   9.473  10.071 -1.3762 -1.3075 -0.4934
44831SOL     OW37769   2.249   8.673   9.030 -0.1659 -0.0134  0.6042
44831SOL    HW137770   2.254   8.741   8.963 -1.3480 -0.9193 -0.4495
44831SOL    HW237771   2.209   8.717   9.106  1.8524  1.2019  1.0217
44832SOL     OW37772   2.392   1.092   5.519  0.4058 -0.6816  0.1263
44832SOL    HW137773   2.315   1.137   5.555  0.0023 -0.3122 -1.1420
44832SOL    HW237774   2.364   1.002   5.507  0.2928 -0.6363  0.0431
44833SOL     OW37775   5.091  10.218   2.028  0.3265  0.2973 -0.4258
44833SOL    HW137776   5.113  10.209   1.936 -0.0447 -1.1985 -0.3948
44833SOL    HW237777   5.139  10.147   2.071 -2.3165 -1.3415 -0.0006
44834SOL     OW37778   0.240  10.703   0.617  0.2349 -0.5173  0.4496
44834SOL    HW137779   0.148  10.728   0.608  0.5283  0.8820  1.0875
44834SOL    HW237780   0.285  10.752   0.548  0.5322 -1.0673  0.2480
44835SOL     OW37781   2.303   4.432   1.450 -0.2322 -0.1433  0.5100
44835SOL    HW137782   2.232   4.400   1.393 -0.9579  1.6472  0.3329
44835SOL    HW237783   2.261   4.445   1.535  0.0444  0.3165  0.5784
44836SOL     OW37784   2.595   0.740   8.490 -0.1819  0.2436 -0.2542
44836SOL    HW137785   2.650   0.796   8.546 -0.2207  1.6285 -1.5274
44836SOL    HW237786   2.545   0.687   8.552  2.7498 -1.3360  0.9730
44837SOL     OW37787   7.487   4.146   1.246 -0.5557 -0.4674 -0.3770
44837SOL    HW137788   7.562   4.206   1.244  0.0318 -1.1736 -0.1092
44837SOL    HW237789   7.466   4.138   1.339  0.3930 -1.8920 -0.2533
44838SOL     OW37790   5.329   5.922   0.580 -0.4938 -0.0426  0.1739
44838SOL    HW137791   5.326   5.982   0.506  0.0529 -1.8903 -1.4137
44838SOL    HW237792   5.409   5.871   0.566 -1.7148 -2.1606  0.6099
44839SOL     OW37793   3.715   1.733   0.671 -0.7166  0.2193 -0.8025
44839SOL    HW137794   3.747   1.688   0.750 -1.6650  1.0584  0.0834
44839SOL    HW237795   3.795   1.757   0.624 -0.1375 -0.5245 -0.2411
44840SOL     OW37796   5.371   0.050   4.215 -0.5303 -0.0542 -0.3799
44840SOL    HW137797   5.380   0.120   4.150 -0.4658  0.2769 -0.0180
44840SOL    HW237798   5.286   0.011   4.196  1.1625 -2.8289 -3.4712
44841SOL     OW37799   3.523   3.086  10.240 -0.0872 -0.4064 -0.4624
44841SOL    HW137800   3.485   3.007  10.280  1.1966 -1.8050 -1.8592
44841SOL    HW237801   3.617   3.079  10.257  0.2464 -0.0307 -1.9748
44842SOL     OW37802   9.956   8.003   9.359 -0.5125 -0.2299  0.1886
44842SOL    HW137803  10.043   8.040   9.344 -0.2758 -0.8785 -0.0285
44842SOL    HW237804   9.931   7.964   9.275 -1.6655  1.2753 -0.2228
44843SOL     OW37805   4.279   0.986   6.574 -0.3980 -0.2333  0.2221
44843SOL    HW137806   4.293   0.978   6.668  0.9747 -0.3496  0.0310
44843SOL    HW237807   4.186   0.968   6.562 -0.5422 -0.4645  1.5286
44844SOL     OW37808   0.558  11.213   7.799 -0.0181  0.0367 -0.4929
44844SOL    HW137809   0.479  11.217   7.851  0.8615  0.0487  0.8803
44844SOL    HW237810   0.600  11.298   7.811  1.1836 -0.6550  0.4165
44845SOL     OW37811   8.872   8.984   1.329 -0.3107 -0.2299  0.1135
44845SOL    HW137812   8.937   8.915   1.339  0.0547  0.4383  3.0658
44845SOL    HW237813   8.799   8.942   1.283  1.0926 -1.6960 -0.8925
44846SOL     OW37814   7.319   8.872   2.158  0.5618 -0.2088 -0.2291
44846SOL    HW137815   7.348   8.820   2.234  0.1450  0.3039  0.2862
44846SOL    HW237816   7.401   8.902   2.118  0.8775  2.7077  2.2276
44847SOL     OW37817  10.118   1.824   3.613 -0.6860 -0.4704  0.2720
44847SOL    HW137818  10.023   1.820   3.610 -0.7779  0.9534  0.6487
44847SOL    HW237819  10.139   1.913   3.586  0.6083 -1.0754 -0.8820
44848SOL     OW37820   6.566   1.960   3.006 -0.4480 -0.1962  0.4309
44848SOL    HW137821   6.528   2.011   3.078  0.2105  0.0626  0.6065
44848SOL    HW237822   6.493   1.946   2.946 -0.5149  1.5287  0.0623
44849SOL     OW37823   4.576   3.329  10.000 -0.1649  0.2821  0.3291
44849SOL    HW137824   4.515   3.371  10.061  0.2110  0.4127  0.6198
44849SOL    HW237825   4.599   3.399   9.938 -1.7562 -0.2444 -0.9313
44850SOL     OW37826  10.686   5.536  10.138 -0.4521  0.2554  0.2851
44850SOL    HW137827  10.718   5.613  10.091  2.6496 -0.7772  0.4727
44850SOL    HW237828  10.706   5.555  10.230  1.1240 -1.0233  0.2500
44851SOL     OW37829   7.951   8.519   5.572 -0.1358  0.4733  0.6969
44851SOL    HW137830   7.991   8.444   5.527  0.4527  1.7082 -0.9713
44851SOL    HW237831   7.948   8.494   5.664  3.2833 -0.2620  0.7409
44852SOL     OW37832   7.347   9.991   9.873 -0.3644 -0.6175 -0.1131
44852SOL    HW137833   7.266  10.021   9.832  0.5368  0.1237 -1.4370
44852SOL    HW237834   7.407   9.977   9.799  1.6156  1.6243  0.9298
44853SOL     OW37835   8.155   7.333   7.490  0.1325  0.2505 -0.1945
44853SOL    HW137836   8.221   7.306   7.554 -0.3339  1.7936  1.0110
44853SOL    HW237837   8.078   7.282   7.513 -0.2593  1.3249  1.0177
44854SOL     OW37838   0.739   1.298   1.718 -0.5451 -0.8839  0.0088
44854SOL    HW137839   0.654   1.330   1.747  0.2727  0.8693  0.6094
44854SOL    HW237840   0.799   1.370   1.736  0.7925 -1.4409 -1.8973
44855SOL     OW37841   1.844   4.112  10.024  0.2276 -0.9727  0.3510
44855SOL    HW137842   1.838   4.068   9.940 -1.1460  0.4399 -0.3387
44855SOL    HW237843   1.755   4.107  10.060  0.2001  0.5922  0.5550
44856SOL     OW37844   5.346   3.039   5.915  0.6855  0.4643  0.1020
44856SOL    HW137845   5.256   3.029   5.946  1.0268  0.6807  1.1823
44856SOL    HW237846   5.369   2.953   5.879 -0.1274  0.5569 -0.6674
44857SOL     OW37847   3.969   8.592   6.494  0.3746 -0.3740  0.4102
44857SOL    HW137848   4.039   8.530   6.473  0.1776 -0.2241 -0.7597
44857SOL    HW237849   3.959   8.645   6.415 -1.2519 -0.5884  0.4204
44858SOL     OW37850   3.106   2.074   7.484 -0.0441  0.7672 -0.1762
44858SOL    HW137851   3.056   1.995   7.465 -1.0613  1.0367  1.1840
44858SOL    HW237852   3.186   2.066   7.432 -0.8319 -0.3925 -1.2624
44859SOL     OW37853   5.404   6.041   6.508 -0.1146 -0.1541  0.1023
44859SOL    HW137854   5.359   5.959   6.485 -2.1396  0.8557  0.2765
44859SOL    HW237855   5.338   6.109   6.497  0.8101  1.2022  2.2425
44860SOL     OW37856   6.701   4.231  11.241 -0.0354  0.2402  0.5834
44860SOL    HW137857   6.742   4.174  11.175 -0.9599  1.7170 -1.3652
44860SOL    HW237858   6.607   4.215  11.232 -0.2996  1.8417  0.1652
44861SOL     OW37859   0.454  11.300   6.011 -0.1589  0.6950 -0.2505
44861SOL    HW137860   0.517  11.320   5.942 -0.0788  1.7202  0.1078
44861SOL    HW237861   0.370  11.327   5.975 -0.0602  1.6601  0.2068
44862SOL     OW37862   8.916   8.914  11.074 -0.0309  0.8265  0.4815
44862SOL    HW137863   8.871   8.914  11.159 -0.2117  0.0978  0.3892
44862SOL    HW237864   9.009   8.919  11.095  0.2892 -3.4869  0.9484
44863SOL     OW37865   4.315   2.263   0.906 -0.2394 -0.5477  0.3319
44863SOL    HW137866   4.369   2.184   0.915  0.7303  0.2481  1.7473
44863SOL    HW237867   4.244   2.251   0.969  1.4490  0.8942  2.6454
44864SOL     OW37868   6.858   6.829   3.865 -0.2297  0.1034 -0.1951
44864SOL    HW137869   6.818   6.774   3.798 -2.6147 -0.6388  1.6921
44864SOL    HW237870   6.808   6.911   3.861  0.2853  0.4308  0.0183
44865SOL     OW37871   9.089   8.619   5.089  0.1050 -0.2087 -0.4118
44865SOL    HW137872   9.166   8.588   5.136  2.0841  2.3758 -1.6648
44865SOL    HW237873   9.107   8.600   4.997 -0.8718  0.1919 -0.6979
44866SOL     OW37874   9.272   1.709  11.201 -0.0947  0.5664  0.4531
44866SOL    HW137875   9.355   1.757  11.212  0.6525 -0.7582  0.7457
44866SOL    HW237876   9.224   1.761  11.136  1.2170  1.0434 -0.1864
44867SOL     OW37877  11.056   7.181   0.564  0.4423  0.0567  0.3340
44867SOL    HW137878  11.096   7.175   0.651 -1.4215 -2.9215  1.1500
44867SOL    HW237879  10.964   7.200   0.582 -0.4508 -2.7321 -0.7027
44868SOL     OW37880  10.711   8.338   9.678  0.6547 -0.2065 -0.1383
44868SOL    HW137881  10.651   8.373   9.743  0.4224 -1.7635  0.5349
44868SOL    HW237882  10.798   8.350   9.716  0.4813 -1.6703  0.7772
44869SOL     OW37883   8.416  10.710   2.397  0.3897 -0.1327 -0.3677
44869SOL    HW137884   8.368  10.786   2.431 -0.2217 -0.5168 -0.3597
44869SOL    HW237885   8.482  10.691   2.464 -0.9048 -0.9832  0.7090
44870SOL     OW37886   4.255   1.219   3.352 -0.4982  0.2879  0.1236
44870SOL    HW137887   4.196   1.257   3.417 -1.0616 -0.4875  0.0763
44870SOL    HW237888   4.319   1.169   3.404  0.6153  1.7451  0.2281
44871SOL     OW37889   2.469   4.652   9.367 -0.3377  0.0186 -0.2387
44871SOL    HW137890   2.436   4.687   9.449  2.0937  0.0416  0.7924
44871SOL    HW237891   2.536   4.714   9.338 -0.1251 -0.7369 -1.4816
44872SOL     OW37892   5.841   5.578   8.604 -0.1200  0.1305  0.2144
44872SOL    HW137893   5.922   5.566   8.654 -0.1954 -1.0782  0.0928
44872SOL    HW237894   5.823   5.671   8.609  0.0763  0.0995  2.1350
44873SOL     OW37895  10.431   9.586   4.290 -0.1275 -0.1027 -0.4824
44873SOL    HW137896  10.387   9.513   4.334 -0.4430 -0.3654 -1.2283
44873SOL    HW237897  10.382   9.664   4.318  0.8738 -0.0132  1.1963
44874SOL     OW37898   9.310  10.449   5.928 -0.2388  0.1925 -0.3442
44874SOL    HW137899   9.345  10.485   6.009  1.7366  1.7787 -1.7935
44874SOL    HW237900   9.251  10.518   5.895 -1.6417 -0.7606  0.0654
44875SOL     OW37901   2.507   7.649   3.925 -0.1767 -0.3554 -0.7710
44875SOL    HW137902   2.482   7.709   3.855 -1.9421 -0.9176 -0.6673
44875SOL    HW237903   2.533   7.569   3.880  2.7685  0.5741 -0.9449
44876SOL     OW37904   2.693  10.917   9.826  0.5326 -0.1150 -0.0945
44876SOL    HW137905   2.749  10.849   9.862  0.7595  0.4848  0.7232
44876SOL    HW237906   2.694  10.902   9.732  0.3755 -1.3862  0.0860
44877SOL     OW37907   7.128   6.179   2.813 -0.6255  0.3650  0.0878
44877SOL    HW137908   7.103   6.184   2.905  0.5237  0.4816  0.4146
44877SOL    HW237909   7.080   6.251   2.771 -0.4597  0.8849  0.7711
44878SOL     OW37910   9.135   0.815   9.420 -0.9348  0.1001  0.3857
44878SOL    HW137911   9.191   0.892   9.404 -0.3488 -0.2058  0.9072
44878SOL    HW237912   9.121   0.816   9.515  1.0198 -1.7314  0.7682
44879SOL     OW37913   5.537   9.786   5.305 -0.6140  0.5849 -0.1764
44879SOL    HW137914   5.454   9.788   5.258 -0.8934  1.1405  0.3134
44879SOL    HW237915   5.581   9.867   5.278  0.2752 -0.2537 -1.3009
44880SOL     OW37916   7.564   2.267   1.144  0.5993  0.1294 -0.0780
44880SOL    HW137917   7.526   2.249   1.230  0.8275  1.9916  0.4615
44880SOL    HW237918   7.489   2.267   1.084  0.5938 -2.5742 -0.2038
44881SOL     OW37919   8.847   4.007   9.302 -0.2337  0.2518 -0.1153
44881SOL    HW137920   8.879   4.023   9.213 -1.3900  0.4186 -0.5247
44881SOL    HW237921   8.857   3.913   9.315 -0.0391  0.2323 -0.4116
44882SOL     OW37922   3.131   0.435   8.452  0.4170 -0.1350  0.5204
44882SOL    HW137923   3.225   0.445   8.469  0.2510  0.2437  1.2611
44882SOL    HW237924   3.125   0.354   8.400  1.2987  0.7828 -1.0837
44883SOL     OW37925   6.916   9.767   0.900  0.2552 -0.6971  0.1515
44883SOL    HW137926   6.997   9.750   0.852 -0.5717 -0.0213 -1.5566
44883SOL    HW237927   6.852   9.788   0.832 -1.3077 -1.0161  1.4839
44884SOL     OW37928   7.038   5.397   1.700  0.1819  0.1609  0.3978
44884SOL    HW137929   7.067   5.423   1.613  2.0964 -0.4760  0.7889
44884SOL    HW237930   6.943   5.401   1.696  0.1453 -1.1651 -2.1453
44885SOL     OW37931   2.546   2.103   5.452 -0.2475  0.5629  0.1819
44885SOL    HW137932   2.541   2.027   5.394 -0.5404 -0.6566  1.7145
44885SOL    HW237933   2.559   2.178   5.394 -0.5293 -0.5893 -1.4229
44886SOL     OW37934   6.065   4.079   5.860 -0.4074  0.2190  0.3684
44886SOL    HW137935   6.031   4.092   5.772  0.5601  1.4237  0.1428
44886SOL    HW237936   6.160   4.084   5.851 -0.2954  0.3973  1.4724
44887SOL     OW37937   0.685  10.886   2.359  0.3897  0.0247 -0.4493
44887SOL    HW137938   0.593  10.912   2.352  0.0273 -1.0491  0.0082
44887SOL    HW237939   0.725  10.954   2.413 -0.0115  0.7755 -1.0737
44888SOL     OW37940   3.171   3.334  10.634  0.6772 -0.4960  0.0758
44888SOL    HW137941   3.148   3.418  10.673  2.0457 -0.2034  0.3056
44888SOL    HW237942   3.204   3.281  10.707  2.1178 -0.3627 -0.4437
44889SOL     OW37943   3.490   6.274   9.457  0.1939  0.0531 -0.5881
44889SOL    HW137944   3.431   6.211   9.416 -0.4056  0.4255 -0.3191
44889SOL    HW237945   3.550   6.222   9.510 -0.5842 -0.2615 -0.0025
44890SOL     OW37946   7.066   8.396   9.069 -0.2549  0.0615 -0.3536
44890SOL    HW137947   7.081   8.490   9.061  0.4787 -0.0884 -0.8984
44890SOL    HW237948   7.154   8.358   9.064 -0.3611 -0.5438  1.6025
44891SOL     OW37949   2.042   2.590   8.784 -0.4420 -0.2990  0.4540
44891SOL    HW137950   1.955   2.556   8.762  0.0569 -1.6345  0.4214
44891SOL    HW237951   2.088   2.515   8.822 -0.2151  1.1034  3.1750
44892SOL     OW37952   7.690   4.611   5.069  0.7648 -0.1090 -0.5595
44892SOL    HW137953   7.610   4.659   5.049  0.1805 -1.5803 -2.0092
44892SOL    HW237954   7.665   4.547   5.136  1.7113  1.9436  1.9244
44893SOL     OW37955   3.680  10.029   7.934  0.0205  0.2673 -0.0549
44893SOL    HW137956   3.698  10.122   7.925  1.8943 -0.0755 -0.3019
44893SOL    HW237957   3.585  10.022   7.931 -0.1053  2.0089 -1.6790
44894SOL     OW37958   9.451   7.055  10.025 -0.1156 -0.2911  0.0409
44894SOL    HW137959   9.492   7.008   9.953 -1.9515 -0.5824 -0.8826
44894SOL    HW237960   9.524   7.088  10.077  1.2911  0.1548 -2.0792
44895SOL     OW37961   0.537   7.281   2.997  0.1422 -0.3460 -0.1845
44895SOL    HW137962   0.447   7.274   3.028  0.5962 -0.5235  1.1672
44895SOL    HW237963   0.546   7.372   2.969 -0.2452 -0.1246  0.3965
44896SOL     OW37964   0.739   2.757   3.311 -0.1356 -0.2846 -0.2998
44896SOL    HW137965   0.678   2.683   3.311  0.2391 -0.5982 -0.7666
44896SOL    HW237966   0.716   2.807   3.234 -0.3501  0.0598 -0.0147
44897SOL     OW37967   5.926   1.450   9.920 -0.1205 -0.4047 -0.2953
44897SOL    HW137968   5.964   1.372   9.960 -1.3392 -1.0213 -0.2688
44897SOL    HW237969   5.980   1.466   9.843  2.5099  1.0187  1.6900
44898SOL     OW37970   4.235  10.120   8.021 -0.0970  0.0937 -0.9286
44898SOL    HW137971   4.266  10.042   8.068 -0.9450 -1.0156 -2.1118
44898SOL    HW237972   4.308  10.181   8.024  0.4734 -0.6111  0.3331
44899SOL     OW37973   6.236   0.003   9.491 -0.0891  0.0537  0.4246
44899SOL    HW137974   6.145   0.003   9.463 -0.8381  1.4265  2.5849
44899SOL    HW237975   6.270  -0.083   9.464 -1.1125  0.5706 -2.9297
44900SOL     OW37976   4.782   1.917   2.641 -0.2040  0.2310 -0.0122
44900SOL    HW137977   4.762   1.846   2.580 -3.1433 -0.3974  1.4946
44900SOL    HW237978   4.848   1.880   2.700  0.2762 -0.2790 -0.8536
44901SOL     OW37979   1.650   6.449   0.389 -0.2208 -0.2398 -0.0704
44901SOL    HW137980   1.683   6.491   0.468 -1.4021  1.1530 -0.2818
44901SOL    HW237981   1.578   6.505   0.360  0.4198 -0.4935 -2.3596
44902SOL     OW37982   4.975   8.819   4.874  0.5293  0.2860  0.3676
44902SOL    HW137983   5.031   8.848   4.803 -2.7191  1.6837 -1.8760
44902SOL    HW237984   4.951   8.729   4.850 -2.0526  1.3594 -1.5456
44903SOL     OW37985   8.679   7.225   1.973 -0.1027 -0.0075 -0.2931
44903SOL    HW137986   8.698   7.187   2.059 -1.1109  1.6450  0.6976
44903SOL    HW237987   8.591   7.193   1.951 -0.8483  1.4660  0.4273
44904SOL     OW37988   1.447   5.674   2.135  0.0141 -0.2637 -0.3494
44904SOL    HW137989   1.475   5.583   2.134 -1.8204 -0.8766 -1.5245
44904SOL    HW237990   1.447   5.699   2.228  1.7121 -1.0334 -0.1166
44905SOL     OW37991   8.731  10.673  10.874  0.2007 -0.9972  0.3015
44905SOL    HW137992   8.786  10.597  10.894 -0.0104 -0.7132  2.1140
44905SOL    HW237993   8.707  10.709  10.959 -3.0732 -1.2906 -0.3724
44906SOL     OW37994   3.441   2.914   0.591  0.0994 -0.2890 -0.6123
44906SOL    HW137995   3.387   2.936   0.515  0.0087 -2.2986 -1.1931
44906SOL    HW237996   3.390   2.849   0.639  2.4263 -3.4436 -1.9853
44907SOL     OW37997   5.895   3.416   1.087 -0.3221  0.0076 -0.4371
44907SOL    HW137998   5.811   3.429   1.044 -0.2711  1.4139 -0.1329
44907SOL    HW237999   5.960   3.442   1.021 -0.1219 -0.8489 -0.5905
44908SOL     OW38000  11.181   6.767   1.534 -0.1952  0.0932 -0.3193
44908SOL    HW138001  11.226   6.683   1.523 -1.4967 -0.5253 -1.0996
44908SOL    HW238002  11.195   6.790   1.626 -0.6419 -1.4722  0.1683
44909SOL     OW38003   1.631   2.116   9.365 -0.2818  0.0640  0.3636
44909SOL    HW138004   1.567   2.081   9.303  1.8345 -1.9067 -0.8680
44909SOL    HW238005   1.582   2.126   9.447 -1.7778 -3.3285  0.0570
44910SOL     OW38006   5.363   1.049   2.150  0.1093 -0.4217  0.1795
44910SOL    HW138007   5.288   1.109   2.143  0.0087 -0.4605  0.8371
44910SOL    HW238008   5.330   0.965   2.120 -0.6342 -0.8566  2.0718
44911SOL     OW38009   4.766   5.516   2.774  0.1249 -0.6396 -0.3636
44911SOL    HW138010   4.748   5.608   2.752 -1.5772 -0.9572 -0.4780
44911SOL    HW238011   4.859   5.514   2.795  0.2093  1.1045 -0.4003
44912SOL     OW38012   4.080   9.233   5.378 -0.0645 -0.2151 -0.6383
44912SOL    HW138013   4.067   9.326   5.395 -1.3824 -0.2494 -1.3315
44912SOL    HW238014   4.087   9.194   5.465  0.3690  0.5073 -0.3389
44913SOL     OW38015   2.564  11.209   1.069  0.2429  0.1747  0.6839
44913SOL    HW138016   2.617  11.222   0.990 -0.4609 -1.7422 -0.1518
44913SOL    HW238017   2.625  11.172   1.132  0.2572 -0.7373  0.1640
44914SOL     OW38018   0.620   1.146   5.069 -0.1796  0.0923  0.3492
44914SOL    HW138019   0.597   1.168   4.979 -0.2676 -0.7059  0.1666
44914SOL    HW238020   0.655   1.057   5.063 -0.6221 -0.1440  1.1674
44915SOL     OW38021   9.220   0.038  10.591 -0.0579  0.0175 -0.3821
44915SOL    HW138022   9.250   0.063  10.504 -3.1149  1.5029 -1.1492
44915SOL    HW238023   9.186   0.119  10.629  0.2437 -0.8104  1.7960
44916SOL     OW38024   8.978  11.126   4.642  0.2202  0.8351 -0.6159
44916SOL    HW138025   9.003  11.130   4.735 -0.2304 -0.4887 -0.4117
44916SOL    HW238026   8.977  11.218   4.614  1.3266  1.1958  0.4193
44917SOL     OW38027   8.072   3.850  11.014 -0.2869 -0.6102 -0.1085
44917SOL    HW138028   8.075   3.762  10.976  0.3018 -1.4404  1.7487
44917SOL    HW238029   8.164   3.871  11.032 -0.0949  1.5434 -2.8844
44918SOL     OW38030  10.159   4.167   9.686  0.5264 -0.3086 -0.2546
44918SOL    HW138031  10.119   4.080   9.683  0.2979 -0.3343  1.9025
44918SOL    HW238032  10.234   4.160   9.627  0.0726 -1.7225 -0.7240
44919SOL     OW38033   5.723   7.725  10.852  0.2362  0.1514  0.5462
44919SOL    HW138034   5.728   7.696  10.943  2.8086  1.0313  0.7756
44919SOL    HW238035   5.787   7.671  10.806 -1.2013 -0.4491 -0.8251
44920SOL     OW38036   3.589   8.212   8.317 -0.3446  0.1603 -0.2513
44920SOL    HW138037   3.677   8.221   8.279 -0.2749  3.1028  0.3973
44920SOL    HW238038   3.530   8.217   8.242 -0.0296 -0.3346 -0.5435
44921SOL     OW38039   9.652   2.672   2.300  0.5115  0.7393  0.2107
44921SOL    HW138040   9.665   2.694   2.207  1.0382  1.9174  0.5422
44921SOL    HW238041   9.721   2.719   2.345  0.3937 -0.0104  1.1916
44922SOL     OW38042   0.444   5.694   7.870 -0.1432  0.0589  0.3892
44922SOL    HW138043   0.456   5.698   7.965 -1.1028 -1.8572  0.6449
44922SOL    HW238044   0.352   5.718   7.857 -0.0402  0.2218 -0.0495
44923SOL     OW38045   1.647   8.981   7.419 -0.2353  0.1168  0.5061
44923SOL    HW138046   1.734   8.954   7.389 -0.1854 -1.4415  1.9089
44923SOL    HW238047   1.587   8.922   7.375 -0.5541  0.7743  0.0382
44924SOL     OW38048   3.870   9.676   7.310  0.3042 -0.4337 -0.7157
44924SOL    HW138049   3.792   9.636   7.270  0.3574 -1.0266 -0.2504
44924SOL    HW238050   3.853   9.669   7.404  0.0689  1.1624 -0.6242
44925SOL     OW38051   5.381   0.524   3.542 -0.8153 -0.2019  0.3089
44925SOL    HW138052   5.400   0.527   3.636  0.3614  0.4675  0.0744
44925SOL    HW238053   5.318   0.453   3.532  0.4669 -1.5480  1.3721
44926SOL     OW38054   4.373   4.793   4.679 -0.0452 -0.0371 -0.0218
44926SOL    HW138055   4.367   4.699   4.662 -1.0325  0.0779 -0.3323
44926SOL    HW238056   4.287   4.818   4.712 -0.8483  1.3190 -2.8411
44927SOL     OW38057   3.442   8.526   2.514 -0.3546 -0.2281  0.0830
44927SOL    HW138058   3.410   8.563   2.596 -1.1309 -0.3410 -0.1597
44927SOL    HW238059   3.520   8.578   2.493 -0.2353 -0.1031  0.8089
44928SOL     OW38060   5.060   0.622   4.238 -0.6299  0.1872 -0.3283
44928SOL    HW138061   5.069   0.529   4.216 -1.3576  0.4423 -1.8806
44928SOL    HW238062   4.969   0.631   4.266 -0.1758  0.1976  1.2181
44929SOL     OW38063  10.311   8.838   1.241 -0.0265  0.2483  0.0841
44929SOL    HW138064  10.397   8.842   1.282 -0.4534  0.0785  1.0350
44929SOL    HW238065  10.286   8.930   1.229  0.8898  0.3154 -1.5606
44930SOL     OW38066   1.721   5.591   3.475  0.6095 -0.1178  0.1922
44930SOL    HW138067   1.666   5.625   3.405 -2.2664 -1.3342  1.6994
44930SOL    HW238068   1.732   5.498   3.454  0.1029 -0.3934  1.0707
44931SOL     OW38069   2.416   7.908   6.134  0.3923 -0.5372  0.3158
44931SOL    HW138070   2.458   7.869   6.210  0.9927  0.9317  0.7867
44931SOL    HW238071   2.488   7.930   6.075  0.3643  1.9471  1.1003
44932SOL     OW38072   6.336   9.257  11.110 -0.1661  0.3024  0.5464
44932SOL    HW138073   6.309   9.173  11.073  2.7649 -0.2595 -0.6178
44932SOL    HW238074   6.302   9.256  11.199 -2.8557 -0.6976 -0.3899
44933SOL     OW38075   3.046   9.943   0.170 -0.0467 -0.0946 -0.5507
44933SOL    HW138076   2.976  10.000   0.203  1.1761 -0.0005  2.1034
44933SOL    HW238077   3.005   9.857   0.163 -0.6340  0.1053  0.2561
44934SOL     OW38078   2.477   2.316   4.012  0.1448  0.3948  0.1280
44934SOL    HW138079   2.544   2.249   4.021  0.2179  0.3746 -0.5165
44934SOL    HW238080   2.460   2.346   4.101 -0.1385 -0.7120  0.4522
44935SOL     OW38081   5.242   3.948   6.030 -0.0826  0.2104 -0.2753
44935SOL    HW138082   5.191   4.017   6.073 -2.4682 -1.3638 -0.3578
44935SOL    HW238083   5.322   3.942   6.082 -1.1298  1.0299  1.5512
44936SOL     OW38084   6.406   9.919   3.145 -0.0085 -0.3150  0.5094
44936SOL    HW138085   6.336   9.936   3.082  1.1199  2.0159 -0.2346
44936SOL    HW238086   6.466   9.861   3.099 -0.6912 -1.0933  0.5906
44937SOL     OW38087   2.404   0.520   4.388 -0.1985  0.2464 -0.3865
44937SOL    HW138088   2.438   0.592   4.334 -0.4622  1.7781  1.3725
44937SOL    HW238089   2.464   0.516   4.463 -0.2369 -1.3500 -0.4030
44938SOL     OW38090  11.236   4.481   1.715 -0.0827 -0.3710 -0.5392
44938SOL    HW138091  11.329   4.504   1.716 -0.5253  1.6757 -1.3050
44938SOL    HW238092  11.198   4.534   1.785 -1.0352  0.6918 -1.8210
44939SOL     OW38093   3.534   2.711   1.036 -0.3157 -0.6185  0.2890
44939SOL    HW138094   3.440   2.728   1.048 -0.2791 -1.1920  1.5547
44939SOL    HW238095   3.540   2.616   1.031  0.0090 -0.5356 -1.8291
44940SOL     OW38096   9.620   1.445   7.505  0.9644 -0.0157  0.2055
44940SOL    HW138097   9.589   1.391   7.577  1.0469 -0.0281  0.2322
44940SOL    HW238098   9.550   1.508   7.490  0.8957 -0.0894  0.2172
44941SOL     OW38099   7.502   9.349   8.291 -0.3718  0.4439  0.6940
44941SOL    HW138100   7.584   9.396   8.276  0.7686 -1.3355  1.0149
44941SOL    HW238101   7.482   9.307   8.207  0.1494 -0.7280  1.1308
44942SOL     OW38102  10.789   0.933   8.554 -0.3955 -0.4437 -0.0447
44942SOL    HW138103  10.807   0.902   8.465 -1.6221 -1.4966  0.0615
44942SOL    HW238104  10.821   0.864   8.611 -1.7523 -0.8521  0.2457
44943SOL     OW38105   2.992   8.909   5.274  0.6964  0.2002  0.1826
44943SOL    HW138106   2.953   8.914   5.186  0.3359 -0.2332  0.3126
44943SOL    HW238107   3.075   8.864   5.260 -0.1412 -1.4481  0.2909
44944SOL     OW38108   2.204   1.613   3.500  0.3081  0.2856  0.0923
44944SOL    HW138109   2.169   1.699   3.475 -0.3884  0.2446  0.8735
44944SOL    HW238110   2.273   1.596   3.437  1.3654  2.0285  0.6980
44945SOL     OW38111   6.110   0.758   9.316  0.1958  0.5437 -0.3325
44945SOL    HW138112   6.100   0.664   9.329  0.4560  0.4533 -0.7724
44945SOL    HW238113   6.195   0.768   9.273 -0.6543  0.7962 -2.0539
44946SOL     OW38114   9.407   4.425   5.385 -0.5925 -0.0278  0.7284
44946SOL    HW138115   9.476   4.450   5.323  1.5883 -1.8782  2.2128
44946SOL    HW238116   9.354   4.360   5.337  0.5312 -0.7851  0.4639
44947SOL     OW38117   5.649   2.396   6.282 -0.6916  0.0939  0.0141
44947SOL    HW138118   5.683   2.401   6.371  0.4380 -1.6306 -0.2674
44947SOL    HW238119   5.706   2.333   6.238 -0.5162  1.7253 -2.2774
44948SOL     OW38120   7.153  11.163  11.163 -0.0824 -0.1725 -0.6750
44948SOL    HW138121   7.154  11.200  11.252 -1.0427 -2.3851  0.3431
44948SOL    HW238122   7.231  11.199  11.122 -0.1271  1.6850  0.7280
44949SOL     OW38123   6.572   6.630   4.285 -0.2986 -0.3928 -0.6625
44949SOL    HW138124   6.638   6.696   4.266 -0.5593 -0.4133 -1.7039
44949SOL    HW238125   6.489   6.671   4.259 -0.4079 -1.3092 -1.8184
44950SOL     OW38126   9.271   1.911   1.520  0.4041 -0.2535  0.3412
44950SOL    HW138127   9.208   1.930   1.450  1.9190 -0.2961 -1.0819
44950SOL    HW238128   9.231   1.948   1.599 -0.3085  1.8609 -0.9448
44951SOL     OW38129   4.696   4.543   0.840  0.0932  0.2838 -0.1860
44951SOL    HW138130   4.672   4.627   0.801  0.9323  0.1205 -1.0965
44951SOL    HW238131   4.785   4.556   0.873  1.6432 -1.1383 -3.3500
44952SOL     OW38132   0.685   5.568   2.379  0.0119 -0.0557 -0.5656
44952SOL    HW138133   0.694   5.652   2.333 -0.8575 -1.4763 -3.5465
44952SOL    HW238134   0.753   5.570   2.446  0.4461  2.7450 -0.9679
44953SOL     OW38135  11.339   1.539   4.110 -0.3335 -0.3272  0.1471
44953SOL    HW138136  11.387   1.505   4.185 -0.4191  1.1550  0.8979
44953SOL    HW238137  11.363   1.632   4.106 -0.5223 -0.3233 -1.5138
44954SOL     OW38138   2.716   8.864   4.369 -0.6322 -0.2898 -0.4916
44954SOL    HW138139   2.660   8.933   4.333  0.0910  0.6192  0.0809
44954SOL    HW238140   2.698   8.788   4.314 -0.0738  0.8415 -2.3228
44955SOL     OW38141   5.430   2.377   4.603  0.7743 -0.0941 -0.1515
44955SOL    HW138142   5.503   2.324   4.572  0.4945  0.1165 -1.2260
44955SOL    HW238143   5.460   2.415   4.685  2.5594  1.3623 -1.4037
44956SOL     OW38144   9.625   6.091   3.229 -0.2697  0.3208  0.1142
44956SOL    HW138145   9.658   6.117   3.315 -0.7867  0.2008  0.3497
44956SOL    HW238146   9.626   6.172   3.178  2.2837 -0.0203 -0.5204
44957SOL     OW38147   2.370   2.745   8.026 -0.4553  0.0315 -0.2140
44957SOL    HW138148   2.435   2.756   7.956  0.8415  0.2043  0.9601
44957SOL    HW238149   2.365   2.832   8.066 -0.1952 -0.3708  0.7149
44958SOL     OW38150  11.365   2.864   3.571 -0.1048 -0.1632  0.4006
44958SOL    HW138151  11.283   2.857   3.619  0.5497 -0.9306  1.4587
44958SOL    HW238152  11.400   2.950   3.595 -0.1407 -0.2377  0.7230
44959SOL     OW38153   0.698   0.157   6.712  0.0642 -0.2623 -0.2018
44959SOL    HW138154   0.727   0.068   6.734  2.1632  0.5071  0.4639
44959SOL    HW238155   0.737   0.211   6.781 -0.7050  1.2378 -0.9151
44960SOL     OW38156   6.886  10.078   1.751  0.3772  0.9710 -0.1456
44960SOL    HW138157   6.803  10.081   1.799 -0.2297 -1.8085 -0.8698
44960SOL    HW238158   6.953  10.086   1.818 -0.4605 -1.1952  1.0385
44961SOL     OW38159   2.695   4.305  10.171  0.2403 -0.5035  0.4179
44961SOL    HW138160   2.656   4.221  10.145  0.9065 -0.0526 -2.3933
44961SOL    HW238161   2.622   4.355  10.206 -1.3491 -0.5487 -2.4633
44962SOL     OW38162   8.570   4.829  10.502  0.3980 -0.0966  0.3513
44962SOL    HW138163   8.504   4.858  10.439 -0.1029  1.2206  1.4421
44962SOL    HW238164   8.627   4.905  10.513  1.8438 -1.0677 -0.2188
44963SOL     OW38165   2.304   0.594   2.621  0.6596 -0.5237 -0.7122
44963SOL    HW138166   2.275   0.666   2.677  1.3852  0.6402 -1.7868
44963SOL    HW238167   2.311   0.519   2.681 -0.5599  0.1539  0.3379
44964SOL     OW38168   3.627   8.047   0.534  0.4944 -0.5532  0.1143
44964SOL    HW138169   3.547   8.008   0.499 -1.3511  2.3482  0.6924
44964SOL    HW238170   3.658   8.105   0.465 -0.5341  1.6925  1.4240
44965SOL     OW38171   1.225  11.321   1.708  0.4509  0.1711  0.2264
44965SOL    HW138172   1.160  11.261   1.745  0.1339 -0.1564 -0.8232
44965SOL    HW238173   1.304  11.267   1.698 -0.4448 -0.7529 -2.7374
44966SOL     OW38174   9.446   8.301   4.150  0.1924  0.4787  0.0893
44966SOL    HW138175   9.473   8.230   4.092  0.8963  0.1440  0.8157
44966SOL    HW238176   9.528   8.342   4.178  0.0542 -0.7826  2.6200
44967SOL     OW38177   6.213   5.063   9.640 -0.5059  0.3930 -0.0872
44967SOL    HW138178   6.295   5.016   9.659 -0.8679 -0.0379  0.4315
44967SOL    HW238179   6.179   5.020   9.561 -0.8745 -0.2725  0.4297
44968SOL     OW38180   2.899   4.591   2.008  0.3260  0.0052  0.1010
44968SOL    HW138181   2.910   4.628   2.096  1.7114  0.0180 -0.0557
44968SOL    HW238182   2.889   4.667   1.951 -1.1140 -0.0159  0.2901
44969SOL     OW38183   9.926   0.481   9.635 -0.1883 -0.3317  0.1051
44969SOL    HW138184   9.979   0.542   9.583  0.1181  1.1559  2.0438
44969SOL    HW238185   9.837   0.515   9.629 -0.8445 -2.1653 -2.1875
44970SOL     OW38186   2.954   1.234   1.797 -0.1679 -0.0262 -0.3968
44970SOL    HW138187   3.046   1.258   1.807 -0.7726  2.7684 -0.6444
44970SOL    HW238188   2.947   1.208   1.705  0.0422  1.8098 -0.9850
44971SOL     OW38189   5.768   4.172   6.059  0.1977  0.3097 -0.0002
44971SOL    HW138190   5.860   4.191   6.072  0.2756 -0.8191  1.2876
44971SOL    HW238191   5.737   4.241   6.000  1.7640  0.9038 -0.1633
44972SOL     OW38192   1.658   1.510   5.554 -0.3206 -0.6828  0.0462
44972SOL    HW138193   1.697   1.495   5.640 -0.9016 -2.1267  0.0944
44972SOL    HW238194   1.679   1.601   5.532  0.0674 -0.3850  1.5908
44973SOL     OW38195   4.719   6.611   9.282 -0.3370  0.4384 -0.0681
44973SOL    HW138196   4.644   6.670   9.273  0.2052  1.5339  1.8907
44973SOL    HW238197   4.778   6.656   9.342  0.6430 -1.6018  0.6144
44974SOL     OW38198   3.670   2.428   8.297  0.3768 -0.3716 -0.1034
44974SOL    HW138199   3.736   2.361   8.312 -1.0478 -1.6913  0.5946
44974SOL    HW238200   3.608   2.387   8.237  0.2063  0.8594 -0.8016
44975SOL     OW38201   9.498   1.657   4.927 -0.3261  0.3481  0.3870
44975SOL    HW138202   9.473   1.749   4.918  0.0992  0.3805 -0.6611
44975SOL    HW238203   9.434   1.610   4.873  0.6395  0.2486 -0.7318
44976SOL     OW38204   6.527   6.695   7.739  0.2487 -0.2011 -0.0485
44976SOL    HW138205   6.467   6.646   7.796 -0.6414 -0.9200 -1.5087
44976SOL    HW238206   6.604   6.712   7.793 -0.5793 -0.7647  1.3704
44977SOL     OW38207   2.721   2.250   9.758  0.1468  0.0859  0.0223
44977SOL    HW138208   2.644   2.287   9.801 -0.1432 -0.3687 -0.1092
44977SOL    HW238209   2.696   2.161   9.734  1.1648 -0.5479  1.1822
44978SOL     OW38210   7.024   6.115   7.307 -0.1409  0.1942 -0.3996
44978SOL    HW138211   7.005   6.205   7.278  1.2736  0.4384 -0.6593
44978SOL    HW238212   6.942   6.068   7.295 -0.3923  0.9972 -2.0978
44979SOL     OW38213  11.141   7.991   8.428  0.2272 -0.6902 -0.3763
44979SOL    HW138214  11.138   7.898   8.448  3.4059 -1.0144 -0.9436
44979SOL    HW238215  11.222   8.002   8.378 -0.1915  2.3399 -0.5475
44980SOL     OW38216   8.563   1.731   3.442  0.4479 -0.1834 -0.0429
44980SOL    HW138217   8.559   1.668   3.514 -1.5695 -0.0693  0.0136
44980SOL    HW238218   8.572   1.816   3.486 -0.0134 -0.1778  0.0460
44981SOL     OW38219   7.287   4.866   5.437 -0.1816 -0.5329  0.3912
44981SOL    HW138220   7.320   4.848   5.525 -1.2402 -2.5023  0.4599
44981SOL    HW238221   7.201   4.823   5.435 -1.9667  2.7231 -0.3824
44982SOL     OW38222   6.716   3.645   9.422  0.3086  1.0871  0.1407
44982SOL    HW138223   6.659   3.588   9.370  1.0331 -0.8203  1.3493
44982SOL    HW238224   6.685   3.633   9.512  1.5464  1.3219  0.6085
44983SOL     OW38225   5.344   2.852   0.212 -0.2899  0.2680 -0.7678
44983SOL    HW138226   5.402   2.906   0.265  2.2330 -2.4331 -0.5654
44983SOL    HW238227   5.261   2.852   0.259  0.4591  1.6984  0.6422
44984SOL     OW38228  10.586   3.825   2.283 -0.0715 -0.2906 -0.2420
44984SOL    HW138229  10.569   3.780   2.366 -0.2542 -1.1337 -0.7307
44984SOL    HW238230  10.499   3.841   2.246  0.0628 -1.9585 -1.3424
44985SOL     OW38231   8.450   2.230   9.011 -0.4547  0.3548  0.2176
44985SOL    HW138232   8.357   2.238   8.991 -0.7304 -0.5695  1.0239
44985SOL    HW238233   8.464   2.135   9.021  0.4143  0.5338  0.7936
44986SOL     OW38234   1.401   0.250   6.449  0.0912  0.1522  0.1676
44986SOL    HW138235   1.469   0.314   6.429 -2.6356  2.5966 -2.3518
44986SOL    HW238236   1.403   0.241   6.544  1.9426  2.4268  0.4147
44987SOL     OW38237  10.291   3.032   7.652  0.0753 -0.4738 -0.8410
44987SOL    HW138238  10.373   3.028   7.604 -0.2784 -0.1080 -1.4883
44987SOL    HW238239  10.294   2.956   7.711 -0.2645 -2.0234 -2.7152
44988SOL     OW38240   4.371   9.100  10.875  0.1121  0.5875  0.3417
44988SOL    HW138241   4.464   9.123  10.868  0.4883 -0.6455  1.0481
44988SOL    HW238242   4.370   9.020  10.926 -1.1044 -1.0916 -2.1015
44989SOL     OW38243   9.420   8.410   7.800  0.3507 -0.1200  0.3036
44989SOL    HW138244   9.449   8.500   7.784  0.1743 -0.2188 -0.6355
44989SOL    HW238245   9.364   8.389   7.725 -0.3708 -0.6913  0.9796
44990SOL     OW38246   8.685   4.827   0.657  0.4557  0.0410  0.2530
44990SOL    HW138247   8.655   4.868   0.737 -0.9203  0.5690 -0.5010
44990SOL    HW238248   8.706   4.737   0.682  0.1738  0.2391  1.2209
44991SOL     OW38249   1.676   2.868   3.511  0.5840  0.0224  0.2493
44991SOL    HW138250   1.756   2.821   3.534  0.5906 -0.4156 -0.6117
44991SOL    HW238251   1.609   2.829   3.567  0.6468 -0.8352 -0.2480
44992SOL     OW38252   3.279   8.337   6.631 -0.3584  0.1048  0.4349
44992SOL    HW138253   3.339   8.276   6.589 -0.5339  0.6658 -0.6721
44992SOL    HW238254   3.272   8.411   6.570  0.2463  1.4902  1.9644
44993SOL     OW38255   5.694  10.569   5.856  0.3668 -0.1668  0.6391
44993SOL    HW138256   5.699  10.641   5.794  0.0602  0.1002  0.9192
44993SOL    HW238257   5.613  10.585   5.905  0.5847 -0.3956  1.0799
44994SOL     OW38258   2.941   3.137   0.052 -0.0934 -0.7664 -0.1348
44994SOL    HW138259   3.014   3.076   0.059  0.8269  0.1609 -1.1817
44994SOL    HW238260   2.983   3.222   0.038 -1.3296  0.1708  1.5891
44995SOL     OW38261   1.607   7.814   1.752  0.2712 -0.1675 -0.0268
44995SOL    HW138262   1.635   7.750   1.687 -0.9260 -0.9090  0.1497
44995SOL    HW238263   1.550   7.874   1.704  0.6485  0.2139  0.0044
44996SOL     OW38264   3.818   5.251   1.817  0.2484  0.0861  0.2284
44996SOL    HW138265   3.897   5.298   1.843  0.8390 -0.4413 -0.5296
44996SOL    HW238266   3.750   5.318   1.813  0.7085  0.5924  0.6732
44997SOL     OW38267   7.938   5.872   1.278 -0.1775  0.4340  0.0850
44997SOL    HW138268   7.946   5.777   1.289  1.1468  0.5387  0.1964
44997SOL    HW238269   7.923   5.905   1.367  0.6923  0.4394  0.2325
44998SOL     OW38270   4.185   8.647  11.135  0.1406  0.2056  0.1012
44998SOL    HW138271   4.200   8.673  11.226 -1.1904  0.2680  0.3144
44998SOL    HW238272   4.219   8.557  11.130 -0.5328 -0.0945  0.8743
44999SOL     OW38273   4.560   8.358   2.361  0.1717  0.4744  0.4145
44999SOL    HW138274   4.529   8.302   2.290  1.5070 -0.9816  0.9294
44999SOL    HW238275   4.522   8.444   2.343 -3.2825 -0.9100  0.4735
45000SOL     OW38276   3.018   1.901   7.957 -0.3509 -0.0311  0.2155
45000SOL    HW138277   2.991   1.899   8.048  0.3437 -0.6663  0.4214
45000SOL    HW238278   2.943   1.936   7.910 -0.9456 -0.2964  0.9499
45001SOL     OW38279  10.768   7.012   6.214  0.0070 -0.4491  0.1665
45001SOL    HW138280  10.829   6.947   6.179  0.4092  0.6447 -1.2683
45001SOL    HW238281  10.795   7.094   6.173 -2.1304  0.1493 -0.1678
45002SOL     OW38282   3.098   9.478   0.980 -0.2391  0.4533 -0.4578
45002SOL    HW138283   3.150   9.451   1.056 -0.4129 -0.6805 -0.7204
45002SOL    HW238284   3.155   9.537   0.932 -1.0298  3.2873  1.8368
45003SOL     OW38285   8.203   6.926   8.694  0.4754 -0.0246 -0.2929
45003SOL    HW138286   8.125   6.944   8.747 -0.2448  1.9273 -1.8996
45003SOL    HW238287   8.270   6.983   8.730  0.4129  0.2187 -0.5653
45004SOL     OW38288   3.361   1.720   9.045 -0.0665  0.3679  0.3670
45004SOL    HW138289   3.363   1.626   9.028  0.8513  0.4578 -0.0957
45004SOL    HW238290   3.312   1.729   9.127 -0.1392 -0.5111  0.4296
45005SOL     OW38291   2.456   3.778   7.783 -0.5087  0.0755 -0.0746
45005SOL    HW138292   2.432   3.686   7.773 -0.3971 -0.0010  0.3355
45005SOL    HW238293   2.528   3.778   7.847 -0.3771  0.4287 -0.2165
45006SOL     OW38294   2.384   9.100  10.307  0.4220 -0.2797 -0.0178
45006SOL    HW138295   2.363   9.017  10.349  1.5114 -0.0627  0.9920
45006SOL    HW238296   2.328   9.164  10.352  1.4702 -0.0730  1.0326
45007SOL     OW38297   3.509   4.066   6.030 -0.3667 -0.1612 -0.3428
45007SOL    HW138298   3.570   4.013   6.083 -0.0948 -0.1958 -0.6863
45007SOL    HW238299   3.426   4.017   6.034 -0.3296 -0.2014 -0.0095
45008SOL     OW38300   5.826  10.104  10.410  0.1190  0.7958 -0.0983
45008SOL    HW138301   5.806  10.121  10.318 -1.7055 -0.0012  0.1190
45008SOL    HW238302   5.870  10.019  10.410 -1.0285  0.1876 -0.1399
45009SOL     OW38303   0.503   4.531   4.977  0.4409  0.1353  0.5086
45009SOL    HW138304   0.482   4.621   4.952  0.3455 -0.7227 -2.8901
45009SOL    HW238305   0.426   4.502   5.028 -0.8049  1.1250 -0.7353
45010SOL     OW38306   7.395   9.080   4.108 -0.1414 -0.2444  0.6167
45010SOL    HW138307   7.435   9.029   4.178 -0.2016 -0.4912  0.4717
45010SOL    HW238308   7.305   9.048   4.102 -0.0093 -0.5358  0.1307
45011SOL     OW38309   7.342   3.412   7.351 -0.2068  0.1459  0.0858
45011SOL    HW138310   7.360   3.458   7.269  0.0538  1.6030  0.9366
45011SOL    HW238311   7.353   3.478   7.419  2.1597 -1.5773  1.5539
45012SOL     OW38312   5.887   0.731   7.044 -0.5333  0.2686 -0.5034
45012SOL    HW138313   5.963   0.755   6.992 -0.9546 -0.0257 -1.2806
45012SOL    HW238314   5.813   0.740   6.983 -1.1838  1.0693  0.3765
45013SOL     OW38315   4.335   3.042   1.177  0.0030 -0.2501 -0.1400
45013SOL    HW138316   4.277   3.090   1.236  0.2607  0.0316 -0.1150
45013SOL    HW238317   4.411   3.099   1.167  0.2601 -0.6016 -0.1998
45014SOL     OW38318   4.058   5.890   6.876 -0.2171  0.0138 -0.7899
45014SOL    HW138319   4.073   5.967   6.931  1.4507 -1.3283  0.7654
45014SOL    HW238320   3.966   5.868   6.890 -0.0487  0.2240  0.8130
45015SOL     OW38321   7.895   7.684   4.453  0.4980  0.0753 -0.0422
45015SOL    HW138322   7.925   7.707   4.541 -1.0557 -0.6003  0.6932
45015SOL    HW238323   7.841   7.757   4.426 -1.3779 -0.9404  0.7782
45016SOL     OW38324   3.186   0.987   8.327 -0.3854  0.1379  0.7828
45016SOL    HW138325   3.209   0.916   8.388 -0.1115 -0.4962 -0.0398
45016SOL    HW238326   3.090   0.992   8.332 -0.4441 -0.5780  0.5497
45017SOL     OW38327  10.867   1.925  10.574 -0.6047  0.2827 -0.3422
45017SOL    HW138328  10.895   1.943  10.485  2.0779  0.2943  0.4112
45017SOL    HW238329  10.938   1.873  10.612 -2.5628 -1.4674  1.2339
45018SOL     OW38330   2.698   8.522  10.567 -0.6296 -0.1952 -0.2153
45018SOL    HW138331   2.615   8.553  10.602 -0.5251  0.3312 -0.4185
45018SOL    HW238332   2.750   8.499  10.644 -1.4891 -1.9792 -0.1155
45019SOL     OW38333   0.988   9.956   0.440 -0.1604 -0.0496  0.3309
45019SOL    HW138334   0.943   9.873   0.449 -0.3012  0.0923  1.0173
45019SOL    HW238335   1.052   9.942   0.370 -0.1422 -0.7521  0.4840
45020SOL     OW38336   0.196  10.660   6.973 -0.2617  0.1257  0.3371
45020SOL    HW138337   0.145  10.653   6.892 -2.0531  0.1943  1.4086
45020SOL    HW238338   0.134  10.637   7.043  1.5819 -1.2073  1.6116
45021SOL     OW38339   5.677   8.197   9.389  0.1662  0.3768  0.1825
45021SOL    HW138340   5.719   8.192   9.475  0.1799  0.5698  0.1872
45021SOL    HW238341   5.632   8.281   9.389  0.6651  0.6465 -0.2248
45022SOL     OW38342   3.841   9.582   5.003  0.2598  0.0610 -0.0008
45022SOL    HW138343   3.840   9.493   5.036  1.6162 -0.6468 -1.6977
45022SOL    HW238344   3.923   9.588   4.953  0.4992  2.4448  0.5658
45023SOL     OW38345   8.035   6.776   5.582  0.0541 -0.4308  0.5156
45023SOL    HW138346   8.081   6.746   5.504 -1.0486 -0.0628 -0.3115
45023SOL    HW238347   8.001   6.696   5.622  0.3874 -0.5993  0.4693
45024SOL     OW38348   3.658   2.361   1.118  0.0502 -0.1873  0.6073
45024SOL    HW138349   3.743   2.378   1.158  0.6981 -1.5356 -0.1427
45024SOL    HW238350   3.679   2.319   1.034 -1.2945  1.5570 -0.6642
45025SOL     OW38351   8.529   3.085  11.200 -0.2478  1.0968  0.4123
45025SOL    HW138352   8.440   3.086  11.235 -0.7117 -0.6318 -0.6168
45025SOL    HW238353   8.567   3.003  11.233 -1.2216 -1.4803 -4.0886
45026SOL     OW38354   6.301   3.919   2.804  0.5163  0.7827 -0.0758
45026SOL    HW138355   6.248   3.861   2.859  0.9775  0.1691 -0.2700
45026SOL    HW238356   6.369   3.862   2.767 -0.4108  0.9309 -2.1629
45027SOL     OW38357   9.646   3.957   6.581 -0.2986  0.3034  0.2076
45027SOL    HW138358   9.642   4.017   6.507 -0.3282 -0.7694 -0.6777
45027SOL    HW238359   9.641   4.014   6.658 -1.5714  1.3338 -0.6012
45028SOL     OW38360   9.694  11.389   4.401  0.0180 -0.1798 -0.2162
45028SOL    HW138361   9.669  11.394   4.309  0.1359 -2.1306 -0.3970
45028SOL    HW238362   9.767  11.328   4.402 -1.6595 -2.3146  1.4436
45029SOL     OW38363   2.494   5.799   4.912  0.1617  0.0279  0.3174
45029SOL    HW138364   2.525   5.845   4.990  0.1958 -1.0178  0.9460
45029SOL    HW238365   2.399   5.810   4.914  0.0442 -0.9819  1.1833
45030SOL     OW38366   5.701   2.260   7.461 -0.0428 -0.3207 -0.6130
45030SOL    HW138367   5.773   2.322   7.446 -0.9980  0.9237 -0.2818
45030SOL    HW238368   5.640   2.309   7.516 -0.7181 -1.6761 -0.1377
45031SOL     OW38369   7.605   5.568   2.366  0.2034 -0.3070  0.4435
45031SOL    HW138370   7.635   5.589   2.454  1.1297  1.4227 -0.2299
45031SOL    HW238371   7.677   5.595   2.309 -1.0363  0.2069 -0.9624
45032SOL     OW38372   1.852   6.765   4.881  0.1605 -0.1675  0.2322
45032SOL    HW138373   1.861   6.771   4.786 -0.6197  0.8570  0.2064
45032SOL    HW238374   1.938   6.736   4.911  0.7071  0.4157 -0.7114
45033SOL     OW38375   8.514   0.527  10.842 -0.0550  0.6653  0.1355
45033SOL    HW138376   8.479   0.544  10.929  0.6765  0.2272  0.5197
45033SOL    HW238377   8.579   0.457  10.854 -1.5371 -1.0324 -1.0877
45034SOL     OW38378   1.114   3.950   1.167  0.2068  0.1253 -0.1275
45034SOL    HW138379   1.049   3.996   1.220  1.0195  0.0497  0.9772
45034SOL    HW238380   1.062   3.893   1.110 -0.7093  0.4482  0.3593
45035SOL     OW38381   0.757   5.853   7.548 -0.2541 -0.0311 -0.1808
45035SOL    HW138382   0.677   5.806   7.528 -0.1686 -0.2513 -0.0081
45035SOL    HW238383   0.738   5.901   7.629  0.0249 -0.6734  0.2765
45036SOL     OW38384   4.465  10.945   5.502 -0.4295 -0.0834 -0.3892
45036SOL    HW138385   4.497  10.998   5.429 -0.0766  1.1124  0.5889
45036SOL    HW238386   4.421  11.008   5.559  0.3365 -0.7706  1.0142
45037SOL     OW38387   4.595   2.197   0.074  0.0041  0.1984 -0.5788
45037SOL    HW138388   4.626   2.152  -0.004  2.0930 -0.4217  0.5415
45037SOL    HW238389   4.647   2.277   0.077 -0.3850  0.4362 -0.0497
45038SOL     OW38390   4.100   0.969   4.274  0.1098  0.4289 -0.4775
45038SOL    HW138391   4.008   0.964   4.299  0.1082  1.0787 -0.3418
45038SOL    HW238392   4.146   0.990   4.356  0.6821 -2.3524  0.0028
45039SOL     OW38393   4.098   2.140  11.062 -0.2288 -0.4284 -0.7185
45039SOL    HW138394   4.165   2.196  11.101  0.9269 -1.7735 -0.6685
45039SOL    HW238395   4.015   2.176  11.092  0.5358  0.3519  0.5296
45040SOL     OW38396   4.008   8.460  10.063 -0.1953 -0.0484  0.1486
45040SOL    HW138397   4.002   8.524   9.993  0.1267 -0.9758 -0.7651
45040SOL    HW238398   4.088   8.411  10.043 -0.2170 -0.4791  1.0484
45041SOL     OW38399   3.082   6.018   8.195  0.5070 -0.5022 -0.2085
45041SOL    HW138400   3.025   5.953   8.153 -0.3625 -0.9854  1.6464
45041SOL    HW238401   3.022   6.084   8.229  1.1657 -0.2522  0.4775
45042SOL     OW38402   5.303   2.381   1.064  0.1326 -0.7777  0.3751
45042SOL    HW138403   5.389   2.391   1.025 -0.0563  0.8032  0.2833
45042SOL    HW238404   5.313   2.415   1.153 -0.5300  0.0674  0.1466
45043SOL     OW38405   9.836   8.989   1.652  0.7326 -0.5442  0.3272
45043SOL    HW138406   9.868   8.958   1.737 -1.2245 -0.3639  1.1964
45043SOL    HW238407   9.820   8.909   1.602 -1.4750 -0.9227  1.4841
45044SOL     OW38408   3.112   9.800   0.666  0.4262  0.0789  0.7801
45044SOL    HW138409   3.022   9.832   0.664 -0.1369 -1.4194 -1.1169
45044SOL    HW238410   3.165   9.875   0.641 -0.2833  0.9538  1.8310
45045SOL     OW38411   5.325  11.062   7.097  0.0046 -0.2269  0.0996
45045SOL    HW138412   5.419  11.083   7.097 -0.2513  1.0944 -0.8795
45045SOL    HW238413   5.322  10.967   7.103  1.4171 -0.3130 -0.0153
45046SOL     OW38414   4.734   2.214   7.311 -0.1000  0.3116 -0.5173
45046SOL    HW138415   4.813   2.166   7.337  1.1101  1.5919 -1.6237
45046SOL    HW238416   4.735   2.293   7.364 -2.1206 -0.8014  1.3415
45047SOL     OW38417  10.325   6.719   7.818 -0.5044  0.2880 -0.2126
45047SOL    HW138418  10.330   6.743   7.910 -0.5392 -0.3049 -0.0528
45047SOL    HW238419  10.396   6.656   7.805 -0.1075  0.8287 -0.7410
45048SOL     OW38420   8.484   3.702  10.339  0.5563 -0.2450  0.2004
45048SOL    HW138421   8.560   3.723  10.284 -0.0122 -0.7137 -0.7754
45048SOL    HW238422   8.464   3.610  10.319 -2.3573  0.7509 -2.1785
45049SOL     OW38423   7.154   6.172   9.871 -0.3128  0.3263 -0.2317
45049SOL    HW138424   7.079   6.201   9.819 -0.7097 -0.8488 -0.3383
45049SOL    HW238425   7.227   6.227   9.840 -0.9604  0.9702 -0.6468
45050SOL     OW38426  10.316   3.778   5.444 -0.5198  0.4446  0.3497
45050SOL    HW138427  10.270   3.856   5.411  0.4088  1.1367  0.6237
45050SOL    HW238428  10.272   3.704   5.402 -0.7078  1.1861 -0.8140
45051SOL     OW38429   5.064   4.399   6.043  0.4383  0.0974 -0.7405
45051SOL    HW138430   5.069   4.467   6.111  0.9939 -0.4633 -0.1950
45051SOL    HW238431   5.081   4.317   6.090 -4.1397 -1.0279 -0.5827
45052SOL     OW38432   6.277   6.449   2.362 -0.2322  0.0339 -0.5890
45052SOL    HW138433   6.311   6.365   2.331 -0.3479 -0.1669 -0.1635
45052SOL    HW238434   6.232   6.485   2.285 -1.1137 -0.7769 -0.4673
45053SOL     OW38435   4.683   0.480   8.812 -0.0055  0.2889  0.3907
45053SOL    HW138436   4.598   0.449   8.779 -0.1001  2.4141 -1.6148
45053SOL    HW238437   4.712   0.544   8.748  1.8714  1.6086  2.3946
45054SOL     OW38438   5.226   3.374   2.190 -0.3500  0.2856  0.1511
45054SOL    HW138439   5.264   3.420   2.115 -1.5844 -1.1272 -1.4214
45054SOL    HW238440   5.138   3.410   2.198 -1.0995 -1.2862 -0.6860
45055SOL     OW38441  11.392   3.259   5.127 -0.0589  0.4545 -0.5492
45055SOL    HW138442  11.368   3.283   5.216 -0.4182  0.1311 -0.5580
45055SOL    HW238443  11.309   3.250   5.081  0.1480  2.3345 -1.3829
45056SOL     OW38444   4.416   2.790   8.665 -0.2911  0.4493 -0.1457
45056SOL    HW138445   4.377   2.705   8.642  0.3251 -0.4171  1.7518
45056SOL    HW238446   4.408   2.794   8.760 -1.1493  2.9863 -0.2405
45057SOL     OW38447   5.499   7.020  10.796 -0.6921  0.3926  0.3428
45057SOL    HW138448   5.433   6.951  10.793 -0.1683 -0.1029 -0.0209
45057SOL    HW238449   5.564   6.988  10.858  0.0656  0.0865 -0.5955
45058SOL     OW38450   9.599   6.690   1.711  0.1179  0.3747  0.0261
45058SOL    HW138451   9.560   6.687   1.624 -2.7898 -3.1472  1.2275
45058SOL    HW238452   9.674   6.631   1.706 -1.5460 -1.8889  0.3957
45059SOL     OW38453   8.371   8.803   4.691 -0.1380  0.4685 -0.2461
45059SOL    HW138454   8.280   8.826   4.709 -1.3575 -2.2660 -2.2122
45059SOL    HW238455   8.372   8.707   4.687  3.1746  0.2816  1.1053
45060SOL     OW38456   9.016   5.368   8.269  0.7022 -0.0168 -0.0035
45060SOL    HW138457   8.983   5.416   8.345 -0.0657 -1.2695  0.4886
45060SOL    HW238458   8.964   5.402   8.196 -0.0230 -0.2636  0.3813
45061SOL     OW38459   8.143   4.966   7.231  0.4567  0.3343  0.0482
45061SOL    HW138460   8.124   4.874   7.213 -0.0881  0.7973 -2.0080
45061SOL    HW238461   8.177   4.966   7.320  2.3842 -2.1372 -0.5425
45062SOL     OW38462   4.071   4.300   6.030  0.2558 -0.2407  0.5434
45062SOL    HW138463   3.994   4.347   6.064 -0.5552 -0.7592 -0.5203
45062SOL    HW238464   4.118   4.272   6.108 -0.7061 -0.0203  1.2237
45063SOL     OW38465   6.926   2.898   6.835  0.1505  0.3073  0.4960
45063SOL    HW138466   6.858   2.948   6.879  0.1343  1.0009 -0.2947
45063SOL    HW238467   7.005   2.911   6.888  0.1519  1.1951  0.2777
45064SOL     OW38468   7.002   3.201   1.846  0.2389  0.3504 -0.2298
45064SOL    HW138469   6.929   3.252   1.811 -0.8738 -0.6120  0.6290
45064SOL    HW238470   7.080   3.239   1.805 -0.7784  1.0691 -1.5444
45065SOL     OW38471   0.042  10.346   6.659 -0.2710  0.4369 -0.0278
45065SOL    HW138472   0.044  10.439   6.637 -0.4318  1.1657  2.6502
45065SOL    HW238473   0.077  10.342   6.748  0.5960 -2.2058 -0.4171
45066SOL     OW38474   3.090   0.834   1.426  0.3229  0.0393  0.1452
45066SOL    HW138475   3.110   0.748   1.462 -1.6807 -1.5245 -2.1249
45066SOL    HW238476   3.143   0.895   1.478  0.9125 -2.3878  2.6522
45067SOL     OW38477   8.048   8.310   2.359  0.5803  0.3042 -0.9801
45067SOL    HW138478   8.102   8.302   2.281  1.4192  0.9413 -0.4865
45067SOL    HW238479   8.087   8.383   2.408 -0.9302  1.0198 -0.7605
45068SOL     OW38480   9.150   0.904   6.969  0.0666 -0.3557  0.2472
45068SOL    HW138481   9.140   0.845   7.044 -2.2079 -0.7585 -0.2952
45068SOL    HW238482   9.116   0.854   6.895 -1.8968  1.5489 -0.2334
45069SOL     OW38483   2.835   4.081   7.083 -0.0558 -0.5760 -0.5689
45069SOL    HW138484   2.754   4.081   7.032 -0.5106  0.3595  0.0959
45069SOL    HW238485   2.806   4.067   7.173  0.2574  1.7843 -0.0264
45070SOL     OW38486   1.608   8.712   6.588  0.1898  0.3149  0.4779
45070SOL    HW138487   1.543   8.766   6.542  0.9275  1.1814  0.4249
45070SOL    HW238488   1.669   8.775   6.626  0.0131 -0.4109  2.0443
45071SOL     OW38489  10.105  10.489   4.729  0.0386  0.0737 -0.1431
45071SOL    HW138490  10.049  10.566   4.735 -1.0619 -0.6567 -0.8123
45071SOL    HW238491  10.133  10.485   4.638 -1.3142 -1.2551 -0.5354
45072SOL     OW38492   5.071  10.609   3.901 -0.5082  0.1804 -0.8914
45072SOL    HW138493   5.051  10.518   3.926 -2.3563  0.6488 -0.5136
45072SOL    HW238494   5.128  10.641   3.971 -0.6228 -0.4056 -0.5212
45073SOL     OW38495   1.796   0.923   2.652  0.1219 -0.1694  0.4298
45073SOL    HW138496   1.833   0.858   2.712 -0.5709 -0.5211  0.4810
45073SOL    HW238497   1.791   0.877   2.567 -0.8365 -0.3589  0.5788
45074SOL     OW38498  10.981   6.667   4.964 -0.1657 -0.1598  0.3110
45074SOL    HW138499  10.912   6.608   4.933  2.2261 -2.0083 -1.8785
45074SOL    HW238500  10.996   6.639   5.055 -2.8687  0.9986  1.2352
45075SOL     OW38501   8.564   1.857   3.807  0.2389 -0.6705 -0.0691
45075SOL    HW138502   8.509   1.927   3.773  0.2157 -0.2916  0.7192
45075SOL    HW238503   8.589   1.886   3.895 -0.2263 -1.8998  0.4936
45076SOL     OW38504   1.561   9.185   3.727 -0.3459 -0.1547  0.1314
45076SOL    HW138505   1.538   9.213   3.639 -0.4708 -1.7380 -0.3806
45076SOL    HW238506   1.489   9.214   3.782 -0.5811  0.2853 -0.4041
45077SOL     OW38507   1.548   5.593   6.781  0.7002  0.1433 -0.2453
45077SOL    HW138508   1.499   5.640   6.849  0.2045  0.7389 -0.9977
45077SOL    HW238509   1.635   5.579   6.820  0.5059  0.6963  0.4139
45078SOL     OW38510   0.971   6.105   9.269 -0.6697 -0.1238  0.0027
45078SOL    HW138511   1.045   6.074   9.217  0.3450 -1.5249  2.0991
45078SOL    HW238512   0.976   6.200   9.264  0.4152 -0.2102 -1.0295
45079SOL     OW38513   9.057  10.798   0.376 -0.2759 -0.3108 -0.3972
45079SOL    HW138514   9.120  10.763   0.439 -0.3872  1.7547  0.9563
45079SOL    HW238515   9.004  10.722   0.350 -0.2069 -1.2484  1.9834
45080SOL     OW38516   6.520   1.298   9.384  0.1030 -0.2288  0.3051
45080SOL    HW138517   6.596   1.305   9.326 -1.2325 -0.6675 -1.6048
45080SOL    HW238518   6.556   1.264   9.466  1.8061 -1.6958 -0.9596
45081SOL     OW38519   3.327  10.065   5.375  0.3013  0.1682  0.1834
45081SOL    HW138520   3.330   9.997   5.443 -0.6848 -0.9293 -0.8285
45081SOL    HW238521   3.402  10.047   5.319  0.7866  0.7244  0.6435
45082SOL     OW38522  10.937   3.528   9.471 -0.0508 -0.2304  0.1041
45082SOL    HW138523  10.994   3.466   9.516 -1.4299 -1.1392  0.6694
45082SOL    HW238524  10.944   3.504   9.378  0.5581 -0.2689  0.1584
45083SOL     OW38525   3.814   2.764   2.449 -0.3355  0.1793 -0.1706
45083SOL    HW138526   3.827   2.767   2.544 -0.7645  0.0952 -0.1045
45083SOL    HW238527   3.754   2.836   2.431  2.0571  2.1436 -0.8012
45084SOL     OW38528   5.330  10.486   3.025  0.4750  0.3319 -0.8548
45084SOL    HW138529   5.297  10.451   3.108 -0.0428 -2.0490 -1.9629
45084SOL    HW238530   5.411  10.532   3.049 -0.3380  0.8489  1.1114
45085SOL     OW38531   1.217   1.920  10.259 -0.2815 -0.4668  0.0935
45085SOL    HW138532   1.173   1.848  10.304  0.6943 -1.4945 -0.5528
45085SOL    HW238533   1.158   1.995  10.270 -1.0144 -1.1988  1.3108
45086SOL     OW38534   4.798   5.402  10.261 -0.2775  0.2466 -0.2679
45086SOL    HW138535   4.731   5.359  10.313  0.2543  0.7167  0.8319
45086SOL    HW238536   4.872   5.340  10.260 -0.7715 -0.3610 -1.6501
45087SOL     OW38537   8.195  10.958   0.353 -0.0319  0.1562  0.1992
45087SOL    HW138538   8.129  10.892   0.333  1.2645 -0.7634 -1.2793
45087SOL    HW238539   8.239  10.974   0.269  1.4095  0.9600  1.0663
45088SOL     OW38540   7.702   6.439   8.358 -1.0580 -0.1957 -0.5267
45088SOL    HW138541   7.777   6.485   8.398 -1.1735 -1.0073  0.6853
45088SOL    HW238542   7.727   6.429   8.267 -1.1119  2.4429 -0.9277
45089SOL     OW38543   8.408   6.446   6.202 -0.3171 -0.1947 -0.3200
45089SOL    HW138544   8.416   6.519   6.140  0.1469 -1.0169 -1.2566
45089SOL    HW238545   8.431   6.484   6.287 -1.7115  1.1544 -0.4868
45090SOL     OW38546   0.204   9.187   9.568 -0.6482  0.0966  0.2909
45090SOL    HW138547   0.202   9.125   9.495 -1.7057 -0.4548  0.7799
45090SOL    HW238548   0.205   9.133   9.647  1.3225  0.6702  0.7135
45091SOL     OW38549   4.126   0.860   8.042 -0.4264  0.0506  0.4234
45091SOL    HW138550   4.179   0.933   8.073  2.2560 -0.9945 -1.3599
45091SOL    HW238551   4.166   0.783   8.083  0.9602 -0.9805 -2.5870
45092SOL     OW38552   2.989   5.471   9.282  0.3799  0.0506 -0.0670
45092SOL    HW138553   3.037   5.457   9.363  1.7619  0.5050 -0.7837
45092SOL    HW238554   3.056   5.494   9.217 -0.6947 -0.2694 -1.3347
45093SOL     OW38555   4.237   4.684   2.994  0.5589 -0.0597 -0.4969
45093SOL    HW138556   4.206   4.639   3.072 -3.0316  2.1419 -0.4364
45093SOL    HW238557   4.234   4.618   2.925 -0.6978 -0.9083  0.3389
45094SOL     OW38558   4.955   1.820   2.817  0.0973 -0.4326  0.2762
45094SOL    HW138559   5.025   1.764   2.848 -0.2946 -1.7744 -1.1024
45094SOL    HW238560   4.975   1.906   2.851  1.1333 -1.2635  1.8486
45095SOL     OW38561   3.275   5.483   6.037 -0.1099  0.2342 -0.1076
45095SOL    HW138562   3.338   5.542   6.078  0.2839 -0.0185 -0.3410
45095SOL    HW238563   3.219   5.454   6.109 -0.2273  0.7936  0.0287
45096SOL     OW38564   0.664   9.868   0.501 -0.4140  0.2467  0.2607
45096SOL    HW138565   0.595   9.834   0.445 -1.6201  1.8023  0.7232
45096SOL    HW238566   0.622   9.881   0.586  0.6819  0.4024  0.7964
45097SOL     OW38567   5.036   3.459   4.822 -0.3273 -0.2205  0.7034
45097SOL    HW138568   5.118   3.412   4.835 -1.2512 -1.3730  2.6561
45097SOL    HW238569   4.974   3.392   4.793 -1.0938  0.2303  1.2764
45098SOL     OW38570   2.957   0.990   4.598 -0.2079 -0.5340 -0.5495
45098SOL    HW138571   2.978   1.007   4.507  0.7952  2.7467  0.1539
45098SOL    HW238572   2.862   0.981   4.600 -0.5153  1.8251 -1.6604
45099SOL     OW38573   0.898   2.313   1.325  0.3826  0.4197  0.7643
45099SOL    HW138574   0.825   2.288   1.382  1.8289  1.1179  3.0490
45099SOL    HW238575   0.944   2.230   1.308  0.1826  0.2627  0.9783
45100SOL     OW38576   5.480   2.055   8.410  0.0221  0.1127 -0.1765
45100SOL    HW138577   5.548   2.003   8.367 -1.3039 -0.8257 -1.2384
45100SOL    HW238578   5.516   2.073   8.497  1.2795 -1.0715 -0.4000
45101SOL     OW38579   1.796  10.157   5.450  0.0706 -0.5032 -0.1493
45101SOL    HW138580   1.734  10.142   5.379  0.5382 -0.8268 -0.4969
45101SOL    HW238581   1.838  10.072   5.464 -1.2401 -0.8940  1.7108
45102SOL     OW38582   3.738   1.629   4.541 -0.4628  0.2229  0.3602
45102SOL    HW138583   3.813   1.611   4.597 -0.3573 -0.2280  0.0784
45102SOL    HW238584   3.670   1.661   4.601 -0.2125  0.1564  0.6808
45103SOL     OW38585  11.030   4.911   1.440  0.4002 -0.5255 -0.4073
45103SOL    HW138586  11.093   4.885   1.373  0.6498 -0.7672 -0.0810
45103SOL    HW238587  11.040   5.005   1.447 -0.4974 -0.3125 -1.5871
45104SOL     OW38588  10.698   8.315   0.335 -0.4081  0.4723 -0.4533
45104SOL    HW138589  10.761   8.385   0.353 -0.9292  0.9991 -0.6147
45104SOL    HW238590  10.669   8.332   0.246 -1.7130  1.0099  0.0433
45105SOL     OW38591   3.464   5.134   9.786 -0.2146 -0.5447  0.1145
45105SOL    HW138592   3.473   5.069   9.856 -0.4957  1.0257  1.6710
45105SOL    HW238593   3.554   5.159   9.765 -0.1538 -0.0445  0.9079
45106SOL     OW38594   8.341   4.326   5.279  0.2560  0.1074  0.0361
45106SOL    HW138595   8.429   4.291   5.264  0.8468  1.3608  0.4497
45106SOL    HW238596   8.354   4.420   5.289 -0.8998  0.1215  1.8749
45107SOL     OW38597   5.341   6.424   6.774  0.7021  0.4725  0.4251
45107SOL    HW138598   5.388   6.352   6.733 -0.8425  0.8346 -2.2588
45107SOL    HW238599   5.348   6.408   6.868 -0.2746 -3.6403 -0.0358
45108SOL     OW38600   4.338   6.196   9.204  0.4063 -0.0345 -0.4517
45108SOL    HW138601   4.247   6.195   9.233  0.5037 -0.1883 -0.1475
45108SOL    HW238602   4.334   6.225   9.113 -0.1528 -2.1183 -1.1422
45109SOL     OW38603   3.783   8.544   9.417 -0.0719 -0.1782  0.0342
45109SOL    HW138604   3.859   8.487   9.418 -1.0879 -1.5939 -0.1087
45109SOL    HW238605   3.818   8.631   9.397  1.4342 -0.8604 -0.4244
45110SOL     OW38606   1.284   5.767   9.288 -0.2770 -0.0112  0.5772
45110SOL    HW138607   1.343   5.778   9.213 -1.8541 -0.1853 -0.7444
45110SOL    HW238608   1.339   5.728   9.356  0.9652 -0.8951 -0.8582
45111SOL     OW38609   2.885   6.744   7.046 -0.1057 -0.0246 -0.1730
45111SOL    HW138610   2.807   6.704   7.085  0.8723 -1.2962  0.5794
45111SOL    HW238611   2.943   6.669   7.028  1.2485  0.9414  0.0197
45112SOL     OW38612   9.399   8.221   2.232 -0.3293  0.1861 -0.5739
45112SOL    HW138613   9.304   8.227   2.235 -0.3477 -0.3857  0.2781
45112SOL    HW238614   9.430   8.309   2.253 -0.6675  0.1207  0.2303
45113SOL     OW38615   8.523   5.599   6.948 -0.5403  0.5243 -0.0116
45113SOL    HW138616   8.484   5.520   6.985 -2.0115  0.8469 -0.7733
45113SOL    HW238617   8.567   5.568   6.868  2.1425 -0.0770  1.5871
45114SOL     OW38618   3.848  10.338   7.903 -0.4471  0.3033 -0.2952
45114SOL    HW138619   3.895  10.299   7.829 -0.5663 -0.7090  0.1591
45114SOL    HW238620   3.759  10.352   7.871 -0.3241  0.5073 -0.5554
45115SOL     OW38621   9.147  10.263   0.293  0.7179  0.3581 -0.5193
45115SOL    HW138622   9.061  10.301   0.274  0.5500  1.0225  1.3224
45115SOL    HW238623   9.130  10.170   0.308  0.0754  0.6904  1.0084
45116SOL     OW38624  10.824   4.907  11.293  0.3541 -0.2213  0.3334
45116SOL    HW138625  10.747   4.854  11.270  0.8230 -1.1358  0.8252
45116SOL    HW238626  10.806   4.938  11.382  0.4618 -0.2818  0.3771
45117SOL     OW38627   3.591   4.531   2.469 -0.3008  0.1159  0.3036
45117SOL    HW138628   3.545   4.455   2.434  0.2084 -0.0838  0.0516
45117SOL    HW238629   3.543   4.606   2.435 -0.5485 -0.0899  0.1954
45118SOL     OW38630   2.454   5.031   1.102  0.1831 -0.2405  0.2540
45118SOL    HW138631   2.424   5.057   1.015 -0.5136 -1.2224  0.1736
45118SOL    HW238632   2.452   5.111   1.154 -0.8174  0.0867 -0.2608
45119SOL     OW38633   7.002   4.252   7.870 -0.1526 -0.4327 -0.3880
45119SOL    HW138634   7.034   4.341   7.883 -0.7382 -0.1902 -0.5572
45119SOL    HW238635   6.970   4.251   7.780  2.1765 -1.5572 -1.2836
45120SOL     OW38636   7.977   9.623   3.483  0.0279 -0.2417  1.0286
45120SOL    HW138637   8.010   9.535   3.463 -1.5938 -0.7274  0.3842
45120SOL    HW238638   7.991   9.633   3.577  0.4828 -1.0684  1.0585
45121SOL     OW38639   4.377  10.203   7.133 -0.2707 -0.4467 -0.2495
45121SOL    HW138640   4.364  10.238   7.045  1.2861  1.5559  0.2502
45121SOL    HW238641   4.432  10.126   7.120  0.9629  0.5229 -0.9643
45122SOL     OW38642   5.393   8.606   8.341 -0.2198 -0.2669 -0.0381
45122SOL    HW138643   5.419   8.692   8.309  1.3086 -0.3475  0.8883
45122SOL    HW238644   5.408   8.547   8.267 -2.0391  0.3339 -0.9455
45123SOL     OW38645   6.985   2.036   9.053  1.0028  0.2350 -0.0423
45123SOL    HW138646   7.016   1.954   9.093  0.7322 -0.7432 -1.7451
45123SOL    HW238647   6.918   2.008   8.990  0.7542  1.7914 -0.4983
45124SOL     OW38648   8.198   7.707   3.076 -0.6898 -0.3128 -0.0509
45124SOL    HW138649   8.128   7.771   3.089 -0.6515 -0.0095 -1.2690
45124SOL    HW238650   8.160   7.641   3.018 -0.5224 -1.0922  0.6998
45125SOL     OW38651   5.527   3.458   5.735 -0.3458  0.5258  0.0685
45125SOL    HW138652   5.622   3.463   5.742 -0.3639  1.7916 -0.2524
45125SOL    HW238653   5.505   3.367   5.755  0.7231  0.7345  2.5306
45126SOL     OW38654   7.422   4.343   0.632 -0.1968 -0.1869  0.3104
45126SOL    HW138655   7.329   4.324   0.648 -0.5840  1.4448  0.1929
45126SOL    HW238656   7.465   4.322   0.715 -0.9260  0.4972  0.8762
45127SOL     OW38657   3.917   7.057   2.292  0.3389 -0.3549  0.0951
45127SOL    HW138658   3.864   7.113   2.235  1.1041  0.4504  0.1394
45127SOL    HW238659   3.891   7.081   2.381  0.2331 -0.5020  0.1027
45128SOL     OW38660  11.041   9.957   0.673  0.2384  0.5357  0.1463
45128SOL    HW138661  11.072  10.039   0.636  0.1354 -0.0848 -1.3953
45128SOL    HW238662  11.118   9.918   0.714 -0.0024  1.9948  2.1360
45129SOL     OW38663   5.178   9.167   8.621 -0.0294 -0.0343  0.2797
45129SOL    HW138664   5.157   9.120   8.701  0.4210  0.1493  0.5150
45129SOL    HW238665   5.154   9.108   8.550 -2.7806  0.7472  0.4508
45130SOL     OW38666   5.600   1.789   0.483 -0.1663  0.0010  0.1334
45130SOL    HW138667   5.620   1.725   0.414 -1.4335 -1.0951  0.7466
45130SOL    HW238668   5.649   1.758   0.559 -1.0595 -0.4530  0.5309
45131SOL     OW38669   1.297   6.360   6.470 -0.2693 -0.7271 -0.3008
45131SOL    HW138670   1.365   6.334   6.533  0.1556 -1.0026 -0.8662
45131SOL    HW238671   1.346   6.384   6.391 -0.8737 -1.9904 -1.0890
45132SOL     OW38672   7.042   7.070   1.883  0.3844 -0.1793 -0.0183
45132SOL    HW138673   6.960   7.028   1.855  0.0265  0.9071 -0.6477
45132SOL    HW238674   7.053   7.143   1.822  2.0445 -0.5505 -0.2056
45133SOL     OW38675   1.531  10.889   6.192 -0.0223 -0.6575  0.3915
45133SOL    HW138676   1.448  10.885   6.239  0.2065  0.6376  0.9343
45133SOL    HW238677   1.545  10.982   6.174  1.2112 -0.8746  0.1131
45134SOL     OW38678   5.471   9.444   0.554 -0.6510  0.4773  0.4636
45134SOL    HW138679   5.441   9.456   0.644 -0.6669  0.9195  0.4009
45134SOL    HW238680   5.540   9.379   0.561 -0.4806  0.6911  0.8340
45135SOL     OW38681   8.784  10.772   8.851 -0.7162 -0.2793  0.1556
45135SOL    HW138682   8.759  10.860   8.879  1.6422  0.5660 -0.1492
45135SOL    HW238683   8.707  10.718   8.870 -2.2155  1.8101  0.4016
45136SOL     OW38684   4.899   5.283   9.617  0.1024  0.1991  0.1051
45136SOL    HW138685   4.904   5.317   9.706 -0.1257 -0.9322  0.5668
45136SOL    HW238686   4.806   5.285   9.595 -0.1011 -1.4322  0.6878
45137SOL     OW38687   3.198   9.166   5.613  0.7334  0.8063  0.6281
45137SOL    HW138688   3.170   9.256   5.604 -0.3875  0.5535  1.3741
45137SOL    HW238689   3.210   9.135   5.523 -0.7917  1.1255  0.2847
45138SOL     OW38690   5.151   9.644   0.394 -0.2165  0.5960 -0.2618
45138SOL    HW138691   5.209   9.569   0.387  0.4168  1.1236 -0.7811
45138SOL    HW238692   5.180   9.691   0.472 -0.3800  0.4952 -0.1402
45139SOL     OW38693   5.769   6.103   5.301 -0.0203  0.0425 -0.6018
45139SOL    HW138694   5.831   6.032   5.285 -2.3647 -1.5754 -3.5557
45139SOL    HW238695   5.748   6.137   5.213 -1.1450  2.4955  0.5065
45140SOL     OW38696   6.890   4.294   1.231  0.2263  0.0752  0.9630
45140SOL    HW138697   6.856   4.383   1.219  1.5898  0.5428  0.3925
45140SOL    HW238698   6.982   4.306   1.255  0.0840 -1.1550  2.2943
45141SOL     OW38699   8.257   1.914   4.010  0.0283 -0.3206 -0.1652
45141SOL    HW138700   8.293   1.850   3.948  1.2128  0.7680 -0.6675
45141SOL    HW238701   8.168   1.885   4.026  0.4421 -1.9334 -0.5879
45142SOL     OW38702   6.432   2.180   5.078  0.8677  0.4505 -0.2648
45142SOL    HW138703   6.351   2.203   5.123 -0.0441 -2.0313 -0.4814
45142SOL    HW238704   6.404   2.155   4.990  1.8800 -0.3247 -0.3787
45143SOL     OW38705   4.596   3.588  10.416  0.4717  0.3243 -0.7111
45143SOL    HW138706   4.527   3.522  10.407  1.3256 -0.6026 -0.6027
45143SOL    HW238707   4.677   3.540  10.398  1.1743  1.1643  0.1702
45144SOL     OW38708   1.886   3.800   0.215  0.5811  1.0014 -0.2036
45144SOL    HW138709   1.798   3.835   0.233 -0.0224 -0.2128 -0.6604
45144SOL    HW238710   1.886   3.714   0.256  1.1446  0.5103 -1.1900
45145SOL     OW38711  10.050   5.689   9.740  0.3028 -0.3428 -0.3648
45145SOL    HW138712  10.025   5.765   9.687 -1.7499 -1.1233 -0.6102
45145SOL    HW238713  10.059   5.725   9.828 -0.2802  0.2702 -0.5377
45146SOL     OW38714   9.790   4.087   2.933  0.1243  0.1350 -0.5724
45146SOL    HW138715   9.873   4.059   2.894 -0.2146 -0.0237 -1.2038
45146SOL    HW238716   9.727   4.020   2.905  0.3754 -1.6242  2.6521
45147SOL     OW38717   4.403   4.882   2.894  0.3526 -0.1189 -0.1697
45147SOL    HW138718   4.345   4.951   2.926 -0.6908 -0.6796 -0.7987
45147SOL    HW238719   4.352   4.802   2.903  1.1823 -0.6810 -0.3649
45148SOL     OW38720   1.038   8.595   4.996 -0.1598 -0.0721  0.3270
45148SOL    HW138721   1.094   8.642   4.934  3.3338 -0.8487  2.6279
45148SOL    HW238722   1.067   8.504   4.989 -3.1162 -1.0641 -0.2547
45149SOL     OW38723   6.326   5.835  11.135 -0.3755 -0.0861  0.3974
45149SOL    HW138724   6.248   5.890  11.125  0.0904  0.7418  1.1843
45149SOL    HW238725   6.356   5.819  11.045 -0.2049  1.4121  0.1573
45150SOL     OW38726  10.730   6.582  11.318 -0.6251  0.8623 -0.4340
45150SOL    HW138727  10.683   6.584  11.235 -0.3981 -0.9190 -0.6522
45150SOL    HW238728  10.675   6.530  11.376  0.0477  0.5788 -0.0324
45151SOL     OW38729   1.338   4.065   9.655 -0.7984 -0.2465 -0.1741
45151SOL    HW138730   1.273   4.077   9.724  0.6936  3.4373  0.8354
45151SOL    HW238731   1.340   4.149   9.609  1.4150 -1.1148 -1.8651
45152SOL     OW38732   6.827   0.954  10.316 -0.1277  0.1003  0.1447
45152SOL    HW138733   6.787   0.867  10.320  0.6350 -0.6898 -4.2418
45152SOL    HW238734   6.754   1.014  10.303 -0.3827 -0.5575 -1.6637
45153SOL     OW38735   6.807   5.658   1.640 -0.1082 -0.1955 -0.2678
45153SOL    HW138736   6.714   5.647   1.617  0.3098 -2.9148 -1.0083
45153SOL    HW238737   6.808   5.734   1.698 -2.5884  0.8370 -1.4070
45154SOL     OW38738   5.151   3.746   0.709 -0.8365  0.2629 -0.7476
45154SOL    HW138739   5.078   3.767   0.651  0.1938 -0.3697 -2.3324
45154SOL    HW238740   5.213   3.818   0.696 -0.2219 -0.3205 -1.1177
45155SOL     OW38741   1.867   8.173   9.663 -0.4767 -0.4795  0.1677
45155SOL    HW138742   1.797   8.232   9.637 -0.8660 -0.7964  0.4901
45155SOL    HW238743   1.831   8.123   9.736  0.5310  0.2418  1.1821
45156SOL     OW38744   8.768   3.135   7.573  0.1401 -0.1141 -0.1104
45156SOL    HW138745   8.686   3.094   7.547 -0.0500 -0.8253  1.4729
45156SOL    HW238746   8.820   3.138   7.493 -1.9704  1.8144 -1.5080
45157SOL     OW38747   7.091   1.251   2.964 -0.0495  0.1236 -0.2921
45157SOL    HW138748   7.124   1.162   2.948  1.1715  0.4807  0.1535
45157SOL    HW238749   7.013   1.238   3.018  0.0066 -0.6872 -0.3906
45158SOL     OW38750   4.026   6.754   0.301 -0.0071  0.5046 -0.2932
45158SOL    HW138751   4.053   6.788   0.386 -0.9460  0.3780  0.0697
45158SOL    HW238752   4.042   6.826   0.240 -0.7826  1.1579  0.2567
45159SOL     OW38753   9.815  10.864  11.109 -0.2000 -0.0794  0.0937
45159SOL    HW138754   9.748  10.859  11.041 -0.9916  1.2553  0.7304
45159SOL    HW238755   9.850  10.952  11.102  1.6843 -0.8248 -0.3677
45160SOL     OW38756   7.116   6.403   0.131 -0.3967  0.3796  0.6166
45160SOL    HW138757   7.178   6.458   0.083 -1.5892  0.1707 -1.2749
45160SOL    HW238758   7.160   6.319   0.140 -0.2671  0.3179 -0.4627
45161SOL     OW38759   5.946  10.932   0.340  0.3841  0.5239  0.5432
45161SOL    HW138760   5.959  11.001   0.276  0.1924  0.3048  0.2656
45161SOL    HW238761   5.895  10.973   0.410 -1.3815  0.1847 -0.4854
45162SOL     OW38762   1.116  11.190   9.051 -0.0906  0.4676  0.5408
45162SOL    HW138763   1.187  11.231   9.003 -1.0668 -0.4201 -1.8079
45162SOL    HW238764   1.152  11.106   9.081  0.2013  0.5480  0.4156
45163SOL     OW38765   0.410   6.171   5.687 -0.0169 -0.1052  0.2107
45163SOL    HW138766   0.410   6.263   5.714  2.8367 -0.3162  1.3402
45163SOL    HW238767   0.418   6.122   5.769 -0.7659 -1.3400 -0.4287
45164SOL     OW38768   9.717   9.892   4.053 -0.5003 -0.4272  0.3723
45164SOL    HW138769   9.668   9.856   3.980 -0.7045  1.1734 -0.3200
45164SOL    HW238770   9.769   9.963   4.014  0.7534 -0.7040  1.4636
45165SOL     OW38771   9.306   2.763   3.287 -0.0803  0.2595 -0.2174
45165SOL    HW138772   9.283   2.799   3.201 -2.2181  0.0362  0.1962
45165SOL    HW238773   9.261   2.678   3.291 -0.0582  0.2781  1.1281
45166SOL     OW38774   7.748   6.774   0.501 -0.1857  0.2151 -0.5411
45166SOL    HW138775   7.776   6.684   0.516 -0.9462 -0.1957 -1.4365
45166SOL    HW238776   7.676   6.788   0.563  0.1687  0.3300 -0.1545
45167SOL     OW38777   0.106   2.090  10.358 -0.1748 -0.1138 -0.0009
45167SOL    HW138778   0.085   2.038  10.435 -0.6373 -0.5280 -0.4021
45167SOL    HW238779   0.037   2.069  10.295 -0.3254  0.9189 -0.1960
45168SOL     OW38780   7.181   7.677   5.631  0.1632 -0.4660 -0.2579
45168SOL    HW138781   7.230   7.598   5.607  0.7143  0.2001 -1.4638
45168SOL    HW238782   7.239   7.723   5.692  0.9425  0.1519 -1.4135
45169SOL     OW38783   4.163   7.210   2.308 -0.5151  0.0478 -0.0865
45169SOL    HW138784   4.093   7.150   2.280 -1.2170  0.5066  0.6331
45169SOL    HW238785   4.150   7.218   2.402 -0.3769  1.2644 -0.1631
45170SOL     OW38786  10.597   2.504   6.253  0.4190 -0.1070  0.0603
45170SOL    HW138787  10.642   2.505   6.169  1.2671  2.1694  0.4643
45170SOL    HW238788  10.504   2.507   6.229  0.6587  1.6812 -0.8705
45171SOL     OW38789   6.705   9.116   7.361 -0.5775  0.1276  0.6504
45171SOL    HW138790   6.611   9.119   7.343 -0.6950 -0.2779  1.1842
45171SOL    HW238791   6.711   9.128   7.456 -0.1865 -1.3213  0.8261
45172SOL     OW38792   2.948   4.676  10.503  0.4007  0.1300 -0.3025
45172SOL    HW138793   2.861   4.648  10.475  1.0109 -1.0009 -1.1142
45172SOL    HW238794   2.943   4.771  10.504 -0.7750  0.0882 -0.5567
45173SOL     OW38795   6.422   3.557  10.443  0.1101 -0.2250  0.4019
45173SOL    HW138796   6.472   3.633  10.412 -0.9070 -0.2258 -1.4133
45173SOL    HW238797   6.332   3.588  10.448 -0.6041 -1.6270 -1.9353
45174SOL     OW38798   3.094  10.722   3.833 -0.4720  0.6963 -0.4028
45174SOL    HW138799   3.146  10.800   3.813 -0.3136  0.1065 -2.4282
45174SOL    HW238800   3.006  10.755   3.850 -0.1217  1.4185  0.0908
45175SOL     OW38801   5.617  10.479  10.023  0.2758 -0.1850  0.2448
45175SOL    HW138802   5.572  10.407  10.066  1.2621 -0.4064  0.9117
45175SOL    HW238803   5.690  10.438   9.977  1.0321  0.4193  0.8949
45176SOL     OW38804  10.689   3.648  11.185  0.0289  0.1466 -0.4337
45176SOL    HW138805  10.665   3.564  11.225 -0.6633  0.8780  0.7092
45176SOL    HW238806  10.649   3.645  11.098  0.1876 -0.7927 -0.4839
45177SOL     OW38807   9.805   3.634   4.194  0.0074  0.1536  0.4212
45177SOL    HW138808   9.749   3.707   4.167  0.8217  0.7297  0.2428
45177SOL    HW238809   9.864   3.619   4.120 -1.7121 -2.3408 -0.5651
45178SOL     OW38810   4.341   8.343   7.656 -0.4959  0.3688  0.2927
45178SOL    HW138811   4.300   8.320   7.739 -3.0486 -0.6629 -1.1303
45178SOL    HW238812   4.300   8.427   7.632  0.0277  0.5307 -0.0447
45179SOL     OW38813   0.658  10.519   7.836  0.0292  0.2815  0.5055
45179SOL    HW138814   0.664  10.606   7.798  1.0408  0.3747  0.8418
45179SOL    HW238815   0.565  10.504   7.850 -0.0598  2.2717  2.6164
45180SOL     OW38816   2.243   9.109   2.781 -0.0844 -0.1160 -0.8998
45180SOL    HW138817   2.306   9.154   2.724  0.2823  0.6284  0.0634
45180SOL    HW238818   2.276   9.124   2.870 -1.7207  0.4517 -0.3511
45181SOL     OW38819   8.272   0.104   8.995  0.4526 -0.0721 -0.2581
45181SOL    HW138820   8.348   0.055   8.964 -1.2868 -1.8999 -1.9164
45181SOL    HW238821   8.240   0.054   9.070  1.0818  0.9088  0.6803
45182SOL     OW38822   0.507  10.342   5.525 -0.1805  0.3323 -0.0167
45182SOL    HW138823   0.595  10.367   5.554  0.0280  0.0994 -0.4309
45182SOL    HW238824   0.458  10.425   5.523  0.2199  0.5664 -0.4047
45183SOL     OW38825   5.056   4.956   2.727 -0.2373 -0.5119  0.0995
45183SOL    HW138826   5.051   5.040   2.682 -1.0115 -0.0023  1.1080
45183SOL    HW238827   4.999   4.965   2.803  0.1247 -1.7509  0.5530
45184SOL     OW38828   6.538   5.267   2.966 -0.0797 -0.2995 -0.4084
45184SOL    HW138829   6.569   5.179   2.987  1.2001 -0.6589 -3.3672
45184SOL    HW238830   6.443   5.259   2.964 -0.0264 -1.3275  0.3419
45185SOL     OW38831   8.459   0.699   1.261  0.0184  0.1624 -0.6931
45185SOL    HW138832   8.550   0.704   1.291 -0.0852  0.2479 -0.3983
45185SOL    HW238833   8.466   0.693   1.165  0.3041  1.2800 -0.7587
45186SOL     OW38834   0.740   6.389   3.115 -0.4550 -0.2743 -0.1979
45186SOL    HW138835   0.713   6.322   3.051  0.9246 -1.3358  0.2906
45186SOL    HW238836   0.835   6.394   3.106 -0.3155  0.0880  1.2459
45187SOL     OW38837   1.228   7.806  10.540 -0.5028 -0.4349 -0.2231
45187SOL    HW138838   1.199   7.885  10.494 -0.4503 -0.3734 -0.1521
45187SOL    HW238839   1.282   7.759  10.477  2.1774  1.1735  0.7179
45188SOL     OW38840  10.517   7.830   0.347  0.1538 -0.0484  0.0898
45188SOL    HW138841  10.518   7.825   0.251 -0.4993 -1.2751  0.1343
45188SOL    HW238842  10.557   7.915   0.366 -1.4608  1.0982 -1.3169
45189SOL     OW38843   6.332   0.399  10.705 -0.5603 -0.2924 -0.0985
45189SOL    HW138844   6.249   0.406  10.658  0.7102 -1.5160 -2.7338
45189SOL    HW238845   6.380   0.479  10.681 -0.0543 -0.7417 -0.6225
45190SOL     OW38846   4.337   5.754   8.536  0.1150  0.5360 -0.2397
45190SOL    HW138847   4.304   5.771   8.624 -2.9991 -1.7686 -0.7885
45190SOL    HW238848   4.281   5.808   8.480 -2.8744 -3.1590 -1.1805
45191SOL     OW38849   8.316   1.602   6.436  0.8313  0.1623 -0.3033
45191SOL    HW138850   8.316   1.682   6.384 -0.0516  0.9864  0.9134
45191SOL    HW238851   8.225   1.572   6.434  0.3812  1.1467  2.0750
45192SOL     OW38852   6.828   3.538  10.423 -0.4023 -0.4255  0.1356
45192SOL    HW138853   6.917   3.566  10.440 -0.3083 -0.9983  0.6305
45192SOL    HW238854   6.774   3.593  10.480 -0.3296 -0.3843  0.1645
45193SOL     OW38855   7.472   4.439   0.988  0.4333 -0.3199  0.2663
45193SOL    HW138856   7.417   4.388   1.048 -0.4688  1.2302  0.8087
45193SOL    HW238857   7.522   4.373   0.940 -1.3178 -1.7508  0.3224
45194SOL     OW38858   5.666   0.248   5.918 -0.0624  0.5621 -0.0630
45194SOL    HW138859   5.742   0.253   5.860 -0.2152  1.2173 -0.2117
45194SOL    HW238860   5.624   0.334   5.911  0.4975  1.0351  1.8125
45195SOL     OW38861   8.389  10.723   4.318 -0.6554 -0.1130  0.2753
45195SOL    HW138862   8.415  10.631   4.313 -0.8549 -0.1750  0.3476
45195SOL    HW238863   8.470  10.770   4.335 -0.0615  0.0086 -2.4420
45196SOL     OW38864   6.671   6.047  11.209 -0.0607 -0.0477  0.3870
45196SOL    HW138865   6.635   6.091  11.131 -1.9057  0.6680  1.5757
45196SOL    HW238866   6.621   5.965  11.215 -1.1228  0.6672  1.7160
45197SOL     OW38867   4.100   0.648   7.870  0.6612  0.6273 -0.0303
45197SOL    HW138868   4.187   0.617   7.846 -0.2227 -0.2940 -2.2594
45197SOL    HW238869   4.112   0.742   7.883  2.1938  0.3481  0.8733
45198SOL     OW38870   2.928   4.957   6.816  0.0836 -0.6305 -0.7460
45198SOL    HW138871   2.972   4.889   6.868 -0.2948 -0.1975  0.1799
45198SOL    HW238872   2.837   4.955   6.847  0.1886  0.6775 -0.2740
45199SOL     OW38873   7.493   2.239   9.862 -0.4666 -0.5560 -0.5427
45199SOL    HW138874   7.574   2.207   9.822  0.1866  1.2443 -0.7664
45199SOL    HW238875   7.522   2.288   9.939 -1.5891 -2.3954  1.1426
45200SOL     OW38876   2.096   6.424   6.259  0.5380 -0.2002 -0.6297
45200SOL    HW138877   2.108   6.452   6.168  0.6149 -1.2005 -0.9322
45200SOL    HW238878   2.023   6.363   6.256  1.9357 -1.9642 -0.3949
45201SOL     OW38879   8.045   4.188   9.443  0.0624 -0.2138 -0.1412
45201SOL    HW138880   7.953   4.199   9.423  0.3420  0.7707 -0.9553
45201SOL    HW238881   8.076   4.122   9.381 -0.2556 -1.1918  0.6973
45202SOL     OW38882   4.300   8.393   5.839  1.0175  0.0414  0.0145
45202SOL    HW138883   4.303   8.484   5.810 -0.8749  1.1327  2.8570
45202SOL    HW238884   4.339   8.394   5.926  1.1004 -1.9336  0.0461
45203SOL     OW38885   3.307   2.682   7.579 -0.1779  0.6122  0.6249
45203SOL    HW138886   3.361   2.631   7.518  0.4781  2.0862 -0.0754
45203SOL    HW238887   3.314   2.772   7.548 -1.4018  1.1358  1.7569
45204SOL     OW38888  10.677   3.235   0.676  0.2505  0.2306  0.1688
45204SOL    HW138889  10.610   3.185   0.723 -1.7603  1.2008 -1.4899
45204SOL    HW238890  10.664   3.212   0.584  0.7671  2.0393 -0.4075
45205SOL     OW38891   6.591   7.504   8.358  0.7182  0.3866 -0.0331
45205SOL    HW138892   6.601   7.511   8.453 -1.2746 -1.5581  0.4042
45205SOL    HW238893   6.586   7.410   8.342 -1.2233  0.7408 -1.7660
45206SOL     OW38894   7.764   5.765   4.373  0.2407  0.6217 -0.3967
45206SOL    HW138895   7.734   5.809   4.453 -0.0597  0.4484 -0.4095
45206SOL    HW238896   7.686   5.762   4.317  0.5739  1.1664 -0.8903
45207SOL     OW38897   2.614   7.879   9.241  0.1204 -0.1247 -0.1079
45207SOL    HW138898   2.616   7.949   9.176 -1.7405  0.0162 -0.0585
45207SOL    HW238899   2.648   7.919   9.321 -1.3426  0.8952  0.0442
45208SOL     OW38900  10.081   0.158   5.040 -0.2443 -0.0105  0.3424
45208SOL    HW138901  10.140   0.204   5.099 -1.3054  1.6906  0.1597
45208SOL    HW238902   9.994   0.193   5.062 -0.7927 -0.1299 -1.4716
45209SOL     OW38903   4.198   0.623   6.557 -0.1251  0.5178  0.1100
45209SOL    HW138904   4.272   0.666   6.513  0.0126  0.8092  0.6239
45209SOL    HW238905   4.125   0.634   6.496  0.3555 -0.1551 -0.5995
45210SOL     OW38906   8.527   4.353  11.091  0.3825 -0.5793  0.2921
45210SOL    HW138907   8.486   4.339  11.005 -0.2983 -1.2770  0.7081
45210SOL    HW238908   8.610   4.306  11.086  0.2370 -0.8161  0.0929
45211SOL     OW38909   3.090  10.815   9.709  0.5238  0.1641  0.4074
45211SOL    HW138910   3.123  10.835   9.622 -1.7581  0.5968 -0.4437
45211SOL    HW238911   3.066  10.901   9.745  0.5581 -0.0986  1.0621
45212SOL     OW38912   9.656   2.322   7.904  0.1759  0.0555  0.0608
45212SOL    HW138913   9.635   2.329   7.811 -0.0450  0.9356  0.1677
45212SOL    HW238914   9.694   2.407   7.927 -0.5037  0.1369  0.9586
45213SOL     OW38915  10.611   5.365   0.832 -0.1287  0.1121 -0.2795
45213SOL    HW138916  10.597   5.398   0.921 -3.5400  0.1577 -0.6906
45213SOL    HW238917  10.696   5.401   0.806  0.7095  0.5841  2.6986
45214SOL     OW38918  10.811   7.259   1.391  0.6506 -0.2285 -0.0081
45214SOL    HW138919  10.724   7.296   1.409  0.1409 -1.0395 -0.6967
45214SOL    HW238920  10.834   7.293   1.304 -0.0685 -1.8619 -0.9033
45215SOL     OW38921   5.724   3.829   3.619  0.1677  0.3225  0.1717
45215SOL    HW138922   5.671   3.888   3.671 -0.0509 -0.1015  0.4375
45215SOL    HW238923   5.663   3.762   3.588  0.7300 -0.9099  1.5601
45216SOL     OW38924   0.994   9.817  10.850 -0.0051  0.3437 -0.2794
45216SOL    HW138925   1.090   9.823  10.853 -0.0132  0.4171 -0.1875
45216SOL    HW238926   0.964   9.889  10.904 -0.1401  1.3709 -1.6612
45217SOL     OW38927  11.007   1.403   0.810 -0.0800  0.0395 -0.2381
45217SOL    HW138928  11.064   1.347   0.758  0.8867 -1.4156  2.2083
45217SOL    HW238929  11.066   1.467   0.850 -0.5671  0.2485  0.1577
45218SOL     OW38930   9.748   7.222   0.154 -0.1185 -0.0613 -0.2033
45218SOL    HW138931   9.657   7.231   0.183  0.2033 -0.1228  0.8501
45218SOL    HW238932   9.749   7.140   0.105 -0.6278 -0.0598 -0.2229
45219SOL     OW38933   8.378   5.367   9.305  0.4104 -0.2725 -0.1319
45219SOL    HW138934   8.321   5.439   9.278  0.1120  0.1278  1.4872
45219SOL    HW238935   8.357   5.296   9.243 -0.3445  0.5333 -0.8361
45220SOL     OW38936   6.780   2.838   7.677  0.0152 -0.5130  0.0125
45220SOL    HW138937   6.867   2.863   7.644  0.1996 -0.7392  0.3246
45220SOL    HW238938   6.720   2.896   7.630  0.3320 -0.3670 -0.2228
45221SOL     OW38939   8.238   2.547   5.308 -0.0221  0.2227  0.5467
45221SOL    HW138940   8.313   2.591   5.348  0.5619  0.1443 -0.4196
45221SOL    HW238941   8.198   2.498   5.380  0.5530  0.6662  1.1891
45222SOL     OW38942   4.400   3.972   9.347  0.0824  0.3350  0.1525
45222SOL    HW138943   4.348   3.892   9.345  0.9370 -0.2281  0.0333
45222SOL    HW238944   4.385   4.012   9.261  0.6298 -0.3447 -0.2716
45223SOL     OW38945   0.518   9.067   2.385  0.2416  0.6925 -0.6509
45223SOL    HW138946   0.575   8.994   2.408 -0.2250  0.6343  0.3868
45223SOL    HW238947   0.537   9.085   2.293  0.3983 -0.6968 -0.9064
45224SOL     OW38948   4.489   2.419   3.905 -0.9367 -0.1406  0.1644
45224SOL    HW138949   4.477   2.343   3.962  1.3212 -0.2279  0.6090
45224SOL    HW238950   4.554   2.473   3.950 -1.1576  1.1578 -1.0216
45225SOL     OW38951   9.017   9.074   3.339 -0.3763 -0.0928 -0.1955
45225SOL    HW138952   8.995   8.993   3.386 -2.1303 -0.1821 -1.0681
45225SOL    HW238953   9.041   9.136   3.407  3.2892 -1.8861  0.4071
45226SOL     OW38954   0.572   6.431   3.895  0.0022 -0.4107  0.3763
45226SOL    HW138955   0.633   6.410   3.825  0.6919  1.9024  0.1940
45226SOL    HW238956   0.518   6.353   3.905  1.2908 -1.5625 -1.2520
45227SOL     OW38957   4.468  10.129   0.957 -0.6106  0.3809  0.2451
45227SOL    HW138958   4.406  10.115   0.885  0.4199  1.7802 -0.9864
45227SOL    HW238959   4.422  10.189   1.016 -1.0339  0.1426  0.1624
45228SOL     OW38960   2.208   3.176   9.241 -0.2575 -0.0181 -0.9843
45228SOL    HW138961   2.177   3.188   9.152 -0.5126  0.7163 -0.8021
45228SOL    HW238962   2.282   3.237   9.249 -1.2738  1.1499 -0.1886
45229SOL     OW38963   3.589   7.769   3.957 -0.4638  0.2474  0.6265
45229SOL    HW138964   3.512   7.721   3.987  0.2652 -0.2594  1.7439
45229SOL    HW238965   3.569   7.861   3.978 -1.3676  0.3182 -0.4548
45230SOL     OW38966   5.074   9.526   7.127 -0.1241 -0.2835  0.1159
45230SOL    HW138967   5.078   9.432   7.112  0.5444  0.0557 -2.0264
45230SOL    HW238968   5.111   9.566   7.049 -1.6213  1.8129  0.3676
45231SOL     OW38969   5.145   6.684   9.919  0.1919  0.0637  0.4706
45231SOL    HW138970   5.180   6.759   9.968  1.9359 -0.9879  0.9376
45231SOL    HW238971   5.202   6.676   9.843 -0.0300 -0.7189  0.3778
45232SOL     OW38972   9.752   7.775   1.680  0.0576 -0.2903 -0.0943
45232SOL    HW138973   9.670   7.725   1.675 -0.1457  0.1492 -1.6657
45232SOL    HW238974   9.731   7.849   1.738 -0.5700 -0.3632 -0.2173
45233SOL     OW38975   0.556   3.506   1.060 -0.3211 -0.2512  0.2700
45233SOL    HW138976   0.576   3.599   1.053 -1.3039 -0.0203  0.3549
45233SOL    HW238977   0.641   3.463   1.068  0.1274  0.6624  0.4805
45234SOL     OW38978   9.015   9.830   6.032  0.4705 -0.2720  0.0346
45234SOL    HW138979   8.968   9.765   6.085  1.9637 -1.7522 -0.3669
45234SOL    HW238980   9.064   9.779   5.968 -0.6131  1.4234 -2.3145
45235SOL     OW38981   6.438   1.060   6.096 -0.1043 -0.7186 -0.2124
45235SOL    HW138982   6.354   1.016   6.090 -1.4726  1.4556  1.3090
45235SOL    HW238983   6.437   1.100   6.183  0.8091  2.5504 -1.5647
45236SOL     OW38984   6.238   5.236   0.824 -0.4672 -0.4661 -0.4193
45236SOL    HW138985   6.148   5.206   0.810 -1.7105  2.7356 -0.0581
45236SOL    HW238986   6.287   5.198   0.752 -1.9270 -2.7875 -0.2951
45237SOL     OW38987   0.102   7.789   2.355 -0.5796 -0.0239  0.1656
45237SOL    HW138988   0.146   7.871   2.380  0.6018 -0.3531 -0.7806
45237SOL    HW238989   0.009   7.808   2.368 -0.2983  1.3103  0.4346
45238SOL     OW38990   1.426   1.683   8.103 -0.1155 -0.2774 -0.0358
45238SOL    HW138991   1.481   1.627   8.158 -0.8816 -1.5226 -0.4743
45238SOL    HW238992   1.337   1.664   8.133 -0.4631 -0.1318 -0.9398
45239SOL     OW38993   9.298   5.291   8.129  0.5682 -0.8009  0.3500
45239SOL    HW138994   9.205   5.294   8.152  0.4505  1.3015 -0.1790
45239SOL    HW238995   9.300   5.249   8.043  0.1666 -1.1524  0.5056
45240SOL     OW38996  10.877   2.185   4.521 -0.2581 -0.4229 -0.4067
45240SOL    HW138997  10.901   2.267   4.477 -0.6461 -0.4866 -0.7486
45240SOL    HW238998  10.928   2.118   4.476  0.4459 -0.3085  0.2133
45241SOL     OW38999   4.050   5.647   8.306  0.3017  0.6400  0.9822
45241SOL    HW139000   4.087   5.691   8.382  1.1756 -0.5615  1.2793
45241SOL    HW239001   3.974   5.599   8.340 -0.5761  1.7569  0.6805
45242SOL     OW39002   3.958   1.408   3.191  0.1629 -0.3492 -0.0120
45242SOL    HW139003   3.963   1.440   3.281 -1.6398  0.3635 -0.1192
45242SOL    HW239004   4.014   1.468   3.142 -0.0755  0.2382  0.4081
45243SOL     OW39005   4.686  10.140   4.890 -0.1538  0.0171  0.9569
45243SOL    HW139006   4.643  10.202   4.831 -2.0483  0.2767  2.5119
45243SOL    HW239007   4.774  10.175   4.902  0.4557 -0.2305 -1.9106
45244SOL     OW39008   8.712  10.678   1.971  0.1540 -0.0387 -0.2696
45244SOL    HW139009   8.630  10.664   1.924  0.6278 -1.8788 -0.6394
45244SOL    HW239010   8.717  10.773   1.983 -1.1769  0.2706 -1.7694
45245SOL     OW39011   1.551   8.024   8.206  0.0323  0.3791  0.0961
45245SOL    HW139012   1.593   8.014   8.291  0.5479 -0.1237 -0.2139
45245SOL    HW239013   1.461   7.995   8.220  0.2654 -0.2310  0.3375
45246SOL     OW39014   3.556   5.648   9.767  0.4755  0.4485 -0.1434
45246SOL    HW139015   3.563   5.560   9.730  0.3307 -0.3194  1.5770
45246SOL    HW239016   3.605   5.644   9.849  2.5472  2.6538 -1.1252
45247SOL     OW39017   3.919   7.793   8.906  0.0035  0.0649 -0.2498
45247SOL    HW139018   3.882   7.730   8.843  1.3271 -0.3693 -0.6321
45247SOL    HW239019   4.013   7.792   8.888  0.1547  1.5072  0.3465
45248SOL     OW39020   1.718   2.382  10.977  0.0131 -0.2799  0.1366
45248SOL    HW139021   1.746   2.330  11.052 -1.4556 -0.3551  0.6591
45248SOL    HW239022   1.762   2.342  10.902 -0.4572 -1.7760  0.6337
45249SOL     OW39023   4.721   4.268   9.374  0.1627  0.3768 -0.5030
45249SOL    HW139024   4.723   4.281   9.469 -0.5429  1.3180 -0.5934
45249SOL    HW239025   4.715   4.174   9.363 -0.8447  0.3075  0.4250
45250SOL     OW39026   4.372   3.914   6.355  0.2183 -0.3571  0.1859
45250SOL    HW139027   4.409   3.994   6.393  0.7907 -1.3727  1.8710
45250SOL    HW239028   4.306   3.945   6.294  1.2220  1.4311 -0.0602
45251SOL     OW39029   8.339   5.639   7.677 -0.5551 -0.5102 -0.6495
45251SOL    HW139030   8.258   5.615   7.632  0.8672 -1.8992 -2.6390
45251SOL    HW239031   8.378   5.707   7.622  0.1297 -0.5702 -0.2536
45252SOL     OW39032  10.114   2.190   9.256 -0.1805 -0.2954 -0.4777
45252SOL    HW139033  10.126   2.271   9.305 -1.5732 -0.1205 -0.3637
45252SOL    HW239034  10.045   2.143   9.304  2.1557 -2.6612  0.7948
45253SOL     OW39035   6.663   0.500   6.380 -0.3740 -0.6173  0.7111
45253SOL    HW139036   6.736   0.466   6.328 -0.0625  1.4947 -0.3492
45253SOL    HW239037   6.586   0.454   6.347  0.5431 -4.5281  3.3164
45254SOL     OW39038   3.355   7.591   1.282  0.0288  0.3618 -0.6683
45254SOL    HW139039   3.348   7.605   1.377 -0.6468  1.0540 -0.8102
45254SOL    HW239040   3.264   7.578   1.253  0.1910  0.5800 -1.2849
45255SOL     OW39041   4.875   3.380   3.706 -0.0819  0.2008 -0.3531
45255SOL    HW139042   4.809   3.445   3.731 -1.8651 -1.6557  0.1015
45255SOL    HW239043   4.841   3.343   3.624  0.9530 -0.0917 -0.6606
45256SOL     OW39044   4.370  10.424   2.330 -0.4636 -0.0348  0.3129
45256SOL    HW139045   4.427  10.487   2.285  2.8007 -0.6335  3.1924
45256SOL    HW239046   4.371  10.347   2.273  1.3735  0.1125  0.0765
45257SOL     OW39047   0.452   6.806   0.085 -0.2570 -0.1992 -0.1936
45257SOL    HW139048   0.450   6.893   0.045  0.1527 -0.4418 -0.7645
45257SOL    HW239049   0.469   6.746   0.011  0.1396 -0.6961  0.2871
45258SOL     OW39050   5.788   0.584  10.517  0.5900  0.2451 -0.2139
45258SOL    HW139051   5.694   0.572  10.504  0.4092  1.8990 -0.7595
45258SOL    HW239052   5.795   0.644  10.591  1.1831  0.5819 -0.5304
45259SOL     OW39053   1.863  11.380   6.636 -0.2056 -0.3766 -0.3844
45259SOL    HW139054   1.885  11.365   6.544  2.3642  0.8840 -0.0549
45259SOL    HW239055   1.836  11.471   6.641 -1.8676 -0.8470 -0.0904
45260SOL     OW39056   9.103  10.602   6.776  0.0775  0.1770  0.0587
45260SOL    HW139057   9.161  10.619   6.849 -1.5222  0.7461  1.2490
45260SOL    HW239058   9.056  10.522   6.800 -0.8295  0.6504 -0.0782
45261SOL     OW39059   4.051   6.497   1.499 -0.4893  0.4969 -0.0917
45261SOL    HW139060   4.018   6.408   1.512 -1.2694  0.7797 -0.0755
45261SOL    HW239061   4.136   6.485   1.456  0.3831 -0.3189  1.7621
45262SOL     OW39062   8.120   0.473  10.634 -0.0317  0.1413 -0.0187
45262SOL    HW139063   8.181   0.439  10.700 -1.1844 -0.8428  0.5908
45262SOL    HW239064   8.154   0.559  10.611 -0.4511  1.2704  3.0837
45263SOL     OW39065   1.327   6.098   2.548  0.3049  0.0941  0.3866
45263SOL    HW139066   1.404   6.136   2.590 -0.3288  1.0651  0.7046
45263SOL    HW239067   1.260   6.167   2.553 -0.1303 -0.1556 -1.2414
45264SOL     OW39068   0.950   3.229  10.572 -0.1582 -0.0233 -0.1723
45264SOL    HW139069   0.980   3.141  10.549 -2.1577 -0.8028  0.0767
45264SOL    HW239070   0.971   3.238  10.665 -2.0904 -1.2142  0.4289
45265SOL     OW39071   4.026  10.249   1.466 -0.0597  0.0260 -0.3307
45265SOL    HW139072   3.932  10.228   1.468 -0.6373  2.3669  0.8522
45265SOL    HW239073   4.063  10.203   1.541 -0.9470  1.6440  1.1665
45266SOL     OW39074   4.418   2.422   6.357  0.3932  0.3258  0.7537
45266SOL    HW139075   4.433   2.478   6.281  0.6606  2.1306  2.0571
45266SOL    HW239076   4.329   2.442   6.385  0.3674 -0.1610  1.0414
45267SOL     OW39077   6.853   9.205   9.811 -0.4761  0.3493  0.0663
45267SOL    HW139078   6.911   9.163   9.748  1.1471  1.3422  0.8167
45267SOL    HW239079   6.857   9.148   9.888 -0.4498  0.4494  0.1391
45268SOL     OW39080   0.947   6.931   6.502  0.0262 -0.1346 -0.4619
45268SOL    HW139081   0.888   6.942   6.577  0.0120  0.9252 -0.6162
45268SOL    HW239082   1.025   6.890   6.539 -0.1882 -0.0932  0.0402
45269SOL     OW39083   5.438   9.813   4.269 -0.2342  0.0104  0.3084
45269SOL    HW139084   5.367   9.794   4.330  0.3183  1.1701  1.3450
45269SOL    HW239085   5.394   9.838   4.188 -1.0314  0.7953  0.9672
45270SOL     OW39086   1.568   8.409   7.698  0.3559 -0.2811 -0.8278
45270SOL    HW139087   1.586   8.424   7.790  1.8508  1.6845 -1.3816
45270SOL    HW239088   1.492   8.464   7.679  1.1801  0.7921 -1.1401
45271SOL     OW39089   9.525   7.718   0.066 -0.0383 -0.0681 -0.4553
45271SOL    HW139090   9.453   7.682   0.014  0.2624  0.2985 -1.1397
45271SOL    HW239091   9.567   7.782   0.008  1.2312 -0.7329 -0.3034
45272SOL     OW39092   9.192   5.645   9.005  0.0524  0.3999  0.2834
45272SOL    HW139093   9.121   5.604   8.957  0.4322 -0.7305  0.6550
45272SOL    HW239094   9.150   5.683   9.083 -0.9923  4.3711 -1.9369
45273SOL     OW39095   7.596   3.245   9.318 -0.8270  0.5364  0.1754
45273SOL    HW139096   7.516   3.210   9.280 -1.2705  1.7135 -0.0156
45273SOL    HW239097   7.627   3.310   9.254 -0.5914  1.2179  0.9620
45274SOL     OW39098   1.902   4.291   3.965 -0.0467  0.3561 -0.0977
45274SOL    HW139099   1.974   4.347   3.993 -0.4681  0.0628  1.6872
45274SOL    HW239100   1.944   4.212   3.932  0.4842  0.7333 -0.3349
45275SOL     OW39101   2.169   1.888   6.215 -0.2180 -0.1625 -0.1495
45275SOL    HW139102   2.222   1.809   6.202 -0.2123 -0.1364 -0.2902
45275SOL    HW239103   2.139   1.911   6.127  2.2916  1.7684 -0.6155
45276SOL     OW39104   2.201   6.034   1.249 -0.4575 -0.2672  0.2317
45276SOL    HW139105   2.106   6.029   1.248 -0.4060 -1.8418  0.3565
45276SOL    HW239106   2.223   6.101   1.184 -1.6506  0.4529  0.5441
45277SOL     OW39107   3.578   5.744   5.071  0.5266 -0.5773 -0.1985
45277SOL    HW139108   3.576   5.808   5.142  0.5372  0.4313 -1.0790
45277SOL    HW239109   3.539   5.790   4.996 -1.3133 -2.2601 -0.3582
45278SOL     OW39110   8.206   1.496   6.096  0.3929  0.1728 -1.1757
45278SOL    HW139111   8.276   1.561   6.102 -1.1039  1.7542  1.1699
45278SOL    HW239112   8.248   1.412   6.115  2.1414  0.5916 -2.9211
45279SOL     OW39113  10.089   7.714   1.992 -0.0522  0.3165  0.4837
45279SOL    HW139114  10.024   7.649   2.017  0.8862 -0.2813  1.4574
45279SOL    HW239115  10.047   7.765   1.923 -1.1572 -0.7130  0.3666
45280SOL     OW39116  10.097  11.235   9.225  0.1094 -0.5615  0.4471
45280SOL    HW139117  10.099  11.329   9.206 -1.5153 -0.5648  0.1126
45280SOL    HW239118  10.128  11.228   9.315 -0.9005  0.4477  0.8945
45281SOL     OW39119   0.640   0.886   7.115  0.0544 -0.4986  0.5060
45281SOL    HW139120   0.583   0.946   7.068  0.9030  0.5146  0.7425
45281SOL    HW239121   0.705   0.858   7.050 -1.3008 -2.5438 -0.0859
45282SOL     OW39122  10.743   3.939   2.015  0.0217 -0.5069  0.0385
45282SOL    HW139123  10.663   3.926   2.065 -0.0324  0.2602  0.1740
45282SOL    HW239124  10.729   4.022   1.969  1.0564  0.0690  0.7116
45283SOL     OW39125   5.460   6.987   3.862  0.0325 -0.2927  0.5032
45283SOL    HW139126   5.467   6.990   3.767  2.1342 -1.7836  0.5219
45283SOL    HW239127   5.473   6.894   3.884 -0.3957  0.0230  2.2359
45284SOL     OW39128   3.526   5.932   4.055  0.3026  0.2080 -0.1092
45284SOL    HW139129   3.536   5.839   4.035 -0.2108  0.0578  0.2993
45284SOL    HW239130   3.524   5.936   4.150  0.3020  0.6368 -0.1255
45285SOL     OW39131   5.313   0.495  10.081  0.2155  0.9046  0.1817
45285SOL    HW139132   5.355   0.492   9.995  1.0409  0.9596  0.5802
45285SOL    HW239133   5.306   0.588  10.101  0.0521  0.8910  0.1890
45286SOL     OW39134   4.442   5.471   0.998 -0.0375  0.2628  0.5188
45286SOL    HW139135   4.478   5.422   0.925 -0.8088 -0.1518  0.3970
45286SOL    HW239136   4.515   5.521   1.033  0.0812  1.4851 -1.3397
45287SOL     OW39137   3.832   5.714   6.556 -0.4472 -0.1056 -0.3092
45287SOL    HW139138   3.860   5.624   6.541 -0.4130  0.1116 -1.6034
45287SOL    HW239139   3.848   5.759   6.473  0.0707  1.2423  0.4862
45288SOL     OW39140   0.486   3.541   2.055  0.2919 -0.1232 -0.2593
45288SOL    HW139141   0.513   3.484   2.126  0.0874 -0.8813 -0.7840
45288SOL    HW239142   0.406   3.502   2.021 -0.0627  0.6807 -0.3893
45289SOL     OW39143   9.278   1.991   0.135  0.0322  0.2467  0.0511
45289SOL    HW139144   9.307   1.987   0.044 -0.2583 -0.5440 -0.0185
45289SOL    HW239145   9.189   2.026   0.130  0.5780  1.7123  0.1786
45290SOL     OW39146   3.370   5.814   5.856 -0.3076  0.1659  0.3042
45290SOL    HW139147   3.434   5.749   5.887 -1.9590 -1.0123  1.3817
45290SOL    HW239148   3.345   5.861   5.935 -2.7216 -1.2011  0.4387
45291SOL     OW39149   0.409   0.559   0.122 -0.2404 -0.1390 -0.1513
45291SOL    HW139150   0.454   0.619   0.061 -1.3853  0.9885  0.0637
45291SOL    HW239151   0.360   0.500   0.065 -0.0752 -0.0814 -0.3544
45292SOL     OW39152   8.807   3.928   4.142 -0.1378  0.6330 -0.0327
45292SOL    HW139153   8.796   3.958   4.052 -0.5386 -1.1986 -0.6500
45292SOL    HW239154   8.724   3.886   4.164  0.2941  0.1953  0.8315
45293SOL     OW39155   8.593  10.854   3.875  0.0101  0.0453  0.3056
45293SOL    HW139156   8.640  10.773   3.893  1.7111  1.1010  0.8346
45293SOL    HW239157   8.533  10.864   3.950 -1.7125 -1.6990 -0.7569
45294SOL     OW39158   5.172   2.552   6.985 -0.3981  0.0137 -0.2869
45294SOL    HW139159   5.148   2.543   6.893  0.4962 -0.1361 -0.5133
45294SOL    HW239160   5.194   2.464   7.013 -0.7994  0.0377  0.1128
45295SOL     OW39161   1.308   7.007   3.558 -0.0887  0.4114  0.1196
45295SOL    HW139162   1.401   7.008   3.539  0.2241  0.8496  1.5517
45295SOL    HW239163   1.279   7.097   3.542 -0.2418  0.3040 -0.2110
45296SOL     OW39164   0.199   9.000  11.131  0.1151  0.5515  0.3857
45296SOL    HW139165   0.125   8.945  11.157  0.2806 -0.5163 -1.2294
45296SOL    HW239166   0.254   9.005  11.209 -0.7462 -0.1710  1.0593
45297SOL     OW39167   3.199   2.975  10.696  0.1001  0.1194  0.5032
45297SOL    HW139168   3.235   3.034  10.761 -0.7448  0.1912  0.9199
45297SOL    HW239169   3.122   2.936  10.738  0.5760 -1.2170  0.2081
45298SOL     OW39170   8.382   6.475   7.016 -0.1509 -0.1551 -0.3237
45298SOL    HW139171   8.385   6.533   6.940 -0.9125  0.4049  0.0526
45298SOL    HW239172   8.290   6.448   7.021 -0.1690  0.0523  0.5654
45299SOL     OW39173  10.366   6.625   5.673 -0.0152  0.0584 -0.3540
45299SOL    HW139174  10.421   6.691   5.630  0.3673 -0.6987 -1.0593
45299SOL    HW239175  10.406   6.614   5.759  0.8611 -0.3519 -0.7934
45300SOL     OW39176   3.155   2.949   8.665  0.7413  0.2307  0.4168
45300SOL    HW139177   3.133   2.893   8.590  2.3768 -1.2602  0.9862
45300SOL    HW239178   3.143   2.893   8.741  0.5676  1.2684  1.1791
45301SOL     OW39179   1.294   0.840   2.273  0.0557 -0.3134 -0.2327
45301SOL    HW139180   1.247   0.759   2.291 -0.7417  0.0931 -0.4376
45301SOL    HW239181   1.384   0.822   2.298 -0.2589 -1.0231  0.4149
45302SOL     OW39182   0.070   4.205   7.432 -0.2091 -0.9634  0.2649
45302SOL    HW139183   0.024   4.282   7.466 -0.4694 -0.4102 -1.2235
45302SOL    HW239184   0.158   4.212   7.467  0.2750  0.9754 -1.1366
45303SOL     OW39185  10.660   5.802   9.852 -0.5249  0.4963  0.1853
45303SOL    HW139186  10.671   5.879   9.796 -0.5321 -0.7347 -1.5896
45303SOL    HW239187  10.567   5.801   9.874 -1.2939 -0.8457 -2.6905
45304SOL     OW39188   6.887   2.791   4.572 -0.2814 -0.1458 -1.0291
45304SOL    HW139189   6.968   2.795   4.623 -1.0643 -1.7921  0.4622
45304SOL    HW239190   6.845   2.876   4.586  0.3553  0.0666 -0.3452
45305SOL     OW39191  10.459   8.803  11.326  0.2152  0.1837 -0.2730
45305SOL    HW139192  10.364   8.806  11.338  0.5036  2.5150  2.3494
45305SOL    HW239193  10.493   8.772  11.409  1.8049  0.4354 -0.7897
45306SOL     OW39194   0.211   9.514   7.341 -0.1037 -0.2988  0.5637
45306SOL    HW139195   0.221   9.432   7.390 -0.7562  0.0323  1.2825
45306SOL    HW239196   0.281   9.570   7.374 -0.4021 -0.1557  0.9674
45307SOL     OW39197  11.231  11.303   9.578 -0.0065 -0.6239 -0.1549
45307SOL    HW139198  11.324  11.315   9.559 -0.0614 -1.0212 -0.6984
45307SOL    HW239199  11.188  11.377   9.535  0.0554 -0.4427  0.0916
45308SOL     OW39200   1.193   0.007   0.256  0.3864 -0.0124  0.0112
45308SOL    HW139201   1.202  -0.087   0.243  0.1146  0.0728 -0.8222
45308SOL    HW239202   1.172   0.016   0.350 -2.1126 -0.9886 -0.3581
45309SOL     OW39203  11.119   7.439   0.830 -0.4120  0.3289 -0.4496
45309SOL    HW139204  11.181   7.441   0.903  0.1982  3.3902 -0.9245
45309SOL    HW239205  11.053   7.375   0.857  1.9466 -1.7622  0.8613
45310SOL     OW39206   9.618   6.781   9.543 -0.5170  0.1158  0.0546
45310SOL    HW139207   9.602   6.737   9.627  3.6864 -0.6894  0.6410
45310SOL    HW239208   9.652   6.713   9.486  0.0223  1.3435 -1.1420
45311SOL     OW39209   4.320   9.063   3.220 -0.3826 -0.7327  0.2775
45311SOL    HW139210   4.403   9.063   3.268  0.0123 -1.2859 -0.3806
45311SOL    HW239211   4.329   8.992   3.156 -1.6673 -1.3213  0.7060
45312SOL     OW39212   7.091   9.897   6.648 -0.0952 -0.3278 -0.7555
45312SOL    HW139213   7.054   9.970   6.599 -0.1417 -0.3721 -0.7862
45312SOL    HW239214   7.158   9.937   6.704 -1.5873  0.0532  0.8226
45313SOL     OW39215   7.582   4.353   1.540  0.5138  0.4858 -0.0247
45313SOL    HW139216   7.674   4.346   1.564  0.5974  2.4802  0.4789
45313SOL    HW239217   7.581   4.415   1.467 -0.4076  0.2244 -0.2505
45314SOL     OW39218   5.737   5.233   4.815 -0.0027 -0.3880  0.1647
45314SOL    HW139219   5.667   5.293   4.789  0.4839  1.1567  2.1153
45314SOL    HW239220   5.698   5.146   4.810 -0.6810 -0.0122 -2.9335
45315SOL     OW39221   8.663   7.148   4.349  0.4721  0.3114  0.3647
45315SOL    HW139222   8.609   7.071   4.365  1.3496 -0.4644 -0.2822
45315SOL    HW239223   8.606   7.223   4.368 -1.1707 -0.4461 -1.3285
45316SOL     OW39224   5.406   5.454   2.119 -0.1056 -0.3645 -1.0869
45316SOL    HW139225   5.404   5.463   2.214 -2.3518 -0.1026 -1.0910
45316SOL    HW239226   5.324   5.408   2.098  0.6599 -1.0327 -2.8492
45317SOL     OW39227   1.047   5.090   8.105  0.1395 -0.0146 -0.7021
45317SOL    HW139228   1.006   5.028   8.166  2.3122  0.8894  1.8484
45317SOL    HW239229   1.081   5.035   8.035 -1.4454 -1.2258 -0.5997
45318SOL     OW39230   3.781   0.170   8.113  0.0972  0.2551  0.6452
45318SOL    HW139231   3.815   0.226   8.043 -2.3333  0.1572 -0.7361
45318SOL    HW239232   3.735   0.231   8.171  0.1562  0.0575  0.9019
45319SOL     OW39233  10.221   6.170   9.963  0.1941 -0.2213  0.3608
45319SOL    HW139234  10.269   6.096   9.927 -0.2585  0.3205 -1.5131
45319SOL    HW239235  10.159   6.131  10.025  0.0780 -1.4016 -0.4587
45320SOL     OW39236   7.333   8.666   1.185  0.1642  0.1491 -0.5923
45320SOL    HW139237   7.245   8.705   1.180  0.4360  0.7947 -0.4694
45320SOL    HW239238   7.326   8.585   1.136 -0.7937 -0.3586  0.3489
45321SOL     OW39239   1.388   2.597   4.298 -0.3916  0.3449  0.1929
45321SOL    HW139240   1.301   2.608   4.258 -0.6267  0.1155  0.6296
45321SOL    HW239241   1.376   2.526   4.361  0.5702 -1.0623 -1.1062
45322SOL     OW39242   5.490   1.482  11.010  0.3746  0.2720 -0.1261
45322SOL    HW139243   5.400   1.513  11.003 -0.2914 -1.3493  0.6353
45322SOL    HW239244   5.543   1.552  10.972 -1.2968  0.7369 -1.7308
45323SOL     OW39245   8.663   8.467   3.504 -0.6361  0.1792 -0.0890
45323SOL    HW139246   8.643   8.374   3.520 -0.2908 -0.2336 -1.8210
45323SOL    HW239247   8.754   8.477   3.529 -0.7006  0.0677  0.1878
45324SOL     OW39248   5.216   5.709   9.833  0.2597  0.1081  0.1473
45324SOL    HW139249   5.171   5.657   9.766 -0.8941  0.6685  0.4739
45324SOL    HW239250   5.148   5.731   9.896  1.2161  0.0970  1.1989
45325SOL     OW39251   5.321   9.928   6.057  0.2429 -0.2205  0.6015
45325SOL    HW139252   5.410   9.913   6.088  0.3924 -1.3849 -0.3305
45325SOL    HW239253   5.331   9.988   5.983  0.4387 -1.4586 -0.4189
45326SOL     OW39254  11.186   2.179   6.094 -0.2848 -0.6269  0.1235
45326SOL    HW139255  11.242   2.102   6.103 -0.4314 -0.9255 -1.3227
45326SOL    HW239256  11.153   2.175   6.005 -2.1051 -0.1000  0.7218
45327SOL     OW39257   2.741   2.428   1.349 -0.2871  0.2043 -0.0862
45327SOL    HW139258   2.690   2.502   1.316 -2.2377 -1.4058 -0.8448
45327SOL    HW239259   2.677   2.359   1.365  0.9951 -0.3808  3.6625
45328SOL     OW39260   1.869   5.296   2.220  0.5779 -0.3136 -0.2262
45328SOL    HW139261   1.862   5.376   2.168  1.6274  0.2029  0.3915
45328SOL    HW239262   1.961   5.292   2.246  0.3081 -1.1374  0.6701
45329SOL     OW39263  10.005   8.067   4.373  0.8624 -0.4268 -0.6444
45329SOL    HW139264  10.037   8.003   4.436  1.7996 -0.6125 -1.3062
45329SOL    HW239265  10.035   8.151   4.408  1.1562 -0.5050 -0.7121
45330SOL     OW39266   8.653   7.189   0.421  0.4188  0.9492  0.3993
45330SOL    HW139267   8.642   7.192   0.326  0.9281  0.0455  0.2959
45330SOL    HW239268   8.741   7.226   0.435  1.5185 -1.3974  0.2316
45331SOL     OW39269  10.507   8.277   5.319  0.5160 -0.1016  0.3114
45331SOL    HW139270  10.482   8.198   5.272 -3.4683  0.0644  1.7562
45331SOL    HW239271  10.492   8.348   5.256  0.5085 -0.2688  0.1240
45332SOL     OW39272   0.726   0.820   1.303 -0.2226 -0.2841  0.3079
45332SOL    HW139273   0.786   0.774   1.245 -1.1011  0.3813 -1.1917
45332SOL    HW239274   0.662   0.753   1.330  0.2777 -0.6304  0.6514
45333SOL     OW39275   0.483   3.143   2.739  0.8811 -0.3101 -0.2606
45333SOL    HW139276   0.403   3.195   2.737  1.9758  1.8019  2.6331
45333SOL    HW239277   0.533   3.171   2.662 -0.4765 -0.5070 -1.2315
45334SOL     OW39278  10.199   3.661   8.877  0.0023 -0.1968  0.3278
45334SOL    HW139279  10.117   3.621   8.907  0.1110  0.1103  1.0485
45334SOL    HW239280  10.198   3.749   8.914  0.7657 -0.2660  0.5302
45335SOL     OW39281   4.483   6.223   2.569  0.7336 -0.2244  0.1076
45335SOL    HW139282   4.540   6.244   2.643 -0.0105  1.5985  0.2246
45335SOL    HW239283   4.399   6.201   2.610  0.7944 -0.9763 -0.1485
45336SOL     OW39284   5.935   9.213   9.456  0.0645 -0.3962 -0.4738
45336SOL    HW139285   5.983   9.293   9.436  4.0755 -2.8443 -1.6504
45336SOL    HW239286   5.981   9.175   9.531  0.2862 -3.0328 -1.8426
45337SOL     OW39287  10.927   0.217   1.086 -0.0822  0.2461 -0.0800
45337SOL    HW139288  10.965   0.284   1.144 -0.8118  0.1675  0.5101
45337SOL    HW239289  10.887   0.153   1.146  2.8423 -2.1747 -0.5008
45338SOL     OW39290   7.567   5.019   7.950 -0.1946 -0.0123  0.3109
45338SOL    HW139291   7.553   4.938   7.999  0.0109  0.1589  0.6653
45338SOL    HW239292   7.562   5.088   8.017  0.0645  0.2298  0.0850
45339SOL     OW39293   0.201   3.707   1.518  0.4101  0.2920  0.3139
45339SOL    HW139294   0.119   3.729   1.562  0.8184 -2.0593  2.5263
45339SOL    HW239295   0.178   3.640   1.455  0.5576 -0.0765  0.6483
45340SOL     OW39296   6.651   7.270   8.792  0.3274 -0.3260 -0.2113
45340SOL    HW139297   6.575   7.219   8.761  2.4462 -3.0971 -1.3321
45340SOL    HW239298   6.668   7.237   8.880 -1.0021  1.9448  0.9970
45341SOL     OW39299   3.487   3.868   4.848 -0.7949  0.2785  0.3836
45341SOL    HW139300   3.559   3.807   4.836 -1.1762 -0.2963  0.9797
45341SOL    HW239301   3.504   3.938   4.785 -1.6152 -1.5773 -2.0174
45342SOL     OW39302   1.915   3.966   7.708  0.0833 -0.8859  0.1810
45342SOL    HW139303   1.952   3.924   7.629 -0.5049 -1.8350  0.3881
45342SOL    HW239304   1.821   3.957   7.697 -0.0411  0.0658  0.4296
45343SOL     OW39305   4.793   2.604  10.008 -0.4210  0.2826  0.7144
45343SOL    HW139306   4.786   2.578  10.100 -0.2801  0.2064  0.7039
45343SOL    HW239307   4.710   2.647   9.989 -0.8852 -0.6490  0.5804
45344SOL     OW39308   7.443   1.695   5.732  0.2766  0.1854 -0.6452
45344SOL    HW139309   7.392   1.617   5.752 -0.3662  0.9775  0.9994
45344SOL    HW239310   7.381   1.753   5.688  0.3258  0.3486 -0.5016
45345SOL     OW39311   1.686   0.639   3.343  0.1228  0.0044  0.3419
45345SOL    HW139312   1.693   0.691   3.262  2.0457  0.0622  0.5069
45345SOL    HW239313   1.674   0.704   3.412 -2.7630 -0.0977  0.0527
45346SOL     OW39314   7.738   3.754   3.949  0.3950 -0.3339 -0.1043
45346SOL    HW139315   7.689   3.725   3.872  0.1362  0.9543 -0.4473
45346SOL    HW239316   7.720   3.686   4.015 -0.9649 -0.4681 -0.5650
45347SOL     OW39317   4.902   8.963  10.331 -0.0378  0.1817  0.4263
45347SOL    HW139318   4.982   8.992  10.375  0.5748  1.3120 -1.3278
45347SOL    HW239319   4.882   9.033  10.269 -2.3407 -0.1367  0.7199
45348SOL     OW39320   4.418   0.002   4.993 -0.0616 -0.0590  0.6380
45348SOL    HW139321   4.470   0.026   5.070  1.9864 -0.1811 -0.6513
45348SOL    HW239322   4.386  -0.087   5.013 -0.1888  0.1994  1.6420
45349SOL     OW39323   9.957   7.841   5.319 -0.0379  0.1893  0.1187
45349SOL    HW139324  10.031   7.799   5.363  0.9227  2.0745  0.3915
45349SOL    HW239325   9.967   7.934   5.338 -2.2774  0.5433 -0.1821
45350SOL     OW39326   1.715   3.206   9.033  0.3212  0.2411 -0.2607
45350SOL    HW139327   1.794   3.180   9.080  0.4069  0.3841 -0.3260
45350SOL    HW239328   1.650   3.139   9.056  1.2103 -1.4815 -2.3590
45351SOL     OW39329   0.083   1.600   2.696 -0.0033  0.2115  0.1016
45351SOL    HW139330   0.031   1.535   2.745  1.5003 -1.4452 -0.3932
45351SOL    HW239331   0.164   1.554   2.675  0.0151  1.3611 -2.6747
45352SOL     OW39332  10.857   8.601   4.706  0.0267  0.4512 -0.3137
45352SOL    HW139333  10.849   8.644   4.791  0.0051 -0.9163  0.4197
45352SOL    HW239334  10.766   8.586   4.679  0.0328  0.9872 -0.6373
45353SOL     OW39335   7.097  10.990   4.135  0.0315 -0.2884 -0.1766
45353SOL    HW139336   7.116  11.034   4.218  1.0784 -1.4889  0.2483
45353SOL    HW239337   7.147  11.039   4.070 -0.9278  0.7653 -0.1663
45354SOL     OW39338  11.245   8.486   9.108 -0.1674  0.0008  0.3350
45354SOL    HW139339  11.328   8.457   9.070 -0.1393 -0.7624  0.9519
45354SOL    HW239340  11.203   8.405   9.139 -1.2383  0.3454 -0.1501
45355SOL     OW39341   0.962   0.611   5.543  0.1674 -0.1131 -0.0850
45355SOL    HW139342   1.053   0.601   5.571  0.0544 -0.3361  0.2077
45355SOL    HW239343   0.962   0.585   5.451  0.9326  2.4918 -0.9216
45356SOL     OW39344   5.539   0.732   3.490  0.0595 -0.2760 -0.4054
45356SOL    HW139345   5.617   0.683   3.465  0.2475 -0.1040 -0.1636
45356SOL    HW239346   5.468   0.668   3.488  0.2894 -0.5412 -0.1635
45357SOL     OW39347   5.066   2.447   5.188 -0.0671  0.1465  0.6912
45357SOL    HW139348   5.095   2.504   5.259 -0.9459  1.0816  0.3145
45357SOL    HW239349   4.972   2.462   5.181  0.3564  2.2826 -2.5067
45358SOL     OW39350   0.005   2.956   4.058 -0.3083  0.0192 -0.3584
45358SOL    HW139351  -0.085   2.987   4.047 -0.5746 -1.2490 -2.3006
45358SOL    HW239352   0.059   3.035   4.050 -1.1675  0.5732 -0.8068
45359SOL     OW39353  10.088   6.273   1.964  0.1327 -0.5145 -0.2580
45359SOL    HW139354  10.024   6.221   2.014 -1.3685  1.2213 -0.2775
45359SOL    HW239355  10.163   6.282   2.023 -0.0194 -1.7416  0.1610
45360SOL     OW39356   2.273   2.457   8.560 -0.2334 -1.0074 -0.2996
45360SOL    HW139357   2.289   2.546   8.590 -1.3129 -0.8100 -0.2889
45360SOL    HW239358   2.252   2.408   8.639 -2.0534 -0.7148 -0.5609
45361SOL     OW39359   5.040   2.530   4.147  0.3673  0.3056 -0.0148
45361SOL    HW139360   5.113   2.512   4.206 -0.8250 -2.2417  0.8663
45361SOL    HW239361   4.966   2.547   4.206 -0.6040 -1.2092 -0.7076
45362SOL     OW39362   7.462  10.557   4.719 -0.5219 -0.2039 -0.2472
45362SOL    HW139363   7.487  10.586   4.807  0.1192 -0.8397 -0.2058
45362SOL    HW239364   7.453  10.637   4.668  0.4784  0.1145  0.0481
45363SOL     OW39365   0.013   2.339   2.234 -0.0475 -0.4205  0.4102
45363SOL    HW139366   0.044   2.422   2.198  1.6290 -0.3157  1.9645
45363SOL    HW239367  -0.075   2.359   2.268  0.5099  0.8488  1.1705
45364SOL     OW39368   9.777   9.347   3.416 -0.6680  0.0982  0.1544
45364SOL    HW139369   9.721   9.416   3.451  0.1682  0.3975  0.9411
45364SOL    HW239370   9.788   9.285   3.488  2.3029  1.4881  1.0760
45365SOL     OW39371   0.264   6.741   6.268  0.5140 -0.0568  0.1367
45365SOL    HW139372   0.270   6.701   6.354 -0.6596  0.0833  0.3017
45365SOL    HW239373   0.344   6.793   6.260  0.8285 -0.3927  0.9628
45366SOL     OW39374   1.770   8.919  10.434 -0.5525 -0.1968 -0.0400
45366SOL    HW139375   1.714   8.857  10.482 -1.3448  0.2877 -0.3200
45366SOL    HW239376   1.859   8.891  10.455 -0.8760 -2.0567 -0.9467
45367SOL     OW39377   3.763   6.913   1.403  0.3976 -0.0516 -0.3463
45367SOL    HW139378   3.748   6.908   1.497  0.9070 -0.4956 -0.2826
45367SOL    HW239379   3.857   6.898   1.393  0.6220  1.4936 -0.8097
45368SOL     OW39380   1.589  10.386   9.611  0.0334  0.5432  0.3368
45368SOL    HW139381   1.678  10.400   9.643  0.7773 -1.1079 -0.8427
45368SOL    HW239382   1.578  10.452   9.542  0.4488  0.5793  0.2995
45369SOL     OW39383   6.979  11.098   0.447 -0.1837 -0.0403 -0.6072
45369SOL    HW139384   7.031  11.145   0.513 -1.3246  0.3533  0.0504
45369SOL    HW239385   6.910  11.160   0.423 -1.1953 -1.0473 -0.3855
45370SOL     OW39386   4.734   1.081  10.338 -0.1025  0.6252 -0.2187
45370SOL    HW139387   4.777   1.166  10.331  1.1231  0.0839  0.3926
45370SOL    HW239388   4.752   1.053  10.428  0.8887 -0.9770 -0.8758
45371SOL     OW39389  10.202   1.969   7.998 -0.6324  0.2119  0.5165
45371SOL    HW139390  10.263   2.043   8.005 -2.2101  1.5640  0.4827
45371SOL    HW239391  10.116   2.007   8.017 -1.6703 -1.3230 -0.8980
45372SOL     OW39392   7.996   3.591   1.226 -0.0184 -0.0653 -0.4274
45372SOL    HW139393   7.982   3.593   1.320 -0.0958 -0.2779 -0.4339
45372SOL    HW239394   7.924   3.642   1.189  1.8592  3.0630 -0.1698
45373SOL     OW39395  10.267   6.094   7.214 -0.1215 -0.1047 -0.0071
45373SOL    HW139396  10.245   6.079   7.306 -3.0174  1.9350 -0.2320
45373SOL    HW239397  10.329   6.167   7.216 -2.2040  1.7637  0.3441
45374SOL     OW39398   2.208   0.212   7.262  0.6084  0.1463 -0.5226
45374SOL    HW139399   2.207   0.118   7.280  1.5511 -0.0327 -1.2757
45374SOL    HW239400   2.159   0.221   7.180 -1.7018  0.6619  0.8465
45375SOL     OW39401   1.752  11.383  10.381 -0.6522 -1.2018  0.4954
45375SOL    HW139402   1.712  11.332  10.310  0.7998 -3.7408  1.3567
45375SOL    HW239403   1.806  11.448  10.335 -1.4760 -1.3207 -0.6987
45376SOL     OW39404   6.219   3.687   2.420  0.9141  0.7897 -0.4749
45376SOL    HW139405   6.273   3.750   2.468  1.4103  1.2056 -1.5415
45376SOL    HW239406   6.221   3.608   2.474  1.8972  1.0672 -0.0746
45377SOL     OW39407   7.452   4.656   7.627  0.4033 -0.5786  0.6932
45377SOL    HW139408   7.490   4.701   7.552 -1.5322 -1.3031 -0.8132
45377SOL    HW239409   7.483   4.566   7.619  2.5628 -0.0920  2.5116
45378SOL     OW39410   5.138   0.571   3.798 -0.1653  0.3347  0.3519
45378SOL    HW139411   5.134   0.511   3.872 -1.5593 -0.1130 -0.0631
45378SOL    HW239412   5.074   0.537   3.735  0.2874  1.2556 -0.6475
45379SOL     OW39413   5.877  11.146  10.680  0.0132 -0.5869  0.3898
45379SOL    HW139414   5.806  11.142  10.744  0.4314 -1.3006  0.8169
45379SOL    HW239415   5.838  11.117  10.598 -0.9212  1.7417 -0.0778
45380SOL     OW39416  10.649  11.097   5.947  0.2563 -0.7532 -0.1792
45380SOL    HW139417  10.605  11.024   5.903 -0.0077 -0.9602  0.4236
45380SOL    HW239418  10.726  11.114   5.892 -1.8519  1.3876 -2.8062
45381SOL     OW39419   5.192   5.835  10.748 -0.2269  0.2276 -0.2251
45381SOL    HW139420   5.110   5.801  10.713 -0.1460  1.3469 -1.6364
45381SOL    HW239421   5.170   5.922  10.782 -0.0692 -0.4001  1.5784
45382SOL     OW39422   4.290   6.274   8.208 -0.3445  0.4997 -0.1435
45382SOL    HW139423   4.281   6.202   8.145  0.9181  0.8557 -0.7690
45382SOL    HW239424   4.211   6.270   8.261 -0.6970 -0.8112 -0.7319
45383SOL     OW39425   6.869   4.746   1.609 -0.4158 -0.0386 -0.2631
45383SOL    HW139426   6.774   4.759   1.619 -0.2413  0.3485  1.1922
45383SOL    HW239427   6.907   4.787   1.687  0.9879  0.1076 -0.9951
45384SOL     OW39428   8.827   1.681   2.561  0.5844 -0.2882 -0.1245
45384SOL    HW139429   8.794   1.763   2.598  0.4704 -0.2017 -0.4161
45384SOL    HW239430   8.774   1.613   2.601  1.9467 -0.4002  1.6246
45385SOL     OW39431   6.925   6.056  11.070  0.4818 -0.4889 -0.5357
45385SOL    HW139432   6.997   5.994  11.079  1.1017  0.4400  1.4819
45385SOL    HW239433   6.872   6.043  11.148  0.9282  1.8265  0.2385
45386SOL     OW39434   6.201   0.661   7.145  0.3009 -0.1459 -0.6096
45386SOL    HW139435   6.217   0.616   7.062 -1.0542 -1.9684  0.0481
45386SOL    HW239436   6.281   0.647   7.196  0.8160  0.2730 -1.2867
45387SOL     OW39437   9.332   4.020   1.454 -0.0697 -0.3237 -0.4790
45387SOL    HW139438   9.259   4.078   1.473 -0.9329 -1.3315 -0.6593
45387SOL    HW239439   9.311   3.982   1.369  1.0565 -0.0420 -0.9143
45388SOL     OW39440   6.318   8.092   3.933 -0.1478  0.0044 -0.6051
45388SOL    HW139441   6.236   8.104   3.885  0.0481  1.4097 -0.6345
45388SOL    HW239442   6.291   8.069   4.022 -0.6718  2.0218 -0.1822
45389SOL     OW39443  11.068   5.058   5.491  0.5546  0.0214 -1.1781
45389SOL    HW139444  11.046   5.003   5.566  1.5748 -1.4758 -1.9280
45389SOL    HW239445  11.069   5.147   5.526  2.3882 -0.7505  0.9618
45390SOL     OW39446   7.304   6.479  10.561  0.0537 -0.1691 -0.3308
45390SOL    HW139447   7.319   6.536  10.637 -0.9399 -0.7871  0.3554
45390SOL    HW239448   7.339   6.529  10.487 -0.4743  1.1937  0.2906
45391SOL     OW39449   4.339   9.004   9.317  0.6970 -0.4009  0.0862
45391SOL    HW139450   4.258   9.051   9.297  0.7876  0.2966  1.2662
45391SOL    HW239451   4.378   8.984   9.231 -0.8690 -1.0454 -0.5087
45392SOL     OW39452   1.699   8.766   4.365 -0.5122 -0.1164  0.2324
45392SOL    HW139453   1.658   8.837   4.315 -0.6134  0.1283  0.6624
45392SOL    HW239454   1.731   8.808   4.445  0.5085 -0.3240 -0.0537
45393SOL     OW39455   8.674   0.360  10.092  0.2715 -0.4192 -0.2487
45393SOL    HW139456   8.736   0.413  10.141 -0.2270 -1.2498  1.3286
45393SOL    HW239457   8.615   0.424  10.051 -1.3272  0.3304  2.9389
45394SOL     OW39458  11.178   7.305   8.467  0.3727 -0.7534 -0.1006
45394SOL    HW139459  11.146   7.234   8.411  0.6916 -1.0278  0.0611
45394SOL    HW239460  11.225   7.260   8.537 -0.7216 -0.4407  0.8450
45395SOL     OW39461   7.724   5.547   4.874  0.4126  0.1491  0.4789
45395SOL    HW139462   7.685   5.470   4.833 -0.1898  0.7341 -0.0732
45395SOL    HW239463   7.795   5.512   4.928 -1.2597 -1.0552  2.0669
45396SOL     OW39464   9.426   6.919   1.041  0.0040 -0.1554 -0.0356
45396SOL    HW139465   9.409   6.831   1.073 -0.2778 -0.0458  0.1115
45396SOL    HW239466   9.482   6.906   0.964  1.4520 -0.3862  0.9996
45397SOL     OW39467   1.201   5.395   0.140 -0.0477  0.2829  0.4549
45397SOL    HW139468   1.132   5.372   0.203  0.1611 -0.7988  0.2972
45397SOL    HW239469   1.156   5.398   0.056 -0.4290  2.2092  0.6788
45398SOL     OW39470   1.316   3.302   8.894  0.2379 -0.3915 -0.9528
45398SOL    HW139471   1.301   3.250   8.973  1.4123  2.3332  1.2532
45398SOL    HW239472   1.394   3.265   8.855  0.6377 -0.7593  0.1633
45399SOL     OW39473   0.368   9.705   8.690 -0.0190 -0.2552  0.1315
45399SOL    HW139474   0.359   9.794   8.723 -0.5613  0.3578 -1.5922
45399SOL    HW239475   0.458   9.680   8.714  0.9412  1.6077 -1.3113
45400SOL     OW39476   5.258  10.669   9.468  0.7626 -0.0862  0.0030
45400SOL    HW139477   5.173  10.710   9.485  1.0018  0.7199 -0.6679
45400SOL    HW239478   5.239  10.605   9.399  0.5959 -0.3137  0.2579
45401SOL     OW39479   7.956   4.890   9.855  0.6273  0.3487 -0.0798
45401SOL    HW139480   8.025   4.956   9.859 -0.5395  1.9486 -3.0768
45401SOL    HW239481   7.887   4.931   9.802 -2.1905 -1.5787  1.8177
45402SOL     OW39482   5.452   6.691   1.091  0.1964 -0.0504 -0.2464
45402SOL    HW139483   5.489   6.620   1.142  1.4730 -0.4788 -1.6866
45402SOL    HW239484   5.447   6.657   1.001  0.4357  1.4933 -0.8906
45403SOL     OW39485   2.492   4.301   6.092  0.0725 -0.3446 -0.7816
45403SOL    HW139486   2.585   4.294   6.070  0.1446 -0.9418 -0.3148
45403SOL    HW239487   2.448   4.315   6.008  0.5664 -0.1800 -1.0189
45404SOL     OW39488   8.892   5.152   2.095 -0.3855  0.1929 -0.0164
45404SOL    HW139489   8.836   5.076   2.113  1.2068 -1.3482 -1.2388
45404SOL    HW239490   8.920   5.183   2.181 -1.3389 -0.3840  0.5121
45405SOL     OW39491   9.691   1.588   2.104  0.1081 -0.4386 -0.3147
45405SOL    HW139492   9.713   1.678   2.080 -0.9493 -0.4309 -1.3534
45405SOL    HW239493   9.596   1.588   2.113 -0.0091 -1.6552 -1.3016
45406SOL     OW39494   9.530   8.095   1.041 -0.7013 -0.4990 -0.4988
45406SOL    HW139495   9.465   8.076   0.974 -0.8156  0.5812 -0.7229
45406SOL    HW239496   9.479   8.130   1.114 -0.4154 -0.0227 -0.5246
45407SOL     OW39497   6.481   6.365   2.897 -0.6112  0.6011  0.8144
45407SOL    HW139498   6.463   6.287   2.950  0.4584  0.5219  1.0721
45407SOL    HW239499   6.531   6.422   2.955 -2.6427  2.1653  1.1541
45408SOL     OW39500   4.776   7.818  10.463  0.3085  0.0242  0.2917
45408SOL    HW139501   4.833   7.885  10.501 -0.8093  0.8285  0.5721
45408SOL    HW239502   4.748   7.856  10.380  1.4055 -1.0319 -0.6046
45409SOL     OW39503  10.685   3.754   8.966 -0.0215  0.0356  0.3544
45409SOL    HW139504  10.697   3.712   8.880  1.8666  1.4061 -0.1120
45409SOL    HW239505  10.609   3.812   8.953  1.3981  1.7051 -1.0611
45410SOL     OW39506   5.229  11.114   9.366 -0.2026  0.3312  0.6645
45410SOL    HW139507   5.305  11.057   9.380 -1.1308 -0.9420  0.7170
45410SOL    HW239508   5.257  11.200   9.398  1.3711  0.0136  0.2200
45411SOL     OW39509   6.151   3.131   6.238 -0.3463 -0.0660 -0.5101
45411SOL    HW139510   6.216   3.179   6.288 -0.7178 -0.4755  0.3844
45411SOL    HW239511   6.200   3.091   6.166  0.0575  1.1621 -0.9441
45412SOL     OW39512   1.237   7.882   9.740  0.0928  0.1238 -0.6023
45412SOL    HW139513   1.324   7.848   9.762 -0.9296 -2.2924 -0.0217
45412SOL    HW239514   1.208   7.926   9.820  0.3767  0.0716 -0.4676
45413SOL     OW39515   4.342   4.105   8.625  0.4645  0.0361  0.7161
45413SOL    HW139516   4.295   4.160   8.688 -0.1732 -0.1628  0.4269
45413SOL    HW239517   4.294   4.115   8.543  0.5557 -0.6561  0.5655
45414SOL     OW39518  10.000   4.187   3.289  0.2727 -0.0498  0.1420
45414SOL    HW139519   9.929   4.176   3.226 -0.1485  1.8197  0.2174
45414SOL    HW239520  10.014   4.100   3.326 -1.2473 -0.6629 -0.6610
45415SOL     OW39521   7.847   4.895   2.532 -0.3864  0.2126 -0.0119
45415SOL    HW139522   7.858   4.960   2.601  0.6012  1.3743 -1.2254
45415SOL    HW239523   7.878   4.938   2.452 -1.7190 -0.9944 -1.2506
45416SOL     OW39524   2.779   6.299  10.939 -0.6173  0.2073 -0.4910
45416SOL    HW139525   2.745   6.255  10.861 -0.9189  0.6495 -0.6119
45416SOL    HW239526   2.700   6.323  10.989 -0.4119 -0.6410  0.2675
45417SOL     OW39527   3.480   0.005  10.349 -0.1231  0.8282  0.0081
45417SOL    HW139528   3.558  -0.016  10.399  0.4851  0.2069 -1.1522
45417SOL    HW239529   3.511   0.062  10.278 -0.6285  0.1868 -0.7474
45418SOL     OW39530  10.984   8.079   8.615 -0.0228  0.2223  0.5378
45418SOL    HW139531  10.939   8.012   8.667 -0.4034  0.4751  0.5427
45418SOL    HW239532  11.025   8.029   8.543 -0.5182  0.0062  0.3947
45419SOL     OW39533   1.533   0.177   2.949 -1.1853 -0.1513  0.1759
45419SOL    HW139534   1.507   0.093   2.987 -0.7889 -0.7213 -0.7630
45419SOL    HW239535   1.488   0.243   3.002  0.3845 -0.8140  2.5133
45420SOL     OW39536   7.865  10.495   0.230 -0.4468 -0.1958  0.0611
45420SOL    HW139537   7.792  10.432   0.225  1.0194 -1.8596 -1.7894
45420SOL    HW239538   7.933  10.448   0.279  0.9124 -0.3911 -1.9150
45421SOL     OW39539   5.088   9.395   2.911 -0.8353 -0.1454  0.0044
45421SOL    HW139540   5.039   9.327   2.866  0.1834 -0.9845  0.1091
45421SOL    HW239541   5.128   9.446   2.841  1.9481 -2.3292 -0.1905
45422SOL     OW39542   5.675   3.424   2.704 -0.3463 -0.0926  0.4043
45422SOL    HW139543   5.597   3.423   2.648 -1.2112  1.3390  1.5018
45422SOL    HW239544   5.653   3.365   2.776 -0.1227 -0.2355  0.3568
45423SOL     OW39545   7.292  11.151   7.053 -0.5914 -0.0701  0.1099
45423SOL    HW139546   7.277  11.062   7.084 -0.2120  0.3504  1.6275
45423SOL    HW239547   7.208  11.195   7.064 -0.3214  0.2244  1.1411
45424SOL     OW39548   5.155   9.708   9.556 -0.4896 -0.3177  0.1162
45424SOL    HW139549   5.137   9.801   9.541  0.0135 -0.2979 -0.3912
45424SOL    HW239550   5.108   9.663   9.485 -0.5136 -0.4311  0.2044
45425SOL     OW39551   9.771   3.025   9.568 -0.0416 -0.3110  0.9018
45425SOL    HW139552   9.760   3.001   9.660 -0.0585  1.5732  1.4217
45425SOL    HW239553   9.735   3.114   9.561  1.4601  0.2421 -0.5625
45426SOL     OW39554   4.499   6.951  10.471  0.4027  0.4001 -0.1116
45426SOL    HW139555   4.544   6.881  10.518 -0.2353  2.2329  3.6348
45426SOL    HW239556   4.407   6.941  10.497  0.0388  1.6309 -0.8612
45427SOL     OW39557   8.103   9.284   5.851  0.0105 -0.4138  0.0006
45427SOL    HW139558   8.056   9.218   5.800  0.0048 -0.1480 -0.3464
45427SOL    HW239559   8.182   9.301   5.801 -0.2488  0.2406 -0.2054
45428SOL     OW39560   2.343   5.155   4.145 -0.4751 -0.6712 -0.2673
45428SOL    HW139561   2.415   5.116   4.194  1.1389  1.9763 -0.3645
45428SOL    HW239562   2.329   5.240   4.186 -2.1995 -0.2816 -1.5430
45429SOL     OW39563   1.043  10.189   8.651 -0.3387  0.0089 -0.0592
45429SOL    HW139564   1.029  10.267   8.596 -1.1351  0.3259  0.5650
45429SOL    HW239565   1.015  10.216   8.738 -1.0653 -1.1096  0.0830
45430SOL     OW39566   0.151   9.303   7.566 -0.3934  0.2963  0.0769
45430SOL    HW139567   0.240   9.268   7.561 -0.0735  0.2724  3.4215
45430SOL    HW239568   0.094   9.229   7.547  0.1967  0.4699 -2.8082
45431SOL     OW39569   6.332   6.402   5.921 -0.2388 -0.0245  0.2141
45431SOL    HW139570   6.314   6.392   5.828 -1.0634  1.5374  0.1738
45431SOL    HW239571   6.361   6.492   5.931  0.1466 -0.2608  1.4331
45432SOL     OW39572   7.045   7.218   9.166  0.0727 -0.0548  0.5247
45432SOL    HW139573   6.980   7.194   9.100  0.4907  1.4601 -0.4717
45432SOL    HW239574   7.116   7.155   9.152  0.3475  0.5156 -0.7785
45433SOL     OW39575  11.129  11.167   8.053 -0.4368 -0.3561  0.5506
45433SOL    HW139576  11.105  11.259   8.047 -0.8175 -0.4990 -0.2916
45433SOL    HW239577  11.136  11.150   8.147  0.0416  0.6277  0.7058
45434SOL     OW39578   7.850   4.308   2.633 -0.1214  0.2839  0.3009
45434SOL    HW139579   7.882   4.223   2.603 -1.2160 -0.0094 -0.0606
45434SOL    HW239580   7.770   4.323   2.583  0.5055  1.9248 -0.2561
45435SOL     OW39581   6.970   6.360  11.142 -0.1715 -0.3027 -0.1815
45435SOL    HW139582   6.946   6.416  11.068  0.4211 -0.5802 -0.5984
45435SOL    HW239583   6.989   6.275  11.102  0.1319 -0.4615  0.2895
45436SOL     OW39584   3.279   6.504   9.997  0.2422 -0.2223 -0.6401
45436SOL    HW139585   3.367   6.502  10.035  0.7381 -0.7796 -1.7682
45436SOL    HW239586   3.234   6.574  10.045  1.5967  0.7146 -0.6624
45437SOL     OW39587   7.987   6.879   4.522 -0.3139 -0.9254 -0.0093
45437SOL    HW139588   7.986   6.962   4.474  2.1457 -1.0197 -0.3583
45437SOL    HW239589   7.912   6.831   4.488 -1.0675  0.6729 -0.7065
45438SOL     OW39590   6.769   8.900   5.770  0.1069  0.6528 -0.0805
45438SOL    HW139591   6.847   8.907   5.824  0.6840 -0.6061 -0.7097
45438SOL    HW239592   6.781   8.966   5.701  0.1891  1.0668  0.3259
45439SOL     OW39593   9.147   1.750   4.603 -0.4114 -0.1058  0.5471
45439SOL    HW139594   9.190   1.781   4.523 -0.1687 -1.1193  0.2676
45439SOL    HW239595   9.155   1.823   4.664  1.5822 -0.1897  0.4531
45440SOL     OW39596   2.763   0.416   1.745  0.0206 -0.2652  0.0274
45440SOL    HW139597   2.790   0.325   1.739 -0.1435 -0.2636 -0.8838
45440SOL    HW239598   2.671   0.416   1.717 -0.5059 -0.0536  1.6251
45441SOL     OW39599   1.157   6.268   3.986  0.1567  0.3243  0.2419
45441SOL    HW139600   1.166   6.333   3.916  1.8947  1.0213  1.0537
45441SOL    HW239601   1.206   6.305   4.060  0.1240 -1.3308  1.1474
45442SOL     OW39602   3.013   2.462   6.020  0.1065 -0.1745  0.7715
45442SOL    HW139603   3.096   2.425   5.989  0.2289  0.8592 -0.2234
45442SOL    HW239604   2.946   2.402   5.988  0.3327  0.1591 -0.3759
45443SOL     OW39605   1.468   9.029   2.729 -0.0920 -0.2970 -0.3585
45443SOL    HW139606   1.439   9.120   2.726  1.4593  0.2486  0.4014
45443SOL    HW239607   1.553   9.032   2.772  0.7136 -1.9261 -1.7104
45444SOL     OW39608  11.221   1.831   5.805  0.0616  0.7997  0.4256
45444SOL    HW139609  11.305   1.848   5.762  0.1941  1.1739  0.8242
45444SOL    HW239610  11.245   1.794   5.890 -0.2011 -0.0288  0.1438
45445SOL     OW39611   5.564   8.742   2.380 -0.0562 -0.8956 -0.0030
45445SOL    HW139612   5.552   8.804   2.307  2.3100 -0.4456 -0.1132
45445SOL    HW239613   5.477   8.709   2.398 -0.8128 -0.6671 -2.7393
45446SOL     OW39614   5.504   1.252   7.923  0.1389 -0.1464  0.1483
45446SOL    HW139615   5.581   1.298   7.890 -0.9933  2.6186  1.0563
45446SOL    HW239616   5.448   1.242   7.846  0.6585 -0.5674 -0.1796
45447SOL     OW39617   4.030   2.852   1.974  0.2477 -0.9384 -0.6410
45447SOL    HW139618   4.085   2.920   1.936 -0.2930  0.6698  1.2791
45447SOL    HW239619   4.029   2.782   1.909 -0.8595  1.6899 -3.6830
45448SOL     OW39620   4.491   3.480   1.864 -0.2063 -0.2579 -0.2364
45448SOL    HW139621   4.561   3.506   1.804 -0.2302  2.3052  0.7472
45448SOL    HW239622   4.419   3.540   1.845 -0.4066  0.2848  1.9514
45449SOL     OW39623   1.365   6.639  11.136  0.2927  0.0990  0.5033
45449SOL    HW139624   1.411   6.708  11.088  1.8840 -1.2927 -0.0502
45449SOL    HW239625   1.383   6.559  11.087 -1.0615 -0.8191  1.4339
45450SOL     OW39626   6.752   0.716   8.789 -0.1799  0.2158  0.3440
45450SOL    HW139627   6.823   0.769   8.754  0.4900  1.5312  3.3608
45450SOL    HW239628   6.796   0.653   8.847 -1.3328 -0.4725  0.5001
45451SOL     OW39629  10.812  10.590   8.717  0.2134 -0.4566 -0.5538
45451SOL    HW139630  10.731  10.638   8.699 -0.0441 -0.6021  0.1819
45451SOL    HW239631  10.878  10.633   8.662 -0.0526  0.6245 -0.0614
45452SOL     OW39632   6.977   9.238   7.586 -0.1079  0.1481 -0.0846
45452SOL    HW139633   6.939   9.246   7.498 -1.3346  0.6768  0.4624
45452SOL    HW239634   7.071   9.245   7.572 -0.1191 -1.8590 -1.5916
45453SOL     OW39635   0.413   8.716   2.686  0.5429  0.8913 -0.1459
45453SOL    HW139636   0.400   8.774   2.611 -1.9080  2.2812  1.2307
45453SOL    HW239637   0.342   8.653   2.681  1.8227 -0.5941 -0.3240
45454SOL     OW39638   8.718  11.027  11.033  0.8279 -0.4895  0.1408
45454SOL    HW139639   8.732  11.002  10.942 -1.0538 -1.2305  0.0125
45454SOL    HW239640   8.684  11.117  11.028  0.1351 -0.7485  0.0458
45455SOL     OW39641   6.063   9.406   2.963  0.0218  0.1428  0.0956
45455SOL    HW139642   6.105   9.409   3.048 -0.8357 -2.6543  0.7241
45455SOL    HW239643   6.127   9.363   2.906 -1.2169 -2.7360  0.6910
45456SOL     OW39644   8.455   0.442   2.452  0.1078  0.2769 -0.0107
45456SOL    HW139645   8.549   0.454   2.471  0.6177 -3.1206  0.2771
45456SOL    HW239646   8.419   0.409   2.534 -1.0464  0.2447 -0.5224
45457SOL     OW39647   4.704  11.195   7.879 -0.0332 -0.2948 -0.1492
45457SOL    HW139648   4.768  11.159   7.819  0.3304  0.1969 -0.0646
45457SOL    HW239649   4.744  11.276   7.912 -0.7037  0.0340 -0.1139
45458SOL     OW39650   9.648  10.408   2.903  0.5884 -0.2002  0.1439
45458SOL    HW139651   9.617  10.478   2.961  2.8096  1.3106 -0.3951
45458SOL    HW239652   9.677  10.453   2.824  0.2773 -1.9592 -1.0144
45459SOL     OW39653  11.290   5.971   4.727 -0.7141  0.3050 -0.0802
45459SOL    HW139654  11.349   6.047   4.730 -1.1986  0.7584 -1.2422
45459SOL    HW239655  11.203   6.009   4.736 -0.8559 -0.5033  3.2782
45460SOL     OW39656  11.382   0.533   3.830 -0.1039  0.8108 -0.7218
45460SOL    HW139657  11.366   0.493   3.745  0.6016  1.2263 -1.0534
45460SOL    HW239658  11.341   0.472   3.893  2.4551 -1.4259 -1.0376
45461SOL     OW39659   3.790   4.091   1.528 -0.2302 -0.0367  0.0069
45461SOL    HW139660   3.740   4.061   1.452 -0.5618  0.1782  0.1399
45461SOL    HW239661   3.881   4.094   1.497 -0.2431 -0.7950 -0.1233
45462SOL     OW39662  10.774   9.919   3.139  0.1808  0.1752  0.8938
45462SOL    HW139663  10.699   9.860   3.151 -0.3805  0.3632 -1.3441
45462SOL    HW239664  10.739  10.006   3.155  0.3844  0.1390  1.6002
45463SOL     OW39665   3.932   0.228  10.900  0.0772 -0.0509 -0.6679
45463SOL    HW139666   3.872   0.300  10.922  0.7709  0.2998  0.1652
45463SOL    HW239667   3.880   0.149  10.914  0.0286  0.2153  0.9169
45464SOL     OW39668   0.588   9.074   8.789  0.0837  0.3886 -0.2917
45464SOL    HW139669   0.603   9.164   8.760  1.7496  0.2319 -0.0293
45464SOL    HW239670   0.549   9.031   8.714 -1.4165  1.4760 -0.1918
45465SOL     OW39671   3.664   5.166   4.584  0.2507  0.9450  0.3168
45465SOL    HW139672   3.623   5.085   4.555  1.5058  0.3832  0.0279
45465SOL    HW239673   3.624   5.234   4.532  0.9266  0.2067 -1.2387
45466SOL     OW39674   4.566   2.955   2.375  0.3146 -0.2476 -0.5844
45466SOL    HW139675   4.625   2.884   2.348 -0.8122 -1.7319  0.6369
45466SOL    HW239676   4.515   2.974   2.297 -0.0662 -1.5423 -0.6844
45467SOL     OW39677   8.082  10.140   3.799 -0.3644  0.9327 -0.3576
45467SOL    HW139678   8.087  10.083   3.877 -2.1499  0.0381 -0.8504
45467SOL    HW239679   8.016  10.205   3.821 -2.0670 -0.2907 -1.6796
45468SOL     OW39680  10.469   5.903   0.873 -0.3089  0.4449  0.4904
45468SOL    HW139681  10.498   5.939   0.958 -0.6096  0.0985  0.7434
45468SOL    HW239682  10.528   5.830   0.856 -2.0391 -1.3710  1.8480
45469SOL     OW39683   0.616   5.819   6.545  0.2533  0.4780  0.5508
45469SOL    HW139684   0.672   5.788   6.474  0.9160 -2.2916  2.1147
45469SOL    HW239685   0.661   5.896   6.580  1.4234  0.1548 -0.2049
45470SOL     OW39686   2.529   7.314   5.975  0.2629 -0.2585 -0.3552
45470SOL    HW139687   2.501   7.244   6.034 -0.3827  0.0345 -0.3006
45470SOL    HW239688   2.518   7.395   6.026  1.6431 -0.1512 -0.1801
45471SOL     OW39689   3.263   7.658   7.414  0.0772  0.0054  0.6109
45471SOL    HW139690   3.278   7.658   7.319  0.5425 -3.3479  0.5609
45471SOL    HW239691   3.168   7.656   7.424  0.0200 -1.3832  0.0791
45472SOL     OW39692   7.772   0.260   1.303  0.5474 -0.5788  0.3168
45472SOL    HW139693   7.711   0.217   1.363 -2.9936  2.0155 -1.0259
45472SOL    HW239694   7.831   0.310   1.361 -0.9632 -0.3394  1.7345
45473SOL     OW39695  10.517  11.093   3.110  0.1850  0.0822 -0.1801
45473SOL    HW139696  10.604  11.104   3.072  0.2131 -0.1747 -0.1873
45473SOL    HW239697  10.518  11.146   3.189  0.7467 -0.8950  0.4796
45474SOL     OW39698  10.956  10.500   9.325  0.4148  0.3656 -0.3021
45474SOL    HW139699  10.905  10.573   9.361  0.6629  0.6694 -0.5571
45474SOL    HW239700  11.008  10.540   9.255  1.0075  0.0665 -0.0440
45475SOL     OW39701   1.086   3.172   2.291  0.1550 -0.6526 -0.0010
45475SOL    HW139702   1.158   3.131   2.245  2.6056  1.0508  2.0461
45475SOL    HW239703   1.111   3.169   2.383 -2.1640  0.4760  0.7513
45476SOL     OW39704   7.079   9.010   2.234 -0.0921 -0.3407 -0.4502
45476SOL    HW139705   7.081   9.002   2.139  1.4972  0.2310 -0.4930
45476SOL    HW239706   7.162   8.972   2.264 -0.5671 -0.5259  0.7102
45477SOL     OW39707   7.713   9.180   3.178 -0.3247  0.1542 -0.1194
45477SOL    HW139708   7.631   9.192   3.227  0.0485  0.1399  0.5226
45477SOL    HW239709   7.701   9.232   3.099 -0.3072  1.5522  0.7439
45478SOL     OW39710   0.787   2.489   1.120  0.1064  0.2980  0.3330
45478SOL    HW139711   0.728   2.564   1.128  0.6660  0.8061 -0.2302
45478SOL    HW239712   0.816   2.471   1.209  0.2266  0.9577  0.4266
45479SOL     OW39713   4.268   7.442   2.752 -0.1981  0.2533  0.0757
45479SOL    HW139714   4.179   7.434   2.788 -0.6653 -0.3081 -1.1314
45479SOL    HW239715   4.263   7.517   2.692  0.5524  1.1500  1.1115
45480SOL     OW39716   6.714   2.820   2.213  0.2305 -0.6591 -0.5338
45480SOL    HW139717   6.636   2.800   2.161 -0.3207  1.3880 -0.5639
45480SOL    HW239718   6.785   2.824   2.149 -0.1594  0.2694 -0.9181
45481SOL     OW39719   5.982  10.171   9.393 -1.0794 -0.4322  0.0557
45481SOL    HW139720   6.007  10.231   9.323  0.9940  0.5131  1.5135
45481SOL    HW239721   6.064  10.132   9.422 -1.8744 -0.8533  1.9031
45482SOL     OW39722   7.916   8.609   4.336  0.2282  0.3658 -0.3336
45482SOL    HW139723   7.921   8.704   4.344  1.0468  0.3506 -0.5818
45482SOL    HW239724   7.896   8.579   4.425 -0.1728  0.7772 -0.2841
45483SOL     OW39725   0.110   9.697   1.407 -0.1423 -0.0404 -0.5666
45483SOL    HW139726   0.083   9.749   1.332 -0.9344 -1.0076 -0.9793
45483SOL    HW239727   0.180   9.748   1.448  1.1947 -0.0835 -2.6716
45484SOL     OW39728   2.660   7.063   2.237  0.8299  0.1699 -0.4208
45484SOL    HW139729   2.743   7.016   2.242 -0.6390 -2.5862  0.3330
45484SOL    HW239730   2.636   7.079   2.329  0.6318  1.2196 -0.6377
45485SOL     OW39731   8.721   0.849   6.753 -0.0519 -0.2026 -0.1015
45485SOL    HW139732   8.719   0.810   6.666  0.6398  0.7282 -0.5541
45485SOL    HW239733   8.814   0.867   6.769 -0.2367  0.2103  0.5580
45486SOL     OW39734   6.684   3.342   6.532 -0.1338  0.0480 -0.4459
45486SOL    HW139735   6.601   3.294   6.531 -1.0408  1.4851  0.7475
45486SOL    HW239736   6.706   3.348   6.625  1.3320 -0.2927 -0.7449
45487SOL     OW39737   1.916   6.072  10.079 -0.0817  0.0689 -0.3089
45487SOL    HW139738   1.980   6.110  10.139 -1.4167  2.0144 -0.0204
45487SOL    HW239739   1.844   6.136  10.077 -0.2627 -0.0341 -3.7104
45488SOL     OW39740  10.877   6.118  11.022  0.0043  0.3658 -1.1984
45488SOL    HW139741  10.890   6.071  11.105 -1.8958  0.0808 -1.0047
45488SOL    HW239742  10.965   6.137  10.991  0.8382  2.3358  1.9067
45489SOL     OW39743   5.688   7.609   7.502  0.9625  0.0600  0.5442
45489SOL    HW139744   5.776   7.641   7.485  0.3684  1.3719 -0.2019
45489SOL    HW239745   5.638   7.687   7.524 -0.1748 -0.5770  0.2983
45490SOL     OW39746  10.295   5.303  10.215 -0.3222 -0.2649  0.2519
45490SOL    HW139747  10.343   5.290  10.133  0.0982 -1.8678  0.7254
45490SOL    HW239748  10.233   5.230  10.219 -2.2671  1.2909  0.0707
45491SOL     OW39749   7.968  10.162  10.180 -0.4030 -0.4704  0.0454
45491SOL    HW139750   7.986  10.159  10.086 -2.0690  0.7388 -0.3671
45491SOL    HW239751   8.048  10.128  10.221  1.1109  0.7744 -1.7116
45492SOL     OW39752   6.116  10.903   6.218  0.0842  0.5490 -0.1014
45492SOL    HW139753   6.053  10.926   6.286  0.3150  1.1708 -0.0904
45492SOL    HW239754   6.165  10.984   6.203  1.0322  0.0185  0.0496
45493SOL     OW39755   9.342   2.171   1.352 -0.2326  0.1959  0.1645
45493SOL    HW139756   9.277   2.160   1.422 -0.2339 -1.1902 -0.0128
45493SOL    HW239757   9.425   2.186   1.399 -0.1956 -0.9390  0.4923
45494SOL     OW39758   1.392   6.666  10.474  0.3962  0.4329 -0.3621
45494SOL    HW139759   1.330   6.593  10.471  1.5858 -0.5846 -1.0949
45494SOL    HW239760   1.366   6.723  10.402 -1.8211  1.8841  1.4459
45495SOL     OW39761   8.166   0.903   9.048 -0.3786  0.6292  0.0199
45495SOL    HW139762   8.093   0.875   9.104 -1.0553 -0.0821 -1.1901
45495SOL    HW239763   8.128   0.914   8.961  0.3875  2.9957 -0.0782
45496SOL     OW39764   1.012   9.156   3.154  0.0545 -0.0165 -0.5820
45496SOL    HW139765   1.040   9.193   3.071 -0.8360  1.9413 -0.0720
45496SOL    HW239766   1.085   9.173   3.214 -0.7311  1.9213 -0.1078
45497SOL     OW39767  10.707   5.735   6.179 -0.0709 -0.2329  0.1639
45497SOL    HW139768  10.657   5.748   6.099 -0.2900  0.3077  0.3801
45497SOL    HW239769  10.794   5.770   6.159  0.3360 -1.4783 -0.3205
45498SOL     OW39770   6.420   9.557   7.720  0.3526  0.1376  0.0473
45498SOL    HW139771   6.417   9.626   7.654 -0.1801  0.5090  0.4496
45498SOL    HW239772   6.487   9.585   7.782 -0.2864  0.6153  0.5421
45499SOL     OW39773   5.784   3.505  10.125  0.2915 -0.0680 -0.8627
45499SOL    HW139774   5.806   3.429  10.070  0.9329 -1.0815  0.7220
45499SOL    HW239775   5.814   3.480  10.212 -0.0641  1.7849 -0.1818
45500SOL     OW39776   0.064   2.284   5.419 -0.1893  0.3124 -0.0591
45500SOL    HW139777   0.088   2.192   5.433  0.8349  0.5058 -0.4659
45500SOL    HW239778  -0.016   2.280   5.367  0.4357 -0.3506 -0.9884
45501SOL     OW39779   2.373   9.645   0.942  0.1414  0.1742 -0.8399
45501SOL    HW139780   2.427   9.610   1.013 -0.4922 -1.1973 -1.0077
45501SOL    HW239781   2.435   9.675   0.876  0.7297 -1.9479 -1.3076
45502SOL     OW39782   0.055   4.520   1.920  0.3299  0.1936  0.0074
45502SOL    HW139783   0.022   4.436   1.950 -0.0977 -0.2331 -1.5464
45502SOL    HW239784   0.145   4.524   1.953 -0.0626 -0.2680  1.1841
45503SOL     OW39785  10.416   9.066   2.172  0.1057  0.0896  0.0387
45503SOL    HW139786  10.415   9.091   2.079 -0.9387 -0.5878 -0.1435
45503SOL    HW239787  10.482   8.997   2.178 -1.8429 -1.9711 -0.8064
45504SOL     OW39788   1.280   1.435   4.684 -0.4640  0.2135  0.5475
45504SOL    HW139789   1.367   1.474   4.676 -0.5486  0.3078 -0.0191
45504SOL    HW239790   1.285   1.378   4.761  0.7597 -1.4784 -0.7025
45505SOL     OW39791   3.128   1.926   2.681  0.4539  0.0561 -0.1581
45505SOL    HW139792   3.066   1.963   2.744  0.2958 -2.2497  1.1667
45505SOL    HW239793   3.075   1.871   2.624  1.0954 -1.1222  0.3372
45506SOL     OW39794   2.129   5.199   5.039  0.0057  0.2194 -0.1089
45506SOL    HW139795   2.161   5.165   4.955  0.6984  1.2677 -0.2768
45506SOL    HW239796   2.195   5.172   5.103 -0.8588 -1.1850  0.2608
45507SOL     OW39797   5.306   4.859   2.009 -0.1307 -0.4917  0.0550
45507SOL    HW139798   5.259   4.935   2.044 -0.3921 -1.1555  1.1985
45507SOL    HW239799   5.389   4.894   1.978  0.0695  0.1534  1.2672
45508SOL     OW39800   2.745   7.265  11.119 -0.4505  0.0351 -0.2556
45508SOL    HW139801   2.796   7.184  11.131  0.7869  0.8817  0.4085
45508SOL    HW239802   2.655   7.235  11.107  0.0706 -1.4732 -0.6295
45509SOL     OW39803   7.593  10.123   9.440  0.5576  0.4099  0.3844
45509SOL    HW139804   7.643  10.057   9.391 -1.1239 -0.3320 -0.4338
45509SOL    HW239805   7.578  10.193   9.377 -1.0419 -0.2517 -0.0478
45510SOL     OW39806   0.649   7.072   8.253 -0.1107  0.3167  1.0189
45510SOL    HW139807   0.661   7.167   8.253 -1.0245  0.5219 -1.7752
45510SOL    HW239808   0.730   7.038   8.214 -0.7615  0.2119 -0.3151
45511SOL     OW39809   0.460   8.214   6.577 -0.1058 -0.6973  0.1272
45511SOL    HW139810   0.544   8.169   6.586 -0.1170 -0.5370  1.1345
45511SOL    HW239811   0.471   8.269   6.500  0.9201 -0.2452  0.5788
45512SOL     OW39812   1.745   0.058   7.099  0.2550  0.3427  0.5309
45512SOL    HW139813   1.795   0.039   7.179  0.8149  0.5071  0.2247
45512SOL    HW239814   1.660   0.017   7.114  0.8951 -1.0499  0.5424
45513SOL     OW39815   4.158   0.313   8.160 -0.0163 -0.6153  0.4366
45513SOL    HW139816   4.072   0.347   8.186 -0.5380 -0.8969 -0.8605
45513SOL    HW239817   4.216   0.389   8.165 -1.0015  0.3693 -1.6348
45514SOL     OW39818   9.206   4.479   7.968 -0.7342 -0.2297 -0.5269
45514SOL    HW139819   9.149   4.432   7.906  1.4579 -2.0293 -1.3122
45514SOL    HW239820   9.184   4.443   8.054 -0.7891 -0.9244 -0.8260
45515SOL     OW39821   6.206   5.680   3.800 -0.1223 -0.5624 -0.1922
45515SOL    HW139822   6.224   5.661   3.892  0.9616  0.2426 -0.2083
45515SOL    HW239823   6.200   5.776   3.796  0.9596 -0.5136 -1.1198
45516SOL     OW39824   7.201   8.590   3.917  0.3378 -0.1623 -0.4962
45516SOL    HW139825   7.180   8.506   3.958  1.0506 -0.9269 -1.6252
45516SOL    HW239826   7.206   8.652   3.990 -3.6486 -0.2744  0.0921
45517SOL     OW39827  10.880   1.499   0.161  0.6515 -0.1149  0.4628
45517SOL    HW139828  10.925   1.546   0.231 -0.6734  1.8610  0.0539
45517SOL    HW239829  10.917   1.535   0.080 -0.9496  0.8409  0.1326
45518SOL     OW39830   4.947   5.550   0.700  0.0314 -0.6412  0.0596
45518SOL    HW139831   4.856   5.576   0.691  0.3251  0.6666  0.6566
45518SOL    HW239832   4.997   5.629   0.677  0.9849 -0.9872  0.8607
45519SOL     OW39833   1.965   7.191   3.805 -0.0395 -0.1396  0.0217
45519SOL    HW139834   1.918   7.154   3.730 -1.7412  1.7838  0.0541
45519SOL    HW239835   2.051   7.215   3.770 -0.3845 -0.3532 -0.9965
45520SOL     OW39836   8.566   3.160   4.743 -0.2756  0.3545  0.0876
45520SOL    HW139837   8.624   3.107   4.798  1.4883  0.3247 -1.6654
45520SOL    HW239838   8.599   3.249   4.751 -1.0233  0.6235  0.2952
45521SOL     OW39839   8.845   0.154  10.702 -0.5352  0.0602  0.1135
45521SOL    HW139840   8.905   0.228  10.690 -0.2290 -0.3297 -0.8383
45521SOL    HW239841   8.862   0.123  10.790  2.0537 -1.2380 -0.7453
45522SOL     OW39842   3.938   8.546   5.911 -0.0137  0.7253 -0.2496
45522SOL    HW139843   3.845   8.525   5.902 -0.2555  0.3371  2.2794
45522SOL    HW239844   3.980   8.505   5.836 -1.4726 -2.2466  0.4117
45523SOL     OW39845  10.155   3.680   6.774  0.4282  0.1367 -0.3258
45523SOL    HW139846  10.065   3.714   6.777  0.7211  0.8712  1.5159
45523SOL    HW239847  10.145   3.586   6.792  0.0250  0.2244 -0.0558
45524SOL     OW39848   4.678   5.479   5.553  0.2401 -0.5467  0.2825
45524SOL    HW139849   4.769   5.510   5.551  0.5691 -1.4806 -0.0861
45524SOL    HW239850   4.659   5.457   5.462 -0.1407 -0.9417  0.4581
45525SOL     OW39851   1.755   2.091   0.144 -0.2721 -0.3103 -0.0859
45525SOL    HW139852   1.666   2.123   0.127 -1.1930 -0.4825  3.5848
45525SOL    HW239853   1.807   2.170   0.155 -0.1029 -0.2120 -1.3933
45526SOL     OW39854   9.424  10.339   9.182 -0.6135 -0.4409  0.2147
45526SOL    HW139855   9.506  10.379   9.211 -0.1869 -0.9975 -0.1949
45526SOL    HW239856   9.356  10.388   9.227 -0.0413 -0.1675  0.8008
45527SOL     OW39857   4.486   4.979   6.599  0.4296  0.0402  0.3923
45527SOL    HW139858   4.552   4.983   6.669  0.6028 -0.9259  0.3082
45527SOL    HW239859   4.460   4.887   6.597 -1.1682  0.4696  0.6322
45528SOL     OW39860   5.177   2.926   4.979 -0.4191  0.3414 -0.3037
45528SOL    HW139861   5.151   2.838   4.953  1.5507 -0.1569 -0.7391
45528SOL    HW239862   5.226   2.913   5.060 -0.3396  1.0861 -0.2281
45529SOL     OW39863   5.634   6.343   1.486  0.4898  0.0623  0.2818
45529SOL    HW139864   5.569   6.314   1.551  1.1173 -1.6615  0.1948
45529SOL    HW239865   5.624   6.282   1.413  0.9775  0.9155 -0.5204
45530SOL     OW39866   6.572   1.941   9.264  0.5083  0.0430  0.2649
45530SOL    HW139867   6.601   1.852   9.243  1.0687 -0.0227  1.2591
45530SOL    HW239868   6.575   1.945   9.360  0.8950  1.2580  0.2161
45531SOL     OW39869   2.173   2.261   5.961 -0.2682  0.2308  0.6433
45531SOL    HW139870   2.256   2.237   6.002 -0.0393  1.2897  0.8311
45531SOL    HW239871   2.115   2.279   6.035 -0.8950 -1.1710  0.5272
45532SOL     OW39872   1.658  10.968   9.934  0.3451  0.0846 -0.6636
45532SOL    HW139873   1.686  10.877   9.932  0.8687  0.0840  2.3725
45532SOL    HW239874   1.720  11.013   9.876  1.2110 -1.2234 -0.7998
45533SOL     OW39875  11.300  10.850   3.152  0.2647 -0.0486  0.1311
45533SOL    HW139876  11.300  10.815   3.242 -0.5453 -0.9492 -0.1910
45533SOL    HW239877  11.260  10.936   3.160  0.4829  0.0087  0.6794
45534SOL     OW39878  10.934  10.939   7.181 -0.1028 -0.5983 -0.3410
45534SOL    HW139879  10.842  10.938   7.209 -0.4049 -0.4063 -1.2934
45534SOL    HW239880  10.954  11.031   7.165  0.3719 -0.6001  0.1970
45535SOL     OW39881   4.311   0.379   5.841 -0.6149  0.1183 -0.1712
45535SOL    HW139882   4.248   0.308   5.856 -1.3626  1.1848  2.1392
45535SOL    HW239883   4.289   0.445   5.906  0.0671  2.5166 -2.2180
45536SOL     OW39884   9.171   5.947   1.733 -0.3373 -0.6588  0.0710
45536SOL    HW139885   9.085   5.989   1.734  0.3647  0.9132 -1.0251
45536SOL    HW239886   9.225   6.004   1.678  1.4595 -1.5211  0.8497
45537SOL     OW39887   6.806   0.267   9.248  0.0119  0.4095 -0.2013
45537SOL    HW139888   6.754   0.342   9.278  2.3805  1.7029  0.9880
45537SOL    HW239889   6.864   0.303   9.181  1.9726 -0.0190  1.1782
45538SOL     OW39890   8.778   3.405   6.604 -0.0844 -0.2709  0.1854
45538SOL    HW139891   8.764   3.483   6.658 -1.1506  1.4196 -2.3424
45538SOL    HW239892   8.813   3.340   6.665 -0.5207  1.6940  2.7251
45539SOL     OW39893   7.933  11.126   7.780 -0.0771 -0.1652 -0.0932
45539SOL    HW139894   7.954  11.060   7.713  1.1241 -0.4598  0.5444
45539SOL    HW239895   7.870  11.083   7.838  0.8642 -0.8475  0.4436
45540SOL     OW39896   9.196   8.750   0.015 -0.2142 -0.4232  0.1371
45540SOL    HW139897   9.261   8.682   0.036 -0.0737 -0.0563  0.9589
45540SOL    HW239898   9.248   8.821  -0.023 -0.2152 -0.3906  0.1957
45541SOL     OW39899   5.221  10.207  10.755  0.0963  0.6560 -0.3805
45541SOL    HW139900   5.158  10.161  10.810  0.7063  1.2890  0.8994
45541SOL    HW239901   5.175  10.285  10.725 -0.2778  0.2480 -0.8944
45542SOL     OW39902   5.433  11.318  10.741  0.2865 -0.1319  0.2694
45542SOL    HW139903   5.479  11.314  10.657 -2.5138  0.6147 -1.4296
45542SOL    HW239904   5.457  11.403  10.778  1.7806 -0.5982  0.4190
45543SOL     OW39905   1.320   3.877   2.437  0.0320  0.6229 -0.2901
45543SOL    HW139906   1.409   3.909   2.450  1.0931 -1.9724 -0.6965
45543SOL    HW239907   1.322   3.833   2.352 -1.8880  1.2285 -0.6898
45544SOL     OW39908   1.869   5.077   7.191 -0.3945  0.3200  0.3179
45544SOL    HW139909   1.880   5.112   7.103 -0.3866  1.9883  0.9560
45544SOL    HW239910   1.840   5.151   7.243 -3.4072 -1.2539  1.1431
45545SOL     OW39911   4.916   6.078   2.585 -0.3698 -0.0396  0.1146
45545SOL    HW139912   4.838   6.045   2.540  0.1734 -1.8968  0.4650
45545SOL    HW239913   4.957   6.000   2.622  2.0499  0.7773 -0.6709
45546SOL     OW39914   8.785   9.736   4.299 -0.3103 -0.4481 -0.3911
45546SOL    HW139915   8.808   9.824   4.327 -0.8472 -0.7325  1.0330
45546SOL    HW239916   8.710   9.712   4.353  0.3413 -2.0955 -0.1472
45547SOL     OW39917   0.145   0.882   1.471  0.1603 -0.1331 -0.2450
45547SOL    HW139918   0.230   0.877   1.429  0.2483  1.6577 -0.3732
45547SOL    HW239919   0.108   0.794   1.462  1.6648 -0.7348 -0.8500
45548SOL     OW39920  11.151  11.148   9.798  0.4748 -0.0330  0.5005
45548SOL    HW139921  11.195  11.212   9.743  1.0797 -0.2110  0.7764
45548SOL    HW239922  11.062  11.183   9.808  0.7234  0.6336  0.4336
45549SOL     OW39923   9.624   5.562   1.762  0.3520 -0.2199  0.0416
45549SOL    HW139924   9.641   5.477   1.804 -1.3968 -0.7141 -0.1598
45549SOL    HW239925   9.593   5.618   1.834 -2.0905 -0.8982 -0.3903
45550SOL     OW39926   4.541   6.127   1.740 -0.3180 -0.0742 -0.3650
45550SOL    HW139927   4.560   6.201   1.798 -0.8139 -0.6462  0.5493
45550SOL    HW239928   4.458   6.150   1.698 -1.8139 -1.1750  1.8135
45551SOL     OW39929   0.440   8.201   8.981 -0.1858 -0.5890 -0.4579
45551SOL    HW139930   0.350   8.204   8.949 -0.8775  1.0023  1.4244
45551SOL    HW239931   0.482   8.276   8.940 -1.0481  1.3976  2.0385
45552SOL     OW39932   1.230   9.720   3.556 -0.2236  0.0466 -0.0300
45552SOL    HW139933   1.172   9.790   3.527  0.6499  1.1433  0.8066
45552SOL    HW239934   1.223   9.720   3.652 -0.3643 -1.1541 -0.0183
45553SOL     OW39935   2.730   1.012   7.885  0.3595  0.0360  0.0784
45553SOL    HW139936   2.796   0.950   7.916  1.0881  0.6007 -0.3041
45553SOL    HW239937   2.780   1.078   7.837 -0.4770  0.5384 -0.1229
45554SOL     OW39938   0.399   7.495   9.415 -0.1132 -0.2708 -0.3344
45554SOL    HW139939   0.451   7.419   9.389  0.6344  0.5381 -1.2646
45554SOL    HW239940   0.358   7.468   9.498  0.5358 -1.4938 -0.3803
45555SOL     OW39941   1.757   2.826   9.396  0.3436 -0.6849 -0.4112
45555SOL    HW139942   1.739   2.734   9.380 -1.0677 -0.1742 -1.9666
45555SOL    HW239943   1.832   2.846   9.339 -0.9687 -0.2988 -2.0833
45556SOL     OW39944   4.929  10.326   5.311 -0.6485  0.1446  0.2981
45556SOL    HW139945   4.927  10.382   5.389  1.6088 -0.1540  0.6317
45556SOL    HW239946   4.939  10.387   5.238  0.2982  0.2626  0.5230
45557SOL     OW39947   4.938   4.324   3.751 -0.2010  0.3822 -0.4996
45557SOL    HW139948   4.870   4.385   3.722  0.5777  1.4895 -0.0569
45557SOL    HW239949   4.894   4.266   3.813 -0.6259  1.4530  0.2275
45558SOL     OW39950   2.457   0.811   6.282  0.4706 -0.1942 -0.2371
45558SOL    HW139951   2.436   0.890   6.231 -0.2764  0.1535  0.5775
45558SOL    HW239952   2.545   0.788   6.255  1.5465  2.1465  0.9808
45559SOL     OW39953   0.275   8.331   2.553 -0.1499  0.3207 -0.2324
45559SOL    HW139954   0.252   8.418   2.586  0.0794 -0.5159  2.3670
45559SOL    HW239955   0.252   8.272   2.624  1.5518 -1.5320 -1.1285
45560SOL     OW39956  11.030   4.285   5.514  0.0280 -0.0061 -0.7658
45560SOL    HW139957  11.082   4.204   5.517 -0.8763 -0.6028 -0.9421
45560SOL    HW239958  11.013   4.299   5.420 -1.2465 -0.5479 -0.6288
45561SOL     OW39959   9.830   4.444   5.341  0.5101 -0.4160  0.2940
45561SOL    HW139960   9.918   4.467   5.373 -0.4433  0.3378  2.5631
45561SOL    HW239961   9.845   4.370   5.282  2.6874 -0.1734  0.4388
45562SOL     OW39962  10.853   1.907   6.937 -0.4310 -0.1592  1.0134
45562SOL    HW139963  10.785   1.965   6.903  0.1517 -0.5437 -0.9424
45562SOL    HW239964  10.826   1.820   6.908  0.2089 -0.4858  1.3812
45563SOL     OW39965   8.984   2.480   7.418  0.7631  0.4149  0.1256
45563SOL    HW139966   8.955   2.392   7.441 -0.0798  0.8174  0.6317
45563SOL    HW239967   8.934   2.503   7.340 -0.2159  1.0508  0.9127
45564SOL     OW39968   9.175   0.507   7.880 -0.4833  0.4825  0.1474
45564SOL    HW139969   9.199   0.466   7.797 -0.7442  0.3750  0.1245
45564SOL    HW239970   9.207   0.446   7.947 -0.2838  0.5635  0.1257
45565SOL     OW39971   5.094  10.234   7.611  0.4629 -0.3936 -0.4449
45565SOL    HW139972   5.124  10.281   7.688  0.5609 -2.3486  0.7742
45565SOL    HW239973   5.024  10.289   7.575 -0.7477 -0.2159  2.0102
45566SOL     OW39974   5.114   7.517   1.919  0.0224  0.4528  0.4143
45566SOL    HW139975   5.164   7.506   1.838  0.7450  0.3961  0.8581
45566SOL    HW239976   5.180   7.527   1.987 -0.5742  1.2183  0.9054
45567SOL     OW39977   7.350  10.116   8.416 -0.5578  0.8800 -0.0215
45567SOL    HW139978   7.274  10.170   8.397 -1.0679  0.0021 -0.5061
45567SOL    HW239979   7.319  10.050   8.477  0.0235  1.0293  0.4459
45568SOL     OW39980   8.930   7.197   1.832 -0.2508 -0.2883 -0.4928
45568SOL    HW139981   8.939   7.131   1.763 -1.2584 -0.4448 -0.4918
45568SOL    HW239982   8.853   7.169   1.882  0.5470 -0.2515  0.7837
45569SOL     OW39983   7.833   5.353  11.219 -0.3668  0.5142  0.3870
45569SOL    HW139984   7.819   5.421  11.286 -0.9549  0.9624 -0.1794
45569SOL    HW239985   7.802   5.393  11.138 -0.0105 -0.1657 -0.0929
45570SOL     OW39986  10.510   8.662   5.934  0.2288 -0.5942 -0.3152
45570SOL    HW139987  10.572   8.603   5.890  1.9371  1.1260 -0.3641
45570SOL    HW239988  10.512   8.635   6.025  1.6814 -0.1158 -0.1767
45571SOL     OW39989   2.951   5.177  10.290  0.6064 -0.4906 -0.0423
45571SOL    HW139990   2.872   5.216  10.329 -0.2072 -1.7957 -0.3244
45571SOL    HW239991   3.001   5.145  10.365 -0.0508 -1.3299  0.0475
45572SOL     OW39992   0.399   7.049   9.563  0.4472  0.0596  0.1000
45572SOL    HW139993   0.315   7.072   9.603  0.2013 -1.3433  0.4558
45572SOL    HW239994   0.378   6.980   9.500  1.6492 -2.8449  2.5863
45573SOL     OW39995   2.351   2.828   5.022  0.1394 -0.1114 -0.0426
45573SOL    HW139996   2.407   2.842   5.097 -0.9932  1.9019  0.5139
45573SOL    HW239997   2.351   2.912   4.975 -1.0184 -0.5841 -0.9708
45574SOL     OW39998   3.641   8.566   6.235  0.1770  0.0346  0.0495
45574SOL    HW139999   3.675   8.477   6.230 -0.1997 -0.1716  0.8696
45574SOL    HW240000   3.641   8.586   6.329  2.0156  1.6114 -0.2345
45575SOL     OW40001  10.357   1.726  10.186  0.3782 -0.1698  0.3259
45575SOL    HW140002  10.322   1.806  10.226 -1.3758 -0.6398 -0.1842
45575SOL    HW240003  10.432   1.703  10.240  0.2939  1.2475  1.1000
45576SOL     OW40004   8.115  10.402   4.442  0.2427  0.2090 -0.0902
45576SOL    HW140005   8.035  10.356   4.417 -0.9408  1.3232  1.4755
45576SOL    HW240006   8.172  10.393   4.366 -0.4168 -2.6646 -0.3633
45577SOL     OW40007   1.083   1.072   0.899  0.2943  0.2927 -0.1125
45577SOL    HW140008   1.142   1.146   0.909  1.3191 -0.6456  1.1403
45577SOL    HW240009   1.117   1.006   0.960 -0.3824 -1.3308 -1.4188
45578SOL     OW40010   5.393   8.475  10.751  0.3100 -0.3483 -0.1824
45578SOL    HW140011   5.415   8.403  10.810  1.1264  0.6685  0.8139
45578SOL    HW240012   5.326   8.525  10.798 -1.2126 -1.1497 -1.4330
45579SOL     OW40013   6.430  10.696   9.797 -0.3538  0.2131 -0.2633
45579SOL    HW140014   6.421  10.688   9.702  0.8169  2.2872 -0.5887
45579SOL    HW240015   6.460  10.609   9.825 -1.6312 -0.7293 -1.6127
45580SOL     OW40016  10.751   3.814  11.399 -0.3068  0.1386  0.5314
45580SOL    HW140017  10.730   3.906  11.388  0.3841  0.3643  0.9913
45580SOL    HW240018  10.718   3.771  11.320 -1.6904  0.5895  0.8521
45581SOL     OW40019   7.731   6.068   5.891  0.1586  0.0788 -0.3695
45581SOL    HW140020   7.817   6.027   5.888  0.8695  1.5129 -0.1695
45581SOL    HW240021   7.675   6.010   5.839  0.6331 -2.2005  1.4753
45582SOL     OW40022   5.076   7.949   6.683  0.4677  0.2605  0.2143
45582SOL    HW140023   5.070   7.867   6.733 -2.3294 -0.0559 -0.4465
45582SOL    HW240024   5.082   8.017   6.751  1.3396 -0.3867  0.8113
45583SOL     OW40025   4.076   0.048  10.136 -0.0452  0.2243  0.1148
45583SOL    HW140026   3.982   0.028  10.146  0.4410 -1.0402  3.3472
45583SOL    HW240027   4.086   0.136  10.171 -0.0710  0.6001 -0.7913
45584SOL     OW40028   1.784   5.870   8.669 -0.1645  0.0144  0.1593
45584SOL    HW140029   1.814   5.947   8.717  0.9787  0.2071 -0.7993
45584SOL    HW240030   1.829   5.876   8.584  3.5153 -3.8449  1.4463
45585SOL     OW40031  10.716   7.976   1.462 -0.1343  0.9437  0.4583
45585SOL    HW140032  10.758   8.060   1.443 -0.9088  1.1144 -0.5623
45585SOL    HW240033  10.656   7.961   1.389 -0.2815 -0.3260  0.8026
45586SOL     OW40034   4.903   2.072   4.524 -0.1773  0.5997  0.4454
45586SOL    HW140035   4.975   2.096   4.583  1.2258 -1.2377 -0.4237
45586SOL    HW240036   4.844   2.148   4.527  2.3398  2.7034  0.3227
45587SOL     OW40037   0.724  11.319   6.963  0.1877 -0.8485 -0.7759
45587SOL    HW140038   0.754  11.403   7.000 -1.3290 -0.2106 -0.9225
45587SOL    HW240039   0.791  11.256   6.989  1.8017  0.5516 -1.3612
45588SOL     OW40040   1.248   4.135   0.610  0.4370  0.0319  0.1360
45588SOL    HW140041   1.225   4.042   0.616 -1.5796  0.4835 -0.0687
45588SOL    HW240042   1.254   4.164   0.701 -0.6791  0.0949  0.1953
45589SOL     OW40043   2.387   8.398   5.492 -0.2806 -0.2003  0.0982
45589SOL    HW140044   2.399   8.331   5.560  0.1167 -0.2796 -0.0424
45589SOL    HW240045   2.424   8.358   5.413  0.4246  0.3701  0.1267
45590SOL     OW40046   4.864   7.982   6.938 -0.0335  0.3440 -0.0999
45590SOL    HW140047   4.956   8.003   6.925  0.4977 -1.9537 -0.3445
45590SOL    HW240048   4.861   7.938   7.023 -0.9116  0.3639 -0.1102
45591SOL     OW40049   2.359   9.531   6.187 -0.2472  0.7053  0.2821
45591SOL    HW140050   2.423   9.602   6.195  0.6389 -0.2013  1.7954
45591SOL    HW240051   2.316   9.528   6.273 -2.3643  1.2762 -0.6994
45592SOL     OW40052   4.403   3.156   6.350  0.3092 -0.1043 -0.7687
45592SOL    HW140053   4.469   3.205   6.400 -0.7774 -0.9877  1.6721
45592SOL    HW240054   4.342   3.223   6.320  0.3967  0.3545  0.0371
45593SOL     OW40055   7.890   5.762   0.029 -0.3485 -0.1079  0.1804
45593SOL    HW140056   7.982   5.790   0.025  0.1112 -1.5757 -0.4312
45593SOL    HW240057   7.864   5.778   0.119  0.7797 -0.4458  0.5878
45594SOL     OW40058   8.396   2.235   0.478  1.1107 -0.4101 -0.0250
45594SOL    HW140059   8.422   2.147   0.451  1.1566 -1.3102  2.6295
45594SOL    HW240060   8.306   2.244   0.448  0.8230 -1.7069  0.3983
45595SOL     OW40061  11.290   1.873   1.130  0.5175  0.1760 -0.4772
45595SOL    HW140062  11.262   1.921   1.051 -1.7256  0.5233  0.4492
45595SOL    HW240063  11.291   1.940   1.199  1.1865 -0.3796  0.0626
45596SOL     OW40064   4.948   0.073   8.794 -0.2014  0.7567 -0.4697
45596SOL    HW140065   4.862   0.091   8.832  0.2221 -0.9064  1.4375
45596SOL    HW240066   4.965   0.147   8.736 -2.5006  1.5731 -0.1860
45597SOL     OW40067   6.022   9.295   8.206 -0.2193  0.0004  0.6261
45597SOL    HW140068   6.014   9.262   8.117 -3.2728 -0.9847  1.1765
45597SOL    HW240069   6.063   9.381   8.196 -2.6363  0.9640 -1.9916
45598SOL     OW40070   2.467   3.620   6.513 -0.4175  0.6425 -0.6077
45598SOL    HW140071   2.406   3.694   6.519 -0.3580  0.7071 -0.7770
45598SOL    HW240072   2.419   3.546   6.550  0.0725  1.1007  1.0162
45599SOL     OW40073   5.932   6.505   8.610 -0.1573 -0.0147  0.3992
45599SOL    HW140074   6.008   6.563   8.602 -0.2549  0.2035  1.0106
45599SOL    HW240075   5.858   6.559   8.583 -0.1345 -0.1311  0.1034
45600SOL     OW40076   8.915   5.726   7.330 -0.2823  0.0869  0.2358
45600SOL    HW140077   8.950   5.697   7.246 -0.4725 -3.8361  1.3311
45600SOL    HW240078   8.822   5.744   7.312 -0.3039 -0.6283 -0.3950
45601SOL     OW40079   4.618   0.718   9.195 -0.6324  0.4836 -0.2434
45601SOL    HW140080   4.526   0.693   9.183 -0.2884 -0.2335 -1.6181
45601SOL    HW240081   4.668   0.644   9.160  0.5203  0.1912  1.8341
45602SOL     OW40082   7.776   5.500   0.034  0.5792  0.1519 -0.2925
45602SOL    HW140083   7.702   5.506   0.094 -0.5872 -0.5677 -1.5985
45602SOL    HW240084   7.810   5.589   0.030  0.9203  0.1515  1.6767
45603SOL     OW40085   2.526   5.250   2.288  0.2807  0.3017 -0.0996
45603SOL    HW140086   2.474   5.327   2.264  0.1356  0.3925  0.4919
45603SOL    HW240087   2.461   5.180   2.300  0.2697  0.4524  0.7886
45604SOL     OW40088   3.341   1.613   5.937  0.2526  0.2358  0.3884
45604SOL    HW140089   3.268   1.561   5.903 -0.3081  2.1588 -1.5963
45604SOL    HW240090   3.302   1.697   5.959  1.9215  1.5124 -1.2536
45605SOL     OW40091   8.092   1.802   0.417 -0.2991  0.3936 -0.0640
45605SOL    HW140092   8.038   1.873   0.382 -0.5041  0.2184 -0.1020
45605SOL    HW240093   8.034   1.727   0.420 -0.1064  0.2491  0.0642
45606SOL     OW40094   3.146  11.220   1.769 -0.5595 -0.2233 -0.0345
45606SOL    HW140095   3.140  11.301   1.819  1.9397  1.3192 -1.9793
45606SOL    HW240096   3.056  11.203   1.741 -1.2545  1.5330  0.9320
45607SOL     OW40097   9.634   2.212   5.356  0.1160  0.1311 -0.0430
45607SOL    HW140098   9.626   2.297   5.313  1.5975 -0.8745 -2.4893
45607SOL    HW240099   9.726   2.188   5.344 -0.0063 -1.3268  1.6173
45608SOL     OW40100   0.254   3.563   2.832 -0.1766  0.2184  0.0254
45608SOL    HW140101   0.234   3.639   2.778 -0.6467 -0.4518 -0.7745
45608SOL    HW240102   0.290   3.499   2.770 -1.0300 -0.6809  0.4421
45609SOL     OW40103   7.663   0.245   0.568 -0.0014  0.5430 -0.6203
45609SOL    HW140104   7.628   0.219   0.653 -0.2407  0.1000 -0.8532
45609SOL    HW240105   7.746   0.197   0.560 -0.3173  0.0478 -0.9380
45610SOL     OW40106   5.350   9.120   6.439  0.5068 -0.4021  0.1496
45610SOL    HW140107   5.326   9.042   6.489 -1.7932 -1.8519 -2.8867
45610SOL    HW240108   5.413   9.088   6.374 -0.3115  0.2594 -1.0079
45611SOL     OW40109   3.701  10.579   1.560  0.5080  0.4524 -0.1221
45611SOL    HW140110   3.789  10.590   1.595  0.5526 -0.6054  0.1147
45611SOL    HW240111   3.711  10.591   1.466  1.2118 -1.2367 -0.2969
45612SOL     OW40112  11.121   3.270   4.035 -0.0846  0.2841 -0.3434
45612SOL    HW140113  11.149   3.248   4.124  0.6854 -0.1928 -0.6970
45612SOL    HW240114  11.201   3.267   3.982  0.0907  3.7730 -0.5112
45613SOL     OW40115   5.665   3.326   8.278  0.4063  0.3196  0.1476
45613SOL    HW140116   5.581   3.365   8.302 -2.5201 -3.3335 -2.8017
45613SOL    HW240117   5.682   3.262   8.347  0.7240  0.9572  0.6695
45614SOL     OW40118   7.349   4.184  11.281  0.0068  0.2741  0.8467
45614SOL    HW140119   7.303   4.121  11.337 -2.0530  0.8796 -0.0653
45614SOL    HW240120   7.314   4.269  11.307  1.1294  0.8363  0.5588
45615SOL     OW40121  10.476   2.885   2.905 -0.1561  0.1390 -0.1589
45615SOL    HW140122  10.410   2.954   2.909 -1.4136 -1.0434  0.3865
45615SOL    HW240123  10.525   2.894   2.987 -1.9397 -1.1124  1.1147
45616SOL     OW40124   9.136   1.367   0.335  0.1744 -0.1275 -0.1313
45616SOL    HW140125   9.171   1.346   0.248 -1.2035  1.0913 -1.0072
45616SOL    HW240126   9.077   1.440   0.320 -1.7062 -1.2400  1.5171
45617SOL     OW40127   6.792   7.548  11.324  0.6404  0.0409  0.5779
45617SOL    HW140128   6.800   7.605  11.247  0.0809 -1.2979 -0.5138
45617SOL    HW240129   6.874   7.562  11.372  1.1798  0.6241 -0.4620
45618SOL     OW40130   6.699   9.555   4.794 -0.5213  0.4159 -0.1811
45618SOL    HW140131   6.653   9.578   4.713  0.2298  0.5433 -0.5738
45618SOL    HW240132   6.691   9.460   4.800  0.3542  0.2887 -0.9767
45619SOL     OW40133  10.022   9.034   9.325  0.4557 -0.5373 -0.9542
45619SOL    HW140134  10.110   9.070   9.342  1.2030 -2.3080 -0.9018
45619SOL    HW240135  10.004   8.979   9.401 -0.7244 -0.2030 -0.9681
45620SOL     OW40136   2.584   7.600   3.313  0.0147 -0.0414 -0.4614
45620SOL    HW140137   2.519   7.547   3.267  0.3185 -0.6304 -0.2215
45620SOL    HW240138   2.667   7.556   3.297  0.1226 -0.2841  0.6606
45621SOL     OW40139   0.920   0.143  10.252 -0.0101  0.5612 -0.0688
45621SOL    HW140140   0.980   0.082  10.208  0.1051 -0.0588  0.9055
45621SOL    HW240141   0.833   0.110  10.231  0.0578 -0.6091  1.2903
45622SOL     OW40142   8.858  11.248   5.933 -0.0153  0.4918 -0.0515
45622SOL    HW140143   8.938  11.296   5.912  0.0356  0.2830 -0.3320
45622SOL    HW240144   8.888  11.162   5.962 -0.2142 -0.3484 -2.1999
45623SOL     OW40145   9.725   7.602  11.190  0.0938  0.4677 -0.0815
45623SOL    HW140146   9.810   7.614  11.147  0.3614 -0.2017  0.2554
45623SOL    HW240147   9.718   7.676  11.250 -0.3130  1.4585 -1.3000
45624SOL     OW40148   1.558   7.468   4.711 -0.2365  0.6711 -1.0031
45624SOL    HW140149   1.578   7.559   4.734 -4.3296  1.5526 -0.1505
45624SOL    HW240150   1.590   7.416   4.785 -1.0778  1.8967  0.2674
45625SOL     OW40151   6.073   1.881   5.483  0.2338  0.3086  0.5189
45625SOL    HW140152   6.117   1.857   5.564  0.4728 -1.3295 -0.0412
45625SOL    HW240153   6.096   1.973   5.468  2.1069 -0.0207  1.1038
45626SOL     OW40154  11.353   8.874  11.165  0.2285  0.3414 -0.0786
45626SOL    HW140155  11.270   8.921  11.159  0.6304  1.1339  0.4183
45626SOL    HW240156  11.363   8.855  11.258  0.9138  0.8265 -0.0462
45627SOL     OW40157   7.408   9.516   9.024 -0.5185 -0.0347  0.4087
45627SOL    HW140158   7.456   9.524   9.107 -0.8713 -0.3260  0.6450
45627SOL    HW240159   7.318   9.541   9.046 -0.3991  0.8834 -0.1195
45628SOL     OW40160   4.053  10.843   8.915 -0.4345  0.1446  0.3269
45628SOL    HW140161   4.146  10.829   8.933 -0.5279  1.7933  2.4504
45628SOL    HW240162   4.008  10.804   8.990 -1.5990 -1.5804 -1.1686
45629SOL     OW40163   9.561   7.624   6.689  0.1172  0.2000  0.1110
45629SOL    HW140164   9.650   7.640   6.722  0.1280  1.6344 -0.5073
45629SOL    HW240165   9.566   7.648   6.596 -0.9817  0.5638  0.1335
45630SOL     OW40166   4.930   7.929   0.425 -0.1757 -0.6057  0.4025
45630SOL    HW140167   4.887   7.908   0.507 -0.5349 -0.9708  0.1210
45630SOL    HW240168   4.961   7.845   0.391  1.5052 -0.2632  1.0065
45631SOL     OW40169   5.326   9.691   9.875  0.4663 -0.0465 -0.1712
45631SOL    HW140170   5.381   9.687   9.797  1.1510  0.7133  0.2651
45631SOL    HW240171   5.271   9.612   9.869  0.2206  0.2047 -1.6142
45632SOL     OW40172   8.194   8.983   8.093  0.1346  0.1407  0.0376
45632SOL    HW140173   8.280   8.988   8.136  1.7145  0.8836 -2.9402
45632SOL    HW240174   8.203   8.913   8.029 -2.0665 -0.8014  0.6425
45633SOL     OW40175   9.985   9.429   6.020 -0.3970 -0.3892 -0.0054
45633SOL    HW140176   9.997   9.523   6.032 -1.5988 -0.0910 -0.8675
45633SOL    HW240177  10.012   9.412   5.929 -2.6667 -0.3407 -0.7616
45634SOL     OW40178   8.487   9.797   3.426  0.7467  0.7600  0.1261
45634SOL    HW140179   8.416   9.751   3.382  0.9511 -1.4787  1.9324
45634SOL    HW240180   8.562   9.788   3.367 -0.1376  2.2310 -1.3057
45635SOL     OW40181   7.591  10.962   8.495 -0.6520 -0.3830  0.3416
45635SOL    HW140182   7.541  11.016   8.433 -0.4530 -1.0980 -0.4689
45635SOL    HW240183   7.581  10.873   8.461 -1.3303 -0.9289  1.8821
45636SOL     OW40184   4.421   5.596   3.008 -0.0699  0.6260  0.5712
45636SOL    HW140185   4.363   5.530   2.971 -1.5289  1.7633  0.7171
45636SOL    HW240186   4.377   5.624   3.088  1.4397  0.4802  1.4753
45637SOL     OW40187   4.651   0.336   0.527  0.0171 -0.8589 -0.6268
45637SOL    HW140188   4.676   0.413   0.577 -1.4937  0.4762 -1.8173
45637SOL    HW240189   4.671   0.262   0.585  1.7182  0.3752  0.4474
45638SOL     OW40190   7.099   5.807   1.725 -0.0829  0.1733 -0.2187
45638SOL    HW140191   7.094   5.740   1.793  0.5674  0.1692 -0.1699
45638SOL    HW240192   7.028   5.868   1.747  1.1404  1.0851  1.4566
45639SOL     OW40193   4.146   5.982   0.118  0.4784  0.0427 -0.4433
45639SOL    HW140194   4.120   5.903   0.071  0.1697 -0.8168  1.1168
45639SOL    HW240195   4.070   6.040   0.111 -0.2032 -0.7250  0.3490
45640SOL     OW40196   1.395   0.206   8.125 -0.0202  0.0161  0.3185
45640SOL    HW140197   1.480   0.163   8.109 -0.7376 -0.4491 -2.8686
45640SOL    HW240198   1.391   0.276   8.061 -1.6342  0.7242  1.1368
45641SOL     OW40199   2.371   4.014   9.402  0.3655  0.2658  0.1938
45641SOL    HW140200   2.308   3.952   9.365 -1.7494  1.8627  0.9326
45641SOL    HW240201   2.415   3.964   9.471 -1.1421 -0.4994  0.6501
45642SOL     OW40202   6.816   9.056   7.122  0.6157  0.7317 -0.0477
45642SOL    HW140203   6.765   9.058   7.202 -0.9543 -0.5998 -0.9410
45642SOL    HW240204   6.907   9.058   7.151  0.1125 -0.7932  1.8450
45643SOL     OW40205   4.274   0.943   9.992 -0.2810 -0.5706  0.1856
45643SOL    HW140206   4.232   1.021   9.955 -0.0784  0.0980  1.3051
45643SOL    HW240207   4.206   0.904  10.047  0.3661  0.2726  1.6557
45644SOL     OW40208  10.131  10.163   1.675 -1.0983 -0.1107  0.3297
45644SOL    HW140209  10.117  10.246   1.722 -1.6067 -0.3780  0.6571
45644SOL    HW240210  10.204  10.122   1.721  0.2159  0.8591 -0.8021
45645SOL     OW40211   5.362  10.441   0.061  0.3456 -0.5550  0.0449
45645SOL    HW140212   5.411  10.428   0.143  0.2355  1.6035  0.4943
45645SOL    HW240213   5.403  10.516   0.020 -0.3060 -0.9465 -1.3838
45646SOL     OW40214   2.615   8.048   8.696  0.3226  0.1337  0.1520
45646SOL    HW140215   2.645   8.139   8.690  2.4351 -0.3844  1.7062
45646SOL    HW240216   2.672   8.000   8.636 -0.9684 -0.1997 -0.8808
45647SOL     OW40217   4.758   5.906   7.198 -0.4110  0.1747  0.3366
45647SOL    HW140218   4.718   5.936   7.279 -0.4265  0.3023  0.2822
45647SOL    HW240219   4.726   5.817   7.187 -0.0733  0.0098  0.6866
45648SOL     OW40220   9.776   4.090   7.920  0.1906  0.0662  0.1132
45648SOL    HW140221   9.781   4.074   7.826 -0.1276 -0.5112  0.1894
45648SOL    HW240222   9.765   4.185   7.928  0.5197  0.1519 -0.4166
45649SOL     OW40223   2.150   5.779   8.283  0.0959 -1.0380  0.4407
45649SOL    HW140224   2.192   5.755   8.366  0.5243 -0.1878  0.4870
45649SOL    HW240225   2.056   5.773   8.301  0.1622  0.1716  1.3315
45650SOL     OW40226   4.674   7.476   4.046  0.1862 -0.0229 -0.1486
45650SOL    HW140227   4.756   7.523   4.060  0.1791  0.1706 -0.7328
45650SOL    HW240228   4.646   7.450   4.134  0.4200  0.6747  0.1391
45651SOL     OW40229   9.745   6.332   0.648 -0.0044  0.3818 -0.2660
45651SOL    HW140230   9.650   6.321   0.641  0.0792 -0.5076 -0.0655
45651SOL    HW240231   9.780   6.243   0.644  1.2034  0.7838 -5.1535
45652SOL     OW40232   2.880   0.358   9.454  0.2442  0.2054  0.3906
45652SOL    HW140233   2.911   0.283   9.403  0.6013  0.3374  0.4101
45652SOL    HW240234   2.787   0.341   9.467  0.6623 -1.1182  1.8900
45653SOL     OW40235   3.051   8.887   1.814 -0.1700 -0.4627  0.2865
45653SOL    HW140236   2.998   8.808   1.819  0.6999 -1.0559  0.4390
45653SOL    HW240237   3.116   8.876   1.883  0.2064  0.1959  0.0436
45654SOL     OW40238   7.959   7.979   7.204  0.0966  0.3641  0.1764
45654SOL    HW140239   8.041   7.939   7.176  0.6569  0.4987  1.5379
45654SOL    HW240240   7.957   8.064   7.159 -0.2582 -0.4460 -1.3719
45655SOL     OW40241   5.812   8.383   2.406  0.2151  0.2258  0.2261
45655SOL    HW140242   5.832   8.305   2.355 -0.8549  0.9460 -1.3839
45655SOL    HW240243   5.881   8.445   2.383  0.0150  0.3854  0.0590
45656SOL     OW40244  10.724   5.192   0.520  0.3323  1.2429 -0.6234
45656SOL    HW140245  10.796   5.254   0.506 -0.3195  2.3696  0.7551
45656SOL    HW240246  10.763   5.122   0.572  0.6185  1.4521 -0.5516
45657SOL     OW40247   7.672   8.647   8.499 -0.5835  0.5252 -0.0443
45657SOL    HW140248   7.743   8.704   8.471  0.6342 -0.4136  0.9977
45657SOL    HW240249   7.595   8.678   8.451 -0.0244  3.1342  0.6371
45658SOL     OW40250   8.843   1.992  10.563 -0.0161 -0.0975  0.0881
45658SOL    HW140251   8.828   1.905  10.601 -0.9819 -0.1395 -0.3663
45658SOL    HW240252   8.925   1.983  10.514  1.3371 -0.0168  2.1874
45659SOL     OW40253   0.062   1.222   0.809  0.5776  0.2811  0.1311
45659SOL    HW140254   0.061   1.318   0.799 -0.9406  0.4599  1.5611
45659SOL    HW240255   0.129   1.205   0.875  0.1148  0.4636  0.6533
45660SOL     OW40256   6.113   8.684   9.217  0.0316 -0.3369  0.0481
45660SOL    HW140257   6.193   8.654   9.173 -0.0683 -0.2902 -0.1625
45660SOL    HW240258   6.114   8.638   9.301  0.6318  0.1830  0.3327
45661SOL     OW40259   4.704   1.758   5.173  0.3338  0.6235 -0.3517
45661SOL    HW140260   4.759   1.738   5.249 -0.9067  2.0095  0.9712
45661SOL    HW240261   4.614   1.744   5.203 -0.1629  0.3449 -1.8459
45662SOL     OW40262   4.019   3.451  11.151  0.4185 -0.0844  0.2276
45662SOL    HW140263   4.058   3.465  11.237 -2.6210  0.0087  1.7100
45662SOL    HW240264   3.988   3.538  11.124  0.3967 -0.3005 -0.4711
45663SOL     OW40265   5.228   7.932   0.960 -0.4148 -0.1551  0.2131
45663SOL    HW140266   5.167   7.943   0.888  0.2355  1.2950 -0.1481
45663SOL    HW240267   5.174   7.938   1.039 -0.7561  1.1092 -0.0981
45664SOL     OW40268   2.045   8.047   8.590  0.0563 -0.2239  0.5345
45664SOL    HW140269   2.071   8.138   8.575 -0.3425 -0.4832 -2.5276
45664SOL    HW240270   2.128   8.000   8.603  0.5035  0.2143 -0.5795
45665SOL     OW40271   8.629   6.905   8.106  0.0732 -0.0553 -0.0667
45665SOL    HW140272   8.714   6.878   8.069 -0.1083 -1.0301  0.1872
45665SOL    HW240273   8.582   6.944   8.033  1.0753  1.3171 -0.0048
45666SOL     OW40274   3.815   9.965   5.384 -0.0341  0.2696 -0.7931
45666SOL    HW140275   3.825  10.023   5.308  1.9986  0.0459 -0.7509
45666SOL    HW240276   3.762   9.892   5.352  0.2302  0.5128 -1.8108
45667SOL     OW40277   1.501   3.917   0.976  0.0318  0.6143 -0.1203
45667SOL    HW140278   1.423   3.860   0.973 -1.1152  2.1507 -1.5311
45667SOL    HW240279   1.475   3.992   1.029  0.1658  1.6197 -1.4229
45668SOL     OW40280   7.408   1.922   8.385 -0.1670  0.2151  0.1705
45668SOL    HW140281   7.472   1.852   8.374  1.3406  1.4950  0.3683
45668SOL    HW240282   7.373   1.909   8.473  0.4491 -0.0232  0.3862
45669SOL     OW40283   5.234   3.787  10.726  0.3345  0.2670  0.3952
45669SOL    HW140284   5.178   3.710  10.728  0.5567  0.1070  2.5913
45669SOL    HW240285   5.240   3.810  10.633  0.1773 -2.2621 -0.3131
45670SOL     OW40286   8.775   3.212   8.933  0.7785 -0.3674 -0.1763
45670SOL    HW140287   8.731   3.138   8.975 -0.9239  1.6813  1.8915
45670SOL    HW240288   8.748   3.207   8.842  0.5822 -2.1705 -0.0670
45671SOL     OW40289   5.283   1.118   7.494  0.4102 -0.5990  0.0451
45671SOL    HW140290   5.197   1.081   7.513 -0.6225  1.7780  0.3471
45671SOL    HW240291   5.314   1.069   7.418 -0.9206 -1.8807  0.2774
45672SOL     OW40292   8.370   8.937  11.268  0.4650 -0.6769  0.3773
45672SOL    HW140293   8.289   8.920  11.316  1.5681 -2.0626  1.8642
45672SOL    HW240294   8.343   8.941  11.176 -1.5741  1.0719  0.9549
45673SOL     OW40295   5.980   5.724   7.321 -0.2194  0.0141 -0.3489
45673SOL    HW140296   6.019   5.704   7.235  1.3198 -1.4763  0.6343
45673SOL    HW240297   5.914   5.656   7.333  2.0587 -2.0792  1.1381
45674SOL     OW40298   9.231  10.500   1.576 -0.0122 -0.0265  0.2356
45674SOL    HW140299   9.165  10.558   1.539 -0.5339 -0.7121  0.0634
45674SOL    HW240300   9.193  10.412   1.568  1.7658 -0.6832 -1.7436
45675SOL     OW40301  11.117   3.466   7.301  0.4797 -0.6044  0.0643
45675SOL    HW140302  11.188   3.446   7.240 -0.1633  1.2115 -1.3965
45675SOL    HW240303  11.162   3.495   7.380  1.5211  1.8954 -1.3045
45676SOL     OW40304   0.464   1.374   6.456  0.3570  0.4507 -0.5796
45676SOL    HW140305   0.519   1.450   6.438 -0.1506  1.0126  0.1752
45676SOL    HW240306   0.462   1.368   6.551 -1.8002  1.1512 -0.5224
45677SOL     OW40307   7.190   5.263  10.451 -0.3442 -0.6104 -0.0890
45677SOL    HW140308   7.272   5.310  10.467 -0.3414  0.8064 -3.4119
45677SOL    HW240309   7.121   5.327  10.471 -0.6083 -1.1691  0.8584
45678SOL     OW40310   7.866   9.557   8.136  0.1133  0.3468  0.5654
45678SOL    HW140311   7.950   9.600   8.155  0.6648 -0.6026  0.3865
45678SOL    HW240312   7.826   9.544   8.222  1.0818 -0.9658  0.8681
45679SOL     OW40313   1.255   7.222   0.237 -0.0410  0.1931  0.1675
45679SOL    HW140314   1.167   7.186   0.223  0.5990 -0.7141 -1.9620
45679SOL    HW240315   1.314   7.148   0.222  1.1227  0.8706  1.2276
45680SOL     OW40316   5.995   2.919   8.615 -0.2345  0.3722 -0.1810
45680SOL    HW140317   6.025   2.916   8.525 -3.2994  1.5616 -1.3737
45680SOL    HW240318   5.943   3.000   8.621  0.3628  0.6636  2.8349
45681SOL     OW40319   1.622   0.063   4.203  0.1096  0.3933 -0.2899
45681SOL    HW140320   1.652   0.150   4.179  0.3835  0.2649 -0.4262
45681SOL    HW240321   1.674   0.004   4.148  0.1970  0.1281  0.0738
45682SOL     OW40322   7.678   5.062   6.543 -0.0675 -0.3378  0.9952
45682SOL    HW140323   7.599   5.020   6.509  0.3290  0.1276 -0.6099
45682SOL    HW240324   7.668   5.059   6.638 -1.3614 -1.5073  0.8547
45683SOL     OW40325   0.013   7.234   6.309 -0.1767  0.2459 -0.7294
45683SOL    HW140326  -0.006   7.143   6.284  1.3446 -1.6579  3.9211
45683SOL    HW240327   0.105   7.247   6.287 -0.4206  0.7649 -1.4909
45684SOL     OW40328   0.273  11.046   1.726 -0.1684  0.0379 -0.5811
45684SOL    HW140329   0.345  11.106   1.707 -0.4351  0.1637 -1.2242
45684SOL    HW240330   0.232  11.082   1.805 -0.5029  0.8822 -1.1234
45685SOL     OW40331   7.917   3.797  11.244 -0.1295  0.1697 -0.2962
45685SOL    HW140332   7.845   3.840  11.197  1.0418  3.3574  0.5696
45685SOL    HW240333   7.992   3.808  11.186  0.4474  0.3874  0.4799
45686SOL     OW40334   0.612  10.431   1.454  0.0299 -0.6354 -1.1535
45686SOL    HW140335   0.703  10.410   1.475 -0.0727  0.4276  0.5208
45686SOL    HW240336   0.590  10.371   1.383  0.9680 -3.3798  0.6968
45687SOL     OW40337   4.055   9.537   4.184  0.0687  0.2544  1.1028
45687SOL    HW140338   3.969   9.501   4.203 -0.1671  0.4401  0.4047
45687SOL    HW240339   4.040   9.628   4.160  0.3581  0.0641  0.1633
45688SOL     OW40340   2.419   4.850   2.505 -0.0409  0.6375 -0.3751
45688SOL    HW140341   2.375   4.770   2.531  0.6100 -0.1454 -1.5626
45688SOL    HW240342   2.348   4.910   2.481 -0.5069 -0.2342 -1.2586
45689SOL     OW40343   3.000   0.843   9.324 -0.0471  0.1591 -0.1608
45689SOL    HW140344   2.928   0.893   9.363 -1.2381 -0.5017 -1.4421
45689SOL    HW240345   3.020   0.775   9.389 -0.1419  0.7229  0.4740
45690SOL     OW40346   1.339   4.890   3.549 -0.6069  0.1378  0.5607
45690SOL    HW140347   1.417   4.840   3.572 -0.5746  0.2657  0.7316
45690SOL    HW240348   1.319   4.864   3.459  0.1285  0.7306  0.2079
45691SOL     OW40349   0.302   5.701   7.028 -0.1695  0.0080  0.4386
45691SOL    HW140350   0.215   5.727   7.058 -0.6989 -0.7035 -0.4094
45691SOL    HW240351   0.352   5.685   7.108 -0.9957 -0.1479  0.9321
45692SOL     OW40352  10.735   8.578   1.303 -0.2888  0.5416  0.1153
45692SOL    HW140353  10.801   8.537   1.247  0.9664  1.0964  1.1209
45692SOL    HW240354  10.715   8.660   1.260  0.5488  0.8927  0.3725
45693SOL     OW40355   7.500   7.073  11.270 -0.1395  0.3030 -0.0611
45693SOL    HW140356   7.591   7.100  11.277 -0.2095  0.3391  0.8279
45693SOL    HW240357   7.461   7.096  11.355 -1.1477  0.9248 -0.6584
45694SOL     OW40358   9.961   1.651   4.149  0.0752  0.4323  0.3048
45694SOL    HW140359   9.934   1.684   4.063 -2.2213 -0.9289  0.4351
45694SOL    HW240360   9.993   1.563   4.132 -0.2877  0.1990  0.8018
45695SOL     OW40361   2.620   9.731   4.635  0.6428 -0.4209  0.2811
45695SOL    HW140362   2.667   9.814   4.648  2.1890 -1.0436 -1.0224
45695SOL    HW240363   2.533   9.759   4.606  1.0112  0.7595  0.2277
45696SOL     OW40364   6.194   6.692   7.570 -0.0562 -0.2296  0.2720
45696SOL    HW140365   6.114   6.720   7.614  0.7055 -1.3285  2.5073
45696SOL    HW240366   6.173   6.694   7.476 -2.1477  1.0361  0.7199
45697SOL     OW40367   5.336   9.092   1.351  0.3486 -0.2898  0.1973
45697SOL    HW140368   5.241   9.079   1.359  0.3286 -0.7743 -0.7181
45697SOL    HW240369   5.372   9.003   1.353  0.7453 -0.1352  0.0260
45698SOL     OW40370   1.886   2.834   2.312 -0.2277 -0.1350  0.1272
45698SOL    HW140371   1.830   2.900   2.353  0.3146  1.3998 -1.4824
45698SOL    HW240372   1.899   2.866   2.223  1.6826 -1.4098 -0.1036
45699SOL     OW40373   9.030   2.217   6.241 -0.4096  0.1289 -0.2602
45699SOL    HW140374   8.950   2.248   6.282  0.0853 -1.1947  1.8792
45699SOL    HW240375   9.089   2.199   6.314  0.7499 -1.8268 -1.5812
45700SOL     OW40376  11.338   8.804   8.555  0.0363  0.6477  0.0781
45700SOL    HW140377  11.419   8.837   8.516  1.2127 -1.0757  0.9082
45700SOL    HW240378  11.327   8.856   8.635  1.0685  0.0602  0.6272
45701SOL     OW40379   5.205   3.552   1.882 -0.0794  0.2624 -0.2816
45701SOL    HW140380   5.253   3.625   1.920 -1.9439 -0.1540  3.3189
45701SOL    HW240381   5.271   3.486   1.863  1.0615  0.3948  2.7596
45702SOL     OW40382   7.549  10.706   9.335  0.0540 -0.5431 -0.1187
45702SOL    HW140383   7.619  10.683   9.395 -0.0469 -0.9060 -0.1346
45702SOL    HW240384   7.590  10.706   9.249 -0.2749 -2.2820 -0.3191
45703SOL     OW40385   2.747   7.412  10.661 -0.0589 -0.1771 -0.5242
45703SOL    HW140386   2.711   7.487  10.709 -1.3602  0.1851 -1.9806
45703SOL    HW240387   2.794   7.451  10.588  2.0170 -0.7160  0.4620
45704SOL     OW40388   7.812  11.068   2.963  0.4265  0.7439 -0.2532
45704SOL    HW140389   7.735  11.023   2.999  1.7606  0.4722  2.4887
45704SOL    HW240390   7.775  11.128   2.898 -2.0377  0.1118  0.4260
45705SOL     OW40391   4.855   2.281   0.708 -0.4146 -0.7987  0.3475
45705SOL    HW140392   4.929   2.230   0.675 -1.2684 -1.9939  0.2090
45705SOL    HW240393   4.863   2.366   0.666  0.8350 -0.9353  0.2831
45706SOL     OW40394   7.314   8.663   4.648  0.0281  0.0409  0.1511
45706SOL    HW140395   7.226   8.701   4.658  1.1526  2.7536  0.7009
45706SOL    HW240396   7.313   8.622   4.562 -1.6200  0.5143 -0.0946
45707SOL     OW40397   6.152   5.959   0.895 -0.4288 -0.1894  0.3366
45707SOL    HW140398   6.192   5.900   0.958 -1.7927 -2.3825 -0.7382
45707SOL    HW240399   6.226   6.006   0.856  1.0536 -3.0187 -0.5224
45708SOL     OW40400   4.445   7.911   6.714  0.3815 -0.4999 -0.5907
45708SOL    HW140401   4.399   7.915   6.630  0.7167 -0.1525 -0.7579
45708SOL    HW240402   4.495   7.992   6.718  1.8110 -1.3340 -0.8766
45709SOL     OW40403   3.263   5.388   0.862 -0.0736  0.4696  0.2688
45709SOL    HW140404   3.265   5.419   0.952  0.7689  2.3270 -0.3398
45709SOL    HW240405   3.355   5.381   0.837 -0.2906 -0.4307 -0.3395
45710SOL     OW40406   2.087   4.145   2.869 -0.2806  0.0658 -0.1235
45710SOL    HW140407   2.017   4.081   2.882  0.5311 -0.9950 -0.7681
45710SOL    HW240408   2.164   4.105   2.911  0.2910  0.5148 -0.7100
45711SOL     OW40409   9.408   4.599  10.631 -0.1520  0.1507  0.2208
45711SOL    HW140410   9.337   4.548  10.592 -0.3630 -0.1494  0.9758
45711SOL    HW240411   9.477   4.535  10.649 -0.1311  0.2496  0.5051
45712SOL     OW40412   6.788   2.948   2.819 -0.0370  0.8648 -0.2538
45712SOL    HW140413   6.849   2.932   2.747 -0.0662 -2.0950  0.2842
45712SOL    HW240414   6.843   2.942   2.898 -0.7605 -0.3798  0.1635
45713SOL     OW40415  10.609   0.458   5.765 -0.1063 -0.4472  0.0818
45713SOL    HW140416  10.617   0.386   5.828 -0.4467 -0.2997  0.3018
45713SOL    HW240417  10.521   0.448   5.728  0.8877 -1.9166 -2.1079
45714SOL     OW40418   8.925  10.572   9.139  0.2296  0.3073  0.3200
45714SOL    HW140419   8.857  10.613   9.193 -0.7260  1.1295 -1.4241
45714SOL    HW240420   8.992  10.639   9.130 -0.1780  0.6117 -0.4976
45715SOL     OW40421   5.016   3.401   8.691 -0.4064 -0.6267  0.7475
45715SOL    HW140422   5.020   3.472   8.754  0.0421 -0.3526  0.4176
45715SOL    HW240423   4.982   3.441   8.611 -0.4972 -0.8603  0.6686
45716SOL     OW40424   0.611   2.689   1.163 -0.4932 -0.3489  0.4359
45716SOL    HW140425   0.544   2.721   1.223 -0.7131 -1.4145  0.7807
45716SOL    HW240426   0.669   2.764   1.148 -0.7276  0.0698  1.5746
45717SOL     OW40427   8.023   8.696   1.213 -0.1786 -0.0923  0.2831
45717SOL    HW140428   7.956   8.668   1.152 -1.3206 -1.2113  1.9722
45717SOL    HW240429   8.061   8.615   1.247  0.3000  0.4872  1.1770
45718SOL     OW40430   4.610   3.542   4.835 -0.2487  0.1757  0.1610
45718SOL    HW140431   4.529   3.492   4.841  0.1292 -0.4268  0.3328
45718SOL    HW240432   4.582   3.633   4.846 -1.3002  0.3256 -2.8951
45719SOL     OW40433   5.875   7.736   4.132 -0.1129 -0.2425  0.1825
45719SOL    HW140434   5.824   7.688   4.066  0.8308 -1.1139  0.0582
45719SOL    HW240435   5.850   7.696   4.215 -0.8264  0.4277  0.3020
45720SOL     OW40436   3.369   6.058   8.993  0.3989  0.0923  0.0553
45720SOL    HW140437   3.402   6.106   8.917 -0.1348 -2.2233 -1.7521
45720SOL    HW240438   3.446   6.017   9.030  0.3802 -0.4912 -0.5418
45721SOL     OW40439   3.467   8.167  11.291  0.2121  0.3429 -0.3693
45721SOL    HW140440   3.536   8.101  11.291  0.1596  0.2466 -1.6128
45721SOL    HW240441   3.450   8.183  11.198 -0.2160  1.6513 -0.0866
45722SOL     OW40442   1.659   2.072   1.924 -0.1446  0.5101 -0.6157
45722SOL    HW140443   1.682   1.980   1.935 -0.1587  0.5513 -0.2362
45722SOL    HW240444   1.686   2.114   2.006 -1.2380  0.6268 -0.3011
45723SOL     OW40445   1.005   0.707   0.360 -0.4882 -0.3188  0.0229
45723SOL    HW140446   1.025   0.691   0.268  0.1173  0.6462 -0.0371
45723SOL    HW240447   1.089   0.737   0.397 -1.1987  1.3356  0.3776
45724SOL     OW40448   8.538  11.164   9.122 -0.1867  0.0803  0.5703
45724SOL    HW140449   8.594  11.204   9.189 -2.7767 -0.5241  3.3482
45724SOL    HW240450   8.454  11.210   9.131 -0.6182  0.0797 -2.4957
45725SOL     OW40451   8.936  10.202   6.815 -0.4666  0.1421 -0.7111
45725SOL    HW140452   9.008  10.144   6.839 -1.9812 -1.3650  0.4251
45725SOL    HW240453   8.872  10.191   6.885 -1.0847  2.8091 -0.7392
45726SOL     OW40454   3.985   2.668   3.221 -0.9002 -0.4326 -0.5896
45726SOL    HW140455   4.014   2.637   3.135  2.0916  0.5068 -0.0462
45726SOL    HW240456   4.057   2.646   3.279 -2.4708 -0.2465  1.5376
45727SOL     OW40457   1.463   8.573   9.721 -0.3482  0.3123 -0.5692
45727SOL    HW140458   1.401   8.526   9.776 -0.1957  1.3836  0.5748
45727SOL    HW240459   1.515   8.504   9.679 -1.3552 -0.5605 -0.4223
45728SOL     OW40460   7.785  10.461   2.586 -0.8712 -0.6565  0.3757
45728SOL    HW140461   7.692  10.460   2.610 -0.8039 -2.2641  0.6259
45728SOL    HW240462   7.819  10.378   2.617  0.6872 -0.0607  0.3392
45729SOL     OW40463   7.671   9.495   5.504  0.4643 -0.2752  0.2172
45729SOL    HW140464   7.628   9.540   5.576  2.3942 -0.3435  1.4678
45729SOL    HW240465   7.654   9.402   5.521  0.7914 -0.2842  0.4972
45730SOL     OW40466   5.745   9.841   1.038  0.6409  0.0251  0.1870
45730SOL    HW140467   5.822   9.826   0.983  0.4621 -1.4007  0.2930
45730SOL    HW240468   5.699   9.914   0.996  1.8442  0.6434 -0.0862
45731SOL     OW40469   6.339   9.421   5.961  0.6527  0.1888  0.3981
45731SOL    HW140470   6.400   9.349   5.942 -0.4990 -0.8240  0.4001
45731SOL    HW240471   6.390   9.500   5.944  1.9245 -0.6213  0.2684
45732SOL     OW40472   2.941  10.362   7.828  0.1938  0.4637 -0.3167
45732SOL    HW140473   2.847  10.350   7.811  0.7322 -1.8512 -2.2818
45732SOL    HW240474   2.947  10.448   7.869 -2.7867  0.6522 -0.0267
45733SOL     OW40475   3.484   7.588   9.195  0.3841  0.1190 -0.0571
45733SOL    HW140476   3.477   7.619   9.285  1.5669 -1.4667  0.6169
45733SOL    HW240477   3.447   7.660   9.143  0.2305  1.3304  1.6184
45734SOL     OW40478  10.435   5.629   1.791  0.4563 -0.6511  0.0911
45734SOL    HW140479  10.479   5.569   1.851 -0.4956 -0.3596  1.1102
45734SOL    HW240480  10.360   5.662   1.841  0.1263  0.2506 -0.9701
45735SOL     OW40481  11.192  10.175  11.022 -0.3146 -0.1381 -0.7012
45735SOL    HW140482  11.233  10.259  11.003 -1.6657  0.7756  0.2705
45735SOL    HW240483  11.261  10.124  11.064  0.2157  0.8856 -0.3013
45736SOL     OW40484   5.372  11.133   0.243 -0.2987 -0.2997  0.3648
45736SOL    HW140485   5.283  11.158   0.266 -0.7998 -1.0354 -0.6605
45736SOL    HW240486   5.372  11.134   0.147  0.6555 -0.7792  0.3535
45737SOL     OW40487   0.105   0.582   6.238  0.1478  0.0875  0.0760
45737SOL    HW140488   0.118   0.537   6.154 -2.0600  0.9130 -0.8046
45737SOL    HW240489   0.111   0.675   6.217  0.9200  0.2953  1.1284
45738SOL     OW40490  10.756   9.598   4.770  0.8261  0.3530  0.1917
45738SOL    HW140491  10.727   9.531   4.708 -2.2201  1.9366 -0.2619
45738SOL    HW240492  10.747   9.556   4.856 -2.2464  0.4379  0.0124
45739SOL     OW40493   1.989   5.776   7.604 -0.3411 -0.3454  0.8653
45739SOL    HW140494   2.040   5.801   7.681 -0.9414 -0.1495  1.2109
45739SOL    HW240495   2.051   5.779   7.531  0.4507 -1.4268  1.4746
45740SOL     OW40496  10.038   8.372   9.470 -0.0636  0.4121  0.0051
45740SOL    HW140497  10.070   8.282   9.456  0.0662  0.6683 -1.4983
45740SOL    HW240498  10.055   8.389   9.562  0.1071 -1.0364  0.2664
45741SOL     OW40499  11.385   7.487   3.442 -0.0589 -0.2604  0.3661
45741SOL    HW140500  11.478   7.492   3.422 -0.2770  0.0786 -0.6568
45741SOL    HW240501  11.342   7.508   3.359 -1.0425  0.0098  0.9266
45742SOL     OW40502  11.028  10.637   7.232 -0.1819  0.0633 -0.0568
45742SOL    HW140503  11.031  10.733   7.225  0.2891  0.0140 -0.6569
45742SOL    HW240504  11.086  10.617   7.306 -0.3031  0.2407  0.0887
45743SOL     OW40505   9.062   3.867   6.091  0.1575  0.5021  0.0843
45743SOL    HW140506   9.083   3.958   6.114 -0.9755  0.6733  0.5308
45743SOL    HW240507   9.129   3.815   6.135 -0.0822  1.0344  1.1077
45744SOL     OW40508   7.416   8.860   1.718 -0.7404  0.5695  0.2949
45744SOL    HW140509   7.442   8.849   1.627  1.1575  1.2109  0.6975
45744SOL    HW240510   7.330   8.901   1.714 -0.6381  0.6866 -1.2091
45745SOL     OW40511   3.526   2.363   1.845 -0.0204 -0.3343 -0.3778
45745SOL    HW140512   3.561   2.299   1.906 -1.5115  0.5145  1.4637
45745SOL    HW240513   3.439   2.328   1.822  0.5535 -0.6934 -2.1409
45746SOL     OW40514   4.849   6.957   5.776  0.3293 -0.3498  0.1084
45746SOL    HW140515   4.904   6.904   5.834 -0.9544 -3.0069 -0.9311
45746SOL    HW240516   4.885   6.942   5.689  1.1989  2.2508 -0.0504
45747SOL     OW40517   9.467   9.563  10.344 -0.2918 -0.0802  0.5837
45747SOL    HW140518   9.556   9.535  10.367  0.0053 -0.6841 -1.1726
45747SOL    HW240519   9.412   9.490  10.373  0.3943 -2.3565 -3.1601
45748SOL     OW40520   5.410   1.876   4.666 -0.2321 -0.2152 -0.7566
45748SOL    HW140521   5.496   1.882   4.623  0.2806 -0.6524  0.1716
45748SOL    HW240522   5.402   1.784   4.690 -1.1833 -0.2700 -1.2418
45749SOL     OW40523   9.170   9.626   7.728  0.1991  0.0946 -0.7430
45749SOL    HW140524   9.171   9.722   7.725  1.5003  0.0826 -1.3975
45749SOL    HW240525   9.077   9.603   7.726 -0.3286  1.3894  2.6057
45750SOL     OW40526   4.368  10.201  11.238  0.5915  0.5876 -0.0589
45750SOL    HW140527   4.308  10.172  11.170  0.8879  2.6957 -1.3035
45750SOL    HW240528   4.316  10.200  11.318 -0.5090  0.4102 -0.7562
45751SOL     OW40529   5.551   3.862   3.151  0.4079  0.8428 -0.2685
45751SOL    HW140530   5.523   3.785   3.201 -0.2597  1.9336  1.1016
45751SOL    HW240531   5.646   3.854   3.146  0.3932  0.2093  0.3222
45752SOL     OW40532   1.879   6.824   3.611  0.4525  0.0670  1.1761
45752SOL    HW140533   1.834   6.798   3.691 -0.4120  1.3973  1.1557
45752SOL    HW240534   1.846   6.765   3.544 -1.0631  0.8004  1.2322
45753SOL     OW40535  11.049   8.871   0.321  0.4357  0.4552  0.4205
45753SOL    HW140536  10.965   8.872   0.366 -0.1858 -2.0566 -0.5009
45753SOL    HW240537  11.101   8.939   0.364 -1.7033  1.3712  1.6823
45754SOL     OW40538   1.322  10.836  10.767  0.0874 -0.4446 -0.1349
45754SOL    HW140539   1.354  10.755  10.728 -0.4909 -0.9236  0.3706
45754SOL    HW240540   1.402  10.887  10.785  0.3643 -0.1520 -2.0188
45755SOL     OW40541   8.289   4.981   9.297  0.4397  0.2464  0.3005
45755SOL    HW140542   8.290   5.039   9.373  1.7279  0.4606  0.1443
45755SOL    HW240543   8.244   4.902   9.328  0.1436  0.6808  1.0109
45756SOL     OW40544   5.563   9.011   3.153 -0.0757 -0.0090  0.2356
45756SOL    HW140545   5.517   9.083   3.196 -1.4307  0.3388 -1.6723
45756SOL    HW240546   5.649   9.048   3.130 -0.6240  0.9034 -0.4087
45757SOL     OW40547   9.748   4.361   8.007 -0.5306 -0.3777 -0.3134
45757SOL    HW140548   9.731   4.340   8.099 -0.9256 -0.4510 -0.4014
45757SOL    HW240549   9.661   4.368   7.967 -0.3741  0.2355 -0.5569
45758SOL     OW40550   8.223   5.548  11.100  0.1279  0.1816  0.7309
45758SOL    HW140551   8.246   5.455  11.096 -0.7101  0.0218 -0.8689
45758SOL    HW240552   8.193   5.569  11.012 -0.8089  1.6933  1.3883
45759SOL     OW40553   5.344   1.322   7.112  0.3527 -0.5523  0.4270
45759SOL    HW140554   5.371   1.406   7.075 -2.4044 -0.3665 -1.4131
45759SOL    HW240555   5.392   1.257   7.062  2.9527 -0.2052  2.2429
45760SOL     OW40556   2.011   4.665   3.848  0.1095  0.2670  0.0986
45760SOL    HW140557   1.924   4.699   3.829 -1.4156 -1.5059  3.0985
45760SOL    HW240558   2.063   4.742   3.869 -2.0005  1.2160  2.3733
45761SOL     OW40559   1.298   1.990   5.047 -0.2072  0.1219 -0.1363
45761SOL    HW140560   1.350   1.962   5.122 -1.5164 -0.0564  0.7418
45761SOL    HW240561   1.273   1.909   5.003 -0.6729  0.1166  0.1180
45762SOL     OW40562   9.237   2.395   6.496  0.0044 -0.4162  0.0718
45762SOL    HW140563   9.286   2.397   6.414 -0.1262 -2.0908 -0.0936
45762SOL    HW240564   9.201   2.306   6.500 -0.7586 -0.0756  1.4976
45763SOL     OW40565  10.862   8.879   0.706  0.0744  0.2836  0.6072
45763SOL    HW140566  10.844   8.930   0.628 -0.8363 -0.7990  0.0703
45763SOL    HW240567  10.909   8.802   0.674  0.7782  0.4127  1.2965
45764SOL     OW40568  10.040   0.769   3.969  0.1900  0.5204  0.2759
45764SOL    HW140569  10.132   0.752   3.987  0.3331  0.0663 -0.7875
45764SOL    HW240570   9.994   0.690   3.997  0.3719 -0.0488 -0.9703
45765SOL     OW40571   2.726   9.466   1.485 -0.3061 -0.2878 -0.4464
45765SOL    HW140572   2.822   9.464   1.487 -0.1239  2.5118 -1.7709
45765SOL    HW240573   2.702   9.413   1.409  0.1046 -1.6870  0.3737
45766SOL     OW40574   8.103   1.996   2.921  0.1041 -0.4249 -0.1354
45766SOL    HW140575   8.169   2.002   2.991  0.8875  1.2787 -0.9464
45766SOL    HW240576   8.148   1.951   2.850 -0.4071 -1.3602  0.1116
45767SOL     OW40577  10.708   8.840   8.188 -0.0244 -0.6945  0.3944
45767SOL    HW140578  10.705   8.807   8.278 -0.7044 -1.8471 -0.0244
45767SOL    HW240579  10.738   8.765   8.136 -0.6245 -0.3509 -0.4685
45768SOL     OW40580   3.337   0.771   4.792  0.0477  0.3342 -0.2720
45768SOL    HW140581   3.387   0.841   4.750 -0.7064  0.2475 -1.3438
45768SOL    HW240582   3.367   0.772   4.883  1.9925  0.2781 -0.8624
45769SOL     OW40583   0.474   3.709   4.044 -0.5839 -0.0586  0.1598
45769SOL    HW140584   0.520   3.785   4.008 -0.8188 -0.8613 -2.0394
45769SOL    HW240585   0.487   3.714   4.138  2.9901  0.4266 -0.2194
45770SOL     OW40586   5.509   2.380   5.581  0.3137  0.0585  0.2707
45770SOL    HW140587   5.438   2.426   5.626  0.7065  1.8944 -0.8977
45770SOL    HW240588   5.573   2.448   5.562  2.4791 -1.5533  1.3574
45771SOL     OW40589   5.869   8.137   9.924  0.0048 -0.1813  0.1170
45771SOL    HW140590   5.803   8.101   9.983 -0.8252  0.7596 -0.2052
45771SOL    HW240591   5.893   8.221   9.963 -0.4104  0.3593 -0.7596
45772SOL     OW40592   3.595   4.919   9.882  0.0483 -0.1702 -0.1242
45772SOL    HW140593   3.654   4.942   9.810  1.4013  1.6092  1.4473
45772SOL    HW240594   3.642   4.946   9.961 -1.7461 -1.2455  1.3939
45773SOL     OW40595   3.866   0.920   2.020  0.1289 -0.3192 -0.1911
45773SOL    HW140596   3.781   0.964   2.013  0.4921  0.4909  0.2511
45773SOL    HW240597   3.888   0.894   1.931 -0.7145 -0.7865 -0.2633
45774SOL     OW40598   8.589  11.007   2.036  0.0570 -0.5334  0.0658
45774SOL    HW140599   8.574  11.053   2.119 -0.0715 -0.2423 -0.1193
45774SOL    HW240600   8.681  11.025   2.015  0.0460 -0.4779  0.0654
45775SOL     OW40601   1.401   9.306   2.094 -0.0268  0.5714  0.6105
45775SOL    HW140602   1.392   9.218   2.132 -2.4037  0.6331  0.3593
45775SOL    HW240603   1.486   9.305   2.050 -1.1980 -2.6612 -1.9777
45776SOL     OW40604   6.576   9.660   7.924  0.0164  0.7605  1.0110
45776SOL    HW140605   6.595   9.750   7.899  2.6842  0.2912  0.9921
45776SOL    HW240606   6.660   9.626   7.954 -1.0292 -1.5780  1.5004
45777SOL     OW40607   8.562   5.106   3.323  0.0455  0.0762 -0.2213
45777SOL    HW140608   8.611   5.183   3.350  0.2470 -0.3957  0.7879
45777SOL    HW240609   8.628   5.042   3.299 -0.1270  0.4464 -1.7986
45778SOL     OW40610   5.905   2.431   9.783 -0.8007 -0.3070  0.1767
45778SOL    HW140611   5.814   2.422   9.812 -0.9592  0.3802 -0.0781
45778SOL    HW240612   5.927   2.523   9.803 -0.1862 -0.4487  0.1678
45779SOL     OW40613   3.717   2.296   6.536 -0.0401  0.1703 -0.3537
45779SOL    HW140614   3.756   2.249   6.463  0.5432 -1.2451  0.8117
45779SOL    HW240615   3.633   2.329   6.502  0.2446 -0.3941 -1.6583
45780SOL     OW40616   7.376   2.290   0.928  0.0412 -0.4736  0.1638
45780SOL    HW140617   7.287   2.291   0.893 -0.2162 -0.0179  0.8090
45780SOL    HW240618   7.412   2.376   0.905  0.5901 -0.9289 -0.7512
45781SOL     OW40619   3.801   6.943   6.586 -0.3059 -0.1558 -0.1537
45781SOL    HW140620   3.860   6.876   6.622  0.1187 -0.1478 -0.8080
45781SOL    HW240621   3.841   7.026   6.610  1.9614 -0.0527 -3.4922
45782SOL     OW40622   5.572   9.281   0.960 -0.0155 -0.2474 -0.1455
45782SOL    HW140623   5.656   9.239   0.944 -0.8081 -1.0608 -2.5759
45782SOL    HW240624   5.515   9.210   0.992 -0.7553 -0.6014 -2.1369
45783SOL     OW40625   1.065   8.801   9.500 -0.4151  0.4318  0.4270
45783SOL    HW140626   0.993   8.864   9.505 -0.1287  0.6730  2.4300
45783SOL    HW240627   1.062   8.754   9.583  0.2860 -1.2106 -0.4276
45784SOL     OW40628   8.335   9.187   9.651 -0.2471  0.0065  0.3084
45784SOL    HW140629   8.383   9.108   9.675  0.6358 -0.0297 -1.4362
45784SOL    HW240630   8.252   9.180   9.698  0.4173 -1.2114  1.3468
45785SOL     OW40631   4.308   5.753   4.497 -0.2858 -0.3645 -0.4547
45785SOL    HW140632   4.306   5.808   4.575  1.6269 -0.6705 -0.1342
45785SOL    HW240633   4.245   5.683   4.515 -0.2460 -0.1508  0.5904
45786SOL     OW40634   3.942   1.259   5.085  0.2716 -0.2453 -0.1834
45786SOL    HW140635   3.901   1.238   5.169 -1.0404  1.0908 -0.4506
45786SOL    HW240636   3.958   1.173   5.045 -2.7346 -0.9002 -0.2370
45787SOL     OW40637   7.949   0.063   1.370 -0.2916 -0.7797 -0.4061
45787SOL    HW140638   7.889   0.117   1.319  0.3062 -0.3441 -0.6638
45787SOL    HW240639   8.025   0.120   1.385  0.0494 -1.3172 -0.0774
45788SOL     OW40640   2.787   1.226   9.650 -0.2228 -0.2127 -0.0796
45788SOL    HW140641   2.755   1.203   9.563 -0.7859  1.0132 -0.2114
45788SOL    HW240642   2.881   1.213   9.646 -0.0994  0.9479 -1.2348
45789SOL     OW40643   5.045   9.426   4.690  0.3550  0.0061  0.4101
45789SOL    HW140644   5.107   9.490   4.655  0.4146  0.4681  1.3104
45789SOL    HW240645   5.099   9.351   4.713  0.2005 -0.6368 -1.2246
45790SOL     OW40646  10.963   9.542   5.520  0.0094  0.3922 -0.0951
45790SOL    HW140647  11.042   9.585   5.552  0.5256  0.2770 -1.1488
45790SOL    HW240648  10.928   9.495   5.595  1.4217 -0.2593  0.1842
45791SOL     OW40649   1.130   9.737   7.350  0.7153  0.0388 -0.1919
45791SOL    HW140650   1.127   9.755   7.444  0.8969 -1.7065  0.1689
45791SOL    HW240651   1.222   9.744   7.327  0.7168  0.1101 -0.1641
45792SOL     OW40652   2.483   4.696   5.894  0.1157 -0.1914 -0.5267
45792SOL    HW140653   2.423   4.691   5.968  1.6848 -3.0982  0.7436
45792SOL    HW240654   2.426   4.693   5.817 -1.5345  2.3900  0.4581
45793SOL     OW40655   5.237   5.107   3.599 -0.7599  0.1588  0.1283
45793SOL    HW140656   5.235   5.196   3.563  0.7370 -0.7948 -2.6088
45793SOL    HW240657   5.309   5.108   3.663 -1.1179  1.0367  0.5248
45794SOL     OW40658   1.939   6.963   2.780 -0.0234  0.0040 -0.4472
45794SOL    HW140659   2.027   6.960   2.743 -0.2718 -0.3767 -1.0093
45794SOL    HW240660   1.884   7.001   2.710 -0.1511  1.0987  0.2147
45795SOL     OW40661  11.384   8.566   8.179 -0.2435  0.3156 -0.3684
45795SOL    HW140662  11.361   8.593   8.090 -0.3374 -1.4948 -0.9366
45795SOL    HW240663  11.305   8.521   8.211  1.0986 -2.7069 -0.9694
45796SOL     OW40664   1.844   3.063  11.050 -0.0292  0.1670  0.1514
45796SOL    HW140665   1.750   3.079  11.052  0.0599  1.1174 -1.7114
45796SOL    HW240666   1.854   2.971  11.078 -1.6515 -0.4836 -1.2935
45797SOL     OW40667   6.978   0.187   9.826  0.1954 -0.1621 -0.0203
45797SOL    HW140668   6.971   0.267   9.877  1.7581 -1.2350  2.0198
45797SOL    HW240669   7.051   0.202   9.766  1.5054 -0.5659  1.4321
45798SOL     OW40670   6.560   5.884   0.338 -0.1660  0.4702  0.4373
45798SOL    HW140671   6.479   5.934   0.346 -0.8930  0.3766 -3.7394
45798SOL    HW240672   6.630   5.949   0.341 -0.9860  1.7130 -3.0207
45799SOL     OW40673   2.021   4.134   0.729 -0.2668  0.1693  0.0636
45799SOL    HW140674   1.965   4.063   0.699  0.0893 -0.4981  0.9585
45799SOL    HW240675   2.017   4.130   0.824 -0.1003  1.2430  0.1358
45800SOL     OW40676   0.103   9.731  11.020 -0.1105 -0.1977  0.3998
45800SOL    HW140677   0.147   9.736  10.934 -0.9749 -0.3364 -0.0573
45800SOL    HW240678   0.079   9.822  11.040 -0.3120 -0.2255  0.2831
45801SOL     OW40679   0.489   1.299   4.516 -0.2231  0.0955 -0.1698
45801SOL    HW140680   0.572   1.318   4.474  1.5495 -3.4392  1.3528
45801SOL    HW240681   0.438   1.252   4.450  0.1190 -0.1269 -0.2784
45802SOL     OW40682   0.560   2.905   7.318  0.5093 -0.2381 -0.1598
45802SOL    HW140683   0.632   2.966   7.300  0.0302 -0.0877 -1.8035
45802SOL    HW240684   0.599   2.818   7.306  1.6431 -0.4794  3.8554
45803SOL     OW40685   2.888   7.873   1.005  0.2835  0.3569  0.0278
45803SOL    HW140686   2.866   7.919   0.924 -0.2948  1.0930  0.5812
45803SOL    HW240687   2.926   7.790   0.977  0.0436  0.5810 -0.9908
45804SOL     OW40688   4.447   9.214   6.462  0.4582 -0.3624 -0.8138
45804SOL    HW140689   4.437   9.305   6.437 -0.2866 -0.9959 -3.0254
45804SOL    HW240690   4.532   9.188   6.424  1.0197 -0.4224  0.4359
45805SOL     OW40691   2.565   3.785   7.473 -0.4819  0.0520 -0.4320
45805SOL    HW140692   2.510   3.838   7.532 -1.1787  0.3489 -1.3242
45805SOL    HW240693   2.614   3.728   7.532 -0.1701  1.2506  0.5286
45806SOL     OW40694  10.153   1.001   0.724 -0.0875 -0.4970 -0.3032
45806SOL    HW140695  10.199   0.970   0.646 -1.1969  0.6367 -1.4502
45806SOL    HW240696  10.065   0.962   0.717 -0.0304 -0.8274  0.6725
45807SOL     OW40697   2.564   5.605   1.701  0.1933  0.6446  0.1356
45807SOL    HW140698   2.512   5.591   1.622  0.5503  1.0367 -0.1820
45807SOL    HW240699   2.651   5.627   1.668  0.7922 -0.8169  0.6573
45808SOL     OW40700   5.477   0.376   6.122  0.0026  0.1450  0.2705
45808SOL    HW140701   5.383   0.388   6.104  0.3491  0.0961 -1.8474
45808SOL    HW240702   5.479   0.330   6.206 -1.9738 -1.7951 -0.6272
45809SOL     OW40703  11.181   2.153   3.441 -0.4431  0.5065 -0.3328
45809SOL    HW140704  11.249   2.179   3.379  1.7818 -0.1765  1.6512
45809SOL    HW240705  11.136   2.081   3.399  1.2727 -0.2114 -1.0331
45810SOL     OW40706  10.552   1.265   9.687 -0.1570 -0.1035  0.8898
45810SOL    HW140707  10.465   1.249   9.721 -1.3150  2.3511 -0.5768
45810SOL    HW240708  10.600   1.306   9.759 -0.6385 -0.3020  1.3215
45811SOL     OW40709   5.543   4.898   7.954 -0.0098  0.3802 -0.0791
45811SOL    HW140710   5.601   4.974   7.945  0.7277 -0.1385  0.2214
45811SOL    HW240711   5.481   4.923   8.023  0.6203  0.4651  0.4623
45812SOL     OW40712   7.111  10.482   4.579  0.2243 -0.6314 -0.2432
45812SOL    HW140713   7.082  10.562   4.534  0.2633 -0.2522  0.3961
45812SOL    HW240714   7.160  10.434   4.513  1.3277  0.4896 -0.2850
45813SOL     OW40715   3.048   1.144   7.292 -0.0307 -0.1826  0.0755
45813SOL    HW140716   3.127   1.090   7.281  0.3113 -0.1726  2.1524
45813SOL    HW240717   2.978   1.081   7.310  0.1350 -0.0190  1.3294
45814SOL     OW40718   3.595  11.391   0.412  0.5054  0.0447 -0.5427
45814SOL    HW140719   3.689  11.384   0.431  0.0362 -0.6407  1.9991
45814SOL    HW240720   3.553  11.340   0.481 -1.8132  1.5547 -0.7132
45815SOL     OW40721  11.117   3.347   9.577  0.0793  0.3417  0.0476
45815SOL    HW140722  11.103   3.256   9.549 -0.7743  0.1773  0.9324
45815SOL    HW240723  11.172   3.340   9.655  0.3831  0.6208 -0.1389
45816SOL     OW40724  10.273   7.474   1.900  0.0739  0.6053  0.4812
45816SOL    HW140725  10.217   7.415   1.951 -1.9342 -0.4834 -2.6938
45816SOL    HW240726  10.222   7.554   1.890  0.4060  0.7835  0.1872
45817SOL     OW40727   7.382   0.489  10.545  0.0355  0.4799 -0.2590
45817SOL    HW140728   7.391   0.558  10.480 -0.0951 -0.1084 -0.9165
45817SOL    HW240729   7.471   0.455  10.557 -0.1328 -0.3245 -1.1659
45818SOL     OW40730   9.982   9.927   9.183  0.1597 -0.5133  0.2764
45818SOL    HW140731   9.975   9.939   9.278  0.4221  0.8872  0.1475
45818SOL    HW240732   9.966   9.834   9.169  0.4448 -0.8064  1.7265
45819SOL     OW40733   7.864   4.214  10.121 -0.7917 -0.3699  0.4780
45819SOL    HW140734   7.791   4.153  10.110 -0.5562 -0.8864  1.5691
45819SOL    HW240735   7.931   4.183  10.060 -1.2840 -0.2073 -0.1502
45820SOL     OW40736   7.986   4.843   6.880  0.2594 -0.0479 -0.0245
45820SOL    HW140737   7.989   4.787   6.958  0.0827  0.4028  0.3078
45820SOL    HW240738   7.953   4.927   6.912 -0.3815 -0.0393 -0.6928
45821SOL     OW40739   4.537   3.647   6.585  0.1977  0.4434  0.2915
45821SOL    HW140740   4.526   3.569   6.531 -2.0375  1.2527 -0.5452
45821SOL    HW240741   4.470   3.638   6.653 -1.5668  2.5763 -1.0581
45822SOL     OW40742   0.597   5.428   4.259 -0.0390 -0.2659  0.5248
45822SOL    HW140743   0.658   5.357   4.238 -0.0859  0.2148 -1.4818
45822SOL    HW240744   0.510   5.391   4.244 -0.2213 -0.5639  2.1388
45823SOL     OW40745   5.636   1.513  10.272 -0.1242  0.2096  0.1417
45823SOL    HW140746   5.610   1.425  10.298  1.1190 -0.4319 -0.6806
45823SOL    HW240747   5.641   1.510  10.176  1.0769  0.8163  0.1586
45824SOL     OW40748   7.014   1.984   0.417  0.0054  0.2681  0.1545
45824SOL    HW140749   6.983   1.979   0.326 -2.3980  1.0240  0.8660
45824SOL    HW240750   7.085   1.921   0.421 -1.0119 -1.1194 -1.8118
45825SOL     OW40751   9.853   9.538   1.942  0.1227 -0.4776  0.0917
45825SOL    HW140752   9.876   9.471   1.878 -1.3610 -1.3452  0.4154
45825SOL    HW240753   9.857   9.494   2.026  1.0741  0.3881  0.5157
45826SOL     OW40754   7.179   1.626   8.427  0.1857 -0.6311  0.1079
45826SOL    HW140755   7.090   1.659   8.441  0.9932  1.6142  0.3486
45826SOL    HW240756   7.235   1.690   8.470  2.0507 -0.7879 -1.9070
45827SOL     OW40757  10.061   2.061   3.970  0.0127 -0.3560  0.4826
45827SOL    HW140758  10.033   2.151   3.952  1.3798  0.1023  0.5500
45827SOL    HW240759  10.114   2.068   4.049 -1.0951 -1.4690  1.3577
45828SOL     OW40760  10.042  11.120  11.318  0.0405  0.6375 -0.7872
45828SOL    HW140761   9.952  11.089  11.326  0.1716  0.5207  0.5819
45828SOL    HW240762  10.047  11.158  11.231 -1.3059  0.5578 -0.9233
45829SOL     OW40763   9.214   6.961   8.657  0.0272 -0.2031  0.1646
45829SOL    HW140764   9.279   7.003   8.713  0.4547 -1.6704  0.8245
45829SOL    HW240765   9.258   6.881   8.625 -0.6489 -0.0284 -1.2602
45830SOL     OW40766   5.674   2.861   5.688 -0.0994  0.1435  0.2445
45830SOL    HW140767   5.634   2.791   5.740  0.0901 -0.0420  0.1387
45830SOL    HW240768   5.745   2.818   5.640  1.6484  0.8571  2.0523
45831SOL     OW40769   9.174   2.389   4.089 -0.4600 -0.2906  0.3338
45831SOL    HW140770   9.148   2.318   4.149  2.1894  0.9241  3.1676
45831SOL    HW240771   9.168   2.468   4.142  0.1159  1.1691 -1.6761
45832SOL     OW40772   9.428   3.328   4.720 -0.1123  0.3151  0.0536
45832SOL    HW140773   9.495   3.260   4.717  0.3961  0.8139 -2.1001
45832SOL    HW240774   9.391   3.329   4.631 -1.2139  1.7623  0.4771
45833SOL     OW40775   9.626   2.471   8.726  0.1498  0.2106 -0.0370
45833SOL    HW140776   9.573   2.547   8.747  0.0952  0.4812 -1.0827
45833SOL    HW240777   9.711   2.507   8.703  0.8074 -0.2199  1.5880
45834SOL     OW40778   3.662   6.425   7.630  0.4784 -0.1297  0.1747
45834SOL    HW140779   3.685   6.343   7.586  0.3026  0.1981 -0.5500
45834SOL    HW240780   3.714   6.491   7.584  0.4486  0.1930  0.6083
45835SOL     OW40781   3.755   8.846  11.242  0.3349  0.3909  0.1615
45835SOL    HW140782   3.762   8.897  11.162 -1.4220  0.1227 -0.1988
45835SOL    HW240783   3.822   8.778  11.233  1.6438  1.6509 -0.0445
45836SOL     OW40784  10.093   2.287   4.571 -0.2625 -0.4307 -0.0483
45836SOL    HW140785  10.147   2.208   4.563  1.3601  0.1028  3.5601
45836SOL    HW240786  10.152   2.352   4.610 -2.6561  1.2380  1.0422
45837SOL     OW40787  10.614   9.314   3.486 -0.2182  0.6035  0.0074
45837SOL    HW140788  10.648   9.397   3.451 -0.4930  1.3664  1.4644
45837SOL    HW240789  10.539   9.340   3.540 -0.2149 -0.5926  0.6152
45838SOL     OW40790   1.093   6.114   7.209 -0.5354 -0.0378  0.0221
45838SOL    HW140791   1.158   6.183   7.223  0.5968 -0.5489 -2.3268
45838SOL    HW240792   1.144   6.033   7.203 -1.5415 -0.6576 -0.3597
45839SOL     OW40793   1.840   9.791   4.140  0.0357  0.0579  0.4217
45839SOL    HW140794   1.929   9.794   4.176  0.4744 -0.7467 -0.5507
45839SOL    HW240795   1.852   9.766   4.049 -1.0669  1.7326 -0.2404
45840SOL     OW40796  11.159   0.963   5.902  0.3992  0.1211  0.2554
45840SOL    HW140797  11.218   1.031   5.870  1.2167 -0.2062  1.0103
45840SOL    HW240798  11.174   0.961   5.997  0.6938 -1.3687  0.2067
45841SOL     OW40799   8.677   3.182   8.669 -0.4357 -0.1852 -0.1458
45841SOL    HW140800   8.638   3.255   8.622  1.5776 -0.1579 -1.9329
45841SOL    HW240801   8.684   3.112   8.604 -0.8037 -1.4327  1.0908
45842SOL     OW40802   2.277   9.754   3.732  0.7529 -0.2576  0.4043
45842SOL    HW140803   2.353   9.782   3.682  0.0262 -1.8650 -1.7975
45842SOL    HW240804   2.202   9.797   3.689  0.2567 -0.0369  1.4512
45843SOL     OW40805   0.221   9.421   8.696  0.1638  0.1974 -0.4140
45843SOL    HW140806   0.288   9.490   8.692  1.2335 -0.8321 -0.9925
45843SOL    HW240807   0.258   9.349   8.645 -2.0649  0.1507 -2.1651
45844SOL     OW40808   1.985   5.998   9.015  0.3543  0.3050  0.4950
45844SOL    HW140809   1.955   6.037   8.933  0.0328  0.7148  0.8008
45844SOL    HW240810   2.079   6.015   9.017  0.5791 -0.6980 -0.3168
45845SOL     OW40811   6.140   8.422   2.652  0.0601  0.2680 -0.4368
45845SOL    HW140812   6.079   8.481   2.697 -1.0449 -1.5604  0.5453
45845SOL    HW240813   6.220   8.427   2.703  0.2571  1.4695 -0.8134
45846SOL     OW40814   5.613   2.495   9.728 -0.5847  0.1244  0.0294
45846SOL    HW140815   5.523   2.504   9.760 -0.0920  4.0245  0.7981
45846SOL    HW240816   5.634   2.581   9.691  2.2563 -1.2201 -1.8171
45847SOL     OW40817   1.888   5.516   7.336 -0.3634 -0.4535 -0.6888
45847SOL    HW140818   1.979   5.488   7.326 -0.2980 -0.1230 -1.0267
45847SOL    HW240819   1.886   5.606   7.305 -0.9843 -0.7391 -1.5553
45848SOL     OW40820   1.496   8.888   7.115 -0.5579  0.4318  0.1878
45848SOL    HW140821   1.525   8.964   7.065 -0.3275  1.0182  1.1917
45848SOL    HW240822   1.574   8.833   7.123 -0.8879 -0.2824 -1.1425
45849SOL     OW40823   9.292   7.871   5.387 -0.0736  0.8039  0.4291
45849SOL    HW140824   9.244   7.812   5.329 -0.5166  0.0586  1.5154
45849SOL    HW240825   9.383   7.863   5.359 -0.3367  0.8076 -0.4536
45850SOL     OW40826   9.918   4.431   9.768 -0.2597 -0.4041 -0.0050
45850SOL    HW140827   9.972   4.418   9.690  0.0705 -0.3153  0.2051
45850SOL    HW240828   9.911   4.526   9.776  0.6578 -0.3823  0.7120
45851SOL     OW40829   2.863   7.009   1.861  0.1540 -0.1863  0.5150
45851SOL    HW140830   2.828   6.924   1.833  0.9863 -0.4966  0.3845
45851SOL    HW240831   2.953   7.009   1.830 -0.0228  1.0214 -0.0556
45852SOL     OW40832  11.237   8.370   3.019 -0.2852  0.0883 -0.2104
45852SOL    HW140833  11.248   8.349   2.926  1.2972 -0.8462  0.1528
45852SOL    HW240834  11.215   8.286   3.060 -0.1161  0.3304  0.3792
45853SOL     OW40835   0.145   5.213   6.182 -0.2285  0.2726 -0.6799
45853SOL    HW140836   0.191   5.285   6.139 -1.0483  0.3480 -1.4598
45853SOL    HW240837   0.116   5.250   6.265  1.3310  0.1387 -0.0379
45854SOL     OW40838   9.220  11.202   7.806  0.4909  0.2501 -0.0480
45854SOL    HW140839   9.302  11.218   7.852  0.1930  0.0829  0.5649
45854SOL    HW240840   9.229  11.248   7.723  0.7395  1.2273  0.5006
45855SOL     OW40841   7.504   3.957   3.595 -0.1866 -0.3605  0.2296
45855SOL    HW140842   7.502   4.040   3.548 -1.4231 -1.0233 -0.9330
45855SOL    HW240843   7.549   3.977   3.677 -0.1589  1.3719 -0.1836
45856SOL     OW40844   7.773  10.658   2.910 -0.1385 -0.5679 -0.2259
45856SOL    HW140845   7.733  10.721   2.850  0.9749 -1.2287 -1.7287
45856SOL    HW240846   7.701  10.628   2.966 -1.2380 -0.0442 -1.3220
45857SOL     OW40847   4.563   8.807   4.885  0.7859  0.1387 -0.4044
45857SOL    HW140848   4.623   8.840   4.952 -1.2677 -0.9211  2.1895
45857SOL    HW240849   4.535   8.884   4.837  0.5020  1.4018  1.6466
45858SOL     OW40850   4.264   3.040   5.355  0.0290 -0.1134 -0.0509
45858SOL    HW140851   4.355   3.070   5.356  0.0883 -0.2959  0.3791
45858SOL    HW240852   4.215   3.112   5.316  0.2751  0.2294  0.2668
45859SOL     OW40853   8.209  10.613   0.816  0.2257 -0.3613 -0.7147
45859SOL    HW140854   8.127  10.568   0.834  0.0897  0.7035  1.6175
45859SOL    HW240855   8.264  10.595   0.893  1.3699  0.7452 -1.2339
45860SOL     OW40856   6.389  10.857  11.302  0.5391 -0.2306 -0.3646
45860SOL    HW140857   6.419  10.908  11.378  0.1539 -1.2233  0.4879
45860SOL    HW240858   6.295  10.870  11.301  0.1734 -2.1906  0.9117
45861SOL     OW40859   7.802  10.961   4.627  0.0965  0.0375  0.4131
45861SOL    HW140860   7.893  10.967   4.654  0.0731 -0.2898  0.5757
45861SOL    HW240861   7.754  10.944   4.709 -0.3036  1.8218  0.5970
45862SOL     OW40862   4.481   7.794   9.057 -0.3918 -0.4901  0.0221
45862SOL    HW140863   4.555   7.800   9.118 -0.0758 -0.4164 -0.3626
45862SOL    HW240864   4.435   7.877   9.067  0.7589  0.3293 -1.2212
45863SOL     OW40865   3.009   6.667   8.085 -0.1645  0.6126  0.0887
45863SOL    HW140866   3.104   6.661   8.077 -0.2026 -0.9166  0.6286
45863SOL    HW240867   2.993   6.679   8.179 -0.5746 -1.4414  0.3252
45864SOL     OW40868   6.335   7.395   2.924 -0.3071 -0.3333  0.1846
45864SOL    HW140869   6.377   7.458   2.866 -1.9518  0.4227 -0.2339
45864SOL    HW240870   6.400   7.326   2.935  1.3462  1.1513  0.2156
45865SOL     OW40871   2.784   1.833   3.184  0.2310 -0.2496 -0.4408
45865SOL    HW140872   2.737   1.816   3.265  1.0656 -0.3592  0.0252
45865SOL    HW240873   2.747   1.916   3.152  2.9209  2.2946  2.3751
45866SOL     OW40874   2.359   5.934   7.259  0.7169  0.1273  0.5023
45866SOL    HW140875   2.374   5.877   7.184 -0.8936 -0.3344  0.4974
45866SOL    HW240876   2.323   6.014   7.221  1.5796  0.5913  0.6406
45867SOL     OW40877   8.318   6.670   6.611  0.2094  0.4424  0.3344
45867SOL    HW140878   8.390   6.609   6.593 -0.2171  0.3598 -1.2810
45867SOL    HW240879   8.272   6.631   6.686  1.3472  0.0593  0.8536
45868SOL     OW40880   8.546   5.884  11.297 -0.2324  0.3292  0.5664
45868SOL    HW140881   8.532   5.901  11.204  0.2046  1.3714  0.6836
45868SOL    HW240882   8.507   5.797  11.311  0.8911 -0.4545 -0.8613
45869SOL     OW40883   4.111   4.314  10.624 -0.5174  0.2059  0.0685
45869SOL    HW140884   4.023   4.298  10.590 -0.5868  1.9207 -0.7090
45869SOL    HW240885   4.103   4.307  10.719 -0.8077 -2.5395 -0.0849
45870SOL     OW40886   0.218   9.810   4.608 -0.2924 -0.1518 -0.1969
45870SOL    HW140887   0.233   9.817   4.514 -1.1484  0.9910 -0.2710
45870SOL    HW240888   0.246   9.895   4.643  1.2422 -1.0065  0.7786
45871SOL     OW40889   3.871   8.777   1.921  0.0307 -0.3882  0.4328
45871SOL    HW140890   3.817   8.708   1.958 -0.1805  0.4356  1.7547
45871SOL    HW240891   3.960   8.741   1.922 -0.0849 -0.6705  1.0443
45872SOL     OW40892   9.567   3.739   9.330 -0.3644 -0.0027 -0.0045
45872SOL    HW140893   9.600   3.713   9.244 -2.4382 -1.8939 -0.3257
45872SOL    HW240894   9.608   3.823   9.347  0.4230  0.2397 -2.6680
45873SOL     OW40895   6.217   4.087   8.392  0.1680 -0.2293 -0.0789
45873SOL    HW140896   6.310   4.104   8.406 -0.0905  1.1946  0.0026
45873SOL    HW240897   6.173   4.131   8.466 -0.5147 -1.7937  0.4960
45874SOL     OW40898   7.255   0.607   1.119  0.5845  0.0419 -0.5636
45874SOL    HW140899   7.290   0.521   1.096  0.2578 -0.0256 -0.8044
45874SOL    HW240900   7.236   0.600   1.213 -1.4150 -0.8544 -0.9813
45875SOL     OW40901   5.118  11.007   8.404 -0.2382 -0.5932 -0.1043
45875SOL    HW140902   5.032  11.012   8.361 -1.1494 -0.7221  1.6204
45875SOL    HW240903   5.113  11.071   8.475  1.0885 -0.6515  0.0726
45876SOL     OW40904   9.081   6.345   5.397  0.2836  0.0669 -0.4872
45876SOL    HW140905   9.018   6.417   5.386  0.0758 -0.1444 -0.6998
45876SOL    HW240906   9.051   6.278   5.335 -0.7389 -1.0341  1.1277
45877SOL     OW40907   3.678   4.842   0.080 -0.0663  0.0725  0.5231
45877SOL    HW140908   3.727   4.875   0.155 -0.0762  1.1768  0.0663
45877SOL    HW240909   3.744   4.826   0.013 -0.1584 -0.0517  0.4612
45878SOL     OW40910   7.191   1.508   6.284 -0.1217 -0.2038  0.0983
45878SOL    HW140911   7.225   1.511   6.374  0.5711 -0.1793 -0.1612
45878SOL    HW240912   7.257   1.459   6.235 -0.0440  0.5773 -0.5968
45879SOL     OW40913   6.228   5.148   1.230 -0.1365  0.5518  0.5641
45879SOL    HW140914   6.166   5.180   1.164  0.2802 -1.2451 -0.7789
45879SOL    HW240915   6.172   5.108   1.297 -0.5174  0.8343  0.4228
45880SOL     OW40916   6.456   5.070   6.323 -0.1945 -0.8084 -0.2880
45880SOL    HW140917   6.398   5.098   6.253  0.8664  0.7049 -0.6158
45880SOL    HW240918   6.536   5.042   6.279 -0.1739 -1.5939  0.2268
45881SOL     OW40919   3.981   3.364   3.929 -0.2581  0.0427  0.2621
45881SOL    HW140920   4.004   3.275   3.954 -1.0722 -0.2240  0.0985
45881SOL    HW240921   4.051   3.391   3.870  0.0699 -0.4370  0.4256
45882SOL     OW40922   7.423   7.656   2.073 -0.7772  0.1845 -0.4918
45882SOL    HW140923   7.361   7.658   2.146  0.0916  1.6544  0.2438
45882SOL    HW240924   7.479   7.581   2.091 -0.5593  0.5436  0.3826
45883SOL     OW40925   6.426   9.604   1.623  0.1902  0.5178 -0.0245
45883SOL    HW140926   6.445   9.510   1.623 -1.1716  0.2014  1.1881
45883SOL    HW240927   6.460   9.635   1.539  2.3537 -0.6797  0.3325
45884SOL     OW40928   8.856   9.355   9.239 -0.1637 -0.6712  0.4765
45884SOL    HW140929   8.810   9.374   9.321 -2.6043  1.9050 -1.2875
45884SOL    HW240930   8.937   9.406   9.245  1.1109 -2.7310  2.3182
45885SOL     OW40931   5.036   0.981   0.709  0.0427 -0.2070 -0.3682
45885SOL    HW140932   5.031   1.074   0.689 -0.2858 -0.2694 -0.5799
45885SOL    HW240933   4.981   0.939   0.643  0.2368 -0.5572 -0.3118
45886SOL     OW40934   7.161   8.037   6.828  0.1970  0.3547 -0.3469
45886SOL    HW140935   7.115   7.969   6.779 -0.4469  0.5766 -0.0649
45886SOL    HW240936   7.131   8.025   6.918  1.0930  0.1784 -0.0626
45887SOL     OW40937   2.800   8.723  10.407  0.2566 -0.0367  0.1039
45887SOL    HW140938   2.754   8.759  10.332  0.5911 -2.1773 -1.2258
45887SOL    HW240939   2.733   8.675  10.456  0.4968 -0.7040 -0.2111
45888SOL     OW40940   1.731   4.809   2.117  0.0511 -0.1583 -0.0667
45888SOL    HW140941   1.792   4.760   2.061 -0.4677  0.7893 -1.5378
45888SOL    HW240942   1.729   4.897   2.079 -0.3458  0.5216  1.4696
45889SOL     OW40943   6.055   1.216  10.017 -0.6315 -0.0706 -0.0069
45889SOL    HW140944   6.030   1.178   9.933 -0.3857 -0.7158  0.2056
45889SOL    HW240945   6.145   1.245  10.004 -0.6331 -0.0626 -0.0009
45890SOL     OW40946   0.788   8.389  10.375  0.4043  0.5598 -0.1072
45890SOL    HW140947   0.806   8.303  10.412  1.5027  0.3835 -0.9920
45890SOL    HW240948   0.811   8.380  10.282  0.2611  1.7278 -0.2698
45891SOL     OW40949   8.187   8.683   7.323 -0.3151 -0.0826  0.2279
45891SOL    HW140950   8.207   8.652   7.235 -3.1320 -0.2455 -0.4623
45891SOL    HW240951   8.170   8.603   7.373 -0.7339  0.0725  0.3391
45892SOL     OW40952   1.517  11.197   0.609 -0.1626  0.0248 -0.2345
45892SOL    HW140953   1.423  11.208   0.621 -0.0536 -0.0115  0.6577
45892SOL    HW240954   1.524  11.141   0.531 -0.7662  3.4407 -3.0128
45893SOL     OW40955  10.359   0.034   8.981  0.2655  0.1311  0.1056
45893SOL    HW140956  10.304  -0.028   9.029  0.0865  0.0962 -0.1414
45893SOL    HW240957  10.376   0.105   9.043 -1.0002  0.6988 -0.1672
45894SOL     OW40958   9.441   5.689   8.855  0.2018  0.5782  0.3447
45894SOL    HW140959   9.422   5.777   8.822  1.6377  0.8876  0.2534
45894SOL    HW240960   9.363   5.665   8.905 -0.3805  1.7402  0.0420
45895SOL     OW40961   9.915   1.523   8.707 -0.3298  0.9059  0.2618
45895SOL    HW140962   9.825   1.553   8.690 -0.9339 -0.3011  1.2180
45895SOL    HW240963   9.924   1.444   8.654 -0.0164  0.7265  0.5825
45896SOL     OW40964   2.538   1.346   3.706 -0.5126  0.1499 -0.1404
45896SOL    HW140965   2.538   1.441   3.694 -0.1191  0.1923  0.1519
45896SOL    HW240966   2.457   1.328   3.754 -0.0419  0.4823  0.8205
45897SOL     OW40967   9.966   5.462   5.098 -0.3347  0.1731 -0.0866
45897SOL    HW140968   9.897   5.411   5.057  0.5840 -0.5878 -0.7160
45897SOL    HW240969  10.003   5.404   5.165  0.8445 -0.0896 -0.9405
45898SOL     OW40970   7.475   8.974   9.006 -0.6202 -0.3083  0.1937
45898SOL    HW140971   7.468   9.067   8.987  1.3885 -0.4144 -1.4626
45898SOL    HW240972   7.413   8.932   8.947 -0.4104 -0.1020 -0.1788
45899SOL     OW40973   3.230   8.410   0.393 -0.0328 -0.7131 -0.1801
45899SOL    HW140974   3.189   8.413   0.306 -0.0929 -2.7902 -0.2824
45899SOL    HW240975   3.185   8.338   0.438 -0.4769  0.7494  1.8678
45900SOL     OW40976   3.825   1.020   3.760  0.3434 -0.9086  0.5952
45900SOL    HW140977   3.779   1.016   3.843 -0.4964 -1.5886  0.1141
45900SOL    HW240978   3.888   0.947   3.764 -0.1821 -1.3783  0.3579
45901SOL     OW40979   9.133  11.299   9.267 -0.2028  0.0806 -0.3781
45901SOL    HW140980   9.173  11.384   9.289  0.1015  0.3945 -2.0153
45901SOL    HW240981   9.182  11.236   9.319 -1.5384  1.0270  2.1838
45902SOL     OW40982   1.752   2.763   6.467  0.2369  0.0602 -0.5627
45902SOL    HW140983   1.796   2.830   6.520 -0.1212 -0.7323  0.7811
45902SOL    HW240984   1.720   2.699   6.531 -0.6155 -0.7000 -1.7142
45903SOL     OW40985   4.520   6.560  11.274 -0.3001  0.3353  0.8494
45903SOL    HW140986   4.458   6.554  11.201  1.1631 -1.6752 -0.3344
45903SOL    HW240987   4.465   6.562  11.352 -1.9388 -1.9689 -0.1249
45904SOL     OW40988  10.079   4.994   9.443 -0.6168  0.0887 -0.2622
45904SOL    HW140989  10.047   5.005   9.533  0.1378  0.3748 -0.0221
45904SOL    HW240990  10.026   5.056   9.392 -0.3348  0.6973  0.1610
45905SOL     OW40991   0.963   8.603   2.241 -0.4898 -0.0741  0.3985
45905SOL    HW140992   1.050   8.615   2.278  0.2163 -0.3231 -1.0933
45905SOL    HW240993   0.973   8.627   2.149 -2.0279 -0.0164  0.2200
45906SOL     OW40994   3.559   1.894   2.037  0.3418  0.5291 -0.3953
45906SOL    HW140995   3.611   1.814   2.044 -0.2551  0.1858  0.3372
45906SOL    HW240996   3.568   1.922   1.946  1.4912  0.2743 -0.3722
45907SOL     OW40997   6.668   8.378  11.246 -0.4740 -0.0053 -0.1616
45907SOL    HW140998   6.688   8.449  11.185 -1.0007  0.2379 -0.0566
45907SOL    HW240999   6.695   8.299  11.200 -1.3987  0.1182 -0.9551
45908SOL     OW41000   7.690   2.972   9.751  0.2201  0.1002  0.1271
45908SOL    HW141001   7.764   3.021   9.715  0.4049  0.1130  0.5245
45908SOL    HW241002   7.726   2.924   9.825 -0.0740 -0.2350  0.0583
45909SOL     OW41003  10.867   9.056   2.216 -0.0139 -0.0564  0.0867
45909SOL    HW141004  10.952   9.032   2.179 -0.2128 -0.8162  0.0947
45909SOL    HW241005  10.815   9.084   2.141  0.6976  1.8516  0.2690
45910SOL     OW41006   1.850   5.587   6.565  0.3876 -0.4483  0.1618
45910SOL    HW141007   1.840   5.512   6.506  0.5313  0.3097 -0.8497
45910SOL    HW241008   1.796   5.656   6.526  0.2782 -0.0081  1.0597
45911SOL     OW41009  10.323   0.242   3.369 -0.2340  0.1539  0.0196
45911SOL    HW141010  10.418   0.255   3.367 -0.0343 -0.7267  1.6548
45911SOL    HW241011  10.312   0.159   3.416 -1.7470 -0.9228 -2.0557
45912SOL     OW41012   8.447   7.295   3.333  0.5032 -0.6189  0.8428
45912SOL    HW141013   8.431   7.260   3.245  0.9343 -0.5057  0.7150
45912SOL    HW241014   8.543   7.295   3.341  0.5222  0.7059  0.7666
45913SOL     OW41015   9.458   7.140   7.615  0.4667  0.1176  0.4744
45913SOL    HW141016   9.537   7.113   7.568  0.1465  0.7435 -0.4489
45913SOL    HW241017   9.483   7.135   7.708  1.6361  0.4115  0.2023
45914SOL     OW41018   7.465  10.639   0.634  0.4924 -0.2088  0.3020
45914SOL    HW141019   7.398  10.645   0.703  0.1232 -1.4927  0.0930
45914SOL    HW241020   7.444  10.557   0.589 -0.1852  1.3136 -2.3229
45915SOL     OW41021   7.699   5.686   6.265 -0.2937  0.0496  0.0208
45915SOL    HW141022   7.732   5.604   6.303 -0.3055  0.6272  1.3331
45915SOL    HW241023   7.761   5.752   6.296 -1.7395  0.9157  1.1650
45916SOL     OW41024   5.459   3.994  11.217 -0.1108  0.4387  0.0836
45916SOL    HW141025   5.551   4.007  11.239 -0.2599 -0.1368  1.0720
45916SOL    HW241026   5.417   4.078  11.237 -0.0519  0.2570  1.0027
45917SOL     OW41027  10.676  10.129   4.087  0.2702  0.6972  0.0660
45917SOL    HW141028  10.700  10.036   4.091 -1.5819  0.0839 -1.4881
45917SOL    HW241029  10.742  10.167   4.028 -0.8522 -0.3854 -1.9899
45918SOL     OW41030   7.285   5.728   6.464  0.3276  0.3775  0.5785
45918SOL    HW141031   7.275   5.796   6.397  0.7638 -1.2781 -1.2581
45918SOL    HW241032   7.331   5.657   6.420 -0.9487 -1.5310  2.1173
45919SOL     OW41033   3.369   1.167  10.551  0.0830 -0.5770  0.1182
45919SOL    HW141034   3.356   1.246  10.498  1.3406 -1.8226 -2.1786
45919SOL    HW241035   3.380   1.201  10.640 -0.7579  1.7156 -0.5632
45920SOL     OW41036   9.734   6.578   6.763 -0.1180 -0.4083  0.2989
45920SOL    HW141037   9.656   6.631   6.748  1.0981  1.3242 -0.1961
45920SOL    HW241038   9.702   6.487   6.758 -2.1380  0.2312  0.4847
45921SOL     OW41039   9.696   0.307   6.810  0.4692  0.0127 -0.2471
45921SOL    HW141040   9.660   0.384   6.766  2.7157  0.6255 -1.1706
45921SOL    HW241041   9.621   0.266   6.853 -1.0662  1.8050 -1.0879
45922SOL     OW41042  11.277   9.875   8.141 -0.5669  0.1388  0.0385
45922SOL    HW141043  11.370   9.878   8.122 -0.5904  0.4057 -0.0301
45922SOL    HW241044  11.272   9.851   8.234 -0.4662 -1.6599 -0.3795
45923SOL     OW41045   0.395  10.694   1.356  0.2505  0.2838  0.2460
45923SOL    HW141046   0.462  10.761   1.370  0.3112  0.0333  1.2149
45923SOL    HW241047   0.408  10.666   1.265  2.8871 -1.2870  1.0024
45924SOL     OW41048   9.486   4.714   4.188 -0.0755  0.6038 -0.5091
45924SOL    HW141049   9.466   4.743   4.277  0.7454  1.4543 -0.5878
45924SOL    HW241050   9.481   4.619   4.192  0.1254  0.6242  0.4881
45925SOL     OW41051   2.762   9.918   1.470 -0.2210  0.8541  0.2263
45925SOL    HW141052   2.815   9.965   1.405 -0.2063 -1.3648 -1.4568
45925SOL    HW241053   2.676   9.909   1.430 -0.2291 -0.5291  0.5109
45926SOL     OW41054   4.822   3.409   0.295 -0.2271 -0.2347  0.3276
45926SOL    HW141055   4.804   3.483   0.352  0.2421 -1.1142  1.6516
45926SOL    HW241056   4.906   3.374   0.326  0.3023 -0.4427 -1.2238
45927SOL     OW41057   2.773   9.260  10.108  0.5284 -0.5904  0.1221
45927SOL    HW141058   2.859   9.283  10.143 -0.3533  0.5794  1.6132
45927SOL    HW241059   2.720   9.240  10.185 -1.3079  1.4328 -0.5203
45928SOL     OW41060   1.117   9.325   1.747 -0.0715 -0.3772  0.7406
45928SOL    HW141061   1.115   9.303   1.841 -1.4919  0.6232  0.9713
45928SOL    HW241062   1.090   9.417   1.744 -0.0192 -0.3997 -0.6632
45929SOL     OW41063   3.970   8.156  10.508  0.4182  0.3367  0.0385
45929SOL    HW141064   4.006   8.173  10.595  1.0324  0.6737 -0.2730
45929SOL    HW241065   3.912   8.231  10.491  0.8810  0.6627 -0.1425
45930SOL     OW41066   9.028   1.279   5.299  0.4262  0.0525 -0.8845
45930SOL    HW141067   9.078   1.294   5.379 -1.7673  1.2285  0.3561
45930SOL    HW241068   9.088   1.231   5.242  2.5077  0.3262  0.9457
45931SOL     OW41069   0.941   1.165   4.576 -0.3347 -0.0911  0.0174
45931SOL    HW141070   0.988   1.185   4.657 -0.5647  0.5464  0.0004
45931SOL    HW241071   0.951   1.243   4.523 -0.2702 -0.4715 -0.5374
45932SOL     OW41072   7.943   7.148   9.729 -0.1685 -0.4615 -0.3545
45932SOL    HW141073   7.894   7.104   9.798  0.1414 -0.2199  0.0220
45932SOL    HW241074   7.877   7.196   9.679 -0.2866  0.0885  0.3183
45933SOL     OW41075  10.455   5.720   6.872  0.1956 -0.2494 -0.0498
45933SOL    HW141076  10.483   5.799   6.826 -0.4635  0.9305  1.4758
45933SOL    HW241077  10.369   5.743   6.909  0.8758 -0.9508  2.1284
45934SOL     OW41078   9.657   7.274   9.365 -0.1752 -0.6425  0.3143
45934SOL    HW141079   9.563   7.282   9.347 -0.4184 -0.1529  1.6165
45934SOL    HW241080   9.665   7.195   9.419  0.0359 -0.2686  0.8474
45935SOL     OW41081   8.733   9.951   8.809  0.7401  0.1356  0.3467
45935SOL    HW141082   8.807   9.896   8.837  2.0194  1.5921 -0.0046
45935SOL    HW241083   8.708   9.915   8.724  1.3397 -0.1209  0.2714
45936SOL     OW41084   1.922   1.621   8.847  0.0502  0.3780  0.2756
45936SOL    HW141085   1.834   1.587   8.829  1.4124 -3.6373  0.2832
45936SOL    HW241086   1.908   1.685   8.917 -2.9786  1.1781 -0.8661
45937SOL     OW41087   3.549   5.459   9.482 -0.3201 -0.8004 -0.5551
45937SOL    HW141088   3.525   5.384   9.428  1.2043 -0.7578 -1.3479
45937SOL    HW241089   3.643   5.448   9.499 -0.4586 -0.0315  0.8632
45938SOL     OW41090   0.892   6.949   4.602  0.5722 -0.4254  0.5181
45938SOL    HW141091   0.843   7.011   4.548  1.3022  1.1408  1.5694
45938SOL    HW241092   0.833   6.875   4.613 -0.4429  0.1853 -0.5575
45939SOL     OW41093   4.221   9.587   3.508 -0.0596  0.1084  0.0646
45939SOL    HW141094   4.240   9.496   3.488  0.0950  0.1951 -0.1797
45939SOL    HW241095   4.289   9.637   3.463  1.1455  0.2417  1.9149
45940SOL     OW41096   6.060   7.619   5.615  0.7106 -0.7947 -0.1847
45940SOL    HW141097   6.129   7.675   5.579 -0.2824 -0.2196 -1.2370
45940SOL    HW241098   6.027   7.666   5.692  0.9532 -0.7001 -0.1377
45941SOL     OW41099   8.399   0.790   8.247 -0.1301  0.3333 -0.5211
45941SOL    HW141100   8.407   0.819   8.156 -0.3534  0.6322 -0.4472
45941SOL    HW241101   8.305   0.777   8.260  0.0455 -1.8619 -0.9848
45942SOL     OW41102   3.408   6.364   4.011  0.3054  0.1281 -0.0562
45942SOL    HW141103   3.457   6.417   3.949  2.7718 -1.0710  0.7393
45942SOL    HW241104   3.376   6.427   4.076 -1.2412  1.2209 -1.7953
45943SOL     OW41105   8.640   4.290   7.011 -0.0076 -0.2737  0.2927
45943SOL    HW141106   8.576   4.223   6.987 -0.7704  0.3405  0.5663
45943SOL    HW241107   8.602   4.372   6.980  0.0123  0.2658  1.6195
45944SOL     OW41108   9.578  10.341   5.233  0.3406  0.0905  0.2048
45944SOL    HW141109   9.642  10.387   5.286 -2.8230  2.6229  2.2035
45944SOL    HW241110   9.544  10.272   5.291 -1.8885  1.7409  0.9788
45945SOL     OW41111  11.080   3.982   4.318 -0.0652  0.5185  0.0089
45945SOL    HW141112  11.173   3.975   4.298 -0.2807 -3.1812 -0.5703
45945SOL    HW241113  11.037   3.977   4.232 -0.7459 -1.9546  0.3989
45946SOL     OW41114   9.377  11.081  10.413 -0.3043 -0.3707 -0.6371
45946SOL    HW141115   9.318  11.097  10.487  1.0857 -0.9931  0.6539
45946SOL    HW241116   9.341  11.134  10.342 -0.3199  2.1985  1.1736
45947SOL     OW41117   4.181   9.658   6.375 -0.1970  0.6494 -0.5559
45947SOL    HW141118   4.220   9.731   6.327 -1.3401  1.3439 -0.4687
45947SOL    HW241119   4.097   9.643   6.331 -1.3913  1.4698  1.3357
45948SOL     OW41120   2.218   5.074  10.224 -0.3507 -0.1933 -1.0793
45948SOL    HW141121   2.227   5.058  10.318  1.3829 -0.6853 -1.2931
45948SOL    HW241122   2.301   5.115  10.199 -0.9490  0.3060 -2.3354
45949SOL     OW41123   6.200   4.254   3.830 -0.5325 -0.6526 -0.1545
45949SOL    HW141124   6.291   4.279   3.809 -1.3804  3.2834 -0.0321
45949SOL    HW241125   6.208   4.202   3.910  1.6984 -2.2648 -1.3067
45950SOL     OW41126   3.868   7.080  10.956  0.2086  0.1251 -0.8019
45950SOL    HW141127   3.780   7.092  10.921  0.4491 -0.0009 -1.4884
45950SOL    HW241128   3.908   7.167  10.950  0.2339  0.1144 -0.7895
45951SOL     OW41129  10.991  10.467   6.079  0.4686  0.3839 -0.6980
45951SOL    HW141130  11.020  10.479   5.989 -0.4795  1.5513 -0.8657
45951SOL    HW241131  11.061  10.417   6.120  0.8965 -0.2050 -2.0862
45952SOL     OW41132   3.142   4.369  10.559 -0.4817  0.8406 -0.1767
45952SOL    HW141133   3.118   4.432  10.628 -0.6546  1.3125 -0.6586
45952SOL    HW241134   3.066   4.367  10.501 -0.0347  1.0447 -0.7828
45953SOL     OW41135   9.434   3.969   6.949 -0.2781 -0.1885 -0.0401
45953SOL    HW141136   9.421   4.059   6.981  0.7459  0.3104 -0.9736
45953SOL    HW241137   9.389   3.968   6.865 -0.5814 -0.6609  0.1277
45954SOL     OW41138   5.921   7.036   4.505  0.1392  0.6507  0.7846
45954SOL    HW141139   5.957   6.947   4.509  0.9710  0.8472 -1.2073
45954SOL    HW241140   5.827   7.023   4.494  0.3467 -0.0202 -0.3185
45955SOL     OW41141   4.334   5.258   2.224  0.6251 -0.1827 -0.5387
45955SOL    HW141142   4.268   5.326   2.215  0.2005 -0.7874 -2.4485
45955SOL    HW241143   4.329   5.232   2.316 -0.1220  1.4166 -0.0897
45956SOL     OW41144   0.104   6.375   4.928  0.3199 -0.4802 -0.1004
45956SOL    HW141145   0.150   6.350   5.008  0.0372  1.0948  0.6007
45956SOL    HW241146   0.108   6.471   4.928 -1.0723 -0.3962 -1.1438
45957SOL     OW41147   8.342   0.799   0.919 -0.5935 -0.6775  0.2737
45957SOL    HW141148   8.350   0.893   0.934  0.4237 -0.7296  0.0653
45957SOL    HW241149   8.417   0.776   0.865 -1.0761 -1.5350 -0.0488
45958SOL     OW41150   5.913   8.048   6.418  0.0206  0.0764  0.1108
45958SOL    HW141151   5.960   8.005   6.490 -1.2032  0.1110  0.9604
45958SOL    HW241152   5.955   8.133   6.409 -0.8864  0.7799  1.9838
45959SOL     OW41153  11.254   0.091   7.098 -0.2446  0.1363  0.3021
45959SOL    HW141154  11.193   0.151   7.055 -0.3006 -0.9657 -1.2160
45959SOL    HW241155  11.207   0.061   7.176 -1.0021  0.5213 -0.0007
45960SOL     OW41156   6.202   7.358   7.199 -0.0548 -0.1273  0.1816
45960SOL    HW141157   6.141   7.406   7.143 -0.9193 -1.8724 -0.4275
45960SOL    HW241158   6.160   7.358   7.285 -0.3889 -0.3783  0.0206
45961SOL     OW41159   3.937   5.476   6.419 -0.1887 -0.0230 -0.5162
45961SOL    HW141160   3.934   5.477   6.324 -1.5206 -0.9103 -0.5157
45961SOL    HW241161   4.022   5.513   6.441 -0.6740  2.1511 -1.9889
45962SOL     OW41162   9.397   5.245   0.110  0.6824  0.9784 -0.1394
45962SOL    HW141163   9.332   5.316   0.116  1.9449  2.2479 -0.7867
45962SOL    HW241164   9.452   5.257   0.187 -0.2170 -0.5281  0.7856
45963SOL     OW41165   5.328  10.722   9.117  0.4395 -0.1923 -0.5171
45963SOL    HW141166   5.389  10.761   9.180  1.1516 -0.1106 -1.2412
45963SOL    HW241167   5.368  10.738   9.032  1.4947 -3.6842 -0.8221
45964SOL     OW41168  10.081   2.467   8.321  0.0570  0.0099 -0.0027
45964SOL    HW141169  10.045   2.554   8.335  1.8565  0.5750  1.5238
45964SOL    HW241170  10.175   2.478   8.335  0.2757 -2.2549  0.5820
45965SOL     OW41171   5.515   2.486   0.004  0.6559  0.0658  0.0638
45965SOL    HW141172   5.517   2.580  -0.014  1.6718 -0.1014 -0.8516
45965SOL    HW241173   5.488   2.446  -0.080 -0.7917 -0.4140  0.7266
45966SOL     OW41174  10.403   9.222   9.954  0.3218  0.0225  0.4507
45966SOL    HW141175  10.450   9.275   9.891 -1.0604  0.5777 -0.1648
45966SOL    HW241176  10.381   9.282  10.026  0.9532 -0.3481  0.9661
45967SOL     OW41177   0.630   0.126   7.819 -0.3898  0.3357 -0.3394
45967SOL    HW141178   0.549   0.143   7.867  0.4024 -0.1428  1.2677
45967SOL    HW241179   0.606   0.131   7.727 -1.8326  2.0551  0.0915
45968SOL     OW41180   3.921   2.208   5.256 -0.0039 -0.2959 -0.7890
45968SOL    HW141181   3.847   2.148   5.254 -0.2710  0.0380 -1.1901
45968SOL    HW241182   3.974   2.179   5.330 -1.4852  0.6152  0.6860
45969SOL     OW41183   4.949  10.349   1.696 -0.1927  0.0478 -0.1429
45969SOL    HW141184   4.905  10.366   1.612  2.3702  0.0875 -1.5820
45969SOL    HW241185   4.880  10.312   1.751 -2.2602  1.0510 -1.8744
45970SOL     OW41186   3.684   8.293   2.430 -0.2150 -0.0003  0.3579
45970SOL    HW141187   3.644   8.305   2.516 -0.1649  4.0283  0.0435
45970SOL    HW241188   3.778   8.304   2.446  0.1302 -2.1654  0.0961
45971SOL     OW41189   5.526  10.881   5.415  0.1022 -0.0483  0.0914
45971SOL    HW141190   5.551  10.906   5.504  0.9374  1.7113 -0.5980
45971SOL    HW241191   5.466  10.807   5.427  0.6477 -0.2241  2.0733
45972SOL     OW41192   7.247   6.300   1.491 -0.8180  0.1579  0.0373
45972SOL    HW141193   7.202   6.216   1.499 -1.4364  0.5606  0.9236
45972SOL    HW241194   7.273   6.323   1.580 -0.2424  0.6940 -0.2524
45973SOL     OW41195   5.072   1.868   6.426  0.2305 -0.3160  0.1906
45973SOL    HW141196   5.067   1.787   6.375 -2.7289 -0.2926  0.2945
45973SOL    HW241197   5.155   1.861   6.473  1.2658 -2.0891 -1.7208
45974SOL     OW41198  10.787   7.959   1.849 -0.0240  0.5267  0.7820
45974SOL    HW141199  10.728   7.929   1.918  0.0128  0.3611  0.7440
45974SOL    HW241200  10.775   8.054   1.846 -1.0475  0.3909  0.0820
45975SOL     OW41201   3.397   4.767   0.195 -0.0605  0.2146 -0.2365
45975SOL    HW141202   3.404   4.737   0.286  1.3695  0.5017 -0.2364
45975SOL    HW241203   3.486   4.765   0.162 -0.3272  1.6601 -1.1400
45976SOL     OW41204   3.686   5.487   5.290  0.1714 -0.2122 -0.3203
45976SOL    HW141205   3.637   5.554   5.242 -0.6164  0.0153  0.7727
45976SOL    HW241206   3.745   5.449   5.224  0.2077  1.1318 -1.0966
45977SOL     OW41207   1.173   7.617   9.660  0.3416 -0.1051  0.0146
45977SOL    HW141208   1.110   7.582   9.723 -1.3093  0.6072 -1.1814
45977SOL    HW241209   1.181   7.710   9.683 -0.1461  0.1233 -0.7100
45978SOL     OW41210   2.282   2.611   5.321 -0.4564 -0.0415  0.0055
45978SOL    HW141211   2.213   2.578   5.378 -0.4472 -0.4927 -0.2432
45978SOL    HW241212   2.273   2.561   5.240 -0.3228  0.4291 -0.3083
45979SOL     OW41213  10.501   9.954   5.229 -0.3951  0.7927 -0.4941
45979SOL    HW141214  10.443   9.931   5.156 -1.1778 -0.4329  0.4663
45979SOL    HW241215  10.573   9.891   5.223 -0.0959  1.1521 -0.6380
45980SOL     OW41216   8.903   9.602   0.437  0.2617 -0.9941  0.3296
45980SOL    HW141217   8.935   9.576   0.523  2.0065 -2.5011 -0.6964
45980SOL    HW241218   8.959   9.555   0.375 -1.0257 -0.0867 -1.6430
45981SOL     OW41219   1.940   8.955   9.050  0.6599 -0.4164 -0.2205
45981SOL    HW141220   1.852   8.945   9.086  0.7836 -0.1308  0.1731
45981SOL    HW241221   1.936   8.914   8.964 -0.8293  2.6123 -1.7609
45982SOL     OW41222   1.090   0.680   1.522 -0.2865 -0.3224  0.0984
45982SOL    HW141223   1.074   0.635   1.439 -1.1646 -1.1056  0.6721
45982SOL    HW241224   1.016   0.739   1.532 -0.1032 -0.1169  0.2531
45983SOL     OW41225   2.653   9.034   2.968  0.1010  0.1785  0.2992
45983SOL    HW141226   2.737   8.996   2.944 -0.6755 -0.1852 -2.2230
45983SOL    HW241227   2.649   9.029   3.063  3.0972  0.6409  0.5247
45984SOL     OW41228   4.485   6.719  10.648  0.0507 -0.3196  0.4177
45984SOL    HW141229   4.422   6.721  10.720 -0.4488 -3.4790  0.2118
45984SOL    HW241230   4.431   6.721  10.569  0.3693 -0.4225  0.1943
45985SOL     OW41231   6.088   1.474   2.359  0.3282 -0.0257  0.1842
45985SOL    HW141232   6.086   1.558   2.312  0.7651  0.2998  0.7310
45985SOL    HW241233   6.150   1.489   2.431  1.8604 -1.3801 -0.7997
45986SOL     OW41234   5.502   4.249  10.753 -0.3053 -0.4856  0.3993
45986SOL    HW141235   5.557   4.207  10.687  0.1420 -1.5748  1.4239
45986SOL    HW241236   5.428   4.190  10.764 -0.3892 -0.3031  0.8565
45987SOL     OW41237   2.221   8.273   2.873 -0.6142 -0.0464 -1.0891
45987SOL    HW141238   2.163   8.214   2.825 -1.5846  0.9847 -1.2457
45987SOL    HW241239   2.220   8.354   2.821  0.2261  0.2941 -0.5944
45988SOL     OW41240   7.775   4.890   7.661 -0.1796 -0.2159 -0.2040
45988SOL    HW141241   7.867   4.897   7.687 -0.8451  0.8088  2.1505
45988SOL    HW241242   7.744   4.981   7.661 -0.5014 -0.1500 -4.1205
45989SOL     OW41243   4.992   7.679   0.344 -0.0723 -0.1822  0.0691
45989SOL    HW141244   4.991   7.661   0.250  0.8492 -1.8483  0.3389
45989SOL    HW241245   4.946   7.604   0.383  0.2912  0.0727  1.0022
45990SOL     OW41246   5.801   0.191  10.174  0.1600  0.5364  1.1198
45990SOL    HW141247   5.784   0.258  10.107 -0.3240  0.1411  0.8358
45990SOL    HW241248   5.868   0.229  10.230  2.3231 -0.0287 -0.9072
45991SOL     OW41249  10.836   5.172  10.358  0.3726 -0.1970  0.2803
45991SOL    HW141250  10.757   5.204  10.402  0.8573 -0.7265  1.6120
45991SOL    HW241251  10.806   5.136  10.275 -0.7460 -0.1547  0.6569
45992SOL     OW41252   0.693   5.578  10.607 -0.1372 -0.8119  0.0046
45992SOL    HW141253   0.716   5.569  10.699  1.4035 -0.2532 -0.2955
45992SOL    HW241254   0.774   5.555  10.560  0.4355  2.8409 -1.0893
45993SOL     OW41255   7.852  10.066   9.173  0.4617 -0.2788 -0.1611
45993SOL    HW141256   7.905  10.121   9.231  0.0826 -0.0745 -0.0032
45993SOL    HW241257   7.908   9.991   9.154  0.4621 -0.5399  0.7870
45994SOL     OW41258   4.968   1.193   4.377  0.1686  0.7804 -0.5154
45994SOL    HW141259   4.946   1.103   4.351 -0.1540  0.9895 -0.9837
45994SOL    HW241260   4.952   1.195   4.471  0.3473  0.2978 -0.4716
45995SOL     OW41261   3.679   8.071   1.272  0.2394 -0.0991  0.8624
45995SOL    HW141262   3.759   8.022   1.254  0.4422  0.8201 -0.9099
45995SOL    HW241263   3.609   8.005   1.267  0.7681 -0.7284  1.5058
45996SOL     OW41264   2.328   7.967   6.623 -0.0544 -0.2137  0.0617
45996SOL    HW141265   2.307   8.018   6.544  0.6147 -1.8074 -1.1977
45996SOL    HW241266   2.421   7.949   6.616  0.3605  0.9256  2.0576
45997SOL     OW41267   5.206   8.332   5.110  0.0265  0.5770  0.1208
45997SOL    HW141268   5.241   8.280   5.182 -3.3873 -0.9159  0.8724
45997SOL    HW241269   5.155   8.401   5.153 -0.7469  0.6353 -0.8507
45998SOL     OW41270   6.409   9.012   7.731  0.0543  0.3712 -0.2619
45998SOL    HW141271   6.320   9.000   7.698 -0.7732 -1.4426  2.3011
45998SOL    HW241272   6.414   8.955   7.809  3.1776  1.0761  0.1984
45999SOL     OW41273   6.908   8.984   3.717  0.5936  0.0352 -0.4617
45999SOL    HW141274   6.906   8.993   3.622  0.6511 -0.9741 -0.5679
45999SOL    HW241275   6.825   8.943   3.740  0.1634  1.1314  0.0386
46000SOL     OW41276  10.270   6.540   4.826 -0.4476 -0.1667  0.0021
46000SOL    HW141277  10.182   6.520   4.794 -0.3597  0.6741 -0.8215
46000SOL    HW241278  10.258   6.611   4.888 -0.3694 -0.1131 -0.0423
46001SOL     OW41279   7.036  10.544   7.225 -0.5589 -0.0063  0.2169
46001SOL    HW141280   7.005  10.491   7.298  1.7100 -1.8736 -0.0669
46001SOL    HW241281   7.086  10.614   7.265 -1.4541  0.4754  0.5124
46002SOL     OW41282  10.349   1.406   6.170 -0.2680  0.2872  0.3922
46002SOL    HW141283  10.384   1.491   6.144 -2.7516  1.8009  1.6035
46002SOL    HW241284  10.416   1.343   6.144  2.1118  2.6791  0.3513
46003SOL     OW41285   9.639  10.932   9.511 -0.0085 -0.4221 -0.0622
46003SOL    HW141286   9.561  10.938   9.565  1.0541  1.3169  1.4209
46003SOL    HW241287   9.676  11.021   9.513  0.5956 -0.5011 -2.9319
46004SOL     OW41288   6.936   3.856   6.684  0.4404  0.5803  0.2969
46004SOL    HW141289   6.925   3.761   6.695 -0.5165  0.6833  0.3305
46004SOL    HW241290   6.962   3.888   6.770 -0.1335  0.4624  0.5190
46005SOL     OW41291   6.463   2.165   4.499 -0.0933  0.2990 -0.0942
46005SOL    HW141292   6.433   2.134   4.584 -0.8899 -0.3462 -0.5981
46005SOL    HW241293   6.508   2.090   4.460  2.1172  1.1997  0.5871
46006SOL     OW41294   4.002   6.357  11.390  0.3492  0.1456  0.0160
46006SOL    HW141295   4.031   6.423  11.453  2.6232 -1.8727  1.2360
46006SOL    HW241296   4.021   6.396  11.305  1.5280  1.1226  0.6931
46007SOL     OW41297   6.488   3.606   8.997  0.0874 -0.8538  0.2781
46007SOL    HW141298   6.398   3.583   8.975 -0.0364  1.0928 -1.5060
46007SOL    HW241299   6.487   3.702   9.005  2.0823 -0.7497 -0.2353
46008SOL     OW41300  10.373   7.820   7.574 -0.1694  0.1445 -0.9833
46008SOL    HW141301  10.287   7.820   7.616 -0.6306 -0.0901 -1.8979
46008SOL    HW241302  10.397   7.728   7.568  0.2917  0.2240 -0.4607
46009SOL     OW41303   2.266   1.819   7.686 -0.3361  0.0934 -0.6552
46009SOL    HW141304   2.341   1.815   7.744 -1.4815 -1.3745  0.8238
46009SOL    HW241305   2.228   1.906   7.700  0.5437  0.4972 -0.7340
46010SOL     OW41306   0.462   6.596   0.233  0.1320 -0.0085 -0.5248
46010SOL    HW141307   0.448   6.625   0.323 -2.3629  0.9802 -1.1492
46010SOL    HW241308   0.486   6.675   0.186  0.0478 -0.2611 -0.9969
46011SOL     OW41309   7.035   4.920   2.970 -0.1294  0.3230 -0.1585
46011SOL    HW141310   6.962   4.932   2.910  0.9526  0.2748 -1.5341
46011SOL    HW241311   7.088   4.850   2.931 -0.1721 -0.7840  1.6420
46012SOL     OW41312   8.526   4.595   5.742  0.2018  0.2520  0.0441
46012SOL    HW141313   8.432   4.602   5.723  0.1182  2.1959  0.9476
46012SOL    HW241314   8.530   4.568   5.834  0.5657 -1.0425 -0.3291
46013SOL     OW41315   8.977   7.287   0.073 -0.2213  0.0279  0.7757
46013SOL    HW141316   9.026   7.228   0.130 -1.0246  1.4789  3.0927
46013SOL    HW241317   8.975   7.371   0.120 -0.6804  1.4195 -1.5460
46014SOL     OW41318  10.972   2.364   6.575  0.4525 -0.3593  0.0034
46014SOL    HW141319  10.897   2.324   6.531  0.6087 -0.2792 -0.3405
46014SOL    HW241320  11.032   2.385   6.504 -0.1374  1.6144  0.0418
46015SOL     OW41321   0.151  11.025   0.188  0.5976 -0.0124 -0.0618
46015SOL    HW141322   0.110  11.025   0.101  1.1730 -0.4554 -0.3422
46015SOL    HW241323   0.081  10.998   0.247 -0.1936  1.6804 -0.1760
46016SOL     OW41324   8.575   4.914   5.359  0.0439  0.1834  0.1302
46016SOL    HW141325   8.529   4.924   5.276 -0.2076 -1.0180  0.1129
46016SOL    HW241326   8.550   4.827   5.391  1.4812 -0.0788  0.6282
46017SOL     OW41327   6.763   5.654   0.989 -0.2378  0.5572 -0.6257
46017SOL    HW141328   6.834   5.617   1.040 -0.6818 -1.5670 -1.4438
46017SOL    HW241329   6.703   5.690   1.054  1.2051  1.7701  0.0967
46018SOL     OW41330   5.415   6.830   7.059  0.2048 -0.4865  0.5198
46018SOL    HW141331   5.323   6.806   7.049  0.8362 -2.5430 -1.3914
46018SOL    HW241332   5.454   6.755   7.104  0.7056  1.1151  2.8990
46019SOL     OW41333   1.214   8.542   4.270 -0.3376 -0.2296  0.2204
46019SOL    HW141334   1.241   8.477   4.206  0.7527 -0.0262  0.4586
46019SOL    HW241335   1.288   8.603   4.275  0.7869 -1.6210  3.5407
46020SOL     OW41336   8.734   3.426   4.577 -0.0041 -0.5935 -0.0162
46020SOL    HW141337   8.678   3.425   4.655  0.4304 -0.9162  0.2993
46020SOL    HW241338   8.785   3.506   4.585  1.1967 -1.3948  0.8912
46021SOL     OW41339   7.978   8.470   0.523  0.3085 -0.4278  0.1753
46021SOL    HW141340   7.955   8.556   0.489 -0.1010 -1.1227 -1.4359
46021SOL    HW241341   7.976   8.413   0.446 -2.2594 -2.4581  1.6051
46022SOL     OW41342   7.136   5.496   8.344  0.4797  0.7721  0.3906
46022SOL    HW141343   7.166   5.471   8.257  1.6869 -0.6989  1.1628
46022SOL    HW241344   7.067   5.433   8.365  0.2388  1.0760  0.5077
46023SOL     OW41345   9.145   7.845   3.745 -0.3897  0.0370  0.5383
46023SOL    HW141346   9.231   7.826   3.783 -0.2361  1.4706  0.9740
46023SOL    HW241347   9.083   7.808   3.807 -0.1005  0.0630  0.8466
46024SOL     OW41348   8.932  10.731   1.791 -0.7009  0.0777  0.0879
46024SOL    HW141349   8.862  10.683   1.834 -1.5203  2.7185  1.9610
46024SOL    HW241350   8.891  10.811   1.759 -0.0381 -1.3528 -5.4198
46025SOL     OW41351   7.450   7.917   4.460 -0.0141  0.2279  0.3430
46025SOL    HW141352   7.401   7.998   4.444 -0.8504 -0.3962 -0.3527
46025SOL    HW241353   7.402   7.874   4.531 -1.2158 -0.9450 -1.1220
46026SOL     OW41354   3.214   3.783   0.546 -0.1114 -0.2468 -0.0950
46026SOL    HW141355   3.125   3.817   0.550 -0.8320 -1.9423 -0.9290
46026SOL    HW241356   3.251   3.820   0.467  0.1524  0.9305  0.5599
46027SOL     OW41357   6.787   9.902   8.374  0.6962 -0.5365 -0.4354
46027SOL    HW141358   6.838   9.823   8.391  0.9557 -0.6317 -1.5759
46027SOL    HW241359   6.838   9.973   8.413  0.8321 -0.8351 -0.0639
46028SOL     OW41360   6.636   3.050   0.885 -0.2090  0.0353  0.3496
46028SOL    HW141361   6.680   3.128   0.921  1.9890 -1.5852  1.4219
46028SOL    HW241362   6.578   3.021   0.956 -1.1269  0.7029 -0.0979
46029SOL     OW41363   6.485   5.527   0.030  0.2591 -0.3312 -0.0338
46029SOL    HW141364   6.570   5.571   0.033  0.7618 -1.2978  1.9899
46029SOL    HW241365   6.429   5.577   0.089 -0.0360 -0.7279  0.0289
46030SOL     OW41366   0.227   0.640   9.303 -0.2757  0.0295  0.0525
46030SOL    HW141367   0.265   0.664   9.218  0.7932 -0.4809  0.3705
46030SOL    HW241368   0.156   0.702   9.316 -1.8055 -1.0984 -2.1530
46031SOL     OW41369   4.731   3.381   9.540 -0.0511 -0.0680  0.0877
46031SOL    HW141370   4.706   3.471   9.559 -1.4824 -0.3956 -0.1046
46031SOL    HW241371   4.799   3.360   9.604  0.6929  1.3035 -0.2198
46032SOL     OW41372   2.303   2.917   8.502  0.6877 -0.0506 -0.5212
46032SOL    HW141373   2.256   2.967   8.435 -0.4017 -0.1282  0.1590
46032SOL    HW241374   2.381   2.969   8.521  1.4608 -0.4329 -2.4295
46033SOL     OW41375   7.091   9.951  10.087 -0.4350 -0.0877  0.1677
46033SOL    HW141376   7.167   9.931  10.033 -1.5889 -0.9853 -1.1903
46033SOL    HW241377   7.052   9.865  10.105 -2.2614  0.4604 -0.9138
46034SOL     OW41378   8.536   5.122   8.158  0.4823  0.3109 -0.0265
46034SOL    HW141379   8.623   5.161   8.149  0.1806  0.5567 -2.7785
46034SOL    HW241380   8.545   5.035   8.120  0.0894 -0.6985  2.0506
46035SOL     OW41381   2.721  10.380   5.618  0.4027 -0.2065  0.3002
46035SOL    HW141382   2.670  10.406   5.695 -1.3947 -0.7710 -0.6473
46035SOL    HW241383   2.731  10.285   5.626 -0.7580 -0.4414 -0.6634
46036SOL     OW41384   0.670   5.974   2.566 -0.4788 -0.5687 -0.2751
46036SOL    HW141385   0.672   5.942   2.656 -3.5512 -1.1524 -0.3017
46036SOL    HW241386   0.598   6.037   2.565  0.1302  0.1546 -2.1244
46037SOL     OW41387   2.207   0.802   4.455  0.1350 -0.4333 -0.2295
46037SOL    HW141388   2.217   0.759   4.370  0.4160  3.4066 -2.3939
46037SOL    HW241389   2.116   0.829   4.459  0.3823  0.4102  0.1153
46038SOL     OW41390   5.744   7.486   3.003 -0.2200  0.2004 -0.4880
46038SOL    HW141391   5.708   7.450   2.922 -0.9740  0.7125 -0.3947
46038SOL    HW241392   5.723   7.422   3.070 -2.0675  1.0294 -0.2191
46039SOL     OW41393   8.909   6.597   0.919 -0.5388  0.0595  0.2527
46039SOL    HW141394   8.816   6.598   0.942 -0.4643  0.4990  0.5329
46039SOL    HW241395   8.920   6.514   0.873 -1.3717  0.6225 -1.0228
46040SOL     OW41396  11.094   9.924  11.054  0.4308  0.1890  0.8879
46040SOL    HW141397  11.038   9.900  11.128 -1.3671 -1.3098 -0.8533
46040SOL    HW241398  11.117  10.016  11.071 -0.8995  0.2591  2.6717
46041SOL     OW41399   1.149   6.546   7.446  0.0473  0.4639  0.0287
46041SOL    HW141400   1.082   6.561   7.511 -2.7434 -1.5050 -2.1282
46041SOL    HW241401   1.160   6.630   7.402 -0.8913  0.8706  0.5526
46042SOL     OW41402   9.181   1.676   4.134  0.1780 -0.4719  0.4276
46042SOL    HW141403   9.181   1.677   4.038  0.3677  1.5715  0.4050
46042SOL    HW241404   9.267   1.708   4.158  0.0980 -0.8902  1.2844
46043SOL     OW41405  10.357   1.139   1.892 -0.0289 -0.2427 -0.0359
46043SOL    HW141406  10.304   1.197   1.947 -1.2921 -0.0947 -1.3461
46043SOL    HW241407  10.447   1.157   1.918 -0.4758  1.3220  0.5212
46044SOL     OW41408   8.529   9.960   4.535  0.3426  0.5348 -0.2844
46044SOL    HW141409   8.584   9.995   4.606  1.1426 -1.3252  0.0620
46044SOL    HW241410   8.578   9.979   4.455  1.0901 -0.3288 -0.0456
46045SOL     OW41411   4.943   2.597   9.167  0.0017  0.2233 -0.0033
46045SOL    HW141412   4.997   2.522   9.144 -2.0017 -1.4280  0.4861
46045SOL    HW241413   4.949   2.602   9.263 -0.7611 -0.0137  0.0581
46046SOL     OW41414   4.671  10.722   2.215 -0.0103  0.0695 -0.7590
46046SOL    HW141415   4.592  10.692   2.170  0.4725 -0.4834 -1.2506
46046SOL    HW241416   4.691  10.806   2.174  0.6579 -0.6208 -1.8849
46047SOL     OW41417   1.974   4.824   8.001 -0.1323  0.8179 -0.5877
46047SOL    HW141418   2.061   4.814   8.040 -0.3266 -0.1483 -0.3766
46047SOL    HW241419   1.919   4.762   8.049 -0.9998  1.6021 -0.5539
46048SOL     OW41420   7.212   1.942   7.252  0.3446  0.3389  0.3812
46048SOL    HW141421   7.299   1.927   7.214  0.6889  1.6200  0.6146
46048SOL    HW241422   7.165   1.860   7.238  0.3656  0.7799 -3.0349
46049SOL     OW41423   5.557   2.380   4.284  0.0991  0.1391 -0.0332
46049SOL    HW141424   5.536   2.407   4.195 -2.6482 -0.7268  0.2848
46049SOL    HW241425   5.531   2.288   4.289  0.4305  0.0983  1.5989
46050SOL     OW41426   5.845   3.393  10.361 -0.1954  0.4553  0.4724
46050SOL    HW141427   5.874   3.307  10.329 -1.1349 -0.7620  2.6766
46050SOL    HW241428   5.906   3.415  10.431 -1.5134  0.2808  1.7234
46051SOL     OW41429   4.174   8.140  11.372 -0.3790 -0.0090 -0.0622
46051SOL    HW141430   4.266   8.152  11.397 -0.3662 -1.0553  0.4448
46051SOL    HW241431   4.133   8.102  11.449 -0.9432 -0.7890 -0.7287
46052SOL     OW41432   0.479   0.467   8.229 -0.4817 -0.1126 -0.2295
46052SOL    HW141433   0.561   0.512   8.206 -0.9230  0.8898  0.0759
46052SOL    HW241434   0.450   0.427   8.147 -0.8130  1.4121 -0.9018
46053SOL     OW41435   8.999   3.003  11.081  0.1015  0.4296 -0.6624
46053SOL    HW141436   8.964   3.086  11.047  0.4820  0.6490 -0.5167
46053SOL    HW241437   8.969   3.000  11.172 -2.9579 -1.2713 -1.5906
46054SOL     OW41438  10.847  10.785  10.089 -0.0016  0.5336  0.2888
46054SOL    HW141439  10.814  10.871  10.115  1.0747  0.8518  0.6475
46054SOL    HW241440  10.905  10.758  10.160  0.5856  0.0375 -0.3560
46055SOL     OW41441   8.045   3.444   3.773  1.0670  0.2429 -0.6909
46055SOL    HW141442   8.026   3.456   3.866 -0.8053  1.2038 -1.1559
46055SOL    HW241443   8.010   3.357   3.753 -1.4273  1.2656 -1.1275
46056SOL     OW41444   5.482   0.774   9.079  0.1925  0.3880 -0.0041
46056SOL    HW141445   5.521   0.859   9.101 -0.2486  0.6326 -0.1438
46056SOL    HW241446   5.534   0.742   9.005 -0.2611  1.0150 -0.6129
46057SOL     OW41447   6.740   4.553   3.739 -0.1725  0.5216 -0.3675
46057SOL    HW141448   6.722   4.588   3.826  1.8713  0.3248  0.1811
46057SOL    HW241449   6.812   4.606   3.706 -0.2647 -0.0529 -1.5429
46058SOL     OW41450   0.968   9.399   9.081  0.0735 -0.2286  0.0047
46058SOL    HW141451   0.905   9.327   9.088  0.8437 -1.0565 -1.2912
46058SOL    HW241452   1.038   9.374   9.141 -0.3196  0.1732  0.6466
46059SOL     OW41453  10.528   1.146   6.951  0.4788  0.3224  0.1612
46059SOL    HW141454  10.441   1.143   6.911  0.2712 -1.1469  0.6484
46059SOL    HW241455  10.565   1.229   6.923 -1.0773  0.9671 -0.0810
46060SOL     OW41456   4.507   7.225   1.159 -0.4897 -0.2217 -0.0960
46060SOL    HW141457   4.533   7.313   1.185 -0.6889 -0.2512  0.2188
46060SOL    HW241458   4.435   7.238   1.097 -1.6388 -0.1765  1.2034
46061SOL     OW41459   3.775   9.814   4.878  0.3376 -0.4202  0.1452
46061SOL    HW141460   3.791   9.751   4.948 -2.7680  0.1131  1.5073
46061SOL    HW241461   3.757   9.760   4.801  1.0502 -1.0890  0.4317
46062SOL     OW41462   9.151   9.389   5.134 -0.5927 -0.3944  0.0158
46062SOL    HW141463   9.217   9.320   5.129  1.2886  1.2476  0.9598
46062SOL    HW241464   9.147   9.426   5.046 -0.0204 -0.2852  0.0362
46063SOL     OW41465   3.617   4.746   3.629  0.4509 -0.2321 -0.4836
46063SOL    HW141466   3.525   4.747   3.604  0.5811 -1.2811 -1.0842
46063SOL    HW241467   3.664   4.743   3.545  1.0038 -0.5549 -0.1659
46064SOL     OW41468  10.453   5.752   1.348  0.1276  0.0872 -0.4177
46064SOL    HW141469  10.440   5.805   1.427  1.4483 -0.3083  0.0805
46064SOL    HW241470  10.364   5.725   1.323 -0.3253  0.3723  0.8056
46065SOL     OW41471  11.239   6.968   0.658 -0.5800 -0.8909  0.1598
46065SOL    HW141472  11.313   6.926   0.614  1.5808  2.6313  0.0515
46065SOL    HW241473  11.169   6.968   0.593  1.1136  0.3671 -1.7741
46066SOL     OW41474   0.840   6.268   7.579  0.5869 -0.0317  0.0284
46066SOL    HW141475   0.868   6.210   7.650 -0.5417  0.0992  0.6064
46066SOL    HW241476   0.860   6.220   7.499 -0.9599 -1.5330  0.5014
46067SOL     OW41477   8.036   5.936   4.428  0.0654  0.5861 -0.5897
46067SOL    HW141478   8.127   5.953   4.453 -0.3838  1.5767  0.4724
46067SOL    HW241479   8.002   5.880   4.497  0.0521 -0.3809 -1.3616
46068SOL     OW41480   4.796   0.231   8.494  0.3308 -0.2116 -0.1779
46068SOL    HW141481   4.731   0.195   8.553 -0.5589  2.3243  0.4773
46068SOL    HW241482   4.807   0.164   8.426  0.0924 -2.4211  1.8577
46069SOL     OW41483   3.655  10.013   0.402  0.3028 -0.4080  0.8231
46069SOL    HW141484   3.684  10.103   0.411 -1.6307  0.4643 -0.8774
46069SOL    HW241485   3.671   9.991   0.310  0.9854 -1.9104  1.2678
46070SOL     OW41486  10.290   7.716   2.377 -0.5128 -0.4470  0.4615
46070SOL    HW141487  10.296   7.779   2.305  1.2238 -0.8985  0.1849
46070SOL    HW241488  10.276   7.632   2.335  1.2011 -0.8180  0.5732
46071SOL     OW41489   2.512   4.564   6.244 -0.3497  0.0937  0.4047
46071SOL    HW141490   2.503   4.494   6.179  0.4638  0.4356 -0.1001
46071SOL    HW241491   2.423   4.583   6.271 -0.6215 -0.8021  0.1862
46072SOL     OW41492   5.488   3.443   4.245 -0.1001  0.1829 -0.6610
46072SOL    HW141493   5.540   3.510   4.202  1.5788  0.7374  1.9885
46072SOL    HW241494   5.401   3.483   4.256  0.5544  1.5170 -0.1454
46073SOL     OW41495   9.105   6.785  10.388  0.2592  0.0919 -0.2989
46073SOL    HW141496   9.152   6.789  10.304  0.8508 -0.3713 -0.0001
46073SOL    HW241497   9.014   6.802  10.366 -0.0767 -2.6523 -1.4479
46074SOL     OW41498   9.883   0.304   4.619 -0.2972 -0.5850  0.0764
46074SOL    HW141499   9.810   0.243   4.627  0.3237 -1.1988  1.3247
46074SOL    HW241500   9.873   0.363   4.694 -0.7045  0.6856 -0.9281
46075SOL     OW41501   7.326   9.478   9.592  0.1995  0.3061 -0.6066
46075SOL    HW141502   7.300   9.427   9.515 -1.9601  0.1901  0.1403
46075SOL    HW241503   7.406   9.435   9.623  0.5888 -0.2122 -2.2275
46076SOL     OW41504   7.207  10.146   5.864 -1.0386  0.1465  0.1752
46076SOL    HW141505   7.116  10.118   5.868 -0.2840 -2.5851  0.5575
46076SOL    HW241506   7.226  10.177   5.952 -1.4388  0.1982  0.2457
46077SOL     OW41507  10.203   0.400   6.885  0.5207  0.1246  0.2213
46077SOL    HW141508  10.189   0.469   6.820  0.8303  1.1872  1.2260
46077SOL    HW241509  10.290   0.366   6.866  0.3808  0.0387 -0.2661
46078SOL     OW41510   6.253  10.133  10.981  0.1751 -0.0867 -0.0598
46078SOL    HW141511   6.172  10.157  11.026 -0.5431  0.9048 -1.7724
46078SOL    HW241512   6.234  10.148  10.889  2.3853  0.3895 -0.4932
46079SOL     OW41513   7.858   0.792   5.212  0.2145  0.1210  0.0235
46079SOL    HW141514   7.953   0.781   5.207  0.1459 -0.0064 -1.2220
46079SOL    HW241515   7.823   0.727   5.151 -0.5203  2.2742 -1.9960
46080SOL     OW41516  11.276   5.816   2.681 -0.0307  0.5989  0.1960
46080SOL    HW141517  11.259   5.722   2.694 -0.2546  0.5689 -0.2910
46080SOL    HW241518  11.362   5.819   2.640 -1.2391  0.4123 -2.5479
46081SOL     OW41519   3.291   8.129   5.865 -0.2757  0.0389  0.2559
46081SOL    HW141520   3.269   8.217   5.897  1.8471  0.6542  0.1723
46081SOL    HW241521   3.360   8.099   5.923 -0.0994 -1.0514 -0.4940
46082SOL     OW41522   9.370   6.122   5.391 -0.0681 -0.2419 -0.0169
46082SOL    HW141523   9.299   6.059   5.401  0.4541 -0.7427  0.6125
46082SOL    HW241524   9.404   6.134   5.479  0.1729  0.5387 -0.2069
46083SOL     OW41525   6.235   3.197   2.411 -0.2670  0.4796 -0.1297
46083SOL    HW141526   6.232   3.244   2.327  1.0526  1.5395  0.3687
46083SOL    HW241527   6.161   3.137   2.408 -1.4269  1.8886 -1.2355
46084SOL     OW41528   1.034   6.806   3.078 -0.1826 -0.1140  0.6564
46084SOL    HW141529   0.950   6.845   3.099 -0.2118 -0.5613  1.4062
46084SOL    HW241530   1.073   6.785   3.163  0.2933 -0.7284  0.2980
46085SOL     OW41531   9.500   1.780   1.829  0.0069 -0.3537  0.7553
46085SOL    HW141532   9.438   1.791   1.901  0.6531 -0.2318  1.3017
46085SOL    HW241533   9.583   1.812   1.864 -0.3433  3.2385 -1.1390
46086SOL     OW41534   3.382   6.361   8.545 -0.6242  0.1515 -0.0703
46086SOL    HW141535   3.430   6.412   8.480 -1.7323  0.1862 -0.8985
46086SOL    HW241536   3.334   6.426   8.596  1.9718  0.3403  2.3652
46087SOL     OW41537   3.882   0.794   6.898  0.6928 -0.2885  0.0702
46087SOL    HW141538   3.865   0.756   6.811  0.1163 -0.6052  0.3145
46087SOL    HW241539   3.889   0.888   6.882  1.6055 -0.4284 -0.4679
46088SOL     OW41540   5.833   8.479   5.446 -0.0558  0.0762  0.2315
46088SOL    HW141541   5.743   8.486   5.476 -0.0147  1.9004  0.0253
46088SOL    HW241542   5.835   8.397   5.397 -1.2418 -0.6755  1.3778
46089SOL     OW41543   0.098   9.211   5.116  0.2993  0.5805 -0.5949
46089SOL    HW141544   0.088   9.277   5.047 -0.6004  1.2650  0.1652
46089SOL    HW241545   0.050   9.135   5.084 -0.0982  0.8873 -0.7276
46090SOL     OW41546   4.054   7.211   7.723  0.4397  0.4598 -0.2770
46090SOL    HW141547   4.075   7.267   7.648 -1.7819  2.2011  0.3159
46090SOL    HW241548   4.117   7.235   7.790 -0.5738  2.4398  0.0221
46091SOL     OW41549   9.532   0.692  10.154 -0.2602 -0.4408 -0.1404
46091SOL    HW141550   9.594   0.620  10.149 -1.4328 -1.4726 -0.4969
46091SOL    HW241551   9.579   0.762  10.199  0.7939 -1.5514  0.5334
46092SOL     OW41552   2.004   7.994   0.547 -0.0720 -0.4380 -0.2828
46092SOL    HW141553   1.960   7.932   0.605 -0.1699 -0.9657 -0.9248
46092SOL    HW241554   2.080   8.023   0.597  0.0621 -1.1913 -0.0442
46093SOL     OW41555   1.313   2.949   1.743  0.1851  0.1270 -0.0484
46093SOL    HW141556   1.379   2.881   1.726 -0.3168 -0.6030  0.8069
46093SOL    HW241557   1.361   3.031   1.738  1.1820 -0.3921  0.6205
46094SOL     OW41558   7.264   9.993   5.055  0.5264  0.4344  0.0549
46094SOL    HW141559   7.237  10.045   4.979  1.1520  0.9326  0.1568
46094SOL    HW241560   7.313   9.920   5.018 -1.1721 -0.6482 -0.1480
46095SOL     OW41561   5.655   6.406   5.256 -0.1656  0.3061  0.3519
46095SOL    HW141562   5.619   6.323   5.223  0.8098  0.1838 -0.4771
46095SOL    HW241563   5.584   6.469   5.245 -0.1520  0.0842 -1.2889
46096SOL     OW41564   6.681   8.174   9.379  0.1324 -0.0378  0.5283
46096SOL    HW141565   6.656   8.235   9.310 -0.8353 -0.3747  0.5660
46096SOL    HW241566   6.772   8.197   9.400  1.1419 -1.1435 -2.1448
46097SOL     OW41567   2.683   1.432   0.730  0.5467  0.8095 -0.2049
46097SOL    HW141568   2.676   1.337   0.720  0.3952  0.8049 -0.0547
46097SOL    HW241569   2.666   1.467   0.643  1.8603  0.6342 -0.5555
46098SOL     OW41570   5.742   3.943   0.066 -0.2547  0.3305 -0.5661
46098SOL    HW141571   5.755   3.991  -0.016 -1.1267 -0.5730 -1.2595
46098SOL    HW241572   5.830   3.928   0.100  0.2304 -0.6261 -2.1410
46099SOL     OW41573   7.664   9.772  10.568 -0.4041 -0.0129 -0.2879
46099SOL    HW141574   7.696   9.843  10.624 -0.9915  0.5465 -0.6457
46099SOL    HW241575   7.700   9.791  10.481 -0.3976 -0.2588 -0.3396
46100SOL     OW41576   9.152   3.761   5.387 -0.1168 -0.1513 -0.2586
46100SOL    HW141577   9.110   3.693   5.439 -0.3938  0.8750  0.9188
46100SOL    HW241578   9.197   3.816   5.451 -0.6753  1.3024 -1.0714
46101SOL     OW41579   9.901   4.289  10.209 -0.0576  0.1322 -0.3398
46101SOL    HW141580   9.984   4.337  10.205  0.1190 -0.2049 -0.8354
46101SOL    HW241581   9.889   4.254  10.121  0.9168 -2.5255  0.4767
46102SOL     OW41582   3.213   9.831   6.464 -0.3085 -0.2303  0.4362
46102SOL    HW141583   3.120   9.809   6.461 -0.4585  0.5042 -1.0185
46102SOL    HW241584   3.253   9.774   6.399  0.0582  0.3280  0.1669
46103SOL     OW41585   4.806   1.717  10.027 -0.0656  0.3947  0.4126
46103SOL    HW141586   4.832   1.639   9.978  0.2391  0.9371 -0.3141
46103SOL    HW241587   4.883   1.773  10.024 -0.6006  1.1287  0.0912
46104SOL     OW41588   0.052   2.629  10.809  0.2778  0.5473  0.5528
46104SOL    HW141589   0.094   2.544  10.795 -0.1466  0.5272 -0.7335
46104SOL    HW241590  -0.037   2.607  10.835  0.6694  0.6053  2.0526
46105SOL     OW41591   4.153   3.192   1.335  0.4698 -0.6249 -0.1000
46105SOL    HW141592   4.065   3.155   1.346  0.3270 -0.5223 -0.8392
46105SOL    HW241593   4.139   3.272   1.284  1.0195 -0.7545 -0.4658
46106SOL     OW41594   3.916   4.993   0.945  0.1363 -0.1385 -0.2478
46106SOL    HW141595   3.884   4.910   0.912 -1.6248 -1.3435  3.8833
46106SOL    HW241596   3.847   5.056   0.924 -0.5018 -0.6622  0.2556
46107SOL     OW41597   3.812   1.573  10.559  0.0870 -0.3010 -0.1013
46107SOL    HW141598   3.725   1.536  10.547  0.7139 -2.1433  0.5907
46107SOL    HW241599   3.842   1.593  10.470 -0.9107  0.0334 -0.3674
46108SOL     OW41600   0.936  10.262   3.018 -0.5128  0.4118 -0.5755
46108SOL    HW141601   0.971  10.337   2.970  0.1950  0.1979 -0.4012
46108SOL    HW241602   1.009  10.231   3.071 -1.4356  1.0745  1.1885
46109SOL     OW41603   6.276   5.162   3.435  0.0390 -0.4357  0.3554
46109SOL    HW141604   6.274   5.163   3.531  0.7446  1.5943  0.3858
46109SOL    HW241605   6.185   5.176   3.409 -0.1147 -0.7522  0.7081
46110SOL     OW41606   6.064   8.175   2.530  0.6477 -0.2767  0.6540
46110SOL    HW141607   6.093   8.238   2.597  0.9574 -1.7242  1.9485
46110SOL    HW241608   6.144   8.154   2.482  0.2306  1.5991 -0.9730
46111SOL     OW41609   4.856   9.947   2.128 -0.0448 -0.1505  0.2766
46111SOL    HW141610   4.873   9.970   2.037 -0.0407  0.7730  0.4910
46111SOL    HW241611   4.843   9.852   2.128  2.7199 -0.5899 -0.2402
46112SOL     OW41612   2.641   8.861   9.723  0.0818  0.0523  0.0714
46112SOL    HW141613   2.564   8.875   9.669 -0.2506  1.1192  0.7868
46112SOL    HW241614   2.621   8.783   9.775 -0.9284  0.8603  0.9319
46113SOL     OW41615  11.290   1.440   0.324  0.0978 -0.2777 -0.1843
46113SOL    HW141616  11.297   1.472   0.414 -1.1451 -0.1589 -0.1099
46113SOL    HW241617  11.324   1.512   0.271 -1.5313  0.7241  0.0616
46114SOL     OW41618   1.093   2.927   9.544  0.0971  0.7247 -0.0242
46114SOL    HW141619   1.037   2.960   9.614  0.5446  0.3891  0.5027
46114SOL    HW241620   1.145   3.003   9.517  0.6279  0.6304  0.7018
46115SOL     OW41621   8.995   5.015   1.558 -0.3292 -0.1080 -0.1008
46115SOL    HW141622   9.083   5.047   1.580  0.1347 -2.0103  1.0725
46115SOL    HW241623   8.939   5.092   1.564  1.1134  0.9738 -0.0141
46116SOL     OW41624   6.527   0.868   8.331 -0.3302  0.2783 -0.0717
46116SOL    HW141625   6.465   0.863   8.403 -0.9277 -1.2429 -0.6615
46116SOL    HW241626   6.491   0.811   8.263  0.4081  1.3767 -1.4430
46117SOL     OW41627   2.260   6.453   9.121  0.4543 -0.4957 -0.1357
46117SOL    HW141628   2.295   6.400   9.193  0.9534 -0.4750 -0.3621
46117SOL    HW241629   2.193   6.507   9.163  1.3576  0.1686  0.5117
46118SOL     OW41630  11.325   2.771   6.767  0.0547 -0.8478 -0.2355
46118SOL    HW141631  11.262   2.816   6.823 -0.0668  1.9041 -2.3518
46118SOL    HW241632  11.410   2.800   6.799 -0.0253  2.3540 -2.4061
46119SOL     OW41633   8.879   1.657   6.528  0.5170 -0.2183 -0.1567
46119SOL    HW141634   8.803   1.699   6.488  0.0301  0.5176  1.4548
46119SOL    HW241635   8.939   1.640   6.455 -0.4583  0.7642 -1.2209
46120SOL     OW41636   5.017   4.419   2.974  0.0101 -0.3923 -0.1623
46120SOL    HW141637   5.087   4.356   2.989  0.1122 -0.4827 -0.9504
46120SOL    HW241638   5.061   4.499   2.944 -0.1892 -0.3143 -0.2553
46121SOL     OW41639   9.170   4.487   4.164  0.1864 -0.2036 -0.5963
46121SOL    HW141640   9.130   4.515   4.082 -1.4904 -0.1425  0.2037
46121SOL    HW241641   9.122   4.535   4.232  0.1465 -1.7977  0.5532
46122SOL     OW41642   9.138   5.550  11.046  0.2628  0.4526  0.2590
46122SOL    HW141643   9.182   5.555  10.961 -0.2488 -1.0749 -0.1245
46122SOL    HW241644   9.047   5.574  11.027 -0.2369 -1.5106  0.0209
46123SOL     OW41645   9.430   2.781   0.873 -0.2854  0.1239  0.0229
46123SOL    HW141646   9.493   2.718   0.908 -1.1887 -0.6905  0.2047
46123SOL    HW241647   9.484   2.847   0.829  0.7104 -0.3464  0.5184
46124SOL     OW41648   4.066   5.559   1.571  0.4367  0.2131  0.3828
46124SOL    HW141649   4.135   5.582   1.633 -0.6443  2.2773  0.9107
46124SOL    HW241650   4.045   5.642   1.527 -0.9027 -0.6060 -0.5894
46125SOL     OW41651   7.336   7.830   1.006 -0.1281  0.3473 -0.2832
46125SOL    HW141652   7.283   7.907   0.987 -1.3736 -0.3342  0.2633
46125SOL    HW241653   7.404   7.861   1.065 -1.6027  0.7723  1.3130
46126SOL     OW41654   8.813   8.728   3.247 -0.2131  0.0061  0.3409
46126SOL    HW141655   8.746   8.795   3.234  1.2763  1.2593 -1.2374
46126SOL    HW241656   8.848   8.746   3.335  0.3736  1.5219 -0.1729
46127SOL     OW41657   2.571   9.367   5.626  0.0706 -0.6782  0.5702
46127SOL    HW141658   2.563   9.276   5.597 -0.3256 -0.2958 -0.5623
46127SOL    HW241659   2.547   9.419   5.550  0.0423  0.3861  1.2823
46128SOL     OW41660   4.320   3.997   5.350  0.1582 -0.4000  0.2002
46128SOL    HW141661   4.367   4.062   5.297 -0.6936 -1.1312 -1.5544
46128SOL    HW241662   4.247   3.971   5.294 -3.2982  1.7378  3.3196
46129SOL     OW41663   7.604   8.776   5.099 -0.1689  0.2592  0.2219
46129SOL    HW141664   7.517   8.736   5.102  1.0736 -2.6983 -0.2731
46129SOL    HW241665   7.661   8.712   5.141  2.2613  0.7038 -2.2048
46130SOL     OW41666   5.414  11.313   5.677 -0.1729  0.6972  0.3370
46130SOL    HW141667   5.371  11.396   5.659  0.3739  0.5743 -1.7084
46130SOL    HW241668   5.343  11.250   5.690 -0.6625  0.7355 -1.8361
46131SOL     OW41669   0.209  10.877   7.638  0.0222 -0.1780 -0.2047
46131SOL    HW141670   0.288  10.921   7.671 -0.4828  0.3010  0.3937
46131SOL    HW241671   0.197  10.802   7.695 -0.2919  0.0905  0.0864
46132SOL     OW41672   9.095   2.722   5.352  0.1038  0.0412 -0.6892
46132SOL    HW141673   9.066   2.739   5.262 -1.2806 -1.3350 -0.5372
46132SOL    HW241674   9.023   2.673   5.392  1.3859 -0.8088  0.6822
46133SOL     OW41675   7.027   9.255   4.035 -0.2045 -0.2871  0.1096
46133SOL    HW141676   6.990   9.278   4.120 -1.7533  1.2797 -0.9038
46133SOL    HW241677   7.061   9.166   4.046 -0.6622 -0.2359  2.2550
46134SOL     OW41678   7.288   0.742   6.147 -0.2495  0.5469 -0.4646
46134SOL    HW141679   7.365   0.789   6.181 -0.8274  0.1875  1.4739
46134SOL    HW241680   7.232   0.811   6.110  1.6360  0.6661 -3.4484
46135SOL     OW41681  10.238   3.521   3.938 -0.4363  0.0093  0.9511
46135SOL    HW141682  10.265   3.451   3.997 -1.3899  0.0780  1.4966
46135SOL    HW241683  10.314   3.578   3.931 -0.0062 -0.5074  1.3654
46136SOL     OW41684  11.183   0.115   4.890 -0.2362  0.2225  0.1378
46136SOL    HW141685  11.221   0.074   4.812 -1.8192 -0.0794 -0.5155
46136SOL    HW241686  11.231   0.197   4.900  1.4961 -0.7478  0.1747
46137SOL     OW41687   7.212   5.428   8.068  0.1193  0.6454  0.0045
46137SOL    HW141688   7.146   5.438   7.999 -0.2631  0.2042  0.3045
46137SOL    HW241689   7.291   5.400   8.022 -0.5058 -0.9977 -0.0985
46138SOL     OW41690   1.987   7.487   4.846 -0.3523 -0.3956  0.0828
46138SOL    HW141691   2.010   7.503   4.938 -0.3184 -0.9144  0.1664
46138SOL    HW241692   1.928   7.412   4.849 -0.7839 -0.0725 -0.2738
46139SOL     OW41693   1.265   4.008   7.695  0.0079 -0.0008  0.1609
46139SOL    HW141694   1.231   3.921   7.717  0.0681 -0.1623 -0.3663
46139SOL    HW241695   1.219   4.067   7.754  1.0731 -0.5421  1.5819
46140SOL     OW41696   9.890   8.301   9.057 -0.5369 -0.0781 -0.0702
46140SOL    HW141697   9.966   8.308   9.115 -2.4736  0.0461  2.6630
46140SOL    HW241698   9.896   8.213   9.021  1.0932  0.0741 -0.2597
46141SOL     OW41699   9.864   5.230   9.000  0.6949 -0.0738  0.5473
46141SOL    HW141700   9.873   5.323   8.979  0.8219 -0.0882  0.5354
46141SOL    HW241701   9.816   5.193   8.926  0.3541  0.0448  0.7090
46142SOL     OW41702   3.995   7.666   4.327  0.5673  0.3372  0.1195
46142SOL    HW141703   3.998   7.604   4.401  1.4777  0.4378  0.1793
46142SOL    HW241704   3.902   7.681   4.313  0.3521 -0.3744  0.6744
46143SOL     OW41705  11.189  10.295   8.264  0.2262 -1.1853  0.2329
46143SOL    HW141706  11.253  10.241   8.311  0.0723 -0.3061  1.5078
46143SOL    HW241707  11.126  10.231   8.229  1.9248 -2.0913 -1.3426
46144SOL     OW41708   2.312   9.866   8.597  0.2037 -0.6217 -0.1928
46144SOL    HW141709   2.375   9.914   8.652 -0.2890  0.4595 -0.5507
46144SOL    HW241710   2.310   9.914   8.515 -0.8864 -0.8140 -0.2895
46145SOL     OW41711   1.879   7.052  10.624  0.0729 -0.3016 -0.1464
46145SOL    HW141712   1.847   6.988  10.560  1.4361 -0.4106 -0.7462
46145SOL    HW241713   1.973   7.055  10.610  0.5270 -0.9298  2.4381
46146SOL     OW41714   8.140   8.201   6.841  0.1237  0.1854  0.0703
46146SOL    HW141715   8.052   8.237   6.847 -0.2666 -0.8044  0.5522
46146SOL    HW241716   8.161   8.173   6.930  0.6168 -0.2818 -0.1816
46147SOL     OW41717   7.822   8.534   7.398 -0.1600  0.2449  0.1124
46147SOL    HW141718   7.731   8.543   7.427  0.2598  0.1483  1.5308
46147SOL    HW241719   7.874   8.570   7.470  0.9232  0.4767 -0.7654
46148SOL     OW41720  11.361   8.922   5.905 -0.5170  0.2210  0.1418
46148SOL    HW141721  11.377   8.995   5.845  0.0558 -1.3422 -1.6964
46148SOL    HW241722  11.269   8.899   5.891 -1.2544  1.7115  2.0990
46149SOL     OW41723   2.950   2.594   9.984 -0.2598  0.0227  0.0556
46149SOL    HW141724   2.950   2.633  10.072 -1.1639  0.3205 -0.0586
46149SOL    HW241725   2.953   2.500  10.000  0.7758  0.1003  0.3693
46150SOL     OW41726   8.281   9.683   7.015 -0.1047  0.3258 -0.5627
46150SOL    HW141727   8.260   9.742   7.088  1.3677 -1.9705  1.9259
46150SOL    HW241728   8.376   9.679   7.014 -0.0913  0.1912 -2.6291
46151SOL     OW41729   8.209   7.456   6.439 -0.0524  0.0089  0.4666
46151SOL    HW141730   8.169   7.543   6.448 -0.3253 -0.0020 -0.5272
46151SOL    HW241731   8.303   7.474   6.432 -0.1880  0.3144 -0.7442
46152SOL     OW41732  10.092   3.279   3.259  0.2275  0.1051 -0.2099
46152SOL    HW141733  10.102   3.350   3.323  0.2596 -0.2114  0.1432
46152SOL    HW241734  10.048   3.320   3.184  0.6285  0.5939 -0.1827
46153SOL     OW41735   4.416   9.074   5.017  0.4902 -0.4273  0.3149
46153SOL    HW141736   4.446   9.053   5.106  1.4199 -0.4568 -0.0046
46153SOL    HW241737   4.496   9.090   4.967  0.0688 -1.9419 -0.9156
46154SOL     OW41738   9.769   1.030   3.771 -0.3581  0.4343 -0.3257
46154SOL    HW141739   9.835   1.048   3.704 -0.2349  2.5981  0.3082
46154SOL    HW241740   9.771   1.107   3.828  0.2287 -1.7242  2.7893
46155SOL     OW41741   1.591  10.977   9.562  0.1034  0.1681 -0.2966
46155SOL    HW141742   1.591  11.062   9.517  1.3943  0.5745  0.4360
46155SOL    HW241743   1.676  10.972   9.605  0.0684 -1.5435 -0.3727
46156SOL     OW41744   5.909  11.362   0.285 -0.5565 -0.5113 -0.5406
46156SOL    HW141745   5.973  11.406   0.341 -0.6849  0.0815 -0.8521
46156SOL    HW241746   5.904  11.416   0.207  1.3295 -2.5314 -2.1846
46157SOL     OW41747   6.976   3.361   2.332  0.1324  0.2595 -0.3031
46157SOL    HW141748   7.051   3.418   2.312 -0.3409  0.2466 -2.4477
46157SOL    HW241749   6.996   3.279   2.286  0.4515 -1.1006  2.1364
46158SOL     OW41750   7.137   4.164   4.551  0.6195 -0.8699  0.5725
46158SOL    HW141751   7.099   4.230   4.493  1.7192 -0.5940  0.1457
46158SOL    HW241752   7.219   4.202   4.580  0.3717 -1.2653  1.8478
46159SOL     OW41753   6.149   0.573  10.195 -0.0690 -0.0471 -0.3981
46159SOL    HW141754   6.080   0.521  10.234  0.6284  0.9119  2.3328
46159SOL    HW241755   6.108   0.657  10.176 -0.5562 -0.6820 -2.4818
46160SOL     OW41756   1.062   9.075   1.027 -0.0614  0.7313 -0.6820
46160SOL    HW141757   0.974   9.051   1.055 -0.5846  1.4674 -1.6633
46160SOL    HW241758   1.090   9.141   1.091  0.1023 -0.0649  0.0900
46161SOL     OW41759   5.372   1.381   3.270 -0.1015  0.2594 -0.5117
46161SOL    HW141760   5.401   1.472   3.272  0.7978  0.0409 -2.1004
46161SOL    HW241761   5.386   1.349   3.359 -0.3432  1.6320  0.0456
46162SOL     OW41762   9.447   1.139   1.284 -0.0202  0.5185  0.0646
46162SOL    HW141763   9.432   1.182   1.199 -1.8529 -0.2284 -0.0266
46162SOL    HW241764   9.450   1.211   1.347  0.0019  0.9784 -0.4528
46163SOL     OW41765   6.018   0.242   6.033 -0.2144 -0.0926  0.0196
46163SOL    HW141766   6.084   0.311   6.032  0.7461 -0.9649  0.4537
46163SOL    HW241767   5.977   0.247   5.947  2.0979 -1.0494 -1.2444
46164SOL     OW41768   5.530   6.435  11.001  0.2522 -0.1930 -0.4678
46164SOL    HW141769   5.559   6.525  10.985  0.7349 -0.4375 -0.9744
46164SOL    HW241770   5.435   6.442  11.012 -0.0291  0.1050 -2.6451
46165SOL     OW41771   6.674   7.684   7.603  0.2055  1.1302  0.2934
46165SOL    HW141772   6.630   7.769   7.606 -0.0490  1.0424 -0.6067
46165SOL    HW241773   6.620   7.631   7.544  1.0513  0.7501 -0.1527
46166SOL     OW41774   1.050   3.276   4.235  0.0571 -0.1302 -0.4358
46166SOL    HW141775   1.068   3.265   4.328 -1.4869  0.7642  0.0042
46166SOL    HW241776   0.959   3.248   4.224 -0.2762  1.2155 -1.3713
46167SOL     OW41777   9.307   8.134   8.551  0.2417 -0.1457  0.0682
46167SOL    HW141778   9.352   8.130   8.635 -0.3919 -1.2446  0.3729
46167SOL    HW241779   9.293   8.228   8.536 -1.3370  0.0318  2.1390
46168SOL     OW41780  10.880   1.292   8.359  0.8090  0.2009 -0.5396
46168SOL    HW141781  10.813   1.266   8.295  1.6520 -2.5328 -0.4455
46168SOL    HW241782  10.836   1.286   8.443  0.5254  0.8022 -0.6425
46169SOL     OW41783   4.303   3.064  10.557 -0.0955  0.0398  0.3097
46169SOL    HW141784   4.233   3.069  10.621  0.7119 -0.4664  1.2522
46169SOL    HW241785   4.351   3.146  10.565 -0.1984  0.1195  0.1145
46170SOL     OW41786   2.707   2.242  10.806  0.2986  0.3732 -0.2936
46170SOL    HW141787   2.801   2.227  10.794  0.5447  0.9909  0.6920
46170SOL    HW241788   2.700   2.283  10.892 -0.8177  0.9477 -0.6279
46171SOL     OW41789   6.947   5.690   8.144  0.3160 -0.2242 -0.2379
46171SOL    HW141790   7.028   5.641   8.131 -0.7691 -2.0300 -0.5638
46171SOL    HW241791   6.942   5.749   8.068  0.7328 -0.9518 -0.8422
46172SOL     OW41792   5.480   0.988   4.811  0.5549 -0.3176 -0.6287
46172SOL    HW141793   5.497   0.956   4.722 -1.4844 -1.1384 -0.7795
46172SOL    HW241794   5.404   0.938   4.840  1.0051  0.1562  1.4813
46173SOL     OW41795   0.571   8.085  10.812  0.2998  0.1433  0.0512
46173SOL    HW141796   0.543   8.174  10.788  0.2051  0.0801 -0.0679
46173SOL    HW241797   0.521   8.065  10.891 -0.2467 -0.1052 -0.3561
46174SOL     OW41798   5.194   1.731   2.946 -0.2094 -0.2607 -0.2323
46174SOL    HW141799   5.247   1.770   2.877 -0.6298  0.6320 -0.0733
46174SOL    HW241800   5.218   1.639   2.947  0.5754 -0.0678 -0.8519
46175SOL     OW41801  10.961   5.760   9.397 -0.2327  0.4585  0.4663
46175SOL    HW141802  11.044   5.782   9.440  0.1153 -1.3995  0.7929
46175SOL    HW241803  10.939   5.673   9.429 -1.8308  0.5199 -0.3686
46176SOL     OW41804   2.327   4.450   8.186 -0.1665  0.5835 -0.0574
46176SOL    HW141805   2.357   4.430   8.098  0.4443 -0.0293  0.2810
46176SOL    HW241806   2.234   4.427   8.186  0.1443 -0.7339 -0.1502
46177SOL     OW41807   5.340   1.619   7.884  0.3765 -0.1614  0.3276
46177SOL    HW141808   5.398   1.604   7.809  0.2507 -0.4459  0.2839
46177SOL    HW241809   5.354   1.542   7.940 -0.9012 -0.8816 -0.2985
46178SOL     OW41810   8.946   2.397   4.933  0.3238  0.2827  1.0939
46178SOL    HW141811   8.924   2.374   4.843 -2.1726  0.2988  1.6469
46178SOL    HW241812   8.973   2.314   4.972 -0.1498 -0.0251  0.7710
46179SOL     OW41813   8.701   5.505   2.880 -0.8037  0.1300 -0.4877
46179SOL    HW141814   8.695   5.457   2.797  0.2489 -0.1671 -0.4030
46179SOL    HW241815   8.783   5.474   2.920  0.6890  3.0254 -1.0890
46180SOL     OW41816   1.074   6.613   5.393 -0.0866  0.1020 -0.0643
46180SOL    HW141817   1.167   6.631   5.383  0.2733 -1.7560 -0.3469
46180SOL    HW241818   1.053   6.644   5.481  0.9695 -0.1265  0.2759
46181SOL     OW41819   2.117  10.535   3.851 -0.4013  0.0625 -0.1256
46181SOL    HW141820   2.129  10.626   3.824  0.9447 -0.0361  0.0943
46181SOL    HW241821   2.044  10.538   3.912 -0.8461  0.8779 -0.6729
46182SOL     OW41822   0.347   7.734   5.953  0.1962 -0.3723 -0.4563
46182SOL    HW141823   0.436   7.748   5.986  0.5013 -1.8066 -0.5817
46182SOL    HW241824   0.358   7.722   5.859  0.0075 -1.5166 -0.3446
46183SOL     OW41825   2.420   9.273   2.626  0.3689 -0.2100  0.4848
46183SOL    HW141826   2.402   9.364   2.646 -0.3102 -0.0948 -0.6268
46183SOL    HW241827   2.509   9.273   2.590  0.1317  0.1034 -0.1075
46184SOL     OW41828   0.530   7.334   5.349 -0.0946 -0.0621 -0.2139
46184SOL    HW141829   0.593   7.397   5.315 -0.0229 -1.7945 -3.6061
46184SOL    HW241830   0.583   7.263   5.384 -0.2021  0.0827  0.2585
46185SOL     OW41831   3.927   6.798   7.588  0.0752 -0.0819  0.5672
46185SOL    HW141832   3.934   6.880   7.539 -0.0331  0.8147  1.9977
46185SOL    HW241833   3.833   6.784   7.600  0.0864 -0.5109  0.1961
46186SOL     OW41834   2.365   1.087   7.942 -0.1199  0.1473 -0.9082
46186SOL    HW141835   2.290   1.071   7.999  1.9466 -0.9612  1.7306
46186SOL    HW241836   2.381   1.003   7.899 -0.8293  0.6017 -2.0994
46187SOL     OW41837  10.112   6.604   2.070  0.7190 -0.8446  0.3780
46187SOL    HW141838  10.094   6.538   2.003  1.4810 -1.4441  0.7491
46187SOL    HW241839  10.208   6.612   2.070  0.6308  0.5019  0.1128
46188SOL     OW41840   5.747   6.022   7.269 -0.3554 -0.0354 -0.1345
46188SOL    HW141841   5.814   6.090   7.262 -0.5540  0.2762  0.8984
46188SOL    HW241842   5.785   5.946   7.224  0.0487  0.6077 -0.9105
46189SOL     OW41843   0.890   8.992   3.818 -0.2655 -0.0047 -0.1359
46189SOL    HW141844   0.900   9.087   3.823 -0.7416  0.0104  1.1951
46189SOL    HW241845   0.896   8.963   3.910 -1.5264 -1.0922 -0.3644
46190SOL     OW41846   9.925   1.437   3.764 -0.0963  0.2392 -0.1178
46190SOL    HW141847   9.901   1.529   3.777 -0.9606 -0.0925  0.6950
46190SOL    HW241848   9.950   1.432   3.671 -1.2179  1.0263 -0.4803
46191SOL     OW41849   0.279   8.725   7.328  0.0282  0.8690  0.7650
46191SOL    HW141850   0.366   8.733   7.366  1.1029  2.0900 -1.7203
46191SOL    HW241851   0.295   8.703   7.236 -2.3681 -0.9496  0.6988
46192SOL     OW41852   3.961   1.867   3.119 -0.2157 -0.4709 -0.3174
46192SOL    HW141853   4.036   1.921   3.142 -0.9200  0.8357 -0.9830
46192SOL    HW241854   3.954   1.803   3.190  2.9948 -2.2574 -1.4285
46193SOL     OW41855   8.212   3.725   0.552 -0.3771  0.2219 -0.0812
46193SOL    HW141856   8.131   3.776   0.548  0.0695  1.1274  1.5380
46193SOL    HW241857   8.183   3.634   0.552 -1.2122  0.4060 -2.7081
46194SOL     OW41858   6.626   7.637  10.965  0.0320  0.7551 -0.7715
46194SOL    HW141859   6.560   7.652  11.032  0.4830  0.4989 -0.2685
46194SOL    HW241860   6.665   7.552  10.988 -1.7943 -0.8243 -2.9771
46195SOL     OW41861   8.754   7.442  10.965 -0.0083 -0.1355  0.2483
46195SOL    HW141862   8.846   7.423  10.986  0.2011 -1.0942 -1.3691
46195SOL    HW241863   8.754   7.532  10.934  0.1047  0.3895  1.6903
46196SOL     OW41864  11.012   1.983   1.182 -0.0823  0.4576 -0.0206
46196SOL    HW141865  11.008   1.889   1.166  0.7010  0.5193 -0.5807
46196SOL    HW241866  10.975   1.993   1.270  0.6399 -0.4687  0.4086
46197SOL     OW41867   3.135   9.551   7.776 -0.5108 -0.4116 -0.0013
46197SOL    HW141868   3.190   9.571   7.700  0.5739 -0.3634  0.7691
46197SOL    HW241869   3.049   9.532   7.739  0.6708 -3.3591 -1.5480
46198SOL     OW41870  10.250   2.871   2.653  0.2385  0.3712  0.5553
46198SOL    HW141871  10.194   2.884   2.729  0.3982 -0.4640  0.8249
46198SOL    HW241872  10.332   2.835   2.689  0.4245  0.2477  0.0258
46199SOL     OW41873   0.180  10.706   9.030 -0.1758  0.2441  0.3373
46199SOL    HW141874   0.165  10.801   9.025 -0.4078  0.1524 -1.3932
46199SOL    HW241875   0.203  10.681   8.940 -1.7508 -1.5842  0.3843
46200SOL     OW41876   7.345   2.802  11.304  0.0766 -0.3048  0.3607
46200SOL    HW141877   7.335   2.759  11.220  0.8214 -0.2892  0.2525
46200SOL    HW241878   7.263   2.786  11.350  0.0638 -1.2054  0.0389
46201SOL     OW41879  10.797  10.301   8.689  0.4116 -0.0265 -0.5295
46201SOL    HW141880  10.712  10.259   8.685  0.4824 -0.1256 -1.1200
46201SOL    HW241881  10.778  10.395   8.689  0.2814 -0.0516  0.0165
46202SOL     OW41882   2.241   5.630   2.016  0.3448 -0.2378  0.0499
46202SOL    HW141883   2.256   5.635   2.110  1.7928 -1.2920 -0.0901
46202SOL    HW241884   2.309   5.572   1.984 -0.2641 -0.0837 -1.6321
46203SOL     OW41885   6.583   9.855   8.584  0.4722 -0.0196 -0.3814
46203SOL    HW141886   6.518   9.794   8.549 -0.0709 -1.3286  2.6042
46203SOL    HW241887   6.666   9.807   8.580  0.3652 -0.2692  0.3049
46204SOL     OW41888   6.285   1.591   9.855  0.8827 -0.4864 -0.2994
46204SOL    HW141889   6.202   1.543   9.854  0.4187  0.2871  0.1045
46204SOL    HW241890   6.335   1.552   9.927  0.9386 -1.0526 -0.6356
46205SOL     OW41891   5.427   2.311   5.288  0.2116 -0.3124  0.5409
46205SOL    HW141892   5.442   2.291   5.381 -0.5849  0.3151  0.8217
46205SOL    HW241893   5.344   2.269   5.268  1.0041 -1.5693 -0.2748
46206SOL     OW41894   3.918   9.997   1.762  0.5709  0.0736 -0.0531
46206SOL    HW141895   3.847   9.947   1.800  0.7597  0.7457  1.2433
46206SOL    HW241896   3.958  10.042   1.836  3.1675 -1.2749 -0.5269
46207SOL     OW41897   5.536   0.284   1.913 -0.2969  0.1241 -0.1035
46207SOL    HW141898   5.581   0.316   1.991 -0.4002  0.3920 -0.1519
46207SOL    HW241899   5.584   0.323   1.840  0.6425 -1.2009 -0.2348
46208SOL     OW41900   1.058   8.096  10.331  0.3017 -0.1616 -0.3592
46208SOL    HW141901   1.022   8.152  10.400  1.1920 -0.6071  0.4952
46208SOL    HW241902   0.981   8.058  10.288 -0.2742  0.1223  0.3941
46209SOL     OW41903   0.591   5.320  10.622 -0.3546 -0.0585 -0.4455
46209SOL    HW141904   0.643   5.381  10.569  0.4184 -1.0193 -0.8274
46209SOL    HW241905   0.567   5.370  10.700  0.9803  0.4967 -0.3592
46210SOL     OW41906   3.057   4.657   9.856 -0.0211  0.4955  0.1380
46210SOL    HW141907   2.963   4.666   9.875 -0.0475  0.7120 -0.0886
46210SOL    HW241908   3.082   4.576   9.900  0.2919  1.7813  2.4962
46211SOL     OW41909  10.885   5.096  10.654  0.5271  0.1239  0.2038
46211SOL    HW141910  10.931   5.080  10.571  1.0385 -0.3232  0.5646
46211SOL    HW241911  10.835   5.176  10.639  1.6564  0.7854 -0.1083
46212SOL     OW41912   7.258   9.890   0.426  0.5979 -0.0852  0.8322
46212SOL    HW141913   7.343   9.855   0.453  1.6052  1.4432 -0.2301
46212SOL    HW241914   7.277   9.941   0.348 -1.8335 -2.3046 -1.3861
46213SOL     OW41915  10.782   1.660   7.031  0.2627  0.2461  0.0744
46213SOL    HW141916  10.856   1.675   7.089 -0.1054 -1.4373  1.0582
46213SOL    HW241917  10.819   1.616   6.955  0.5218  1.0650 -0.2833
46214SOL     OW41918   3.659   9.225   0.786 -0.1699 -0.2926 -0.3925
46214SOL    HW141919   3.705   9.216   0.703 -0.4447 -0.2107 -0.5573
46214SOL    HW241920   3.584   9.281   0.766 -0.7060 -0.9589 -0.2735
46215SOL     OW41921   6.400   0.815   8.920 -0.7553  0.4258 -0.3038
46215SOL    HW141922   6.364   0.903   8.929 -0.3466  0.9753 -3.0307
46215SOL    HW241923   6.478   0.827   8.865 -1.0546 -1.6821 -1.2803
46216SOL     OW41924   9.218   4.931   0.420 -0.3940  0.0438 -0.2041
46216SOL    HW141925   9.205   4.978   0.337 -1.3147 -0.6690 -0.4825
46216SOL    HW241926   9.131   4.925   0.458 -0.6767 -3.0408 -1.0729
46217SOL     OW41927   9.707   1.891   5.012  0.7139  0.3707  0.2264
46217SOL    HW141928   9.612   1.900   5.012  0.6778  0.0875 -0.6679
46217SOL    HW241929   9.738   1.963   4.957  0.9039 -0.4175 -0.7313
46218SOL     OW41930   7.043  10.350   6.195 -0.3371  0.4365 -0.0310
46218SOL    HW141931   7.124  10.307   6.167 -0.8118  0.6103 -1.7877
46218SOL    HW241932   6.977  10.322   6.131 -1.6057  0.5614  1.1622
46219SOL     OW41933   5.927  11.015   4.348 -0.3543  0.0450 -0.1228
46219SOL    HW141934   5.892  10.927   4.360 -2.1918  0.7448  0.0642
46219SOL    HW241935   5.857  11.073   4.378  1.0211  1.5730  0.3057
46220SOL     OW41936   0.297   9.053   5.793  0.4696  0.8227 -0.4616
46220SOL    HW141937   0.289   9.057   5.888 -1.6570 -0.4050 -0.5178
46220SOL    HW241938   0.208   9.066   5.761  1.5835  4.8372 -2.5376
46221SOL     OW41939   7.972   0.274   3.882  0.0878 -1.0139 -0.0130
46221SOL    HW141940   7.938   0.320   3.959 -2.1256  0.4610 -1.7395
46221SOL    HW241941   8.022   0.341   3.834  0.9985 -1.7715 -0.1473
46222SOL     OW41942  10.264   0.925   8.429  0.0599 -0.0567  0.4814
46222SOL    HW141943  10.341   0.937   8.484  0.3344  1.4145 -0.1928
46222SOL    HW241944  10.299   0.912   8.341 -0.4499  0.1638  0.2434
46223SOL     OW41945   2.078   3.233   0.546 -0.0041 -0.4111  0.4115
46223SOL    HW141946   2.005   3.207   0.602  0.0873 -0.1254  0.6699
46223SOL    HW241947   2.044   3.306   0.494  0.3439  0.3062  1.1517
46224SOL     OW41948   6.064   4.606   9.530  0.3674 -0.1928 -0.0852
46224SOL    HW141949   6.145   4.657   9.539  1.2506 -1.3510 -1.1405
46224SOL    HW241950   6.023   4.640   9.450 -1.6946  2.3092  1.8535
46225SOL     OW41951   8.987   8.198   2.475 -0.5522  0.0702 -0.5448
46225SOL    HW141952   8.984   8.287   2.510  1.8052  0.0337 -0.0338
46225SOL    HW241953   8.968   8.142   2.550  2.1026  0.0781  0.2434
46226SOL     OW41954   5.254   9.195   2.045 -0.2556  0.1807  0.0314
46226SOL    HW141955   5.269   9.103   2.065 -1.3873  0.0274  0.2467
46226SOL    HW241956   5.292   9.242   2.119  1.9586  0.0352 -0.9111
46227SOL     OW41957   0.803   0.894   3.612 -0.3772 -0.0837 -0.3148
46227SOL    HW141958   0.719   0.921   3.649 -0.9422 -1.3232 -0.6319
46227SOL    HW241959   0.816   0.953   3.537 -2.0735 -1.2277 -1.6021
46228SOL     OW41960   2.891   2.662   8.700 -0.4573  0.1203  0.2566
46228SOL    HW141961   2.919   2.704   8.620  0.4843 -0.1953  0.4102
46228SOL    HW241962   2.942   2.581   8.704  0.0755  0.4975  1.5519
46229SOL     OW41963   4.491   0.538   2.866 -0.3923 -0.5977 -0.5299
46229SOL    HW141964   4.434   0.595   2.815 -0.5243  1.8550  2.1025
46229SOL    HW241965   4.433   0.473   2.904 -0.4646 -1.6924 -2.4175
46230SOL     OW41966   8.186  10.345   7.224  0.1894  0.1047  0.3407
46230SOL    HW141967   8.207  10.338   7.131 -1.2208  1.2344 -0.0989
46230SOL    HW241968   8.132  10.268   7.243  0.4909 -0.1342  0.2390
46231SOL     OW41969   0.038   7.875   3.809 -0.3156  0.4047 -0.0920
46231SOL    HW141970   0.089   7.860   3.730 -0.3914 -1.9087  0.2012
46231SOL    HW241971   0.104   7.887   3.878 -0.1495 -0.6548 -0.0376
46232SOL     OW41972   2.020   5.166   8.419  0.3051  0.2146 -0.0462
46232SOL    HW141973   2.017   5.198   8.509  1.5896 -2.4348  1.0360
46232SOL    HW241974   1.929   5.165   8.391 -0.2842 -0.3640  1.7848
46233SOL     OW41975   3.718   2.681   0.228  0.3538 -0.4073 -0.2449
46233SOL    HW141976   3.730   2.741   0.302  2.6834 -0.6832 -0.3222
46233SOL    HW241977   3.674   2.605   0.266 -0.7609  0.4823  0.2936
46234SOL     OW41978   0.669   7.893   0.567  0.0405  0.3969 -0.6764
46234SOL    HW141979   0.642   7.861   0.480  0.5939  0.2660 -0.8006
46234SOL    HW241980   0.753   7.935   0.552  0.9025 -1.0108  0.0731
46235SOL     OW41981  10.162   8.172   8.026 -0.4173 -0.7642 -0.2784
46235SOL    HW141982  10.086   8.190   7.969 -0.2303  0.8387 -0.0502
46235SOL    HW241983  10.123   8.151   8.111 -0.6232  1.4506  0.2260
46236SOL     OW41984   4.008   4.136   5.751 -0.3597  0.3481 -0.1701
46236SOL    HW141985   4.048   4.127   5.664  0.7642 -2.5901  0.5242
46236SOL    HW241986   4.077   4.176   5.804 -1.0645  2.1926 -0.5811
46237SOL     OW41987   0.713   2.938  10.932 -0.1098  0.0838  0.0819
46237SOL    HW141988   0.658   2.996  10.985 -0.7002 -2.0737  1.9930
46237SOL    HW241989   0.798   2.940  10.975  0.2240  0.4219 -0.5707
46238SOL     OW41990   2.403   0.567   0.033 -0.0918 -0.2515 -0.8378
46238SOL    HW141991   2.353   0.564   0.115 -0.2193 -1.0435 -0.9336
46238SOL    HW241992   2.493   0.546   0.059 -0.4456 -2.3322 -1.1115
46239SOL     OW41993  10.019   1.233   0.878  0.1719  0.4365  0.0260
46239SOL    HW141994   9.958   1.276   0.938 -0.5436 -2.1531  1.3279
46239SOL    HW241995  10.085   1.194   0.935  0.5164 -0.5544 -1.0119
46240SOL     OW41996   1.634   4.459   2.601 -0.3190  0.4631  0.7475
46240SOL    HW141997   1.593   4.528   2.548 -1.3738 -0.9255 -0.3532
46240SOL    HW241998   1.727   4.466   2.583 -0.5844  0.5318 -0.7406
46241SOL     OW41999  10.343   4.226   1.252  0.0904  0.0344 -0.0667
46241SOL    HW142000  10.272   4.172   1.217 -0.9567  0.9346  0.6156
46241SOL    HW242001  10.320   4.315   1.227 -0.7512  0.7488  2.8969
46242SOL     OW42002  10.623   5.923   6.426 -0.0876  0.7082 -0.0018
46242SOL    HW142003  10.596   5.872   6.350 -0.5201  0.8312  0.0644
46242SOL    HW242004  10.718   5.916   6.427 -0.1614 -0.4270  0.2391
46243SOL     OW42005   3.665   6.346   8.062  0.0241  0.0611 -0.0685
46243SOL    HW142006   3.570   6.347   8.049  0.0444 -3.2638 -1.5100
46243SOL    HW242007   3.683   6.260   8.100  2.5480  0.1448 -0.8982
46244SOL     OW42008  10.053   7.349   5.894 -0.0697  0.1375  0.1681
46244SOL    HW142009   9.963   7.379   5.908  0.1022  0.2053  1.2102
46244SOL    HW242010  10.078   7.307   5.976  0.4940 -0.8232 -0.4806
46245SOL     OW42011   8.885   0.617   8.311  0.1009  0.5843  0.4282
46245SOL    HW142012   8.879   0.628   8.216 -0.5854  1.2311  0.5340
46245SOL    HW242013   8.915   0.702   8.343  0.5329  0.3014  0.7712
46246SOL     OW42014   4.362   1.523   5.507 -0.0336 -0.2166 -0.1981
46246SOL    HW142015   4.455   1.547   5.509  0.0805 -0.6334 -0.6401
46246SOL    HW242016   4.319   1.592   5.559  0.3149  0.8676 -1.3101
46247SOL     OW42017   5.140   7.292  11.243  0.1780  0.2282 -0.1970
46247SOL    HW142018   5.090   7.302  11.324  0.3030  0.2596 -0.1230
46247SOL    HW242019   5.230   7.279  11.272  0.3248  0.8849 -0.3512
46248SOL     OW42020   3.646   4.414   4.965  0.3425 -0.2338  0.1996
46248SOL    HW142021   3.586   4.346   4.992  1.6957 -1.7394 -0.3992
46248SOL    HW242022   3.660   4.467   5.043 -0.7935 -0.5913  0.6557
46249SOL     OW42023   9.112   0.646  11.016  0.0915  0.2241  0.1071
46249SOL    HW142024   9.134   0.619  11.105 -0.7333  0.2179  0.3248
46249SOL    HW242025   9.017   0.662  11.020  0.2340  1.2323 -0.5121
46250SOL     OW42026   4.390   1.221   0.395 -0.5767 -0.0534  0.5646
46250SOL    HW142027   4.345   1.196   0.314  0.1402  0.2436  0.0647
46250SOL    HW242028   4.387   1.142   0.449  1.9761 -1.4681 -1.1413
46251SOL     OW42029   5.314   1.244   9.490  0.3922  0.0747  0.1517
46251SOL    HW142030   5.345   1.203   9.410 -0.0821 -0.1254  0.0674
46251SOL    HW242031   5.344   1.335   9.483 -0.8094  0.4111 -0.8960
46252SOL     OW42032  10.416   4.744   6.615  0.1195  0.4182  0.0440
46252SOL    HW142033  10.340   4.801   6.598  0.6818  0.6736 -1.8282
46252SOL    HW242034  10.490   4.805   6.623  0.3660  0.0757  0.4164
46253SOL     OW42035   8.365   8.602   8.116 -0.4151  0.1902  0.0391
46253SOL    HW142036   8.397   8.547   8.045  1.6275  1.4160 -0.0913
46253SOL    HW242037   8.287   8.644   8.081 -1.4693 -1.8429 -0.1860
46254SOL     OW42038  10.920   1.409   4.877  0.6187  0.4183  0.1434
46254SOL    HW142039  10.902   1.411   4.971 -0.6327  1.5207 -0.0983
46254SOL    HW242040  10.870   1.482   4.840 -1.4700 -1.8170 -1.8043
46255SOL     OW42041   2.374   5.468   5.055 -0.0783 -1.1785 -0.5317
46255SOL    HW142042   2.360   5.463   5.149  0.2655 -0.0535 -0.4056
46255SOL    HW242043   2.302   5.522   5.023  0.4776 -0.5405 -0.7319
46256SOL     OW42044   4.724   4.440   0.534 -0.0305  0.6584  0.4452
46256SOL    HW142045   4.710   4.445   0.628  0.8556  0.4750  0.5984
46256SOL    HW242046   4.770   4.357   0.521 -1.7424 -0.1982 -0.3645
46257SOL     OW42047   7.111   3.845   5.215  0.3830  0.2372  0.5321
46257SOL    HW142048   7.172   3.775   5.237 -0.7487 -0.3859  1.8678
46257SOL    HW242049   7.089   3.885   5.300 -1.4577  0.0854  0.1802
46258SOL     OW42050   6.958   9.945   1.171 -0.2475  0.0358  0.4824
46258SOL    HW142051   6.873   9.966   1.133 -1.1199  0.5253  2.5727
46258SOL    HW242052   6.952   9.852   1.193  0.0358 -0.1027 -0.0083
46259SOL     OW42053   5.656   7.522  11.044  0.9576 -0.2879 -0.5026
46259SOL    HW142054   5.692   7.440  11.076  1.3191 -0.1939 -0.6687
46259SOL    HW242055   5.627   7.502  10.955 -0.0952 -0.5630 -0.1113
46260SOL     OW42056   9.844   3.727   9.209  0.6373  0.6073  0.0716
46260SOL    HW142057   9.926   3.770   9.232  0.1500  0.7743  1.5839
46260SOL    HW242058   9.869   3.635   9.195  1.0733  0.6319  0.6292
46261SOL     OW42059   5.730  10.038   5.648 -0.1614  0.6520 -0.0718
46261SOL    HW142060   5.752  10.064   5.738  1.1940  0.6970 -0.3862
46261SOL    HW242061   5.700   9.947   5.656 -1.5254  1.1397  0.5976
46262SOL     OW42062   5.696  10.718  11.060  0.6350 -0.3913  0.6049
46262SOL    HW142063   5.603  10.741  11.055  0.9050  0.3923 -2.0079
46262SOL    HW242064   5.699  10.625  11.040  0.5605  0.1669 -2.5106
46263SOL     OW42065   6.078   1.246   1.105  0.0653  0.1394  0.3150
46263SOL    HW142066   6.069   1.290   1.020 -0.5777  0.6220  0.6332
46263SOL    HW242067   6.084   1.153   1.082  3.3512  0.4173 -0.5154
46264SOL     OW42068   4.643   4.078   2.664 -0.0303 -0.5456  0.0367
46264SOL    HW142069   4.720   4.079   2.721 -0.0575  2.0501  0.1692
46264SOL    HW242070   4.667   4.019   2.592  0.4546 -2.9713  2.0517
46265SOL     OW42071   3.512  11.116   3.769 -0.4072  0.0077 -0.2850
46265SOL    HW142072   3.456  11.049   3.728 -1.0228  0.0493  0.4546
46265SOL    HW242073   3.454  11.191   3.780 -0.6208 -0.4046  1.7429
46266SOL     OW42074  10.628   3.565   3.187  0.0233  0.3973  0.5235
46266SOL    HW142075  10.621   3.471   3.171 -1.7292  0.1583  2.3822
46266SOL    HW242076  10.614   3.605   3.101 -0.4419 -1.0107 -0.0766
46267SOL     OW42077   7.914   6.460   1.880 -0.6307 -0.0751  0.2121
46267SOL    HW142078   7.896   6.534   1.938  0.6368 -1.2325  2.2172
46267SOL    HW242079   7.911   6.497   1.792  0.0842  2.3988  1.1483
46268SOL     OW42080   4.104   8.127   2.052 -0.3149  0.0606 -0.5448
46268SOL    HW142081   4.039   8.085   2.108  1.2679 -1.4912  0.2089
46268SOL    HW242082   4.165   8.057   2.029  1.0490  1.4390 -1.3153
46269SOL     OW42083   6.239  10.438   5.813 -0.0581 -0.6084 -0.0597
46269SOL    HW142084   6.144  10.453   5.814 -0.1675 -1.2359 -0.2537
46269SOL    HW242085   6.254  10.382   5.737  0.6330  0.4124 -0.7026
46270SOL     OW42086   3.368   6.328   2.699 -0.4683 -0.2711 -0.4137
46270SOL    HW142087   3.324   6.262   2.645  0.5936 -1.0185 -0.3972
46270SOL    HW242088   3.454   6.340   2.658 -0.4451  0.7151 -0.1062
46271SOL     OW42089   2.251   0.074   0.722 -0.1182  0.8144  0.1644
46271SOL    HW142090   2.251   0.164   0.691 -1.0588  0.8111  0.1119
46271SOL    HW242091   2.339   0.059   0.755  0.7921  1.0014 -1.9769
46272SOL     OW42092   5.246   8.313   9.633  0.2806 -0.1713  0.2945
46272SOL    HW142093   5.208   8.271   9.710  2.7406 -1.9407  0.6887
46272SOL    HW242094   5.320   8.363   9.667  0.1499  0.7420 -0.7087
46273SOL     OW42095   6.864  10.712   1.718 -0.5789  0.4173 -0.3424
46273SOL    HW142096   6.775  10.699   1.751 -0.5562 -1.0196 -0.8015
46273SOL    HW242097   6.861  10.680   1.628 -0.5619  3.9827 -1.7806
46274SOL     OW42098   6.354   7.369   1.915 -0.1469 -0.8890  0.0621
46274SOL    HW142099   6.338   7.419   1.996  0.1069  1.6431 -1.3474
46274SOL    HW242100   6.271   7.372   1.869  0.0398 -1.2961 -0.3020
46275SOL     OW42101   7.323   3.183   4.936 -0.3062 -0.0329  0.1048
46275SOL    HW142102   7.343   3.264   4.982 -0.3499  0.5516 -0.8832
46275SOL    HW242103   7.370   3.116   4.985 -0.2093  0.5929  0.8903
46276SOL     OW42104   0.022   4.412   7.671  1.0277  0.3776 -0.3948
46276SOL    HW142105  -0.026   4.490   7.697  0.2676 -0.4402  0.7307
46276SOL    HW242106   0.044   4.369   7.754 -1.8413 -2.5497 -0.9481
46277SOL     OW42107   0.614   8.369   6.940 -0.9771 -0.5530 -0.1832
46277SOL    HW142108   0.597   8.463   6.939  1.5368 -0.0043  0.4259
46277SOL    HW242109   0.603   8.343   7.031 -0.7379 -0.6392 -0.1775
46278SOL     OW42110   3.561   8.336   4.961  0.3101  0.2419  0.1059
46278SOL    HW142111   3.546   8.372   5.049 -0.2569  1.7855 -0.5988
46278SOL    HW242112   3.483   8.362   4.911 -0.2313 -2.1089 -0.4345
46279SOL     OW42113   6.923   7.056   7.019  0.3279  0.3234 -0.4493
46279SOL    HW142114   6.931   7.000   7.096 -0.9387  0.3481 -0.2703
46279SOL    HW242115   6.914   7.144   7.055  0.8998  0.4776 -0.6769
46280SOL     OW42116   8.910   9.290   4.904 -0.0580  0.3072  0.0675
46280SOL    HW142117   8.831   9.342   4.919  0.4784  0.7486  1.5730
46280SOL    HW242118   8.979   9.355   4.889 -0.0491 -0.0843 -1.7626
46281SOL     OW42119  10.584   7.440   3.238  0.5060  0.4082 -0.2459
46281SOL    HW142120  10.516   7.390   3.283  0.8119  0.9341  0.8467
46281SOL    HW242121  10.609   7.509   3.301  0.5133  1.5707 -1.4691
46282SOL     OW42122   5.466   8.432   1.147 -0.2720  0.2735  0.2460
46282SOL    HW142123   5.497   8.381   1.072 -0.3768  0.1286  0.3009
46282SOL    HW242124   5.455   8.368   1.217  1.3540  0.6344  0.8773
46283SOL     OW42125   3.638   0.362   9.057 -0.2648 -0.1353  0.2996
46283SOL    HW142126   3.610   0.436   9.110 -1.3361 -0.1819 -0.1576
46283SOL    HW242127   3.556   0.316   9.036 -0.1180  0.6586 -2.5274
46284SOL     OW42128   0.183   4.131   2.655  0.4801 -0.1261 -0.4475
46284SOL    HW142129   0.103   4.144   2.604 -0.4478  0.3404  1.0299
46284SOL    HW242130   0.249   4.184   2.611 -0.1982 -0.0032 -1.3427
46285SOL     OW42131   1.577   7.029   5.246 -0.0730  0.4146  0.0597
46285SOL    HW142132   1.519   6.961   5.214  1.2591 -0.8542  0.2498
46285SOL    HW242133   1.664   7.003   5.216  0.5640  1.6700  0.7160
46286SOL     OW42134   9.913   8.588   3.462  0.4821 -0.0161 -0.8117
46286SOL    HW142135   9.827   8.565   3.497  1.1739  0.6027  1.5212
46286SOL    HW242136   9.903   8.679   3.434  0.2891 -0.0279 -0.7879
46287SOL     OW42137   4.023   2.866   8.250 -0.0175  0.5030  0.2761
46287SOL    HW142138   3.963   2.820   8.192  1.0497 -0.0613 -0.4124
46287SOL    HW242139   3.969   2.891   8.325 -0.7891 -1.3577  0.3983
46288SOL     OW42140   5.915   7.217   8.675  0.4332 -0.1741 -0.0378
46288SOL    HW142141   5.917   7.228   8.770 -0.1035  0.6507 -0.1186
46288SOL    HW242142   5.823   7.207   8.654  0.3206  1.7597 -0.6789
46289SOL     OW42143   5.896   0.175   0.073 -0.1250  0.5628 -0.5761
46289SOL    HW142144   5.983   0.165   0.035  0.4294  2.1959  0.1511
46289SOL    HW242145   5.846   0.222   0.006  0.7218  3.0361  0.3893
46290SOL     OW42146   5.298   2.091   1.375 -0.4014  0.2436  0.1195
46290SOL    HW142147   5.268   2.146   1.302  0.4786  0.6630  0.0564
46290SOL    HW242148   5.380   2.053   1.343  0.1819  0.7202  1.0313
46291SOL     OW42149   2.076   2.629   2.348 -0.0505 -0.6735 -0.5787
46291SOL    HW142150   2.005   2.692   2.334  1.2927  1.5285  1.7608
46291SOL    HW242151   2.133   2.671   2.412  3.3418 -2.4139 -2.2153
46292SOL     OW42152   0.543   6.539   2.947  0.5598 -0.0335 -0.3140
46292SOL    HW142153   0.610   6.484   2.987  0.0138  0.2717  1.1103
46292SOL    HW242154   0.580   6.566   2.863  1.2770 -1.6737 -0.5569
46293SOL     OW42155   5.450   1.963   9.375  0.3496  0.8396  0.1919
46293SOL    HW142156   5.483   2.024   9.441 -0.5482  0.1149  1.3681
46293SOL    HW242157   5.510   1.889   9.378  0.3164  0.8125  0.1868
46294SOL     OW42158   3.064   4.032   1.968  0.2178  0.1421 -0.1473
46294SOL    HW142159   3.024   3.968   2.026 -0.0368 -0.0482 -0.5287
46294SOL    HW242160   3.158   4.021   1.982  0.3377 -2.0367 -1.9449
46295SOL     OW42161   3.258   3.818   5.527  0.2305  0.0455 -0.1611
46295SOL    HW142162   3.340   3.803   5.574 -0.2302 -1.0792  0.3256
46295SOL    HW242163   3.227   3.730   5.505 -1.0225  0.4363 -0.0236
46296SOL     OW42164   4.151   9.257  10.781  0.1704  0.0755  0.1126
46296SOL    HW142165   4.090   9.186  10.760  1.1857 -1.2897  1.5675
46296SOL    HW242166   4.233   9.213  10.804  1.4363  1.8156 -0.7881
46297SOL     OW42167  10.824   1.068  10.592  0.0097  0.2122  0.0875
46297SOL    HW142168  10.789   1.113  10.516  1.9319  2.3127  0.3518
46297SOL    HW242169  10.760   0.998  10.610 -1.6925  1.1253 -1.9760
46298SOL     OW42170   8.583  10.133  10.242  0.2657 -0.0745 -0.1036
46298SOL    HW142171   8.522  10.098  10.177  1.4596 -2.1799 -0.1669
46298SOL    HW242172   8.531  10.140  10.323 -0.0824 -1.9000 -0.1384
46299SOL     OW42173   4.807   7.234   2.963  0.0419  0.1893 -0.0259
46299SOL    HW142174   4.845   7.264   3.045 -0.3307 -0.0236  0.2230
46299SOL    HW242175   4.715   7.257   2.969  0.3522  2.0036 -1.2161
46300SOL     OW42176   7.154  10.939  10.577  0.3945  0.0037 -0.2945
46300SOL    HW142177   7.163  10.930  10.672 -0.9651  2.1050  0.1087
46300SOL    HW242178   7.223  11.001  10.553  0.4390 -0.1686 -0.6132
46301SOL     OW42179   2.135   0.878   9.325  0.1707 -0.3752  0.0943
46301SOL    HW142180   2.218   0.904   9.286  0.0678  0.7825  0.6137
46301SOL    HW242181   2.078   0.861   9.251  0.8270 -1.0831 -0.2675
46302SOL     OW42182   7.576   8.509   0.954  0.7012 -0.5049 -0.3162
46302SOL    HW142183   7.482   8.507   0.976  0.7021 -2.2765 -0.3376
46302SOL    HW242184   7.615   8.566   1.021 -0.2689 -0.4174  0.1996
46303SOL     OW42185   9.060  10.213   5.024  0.1026  0.0020 -0.4802
46303SOL    HW142186   9.087  10.278   5.089 -0.2148 -0.1265 -0.2180
46303SOL    HW242187   9.125  10.143   5.031  1.4250  1.0178 -1.9184
46304SOL     OW42188   7.199  10.905   7.117 -0.2861 -0.0695 -0.0810
46304SOL    HW142189   7.110  10.875   7.099 -0.1290 -0.3205 -0.4652
46304SOL    HW242190   7.255  10.841   7.072  0.2546 -2.3295  3.4464
46305SOL     OW42191   7.642  10.330   3.580  0.8219  0.2322  0.2164
46305SOL    HW142192   7.596  10.293   3.505  1.8039  0.0610 -0.3265
46305SOL    HW242193   7.574  10.371   3.633  0.2034  1.0997 -1.1998
46306SOL     OW42194  10.948   5.390   7.691 -0.1096 -0.1419 -0.1518
46306SOL    HW142195  10.905   5.309   7.665  1.4522 -0.6265 -1.3813
46306SOL    HW242196  11.039   5.379   7.663  0.6867  1.1077  1.7304
46307SOL     OW42197  11.142   8.439   8.260 -0.1699  0.6131  0.7887
46307SOL    HW142198  11.151   8.454   8.354 -1.5048  2.3962  0.6952
46307SOL    HW242199  11.048   8.447   8.243  0.0739  0.6221 -0.7394
46308SOL     OW42200   6.920   7.558   9.721  0.0093 -0.0291  0.6400
46308SOL    HW142201   7.011   7.549   9.690  0.2231  3.1786  0.0026
46308SOL    HW242202   6.919   7.511   9.804  2.2690 -0.1784  0.6615
46309SOL     OW42203   7.898   2.655  10.514  0.1357 -0.5590 -0.0526
46309SOL    HW142204   7.807   2.651  10.486  0.1219 -0.2209 -0.0602
46309SOL    HW242205   7.931   2.566  10.501  0.3419 -0.2718 -1.8688
46310SOL     OW42206   7.283   9.006   5.098  0.2174 -0.1184  0.2386
46310SOL    HW142207   7.234   8.941   5.048 -1.9554  0.7504  1.1077
46310SOL    HW242208   7.323   9.062   5.032 -0.8280 -0.2471 -0.5252
46311SOL     OW42209  10.760   9.682  11.334  0.2723 -0.2756 -0.3424
46311SOL    HW142210  10.673   9.665  11.370  0.7691  1.3949  1.8181
46311SOL    HW242211  10.801   9.595  11.330 -0.9737 -0.9053 -0.0055
46312SOL     OW42212   5.043   6.949   5.449 -0.2123  0.4188  0.3466
46312SOL    HW142213   5.007   7.038   5.443  1.7046  1.3675  1.5243
46312SOL    HW242214   5.111   6.946   5.381 -2.0678 -1.1698 -1.5491
46313SOL     OW42215   6.051   4.673   9.803  0.4992 -0.2377  0.1537
46313SOL    HW142216   6.093   4.662   9.718  0.5137  0.8907 -0.0032
46313SOL    HW242217   6.000   4.754   9.794  1.2488  0.4155  1.4950
46314SOL     OW42218   8.139   0.513   6.705  0.3685 -0.2610 -0.2015
46314SOL    HW142219   8.232   0.532   6.692  0.8589 -1.6631  0.9791
46314SOL    HW242220   8.131   0.419   6.685 -0.8807 -0.0686 -0.6798
46315SOL     OW42221  10.019   0.777   6.412  0.1524  0.2429 -0.2628
46315SOL    HW142222  10.016   0.808   6.321 -0.0473 -0.4249 -0.4846
46315SOL    HW242223   9.929   0.781   6.442  0.6049  4.1438  1.1918
46316SOL     OW42224   9.146   9.911   8.067 -0.6225  0.9969  0.1181
46316SOL    HW142225   9.160   9.950   8.153 -0.3831  1.1848 -0.0085
46316SOL    HW242226   9.159   9.817   8.082 -0.5413  1.0332  0.2784
46317SOL     OW42227   0.886   9.076  10.109  0.0068 -0.3141  0.5029
46317SOL    HW142228   0.965   9.129  10.094 -2.0903  2.8374 -0.4591
46317SOL    HW242229   0.880   9.068  10.204 -0.0317  2.1183  0.7838
46318SOL     OW42230   0.043  11.122  10.081  0.0388 -0.3061 -0.2374
46318SOL    HW142231   0.112  11.188  10.079  0.2635 -0.5326 -0.0499
46318SOL    HW242232   0.032  11.095   9.990  0.1939 -0.2658 -0.2676
46319SOL     OW42233   0.937  10.937   3.099 -0.2929  0.3825  0.1794
46319SOL    HW142234   0.977  10.879   3.034 -2.8762 -0.0540 -1.1449
46319SOL    HW242235   0.995  10.930   3.175  1.2510 -1.4011 -1.0445
46320SOL     OW42236   8.486   6.477   6.531 -0.3512  0.2728 -0.0484
46320SOL    HW142237   8.473   6.385   6.508 -0.5359 -0.0919  1.4292
46320SOL    HW242238   8.578   6.483   6.559  0.0569  0.8441 -1.4374
46321SOL     OW42239   2.785   0.873  10.261 -0.3603  0.0026 -0.4025
46321SOL    HW142240   2.780   0.841  10.171  1.9283  1.0747 -0.9832
46321SOL    HW242241   2.789   0.968  10.252  2.0602  0.0615  0.6329
46322SOL     OW42242  10.978   3.121   5.855 -0.6713 -0.1055 -0.1916
46322SOL    HW142243  10.909   3.182   5.827  0.8806  1.6718 -0.3574
46322SOL    HW242244  11.041   3.122   5.783  0.3211 -0.3862  0.6525
46323SOL     OW42245   3.245   0.074   6.560  0.7175  0.2106 -0.5627
46323SOL    HW142246   3.194   0.026   6.495 -0.7234  1.6102 -0.5476
46323SOL    HW242247   3.274   0.008   6.622  0.4329 -0.8788 -1.5486
46324SOL     OW42248   8.219   0.267   1.510 -0.3993  0.3799  0.5038
46324SOL    HW142249   8.295   0.257   1.568 -0.3383 -0.4403  0.3047
46324SOL    HW242250   8.257   0.287   1.424 -0.4565  0.9446  0.6097
46325SOL     OW42251   7.196   2.665   7.803  0.0471 -0.3434 -0.3991
46325SOL    HW142252   7.200   2.656   7.708 -0.1735  1.1518 -0.5697
46325SOL    HW242253   7.259   2.734   7.823 -2.3710  1.8531  0.1404
46326SOL     OW42254   7.363   9.746   3.892 -0.5206 -0.3701 -0.0011
46326SOL    HW142255   7.331   9.828   3.927  1.0364  0.2285  0.0944
46326SOL    HW242256   7.356   9.684   3.965  0.8063  0.3630  0.7816
46327SOL     OW42257  10.978   2.986   8.548 -0.4249 -0.1787 -0.6171
46327SOL    HW142258  10.984   2.891   8.546 -0.2645 -0.1949  0.0544
46327SOL    HW242259  10.906   3.008   8.489 -1.4599 -0.8193  0.3613
46328SOL     OW42260   2.263  11.330   4.443  0.2729  0.5461  0.1236
46328SOL    HW142261   2.320  11.296   4.374  0.7504 -0.0707  0.8008
46328SOL    HW242262   2.180  11.285   4.431  0.0551  1.1203 -0.6001
46329SOL     OW42263   2.647   1.312   7.892 -0.2114  0.2847 -0.1250
46329SOL    HW142264   2.680   1.383   7.948  2.1066  0.3681 -1.4754
46329SOL    HW242265   2.705   1.238   7.911 -0.1530 -0.0516 -1.4928
46330SOL     OW42266   8.794   7.580   6.379  0.4354 -0.7236 -0.0511
46330SOL    HW142267   8.766   7.646   6.443 -0.5024 -1.2786  0.1370
46330SOL    HW242268   8.889   7.591   6.374  0.4404 -0.1508  0.8584
46331SOL     OW42269   5.535   1.514   2.751 -0.3080  0.3500 -0.1276
46331SOL    HW142270   5.457   1.511   2.695  0.0497 -1.8716 -0.6028
46331SOL    HW242271   5.572   1.426   2.745  1.4931  0.9627  1.1717
46332SOL     OW42272   7.222   9.222   7.764 -0.2742 -0.6439 -0.0236
46332SOL    HW142273   7.172   9.203   7.843  1.9056 -1.8520  1.1407
46332SOL    HW242274   7.273   9.300   7.785 -2.2693  1.2020 -1.5574
46333SOL     OW42275   1.198   8.409   5.267 -0.1041  0.3658 -0.5415
46333SOL    HW142276   1.287   8.374   5.272 -0.8479 -1.4414  2.3946
46333SOL    HW242277   1.207   8.500   5.296  0.6393 -0.3070  1.5905
46334SOL     OW42278   4.946   1.015  11.130 -0.2033 -0.1748 -0.1227
46334SOL    HW142279   4.898   0.943  11.089 -2.1790  0.4497  0.9694
46334SOL    HW242280   4.890   1.043  11.202  1.0745  1.6830  0.2067
46335SOL     OW42281   0.128   9.535   8.306  0.1324  0.2627 -0.4400
46335SOL    HW142282   0.171   9.609   8.349 -0.8069  0.9315 -0.6280
46335SOL    HW242283   0.059   9.508   8.366 -0.7179  0.7358 -1.1802
46336SOL     OW42284   6.530   3.594   8.147  0.7532  0.0065  0.1441
46336SOL    HW142285   6.523   3.507   8.188 -0.3809 -0.8840 -1.8107
46336SOL    HW242286   6.516   3.655   8.220  0.2921 -1.4569  1.3546
46337SOL     OW42287   8.322  11.005   7.244  1.2256  0.1045  0.1710
46337SOL    HW142288   8.415  11.001   7.222  1.2600 -2.4007  0.4970
46337SOL    HW242289   8.289  10.917   7.226 -1.3145  1.1521 -0.8133
46338SOL     OW42290   6.975   8.285   4.861  0.0918  0.1267 -0.3957
46338SOL    HW142291   6.964   8.212   4.922  0.9933  1.7036  1.7902
46338SOL    HW242292   7.050   8.261   4.808  1.3931  0.0825  1.3721
46339SOL     OW42293   3.678   6.187   5.049  0.3688 -0.3234  0.4781
46339SOL    HW142294   3.720   6.270   5.026  0.0458 -0.0531  0.8540
46339SOL    HW242295   3.589   6.194   5.016  0.6849 -1.0121 -0.5649
46340SOL     OW42296   7.082   5.379   6.386 -0.1063  0.5532 -0.1701
46340SOL    HW142297   7.109   5.402   6.298 -2.3873 -0.7557 -1.3020
46340SOL    HW242298   6.991   5.407   6.392 -0.0120  0.6203  1.7824
46341SOL     OW42299  10.675  10.524   4.968 -0.6374 -0.3955 -0.1653
46341SOL    HW142300  10.604  10.585   4.950  0.4287  1.0156  0.2333
46341SOL    HW242301  10.689  10.478   4.885 -1.1888  0.1811 -0.5890
46342SOL     OW42302  10.508   6.199   2.033 -0.4333 -0.3427 -0.2354
46342SOL    HW142303  10.442   6.137   2.004  0.9686 -1.6756 -0.6898
46342SOL    HW242304  10.460   6.262   2.086 -2.2500 -0.5799 -1.5217
46343SOL     OW42305   2.067   1.188   9.403 -0.0053  0.2291 -0.2515
46343SOL    HW142306   2.150   1.148   9.429 -0.1476 -0.0370 -0.1964
46343SOL    HW242307   2.001   1.139   9.452 -0.1393  0.9381  0.2758
46344SOL     OW42308   5.284  10.969   4.255  0.1911 -0.3731 -0.3350
46344SOL    HW142309   5.208  11.014   4.217  0.4003  0.0057 -0.3074
46344SOL    HW242310   5.259  10.953   4.346  0.1157 -0.3143 -0.3452
46345SOL     OW42311  10.987   0.017   8.065 -0.1668 -0.0517 -0.0535
46345SOL    HW142312  10.955   0.094   8.112 -2.3645 -1.1136  0.3569
46345SOL    HW242313  10.985   0.043   7.973  1.0496  0.9867  0.1811
46346SOL     OW42314  10.658  11.048   4.286 -0.0093 -0.2516  0.2775
46346SOL    HW142315  10.682  10.956   4.272  0.5340 -0.2502  1.1044
46346SOL    HW242316  10.564  11.046   4.305 -0.3342 -0.4577 -1.2728
46347SOL     OW42317   1.166   0.237   5.953  0.0547 -0.2324 -0.0213
46347SOL    HW142318   1.143   0.328   5.935  0.1809 -0.2318 -0.1836
46347SOL    HW242319   1.102   0.207   6.018 -0.1337 -0.1021 -0.1502
46348SOL     OW42320   4.546   3.761   0.113 -0.3359 -0.1859 -0.3468
46348SOL    HW142321   4.579   3.692   0.171  0.1184 -2.3813 -3.0268
46348SOL    HW242322   4.591   3.841   0.143  0.0905 -1.2343  2.0527
46349SOL     OW42323   9.201   2.561   9.925  0.3357 -0.2730  0.5368
46349SOL    HW142324   9.216   2.631   9.989  3.2521  0.9058 -1.2152
46349SOL    HW242325   9.285   2.515   9.921 -1.2992 -3.5895  1.1468
46350SOL     OW42326   8.703   4.568   0.741 -0.6411 -0.8928 -0.4383
46350SOL    HW142327   8.630   4.522   0.784 -0.2901 -0.0540  1.1392
46350SOL    HW242328   8.782   4.532   0.781 -0.3101  0.1186 -0.1343
46351SOL     OW42329   3.866   8.881   7.307  0.0805  0.4075 -0.5366
46351SOL    HW142330   3.845   8.795   7.343 -0.3554  0.8831  0.3942
46351SOL    HW242331   3.960   8.879   7.293  0.5293  0.6501  1.9823
46352SOL     OW42332   9.209  10.946   7.951  0.3961  0.1404  0.4096
46352SOL    HW142333   9.126  10.993   7.960  0.3249  0.0732  0.1162
46352SOL    HW242334   9.273  11.014   7.929 -0.0275 -0.0914 -1.8147
46353SOL     OW42335   5.349   8.085   7.922  0.7313  0.0497 -0.2147
46353SOL    HW142336   5.268   8.136   7.915 -0.3987 -1.6919 -0.6503
46353SOL    HW242337   5.325   7.999   7.887  2.2454 -1.0890  1.4178
46354SOL     OW42338  10.810   7.422   0.641  0.0008 -0.0905  0.0434
46354SOL    HW142339  10.759   7.474   0.578 -0.6916 -0.5934  0.1717
46354SOL    HW242340  10.791   7.331   0.617  0.7956 -0.2903  0.1414
46355SOL     OW42341   6.902   5.711  10.436 -0.4855  0.4961  0.4542
46355SOL    HW142342   6.866   5.793  10.470  1.5862  1.2498  0.9824
46355SOL    HW242343   6.959   5.738  10.364  1.0191 -0.3478  1.2821
46356SOL     OW42344   0.862   7.688   3.127 -0.3988  0.0827  0.4381
46356SOL    HW142345   0.820   7.771   3.153  0.0801  0.0808  1.2663
46356SOL    HW242346   0.810   7.621   3.170  0.2267  0.0613  1.1877
46357SOL     OW42347   0.831   7.932  10.245 -0.6273  0.2790 -0.4710
46357SOL    HW142348   0.744   7.904  10.273 -0.2959  0.9463  1.3264
46357SOL    HW242349   0.878   7.850  10.228 -1.0221 -0.1584  0.4480
46358SOL     OW42350   5.999   4.134   1.745  0.1655  0.0289 -0.1845
46358SOL    HW142351   5.913   4.118   1.785  0.3847 -2.2618 -0.4719
46358SOL    HW242352   5.997   4.226   1.719 -1.9674  0.1860  0.3511
46359SOL     OW42353   9.434  10.420   1.954 -0.1287 -0.0319 -0.2473
46359SOL    HW142354   9.340  10.437   1.942 -0.2368 -0.0080  0.5957
46359SOL    HW242355   9.438  10.356   2.025  0.5753  1.3497  1.0002
46360SOL     OW42356   7.645   9.681   6.555  0.5215 -0.2841 -0.1599
46360SOL    HW142357   7.678   9.613   6.613 -0.2689 -0.6449 -0.1176
46360SOL    HW242358   7.563   9.645   6.520  0.0848  0.6483 -0.1299
46361SOL     OW42359   9.919   2.955   2.296  0.0848 -0.6743 -0.2830
46361SOL    HW142360   9.899   2.875   2.343 -1.6479  0.1295  0.4452
46361SOL    HW242361   9.833   2.991   2.271  0.7971  0.9627 -0.5558
46362SOL     OW42362   1.835   2.238   5.754  0.3251 -0.0685 -0.9155
46362SOL    HW142363   1.872   2.322   5.729 -0.8081  0.9861  0.7853
46362SOL    HW242364   1.794   2.205   5.674 -0.5633  1.7452 -1.2529
46363SOL     OW42365   0.005   9.980   6.412  0.5110 -0.5413  0.2512
46363SOL    HW142366  -0.088   9.999   6.417  1.3009  4.1657  2.4305
46363SOL    HW242367   0.040  10.007   6.497  3.8818 -2.5584 -0.3036
46364SOL     OW42368   7.990   2.872  10.715  0.2137  0.0488  0.3482
46364SOL    HW142369   7.946   2.807  10.660 -1.0046  1.1745 -0.0642
46364SOL    HW242370   7.984   2.836  10.804  0.5207 -0.8966 -0.0044
46365SOL     OW42371   0.023   2.348   0.465 -0.3374  1.0923 -0.2299
46365SOL    HW142372  -0.028   2.290   0.407 -0.4950 -0.6441  1.5411
46365SOL    HW242373   0.114   2.331   0.442 -0.3424 -0.5751  0.8611
46366SOL     OW42374   2.524   8.524   1.304 -0.7611  0.0837 -0.2173
46366SOL    HW142375   2.576   8.445   1.321  2.4389  2.0912  0.0695
46366SOL    HW242376   2.508   8.522   1.210 -1.2890 -1.1848 -0.1268
46367SOL     OW42377   1.467   6.398   1.099  0.1275 -0.0349  0.2211
46367SOL    HW142378   1.394   6.409   1.160 -0.4155 -0.5231 -0.3301
46367SOL    HW242379   1.526   6.336   1.142  1.0997  1.6476  1.4392
46368SOL     OW42380   1.692   7.413   6.970 -0.5945  0.1283 -0.0886
46368SOL    HW142381   1.742   7.448   7.044 -1.1782 -0.1893  0.4740
46368SOL    HW242382   1.743   7.338   6.939 -0.0812  0.5817 -0.3526
46369SOL     OW42383  11.389   2.560   8.615  0.0985  0.1709  0.0781
46369SOL    HW142384  11.403   2.465   8.618 -0.1771  0.0866 -1.0027
46369SOL    HW242385  11.321   2.576   8.680  0.2137 -0.3529  0.3401
46370SOL     OW42386  10.340   4.515   2.176 -0.2741  0.3901 -0.2545
46370SOL    HW142387  10.291   4.441   2.212 -0.2821  0.2383 -0.5754
46370SOL    HW242388  10.290   4.592   2.204  0.9273  0.4391  2.0008
46371SOL     OW42389   6.619   8.689   9.735  0.5627 -0.0486 -0.1655
46371SOL    HW142390   6.564   8.638   9.794  2.4264 -2.1574 -0.1437
46371SOL    HW242391   6.608   8.779   9.765 -1.9237 -0.5063  0.5583
46372SOL     OW42392   0.017   2.348   8.361 -0.2187  0.3746  0.0588
46372SOL    HW142393  -0.062   2.309   8.397  0.3835 -0.0029  1.0295
46372SOL    HW242394   0.088   2.310   8.414  0.4275  2.4652  0.7913
46373SOL     OW42395  10.378  11.053   6.574 -0.0651  0.0918  0.4791
46373SOL    HW142396  10.388  11.142   6.539  0.7430  0.3520  1.3273
46373SOL    HW242397  10.306  11.015   6.523 -0.7452  1.3930  0.4164
46374SOL     OW42398   8.044   8.821   6.399 -0.5934 -0.4320  0.5142
46374SOL    HW142399   8.017   8.913   6.396  0.8659  0.0501  1.5497
46374SOL    HW242400   8.139   8.824   6.410 -0.2129 -2.0793 -1.6003
46375SOL     OW42401   6.049   8.917   2.878  0.7720  0.1712  0.4307
46375SOL    HW142402   5.987   8.942   2.810 -0.1091 -0.4580  0.9746
46375SOL    HW242403   6.032   8.978   2.950  1.2895  0.4554  0.3179
46376SOL     OW42404   8.869   9.610  10.428  0.2637  0.2044  0.6685
46376SOL    HW142405   8.859   9.621  10.334  3.0147 -0.6534  0.1694
46376SOL    HW242406   8.925   9.683  10.455  1.8964 -1.1066  1.0337
46377SOL     OW42407   9.668   9.970   0.781  0.3454 -0.4258  0.0108
46377SOL    HW142408   9.621   9.992   0.862  0.6764  0.5094 -0.0311
46377SOL    HW242409   9.759   9.992   0.799  0.2749  0.8006 -0.9303
46378SOL     OW42410   7.468   4.805   2.441 -0.1156  0.4698 -0.0796
46378SOL    HW142411   7.435   4.895   2.452  0.0826  0.9795 -2.9356
46378SOL    HW242412   7.416   4.769   2.370  2.3013 -0.3284 -1.5564
46379SOL     OW42413   0.754   0.430   5.130 -0.2580  0.1738 -0.0491
46379SOL    HW142414   0.777   0.471   5.047 -0.1025  1.0972  0.4402
46379SOL    HW242415   0.666   0.464   5.150 -0.9151 -1.1565 -0.5236
46380SOL     OW42416   7.585   1.761   3.405 -0.3126 -0.1103 -0.2074
46380SOL    HW142417   7.535   1.698   3.457  0.0869 -1.8004 -1.7457
46380SOL    HW242418   7.658   1.709   3.368  0.7878  1.5639 -0.5062
46381SOL     OW42419   5.846   7.022  10.555 -0.5176 -0.3042 -0.3702
46381SOL    HW142420   5.841   7.083  10.482  1.8433 -0.4686 -0.7750
46381SOL    HW242421   5.865   7.077  10.631  1.7677 -0.4575 -0.7617
46382SOL     OW42422   9.855   9.290   2.425 -0.5226 -0.4081  0.0458
46382SOL    HW142423   9.938   9.243   2.416  0.0984  0.7172 -0.2239
46382SOL    HW242424   9.868   9.346   2.502 -1.4452 -1.0319  0.6857
46383SOL     OW42425   1.877   9.858   6.116  0.0090 -0.0794 -0.3676
46383SOL    HW142426   1.936   9.920   6.158  1.5312 -1.2584 -0.6698
46383SOL    HW242427   1.916   9.772   6.133 -0.5848 -0.7658 -2.1910
46384SOL     OW42428   4.104   8.636   2.591  0.2210  0.1381 -0.1968
46384SOL    HW142429   4.140   8.552   2.562  0.3878  0.1865 -0.1297
46384SOL    HW242430   4.033   8.612   2.650 -0.2484  0.0347 -0.7941
46385SOL     OW42431   2.705   9.339   9.211 -0.0855 -0.1378 -0.6021
46385SOL    HW142432   2.746   9.253   9.224 -3.6648 -1.7214  1.9267
46385SOL    HW242433   2.749   9.375   9.134  4.8754 -2.0720  0.9084
46386SOL     OW42434   2.786   7.492   2.951 -0.8821  0.4128 -0.2372
46386SOL    HW142435   2.843   7.419   2.927 -0.8477 -0.0147  1.1029
46386SOL    HW242436   2.778   7.543   2.870 -0.4994 -0.7899 -1.0649
46387SOL     OW42437   8.740   7.195   2.805  0.1812 -0.4759 -0.2453
46387SOL    HW142438   8.693   7.198   2.722 -0.1338  3.6102 -0.1425
46387SOL    HW242439   8.830   7.173   2.782 -0.6105 -3.2036 -1.0801
46388SOL     OW42440   0.913   1.211   0.060  0.4229 -0.2875  0.0965
46388SOL    HW142441   0.830   1.185   0.021 -0.0989  0.5131  0.6316
46388SOL    HW242442   0.949   1.276  -0.001  0.9088 -1.0041 -0.3901
46389SOL     OW42443   8.689   8.587  10.321 -0.1862  0.0100 -0.1204
46389SOL    HW142444   8.647   8.568  10.238 -0.0080  1.4989 -0.5808
46389SOL    HW242445   8.655   8.522  10.381 -1.4964 -0.1383 -0.9943
46390SOL     OW42446   0.265   2.496   6.780 -0.1407 -0.1498  0.0369
46390SOL    HW142447   0.198   2.502   6.712 -0.4735  1.0221  0.4527
46390SOL    HW242448   0.223   2.532   6.858  0.9030  0.4011  0.3554
46391SOL     OW42449   4.619   2.498   8.418 -0.1526  0.2553  0.0571
46391SOL    HW142450   4.691   2.560   8.427  0.9279 -0.9129 -0.2743
46391SOL    HW242451   4.649   2.420   8.465 -1.2109 -0.2486 -0.0779
46392SOL     OW42452  10.469   9.768   0.781  0.6210 -0.0964 -0.3968
46392SOL    HW142453  10.494   9.685   0.740  0.7511 -0.5249  0.5166
46392SOL    HW242454  10.373   9.764   0.787  0.4019  0.9309 -2.6208
46393SOL     OW42455   8.031   3.984   1.375  0.5856 -0.0278 -0.1888
46393SOL    HW142456   7.962   3.920   1.360  0.8856  0.1788 -3.1343
46393SOL    HW242457   8.014   4.018   1.463 -2.8784 -0.2023 -0.6413
46394SOL     OW42458   7.253   0.054   7.163  0.2365  1.2797  0.6972
46394SOL    HW142459   7.199  -0.023   7.143  0.4527  1.5154 -0.9491
46394SOL    HW242460   7.254   0.058   7.258 -1.6630  0.5728  0.7956
46395SOL     OW42461   4.658   7.625   7.169 -0.1055 -1.4948  0.3803
46395SOL    HW142462   4.594   7.563   7.203 -0.1139 -0.3455  2.6553
46395SOL    HW242463   4.741   7.577   7.170 -0.6986 -2.6750 -1.6603
46396SOL     OW42464   3.360  11.287   1.606  0.0017 -0.8994  0.2619
46396SOL    HW142465   3.450  11.303   1.635 -0.5328  1.4642  0.8410
46396SOL    HW242466   3.315  11.255   1.684  0.1272 -1.2112  0.2078
46397SOL     OW42467   4.454   4.104   7.356 -0.1030  0.3848 -0.2124
46397SOL    HW142468   4.393   4.089   7.428  0.5054 -2.3476 -0.1640
46397SOL    HW242469   4.533   4.138   7.398 -0.0925 -0.2462  0.2801
46398SOL     OW42470   7.352   5.321   5.449 -0.5033 -0.0352 -0.4802
46398SOL    HW142471   7.370   5.292   5.539 -0.8076 -2.1263 -1.0415
46398SOL    HW242472   7.298   5.252   5.412 -1.0487  1.1822 -2.0497
46399SOL     OW42473   2.208   9.748  11.236  0.0006  0.1405 -0.6762
46399SOL    HW142474   2.204   9.658  11.202  1.6531  0.7300 -2.6416
46399SOL    HW242475   2.287   9.784  11.198  0.5715  1.7888  1.8623
46400SOL     OW42476   1.559   8.094   7.952 -0.5572  0.4513  0.1795
46400SOL    HW142477   1.629   8.156   7.930  0.3864 -0.7664 -0.3803
46400SOL    HW242478   1.570   8.079   8.046  1.7368 -1.7716 -0.3402
46401SOL     OW42479   4.318   8.880   3.011 -0.5382  0.8257  0.2989
46401SOL    HW142480   4.404   8.846   2.985  0.0134  1.9236  0.6295
46401SOL    HW242481   4.256   8.811   2.985  0.4982 -0.2651  0.6403
46402SOL     OW42482   3.109   0.522   1.086 -0.4240 -0.3130  0.0255
46402SOL    HW142483   3.082   0.481   1.168 -1.1479 -0.8568 -0.4751
46402SOL    HW242484   3.179   0.465   1.053 -0.5199 -0.4090 -0.0131
46403SOL     OW42485   3.281  11.350   1.065 -0.4341  0.1890 -0.0475
46403SOL    HW142486   3.280  11.360   1.160 -0.2554 -2.2786  0.2668
46403SOL    HW242487   3.357  11.400   1.036 -0.1959  0.5376  1.1500
46404SOL     OW42488   4.666   8.754   8.263  0.3930  0.6126 -0.0458
46404SOL    HW142489   4.743   8.698   8.265 -0.3697 -0.4780 -0.2197
46404SOL    HW242490   4.613   8.726   8.337 -0.7206  0.0171 -1.0335
46405SOL     OW42491   3.708   1.584   3.026 -0.3516 -0.0882  0.2305
46405SOL    HW142492   3.720   1.676   3.047 -2.9365  0.3402  0.0888
46405SOL    HW242493   3.616   1.576   3.003  0.2818 -2.2823 -2.0016
46406SOL     OW42494   3.451   7.175   6.249  0.1588 -0.8773 -0.3487
46406SOL    HW142495   3.425   7.246   6.190 -0.3200 -1.5998 -1.0331
46406SOL    HW242496   3.411   7.097   6.211  1.9505 -1.7763 -0.4879
46407SOL     OW42497   0.546  10.858   5.016  0.5715 -0.3766  0.1966
46407SOL    HW142498   0.572  10.922   5.082  1.9048 -0.5209 -0.1450
46407SOL    HW242499   0.564  10.901   4.933  0.8955 -0.9558 -0.0392
46408SOL     OW42500   0.266   2.404   5.689  0.8769 -0.1803 -0.8111
46408SOL    HW142501   0.304   2.317   5.682 -1.3291 -1.1957 -1.1715
46408SOL    HW242502   0.274   2.442   5.601  2.0754  0.1190 -0.5887
46409SOL     OW42503   3.121  10.472   6.588  0.2537 -0.2828 -0.2321
46409SOL    HW142504   3.081  10.497   6.505 -0.2910  1.8828  0.6156
46409SOL    HW242505   3.214  10.490   6.576  0.1783  0.0103 -0.4048
46410SOL     OW42506   1.161   1.641   5.765 -0.0012  0.8522 -0.2733
46410SOL    HW142507   1.206   1.676   5.688 -0.2371  0.8047 -0.4343
46410SOL    HW242508   1.110   1.715   5.798  0.7114  1.0978  0.3045
46411SOL     OW42509   3.343   5.612   3.148 -0.1587  0.6232 -0.4355
46411SOL    HW142510   3.414   5.660   3.107  2.6131 -1.3850  1.6496
46411SOL    HW242511   3.311   5.671   3.217 -0.1777  1.3286 -1.0340
46412SOL     OW42512  11.222  10.464   8.576  0.1342 -0.4427 -0.5896
46412SOL    HW142513  11.198  10.384   8.622 -0.8146  0.2017  0.0758
46412SOL    HW242514  11.256  10.522   8.644 -1.3750  0.5528 -0.6372
46413SOL     OW42515   6.090  10.456   6.335  0.0305 -0.0709 -0.1973
46413SOL    HW142516   6.010  10.499   6.362 -0.5220 -0.6897 -0.8113
46413SOL    HW242517   6.062  10.387   6.275  0.9109 -1.1062  0.5324
46414SOL     OW42518   6.136   7.010   0.304 -1.1197 -0.3322  0.0963
46414SOL    HW142519   6.220   7.056   0.311 -1.4179  0.2771 -0.2534
46414SOL    HW242520   6.123   6.970   0.390  0.5584 -2.2582 -0.4601
46415SOL     OW42521  10.364   5.731   2.375 -0.3496 -0.3253  0.4568
46415SOL    HW142522  10.276   5.766   2.359  0.7585  1.9944 -1.2462
46415SOL    HW242523  10.356   5.637   2.363 -2.9492 -0.4466  2.3222
46416SOL     OW42524   3.935   8.018  10.912  0.1077  0.3835  0.0462
46416SOL    HW142525   3.868   8.021  10.844  1.6194  1.9631 -1.4822
46416SOL    HW242526   3.973   7.930  10.904 -1.2940 -0.2778  0.4731
46417SOL     OW42527   1.503  10.872   8.612 -0.2802  0.2106  0.5532
46417SOL    HW142528   1.468  10.952   8.574  1.1267 -0.1185 -1.6179
46417SOL    HW242529   1.483  10.804   8.547  0.2738 -0.8151  1.4287
46418SOL     OW42530   9.341   6.836   5.588 -0.6595 -0.2236  0.6280
46418SOL    HW142531   9.246   6.840   5.585 -0.6610 -0.6946 -0.0174
46418SOL    HW242532   9.364   6.758   5.537  0.0772  0.0094  0.5901
46419SOL     OW42533   0.992  11.317   8.699  0.4956 -0.6423 -0.4037
46419SOL    HW142534   0.941  11.363   8.766  0.2616  1.1792 -1.7776
46419SOL    HW242535   1.076  11.363   8.697  1.3341 -2.0622  0.1024
46420SOL     OW42536   1.785   9.086   4.071 -0.4839 -0.0738  0.7459
46420SOL    HW142537   1.776   9.182   4.075 -0.3651 -0.0064 -0.4339
46420SOL    HW242538   1.798   9.060   4.162  0.6874  1.1545  0.9620
46421SOL     OW42539   0.881   1.012   9.739  0.2382 -0.6447  0.0067
46421SOL    HW142540   0.827   1.029   9.662 -2.1162  0.9315  1.8607
46421SOL    HW242541   0.856   0.923   9.766 -0.4659 -0.4314  0.0839
46422SOL     OW42542   8.721   9.278   8.470  1.2196  0.6186  0.3235
46422SOL    HW142543   8.798   9.226   8.493  0.5121  0.3117  2.1349
46422SOL    HW242544   8.704   9.333   8.546 -0.7034  0.2315  0.2427
46423SOL     OW42545   8.652   1.947   5.766 -0.1302 -0.4442 -0.1422
46423SOL    HW142546   8.643   1.936   5.861  0.6734  1.7482  0.2323
46423SOL    HW242547   8.740   1.916   5.747 -0.2553 -0.7894 -0.1694
46424SOL     OW42548  11.280   4.742  10.967  0.0733 -0.5696 -0.3313
46424SOL    HW142549  11.223   4.762  11.041  1.7840 -0.8720  1.1260
46424SOL    HW242550  11.234   4.673  10.919 -1.0826 -0.3467  0.4130
46425SOL     OW42551  10.179   7.651   1.593 -0.4201 -0.4462 -0.7716
46425SOL    HW142552  10.274   7.647   1.605 -0.5409  0.9479  1.1695
46425SOL    HW242553  10.163   7.736   1.552 -0.9200  0.1070  0.5186
46426SOL     OW42554   6.992   4.724   2.733 -0.3004  0.0966 -0.0063
46426SOL    HW142555   6.959   4.719   2.644 -0.9146  0.5251  0.1924
46426SOL    HW242556   6.932   4.671   2.785  0.0094 -0.0888  0.1699
46427SOL     OW42557   9.984   6.175   4.098 -0.2467 -0.1145  0.3051
46427SOL    HW142558  10.052   6.170   4.030 -1.0902 -1.1855 -0.4900
46427SOL    HW242559   9.995   6.095   4.149  0.1668  0.5243  1.2628
46428SOL     OW42560   5.660   3.746   7.879  0.1259  0.1920 -0.0746
46428SOL    HW142561   5.751   3.726   7.859 -0.4540 -1.1812 -1.5158
46428SOL    HW242562   5.630   3.671   7.931 -0.3412  0.3848 -0.0598
46429SOL     OW42563   8.679   1.585   1.990  0.1605 -0.1953  0.2140
46429SOL    HW142564   8.675   1.635   2.072  0.7844 -1.1859  0.8650
46429SOL    HW242565   8.771   1.559   1.982  0.5088  1.3321 -1.7111
46430SOL     OW42566  10.946   6.856  10.405 -0.5997 -0.2439  0.2682
46430SOL    HW142567  11.031   6.866  10.448 -1.6916  2.2834  2.0872
46430SOL    HW242568  10.917   6.767  10.429  0.8138 -0.5477  0.9526
46431SOL     OW42569  10.543   5.242   4.496 -0.2781 -0.0664 -0.3093
46431SOL    HW142570  10.627   5.273   4.461 -0.5319  1.2383  0.1662
46431SOL    HW242571  10.497   5.322   4.522 -1.6982 -0.7551 -0.6001
46432SOL     OW42572   1.284   8.219   5.796 -0.8726 -0.8366 -0.0026
46432SOL    HW142573   1.377   8.200   5.800 -0.9143 -0.8650  1.4154
46432SOL    HW242574   1.278   8.314   5.811 -1.0781 -0.8781  0.1928
46433SOL     OW42575  10.416   1.599   8.117 -0.2938 -0.0198 -0.3425
46433SOL    HW142576  10.471   1.677   8.126 -0.0185 -0.3321  0.8015
46433SOL    HW242577  10.397   1.572   8.207  0.5656 -1.9580 -0.6971
46434SOL     OW42578   1.066   7.300   3.079 -0.7548 -0.2872 -0.7445
46434SOL    HW142579   1.054   7.389   3.047  1.3830 -0.0122 -0.9722
46434SOL    HW242580   0.978   7.263   3.084 -1.6597  1.7504 -0.8713
46435SOL     OW42581   2.484   8.692   2.685  0.2255 -0.2549  0.8366
46435SOL    HW142582   2.516   8.783   2.689 -1.0355  0.2749 -0.3259
46435SOL    HW242583   2.525   8.649   2.760  2.3097  0.7923  0.3792
46436SOL     OW42584   2.522   6.454   3.856 -0.3736 -0.2858 -0.1549
46436SOL    HW142585   2.492   6.382   3.800 -0.5501 -0.7938  0.5752
46436SOL    HW242586   2.558   6.518   3.795  2.2493 -2.1142 -0.6891
46437SOL     OW42587   5.577   6.715   4.239  0.4423 -0.5242  0.4545
46437SOL    HW142588   5.620   6.739   4.157  0.4676  0.4910  0.7410
46437SOL    HW242589   5.541   6.798   4.272  0.5659 -0.8815  1.5341
46438SOL     OW42590   3.220   3.996   8.246  0.0631  0.0380  0.0384
46438SOL    HW142591   3.165   3.955   8.178 -0.2233  0.4939 -0.0095
46438SOL    HW242592   3.170   4.073   8.273  0.1566 -0.1622  0.8040
46439SOL     OW42593   5.801   9.642   8.452 -0.0390  0.4875  0.0530
46439SOL    HW142594   5.749   9.712   8.491  0.8025  2.2697 -1.8794
46439SOL    HW242595   5.736   9.582   8.414 -0.7321  0.9646  0.4782
46440SOL     OW42596  11.397   4.573   4.254 -0.2121 -0.6244  0.1760
46440SOL    HW142597  11.486   4.578   4.290  0.0560 -1.4897 -0.3334
46440SOL    HW242598  11.395   4.490   4.206 -0.8323  0.0860 -1.0774
46441SOL     OW42599   4.293   6.232  11.354 -0.2401 -0.4509 -0.2255
46441SOL    HW142600   4.267   6.311  11.402 -0.6889 -1.0843  0.6006
46441SOL    HW242601   4.249   6.160  11.400 -1.1961 -1.0424 -1.9490
46442SOL     OW42602   5.126   5.600   3.175 -0.7040  0.1536 -0.0701
46442SOL    HW142603   5.040   5.598   3.217 -0.9512 -1.4119 -0.5677
46442SOL    HW242604   5.187   5.617   3.246 -1.1588 -1.9470  0.9158
46443SOL     OW42605   2.273   4.416   9.630 -0.1424 -0.2319 -0.0442
46443SOL    HW142606   2.298   4.477   9.699  0.1342  0.0744 -0.4124
46443SOL    HW242607   2.185   4.386   9.655  0.1589 -0.5189  0.7080
46444SOL     OW42608  11.395   8.454   8.702 -0.2348  0.6275  0.5458
46444SOL    HW142609  11.317   8.404   8.681 -0.9431  2.1781 -0.6964
46444SOL    HW242610  11.449   8.449   8.624  0.0725  1.0817  0.7222
46445SOL     OW42611   0.494   3.678   7.343 -0.2366  0.1047 -0.0834
46445SOL    HW142612   0.414   3.631   7.321  0.6366 -1.3506 -0.2529
46445SOL    HW242613   0.527   3.634   7.421  0.3771  0.7237  0.0164
46446SOL     OW42614   3.910   2.918   1.429 -0.4412 -0.4041 -0.0892
46446SOL    HW142615   3.980   2.862   1.463  0.4732 -0.5758 -2.0939
46446SOL    HW242616   3.873   2.961   1.506  0.6487 -1.7046  1.2052
46447SOL     OW42617   0.904   0.854   9.160 -0.2973  0.2834  0.0730
46447SOL    HW142618   0.988   0.900   9.168  0.2735 -0.6349 -0.3753
46447SOL    HW242619   0.892   0.811   9.245 -1.0634  1.5973  0.6586
46448SOL     OW42620   6.624   7.118   9.070  0.4542 -0.1009  0.2618
46448SOL    HW142621   6.553   7.182   9.075  1.0222  0.5814 -0.1992
46448SOL    HW242622   6.674   7.132   9.151  0.5789  0.0466  0.1602
46449SOL     OW42623   1.804   4.683  11.011  0.2369  0.2668  0.3103
46449SOL    HW142624   1.817   4.698  11.104 -0.6143  0.0250  0.4775
46449SOL    HW242625   1.712   4.656  11.003  0.6727 -1.1556 -0.3996
46450SOL     OW42626   8.510   6.219   9.670 -0.2101  0.3586  0.7600
46450SOL    HW142627   8.462   6.186   9.593 -3.3134  1.7157  1.9654
46450SOL    HW242628   8.505   6.314   9.662  2.5401  0.5787  0.9018
46451SOL     OW42629  10.863   7.602   6.794 -0.0078  0.1358  0.2395
46451SOL    HW142630  10.889   7.664   6.862  0.0248 -0.3422  0.6694
46451SOL    HW242631  10.817   7.532   6.841 -2.6154  1.1981 -0.5266
46452SOL     OW42632   5.343   3.351  10.150  0.2078  0.0156  1.1209
46452SOL    HW142633   5.412   3.317  10.207  0.9518  1.4133  1.0914
46452SOL    HW242634   5.261   3.325  10.193  0.7495 -0.5305  1.8445
46453SOL     OW42635   3.491   4.626  11.046  0.2408  0.1301 -0.1435
46453SOL    HW142636   3.532   4.698  10.998 -2.2050  0.5016 -1.8726
46453SOL    HW242637   3.533   4.547  11.011  2.0106  0.5781  0.8270
46454SOL     OW42638   4.351   1.005   3.858  0.9578 -0.1261 -0.3103
46454SOL    HW142639   4.365   0.918   3.897  0.7695 -0.0338 -0.0296
46454SOL    HW242640   4.313   1.057   3.930  1.7243  0.3857 -0.2676
46455SOL     OW42641   2.857   2.337   1.643 -0.1256 -0.4101 -0.0625
46455SOL    HW142642   2.789   2.304   1.585 -0.4945  2.5481 -1.5011
46455SOL    HW242643   2.897   2.410   1.595  1.3899  0.4599  2.3154
46456SOL     OW42644   1.245   7.293   5.239  0.3186  0.4458  0.1726
46456SOL    HW142645   1.286   7.330   5.316  1.0804 -2.6673  1.4204
46456SOL    HW242646   1.153   7.320   5.245  0.4041  0.4357  2.0714
46457SOL     OW42647   5.851   2.831   7.956 -0.0041  0.8962 -0.1887
46457SOL    HW142648   5.812   2.748   7.983  1.5785 -0.8405 -2.7568
46457SOL    HW242649   5.780   2.894   7.962 -0.9898 -0.3317  2.8991
46458SOL     OW42650   5.843   5.344   9.793 -0.3656  0.4238 -0.1712
46458SOL    HW142651   5.866   5.282   9.863  0.4045  0.4375 -0.3992
46458SOL    HW242652   5.851   5.430   9.834 -0.9347  0.3913  0.0072
46459SOL     OW42653   7.669   1.477   0.348  0.2525  0.2584  0.5290
46459SOL    HW142654   7.719   1.434   0.279 -0.6893 -0.4859  0.2799
46459SOL    HW242655   7.652   1.407   0.412  1.7807  1.0996  1.9440
46460SOL     OW42656   0.329   7.236   2.203  0.2807 -0.3242 -0.2759
46460SOL    HW142657   0.389   7.206   2.272  0.0704  0.3908  0.2277
46460SOL    HW242658   0.271   7.298   2.247 -0.8160 -0.9723 -0.7597
46461SOL     OW42659   5.119   6.547   6.613  0.0080 -0.0783  0.3030
46461SOL    HW142660   5.180   6.493   6.665  2.9689 -0.9849 -3.6513
46461SOL    HW242661   5.165   6.630   6.600 -0.4056 -0.0551 -1.2056
46462SOL     OW42662   0.880   8.083   7.798  0.0796 -0.1839 -0.3191
46462SOL    HW142663   0.874   8.081   7.894  1.0564  0.9569 -0.2034
46462SOL    HW242664   0.834   8.163   7.773  0.3624 -0.1459 -0.7377
46463SOL     OW42665   4.981   6.685   0.196 -0.0923 -0.0270  0.0028
46463SOL    HW142666   4.902   6.671   0.144  0.8548 -1.5721 -1.1085
46463SOL    HW242667   5.019   6.765   0.161 -0.2585 -0.2373 -0.6726
46464SOL     OW42668   2.363   9.320   5.170  0.0374 -0.5086  0.0680
46464SOL    HW142669   2.357   9.413   5.191 -0.2710 -0.6496  0.6150
46464SOL    HW242670   2.274   9.286   5.184 -0.1120 -0.6774 -1.1585
46465SOL     OW42671   2.630   0.570   2.664  0.2486  0.7008 -0.3473
46465SOL    HW142672   2.550   0.561   2.613 -0.4989 -1.5652  1.0437
46465SOL    HW242673   2.693   0.514   2.620  0.5424  1.1219 -0.4677
46466SOL     OW42674  10.013   5.291   6.827 -0.5285 -0.3215  0.4522
46466SOL    HW142675  10.004   5.383   6.851 -2.9212 -0.2963 -0.2948
46466SOL    HW242676   9.995   5.290   6.732  3.3697 -1.0972 -0.4443
46467SOL     OW42677   4.177   1.853   8.622  0.5726 -0.5523  0.3095
46467SOL    HW142678   4.146   1.943   8.631  0.5495 -0.4263 -0.9624
46467SOL    HW242679   4.258   1.851   8.673  0.1144 -0.0638  1.0828
46468SOL     OW42680   0.089   2.810   9.379  0.4402  0.6979 -0.0158
46468SOL    HW142681   0.104   2.739   9.317  1.3365  0.1530  0.8016
46468SOL    HW242682  -0.006   2.809   9.394  0.4779 -0.5481  0.2282
46469SOL     OW42683   9.048   6.158  10.866  0.3546  0.2329 -0.0156
46469SOL    HW142684   9.099   6.110  10.931  0.9234  0.2412 -0.4462
46469SOL    HW242685   9.080   6.125  10.781  2.0840  2.6140 -0.3986
46470SOL     OW42686  11.113   3.446   5.841  0.8973  0.5141  0.0907
46470SOL    HW142687  11.117   3.488   5.927  1.2470  1.7134 -0.4960
46470SOL    HW242688  11.033   3.394   5.844  0.1479  1.6627  0.6485
46471SOL     OW42689   8.748   6.986   5.846  0.0243 -0.0936  0.4068
46471SOL    HW142690   8.667   7.025   5.880 -0.0189 -0.3559  0.6060
46471SOL    HW242691   8.790   7.057   5.798  0.0005  0.2259  0.8594
46472SOL     OW42692   9.233   4.862   3.149 -0.4050  0.3725 -0.0837
46472SOL    HW142693   9.164   4.891   3.090 -2.4549 -1.6323  1.1405
46472SOL    HW242694   9.305   4.835   3.092 -1.3011  0.8962 -1.4989
46473SOL     OW42695   8.779   8.872   3.769 -0.0639 -0.1837  0.1003
46473SOL    HW142696   8.732   8.952   3.791 -0.1938  0.4237 -2.1598
46473SOL    HW242697   8.715   8.802   3.783  0.5790 -0.2428  3.8926
46474SOL     OW42698  11.276   5.295   3.824 -0.2196  0.2758 -0.2677
46474SOL    HW142699  11.279   5.290   3.920 -1.2731  1.6565 -0.1269
46474SOL    HW242700  11.233   5.214   3.798  0.1822 -0.1735  0.4039
46475SOL     OW42701   3.845   4.059   7.637 -0.4565  0.5071  0.1079
46475SOL    HW142702   3.833   4.149   7.606 -0.1765  0.1874 -0.9439
46475SOL    HW242703   3.905   4.020   7.575  0.4597 -0.0412  1.2923
46476SOL     OW42704   9.261  10.182   6.599  0.1288  0.1685 -0.5500
46476SOL    HW142705   9.280  10.108   6.657 -2.2703  0.4468  0.7259
46476SOL    HW242706   9.303  10.159   6.516 -0.1504 -2.4172 -0.0562
46477SOL     OW42707   1.089   0.752   4.589  0.3366  0.4334 -0.6528
46477SOL    HW142708   1.110   0.796   4.671  0.9697  0.5788 -0.8844
46477SOL    HW242709   0.996   0.732   4.596  0.6828 -0.8632  0.7084
46478SOL     OW42710   3.742   8.582   1.549 -0.0403 -0.5179  0.1789
46478SOL    HW142711   3.718   8.616   1.463  0.2774  1.3819  0.8104
46478SOL    HW242712   3.822   8.629   1.572 -1.4865  0.9604  2.5915
46479SOL     OW42713   7.935   2.438   6.849 -0.1764 -0.4951  0.2005
46479SOL    HW142714   7.915   2.346   6.834  0.1278 -0.5058 -0.1590
46479SOL    HW242715   7.910   2.482   6.768 -0.2368 -0.2759  0.3374
46480SOL     OW42716   5.194   4.525   0.942  0.3036 -0.1180  0.3765
46480SOL    HW142717   5.129   4.463   0.976  0.1046  0.2383  0.6508
46480SOL    HW242718   5.263   4.469   0.906 -0.7488 -0.5159 -1.1133
46481SOL     OW42719   3.100   5.366  11.006 -0.0188 -0.0272 -0.2060
46481SOL    HW142720   3.006   5.366  10.987  0.1460  2.3018 -1.3735
46481SOL    HW242721   3.106   5.394  11.098 -0.4741  2.3452 -0.8210
46482SOL     OW42722   0.667  10.771   7.733  0.1422 -0.4994  0.5586
46482SOL    HW142723   0.586  10.817   7.756 -1.6739 -3.5645  0.8507
46482SOL    HW242724   0.703  10.823   7.661 -2.5735  0.5425 -0.2059
46483SOL     OW42725   2.125  10.488  10.991  0.1724  0.7092  0.2792
46483SOL    HW142726   2.040  10.521  10.962 -2.1043 -0.2195  4.8468
46483SOL    HW242727   2.131  10.400  10.955 -1.4940  0.3336  0.8260
46484SOL     OW42728   3.435  10.993   1.344  0.2512  0.3868  0.0036
46484SOL    HW142729   3.346  10.985   1.379  0.2539  0.0706 -0.0621
46484SOL    HW242730   3.489  11.017   1.420  0.6423 -2.4579  0.7232
46485SOL     OW42731   6.117   1.503   7.063 -0.2023 -0.2977 -0.8819
46485SOL    HW142732   6.097   1.585   7.018  0.7213 -0.0066 -0.7808
46485SOL    HW242733   6.145   1.444   6.993  0.7541  0.0047 -0.7829
46486SOL     OW42734   6.784   6.999   5.591 -1.1185  0.4731  0.2399
46486SOL    HW142735   6.736   6.986   5.510 -0.5193  0.5708 -0.1334
46486SOL    HW242736   6.870   7.033   5.564 -0.0558 -1.6287  0.7429
46487SOL     OW42737   9.353   1.030  11.250  0.1238 -0.0434  0.3262
46487SOL    HW142738   9.360   0.951  11.305 -1.4032  0.1001  0.7496
46487SOL    HW242739   9.397   1.098  11.301  0.2849 -0.3110  0.5515
46488SOL     OW42740   4.743   2.997  11.162  0.0898  0.0126  0.2669
46488SOL    HW142741   4.724   2.950  11.243  1.4677  1.6052  1.5742
46488SOL    HW242742   4.678   3.067  11.159 -0.8596 -0.8650 -0.7876
46489SOL     OW42743   5.141   8.623   3.854 -0.3360  0.1953  0.0761
46489SOL    HW142744   5.202   8.696   3.844 -0.3988  0.2123 -0.1909
46489SOL    HW242745   5.059   8.656   3.819 -0.6415  0.3543  0.9300
46490SOL     OW42746   4.867   3.721   2.712  0.0045 -0.4530  0.0298
46490SOL    HW142747   4.816   3.732   2.792 -0.1319 -1.3647  0.0763
46490SOL    HW242748   4.874   3.626   2.700 -1.1728 -0.3491 -1.8142
46491SOL     OW42749   5.617   2.618   3.397 -0.2703 -0.0994 -0.0215
46491SOL    HW142750   5.600   2.691   3.456  0.8033 -0.3443  0.6207
46491SOL    HW242751   5.633   2.544   3.456  2.0215 -0.0851 -0.5611
46492SOL     OW42752   9.605   5.423  10.859 -0.4007  0.0238 -0.0001
46492SOL    HW142753   9.562   5.410  10.774  2.1194 -0.5900 -1.2845
46492SOL    HW242754   9.635   5.336  10.884 -0.9899  0.2285  1.5167
46493SOL     OW42755   8.264   4.975  10.893 -0.5321  0.0334 -0.2420
46493SOL    HW142756   8.240   4.942  10.806 -0.1630  0.9275 -0.6940
46493SOL    HW242757   8.181   4.984  10.939 -0.7171 -0.6163 -0.4372
46494SOL     OW42758   8.051   1.798   4.312 -0.1186 -0.2655 -0.1043
46494SOL    HW142759   8.096   1.878   4.286 -0.2594 -0.4915 -1.0930
46494SOL    HW242760   8.087   1.730   4.254 -0.3582 -0.8198  0.3808
46495SOL     OW42761   4.733   3.457   1.280  0.5015 -0.1582  0.1788
46495SOL    HW142762   4.699   3.376   1.318  0.9958  0.0147  1.0034
46495SOL    HW242763   4.823   3.463   1.310  0.3699  0.8726  0.4131
46496SOL     OW42764   9.945   6.325   1.291 -0.2413 -0.2640  0.5976
46496SOL    HW142765   9.941   6.232   1.267 -0.0375 -0.0936 -0.1444
46496SOL    HW242766  10.015   6.360   1.235 -3.1313  1.2674 -2.3996
46497SOL     OW42767  10.809  11.212   4.149  0.7390 -0.0299  0.5174
46497SOL    HW142768  10.896  11.174   4.136  0.5091 -0.5015  0.3332
46497SOL    HW242769  10.765  11.152   4.209  0.6278  0.3468  0.8215
46498SOL     OW42770   2.374   9.460   2.119  0.3536  0.2190  0.0307
46498SOL    HW142771   2.307   9.452   2.051 -0.0796  0.1434  0.4620
46498SOL    HW242772   2.377   9.374   2.160 -0.9651  0.8404  1.5605
46499SOL     OW42773   0.727   2.351  10.183  0.2820 -0.2374 -0.3373
46499SOL    HW142774   0.681   2.267  10.174 -0.6232  0.3238 -1.1487
46499SOL    HW242775   0.767   2.365  10.097  0.5550  0.0940 -0.1550
46500SOL     OW42776  10.064   1.006   8.810  0.1101 -0.0928 -0.4763
46500SOL    HW142777  10.020   1.046   8.885 -1.6250 -0.9799 -0.9547
46500SOL    HW242778  10.120   0.939   8.849  0.8104  0.8103  0.1297
46501SOL     OW42779   9.600   5.342   0.678 -0.0259  0.3144  0.1154
46501SOL    HW142780   9.525   5.402   0.677  0.4691  1.0004 -2.4419
46501SOL    HW242781   9.578   5.278   0.746 -2.3753  1.1649  0.2631
46502SOL     OW42782   0.814   4.245   2.309 -0.7892 -0.3064  0.3367
46502SOL    HW142783   0.892   4.276   2.263 -1.5436  2.9460  1.0288
46502SOL    HW242784   0.849   4.199   2.385  0.4950  1.3114  0.7807
46503SOL     OW42785   0.773   6.942   6.729 -0.1043  0.0008 -0.9026
46503SOL    HW142786   0.718   6.881   6.778 -0.5953  1.3380  0.2674
46503SOL    HW242787   0.837   6.974   6.793 -0.3028  1.2365 -1.3048
46504SOL     OW42788  10.562  10.695   3.525  0.1941  0.4035  0.1675
46504SOL    HW142789  10.622  10.622   3.534  2.2506  2.1693  1.6918
46504SOL    HW242790  10.595  10.744   3.449  0.2813  0.9983  0.5815
46505SOL     OW42791   0.368   7.388   7.898 -0.5416 -0.1362  0.1900
46505SOL    HW142792   0.403   7.460   7.950 -2.1465  1.1337 -0.4094
46505SOL    HW242793   0.354   7.318   7.962  3.4890 -1.0038  0.3899
46506SOL     OW42794   1.541   2.520   7.933 -0.4315  0.1463 -0.1814
46506SOL    HW142795   1.569   2.607   7.905  0.7416  0.4258  1.6837
46506SOL    HW242796   1.622   2.471   7.943 -0.9760 -0.6899  0.2515
46507SOL     OW42797   4.284   8.964  10.296 -0.8692 -0.4566 -0.1953
46507SOL    HW142798   4.367   8.993  10.334 -0.6343 -0.8887 -0.3774
46507SOL    HW242799   4.238   9.045  10.275 -1.5874 -0.1674  2.2308
46508SOL     OW42800   8.281   5.287   7.367 -0.3566  0.6681 -0.7833
46508SOL    HW142801   8.229   5.240   7.301 -1.5129  1.0405 -0.1587
46508SOL    HW242802   8.217   5.315   7.432 -0.1204  4.8956 -2.1135
46509SOL     OW42803   2.391   4.928   8.268 -0.3623  0.4479 -0.2777
46509SOL    HW142804   2.400   4.994   8.336  0.5513  0.3662 -0.3016
46509SOL    HW242805   2.458   4.951   8.203 -0.2310 -0.3255 -0.4272
46510SOL     OW42806   0.176   3.768   3.025 -0.1128 -0.0215 -0.7591
46510SOL    HW142807   0.087   3.803   3.023  0.1029  0.6440  0.4393
46510SOL    HW242808   0.167   3.677   2.996 -1.1676  0.0640 -0.7148
46511SOL     OW42809   4.239   5.597   9.163 -0.5226  0.2760  0.1415
46511SOL    HW142810   4.187   5.677   9.149  0.7516  1.0422 -0.3900
46511SOL    HW242811   4.276   5.609   9.251  0.8233  0.9855 -0.4896
46512SOL     OW42812   8.686   9.719   2.295  0.4848 -0.3245  0.1054
46512SOL    HW142813   8.682   9.635   2.340  0.1884 -0.8917 -0.9337
46512SOL    HW242814   8.747   9.771   2.346 -1.0177 -0.3741  2.0381
46513SOL     OW42815   2.524   9.104   5.556  0.2704  0.0922 -0.9298
46513SOL    HW142816   2.431   9.084   5.541  0.6491 -1.4640 -1.4338
46513SOL    HW242817   2.566   9.018   5.560  1.9718  0.7998 -2.5527
46514SOL     OW42818   6.126   7.645   5.909  0.3393  0.7870 -0.3388
46514SOL    HW142819   6.165   7.727   5.878 -0.8502  0.7721 -2.0190
46514SOL    HW242820   6.101   7.663   6.000  0.4703  2.1520 -0.5544
46515SOL     OW42821  10.555   5.861  10.876 -0.5698  0.2998 -0.3650
46515SOL    HW142822  10.524   5.952  10.875 -0.9665  0.1685 -1.2347
46515SOL    HW242823  10.607   5.853  10.796  0.7016  0.1724  0.4629
46516SOL     OW42824  10.697   0.250   0.917  0.3366  0.2233 -0.3942
46516SOL    HW142825  10.666   0.336   0.944  1.8775  1.8074 -3.2151
46516SOL    HW242826  10.780   0.239   0.963  0.8540  0.9713 -1.1059
46517SOL     OW42827   7.420   9.225  11.182  0.6010  0.0040  0.1517
46517SOL    HW142828   7.511   9.244  11.204  0.1914  1.2169  0.9035
46517SOL    HW242829   7.415   9.239  11.087  1.1471  0.1375  0.1405
46518SOL     OW42830   2.866   8.371   0.873  0.4585 -0.7977 -0.2703
46518SOL    HW142831   2.814   8.339   0.947  0.2762 -1.2520 -0.5851
46518SOL    HW242832   2.957   8.356   0.899  0.5507  1.3932  0.9292
46519SOL     OW42833   1.641  10.634   3.194 -0.3230  0.0500 -0.3670
46519SOL    HW142834   1.591  10.612   3.115 -1.2910 -0.1906  0.2915
46519SOL    HW242835   1.580  10.617   3.266  0.9029 -0.8300  0.5067
46520SOL     OW42836   7.524   4.721   7.084 -0.2766 -0.1198 -0.2321
46520SOL    HW142837   7.466   4.645   7.091 -1.2598  0.6585  0.3722
46520SOL    HW242838   7.499   4.763   7.003  1.2648 -1.1882 -1.3416
46521SOL     OW42839   9.891  10.468   9.523 -0.1875 -0.4735  0.5859
46521SOL    HW142840   9.934  10.472   9.608  1.0834 -2.3283  0.0969
46521SOL    HW242841   9.919  10.547   9.477  3.1685 -1.7784  0.1325
46522SOL     OW42842   7.169   9.927   2.591  0.4022  0.4296 -0.2039
46522SOL    HW142843   7.119   9.937   2.672 -0.7946  1.0496 -0.9838
46522SOL    HW242844   7.117   9.865   2.539  0.1487  1.4509 -1.2217
46523SOL     OW42845   5.721   5.968   4.377  0.2127  0.0555 -0.0805
46523SOL    HW142846   5.696   5.888   4.333  0.6223 -0.6112  0.8603
46523SOL    HW242847   5.714   6.036   4.310 -1.0617 -0.6014 -0.6389
46524SOL     OW42848   3.193   2.718   8.839  0.3207  0.3208  0.3905
46524SOL    HW142849   3.156   2.684   8.920 -3.2493 -1.3917 -1.6864
46524SOL    HW242850   3.208   2.640   8.785  1.3122  1.4673 -1.0907
46525SOL     OW42851   5.224   4.985   9.134 -0.0517 -0.0346  0.3326
46525SOL    HW142852   5.174   5.057   9.171 -0.1793  0.2600 -0.4037
46525SOL    HW242853   5.162   4.938   9.077  0.4742  0.3072 -0.5474
46526SOL     OW42854   1.524   4.014   4.927  0.1074  0.1672  0.2166
46526SOL    HW142855   1.467   4.039   4.855  1.7881 -0.2764 -1.3530
46526SOL    HW242856   1.597   4.076   4.923  0.5809 -0.3052  1.0831
46527SOL     OW42857   5.163   6.475   7.864 -0.5129 -0.5593 -0.0651
46527SOL    HW142858   5.092   6.472   7.928  1.7961 -0.0744  2.7872
46527SOL    HW242859   5.168   6.567   7.837 -0.8967 -0.5733 -0.1772
46528SOL     OW42860   5.106   8.389   0.693 -0.0327 -0.0666  0.2882
46528SOL    HW142861   5.027   8.361   0.739 -0.9532  1.1653 -0.4748
46528SOL    HW242862   5.074   8.442   0.620  1.5111  0.9445  0.2901
46529SOL     OW42863   8.321   0.551   6.302  0.1929 -0.0508  0.0524
46529SOL    HW142864   8.363   0.618   6.356  1.3156 -0.8178  0.1694
46529SOL    HW242865   8.371   0.471   6.320 -2.3933 -1.4856  1.5534
46530SOL     OW42866  11.340   7.516  10.934 -0.6372  0.3375 -0.2436
46530SOL    HW142867  11.302   7.473  10.857 -0.4806  1.1152 -0.7753
46530SOL    HW242868  11.398   7.450  10.973 -2.5462 -0.9009  0.6324
46531SOL     OW42869  11.340   7.812  10.283 -0.0881  0.2375 -0.5124
46531SOL    HW142870  11.317   7.744  10.347  0.2389  0.8472  0.2740
46531SOL    HW242871  11.256   7.850  10.258 -0.1288  1.1681  0.9025
46532SOL     OW42872   4.883   5.246   7.303 -0.2054  0.2133  0.2043
46532SOL    HW142873   4.792   5.236   7.275 -0.5189  0.1988  1.1935
46532SOL    HW242874   4.915   5.156   7.311  0.8729  0.1723 -3.0700
46533SOL     OW42875   5.228   3.798   4.269 -0.0035 -0.3164  0.2998
46533SOL    HW142876   5.218   3.839   4.355 -1.9238  0.4210 -0.2457
46533SOL    HW242877   5.270   3.865   4.215  1.3630 -0.8400  0.6721
46534SOL     OW42878  10.970  10.052   6.633 -0.6332  0.0175  0.4001
46534SOL    HW142879  11.008  10.014   6.712 -1.1152  0.4532  0.8457
46534SOL    HW242880  10.982  10.146   6.643  2.8471  0.0136 -1.8433
46535SOL     OW42881  10.380   8.934   2.956 -0.0413 -0.6058 -0.0547
46535SOL    HW142882  10.287   8.932   2.932  0.1026  0.7998 -0.8017
46535SOL    HW242883  10.407   9.024   2.940  1.0689 -0.5921  1.6944
46536SOL     OW42884   3.008   8.173   5.214 -0.1685  0.2130 -0.5363
46536SOL    HW142885   2.938   8.144   5.272 -2.1156  2.5998 -1.5246
46536SOL    HW242886   3.001   8.116   5.138 -0.2524 -0.3188 -0.1360
46537SOL     OW42887   4.977   5.048   5.269 -0.2816 -0.1529  0.2308
46537SOL    HW142888   4.951   5.102   5.194 -0.7784 -0.6216  0.0648
46537SOL    HW242889   4.959   4.958   5.241 -1.5378 -0.2691  1.3252
46538SOL     OW42890  11.137   4.646   4.933  0.2320  0.4999  0.5456
46538SOL    HW142891  11.222   4.687   4.922  0.7344 -0.5922  0.2171
46538SOL    HW242892  11.113   4.666   5.024  0.6716  1.1104  0.5325
46539SOL     OW42893  10.461  10.255   4.521  0.5042 -0.1446  1.0922
46539SOL    HW142894  10.446  10.216   4.607 -2.5426 -1.7495  0.0040
46539SOL    HW242895  10.539  10.210   4.488  0.7551 -0.7006  2.3709
46540SOL     OW42896  10.012   5.753   0.322 -0.2890 -0.3124  0.7248
46540SOL    HW142897   9.971   5.689   0.265 -2.9891  0.8875  1.1682
46540SOL    HW242898   9.964   5.747   0.404  0.5594  1.0597  1.3614
46541SOL     OW42899   2.156   6.589   0.619  0.3742  0.1138  0.1625
46541SOL    HW142900   2.189   6.600   0.529  0.6501 -0.3008  0.2097
46541SOL    HW242901   2.177   6.672   0.662 -0.5931  0.6802 -0.4063
46542SOL     OW42902  10.190   5.872   4.872 -0.1088  0.0176  0.4834
46542SOL    HW142903  10.098   5.884   4.848 -0.2174 -0.4834  0.6401
46542SOL    HW242904  10.190   5.799   4.934  0.3564  0.2391  0.7561
46543SOL     OW42905   2.291   2.298   1.071  0.0302 -0.8277 -0.1592
46543SOL    HW142906   2.216   2.239   1.077  1.2891 -2.3603  1.1209
46543SOL    HW242907   2.360   2.247   1.030  0.2856  0.7307 -1.8206
46544SOL     OW42908   4.865   3.632   5.793  0.3422  0.4827 -0.7333
46544SOL    HW142909   4.827   3.681   5.721  0.6978  0.4298 -0.9593
46544SOL    HW242910   4.918   3.696   5.841 -1.1384  0.9077  0.4234
46545SOL     OW42911   4.345   8.453   9.985 -0.4551  0.7845 -0.2864
46545SOL    HW142912   4.370   8.492   9.901 -0.1849  0.1013 -0.5267
46545SOL    HW242913   4.402   8.496  10.049 -1.1381  1.8215 -0.3373
46546SOL     OW42914  11.094   7.865   8.054  0.3433 -0.1483 -0.1158
46546SOL    HW142915  11.037   7.907   8.119  1.8993  0.6719  0.7894
46546SOL    HW242916  11.068   7.905   7.971  1.5230  2.4507  0.6730
46547SOL     OW42917   3.106   2.058   9.427 -0.1486 -0.0426 -0.4670
46547SOL    HW142918   3.190   2.085   9.462  0.1639 -0.9220 -0.5293
46547SOL    HW242919   3.049   2.134   9.441  0.8357  0.8441 -1.1234
46548SOL     OW42920   4.682   7.045   4.007 -0.0565  0.2107  0.2516
46548SOL    HW142921   4.748   7.059   4.074  0.2194  0.4935 -0.0746
46548SOL    HW242922   4.694   6.954   3.980 -0.9691 -0.2685  1.4345
46549SOL     OW42923   4.396   8.836   6.623  0.7114  0.2650  0.8630
46549SOL    HW142924   4.371   8.924   6.650  1.0140  0.0336  1.9616
46549SOL    HW242925   4.358   8.778   6.690 -1.0753 -0.6381 -0.8231
46550SOL     OW42926   8.996  10.437   7.113 -0.2857 -0.0481  0.2411
46550SOL    HW142927   8.941  10.369   7.073  1.0280 -0.6590 -0.6031
46550SOL    HW242928   8.949  10.518   7.098 -2.4731 -0.8102  2.2588
46551SOL     OW42929   9.358   3.433   2.288  0.5657 -0.3315 -0.6638
46551SOL    HW142930   9.298   3.456   2.359  0.3382  0.7380 -1.1898
46551SOL    HW242931   9.352   3.506   2.226  0.6617 -1.3040 -1.8542
46552SOL     OW42932  11.094   6.383   9.084 -0.4305  0.1632 -0.3312
46552SOL    HW142933  11.038   6.401   9.160 -0.6580  2.1948 -0.9295
46552SOL    HW242934  11.045   6.418   9.010  0.0782 -1.2258 -1.3486
46553SOL     OW42935   8.503   5.850  10.037 -0.5366  0.1697 -0.4491
46553SOL    HW142936   8.577   5.818   9.985 -0.3514 -0.6124  0.2787
46553SOL    HW242937   8.504   5.945  10.023  0.5138  0.1607 -0.5688
46554SOL     OW42938  11.252  10.060  10.575  0.2216 -0.2514 -0.3868
46554SOL    HW142939  11.280  10.011  10.652  0.9097 -0.8457 -1.0051
46554SOL    HW242940  11.248  10.151  10.605  1.8807 -0.2700 -0.0217
46555SOL     OW42941   7.348   5.478   0.984 -0.0518  0.1355  0.2974
46555SOL    HW142942   7.425   5.535   0.989 -0.0799  0.2282 -0.2672
46555SOL    HW242943   7.368   5.405   1.043 -0.7000  1.5103  2.2885
46556SOL     OW42944   4.334   0.053   9.853 -0.7832 -0.4198  0.0158
46556SOL    HW142945   4.293  -0.033   9.849 -3.1404  0.5831  0.7231
46556SOL    HW242946   4.267   0.110   9.890  1.5057  1.2789  1.8586
46557SOL     OW42947   0.983   2.369   3.072 -0.1865  0.0269  0.5552
46557SOL    HW142948   0.955   2.278   3.061  1.2562 -0.5672  1.4090
46557SOL    HW242949   0.903   2.421   3.064 -0.8425 -1.1927 -1.2395
46558SOL     OW42950   0.410   2.438   9.028  0.5172 -0.9707 -0.4268
46558SOL    HW142951   0.479   2.504   9.021 -0.8314  0.8292  1.7250
46558SOL    HW242952   0.432   2.388   9.106 -0.4178 -0.5275  0.1478
46559SOL     OW42953   0.505   3.994   5.776  0.3783  0.0698  0.0809
46559SOL    HW142954   0.555   3.963   5.851  1.2337 -0.4231 -0.6731
46559SOL    HW242955   0.565   3.986   5.702 -0.4985  0.3899 -0.6880
46560SOL     OW42956   1.157   4.021   0.909 -0.4055  0.1072 -0.3417
46560SOL    HW142957   1.218   4.094   0.910  2.1050 -1.7963 -1.8568
46560SOL    HW242958   1.162   3.984   0.998  0.5642  0.0457 -0.4176
46561SOL     OW42959   5.774   9.752  10.657  0.1801  0.2767 -0.4822
46561SOL    HW142960   5.736   9.706  10.732 -0.0101  0.3627 -0.5241
46561SOL    HW242961   5.862   9.715  10.648 -1.2037 -2.9395 -2.9002
46562SOL     OW42962   4.708  10.071  10.532  0.4624  0.1609  0.5850
46562SOL    HW142963   4.673  10.055  10.444 -0.1725  0.2966  0.8069
46562SOL    HW242964   4.755  10.154  10.524 -0.3248  0.6204  0.5665
46563SOL     OW42965   7.489   2.574   3.303  0.1949 -0.5633  0.3954
46563SOL    HW142966   7.443   2.616   3.231  0.5212  0.1313  0.5801
46563SOL    HW242967   7.490   2.481   3.280  0.5161 -0.3221 -0.6168
46564SOL     OW42968   3.761   8.328   6.207  0.5427 -0.0899  0.1420
46564SOL    HW142969   3.753   8.263   6.137  2.1974  0.2528 -0.4070
46564SOL    HW242970   3.815   8.286   6.274 -1.6221 -0.6884  1.6274
46565SOL     OW42971   3.146   5.816   5.239 -0.8744  0.2870 -0.1552
46565SOL    HW142972   3.091   5.749   5.281 -2.6578  0.9671 -1.3045
46565SOL    HW242973   3.101   5.898   5.256  1.3099  1.3099  1.2714
46566SOL     OW42974   5.670   5.164   7.947  0.1632 -0.1497 -0.0910
46566SOL    HW142975   5.741   5.137   8.005 -0.5985  0.5716  1.2008
46566SOL    HW242976   5.629   5.238   7.991 -0.5605  0.3062 -1.4630
46567SOL     OW42977   0.755   4.775   7.746 -0.1848 -0.2652 -0.3340
46567SOL    HW142978   0.813   4.829   7.800  0.7418 -2.8797  1.5284
46567SOL    HW242979   0.695   4.734   7.809 -2.2906  0.2033 -1.9047
46568SOL     OW42980   8.552   6.156  10.261  0.0089 -1.1046 -0.2040
46568SOL    HW142981   8.526   6.078  10.310  1.5735 -1.4781  0.0847
46568SOL    HW242982   8.611   6.204  10.320 -1.5592  0.7622 -0.0600
46569SOL     OW42983   9.606   5.579   4.772 -0.2847  0.1008  0.4823
46569SOL    HW142984   9.630   5.669   4.794  1.1836  0.2360 -1.4160
46569SOL    HW242985   9.575   5.584   4.682  0.7469 -1.4206 -0.0021
46570SOL     OW42986   6.116   0.146   8.890  0.1367  0.4634  0.0781
46570SOL    HW142987   6.200   0.160   8.932  0.6089  1.3252 -1.0829
46570SOL    HW242988   6.097   0.229   8.845  0.4193 -0.8250 -2.6234
46571SOL     OW42989  11.190   8.218   0.402  1.3155  0.4378  0.1707
46571SOL    HW142990  11.242   8.145   0.434  0.0413  0.0306  1.4283
46571SOL    HW242991  11.112   8.218   0.458  0.4726  1.6784 -0.9435
46572SOL     OW42992   5.325   6.101   1.100 -0.0767  0.6340  0.5935
46572SOL    HW142993   5.278   6.017   1.107  0.9863  0.0556  1.1569
46572SOL    HW242994   5.307   6.131   1.011 -1.2339  0.2701  0.6904
46573SOL     OW42995   3.912   2.241   6.163  0.1958 -0.1872 -0.0615
46573SOL    HW142996   3.919   2.322   6.214 -0.8061  0.0135 -0.2017
46573SOL    HW242997   3.903   2.271   6.072  2.8539 -0.5640 -0.5155
46574SOL     OW42998   4.909  10.782   7.643  0.0346 -0.5360 -0.1429
46574SOL    HW142999   4.901  10.864   7.691  0.0279 -0.2203 -0.6806
46574SOL    HW243000   4.969  10.729   7.696 -1.6664 -1.0467  1.3770
46575SOL     OW43001   2.877   6.645   9.440  0.1087  0.3460  0.1112
46575SOL    HW143002   2.909   6.697   9.514 -0.6952  0.0560  0.6738
46575SOL    HW243003   2.928   6.563   9.444 -0.3685  0.0734  0.7268
46576SOL     OW43004   8.550   9.124   5.841 -0.1762 -0.0036  0.0066
46576SOL    HW143005   8.504   9.103   5.760 -1.5624 -1.1027  1.0358
46576SOL    HW243006   8.614   9.053   5.851  0.7416  0.7162 -0.6612
46577SOL     OW43007   0.958  11.247   9.874  0.0312 -0.7210 -0.7074
46577SOL    HW143008   0.955  11.341   9.858 -0.7450 -0.9662 -2.2218
46577SOL    HW243009   1.032  11.216   9.821  0.4356 -0.9394 -0.0283
46578SOL     OW43010   2.735   2.571   7.085 -0.0643 -0.2331  0.3718
46578SOL    HW143011   2.770   2.642   7.138 -1.7736  1.0321 -0.0859
46578SOL    HW243012   2.803   2.554   7.020  0.7996  0.2674  1.1163
46579SOL     OW43013   0.275   4.459   6.961 -0.1827  0.6966 -0.2233
46579SOL    HW143014   0.237   4.482   7.046 -1.5262 -0.8502 -0.3401
46579SOL    HW243015   0.222   4.506   6.897 -4.2152 -3.6081 -0.5990
46580SOL     OW43016   7.293   8.953   8.035  0.0742  0.7968 -0.0718
46580SOL    HW143017   7.352   8.909   7.973 -0.3251 -0.3978  0.3808
46580SOL    HW243018   7.209   8.909   8.024  0.4646 -0.8246  2.6996
46581SOL     OW43019  10.623   5.448   2.558 -0.3299  0.4679  0.0895
46581SOL    HW143020  10.644   5.515   2.623  1.8719  0.1108 -0.1754
46581SOL    HW243021  10.571   5.384   2.605 -1.7309  1.9020  0.5730
46582SOL     OW43022   4.075   2.938   2.622 -0.7202 -0.0860 -0.0836
46582SOL    HW143023   4.162   2.942   2.663 -0.6046 -0.4268 -0.2855
46582SOL    HW243024   4.091   2.893   2.538 -1.3138 -1.4312  0.4864
46583SOL     OW43025   2.241   3.037   0.433 -0.0975  0.8231 -0.5758
46583SOL    HW143026   2.204   2.967   0.487  0.7672  0.2552 -0.7001
46583SOL    HW243027   2.190   3.115   0.456  0.4157  0.6652  1.2788
46584SOL     OW43028   9.402   5.612   7.263 -0.0375  0.1195  0.8041
46584SOL    HW143029   9.422   5.624   7.170  1.0982 -1.1774  0.8584
46584SOL    HW243030   9.335   5.544   7.265 -0.3890  0.4618  0.9312
46585SOL     OW43031   5.979   2.395  10.296  0.1315 -0.1212 -0.5555
46585SOL    HW143032   5.921   2.342  10.350  0.6330 -0.3689 -0.2470
46585SOL    HW243033   5.990   2.346  10.215  1.3743 -0.9838  0.1112
46586SOL     OW43034   3.564   9.126   6.256 -0.7852 -0.0576 -0.1866
46586SOL    HW143035   3.488   9.164   6.301  0.1278  1.1586  0.3862
46586SOL    HW243036   3.624   9.103   6.326 -0.1933 -0.0312 -0.6771
46587SOL     OW43037   3.978   9.284   0.540 -0.4914  0.0068 -0.2426
46587SOL    HW143038   4.017   9.242   0.463  0.9960  0.2504  0.3467
46587SOL    HW243039   4.026   9.366   0.550 -1.9538  0.8830 -0.1444
46588SOL     OW43040   0.086   1.766   6.869  0.5561  0.5577  0.2294
46588SOL    HW143041   0.032   1.843   6.849 -0.3528 -0.2643 -0.6447
46588SOL    HW243042   0.026   1.707   6.914  0.8130 -0.2259 -0.4325
46589SOL     OW43043   9.009   6.267   3.696 -0.8814 -0.0004  0.3285
46589SOL    HW143044   9.060   6.212   3.755  0.1524  0.6644  0.0925
46589SOL    HW243045   9.061   6.269   3.615  0.0806  2.7262  0.9056
46590SOL     OW43046   1.267   8.480   9.948  0.2381  0.1990 -0.1255
46590SOL    HW143047   1.340   8.486  10.011 -0.0121  1.8594  0.0588
46590SOL    HW243048   1.189   8.497  10.001 -0.1171  0.1261 -0.6244
46591SOL     OW43049   6.429   8.483   2.852 -0.7561 -0.3535 -0.4206
46591SOL    HW143050   6.438   8.417   2.921  1.8573 -0.5761 -0.8777
46591SOL    HW243051   6.488   8.553   2.878 -0.6598  0.1157 -1.8044
46592SOL     OW43052   4.347   2.951   9.153 -0.0799  0.8668  0.3006
46592SOL    HW143053   4.412   3.018   9.171  2.1271 -0.2572 -2.5554
46592SOL    HW243054   4.352   2.891   9.228  2.2469  0.8453  0.1974
46593SOL     OW43055   3.713   4.728   3.869 -0.2679 -0.3440  0.7150
46593SOL    HW143056   3.663   4.788   3.926  1.3077  0.9708  0.7969
46593SOL    HW243057   3.671   4.735   3.784 -0.1179  0.9121  0.7277
46594SOL     OW43058   6.894  10.078   9.759 -0.3015 -0.0092 -0.1135
46594SOL    HW143059   6.875  10.169   9.782  0.3818  0.4317 -1.2203
46594SOL    HW243060   6.873  10.071   9.666 -0.6923 -1.0934  0.0326
46595SOL     OW43061   3.041   1.895   4.082 -0.2390 -0.1447 -0.7436
46595SOL    HW143062   3.061   1.817   4.133  2.7102 -0.3201 -1.9554
46595SOL    HW243063   3.104   1.960   4.112 -1.1959  1.0823 -1.2882
46596SOL     OW43064   1.897   0.169   0.668  0.4048 -0.0530 -0.4719
46596SOL    HW143065   1.844   0.243   0.699  1.4765  1.3047 -1.7598
46596SOL    HW243066   1.912   0.116   0.747 -3.6543 -1.1036 -0.1946
46597SOL     OW43067   8.254  11.046   5.811  0.0471 -0.5001  0.7036
46597SOL    HW143068   8.198  10.978   5.774 -2.7859  2.7510 -1.7224
46597SOL    HW243069   8.319  11.064   5.743 -0.8736  0.8820  0.1426
46598SOL     OW43070   0.967   6.750   8.965 -0.5829  0.0019 -0.0223
46598SOL    HW143071   1.041   6.720   9.018  1.5839  3.1362 -1.0386
46598SOL    HW243072   0.993   6.733   8.875 -2.2342 -1.0736 -0.3388
46599SOL     OW43073   3.592   5.363   0.938  0.2552 -0.0386  0.1762
46599SOL    HW143074   3.535   5.395   1.009 -1.0689 -1.6951 -0.0886
46599SOL    HW243075   3.679   5.362   0.977  0.3789  3.4747  0.3137
46600SOL     OW43076   9.345   0.172   4.560 -0.1613 -0.2214 -0.0949
46600SOL    HW143077   9.295   0.197   4.483 -1.6553  0.9839  1.2039
46600SOL    HW243078   9.284   0.121   4.614  0.0046  1.1119  1.4411
46601SOL     OW43079   3.766  11.156  11.213 -0.0592 -0.2132  0.7447
46601SOL    HW143080   3.722  11.088  11.161 -1.1642  0.4038  0.8376
46601SOL    HW243081   3.712  11.234  11.200  0.2487  0.2215  1.9649
46602SOL     OW43082   3.262   3.557   4.092 -0.1117  0.5046  0.1268
46602SOL    HW143083   3.351   3.575   4.125  0.2494 -2.2551  0.8616
46602SOL    HW243084   3.210   3.631   4.125  1.4563  0.9725  1.7408
46603SOL     OW43085   1.766   6.697   3.835  0.0163  0.0881  0.3530
46603SOL    HW143086   1.720   6.623   3.795 -1.2226  1.5406 -1.0705
46603SOL    HW243087   1.753   6.686   3.929 -2.5997 -0.0456  0.0574
46604SOL     OW43088   0.078   4.729   1.756  0.1448 -0.3515  0.6948
46604SOL    HW143089   0.070   4.670   1.830  1.3514 -0.3436  0.8546
46604SOL    HW243090   0.040   4.811   1.787 -0.1548 -0.6039  0.9999
46605SOL     OW43091   9.505   0.429   5.885 -0.1438 -0.3413 -0.0570
46605SOL    HW143092   9.519   0.341   5.918 -0.5593 -1.0174 -1.6044
46605SOL    HW243093   9.588   0.475   5.902  1.4877 -2.1109 -2.4623
46606SOL     OW43094   6.297  10.920   9.934 -0.4462  0.0185 -0.0489
46606SOL    HW143095   6.338  10.844   9.894 -2.0308 -1.0105  0.1980
46606SOL    HW243096   6.314  10.992   9.873  0.4447 -0.6819 -0.6431
46607SOL     OW43097   8.631   4.857   6.563  0.0729  0.0384  0.1266
46607SOL    HW143098   8.550   4.874   6.514  0.4825  0.0271 -0.5724
46607SOL    HW243099   8.602   4.830   6.650 -0.6498  1.5628  0.3895
46608SOL     OW43100   3.102   7.533   5.598  0.0907 -0.3549 -0.1318
46608SOL    HW143101   3.066   7.497   5.679  0.0136 -0.4713 -0.2166
46608SOL    HW243102   3.187   7.570   5.623 -0.6707  1.1606  0.3603
46609SOL     OW43103   0.058   6.810   2.534 -0.2872  0.2772  0.5790
46609SOL    HW143104   0.132   6.835   2.589  1.0659 -1.4803 -0.3414
46609SOL    HW243105   0.060   6.872   2.461  0.3044  0.2257  0.5484
46610SOL     OW43106  10.924   0.948   8.286 -0.0408  0.4565  0.0057
46610SOL    HW143107  10.941   1.041   8.276 -0.9148  0.5051 -1.3252
46610SOL    HW243108  10.898   0.919   8.198 -0.2908 -0.9253  0.5121
46611SOL     OW43109   7.609  10.948   4.871  0.3064 -0.0159  0.2379
46611SOL    HW143110   7.529  10.905   4.842  0.4716  0.3639 -0.8158
46611SOL    HW243111   7.616  10.925   4.964 -1.0346 -0.0141  0.3537
46612SOL     OW43112   9.992   2.345   7.325 -0.2823  0.2047  0.4178
46612SOL    HW143113  10.001   2.251   7.342 -2.4334  0.1545  1.6953
46612SOL    HW243114   9.978   2.351   7.230  2.8935 -0.4057 -0.2028
46613SOL     OW43115  10.606   4.569   9.802 -0.4750  0.1371  0.0240
46613SOL    HW143116  10.698   4.579   9.779 -0.1587  0.4490  1.3266
46613SOL    HW243117  10.599   4.479   9.835 -0.6039  0.1606  0.0620
46614SOL     OW43118   8.529   7.380  10.776 -0.1375 -0.3151  0.4133
46614SOL    HW143119   8.604   7.358  10.832  0.6067  1.5753  0.2104
46614SOL    HW243120   8.549   7.467  10.742 -1.8928 -0.2669 -0.5880
46615SOL     OW43121  10.211   4.588   1.451  0.3125  0.7695 -0.8801
46615SOL    HW143122  10.264   4.614   1.375 -1.2711  1.5485 -1.7876
46615SOL    HW243123  10.203   4.669   1.502 -1.3313  1.1236 -1.6304
46616SOL     OW43124   0.080   4.649   9.899 -0.4433  0.0149 -0.3448
46616SOL    HW143125   0.037   4.700   9.831  0.2370  0.9877 -0.0715
46616SOL    HW243126   0.156   4.702   9.925 -0.3894 -0.5726  0.7896
46617SOL     OW43127   8.365   9.339   5.723 -0.6440  0.0696 -0.3041
46617SOL    HW143128   8.407   9.262   5.685 -1.6422  0.4016 -2.1988
46617SOL    HW243129   8.416   9.413   5.691 -1.3226  0.3462 -0.7597
46618SOL     OW43130  10.747   8.964   0.952  0.3661  0.0984  0.4531
46618SOL    HW143131  10.810   8.954   0.880 -1.0923 -0.1967 -0.8406
46618SOL    HW243132  10.668   8.996   0.909 -0.6674 -0.4771  1.8800
46619SOL     OW43133   2.072   2.345   9.949  0.3512  0.0672 -0.2009
46619SOL    HW143134   2.142   2.308  10.002  1.0520 -0.9628 -1.7657
46619SOL    HW243135   2.113   2.360   9.863 -1.5310 -1.3398 -1.4119
46620SOL     OW43136   9.861   4.731  10.231  0.3733 -0.4040  1.1098
46620SOL    HW143137   9.772   4.703  10.209 -0.3758  2.9696 -0.9646
46620SOL    HW243138   9.916   4.680  10.171 -0.6188  0.3838 -0.5549
46621SOL     OW43139   6.323   3.852   3.502  0.0309  0.0123  0.0533
46621SOL    HW143140   6.356   3.764   3.522  0.8128 -0.3782 -2.5907
46621SOL    HW243141   6.310   3.892   3.588  1.2396 -2.0924  1.3220
46622SOL     OW43142   9.273   2.892   6.955  0.0755 -0.1700 -0.0742
46622SOL    HW143143   9.309   2.808   6.924  0.0209 -0.0027 -0.5891
46622SOL    HW243144   9.202   2.912   6.895  1.8449  1.6349 -1.7076
46623SOL     OW43145   4.308   9.179   0.026  0.5044  0.1406 -0.0387
46623SOL    HW143146   4.213   9.186   0.033  0.5446 -0.3515  1.3390
46623SOL    HW243147   4.334   9.252  -0.030 -0.8427 -0.8620 -2.0808
46624SOL     OW43148   8.434   2.696   8.793  0.2636 -0.0614  0.1271
46624SOL    HW143149   8.523   2.706   8.760  0.5036  2.9686  1.4052
46624SOL    HW243150   8.379   2.700   8.715  1.1417 -0.7251 -0.5523
46625SOL     OW43151   2.687   4.337   5.134  0.0179 -0.3307 -0.5928
46625SOL    HW143152   2.701   4.254   5.180  1.9240  0.2920  0.0022
46625SOL    HW243153   2.765   4.389   5.152 -1.4045  1.8805 -0.4248
46626SOL     OW43154   2.566   8.351   7.553  0.2911  0.1821  0.1466
46626SOL    HW143155   2.515   8.414   7.502 -0.0206  0.6875  1.0558
46626SOL    HW243156   2.505   8.279   7.570  0.3220  0.1227  0.0003
46627SOL     OW43157   8.338   3.890   8.958 -0.1417  0.0144 -0.6683
46627SOL    HW143158   8.370   3.946   8.888  2.2008 -0.0304  0.2747
46627SOL    HW243159   8.417   3.854   8.999 -1.2981  0.8807  2.7020
46628SOL     OW43160   5.332   8.790   8.530  0.5357 -0.0172 -0.2128
46628SOL    HW143161   5.339   8.738   8.450  1.3991  2.1948 -1.6712
46628SOL    HW243162   5.266   8.856   8.510  0.5642  0.4131  1.0144
46629SOL     OW43163  10.404   0.094  10.948  0.4470  0.3352  0.3112
46629SOL    HW143164  10.426   0.141  10.867  0.5451  0.5039  0.4322
46629SOL    HW243165  10.438   0.006  10.935 -0.7107 -0.0243 -0.3569
46630SOL     OW43166   8.663   3.332   9.206  0.6258  0.4365  0.0574
46630SOL    HW143167   8.726   3.399   9.232  1.0511  0.3281 -0.6884
46630SOL    HW243168   8.694   3.301   9.121 -1.3146  1.5436 -1.1404
46631SOL     OW43169   5.042   2.062   3.519  0.7129 -0.5460 -0.1308
46631SOL    HW143170   5.045   2.156   3.534  2.7057 -0.7546  1.1052
46631SOL    HW243171   4.996   2.027   3.596 -2.8922 -0.4403 -2.0067
46632SOL     OW43172   4.717   8.484   9.648 -0.0938 -0.1648 -0.2843
46632SOL    HW143173   4.692   8.533   9.569 -1.5670 -2.8462 -1.6147
46632SOL    HW243174   4.808   8.459   9.632  0.4060  1.3308  0.0342
46633SOL     OW43175  10.718  10.417   5.906 -0.1758  0.3882  0.0261
46633SOL    HW143176  10.635  10.419   5.858 -0.0282 -0.3205 -0.2690
46633SOL    HW243177  10.762  10.339   5.874  1.4994  1.8102 -1.3138
46634SOL     OW43178   7.780   5.409   3.302  1.2211 -0.2329  0.1738
46634SOL    HW143179   7.857   5.355   3.320 -0.0402 -1.7583  1.2882
46634SOL    HW243180   7.782   5.477   3.370  0.7346 -1.2690  1.2672
46635SOL     OW43181   3.078   8.394  11.260 -0.0640 -0.4678 -0.0952
46635SOL    HW143182   3.050   8.322  11.204 -0.9521 -0.0755 -0.1782
46635SOL    HW243183   3.150   8.435  11.213  0.3722 -1.2301 -0.0993
46636SOL     OW43184   3.918   3.720   3.922  0.0464  0.8687 -0.4241
46636SOL    HW143185   3.838   3.670   3.908  0.1106  0.7891 -0.5066
46636SOL    HW243186   3.989   3.660   3.899  0.1331  0.9157 -0.2869
46637SOL     OW43187   1.773   2.692   7.910  0.0221  0.7587 -0.5515
46637SOL    HW143188   1.819   2.755   7.966 -0.8376  0.7461  0.1928
46637SOL    HW243189   1.834   2.675   7.838  0.8546  1.3295 -0.0018
46638SOL     OW43190   9.398  10.424   8.474  0.8351  0.2093  0.5497
46638SOL    HW143191   9.430  10.511   8.450 -1.6846  0.7640 -1.1588
46638SOL    HW243192   9.305  10.437   8.495  0.2393 -2.1190 -0.2882
46639SOL     OW43193  10.203   8.193   6.719  0.4077 -0.7534  0.4727
46639SOL    HW143194  10.175   8.106   6.747 -0.7035 -0.0060  1.8806
46639SOL    HW243195  10.133   8.223   6.661  0.1930 -0.3658  0.9213
46640SOL     OW43196   2.394   5.644   0.828  0.1623  0.1424  0.1204
46640SOL    HW143197   2.321   5.706   0.826  0.2287  0.2759  1.1826
46640SOL    HW243198   2.381   5.593   0.908  2.1780  1.3683  1.3241
46641SOL     OW43199   8.954   6.613   8.364  0.1953  0.1537 -0.1243
46641SOL    HW143200   9.010   6.630   8.288 -1.4508 -1.4223 -1.7695
46641SOL    HW243201   8.879   6.671   8.353 -0.9931 -1.4416 -0.8190
46642SOL     OW43202   0.164   2.693  10.079 -0.2309  0.2485  0.2330
46642SOL    HW143203   0.196   2.777  10.047 -0.9434  0.6976  0.6824
46642SOL    HW243204   0.201   2.628  10.018 -0.2438  0.9393 -0.5224
46643SOL     OW43205   3.060  10.306   4.711  0.3442  0.1402  0.0027
46643SOL    HW143206   3.138  10.331   4.760  0.1311  0.4374  0.1958
46643SOL    HW243207   2.988  10.315   4.774  0.1636 -0.2106 -0.1503
46644SOL     OW43208   8.146  10.098   0.179 -0.4635 -0.2147 -0.1516
46644SOL    HW143209   8.093  10.056   0.247  0.2360  0.7285  1.0250
46644SOL    HW243210   8.129  10.192   0.190  1.5435  0.1264  0.3659
46645SOL     OW43211   3.312   4.714   8.746  0.0134  0.0184 -0.1115
46645SOL    HW143212   3.227   4.740   8.779  0.1108 -0.1676  0.2927
46645SOL    HW243213   3.375   4.768   8.795  0.0809  0.9509 -1.1830
46646SOL     OW43214  11.202   1.662   8.597 -0.6521 -0.2874  0.2479
46646SOL    HW143215  11.209   1.756   8.580 -1.2605  0.4002  3.2302
46646SOL    HW243216  11.136   1.631   8.536 -1.6083  1.5663  0.2844
46647SOL     OW43217   7.443   2.215  10.366 -0.5065  0.0465  0.1799
46647SOL    HW143218   7.507   2.172  10.309 -1.3533 -0.3690 -0.4729
46647SOL    HW243219   7.468   2.187  10.454  1.4163  1.4761  0.1498
46648SOL     OW43220   4.511  10.863   0.533  0.3494 -0.5054  0.1093
46648SOL    HW143221   4.594  10.911   0.544 -0.5600  0.8738  1.1918
46648SOL    HW243222   4.467  10.870   0.617 -1.7668  0.5412 -1.0040
46649SOL     OW43223   1.357   5.985  11.232  0.0144  0.7366 -0.1735
46649SOL    HW143224   1.403   6.003  11.150  0.1731 -0.1641 -0.2987
46649SOL    HW243225   1.427   5.970  11.296  0.0730 -2.8645 -0.8395
46650SOL     OW43226   3.554   1.287   1.568 -0.1382  0.5909 -0.2506
46650SOL    HW143227   3.648   1.305   1.566  0.1326 -0.7129 -2.6591
46650SOL    HW243228   3.547   1.192   1.558 -1.7337  0.5457  0.7966
46651SOL     OW43229   0.520   4.662   2.416 -0.2044 -0.3025  0.3447
46651SOL    HW143230   0.567   4.578   2.416 -0.7958 -0.6420 -0.1127
46651SOL    HW243231   0.446   4.647   2.357 -2.2913 -0.5659  2.8950
46652SOL     OW43232   5.866   5.042   0.133 -0.2009  0.2716 -0.0968
46652SOL    HW143233   5.907   5.028   0.219  1.0038  1.0558 -0.5211
46652SOL    HW243234   5.785   4.992   0.137  0.6542 -1.0979  0.8905
46653SOL     OW43235   3.218   5.582   4.161  0.4027  0.3118 -0.2742
46653SOL    HW143236   3.139   5.565   4.109  0.1305  1.5580 -0.3110
46653SOL    HW243237   3.239   5.498   4.201 -1.0827  0.0017 -0.0758
46654SOL     OW43238   2.364   4.703   5.655  0.1658 -0.0495  0.0471
46654SOL    HW143239   2.287   4.760   5.653  0.5808  0.5516  0.7624
46654SOL    HW243240   2.419   4.735   5.584 -0.5457 -0.9376 -0.9316
46655SOL     OW43241  10.093   1.349   6.836 -0.3275  0.0988 -0.2089
46655SOL    HW143242  10.109   1.420   6.773 -1.4981  1.0128  0.4853
46655SOL    HW243243  10.023   1.297   6.796 -0.1957 -0.0592 -0.2359
46656SOL     OW43244   6.525  10.817   0.343  0.4755  0.4765 -0.3117
46656SOL    HW143245   6.581  10.873   0.291 -1.0856  1.5335 -0.9359
46656SOL    HW243246   6.475  10.766   0.279  0.8569 -0.6045  0.2255
46657SOL     OW43247   7.148   9.458   3.876 -0.1453 -0.0135  0.2123
46657SOL    HW143248   7.237   9.439   3.909 -0.3638 -0.4548  0.5599
46657SOL    HW243249   7.092   9.397   3.924 -0.7777  1.0106  0.7922
46658SOL     OW43250   9.929   5.065   2.525 -0.2123  0.2446 -0.1963
46658SOL    HW143251   9.924   5.155   2.556 -0.8897  0.6842 -1.5215
46658SOL    HW243252   9.850   5.023   2.560  0.3469  0.0074  0.8312
46659SOL     OW43253   4.472   8.457   4.264 -0.4900 -0.0276 -0.0938
46659SOL    HW143254   4.505   8.507   4.188  0.5317 -1.2341 -0.4752
46659SOL    HW243255   4.452   8.371   4.229 -0.6138 -0.4120  0.8964
46660SOL     OW43256  10.491   3.658   0.811  0.2910 -0.0819 -0.6142
46660SOL    HW143257  10.533   3.593   0.755 -0.9144  0.5244 -2.3468
46660SOL    HW243258  10.421   3.694   0.756 -0.7118  0.8507  1.1905
46661SOL     OW43259   7.270   4.994   0.516  1.1454  0.2149 -0.3739
46661SOL    HW143260   7.194   5.020   0.567  2.1896 -2.0042  2.6268
46661SOL    HW243261   7.313   4.927   0.570  3.5816 -0.7941 -3.2780
46662SOL     OW43262   2.073   4.180   7.274  0.4061 -0.5095 -0.3353
46662SOL    HW143263   2.135   4.222   7.215  3.2830 -0.0564  2.7238
46662SOL    HW243264   2.021   4.252   7.310 -1.8327 -0.8507 -2.5980
46663SOL     OW43265   6.596   3.715   0.052  0.2702 -0.6230 -0.1698
46663SOL    HW143266   6.509   3.753   0.063 -0.0309 -1.8760  3.6226
46663SOL    HW243267   6.581   3.635   0.003 -0.1618  0.6250 -2.1685
46664SOL     OW43268   5.372   4.976   8.145  0.2988 -0.5692  0.3743
46664SOL    HW143269   5.319   4.951   8.220 -1.8916 -2.3619 -1.6124
46664SOL    HW243270   5.323   5.047   8.102 -0.0172 -1.5426 -0.9298
46665SOL     OW43271   1.804   7.097   7.822  0.2953  0.6485  0.3570
46665SOL    HW143272   1.741   7.161   7.789  0.8134  0.2228 -1.5802
46665SOL    HW243273   1.752   7.020   7.843  0.0086  0.7678  0.0799
46666SOL     OW43274   2.892   1.676   1.806  0.4493 -0.4159  0.4766
46666SOL    HW143275   2.899   1.674   1.711 -1.7489 -0.7784  0.2828
46666SOL    HW243276   2.832   1.747   1.824  0.4182 -0.7056  1.5720
46667SOL     OW43277   0.427   4.188   6.058 -0.0519 -0.1405 -0.5461
46667SOL    HW143278   0.414   4.132   5.982 -1.0127  1.1669 -1.4075
46667SOL    HW243279   0.367   4.262   6.043  0.1829  0.4404  1.1871
46668SOL     OW43280   9.917   4.982   4.262  0.2445  0.4294 -0.4824
46668SOL    HW143281   9.921   4.921   4.336 -1.5408  0.0170 -0.6829
46668SOL    HW243282   9.828   4.972   4.228  0.5450  1.7528 -1.7222
46669SOL     OW43283   1.489   9.011   3.095 -0.1822  0.0386  0.4118
46669SOL    HW143284   1.515   8.919   3.102 -0.8527 -0.0511  1.9597
46669SOL    HW243285   1.553   9.048   3.034 -0.3970 -1.6169 -0.9013
46670SOL     OW43286   3.084   4.802   5.360 -0.4155  0.2187 -0.5861
46670SOL    HW143287   3.027   4.738   5.317 -1.9277  1.2195 -0.1730
46670SOL    HW243288   3.131   4.845   5.288  0.0359 -0.7890 -0.9170
46671SOL     OW43289   8.977   6.333   1.578  0.4237 -0.5709 -0.0552
46671SOL    HW143290   9.059   6.335   1.528 -0.2851 -0.5529 -1.2529
46671SOL    HW243291   8.977   6.415   1.626  0.9964 -0.4498 -0.2507
46672SOL     OW43292   6.184   0.271   1.452  0.2072  0.0771 -0.1962
46672SOL    HW143293   6.278   0.258   1.461  0.3348  0.1911 -1.2146
46672SOL    HW243294   6.173   0.302   1.362 -0.6299  1.7268  0.4362
46673SOL     OW43295   4.687   2.537   4.063 -0.1870  0.5247  0.5343
46673SOL    HW143296   4.682   2.534   4.158  2.0221  0.7245  0.7038
46673SOL    HW243297   4.756   2.601   4.044 -0.0317 -0.0901 -1.1815
46674SOL     OW43298   3.566   3.445   4.770 -0.9424 -0.5526 -0.1819
46674SOL    HW143299   3.506   3.447   4.844 -0.6162 -0.5696  0.0816
46674SOL    HW243300   3.631   3.379   4.792 -0.7068 -0.3885 -0.3761
46675SOL     OW43301   7.764   6.787   5.792  0.2815 -0.7557  0.1064
46675SOL    HW143302   7.740   6.766   5.883  0.0021  0.2522  0.2753
46675SOL    HW243303   7.806   6.707   5.760  1.0887 -0.8680  1.3635
46676SOL     OW43304   7.861   0.913   6.725  0.1980 -0.6912 -0.1843
46676SOL    HW143305   7.924   0.940   6.659  0.4469 -2.3590 -0.6789
46676SOL    HW243306   7.899   0.834   6.764 -1.0217 -1.0595  0.3221
46677SOL     OW43307  11.295   1.218   1.774 -0.2070  0.2082  0.1731
46677SOL    HW143308  11.211   1.259   1.792  0.4281  1.2475  0.8279
46677SOL    HW243309  11.345   1.285   1.727 -0.1125 -0.7790 -1.2098
46678SOL     OW43310   0.477   2.316   1.589 -0.4853 -0.4590 -0.2312
46678SOL    HW143311   0.441   2.399   1.557 -0.7857 -0.4500  0.1275
46678SOL    HW243312   0.401   2.268   1.623  0.1101  0.6357  2.9836
46679SOL     OW43313   1.165   6.005  10.903  0.6221 -0.2635  0.1892
46679SOL    HW143314   1.100   5.983  10.970  2.3735 -0.2375  2.0344
46679SOL    HW243315   1.143   6.094  10.875 -0.7795 -0.6835 -0.0675
46680SOL     OW43316   2.686   2.274  10.105  0.6167  0.6307 -0.1759
46680SOL    HW143317   2.754   2.340  10.117 -1.7400  3.1789  0.1801
46680SOL    HW243318   2.662   2.249  10.195  0.1502  0.7680 -0.2631
46681SOL     OW43319   7.700   2.589   7.361 -0.5206  0.4664  0.5357
46681SOL    HW143320   7.759   2.664   7.362 -1.0775  1.0247  4.0050
46681SOL    HW243321   7.758   2.513   7.360  0.1739  0.9879  0.5227
46682SOL     OW43322   6.575   3.006   8.387 -0.0566 -0.0550 -0.3472
46682SOL    HW143323   6.495   3.009   8.440 -0.3873 -0.3034 -0.8209
46682SOL    HW243324   6.603   2.915   8.390  1.9006  0.5081  2.2404
46683SOL     OW43325   1.194   5.695   5.616 -0.6210 -0.4163  0.5919
46683SOL    HW143326   1.257   5.689   5.688  1.0162  0.2324 -0.7318
46683SOL    HW243327   1.210   5.615   5.565 -0.5914 -0.0574  0.0402
46684SOL     OW43328   0.167   6.963   5.390  0.0366  0.5425 -0.5226
46684SOL    HW143329   0.244   6.943   5.443  0.7908  0.3054 -1.6563
46684SOL    HW243330   0.200   7.019   5.320 -0.5470 -0.5754 -1.7423
46685SOL     OW43331   4.596   9.536   1.680  0.2216  0.1200  1.0887
46685SOL    HW143332   4.551   9.579   1.607  0.0037 -1.6601  0.1321
46685SOL    HW243333   4.558   9.577   1.758  0.5957  2.1963  0.2374
46686SOL     OW43334  10.864   8.223  10.717  0.2781  0.2257  0.1725
46686SOL    HW143335  10.831   8.248  10.631 -1.7169 -0.5223  0.6767
46686SOL    HW243336  10.819   8.281  10.779  2.1513  1.1835  0.7161
46687SOL     OW43337   4.018   9.661   1.699 -0.0332 -0.0539 -0.1368
46687SOL    HW143338   4.075   9.707   1.637  0.8618 -0.2701  0.5068
46687SOL    HW243339   3.953   9.617   1.644  0.0270  0.7191 -0.8436
46688SOL     OW43340   0.188   4.115   3.004 -0.0107  0.3368  0.2561
46688SOL    HW143341   0.094   4.119   3.023 -0.2660  0.8787 -1.0355
46688SOL    HW243342   0.204   4.190   2.947  1.4007  0.7827  1.2121
46689SOL     OW43343   7.781   5.929   2.246 -0.3157 -0.3472 -0.3047
46689SOL    HW143344   7.794   5.836   2.261 -0.2643 -0.2848  0.0627
46689SOL    HW243345   7.686   5.942   2.253 -0.2784 -0.2900  0.1779
46690SOL     OW43346   5.483   6.151   6.058  0.1956 -0.0639 -0.2004
46690SOL    HW143347   5.389   6.164   6.050  0.1255 -0.0409  0.6078
46690SOL    HW243348   5.495   6.056   6.058  0.2737 -0.0627 -1.3440
46691SOL     OW43349   9.711   3.948   9.462 -0.2437 -0.2820 -0.5866
46691SOL    HW143350   9.655   3.948   9.540 -1.3613 -0.5699 -1.3661
46691SOL    HW243351   9.724   4.041   9.442 -0.2734 -0.2101 -0.2776
46692SOL     OW43352   9.247   5.700   3.710  0.2603 -0.2591  0.0001
46692SOL    HW143353   9.341   5.691   3.693 -0.0899 -0.2890 -2.2633
46692SOL    HW243354   9.206   5.688   3.625 -1.7547  0.6795  0.7631
46693SOL     OW43355   3.040   9.593   0.423 -0.4825 -0.0394 -0.0536
46693SOL    HW143356   3.017   9.637   0.341 -0.2446  1.5833  0.7096
46693SOL    HW243357   3.084   9.661   0.474 -0.0106 -1.2221  1.1488
46694SOL     OW43358   9.626  10.906   8.598  0.6437 -0.3779 -0.3747
46694SOL    HW143359   9.534  10.884   8.614  0.2779  1.5562  0.4540
46694SOL    HW243360   9.669  10.893   8.683  0.4881  1.5534  0.0450
46695SOL     OW43361   6.525   7.427   4.123 -0.1693 -0.2369  0.3377
46695SOL    HW143362   6.527   7.453   4.215  1.1078 -0.8440  0.4990
46695SOL    HW243363   6.506   7.508   4.076 -0.5305  0.1433  1.1123
46696SOL     OW43364   4.308  10.761   6.235  0.2068 -0.8096  0.7026
46696SOL    HW143365   4.262  10.749   6.318  1.3850 -0.3905  1.4457
46696SOL    HW243366   4.289  10.852   6.210  1.6877 -0.1791  1.7217
46697SOL     OW43367   6.475   2.689   5.611 -1.3303  0.3606 -0.5868
46697SOL    HW143368   6.558   2.667   5.654 -2.8381 -0.4930  2.1156
46697SOL    HW243369   6.485   2.654   5.522  1.3886  0.8595 -0.5918
46698SOL     OW43370   9.507   6.645   7.070  0.5462  0.7400  0.0118
46698SOL    HW143371   9.446   6.573   7.088 -0.6164  1.0613 -2.2831
46698SOL    HW243372   9.594   6.606   7.084 -0.1124 -0.2258  1.6826
46699SOL     OW43373   9.095   7.434   8.985 -0.1114  0.2547  0.4742
46699SOL    HW143374   9.110   7.344   9.014 -1.6032 -0.7244 -1.5770
46699SOL    HW243375   9.180   7.465   8.956  0.5277 -0.2576  1.7233
46700SOL     OW43376   4.230   4.976   7.655  0.0883  0.6668 -0.2113
46700SOL    HW143377   4.143   4.983   7.615 -0.0092  0.1094 -0.1175
46700SOL    HW243378   4.214   4.928   7.737  0.3387  1.4759  0.3132
46701SOL     OW43379   2.257   7.021   7.702  0.0520 -0.1479  0.4622
46701SOL    HW143380   2.174   7.066   7.685 -0.1470  0.5818  2.9801
46701SOL    HW243381   2.256   6.946   7.642 -1.1294  1.3407 -1.5144
46702SOL     OW43382   0.223   2.717   7.890 -0.8068 -0.5550 -0.3801
46702SOL    HW143383   0.130   2.739   7.900 -0.7315 -1.0117  1.9209
46702SOL    HW243384   0.265   2.756   7.966  0.3459 -3.1009  0.3974
46703SOL     OW43385   6.501   3.905   7.114 -0.0719  0.3584  0.4524
46703SOL    HW143386   6.440   3.832   7.129 -0.5976  1.0405  1.7912
46703SOL    HW243387   6.576   3.886   7.171  1.5923 -1.0664 -1.9997
46704SOL     OW43388  10.693   0.712   6.019 -0.1111  0.1630  0.9215
46704SOL    HW143389  10.675   0.663   6.099 -0.6639 -1.1711  0.0239
46704SOL    HW243390  10.625   0.683   5.958  0.5711  0.8183 -0.1790
46705SOL     OW43391   9.258  11.185   0.459 -0.1017  0.1402  0.3105
46705SOL    HW143392   9.209  11.229   0.390  1.0247 -0.4157 -0.8892
46705SOL    HW243393   9.286  11.102   0.420  0.0765 -0.4484  1.6287
46706SOL     OW43394   0.212   0.239   7.719 -0.0654 -0.4837 -0.1589
46706SOL    HW143395   0.241   0.328   7.696 -1.4651 -0.0635 -0.4169
46706SOL    HW243396   0.127   0.230   7.675 -0.9733 -1.1280  1.6381
46707SOL     OW43397   2.746   0.347   2.999  0.0922 -0.6688  0.3161
46707SOL    HW143398   2.798   0.427   2.992 -0.5411 -0.1973  0.9308
46707SOL    HW243399   2.795   0.292   3.059 -0.2147 -0.1350  1.0681
46708SOL     OW43400   2.640   0.105   0.496 -0.0240  0.1820  0.0531
46708SOL    HW143401   2.546   0.112   0.513  0.2105  2.7675  0.6857
46708SOL    HW243402   2.646   0.067   0.408 -1.5605 -2.0318  0.8205
46709SOL     OW43403   8.028   6.692   3.380  0.2205  0.1665  0.2500
46709SOL    HW143404   8.001   6.779   3.407  0.1935 -0.0035  0.7736
46709SOL    HW243405   7.948   6.652   3.344  0.0731  0.1270  0.6118
46710SOL     OW43406   1.272   8.331   4.094 -0.0234 -0.5555 -1.1606
46710SOL    HW143407   1.334   8.294   4.156 -2.5012  0.7697  2.4878
46710SOL    HW243408   1.196   8.273   4.098 -1.6081  1.4381 -0.0040
46711SOL     OW43409   2.498   7.632   9.318 -0.3982 -0.4979  0.1844
46711SOL    HW143410   2.545   7.709   9.286 -1.1598 -0.3760 -0.6974
46711SOL    HW243411   2.415   7.633   9.270 -1.4171 -0.5733  1.8641
46712SOL     OW43412   6.689   4.141   9.123 -0.1250  0.3575 -0.0750
46712SOL    HW143413   6.660   4.228   9.150 -0.9673 -0.0818  0.4857
46712SOL    HW243414   6.672   4.085   9.198  0.8071 -0.2224 -0.2772
46713SOL     OW43415   6.080   5.758   6.125 -0.4324  0.5651  0.1109
46713SOL    HW143416   6.061   5.679   6.074  1.1169  0.7927 -0.8664
46713SOL    HW243417   5.999   5.776   6.173 -0.9238 -1.3955  0.0637
46714SOL     OW43418   2.266   3.563   7.649 -0.0507 -0.1234 -0.6604
46714SOL    HW143419   2.197   3.505   7.617 -0.7097  0.1218  0.2600
46714SOL    HW243420   2.272   3.632   7.583 -0.6263 -0.1983 -0.7972
46715SOL     OW43421   7.426   9.070   2.844 -0.3400  0.5770 -0.3459
46715SOL    HW143422   7.438   9.042   2.753  0.4574 -0.7132  0.1303
46715SOL    HW243423   7.382   8.996   2.887  3.4490 -0.9716  1.3785
46716SOL     OW43424   9.787   4.429   6.584  0.0810 -0.4356 -0.2504
46716SOL    HW143425   9.703   4.452   6.544  0.7071  2.4373 -0.1298
46716SOL    HW243426   9.822   4.359   6.529 -1.3250 -0.0440 -1.7070
46717SOL     OW43427   4.897  10.347   0.373  0.7338  0.0976 -0.6760
46717SOL    HW143428   4.967  10.316   0.316  0.5549 -2.4319  0.3313
46717SOL    HW243429   4.908  10.296   0.454 -1.0325  1.1188  0.2743
46718SOL     OW43430   8.260   4.249   1.469 -0.2155  0.2012  0.0869
46718SOL    HW143431   8.275   4.186   1.398  0.6305  0.6369 -0.1372
46718SOL    HW243432   8.348   4.274   1.497 -0.5447  0.5797  0.8081
46719SOL     OW43433   3.361   8.643   5.013 -0.1203 -0.0702 -0.0302
46719SOL    HW143434   3.349   8.734   5.039 -0.6083 -0.0753 -0.2260
46719SOL    HW243435   3.282   8.599   5.043  0.2920 -0.5169  0.4276
46720SOL     OW43436   4.990   0.301   2.893  0.5090  0.0600  0.0201
46720SOL    HW143437   4.942   0.218   2.896  0.1035  0.2431 -0.8898
46720SOL    HW243438   4.967   0.338   2.808  0.3044  1.3362  0.6092
46721SOL     OW43439   7.411  10.384   7.704  0.1901 -0.2010 -0.4144
46721SOL    HW143440   7.335  10.411   7.651  0.0271 -1.0452 -0.6330
46721SOL    HW243441   7.422  10.291   7.683  0.3638 -0.4548  0.7502
46722SOL     OW43442   5.636   1.845   2.549 -0.1167  0.2355  0.2141
46722SOL    HW143443   5.676   1.782   2.488 -0.4860 -0.5292  0.7455
46722SOL    HW243444   5.689   1.838   2.629  0.2715  1.1225  0.0435
46723SOL     OW43445  10.000   7.803   8.044  0.1631 -0.2628 -0.0200
46723SOL    HW143446  10.044   7.856   8.110  1.0563  1.5804 -1.9677
46723SOL    HW243447  10.036   7.716   8.055  1.7293  0.4425  0.6884
46724SOL     OW43448   0.051   3.596   8.342 -0.3210  0.5723  0.7149
46724SOL    HW143449   0.010   3.650   8.275  1.0257 -2.3916 -2.8637
46724SOL    HW243450   0.144   3.618   8.337  0.2823 -1.9379 -0.9299
46725SOL     OW43451   5.095  11.338   8.965  0.0180 -0.1155  0.0862
46725SOL    HW143452   5.035  11.385   8.906  0.8138  1.0814  0.2106
46725SOL    HW243453   5.171  11.318   8.910  0.1524 -0.2796  0.3330
46726SOL     OW43454   5.730   8.060   0.120 -0.4678  0.3672  0.4985
46726SOL    HW143455   5.819   8.077   0.152 -0.6412  3.7011 -0.4448
46726SOL    HW243456   5.739   8.056   0.025 -1.1430 -1.1531  0.4572
46727SOL     OW43457   1.605   1.197   4.768  0.0356  0.0263 -0.0675
46727SOL    HW143458   1.594   1.274   4.712 -0.4769  0.5575  0.7349
46727SOL    HW243459   1.625   1.125   4.707 -1.0560  0.4709 -0.9859
46728SOL     OW43460   3.076   8.088   0.233  0.8048  0.5389 -0.5904
46728SOL    HW143461   3.157   8.096   0.183 -0.6590 -1.2012 -3.5261
46728SOL    HW243462   3.007   8.109   0.170 -1.2258 -2.2736  0.4800
46729SOL     OW43463   8.932   9.775   8.859 -0.2319 -0.5303 -0.3301
46729SOL    HW143464   8.983   9.796   8.781 -1.4124  1.7068 -0.5918
46729SOL    HW243465   8.997   9.757   8.927  0.8965  0.9377 -0.9703
46730SOL     OW43466  11.384   6.635   5.003 -0.5029  0.0301  0.3879
46730SOL    HW143467  11.397   6.661   5.094 -1.6145  0.9440  0.3023
46730SOL    HW243468  11.461   6.669   4.958 -0.7969  1.1480  0.6926
46731SOL     OW43469   4.096   7.699   7.815  0.2144  0.3067 -0.2755
46731SOL    HW143470   4.055   7.620   7.849  1.7162  0.4218  1.9999
46731SOL    HW243471   4.177   7.668   7.774  1.1492  0.6842  1.2322
46732SOL     OW43472   0.527   0.421   9.136 -0.1881  0.1252 -0.3756
46732SOL    HW143473   0.582   0.358   9.089  1.2808  1.8561 -1.1107
46732SOL    HW243474   0.588   0.469   9.193 -1.5925 -0.4993  1.8033
46733SOL     OW43475   8.554   4.161   5.409  0.3601 -0.0835  0.7199
46733SOL    HW143476   8.512   4.116   5.482 -2.1466  4.2663  2.3037
46733SOL    HW243477   8.628   4.207   5.450 -1.5540  3.0589  0.9352
46734SOL     OW43478   6.941   3.628   6.206 -0.3644  0.3696  0.5149
46734SOL    HW143479   6.944   3.692   6.135  1.9065  0.6738  0.8204
46734SOL    HW243480   6.925   3.679   6.285  1.5804  0.6509  0.7773
46735SOL     OW43481   4.716   5.489   1.904  0.0593  0.4321  0.3837
46735SOL    HW143482   4.809   5.503   1.883  0.5353 -1.2170  1.2116
46735SOL    HW243483   4.717   5.446   1.989 -1.2291 -2.7593 -1.0477
46736SOL     OW43484   4.090   2.027   5.417  0.5292 -0.0954  0.4822
46736SOL    HW143485   4.167   1.985   5.456  0.3722 -1.4071 -0.5408
46736SOL    HW243486   4.093   2.001   5.325 -1.3072 -0.4613  0.4814
46737SOL     OW43487   5.311  11.377   0.967 -0.8058  0.0429 -0.4217
46737SOL    HW143488   5.354  11.430   0.900 -0.1552  0.5388  0.3742
46737SOL    HW243489   5.220  11.408   0.967 -0.2423  1.8431  0.6722
46738SOL     OW43490   6.841   8.079   8.900 -0.4536  0.0009 -0.1559
46738SOL    HW143491   6.833   8.036   8.814  0.2673 -1.9492  0.6953
46738SOL    HW243492   6.932   8.105   8.905 -1.2214  3.4727 -1.3981
46739SOL     OW43493   0.280   1.644   5.441 -0.1477 -0.2512 -0.0667
46739SOL    HW143494   0.254   1.596   5.519 -0.6500 -1.7586 -1.1115
46739SOL    HW243495   0.208   1.706   5.426  0.1113  0.2899  0.8145
46740SOL     OW43496   0.098   3.081   6.562  0.1423 -0.1087  0.1502
46740SOL    HW143497   0.166   3.029   6.605  0.7584 -0.3081 -1.0439
46740SOL    HW243498   0.023   3.076   6.621  0.7454 -0.9392  0.8642
46741SOL     OW43499   6.882   9.641   1.991 -0.7657  0.1321  0.2621
46741SOL    HW143500   6.829   9.605   1.920 -0.5785  1.5914 -0.6555
46741SOL    HW243501   6.869   9.735   1.985  3.5761  0.8838 -1.4937
46742SOL     OW43502   1.540   0.907   8.392 -0.4318 -0.1402  0.0980
46742SOL    HW143503   1.457   0.906   8.345  0.2182  0.8452 -1.1586
46742SOL    HW243504   1.604   0.934   8.326  0.5731  1.0417  1.4871
46743SOL     OW43505   1.749   2.313   6.369  0.0694 -0.2300  0.2662
46743SOL    HW143506   1.713   2.302   6.457  1.5509  0.3719  0.9743
46743SOL    HW243507   1.683   2.273   6.311  0.1931 -2.8620  1.8016
46744SOL     OW43508   7.706   7.671   0.753  0.1667  0.1023  0.0146
46744SOL    HW143509   7.677   7.742   0.695  0.5823  0.1974 -0.0839
46744SOL    HW243510   7.650   7.678   0.830  0.2379  0.5736  0.0279
46745SOL     OW43511   9.149   2.529   3.288  0.7771 -0.1874 -0.5937
46745SOL    HW143512   9.139   2.486   3.203  0.5828 -1.1755 -0.0928
46745SOL    HW243513   9.089   2.481   3.346  2.3239 -0.8536  0.5512
46746SOL     OW43514   8.380   3.216   4.516 -0.6858  0.5209  0.1596
46746SOL    HW143515   8.443   3.269   4.469  0.4746 -1.3908 -0.5665
46746SOL    HW243516   8.425   3.191   4.597 -1.0603  0.3234  0.3087
46747SOL     OW43517   3.621  11.177   1.958  0.3184 -0.4862 -0.3159
46747SOL    HW143518   3.710  11.168   1.924  0.6755 -0.4503  0.5677
46747SOL    HW243519   3.617  11.116   2.032  0.2042  0.7816  0.7671
46748SOL     OW43520   7.548   7.192   8.964  0.0015  0.5356 -0.1652
46748SOL    HW143521   7.516   7.226   8.881  0.1424  0.3835 -0.2820
46748SOL    HW243522   7.547   7.097   8.954  0.5277  0.5264 -0.1898
46749SOL     OW43523   4.882   4.996   1.835 -0.1202  0.2239 -0.0678
46749SOL    HW143524   4.953   5.055   1.809  0.7899 -0.5605  0.5482
46749SOL    HW243525   4.817   5.005   1.766  0.7537  0.6736 -0.8586
46750SOL     OW43526   3.095   2.013   8.717  0.0520  0.0566 -0.6597
46750SOL    HW143527   3.076   1.980   8.805 -0.8728  1.0522 -0.4582
46750SOL    HW243528   3.190   2.007   8.709  0.1234 -0.2919  0.3078
46751SOL     OW43529   1.031   5.994   4.249 -0.4215 -0.4223  0.1824
46751SOL    HW143530   1.113   6.044   4.245 -0.6614  0.1004  1.5130
46751SOL    HW243531   1.057   5.904   4.226  0.2537  0.0172 -0.8474
46752SOL     OW43532   4.314   4.850   5.521 -0.4268 -0.3909  0.1151
46752SOL    HW143533   4.341   4.828   5.432  1.1762  1.9740 -0.0682
46752SOL    HW243534   4.379   4.914   5.551  0.6891 -2.9901  4.0052
46753SOL     OW43535   2.594   7.220   2.669  0.2327  0.3308 -0.2846
46753SOL    HW143536   2.689   7.227   2.660  0.7255 -2.7246  1.4180
46753SOL    HW243537   2.568   7.162   2.597 -0.0279 -0.4348  0.4182
46754SOL     OW43538   5.624   2.283   8.605  0.0198 -0.1535 -0.9327
46754SOL    HW143539   5.718   2.294   8.591 -0.0989  1.1725 -0.8260
46754SOL    HW243540   5.583   2.340   8.540 -0.6204  2.5225  1.6106
46755SOL     OW43541   9.655   6.469   0.144 -0.0598 -0.1161 -0.1997
46755SOL    HW143542   9.565   6.468   0.111 -0.5468 -0.9167  1.0924
46755SOL    HW243543   9.649   6.507   0.231  0.6357 -1.3306  0.4096
46756SOL     OW43544   4.562  11.128   9.116  0.0492  0.0572  0.5352
46756SOL    HW143545   4.639  11.165   9.073 -0.5075  0.6999  0.0759
46756SOL    HW243546   4.588  11.118   9.208  1.4633 -1.9066 -0.0225
46757SOL     OW43547   3.312   1.713   5.232  0.1846 -0.0608  0.2023
46757SOL    HW143548   3.337   1.747   5.146  0.8141  0.6634  0.6563
46757SOL    HW243549   3.373   1.641   5.248 -1.1681 -1.4524 -0.7738
46758SOL     OW43550   2.812   8.388   8.942  0.1175  0.3039 -0.0731
46758SOL    HW143551   2.721   8.374   8.913 -0.1775  0.5586  0.7121
46758SOL    HW243552   2.805   8.401   9.036  1.0297 -0.1184  0.0532
46759SOL     OW43553   9.651   7.992   0.671 -0.3505 -0.1904 -0.2946
46759SOL    HW143554   9.718   7.949   0.724 -2.2792 -0.3896  2.2192
46759SOL    HW243555   9.568   7.963   0.710 -1.9130  0.5261 -2.8388
46760SOL     OW43556   0.893  10.641   1.795 -0.1761  0.2568 -0.3561
46760SOL    HW143557   0.855  10.725   1.823  1.2010  0.0936  2.3012
46760SOL    HW243558   0.874  10.581   1.867  1.0809 -1.0475 -1.0662
46761SOL     OW43559   6.087   8.347   5.064 -0.1192  0.3459 -0.2254
46761SOL    HW143560   6.065   8.258   5.037 -1.6720  1.2717 -2.3419
46761SOL    HW243561   6.179   8.358   5.037 -0.4232 -0.0898 -1.4971
46762SOL     OW43562   4.989   9.668   0.014  0.1199  0.0914  0.3074
46762SOL    HW143563   5.032   9.584  -0.002  1.2560  0.7956 -0.4678
46762SOL    HW243564   5.048   9.714   0.074 -0.5810  0.2835  0.8658
46763SOL     OW43565   2.791   6.607   4.496 -0.3479  0.5808 -0.4583
46763SOL    HW143566   2.789   6.696   4.461 -1.9429  0.3404 -1.0517
46763SOL    HW243567   2.787   6.551   4.418  3.5754 -0.1375 -0.3203
46764SOL     OW43568   7.639   1.474   5.677 -0.1904 -0.0129  0.1012
46764SOL    HW143569   7.649   1.569   5.681  0.9158  0.1067 -2.8224
46764SOL    HW243570   7.627   1.455   5.584 -1.4838 -2.6740  0.7103
46765SOL     OW43571   5.710  11.069   9.971  0.0153  0.0534 -0.4086
46765SOL    HW143572   5.656  10.993   9.951  0.4455 -0.0486 -1.2249
46765SOL    HW243573   5.673  11.140   9.917 -1.1826  0.7745  1.2888
46766SOL     OW43574   2.928   8.825   8.714 -0.3654 -0.2531  0.9532
46766SOL    HW143575   2.926   8.766   8.789 -0.8051 -0.3205  0.8898
46766SOL    HW243576   3.007   8.800   8.666 -1.1047 -1.5186  0.3459
46767SOL     OW43577   4.592   7.126   7.482  0.0764 -0.3092  0.1258
46767SOL    HW143578   4.661   7.181   7.442 -0.1692  0.0806  0.2282
46767SOL    HW243579   4.561   7.178   7.556  0.8544 -1.2403  1.1260
46768SOL     OW43580  11.069   6.432   3.470  0.1392  0.4514 -0.0555
46768SOL    HW143581  11.011   6.405   3.541  0.0994  1.9214  0.5158
46768SOL    HW243582  11.148   6.380   3.483  0.1220  0.6686  1.0696
46769SOL     OW43583   9.990   6.593   7.444  0.1013 -0.4860 -0.2769
46769SOL    HW143584   9.965   6.523   7.505 -2.9351 -0.4036 -1.3028
46769SOL    HW243585   9.960   6.673   7.487  0.4891 -0.1308 -0.6605
46770SOL     OW43586   8.597   5.318   9.022  0.0750  0.3173  0.0294
46770SOL    HW143587   8.640   5.235   9.000 -1.3537 -0.5753  0.4590
46770SOL    HW243588   8.510   5.292   9.054 -0.1063  1.9319  0.9622
46771SOL     OW43589   9.406  11.095   4.098 -0.0736 -0.0068 -0.1344
46771SOL    HW143590   9.334  11.158   4.091  0.4926  0.4840 -2.2866
46771SOL    HW243591   9.425  11.090   4.191 -0.1638  3.0032  0.1353
46772SOL     OW43592  10.076   0.705   9.834 -0.0895 -0.4707  0.1406
46772SOL    HW143593  10.155   0.678   9.881 -0.4799 -0.2316  0.9597
46772SOL    HW243594  10.068   0.643   9.762 -0.7530 -2.3540  1.7485
46773SOL     OW43595   5.376  11.228   9.141  0.6481 -0.5694 -0.4616
46773SOL    HW143596   5.408  11.148   9.183 -0.4113  0.0461  1.6330
46773SOL    HW243597   5.296  11.250   9.188  0.3351  1.1577 -1.6975
46774SOL     OW43598   9.592  11.379   9.011  0.0872 -0.2281 -0.0481
46774SOL    HW143599   9.605  11.466   8.975  1.1255 -0.3544 -0.0353
46774SOL    HW243600   9.503  11.355   8.986  1.0074 -0.6899 -3.3548
46775SOL     OW43601  11.281   1.872   9.243  0.2666 -0.0419  0.2261
46775SOL    HW143602  11.339   1.877   9.319  1.0365 -1.5567 -0.2210
46775SOL    HW243603  11.332   1.827   9.176 -0.7532  0.3425 -0.8585
46776SOL     OW43604   9.770   6.454   9.958  0.1528  0.4893  0.4675
46776SOL    HW143605   9.821   6.402  10.021  0.1265 -0.5103 -0.2995
46776SOL    HW243606   9.688   6.474  10.003 -0.4199 -1.3467  0.3268
46777SOL     OW43607   2.705  11.186   1.295 -0.5331 -0.3608  0.2005
46777SOL    HW143608   2.625  11.230   1.325 -1.0507  0.0519 -1.6572
46777SOL    HW243609   2.769  11.203   1.364 -1.6606  0.4988  1.0708
46778SOL     OW43610   7.257   3.336   7.685 -0.0141 -0.0829  0.0903
46778SOL    HW143611   7.198   3.335   7.610  0.5154 -0.9337 -0.3256
46778SOL    HW243612   7.239   3.254   7.731  0.8514 -0.3665 -0.0567
46779SOL     OW43613   8.756   2.717  11.022  0.6550  0.1890  0.2205
46779SOL    HW143614   8.768   2.622  11.031 -0.8879 -0.1940 -1.2662
46779SOL    HW243615   8.838   2.748  10.984  0.2143 -1.0285 -1.8954
46780SOL     OW43616   0.336   6.792   3.360  0.1804 -0.7412  0.0997
46780SOL    HW143617   0.368   6.742   3.286  0.8109 -2.0020  1.1830
46780SOL    HW243618   0.411   6.844   3.389 -0.4427  0.8217 -0.9582
46781SOL     OW43619  11.310   2.810   7.299 -0.1789 -0.4287  0.2884
46781SOL    HW143620  11.358   2.887   7.269 -2.5585  1.1757  0.2763
46781SOL    HW243621  11.294   2.828   7.392 -1.4571 -0.4579  0.0945
46782SOL     OW43622   1.743   9.844   6.661 -0.0539 -0.0066 -0.2295
46782SOL    HW143623   1.810   9.885   6.606  0.2521  0.2455  0.3239
46782SOL    HW243624   1.676   9.816   6.600  1.2980 -1.7626 -1.0209
46783SOL     OW43625   1.287   8.411   8.623 -0.1701  0.3761 -0.7088
46783SOL    HW143626   1.232   8.381   8.551 -0.3228 -0.4124 -0.2771
46783SOL    HW243627   1.293   8.336   8.682  0.2496  0.8882 -0.0755
46784SOL     OW43628   0.963   4.505  11.236 -0.4207 -0.0629 -0.3507
46784SOL    HW143629   0.889   4.550  11.277 -0.1107  0.2937 -0.1708
46784SOL    HW243630   0.925   4.429  11.194 -0.8700  0.0394 -0.1322
46785SOL     OW43631   6.698   4.135   4.970  0.6708  0.2154  0.3515
46785SOL    HW143632   6.691   4.231   4.970  0.4267  0.2285 -1.6572
46785SOL    HW243633   6.778   4.116   4.921 -0.2740 -0.6287 -0.9258
46786SOL     OW43634   9.676   8.744   4.647  0.5744 -0.0468 -0.1530
46786SOL    HW143635   9.635   8.811   4.701  0.1905 -0.1980 -0.2519
46786SOL    HW243636   9.752   8.714   4.698 -0.6875 -1.3319  1.0578
46787SOL     OW43637   9.668   5.904   2.826 -0.8907  0.0269  0.5191
46787SOL    HW143638   9.664   5.828   2.884 -0.5056  0.5792  1.2725
46787SOL    HW243639   9.589   5.896   2.771 -0.6869 -1.0846  0.3655
46788SOL     OW43640   8.620   4.323   3.441  0.0958 -0.0733 -1.0411
46788SOL    HW143641   8.656   4.340   3.528  1.8386 -2.1954 -1.2606
46788SOL    HW243642   8.570   4.402   3.421 -0.4519  0.4706  1.8956
46789SOL     OW43643   3.332   4.116  10.357  0.1740 -0.1928 -0.1175
46789SOL    HW143644   3.364   4.203  10.379  0.4521 -0.6184  1.2823
46789SOL    HW243645   3.251   4.106  10.407 -0.4415 -0.3532 -1.1009
46790SOL     OW43646   0.143   3.616   6.997 -0.4317  0.0804 -0.0896
46790SOL    HW143647   0.130   3.556   6.924 -1.3210 -0.4349  0.4617
46790SOL    HW243648   0.055   3.649   7.016 -0.6470 -1.6145  2.2453
46791SOL     OW43649   4.957   3.813   4.206 -0.1061  0.2944 -0.2785
46791SOL    HW143650   5.048   3.783   4.207  0.2453  1.3457  0.3671
46791SOL    HW243651   4.916   3.759   4.138  0.3291 -2.0843  1.2376
46792SOL     OW43652   9.664  10.934   3.516 -0.4436 -0.3088  0.4189
46792SOL    HW143653   9.724  10.982   3.573 -0.6083  1.5317 -0.8589
46792SOL    HW243654   9.577  10.967   3.539 -0.5762 -0.0831 -0.3875
46793SOL     OW43655   5.610   2.575   1.542  0.0316 -0.0245 -0.1153
46793SOL    HW143656   5.618   2.644   1.609  0.0929 -0.4271  0.2964
46793SOL    HW243657   5.566   2.618   1.469 -1.5458 -0.0078  0.8030
46794SOL     OW43658   1.806   4.651   3.084  0.1881 -0.1474  1.0816
46794SOL    HW143659   1.742   4.580   3.077  0.8695 -1.0001  2.7010
46794SOL    HW243660   1.848   4.654   2.999 -1.8185  0.2894  0.0449
46795SOL     OW43661   4.558   5.685  10.765 -0.2151 -0.3594 -0.2318
46795SOL    HW143662   4.534   5.595  10.787 -1.6995  0.0730 -0.0111
46795SOL    HW243663   4.615   5.713  10.837 -0.3460 -0.8803  0.0788
46796SOL     OW43664   1.821   3.709  10.339  0.0148  0.3998 -0.3490
46796SOL    HW143665   1.876   3.773  10.384 -1.1364  0.9029  0.3726
46796SOL    HW243666   1.733   3.726  10.371 -0.4464 -0.9781 -0.8127
46797SOL     OW43667   2.775   1.514   6.462  0.5115  0.5295 -0.2497
46797SOL    HW143668   2.799   1.486   6.374  0.8572  0.7195 -0.2173
46797SOL    HW243669   2.793   1.608   6.463 -2.0587  1.1187 -0.8569
46798SOL     OW43670   6.653   2.161   8.474  0.0445  0.3156  0.0716
46798SOL    HW143671   6.579   2.100   8.470  0.8806 -0.6750 -0.8948
46798SOL    HW243672   6.614   2.245   8.497 -1.6759  0.2661 -2.3186
46799SOL     OW43673   4.808   5.162   4.353  0.0486  0.0237 -0.3638
46799SOL    HW143674   4.785   5.134   4.441  0.1416  0.1652 -0.2932
46799SOL    HW243675   4.885   5.110   4.330  1.4053  1.5278  0.5104
46800SOL     OW43676   1.087   1.999   7.222 -0.5020  0.6246 -0.5133
46800SOL    HW143677   1.177   2.030   7.225 -0.1909 -0.2031 -0.9439
46800SOL    HW243678   1.049   2.041   7.145  0.0099 -0.2893 -1.2773
46801SOL     OW43679   6.437   6.630   9.435  0.4818  0.0885 -0.1112
46801SOL    HW143680   6.432   6.626   9.530  3.0532  1.3075  0.1684
46801SOL    HW243681   6.363   6.577   9.405 -0.7875  0.1959  2.5218
46802SOL     OW43682   5.119   6.216   1.566 -0.1382  0.3935  0.3817
46802SOL    HW143683   5.128   6.202   1.660 -0.3435 -1.2689  0.1945
46802SOL    HW243684   5.040   6.269   1.557  0.8640  2.1360  1.2034
46803SOL     OW43685   8.644   7.001   3.208  0.3509  0.1127  0.1246
46803SOL    HW143686   8.644   7.075   3.148 -1.0139  0.0544  0.0230
46803SOL    HW243687   8.720   6.949   3.183 -0.9469 -0.6630 -2.5271
46804SOL     OW43688   0.405   4.448   6.145 -0.1154 -0.1883  0.1646
46804SOL    HW143689   0.413   4.355   6.167 -1.0478 -0.4405 -0.5072
46804SOL    HW243690   0.441   4.494   6.221  2.4724 -1.1043 -0.3816
46805SOL     OW43691   7.743   1.925   7.348  0.1349  0.5243 -0.0221
46805SOL    HW143692   7.770   1.963   7.432 -0.4109  0.6625  0.0930
46805SOL    HW243693   7.720   2.000   7.294  1.5382  0.5088 -0.6818
46806SOL     OW43694   3.912   9.480   9.399 -0.1197 -0.0299  0.0462
46806SOL    HW143695   3.969   9.527   9.338  0.2606 -1.2512 -0.5816
46806SOL    HW243696   3.878   9.548   9.458 -0.5329  1.1983 -1.5297
46807SOL     OW43697  10.860  10.287   9.140  0.0578 -0.3138 -0.0491
46807SOL    HW143698  10.777  10.333   9.125  0.8172  0.8627 -0.9409
46807SOL    HW243699  10.901  10.335   9.211 -0.0507 -0.9453  0.4452
46808SOL     OW43700   8.489   0.655   0.217  0.3533 -0.6585  0.5490
46808SOL    HW143701   8.568   0.607   0.193  1.3220  0.0667  2.1579
46808SOL    HW243702   8.471   0.711   0.141  1.9951 -0.0940  0.5402
46809SOL     OW43703   4.305   6.132   3.651  0.1134  0.3772 -0.0259
46809SOL    HW143704   4.273   6.194   3.716 -0.0946  1.0386 -0.7452
46809SOL    HW243705   4.401   6.135   3.660  0.5236  4.1556 -2.9180
46810SOL     OW43706   8.305   7.852   1.777  0.1779 -0.0994  0.4113
46810SOL    HW143707   8.311   7.923   1.712  0.9891  0.7800  1.4098
46810SOL    HW243708   8.343   7.776   1.733 -0.1491  0.2293 -0.4701
46811SOL     OW43709   5.228   7.548   6.037 -0.0910 -0.3263  0.0583
46811SOL    HW143710   5.167   7.613   6.071  0.8412  0.7463 -0.2514
46811SOL    HW243711   5.219   7.553   5.942  0.4580 -0.1712  0.0104
46812SOL     OW43712   8.484   6.650   0.647  0.4490 -0.2259  0.0139
46812SOL    HW143713   8.556   6.711   0.662  1.1196 -1.1329  0.6056
46812SOL    HW243714   8.506   6.573   0.700 -1.4392 -0.1490  1.0044
46813SOL     OW43715   4.299   2.982   3.145 -0.3501 -0.2497 -0.1127
46813SOL    HW143716   4.393   3.000   3.144 -0.3882 -0.0923 -1.2819
46813SOL    HW243717   4.264   3.027   3.069 -1.7640  1.5832  1.5159
46814SOL     OW43718   2.069   8.089   7.840 -0.1057  0.2721 -0.1804
46814SOL    HW143719   2.085   8.152   7.770  3.0184  0.5971  0.6844
46814SOL    HW243720   2.110   8.008   7.810  0.1191  0.0424  0.7262
46815SOL     OW43721   8.795   4.310   8.152  0.2078  0.0524 -0.3169
46815SOL    HW143722   8.867   4.250   8.169  1.2259  1.5393  0.8656
46815SOL    HW243723   8.723   4.254   8.124  1.7030 -1.5003 -1.2198
46816SOL     OW43724   2.694   7.319   8.997 -0.1380 -0.1368  0.4472
46816SOL    HW143725   2.789   7.326   9.012  0.3936 -3.6246 -0.4268
46816SOL    HW243726   2.677   7.225   8.997 -3.3657  0.3235 -1.0676
46817SOL     OW43727   9.049   2.429   9.143  0.7380  0.5677 -0.2219
46817SOL    HW143728   9.083   2.450   9.230  0.7693  0.9580 -0.3276
46817SOL    HW243729   8.956   2.452   9.148 -0.1987 -2.8616  0.8864
46818SOL     OW43730   2.780   6.787   7.557 -0.4425 -0.3198  0.2755
46818SOL    HW143731   2.777   6.704   7.604 -1.3007  0.5066  1.7512
46818SOL    HW243732   2.737   6.850   7.615 -0.5985  0.9856 -1.1746
46819SOL     OW43733   7.397   8.542   9.937  0.1255 -0.0234  0.2452
46819SOL    HW143734   7.341   8.620   9.941  1.1948  0.7308  0.8194
46819SOL    HW243735   7.346   8.479   9.887 -0.9389  0.9011  0.1319
46820SOL     OW43736   5.343   7.537   2.067  0.1306  0.1733 -0.0926
46820SOL    HW143737   5.381   7.621   2.042  0.5381 -0.0248 -0.1450
46820SOL    HW243738   5.311   7.550   2.156 -0.3219  0.5521 -0.3092
46821SOL     OW43739   5.239   9.024   9.127  0.4016  0.4999  0.3717
46821SOL    HW143740   5.332   9.019   9.150  1.0750 -0.1061 -2.1359
46821SOL    HW243741   5.238   9.018   9.031 -2.3431 -1.0521  0.3973
46822SOL     OW43742  10.009   1.772   8.713  0.1744 -0.0823  0.5039
46822SOL    HW143743   9.993   1.826   8.790 -0.1685 -2.5226  2.2710
46822SOL    HW243744   9.944   1.702   8.718  1.4311 -1.4398 -0.8889
46823SOL     OW43745   5.876   6.918  11.128 -0.4500  0.0432 -0.4691
46823SOL    HW143746   5.871   6.931  11.222  0.7874 -0.2332 -0.3412
46823SOL    HW243747   5.859   6.825  11.115 -1.2346  0.1990 -0.5850
46824SOL     OW43748   7.755   6.969   1.875  0.2415  0.3646 -0.1726
46824SOL    HW143749   7.845   6.963   1.843 -0.1655 -1.4523 -1.0863
46824SOL    HW243750   7.730   7.060   1.861  1.6592  0.7009 -0.6441
46825SOL     OW43751  10.674   5.416   1.648  0.0548 -0.3391  0.1344
46825SOL    HW143752  10.719   5.371   1.720  0.1426 -1.8618 -0.8357
46825SOL    HW243753  10.687   5.509   1.667  1.1976 -0.7172  1.3874
46826SOL     OW43754   1.782   9.076   2.083  0.1047  0.7137 -0.4067
46826SOL    HW143755   1.711   9.134   2.056  0.8349  1.4404 -0.8417
46826SOL    HW243756   1.802   9.024   2.005 -2.3999 -2.2229  0.7075
46827SOL     OW43757   5.109   6.846   6.693 -0.0981  0.3367  0.3843
46827SOL    HW143758   5.192   6.801   6.704 -0.3703  0.3893  3.6762
46827SOL    HW243759   5.133   6.938   6.680  0.4199  0.4429  1.8784
46828SOL     OW43760   8.849   8.811   6.453 -0.6217  0.4827  0.0421
46828SOL    HW143761   8.883   8.803   6.542 -0.1380  0.3913 -0.1494
46828SOL    HW243762   8.834   8.905   6.441  1.2011  0.7464 -0.4644
46829SOL     OW43763   9.851   4.551   8.440 -0.0807 -0.2008 -0.2924
46829SOL    HW143764   9.760   4.578   8.453 -0.5935 -1.7590 -0.3673
46829SOL    HW243765   9.852   4.458   8.463  1.5158 -0.2032 -0.2393
46830SOL     OW43766   2.195   0.332   6.518 -0.0290 -0.0596 -0.0837
46830SOL    HW143767   2.264   0.352   6.456  0.9128 -0.3551  0.8454
46830SOL    HW243768   2.202   0.400   6.585  0.5670 -1.1208  0.9726
46831SOL     OW43769  10.241   2.527   1.045 -0.6673 -0.5012  0.1484
46831SOL    HW143770  10.321   2.502   1.090 -1.6808 -0.7776  1.9036
46831SOL    HW243771  10.208   2.602   1.094 -0.2360  1.2092 -2.0547
46832SOL     OW43772   5.956   0.422  10.336  0.3476  0.5173  0.0133
46832SOL    HW143773   5.902   0.485  10.384 -2.3228 -1.4645 -0.1668
46832SOL    HW243774   5.945   0.339  10.384 -0.2945 -0.9359 -2.4618
46833SOL     OW43775  10.490   1.173   4.002 -0.6471  0.0280 -0.4828
46833SOL    HW143776  10.459   1.214   3.921 -1.1157  1.9837  0.6182
46833SOL    HW243777  10.425   1.198   4.068 -0.2504 -1.4658  0.5374
46834SOL     OW43778   0.468   8.635   1.781 -0.1197  0.4668  0.3419
46834SOL    HW143779   0.542   8.637   1.720  0.2538  2.5035  0.7955
46834SOL    HW243780   0.486   8.561   1.838  0.3907 -0.4378 -0.9347
46835SOL     OW43781   8.818  11.265   8.407  0.1242  0.4624  0.3138
46835SOL    HW143782   8.865  11.344   8.437 -0.5678  0.9207  0.1977
46835SOL    HW243783   8.852  11.249   8.319 -0.1059  0.9321  0.1384
46836SOL     OW43784   4.955   6.036   3.377 -0.6516 -0.1966  0.1336
46836SOL    HW143785   4.915   5.996   3.300  0.3306 -0.5039 -0.2303
46836SOL    HW243786   4.950   6.130   3.361  1.6371 -0.2812 -1.4334
46837SOL     OW43787  10.905   3.837   2.231 -0.1656  0.5119  0.5356
46837SOL    HW143788  10.858   3.881   2.160 -1.1432  0.6931  1.2644
46837SOL    HW243789  10.847   3.847   2.307  1.6988  2.0455  1.8640
46838SOL     OW43790   1.326   6.095   4.277  0.6600  0.4101  0.1504
46838SOL    HW143791   1.387   6.030   4.242 -0.7730 -0.4977 -0.7800
46838SOL    HW243792   1.382   6.162   4.316  2.2078 -1.2882  1.0131
46839SOL     OW43793   7.805  11.371   1.035  0.7609 -0.3408  0.0192
46839SOL    HW143794   7.737  11.361   1.102  0.8873  1.9815  0.5739
46839SOL    HW243795   7.832  11.281   1.014 -1.9056 -1.2934  0.3384
46840SOL     OW43796   0.272   5.515   8.839 -0.6036  0.2258 -0.2043
46840SOL    HW143797   0.308   5.594   8.798  1.5484  0.6284  2.2227
46840SOL    HW243798   0.222   5.547   8.914 -1.6233 -0.6652 -0.4650
46841SOL     OW43799   3.994   5.014   7.516  0.3197  0.2687 -0.0263
46841SOL    HW143800   3.974   5.022   7.423  1.6930  0.9249 -0.2869
46841SOL    HW243801   3.922   4.961   7.551  0.7569 -1.6546 -1.8075
46842SOL     OW43802   7.094  11.234  10.208  0.1807  0.3568  0.1265
46842SOL    HW143803   7.053  11.173  10.269  1.0786  0.2766  0.6640
46842SOL    HW243804   7.132  11.178  10.139 -0.9645  0.4561 -0.6103
46843SOL     OW43805   0.231   8.618   0.900  0.2314  0.0744  0.0130
46843SOL    HW143806   0.135   8.619   0.895  0.1258  0.0831  1.4892
46843SOL    HW243807   0.259   8.686   0.838 -0.8226  1.4454  0.9659
46844SOL     OW43808   9.470   2.545  10.189 -0.5351 -0.1264 -0.1257
46844SOL    HW143809   9.411   2.620  10.195  2.4077  2.3061  0.1794
46844SOL    HW243810   9.520   2.560  10.109  1.0013 -1.0744  0.6254
46845SOL     OW43811   6.915   1.922   3.314  0.4079  0.3634  0.1726
46845SOL    HW143812   6.888   1.949   3.226  0.4174  1.2436  0.4222
46845SOL    HW243813   7.010   1.928   3.313  0.6596 -2.3909 -0.5969
46846SOL     OW43814   3.304   4.691   3.773  0.6594 -0.3689 -0.4816
46846SOL    HW143815   3.355   4.622   3.817 -0.1633 -0.8240 -0.2154
46846SOL    HW243816   3.319   4.675   3.680  1.5800 -0.0465 -0.3978
46847SOL     OW43817   9.172   8.742   9.287  0.0409 -0.3863  0.5023
46847SOL    HW143818   9.137   8.742   9.198  0.2418 -0.4677  0.4209
46847SOL    HW243819   9.267   8.742   9.274  0.0952  1.0553  0.6967
46848SOL     OW43820   6.824   3.746   8.615 -0.6730 -0.1111 -0.1549
46848SOL    HW143821   6.784   3.661   8.595 -2.0037  0.2019  1.0258
46848SOL    HW243822   6.855   3.738   8.705  0.5156  0.2015 -0.5126
46849SOL     OW43823   6.438  11.270  11.004  0.1257  0.1101 -0.4599
46849SOL    HW143824   6.419  11.244  10.914  1.1182  1.2396 -1.0125
46849SOL    HW243825   6.375  11.340  11.023 -1.1704 -1.2050  0.3203
46850SOL     OW43826  10.797   2.363   1.111  0.6185 -0.0342 -0.0655
46850SOL    HW143827  10.889   2.337   1.107  0.8698  0.3888  2.1215
46850SOL    HW243828  10.780   2.400   1.024  3.0979  1.6872  0.0664
46851SOL     OW43829   7.594   7.379   3.881 -0.1112 -0.5337  0.3096
46851SOL    HW143830   7.575   7.436   3.956 -0.7455 -1.1052  0.5881
46851SOL    HW243831   7.613   7.440   3.809 -1.6431  0.0652  0.3733
46852SOL     OW43832   2.050   0.184   8.133 -0.3043  0.3081 -0.1650
46852SOL    HW143833   2.119   0.121   8.109 -0.7601 -0.1661 -0.2516
46852SOL    HW243834   2.012   0.147   8.213 -1.6092 -0.3628 -1.0648
46853SOL     OW43835   7.521   9.341   3.583 -0.7135 -0.1897 -0.5745
46853SOL    HW143836   7.527   9.418   3.640  1.1638 -0.7387  0.0500
46853SOL    HW243837   7.473   9.277   3.634 -1.0473  0.0928 -0.5310
46854SOL     OW43838   9.468   9.908   4.173 -0.1631 -0.1035  0.0987
46854SOL    HW143839   9.553   9.916   4.131 -0.8247 -0.0494 -1.3103
46854SOL    HW243840   9.465   9.981   4.235  2.1768 -2.1328  2.8369
46855SOL     OW43841   5.302   7.462  10.950 -0.7436  0.6893  0.0623
46855SOL    HW143842   5.344   7.390  10.996  1.0990  2.1433  0.7537
46855SOL    HW243843   5.369   7.495  10.890 -1.4395  1.9969 -0.0412
46856SOL     OW43844   4.593   1.207   4.705 -0.1241 -0.4432 -0.3130
46856SOL    HW143845   4.497   1.203   4.705 -0.2058  1.0330 -0.5515
46856SOL    HW243846   4.618   1.172   4.619 -0.6363  1.8603 -1.4756
46857SOL     OW43847   4.372   3.016   7.872 -0.1948  0.0977  0.3900
46857SOL    HW143848   4.438   3.085   7.859 -0.0214 -0.1898 -0.3307
46857SOL    HW243849   4.414   2.954   7.933 -0.2411  0.4866  0.8180
46858SOL     OW43850   9.173   6.425   0.958 -0.1550 -0.3708 -0.4114
46858SOL    HW143851   9.240   6.427   1.026 -0.4591 -2.0712 -0.0191
46858SOL    HW243852   9.090   6.419   1.007 -1.0631  4.7952 -0.7047
46859SOL     OW43853   2.738   4.857   3.291 -0.1872 -0.0678  0.3890
46859SOL    HW143854   2.666   4.810   3.248 -1.0750  2.5094 -1.1462
46859SOL    HW243855   2.815   4.836   3.239 -0.9062  1.4786 -1.4171
46860SOL     OW43856   4.869  10.217   1.043 -0.2712 -0.0553 -0.1414
46860SOL    HW143857   4.828  10.168   1.113 -1.0435 -1.1385 -1.3042
46860SOL    HW243858   4.906  10.150   0.985 -0.2636  0.7664 -1.1261
46861SOL     OW43859   6.434   5.550  10.091  0.3154  0.0108 -0.4152
46861SOL    HW143860   6.494   5.624  10.096 -0.4776  0.7146 -0.8393
46861SOL    HW243861   6.412   5.544   9.998 -0.0107 -0.4352 -0.3132
46862SOL     OW43862   3.655  10.543   6.788  0.1337  0.4943 -0.2850
46862SOL    HW143863   3.613  10.501   6.864 -2.2585  2.1206 -0.6116
46862SOL    HW243864   3.707  10.614   6.826  0.6269  0.0131 -0.0461
46863SOL     OW43865   8.882   9.075   9.206  0.1475 -0.4437 -0.2626
46863SOL    HW143866   8.880   9.170   9.200 -0.1351 -0.4842 -0.9653
46863SOL    HW243867   8.969   9.050   9.174  0.6397 -0.3665  0.9835
46864SOL     OW43868   2.392   9.270  10.936 -0.8428 -0.5834  0.6277
46864SOL    HW143869   2.312   9.233  10.973 -0.1797  0.1530  3.0143
46864SOL    HW243870   2.462   9.213  10.968 -0.1271  0.7802  1.6220
46865SOL     OW43871   3.451   5.772   0.703 -0.0704  0.0482  0.2792
46865SOL    HW143872   3.389   5.738   0.638 -0.2101  0.5116  0.1580
46865SOL    HW243873   3.516   5.703   0.714  1.3896  0.8935 -2.2507
46866SOL     OW43874   1.169   6.971   5.328  0.4717  0.1703 -0.9040
46866SOL    HW143875   1.213   6.886   5.323  0.7411  0.1812  0.6179
46866SOL    HW243876   1.240   7.035   5.318  0.1161  0.2865 -3.2926
46867SOL     OW43877   6.713   8.868   0.479  0.3291  0.1185  0.0879
46867SOL    HW143878   6.741   8.787   0.437  1.8600 -0.6063  2.2959
46867SOL    HW243879   6.631   8.846   0.522 -1.0044  0.7402 -1.9699
46868SOL     OW43880   4.497   5.590   9.388  0.4300  0.2402 -0.4333
46868SOL    HW143881   4.542   5.653   9.332 -0.5848 -1.1752 -2.9784
46868SOL    HW243882   4.421   5.637   9.421 -0.0067  0.5293 -1.8330
46869SOL     OW43883   6.030  11.159   4.140  0.0971 -0.9090 -0.2594
46869SOL    HW143884   5.973  11.234   4.119  0.2560 -0.8410 -0.4522
46869SOL    HW243885   5.976  11.103   4.195 -0.9466 -1.9574 -2.2510
46870SOL     OW43886   6.566   4.446   7.899  0.2471  0.0634  0.2088
46870SOL    HW143887   6.522   4.523   7.935 -0.3373 -0.5646  0.8711
46870SOL    HW243888   6.558   4.455   7.804  0.9297  1.2399  0.2479
46871SOL     OW43889   4.529   8.369   1.271 -0.1431 -0.1911 -0.2805
46871SOL    HW143890   4.509   8.455   1.235  0.9857  0.7146  1.1346
46871SOL    HW243891   4.534   8.384   1.366  0.0650 -1.8130 -0.0153
46872SOL     OW43892  10.752   2.260   3.385 -0.6933 -0.3037 -0.4370
46872SOL    HW143893  10.662   2.269   3.417 -0.7101 -1.2944 -0.1713
46872SOL    HW243894  10.795   2.205   3.450  0.3078  0.7091 -0.1936
46873SOL     OW43895   1.539   1.293   3.909  0.2452 -0.4829  0.1223
46873SOL    HW143896   1.469   1.233   3.881 -0.1553  0.8340 -1.8931
46873SOL    HW243897   1.571   1.332   3.827  1.6154  0.8365  1.2359
46874SOL     OW43898   7.673   1.318   8.220  0.5738  0.1878 -0.6677
46874SOL    HW143899   7.650   1.401   8.178  1.8008  0.2660 -1.2106
46874SOL    HW243900   7.590   1.271   8.227  0.1586  0.6787 -2.0851
46875SOL     OW43901   8.280  10.629   8.366 -0.5367  0.1691  0.2507
46875SOL    HW143902   8.220  10.578   8.421 -0.6955 -0.9655 -0.9294
46875SOL    HW243903   8.226  10.659   8.293 -0.1882  1.1520  0.3804
46876SOL     OW43904   3.600  11.295   1.693 -0.1509  0.4708  0.1732
46876SOL    HW143905   3.657  11.371   1.703  1.1219 -0.4131 -0.1309
46876SOL    HW243906   3.602  11.253   1.779 -0.2810  0.3872  0.1347
46877SOL     OW43907   4.252   4.616   8.732 -0.3405 -0.4464 -0.1299
46877SOL    HW143908   4.232   4.700   8.774  0.7896  0.8270 -1.9922
46877SOL    HW243909   4.183   4.606   8.666 -0.7209 -1.2219  0.3736
46878SOL     OW43910   4.297   1.355   4.221  0.1029  0.1478  0.2883
46878SOL    HW143911   4.214   1.376   4.264  0.3513 -1.1009  1.4490
46878SOL    HW243912   4.279   1.274   4.173  0.4882  0.1995  0.0532
46879SOL     OW43913   3.292  10.455   9.621 -0.5047 -0.0984 -0.3405
46879SOL    HW143914   3.231  10.398   9.667 -1.6908  0.4541 -1.1651
46879SOL    HW243915   3.248  10.475   9.538  1.6293 -1.2455 -1.8620
46880SOL     OW43916   2.307   3.461   8.444 -0.6273 -0.3931  0.0907
46880SOL    HW143917   2.377   3.397   8.431  0.4258  0.6765  0.3110
46880SOL    HW243918   2.248   3.448   8.370  0.5843 -0.3501 -0.9044
46881SOL     OW43919   1.009   4.086   3.315 -0.1678 -1.0146 -0.6317
46881SOL    HW143920   0.991   4.008   3.264  0.3307 -1.4448 -0.1620
46881SOL    HW243921   1.090   4.121   3.278 -0.4388 -0.6645 -0.9017
46882SOL     OW43922   0.526   2.075  10.429 -0.1457  0.0575  0.6091
46882SOL    HW143923   0.605   2.024  10.407  0.3308  0.4944  1.2807
46882SOL    HW243924   0.519   2.140  10.359  0.1023  0.0396  0.5676
46883SOL     OW43925   4.167   1.457   9.829 -0.6981  0.1386  0.0606
46883SOL    HW143926   4.112   1.533   9.811  0.8703  0.8485 -2.1078
46883SOL    HW243927   4.245   1.494   9.871 -0.0631 -0.2813 -0.7227
46884SOL     OW43928   6.307   5.353   9.647 -0.5115  0.4939  0.2546
46884SOL    HW143929   6.266   5.384   9.566 -0.8610 -0.5338  0.0210
46884SOL    HW243930   6.273   5.264   9.658  3.4243 -1.4583 -1.2839
46885SOL     OW43931   3.055   6.919   5.145  0.2849 -0.4868 -0.6233
46885SOL    HW143932   3.037   6.858   5.074  1.5679 -0.3787 -1.0773
46885SOL    HW243933   3.144   6.949   5.128 -0.4116  1.7844 -0.6269
46886SOL     OW43934   6.108   9.522   6.754 -0.6302  0.2982  0.3959
46886SOL    HW143935   6.050   9.528   6.830 -1.2700 -0.9068  0.0249
46886SOL    HW243936   6.099   9.432   6.723  1.8937 -0.1187  0.6649
46887SOL     OW43937   9.831  10.261   8.781  0.0120  0.4322  0.0652
46887SOL    HW143938   9.869  10.200   8.718  0.9251 -0.4603  1.4350
46887SOL    HW243939   9.737  10.247   8.774  0.1429 -0.1903 -0.5605
46888SOL     OW43940  10.057   9.848   7.433 -0.1491  0.2963  0.8162
46888SOL    HW143941  10.012   9.822   7.513 -0.3259 -2.2362  0.0022
46888SOL    HW243942  10.011   9.801   7.363  1.4514  0.5638 -0.4996
46889SOL     OW43943   1.975   4.466   9.069 -0.2318  0.5343  0.3482
46889SOL    HW143944   1.881   4.458   9.055 -0.1201 -0.8081  0.2741
46889SOL    HW243945   2.013   4.393   9.021  0.7370  0.2152  1.5558
46890SOL     OW43946   8.537   8.971   0.074 -0.6690 -0.4470  0.1989
46890SOL    HW143947   8.617   8.931   0.041 -0.2780  1.9463 -2.1784
46890SOL    HW243948   8.473   8.958   0.004 -0.7926  2.0261 -0.2473
46891SOL     OW43949   1.267   8.146   2.754  0.7871 -0.2963  0.2448
46891SOL    HW143950   1.272   8.101   2.839 -1.3717  1.4368  1.4167
46891SOL    HW243951   1.223   8.229   2.774  2.2429  1.1837 -2.2341
46892SOL     OW43952   2.762   8.294   2.193  0.0329  0.0714 -0.5880
46892SOL    HW143953   2.730   8.325   2.108  2.9124 -0.0278 -1.8262
46892SOL    HW243954   2.846   8.254   2.174 -0.8451 -3.3527  1.8347
46893SOL     OW43955  11.129   6.943   9.684  0.3758  0.2788 -0.3357
46893SOL    HW143956  11.054   6.955   9.743 -1.4767  2.1933 -2.8058
46893SOL    HW243957  11.193   6.895   9.736 -2.0439 -0.3510  2.3686
46894SOL     OW43958   7.178   4.066   3.953  0.1638 -0.4540 -0.7672
46894SOL    HW143959   7.182   4.009   4.030  2.0375  0.0997 -0.3896
46894SOL    HW243960   7.211   4.150   3.984 -1.5838  0.5790 -1.5685
46895SOL     OW43961   8.135   2.469   7.021  0.0341  0.7410 -0.3515
46895SOL    HW143962   8.109   2.492   7.110  0.3037 -0.7445  0.1329
46895SOL    HW243963   8.054   2.477   6.969 -0.0812  1.7899 -0.0242
46896SOL     OW43964   0.659   2.743   4.052  0.4330  0.0860  0.1280
46896SOL    HW143965   0.642   2.776   3.964  1.5594  0.6374  0.1075
46896SOL    HW243966   0.712   2.810   4.094  1.0026 -0.7532  0.7945
46897SOL     OW43967   2.052   5.664   6.329 -0.3165  0.2026  0.3124
46897SOL    HW143968   1.960   5.649   6.311 -0.2616 -0.4419  0.5638
46897SOL    HW243969   2.087   5.578   6.351 -0.4144  0.8945  3.7283
46898SOL     OW43970   7.977   1.803  11.091 -0.0464 -0.2785  0.0753
46898SOL    HW143971   8.063   1.782  11.055 -0.0576  0.4488 -0.3939
46898SOL    HW243972   7.959   1.732  11.152  1.1540 -0.1076  0.6531
46899SOL     OW43973   0.118   3.609   4.454  0.6876  0.1558 -0.3879
46899SOL    HW143974   0.122   3.514   4.465  0.5854  0.1559 -0.3498
46899SOL    HW243975   0.161   3.644   4.531 -0.4338  0.1671  0.2595
46900SOL     OW43976   3.506   7.902   5.311  0.1882  0.5159  0.1627
46900SOL    HW143977   3.414   7.912   5.337 -0.1405  3.2540 -1.6020
46900SOL    HW243978   3.510   7.943   5.225  2.6912 -1.4224 -0.7560
46901SOL     OW43979   4.590   5.215   3.036  0.1994 -0.4992 -0.0825
46901SOL    HW143980   4.662   5.153   3.021 -0.6890 -1.8198  0.8891
46901SOL    HW243981   4.584   5.223   3.131 -0.5734  0.0409 -0.1646
46902SOL     OW43982   6.179   2.722   6.816 -0.6883 -0.0425  0.1786
46902SOL    HW143983   6.149   2.684   6.898  1.5863 -1.8092  0.3029
46902SOL    HW243984   6.186   2.647   6.756 -1.8729  1.1429 -1.5447
46903SOL     OW43985   0.633   3.608   7.560 -0.8023 -0.7591 -0.2495
46903SOL    HW143986   0.589   3.646   7.636 -2.5707  0.5239 -1.8383
46903SOL    HW243987   0.704   3.669   7.541  0.1410 -1.4899  0.7798
46904SOL     OW43988   2.804   8.670   4.849  0.1597 -0.0936  0.2364
46904SOL    HW143989   2.805   8.609   4.775 -0.1409  0.7023 -0.4363
46904SOL    HW243990   2.822   8.755   4.810 -0.6190  0.4298  0.9883
46905SOL     OW43991  10.838   4.593   5.279 -0.1247 -0.0770 -0.4384
46905SOL    HW143992  10.760   4.577   5.332  2.0736 -1.9455  2.5027
46905SOL    HW243993  10.816   4.671   5.228 -3.2443  0.5401  1.5600
46906SOL     OW43994   7.753   2.689   5.528 -0.2824  0.3982  0.2604
46906SOL    HW143995   7.685   2.630   5.495  1.3473 -2.9987  2.4911
46906SOL    HW243996   7.831   2.667   5.478  0.1603  1.3540  0.4990
46907SOL     OW43997   1.040   6.658   2.094 -0.6732  0.2286 -0.3603
46907SOL    HW143998   0.991   6.613   2.025 -0.0035 -0.1591 -0.6003
46907SOL    HW243999   1.126   6.616   2.093 -0.7441 -0.0044  0.9313
46908SOL     OW44000   0.467   4.559   0.449  0.8942 -0.3031  0.1457
46908SOL    HW144001   0.381   4.574   0.410 -0.1721 -2.7327  1.3428
46908SOL    HW244002   0.522   4.531   0.376 -0.1397 -1.5304 -0.1852
46909SOL     OW44003   9.410   2.060   1.937 -0.0394 -0.2104 -0.0264
46909SOL    HW144004   9.455   2.109   2.005 -1.0322  0.7174  0.0008
46909SOL    HW244005   9.419   2.114   1.858 -0.4353 -0.3856 -0.1950
46910SOL     OW44006   8.230   9.174   6.243 -0.1037 -0.0944  0.4238
46910SOL    HW144007   8.145   9.153   6.204  0.1157  1.3358 -0.9049
46910SOL    HW244008   8.289   9.183   6.169  1.3447 -1.5017  1.3543
46911SOL     OW44009  11.233  11.230   6.792 -0.2004  0.3276 -0.0361
46911SOL    HW144010  11.306  11.199   6.740  0.1660 -1.0749  1.2165
46911SOL    HW244011  11.269  11.298   6.848 -0.1485  0.5261 -0.3161
46912SOL     OW44012   7.549   3.414   0.918  0.1823  0.0290 -0.1959
46912SOL    HW144013   7.517   3.365   0.994  0.0234  1.4112  0.6560
46912SOL    HW244014   7.505   3.374   0.843 -1.0576 -0.1843  0.6320
46913SOL     OW44015   8.886   9.601  10.771 -0.2395  0.3284  0.8943
46913SOL    HW144016   8.824   9.627  10.839 -1.0387 -0.3229  0.4315
46913SOL    HW244017   8.842   9.530  10.724  0.7702 -0.0088  0.4205
46914SOL     OW44018   7.440  10.453   3.744 -0.2582 -0.0608 -0.2340
46914SOL    HW144019   7.444  10.524   3.809 -0.6442 -0.1493 -0.1152
46914SOL    HW244020   7.347  10.435   3.733 -0.1909 -0.1262 -0.7324
46915SOL     OW44021   0.074   7.016   2.342  0.2718  0.0918 -0.5800
46915SOL    HW144022   0.089   7.093   2.396 -0.8839  0.7160 -1.1200
46915SOL    HW244023  -0.021   7.014   2.329  0.1825 -1.8492  0.0384
46916SOL     OW44024  10.638   5.519   3.194  0.2494  0.0093  0.2844
46916SOL    HW144025  10.626   5.474   3.110 -0.5099 -1.0942  0.9480
46916SOL    HW244026  10.554   5.564   3.209 -0.4186 -1.5306  1.4121
46917SOL     OW44027  11.273   2.485   6.991  0.4497  0.5178  0.4065
46917SOL    HW144028  11.204   2.465   7.054 -0.5470  0.1880 -0.7527
46917SOL    HW244029  11.229   2.533   6.921  1.6539  1.4626  0.2532
46918SOL     OW44030   2.195   5.597   3.910 -0.0318 -0.1614 -0.0939
46918SOL    HW144031   2.262   5.529   3.908 -1.2793 -1.4778  0.6864
46918SOL    HW244032   2.112   5.548   3.912 -0.9711  1.3889  0.3469
46919SOL     OW44033  11.165   1.413  10.703  0.5423 -0.1114 -0.2626
46919SOL    HW144034  11.206   1.498  10.722 -1.5861  0.9091 -0.0190
46919SOL    HW244035  11.193   1.393  10.614 -2.0190  2.8472 -1.9204
46920SOL     OW44036   7.322   7.715  11.153 -0.0723  0.6135  0.1703
46920SOL    HW144037   7.237   7.682  11.125  0.5754 -1.2510  0.2926
46920SOL    HW244038   7.305   7.758  11.237 -0.5610 -1.7578  1.3487
46921SOL     OW44039   0.255   0.328   1.029  0.0318  0.1802  0.0378
46921SOL    HW144040   0.237   0.286   1.113  0.7857  1.9993  1.1670
46921SOL    HW244041   0.342   0.366   1.039  0.2637  0.2183 -1.6944
46922SOL     OW44042   4.653   0.317   9.031  0.0969  0.1080  0.4453
46922SOL    HW144043   4.612   0.269   8.959 -1.2224 -0.3966  1.4791
46922SOL    HW244044   4.584   0.325   9.097  0.4895  2.8383  0.6338
46923SOL     OW44045   4.983  10.484  10.071 -0.5263  0.2191  0.5873
46923SOL    HW144046   4.921  10.509  10.140  1.3123  1.9408  1.7287
46923SOL    HW244047   5.068  10.515  10.103  0.4808  0.7029 -2.2873
46924SOL     OW44048   8.903  10.670   5.736  0.3366  0.7216 -0.0338
46924SOL    HW144049   8.887  10.716   5.653  0.4641  1.1070  0.1503
46924SOL    HW244050   8.850  10.591   5.730  0.2448  0.8076 -0.4320
46925SOL     OW44051   4.444   1.930   5.925  1.0305 -0.2977 -0.4581
46925SOL    HW144052   4.409   1.842   5.937  0.8764 -0.1278  0.4012
46925SOL    HW244053   4.422   1.976   6.006 -0.5012  1.0925 -1.5999
46926SOL     OW44054   5.058  10.095   9.807  0.0696  0.3092  0.6288
46926SOL    HW144055   5.014  10.155   9.868  0.4538  0.4792  0.7379
46926SOL    HW244056   5.147  10.088   9.841  0.3038  0.4498  0.0471
46927SOL     OW44057   4.389   9.436   7.228 -0.2105  0.0168  0.1754
46927SOL    HW144058   4.410   9.479   7.311 -1.2851 -1.7357  1.4429
46927SOL    HW244059   4.449   9.361   7.225 -1.2045 -0.7894  0.1393
46928SOL     OW44060   5.345   1.386   1.615  0.1342  0.6299  0.1031
46928SOL    HW144061   5.327   1.307   1.665  2.0551 -0.0930 -0.2640
46928SOL    HW244062   5.305   1.457   1.667  0.4945 -0.2954  1.7282
46929SOL     OW44063   7.485   7.051   3.258  0.5173  0.1862 -0.2875
46929SOL    HW144064   7.464   7.143   3.269 -1.6125 -0.2437 -0.2751
46929SOL    HW244065   7.403   7.005   3.279  1.3027 -1.6493 -1.0163
46930SOL     OW44066   4.934   0.880   5.293  0.0497  0.6657  0.0356
46930SOL    HW144067   4.872   0.928   5.238 -0.7878 -1.2985 -0.8197
46930SOL    HW244068   4.887   0.801   5.320  1.8110 -0.3791  0.2246
46931SOL     OW44069   2.018   3.893   1.939 -0.0386  0.2710 -0.1553
46931SOL    HW144070   1.977   3.841   1.871  0.1900 -1.8333  1.2254
46931SOL    HW244071   2.112   3.878   1.928  0.2240  2.2092 -1.0756
46932SOL     OW44072   3.888   4.522   6.624 -0.1515  0.5357 -0.1377
46932SOL    HW144073   3.843   4.584   6.682 -1.3320  1.0238 -1.5171
46932SOL    HW244074   3.956   4.484   6.679 -0.0756  2.2668  1.0560
46933SOL     OW44075   5.767   8.026   3.901  0.5013  0.1502  0.5660
46933SOL    HW144076   5.730   7.968   3.834  0.4205 -0.0500  0.7868
46933SOL    HW244077   5.802   8.100   3.851 -1.0041  0.7849  0.4143
46934SOL     OW44078   5.789   4.668  10.022  0.2950 -0.5505 -0.2116
46934SOL    HW144079   5.750   4.731  10.083  0.4199  0.4245 -1.1133
46934SOL    HW244080   5.835   4.722   9.958 -0.0897 -1.5460 -1.3586
46935SOL     OW44081   7.480   4.991  10.282 -0.4702  0.0186 -0.7436
46935SOL    HW144082   7.466   4.898  10.300  0.9106 -0.2056 -0.7426
46935SOL    HW244083   7.544   5.019  10.347  0.1307  0.6392 -1.5810
46936SOL     OW44084   0.819   2.035   6.891 -0.0670 -0.2036 -0.2187
46936SOL    HW144085   0.824   2.037   6.795  1.3192 -1.5653 -0.2146
46936SOL    HW244086   0.909   2.018   6.919 -0.6371 -0.8868  1.2926
46937SOL     OW44087   5.628   8.719   6.211  0.5102 -0.3697 -0.3086
46937SOL    HW144088   5.702   8.771   6.242  0.1149  0.5596 -0.8853
46937SOL    HW244089   5.658   8.628   6.216  1.4080 -0.0514  0.1885
46938SOL     OW44090   2.736   5.844  10.415  0.1267  0.6932 -0.5402
46938SOL    HW144091   2.827   5.858  10.441  0.3106  0.4424 -1.0254
46938SOL    HW244092   2.684   5.891  10.480  0.5642  0.0319  0.2993
46939SOL     OW44093   2.567   9.192   0.671  0.1395  0.1387 -0.1352
46939SOL    HW144094   2.479   9.156   0.681  0.1435  0.2395  0.2804
46939SOL    HW244095   2.554   9.285   0.657  0.2014  0.2409  0.4705
46940SOL     OW44096   0.900   6.080   0.294  0.6671  0.7071  0.8965
46940SOL    HW144097   0.879   6.013   0.359 -0.4240  0.5507  0.4035
46940SOL    HW244098   0.957   6.036   0.232 -0.0738  0.1961  0.5545
46941SOL     OW44099   8.138   2.077   9.460  0.4237  0.5031  0.0404
46941SOL    HW144100   8.222   2.121   9.469  0.3099  0.8626 -0.6677
46941SOL    HW244101   8.074   2.148   9.457  0.0408  0.2201  1.0611
46942SOL     OW44102   5.883   4.318   2.215 -0.5881 -0.1204 -0.1500
46942SOL    HW144103   5.871   4.226   2.238  0.1137 -0.0509  0.5564
46942SOL    HW244104   5.975   4.336   2.235 -1.2864  1.3706  2.1361
46943SOL     OW44105   6.599   8.902   9.921 -0.4175  0.2970  0.1254
46943SOL    HW144106   6.668   8.969   9.919 -0.1642  0.0402  0.1253
46943SOL    HW244107   6.561   8.910  10.008  1.2633 -1.1880  1.0819
46944SOL     OW44108   8.702   5.334   3.312 -0.2700  0.0619 -0.2444
46944SOL    HW144109   8.730   5.390   3.240 -0.4001 -0.7837 -0.9680
46944SOL    HW244110   8.753   5.365   3.387  1.5008 -0.4472 -1.1812
46945SOL     OW44111  11.127   2.676   8.726 -0.5010 -0.1274  0.6391
46945SOL    HW144112  11.069   2.707   8.657 -0.2950 -0.9022  0.0948
46945SOL    HW244113  11.074   2.615   8.777 -0.4780 -0.0100  0.8043
46946SOL     OW44114   2.535   0.400   0.935  0.3526 -0.1063 -0.3336
46946SOL    HW144115   2.616   0.374   0.892  0.3740 -0.1632 -0.2577
46946SOL    HW244116   2.553   0.393   1.029 -0.0896 -1.2068 -0.3175
46947SOL     OW44117   0.223   3.828   5.293 -0.5286  0.2123 -0.2125
46947SOL    HW144118   0.237   3.735   5.277 -0.1344  0.2833 -0.3027
46947SOL    HW244119   0.306   3.858   5.330  0.1518  0.9936 -2.2359
46948SOL     OW44120   6.073   9.915  10.754  0.4546 -0.0425 -0.0863
46948SOL    HW144121   6.154   9.956  10.782  0.0771 -0.5090  1.8558
46948SOL    HW244122   6.007   9.948  10.815 -0.1421 -2.2920  0.5851
46949SOL     OW44123   6.171   0.740   4.721 -0.1401 -0.3950  0.6468
46949SOL    HW144124   6.149   0.804   4.654 -1.2983 -1.4217  0.0106
46949SOL    HW244125   6.254   0.771   4.757  0.3375  0.3632 -1.0071
46950SOL     OW44126   9.269   7.337  10.665 -0.6669 -0.7602  0.4401
46950SOL    HW144127   9.271   7.422  10.621  0.1190  1.1838  3.8378
46950SOL    HW244128   9.298   7.275  10.598  1.2024  2.0090 -1.5639
46951SOL     OW44129   6.873   9.045  10.697 -0.3437 -0.1709  0.1972
46951SOL    HW144130   6.851   9.048  10.791  0.1595 -1.2518  0.3595
46951SOL    HW244131   6.969   9.044  10.695 -0.2843  1.9457 -0.4206
46952SOL     OW44132   8.520   8.619   1.896 -0.2733  0.5958 -0.1708
46952SOL    HW144133   8.524   8.645   1.804  0.5148 -1.3937 -0.7512
46952SOL    HW244134   8.585   8.674   1.939  2.6793 -1.3992 -1.6683
46953SOL     OW44135  10.629   9.152  10.983 -0.1314 -0.1269  0.4024
46953SOL    HW144136  10.607   9.124  11.072 -1.3572 -1.3869 -0.2482
46953SOL    HW244137  10.544   9.164  10.941  0.3648 -1.9887 -1.2887
46954SOL     OW44138  10.548   8.398   8.205 -0.5527 -0.1018  0.0924
46954SOL    HW144139  10.562   8.320   8.151  0.4585  0.0419  0.1193
46954SOL    HW244140  10.633   8.415   8.245 -0.7055  1.1174 -0.0498
46955SOL     OW44141   7.905   3.239   0.836 -0.5466 -0.0153 -0.0259
46955SOL    HW144142   7.848   3.268   0.765 -1.7472 -1.3891  0.3304
46955SOL    HW244143   7.984   3.293   0.827 -0.9754  0.3710 -1.9200
46956SOL     OW44144   3.032  10.509  11.035 -0.5011 -0.6380  0.4251
46956SOL    HW144145   2.951  10.526  11.082 -1.9348 -1.3435 -1.6726
46956SOL    HW244146   3.080  10.449  11.092 -0.8451  0.7010  2.2434
46957SOL     OW44147   6.365   3.852  11.369  0.8521 -0.8388 -0.4942
46957SOL    HW144148   6.271   3.851  11.383  0.9332 -1.7393  0.0480
46957SOL    HW244149   6.377   3.908  11.292  0.0141  0.5796  0.3505
46958SOL     OW44150   6.331   4.439   1.947  0.1541 -0.2019 -0.4932
46958SOL    HW144151   6.374   4.441   2.032 -1.7548 -0.0437  0.5307
46958SOL    HW244152   6.289   4.353   1.943 -2.2155  0.8180  0.1059
46959SOL     OW44153   8.928   0.438  10.702  0.4543 -0.3777  0.5094
46959SOL    HW144154   9.000   0.468  10.757  1.3792  3.0303 -2.2249
46959SOL    HW244155   8.863   0.507  10.707 -0.5435 -1.1825 -0.7088
46960SOL     OW44156   1.571  10.814  10.960  0.1202 -0.0811  0.2502
46960SOL    HW144157   1.617  10.812  10.876  1.3804  0.1045  0.9092
46960SOL    HW244158   1.639  10.832  11.024 -1.0188  1.0278  1.1932
46961SOL     OW44159   7.403   9.590   3.258  0.1008  0.0904 -0.1250
46961SOL    HW144160   7.476   9.650   3.275  0.0329  0.2378 -0.3535
46961SOL    HW244161   7.358   9.582   3.342 -0.0677  0.5937 -0.1653
46962SOL     OW44162   5.929   1.128   8.178  0.0379 -0.5100 -0.0325
46962SOL    HW144163   5.956   1.184   8.106  0.0715  0.6275  0.8319
46962SOL    HW244164   5.839   1.154   8.197  0.2781 -0.2545  0.8149
46963SOL     OW44165   0.674   6.969   4.259  0.0640  0.3999 -0.0046
46963SOL    HW144166   0.744   6.904   4.255  0.1492  0.5137 -0.3632
46963SOL    HW244167   0.705   7.034   4.322  0.7773  1.0321 -1.0003
46964SOL     OW44168   4.607   9.904   0.078 -0.1076 -0.3093  0.2070
46964SOL    HW144169   4.585   9.966   0.147  1.1717  0.3148  0.0822
46964SOL    HW244170   4.671   9.846   0.118 -1.4411 -1.7274  0.3864
46965SOL     OW44171   3.634   9.905   1.378 -0.0166 -0.1404 -0.1087
46965SOL    HW144172   3.713   9.860   1.348 -0.0679  0.4495 -1.1919
46965SOL    HW244173   3.569   9.889   1.309 -1.5744 -2.4295  1.7580
46966SOL     OW44174   7.848   0.526   3.221 -0.0864 -0.0291  0.2488
46966SOL    HW144175   7.854   0.433   3.196 -2.4313 -0.1825  0.0200
46966SOL    HW244176   7.864   0.526   3.315 -0.1276 -0.6801  0.2638
46967SOL     OW44177  10.663   4.172  10.980  0.3193 -0.2852 -0.4588
46967SOL    HW144178  10.655   4.081  11.010 -2.0322  0.3008  0.9435
46967SOL    HW244179  10.645   4.224  11.058 -1.8062  1.3617 -1.9370
46968SOL     OW44180   7.695   4.707   1.077  0.1364  0.3125 -0.5681
46968SOL    HW144181   7.758   4.638   1.060  0.8105  1.1872 -1.8229
46968SOL    HW244182   7.610   4.669   1.051  0.0737 -0.9086  1.2491
46969SOL     OW44183  10.148   4.787   7.257 -0.4289  0.4673 -0.4090
46969SOL    HW144184  10.052   4.792   7.250 -0.4283 -0.1954 -1.0719
46969SOL    HW244185  10.168   4.695   7.240  0.3168  0.5631 -0.0878
46970SOL     OW44186   2.183   3.142   9.786 -0.2367  0.3772 -0.3504
46970SOL    HW144187   2.115   3.198   9.747  0.7646  1.5547 -0.4686
46970SOL    HW244188   2.249   3.203   9.819  0.5844 -0.7244  0.1243
46971SOL     OW44189   6.797  11.360   9.204  0.7868 -0.6192 -0.5355
46971SOL    HW144190   6.872  11.310   9.237  0.3857 -0.8200  0.0864
46971SOL    HW244191   6.828  11.451   9.205  1.8232 -0.8850 -2.5009
46972SOL     OW44192   2.593   8.220  10.491 -0.1524  0.6291 -0.2221
46972SOL    HW144193   2.659   8.246  10.555  0.0105  2.1942 -0.9743
46972SOL    HW244194   2.583   8.125  10.504  1.2970  0.5757  0.7682
46973SOL     OW44195   9.475   8.359   6.529  0.3047 -0.2381 -0.2704
46973SOL    HW144196   9.517   8.286   6.574  0.8969  0.1049 -0.2680
46973SOL    HW244197   9.477   8.335   6.437 -0.3621 -0.6611 -0.1807
46974SOL     OW44198   6.838   8.611   6.423 -0.2763 -0.7018 -0.9794
46974SOL    HW144199   6.762   8.646   6.470 -0.9431 -1.3772 -1.5368
46974SOL    HW244200   6.832   8.647   6.335 -0.6971 -1.7930 -1.4162
46975SOL     OW44201   7.530   4.847   3.999 -0.1452  0.0548 -0.2015
46975SOL    HW144202   7.611   4.812   4.036  0.4361 -0.5370 -1.9495
46975SOL    HW244203   7.553   4.874   3.911 -1.5832  1.0533 -0.3158
46976SOL     OW44204   3.794   5.564   5.555  0.3059  0.0798 -0.5493
46976SOL    HW144205   3.840   5.488   5.591  0.0091  0.2326  0.1671
46976SOL    HW244206   3.738   5.527   5.486 -2.0847 -0.8543  1.7322
46977SOL     OW44207   3.998   9.644   0.074  0.2798  0.0780 -0.2271
46977SOL    HW144208   4.086   9.614   0.096 -0.7772 -1.9864  1.6565
46977SOL    HW244209   3.979   9.603  -0.011  0.5037 -0.9541  0.2087
46978SOL     OW44210   8.094   3.243   9.339  0.3429 -0.1761  0.6125
46978SOL    HW144211   8.116   3.149   9.339 -1.2699 -0.5923  1.5267
46978SOL    HW244212   8.002   3.246   9.366 -0.0029  1.6144 -0.5990
46979SOL     OW44213  10.599   0.872   6.947  0.6332  0.5195 -0.1374
46979SOL    HW144214  10.642   0.876   6.862 -1.4445  0.6277 -1.2597
46979SOL    HW244215  10.560   0.959   6.958 -0.5131 -0.0007  0.1075
46980SOL     OW44216   1.410   8.581   4.888 -0.1216 -0.2495  0.7228
46980SOL    HW144217   1.426   8.569   4.794  0.0768 -1.2275  0.8698
46980SOL    HW244218   1.376   8.670   4.895 -3.2545 -1.1852 -0.6888
46981SOL     OW44219   4.325  10.944   4.519 -0.7601 -0.4356  0.1257
46981SOL    HW144220   4.403  10.941   4.463 -1.4824 -1.7171 -0.8805
46981SOL    HW244221   4.356  10.918   4.605  0.0744 -0.0757 -0.0574
46982SOL     OW44222  10.361   8.981   0.242  0.2653 -0.1970 -0.1237
46982SOL    HW144223  10.353   9.053   0.304  3.0509 -0.9682  1.2952
46982SOL    HW244224  10.422   9.013   0.175 -1.2668 -0.0402 -1.5230
46983SOL     OW44225   5.649   0.445   2.135 -0.8188 -0.0610  0.5991
46983SOL    HW144226   5.648   0.540   2.129  1.7216 -0.0837 -2.0126
46983SOL    HW244227   5.727   0.425   2.187  0.7765 -0.6448 -1.8293
46984SOL     OW44228   6.252  11.160   6.943  0.2562 -0.0294  0.0444
46984SOL    HW144229   6.319  11.116   6.996 -0.3330 -0.7336  0.2184
46984SOL    HW244230   6.190  11.091   6.921 -1.2164  0.8808  1.1349
46985SOL     OW44231   0.885   0.886   8.180  0.4445  0.7458 -0.0645
46985SOL    HW144232   0.915   0.874   8.270  1.9834 -0.3383 -0.6709
46985SOL    HW244233   0.839   0.805   8.159  1.8778  0.0815 -0.8645
46986SOL     OW44234   9.010   8.289  11.046 -0.3570  0.0243 -0.0213
46986SOL    HW144235   8.981   8.366  10.997 -0.0358  0.3334  0.2655
46986SOL    HW244236   8.929   8.245  11.072 -0.5294 -0.0556 -0.6862
46987SOL     OW44237   9.898   2.011  10.556 -0.0574 -0.0240  0.2040
46987SOL    HW144238   9.981   2.054  10.534 -0.2888  0.1273 -0.3884
46987SOL    HW244239   9.836   2.044  10.492 -0.5021 -0.3989  0.4346
46988SOL     OW44240   7.478   7.448   8.028 -0.1701  0.0259  0.4449
46988SOL    HW144241   7.384   7.461   8.016 -0.5671 -1.0178  2.0351
46988SOL    HW244242   7.513   7.536   8.040 -1.1388  0.3660  0.9204
46989SOL     OW44243   1.685   7.489   2.928 -0.3745  0.6963 -0.4748
46989SOL    HW144244   1.700   7.394   2.925 -1.4767  0.3415  2.0809
46989SOL    HW244245   1.592   7.499   2.906 -0.0052  1.3270 -1.8228
46990SOL     OW44246   6.681   1.292   9.174 -0.9017 -0.3554 -0.6679
46990SOL    HW144247   6.744   1.359   9.148  0.6472 -1.2094  0.6919
46990SOL    HW244248   6.707   1.214   9.124 -1.1486 -0.5980 -0.4208
46991SOL     OW44249   7.094   3.135   1.358  0.2927  0.3171  0.0092
46991SOL    HW144250   7.119   3.117   1.448  0.8939  0.9516 -0.0208
46991SOL    HW244251   7.155   3.083   1.305  0.2097  0.2623 -0.0319
46992SOL     OW44252   9.101   8.717   2.151 -0.1321 -0.5760 -0.3839
46992SOL    HW144253   9.056   8.709   2.066 -0.2133  0.6763 -0.4872
46992SOL    HW244254   9.065   8.798   2.189 -1.0400 -1.7729  1.4298
46993SOL     OW44255   2.353   9.572   6.814  0.0763 -0.0016 -0.0815
46993SOL    HW144256   2.419   9.640   6.797  0.9683 -0.8795 -0.2772
46993SOL    HW244257   2.403   9.490   6.811 -1.0321 -0.6914 -0.1956
46994SOL     OW44258   8.491   5.524  10.596 -0.1515 -0.7028 -0.0822
46994SOL    HW144259   8.491   5.545  10.503 -1.4882  0.6610  0.1885
46994SOL    HW244260   8.540   5.596  10.636  0.2321 -1.1701  0.2894
46995SOL     OW44261   5.404   2.150   9.639  0.0893  0.3551  0.7799
46995SOL    HW144262   5.405   2.054   9.639  0.8973  0.3620  0.9012
46995SOL    HW244263   5.333   2.173   9.699 -0.4322 -0.1643  0.3820
46996SOL     OW44264  10.587  10.072   5.668  0.2649 -0.0174  0.2470
46996SOL    HW144265  10.639  10.143   5.630  1.6472 -0.9437  0.3176
46996SOL    HW244266  10.570  10.013   5.595  1.9482 -1.2225  0.7548
46997SOL     OW44267   9.331   8.193   4.386  0.4540 -0.2677 -0.3228
46997SOL    HW144268   9.376   8.226   4.308 -2.5655  1.5687 -1.4744
46997SOL    HW244269   9.302   8.105   4.361 -1.0650  0.5517 -1.6384
46998SOL     OW44270   5.883   1.809   6.501  0.0540  0.1927 -0.2871
46998SOL    HW144271   5.797   1.823   6.539 -0.0318 -3.2455  1.0930
46998SOL    HW244272   5.939   1.787   6.576  1.2595 -1.1550 -1.5339
46999SOL     OW44273   5.328   3.529  10.807  0.1381 -0.4156 -0.3322
46999SOL    HW144274   5.310   3.496  10.719  0.2389 -1.9996  0.2202
46999SOL    HW244275   5.323   3.452  10.864 -0.7944  0.6988  1.1936
47000SOL     OW44276   9.508   4.022   5.069  0.3498 -0.5832 -0.4462
47000SOL    HW144277   9.477   3.970   5.144  1.0121 -0.3414  0.0057
47000SOL    HW244278   9.582   4.072   5.103  0.9694 -0.8283 -1.3836
47001SOL     OW44279   5.783   8.843   8.248 -0.2468  0.5682 -0.0089
47001SOL    HW144280   5.860   8.816   8.198 -0.0872  1.0393 -0.0241
47001SOL    HW244281   5.755   8.925   8.207 -0.1202  0.9542  0.6564
47002SOL     OW44282   7.160   8.855   7.687 -0.3335  0.7238  0.1811
47002SOL    HW144283   7.105   8.907   7.745 -0.6246  0.9657 -0.3075
47002SOL    HW244284   7.195   8.918   7.624 -0.6852  0.3412 -0.4098
47003SOL     OW44285   1.546   5.721   2.490  0.0523 -0.2872 -0.3571
47003SOL    HW144286   1.454   5.745   2.481  0.4983  1.5682 -0.3583
47003SOL    HW244287   1.550   5.673   2.572 -1.0598 -1.2699 -0.8475
47004SOL     OW44288   0.217   6.679   7.053  0.4022  0.0826 -0.3534
47004SOL    HW144289   0.276   6.715   7.119 -0.7686 -0.6314  1.1406
47004SOL    HW244290   0.215   6.585   7.072 -0.0527 -0.1297 -1.3607
47005SOL     OW44291   2.143  10.374   5.250 -0.1671 -0.7785  0.0879
47005SOL    HW144292   2.127  10.447   5.191 -1.6109 -1.5216 -0.4824
47005SOL    HW244293   2.238  10.370   5.258 -0.0569  1.0625  0.0372
47006SOL     OW44294  11.023   5.664  10.345 -0.5816 -0.0606 -0.5832
47006SOL    HW144295  11.058   5.579  10.374  2.6919  1.5141  0.6515
47006SOL    HW244296  11.076   5.686  10.269 -1.5781  0.7786 -1.0549
47007SOL     OW44297   8.682   5.899   2.078  0.2236  0.1735 -0.8823
47007SOL    HW144298   8.680   5.991   2.106 -0.1763  0.6290 -2.3397
47007SOL    HW244299   8.774   5.875   2.082  0.1072 -0.1770  1.9348
47008SOL     OW44300  11.069   9.105   1.467  0.2853  0.3180  0.2788
47008SOL    HW144301  11.150   9.065   1.498 -0.5202 -2.4180 -0.8476
47008SOL    HW244302  11.025   9.135   1.546  0.7289 -1.5600  1.3047
47009SOL     OW44303  11.226   3.920  10.131 -0.1131  0.5304  0.1726
47009SOL    HW144304  11.145   3.963  10.103 -0.2938  1.3096  1.7600
47009SOL    HW244305  11.206   3.886  10.218  1.6196  1.9030  1.1827
47010SOL     OW44306   5.745   9.971   3.320  0.6183 -0.0168  0.1382
47010SOL    HW144307   5.721   9.892   3.272  0.3950  0.3624 -0.3763
47010SOL    HW244308   5.775  10.033   3.253 -1.5358  1.2069  0.2357
47011SOL     OW44309   9.039   8.276   6.844 -0.2928  0.2988 -0.5495
47011SOL    HW144310   9.029   8.310   6.755  0.4411  0.2581 -0.6486
47011SOL    HW244311   9.046   8.181   6.833 -0.8225  0.2329 -0.3902
47012SOL     OW44312   4.869   9.472   8.695 -0.3782  0.0515 -0.1538
47012SOL    HW144313   4.909   9.435   8.617 -1.6854 -1.7792 -0.0334
47012SOL    HW244314   4.798   9.411   8.717 -1.7702  1.9404  0.9148
47013SOL     OW44315   2.641   5.147   0.376 -0.0169  0.0085 -0.1762
47013SOL    HW144316   2.546   5.147   0.364 -0.1957  0.2511  1.0904
47013SOL    HW244317   2.671   5.227   0.333 -0.4571  0.2225 -0.0900
47014SOL     OW44318  10.543   2.298   3.894 -0.0495  0.7722  0.4309
47014SOL    HW144319  10.499   2.284   3.810  0.1052 -0.2412  0.5074
47014SOL    HW244320  10.618   2.238   3.892  1.3404  2.4249  0.3277
47015SOL     OW44321   1.979   7.073   3.508  0.1056  0.2118 -0.1811
47015SOL    HW144322   1.984   6.986   3.549  2.0683  0.8023  0.9313
47015SOL    HW244323   1.908   7.065   3.445 -2.1990 -1.1691  2.3442
47016SOL     OW44324   5.932   1.386   2.809 -0.0092 -0.3134 -0.5185
47016SOL    HW144325   5.956   1.339   2.889 -0.5949 -0.1298 -0.2265
47016SOL    HW244326   5.868   1.329   2.767 -1.1123  0.4405  0.0972
47017SOL     OW44327   9.815   8.547   0.714 -0.0412  0.1442  0.4098
47017SOL    HW144328   9.731   8.501   0.721  0.5849 -1.1590 -0.1843
47017SOL    HW244329   9.821   8.571   0.621  0.4512 -0.2307  0.3386
47018SOL     OW44330   8.355   1.132   1.186 -0.3698  0.4938  0.5049
47018SOL    HW144331   8.342   1.226   1.185 -0.4223  0.5408  2.2634
47018SOL    HW244332   8.362   1.109   1.279  0.6776 -1.0972  0.0904
47019SOL     OW44333   4.361   1.980  11.202 -0.2078  0.2628  0.1467
47019SOL    HW144334   4.383   1.955  11.112 -0.0428  1.3355 -0.1264
47019SOL    HW244335   4.386   2.072  11.208  1.6387 -0.2772  1.9017
47020SOL     OW44336  11.253   6.118   1.886 -0.0283 -0.1505  0.1343
47020SOL    HW144337  11.294   6.184   1.942  0.1716 -0.8215  0.7854
47020SOL    HW244338  11.286   6.139   1.798  2.2616 -1.0375  0.7113
47021SOL     OW44339  10.384   1.935   6.090  0.1614 -0.3200 -0.5965
47021SOL    HW144340  10.438   1.964   6.017  1.3463 -0.9822  0.0042
47021SOL    HW244341  10.387   2.007   6.153 -0.1658 -0.1019 -0.8296
47022SOL     OW44342   0.076   2.986   9.015  0.0085  0.1675 -0.5454
47022SOL    HW144343   0.160   2.952   9.045 -0.3785 -1.6920 -1.4367
47022SOL    HW244344   0.062   2.946   8.929 -1.9508  0.1367 -0.2734
47023SOL     OW44345   1.077  11.388   3.018  0.0934 -0.2303  0.5530
47023SOL    HW144346   1.005  11.325   3.026  1.4468 -1.7227  1.5953
47023SOL    HW244347   1.088  11.400   2.924 -0.3295 -1.4212  0.3310
47024SOL     OW44348   4.103   2.426   8.355 -0.5201 -0.1643  0.4096
47024SOL    HW144349   4.191   2.392   8.340 -0.9555 -2.2440  2.0037
47024SOL    HW244350   4.060   2.422   8.270  0.3992 -0.8325 -0.0362
47025SOL     OW44351   0.868   1.535   6.334  0.5574  0.1429  0.4558
47025SOL    HW144352   0.932   1.549   6.403  0.7769 -0.0071  0.2852
47025SOL    HW244353   0.832   1.448   6.351  1.0713 -0.1612  0.0179
47026SOL     OW44354  10.074   8.082   1.103 -0.1710 -0.1427  0.4625
47026SOL    HW144355  10.143   8.072   1.169 -0.3080  1.2325  0.8387
47026SOL    HW244356  10.070   7.996   1.059  2.7046  0.0833 -0.4628
47027SOL     OW44357   7.194   3.522  10.299  0.0812 -0.1864  0.0218
47027SOL    HW144358   7.131   3.450  10.303 -2.7071  1.9266 -1.7828
47027SOL    HW244359   7.171   3.578  10.373 -0.2941  0.6623 -0.7166
47028SOL     OW44360   3.501   7.270   6.492  0.2214 -0.2216 -0.1998
47028SOL    HW144361   3.493   7.238   6.402  1.0100  0.4481 -0.5197
47028SOL    HW244362   3.546   7.200   6.538 -1.6994 -1.3089  0.1068
47029SOL     OW44363   3.308   7.555   7.883 -0.0294  0.3197  0.2384
47029SOL    HW144364   3.380   7.615   7.901  0.2547  0.1736 -0.3732
47029SOL    HW244365   3.230   7.602   7.909  0.1949  0.9501 -0.2172
47030SOL     OW44366   0.758   9.791   4.866  0.2907 -0.7984 -0.4627
47030SOL    HW144367   0.685   9.791   4.804  0.0204  1.8400 -0.2409
47030SOL    HW244368   0.727   9.844   4.939  2.7228  1.2289 -0.7693
47031SOL     OW44369   0.971   2.771   5.169 -0.9230  0.0518  0.0876
47031SOL    HW144370   1.064   2.787   5.154 -1.2430  0.2537 -2.0203
47031SOL    HW244371   0.941   2.846   5.219 -0.1928  0.5849 -0.2584
47032SOL     OW44372   9.782   0.714   5.101  0.1064 -0.0935  0.4587
47032SOL    HW144373   9.768   0.624   5.129 -0.1935 -0.6140 -1.2670
47032SOL    HW244374   9.871   0.714   5.065 -0.8021 -0.4227 -1.9951
47033SOL     OW44375   8.379   3.723  10.842 -0.2385 -0.1283  0.2904
47033SOL    HW144376   8.461   3.685  10.872  0.2865  0.9187  0.2047
47033SOL    HW244377   8.313   3.692  10.904  0.5486  0.6481  1.5286
47034SOL     OW44378   9.748   0.739   7.083 -0.5158  0.5586 -0.5989
47034SOL    HW144379   9.835   0.724   7.047 -0.1247  1.2150  0.0678
47034SOL    HW244380   9.748   0.692   7.166 -0.4679  1.3583 -0.1431
47035SOL     OW44381   4.263   9.250  10.354  0.0056  0.2238  0.6545
47035SOL    HW144382   4.325   9.291  10.415  1.5414 -1.8119  0.5935
47035SOL    HW244383   4.267   9.304  10.275  0.9178  0.7415  1.0337
47036SOL     OW44384   2.282   4.540   7.726  0.3301 -0.0875  0.0585
47036SOL    HW144385   2.349   4.601   7.693 -0.1446 -0.2252 -1.2270
47036SOL    HW244386   2.310   4.454   7.695 -0.8284 -0.0472 -1.2113
47037SOL     OW44387   8.970   7.973   1.818  0.1916  0.0980 -0.1539
47037SOL    HW144388   9.054   7.926   1.822 -0.4611 -0.9975  2.3335
47037SOL    HW244389   8.958   8.008   1.906 -1.4561  1.2127 -0.7866
47038SOL     OW44390   3.425   8.331   9.766 -0.3542 -0.3789 -0.0235
47038SOL    HW144391   3.392   8.256   9.717  1.8480 -2.2828  1.1997
47038SOL    HW244392   3.492   8.369   9.710  1.3896 -1.8899  0.9283
47039SOL     OW44393   7.335   4.031   1.455 -0.7145 -0.2930 -0.0755
47039SOL    HW144394   7.240   4.022   1.457 -0.6067 -1.7678  1.7944
47039SOL    HW244395   7.365   3.964   1.394 -0.8786  0.5951 -1.1560
47040SOL     OW44396   0.150   8.000   3.168  0.0476 -0.0552  0.2359
47040SOL    HW144397   0.157   7.918   3.119 -2.2683  0.3963 -0.9800
47040SOL    HW244398   0.102   7.977   3.248  0.0019 -0.0038  0.2234
47041SOL     OW44399   0.828   4.824   1.922  0.3441  0.1919  0.0330
47041SOL    HW144400   0.770   4.786   1.857  1.4045  0.5780 -1.1861
47041SOL    HW244401   0.793   4.912   1.939  0.6244  0.4750 -0.8016
47042SOL     OW44402  10.030   1.726   6.743  0.3743  0.1612  0.1240
47042SOL    HW144403  10.106   1.732   6.685  0.1082  1.8043 -0.0943
47042SOL    HW244404   9.987   1.645   6.718 -0.7966  1.6911 -3.3623
47043SOL     OW44405   3.679  10.852   2.650 -0.4148 -0.0889 -0.0831
47043SOL    HW144406   3.702  10.943   2.634  1.0512 -0.4763 -0.2966
47043SOL    HW244407   3.648  10.851   2.741 -0.9980  0.6947 -0.2537
47044SOL     OW44408   9.221  10.304   6.999 -0.1405 -0.2496  0.2922
47044SOL    HW144409   9.176  10.373   7.048  0.2769 -1.2781  2.2300
47044SOL    HW244410   9.169  10.225   7.016  0.7074 -0.8712  0.0741
47045SOL     OW44411   4.530   1.325   2.319 -0.0843  0.3040  0.1926
47045SOL    HW144412   4.463   1.279   2.370 -0.3351  2.2668  1.7716
47045SOL    HW244413   4.560   1.395   2.377 -0.0701  2.4195 -2.2311
47046SOL     OW44414   2.961   8.983   4.998  0.0741 -0.6754  0.1663
47046SOL    HW144415   3.017   9.054   5.029  0.8239 -1.4617  0.6268
47046SOL    HW244416   2.877   9.026   4.979  0.7949  0.5037 -0.4939
47047SOL     OW44417   5.932   5.614   9.894  0.4404 -0.1175  0.5152
47047SOL    HW144418   6.010   5.656   9.857 -0.4745  2.4577  1.2828
47047SOL    HW244419   5.946   5.616   9.988  0.0094 -0.8222  0.5987
47048SOL     OW44420   8.292   4.301   8.816 -0.1456 -0.6995 -0.1995
47048SOL    HW144421   8.385   4.289   8.799 -0.2407 -1.2214 -0.3843
47048SOL    HW244422   8.285   4.315   8.910 -0.0154 -2.1641  0.0430
47049SOL     OW44423   0.979   7.442   4.611  0.5033  0.2268  0.1870
47049SOL    HW144424   1.074   7.451   4.617  0.7856 -2.1406  0.3563
47049SOL    HW244425   0.958   7.375   4.677 -1.1894  0.2465 -0.3055
47050SOL     OW44426   6.908   2.195  11.147 -0.3394 -0.0261 -0.2058
47050SOL    HW144427   6.880   2.286  11.141 -3.1177 -0.6939  1.2095
47050SOL    HW244428   6.881   2.155  11.064 -1.0674 -0.0460  0.0421
47051SOL     OW44429  10.358   3.908   8.235  0.3361  0.5725  0.2646
47051SOL    HW144430  10.321   3.830   8.193  0.6782 -0.4554  1.7881
47051SOL    HW244431  10.438   3.877   8.277  0.4306  1.7208  0.9866
47052SOL     OW44432   1.323   4.014   5.944 -0.0131  0.0789 -0.1756
47052SOL    HW144433   1.313   4.109   5.945  0.9658  0.2034 -0.6007
47052SOL    HW244434   1.412   4.000   5.911  0.4316 -0.9394  1.3577
47053SOL     OW44435   7.005   8.166   8.401  0.0386  0.2565  0.1892
47053SOL    HW144436   7.082   8.134   8.447 -1.3422 -2.2864  0.9532
47053SOL    HW244437   7.031   8.167   8.309  1.1894  0.1456  0.5009
47054SOL     OW44438   1.350   0.847   3.609 -0.3770 -0.1305 -0.4900
47054SOL    HW144439   1.259   0.854   3.581 -0.6887 -0.6130  0.3735
47054SOL    HW244440   1.353   0.766   3.660 -0.1113  1.3109  1.9096
47055SOL     OW44441   1.602   1.272   2.573 -0.3238  0.0984  0.3042
47055SOL    HW144442   1.688   1.294   2.610 -0.0191  2.4923 -1.5823
47055SOL    HW244443   1.622   1.209   2.504 -0.7424 -3.2102  2.9293
47056SOL     OW44444   3.768  10.886   2.376  0.1677  0.1611 -0.2133
47056SOL    HW144445   3.839  10.835   2.337  1.5366  1.8142 -0.0300
47056SOL    HW244446   3.742  10.837   2.453 -1.6424 -2.4639 -2.3065
47057SOL     OW44447   6.037   2.583   9.259  0.4690 -0.0773  0.9492
47057SOL    HW144448   6.010   2.561   9.170  0.3282  1.2786  0.6304
47057SOL    HW244449   6.060   2.499   9.299  0.0569 -0.7579 -0.2002
47058SOL     OW44450  10.764  10.807   3.810  0.4694 -0.0666  0.0198
47058SOL    HW144451  10.824  10.738   3.782 -0.1867 -0.8038  0.3911
47058SOL    HW244452  10.678  10.765   3.809  0.0979  0.6729  0.5050
47059SOL     OW44453   5.750   5.518   2.231  0.0095  0.0248  0.3567
47059SOL    HW144454   5.698   5.593   2.259 -0.3650  0.2758 -0.9233
47059SOL    HW244455   5.696   5.442   2.253  0.3052  0.1200  1.4835
47060SOL     OW44456   9.913   3.360   7.105  0.0928 -0.1669 -0.4341
47060SOL    HW144457   9.999   3.394   7.081 -0.8854  1.8802 -1.2695
47060SOL    HW244458   9.885   3.310   7.029  0.7489 -1.3168  0.0594
47061SOL     OW44459   3.722   0.687   3.464  0.0647  0.5749  0.2061
47061SOL    HW144460   3.669   0.762   3.437 -0.3927  0.5620  1.0418
47061SOL    HW244461   3.702   0.675   3.557 -1.3394 -1.7534 -0.3212
47062SOL     OW44462   1.804   9.465   1.291 -0.6288 -0.3116  0.2874
47062SOL    HW144463   1.888   9.445   1.251 -0.4950  0.8656 -0.0528
47062SOL    HW244464   1.782   9.387   1.342 -1.3175 -2.3436 -2.8644
47063SOL     OW44465   9.730   3.927   7.276 -0.4972  0.1700 -0.0536
47063SOL    HW144466   9.672   3.999   7.250 -0.2539  0.0178 -1.0731
47063SOL    HW244467   9.793   3.967   7.336 -0.0381  0.9394 -1.0216
47064SOL     OW44468  10.832  11.273  11.397 -0.0607  0.2225  0.6120
47064SOL    HW144469  10.831  11.196  11.453 -1.2979 -1.3752 -1.4840
47064SOL    HW244470  10.740  11.300  11.391  0.0911  0.5839 -0.3393
47065SOL     OW44471   2.515   0.431   6.630  0.3059 -0.5152  0.3586
47065SOL    HW144472   2.492   0.473   6.713 -1.2016  2.3863 -1.3731
47065SOL    HW244473   2.607   0.451   6.618  0.0899  0.6860  0.5213
47066SOL     OW44474   8.669   1.268   9.762 -0.3810  0.3917 -0.9083
47066SOL    HW144475   8.759   1.302   9.759 -0.1768 -0.1719 -1.4843
47066SOL    HW244476   8.644   1.259   9.670 -1.1786  0.9090 -0.7510
47067SOL     OW44477   5.797   3.741   7.237 -0.4131  0.3129  0.0053
47067SOL    HW144478   5.755   3.805   7.180 -0.6567  0.1601  0.0070
47067SOL    HW244479   5.791   3.659   7.188 -1.4306  0.0001  0.6217
47068SOL     OW44480   6.347   6.980   0.039  0.0173  0.1402 -0.3158
47068SOL    HW144481   6.428   6.981  -0.012 -0.0418  1.4014 -0.4246
47068SOL    HW244482   6.371   7.020   0.123 -0.6911  1.4388 -0.7050
47069SOL     OW44483   7.564   2.004  10.863 -0.3877 -0.9445 -0.5063
47069SOL    HW144484   7.524   2.086  10.836  0.3934 -0.2729  0.3289
47069SOL    HW244485   7.581   2.015  10.956 -0.1311 -2.0001 -0.4185
47070SOL     OW44486   6.565   5.794   2.264 -0.4375  0.0686 -0.0267
47070SOL    HW144487   6.515   5.712   2.266 -0.2692 -0.1117 -1.6903
47070SOL    HW244488   6.550   5.833   2.350 -2.5833 -0.4910 -0.0813
47071SOL     OW44489   1.601  10.635   5.617  0.4735  0.0043  0.4741
47071SOL    HW144490   1.629  10.580   5.544  0.1837 -0.1868  0.5027
47071SOL    HW244491   1.654  10.605   5.692  0.8933  0.3185  0.3045
47072SOL     OW44492   0.507  10.046   7.327 -0.4349 -0.1236 -0.1810
47072SOL    HW144493   0.581   9.992   7.356  0.1692 -0.0944 -1.5787
47072SOL    HW244494   0.460   9.991   7.265  0.7054  1.1947 -2.3232
47073SOL     OW44495  11.006   7.532   3.440 -0.3663 -0.2099 -0.5110
47073SOL    HW144496  10.914   7.550   3.461  0.0131  1.7692 -0.2814
47073SOL    HW244497  11.052   7.549   3.522  0.3904  0.7180 -1.1103
47074SOL     OW44498   8.809   8.501   6.013 -0.1238  0.3250  0.1852
47074SOL    HW144499   8.904   8.493   6.022 -0.0422  0.4224 -0.5190
47074SOL    HW244500   8.789   8.588   6.046  0.0960  0.4928 -0.1181
47075SOL     OW44501   5.579   3.987   5.635 -0.0862 -0.0718  0.5815
47075SOL    HW144502   5.564   3.936   5.715 -0.9376 -2.0372 -0.7504
47075SOL    HW244503   5.657   3.946   5.596 -0.0078  0.5070  0.1249
47076SOL     OW44504   5.717   3.323   4.330  0.5148  0.1206 -0.5846
47076SOL    HW144505   5.700   3.253   4.266 -0.5811  1.0382 -1.3377
47076SOL    HW244506   5.633   3.368   4.339  1.2064  1.3636 -0.1384
47077SOL     OW44507   6.413   9.713   9.065 -0.1200  0.0348 -0.4174
47077SOL    HW144508   6.378   9.706   8.976 -1.0478 -1.7461  0.0566
47077SOL    HW244509   6.358   9.655   9.117  0.9207  0.4384  1.1822
47078SOL     OW44510   4.046   5.279   9.469  0.2460 -0.8495 -0.3175
47078SOL    HW144511   4.119   5.264   9.530  1.7987  0.1463 -1.8392
47078SOL    HW244512   4.075   5.239   9.387 -0.1436  1.0670 -1.4307
47079SOL     OW44513   6.133   3.228   9.553 -0.2117 -0.2057  0.2685
47079SOL    HW144514   6.119   3.269   9.467  0.4339 -0.3995  0.0633
47079SOL    HW244515   6.178   3.296   9.604 -1.7236  0.3759  0.8877
47080SOL     OW44516   5.683   0.669   4.438 -0.1120  0.2887 -0.2057
47080SOL    HW144517   5.772   0.637   4.449 -0.1029  0.2208 -0.4692
47080SOL    HW244518   5.645   0.612   4.371 -0.1009  0.8184 -0.6695
47081SOL     OW44519  10.397   6.044   4.032 -0.4449  0.2914  0.1761
47081SOL    HW144520  10.482   6.021   4.067  0.3822 -0.1979 -1.9722
47081SOL    HW244521  10.368   5.965   3.985 -2.2775  0.3172  1.1481
47082SOL     OW44522   6.058   7.000   5.728 -0.0724  0.5877 -0.2132
47082SOL    HW144523   6.101   7.085   5.743  1.4399 -0.2717  0.5457
47082SOL    HW244524   6.065   6.986   5.634 -3.1414  2.6816 -0.9049
47083SOL     OW44525   1.908   9.431   7.452  0.4951  0.1446 -0.2364
47083SOL    HW144526   1.994   9.396   7.430  0.5561 -0.0324  0.2752
47083SOL    HW244527   1.852   9.354   7.463 -0.2628  0.2667 -2.5581
47084SOL     OW44528   6.231   9.028  10.732  0.5938 -0.2353  0.2348
47084SOL    HW144529   6.245   8.939  10.701 -1.0727  0.4231 -2.7189
47084SOL    HW244530   6.277   9.083  10.670  0.1558  1.0425  0.9996
47085SOL     OW44531   1.751   0.680   7.417 -0.1415 -0.0096  0.2044
47085SOL    HW144532   1.823   0.619   7.437 -0.4454 -0.3655  0.2398
47085SOL    HW244533   1.789   0.767   7.427  0.3828 -0.1955 -0.1416
47086SOL     OW44534   1.042   0.742   7.907  0.0079  0.2773  0.1162
47086SOL    HW144535   1.030   0.658   7.950 -1.7756  0.5858  0.2982
47086SOL    HW244536   0.967   0.750   7.847 -0.7615  2.3771  1.2385
47087SOL     OW44537  10.547   9.196   0.161  0.4263  0.3262 -0.1847
47087SOL    HW144538  10.604   9.243   0.100  0.5119  0.2453 -0.1674
47087SOL    HW244539  10.587   9.110   0.169  0.4490  0.3567  0.0352
47088SOL     OW44540   2.112   4.237   8.232  0.1687  0.1993 -0.5875
47088SOL    HW144541   2.025   4.204   8.258  0.1576  1.8235  1.7472
47088SOL    HW244542   2.157   4.160   8.197 -1.8311 -0.9272 -0.8428
47089SOL     OW44543   2.053   1.689   4.774 -0.1799  0.1075  0.0344
47089SOL    HW144544   2.124   1.639   4.736 -0.3537  0.4138 -0.7014
47089SOL    HW244545   1.980   1.627   4.781 -0.3351  0.2046 -0.6976
47090SOL     OW44546  11.107   4.720   9.112 -0.0465 -0.8411  0.3986
47090SOL    HW144547  11.023   4.701   9.155  0.0904 -0.0539  1.0460
47090SOL    HW244548  11.083   4.753   9.026 -0.5589  1.6603  1.4083
47091SOL     OW44549   5.202   6.191   1.832 -0.1977 -0.1861  0.4216
47091SOL    HW144550   5.135   6.257   1.846  0.1594  0.3450 -0.3017
47091SOL    HW244551   5.282   6.229   1.869 -0.1641 -0.5605  0.7415
47092SOL     OW44552   9.549   3.742   5.928  0.8349  0.4818  0.1680
47092SOL    HW144553   9.522   3.707   6.013  0.2111  1.7329  0.5178
47092SOL    HW244554   9.641   3.718   5.921  0.7813 -0.0301  0.9975
47093SOL     OW44555   9.301   4.238   3.895 -0.2753  0.0642 -0.1233
47093SOL    HW144556   9.210   4.207   3.897  0.1040 -1.1058 -0.2782
47093SOL    HW244557   9.296   4.324   3.855 -1.2083 -0.4433 -1.1562
47094SOL     OW44558   3.320   0.313   3.886 -0.6559  0.3525  0.0650
47094SOL    HW144559   3.249   0.287   3.945 -0.7008 -0.7231 -0.4356
47094SOL    HW244560   3.370   0.232   3.872 -1.3664  0.2412 -2.3448
47095SOL     OW44561   5.608  10.267  10.466 -0.1215  0.2746  0.0740
47095SOL    HW144562   5.682  10.209  10.448 -0.7900 -0.2466 -1.1360
47095SOL    HW244563   5.561  10.223  10.537 -0.6110 -0.6976 -0.8209
47096SOL     OW44564   4.961  10.113   2.877  0.0262 -0.1783  0.5545
47096SOL    HW144565   5.029  10.099   2.811 -0.3320 -0.0006  0.1438
47096SOL    HW244566   4.909  10.186   2.843 -0.1642 -0.0862  1.0331
47097SOL     OW44567   5.681   2.199   6.867 -0.6943  0.3530  0.1431
47097SOL    HW144568   5.603   2.254   6.855 -1.4757 -1.0772 -1.9085
47097SOL    HW244569   5.647   2.116   6.898 -0.0052 -0.2703 -0.7268
47098SOL     OW44570   4.349   0.521   1.383 -0.3988  0.0465  0.5890
47098SOL    HW144571   4.263   0.547   1.351 -0.7666 -1.3876  0.3049
47098SOL    HW244572   4.408   0.590   1.355 -1.0903 -0.0488 -1.2385
47099SOL     OW44573   2.720   2.356   5.544 -0.6251 -0.2214 -0.2453
47099SOL    HW144574   2.641   2.397   5.509 -1.5588 -2.3771 -0.8443
47099SOL    HW244575   2.689   2.307   5.620 -0.0719 -1.8065 -1.0007
47100SOL     OW44576   3.156   5.395   3.603  0.1900 -0.2664 -0.6746
47100SOL    HW144577   3.131   5.465   3.542  1.5973  0.0867 -0.8795
47100SOL    HW244578   3.078   5.339   3.607 -1.4961  1.9902  0.5472
47101SOL     OW44579   4.399   8.453  11.185 -0.5639 -0.2882  0.2980
47101SOL    HW144580   4.443   8.500  11.256  0.7839 -1.6241  0.3901
47101SOL    HW244581   4.433   8.493  11.105 -0.9053  0.1825  0.3853
47102SOL     OW44582  11.178   8.476   2.528  0.1171 -0.0212  0.0039
47102SOL    HW144583  11.228   8.508   2.453 -1.0134 -2.1767 -1.8375
47102SOL    HW244584  11.087   8.494   2.505 -0.1560  1.6648  2.1642
47103SOL     OW44585   3.419   9.365   0.771  0.5201  0.5970  1.0582
47103SOL    HW144586   3.413   9.459   0.760  0.2050  0.3663 -1.1151
47103SOL    HW244587   3.328   9.335   0.778  0.4245  0.1996 -1.2209
47104SOL     OW44588   6.984   8.770   6.667  0.2004 -0.6305  0.4094
47104SOL    HW144589   6.895   8.783   6.633  0.2799 -0.6024  0.2119
47104SOL    HW244590   6.996   8.842   6.729 -0.3643 -1.3326  1.3569
47105SOL     OW44591   0.871   0.487   6.341 -0.0103 -0.0958  0.1795
47105SOL    HW144592   0.795   0.469   6.396 -0.2917 -1.4097 -0.5961
47105SOL    HW244593   0.837   0.483   6.252  0.3388  2.4508 -0.1395
47106SOL     OW44594   2.562  10.048   2.021 -0.2010 -0.2421 -0.4867
47106SOL    HW144595   2.575  10.060   2.115 -0.2874 -1.1318 -0.3565
47106SOL    HW244596   2.575   9.955   2.006  4.5316  0.4168 -2.0936
47107SOL     OW44597   1.312   8.112   1.429  0.3904  0.0084 -0.4011
47107SOL    HW144598   1.264   8.172   1.372 -1.3792 -1.9248 -1.0498
47107SOL    HW244599   1.396   8.156   1.444 -0.6592  2.4570 -1.1197
47108SOL     OW44600   3.400   7.125   8.195  0.1439 -0.1304  0.3429
47108SOL    HW144601   3.312   7.087   8.199  0.7781 -1.9024 -1.3046
47108SOL    HW244602   3.446   7.085   8.269  0.6172 -2.2593 -1.0020
47109SOL     OW44603   7.225   3.156   7.362 -0.1367 -0.1070  0.0798
47109SOL    HW144604   7.169   3.163   7.439 -0.8287 -1.6084 -0.2387
47109SOL    HW244605   7.266   3.242   7.354 -2.3256  1.0368  0.3738
47110SOL     OW44606   7.779   8.891   1.830 -0.2512  0.1281  0.5515
47110SOL    HW144607   7.718   8.828   1.794 -0.2959  0.5324 -0.1092
47110SOL    HW244608   7.839   8.839   1.883 -0.2774 -0.4704  0.0083
47111SOL     OW44609   1.203   5.278   4.636 -0.3499  0.2103 -0.0602
47111SOL    HW144610   1.198   5.233   4.720  0.7100  1.7402  0.8604
47111SOL    HW244611   1.193   5.371   4.657  0.3674  0.6700 -1.5586
47112SOL     OW44612   4.443   9.176   7.793 -0.3337 -0.4659  0.1407
47112SOL    HW144613   4.394   9.258   7.799  1.4524  0.6340  0.4879
47112SOL    HW244614   4.484   9.179   7.706  2.3972  0.6680  1.3569
47113SOL     OW44615   4.717   5.018   0.101 -0.4599 -0.3612 -0.4036
47113SOL    HW144616   4.657   4.947   0.123 -0.0801  0.1626  2.7973
47113SOL    HW244617   4.669   5.098   0.120 -0.4287  0.2894 -2.7218
47114SOL     OW44618   5.493   5.424   9.143 -0.2223  0.0796  0.6557
47114SOL    HW144619   5.467   5.333   9.134 -0.5782  0.3567 -1.5038
47114SOL    HW244620   5.584   5.426   9.112 -1.4157  1.0304 -3.3568
47115SOL     OW44621   4.976  11.130   1.964  0.3834  0.5150  0.5078
47115SOL    HW144622   4.918  11.196   1.926  0.8040  0.6098  0.0151
47115SOL    HW244623   5.025  11.177   2.031  0.2273  0.5475  0.5999
47116SOL     OW44624   1.464  10.788   3.400 -0.0235  0.0891 -0.4409
47116SOL    HW144625   1.503  10.823   3.480 -0.6709 -0.0128 -0.0743
47116SOL    HW244626   1.459  10.693   3.415  0.2977  0.0114 -0.8012
47117SOL     OW44627   0.879   9.706   5.243 -0.1664 -0.0505 -0.2515
47117SOL    HW144628   0.897   9.797   5.221 -0.4830  0.0340 -0.1661
47117SOL    HW244629   0.942   9.655   5.192 -1.3430  0.0913 -1.9369
47118SOL     OW44630   6.465  10.023   4.760  0.9539  0.4295  0.6201
47118SOL    HW144631   6.561  10.013   4.764  1.1230  1.3177 -0.4304
47118SOL    HW244632   6.440  10.052   4.847  1.6214  0.0149  0.9570
47119SOL     OW44633   9.149  11.240   6.605 -0.5789 -0.0468 -0.5431
47119SOL    HW144634   9.119  11.214   6.692  0.6270  0.5948  0.0821
47119SOL    HW244635   9.158  11.157   6.557  0.0005 -0.5155  0.3557
47120SOL     OW44636   9.780   0.924   1.087  0.1320  0.2013  0.2360
47120SOL    HW144637   9.695   0.884   1.102  0.7852 -0.9190  1.1510
47120SOL    HW244638   9.780   1.002   1.142  0.4356 -0.9174  1.9180
47121SOL     OW44639   7.909   3.628   2.688 -0.2829  0.1609 -0.1260
47121SOL    HW144640   7.828   3.662   2.651 -0.6380  0.0317  0.5301
47121SOL    HW244641   7.949   3.578   2.616 -0.6738  0.3998 -0.5124
47122SOL     OW44642   8.512   2.156   6.668 -0.5257  0.5939  0.1175
47122SOL    HW144643   8.498   2.100   6.744 -1.2399  0.1291 -0.3457
47122SOL    HW244644   8.526   2.243   6.706 -2.5921  0.7159  0.7680
47123SOL     OW44645   3.996   6.870   6.382 -0.2355 -0.3279 -0.5325
47123SOL    HW144646   3.913   6.912   6.407 -0.6999 -1.1569 -0.6414
47123SOL    HW244647   3.976   6.777   6.380  0.3231 -0.4503 -1.9287
47124SOL     OW44648   6.045   1.873   7.170 -0.3332  0.8957  0.3419
47124SOL    HW144649   6.138   1.884   7.151 -0.6577  0.0600 -2.1221
47124SOL    HW244650   6.010   1.962   7.174 -0.0441  1.2278 -2.5464
47125SOL     OW44651   4.632   2.418   2.574  0.5785  0.7485 -0.3155
47125SOL    HW144652   4.721   2.452   2.574  1.2617 -0.9552 -0.0624
47125SOL    HW244653   4.616   2.391   2.665 -0.9110  2.7343  0.0831
47126SOL     OW44654   8.821   8.606   1.620  0.2293 -0.3009 -0.2466
47126SOL    HW144655   8.766   8.666   1.671  1.2168  0.6768 -0.2723
47126SOL    HW244656   8.893   8.661   1.590  0.2111 -1.0946 -1.8454
47127SOL     OW44657   1.500   0.988   1.629  0.3434  0.1166 -0.0436
47127SOL    HW144658   1.432   1.019   1.569  1.0895 -0.2675 -1.1069
47127SOL    HW244659   1.475   0.898   1.649 -0.8748  0.7796  1.6736
47128SOL     OW44660   8.003   7.723   2.793  0.8699  0.7675  0.2605
47128SOL    HW144661   8.056   7.643   2.783  1.1069  1.0275 -0.7569
47128SOL    HW244662   7.913   7.694   2.780  0.8195  0.4396  1.2881
47129SOL     OW44663   0.129   3.109   3.297  0.4025  0.2845 -0.2378
47129SOL    HW144664   0.141   3.041   3.364  0.5595  0.2503 -0.3004
47129SOL    HW244665   0.194   3.089   3.230 -0.0454  0.0575 -0.6157
47130SOL     OW44666   6.930  10.497   0.174 -0.2473  0.0147  0.3264
47130SOL    HW144667   7.012  10.470   0.214 -0.6611  0.3962  1.4624
47130SOL    HW244668   6.877  10.531   0.246 -0.4521  2.1302 -0.7279
47131SOL     OW44669   5.024   9.380   0.108 -0.5594  0.5459 -0.5437
47131SOL    HW144670   5.014   9.295   0.063  1.7921 -1.1850  1.8890
47131SOL    HW244671   4.949   9.385   0.166  0.2109 -0.8580  0.6387
47132SOL     OW44672   7.303   6.250   5.836  0.0738 -0.1117  0.3058
47132SOL    HW144673   7.309   6.344   5.854 -1.5375 -0.0058  0.4301
47132SOL    HW244674   7.372   6.211   5.890  0.0642  0.8944  1.0781
47133SOL     OW44675   8.954   6.226   2.716 -0.1624 -0.4522 -0.1164
47133SOL    HW144676   8.921   6.136   2.714  0.1318 -0.6379  1.8401
47133SOL    HW244677   8.980   6.240   2.807  0.8248  1.2527 -0.6235
47134SOL     OW44678   8.349  10.983   4.863  0.2070  0.4907  0.5352
47134SOL    HW144679   8.293  11.035   4.921 -0.2860  0.5679  0.0024
47134SOL    HW244680   8.297  10.972   4.783  1.1307  0.9624 -0.1490
47135SOL     OW44681   4.841   3.242   6.257 -0.0578 -0.7380  0.0434
47135SOL    HW144682   4.890   3.163   6.279  0.5050 -0.4305 -0.1024
47135SOL    HW244683   4.839   3.243   6.162 -2.1964 -1.8850  0.0024
47136SOL     OW44684   1.665   6.758   5.812 -0.0993 -0.3248 -0.2539
47136SOL    HW144685   1.682   6.755   5.718 -0.5544 -2.1608 -0.3013
47136SOL    HW244686   1.575   6.789   5.818 -1.2627 -3.3433 -0.6364
47137SOL     OW44687   3.113   6.706   3.577 -0.4384  0.3816 -0.0951
47137SOL    HW144688   3.074   6.707   3.664 -1.5945  0.9613 -0.5970
47137SOL    HW244689   3.142   6.615   3.565 -1.1603  0.0631  0.5021
47138SOL     OW44690   5.884   2.748   1.122 -0.0912  0.0546 -0.2486
47138SOL    HW144691   5.805   2.708   1.158 -0.0170 -0.3634 -0.5391
47138SOL    HW244692   5.956   2.699   1.161  0.0048 -0.0053 -0.4961
47139SOL     OW44693   8.306  10.742   7.996 -0.2655  0.4950  0.1373
47139SOL    HW144694   8.255  10.821   7.980 -0.5831  0.2538 -0.0353
47139SOL    HW244695   8.242  10.672   8.000  0.0377  0.2090  0.0504
47140SOL     OW44696   3.730   3.443   8.292 -0.1640  0.4350  0.4967
47140SOL    HW144697   3.664   3.374   8.294 -0.2184  0.5057  1.6662
47140SOL    HW244698   3.727   3.477   8.202 -1.7731  0.5146  0.5605
47141SOL     OW44699   9.546   2.073   8.580 -0.2111  0.2473 -0.3429
47141SOL    HW144700   9.493   2.153   8.582  0.6113  0.7950  0.2915
47141SOL    HW244701   9.550   2.049   8.488 -1.2988  0.3637 -0.4336
47142SOL     OW44702   5.633   7.410   4.054  0.2330 -0.3077 -0.1645
47142SOL    HW144703   5.685   7.479   4.012 -1.1742  1.6745  1.1412
47142SOL    HW244704   5.691   7.374   4.121  0.6349  0.4456 -0.0898
47143SOL     OW44705   5.570   2.409   7.095 -0.2210  0.7937 -0.0510
47143SOL    HW144706   5.629   2.334   7.102  0.1596  1.1496  0.6156
47143SOL    HW244707   5.520   2.393   7.015  2.4678  1.7079 -2.0500
47144SOL     OW44708   1.666   5.879   9.761 -0.7175  0.1862  0.0581
47144SOL    HW144709   1.622   5.901   9.679 -1.9000  2.3282  1.1965
47144SOL    HW244710   1.617   5.804   9.796 -0.4483 -0.4810 -0.9532
47145SOL     OW44711   0.407   7.815   7.717 -0.6634 -0.0129  0.1476
47145SOL    HW144712   0.385   7.900   7.679 -1.0562 -0.0833  0.2104
47145SOL    HW244713   0.410   7.831   7.812 -0.5818 -0.0321  0.1478
47146SOL     OW44714   3.120   9.815   2.840  0.3785 -0.3269  0.1095
47146SOL    HW144715   3.171   9.872   2.782  0.7777  0.4114  1.1524
47146SOL    HW244716   3.183   9.783   2.904  0.2697 -2.4353 -0.7774
47147SOL     OW44717   1.525   2.236   4.413  0.3266 -0.1448  0.2087
47147SOL    HW144718   1.579   2.233   4.491  1.5239  1.3578 -0.5074
47147SOL    HW244719   1.493   2.327   4.409 -1.4241 -0.7227  0.0379
47148SOL     OW44720   1.885  10.831   3.335 -0.6115  0.2399 -0.0230
47148SOL    HW144721   1.802  10.827   3.382 -1.0649 -0.4915 -0.8448
47148SOL    HW244722   1.861  10.862   3.247  0.1626  1.2228  0.0902
47149SOL     OW44723   1.382   3.813   8.325  0.3639 -0.2628  0.2657
47149SOL    HW144724   1.317   3.848   8.264  1.0849  1.5086  0.4454
47149SOL    HW244725   1.433   3.889   8.352 -0.2999 -0.8425  3.5770
47150SOL     OW44726   6.786   8.245   9.090 -0.3059 -0.2262  0.1561
47150SOL    HW144727   6.861   8.305   9.086  0.1942 -0.6645  1.8614
47150SOL    HW244728   6.811   8.172   9.034  1.2524 -1.0604  1.8460
47151SOL     OW44729   9.513   8.908   4.796 -0.1927 -0.2767 -0.2661
47151SOL    HW144730   9.559   8.989   4.773  1.1486 -1.3883 -1.7342
47151SOL    HW244731   9.420   8.931   4.789  0.0153  1.9632  2.4960
47152SOL     OW44732   8.868   0.430  11.373  0.0851  0.1723  0.2345
47152SOL    HW144733   8.949   0.467  11.407 -0.5416 -0.1497  2.2104
47152SOL    HW244734   8.855   0.473  11.289  1.1422  1.8973  0.9095
47153SOL     OW44735   8.812   8.793   7.429 -0.2594  0.3530  0.1589
47153SOL    HW144736   8.856   8.760   7.351  0.3999 -0.0501  0.6907
47153SOL    HW244737   8.865   8.867   7.457 -0.9990  1.0625 -0.2776
47154SOL     OW44738   5.495   1.989   1.162 -0.3242  0.6191 -0.7237
47154SOL    HW144739   5.485   1.936   1.083 -1.3101  1.6168 -1.3012
47154SOL    HW244740   5.571   1.952   1.206 -0.4765 -0.7253 -1.5257
47155SOL     OW44741   3.994   8.369  11.037  0.7792  0.4572  0.1012
47155SOL    HW144742   3.973   8.398  11.126  0.3834  0.1398  0.1137
47155SOL    HW244743   4.066   8.307  11.048  1.0533  0.7855  0.1569
47156SOL     OW44744   4.668   7.836   0.275  0.1077 -0.5442 -0.5513
47156SOL    HW144745   4.650   7.891   0.199  1.2124  0.7298  0.0802
47156SOL    HW244746   4.749   7.871   0.312 -0.5219 -0.9840  1.3533
47157SOL     OW44747   7.306   7.050   6.956 -0.1638  0.7610  0.1421
47157SOL    HW144748   7.304   7.014   6.868  0.2151  1.3767 -0.1167
47157SOL    HW244749   7.280   6.976   7.012 -0.0886  0.2809 -0.4468
47158SOL     OW44750   2.095   6.651   4.947 -0.0537 -0.6192 -0.0085
47158SOL    HW144751   2.174   6.641   4.895 -0.3915  0.0489 -0.6678
47158SOL    HW244752   2.125   6.654   5.038  0.9619  2.0713 -0.3417
47159SOL     OW44753   3.413   9.095   3.115  0.0800  0.4984 -0.0199
47159SOL    HW144754   3.326   9.066   3.088  0.9022  0.3151 -2.7372
47159SOL    HW244755   3.408   9.191   3.112 -0.2963  0.5292  0.9518
47160SOL     OW44756   9.447   6.598   3.102  0.1096  0.1060  0.3463
47160SOL    HW144757   9.461   6.684   3.140  2.2075  0.0272 -0.0746
47160SOL    HW244758   9.531   6.577   3.059 -1.2248 -0.9527 -1.9599
47161SOL     OW44759   4.457   2.628   7.959  0.5728  0.4659  0.4904
47161SOL    HW144760   4.509   2.649   7.881  0.2298 -0.2854  0.0466
47161SOL    HW244761   4.487   2.690   8.025  1.9500  0.1393  0.2024
47162SOL     OW44762   6.955   8.173   2.838  0.3279 -0.0947 -0.2348
47162SOL    HW144763   6.891   8.138   2.777  1.1486 -1.2527 -0.4460
47162SOL    HW244764   7.034   8.185   2.786  1.1870 -1.5728  0.6808
47163SOL     OW44765   8.881   2.920  11.349  0.3285  0.4063 -0.0703
47163SOL    HW144766   8.915   2.831  11.356  1.4456  0.7216 -1.0906
47163SOL    HW244767   8.786   2.909  11.343  0.4271 -0.6907  0.1888
47164SOL     OW44768   7.272   2.023   5.415  0.0510  0.1080 -0.7389
47164SOL    HW144769   7.178   2.038   5.407  0.0469  1.6399  1.3831
47164SOL    HW244770   7.295   1.972   5.337 -2.4714 -0.1201 -1.4183
47165SOL     OW44771   6.270   7.886   2.570  0.1105  0.1633  0.2009
47165SOL    HW144772   6.256   7.936   2.490 -1.0655 -0.0512  0.2560
47165SOL    HW244773   6.328   7.942   2.623  0.4008  0.5725 -0.5330
47166SOL     OW44774   0.341   8.000   5.613 -0.2319  0.1062  0.4098
47166SOL    HW144775   0.327   8.095   5.606 -1.2681 -0.1006 -0.7438
47166SOL    HW244776   0.354   7.971   5.523  0.8903 -0.7524  0.8245
47167SOL     OW44777   8.865   4.297   0.428 -0.1754 -0.2642 -0.3534
47167SOL    HW144778   8.864   4.208   0.465 -0.5748  0.2883  1.0488
47167SOL    HW244779   8.814   4.290   0.348  0.4319 -1.4532 -0.6585
47168SOL     OW44780   8.336   4.025  10.924 -0.2293  0.3945  0.5914
47168SOL    HW144781   8.384   3.956  10.970  1.1281  1.0676  0.2327
47168SOL    HW244782   8.398   4.060  10.860 -1.0846  1.5247  0.3343
47169SOL     OW44783   5.051   6.135   3.706 -0.4106 -0.1290  0.3051
47169SOL    HW144784   5.101   6.056   3.685  1.0468  0.5025  1.2521
47169SOL    HW244785   4.996   6.150   3.629  0.3156 -1.2722 -0.4629
47170SOL     OW44786   6.469   3.729  10.071 -0.1706 -0.1738  0.2793
47170SOL    HW144787   6.498   3.788  10.001  0.7763  1.1283  1.7041
47170SOL    HW244788   6.497   3.642  10.042 -1.2629  0.0760 -1.6913
47171SOL     OW44789   4.766   2.562   3.119 -1.0431 -0.5681  0.3601
47171SOL    HW144790   4.773   2.475   3.080 -2.6575 -0.2032 -0.8457
47171SOL    HW244791   4.785   2.623   3.048 -2.3239  0.0855  0.5310
47172SOL     OW44792   5.748   5.112   5.376  0.4357  0.5660  1.2498
47172SOL    HW144793   5.695   5.191   5.365  0.1167  0.1415 -0.6229
47172SOL    HW244794   5.718   5.054   5.306  2.4412 -0.2284  0.9936
47173SOL     OW44795   5.041   0.102  10.155 -0.0406  0.1313  0.4696
47173SOL    HW144796   4.991   0.093  10.074  1.2088  0.1695 -0.3350
47173SOL    HW244797   5.031   0.017  10.198 -1.4199  0.3929  0.7205
47174SOL     OW44798   9.238   8.393   4.014  0.4758  0.4328  0.2852
47174SOL    HW144799   9.267   8.343   3.938  1.2824  0.7698  0.3579
47174SOL    HW244800   9.301   8.371   4.083 -1.0186 -0.9098  1.2805
47175SOL     OW44801  11.078   4.221   5.815  0.4602 -0.3847 -0.3247
47175SOL    HW144802  11.026   4.258   5.886 -0.4515 -0.4457 -0.9448
47175SOL    HW244803  11.031   4.246   5.735  1.3607 -0.4823 -0.8999
47176SOL     OW44804   7.211   2.743   5.717 -0.3760 -0.3819 -0.0378
47176SOL    HW144805   7.282   2.808   5.714 -1.3544  1.0661  3.2630
47176SOL    HW244806   7.136   2.788   5.677 -0.3591 -0.5233 -0.2284
47177SOL     OW44807   1.135   4.297   7.607 -0.1371 -0.1915  0.4704
47177SOL    HW144808   1.190   4.310   7.530  1.9164  1.2899  2.0737
47177SOL    HW244809   1.124   4.384   7.644 -0.3479 -0.9489  2.3011
47178SOL     OW44810   8.916   5.632   3.548  0.0965 -0.4314 -0.4045
47178SOL    HW144811   9.002   5.665   3.520 -0.0615  0.4745  0.1617
47178SOL    HW244812   8.859   5.709   3.547 -0.1445 -0.5387  1.5032
47179SOL     OW44813   1.933   8.202   2.110 -0.4060  0.3095  0.7825
47179SOL    HW144814   1.921   8.263   2.037  0.5431  0.3651  0.6530
47179SOL    HW244815   1.915   8.116   2.073  0.5995  0.2822  0.3282
47180SOL     OW44816   9.762   7.030  11.329 -0.6160 -0.0425 -0.2878
47180SOL    HW144817   9.736   7.118  11.301 -1.4009 -0.4270 -0.8142
47180SOL    HW244818   9.685   6.996  11.374  0.0202 -0.1122  0.7915
47181SOL     OW44819   1.315   4.688   6.089  0.4114  0.8135 -0.1198
47181SOL    HW144820   1.404   4.718   6.108  0.4995  0.0851  0.7056
47181SOL    HW244821   1.308   4.692   5.994  1.5259  0.3440 -0.2394
47182SOL     OW44822   0.169   6.991   1.936  0.2467 -0.1843  0.0210
47182SOL    HW144823   0.142   6.906   1.971 -0.0661 -0.3352 -0.5791
47182SOL    HW244824   0.263   6.981   1.918  0.4854 -0.0055  1.0933
47183SOL     OW44825   9.008   2.141   9.779 -0.0902  0.3597  0.3406
47183SOL    HW144826   9.066   2.067   9.793 -0.3518  0.0375 -0.2418
47183SOL    HW244827   8.961   2.121   9.698 -0.6288  0.8593  0.5123
47184SOL     OW44828   1.946   0.932   8.644 -0.9529  0.0583 -0.2279
47184SOL    HW144829   1.928   1.000   8.579  1.7475 -0.1664 -1.3686
47184SOL    HW244830   1.967   0.854   8.592 -0.7830 -0.7284  0.9773
47185SOL     OW44831   0.145   6.365   1.518 -0.5375  0.4182  0.1049
47185SOL    HW144832   0.206   6.425   1.474  0.1571  0.4679  1.1114
47185SOL    HW244833   0.144   6.287   1.463 -0.2858  0.7764 -0.4166
47186SOL     OW44834   9.052   3.573   9.368  0.3058  0.2417  0.0844
47186SOL    HW144835   9.142   3.583   9.397  0.5453 -0.5522 -0.3590
47186SOL    HW244836   9.044   3.481   9.343 -0.4883  0.4126 -0.3480
47187SOL     OW44837   6.788   9.377  10.281 -0.2336  0.2762 -0.3413
47187SOL    HW144838   6.734   9.310  10.322 -2.1509  1.5135 -0.7010
47187SOL    HW244839   6.807   9.440  10.351  1.0903 -0.3214 -0.1339
47188SOL     OW44840   9.349  10.180   5.039 -0.4623 -0.2735  0.4731
47188SOL    HW144841   9.399  10.126   5.100  2.5871 -1.7151 -2.9017
47188SOL    HW244842   9.389  10.266   5.044  0.7823 -0.7708 -0.4247
47189SOL     OW44843  10.216   6.666   6.694  0.0961 -0.1074  0.6305
47189SOL    HW144844  10.287   6.726   6.718  0.0239 -0.5201  1.9190
47189SOL    HW244845  10.204   6.681   6.600  1.8861 -0.0365  0.3673
47190SOL     OW44846   6.649   3.326   0.950  0.1931  0.4154 -0.1669
47190SOL    HW144847   6.636   3.367   0.865  0.8749  1.6651  0.3028
47190SOL    HW244848   6.743   3.334   0.967  0.5807 -2.3277 -0.5053
47191SOL     OW44849   2.093   4.639   7.337 -0.3089  0.1290 -0.0837
47191SOL    HW144850   2.179   4.628   7.297  0.7104 -0.5481  2.1273
47191SOL    HW244851   2.058   4.718   7.297  0.1684 -1.0050 -2.9445
47192SOL     OW44852   0.137   8.285   9.305  0.5293 -0.4434  0.4529
47192SOL    HW144853   0.209   8.239   9.349  0.5154 -0.9767 -0.0667
47192SOL    HW244854   0.077   8.215   9.278  0.1365 -0.0544  0.3177
47193SOL     OW44855   3.539   0.292   1.449 -0.3732 -0.3322  0.2007
47193SOL    HW144856   3.508   0.210   1.408 -0.4859 -0.7225  1.0431
47193SOL    HW244857   3.607   0.324   1.390 -0.5914 -0.8361 -0.3378
47194SOL     OW44858   1.575   5.142   0.628  0.1257  0.2176  0.4798
47194SOL    HW144859   1.484   5.171   0.632 -0.7049 -2.0710 -0.2370
47194SOL    HW244860   1.597   5.120   0.719  0.0900  1.0337  0.6985
47195SOL     OW44861   0.908  10.636   4.980 -0.1311 -0.2085 -0.1330
47195SOL    HW144862   0.912  10.668   5.070 -0.9026 -1.0014  0.1981
47195SOL    HW244863   0.817  10.609   4.968 -0.4233  1.3260 -1.6820
47196SOL     OW44864   6.394   9.851   1.264 -0.0842  0.0312  0.2029
47196SOL    HW144865   6.370   9.888   1.179 -0.3731 -1.3872 -0.3710
47196SOL    HW244866   6.325   9.787   1.282  0.7327 -0.6935  0.8131
47197SOL     OW44867   1.275   6.902   9.230  0.6018 -0.1511 -0.1459
47197SOL    HW144868   1.301   6.933   9.317  0.1429 -0.8618  0.2572
47197SOL    HW244869   1.349   6.925   9.174  0.9919  0.1423  0.4733
47198SOL     OW44870   7.191   5.059   0.262 -0.0182  0.1104 -0.0850
47198SOL    HW144871   7.193   5.047   0.357  1.7556  1.9380  0.1649
47198SOL    HW244872   7.221   4.976   0.227  0.0647 -0.3338  0.9851
47199SOL     OW44873   1.117  10.324   1.886 -0.1091 -0.2042  0.3618
47199SOL    HW144874   1.102  10.388   1.816 -2.8505 -1.9038 -0.7757
47199SOL    HW244875   1.164  10.252   1.842  3.3607  0.9892  1.7224
47200SOL     OW44876   2.660   9.319   4.729 -0.1933 -0.2023 -0.2670
47200SOL    HW144877   2.635   9.276   4.811 -1.0688 -1.5025 -1.1624
47200SOL    HW244878   2.754   9.334   4.737 -0.0696 -1.3044  0.5425
47201SOL     OW44879  11.002  10.377  10.789  0.6772 -0.0377  0.0810
47201SOL    HW144880  10.977  10.385  10.881 -0.9853  0.5558 -0.3915
47201SOL    HW244881  10.950  10.303  10.756 -0.9962  1.5584 -1.0618
47202SOL     OW44882   9.764   0.046  10.978  0.1610 -0.8011  0.6802
47202SOL    HW144883   9.846   0.092  10.993 -1.5141  2.2426  1.3920
47202SOL    HW244884   9.739   0.011  11.063 -0.2424  0.0567  0.9217
47203SOL     OW44885   7.882   9.857   3.357 -0.3593  0.7563  0.1893
47203SOL    HW144886   7.924   9.783   3.400  0.5720  1.1736  0.0105
47203SOL    HW244887   7.934   9.873   3.278 -0.5920  1.5473  0.1812
47204SOL     OW44888   6.023   8.623  10.569  0.0862  0.3592 -0.3362
47204SOL    HW144889   5.972   8.665  10.638  1.4316  1.6735 -0.0808
47204SOL    HW244890   6.096   8.581  10.615 -0.6067 -1.2891 -0.7066
47205SOL     OW44891   3.963   0.177   7.716 -0.3294  0.1573 -0.0050
47205SOL    HW144892   4.057   0.169   7.701 -0.0673  0.3651  1.3961
47205SOL    HW244893   3.926   0.095   7.683  0.3970 -0.1332 -0.1161
47206SOL     OW44894   7.101   7.564  11.113 -0.3502 -0.0205  0.0418
47206SOL    HW144895   7.058   7.571  11.028 -1.6334  0.6878  0.7170
47206SOL    HW244896   7.121   7.471  11.123  1.8454  0.1364 -1.9468
47207SOL     OW44897   8.556   8.665   1.333  0.0934  0.1290 -0.9658
47207SOL    HW144898   8.603   8.600   1.281 -0.1298  0.6770 -1.8795
47207SOL    HW244899   8.464   8.653   1.310  0.1203  1.2727 -1.7549
47208SOL     OW44900   1.549   8.963   4.226  0.6925 -0.7772 -0.2515
47208SOL    HW144901   1.559   9.054   4.252 -1.6413 -1.0701  2.1360
47208SOL    HW244902   1.485   8.964   4.155  2.7567 -0.4298 -2.2133
47209SOL     OW44903   1.730   1.367   0.441  0.3057  0.1723  0.1430
47209SOL    HW144904   1.802   1.380   0.380  0.9607  1.4317  1.1395
47209SOL    HW244905   1.660   1.423   0.409  1.2134  2.1233  1.3736
47210SOL     OW44906   6.846   1.103  10.820 -0.2491 -0.5474 -0.0210
47210SOL    HW144907   6.895   1.020  10.816  0.0655 -0.3307 -0.9258
47210SOL    HW244908   6.773   1.091  10.759 -1.3706 -0.8766  1.3458
47211SOL     OW44909   9.562   9.045   4.331  0.0340  0.1882 -0.1482
47211SOL    HW144910   9.488   8.991   4.360  0.2064 -0.4373 -0.8229
47211SOL    HW244911   9.639   9.002   4.370  0.1190  0.2953 -0.1993
47212SOL     OW44912   3.953   3.385  10.445  0.0267  0.1004 -0.3325
47212SOL    HW144913   3.939   3.447  10.373  0.7508 -0.0504 -0.6203
47212SOL    HW244914   3.887   3.408  10.511 -0.8847  0.0031 -1.1950
47213SOL     OW44915   4.159   0.242   4.288  0.3487  0.0331  0.3462
47213SOL    HW144916   4.100   0.312   4.259  2.0351  1.0420 -0.8001
47213SOL    HW244917   4.204   0.279   4.364 -2.9719 -2.0604  3.7385
47214SOL     OW44918   8.081   2.108   6.927 -0.0330  0.7843  0.2416
47214SOL    HW144919   8.077   2.100   7.022  1.0717  1.0349  0.3237
47214SOL    HW244920   7.998   2.072   6.896  0.8776 -2.2981  1.0903
47215SOL     OW44921   4.297   0.229  10.874  0.5505  0.3827  0.2382
47215SOL    HW144922   4.242   0.202  10.948 -0.7027 -0.2605 -0.8632
47215SOL    HW244923   4.380   0.183  10.887 -0.2026 -0.9848  0.4450
47216SOL     OW44924   7.990  10.792   9.323  0.0483 -0.5244  0.1451
47216SOL    HW144925   8.069  10.829   9.284  0.2301  0.0216  0.9888
47216SOL    HW244926   7.945  10.867   9.362 -1.3245 -0.6948 -1.0158
47217SOL     OW44927  10.274  10.452   9.401 -0.1229  0.1756 -0.3823
47217SOL    HW144928  10.290  10.382   9.464 -0.9353  0.7275  0.4659
47217SOL    HW244929  10.205  10.418   9.344  1.4952 -0.8289 -1.8312
47218SOL     OW44930   4.983   4.348   7.523  0.7321 -0.2949  0.3176
47218SOL    HW144931   4.987   4.300   7.605 -1.3740 -1.1475 -0.0176
47218SOL    HW244932   4.899   4.324   7.485  0.5933  1.9143 -0.9649
47219SOL     OW44933   7.165   8.402   7.628  0.1029 -0.5796 -0.4073
47219SOL    HW144934   7.132   8.419   7.716 -0.2471  1.0926 -0.8226
47219SOL    HW244935   7.257   8.379   7.641  0.4743  1.1670  0.3179
47220SOL     OW44936   0.536  10.271   7.989 -0.6127  0.1141  0.0190
47220SOL    HW144937   0.587  10.227   7.922 -2.5232 -1.5014 -0.4540
47220SOL    HW244938   0.575  10.359   7.995  1.5297 -0.6966 -0.9798
47221SOL     OW44939   2.528   9.316  10.022  0.5378 -0.6016 -0.0683
47221SOL    HW144940   2.547   9.390   9.964 -0.8443  0.9483  1.3583
47221SOL    HW244941   2.614   9.287  10.052  1.0952  0.7909 -0.2272
47222SOL     OW44942   9.268   9.942   6.769  0.2303 -0.6695 -0.0777
47222SOL    HW144943   9.194   9.933   6.709 -0.9280 -0.6616  1.2910
47222SOL    HW244944   9.232   9.987   6.845  1.5427 -1.0339  0.7962
47223SOL     OW44945   5.564  10.295   3.111 -0.2632  0.3474  0.4117
47223SOL    HW144946   5.497  10.248   3.060  0.1367 -0.8721  0.9698
47223SOL    HW244947   5.530  10.294   3.200  1.1516 -1.6067  0.9793
47224SOL     OW44948   8.729   8.009   1.637 -0.5209 -0.3492 -0.3949
47224SOL    HW144949   8.795   8.008   1.707 -0.5867 -0.9052 -0.3342
47224SOL    HW244950   8.690   7.922   1.640 -0.4842 -0.4036 -1.1608
47225SOL     OW44951   4.120   2.850   7.928 -0.0568 -0.5482 -0.6646
47225SOL    HW144952   4.046   2.905   7.952  0.2302 -1.0598  1.5876
47225SOL    HW244953   4.192   2.911   7.913  0.4398 -0.2065  2.4614
47226SOL     OW44954   7.201   5.535   1.461 -0.3433  0.1444  0.2240
47226SOL    HW144955   7.260   5.541   1.385 -1.4645  2.1222 -0.5446
47226SOL    HW244956   7.259   5.541   1.537  0.6664 -0.5203 -0.4625
47227SOL     OW44957  11.339   8.719   7.524 -0.0977  0.1366  0.0788
47227SOL    HW144958  11.383   8.636   7.509  1.8558  1.2489 -0.6613
47227SOL    HW244959  11.280   8.729   7.450 -0.3452 -0.5677  0.1729
47228SOL     OW44960  10.384   5.734  11.061 -0.2738  0.6087  0.0153
47228SOL    HW144961  10.444   5.780  11.003  0.3243 -0.3580 -0.1414
47228SOL    HW244962  10.325   5.803  11.094  0.6914  1.5042 -0.0937
47229SOL     OW44963   4.285   3.558   9.890  0.4674 -0.2069 -0.1185
47229SOL    HW144964   4.313   3.595   9.806 -1.1432 -2.2520 -1.6733
47229SOL    HW244965   4.360   3.570   9.948  2.8783 -1.4026 -2.7349
47230SOL     OW44966   2.682   4.762   2.797  0.1735  0.1386 -0.2942
47230SOL    HW144967   2.645   4.841   2.757 -0.5411  0.8469  1.6414
47230SOL    HW244968   2.650   4.764   2.888  2.4007 -0.9047  0.5895
47231SOL     OW44969   9.368  11.311   6.390  0.0800  0.5795 -0.0124
47231SOL    HW144970   9.310  11.252   6.438 -1.0192  1.0523 -0.7379
47231SOL    HW244971   9.446  11.317   6.445  0.0395 -1.1777  0.3109
47232SOL     OW44972   2.576   6.570   7.478 -0.0410  0.2395 -0.3917
47232SOL    HW144973   2.611   6.629   7.411  1.7005 -1.2501 -0.8705
47232SOL    HW244974   2.653   6.544   7.530 -1.1668  0.4173  1.4735
47233SOL     OW44975   3.895   8.329   1.969 -0.4531  0.6253 -0.6399
47233SOL    HW144976   3.967   8.270   1.992 -1.7069 -0.5220  0.5650
47233SOL    HW244977   3.851   8.286   1.896 -1.8076 -0.3559  0.7140
47234SOL     OW44978   1.993   0.999   5.386  0.1101 -0.0822  0.1952
47234SOL    HW144979   1.988   1.091   5.413  0.4446 -0.1920  0.6494
47234SOL    HW244980   2.029   0.954   5.463 -1.2313 -0.7936  0.4416
47235SOL     OW44981   7.553   1.985   8.684 -0.3042 -0.2138  0.3823
47235SOL    HW144982   7.502   1.904   8.675 -2.0479  0.9533 -0.8125
47235SOL    HW244983   7.488   2.055   8.684  1.1833  1.2324  1.0835
47236SOL     OW44984   1.322   3.375   8.319 -0.4139  0.2373 -0.1029
47236SOL    HW144985   1.315   3.456   8.370 -0.3187 -0.3404  0.8646
47236SOL    HW244986   1.399   3.331   8.354  0.2400  0.2797 -1.4520
47237SOL     OW44987   4.176   6.404   0.628 -0.3049 -0.0862  0.0245
47237SOL    HW144988   4.115   6.476   0.637  0.3744  0.5773 -0.5362
47237SOL    HW244989   4.133   6.345   0.565 -0.9561 -0.2874  0.6478
47238SOL     OW44990   4.534  10.941   8.026  0.4776  0.0747  0.2913
47238SOL    HW144991   4.533  10.846   8.043  0.2107 -0.0721 -0.5189
47238SOL    HW244992   4.594  10.952   7.952  1.2490  0.6547  0.9871
47239SOL     OW44993   0.384   2.407   8.556 -0.4769  0.3830  0.2934
47239SOL    HW144994   0.305   2.360   8.528 -0.6598  1.0048 -0.2672
47239SOL    HW244995   0.364   2.435   8.645 -0.6832  0.0969  0.3409
47240SOL     OW44996   2.101   7.119   3.144 -0.4989  0.0943  0.3009
47240SOL    HW144997   2.146   7.087   3.066 -2.9720  0.7532 -1.5001
47240SOL    HW244998   2.025   7.061   3.153 -2.4845  2.4499 -0.2649
47241SOL     OW44999   9.236   1.954   9.705  0.0135 -0.6098 -0.2231
47241SOL    HW145000   9.276   1.948   9.619  1.4022 -0.3488  0.3801
47241SOL    HW245001   9.280   2.028   9.747  0.1280 -1.4031  1.1021
47242SOL     OW45002   7.771   6.145   0.636  0.2962  0.1810 -0.1899
47242SOL    HW145003   7.751   6.233   0.603  2.1647  0.8116  0.2371
47242SOL    HW245004   7.855   6.124   0.596  0.7831 -0.6105  1.2203
47243SOL     OW45005   0.341   3.456   9.815  0.4884  0.2635 -0.1885
47243SOL    HW145006   0.371   3.495   9.732 -0.4810  1.9186  0.1837
47243SOL    HW245007   0.403   3.490   9.880  0.6881 -0.2735 -0.0944
47244SOL     OW45008   0.219   8.474   5.127  0.0610 -0.2149  0.4241
47244SOL    HW145009   0.306   8.440   5.146  0.5159  0.1871 -0.8315
47244SOL    HW245010   0.225   8.568   5.146 -0.8936 -0.5646  2.8783
47245SOL     OW45011   2.522  11.284  10.349  0.2197 -0.1861  0.1056
47245SOL    HW145012   2.509  11.231  10.271  3.4374 -0.3961 -0.4312
47245SOL    HW245013   2.516  11.375  10.318  0.6751 -0.2713 -0.2455
47246SOL     OW45014   0.554   9.450   8.950  0.1018 -0.4801  0.5919
47246SOL    HW145015   0.499   9.376   8.925  0.2449 -1.1892  2.2507
47246SOL    HW245016   0.518   9.524   8.902 -0.3509 -1.5264 -0.7261
47247SOL     OW45017   3.147   9.663  11.202 -0.5074 -0.0296 -0.1449
47247SOL    HW145018   3.109   9.704  11.124  0.2935 -0.3330 -0.7167
47247SOL    HW245019   3.199   9.732  11.243  0.8002 -0.4049 -1.0803
47248SOL     OW45020   9.661   7.334   4.203 -1.0062 -0.1500 -0.3564
47248SOL    HW145021   9.597   7.367   4.140 -2.3519 -0.5751  0.7116
47248SOL    HW245022   9.625   7.249   4.230 -0.1275 -0.2716  0.4759
47249SOL     OW45023   2.504   6.250   2.872  0.0774  0.0677  0.1901
47249SOL    HW145024   2.505   6.161   2.837 -0.1384 -0.2316  0.9165
47249SOL    HW245025   2.545   6.242   2.958  1.1194  0.8872 -0.2199
47250SOL     OW45026   6.721   2.918   9.832  0.3150 -0.1409 -0.1889
47250SOL    HW145027   6.671   2.991   9.794  1.9733  1.0430 -0.2086
47250SOL    HW245028   6.661   2.844   9.828 -1.9103  1.4735  0.9612
47251SOL     OW45029  10.987  10.474   4.741 -0.3199 -0.3408 -0.3929
47251SOL    HW145030  10.904  10.447   4.781 -0.3092  0.6789  0.3686
47251SOL    HW245031  10.963  10.547   4.683  0.0646  0.1365  0.0360
47252SOL     OW45032   1.364   2.721  10.142 -0.0588 -0.3285  0.3308
47252SOL    HW145033   1.411   2.798  10.175 -0.7212  0.2313 -0.0149
47252SOL    HW245034   1.288   2.757  10.097 -1.0845 -1.2433  1.2804
47253SOL     OW45035   3.589   0.727   1.591  0.2471 -0.0946  0.4333
47253SOL    HW145036   3.534   0.683   1.526  0.3855 -2.6371  1.8961
47253SOL    HW245037   3.532   0.737   1.668  1.5684 -2.4048  1.8335
47254SOL     OW45038   3.991   4.307   4.542 -0.3381 -0.4965 -0.0075
47254SOL    HW145039   3.936   4.240   4.582 -1.7486  1.6180  1.8878
47254SOL    HW245040   3.930   4.370   4.504  0.8082  0.8371  0.2492
47255SOL     OW45041   3.507   0.122   5.797  0.0843  0.0299 -0.6332
47255SOL    HW145042   3.555   0.061   5.852 -2.3283  0.3676  2.0592
47255SOL    HW245043   3.549   0.207   5.812 -0.0777 -0.0169  0.1005
47256SOL     OW45044   4.180   2.920   5.595  0.5132 -0.4098 -0.7317
47256SOL    HW145045   4.202   2.985   5.662  1.9935 -1.3311 -0.2796
47256SOL    HW245046   4.206   2.962   5.513  1.2745 -0.3296 -0.4620
47257SOL     OW45047   4.817   1.545   4.499 -0.1951  0.8840 -0.7933
47257SOL    HW145048   4.824   1.639   4.481 -2.3816  0.7095 -3.2994
47257SOL    HW245049   4.787   1.540   4.590  0.8439  2.5507 -0.3206
47258SOL     OW45050   5.049   8.378   2.060  1.0494  0.0259  0.1935
47258SOL    HW145051   5.051   8.442   1.989  0.3034  0.8219  0.8688
47258SOL    HW245052   5.139   8.344   2.064  1.1466  0.1017 -0.9896
47259SOL     OW45053   1.469  10.946   4.656  0.3239  0.7911 -0.0701
47259SOL    HW145054   1.490  10.995   4.736 -1.3454 -0.2781  1.0753
47259SOL    HW245055   1.388  10.900   4.677  0.7325 -0.8191 -1.8325
47260SOL     OW45056   3.340   4.259  10.707 -0.2585  0.1278 -0.2656
47260SOL    HW145057   3.388   4.328  10.753 -1.8994  0.7325  0.6281
47260SOL    HW245058   3.293   4.305  10.638  0.5153 -0.4823 -1.2264
47261SOL     OW45059   9.894   8.256   8.523  0.8330 -0.6918 -0.0526
47261SOL    HW145060   9.910   8.181   8.465  0.1440 -0.6479 -0.3166
47261SOL    HW245061   9.957   8.245   8.594  2.0796 -0.4493 -1.0726
47262SOL     OW45062   4.312   2.993   0.009 -0.4845 -0.3481 -0.5302
47262SOL    HW145063   4.353   3.069   0.049 -2.3456  0.0737  0.7424
47262SOL    HW245064   4.330   2.921   0.069  0.4648 -0.7324 -1.2477
47263SOL     OW45065   8.158   7.128   3.369  0.4727 -0.2959 -0.2558
47263SOL    HW145066   8.161   7.223   3.383  0.2095 -0.2363 -0.5990
47263SOL    HW245067   8.231   7.110   3.310 -0.3283 -0.1014 -1.3375
47264SOL     OW45068   6.753   5.380   3.652  0.0834 -0.1967 -0.1935
47264SOL    HW145069   6.712   5.355   3.569  0.3678 -0.6329 -0.2033
47264SOL    HW245070   6.758   5.476   3.648  0.5369 -0.2395 -0.8985
47265SOL     OW45071  10.002   0.988   1.349  0.1153 -0.3117 -0.4521
47265SOL    HW145072   9.910   0.971   1.328 -0.2066  2.0406 -1.1918
47265SOL    HW245073  10.050   0.918   1.304 -1.0993  0.3274 -2.8726
47266SOL     OW45074   7.721   1.214  10.333  0.5095 -0.0301 -0.6908
47266SOL    HW145075   7.794   1.250  10.383  0.9826 -0.4713 -1.0605
47266SOL    HW245076   7.758   1.139  10.287 -0.0898 -0.0405 -1.1618
47267SOL     OW45077   4.962   8.901   8.386  0.6602  0.3944 -0.2150
47267SOL    HW145078   4.952   8.812   8.354  0.7861  0.3732 -0.1949
47267SOL    HW245079   4.897   8.910   8.455  1.7258 -0.2076  0.9034
47268SOL     OW45080   5.660   0.894  11.377  0.2466 -0.3097 -0.0223
47268SOL    HW145081   5.669   0.982  11.340 -1.5874  0.0266  0.2476
47268SOL    HW245082   5.566   0.878  11.380  0.3703 -1.0119  2.8895
47269SOL     OW45083  11.204   5.884  10.585  0.3705 -0.1443 -0.5667
47269SOL    HW145084  11.240   5.969  10.561  0.6312 -0.0872  0.0011
47269SOL    HW245085  11.231   5.871  10.676 -0.9177 -0.1639 -0.1603
47270SOL     OW45086   3.962   9.836   3.405  0.2050  0.0655 -0.0491
47270SOL    HW145087   3.981   9.811   3.315  0.2577 -1.0451  0.2568
47270SOL    HW245088   3.868   9.858   3.405  0.2743  0.3599 -0.4296
47271SOL     OW45089   0.544  10.358   6.697 -0.4017  0.4731  0.1640
47271SOL    HW145090   0.568  10.269   6.722  2.2509  0.1071 -3.0557
47271SOL    HW245091   0.466  10.348   6.643 -0.2167  0.1333 -0.0404
47272SOL     OW45092   8.194  10.094  10.276  0.1137  0.5423  0.2310
47272SOL    HW145093   8.240  10.013  10.253 -0.0196 -0.1096  2.0469
47272SOL    HW245094   8.220  10.111  10.367  0.1225  2.5527 -0.1198
47273SOL     OW45095   7.990   9.267   5.192 -0.5681 -0.1477  0.3235
47273SOL    HW145096   7.950   9.227   5.115 -0.6557  0.0093  0.2866
47273SOL    HW245097   7.925   9.331   5.222  0.1580  0.9880 -0.4511
47274SOL     OW45098  10.259   4.135   7.536 -0.0303 -0.9113  0.2123
47274SOL    HW145099  10.276   4.172   7.449 -1.5910  0.4890  0.4639
47274SOL    HW245100  10.285   4.043   7.527 -1.4328 -1.1749 -2.1761
47275SOL     OW45101   3.423   2.275  11.341  0.0845  0.1077 -0.3004
47275SOL    HW145102   3.416   2.342  11.409  0.6191 -0.0267 -0.1124
47275SOL    HW245103   3.332   2.252  11.321 -0.0770  0.2262  0.2841
47276SOL     OW45104   7.966   6.126  11.177 -0.6887 -0.0353  0.2006
47276SOL    HW145105   8.022   6.050  11.190 -0.2769 -0.0460 -1.5077
47276SOL    HW245106   7.877   6.094  11.193 -0.3560 -0.3487  1.5350
47277SOL     OW45107   8.215   5.627  10.503  0.4421  0.2848 -0.1268
47277SOL    HW145108   8.157   5.571  10.554  0.5607  0.9408  0.7579
47277SOL    HW245109   8.259   5.681  10.568  3.9167 -1.8077 -0.4257
47278SOL     OW45110   7.436   6.599  10.350  0.1099  0.5261  0.1088
47278SOL    HW145111   7.458   6.558  10.267  0.3446 -0.3531  0.5839
47278SOL    HW245112   7.513   6.652  10.372  0.2284  0.4152 -0.0355
47279SOL     OW45113   5.806   3.778   4.812 -0.5485  0.6325  0.1997
47279SOL    HW145114   5.821   3.708   4.748  0.6673  1.9957 -1.0765
47279SOL    HW245115   5.791   3.732   4.895  0.7038 -1.1319 -0.4963
47280SOL     OW45116   9.272   0.016   8.896  0.3058 -0.7448  0.6033
47280SOL    HW145117   9.318  -0.068   8.905  1.8145  0.0391  0.4643
47280SOL    HW245118   9.262   0.027   8.801 -1.3025 -1.4756  0.6556
47281SOL     OW45119  10.532   4.530   5.622  0.3140 -0.0265 -0.5013
47281SOL    HW145120  10.456   4.582   5.645  0.5892  0.1066  0.1307
47281SOL    HW245121  10.511   4.493   5.536  0.0598  1.0040 -0.8981
47282SOL     OW45122   2.210   5.781   4.896 -0.2155  0.1737  0.0137
47282SOL    HW145123   2.152   5.724   4.947 -0.2504 -0.2978 -0.5379
47282SOL    HW245124   2.227   5.856   4.953 -1.1126  0.1666  0.3068
47283SOL     OW45125   8.575   6.642   4.506  0.7500 -0.5583  0.3712
47283SOL    HW145126   8.652   6.612   4.555  0.6488 -1.0620  0.2325
47283SOL    HW245127   8.536   6.709   4.561  1.1697 -0.4496  0.5439
47284SOL     OW45128   2.432   7.874   7.306 -0.3680  0.4616  0.2302
47284SOL    HW145129   2.521   7.863   7.272  0.0114  0.3746  1.2160
47284SOL    HW245130   2.391   7.788   7.295  0.5248 -0.2587  2.1126
47285SOL     OW45131   4.338   9.191   0.519  0.1702 -0.8125 -0.1263
47285SOL    HW145132   4.278   9.174   0.592  1.2095  3.2503  1.9813
47285SOL    HW245133   4.417   9.142   0.541  0.4994  0.4258  1.6512
47286SOL     OW45134   2.218   2.736   6.101  0.0561 -0.1396  0.0039
47286SOL    HW145135   2.143   2.779   6.142  0.4926  0.4853  0.1494
47286SOL    HW245136   2.264   2.693   6.174 -0.0323 -0.3283 -0.0518
47287SOL     OW45137   0.745   2.491   0.411 -0.2309 -0.4394  0.0489
47287SOL    HW145138   0.694   2.538   0.344  1.3241 -0.7629 -1.4416
47287SOL    HW245139   0.835   2.523   0.398  0.5560 -2.4562  0.2087
47288SOL     OW45140   4.380   8.132   5.818  0.0851  0.0734 -0.3320
47288SOL    HW145141   4.452   8.191   5.842  0.6450 -0.6481 -0.2148
47288SOL    HW245142   4.302   8.187   5.821  0.5212  0.6648  0.3707
47289SOL     OW45143  10.229   5.728   2.769 -1.0095 -0.6447  0.1522
47289SOL    HW145144  10.242   5.723   2.863 -1.3740  0.3118  0.2624
47289SOL    HW245145  10.317   5.725   2.732 -0.9073 -1.9954  0.4527
47290SOL     OW45146   5.996   9.583   4.772  0.1362 -0.0349 -0.3411
47290SOL    HW145147   6.036   9.512   4.822  0.2040 -0.0624 -0.4349
47290SOL    HW245148   6.014   9.661   4.825  0.2587 -0.0553 -0.3508
47291SOL     OW45149   3.260   5.490   2.877 -0.2467 -0.3274 -0.6982
47291SOL    HW145150   3.265   5.502   2.972 -0.8629 -0.4457 -0.6512
47291SOL    HW245151   3.202   5.415   2.865  1.1384 -1.3891 -1.1146
47292SOL     OW45152   0.881   3.433   5.226  0.1597  0.0962 -0.5793
47292SOL    HW145153   0.931   3.425   5.308  1.1410  1.7055 -0.9741
47292SOL    HW245154   0.832   3.351   5.220  0.4007 -0.2495  1.3943
47293SOL     OW45155   5.629  10.095   5.404  0.2603  0.8162 -0.0573
47293SOL    HW145156   5.598  10.185   5.404  2.0226  1.4818  0.4264
47293SOL    HW245157   5.677  10.086   5.487  0.5303 -0.4007 -0.3190
47294SOL     OW45158   5.556   1.636   1.431 -0.5282 -0.0807 -0.3449
47294SOL    HW145159   5.541   1.719   1.476 -1.7751  0.7060 -2.0910
47294SOL    HW245160   5.651   1.626   1.429 -0.3147  1.6800 -0.6977
47295SOL     OW45161  11.106   1.735   0.762 -0.0980 -0.3317 -0.4002
47295SOL    HW145162  11.154   1.817   0.757  0.3650 -0.5299  0.4924
47295SOL    HW245163  11.170   1.668   0.738 -0.1523 -0.5296  0.0014
47296SOL     OW45164   6.804   9.010   0.843  0.2712 -0.2011  0.0716
47296SOL    HW145165   6.810   8.924   0.801  0.9488 -0.5543  0.8699
47296SOL    HW245166   6.894   9.038   0.854  0.0351  1.1821 -1.2925
47297SOL     OW45167   5.715  11.184   3.109 -0.1134  0.1482  0.0357
47297SOL    HW145168   5.703  11.144   3.023 -4.2265  1.0633 -0.0364
47297SOL    HW245169   5.697  11.114   3.171 -3.1422  0.7306 -0.0466
47298SOL     OW45170   5.502   8.705   6.825 -0.0785 -0.1273 -0.0284
47298SOL    HW145171   5.429   8.690   6.766 -0.1351  0.8874 -0.2331
47298SOL    HW245172   5.575   8.727   6.767 -0.0690  0.6167  0.2572
47299SOL     OW45173   6.533   6.000   8.943 -0.0356 -0.1667  0.3542
47299SOL    HW145174   6.445   5.968   8.920 -0.8480  0.8667  1.8718
47299SOL    HW245175   6.549   6.071   8.881 -0.5031 -0.0072  0.4097
47300SOL     OW45176   9.762   9.900   1.621  0.5721  0.1755 -0.2893
47300SOL    HW145177   9.761   9.824   1.679  0.1019  1.1293  0.9801
47300SOL    HW245178   9.709   9.873   1.546  1.0422 -1.0033 -0.2298
47301SOL     OW45179   9.957   3.913  11.087 -0.3112 -0.0500  0.1214
47301SOL    HW145180   9.922   3.825  11.075  1.4007 -0.5336 -1.9766
47301SOL    HW245181  10.048   3.907  11.058  0.5621  1.8966  2.1791
47302SOL     OW45182  10.233   2.225   0.979 -0.2367 -0.2697  0.2788
47302SOL    HW145183  10.290   2.242   0.904 -0.4046 -1.3114 -0.1022
47302SOL    HW245184  10.239   2.304   1.032 -1.1880  1.0965 -1.5166
47303SOL     OW45185   6.237   8.820   0.260 -1.1459  0.7799 -0.2992
47303SOL    HW145186   6.148   8.830   0.295 -1.9306 -0.6979 -1.7169
47303SOL    HW245187   6.225   8.773   0.178  1.0023  0.0162 -0.2409
47304SOL     OW45188   5.000  10.718  10.650 -0.0715 -0.4285  0.0529
47304SOL    HW145189   4.983  10.750  10.739 -1.4262 -0.2352 -0.2647
47304SOL    HW245190   4.997  10.622  10.658 -0.0739 -0.4142  0.2370
47305SOL     OW45191   5.520   7.012   6.840  0.1267  0.3430 -0.7519
47305SOL    HW145192   5.432   7.050   6.839 -0.3635 -0.7329  0.0962
47305SOL    HW245193   5.524   6.964   6.922  1.9721  1.3995 -0.1663
47306SOL     OW45194   5.469   5.616   8.805  0.3457  0.0501  0.1336
47306SOL    HW145195   5.447   5.706   8.781 -1.0952 -0.3678 -0.2104
47306SOL    HW245196   5.507   5.579   8.725  1.0285  0.3678  0.3041
47307SOL     OW45197   7.664   1.528   8.052  0.7368 -0.4630 -0.3710
47307SOL    HW145198   7.621   1.602   8.094  0.2526 -1.3896  0.8269
47307SOL    HW245199   7.658   1.547   7.958  0.0590  0.6946 -0.1139
47308SOL     OW45200   0.052  11.047  10.339  0.1391 -0.5970  0.4171
47308SOL    HW145201   0.038  11.137  10.370  2.1858  0.1425 -0.6337
47308SOL    HW245202   0.032  11.052  10.245  2.3354 -0.6758 -0.0898
47309SOL     OW45203   3.955   1.828   8.446  0.3799  0.1860 -0.3298
47309SOL    HW145204   3.914   1.895   8.392  0.6265 -0.2905 -1.1195
47309SOL    HW245205   4.047   1.854   8.451  0.6716 -0.5819 -1.4202
47310SOL     OW45206   8.753  10.437   5.507 -0.6329 -0.1791 -0.8456
47310SOL    HW145207   8.673  10.455   5.556 -0.1093  0.0427 -0.0508
47310SOL    HW245208   8.739  10.352   5.467 -1.3338 -0.0608 -0.8566
47311SOL     OW45209   5.402   9.212   4.419 -0.4282  0.0210 -0.4297
47311SOL    HW145210   5.423   9.225   4.511 -0.8382  0.6977 -0.4270
47311SOL    HW245211   5.346   9.287   4.396  0.2246  0.2370 -1.3987
47312SOL     OW45212   7.167   4.576   1.854  0.6146 -0.2648 -0.4104
47312SOL    HW145213   7.244   4.523   1.833  0.6189 -0.2764 -0.3668
47312SOL    HW245214   7.093   4.521   1.830  0.6223  0.2684 -1.7271
47313SOL     OW45215   8.548   5.570   5.078 -0.0166  0.2111 -0.5514
47313SOL    HW145216   8.633   5.592   5.115  0.2773 -0.8611 -0.5390
47313SOL    HW245217   8.540   5.475   5.091 -1.5559  0.4018  0.1606
47314SOL     OW45218   5.504   0.762   8.199 -0.9735  0.3176  0.0065
47314SOL    HW145219   5.538   0.717   8.122  0.3372 -1.0786  1.3178
47314SOL    HW245220   5.580   0.776   8.255 -1.6004  2.8959  0.3335
47315SOL     OW45221   2.528   4.985   4.327  0.6186  0.1478  0.2572
47315SOL    HW145222   2.544   4.930   4.251 -1.6513 -1.1868  0.6625
47315SOL    HW245223   2.519   4.923   4.400 -1.0833  1.0925  0.8937
47316SOL     OW45224   2.480   9.522   8.916  0.2222  0.5495 -0.5340
47316SOL    HW145225   2.572   9.513   8.894  0.3693 -0.3997  0.4045
47316SOL    HW245226   2.434   9.469   8.851  0.4562 -0.1501 -0.1370
47317SOL     OW45227   6.613  10.108   1.801  0.4776 -0.1918  0.4758
47317SOL    HW145228   6.631  10.197   1.771  1.0948  0.1248  1.7351
47317SOL    HW245229   6.548  10.075   1.739  1.5840  0.4716 -1.0942
47318SOL     OW45230   6.634   9.234   9.292  0.0952  0.0104 -0.1341
47318SOL    HW145231   6.576   9.159   9.306 -0.4896  0.5202  0.2715
47318SOL    HW245232   6.596   9.303   9.347  0.9589  0.4236 -0.0476
47319SOL     OW45233   4.237   4.094   3.852  0.3703 -0.0166 -0.2427
47319SOL    HW145234   4.248   4.186   3.824  1.5123 -0.8611 -2.9263
47319SOL    HW245235   4.321   4.071   3.891 -0.2593  0.3107  1.3925
47320SOL     OW45236   2.722   2.024  10.403 -0.0584 -0.1959  0.5439
47320SOL    HW145237   2.707   2.111  10.441 -0.5039 -1.2237  2.8876
47320SOL    HW245238   2.634   1.989  10.387  0.0963 -0.5514  0.4567
47321SOL     OW45239   0.445   4.699   3.792 -0.0976  0.0900  0.2840
47321SOL    HW145240   0.402   4.775   3.753 -1.6316 -0.8830 -0.0246
47321SOL    HW245241   0.400   4.624   3.752  1.5015 -0.9865  0.4281
47322SOL     OW45242  10.687   5.834   1.739 -0.1565  0.0996 -0.5652
47322SOL    HW145243  10.731   5.811   1.657  2.0658  0.3094  0.4910
47322SOL    HW245244  10.671   5.750   1.782  0.9607  0.1015 -0.1225
47323SOL     OW45245   5.397   2.980   9.270 -0.4519 -0.1250 -0.2031
47323SOL    HW145246   5.392   3.076   9.262 -1.8923 -0.1806 -0.2673
47323SOL    HW245247   5.476   2.964   9.321 -0.2228  1.1057 -0.1466
47324SOL     OW45248   0.480   3.478   5.228 -0.5404 -0.6537 -0.9031
47324SOL    HW145249   0.415   3.541   5.195  1.3398  0.3599 -2.9158
47324SOL    HW245250   0.564   3.523   5.217  0.5884 -2.0437  1.3078
47325SOL     OW45251   2.748   2.865   3.224 -0.5163 -0.4149 -0.4838
47325SOL    HW145252   2.676   2.928   3.228 -0.1691  0.0673 -1.4271
47325SOL    HW245253   2.767   2.844   3.315 -1.1317  0.2860 -0.1809
47326SOL     OW45254   3.405   2.962   4.765  0.0773  0.6762 -0.2215
47326SOL    HW145255   3.371   2.893   4.708 -1.0820  1.4890 -0.5452
47326SOL    HW245256   3.330   3.018   4.783  0.8973  1.6178  0.3982
47327SOL     OW45257   9.279   6.030   4.747 -0.0564  0.2199 -0.4993
47327SOL    HW145258   9.273   5.935   4.734  3.4219 -0.6325  2.5182
47327SOL    HW245259   9.343   6.059   4.682 -1.3211  0.6630 -1.6063
47328SOL     OW45260   6.337   0.705   9.205 -0.3129 -0.0379  0.0283
47328SOL    HW145261   6.323   0.647   9.130 -2.8335  3.3321 -2.4824
47328SOL    HW245262   6.387   0.779   9.168 -0.2435  1.0117  2.1028
47329SOL     OW45263   2.690  10.532   7.355 -0.2451 -0.1735  0.0728
47329SOL    HW145264   2.771  10.572   7.326 -0.8947  1.9883  1.0203
47329SOL    HW245265   2.692  10.444   7.319  1.5326  0.5171 -1.6668
47330SOL     OW45266  11.000   9.932   7.223 -0.0269 -0.3235  0.6987
47330SOL    HW145267  10.944   9.915   7.298 -0.1714  0.7189  0.8467
47330SOL    HW245268  10.995  10.027   7.210 -0.3704 -0.5307 -0.9126
47331SOL     OW45269   0.041  11.205  11.050  0.0108 -0.0332  0.1386
47331SOL    HW145270   0.088  11.235  10.972 -0.6742  1.5025  0.2804
47331SOL    HW245271   0.104  11.148  11.095  1.1415  0.6302 -0.5288
47332SOL     OW45272   4.374   5.041   7.077  0.1607  0.4470  0.2570
47332SOL    HW145273   4.294   5.033   7.128  0.9472 -0.6981  1.3573
47332SOL    HW245274   4.361   5.120   7.024 -2.2822 -0.4798 -0.6816
47333SOL     OW45275   6.723   3.342  11.355 -0.3772 -0.4983 -0.1021
47333SOL    HW145276   6.776   3.395  11.296  1.0062 -0.8373  0.7963
47333SOL    HW245277   6.633   3.371  11.339  0.1446  0.6114 -1.1350
47334SOL     OW45278   9.954   3.976   7.422 -0.3758 -0.1775 -0.2118
47334SOL    HW145279   9.986   3.889   7.445  1.7390 -0.2263 -2.8404
47334SOL    HW245280  10.029   4.019   7.381 -1.5601  2.6619  0.3821
47335SOL     OW45281   8.274   8.625   8.383 -0.2797 -0.3827  0.0227
47335SOL    HW145282   8.220   8.703   8.397 -0.2282  0.0033 -1.6646
47335SOL    HW245283   8.299   8.630   8.291  0.7931 -1.7349  0.2115
47336SOL     OW45284   2.552   5.520   4.066  0.1713 -0.3667 -0.1858
47336SOL    HW145285   2.622   5.524   4.132  0.5740 -0.8343 -0.5802
47336SOL    HW245286   2.597   5.503   3.984 -0.2796  0.7768 -0.6869
47337SOL     OW45287   0.927   6.000  11.027  0.3335  0.2455  0.6994
47337SOL    HW145288   0.837   5.967  11.023  0.8304 -1.1294  0.1387
47337SOL    HW245289   0.921   6.078  11.082 -1.3827  0.8501 -0.2636
47338SOL     OW45290   8.284   3.340   3.341 -0.3949  0.0349 -0.2949
47338SOL    HW145291   8.298   3.399   3.267 -0.6858 -1.1804 -1.3475
47338SOL    HW245292   8.328   3.384   3.415 -0.9349  1.7393 -0.9391
47339SOL     OW45293   7.883   7.908   8.117 -0.1393  0.1303  0.0046
47339SOL    HW145294   7.922   7.994   8.131 -3.1829  1.3533  2.3085
47339SOL    HW245295   7.862   7.906   8.023  0.9831  1.3986 -0.3052
47340SOL     OW45296   6.721   3.237   4.390  0.3844 -0.7416 -0.1420
47340SOL    HW145297   6.741   3.330   4.383  0.4001 -0.6751  0.7175
47340SOL    HW245298   6.799   3.199   4.430 -0.4592 -0.7600  1.5935
47341SOL     OW45299   8.406  10.059   9.982  0.0816  0.1785 -0.3636
47341SOL    HW145300   8.451  10.041   9.900  0.3500  1.4206 -0.4985
47341SOL    HW245301   8.361   9.977  10.003  3.2227 -1.5262  0.3460
47342SOL     OW45302   3.474   4.180   1.418  0.1679  0.8645 -0.3023
47342SOL    HW145303   3.495   4.262   1.374  0.4005 -0.9009 -3.8187
47342SOL    HW245304   3.381   4.165   1.399  0.5389 -0.4624 -1.2091
47343SOL     OW45305   8.738   6.347   2.354  0.4593 -0.1531  0.1832
47343SOL    HW145306   8.664   6.306   2.398  0.3381  0.8186  0.9208
47343SOL    HW245307   8.716   6.344   2.261  0.4601 -1.7340  0.2155
47344SOL     OW45308   6.214   3.324   8.839 -0.0192 -0.2182 -0.6647
47344SOL    HW145309   6.178   3.352   8.755 -0.6113  0.3959 -0.2234
47344SOL    HW245310   6.218   3.405   8.891  0.5666 -0.5464 -0.1843
47345SOL     OW45311   2.795   2.557   0.350  0.0471  0.0537 -1.0274
47345SOL    HW145312   2.874   2.610   0.344  0.5969 -0.8070 -1.5144
47345SOL    HW245313   2.727   2.619   0.378  1.1089  0.5662  0.5263
47346SOL     OW45314   8.043   9.331   3.149  0.0481 -0.2613 -0.7333
47346SOL    HW145315   8.071   9.242   3.128 -1.4255 -0.8995 -0.1306
47346SOL    HW245316   7.948   9.328   3.146 -0.0555  1.0765  0.1902
47347SOL     OW45317   7.205   9.313   7.497 -0.3268 -0.6870  0.4118
47347SOL    HW145318   7.189   9.381   7.431 -2.1791 -1.0510  0.4392
47347SOL    HW245319   7.297   9.288   7.484  0.0218  0.9023 -0.4447
47348SOL     OW45320   7.949   6.138   2.146  0.1618 -0.4273 -0.1849
47348SOL    HW145321   7.898   6.066   2.185 -0.7715 -0.5487 -1.5421
47348SOL    HW245322   8.030   6.096   2.117  1.6064 -0.0368  2.9128
47349SOL     OW45323   4.544   1.329   1.066 -0.3818  0.1196 -0.2376
47349SOL    HW145324   4.607   1.276   1.017 -0.5068  0.3120 -0.6049
47349SOL    HW245325   4.550   1.296   1.156 -2.5491 -2.5590 -0.9574
47350SOL     OW45326   9.549   4.416  10.411  0.0916  0.6305 -0.5736
47350SOL    HW145327   9.627   4.361  10.415  0.4214  1.1607  0.3890
47350SOL    HW245328   9.582   4.503  10.392 -0.2440  0.9202  0.1687
47351SOL     OW45329  10.921   0.361  10.545  0.5523  0.0487 -0.3361
47351SOL    HW145330  10.863   0.419  10.496  0.0644  0.5311  0.7728
47351SOL    HW245331  10.934   0.405  10.629  1.2877 -0.7937  0.0109
47352SOL     OW45332   8.051   3.346   6.624  0.2363  0.0382  0.2551
47352SOL    HW145333   8.073   3.276   6.563  1.5792 -0.9705  1.8123
47352SOL    HW245334   8.118   3.413   6.608  0.5275 -0.1825  0.5334
47353SOL     OW45335   1.238   7.999   9.490  1.0432 -0.6101 -0.1836
47353SOL    HW145336   1.169   7.956   9.438  0.7678 -0.4374  0.0372
47353SOL    HW245337   1.214   7.981   9.581  0.1955  1.1101 -0.0375
47354SOL     OW45338   1.166   6.651   6.858  0.2917 -0.2936 -0.2322
47354SOL    HW145339   1.114   6.592   6.911 -0.3224 -0.1201 -0.6339
47354SOL    HW245340   1.257   6.624   6.873  0.3025  0.7949  2.2105
47355SOL     OW45341   1.466  10.583   2.979 -0.5997  0.1228 -0.2001
47355SOL    HW145342   1.406  10.532   3.033 -0.3603  0.4183  0.3535
47355SOL    HW245343   1.432  10.672   2.981 -0.0544  0.3219  0.2482
47356SOL     OW45344   5.795   9.930   6.927 -0.4407 -0.1635 -0.0029
47356SOL    HW145345   5.833   9.991   6.990  0.1723  0.1145 -0.6264
47356SOL    HW245346   5.844   9.946   6.846 -0.3689 -1.3830 -0.2170
47357SOL     OW45347   5.655   0.419   0.789 -0.4501  0.7502  1.1450
47357SOL    HW145348   5.610   0.503   0.793 -1.5641  0.1420  1.8891
47357SOL    HW245349   5.645   0.391   0.698 -0.5738  1.1534  1.0325
47358SOL     OW45350   2.688  10.616   9.469  1.0152 -0.3246 -0.0015
47358SOL    HW145351   2.693  10.520   9.473  0.2440 -0.4399 -1.3795
47358SOL    HW245352   2.772  10.642   9.431  1.6811 -0.3498  1.3869
47359SOL     OW45353   9.495   9.608   3.954 -0.1393 -0.3955  1.1758
47359SOL    HW145354   9.401   9.622   3.955  0.1068  1.7387  0.2103
47359SOL    HW245355   9.514   9.561   4.035 -2.0860 -1.4760  1.0509
47360SOL     OW45356   3.150   7.323   1.587 -0.5188 -0.0903 -0.0737
47360SOL    HW145357   3.099   7.319   1.668 -0.4499 -0.4834 -0.0478
47360SOL    HW245358   3.238   7.293   1.612 -0.7760 -1.2436 -0.5114
47361SOL     OW45359   7.629   5.724   2.609 -0.7665  0.5840  0.4870
47361SOL    HW145360   7.541   5.712   2.645 -0.3069 -1.9295  0.9978
47361SOL    HW245361   7.683   5.745   2.686 -0.6000  0.1177  0.5005
47362SOL     OW45362   8.207   7.031  10.518  0.0024 -0.4084  0.2436
47362SOL    HW145363   8.270   7.080  10.572  0.0713 -1.7962  1.5197
47362SOL    HW245364   8.122   7.050  10.557  0.0648 -1.5161  0.9732
47363SOL     OW45365   5.380   5.754   0.095  0.4129  0.4446  0.1019
47363SOL    HW145366   5.452   5.801   0.137  0.2689  0.4048  0.3967
47363SOL    HW245367   5.421   5.681   0.050  0.5139  0.1935  0.5976
47364SOL     OW45368  11.118  10.188   5.290  0.6624  0.2609 -0.4001
47364SOL    HW145369  11.123  10.150   5.378 -0.5155 -0.5782 -0.6694
47364SOL    HW245370  11.170  10.129   5.236 -0.5554 -0.5953 -0.6801
47365SOL     OW45371   2.572   1.347   8.660 -0.1562  0.2507 -1.0974
47365SOL    HW145372   2.478   1.351   8.644 -0.4856 -0.0777  0.5789
47365SOL    HW245373   2.585   1.264   8.706  1.0816 -0.0907 -1.9971
47366SOL     OW45374   5.233   8.290   7.411  0.1215 -0.0332  0.6888
47366SOL    HW145375   5.302   8.356   7.418  1.1939 -1.1319  0.7842
47366SOL    HW245376   5.187   8.295   7.494 -0.3945  1.2180  0.3396
47367SOL     OW45377   4.568   7.415   2.082  0.2413  0.3354  0.0825
47367SOL    HW145378   4.502   7.452   2.024  1.0050  0.8843 -0.4504
47367SOL    HW245379   4.524   7.342   2.125  0.0509 -1.0204 -2.2534
47368SOL     OW45380   4.414   2.685  10.695  0.0639 -0.6933  0.4188
47368SOL    HW145381   4.480   2.708  10.630 -1.1329  0.3839 -0.4776
47368SOL    HW245382   4.448   2.607  10.737  3.1430  1.2241  1.8222
47369SOL     OW45383   7.390   4.896   8.763 -0.1434 -0.5125  0.0417
47369SOL    HW145384   7.459   4.852   8.813  1.4546  2.2354  0.4754
47369SOL    HW245385   7.372   4.838   8.689  2.2136 -1.6110  0.2643
47370SOL     OW45386   2.966   6.337   7.348 -0.0714 -0.0757 -0.0231
47370SOL    HW145387   3.059   6.316   7.347 -0.2882 -1.2091  0.9528
47370SOL    HW245388   2.935   6.302   7.432 -1.1973  1.0905  0.0833
47371SOL     OW45389   4.800   6.039   9.837 -0.1522  0.5361 -0.1840
47371SOL    HW145390   4.804   5.954   9.881 -0.8153  0.5889 -0.0077
47371SOL    HW245391   4.877   6.041   9.781  0.6870  0.4417  0.9339
47372SOL     OW45392   6.355   9.710   0.234 -0.6322 -0.0418 -0.0024
47372SOL    HW145393   6.293   9.656   0.186  1.1581 -0.4552 -1.9830
47372SOL    HW245394   6.318   9.799   0.230 -1.1304 -0.2889 -1.0989
47373SOL     OW45395   6.828   5.589  10.027 -0.0492 -0.2355 -0.2693
47373SOL    HW145396   6.848   5.671   9.983 -1.5850 -0.0243 -0.6126
47373SOL    HW245397   6.756   5.609  10.087  0.7778 -0.9351  1.0221
47374SOL     OW45398   0.719   4.624   2.874 -0.0077  0.3590 -0.0799
47374SOL    HW145399   0.702   4.545   2.822 -0.2884  1.1781 -1.2713
47374SOL    HW245400   0.814   4.626   2.885  0.2774  1.1733 -2.2422
47375SOL     OW45401   4.312   8.774   0.935 -0.7559  0.2926  0.6560
47375SOL    HW145402   4.261   8.753   0.857  0.0024 -0.9626  0.4852
47375SOL    HW245403   4.247   8.781   1.005 -1.1967 -1.0899  0.4030
47376SOL     OW45404   9.175  10.483   3.821  0.0048  0.0826  0.3421
47376SOL    HW145405   9.200  10.438   3.902 -0.2531 -0.4860  0.1083
47376SOL    HW245406   9.226  10.439   3.753  0.4592  0.7637  0.2253
47377SOL     OW45407   4.752   9.298   6.609  0.4973  0.3385 -0.4577
47377SOL    HW145408   4.804   9.268   6.535  0.1906  1.5157 -1.1699
47377SOL    HW245409   4.661   9.290   6.581  0.2565 -1.3704  0.6531
47378SOL     OW45410   8.912   3.130   1.597  0.2297  0.3692 -0.2296
47378SOL    HW145411   8.908   3.214   1.644 -2.6570 -0.7620  1.8633
47378SOL    HW245412   8.839   3.134   1.535 -0.7002 -0.9673  0.7277
47379SOL     OW45413  11.331   9.400   3.903  0.4069 -0.0057 -0.6922
47379SOL    HW145414  11.423   9.411   3.879  1.3485 -0.9588  2.1615
47379SOL    HW245415  11.301   9.488   3.927  0.8280  0.1551 -0.7573
47380SOL     OW45416   1.467   4.900   4.793  0.2737  0.7570 -0.1315
47380SOL    HW145417   1.413   4.859   4.725  0.5876 -1.8461  1.0473
47380SOL    HW245418   1.404   4.929   4.860  0.0970 -3.0490  1.6558
47381SOL     OW45419   2.514   8.628   9.827 -0.6045 -0.1192 -0.7922
47381SOL    HW145420   2.446   8.693   9.844  0.1793  0.4858  0.0849
47381SOL    HW245421   2.466   8.548   9.807 -1.6336 -0.3433  2.1604
47382SOL     OW45422   7.186   4.092   5.049  0.2185 -1.2301  0.1915
47382SOL    HW145423   7.101   4.105   5.008  0.5763  0.1738 -0.1469
47382SOL    HW245424   7.179   4.133   5.135  1.3419  1.3624 -0.8624
47383SOL     OW45425   0.646   3.151   0.291 -0.5547  0.0306  0.1169
47383SOL    HW145426   0.580   3.117   0.351  0.4991 -1.9088  0.2503
47383SOL    HW245427   0.631   3.104   0.209 -0.9511  1.4790 -0.6863
47384SOL     OW45428   0.147   1.882   7.110 -0.3882 -0.6682 -0.2766
47384SOL    HW145429   0.227   1.933   7.098 -0.6841 -0.0341  0.3253
47384SOL    HW245430   0.133   1.839   7.026  1.1294 -1.6090 -0.0938
47385SOL     OW45431   1.698   0.115   1.515  0.0546 -0.4709 -0.2326
47385SOL    HW145432   1.624   0.132   1.573  0.1656 -1.5688  0.2507
47385SOL    HW245433   1.657   0.091   1.432 -0.1138 -0.0016 -0.2898
47386SOL     OW45434   4.682   7.747   1.462 -0.6892  0.2020  1.0978
47386SOL    HW145435   4.606   7.746   1.403 -1.2372 -1.3621  1.7790
47386SOL    HW245436   4.678   7.832   1.505 -0.6977  1.0859 -0.5633
47387SOL     OW45437   6.015   4.494   8.664 -0.3586  0.7503  0.1713
47387SOL    HW145438   5.953   4.480   8.735 -0.1667 -1.0106  0.0299
47387SOL    HW245439   6.040   4.406   8.636  0.2818  1.4114 -1.4563
47388SOL     OW45440   0.095  10.131   4.879 -0.0162  0.7578 -0.0050
47388SOL    HW145441   0.170  10.078   4.907  0.0868  0.4633 -0.8213
47388SOL    HW245442   0.031  10.119   4.950  0.2558  0.0617  0.1379
47389SOL     OW45443   3.747   7.721   4.199  0.5584  0.6233  0.3606
47389SOL    HW145444   3.688   7.702   4.126 -1.2566 -1.6534  2.2423
47389SOL    HW245445   3.759   7.816   4.198  1.1849  0.6201 -3.2240
47390SOL     OW45446   4.528   1.077   8.383  0.6122 -0.4351 -0.3739
47390SOL    HW145447   4.506   1.126   8.462  1.2481  0.2988 -0.6383
47390SOL    HW245448   4.528   0.985   8.411 -0.5186 -0.2960  0.1436
47391SOL     OW45449   4.565   3.237   1.395  0.4073  0.3702  0.0822
47391SOL    HW145450   4.581   3.177   1.322  2.0601 -0.0100  0.7088
47391SOL    HW245451   4.544   3.179   1.468  3.1711  0.3731  0.9961
47392SOL     OW45452   5.660   0.864   2.432 -0.0045  0.0128  0.3335
47392SOL    HW145453   5.732   0.837   2.490  0.4335  1.8165  0.7045
47392SOL    HW245454   5.613   0.931   2.482 -0.4687  0.6050 -0.8553
47393SOL     OW45455   7.117   0.350   0.024  0.0205  0.1060 -0.0653
47393SOL    HW145456   7.077   0.434   0.045  0.4434  0.2957 -0.0133
47393SOL    HW245457   7.073   0.321  -0.056  0.6099  0.8820 -0.6836
47394SOL     OW45458   1.275   7.730   6.638  0.6224 -0.0067 -0.0870
47394SOL    HW145459   1.304   7.788   6.568  1.5321 -0.1859  0.1385
47394SOL    HW245460   1.308   7.770   6.719  0.9518 -0.6403  0.1010
47395SOL     OW45461   5.572   6.815   0.562  0.1017 -0.9991 -0.5767
47395SOL    HW145462   5.659   6.774   0.564  0.4253 -0.3024  0.8402
47395SOL    HW245463   5.514   6.751   0.604  0.2995 -0.7026  0.1669
47396SOL     OW45464   1.159   4.255  10.135 -0.0071 -0.3525 -0.1169
47396SOL    HW145465   1.144   4.349  10.144  0.9490 -0.0043 -1.7052
47396SOL    HW245466   1.099   4.214  10.197 -0.6562  1.2968  0.3738
47397SOL     OW45467   6.806   1.364   5.505  1.2033 -0.4904 -0.1009
47397SOL    HW145468   6.751   1.332   5.434  0.7555  0.9319 -0.4326
47397SOL    HW245469   6.744   1.388   5.574  1.4162  0.6414 -0.2793
47398SOL     OW45470   7.447   4.140   1.689 -0.3029  0.1860  0.4237
47398SOL    HW145471   7.411   4.122   1.602 -0.0185  0.8785  0.1621
47398SOL    HW245472   7.511   4.209   1.675 -0.7020  0.7427  1.2785
47399SOL     OW45473   7.107   8.364   4.053 -0.4306 -0.1665  0.1553
47399SOL    HW145474   7.165   8.292   4.029 -0.1547 -0.2432  1.0048
47399SOL    HW245475   7.035   8.322   4.098  0.7595  0.2073  2.5743
47400SOL     OW45476   2.623   1.274   2.442  0.3662  0.0896  0.5739
47400SOL    HW145477   2.600   1.358   2.483 -1.3641  0.0547 -0.2798
47400SOL    HW245478   2.685   1.235   2.504  1.5505  2.1603  0.7950
47401SOL     OW45479   1.285   9.080   3.496 -0.3245  0.1236 -0.4245
47401SOL    HW145480   1.253   9.167   3.472 -1.7927 -0.2943 -0.1046
47401SOL    HW245481   1.205   9.028   3.510  0.3791 -0.3346  2.7985
47402SOL     OW45482   0.330   2.807   0.808 -0.0129  0.1570 -0.7517
47402SOL    HW145483   0.411   2.791   0.758  0.7213 -0.5517  0.6034
47402SOL    HW245484   0.359   2.853   0.886 -0.7902 -0.7978  0.1347
47403SOL     OW45485   9.684  10.006   7.277  0.0904  0.1918  0.1641
47403SOL    HW145486   9.738  10.064   7.330  0.5947  0.6007 -0.7773
47403SOL    HW245487   9.604  10.057   7.261 -0.8179 -0.5746  1.9178
47404SOL     OW45488   3.271   6.339   1.273  0.2894  0.6878 -0.0183
47404SOL    HW145489   3.212   6.413   1.285 -0.0879  0.2287  1.0756
47404SOL    HW245490   3.339   6.353   1.339 -0.5594 -0.6686  1.2059
47405SOL     OW45491   3.058   4.991   0.376  0.0381  0.1330 -0.1729
47405SOL    HW145492   3.077   4.933   0.302  1.0042 -0.1453  0.2681
47405SOL    HW245493   3.021   5.070   0.337  0.5607 -0.0029 -0.9591
47406SOL     OW45494  10.807   3.040   8.115  0.1836 -0.5180 -0.1073
47406SOL    HW145495  10.837   3.117   8.067  0.1328 -0.9274 -0.8083
47406SOL    HW245496  10.877   2.976   8.103  0.5174 -0.3738  1.0113
47407SOL     OW45497   8.182   7.886   9.064  0.8763 -0.2673  0.4488
47407SOL    HW145498   8.260   7.936   9.042 -0.0057  0.3795 -1.3603
47407SOL    HW245499   8.140   7.868   8.980 -0.6392 -1.0676  1.3374
47408SOL     OW45500   2.296   6.163   8.072  0.0090  0.5295  0.0184
47408SOL    HW145501   2.213   6.204   8.049 -0.3864 -0.3381 -0.1225
47408SOL    HW245502   2.286   6.138   8.164 -0.6834 -1.4181 -0.5380
47409SOL     OW45503   3.461   6.396  10.636 -0.3396 -0.4664  0.5434
47409SOL    HW145504   3.417   6.407  10.552  0.4080  0.1801  0.2188
47409SOL    HW245505   3.425   6.466  10.691 -0.9040 -0.9545  0.7930
47410SOL     OW45506   9.140   1.333   4.653 -0.1787  0.1119 -0.3299
47410SOL    HW145507   9.096   1.413   4.682 -1.3825  0.1317 -2.0704
47410SOL    HW245508   9.165   1.289   4.735  0.2687  2.0927  0.6780
47411SOL     OW45509   7.468   2.281   7.287  0.2332 -0.2789 -0.4556
47411SOL    HW145510   7.436   2.351   7.345 -0.0430  0.1421 -1.1000
47411SOL    HW245511   7.390   2.254   7.238  0.4764 -0.5862 -0.6685
47412SOL     OW45512   5.975   0.140  10.409  0.6137 -0.1367  0.5452
47412SOL    HW145513   6.063   0.175  10.423  0.4689 -0.0552  1.3060
47412SOL    HW245514   5.988   0.047  10.392  1.1954  0.5450 -3.6279
47413SOL     OW45515   2.366  10.195   9.519 -0.0360  0.0469  0.0716
47413SOL    HW145516   2.373  10.168   9.610 -0.2307 -0.5517 -0.0855
47413SOL    HW245517   2.371  10.290   9.521 -1.7630  0.1486  0.8727
47414SOL     OW45518  10.225   8.303   1.839  0.1021  0.3142  0.1958
47414SOL    HW145519  10.237   8.209   1.848 -0.0422  0.3648  1.0391
47414SOL    HW245520  10.293   8.331   1.777  0.8707 -0.1781  0.8043
47415SOL     OW45521  11.363   0.535   5.085  0.4626  0.1449  0.5310
47415SOL    HW145522  11.314   0.617   5.075  0.5695  0.0500 -1.1423
47415SOL    HW245523  11.451   0.562   5.111  0.7582  0.6604 -0.9261
47416SOL     OW45524   6.303   4.179   9.356  0.4382  0.3677 -0.4264
47416SOL    HW145525   6.231   4.238   9.380 -0.4774  0.0441 -2.2393
47416SOL    HW245526   6.291   4.103   9.413  1.0955  1.4763  1.2992
47417SOL     OW45527   1.509   4.875   6.582 -0.8129  0.6519  0.1064
47417SOL    HW145528   1.445   4.817   6.540 -0.0687 -0.0550 -0.0918
47417SOL    HW245529   1.522   4.946   6.520 -1.6399  0.9684  0.2891
47418SOL     OW45530   7.505   5.300  10.535  0.7290  0.2588  0.3659
47418SOL    HW145531   7.588   5.255  10.517  0.6138  0.6180 -1.2112
47418SOL    HW245532   7.530   5.379  10.583  1.0380 -0.8777  2.1588
47419SOL     OW45533   0.475   6.292   6.716 -0.1283  0.3045 -0.0784
47419SOL    HW145534   0.448   6.207   6.679  0.2891  0.4236 -0.6648
47419SOL    HW245535   0.392   6.335   6.737 -0.4552  0.7117 -1.9722
47420SOL     OW45536   1.948   6.469  10.330 -0.2206  1.1100  0.3101
47420SOL    HW145537   1.898   6.544  10.298 -1.2554 -0.1847 -1.2690
47420SOL    HW245538   2.021   6.462  10.269 -1.6899 -0.8090 -1.3669
47421SOL     OW45539   7.374  11.339   9.456 -0.4101 -0.0178 -0.6114
47421SOL    HW145540   7.292  11.389   9.461  0.3648  1.2786 -0.3061
47421SOL    HW245541   7.368  11.292   9.373 -1.6524 -0.3031 -0.3864
47422SOL     OW45542  10.412   1.504   9.213  0.5803  0.2800 -0.8463
47422SOL    HW145543  10.436   1.591   9.243 -1.0895  0.5750 -0.2141
47422SOL    HW245544  10.371   1.463   9.289  1.3404 -1.0766 -1.1267
47423SOL     OW45545   1.262   0.802   3.916  0.5397 -0.2184  0.2356
47423SOL    HW145546   1.239   0.734   3.980 -1.1898 -0.8271 -0.9573
47423SOL    HW245547   1.180   0.850   3.903  1.4291  1.3012  0.1040
47424SOL     OW45548   3.772   7.010   8.738  0.0711  0.4166  0.2099
47424SOL    HW145549   3.796   7.024   8.830  0.5935  0.2059  0.1076
47424SOL    HW245550   3.838   6.950   8.705  0.0783  0.7491 -0.3925
47425SOL     OW45551   7.775   9.124   2.252 -0.3823  0.0045  0.0972
47425SOL    HW145552   7.748   9.047   2.301 -0.7124  1.4366  2.3397
47425SOL    HW245553   7.870   9.128   2.264 -0.4727  0.3963  0.7176
47426SOL     OW45554   3.291  11.385   8.197  0.3637  0.7914 -0.1735
47426SOL    HW145555   3.252  11.363   8.113  0.6355 -0.2479 -0.0410
47426SOL    HW245556   3.385  11.378   8.182  0.3947 -1.0316  0.6103
47427SOL     OW45557   6.884   8.670   9.831 -0.2401  0.5944 -0.3683
47427SOL    HW145558   6.803   8.679   9.780 -0.6111  1.2751  0.3235
47427SOL    HW245559   6.916   8.759   9.841 -0.3336  0.4997  0.8485
47428SOL     OW45560   0.459   6.720   6.036  0.0504 -0.0357  0.8716
47428SOL    HW145561   0.480   6.761   6.119  1.6204  1.0614 -0.0046
47428SOL    HW245562   0.388   6.773   5.999 -0.2458 -0.1746  1.2359
47429SOL     OW45563   9.994   8.623   7.300  0.5667  0.0835  0.1323
47429SOL    HW145564  10.062   8.656   7.242 -0.3572  0.0791 -0.9834
47429SOL    HW245565   9.914   8.664   7.269 -0.0816 -0.6100  0.8508
47430SOL     OW45566   1.769   2.599   8.479  0.3662 -0.0254  0.0027
47430SOL    HW145567   1.832   2.663   8.512  0.9588 -0.4392 -0.3210
47430SOL    HW245568   1.753   2.625   8.388  0.1026  0.0460  0.0671
47431SOL     OW45569   4.310  10.754  10.305 -0.0765  0.3969  0.0119
47431SOL    HW145570   4.375  10.809  10.347  0.0785  0.5968 -0.4744
47431SOL    HW245571   4.260  10.814  10.250  1.1273 -0.1461 -1.7830
47432SOL     OW45572   8.179   0.912   7.241  0.2805  0.1080 -0.0663
47432SOL    HW145573   8.273   0.932   7.235  0.7373 -1.2512  1.7094
47432SOL    HW245574   8.171   0.825   7.204 -0.1782  0.0158  0.2459
47433SOL     OW45575   9.505   7.881   7.649 -0.1975  0.4092 -0.5021
47433SOL    HW145576   9.506   7.966   7.692  0.7221  0.5215 -0.7139
47433SOL    HW245577   9.592   7.845   7.666 -0.9394 -0.9759  0.5184
47434SOL     OW45578  10.171   4.546   5.188 -0.4030 -0.3354 -0.3609
47434SOL    HW145579  10.232   4.482   5.152  0.9563 -0.2475  1.6729
47434SOL    HW245580  10.226   4.615   5.223 -1.6999  0.2335  0.6498
47435SOL     OW45581   5.872   8.894   6.252 -0.6137  0.6084  0.0652
47435SOL    HW145582   5.864   8.967   6.313 -0.8802  1.4917 -1.0054
47435SOL    HW245583   5.915   8.825   6.303 -1.3492  1.1115  1.4190
47436SOL     OW45584   2.137   8.921   1.907  0.0801  0.1222  0.4455
47436SOL    HW145585   2.098   8.838   1.932  2.7878 -1.1166  0.9587
47436SOL    HW245586   2.121   8.979   1.982  0.9050 -0.9688  1.4999
47437SOL     OW45587  11.165   6.712   9.209  0.4513 -0.0698  0.1593
47437SOL    HW145588  11.122   6.715   9.123  1.5418 -0.9434 -0.4532
47437SOL    HW245589  11.185   6.804   9.229  0.7303  0.1069 -0.8338
47438SOL     OW45590   3.324   2.091   9.959  0.1139  0.1569 -0.4556
47438SOL    HW145591   3.255   2.040  10.000 -0.7358  0.7999 -1.0526
47438SOL    HW245592   3.287   2.120   9.876  1.6111 -0.7088 -1.4913
47439SOL     OW45593  10.785   5.532   9.739  0.6795  0.3128  0.3873
47439SOL    HW145594  10.788   5.622   9.772 -1.0246  0.2047  0.9146
47439SOL    HW245595  10.797   5.478   9.817  0.0634  0.0770  0.3200
47440SOL     OW45596  10.688   1.361   9.894  0.0987 -0.0960 -0.2150
47440SOL    HW145597  10.760   1.395   9.948 -1.2630  0.3679  1.3752
47440SOL    HW245598  10.616   1.349   9.955 -1.4298  0.1276 -1.9051
47441SOL     OW45599   2.665  10.878   9.558  0.1526  0.1289  0.2833
47441SOL    HW145600   2.669  10.783   9.544  0.4074  0.0645  0.7779
47441SOL    HW245601   2.572  10.899   9.545 -0.3281 -0.5326  2.2713
47442SOL     OW45602   6.711  10.325   8.529  0.2486  0.5863 -0.0580
47442SOL    HW145603   6.622  10.330   8.495  1.5128  2.0863 -3.6930
47442SOL    HW245604   6.717  10.400   8.589 -0.4288  1.7677 -1.3853
47443SOL     OW45605   7.863   7.524   5.182  0.4739  0.0902 -0.5737
47443SOL    HW145606   7.951   7.523   5.143 -0.1383  0.3459 -2.0447
47443SOL    HW245607   7.819   7.598   5.139 -0.0149  0.9082  1.2247
47444SOL     OW45608   3.341   6.992   4.130  0.0667 -0.6046  0.1007
47444SOL    HW145609   3.430   7.000   4.098 -0.2703 -1.9425 -1.3030
47444SOL    HW245610   3.328   6.898   4.143 -1.3584 -0.5123 -0.4318
47445SOL     OW45611   3.620   8.220   2.994 -0.6342 -0.2332  0.2498
47445SOL    HW145612   3.714   8.234   3.007 -0.4933 -0.4763 -0.4489
47445SOL    HW245613   3.615   8.142   2.939 -1.3207 -1.6362  2.1780
47446SOL     OW45614   6.255   1.433   4.438 -0.1335  0.2883 -0.0876
47446SOL    HW145615   6.270   1.492   4.511 -3.0431  1.8144 -0.5779
47446SOL    HW245616   6.310   1.466   4.367  1.4689 -0.2319  0.8775
47447SOL     OW45617   4.359   7.966   4.283  0.2463 -0.3304  0.1413
47447SOL    HW145618   4.347   7.881   4.242 -0.2848  0.2017 -0.8496
47447SOL    HW245619   4.410   7.948   4.362  0.0445 -1.5691  0.0037
47448SOL     OW45620   8.389   7.465   4.742 -0.2863 -0.1987 -0.2582
47448SOL    HW145621   8.321   7.494   4.682 -2.4094 -0.4847  1.8370
47448SOL    HW245622   8.406   7.374   4.718 -0.8465 -0.2021 -0.6497
47449SOL     OW45623   1.209   8.820   3.975  0.2174  0.6641  0.8995
47449SOL    HW145624   1.267   8.883   4.018 -1.2278  1.8057  1.2314
47449SOL    HW245625   1.238   8.821   3.883  1.4053  0.4081  1.2533
47450SOL     OW45626   2.861   1.146   1.195 -0.1268 -0.1142  0.0612
47450SOL    HW145627   2.861   1.167   1.101 -1.1721 -1.4690 -0.2829
47450SOL    HW245628   2.816   1.062   1.200  0.5181 -0.3962  1.7234
47451SOL     OW45629   5.795   7.440   7.103  0.2505  0.2821  0.9321
47451SOL    HW145630   5.760   7.353   7.084  0.8700  0.3327 -0.6356
47451SOL    HW245631   5.719   7.497   7.101  0.1935  0.2129 -1.2042
47452SOL     OW45632   6.186   0.196   2.641  0.0060 -0.8393 -0.4715
47452SOL    HW145633   6.192   0.152   2.556  2.0002 -0.6510 -0.4808
47452SOL    HW245634   6.277   0.201   2.671 -0.2007  2.4274 -0.0449
47453SOL     OW45635   7.811  10.242  11.344 -0.2448 -0.0848  0.0832
47453SOL    HW145636   7.776  10.276  11.426 -1.6000  0.6593 -0.7577
47453SOL    HW245637   7.773  10.154  11.335 -1.9425  0.6927 -0.7915
47454SOL     OW45638   2.483   6.081   8.411 -0.0729 -0.6235 -0.2202
47454SOL    HW145639   2.417   6.064   8.343 -0.6337 -1.3367  0.4942
47454SOL    HW245640   2.436   6.072   8.493  0.3168  1.4238  0.2721
47455SOL     OW45641  10.186   0.432  10.072  0.2618  0.5513 -0.6491
47455SOL    HW145642  10.138   0.402   9.996  2.0309 -0.2964 -1.4926
47455SOL    HW245643  10.240   0.357  10.098  0.2800  1.0717  0.9678
47456SOL     OW45644   2.295   9.883   7.882  0.0106 -0.6781  0.3145
47456SOL    HW145645   2.206   9.921   7.879 -0.0456 -0.8667 -0.7236
47456SOL    HW245646   2.282   9.793   7.911  0.0835 -0.1214  2.1924
47457SOL     OW45647   5.823   2.358   0.403  0.0448 -0.1884 -0.1414
47457SOL    HW145648   5.752   2.367   0.340  0.4317 -0.4122 -0.6110
47457SOL    HW245649   5.832   2.445   0.442  1.2119  0.5399 -1.9207
47458SOL     OW45650   6.031   7.869   9.824 -0.1569  0.0127  0.1832
47458SOL    HW145651   5.975   7.941   9.854  0.7261 -0.2028  2.5106
47458SOL    HW245652   5.978   7.790   9.835  0.2752 -0.1004  1.5691
47459SOL     OW45653   6.704   8.296   7.893 -0.6533 -0.2095 -0.3587
47459SOL    HW145654   6.661   8.284   7.809 -0.8004 -1.6836 -0.1052
47459SOL    HW245655   6.724   8.390   7.897 -1.7684  0.1040 -1.4703
47460SOL     OW45656  10.519   5.126   8.293 -0.1437 -0.1748 -0.0948
47460SOL    HW145657  10.431   5.097   8.268  0.8565 -1.9814 -1.7688
47460SOL    HW245658  10.566   5.134   8.210  1.2382  0.9669  0.7565
47461SOL     OW45659   5.249   8.084   0.091  0.3818 -0.0975  0.1646
47461SOL    HW145660   5.293   8.070   0.175  0.4668 -0.3864  0.0741
47461SOL    HW245661   5.305   8.041   0.027 -0.9439 -2.1466  0.2727
47462SOL     OW45662   8.287   4.613   3.623 -0.2377 -0.0502 -0.1972
47462SOL    HW145663   8.241   4.571   3.551 -0.1733 -0.4417 -0.0116
47462SOL    HW245664   8.379   4.614   3.595 -0.4101  1.2264 -0.8119
47463SOL     OW45665  10.150  10.270   2.637  0.0056 -0.5452 -0.3389
47463SOL    HW145666  10.236  10.302   2.609 -0.5788  1.4371  0.0161
47463SOL    HW245667  10.168  10.216   2.713  1.0140 -0.8875 -0.8038
47464SOL     OW45668  10.285   3.117   3.864 -0.1029  0.4467  0.3402
47464SOL    HW145669  10.366   3.145   3.821  0.9706  0.2154  2.1105
47464SOL    HW245670  10.272   3.180   3.935 -1.5003  0.4808  0.0904
47465SOL     OW45671   7.359   7.071  10.545  0.6056  0.6416 -0.3119
47465SOL    HW145672   7.327   7.133  10.479 -0.4421 -0.2339 -0.6637
47465SOL    HW245673   7.294   7.001  10.545  1.1692  0.0905  0.8861
47466SOL     OW45674   9.017   5.441   8.985 -0.3103 -0.3076  0.1223
47466SOL    HW145675   9.005   5.458   9.078 -0.9412  1.8585 -0.3004
47466SOL    HW245676   8.928   5.445   8.948  0.0733  0.3811 -0.7712
47467SOL     OW45677   2.216   8.696   5.953  0.1286 -0.0817 -0.0455
47467SOL    HW145678   2.161   8.758   5.903  1.1697  1.0998  0.2187
47467SOL    HW245679   2.186   8.706   6.043  0.6960  0.5122  0.0882
47468SOL     OW45680   5.684   5.919   9.091  0.5692 -0.5446 -0.2876
47468SOL    HW145681   5.756   5.914   9.153 -0.4988  1.8029  1.2709
47468SOL    HW245682   5.710   5.988   9.030 -0.0460 -0.1332 -0.0970
47469SOL     OW45683   7.730   4.417   8.003  0.1690 -0.8578 -0.3568
47469SOL    HW145684   7.709   4.507   8.026  2.4868 -0.5938  0.9911
47469SOL    HW245685   7.656   4.366   8.036 -0.1985  0.3468  0.7792
47470SOL     OW45686   3.691   3.858   1.100  0.4320  0.6088  1.1010
47470SOL    HW145687   3.611   3.851   1.048  1.5078 -0.0478 -0.5794
47470SOL    HW245688   3.661   3.871   1.190 -1.5310  1.2132  0.4122
47471SOL     OW45689   0.738   0.262   9.416  0.2355  0.2704  0.1443
47471SOL    HW145690   0.823   0.227   9.388  0.7482 -0.3317  2.2575
47471SOL    HW245691   0.677   0.190   9.403  0.0698  0.6191 -1.1359
47472SOL     OW45692   3.446   3.471   2.976  0.3934  0.4861  0.3001
47472SOL    HW145693   3.504   3.535   3.019  0.1160  1.0291 -0.1211
47472SOL    HW245694   3.498   3.438   2.903  0.0156  1.3335 -0.3722
47473SOL     OW45695   1.988   2.372   3.104 -0.2677  0.0635 -0.1625
47473SOL    HW145696   1.937   2.447   3.133 -1.1816 -0.6445  0.1090
47473SOL    HW245697   1.944   2.342   3.024  0.3717  0.1007 -0.5395
47474SOL     OW45698  10.076   1.888   6.393  0.4751 -0.0617 -0.3772
47474SOL    HW145699  10.021   1.902   6.316  1.9948  0.5546 -1.4095
47474SOL    HW245700  10.156   1.849   6.358  1.4359  0.7735  0.7878
47475SOL     OW45701   3.092   0.611   5.284  0.3181 -0.2460  0.1344
47475SOL    HW145702   3.078   0.610   5.190  0.1330  0.7067  0.1447
47475SOL    HW245703   3.144   0.532   5.302 -2.8393 -2.6114 -0.2582
47476SOL     OW45704   4.518   0.352   6.184  0.4054 -0.1825  0.3277
47476SOL    HW145705   4.577   0.420   6.215 -0.0252  0.9903 -1.3130
47476SOL    HW245706   4.433   0.396   6.178  0.4019 -0.4152 -2.1203
47477SOL     OW45707   8.612   0.482   7.597 -0.0486 -0.1623 -0.1485
47477SOL    HW145708   8.565   0.471   7.515 -1.3974  0.3552  0.5281
47477SOL    HW245709   8.670   0.556   7.582 -1.8223  1.3284 -0.0128
47478SOL     OW45710   8.671   9.109   7.709  0.0753 -0.1648  0.0678
47478SOL    HW145711   8.626   9.042   7.658 -1.5119 -0.0017  1.1553
47478SOL    HW245712   8.608   9.133   7.777  1.2716  1.1863  0.7580
47479SOL     OW45713   2.248   7.838   9.250  0.3288 -0.3437 -0.0364
47479SOL    HW145714   2.287   7.793   9.175 -0.9415  0.4606 -1.2222
47479SOL    HW245715   2.165   7.792   9.265 -0.6948  1.1584 -0.8724
47480SOL     OW45716   9.595   3.588   6.173 -0.2504 -0.0745 -0.2278
47480SOL    HW145717   9.670   3.552   6.125  1.6962  0.2086  2.3374
47480SOL    HW245718   9.565   3.515   6.228 -0.1210  0.5398  0.6744
47481SOL     OW45719  10.304  10.829  11.242 -0.4960  0.2068  0.0027
47481SOL    HW145720  10.396  10.842  11.268 -0.3424 -0.9465  0.0507
47481SOL    HW245721  10.303  10.745  11.197 -1.3890  0.6082 -0.7677
47482SOL     OW45722   0.618   8.548   3.482 -0.0668 -0.6333  0.9215
47482SOL    HW145723   0.577   8.537   3.397  2.0171 -2.5643  0.0457
47482SOL    HW245724   0.549   8.582   3.539 -1.8381 -0.4648 -1.2250
47483SOL     OW45725   6.759   1.681   9.518 -0.1335  0.1068 -0.2183
47483SOL    HW145726   6.752   1.775   9.505  0.2171  0.0518 -0.8595
47483SOL    HW245727   6.725   1.643   9.437  0.3599 -0.3006 -0.2418
47484SOL     OW45728   5.291   9.902   7.078  0.2167 -0.4753  0.1666
47484SOL    HW145729   5.342   9.982   7.094  0.7759 -0.6703 -0.6459
47484SOL    HW245730   5.210   9.933   7.036 -0.1924 -0.2092  1.1074
47485SOL     OW45731   5.864   9.193   5.557 -0.1388 -0.0995  0.2209
47485SOL    HW145732   5.777   9.214   5.592  0.0808 -1.8398  1.9757
47485SOL    HW245733   5.859   9.101   5.532  0.9918 -0.0207 -0.3914
47486SOL     OW45734   6.911   2.424   5.478 -0.2947  0.1030  0.3337
47486SOL    HW145735   6.943   2.484   5.411 -0.7486  0.8844  0.7944
47486SOL    HW245736   6.937   2.466   5.561 -1.4856  0.1752  0.6876
47487SOL     OW45737   3.563   6.747   4.478  0.3345  0.3709 -0.2227
47487SOL    HW145738   3.579   6.839   4.457  0.5058  0.3741 -0.0859
47487SOL    HW245739   3.581   6.741   4.572 -1.3442  0.5616  0.1366
47488SOL     OW45740   4.582   1.816   6.982  0.0614  0.3076  0.3532
47488SOL    HW145741   4.579   1.848   6.892  0.9878 -3.2983 -1.1386
47488SOL    HW245742   4.492   1.789   7.002  0.1888 -0.6253 -0.2662
47489SOL     OW45743   9.315   2.111   3.834 -0.1397 -0.2420  0.5718
47489SOL    HW145744   9.346   2.149   3.751 -2.5737  1.6842  0.4477
47489SOL    HW245745   9.373   2.148   3.900  0.9496 -0.7135 -0.0729
47490SOL     OW45746   9.386   8.137   0.084  0.2863 -0.0419  0.0715
47490SOL    HW145747   9.404   8.206   0.019  0.0578  1.5160  1.5964
47490SOL    HW245748   9.410   8.056   0.039  0.0101  0.9459 -2.0059
47491SOL     OW45749   9.627   8.829  10.680  0.3619 -0.0736  0.2220
47491SOL    HW145750   9.561   8.891  10.709 -1.1120 -0.7671 -1.4798
47491SOL    HW245751   9.579   8.748  10.665  1.5562 -0.5737 -1.1421
47492SOL     OW45752   7.703  10.676   9.113  0.2229 -0.4464 -0.2610
47492SOL    HW145753   7.787  10.640   9.140  1.2874  1.6961 -0.5284
47492SOL    HW245754   7.723  10.764   9.081 -2.2219  0.4922  0.4945
47493SOL     OW45755   9.658   1.801   9.539 -0.1684 -0.5781 -0.3853
47493SOL    HW145756   9.750   1.824   9.528 -0.3626 -0.4360 -2.0069
47493SOL    HW245757   9.642   1.734   9.472 -1.3775 -0.1975 -0.5043
47494SOL     OW45758   2.205   9.230   8.636  0.1535 -0.3856 -0.0716
47494SOL    HW145759   2.196   9.215   8.730 -0.5865 -1.0902 -0.2412
47494SOL    HW245760   2.140   9.172   8.597 -0.4194  0.7930 -0.9489
47495SOL     OW45761   1.870   7.146   6.561  0.3337  0.6020 -0.3586
47495SOL    HW145762   1.939   7.094   6.603  0.3811  0.4777 -0.5875
47495SOL    HW245763   1.910   7.231   6.546  0.6286  0.3533 -1.0155
47496SOL     OW45764   9.477  10.941   7.757  0.6048  1.2502 -0.2767
47496SOL    HW145765   9.470  10.956   7.851 -0.8585 -0.0453 -0.1396
47496SOL    HW245766   9.528  10.861   7.749 -2.5930 -0.9918 -0.2894
47497SOL     OW45767   2.266   2.399   2.290  0.5679  0.0109 -0.0136
47497SOL    HW145768   2.245   2.376   2.200  1.4096  2.6927 -0.9810
47497SOL    HW245769   2.215   2.479   2.307  2.6427  1.2332  0.7989
47498SOL     OW45770   6.070   7.910   5.261 -0.7899  0.4430 -0.2932
47498SOL    HW145771   6.140   7.866   5.309  0.2782  1.6877 -0.6430
47498SOL    HW245772   6.015   7.950   5.329  0.3091  1.5982 -0.0343
47499SOL     OW45773   1.507   0.254   0.881  0.5459 -0.1631 -0.0723
47499SOL    HW145774   1.455   0.265   0.802  0.3732 -0.1714  0.0382
47499SOL    HW245775   1.449   0.205   0.941  1.2187 -1.5438 -0.4942
47500SOL     OW45776   6.706  11.141   5.174 -0.2508 -0.5288  0.4577
47500SOL    HW145777   6.655  11.065   5.144 -1.0886 -0.2267  1.0733
47500SOL    HW245778   6.672  11.160   5.261  0.4132  0.1496  0.5795
47501SOL     OW45779   8.776  11.345   6.703 -0.2275 -0.4221  0.4556
47501SOL    HW145780   8.859  11.390   6.717 -0.9482  0.8945  0.6871
47501SOL    HW245781   8.791  11.289   6.627  1.5835 -2.0982  1.9492
47502SOL     OW45782   7.446   3.289   5.342 -0.0826  0.0806  0.1056
47502SOL    HW145783   7.440   3.199   5.311 -1.5127  0.3006 -0.3237
47502SOL    HW245784   7.472   3.340   5.265 -0.5304  0.1968  0.0262
47503SOL     OW45785   6.817   9.230   8.343  0.1367 -0.0726 -0.5826
47503SOL    HW145786   6.800   9.178   8.264 -0.8963  0.0026 -0.4277
47503SOL    HW245787   6.824   9.165   8.413 -0.8413 -0.0355 -0.4400
47504SOL     OW45788   0.811   9.123   4.153  0.1629 -0.2777 -0.1510
47504SOL    HW145789   0.878   9.055   4.144  0.4862 -0.1778  1.2773
47504SOL    HW245790   0.847   9.184   4.218 -0.2671  1.0883 -1.1580
47505SOL     OW45791   0.651   7.473  10.785 -0.2887  0.0326 -0.3203
47505SOL    HW145792   0.579   7.469  10.848 -1.0734  0.2849 -1.1813
47505SOL    HW245793   0.623   7.538  10.721  0.9541  0.5317 -0.3795
47506SOL     OW45794  10.672   6.216   3.805  0.0371  0.5952  0.6646
47506SOL    HW145795  10.583   6.217   3.841 -0.4458  0.4537 -0.4904
47506SOL    HW245796  10.692   6.123   3.794 -0.8265  0.6398 -1.7750
47507SOL     OW45797   1.168   9.736   9.710 -0.0121 -0.1270 -0.1055
47507SOL    HW145798   1.223   9.814   9.722 -0.4466  0.1814 -0.0897
47507SOL    HW245799   1.219   9.680   9.652  0.7412 -0.2681  0.6641
47508SOL     OW45800   8.537   9.105   9.847 -0.5192 -0.1489 -0.0889
47508SOL    HW145801   8.597   9.033   9.868 -1.4179 -1.0481 -0.5182
47508SOL    HW245802   8.594   9.180   9.831  0.3419 -0.0261  3.0224
47509SOL     OW45803   7.926   3.192   3.714  0.2099  0.6496  0.8510
47509SOL    HW145804   7.842   3.206   3.756 -0.9122  1.6511 -1.5083
47509SOL    HW245805   7.905   3.141   3.635  2.2082 -1.3351  1.5017
47510SOL     OW45806   3.116   9.206   5.056  0.2656 -0.5941  0.0700
47510SOL    HW145807   3.074   9.256   5.126  0.9005  0.3064 -0.1687
47510SOL    HW245808   3.176   9.268   5.015 -0.6508 -0.8486 -1.8002
47511SOL     OW45809   0.938  10.428   1.326  0.6228 -0.3285  0.4941
47511SOL    HW145810   0.909  10.426   1.418  1.8370 -0.4940  0.8959
47511SOL    HW245811   0.960  10.337   1.306  0.4393 -0.2792  0.0592
47512SOL     OW45812  11.204   3.429   1.480 -0.1289 -0.1721  0.0227
47512SOL    HW145813  11.152   3.463   1.407  0.3388  0.8943  0.1677
47512SOL    HW245814  11.216   3.505   1.537 -0.6577 -1.0360  1.3231
47513SOL     OW45815   3.938   1.239   2.421  0.4595  0.3989  0.0845
47513SOL    HW145816   3.875   1.248   2.349  1.0121 -0.2714 -0.4947
47513SOL    HW245817   3.988   1.320   2.419  0.8038  0.1833 -0.6278
47514SOL     OW45818   7.767   3.558  10.394  0.1872 -0.1668  0.2887
47514SOL    HW145819   7.692   3.608  10.362 -0.6200 -0.3252  1.8738
47514SOL    HW245820   7.805   3.612  10.463  0.3882 -0.9402  0.7959
47515SOL     OW45821   8.399   9.744   2.401 -0.8983 -0.0753 -0.0848
47515SOL    HW145822   8.353   9.824   2.375  0.5272  0.7942 -0.0851
47515SOL    HW245823   8.492   9.765   2.387 -0.4173 -1.3257  1.0442
47516SOL     OW45824   1.595   7.248   2.802  0.2432 -0.1095 -0.0866
47516SOL    HW145825   1.640   7.168   2.774 -1.1732 -0.7047 -0.7318
47516SOL    HW245826   1.508   7.242   2.763  0.8103  2.8434 -2.1498
47517SOL     OW45827   4.620  10.313   0.381 -0.6228 -0.5322 -0.5386
47517SOL    HW145828   4.705  10.357   0.386 -0.3937 -1.0821  1.8356
47517SOL    HW245829   4.637  10.234   0.330  0.5435 -1.0487  0.5658
47518SOL     OW45830   8.513   5.900   0.473  0.2363  0.1560 -0.1843
47518SOL    HW145831   8.473   5.959   0.536  0.7793 -0.8600  1.1550
47518SOL    HW245832   8.488   5.936   0.388 -2.9488 -0.0260  0.5269
47519SOL     OW45833   8.088   7.610   9.678  0.2467 -0.2579  0.0082
47519SOL    HW145834   8.120   7.660   9.603 -0.0560 -0.1227 -0.0303
47519SOL    HW245835   8.103   7.518   9.654 -2.1801 -0.3861 -1.3297
47520SOL     OW45836   3.644  10.734   8.723 -0.1941 -0.1936 -0.3087
47520SOL    HW145837   3.578  10.800   8.697  1.7454  1.0011 -2.6447
47520SOL    HW245838   3.724  10.784   8.736  0.9866 -1.9244 -0.6055
47521SOL     OW45839  10.367   6.680   2.589  0.0313 -0.5861 -0.1400
47521SOL    HW145840  10.396   6.650   2.675 -0.6709  1.5097  0.9023
47521SOL    HW245841  10.273   6.692   2.598  0.4208  3.3928  0.1226
47522SOL     OW45842   9.207   3.367   4.143 -0.0216  0.4096  0.6509
47522SOL    HW145843   9.181   3.276   4.161 -0.1221 -0.0525 -1.5313
47522SOL    HW245844   9.290   3.377   4.189  0.0657 -0.8331  0.8200
47523SOL     OW45845   5.484   9.555   6.183  0.6234  0.2210 -0.4482
47523SOL    HW145846   5.572   9.586   6.163 -0.1970  1.6437 -2.1517
47523SOL    HW245847   5.473   9.571   6.277  2.4539 -0.8139 -0.0182
47524SOL     OW45848   3.171   1.383   1.842 -0.0982  0.0389  0.6232
47524SOL    HW145849   3.166   1.478   1.834  0.4156 -0.0210 -0.7213
47524SOL    HW245850   3.203   1.368   1.931  0.7878  1.1749  0.5181
47525SOL     OW45851   7.261   0.861   1.008 -0.3917  0.1465 -0.7733
47525SOL    HW145852   7.273   0.775   1.048  0.7243 -0.5439 -2.4920
47525SOL    HW245853   7.184   0.851   0.953 -1.2206  0.7559  0.2260
47526SOL     OW45854   6.387  10.827   0.694 -1.2317  1.0327  0.1580
47526SOL    HW145855   6.393  10.817   0.599 -2.6688  1.3793  0.0117
47526SOL    HW245856   6.388  10.922   0.708 -0.2285  0.9776  0.5667
47527SOL     OW45857   2.756   4.955   3.987  0.1869 -0.4825 -0.0427
47527SOL    HW145858   2.707   5.016   3.930 -1.2312 -0.7775  0.8006
47527SOL    HW245859   2.812   5.012   4.040  0.2405 -0.0679 -0.5357
47528SOL     OW45860   2.318   9.071   8.389  0.0928  0.1717  0.7555
47528SOL    HW145861   2.227   9.054   8.365  0.3857 -0.6526  0.1886
47528SOL    HW245862   2.370   9.019   8.328  0.9966  1.5524  0.2843
47529SOL     OW45863   0.921   8.494   8.325  0.4549 -0.2923  0.1737
47529SOL    HW145864   1.003   8.530   8.289  1.2357 -3.2901 -1.3517
47529SOL    HW245865   0.931   8.505   8.420  0.6531  3.1763 -0.1100
47530SOL     OW45866   3.617   1.413   6.451  0.0810 -0.5578  0.1127
47530SOL    HW145867   3.616   1.379   6.540 -2.9676 -1.7463 -0.2455
47530SOL    HW245868   3.640   1.338   6.397 -2.2353 -1.0047 -0.3473
47531SOL     OW45869   6.448  11.249   1.301 -0.2020 -0.2589  0.8080
47531SOL    HW145870   6.470  11.160   1.276  1.4432  0.3479 -0.0320
47531SOL    HW245871   6.360  11.263   1.265 -0.0705 -1.1998  0.0890
47532SOL     OW45872  10.666  11.035   6.939  0.0775 -1.1538 -0.7593
47532SOL    HW145873  10.610  11.090   6.884  0.1436 -0.6652 -0.3452
47532SOL    HW245874  10.628  10.947   6.931  0.5178 -1.2502 -2.1671
47533SOL     OW45875  10.499   3.629   7.051 -0.2093 -0.0447  0.7318
47533SOL    HW145876  10.444   3.595   6.981  0.5497  0.0329  0.0806
47533SOL    HW245877  10.462   3.714   7.073 -0.7082 -0.2596  0.7274
47534SOL     OW45878   4.845  10.758   3.052  0.1584  0.1078  0.0016
47534SOL    HW145879   4.895  10.782   2.973 -0.0151  3.0947  0.6813
47534SOL    HW245880   4.768  10.711   3.018  1.3269 -0.8949 -1.3727
47535SOL     OW45881   8.011   8.295   1.097 -0.1561 -0.2052 -0.2834
47535SOL    HW145882   7.946   8.283   1.166  1.5907 -0.4320  1.3995
47535SOL    HW245883   7.975   8.248   1.022 -1.7726 -0.5931  0.6815
47536SOL     OW45884   1.726   8.647   9.836 -0.2534  0.2595  0.1560
47536SOL    HW145885   1.635   8.619   9.827  0.2418 -1.4615  0.0957
47536SOL    HW245886   1.772   8.598   9.768  0.4053  2.8643 -1.3948
47537SOL     OW45887   7.593   6.108   1.171 -0.6582  0.0412 -0.4497
47537SOL    HW145888   7.592   6.158   1.089 -0.9282 -0.1427 -0.5614
47537SOL    HW245889   7.501   6.084   1.185 -0.2331 -2.8383 -1.8922
47538SOL     OW45890  10.398   4.194   9.525  0.8031  0.0437 -0.1197
47538SOL    HW145891  10.485   4.234   9.527  1.3519 -1.0486 -0.7533
47538SOL    HW245892  10.409   4.116   9.470 -0.4464 -0.4328  0.2659
47539SOL     OW45893   4.275   1.495   2.593 -0.0693 -0.4219 -0.2876
47539SOL    HW145894   4.286   1.584   2.624  0.9650 -0.0945 -1.5101
47539SOL    HW245895   4.225   1.451   2.662 -4.0333  2.0432 -1.2679
47540SOL     OW45896   0.795   4.165   4.358 -0.3534 -0.0118  0.1270
47540SOL    HW145897   0.868   4.109   4.333  1.4321  2.2920 -0.2508
47540SOL    HW245898   0.767   4.207   4.277 -3.2346 -1.9246 -0.0264
47541SOL     OW45899   4.012   6.176   0.357  0.2134  0.4509 -0.0341
47541SOL    HW145900   3.931   6.216   0.326 -0.0538  0.0599  0.1446
47541SOL    HW245901   4.000   6.082   0.341  0.4513  0.3427  0.3909
47542SOL     OW45902   0.049   6.507   7.901  0.0031  0.5544  0.0179
47542SOL    HW145903   0.016   6.585   7.855  0.1830  0.2361 -0.6696
47542SOL    HW245904   0.006   6.509   7.986  1.0671  2.1803  0.5840
47543SOL     OW45905   2.710   7.391   7.604 -0.5622 -0.0338 -0.3583
47543SOL    HW145906   2.778   7.330   7.574 -0.4492 -0.4325  0.6588
47543SOL    HW245907   2.748   7.431   7.683 -1.6175 -0.4761  0.3910
47544SOL     OW45908   5.954   2.566   8.949  0.7727 -0.0535 -0.2785
47544SOL    HW145909   6.050   2.567   8.952  0.9109  1.4292 -2.4836
47544SOL    HW245910   5.933   2.501   8.882  0.4033  1.2333 -1.4714
47545SOL     OW45911   8.954   6.802   5.850  0.3495  0.5065  0.0522
47545SOL    HW145912   8.928   6.781   5.760 -1.6914 -1.2816  0.9728
47545SOL    HW245913   8.891   6.867   5.879  1.2258  1.3527  0.0954
47546SOL     OW45914   0.279   8.429  10.344 -0.0553 -0.2910  0.3870
47546SOL    HW145915   0.344   8.459  10.408 -0.1686  0.9355 -0.0613
47546SOL    HW245916   0.227   8.365  10.393 -0.4712  0.9902  1.6922
47547SOL     OW45917   8.177   4.142  11.108 -0.1857 -0.1941  0.6122
47547SOL    HW145918   8.230   4.109  11.035 -0.9627  0.9568 -0.5189
47547SOL    HW245919   8.232   4.128  11.186  0.7084 -1.3443 -0.1922
47548SOL     OW45920   4.220   0.114   2.260 -0.1866  0.1958 -0.3308
47548SOL    HW145921   4.231   0.197   2.307 -1.8107 -0.2134  0.8804
47548SOL    HW245922   4.182   0.056   2.325 -0.8530 -0.9451 -1.7062
47549SOL     OW45923   6.833  10.636   1.171  0.0299 -0.2223 -0.5633
47549SOL    HW145924   6.888  10.706   1.134  0.1828  0.8238  1.4871
47549SOL    HW245925   6.846  10.562   1.112  1.7020  0.7641 -1.5261
47550SOL     OW45926  11.174   2.283  10.855  0.1462  0.0123 -0.0772
47550SOL    HW145927  11.203   2.371  10.881 -2.3847  1.2851 -1.2760
47550SOL    HW245928  11.167   2.287  10.760 -1.9901 -0.7916 -0.0083
47551SOL     OW45929   5.012   1.533  10.855 -0.0828  0.3179 -0.2906
47551SOL    HW145930   4.933   1.581  10.831 -0.7055 -1.1143 -1.2452
47551SOL    HW245931   5.067   1.538  10.777  0.6815  1.0910  0.2798
47552SOL     OW45932   9.189   2.456   8.044  0.0237 -0.0069 -0.1426
47552SOL    HW145933   9.252   2.529   8.036 -1.7193  1.6451  0.4687
47552SOL    HW245934   9.197   2.430   8.136  1.8165 -1.7839 -0.7270
47553SOL     OW45935   0.168   1.096   8.307 -0.1921 -0.6366  0.6849
47553SOL    HW145936   0.113   1.099   8.229 -0.5095 -0.7048  0.9006
47553SOL    HW245937   0.231   1.026   8.290  0.0881 -0.2898  0.2672
47554SOL     OW45938   0.343   9.864   9.622 -0.0814  0.1881 -0.2467
47554SOL    HW145939   0.408   9.798   9.646 -0.1556 -0.4141 -1.6144
47554SOL    HW245940   0.275   9.815   9.577 -1.3157  0.8725  0.7910
47555SOL     OW45941   3.040   5.805  11.182 -0.1138  0.4149 -0.5234
47555SOL    HW145942   3.116   5.834  11.131 -0.0823  2.1240  0.4021
47555SOL    HW245943   2.985   5.759  11.119  0.5335  1.3008 -1.7985
47556SOL     OW45944   5.085   8.604   6.925 -0.4193 -0.1644 -0.5936
47556SOL    HW145945   5.178   8.607   6.947 -0.3749  0.0627 -0.8158
47556SOL    HW245946   5.067   8.511   6.908 -1.1876 -0.9884  3.5769
47557SOL     OW45947   1.276   7.642   9.109  0.6537 -0.7636  0.3457
47557SOL    HW145948   1.181   7.656   9.114  0.6995 -0.2403 -0.1552
47557SOL    HW245949   1.293   7.624   9.017  1.0357 -0.9097  0.4446
47558SOL     OW45950   8.292   8.631   6.835 -0.0651 -0.3074 -0.0862
47558SOL    HW145951   8.229   8.699   6.860  2.5517  1.7338  1.5911
47558SOL    HW245952   8.317   8.653   6.745  0.1556  0.5188  0.1653
47559SOL     OW45953   9.568   9.753   5.270 -0.2810 -0.0947  0.0826
47559SOL    HW145954   9.493   9.749   5.210 -0.6221  1.0012  0.4260
47559SOL    HW245955   9.543   9.694   5.342 -0.2446 -0.7349 -0.4167
47560SOL     OW45956   8.314   5.671  10.092 -0.2987  0.1055  0.1711
47560SOL    HW145957   8.354   5.586  10.072 -0.4131 -0.6368  2.6213
47560SOL    HW245958   8.382   5.735  10.074 -0.3340 -0.4387 -2.0934
47561SOL     OW45959   6.327   6.090   0.332 -0.2235  0.7482  0.2681
47561SOL    HW145960   6.341   6.184   0.341  2.7602  0.4511 -0.1001
47561SOL    HW245961   6.329   6.057   0.422  2.3083  0.7424  0.2962
47562SOL     OW45962   2.805   1.017   7.219 -0.3481 -0.0948 -0.3640
47562SOL    HW145963   2.773   1.002   7.130 -0.8715 -0.4147 -0.1240
47562SOL    HW245964   2.772   1.105   7.241 -2.6397 -1.1027  0.5388
47563SOL     OW45965   8.512   0.262  10.369 -0.6301  0.1808 -0.0582
47563SOL    HW145966   8.442   0.218  10.417  0.0837 -0.0541  0.7759
47563SOL    HW245967   8.563   0.190  10.331 -0.0338  0.3190  0.4892
47564SOL     OW45968   7.706   9.849   2.051 -0.1770  0.5375  0.1877
47564SOL    HW145969   7.686   9.835   1.958  0.4191  2.9328 -0.3653
47564SOL    HW245970   7.763   9.776   2.074  1.0296  0.7652 -1.8274
47565SOL     OW45971   4.385   9.755  11.392 -0.2049 -0.7686  0.0105
47565SOL    HW145972   4.363   9.734  11.482 -0.8684  0.2460  0.1038
47565SOL    HW245973   4.476   9.784  11.396 -0.4668  0.0123  0.4895
47566SOL     OW45974   3.162   8.225   8.009 -0.2826  0.7559 -0.5516
47566SOL    HW145975   3.110   8.235   8.088  0.9000 -2.2713  0.7491
47566SOL    HW245976   3.104   8.182   7.946 -0.4915  0.9345 -0.4810
47567SOL     OW45977   8.614   5.057   0.483 -0.5190  0.1920  0.4188
47567SOL    HW145978   8.665   4.976   0.472  0.6079  0.9074  0.1978
47567SOL    HW245979   8.547   5.034   0.548 -0.0230 -0.8308  0.5955
47568SOL     OW45980   8.069   2.816   5.494  0.3962 -0.3616  0.0719
47568SOL    HW145981   8.150   2.779   5.460  1.1758  0.1772  1.2792
47568SOL    HW245982   8.064   2.786   5.585  0.0550  0.8537  0.4881
47569SOL     OW45983   7.039  10.205   1.307  0.6672  0.4566 -0.5546
47569SOL    HW145984   6.987  10.125   1.293 -0.2356  1.0626 -0.7523
47569SOL    HW245985   7.029  10.224   1.401  0.6076  0.5241 -0.5747
47570SOL     OW45986   0.233   8.839   5.439  0.1924 -0.0605 -0.0736
47570SOL    HW145987   0.223   8.934   5.445  0.8251  0.1709 -2.1255
47570SOL    HW245988   0.190   8.805   5.518 -1.9318  1.7928 -0.3591
47571SOL     OW45989   3.149   9.007   4.575  0.0130  0.3173 -0.0346
47571SOL    HW145990   3.070   9.056   4.597  0.1749 -0.7834  3.5321
47571SOL    HW245991   3.117   8.932   4.524 -0.6977  1.7689 -1.8598
47572SOL     OW45992   8.599   4.427   3.066 -1.0044  0.6183  0.3777
47572SOL    HW145993   8.600   4.422   2.971 -1.6386 -1.9803  0.4168
47572SOL    HW245994   8.673   4.372   3.094 -1.4799  0.4506  1.3587
47573SOL     OW45995   1.267   9.952  11.008  0.4225  0.5365 -0.3152
47573SOL    HW145996   1.299   9.946  11.098 -3.1309 -0.4132  1.0827
47573SOL    HW245997   1.281   9.865  10.971  0.5006  0.4699 -0.1257
47574SOL     OW45998  10.249   6.526   0.006  0.3121  0.0461 -0.2495
47574SOL    HW145999  10.173   6.533   0.065  0.4228 -0.4187 -0.0528
47574SOL    HW246000  10.218   6.564  -0.076 -0.8499 -1.9936 -0.8409
47575SOL     OW46001   3.911   8.834   5.671 -0.3399 -0.6170 -0.3403
47575SOL    HW146002   3.937   8.892   5.742  1.3224 -0.5370 -0.9573
47575SOL    HW246003   3.890   8.751   5.714 -0.0028 -0.3736  0.3045
47576SOL     OW46004   3.642   8.832   1.378  0.7438  0.2351 -0.3816
47576SOL    HW146005   3.648   8.877   1.462  2.7928  0.4894 -0.6102
47576SOL    HW246006   3.667   8.899   1.314  1.3320 -0.5378 -0.9722
47577SOL     OW46007   9.893   1.497   0.426 -0.0912  0.6639  0.7274
47577SOL    HW146008   9.974   1.497   0.478  0.2086  0.9669  0.2670
47577SOL    HW246009   9.845   1.574   0.456 -0.0374  0.6921  0.7412
47578SOL     OW46010   0.841   3.939   2.333 -0.1111  0.0938 -0.3283
47578SOL    HW146011   0.906   3.888   2.284  0.5981  0.2415  0.4329
47578SOL    HW246012   0.885   4.022   2.352 -0.8601  0.5681 -0.5920
47579SOL     OW46013   4.184  10.162   3.248  0.0540  0.5350 -0.2146
47579SOL    HW146014   4.250  10.218   3.206  1.0090 -0.6403 -0.3379
47579SOL    HW246015   4.124  10.224   3.290 -0.6868  1.7520 -2.8743
47580SOL     OW46016   5.915   8.456   0.444  0.0791  0.0635  0.5401
47580SOL    HW146017   5.820   8.464   0.459  0.2880  1.1860  1.3378
47580SOL    HW246018   5.922   8.444   0.349 -0.9080 -0.9730  0.5678
47581SOL     OW46019  10.320   4.149  10.633 -0.6371  0.2209  0.2319
47581SOL    HW146020  10.377   4.075  10.656 -1.4816 -0.5757 -0.1862
47581SOL    HW246021  10.268   4.164  10.711 -0.1800  0.6601  0.4598
47582SOL     OW46022   2.913   0.089  10.897  0.0978 -0.1399  0.0861
47582SOL    HW146023   2.945   0.137  10.820  0.0753  0.0412  0.1899
47582SOL    HW246024   2.829   0.053  10.869 -0.0652  0.1995  0.1310
47583SOL     OW46025  10.643   2.982   2.728  0.0716  0.3296 -0.5191
47583SOL    HW146026  10.574   2.965   2.792 -1.2413  1.7952 -1.4395
47583SOL    HW246027  10.675   2.896   2.702  0.8778 -0.3058  2.2750
47584SOL     OW46028  10.041   5.087   2.115 -0.2522 -0.3301 -0.6114
47584SOL    HW146029  10.081   5.110   2.199 -0.1480 -2.0534 -0.1553
47584SOL    HW246030  10.114   5.085   2.054 -0.1570 -0.2006 -0.5041
47585SOL     OW46031   0.070   1.406   8.907  0.1986  0.1444  0.1986
47585SOL    HW146032   0.023   1.346   8.849  0.8861 -0.1655 -0.0407
47585SOL    HW246033   0.144   1.436   8.855 -0.6481  1.9591 -0.0321
47586SOL     OW46034   0.360   6.722   8.119  0.0053  0.2665  0.5714
47586SOL    HW146035   0.273   6.720   8.158  0.1453  0.7626  0.9179
47586SOL    HW246036   0.346   6.698   8.027 -0.8113  2.4464  0.0574
47587SOL     OW46037  10.813   0.994  10.946 -0.0093  0.1296 -0.1533
47587SOL    HW146038  10.786   0.952  10.864 -0.3970  1.9257 -1.0002
47587SOL    HW246039  10.883   1.054  10.920  0.4908  0.0715  0.9932
47588SOL     OW46040   9.688  10.413   8.275 -0.3105  0.2524  0.5941
47588SOL    HW146041   9.607  10.363   8.284  0.4342 -1.2050 -0.3554
47588SOL    HW246042   9.754  10.361   8.320  0.5796  0.1201 -0.8043
47589SOL     OW46043   2.641   2.011   2.148 -0.1591 -0.0224  0.1763
47589SOL    HW146044   2.640   2.103   2.175 -0.9143  1.2968 -3.6363
47589SOL    HW246045   2.733   1.993   2.128 -0.0742  0.0243  0.5154
47590SOL     OW46046   4.852   2.493   0.291 -0.0421  0.5503 -0.3329
47590SOL    HW146047   4.932   2.533   0.257 -0.4976  0.5610 -1.4260
47590SOL    HW246048   4.868   2.399   0.283  1.2921  0.3709  2.8359
47591SOL     OW46049   6.448   3.685   0.628 -0.1082 -0.2569  0.1708
47591SOL    HW146050   6.526   3.679   0.573 -0.5846 -0.7639 -0.4620
47591SOL    HW246051   6.435   3.779   0.641  0.1351 -0.1392 -0.4134
47592SOL     OW46052   7.045   6.643   0.611  0.0880  0.1037 -0.3619
47592SOL    HW146053   7.033   6.707   0.542 -0.2200  0.7215  0.2535
47592SOL    HW246054   7.062   6.561   0.565  0.8958  0.6944 -1.1527
47593SOL     OW46055   2.901   4.908   4.458  0.4788 -0.7784  0.0949
47593SOL    HW146056   2.818   4.910   4.504  0.5811 -3.5925  0.5542
47593SOL    HW246057   2.905   4.992   4.411 -1.6147  0.2950  1.6886
47594SOL     OW46058   3.928   0.341   4.719 -0.3676  0.3297  0.6396
47594SOL    HW146059   3.926   0.314   4.628 -0.3376  1.2192  0.3677
47594SOL    HW246060   4.002   0.402   4.724  1.0656 -1.3601  1.7390
47595SOL     OW46061   0.669   8.719   2.777 -0.1753  1.2047  0.1891
47595SOL    HW146062   0.661   8.683   2.865  1.2036 -0.0647 -0.1660
47595SOL    HW246063   0.584   8.702   2.736  0.1276 -0.9230  0.3322
47596SOL     OW46064   9.066   5.560   5.593 -0.1053  0.3170 -0.4605
47596SOL    HW146065   9.042   5.602   5.510 -1.9440  1.0921  0.4228
47596SOL    HW246066   9.026   5.473   5.588  1.7310 -0.5359 -1.3020
47597SOL     OW46067  10.199   8.606   9.347  0.3258 -0.5201  0.1769
47597SOL    HW146068  10.272   8.554   9.382 -0.3810 -1.7392 -0.1122
47597SOL    HW246069  10.122   8.550   9.358 -0.5779  0.7490  0.4771
47598SOL     OW46070  10.866   6.151   4.904  0.2069 -0.4856  0.2588
47598SOL    HW146071  10.950   6.166   4.948  0.4486 -0.5387 -0.1801
47598SOL    HW246072  10.803   6.146   4.976  0.7851 -1.9231  0.7313
47599SOL     OW46073   2.244   8.527   6.673 -0.1078  0.0190  0.3313
47599SOL    HW146074   2.187   8.578   6.730  0.0911 -0.2688  0.7867
47599SOL    HW246075   2.264   8.587   6.600 -0.1313  0.4815  0.6991
47600SOL     OW46076   7.655   5.906   4.956 -0.3257 -0.1248  0.3563
47600SOL    HW146077   7.637   5.959   4.879 -0.2146 -1.3475 -0.5377
47600SOL    HW246078   7.742   5.935   4.986  0.6342 -1.1415 -1.3120
47601SOL     OW46079   2.386  10.086   8.781 -0.1635  0.2632  0.6824
47601SOL    HW146080   2.354  10.164   8.735 -1.6342  0.3829  1.8322
47601SOL    HW246081   2.436  10.120   8.854  1.0595  0.0809 -0.0456
47602SOL     OW46082   2.777   8.265   5.744 -0.4102  0.0251 -0.3076
47602SOL    HW146083   2.830   8.192   5.776 -1.2085  0.3165  1.8433
47602SOL    HW246084   2.787   8.333   5.810 -1.3132  1.0921 -1.2350
47603SOL     OW46085   4.563   8.851   3.286 -0.3861 -0.4540 -0.2153
47603SOL    HW146086   4.636   8.823   3.231  0.3911  0.9497  0.0534
47603SOL    HW246087   4.592   8.935   3.323 -2.0568  0.0314  0.0585
47604SOL     OW46088   0.032   5.052  11.246 -0.8946 -0.0589 -0.3551
47604SOL    HW146089  -0.056   5.028  11.278 -0.0402 -1.4681  1.0688
47604SOL    HW246090   0.073   5.095  11.321 -0.0071 -0.3484 -0.6712
47605SOL     OW46091   2.097   6.388   7.483 -0.2261 -0.6251 -0.6974
47605SOL    HW146092   2.087   6.425   7.571 -0.7892  1.4585 -1.5892
47605SOL    HW246093   2.039   6.312   7.483 -2.8026  1.1993 -0.2316
47606SOL     OW46094   8.287   4.921   3.577  0.3151  0.0063  0.6622
47606SOL    HW146095   8.333   4.848   3.536 -1.6227 -0.1394 -1.4095
47606SOL    HW246096   8.316   4.998   3.527 -1.4542 -0.0632 -0.5385
47607SOL     OW46097   4.549   5.812   4.738 -0.0119 -0.4567 -0.0593
47607SOL    HW146098   4.642   5.826   4.717  0.0194 -0.5127  0.0386
47607SOL    HW246099   4.506   5.893   4.711 -0.3124 -1.3231 -2.3409
47608SOL     OW46100   3.106   0.583   3.870  0.3862 -0.2365  0.1140
47608SOL    HW146101   3.030   0.635   3.845 -0.2471 -0.9336  0.5357
47608SOL    HW246102   3.181   0.640   3.852 -0.1912  0.2323 -0.8769
47609SOL     OW46103   2.301   8.607  11.136 -0.3630  0.4293  0.0774
47609SOL    HW146104   2.379   8.552  11.142 -0.0801  0.8510  0.3262
47609SOL    HW246105   2.264   8.607  11.224 -1.0375 -0.3247 -0.1942
47610SOL     OW46106   0.971   0.532   5.274 -0.3494  0.4692  0.2018
47610SOL    HW146107   1.050   0.483   5.254 -0.5582  0.0817  0.3103
47610SOL    HW246108   0.907   0.502   5.209 -0.5245  0.4788  0.3675
47611SOL     OW46109   2.792   2.025   7.857  0.3206 -0.2074 -0.5570
47611SOL    HW146110   2.790   1.971   7.778 -0.1022 -2.2807  0.7956
47611SOL    HW246111   2.731   1.982   7.917  0.1393  1.6840  0.6851
47612SOL     OW46112   6.730  10.632   6.366  0.1037 -0.1530  0.0297
47612SOL    HW146113   6.814  10.587   6.361  0.0126 -0.2811 -0.4388
47612SOL    HW246114   6.669  10.573   6.321 -0.2783 -0.1599  0.5493
47613SOL     OW46115   3.950  11.030   0.232 -0.0838  0.0673  0.0453
47613SOL    HW146116   4.030  10.979   0.244  0.1255  0.3782  0.0028
47613SOL    HW246117   3.935  11.029   0.137 -0.2130 -0.1175  0.0689
47614SOL     OW46118   7.890   7.594   6.311  0.0472  0.1111  0.8509
47614SOL    HW146119   7.889   7.650   6.388  1.4767 -0.3797  1.2514
47614SOL    HW246120   7.798   7.576   6.294 -0.3660  1.3897  1.5678
47615SOL     OW46121   9.057   3.749   8.702  0.0235  0.2928 -0.1945
47615SOL    HW146122   9.053   3.659   8.733 -1.7808  0.8133  1.2749
47615SOL    HW246123   9.023   3.745   8.612 -0.6470 -0.4278  0.0764
47616SOL     OW46124  11.156   9.802   4.847  0.3799  0.0673 -0.1585
47616SOL    HW146125  11.143   9.739   4.776 -0.0895 -0.7157  0.5987
47616SOL    HW246126  11.088   9.868   4.833  1.2748  0.7670 -1.3213
47617SOL     OW46127   8.344   2.921   2.637  0.4663 -0.8066 -0.4315
47617SOL    HW146128   8.438   2.911   2.658 -0.1113 -1.2008  2.4794
47617SOL    HW246129   8.340   2.997   2.579  2.4991  0.2531  0.6849
47618SOL     OW46130   3.522   8.861   3.930  0.0038 -0.3472  0.4414
47618SOL    HW146131   3.477   8.777   3.932 -1.2720  0.1066 -2.8814
47618SOL    HW246132   3.609   8.841   3.894 -0.5496 -0.2347 -1.0379
47619SOL     OW46133   7.241   1.709   1.258 -0.1959 -0.2487 -0.0918
47619SOL    HW146134   7.270   1.795   1.227 -0.0867  0.0616  0.8306
47619SOL    HW246135   7.211   1.725   1.348 -0.8003 -1.0533 -0.1391
47620SOL     OW46136   5.418   4.691   9.280 -0.1684 -0.2375 -0.8357
47620SOL    HW146137   5.329   4.726   9.288 -0.5893 -0.3882 -3.8227
47620SOL    HW246138   5.409   4.613   9.226  1.7034 -0.6909 -0.5604
47621SOL     OW46139   7.952   2.261   4.098 -0.5371  0.1314  0.3046
47621SOL    HW146140   8.034   2.293   4.137  0.2136 -1.1248 -0.1762
47621SOL    HW246141   7.961   2.280   4.005  0.2690 -2.0591 -0.1204
47622SOL     OW46142   4.106   5.500   5.826 -0.4238 -0.0728  0.4660
47622SOL    HW146143   4.059   5.490   5.744  0.0902  3.9134 -0.5061
47622SOL    HW246144   4.173   5.432   5.824 -0.9688 -0.6188 -2.0119
47623SOL     OW46145   2.541   8.195   0.116  0.2786  0.5310 -0.6272
47623SOL    HW146146   2.523   8.115   0.067  1.2535  0.3617 -0.7267
47623SOL    HW246147   2.582   8.253   0.053  0.2800  0.8293 -0.3532
47624SOL     OW46148   1.736   9.981  11.341  0.3121  0.6173 -0.0003
47624SOL    HW146149   1.830   9.970  11.350  0.3899  1.9015  0.9855
47624SOL    HW246150   1.725  10.023  11.255  0.4764 -0.9852 -0.8485
47625SOL     OW46151   2.517   2.296   1.345  0.1194  0.1319  0.2915
47625SOL    HW146152   2.522   2.285   1.250  1.1009 -0.6928  0.4274
47625SOL    HW246153   2.512   2.207   1.379 -1.9889  0.4460  0.9567
47626SOL     OW46154   9.079   1.196   6.940 -0.4011 -0.3311  0.6112
47626SOL    HW146155   8.984   1.202   6.932 -0.2290  0.1587 -1.5123
47626SOL    HW246156   9.096   1.103   6.953 -1.1840 -0.3342  1.8242
47627SOL     OW46157   5.916  11.094   6.795 -0.1208 -0.0138 -0.5132
47627SOL    HW146158   5.867  11.012   6.804  1.9028 -1.2908 -0.3218
47627SOL    HW246159   5.879  11.152   6.862 -0.5182 -1.3545  0.4699
47628SOL     OW46160   3.684   3.948   6.241  0.4268  0.2084  0.0352
47628SOL    HW146161   3.639   3.877   6.287  0.1034 -0.8603 -1.8428
47628SOL    HW246162   3.748   3.904   6.186  2.1430  1.5856  0.8385
47629SOL     OW46163   3.521   0.745   8.290  0.0955  0.1057 -0.0047
47629SOL    HW146164   3.568   0.823   8.321 -0.8092  0.9045 -0.5888
47629SOL    HW246165   3.563   0.724   8.206 -0.5723  0.8238 -0.5312
47630SOL     OW46166  10.103   3.885  10.613 -0.3435 -0.2685  0.0978
47630SOL    HW146167  10.100   3.918  10.702 -1.2510 -1.0585  0.3707
47630SOL    HW246168  10.174   3.820  10.613  0.0739  0.1828  0.0759
47631SOL     OW46169   1.802   9.792   8.074 -0.0513  0.1881 -0.3488
47631SOL    HW146170   1.759   9.711   8.045  1.7879 -0.4206 -1.4991
47631SOL    HW246171   1.748   9.822   8.147 -3.7769  0.7205 -3.0281
47632SOL     OW46172   9.713   5.005   9.546  0.6736 -0.3127  0.6836
47632SOL    HW146173   9.639   4.985   9.602 -0.0447  0.5968  0.0903
47632SOL    HW246174   9.757   5.079   9.589  0.2166  0.2787  0.1606
47633SOL     OW46175   1.139   4.414  10.455  0.4162  0.3069 -0.2902
47633SOL    HW146176   1.141   4.465  10.374 -2.3639 -0.7833 -1.1825
47633SOL    HW246177   1.173   4.328  10.429 -2.6736 -0.8111 -1.0735
47634SOL     OW46178   7.097   6.290  10.532  0.1255  0.3456 -0.4667
47634SOL    HW146179   7.120   6.197  10.536  0.8518  0.4260 -1.9598
47634SOL    HW246180   7.174   6.335  10.565  0.5335  0.4597 -1.5207
47635SOL     OW46181   2.518   0.364   2.058  0.0858  0.6960  0.9538
47635SOL    HW146182   2.455   0.371   1.985  0.0281 -0.5982  0.8533
47635SOL    HW246183   2.558   0.451   2.064 -2.4032  1.8844  1.6586
47636SOL     OW46184   2.066   8.731   0.931 -0.1001  0.3939  0.3623
47636SOL    HW146185   2.087   8.639   0.945  0.6194  0.6112  0.7936
47636SOL    HW246186   2.143   8.767   0.886 -1.9635 -0.0703 -3.6074
47637SOL     OW46187   6.393  10.388  11.012 -0.1838  0.7889 -0.8468
47637SOL    HW146188   6.328  10.318  11.015 -0.6412  1.0917 -2.7272
47637SOL    HW246189   6.381  10.435  11.095  1.5070 -2.4573  1.4550
47638SOL     OW46190   4.932   7.280   4.080 -0.5528 -0.4377 -0.1440
47638SOL    HW146191   4.908   7.324   4.161  1.4988 -0.6415  0.6282
47638SOL    HW246192   4.911   7.344   4.011 -0.2225  0.6477  0.7322
47639SOL     OW46193   4.669   2.384   6.488 -0.2914  0.4307 -0.4108
47639SOL    HW146194   4.714   2.396   6.405 -0.5807 -1.8232 -0.9534
47639SOL    HW246195   4.579   2.412   6.471 -0.3361  0.0334 -0.8350
47640SOL     OW46196   2.978   9.540   6.323  0.2350  0.3931 -0.4731
47640SOL    HW146197   3.064   9.516   6.356  0.1930 -0.2846 -0.8363
47640SOL    HW246198   2.922   9.542   6.400  0.2702 -0.5844 -0.4122
47641SOL     OW46199   1.921  10.496   0.677 -0.0938 -0.6829  0.0517
47641SOL    HW146200   1.976  10.474   0.753 -0.5306 -0.4687  0.4335
47641SOL    HW246201   1.921  10.417   0.624 -0.6178 -1.1958  0.7899
47642SOL     OW46202   0.303  11.189   8.236 -0.0156  0.3578 -0.1483
47642SOL    HW146203   0.390  11.166   8.268  0.9109  0.6650 -2.3297
47642SOL    HW246204   0.267  11.247   8.304  0.2021 -2.1344  2.2634
47643SOL     OW46205   8.425   9.703  10.914 -0.5245 -0.3885 -0.1224
47643SOL    HW146206   8.451   9.792  10.889 -0.7151  0.0880  1.2849
47643SOL    HW246207   8.345   9.687  10.864  0.2710 -0.3420 -1.4669
47644SOL     OW46208   7.461   9.747   5.168  0.2526  0.5132  0.3249
47644SOL    HW146209   7.532   9.783   5.221  1.0609  0.3324 -0.5905
47644SOL    HW246210   7.503   9.727   5.084 -0.8387  0.1789 -0.1520
47645SOL     OW46211   7.261   5.422   2.663  0.2222  0.7857  0.1718
47645SOL    HW146212   7.238   5.329   2.653  1.2031  0.5606 -0.1522
47645SOL    HW246213   7.208   5.467   2.597 -1.0362  0.5941  1.0328
47646SOL     OW46214   2.696   5.889   7.649  0.0768  0.1229  0.0219
47646SOL    HW146215   2.713   5.799   7.678 -0.2632 -0.1869 -0.7142
47646SOL    HW246216   2.608   5.886   7.611  0.5682  0.4561 -1.2035
47647SOL     OW46217   1.200   9.180  10.537 -0.1322 -0.2677  0.9253
47647SOL    HW146218   1.267   9.185  10.606  0.0975 -0.2777  0.7067
47647SOL    HW246219   1.139   9.113  10.568 -1.4283  1.4718  2.3056
47648SOL     OW46220   8.114   3.750   5.496 -0.0708 -0.6204 -0.2844
47648SOL    HW146221   8.055   3.823   5.513 -0.8141 -1.2104 -0.2419
47648SOL    HW246222   8.123   3.706   5.581  2.6529  1.0083  0.3862
47649SOL     OW46223   1.484   7.806   6.812  0.6212  0.0161  0.0714
47649SOL    HW146224   1.539   7.872   6.854 -0.4801  1.3007 -0.4299
47649SOL    HW246225   1.469   7.740   6.880  1.2996  0.5545  0.7516
47650SOL     OW46226   4.623   0.900   6.344  0.0284  0.1329 -0.2339
47650SOL    HW146227   4.554   0.959   6.312  1.2891  2.1569  0.6170
47650SOL    HW246228   4.684   0.894   6.271 -0.4832 -0.8047 -0.6034
47651SOL     OW46229   5.258   9.680   7.279  0.4938 -0.1997  0.8337
47651SOL    HW146230   5.228   9.719   7.361 -0.0916 -0.5834  0.8083
47651SOL    HW246231   5.187   9.622   7.253  1.0377 -0.7211  0.4916
47652SOL     OW46232   7.271   4.830   7.998  0.3415  0.4828 -0.5185
47652SOL    HW146233   7.197   4.890   7.987  0.7145  0.8162 -1.2588
47652SOL    HW246234   7.295   4.804   7.909  1.3422  0.6501 -0.3108
47653SOL     OW46235   2.488   7.273   9.946  0.4228 -0.0686  0.4060
47653SOL    HW146236   2.512   7.293   9.856  1.1059 -0.2375  0.5425
47653SOL    HW246237   2.531   7.189   9.964  1.4918  0.6435  1.3339
47654SOL     OW46238   0.892   3.601   6.070  0.2157  0.0493 -0.0350
47654SOL    HW146239   0.837   3.658   6.125  1.7516  1.0692  0.5166
47654SOL    HW246240   0.830   3.544   6.026 -1.2500  0.7606  0.9991
47655SOL     OW46241   2.129   4.598  11.113 -0.0578 -0.2556  0.4373
47655SOL    HW146242   2.209   4.584  11.165  0.1706 -0.3683  0.0550
47655SOL    HW246243   2.153   4.666  11.050  0.4082 -1.8017 -1.1157
47656SOL     OW46244   6.488   6.430   2.070  0.0452  0.3221 -0.7914
47656SOL    HW146245   6.529   6.496   2.125 -1.3869  0.1492  0.5607
47656SOL    HW246246   6.458   6.477   1.992 -1.0204  1.3132  0.1867
47657SOL     OW46247   5.923   6.704   4.783  0.5174 -0.1067 -0.3932
47657SOL    HW146248   5.884   6.644   4.846  1.4422 -0.1462  0.1552
47657SOL    HW246249   5.998   6.657   4.748  0.6500  0.3353 -0.7165
47658SOL     OW46250   4.368   5.097   6.373 -0.2893 -0.2916 -0.5056
47658SOL    HW146251   4.394   5.076   6.463  0.8802  0.4287 -0.6619
47658SOL    HW246252   4.364   5.012   6.329  1.5475 -0.4683 -0.3915
47659SOL     OW46253   7.408   6.950   7.441 -0.3249 -0.3618  0.2628
47659SOL    HW146254   7.319   6.971   7.412 -0.5682 -2.2478 -0.5288
47659SOL    HW246255   7.464   7.005   7.387 -0.9590 -0.1603 -0.2062
47660SOL     OW46256   6.101   4.048   1.503  0.5036  0.3705  0.0500
47660SOL    HW146257   6.063   4.075   1.586 -0.0726  0.7106 -0.3136
47660SOL    HW246258   6.042   4.085   1.437 -0.4634 -1.9169 -0.4857
47661SOL     OW46259   1.527   7.912   7.417 -0.1594  0.0379  0.4213
47661SOL    HW146260   1.441   7.947   7.436 -0.1135  1.1812 -1.2740
47661SOL    HW246261   1.574   7.917   7.500 -1.5768 -0.2569  1.2769
47662SOL     OW46262   4.371   8.564  10.676 -0.6303 -0.9708  0.2995
47662SOL    HW146263   4.406   8.628  10.614  0.6734 -3.1928 -1.3959
47662SOL    HW246264   4.298   8.610  10.719 -0.2800  1.3443 -1.3837
47663SOL     OW46265   2.496   1.184   1.189  0.2890 -1.0161 -0.2716
47663SOL    HW146266   2.438   1.258   1.208  0.3994 -1.2328  1.0411
47663SOL    HW246267   2.458   1.111   1.238  0.0442 -1.9103 -1.7534
47664SOL     OW46268   3.855   1.249   1.208  0.1740 -0.5211  0.5447
47664SOL    HW146269   3.764   1.275   1.194  0.1938 -1.6024 -2.1849
47664SOL    HW246270   3.901   1.331   1.227 -1.2944  0.0722  1.6673
47665SOL     OW46271   2.184  10.790   2.141  0.2032  1.1980 -1.2067
47665SOL    HW146272   2.095  10.811   2.167 -0.3059  0.2457 -2.0976
47665SOL    HW246273   2.202  10.705   2.180  0.1493  0.6753 -2.2925
47666SOL     OW46274   4.523   8.214  10.496  0.0389  0.4947 -0.6186
47666SOL    HW146275   4.561   8.140  10.542 -1.3471  1.1536  1.7266
47666SOL    HW246276   4.447   8.240  10.549 -0.6216  2.4228 -2.3559
47667SOL     OW46277   6.577   5.705   7.928  0.6774  0.2110 -0.8158
47667SOL    HW146278   6.484   5.712   7.907  0.0684 -0.7172  1.3032
47667SOL    HW246279   6.607   5.627   7.881 -0.2799 -0.9706  0.4570
47668SOL     OW46280   3.350   2.336   9.672 -0.4427 -0.4541  0.4572
47668SOL    HW146281   3.341   2.313   9.580  0.0601  0.5948  0.1378
47668SOL    HW246282   3.272   2.297   9.713 -1.6926  0.6676 -0.7270
47669SOL     OW46283   9.061   8.879   1.068 -0.3480  0.1973  0.3271
47669SOL    HW146284   9.094   8.890   0.978 -2.0080  1.6488 -0.1551
47669SOL    HW246285   9.089   8.959   1.113  1.4480 -1.0069  1.4897
47670SOL     OW46286   8.834  10.940   9.640 -0.1725  0.3216 -0.1340
47670SOL    HW146287   8.883  11.020   9.619  0.7481  0.2022  1.4055
47670SOL    HW246288   8.774  10.967   9.710  0.5112 -0.4271  0.7598
47671SOL     OW46289   6.536   3.247   2.105  0.4758 -0.0972  0.3306
47671SOL    HW146290   6.590   3.245   2.184  0.4377  0.2343  0.3644
47671SOL    HW246291   6.447   3.259   2.137  0.3943 -0.4890  0.2652
47672SOL     OW46292  10.136   5.832   1.546  0.6817 -0.4419 -0.3747
47672SOL    HW146293  10.207   5.811   1.606  0.5816 -0.9590 -0.4327
47672SOL    HW246294  10.058   5.832   1.600  0.7512  0.4220 -0.2531
47673SOL     OW46295  10.188   3.588   9.784  0.4317  0.0059  0.5203
47673SOL    HW146296  10.159   3.604   9.694  0.6944 -1.2838  0.1835
47673SOL    HW246297  10.284   3.590   9.779  0.4507 -0.4281  0.6961
47674SOL     OW46298   1.626   4.721   3.328 -0.1503 -0.2359  0.7707
47674SOL    HW146299   1.623   4.758   3.240  0.7184  2.1643  1.6621
47674SOL    HW246300   1.544   4.671   3.337 -0.4703 -0.1125 -1.1974
47675SOL     OW46301   2.655   4.751   4.871  0.2232 -0.4339 -0.1539
47675SOL    HW146302   2.709   4.737   4.793 -0.8773  1.5494 -1.3431
47675SOL    HW246303   2.566   4.734   4.842 -0.0965 -0.7708  0.9854
47676SOL     OW46304   7.449   0.520   5.382  0.3787 -0.1114 -0.4349
47676SOL    HW146305   7.446   0.535   5.476  1.5622  0.5606 -0.4755
47676SOL    HW246306   7.470   0.606   5.345  0.0471 -0.3887 -1.3129
47677SOL     OW46307   6.909  10.126   8.471  0.5534  0.1026  0.2641
47677SOL    HW146308   6.992  10.136   8.517  0.8564  0.5162 -0.3595
47677SOL    HW246309   6.866  10.211   8.480 -0.3020 -0.4205  1.5007
47678SOL     OW46310   1.973   6.682   0.235  0.1810  0.0916 -0.1249
47678SOL    HW146311   1.951   6.673   0.328 -2.9616  1.4219 -0.6069
47678SOL    HW246312   2.005   6.771   0.226  0.7834 -0.1372 -0.2931
47679SOL     OW46313   0.166   8.528  10.091  0.1908 -0.2481 -0.3788
47679SOL    HW146314   0.133   8.615  10.112  1.0244 -0.2279  0.9305
47679SOL    HW246315   0.188   8.489  10.175  2.3451 -0.7045 -1.0869
47680SOL     OW46316   8.576  10.626   6.572 -0.3174  0.0971 -0.4903
47680SOL    HW146317   8.664  10.599   6.598  0.1896 -0.4031 -2.5754
47680SOL    HW246318   8.555  10.698   6.631  0.9302 -0.6398  0.9184
47681SOL     OW46319   7.738   7.020   9.069 -0.2123 -0.1896  0.2922
47681SOL    HW146320   7.741   7.106   9.026  0.4525  0.1999  1.0858
47681SOL    HW246321   7.827   6.986   9.060 -0.4270 -0.7222  0.1444
47682SOL     OW46322   8.190   6.637   1.173  0.0301  0.2625  0.4302
47682SOL    HW146323   8.214   6.570   1.237 -0.0622 -0.5075 -0.3262
47682SOL    HW246324   8.107   6.606   1.136  0.2801  0.5037 -0.3426
47683SOL     OW46325   2.803   8.507   2.669  0.3481  0.2879 -0.1967
47683SOL    HW146326   2.771   8.418   2.681  0.7095  0.3122  1.1290
47683SOL    HW246327   2.772   8.555   2.746 -0.9568  1.6631 -1.5065
47684SOL     OW46328   4.860   6.768   5.319  0.1010  0.6767  0.2750
47684SOL    HW146329   4.882   6.688   5.368  0.8609  1.8749  1.9894
47684SOL    HW246330   4.907   6.838   5.364 -0.2826  2.0795 -1.3755
47685SOL     OW46331   8.703   5.103   9.538  0.3223 -0.1116 -0.5241
47685SOL    HW146332   8.653   5.176   9.575  1.1896 -1.3583  3.5701
47685SOL    HW246333   8.645   5.067   9.470 -2.1426  1.5105  0.5685
47686SOL     OW46334   8.932  10.818   7.314  0.5290 -0.0032 -0.4616
47686SOL    HW146335   8.940  10.909   7.289 -0.9350 -0.0969 -1.3868
47686SOL    HW246336   8.951  10.817   7.408  0.4622  1.2546 -0.4242
47687SOL     OW46337   8.886   3.722   9.641  0.3383  0.1367  0.4032
47687SOL    HW146338   8.973   3.756   9.619  0.3907  1.6369  2.5592
47687SOL    HW246339   8.865   3.661   9.570  3.0733 -0.1753 -0.2472
47688SOL     OW46340   4.601   2.780   9.905 -0.7584  0.2819 -0.3576
47688SOL    HW146341   4.560   2.816   9.983 -0.9358 -0.2937 -0.1800
47688SOL    HW246342   4.560   2.827   9.833 -0.4722  0.9361 -0.0987
47689SOL     OW46343   3.431  10.254   7.270 -0.4494 -0.3250 -0.3200
47689SOL    HW146344   3.513  10.290   7.236 -0.8818  1.7376  0.6633
47689SOL    HW246345   3.367  10.271   7.201 -0.2173 -1.3907 -0.8306
47690SOL     OW46346   8.614   5.462   7.653 -0.0135  0.1537 -0.4240
47690SOL    HW146347   8.697   5.420   7.678  0.3320 -0.2877 -2.1816
47690SOL    HW246348   8.625   5.554   7.677  0.1612 -0.2867  1.2662
47691SOL     OW46349   8.627  11.174   0.613  0.1180  0.2964  0.4916
47691SOL    HW146350   8.708  11.148   0.569  0.9470  1.2436  1.3974
47691SOL    HW246351   8.568  11.200   0.543  1.0072  0.6807 -0.1282
47692SOL     OW46352  10.939  10.837   2.995 -0.6897 -0.2786  0.0490
47692SOL    HW146353  10.868  10.779   3.020 -1.4269 -0.1280 -1.6333
47692SOL    HW246354  10.970  10.804   2.911  1.1430 -0.2474  0.6616
47693SOL     OW46355   8.636   3.566   4.251 -0.2368 -0.7589 -0.3290
47693SOL    HW146356   8.587   3.631   4.202  1.1562  0.0060 -0.7792
47693SOL    HW246357   8.711   3.615   4.287  0.2438 -1.8833  0.2567
47694SOL     OW46358   5.186   9.441   7.534 -0.9499 -0.2011 -0.2256
47694SOL    HW146359   5.191   9.529   7.572  1.0072 -0.3797  0.0223
47694SOL    HW246360   5.124   9.395   7.590 -1.4815  0.8119  0.0590
47695SOL     OW46361  11.384   6.729   3.997 -0.0487 -0.4546 -0.4429
47695SOL    HW146362  11.340   6.666   3.940 -0.8122  0.1330 -0.5166
47695SOL    HW246363  11.344   6.813   3.975 -0.3012 -0.2063  0.9062
47696SOL     OW46364   8.015   4.681   5.733 -0.6925  0.0164 -0.6705
47696SOL    HW146365   7.958   4.696   5.658 -1.6064  0.9746  0.1811
47696SOL    HW246366   7.965   4.624   5.791 -0.3126 -0.0885 -0.4419
47697SOL     OW46367   3.375  10.473   5.120 -0.6461 -0.6506  0.3601
47697SOL    HW146368   3.334  10.420   5.188  0.3135  0.1182  1.5818
47697SOL    HW246369   3.390  10.558   5.161  0.9263 -0.4916 -0.4489
47698SOL     OW46370   2.154   1.799   3.135 -0.1261 -0.2528 -0.6179
47698SOL    HW146371   2.094   1.810   3.208  0.8280  0.8718  0.0324
47698SOL    HW246372   2.098   1.790   3.058 -1.1232  0.6179 -0.0089
47699SOL     OW46373   9.829   8.141   9.745  0.0788 -0.6747  0.1706
47699SOL    HW146374   9.774   8.131   9.668 -0.2138  2.5648 -0.1714
47699SOL    HW246375   9.918   8.126   9.713 -0.1893 -1.1320 -0.3682
47700SOL     OW46376  11.295   2.033  10.561  0.0755 -0.0686 -0.6591
47700SOL    HW146377  11.295   2.033  10.657 -0.1049  1.6726 -0.6232
47700SOL    HW246378  11.319   1.943  10.537 -1.7451 -1.0592  0.9841
47701SOL     OW46379   6.039   9.889   0.774  0.0283  1.0137 -0.3116
47701SOL    HW146380   6.087   9.806   0.778 -0.5094  0.7307  2.4908
47701SOL    HW246381   6.104   9.955   0.796  0.4347  1.3838 -2.4543
47702SOL     OW46382   2.201   2.168   3.161 -0.5277  0.4480 -0.1312
47702SOL    HW146383   2.255   2.198   3.087 -0.7809  0.6384 -0.2402
47702SOL    HW246384   2.128   2.230   3.163 -1.2666 -0.3924 -0.6049
47703SOL     OW46385   1.836  10.370   1.772  0.4744 -0.4554  0.0115
47703SOL    HW146386   1.857  10.314   1.846 -0.4982 -0.2203  0.4793
47703SOL    HW246387   1.774  10.319   1.720  0.2163 -0.1431  0.0076
47704SOL     OW46388   9.350   1.510   4.350  0.0397  0.5020  0.3545
47704SOL    HW146389   9.255   1.520   4.343 -0.0351 -0.9164 -1.7693
47704SOL    HW246390   9.385   1.564   4.279  0.4631 -2.1654 -1.6519
47705SOL     OW46391   5.996   6.075  10.946  0.2360  0.1132 -0.4832
47705SOL    HW146392   6.002   6.042  11.036 -1.0022  0.9657 -0.0622
47705SOL    HW246393   6.032   6.164  10.951  2.3260 -0.6385 -1.3382
47706SOL     OW46394   7.969   4.079   2.556 -0.1849  0.1119 -0.0509
47706SOL    HW146395   8.042   4.117   2.508 -0.7575  1.9779  0.5023
47706SOL    HW246396   8.001   3.993   2.585  2.2510  1.3481  1.2113
47707SOL     OW46397   0.571   3.378  10.593  0.2974 -0.5653  0.3185
47707SOL    HW146398   0.586   3.360  10.500 -1.2631 -1.6222  0.2440
47707SOL    HW246399   0.604   3.300  10.638 -2.1825 -1.6701  0.3479
47708SOL     OW46400   2.881   8.739   7.603  0.4166 -0.6058  0.4052
47708SOL    HW146401   2.868   8.653   7.562  1.7366 -0.8239  0.4153
47708SOL    HW246402   2.798   8.756   7.647 -0.1303 -1.5366 -0.2132
47709SOL     OW46403   7.625   0.267   8.871  0.6350  0.3641  0.4925
47709SOL    HW146404   7.704   0.279   8.925  0.6527  2.3073  0.1017
47709SOL    HW246405   7.658   0.259   8.782  0.5441 -2.0151  0.6024
47710SOL     OW46406  10.591   9.235  10.441 -0.2990  0.4544 -0.7353
47710SOL    HW146407  10.543   9.162  10.479 -0.6260  1.6665  1.3687
47710SOL    HW246408  10.646   9.196  10.373 -0.9981 -1.6100 -0.1665
47711SOL     OW46409   7.085   3.391   1.190 -0.4659 -0.1092 -0.0653
47711SOL    HW146410   7.139   3.464   1.220  0.3005 -1.1420  1.1268
47711SOL    HW246411   7.093   3.325   1.258 -3.3804 -0.2669  0.2697
47712SOL     OW46412   0.378   1.259   2.182 -0.3572  0.6694 -0.2380
47712SOL    HW146413   0.451   1.316   2.158 -0.7601  0.7033 -1.4629
47712SOL    HW246414   0.402   1.223   2.268  0.6566  1.3975 -0.2066
47713SOL     OW46415   0.380   3.018   7.801 -0.0562 -0.2657 -0.4207
47713SOL    HW146416   0.387   2.970   7.719 -2.0274  1.2934 -1.5955
47713SOL    HW246417   0.435   2.969   7.863 -0.0848 -2.6072 -2.1303
47714SOL     OW46418   6.595   0.189   0.912  0.3295  0.4629 -0.6345
47714SOL    HW146419   6.648   0.255   0.866  1.5362  0.0308  0.0790
47714SOL    HW246420   6.541   0.150   0.844  0.6465  1.2056 -1.3285
47715SOL     OW46421   5.378   3.448   8.001  0.0124  0.4067 -1.0026
47715SOL    HW146422   5.328   3.412   8.073 -1.4725  1.8431 -1.2481
47715SOL    HW246423   5.459   3.481   8.041 -0.4156  0.4159 -0.1325
47716SOL     OW46424   3.377   4.540   4.630  0.2070  0.0899  0.2077
47716SOL    HW146425   3.464   4.501   4.626  0.0333 -0.3369  0.5174
47716SOL    HW246426   3.324   4.488   4.569  0.0087 -0.0857  0.5224
47717SOL     OW46427   5.901   7.891   1.881  0.1310 -0.0786  0.4535
47717SOL    HW146428   5.892   7.865   1.789 -2.0031  0.5523  0.4292
47717SOL    HW246429   5.995   7.904   1.894  0.3275  2.2023 -2.3224
47718SOL     OW46430   7.301  11.166  10.484 -0.2646 -0.3830 -0.5113
47718SOL    HW146431   7.376  11.222  10.505  0.3548 -0.9637 -1.0949
47718SOL    HW246432   7.261  11.207  10.407 -0.2145 -0.3723 -0.5312
47719SOL     OW46433   8.948   6.789   2.179  0.0350  0.4429 -0.3778
47719SOL    HW146434   8.917   6.819   2.265  0.3557  1.2639 -0.5411
47719SOL    HW246435   9.014   6.853   2.153  0.7462 -0.4139 -0.7479
47720SOL     OW46436   2.247   2.915   7.006 -0.4560 -0.3535  0.2599
47720SOL    HW146437   2.220   2.853   7.074 -0.8057  0.4557  0.8781
47720SOL    HW246438   2.254   2.999   7.051 -1.8249  0.4383 -0.9236
47721SOL     OW46439   8.339   6.767   0.433 -0.2007  0.1143  1.0565
47721SOL    HW146440   8.337   6.687   0.486 -3.1181 -1.0765 -0.6306
47721SOL    HW246441   8.248   6.781   0.407  0.6770  2.2595 -1.2391
47722SOL     OW46442   6.939  11.244   5.842 -0.8231  0.4369 -0.3167
47722SOL    HW146443   6.977  11.173   5.893 -0.1108  1.4870  0.6615
47722SOL    HW246444   6.854  11.261   5.883  0.2075  2.0099  1.2940
47723SOL     OW46445   6.719   7.884   1.184  0.7591  0.0293 -0.3714
47723SOL    HW146446   6.637   7.858   1.142  1.4828  0.1856 -1.9729
47723SOL    HW246447   6.695   7.951   1.247 -0.3118  0.2718 -1.0252
47724SOL     OW46448   9.703   7.554   9.557 -0.3565  0.1284  0.1935
47724SOL    HW146449   9.728   7.481   9.500  0.1261  0.7549 -0.4276
47724SOL    HW246450   9.609   7.544   9.569 -0.0205 -1.7296  1.7703
47725SOL     OW46451   4.559   9.531   9.002 -0.1149  0.3429  0.1081
47725SOL    HW146452   4.536   9.441   9.026 -0.7150  1.0712  2.5395
47725SOL    HW246453   4.654   9.531   8.997 -0.1429 -0.5824 -0.7035
47726SOL     OW46454   2.463   8.407  10.849 -0.4677  0.4580  0.0979
47726SOL    HW146455   2.434   8.375  10.764 -0.2803  1.4894 -0.3634
47726SOL    HW246456   2.466   8.502  10.840 -1.1215  0.6322  1.4710
47727SOL     OW46457  11.077   8.084   4.404 -0.3664  0.2779 -0.4422
47727SOL    HW146458  11.038   8.148   4.463 -3.3024 -0.4452 -1.4256
47727SOL    HW246459  11.162   8.063   4.444 -0.6455  2.4585  1.5151
47728SOL     OW46460   8.906   9.671   6.490 -0.1425  0.4417  0.1518
47728SOL    HW146461   8.963   9.614   6.438 -1.7722  0.5972 -1.9185
47728SOL    HW246462   8.837   9.613   6.522  0.1504  0.6078  1.1421
47729SOL     OW46463   3.151   9.559   4.077 -0.3004  0.0907  0.1109
47729SOL    HW146464   3.164   9.618   4.003  0.9817 -0.4065 -0.0820
47729SOL    HW246465   3.238   9.548   4.115 -0.5371 -1.5260  0.2545
47730SOL     OW46466   1.159   3.358   6.097 -0.2416 -0.2086  0.2565
47730SOL    HW146467   1.241   3.331   6.138 -0.2644 -1.9699 -0.7750
47730SOL    HW246468   1.180   3.363   6.003 -0.7758  1.5066  0.1797
47731SOL     OW46469   4.034   1.687   4.437  0.4378 -0.7297 -0.0304
47731SOL    HW146470   4.016   1.652   4.524  0.3493 -1.1212 -0.2052
47731SOL    HW246471   4.043   1.782   4.451 -1.8755 -0.4806  0.0473
47732SOL     OW46472  10.215   3.115   9.203  0.0443 -0.2588  0.2197
47732SOL    HW146473  10.290   3.105   9.143  0.2655 -1.2231  0.6418
47732SOL    HW246474  10.174   3.029   9.204  0.5054 -0.4878  2.0640
47733SOL     OW46475   2.493   3.706   5.016  0.1463  0.2348 -0.3785
47733SOL    HW146476   2.458   3.636   5.070  0.7961 -0.0579 -0.3212
47733SOL    HW246477   2.563   3.745   5.069 -0.4012  1.1204 -0.2914
47734SOL     OW46478   6.279   4.349   6.048 -0.4319  0.2795  0.2713
47734SOL    HW146479   6.331   4.269   6.036  0.7547  0.8563  1.3316
47734SOL    HW246480   6.290   4.371   6.140 -1.9614  0.8637  0.3403
47735SOL     OW46481   5.637   5.330   8.323 -0.2888  0.4730  0.5410
47735SOL    HW146482   5.606   5.351   8.235  0.1008  2.9425  0.9043
47735SOL    HW246483   5.632   5.235   8.329 -0.1477  0.2180 -2.2111
47736SOL     OW46484   5.422   6.862   4.716  0.4333 -0.5243 -0.0437
47736SOL    HW146485   5.509   6.900   4.710  0.1603  0.0351 -0.5089
47736SOL    HW246486   5.368   6.931   4.755  0.2322 -0.9281  0.4029
47737SOL     OW46487   7.891   8.326   9.073 -0.4078  0.3368  0.5575
47737SOL    HW146488   7.986   8.326   9.082 -0.5337  0.3958  2.2652
47737SOL    HW246489   7.863   8.247   9.119 -1.0606 -1.1070 -2.1251
47738SOL     OW46490   4.029   3.516   5.024  0.3559 -0.0588 -0.3364
47738SOL    HW146491   4.026   3.559   4.938  1.4905 -0.7921 -0.7592
47738SOL    HW246492   4.004   3.426   5.007  0.6520 -0.2258  0.0912
47739SOL     OW46493   4.886   2.468   2.615 -0.1916 -0.1849  0.1269
47739SOL    HW146494   4.933   2.477   2.698  1.5543  1.5182 -0.9668
47739SOL    HW246495   4.946   2.502   2.549 -1.7218 -1.0116 -1.8109
47740SOL     OW46496   0.284   9.136   6.385 -0.3918  0.1435  0.6178
47740SOL    HW146497   0.345   9.088   6.442  0.6067 -0.1354 -0.6458
47740SOL    HW246498   0.236   9.068   6.338  1.0378  0.3139 -1.1890
47741SOL     OW46499   5.332  11.301   6.696  0.6750 -0.2976 -0.3628
47741SOL    HW146500   5.284  11.272   6.773  0.3300 -0.7293 -0.7309
47741SOL    HW246501   5.322  11.396   6.695  1.0949 -0.2342  0.3887
47742SOL     OW46502   2.966   4.038   3.196 -0.1952  0.5262  0.1200
47742SOL    HW146503   2.896   4.029   3.260 -0.3852  0.5021 -0.0902
47742SOL    HW246504   2.978   3.950   3.161 -0.3986  0.6201 -0.1960
47743SOL     OW46505   2.840   7.693   3.888 -0.5982  0.1061 -0.9941
47743SOL    HW146506   2.777   7.753   3.849 -1.1067  0.3694  0.1748
47743SOL    HW246507   2.788   7.618   3.917 -0.0633 -0.6149 -1.8411
47744SOL     OW46508   8.504   6.199   7.894  0.1883  0.1847  0.1429
47744SOL    HW146509   8.521   6.207   7.800 -0.4575 -1.9496 -0.2079
47744SOL    HW246510   8.429   6.140   7.900  0.7573 -0.4171  2.0149
47745SOL     OW46511   0.204   2.585   4.422 -0.3945 -0.2026 -0.6400
47745SOL    HW146512   0.266   2.516   4.399  0.8622  1.1415 -1.4487
47745SOL    HW246513   0.147   2.545   4.488  1.6720 -1.3226  0.5580
47746SOL     OW46514   6.774   6.431   9.908  0.6138 -0.2310 -0.3982
47746SOL    HW146515   6.683   6.451   9.932  1.4015  2.2084  0.8164
47746SOL    HW246516   6.797   6.356   9.963 -0.7033 -1.0509 -0.9088
47747SOL     OW46517   6.265   9.615   9.272 -0.0016 -0.5551  0.0038
47747SOL    HW146518   6.189   9.671   9.289  1.7343  1.9513 -0.0646
47747SOL    HW246519   6.340   9.663   9.307  2.1016 -1.0158 -3.3668
47748SOL     OW46520   3.074  10.988   5.428 -0.5760  0.1545 -0.4160
47748SOL    HW146521   3.104  10.931   5.498  2.3051  0.3008 -1.3894
47748SOL    HW246522   3.023  10.931   5.370 -5.2226  0.4966  2.7722
47749SOL     OW46523   2.779  11.361   3.464  0.6390 -0.6468 -0.2967
47749SOL    HW146524   2.851  11.302   3.439  1.3000 -0.4155  0.9751
47749SOL    HW246525   2.792  11.439   3.410  1.7823 -0.3284  0.4074
47750SOL     OW46526   8.289   7.152  10.101 -0.1286 -0.6064 -0.7135
47750SOL    HW146527   8.254   7.072  10.140 -0.7072  0.0611  0.1860
47750SOL    HW246528   8.375   7.164  10.143 -0.6728  0.0132  0.2691
47751SOL     OW46529   3.353   4.558   0.943 -0.1041 -0.2336 -0.5978
47751SOL    HW146530   3.291   4.597   0.881 -0.7880  0.1811  0.3271
47751SOL    HW246531   3.298   4.527   1.015  0.7546  0.0299  0.1778
47752SOL     OW46532   7.806   4.125   0.706 -0.0261 -0.1188  0.3634
47752SOL    HW146533   7.814   4.196   0.642 -1.1027 -0.3297 -0.0150
47752SOL    HW246534   7.826   4.046   0.657  2.1164 -0.0283  1.0030
47753SOL     OW46535   7.982   5.270  10.078  0.6175 -0.1815 -0.0591
47753SOL    HW146536   8.034   5.229  10.147  0.7788  0.1419  0.0122
47753SOL    HW246537   7.894   5.235  10.091  0.8763 -0.9614 -0.3682
47754SOL     OW46538   4.419  10.037   1.855  0.2141  0.2145 -0.0252
47754SOL    HW146539   4.494  10.046   1.914  0.6879  3.3447 -0.8814
47754SOL    HW246540   4.343  10.041   1.913  0.6706 -0.5149  0.6494
47755SOL     OW46541   9.140   1.796   7.670 -0.0072 -0.2389 -0.6100
47755SOL    HW146542   9.181   1.729   7.724  1.7319  0.5954 -0.8445
47755SOL    HW246543   9.197   1.872   7.678 -0.8314  0.5644 -1.9690
47756SOL     OW46544   4.212   0.624   5.505  0.5281  0.6695 -0.6495
47756SOL    HW146545   4.183   0.663   5.422  0.8627 -0.3117 -1.2540
47756SOL    HW246546   4.132   0.611   5.555  0.2322  0.5807 -1.1354
47757SOL     OW46547   0.476   3.893   9.825 -0.2414 -0.0953  0.0681
47757SOL    HW146548   0.382   3.876   9.823 -0.0472 -1.2072 -0.1730
47757SOL    HW246549   0.515   3.820   9.777  0.8120 -0.0860  0.8742
47758SOL     OW46550   8.247   3.534   7.801  0.0083  0.1521 -0.4069
47758SOL    HW146551   8.278   3.560   7.887  0.7673 -0.5123 -0.4675
47758SOL    HW246552   8.323   3.544   7.743  0.4630 -2.3340 -0.3805
47759SOL     OW46553   0.527   7.868   1.269  0.3483  0.0079 -0.3075
47759SOL    HW146554   0.565   7.788   1.306 -1.2846 -1.4584 -1.5859
47759SOL    HW246555   0.433   7.860   1.287 -0.0310  0.9200 -1.6994
47760SOL     OW46556   7.604   8.934   4.748  0.2351  0.0431 -0.0613
47760SOL    HW146557   7.600   9.028   4.730  0.3873  0.0942  0.1756
47760SOL    HW246558   7.664   8.925   4.822  0.8742 -0.3169 -0.6151
47761SOL     OW46559   8.405   7.903   2.419  0.2061  0.0949 -0.0195
47761SOL    HW146560   8.367   7.986   2.390  0.6394 -0.1631 -1.3931
47761SOL    HW246561   8.441   7.923   2.505 -1.0687  0.9135  0.3572
47762SOL     OW46562   7.770   3.534   8.743  0.5220 -0.4921  0.6659
47762SOL    HW146563   7.818   3.614   8.765  1.9213 -1.0677 -0.1759
47762SOL    HW246564   7.828   3.487   8.683 -1.3808 -0.9014 -0.9596
47763SOL     OW46565  10.883  10.249   7.543  0.0525 -0.0970 -0.5250
47763SOL    HW146566  10.902  10.163   7.579 -1.1772 -0.3128 -0.3564
47763SOL    HW246567  10.787  10.256   7.544  0.1394  1.5567  0.1445
47764SOL     OW46568   3.721   1.479   8.927 -0.2942  0.2495  0.1062
47764SOL    HW146569   3.772   1.433   8.994 -0.8291 -0.7251 -0.1301
47764SOL    HW246570   3.699   1.563   8.967  0.2039  0.0677  0.7845
47765SOL     OW46571   9.261   2.415  11.066  0.2155 -0.1622 -0.2455
47765SOL    HW146572   9.331   2.367  11.110 -0.6237 -0.4304  0.8551
47765SOL    HW246573   9.241   2.363  10.988  2.0257  0.5461 -1.2143
47766SOL     OW46574   2.322  10.528   5.990  0.0993  0.3049  0.1980
47766SOL    HW146575   2.307  10.576   5.909 -1.8542  1.4416  1.1659
47766SOL    HW246576   2.310  10.436   5.967  1.2926  0.4561 -1.1287
47767SOL     OW46577   9.449   3.593   5.745  0.3871 -0.1240  0.0624
47767SOL    HW146578   9.491   3.656   5.804  0.3223  2.0558 -2.0828
47767SOL    HW246579   9.510   3.519   5.742  0.8663  0.1196  2.0159
47768SOL     OW46580  11.348   8.113   9.214  0.1001 -0.4640 -0.8746
47768SOL    HW146581  11.281   8.161   9.262  1.1538  1.7820 -1.5130
47768SOL    HW246582  11.309   8.095   9.129 -0.5431 -1.4365 -0.4022
47769SOL     OW46583   1.360   2.681   0.962  0.1128 -0.4458 -0.5080
47769SOL    HW146584   1.396   2.651   0.878  1.4884  0.0554 -0.1190
47769SOL    HW246585   1.349   2.600   1.013 -0.7740 -0.7588 -1.1575
47770SOL     OW46586   6.580  11.011   7.285  0.1275 -0.0619  0.1256
47770SOL    HW146587   6.502  10.985   7.335  0.9753 -2.7115  0.2367
47770SOL    HW246588   6.651  11.012   7.350  0.3834  1.5395 -0.1251
47771SOL     OW46589   6.081   7.368   3.407  0.1828 -0.1156  0.0831
47771SOL    HW146590   6.062   7.433   3.475  0.6362  0.8844 -0.7210
47771SOL    HW246591   6.125   7.297   3.454  0.2486  0.4400  0.8851
47772SOL     OW46592   1.961   9.474   2.131  0.3274  0.0881  0.3673
47772SOL    HW146593   1.976   9.568   2.126 -1.2700  0.3608 -0.0272
47772SOL    HW246594   2.006   9.438   2.054 -0.3679  0.7443 -0.3695
47773SOL     OW46595   9.901   7.340   3.904  0.1421 -0.1628  0.1096
47773SOL    HW146596   9.818   7.331   3.858  0.5791 -0.5121 -0.6179
47773SOL    HW246597   9.943   7.254   3.896  1.3387  0.4939 -1.0200
47774SOL     OW46598   6.624   3.817   2.915  0.3026 -0.8141 -0.0378
47774SOL    HW146599   6.562   3.772   2.858  0.9576 -1.5958 -0.1502
47774SOL    HW246600   6.569   3.864   2.978 -0.4131 -1.7285  0.0461
47775SOL     OW46601   1.343   5.722   5.292  0.0854  0.4553  0.3795
47775SOL    HW146602   1.281   5.669   5.343  1.9085 -0.9407  1.2869
47775SOL    HW246603   1.369   5.792   5.352  1.0759 -0.3035  0.8734
47776SOL     OW46604   7.347   2.181   8.337  0.4277 -0.1099  0.0458
47776SOL    HW146605   7.405   2.243   8.292  0.1653  1.3935  1.6809
47776SOL    HW246606   7.379   2.095   8.310  1.2090  0.6955 -1.8026
47777SOL     OW46607   7.886   5.915   1.538 -0.1923 -0.1078  0.4422
47777SOL    HW146608   7.934   5.843   1.579  0.4472  0.7166  1.1903
47777SOL    HW246609   7.816   5.936   1.600  0.0429  0.3536  0.5600
47778SOL     OW46610  10.909   0.548   3.242 -0.9113  0.4802 -0.1498
47778SOL    HW146611  10.879   0.532   3.331 -1.3887  1.2220 -0.1695
47778SOL    HW246612  10.885   0.469   3.194  0.0751 -0.2716  0.5386
47779SOL     OW46613   8.618   2.893   0.464  0.2437 -0.3300  0.5114
47779SOL    HW146614   8.610   2.969   0.522 -0.9877 -0.3033  0.3278
47779SOL    HW246615   8.567   2.824   0.507  2.0599 -1.3497  1.1187
47780SOL     OW46616   1.893   2.050   5.067 -0.1993 -0.1782  0.4035
47780SOL    HW146617   1.866   2.059   4.976 -0.1885  0.5080  0.4595
47780SOL    HW246618   1.875   1.959   5.089  0.5566 -0.5679 -0.5283
47781SOL     OW46619   2.111   5.874   2.541  0.2694 -0.2264 -0.0992
47781SOL    HW146620   2.121   5.919   2.625 -0.0441 -1.1138  0.4239
47781SOL    HW246621   2.027   5.904   2.508  0.4838  0.2792 -0.1989
47782SOL     OW46622   9.936   1.744  10.609 -0.1120  0.1476  0.0791
47782SOL    HW146623   9.919   1.837  10.592 -1.4681  0.2610  1.8150
47782SOL    HW246624   9.892   1.726  10.692  0.5532 -1.9423  0.0387
47783SOL     OW46625   1.706   2.893   8.192 -0.3315  0.1270 -0.8559
47783SOL    HW146626   1.683   2.800   8.191 -2.7224  0.6507 -0.1544
47783SOL    HW246627   1.800   2.894   8.209 -0.2962 -2.1552 -0.6523
47784SOL     OW46628   3.950   2.487   6.246 -0.5821  0.4516  0.8008
47784SOL    HW146629   3.871   2.536   6.226  0.6724  2.9571  1.6566
47784SOL    HW246630   4.018   2.527   6.192  0.4922 -0.4026  1.4801
47785SOL     OW46631   0.411  10.860   6.908  0.1991  0.2195  0.0882
47785SOL    HW146632   0.352  10.806   6.961 -0.5662  1.1100  0.1672
47785SOL    HW246633   0.380  10.848   6.818 -0.8138  1.4970  0.2293
47786SOL     OW46634   8.337   1.275   7.796 -0.3313  0.4320 -0.0360
47786SOL    HW146635   8.358   1.348   7.855  0.6891  0.5229 -0.4961
47786SOL    HW246636   8.245   1.255   7.815 -0.0555  0.5077  1.5303
47787SOL     OW46637   6.219   6.592   6.128 -0.2389  0.2165  0.2015
47787SOL    HW146638   6.223   6.658   6.059  0.6425  0.9472  0.9186
47787SOL    HW246639   6.152   6.625   6.188  0.5871  0.7814  0.8458
47788SOL     OW46640  10.733   2.562   5.154 -0.3080 -0.2105 -0.0301
47788SOL    HW146641  10.765   2.646   5.187 -0.9661 -0.0622  0.2449
47788SOL    HW246642  10.678   2.527   5.225 -1.6314  0.0519 -0.9054
47789SOL     OW46643   6.221   0.610   7.761 -0.4664  0.7935 -0.4350
47789SOL    HW146644   6.292   0.668   7.732  0.8097 -0.4583  0.0293
47789SOL    HW246645   6.197   0.561   7.682  0.5035 -0.0733 -0.2208
47790SOL     OW46646   3.545   4.758   6.831  0.1024  0.0107 -0.5453
47790SOL    HW146647   3.459   4.780   6.866  0.0699 -0.6312 -0.2166
47790SOL    HW246648   3.535   4.765   6.736 -0.7761 -1.6677 -0.6106
47791SOL     OW46649   3.003   2.417   3.150  0.7944 -0.1804  0.3522
47791SOL    HW146650   3.063   2.349   3.121  1.2153 -0.6461  2.2113
47791SOL    HW246651   2.917   2.389   3.117  1.5159  0.5841 -2.4890
47792SOL     OW46652   7.215   5.207   5.053 -0.1875 -0.3265  0.3287
47792SOL    HW146653   7.132   5.169   5.024  0.3362 -2.2784  1.1899
47792SOL    HW246654   7.282   5.151   5.014  0.7821  1.5082 -0.7420
47793SOL     OW46655   0.552   9.910   0.727  0.1163 -0.6177 -0.0677
47793SOL    HW146656   0.571   9.877   0.815 -2.0359  0.5399  0.9244
47793SOL    HW246657   0.493   9.984   0.742 -1.2741 -1.1186 -2.5236
47794SOL     OW46658  10.714   1.234   9.468 -0.3155 -0.3468  0.5132
47794SOL    HW146659  10.646   1.238   9.534 -1.3936  3.0726 -0.5853
47794SOL    HW246660  10.795   1.255   9.515 -0.6712 -0.4219  1.1686
47795SOL     OW46661   6.105   1.528   6.784 -0.2682  0.0741  0.0449
47795SOL    HW146662   6.023   1.525   6.734  0.7864  1.0318 -1.8286
47795SOL    HW246663   6.102   1.613   6.829 -0.0485  0.3965 -0.5322
47796SOL     OW46664   0.387   4.160   7.259 -0.4518 -0.3969 -0.4397
47796SOL    HW146665   0.341   4.185   7.339  0.6437 -0.0557  0.1071
47796SOL    HW246666   0.371   4.066   7.250 -0.5871 -0.4353  0.1785
47797SOL     OW46667   6.391   2.006   8.061  0.2934  0.2667 -0.1815
47797SOL    HW146668   6.471   1.978   8.018  0.5159 -0.1067  0.4699
47797SOL    HW246669   6.323   1.995   7.994  0.5447 -0.8267 -0.2783
47798SOL     OW46670   4.807   4.823   2.974 -0.1047  0.5352 -0.1183
47798SOL    HW146671   4.766   4.778   3.048 -1.0793  1.2575 -0.1999
47798SOL    HW246672   4.858   4.755   2.930 -0.3060 -0.1291  0.6451
47799SOL     OW46673   6.484   0.421   6.037  0.2476  0.0382  0.1871
47799SOL    HW146674   6.389   0.427   6.027  0.2641 -0.8746 -0.6755
47799SOL    HW246675   6.499   0.438   6.130 -0.8961 -1.2398  0.6309
47800SOL     OW46676   0.594   6.297  10.497 -0.5990 -0.3537 -0.8343
47800SOL    HW146677   0.578   6.216  10.545  1.4605 -0.5531 -0.4088
47800SOL    HW246678   0.561   6.367  10.554 -2.0340 -0.8275 -1.0398
47801SOL     OW46679   0.264   8.470   1.994 -0.2589 -0.2013 -0.7351
47801SOL    HW146680   0.263   8.484   1.899  1.1076 -2.5989 -1.2069
47801SOL    HW246681   0.335   8.408   2.008 -0.2074  0.3312  1.9374
47802SOL     OW46682   6.247   2.845   1.437  0.5252  0.0734 -0.1840
47802SOL    HW146683   6.287   2.783   1.376 -0.1510  1.0197 -1.6345
47802SOL    HW246684   6.158   2.813   1.449  0.3713  0.4041 -0.4338
47803SOL     OW46685   0.370  10.909   2.921  0.0689 -0.4322 -0.1331
47803SOL    HW146686   0.447  10.873   2.964  1.1382  1.6174 -0.2140
47803SOL    HW246687   0.300  10.904   2.986  0.6937 -0.8160  0.5071
47804SOL     OW46688   0.942  11.041   5.349  0.5599  0.2662 -0.4333
47804SOL    HW146689   1.021  11.080   5.385  1.6133  0.3133 -2.6495
47804SOL    HW246690   0.897  11.004   5.425  2.4295  0.6929  0.9529
47805SOL     OW46691   5.422   2.974   8.992 -0.1279 -0.0222 -0.0160
47805SOL    HW146692   5.455   2.885   9.007  1.0374 -0.1571 -2.7045
47805SOL    HW246693   5.416   3.013   9.079  1.1802 -2.0844  1.0868
47806SOL     OW46694   0.408   1.849   6.131 -0.0211 -0.0737  0.4574
47806SOL    HW146695   0.379   1.798   6.055  1.3000  0.6380 -0.5690
47806SOL    HW246696   0.391   1.791   6.206  0.9341 -1.8430 -0.6096
47807SOL     OW46697  11.253   7.295   2.517  0.4658 -0.5632  0.0771
47807SOL    HW146698  11.348   7.299   2.524  0.6620 -0.9519 -1.7943
47807SOL    HW246699  11.234   7.318   2.426 -0.9294 -3.9740 -0.6593
47808SOL     OW46700   2.068   7.097   6.960  0.1964 -0.2337 -0.4364
47808SOL    HW146701   2.146   7.128   6.914  0.1771 -1.3765 -1.2907
47808SOL    HW246702   2.070   7.002   6.948 -1.3271 -0.2765 -0.4653
47809SOL     OW46703   3.787   6.535   8.293  0.2581 -0.2872 -0.0342
47809SOL    HW146704   3.798   6.627   8.317  0.1865 -0.8792  2.6362
47809SOL    HW246705   3.808   6.531   8.200  4.1392  1.8284  0.5257
47810SOL     OW46706   3.439   7.831   1.933 -0.2019 -0.3557  0.0760
47810SOL    HW146707   3.477   7.819   1.846 -1.4219 -0.6609 -0.4363
47810SOL    HW246708   3.515   7.844   1.991  0.5956  3.7662 -1.5530
47811SOL     OW46709  10.670   7.063   5.870  0.0019  0.4469 -0.2300
47811SOL    HW146710  10.760   7.092   5.886 -0.0189  0.0563  0.6619
47811SOL    HW246711  10.679   6.982   5.820  0.1297  0.6131 -0.4795
47812SOL     OW46712   8.081  10.348   1.144  0.1647  0.2377  0.1077
47812SOL    HW146713   8.073  10.438   1.174 -3.2758  0.5217 -1.2093
47812SOL    HW246714   7.999  10.306   1.171  1.0435 -2.1041 -0.5759
47813SOL     OW46715   9.303   8.696   4.089 -0.3678 -0.0270  0.1986
47813SOL    HW146716   9.270   8.609   4.068 -0.0551  0.2945 -1.7581
47813SOL    HW246717   9.392   8.697   4.055 -0.3051  1.0000  0.3613
47814SOL     OW46718   0.027   1.619   9.086  0.4237 -0.8569  0.0371
47814SOL    HW146719   0.029   1.545   9.025  0.3995 -0.4077 -0.5219
47814SOL    HW246720   0.032   1.696   9.029  1.2013 -0.4442  0.6467
47815SOL     OW46721   9.502  11.319   5.489  0.2343  0.2678  0.0778
47815SOL    HW146722   9.437  11.249   5.496 -0.8689  1.3853  1.6661
47815SOL    HW246723   9.540  11.325   5.576  1.8483  0.2548 -0.5953
47816SOL     OW46724   6.609   9.196   3.647  0.1200  0.4106  0.1956
47816SOL    HW146725   6.671   9.220   3.578  0.6705  0.5667  0.7438
47816SOL    HW246726   6.654   9.218   3.729  1.1335 -3.4118  0.8503
47817SOL     OW46727   7.563   3.613   0.518 -0.3520  0.2362 -0.2993
47817SOL    HW146728   7.503   3.645   0.585  0.7748  1.2997  0.2398
47817SOL    HW246729   7.516   3.541   0.476 -2.3437  1.5673 -0.4830
47818SOL     OW46730   6.609   3.522   4.105  0.4028 -0.1304  0.4291
47818SOL    HW146731   6.555   3.541   4.182  0.7015 -2.1005  1.1705
47818SOL    HW246732   6.697   3.506   4.141  0.8672  0.2986 -0.4852
47819SOL     OW46733   9.241   7.568  10.530 -0.0164 -0.3764 -0.4381
47819SOL    HW146734   9.309   7.607  10.475 -1.1065  0.5422 -1.1767
47819SOL    HW246735   9.189   7.642  10.560  0.6874 -0.8088  2.0906
47820SOL     OW46736   5.298   6.948   9.135 -0.4046  0.5671  0.5157
47820SOL    HW146737   5.356   6.882   9.174 -0.3179  1.1329  1.3551
47820SOL    HW246738   5.278   6.913   9.048  0.4208 -0.0970  0.5808
47821SOL     OW46739   0.638  10.437   4.443  0.1473  0.1718 -0.3521
47821SOL    HW146740   0.625  10.480   4.528 -0.9326  0.0970 -0.4746
47821SOL    HW246741   0.551  10.409   4.416  0.7253 -1.5407 -0.5744
47822SOL     OW46742   1.573   0.445   1.775  0.1433  0.4302 -0.3766
47822SOL    HW146743   1.578   0.524   1.722 -2.0147 -0.2794 -1.7467
47822SOL    HW246744   1.580   0.373   1.712 -0.5025 -0.4527  0.5317
47823SOL     OW46745   7.741  10.781   1.705  0.0154  0.1972 -0.4190
47823SOL    HW146746   7.737  10.689   1.678 -2.4940 -0.0777  0.5789
47823SOL    HW246747   7.738  10.831   1.623 -0.4358 -0.6127 -0.9079
47824SOL     OW46748   1.135   6.519  10.402  0.3913 -0.3274 -0.4372
47824SOL    HW146749   1.098   6.431  10.398 -1.0724  0.2805 -0.6681
47824SOL    HW246750   1.123   6.555  10.314 -0.6047  0.7160  0.1035
47825SOL     OW46751   9.407   8.655   4.546 -0.5166 -0.2881 -0.0283
47825SOL    HW146752   9.471   8.702   4.600 -2.7216  0.8630  1.7104
47825SOL    HW246753   9.336   8.632   4.606 -2.0870 -0.8912 -2.0032
47826SOL     OW46754   3.956   9.889   6.297  0.2733 -0.5688  0.2802
47826SOL    HW146755   3.865   9.917   6.302 -0.8970 -3.7453 -0.7824
47826SOL    HW246756   3.978   9.894   6.204  1.0835 -0.1727  0.4805
47827SOL     OW46757   8.105   5.861   0.445 -0.1261 -0.4307  0.4478
47827SOL    HW146758   8.150   5.807   0.510 -1.9686  0.8958  2.9498
47827SOL    HW246759   8.049   5.799   0.398  0.7010 -1.2826  0.5397
47828SOL     OW46760  11.059   6.994   3.613  0.1943  0.7148 -0.0470
47828SOL    HW146761  11.154   6.982   3.600 -0.2581 -0.8985 -2.5229
47828SOL    HW246762  11.053   7.060   3.682  3.1329  2.2648 -1.0876
47829SOL     OW46763   1.003   8.345   0.041  0.1083 -0.0728 -0.1851
47829SOL    HW146764   1.044   8.306  -0.036 -1.2227 -0.9398 -0.4947
47829SOL    HW246765   0.921   8.383   0.009  0.2020  0.7986  0.5627
47830SOL     OW46766   1.608   7.487  10.981  0.5291  0.2817 -0.3632
47830SOL    HW146767   1.578   7.511  11.068 -1.6278 -2.5232 -0.1595
47830SOL    HW246768   1.683   7.429  10.996  0.1715 -0.1837 -0.3538
47831SOL     OW46769  10.433   1.625   3.571  0.2638  0.0716  0.2276
47831SOL    HW146770  10.502   1.651   3.633 -1.1629  1.1803  1.4431
47831SOL    HW246771  10.398   1.708   3.539 -2.6882 -0.2434  2.2128
47832SOL     OW46772  10.620   3.873   9.974  0.0378  0.2959 -0.0016
47832SOL    HW146773  10.666   3.853  10.056 -0.7840 -0.8076  0.2078
47832SOL    HW246774  10.678   3.839   9.906  0.0900 -0.0182  0.1966
47833SOL     OW46775   9.651   6.618   2.530 -0.1812  0.3399  0.0880
47833SOL    HW146776   9.636   6.651   2.618  0.4194  0.8917 -0.0083
47833SOL    HW246777   9.567   6.628   2.486 -0.8681 -1.1561  0.9635
47834SOL     OW46778  10.188   1.962   9.514  0.3133 -0.3277 -0.3471
47834SOL    HW146779  10.188   2.052   9.546  0.2790 -0.3625 -0.2493
47834SOL    HW246780  10.275   1.949   9.476  0.3814 -0.3149 -0.1924
47835SOL     OW46781  10.978   7.768   5.770  0.5368  0.1181 -0.2178
47835SOL    HW146782  10.883   7.756   5.770  0.3785  0.9196 -2.4510
47835SOL    HW246783  10.994   7.841   5.709  2.5891  0.0195  0.1071
47836SOL     OW46784   5.212   3.846   2.129  0.0011 -0.3741  0.1375
47836SOL    HW146785   5.216   3.872   2.037  2.2109 -1.7743 -0.2310
47836SOL    HW246786   5.119   3.829   2.145 -0.6520  1.4549 -1.3328
47837NA      NA46787  11.161   7.423   6.066  0.0322  0.6346 -0.2038
47838NA      NA46788   6.602   9.592   9.012 -0.0844 -0.1387 -0.0243
47839NA      NA46789   6.163   1.760   2.617 -0.1970 -0.1905 -0.3865
47840NA      NA46790  10.904   2.069   2.425  0.1115  0.0000 -0.0920
47841NA      NA46791  11.089   1.039   1.547  0.5085  0.2728  0.4969
47842NA      NA46792   1.260   8.485   3.693  0.1401 -0.2942  0.0616
47843NA      NA46793   6.952   3.045   2.032 -0.6785  0.4286 -0.1551
47844NA      NA46794   3.314   5.721   5.656 -0.2715 -0.0972  0.1220
47845NA      NA46795   6.004   1.243   3.229  0.0647  0.5725 -0.0859
47846NA      NA46796   8.850   0.264   4.251 -0.0016  0.3708  0.3157
47847NA      NA46797  10.051  10.752   2.646  0.0463  0.0978 -0.1040
47848NA      NA46798   6.760   0.209   4.789 -0.3155  0.0860 -0.5460
47849NA      NA46799  10.701   4.476  10.654  0.4741  0.1253  0.2894
47850NA      NA46800   7.807   0.657   3.045 -0.3878  0.4054  0.2750
47851NA      NA46801   5.375   8.741   8.734 -0.0596 -0.2070  0.0018
47852NA      NA46802   8.370   0.480   2.105  0.0743 -0.1461  0.0469
47853NA      NA46803   5.063   6.725   2.550 -0.0223  0.3611 -0.0988
47854NA      NA46804   5.633   7.749   8.588  0.2832 -0.0779  0.0334
47855NA      NA46805   7.820   2.713  11.328  0.0254 -0.7185 -0.0578
47856NA      NA46806   2.051  10.349   2.761  0.1924 -0.2983  0.1428
47857NA      NA46807   9.861   3.953   8.051 -0.0795 -0.0090  0.0296
47858NA      NA46808  10.281  10.984   2.688  0.1462 -0.2285 -0.1504
47859NA      NA46809  10.983   1.085   1.838 -0.4571 -0.1238  0.4218
47860NA      NA46810   7.364   3.262   9.752 -0.2573 -0.3628  0.9563
47861NA      NA46811  11.079   0.436   2.554  0.1448 -0.0405 -0.3585
47862NA      NA46812  10.382   1.285   8.838  0.0616 -0.3071 -0.0325
47863NA      NA46813  10.945  11.112   2.374 -0.2933 -0.0809 -0.4575
47864NA      NA46814   6.291   1.155   2.081  0.0275  0.4154  0.0724
47865NA      NA46815  10.895   7.775   1.774  0.2155 -0.2516  0.1305
47866NA      NA46816   0.809   0.372   8.435 -0.0567  0.0178  0.2815
47867NA      NA46817   9.584  11.001   1.650  0.0807  0.2271  0.2403
47868NA      NA46818   7.959   0.368   2.964 -0.6307 -0.2616 -0.1632
47869NA      NA46819   2.064   9.433  10.032 -0.3353  0.2655 -0.2189
47870NA      NA46820  10.032  10.622   5.149  0.1499 -0.1938  0.4263
47871NA      NA46821   4.897   7.744   5.573 -0.2904 -0.2812 -0.6426
47872NA      NA46822   9.849  11.231   1.192  0.0121 -0.3902  0.9070
47873NA      NA46823   6.896   0.742   4.369  0.3759  0.0429 -0.3107
47874NA      NA46824   9.996   5.461   7.410 -0.1931  0.1288 -0.4647
47875NA      NA46825   8.385   7.016   6.242  0.2793  0.0086 -0.1690
47876NA      NA46826   7.928   8.836  10.385 -0.2128 -0.2822 -0.6175
47877NA      NA46827   2.943   9.685   8.042 -0.4861 -0.4591 -0.0040
47878NA      NA46828   6.437   2.841   7.422  0.1401  0.1534 -0.7008
47879NA      NA46829  10.193   2.729   2.500 -0.8815 -0.2732 -0.4103
47880NA      NA46830   6.846   0.079   1.309 -0.0756  0.2069  0.0097
47881NA      NA46831   9.186  11.011   3.267 -0.3960  0.0582  0.0793
47882NA      NA46832  10.545   3.421   9.815 -0.0515  0.6401 -0.1940
47883NA      NA46833   4.519   1.501   0.846  0.2177  0.4851  0.1082
47884NA      NA46834   8.628   1.856   2.828  0.1575  0.0472  0.4619
47885NA      NA46835  10.054  11.040   2.534 -0.0825 -0.6643  0.7136
47886NA      NA46836   8.009   9.246   1.846  0.6554 -0.0660  0.1517
47887NA      NA46837   4.517   7.891  10.154 -0.2161 -0.0516  0.1394
47888NA      NA46838   8.312   2.122   5.088 -0.4095 -0.0859  0.0284
47889NA      NA46839  11.178  10.904   2.399  0.4720 -0.0630 -0.5606
47890NA      NA46840   2.484   6.129   6.157  0.2535 -0.0911 -0.0562
47891NA      NA46841   3.057   4.403   5.238 -0.0721 -0.4938  0.2626
47892NA      NA46842  11.388   0.413   2.575 -0.0729 -0.2948 -0.0792
47893NA      NA46843   1.179   6.062   8.561 -0.5983  0.5027  0.4286
47894NA      NA46844   9.357  10.836   3.360  0.1206 -0.3463 -0.3720
47895NA      NA46845   6.796   0.786   7.363 -0.4856  0.1614  0.0146
47896NA      NA46846   6.809   2.350   1.197 -0.4175  0.4525  0.4799
47897NA      NA46847  11.298   1.350   3.130 -0.3234 -0.0467  0.2123
47898NA      NA46848   4.542   6.330  10.056 -0.2497  0.1621  0.2598
47899NA      NA46849   0.644   5.608   0.110  0.2557 -0.5239  0.0240
47900NA      NA46850   9.966   2.532   2.372  0.0067 -0.1715  0.4498
47901NA      NA46851   1.605   3.058   3.605  0.0685  0.2975  0.1402
47902NA      NA46852   7.565   2.622   0.725  0.4080  0.4273 -0.0904
47903NA      NA46853   9.275   0.472   1.277 -0.0692 -0.4126  0.3512
47904NA      NA46854   8.050  10.147   3.569  0.5327  0.2556  0.2429
47905NA      NA46855   7.492   1.952   3.363  0.1594  0.3316  0.2485
47906NA      NA46856   1.585   0.774   0.128 -0.0063  0.1574  0.5749
47907NA      NA46857   8.947   2.951   1.701 -0.1268 -0.0309  0.3385
47908NA      NA46858   8.584   0.879   1.793  0.1690 -0.2364  0.3510
47909NA      NA46859   6.335   1.705   2.835  0.0009 -0.7834  0.1286
47910NA      NA46860   6.032   1.303   1.295  0.2737 -0.2488 -0.2199
47911NA      NA46861  10.118  10.853   2.332 -0.3382  0.1628  0.1328
47912NA      NA46862   3.812   2.739   7.656  0.3965  0.0968  0.0929
47913NA      NA46863   9.062   2.175   2.639 -0.1324 -0.5315  0.0615
47914NA      NA46864   2.944   6.051   8.808 -0.2115 -0.0642  0.3359
47915NA      NA46865  10.052  10.508   2.234 -0.3385 -0.1266  0.9081
47916NA      NA46866   6.775   1.540   3.797  0.3969  0.8442  0.4610
47917NA      NA46867   5.399   4.878   3.307  0.0649 -0.3611 -0.0813
47918NA      NA46868   7.040   0.896   4.153  0.0849  0.1326 -0.1757
47919NA      NA46869   8.904   1.634   2.364  0.4535  0.1102 -0.4830
47920NA      NA46870   9.138   2.756   1.810 -0.0992 -0.2999  0.2127
47921NA      NA46871   6.146   0.995   3.244  0.0360  0.0882  0.1276
47922NA      NA46872   9.701  10.811   3.348  0.2810  0.4644 -0.0732
47923NA      NA46873   0.967   3.926  10.918 -0.5579  0.3112  0.3033
47924NA      NA46874  10.515   4.132   1.652 -0.0011 -0.2370 -0.1279
47925NA      NA46875  10.303   0.785   1.071  0.0353  0.2692 -0.0508
47926NA      NA46876   5.222  10.353   2.856 -0.3021 -0.5963 -0.7025
47927NA      NA46877   3.152   2.880   2.824 -0.0185  0.3042 -0.0867
47928NA      NA46878   2.177   7.827   6.640  0.2429  0.2933  0.0043
47929NA      NA46879   4.088   9.571   3.682 -0.0466  0.0640  0.1489
47930NA      NA46880   8.261  10.814   4.474  0.1157 -0.1033  0.0291
47931NA      NA46881   5.758   2.441   1.466  0.5670 -0.1450 -0.0442
47932NA      NA46882   9.608   0.791   4.405 -0.1412  0.3363  0.8107
47933NA      NA46883   8.082  11.173   3.916  0.3057  0.3445 -0.6042
47934NA      NA46884   6.812   0.594   4.880 -0.2598 -0.0423  0.1596
47935NA      NA46885   3.996   1.458   7.980 -0.0371 -0.2267  0.3799
47936NA      NA46886   7.918   0.072   3.865 -0.4962 -0.5498  0.0863
47937NA      NA46887   8.803   9.114   4.392  0.2699  0.0750  0.3098
47938NA      NA46888   4.790   6.973   3.625 -0.1486  0.1466 -0.0022
47939NA      NA46889   4.962   9.364   3.840  0.1958  0.1952  0.1551
47940NA      NA46890   9.281   2.285   2.464  0.2427  0.1469  0.4396
47941NA      NA46891  10.840   1.966   2.136  0.2574 -0.7080  0.4985
47942NA      NA46892   9.371   0.315   4.236 -0.1353  0.6523  0.3744
47943NA      NA46893   8.436   0.243   2.315 -0.5764 -0.3460  0.1729
47944NA      NA46894   5.975   0.054   1.776 -0.3818 -0.5771  0.1816
47945NA      NA46895   8.412   5.360  10.718 -0.7413 -0.0567 -0.3353
47946NA      NA46896  11.224   8.837   2.634 -0.5750 -0.0603 -0.1273
47947NA      NA46897   8.154  10.983   4.210  0.4901 -0.3110 -0.2890
47948NA      NA46898   7.792  11.162   3.861  0.4285  0.3816  0.4454
47949NA      NA46899   8.349   0.067   1.786  0.3383 -0.0483  0.1100
47950NA      NA46900   6.351  10.354   3.933  0.2405 -0.1436  0.1801
47951NA      NA46901   0.602   8.985   8.973  0.0537  0.2178 -0.1175
47952NA      NA46902  10.179   8.564   6.147 -0.0219  0.0849  0.1869
47953NA      NA46903   8.267  11.389   2.274 -0.4363  0.2290  0.0352
47954NA      NA46904   1.155   3.780   4.493 -0.4088 -0.0304  0.0939
47955NA      NA46905   8.557   0.603   1.866  0.1798  0.0810 -0.3441
47956NA      NA46906   9.566   0.003   1.127 -0.3101  0.2498 -0.1816
47957NA      NA46907   2.327   7.867   3.095  0.1341 -0.1663  0.0486
47958NA      NA46908   5.870   4.536   6.438 -0.6002  0.0964  0.3831
47959NA      NA46909   3.210   8.296   8.970 -0.7034 -0.1708 -0.5475
47960NA      NA46910   3.765   3.212   9.078 -0.3579  0.5627  0.1691
47961NA      NA46911   5.953  10.120   6.617 -0.4488 -0.2050 -0.1751
47962NA      NA46912   6.671   0.331  11.306 -0.2824 -0.2008 -0.0736
47963NA      NA46913  11.181   9.975  10.384 -0.0847 -0.0517 -0.2742
47964NA      NA46914   3.784   2.953   1.239 -0.4936  0.2457  0.4468
47965NA      NA46915   7.288   1.817   3.215 -0.1003  0.4273  0.5074
47966NA      NA46916   5.408   9.747   7.157 -0.4723 -0.5733 -0.2435
47967NA      NA46917   0.164   0.365   2.282  0.0521  0.2496 -0.2795
47968NA      NA46918  10.390  10.272   4.934  0.2226  0.0738 -0.1543
47969NA      NA46919  11.260   0.586   2.405  0.2330  0.2252 -0.1800
47970NA      NA46920   6.201   0.438   1.630  0.2053 -0.1207 -0.2089
47971NA      NA46921  10.073   0.689   1.183 -0.1910  0.2732  0.4243
47972NA      NA46922   7.085  11.323   1.333  0.5248  0.1786  0.1602
47973NA      NA46923   7.350   2.783   2.950 -0.6550  0.0311 -0.2547
47974NA      NA46924  10.049   1.076   8.241 -0.1499  0.2579  0.1238
47975NA      NA46925   6.892   2.354   4.323 -0.3424  0.0059  0.2352
47976NA      NA46926  10.775   9.977   6.588 -0.1076 -0.3160  0.4651
47977NA      NA46927   9.294   2.566   1.609  0.2689  0.1460 -0.2647
47978NA      NA46928   5.405   3.710  10.881  0.0832  0.3354 -0.5363
47979NA      NA46929   1.989   9.415   5.969  0.1431  0.3117 -0.5163
47980NA      NA46930   2.404   0.713   3.013  0.8182  0.0023 -0.1895
47981NA      NA46931   9.071  10.822   3.505 -0.4459 -0.1590 -0.4153
47982NA      NA46932   7.049   0.890   3.854 -0.0276 -0.0667  0.0820
47983NA      NA46933   8.112  11.357   3.606  0.0957  0.2149 -0.2547
47984NA      NA46934   9.685   3.708   7.211 -0.2835  0.1402  0.6213
47985NA      NA46935   7.572   0.334   5.384 -0.0437 -0.0637 -0.2712
47986NA      NA46936   7.573   0.777   2.911 -0.1741  0.4860  1.0114
47987NA      NA46937   7.434  11.312   0.352  0.0221  0.2407  0.2021
47988NA      NA46938   7.463   2.566   2.735 -0.0088 -0.0943 -0.0245
47989NA      NA46939   9.124   2.753   2.678  0.3496  0.1843 -0.1649
47990NA      NA46940   6.168   2.777   9.264  0.1640 -0.1670 -0.3844
47991NA      NA46941   9.471   0.275   1.146  0.0058  0.6209  0.1612
47992NA      NA46942   8.682  11.146   2.757  0.3337 -0.1530 -0.4564
47993NA      NA46943  11.107   9.286   7.339  0.0197  0.0504  0.4239
47994NA      NA46944   5.696   0.707   2.810  0.0367  0.7632  0.2489
47995NA      NA46945  10.933   6.403   9.596 -0.0028 -0.4503 -0.1000
47996NA      NA46946   1.923   0.443   2.042  0.2854 -0.0663  0.0584
47997NA      NA46947   8.834   2.018   2.770 -0.3491 -0.0785  0.3000
47998NA      NA46948   9.290   1.203   4.509 -0.1346 -0.0896 -0.2612
47999NA      NA46949   5.882   0.950   3.243  0.2268  0.0397  0.0230
48000NA      NA46950   6.381   2.804   2.624 -0.4138  0.4362 -0.3008
48001NA      NA46951   0.546   4.773   2.852  0.3600 -0.1446 -0.0381
48002NA      NA46952  10.085   2.528   2.688  0.3825 -0.1716 -0.1522
48003NA      NA46953   7.010   3.007   1.688 -0.0973 -0.1437 -0.0123
48004NA      NA46954   9.090   2.478   2.574 -0.3129 -0.0135  0.0419
48005NA      NA46955   8.845   1.624   0.825 -0.2532  0.1358  0.2789
48006NA      NA46956   0.824  10.346   4.403 -0.1903  0.1453 -0.0763
48007NA      NA46957   1.326   1.124   6.004  0.0251  0.7352 -0.2351
48008NA      NA46958   6.760   2.901   1.518 -0.0804  0.5585 -0.1333
48009NA      NA46959   7.183   2.911   1.920 -0.3337 -0.2376  0.1487
48010NA      NA46960   8.159   7.558   0.832 -0.4260  0.2201 -0.1736
48011NA      NA46961   8.640  10.520   3.602  0.5325  0.0615 -0.2409
48012NA      NA46962   6.932   0.308   4.574  0.0687  0.2046  0.3791
48013NA      NA46963   8.784   2.088   3.078 -0.2476 -0.0336  0.1185
48014NA      NA46964   7.728   0.093   6.731  0.0264 -0.0245 -0.1064
48015NA      NA46965  10.968  10.179   8.699  0.2077 -0.3970 -0.0502
48016NA      NA46966  11.320   1.014   1.834 -0.3850 -0.4014 -0.5115
48017NA      NA46967   9.062   2.135   2.942  0.0029 -0.7570 -0.1791
48018NA      NA46968   7.574   5.100   9.403 -0.0071  0.0855  0.3260
48019NA      NA46969   6.949  10.259  10.269  0.2039  0.4933  0.2985
48020NA      NA46970   9.107   0.109   4.237 -0.0593 -0.4443 -0.1750
48021NA      NA46971   6.275   0.859   3.427  0.3079 -0.0395  0.2295
48022NA      NA46972   4.130   5.455   3.770  0.2283  0.3483  0.4100
48023NA      NA46973   0.415   0.768   0.466 -0.2652  0.4083 -0.3712
48024NA      NA46974   9.378   2.781   6.292 -0.1323  0.0660 -0.6333
48025NA      NA46975  10.226   4.943   0.817  0.0076 -0.3739  0.6600
48026NA      NA46976   9.878   3.176   1.126 -0.5322  0.5015 -0.5197
48027NA      NA46977   7.533  11.029   4.018  0.1973  0.0595 -0.6175
48028NA      NA46978   3.610   1.398   9.338  0.0962  0.3095 -0.1102
48029NA      NA46979   6.383   3.122  10.426  0.2556 -0.4357  0.1978
48030NA      NA46980   6.879   0.535   3.747  0.1323 -0.9508 -0.2499
48031NA      NA46981   6.406   6.830   1.955 -0.1160  0.2292 -0.0540
48032NA      NA46982   7.457  11.037   1.621  0.7791 -0.3637  0.3859
48033NA      NA46983   7.173   2.603   2.772  0.1559  0.1021 -0.0518
48034NA      NA46984   8.760   1.394  10.208  0.0898  0.2371  0.2167
48035NA      NA46985  11.034  10.899   2.144 -0.0306 -0.1157  0.5389
48036NA      NA46986   8.281   0.185   2.054 -0.9041  0.0266  0.0147
48037NA      NA46987   7.502   2.889   0.913 -0.3404  0.1739 -0.0951
48038NA      NA46988   1.011   4.127   7.563  0.7695  0.1990  0.0932
48039NA      NA46989   7.834   3.070   0.950 -0.3743  0.1828  0.1191
48040NA      NA46990   7.293  11.322   1.542  0.0804 -0.1394 -0.1716
48041NA      NA46991   6.463   0.351   1.679 -0.1431  0.3290 -0.0117
48042NA      NA46992   6.214   3.876   1.539  0.0835 -0.8063  0.1837
48043NA      NA46993   5.955   1.384   1.662 -0.4020 -0.2913 -0.4878
48044NA      NA46994   4.972   5.834   8.300 -0.3297 -0.0867 -0.0808
48045NA      NA46995   4.597   4.081   1.498 -0.4725  0.2565 -0.2726
48046NA      NA46996   1.210  11.265   6.937 -0.3315 -0.0848  0.5928
48047NA      NA46997   6.607   0.774   9.647  0.1132  0.0505 -0.2834
48048NA      NA46998   9.628  10.485   1.864 -0.0033 -0.2000  0.0077
48049NA      NA46999  10.225   0.736   0.418 -0.6184 -0.1040 -0.0581
48050NA      NA47000  11.236  10.949   9.748 -0.1218 -0.4884  0.1624
48051NA      NA47001   9.536   1.046   4.531  0.1197  0.2245 -0.0576
48052NA      NA47002   7.766   2.794   0.968  0.1974 -0.2876  0.2857
48053NA      NA47003  11.390   1.272   2.843  0.3264  0.4081  0.9456
48054NA      NA47004   9.056   0.331   4.032  0.1530 -0.3289  0.3561
48055NA      NA47005   9.286   1.914   9.302 -0.2937 -0.6022  0.1426
48056NA      NA47006   8.600   2.160   4.269 -0.1573  0.1563  0.2908
48057NA      NA47007   6.820   7.866   8.545  0.1381 -0.0940 -0.2508
48058NA      NA47008   7.387   5.625   5.159 -0.2971  0.1107 -0.5098
48059NA      NA47009   6.740   2.660   1.311 -0.2831 -0.2163  0.0558
48060NA      NA47010   9.426   2.921   3.402 -0.2005 -0.2573 -0.0104
48061NA      NA47011   3.294   8.386   0.972  0.2559 -0.1671 -0.0636
48062NA      NA47012  11.071   7.161   0.348  0.2817  0.5447 -0.3557
48063NA      NA47013   6.172   6.376   6.081 -0.1402 -0.6536 -0.0044
48064NA      NA47014   7.068   0.453   4.292 -0.6426  0.4736  0.1577
48065NA      NA47015   6.303   1.169   3.500  0.0647  0.6109 -0.1500
48066NA      NA47016   6.557   0.073   1.334  0.1896  0.5530 -0.0686
48067NA      NA47017   6.357   1.640   2.366 -0.0317  0.0171 -0.9510
48068NA      NA47018  11.317   0.821   2.266 -0.2956 -0.0373 -0.6459
48069NA      NA47019   6.506   1.028   3.327 -0.1958 -0.2809 -0.4351
48070NA      NA47020   6.296   0.872   2.101  0.0134 -0.0484  0.1183
48071NA      NA47021   6.011   1.285   2.250 -0.1831  0.1613  0.2016
48072NA      NA47022   2.950   6.290   3.487  0.2160 -0.1663  0.1768
48073NA      NA47023   6.998   0.641   3.994 -0.1556 -0.2021  0.5903
48074NA      NA47024   9.603  10.676   1.621  0.0884  0.4002 -0.5620
48075NA      NA47025  10.925   1.315   1.644 -0.4867 -0.6478 -0.5474
48076NA      NA47026   4.816   6.016   5.445  0.3981  0.3641  0.2047
48077NA      NA47027   6.414   0.665   1.832  0.4597 -0.3463 -0.0910
48078NA      NA47028  11.243   1.940   2.570 -0.1532  0.3101 -0.3278
48079NA      NA47029   0.164   3.904   4.108  0.1167 -0.0694  0.0211
48080NA      NA47030   8.987   0.061   3.969 -0.0445 -0.2278  0.0106
48081NA      NA47031   6.358   1.343   2.369 -0.2023  0.1252  0.2365
48082NA      NA47032   1.223   3.837   6.029  0.2783  0.3408  0.2261
48083NA      NA47033   7.605   4.787   3.592  0.3988  0.2335  0.4682
48084NA      NA47034  10.680   1.256   1.819 -0.1546 -0.0300 -0.5031
48085NA      NA47035   1.993   6.465   0.095 -0.0217  0.1678  0.4523
48086NA      NA47036   9.730  10.977   1.362 -0.4999  0.3061 -0.4104
48087NA      NA47037   7.665   0.002   3.940 -0.4357 -0.4228  0.2189
48088NA      NA47038  10.569   8.804   2.969 -0.3175 -0.6867  0.2703
48089NA      NA47039   1.833   1.014  10.352 -0.1842 -0.1283 -0.1269
48090NA      NA47040   8.009   1.464   8.875  0.2358  0.1213  0.3571
48091NA      NA47041   8.733  10.925   2.602 -0.2471 -0.3443  0.1708
48092NA      NA47042   6.174   0.970   4.334  0.2281 -0.6093 -0.2904
48093NA      NA47043   8.512   0.289   1.855 -0.2902  0.2342 -0.6832
48094NA      NA47044   3.188  11.377   5.503  0.1418 -0.3071  0.1000
48095NA      NA47045   4.542   1.745   9.187 -0.2272  0.1290 -0.0964
48096NA      NA47046   9.318  10.845   1.689 -0.1153  0.2350  0.2008
48097NA      NA47047   3.065  11.133   0.332 -0.5530 -0.1724  0.1875
48098NA      NA47048   8.920   1.944   2.495  0.4949  0.0686 -0.5085
48099NA      NA47049   4.851   4.711   9.853 -0.3635 -0.3720  0.0900
48100CL      CL47050   0.691   0.641   8.073  0.0997  0.4873  0.0679
48101CL      CL47051   2.051   1.309   0.326  0.8850 -0.1547  0.3210
48102CL      CL47052   1.799   0.802   2.375  0.4861 -0.1677 -0.3575
48103CL      CL47053   8.865   7.746   8.818  0.3502  0.1225 -0.1753
48104CL      CL47054   2.990   5.841   3.262 -0.0599  0.0272 -0.0357
48105CL      CL47055   0.431   0.048   9.231  0.0150  0.1094  0.1768
48106CL      CL47056   1.090  10.784   2.886 -0.3702 -0.0516  0.0045
48107CL      CL47057   1.132   2.189  11.257  0.1301  0.2858  0.4350
48108CL      CL47058   4.867   8.861   8.871  0.2169 -0.1527 -0.1457
48109CL      CL47059   1.310   9.896   4.049  0.0856 -0.0395  0.1537
48110CL      CL47060   2.448  10.178   5.284  0.3908  0.1305  0.3321
48111CL      CL47061   9.320   3.087   8.413 -0.1944 -0.0487 -0.0528
48112CL      CL47062   7.398   8.735   2.422 -0.2386 -0.1200  0.2004
48113CL      CL47063   8.454   9.861   5.146  0.1075 -0.1016  0.1920
48114CL      CL47064   0.098   9.430   9.101  0.4661  0.4228  0.0067
48115CL      CL47065   5.141   1.921  11.153 -0.1666 -0.0856 -0.4750
48116CL      CL47066   6.360   3.383   9.978 -0.1648  0.1592  0.1231
48117CL      CL47067  10.870   6.391   9.366  0.2997  0.0453 -0.3124
48118CL      CL47068   4.703   8.706   7.301  0.0028  0.3539  0.0193
48119CL      CL47069   2.429   7.219  11.088 -0.1045 -0.3787  0.4532
48120CL      CL47070   1.467   6.766   5.051 -0.1139  0.0988 -0.0477
48121CL      CL47071  10.684   1.018  10.187  0.4524 -0.0544  0.0367
48122CL      CL47072   7.204   1.229   9.756 -0.7441 -0.0742  0.2900
48123CL      CL47073  10.022   5.768  10.287  0.0921 -0.1988  0.0568
48124CL      CL47074  11.355   0.978   2.068  0.4306 -0.0136  0.3185
48125CL      CL47075   1.740   1.222   9.868 -0.0278  0.2491  0.1193
48126CL      CL47076   6.867   3.515   4.326 -0.0845 -0.0328 -0.2078
48127CL      CL47077   5.651   0.999   3.149 -0.0842  0.2073  0.2143
48128CL      CL47078   3.932   0.560   6.387 -0.3470 -0.2789 -0.2484
48129CL      CL47079   4.932   8.197   5.669 -0.0096 -0.5857 -0.2735
48130CL      CL47080   8.472   2.089   9.508 -0.0732 -0.3719 -0.3272
48131CL      CL47081   1.403   2.045   7.232 -0.1679 -0.6539 -0.2105
48132CL      CL47082   7.548   5.932   0.343  0.5137  0.4416 -0.0600
48133CL      CL47083   5.389   6.609   0.787 -0.0210  0.7889 -0.6096
48134CL      CL47084   4.908   5.790   5.374 -0.0431  0.1323 -0.2502
48135CL      CL47085   3.819   5.475   4.220 -0.4896  0.1552  0.3850
48136CL      CL47086   0.097   7.401  10.543 -0.0129  0.1570  0.7571
48137CL      CL47087   5.932   5.837   4.091  0.3677  0.2199  0.2208
48138CL      CL47088   1.114   3.274   4.817 -0.1041 -0.0143  0.1213
48139CL      CL47089   8.318   3.970   1.805 -0.3524  0.2259  0.0801
48140CL      CL47090   7.068   9.094   9.624  0.3271  0.1430 -0.3582
48141CL      CL47091   4.573   4.473  11.023  0.1796 -0.2443 -0.1268
48142CL      CL47092   3.222   2.741   1.052  0.0106  0.0692  0.3162
48143CL      CL47093   6.962   2.701   5.320  0.1971 -0.0480 -0.3511
48144CL      CL47094   6.917   7.558   3.355 -0.0389 -0.0656  0.0167
48145CL      CL47095   6.728   0.401   0.751  0.3692 -0.0639 -0.1599
48146CL      CL47096   5.546   7.646   7.100 -0.3125  0.4570  0.2542
48147CL      CL47097   7.035   6.805   0.349 -0.5639  0.3261  0.1450
48148CL      CL47098   4.001  10.477   4.313  0.4008 -0.0607  0.3032
48149CL      CL47099  11.134   8.011   7.183 -0.3238  0.3335  0.1162
48150CL      CL47100   5.951  10.883   8.133  0.0516 -0.1319  0.3997
48151CL      CL47101  10.891  11.093   3.327 -0.0849 -0.4792 -0.5295
48152CL      CL47102   3.104   1.634   4.236  0.6497 -0.3010  0.5097
48153CL      CL47103   6.272   5.181   5.167 -0.5635  0.0929  0.0903
48154CL      CL47104   6.541   7.195   8.345  0.4059  0.4487  0.0829
48155CL      CL47105  10.649   2.765   1.490 -0.0442  0.2900  0.2719
48156CL      CL47106   3.250   5.394   7.471 -0.1200 -0.2772  0.3006
48157CL      CL47107   4.455   7.575   3.196  0.3478 -0.1080 -0.6771
48158CL      CL47108   2.670   3.015   7.586 -0.0417  0.3145  0.3205
48159CL      CL47109   1.169   9.960   0.791  0.1181 -0.2230 -0.0651
48160CL      CL47110   4.358   6.482  10.019  0.0834 -0.1503  0.1714
48161CL      CL47111   9.166  11.309   5.745 -0.1668 -0.1497 -0.0905
48162CL      CL47112  11.227   2.215  11.377 -0.0362  0.2436 -0.0155
48163CL      CL47113   4.911   7.302   3.237 -0.1257  0.0389 -0.0543
48164CL      CL47114   0.024   8.828   2.512  0.1656 -0.0218  0.1827
48165CL      CL47115   5.126   2.603   2.452 -0.1452 -0.0279 -0.2863
48166CL      CL47116   6.179   6.645   7.279  0.2800 -0.0913  0.3523
48167CL      CL47117   6.864   4.139   2.036 -0.2415 -0.1552 -0.1200
48168CL      CL47118   4.574   4.820   0.689 -0.1953  0.3168 -0.3079
48169CL      CL47119   2.901  10.510   8.795  0.1400 -0.3064  0.0294
48170CL      CL47120  10.980   0.469   8.903 -0.0806 -0.6085 -0.5014
48171CL      CL47121  10.002   8.288   6.521  0.0357  0.0944 -0.8800
48172CL      CL47122   8.763  10.367   3.732  0.7034  0.0277 -0.1097
48173CL      CL47123   0.463   9.665   7.441  0.0772  0.2876 -0.3022
48174CL      CL47124   7.273   1.381   0.029 -0.1294  0.3665 -0.0885
48175CL      CL47125   6.027   4.206   8.629  0.1493  0.2333 -0.2325
48176CL      CL47126   7.002   2.835   8.544  0.0416  0.0365  0.3893
48177CL      CL47127   1.503   7.818   9.915 -0.3183 -0.2450 -0.0007
48178CL      CL47128  10.586  10.903  11.344 -0.0757  0.0270  0.0620
48179CL      CL47129   4.828   2.496  10.288 -0.1545 -0.0140  0.1990
48180CL      CL47130   5.072   5.440   2.835 -0.2572  0.5249 -0.1283
48181CL      CL47131   5.624  10.874   5.714  0.0147 -0.1305 -0.4445
48182CL      CL47132   6.439   9.233   6.356 -0.2080  0.0992 -0.4140
48183CL      CL47133   4.470   1.286   9.169  0.0466  0.0703  0.3244
48184CL      CL47134   3.863   3.717  11.059  0.3073  0.0334  0.4063
48185CL      CL47135   2.920   5.980   5.394 -0.0306  0.4299  0.6331
48186CL      CL47136   2.095   2.773   3.278  0.5081  0.4747  0.1850
48187CL      CL47137   1.546   6.299   6.651  0.2155  0.1318  0.2331
48188CL      CL47138   6.044   1.295   9.194  0.0348 -0.0100  0.2524
48189CL      CL47139   2.923   2.367   2.100  0.0255 -0.4489  0.2100
48190CL      CL47140  10.058   9.489   0.713  0.2096 -0.0747 -0.2229
48191CL      CL47141  11.150   3.883  10.443 -0.2002 -0.4380  0.1007
48192CL      CL47142   9.639  10.728   5.183  0.0803  0.3336 -0.3428
48193CL      CL47143   3.879   6.219   1.543 -0.4390 -0.4931 -0.1418
48194CL      CL47144   4.291   4.830  10.005 -0.0460  0.0717 -0.3102
48195CL      CL47145   1.975   3.309   7.778  0.1713  0.0214  0.1022
48196CL      CL47146   8.907   0.999  11.140  0.0905  0.6394 -0.1949
48197CL      CL47147   4.622   2.599   7.705  0.0590  0.3069 -0.2476
48198CL      CL47148   5.974   2.412   7.447  0.3403 -0.3404 -0.1195
48199CL      CL47149   2.171   2.313   8.814  0.4268 -0.8209 -0.1370
48200CL      CL47150  10.497  10.110   4.791  0.1294  0.3071  0.2095
48201CL      CL47151   3.136   0.082   1.945 -0.0061 -0.2901 -0.1298
48202CL      CL47152   3.011   7.923   8.297 -0.1617  0.1876  0.0594
48203CL      CL47153   4.986   8.805   0.502  0.2893 -0.1154  0.2114
48204CL      CL47154   2.948   6.980  10.133  0.0987 -0.0014  0.1503
48205CL      CL47155   5.592   0.554   1.481 -0.4135 -0.1216  0.4222
48206CL      CL47156  11.304   3.717   1.629  0.1477  0.1304 -0.0036
48207CL      CL47157   6.933   0.913   8.663 -0.2683 -0.3928 -0.0771
48208CL      CL47158   8.264  10.332   4.157 -0.4630 -0.2203  0.4179
48209CL      CL47159  10.377   4.628   1.178 -0.0689  0.0259  0.0010
48210CL      CL47160  11.157   4.298   3.921  0.4528 -0.2940 -0.2821
48211CL      CL47161   0.345   6.824   9.393 -0.1879  0.0946 -0.3736
48212CL      CL47162  10.164   5.019   5.429  0.0999  0.1135  0.2727
48213CL      CL47163  11.267   6.183  10.437 -0.2404  0.0480  0.1398
48214CL      CL47164   7.094   5.834  10.203  0.2360 -0.2525  0.3950
48215CL      CL47165  10.355   4.009   1.833 -0.1902 -0.3269 -0.1337
48216CL      CL47166   4.209   7.851   1.260  0.1222 -0.1843  0.1130
48217CL      CL47167   9.398   6.639   1.150  0.0626  0.4088  0.0890
48218CL      CL47168   0.100   1.777   4.482 -0.1361 -0.5125  0.3284
48219CL      CL47169   7.178   8.862  11.068  0.2308  0.6597  0.5052
48220CL      CL47170   8.229  10.723   9.010  0.0123 -0.2121 -0.2213
48221CL      CL47171   0.081   3.579   3.746 -0.3690 -0.3628 -0.5755
48222CL      CL47172   8.850   2.268   4.654  0.2594  0.4176  0.3608
48223CL      CL47173   8.050   5.962   5.337 -0.1699  0.0665 -0.1073
48224CL      CL47174  11.091   0.401   7.685  0.2639 -0.0013  0.2386
48225CL      CL47175   3.605  10.679   7.673 -0.1642 -0.4640 -0.1848
48226CL      CL47176   8.445  11.145   2.751 -0.0067  0.2146  0.3509
48227CL      CL47177  10.742   2.641  10.189  0.5549 -0.3564 -0.0541
48228CL      CL47178   5.593   7.531   8.665  0.1393 -0.3132 -0.1138
48229CL      CL47179   6.027   3.407  10.624  0.2592 -0.1890  0.0545
48230CL      CL47180   3.573   6.121   6.286  0.2015 -0.0850 -0.1353
48231CL      CL47181   1.855  10.760   2.230  0.0598  0.1678 -0.2303
48232CL      CL47182   1.854   6.150   8.771  0.2325  0.0524 -0.2129
48233CL      CL47183   9.314   1.079   9.398 -0.1442 -0.0386  0.4311
48234CL      CL47184   4.266   4.578   3.291  0.4045 -0.5441 -0.0019
  11.39930  11.39930  11.39930
